Title t= 348.00000 step= 174000
44469
    1GLY      N    1   5.865   5.552   4.379
    1GLY    HT1    2   5.769   5.562   4.340
    1GLY    HT2    3   5.882   5.632   4.442
    1GLY    HT3    4   5.878   5.466   4.436
    1GLY     CA    5   5.972   5.557   4.270
    1GLY    HA1    6   5.954   5.470   4.209
    1GLY    HA2    7   6.064   5.558   4.327
    1GLY      C    8   5.954   5.670   4.181
    1GLY      O    9   5.862   5.747   4.209
    2PRO      N   10   6.029   5.696   4.073
    2PRO     CD   11   6.125   5.604   4.011
    2PRO    HD1   12   6.071   5.511   3.983
    2PRO    HD2   13   6.204   5.571   4.081
    2PRO     CA   14   6.031   5.825   3.998
    2PRO     HA   15   6.040   5.901   4.075
    2PRO     CB   16   6.166   5.819   3.919
    2PRO    HB1   17   6.237   5.868   3.989
    2PRO    HB2   18   6.163   5.880   3.826
    2PRO     CG   19   6.198   5.669   3.898
    2PRO    HG1   20   6.167   5.625   3.801
    2PRO    HG2   21   6.309   5.661   3.905
    2PRO      C   22   5.917   5.851   3.905
    2PRO      O   23   5.903   5.967   3.867
    3GLY      N   24   5.839   5.752   3.861
    3GLY     HN   25   5.853   5.667   3.911
    3GLY     CA   26   5.738   5.761   3.763
    3GLY    HA1   27   5.700   5.660   3.757
    3GLY    HA2   28   5.788   5.800   3.676
    3GLY      C   29   5.622   5.856   3.789
    3GLY      O   30   5.566   5.913   3.698
    4ASN      N   31   5.582   5.873   3.915
    4ASN     HN   32   5.634   5.826   3.986
    4ASN     CA   33   5.465   5.952   3.949
    4ASN     HA   34   5.387   5.906   3.890
    4ASN     CB   35   5.439   5.929   4.100
    4ASN    HB1   36   5.349   5.976   4.146
    4ASN    HB2   37   5.535   5.957   4.147
    4ASN     CG   38   5.427   5.777   4.137
    4ASN    OD1   39   5.490   5.718   4.225
    4ASN    ND2   40   5.342   5.716   4.052
    4ASN   HD21   41   5.328   5.617   4.060
    4ASN   HD22   42   5.283   5.766   3.989
    4ASN      C   43   5.472   6.099   3.912
    4ASN      O   44   5.580   6.156   3.899
    5PRO      N   45   5.361   6.165   3.892
    5PRO     CD   46   5.226   6.104   3.905
    5PRO    HD1   47   5.205   6.072   4.009
    5PRO    HD2   48   5.212   6.024   3.829
    5PRO     CA   49   5.351   6.310   3.917
    5PRO     HA   50   5.404   6.355   3.834
    5PRO     CB   51   5.201   6.341   3.932
    5PRO    HB1   52   5.167   6.440   3.894
    5PRO    HB2   53   5.176   6.341   4.040
    5PRO     CG   54   5.140   6.221   3.867
    5PRO    HG1   55   5.036   6.198   3.901
    5PRO    HG2   56   5.138   6.239   3.758
    5PRO      C   57   5.424   6.355   4.049
    5PRO      O   58   5.471   6.279   4.135
    6GLY      N   59   5.433   6.491   4.069
    6GLY     HN   60   5.380   6.555   4.013
    6GLY     CA   61   5.450   6.550   4.201
    6GLY    HA1   62   5.441   6.656   4.184
    6GLY    HA2   63   5.552   6.528   4.229
    6GLY      C   64   5.363   6.510   4.318
    6GLY      O   65   5.275   6.424   4.302
    7PRO      N   66   5.379   6.576   4.433
    7PRO     CD   67   5.463   6.692   4.435
    7PRO    HD1   68   5.429   6.779   4.375
    7PRO    HD2   69   5.563   6.670   4.390
    7PRO     CA   70   5.334   6.532   4.561
    7PRO     HA   71   5.407   6.457   4.587
    7PRO     CB   72   5.354   6.661   4.634
    7PRO    HB1   73   5.349   6.654   4.745
    7PRO    HB2   74   5.266   6.723   4.606
    7PRO     CG   75   5.484   6.718   4.587
    7PRO    HG1   76   5.486   6.824   4.620
    7PRO    HG2   77   5.576   6.668   4.624
    7PRO      C   78   5.190   6.475   4.574
    7PRO      O   79   5.095   6.535   4.526
    8GLY      N   80   5.174   6.354   4.642
    8GLY     HN   81   5.253   6.318   4.690
    8GLY     CA   82   5.043   6.290   4.660
    8GLY    HA1   83   4.983   6.364   4.711
    8GLY    HA2   84   5.066   6.206   4.723
    8GLY      C   85   4.970   6.246   4.537
    8GLY      O   86   5.019   6.256   4.426
    9ASN      N   87   4.851   6.182   4.547
    9ASN     HN   88   4.827   6.153   4.640
    9ASN     CA   89   4.771   6.133   4.433
    9ASN     HA   90   4.826   6.060   4.377
    9ASN     CB   91   4.638   6.062   4.474
    9ASN    HB1   92   4.586   6.028   4.382
    9ASN    HB2   93   4.580   6.143   4.525
    9ASN     CG   94   4.650   5.953   4.573
    9ASN    OD1   95   4.767   5.921   4.605
    9ASN    ND2   96   4.538   5.904   4.627
    9ASN   HD21   97   4.540   5.820   4.681
    9ASN   HD22   98   4.451   5.945   4.600
    9ASN      C   99   4.725   6.246   4.342
    9ASN      O  100   4.715   6.366   4.384
   10PRO      N  101   4.696   6.208   4.213
   10PRO     CD  102   4.765   6.098   4.135
   10PRO    HD1  103   4.696   6.012   4.123
   10PRO    HD2  104   4.862   6.074   4.182
   10PRO     CA  105   4.634   6.311   4.124
   10PRO     HA  106   4.684   6.405   4.142
   10PRO     CB  107   4.644   6.250   3.989
   10PRO    HB1  108   4.642   6.324   3.906
   10PRO    HB2  109   4.558   6.182   3.972
   10PRO     CG  110   4.774   6.165   3.993
   10PRO    HG1  111   4.793   6.089   3.914
   10PRO    HG2  112   4.862   6.232   3.995
   10PRO      C  113   4.489   6.328   4.161
   10PRO      O  114   4.429   6.256   4.239
   11GLY      N  115   4.425   6.443   4.112
   11GLY     HN  116   4.474   6.501   4.048
   11GLY     CA  117   4.278   6.469   4.111
   11GLY    HA1  118   4.255   6.527   4.022
   11GLY    HA2  119   4.259   6.524   4.202
   11GLY      C  120   4.184   6.350   4.088
   11GLY      O  121   4.200   6.292   3.985
   12PRO      N  122   4.093   6.322   4.169
   12PRO     CD  123   4.070   6.381   4.295
   12PRO    HD1  124   4.017   6.479   4.292
   12PRO    HD2  125   4.154   6.387   4.367
   12PRO     CA  126   4.005   6.209   4.143
   12PRO     HA  127   4.064   6.130   4.099
   12PRO     CB  128   3.952   6.167   4.289
   12PRO    HB1  129   4.015   6.086   4.332
   12PRO    HB2  130   3.849   6.123   4.286
   12PRO     CG  131   3.961   6.300   4.370
   12PRO    HG1  132   3.867   6.355   4.348
   12PRO    HG2  133   3.981   6.286   4.478
   12PRO      C  134   3.891   6.228   4.043
   12PRO      O  135   3.825   6.127   4.011
   13GLY      N  136   3.885   6.343   3.969
   13GLY     HN  137   3.964   6.404   3.974
   13GLY     CA  138   3.763   6.379   3.888
   13GLY    HA1  139   3.734   6.294   3.828
   13GLY    HA2  140   3.787   6.463   3.825
   13GLY      C  141   3.639   6.416   3.972
   13GLY      O  142   3.612   6.352   4.073
   14ASN      N  143   3.560   6.515   3.927
   14ASN     HN  144   3.583   6.568   3.846
   14ASN     CA  145   3.440   6.566   3.985
   14ASN     HA  146   3.435   6.549   4.092
   14ASN     CB  147   3.441   6.717   3.962
   14ASN    HB1  148   3.454   6.744   3.855
   14ASN    HB2  149   3.537   6.754   4.005
   14ASN     CG  150   3.330   6.798   4.018
   14ASN    OD1  151   3.263   6.759   4.111
   14ASN    ND2  152   3.315   6.921   3.968
   14ASN   HD21  153   3.237   6.980   3.989
   14ASN   HD22  154   3.371   6.955   3.892
   14ASN      C  155   3.321   6.499   3.910
   14ASN      O  156   3.311   6.526   3.791
   15PRO      N  157   3.246   6.407   3.968
   15PRO     CD  158   3.253   6.369   4.111
   15PRO    HD1  159   3.245   6.468   4.161
   15PRO    HD2  160   3.353   6.326   4.134
   15PRO     CA  161   3.134   6.342   3.902
   15PRO     HA  162   3.166   6.293   3.811
   15PRO     CB  163   3.095   6.229   3.998
   15PRO    HB1  164   3.169   6.151   3.970
   15PRO    HB2  165   2.994   6.185   3.984
   15PRO     CG  166   3.132   6.286   4.140
   15PRO    HG1  167   3.053   6.357   4.171
   15PRO    HG2  168   3.145   6.200   4.209
   15PRO      C  169   3.019   6.429   3.859
   15PRO    OT1  170   2.946   6.382   3.774
   15PRO    OT2  171   2.996   6.540   3.909
   16LIT    LIT  172   2.224   6.709   2.464
   17LIT    LIT  173   5.747   0.728   1.632
   18LIT    LIT  174   8.291   7.356   0.089
   19LIT    LIT  175   1.215   4.833   4.445
   20LIT    LIT  176   1.823   0.768   4.502
   21LIT    LIT  177   1.607   5.698   5.777
   22LIT    LIT  178   5.269   7.781   4.499
   23LIT    LIT  179   3.326   0.627   5.084
   24LIT    LIT  180   4.322   5.725   1.079
   25LIT    LIT  181   6.520   6.199   4.401
   26LIT    LIT  182   6.476   6.927   1.415
   27LIT    LIT  183   0.839   3.087   0.078
   28LIT    LIT  184   0.006   3.892   6.212
   29LIT    LIT  185   6.846   0.554   0.146
   30LIT    LIT  186   4.284   1.258   4.408
   31LIT    LIT  187   0.050   2.082   1.820
   32LIT    LIT  188   5.947   1.767   3.533
   33LIT    LIT  189   8.083   4.851   3.159
   34LIT    LIT  190   0.599   0.697   2.779
   35LIT    LIT  191   7.078   5.707   3.291
   36LIT    LIT  192   5.485   4.368   1.066
   37LIT    LIT  193   6.347   4.992   0.229
   38LIT    LIT  194   3.158   1.502   3.178
   39LIT    LIT  195   4.682   5.717   5.786
   40LIT    LIT  196   6.281   1.764   6.228
   41LIT    LIT  197   0.867   6.072   6.379
   42LIT    LIT  198   0.600   2.745   3.724
   43LIT    LIT  199   2.813   6.522   3.809
   44LIT    LIT  200   3.058   3.326   3.252
   45LIT    LIT  201   1.857   2.590   4.212
   46LIT    LIT  202   5.614   4.242   6.661
   47LIT    LIT  203   5.185   5.011   4.921
   48LIT    LIT  204   5.522   1.753   0.698
   49LIT    LIT  205   1.250   3.106   3.366
   50LIT    LIT  206   3.457   4.759   0.762
   51LIT    LIT  207   4.073   1.171   2.494
   52LIT    LIT  208   5.105   5.192   1.742
   53LIT    LIT  209   2.609   1.309   1.903
   54LIT    LIT  210   3.739   7.553   1.519
   55LIT    LIT  211   4.901   0.674   6.607
   56LIT    LIT  212   3.373   7.286   6.514
   57LIT    LIT  213   7.143   5.053   3.850
   58CLA    CLA  214   3.396   1.707   2.840
   59CLA    CLA  215   5.694   0.185   2.185
   60CLA    CLA  216   6.720   7.638   4.065
   61CLA    CLA  217   4.719   5.040   4.900
   62CLA    CLA  218   5.701   7.126   1.152
   63CLA    CLA  219   0.263   6.900   2.216
   64CLA    CLA  220   2.100   5.725   4.689
   65CLA    CLA  221   3.047   1.404   5.719
   66CLA    CLA  222   2.393   0.132   0.665
   67CLA    CLA  223   7.301   4.636   3.564
   68CLA    CLA  224   1.470   5.904   2.022
   69CLA    CLA  225   5.041   5.150   3.537
   70CLA    CLA  226   3.717   1.514   5.054
   71CLA    CLA  227   6.855   4.609   4.702
   72CLA    CLA  228   4.899   4.042   1.892
   73CLA    CLA  229   0.591   3.191   2.594
   74CLA    CLA  230   1.678   2.661   4.066
   75CLA    CLA  231   1.701   3.589   5.360
   76CLA    CLA  232   3.591   1.581   3.832
   77CLA    CLA  233   6.365   4.902   5.310
   78CLA    CLA  234   0.485   0.805   6.231
   79CLA    CLA  235   2.537   6.818   3.583
   80CLA    CLA  236   1.007   5.183   3.794
   81CLA    CLA  237   4.646   2.989   1.478
   82CLA    CLA  238   1.011   2.206   3.553
   83CLA    CLA  239   4.347   6.278   1.353
   84CLA    CLA  240   2.249   5.582   2.121
   85CLA    CLA  241   7.818   2.583   1.151
   86CLA    CLA  242   4.039   7.524   4.494
   87CLA    CLA  243   7.244   1.912   2.181
   88CLA    CLA  244   4.110   5.314   4.641
   89CLA    CLA  245   6.553   4.041   2.511
   90CLA    CLA  246   0.748   7.547   6.594
   91CLA    CLA  247   3.013   1.336   1.800
   92CLA    CLA  248   7.057   0.611   0.048
   93CLA    CLA  249   4.069   2.471   6.063
   94CLA    CLA  250   3.561   4.082   3.331
   95CLA    CLA  251   0.869   1.868   5.821
   96CLA    CLA  252   0.649   0.793   0.082
   97CLA    CLA  253   7.612   5.016   0.049
   98CLA    CLA  254   8.208   5.592   5.808
   99CLA    CLA  255   6.694   2.801   1.025
  100TIP3   OH2  256   4.575   0.514   4.625
  100TIP3    H1  257   4.553   0.533   4.534
  100TIP3    H2  258   4.495   0.476   4.661
  101TIP3   OH2  259   5.116   3.403   2.878
  101TIP3    H1  260   5.176   3.359   2.939
  101TIP3    H2  261   5.031   3.363   2.896
  102TIP3   OH2  262   5.154   1.404   1.753
  102TIP3    H1  263   5.080   1.464   1.763
  102TIP3    H2  264   5.226   1.445   1.800
  103TIP3   OH2  265   3.591   4.078   6.171
  103TIP3    H1  266   3.542   4.154   6.140
  103TIP3    H2  267   3.669   4.076   6.115
  104TIP3   OH2  268   0.804   3.755   0.006
  104TIP3    H1  269   0.883   3.784  -0.041
  104TIP3    H2  270   0.833   3.678   0.056
  105TIP3   OH2  271   5.469   2.163   6.397
  105TIP3    H1  272   5.524   2.109   6.454
  105TIP3    H2  273   5.518   2.168   6.315
  106TIP3   OH2  274   3.170   6.524   3.446
  106TIP3    H1  275   3.222   6.597   3.482
  106TIP3    H2  276   3.222   6.491   3.374
  107TIP3   OH2  277   3.927   1.166   2.614
  107TIP3    H1  278   3.856   1.206   2.665
  107TIP3    H2  279   3.893   1.080   2.591
  108TIP3   OH2  280   6.779   1.022   5.239
  108TIP3    H1  281   6.852   1.076   5.208
  108TIP3    H2  282   6.727   1.006   5.161
  109TIP3   OH2  283   5.937   5.678   2.645
  109TIP3    H1  284   5.856   5.695   2.597
  109TIP3    H2  285   5.960   5.762   2.685
  110TIP3   OH2  286   2.839   0.016   0.575
  110TIP3    H1  287   2.847   0.108   0.600
  110TIP3    H2  288   2.755  -0.012   0.613
  111TIP3   OH2  289   7.760   0.782   5.088
  111TIP3    H1  290   7.720   0.811   5.006
  111TIP3    H2  291   7.853   0.776   5.068
  112TIP3   OH2  292   7.205   4.865   2.146
  112TIP3    H1  293   7.157   4.896   2.069
  112TIP3    H2  294   7.173   4.776   2.160
  113TIP3   OH2  295   0.434   1.301   5.937
  113TIP3    H1  296   0.499   1.341   5.996
  113TIP3    H2  297   0.353   1.349   5.954
  114TIP3   OH2  298   4.451   4.406   0.028
  114TIP3    H1  299   4.374   4.358  -0.002
  114TIP3    H2  300   4.476   4.364   0.110
  115TIP3   OH2  301   3.782   5.385   2.079
  115TIP3    H1  302   3.746   5.442   2.147
  115TIP3    H2  303   3.876   5.402   2.082
  116TIP3   OH2  304   6.631   3.425   4.165
  116TIP3    H1  305   6.644   3.364   4.238
  116TIP3    H2  306   6.719   3.459   4.148
  117TIP3   OH2  307   6.095   5.132   5.036
  117TIP3    H1  308   6.157   5.204   5.025
  117TIP3    H2  309   6.056   5.120   4.949
  118TIP3   OH2  310   1.228   1.676   3.097
  118TIP3    H1  311   1.224   1.713   3.185
  118TIP3    H2  312   1.229   1.581   3.111
  119TIP3   OH2  313   6.411   6.883   1.218
  119TIP3    H1  314   6.372   6.811   1.169
  119TIP3    H2  315   6.419   6.954   1.154
  120TIP3   OH2  316   1.269   2.559   6.532
  120TIP3    H1  317   1.326   2.608   6.591
  120TIP3    H2  318   1.265   2.471   6.571
  121TIP3   OH2  319   0.691   5.673   2.328
  121TIP3    H1  320   0.640   5.593   2.317
  121TIP3    H2  321   0.702   5.706   2.239
  122TIP3   OH2  322   0.139   3.018   0.559
  122TIP3    H1  323   0.135   2.978   0.472
  122TIP3    H2  324   0.095   3.102   0.548
  123TIP3   OH2  325   2.984   6.906   3.223
  123TIP3    H1  326   3.013   6.994   3.249
  123TIP3    H2  327   2.927   6.878   3.294
  124TIP3   OH2  328   2.312   7.435   1.956
  124TIP3    H1  329   2.218   7.456   1.953
  124TIP3    H2  330   2.317   7.343   1.932
  125TIP3   OH2  331   5.271   7.207   3.138
  125TIP3    H1  332   5.276   7.259   3.218
  125TIP3    H2  333   5.179   7.181   3.132
  126TIP3   OH2  334   4.793   7.625   2.329
  126TIP3    H1  335   4.710   7.632   2.281
  126TIP3    H2  336   4.839   7.553   2.285
  127TIP3   OH2  337   7.803   5.820   0.898
  127TIP3    H1  338   7.869   5.887   0.916
  127TIP3    H2  339   7.723   5.854   0.939
  128TIP3   OH2  340   7.758   0.931   6.033
  128TIP3    H1  341   7.701   0.859   6.061
  128TIP3    H2  342   7.701   1.008   6.032
  129TIP3   OH2  343   5.039   6.077   3.056
  129TIP3    H1  344   5.001   6.019   3.122
  129TIP3    H2  345   4.963   6.125   3.021
  130TIP3   OH2  346   7.757   6.994   1.671
  130TIP3    H1  347   7.812   7.067   1.699
  130TIP3    H2  348   7.724   7.021   1.585
  131TIP3   OH2  349   1.924   0.608   4.091
  131TIP3    H1  350   1.950   0.674   4.027
  131TIP3    H2  351   1.868   0.548   4.042
  132TIP3   OH2  352   0.206   2.964   5.178
  132TIP3    H1  353   0.201   3.042   5.233
  132TIP3    H2  354   0.152   2.899   5.222
  133TIP3   OH2  355   1.225   2.757   1.142
  133TIP3    H1  356   1.223   2.664   1.164
  133TIP3    H2  357   1.134   2.782   1.133
  134TIP3   OH2  358   1.813   6.518   4.527
  134TIP3    H1  359   1.799   6.539   4.620
  134TIP3    H2  360   1.790   6.426   4.520
  135TIP3   OH2  361   4.411   0.934   4.181
  135TIP3    H1  362   4.441   0.905   4.267
  135TIP3    H2  363   4.491   0.951   4.131
  136TIP3   OH2  364   4.913   6.251   1.955
  136TIP3    H1  365   4.881   6.334   1.919
  136TIP3    H2  366   4.961   6.211   1.882
  137TIP3   OH2  367   3.383   6.649   3.253
  137TIP3    H1  368   3.385   6.744   3.258
  137TIP3    H2  369   3.355   6.631   3.163
  138TIP3   OH2  370   4.708   3.129   1.772
  138TIP3    H1  371   4.665   3.214   1.760
  138TIP3    H2  372   4.730   3.100   1.683
  139TIP3   OH2  373   0.072   0.944   3.656
  139TIP3    H1  374   0.003   0.990   3.607
  139TIP3    H2  375   0.068   0.855   3.623
  140TIP3   OH2  376   0.455   5.396   5.414
  140TIP3    H1  377   0.470   5.323   5.475
  140TIP3    H2  378   0.368   5.429   5.437
  141TIP3   OH2  379   8.010   1.445   4.043
  141TIP3    H1  380   7.921   1.410   4.047
  141TIP3    H2  381   8.015   1.506   4.116
  142TIP3   OH2  382   7.722   6.541   6.279
  142TIP3    H1  383   7.728   6.619   6.224
  142TIP3    H2  384   7.812   6.513   6.292
  143TIP3   OH2  385  -0.017   5.864   4.554
  143TIP3    H1  386  -0.034   5.847   4.646
  143TIP3    H2  387   0.076   5.845   4.542
  144TIP3   OH2  388   2.373   2.657   0.706
  144TIP3    H1  389   2.388   2.572   0.665
  144TIP3    H2  390   2.451   2.708   0.685
  145TIP3   OH2  391   5.002   2.070   4.017
  145TIP3    H1  392   4.969   1.995   3.968
  145TIP3    H2  393   4.932   2.090   4.080
  146TIP3   OH2  394   1.070   2.143   5.717
  146TIP3    H1  395   1.027   2.227   5.705
  146TIP3    H2  396   1.005   2.087   5.759
  147TIP3   OH2  397   5.419   0.282   0.293
  147TIP3    H1  398   5.335   0.252   0.328
  147TIP3    H2  399   5.477   0.206   0.300
  148TIP3   OH2  400   6.046   0.473   3.317
  148TIP3    H1  401   5.994   0.405   3.358
  148TIP3    H2  402   6.077   0.434   3.235
  149TIP3   OH2  403   2.223   3.317   4.128
  149TIP3    H1  404   2.227   3.250   4.059
  149TIP3    H2  405   2.235   3.269   4.209
  150TIP3   OH2  406   1.528   6.985   1.548
  150TIP3    H1  407   1.598   6.922   1.531
  150TIP3    H2  408   1.473   6.944   1.614
  151TIP3   OH2  409   3.381   5.495   1.585
  151TIP3    H1  410   3.457   5.455   1.542
  151TIP3    H2  411   3.332   5.536   1.513
  152TIP3   OH2  412   4.336   0.794   0.851
  152TIP3    H1  413   4.333   0.740   0.930
  152TIP3    H2  414   4.309   0.736   0.780
  153TIP3   OH2  415   2.337   7.645   4.912
  153TIP3    H1  416   2.366   7.729   4.949
  153TIP3    H2  417   2.278   7.609   4.978
  154TIP3   OH2  418   7.883   6.802   3.991
  154TIP3    H1  419   7.834   6.749   4.054
  154TIP3    H2  420   7.962   6.751   3.973
  155TIP3   OH2  421   1.270   3.623   2.465
  155TIP3    H1  422   1.188   3.649   2.507
  155TIP3    H2  423   1.276   3.528   2.480
  156TIP3   OH2  424   0.478   2.855   3.408
  156TIP3    H1  425   0.408   2.877   3.469
  156TIP3    H2  426   0.456   2.905   3.329
  157TIP3   OH2  427   0.003   2.126   1.140
  157TIP3    H1  428   0.098   2.124   1.137
  157TIP3    H2  429  -0.020   2.075   1.218
  158TIP3   OH2  430   0.012   1.698   4.737
  158TIP3    H1  431  -0.032   1.781   4.722
  158TIP3    H2  432   0.085   1.719   4.795
  159TIP3   OH2  433   1.124   1.165   6.018
  159TIP3    H1  434   1.146   1.078   6.053
  159TIP3    H2  435   1.081   1.146   5.934
  160TIP3   OH2  436   4.739   4.265   1.553
  160TIP3    H1  437   4.770   4.289   1.466
  160TIP3    H2  438   4.782   4.328   1.612
  161TIP3   OH2  439   4.742   5.155   4.318
  161TIP3    H1  440   4.836   5.173   4.316
  161TIP3    H2  441   4.736   5.060   4.316
  162TIP3   OH2  442   0.663   6.066   4.311
  162TIP3    H1  443   0.628   5.991   4.263
  162TIP3    H2  444   0.719   6.111   4.248
  163TIP3   OH2  445   6.998   7.232   4.616
  163TIP3    H1  446   7.054   7.309   4.609
  163TIP3    H2  447   7.004   7.189   4.531
  164TIP3   OH2  448   3.386   4.437   0.410
  164TIP3    H1  449   3.303   4.391   0.403
  164TIP3    H2  450   3.382   4.505   0.342
  165TIP3   OH2  451   1.880   4.099   4.858
  165TIP3    H1  452   1.792   4.071   4.830
  165TIP3    H2  453   1.871   4.115   4.952
  166TIP3   OH2  454   4.564   4.188   3.313
  166TIP3    H1  455   4.606   4.262   3.269
  166TIP3    H2  456   4.575   4.206   3.406
  167TIP3   OH2  457   4.325   5.002   0.883
  167TIP3    H1  458   4.250   5.056   0.857
  167TIP3    H2  459   4.308   4.917   0.842
  168TIP3   OH2  460   5.779   2.675   4.417
  168TIP3    H1  461   5.710   2.707   4.358
  168TIP3    H2  462   5.750   2.701   4.504
  169TIP3   OH2  463   5.151   7.462   1.514
  169TIP3    H1  464   5.236   7.505   1.523
  169TIP3    H2  465   5.143   7.445   1.420
  170TIP3   OH2  466   4.503   3.951   1.112
  170TIP3    H1  467   4.431   3.928   1.170
  170TIP3    H2  468   4.493   4.044   1.096
  171TIP3   OH2  469   2.533   3.997   3.215
  171TIP3    H1  470   2.614   4.030   3.176
  171TIP3    H2  471   2.495   4.073   3.259
  172TIP3   OH2  472   2.252   0.317   4.533
  172TIP3    H1  473   2.266   0.227   4.563
  172TIP3    H2  474   2.176   0.347   4.583
  173TIP3   OH2  475   7.883   3.141   2.843
  173TIP3    H1  476   7.945   3.076   2.810
  173TIP3    H2  477   7.881   3.208   2.775
  174TIP3   OH2  478   7.716   7.211   4.344
  174TIP3    H1  479   7.705   7.129   4.296
  174TIP3    H2  480   7.794   7.198   4.398
  175TIP3   OH2  481   3.190   2.692   3.583
  175TIP3    H1  482   3.231   2.739   3.656
  175TIP3    H2  483   3.262   2.642   3.544
  176TIP3   OH2  484   0.973   0.632   5.366
  176TIP3    H1  485   0.987   0.551   5.415
  176TIP3    H2  486   0.938   0.693   5.431
  177TIP3   OH2  487   5.706   5.022   1.981
  177TIP3    H1  488   5.617   5.024   1.945
  177TIP3    H2  489   5.747   5.101   1.946
  178TIP3   OH2  490   1.068   5.211   3.014
  178TIP3    H1  491   1.024   5.127   3.029
  178TIP3    H2  492   1.157   5.187   2.989
  179TIP3   OH2  493   2.124   5.912   2.953
  179TIP3    H1  494   2.207   5.958   2.966
  179TIP3    H2  495   2.149   5.821   2.938
  180TIP3   OH2  496   2.844   7.511   5.482
  180TIP3    H1  497   2.788   7.493   5.407
  180TIP3    H2  498   2.829   7.437   5.541
  181TIP3   OH2  499   1.039   7.719   5.063
  181TIP3    H1  500   1.001   7.631   5.057
  181TIP3    H2  501   1.092   7.717   5.142
  182TIP3   OH2  502   2.652   7.416   0.647
  182TIP3    H1  503   2.648   7.497   0.596
  182TIP3    H2  504   2.567   7.375   0.633
  183TIP3   OH2  505   6.484   0.063   3.294
  183TIP3    H1  506   6.527   0.008   3.228
  183TIP3    H2  507   6.534   0.145   3.293
  184TIP3   OH2  508   4.157   6.258   2.150
  184TIP3    H1  509   4.236   6.256   2.095
  184TIP3    H2  510   4.086   6.232   2.092
  185TIP3   OH2  511   0.238   3.225   0.210
  185TIP3    H1  512   0.319   3.190   0.174
  185TIP3    H2  513   0.230   3.312   0.171
  186TIP3   OH2  514   3.733   5.746   0.846
  186TIP3    H1  515   3.711   5.778   0.933
  186TIP3    H2  516   3.648   5.729   0.805
  187TIP3   OH2  517   2.300   6.962   3.364
  187TIP3    H1  518   2.374   6.920   3.407
  187TIP3    H2  519   2.307   7.054   3.389
  188TIP3   OH2  520   5.866   5.204   2.838
  188TIP3    H1  521   5.844   5.294   2.862
  188TIP3    H2  522   5.864   5.203   2.742
  189TIP3   OH2  523   2.541   5.452   2.585
  189TIP3    H1  524   2.485   5.513   2.635
  189TIP3    H2  525   2.595   5.410   2.651
  190TIP3   OH2  526   3.561   4.622   4.813
  190TIP3    H1  527   3.550   4.559   4.885
  190TIP3    H2  528   3.485   4.680   4.821
  191TIP3   OH2  529   4.958   6.547   1.748
  191TIP3    H1  530   4.956   6.564   1.654
  191TIP3    H2  531   4.868   6.563   1.777
  192TIP3   OH2  532   3.192   1.739   0.824
  192TIP3    H1  533   3.163   1.828   0.839
  192TIP3    H2  534   3.206   1.733   0.729
  193TIP3   OH2  535   6.074   4.941   2.463
  193TIP3    H1  536   6.089   5.021   2.412
  193TIP3    H2  537   5.979   4.935   2.471
  194TIP3   OH2  538   1.546   0.787   5.977
  194TIP3    H1  539   1.627   0.793   5.927
  194TIP3    H2  540   1.546   0.865   6.033
  195TIP3   OH2  541   5.227   3.725   0.046
  195TIP3    H1  542   5.198   3.793   0.107
  195TIP3    H2  543   5.320   3.716   0.063
  196TIP3   OH2  544   8.041   6.529   2.712
  196TIP3    H1  545   8.134   6.537   2.734
  196TIP3    H2  546   8.016   6.617   2.682
  197TIP3   OH2  547   6.872   4.048   5.792
  197TIP3    H1  548   6.858   3.987   5.720
  197TIP3    H2  549   6.836   4.131   5.760
  198TIP3   OH2  550   6.014   5.898   2.422
  198TIP3    H1  551   6.030   5.825   2.481
  198TIP3    H2  552   5.983   5.969   2.478
  199TIP3   OH2  553   0.024   2.317   4.073
  199TIP3    H1  554   0.080   2.240   4.064
  199TIP3    H2  555   0.024   2.357   3.986
  200TIP3   OH2  556   7.454   1.062   3.309
  200TIP3    H1  557   7.495   1.012   3.238
  200TIP3    H2  558   7.423   1.142   3.267
  201TIP3   OH2  559   4.709   4.695   5.595
  201TIP3    H1  560   4.622   4.730   5.611
  201TIP3    H2  561   4.761   4.770   5.566
  202TIP3   OH2  562   3.513   4.390   1.243
  202TIP3    H1  563   3.476   4.302   1.247
  202TIP3    H2  564   3.554   4.395   1.157
  203TIP3   OH2  565   2.329   4.141   6.320
  203TIP3    H1  566   2.326   4.047   6.306
  203TIP3    H2  567   2.287   4.154   6.405
  204TIP3   OH2  568   2.395   7.319   0.696
  204TIP3    H1  569   2.354   7.398   0.730
  204TIP3    H2  570   2.355   7.248   0.746
  205TIP3   OH2  571   6.525   3.900   5.837
  205TIP3    H1  572   6.600   3.938   5.882
  205TIP3    H2  573   6.512   3.956   5.760
  206TIP3   OH2  574   4.625   7.656   5.989
  206TIP3    H1  575   4.713   7.683   5.965
  206TIP3    H2  576   4.596   7.601   5.916
  207TIP3   OH2  577   8.131   4.740   4.074
  207TIP3    H1  578   8.170   4.654   4.088
  207TIP3    H2  579   8.100   4.767   4.160
  208TIP3   OH2  580   4.953   2.754   0.955
  208TIP3    H1  581   4.980   2.667   0.927
  208TIP3    H2  582   4.858   2.754   0.945
  209TIP3   OH2  583   4.567   7.031   0.746
  209TIP3    H1  584   4.601   7.018   0.834
  209TIP3    H2  585   4.539   7.123   0.745
  210TIP3   OH2  586   1.341   6.527   5.501
  210TIP3    H1  587   1.402   6.454   5.492
  210TIP3    H2  588   1.397   6.603   5.518
  211TIP3   OH2  589   1.583   6.698   6.287
  211TIP3    H1  590   1.615   6.786   6.310
  211TIP3    H2  591   1.529   6.672   6.361
  212TIP3   OH2  592   2.410   7.091   3.783
  212TIP3    H1  593   2.409   7.008   3.735
  212TIP3    H2  594   2.497   7.126   3.767
  213TIP3   OH2  595   4.881   0.892   1.045
  213TIP3    H1  596   4.921   0.807   1.027
  213TIP3    H2  597   4.926   0.923   1.124
  214TIP3   OH2  598   5.520   7.673   0.464
  214TIP3    H1  599   5.474   7.588   0.465
  214TIP3    H2  600   5.608   7.653   0.496
  215TIP3   OH2  601   5.800   3.067   2.232
  215TIP3    H1  602   5.717   3.037   2.269
  215TIP3    H2  603   5.853   3.089   2.308
  216TIP3   OH2  604   6.568   7.113   2.464
  216TIP3    H1  605   6.512   7.081   2.535
  216TIP3    H2  606   6.656   7.088   2.490
  217TIP3   OH2  607   6.428   6.343   2.991
  217TIP3    H1  608   6.498   6.282   2.966
  217TIP3    H2  609   6.405   6.316   3.080
  218TIP3   OH2  610   5.607   1.036   2.589
  218TIP3    H1  611   5.614   1.075   2.502
  218TIP3    H2  612   5.621   0.942   2.574
  219TIP3   OH2  613   0.925   7.214   4.134
  219TIP3    H1  614   0.884   7.269   4.201
  219TIP3    H2  615   1.018   7.211   4.159
  220TIP3   OH2  616   1.269   2.365   5.554
  220TIP3    H1  617   1.219   2.286   5.575
  220TIP3    H2  618   1.358   2.347   5.583
  221TIP3   OH2  619   3.550   1.086   3.209
  221TIP3    H1  620   3.555   0.990   3.213
  221TIP3    H2  621   3.641   1.115   3.216
  222TIP3   OH2  622   3.920   3.918   2.346
  222TIP3    H1  623   3.929   3.838   2.294
  222TIP3    H2  624   3.974   3.901   2.424
  223TIP3   OH2  625   1.187   0.483   5.247
  223TIP3    H1  626   1.107   0.535   5.254
  223TIP3    H2  627   1.238   0.506   5.325
  224TIP3   OH2  628   1.915   1.929   4.726
  224TIP3    H1  629   1.851   1.961   4.789
  224TIP3    H2  630   1.980   1.999   4.718
  225TIP3   OH2  631   2.921   1.608   2.479
  225TIP3    H1  632   2.950   1.688   2.435
  225TIP3    H2  633   2.908   1.634   2.570
  226TIP3   OH2  634   4.989   2.021   1.238
  226TIP3    H1  635   5.057   2.051   1.299
  226TIP3    H2  636   5.016   2.055   1.153
  227TIP3   OH2  637   3.552   1.443   2.779
  227TIP3    H1  638   3.525   1.514   2.837
  227TIP3    H2  639   3.470   1.405   2.747
  228TIP3   OH2  640   7.539   2.393   5.263
  228TIP3    H1  641   7.476   2.386   5.336
  228TIP3    H2  642   7.573   2.304   5.252
  229TIP3   OH2  643   5.932   3.882   5.788
  229TIP3    H1  644   5.882   3.801   5.785
  229TIP3    H2  645   5.941   3.908   5.696
  230TIP3   OH2  646   3.161   3.481   5.848
  230TIP3    H1  647   3.080   3.504   5.803
  230TIP3    H2  648   3.224   3.548   5.819
  231TIP3   OH2  649   6.188   0.347   4.088
  231TIP3    H1  650   6.264   0.363   4.144
  231TIP3    H2  651   6.115   0.389   4.135
  232TIP3   OH2  652   8.137   6.191   5.309
  232TIP3    H1  653   8.225   6.230   5.312
  232TIP3    H2  654   8.089   6.232   5.380
  233TIP3   OH2  655   3.273   1.987   1.215
  233TIP3    H1  656   3.182   1.999   1.186
  233TIP3    H2  657   3.270   1.911   1.272
  234TIP3   OH2  658   2.570   2.236   3.502
  234TIP3    H1  659   2.634   2.177   3.541
  234TIP3    H2  660   2.501   2.178   3.469
  235TIP3   OH2  661   6.084   3.453   4.513
  235TIP3    H1  662   6.043   3.476   4.430
  235TIP3    H2  663   6.063   3.525   4.572
  236TIP3   OH2  664   7.841   6.392   2.530
  236TIP3    H1  665   7.914   6.438   2.572
  236TIP3    H2  666   7.830   6.436   2.446
  237TIP3   OH2  667   3.921   0.249   1.707
  237TIP3    H1  668   3.884   0.209   1.629
  237TIP3    H2  669   4.013   0.263   1.686
  238TIP3   OH2  670   7.369   7.625   2.171
  238TIP3    H1  671   7.377   7.570   2.248
  238TIP3    H2  672   7.275   7.630   2.153
  239TIP3   OH2  673   1.496   3.651   6.683
  239TIP3    H1  674   1.429   3.595   6.723
  239TIP3    H2  675   1.579   3.613   6.710
  240TIP3   OH2  676   1.845   3.763   1.398
  240TIP3    H1  677   1.842   3.768   1.303
  240TIP3    H2  678   1.786   3.832   1.428
  241TIP3   OH2  679   2.070   7.780   4.836
  241TIP3    H1  680   2.027   7.703   4.872
  241TIP3    H2  681   2.164   7.761   4.844
  242TIP3   OH2  682   2.944   1.023   1.297
  242TIP3    H1  683   2.938   1.097   1.358
  242TIP3    H2  684   2.947   1.064   1.210
  243TIP3   OH2  685   6.277   2.476   0.786
  243TIP3    H1  686   6.302   2.435   0.704
  243TIP3    H2  687   6.348   2.538   0.804
  244TIP3   OH2  688   4.060   4.805   2.472
  244TIP3    H1  689   3.984   4.797   2.415
  244TIP3    H2  690   4.118   4.733   2.446
  245TIP3   OH2  691   2.395   6.350   2.655
  245TIP3    H1  692   2.351   6.353   2.570
  245TIP3    H2  693   2.354   6.277   2.701
  246TIP3   OH2  694   2.311   0.331   0.275
  246TIP3    H1  695   2.396   0.302   0.310
  246TIP3    H2  696   2.321   0.325   0.180
  247TIP3   OH2  697   1.916   3.254   0.264
  247TIP3    H1  698   1.943   3.170   0.227
  247TIP3    H2  699   1.984   3.275   0.328
  248TIP3   OH2  700   0.160   5.418   5.810
  248TIP3    H1  701   0.084   5.473   5.792
  248TIP3    H2  702   0.233   5.462   5.766
  249TIP3   OH2  703   7.387   6.103   0.361
  249TIP3    H1  704   7.433   6.173   0.408
  249TIP3    H2  705   7.457   6.047   0.329
  250TIP3   OH2  706   0.966   4.260   0.727
  250TIP3    H1  707   0.988   4.180   0.680
  250TIP3    H2  708   0.892   4.297   0.678
  251TIP3   OH2  709   2.514   0.453   2.150
  251TIP3    H1  710   2.419   0.453   2.145
  251TIP3    H2  711   2.535   0.519   2.216
  252TIP3   OH2  712   2.335   6.403   5.561
  252TIP3    H1  713   2.311   6.310   5.562
  252TIP3    H2  714   2.375   6.416   5.475
  253TIP3   OH2  715   2.043   0.686   2.700
  253TIP3    H1  716   1.999   0.659   2.781
  253TIP3    H2  717   2.135   0.666   2.714
  254TIP3   OH2  718   1.228   5.540   3.877
  254TIP3    H1  719   1.202   5.596   3.950
  254TIP3    H2  720   1.211   5.451   3.908
  255TIP3   OH2  721   6.989   6.230   1.723
  255TIP3    H1  722   6.937   6.305   1.695
  255TIP3    H2  723   7.039   6.262   1.798
  256TIP3   OH2  724   7.798   0.105   0.675
  256TIP3    H1  725   7.714   0.130   0.636
  256TIP3    H2  726   7.825   0.027   0.627
  257TIP3   OH2  727   5.051   6.117   6.733
  257TIP3    H1  728   5.020   6.042   6.684
  257TIP3    H2  729   4.993   6.123   6.809
  258TIP3   OH2  730   7.728   3.435   4.394
  258TIP3    H1  731   7.772   3.370   4.339
  258TIP3    H2  732   7.703   3.505   4.333
  259TIP3   OH2  733   6.426   3.645   0.618
  259TIP3    H1  734   6.333   3.664   0.603
  259TIP3    H2  735   6.457   3.720   0.669
  260TIP3   OH2  736   6.038   6.326   2.745
  260TIP3    H1  737   6.031   6.278   2.827
  260TIP3    H2  738   6.095   6.400   2.765
  261TIP3   OH2  739   2.482   4.055   2.500
  261TIP3    H1  740   2.524   4.009   2.427
  261TIP3    H2  741   2.495   3.997   2.575
  262TIP3   OH2  742   2.221   2.110   6.256
  262TIP3    H1  743   2.263   2.111   6.170
  262TIP3    H2  744   2.275   2.168   6.310
  263TIP3   OH2  745   7.909   7.634   3.548
  263TIP3    H1  746   7.942   7.567   3.488
  263TIP3    H2  747   7.836   7.674   3.501
  264TIP3   OH2  748   4.038   1.883   3.094
  264TIP3    H1  749   3.974   1.891   3.024
  264TIP3    H2  750   4.119   1.857   3.050
  265TIP3   OH2  751   5.084   0.225   6.546
  265TIP3    H1  752   5.051   0.158   6.486
  265TIP3    H2  753   5.070   0.187   6.633
  266TIP3   OH2  754   6.136   0.082   3.730
  266TIP3    H1  755   6.126   0.040   3.645
  266TIP3    H2  756   6.226   0.115   3.731
  267TIP3   OH2  757   5.282   4.557   4.486
  267TIP3    H1  758   5.194   4.525   4.507
  267TIP3    H2  759   5.313   4.597   4.567
  268TIP3   OH2  760   5.640   1.244   0.161
  268TIP3    H1  761   5.707   1.196   0.209
  268TIP3    H2  762   5.566   1.183   0.157
  269TIP3   OH2  763   1.256   7.682   0.856
  269TIP3    H1  764   1.293   7.602   0.893
  269TIP3    H2  765   1.171   7.655   0.820
  270TIP3   OH2  766   6.784   2.896   5.976
  270TIP3    H1  767   6.770   2.981   5.934
  270TIP3    H2  768   6.797   2.835   5.904
  271TIP3   OH2  769   0.850   0.309   2.181
  271TIP3    H1  770   0.913   0.266   2.123
  271TIP3    H2  771   0.804   0.370   2.123
  272TIP3   OH2  772   1.998   7.243   5.872
  272TIP3    H1  773   2.037   7.240   5.785
  272TIP3    H2  774   2.051   7.307   5.920
  273TIP3   OH2  775   6.476   7.598   1.314
  273TIP3    H1  776   6.510   7.512   1.340
  273TIP3    H2  777   6.511   7.658   1.379
  274TIP3   OH2  778   5.160   5.658   4.636
  274TIP3    H1  779   5.096   5.721   4.671
  274TIP3    H2  780   5.211   5.631   4.712
  275TIP3   OH2  781   2.191   0.015   3.491
  275TIP3    H1  782   2.167   0.025   3.583
  275TIP3    H2  783   2.202   0.104   3.459
  276TIP3   OH2  784   7.925   7.433   6.359
  276TIP3    H1  785   7.936   7.355   6.305
  276TIP3    H2  786   7.834   7.460   6.344
  277TIP3   OH2  787   4.728   4.705   3.865
  277TIP3    H1  788   4.763   4.700   3.954
  277TIP3    H2  789   4.637   4.734   3.877
  278TIP3   OH2  790   1.134   2.956   6.646
  278TIP3    H1  791   1.075   2.947   6.721
  278TIP3    H2  792   1.103   3.034   6.600
  279TIP3   OH2  793   0.395   6.007   2.156
  279TIP3    H1  794   0.450   6.082   2.133
  279TIP3    H2  795   0.365   6.027   2.244
  280TIP3   OH2  796   6.548   3.181   3.840
  280TIP3    H1  797   6.515   3.092   3.837
  280TIP3    H2  798   6.601   3.190   3.761
  281TIP3   OH2  799   0.472   2.451   0.154
  281TIP3    H1  800   0.547   2.394   0.137
  281TIP3    H2  801   0.398   2.406   0.114
  282TIP3   OH2  802   0.053   1.753   3.724
  282TIP3    H1  803  -0.017   1.704   3.766
  282TIP3    H2  804   0.025   1.762   3.633
  283TIP3   OH2  805   6.561   0.344   5.534
  283TIP3    H1  806   6.487   0.284   5.521
  283TIP3    H2  807   6.577   0.342   5.629
  284TIP3   OH2  808   3.742   6.097   0.985
  284TIP3    H1  809   3.690   6.158   1.037
  284TIP3    H2  810   3.680   6.057   0.924
  285TIP3   OH2  811   7.545   4.550   6.062
  285TIP3    H1  812   7.502   4.494   5.997
  285TIP3    H2  813   7.563   4.492   6.136
  286TIP3   OH2  814   7.098   1.962   5.829
  286TIP3    H1  815   7.162   1.969   5.900
  286TIP3    H2  816   7.143   1.998   5.753
  287TIP3   OH2  817   3.094   7.522   4.876
  287TIP3    H1  818   3.034   7.449   4.884
  287TIP3    H2  819   3.082   7.573   4.956
  288TIP3   OH2  820   5.127   3.838   5.570
  288TIP3    H1  821   5.205   3.787   5.592
  288TIP3    H2  822   5.144   3.870   5.481
  289TIP3   OH2  823   3.287   6.193   4.738
  289TIP3    H1  824   3.329   6.268   4.781
  289TIP3    H2  825   3.357   6.151   4.688
  290TIP3   OH2  826   6.302   6.128   1.669
  290TIP3    H1  827   6.293   6.165   1.581
  290TIP3    H2  828   6.254   6.189   1.725
  291TIP3   OH2  829   0.110   7.785   2.681
  291TIP3    H1  830   0.062   7.727   2.622
  291TIP3    H2  831   0.075   7.872   2.663
  292TIP3   OH2  832   0.939   3.255   6.639
  292TIP3    H1  833   1.000   3.218   6.575
  292TIP3    H2  834   0.869   3.293   6.586
  293TIP3   OH2  835   0.409   0.672   2.751
  293TIP3    H1  836   0.333   0.724   2.726
  293TIP3    H2  837   0.380   0.581   2.741
  294TIP3   OH2  838   2.070   7.769   0.900
  294TIP3    H1  839   2.093   7.684   0.936
  294TIP3    H2  840   1.978   7.760   0.874
  295TIP3   OH2  841   8.228   3.128   5.086
  295TIP3    H1  842   8.136   3.145   5.065
  295TIP3    H2  843   8.230   3.118   5.181
  296TIP3   OH2  844   7.779   3.278   4.756
  296TIP3    H1  845   7.763   3.201   4.810
  296TIP3    H2  846   7.764   3.352   4.814
  297TIP3   OH2  847   2.599   2.492   3.614
  297TIP3    H1  848   2.554   2.515   3.695
  297TIP3    H2  849   2.591   2.396   3.609
  298TIP3   OH2  850   3.090   5.665   4.959
  298TIP3    H1  851   2.997   5.673   4.938
  298TIP3    H2  852   3.109   5.742   5.013
  299TIP3   OH2  853   5.135   2.836   5.452
  299TIP3    H1  854   5.117   2.900   5.384
  299TIP3    H2  855   5.054   2.785   5.459
  300TIP3   OH2  856   0.189   2.738   1.686
  300TIP3    H1  857   0.139   2.699   1.614
  300TIP3    H2  858   0.138   2.719   1.764
  301TIP3   OH2  859   1.183   7.528   3.018
  301TIP3    H1  860   1.163   7.621   3.011
  301TIP3    H2  861   1.097   7.485   3.020
  302TIP3   OH2  862   6.441   2.344   5.353
  302TIP3    H1  863   6.458   2.307   5.439
  302TIP3    H2  864   6.522   2.329   5.304
  303TIP3   OH2  865   5.576   1.127   2.324
  303TIP3    H1  866   5.544   1.095   2.240
  303TIP3    H2  867   5.497   1.141   2.376
  304TIP3   OH2  868   0.880   0.603   0.175
  304TIP3    H1  869   0.816   0.665   0.140
  304TIP3    H2  870   0.832   0.520   0.182
  305TIP3   OH2  871   8.165   2.315   0.013
  305TIP3    H1  872   8.073   2.306  -0.013
  305TIP3    H2  873   8.162   2.364   0.095
  306TIP3   OH2  874   0.239   0.576   3.710
  306TIP3    H1  875   0.164   0.558   3.767
  306TIP3    H2  876   0.293   0.637   3.760
  307TIP3   OH2  877   4.246   6.009   0.286
  307TIP3    H1  878   4.251   5.918   0.318
  307TIP3    H2  879   4.157   6.036   0.308
  308TIP3   OH2  880   6.629   3.020   1.287
  308TIP3    H1  881   6.539   3.020   1.320
  308TIP3    H2  882   6.627   2.960   1.213
  309TIP3   OH2  883   3.710   4.636   0.109
  309TIP3    H1  884   3.785   4.692   0.130
  309TIP3    H2  885   3.635   4.696   0.106
  310TIP3   OH2  886   2.261   2.901   5.295
  310TIP3    H1  887   2.330   2.959   5.327
  310TIP3    H2  888   2.284   2.885   5.203
  311TIP3   OH2  889   6.936   6.061   0.974
  311TIP3    H1  890   6.932   6.156   0.983
  311TIP3    H2  891   7.023   6.043   0.940
  312TIP3   OH2  892   3.830   0.895   2.242
  312TIP3    H1  893   3.906   0.839   2.222
  312TIP3    H2  894   3.763   0.867   2.180
  313TIP3   OH2  895   2.201   4.163   0.004
  313TIP3    H1  896   2.141   4.185   0.076
  313TIP3    H2  897   2.222   4.247  -0.036
  314TIP3   OH2  898   1.300   1.443   1.238
  314TIP3    H1  899   1.286   1.402   1.323
  314TIP3    H2  900   1.325   1.533   1.258
  315TIP3   OH2  901   0.105   0.280   3.231
  315TIP3    H1  902   0.087   0.304   3.322
  315TIP3    H2  903   0.030   0.228   3.204
  316TIP3   OH2  904   4.495   7.297   5.347
  316TIP3    H1  905   4.528   7.378   5.309
  316TIP3    H2  906   4.413   7.281   5.299
  317TIP3   OH2  907   2.641   5.260   4.582
  317TIP3    H1  908   2.668   5.263   4.491
  317TIP3    H2  909   2.695   5.327   4.625
  318TIP3   OH2  910   2.757   4.343   4.983
  318TIP3    H1  911   2.802   4.278   4.930
  318TIP3    H2  912   2.674   4.302   5.009
  319TIP3   OH2  913   1.047   5.731   0.407
  319TIP3    H1  914   1.135   5.736   0.371
  319TIP3    H2  915   1.060   5.705   0.498
  320TIP3   OH2  916   6.135   7.255   1.067
  320TIP3    H1  917   6.157   7.334   1.116
  320TIP3    H2  918   6.069   7.212   1.122
  321TIP3   OH2  919   6.305   4.410   6.594
  321TIP3    H1  920   6.343   4.447   6.514
  321TIP3    H2  921   6.363   4.338   6.617
  322TIP3   OH2  922   8.025   5.666   0.541
  322TIP3    H1  923   8.068   5.732   0.487
  322TIP3    H2  924   8.074   5.585   0.524
  323TIP3   OH2  925   2.830   4.392   5.253
  323TIP3    H1  926   2.831   4.298   5.273
  323TIP3    H2  927   2.803   4.397   5.162
  324TIP3   OH2  928   0.942   2.268   4.236
  324TIP3    H1  929   0.934   2.223   4.320
  324TIP3    H2  930   0.993   2.347   4.255
  325TIP3   OH2  931   6.990   3.843   2.246
  325TIP3    H1  932   6.941   3.923   2.225
  325TIP3    H2  933   7.015   3.807   2.161
  326TIP3   OH2  934   2.684   6.623   1.403
  326TIP3    H1  935   2.701   6.641   1.495
  326TIP3    H2  936   2.707   6.531   1.391
  327TIP3   OH2  937   0.808   4.576   6.529
  327TIP3    H1  938   0.857   4.527   6.463
  327TIP3    H2  939   0.723   4.531   6.534
  328TIP3   OH2  940   3.442   4.462   6.694
  328TIP3    H1  941   3.376   4.393   6.701
  328TIP3    H2  942   3.421   4.523   6.764
  329TIP3   OH2  943   3.651   3.861   0.277
  329TIP3    H1  944   3.655   3.888   0.369
  329TIP3    H2  945   3.742   3.866   0.246
  330TIP3   OH2  946   3.215   3.062   0.418
  330TIP3    H1  947   3.128   3.073   0.457
  330TIP3    H2  948   3.208   3.104   0.333
  331TIP3   OH2  949   8.005   0.244   5.407
  331TIP3    H1  950   7.948   0.175   5.441
  331TIP3    H2  951   8.062   0.266   5.481
  332TIP3   OH2  952   6.622   4.017   1.175
  332TIP3    H1  953   6.552   4.031   1.111
  332TIP3    H2  954   6.690   3.970   1.128
  333TIP3   OH2  955   5.309   5.850   0.558
  333TIP3    H1  956   5.298   5.772   0.503
  333TIP3    H2  957   5.232   5.850   0.615
  334TIP3   OH2  958   4.007   7.654   5.849
  334TIP3    H1  959   3.984   7.575   5.802
  334TIP3    H2  960   3.990   7.725   5.786
  335TIP3   OH2  961   7.113   4.440   4.106
  335TIP3    H1  962   7.112   4.491   4.025
  335TIP3    H2  963   7.141   4.503   4.173
  336TIP3   OH2  964   4.423   1.237   6.151
  336TIP3    H1  965   4.491   1.194   6.098
  336TIP3    H2  966   4.349   1.176   6.149
  337TIP3   OH2  967   5.188   4.266   5.895
  337TIP3    H1  968   5.128   4.260   5.821
  337TIP3    H2  969   5.195   4.177   5.928
  338TIP3   OH2  970   6.818   7.719   2.640
  338TIP3    H1  971   6.736   7.691   2.680
  338TIP3    H2  972   6.810   7.814   2.633
  339TIP3   OH2  973   3.728   0.340   3.218
  339TIP3    H1  974   3.774   0.354   3.135
  339TIP3    H2  975   3.695   0.251   3.212
  340TIP3   OH2  976   7.862   3.077   4.434
  340TIP3    H1  977   7.872   3.172   4.428
  340TIP3    H2  978   7.933   3.048   4.492
  341TIP3   OH2  979   7.982   7.389   5.507
  341TIP3    H1  980   8.062   7.357   5.467
  341TIP3    H2  981   7.917   7.386   5.437
  342TIP3   OH2  982   0.963   7.336   0.820
  342TIP3    H1  983   0.928   7.402   0.880
  342TIP3    H2  984   0.885   7.293   0.784
  343TIP3   OH2  985   7.929   7.581   5.846
  343TIP3    H1  986   7.949   7.616   5.933
  343TIP3    H2  987   8.013   7.547   5.815
  344TIP3   OH2  988   7.295   5.985   2.157
  344TIP3    H1  989   7.290   5.891   2.138
  344TIP3    H2  990   7.322   5.990   2.248
  345TIP3   OH2  991   6.441   1.147   6.354
  345TIP3    H1  992   6.452   1.079   6.288
  345TIP3    H2  993   6.454   1.229   6.307
  346TIP3   OH2  994   0.699   2.477   2.868
  346TIP3    H1  995   0.692   2.410   2.935
  346TIP3    H2  996   0.622   2.532   2.880
  347TIP3   OH2  997   0.924   6.300   4.662
  347TIP3    H1  998   0.988   6.371   4.674
  347TIP3    H2  999   0.839   6.343   4.664
  348TIP3   OH2 1000   3.115   5.100   3.753
  348TIP3    H1 1001   3.174   5.037   3.712
  348TIP3    H2 1002   3.031   5.055   3.757
  349TIP3   OH2 1003   0.149   6.340   2.424
  349TIP3    H1 1004   0.063   6.375   2.447
  349TIP3    H2 1005   0.206   6.416   2.425
  350TIP3   OH2 1006   8.177   1.726   0.075
  350TIP3    H1 1007   8.246   1.718   0.141
  350TIP3    H2 1008   8.106   1.771   0.120
  351TIP3   OH2 1009   4.088   5.077   3.801
  351TIP3    H1 1010   4.167   5.082   3.747
  351TIP3    H2 1011   4.109   5.130   3.879
  352TIP3   OH2 1012   7.587   5.882   3.051
  352TIP3    H1 1013   7.642   5.803   3.048
  352TIP3    H2 1014   7.621   5.937   2.980
  353TIP3   OH2 1015   5.846   2.013   4.257
  353TIP3    H1 1016   5.787   1.989   4.329
  353TIP3    H2 1017   5.928   2.037   4.300
  354TIP3   OH2 1018   4.893   3.395   2.561
  354TIP3    H1 1019   4.899   3.300   2.569
  354TIP3    H2 1020   4.951   3.417   2.488
  355TIP3   OH2 1021   1.203   2.262   5.223
  355TIP3    H1 1022   1.298   2.264   5.238
  355TIP3    H2 1023   1.192   2.196   5.154
  356TIP3   OH2 1024   4.360   2.191   5.937
  356TIP3    H1 1025   4.282   2.226   5.893
  356TIP3    H2 1026   4.432   2.213   5.879
  357TIP3   OH2 1027   6.918   1.687   1.140
  357TIP3    H1 1028   6.849   1.666   1.203
  357TIP3    H2 1029   6.966   1.760   1.179
  358TIP3   OH2 1030   5.406   1.787   3.886
  358TIP3    H1 1031   5.369   1.767   3.972
  358TIP3    H2 1032   5.379   1.877   3.868
  359TIP3   OH2 1033   4.967   4.940   3.291
  359TIP3    H1 1034   4.943   4.982   3.373
  359TIP3    H2 1035   5.056   4.970   3.274
  360TIP3   OH2 1036   4.191   5.234   3.002
  360TIP3    H1 1037   4.158   5.175   3.070
  360TIP3    H2 1038   4.229   5.308   3.050
  361TIP3   OH2 1039   1.756   5.315   0.105
  361TIP3    H1 1040   1.702   5.271   0.040
  361TIP3    H2 1041   1.695   5.368   0.156
  362TIP3   OH2 1042   2.797   6.608   5.395
  362TIP3    H1 1043   2.792   6.531   5.451
  362TIP3    H2 1044   2.727   6.596   5.331
  363TIP3   OH2 1045   2.932   4.434   0.191
  363TIP3    H1 1046   2.952   4.340   0.194
  363TIP3    H2 1047   3.017   4.475   0.172
  364TIP3   OH2 1048   4.577   2.242   0.381
  364TIP3    H1 1049   4.514   2.294   0.331
  364TIP3    H2 1050   4.651   2.302   0.396
  365TIP3   OH2 1051   3.949   5.508   1.050
  365TIP3    H1 1052   3.889   5.475   0.983
  365TIP3    H2 1053   3.925   5.600   1.061
  366TIP3   OH2 1054   8.101   0.472   0.161
  366TIP3    H1 1055   8.024   0.426   0.127
  366TIP3    H2 1056   8.074   0.564   0.162
  367TIP3   OH2 1057   0.519   5.159   5.598
  367TIP3    H1 1058   0.609   5.130   5.610
  367TIP3    H2 1059   0.465   5.082   5.619
  368TIP3   OH2 1060   6.467   4.586   4.016
  368TIP3    H1 1061   6.562   4.602   4.016
  368TIP3    H2 1062   6.459   4.491   4.010
  369TIP3   OH2 1063   2.332   4.567   1.974
  369TIP3    H1 1064   2.257   4.538   2.025
  369TIP3    H2 1065   2.394   4.493   1.977
  370TIP3   OH2 1066   0.363   2.838   2.908
  370TIP3    H1 1067   0.274   2.841   2.942
  370TIP3    H2 1068   0.352   2.846   2.813
  371TIP3   OH2 1069   2.096   6.348   6.184
  371TIP3    H1 1070   2.139   6.270   6.221
  371TIP3    H2 1071   2.133   6.355   6.096
  372TIP3   OH2 1072   1.428   2.231   0.171
  372TIP3    H1 1073   1.387   2.315   0.148
  372TIP3    H2 1074   1.403   2.172   0.101
  373TIP3   OH2 1075   7.996   6.089   6.503
  373TIP3    H1 1076   8.001   6.006   6.550
  373TIP3    H2 1077   8.087   6.116   6.492
  374TIP3   OH2 1078   6.482   3.778   2.228
  374TIP3    H1 1079   6.495   3.843   2.159
  374TIP3    H2 1080   6.570   3.743   2.244
  375TIP3   OH2 1081   0.059   1.872   5.420
  375TIP3    H1 1082   0.110   1.890   5.499
  375TIP3    H2 1083   0.090   1.936   5.357
  376TIP3   OH2 1084   5.028   5.899   0.037
  376TIP3    H1 1085   5.117   5.934   0.038
  376TIP3    H2 1086   5.016   5.865  -0.051
  377TIP3   OH2 1087   0.545   4.393   0.371
  377TIP3    H1 1088   0.482   4.334   0.329
  377TIP3    H2 1089   0.495   4.471   0.393
  378TIP3   OH2 1090   5.907   4.684   5.947
  378TIP3    H1 1091   5.923   4.768   5.904
  378TIP3    H2 1092   5.925   4.619   5.879
  379TIP3   OH2 1093   4.931   4.427   4.906
  379TIP3    H1 1094   4.880   4.507   4.896
  379TIP3    H2 1095   4.885   4.377   4.974
  380TIP3   OH2 1096   0.912   0.281   5.940
  380TIP3    H1 1097   0.879   0.259   5.853
  380TIP3    H2 1098   0.979   0.214   5.957
  381TIP3   OH2 1099   3.555   1.099   3.542
  381TIP3    H1 1100   3.565   1.195   3.541
  381TIP3    H2 1101   3.640   1.066   3.513
  382TIP3   OH2 1102   4.238   4.953   6.009
  382TIP3    H1 1103   4.194   5.031   6.041
  382TIP3    H2 1104   4.317   4.946   6.062
  383TIP3   OH2 1105   7.798   0.483   4.448
  383TIP3    H1 1106   7.782   0.406   4.392
  383TIP3    H2 1107   7.720   0.538   4.436
  384TIP3   OH2 1108   2.124   4.034   2.844
  384TIP3    H1 1109   2.033   4.004   2.835
  384TIP3    H2 1110   2.173   3.978   2.784
  385TIP3   OH2 1111   7.404   3.768   3.850
  385TIP3    H1 1112   7.313   3.796   3.843
  385TIP3    H2 1113   7.433   3.803   3.934
  386TIP3   OH2 1114   0.200   1.517  -0.007
  386TIP3    H1 1115   0.180   1.491   0.082
  386TIP3    H2 1116   0.124   1.488  -0.058
  387TIP3   OH2 1117   2.692   6.956   3.808
  387TIP3    H1 1118   2.776   6.968   3.763
  387TIP3    H2 1119   2.638   6.906   3.747
  388TIP3   OH2 1120   1.761   6.395   2.152
  388TIP3    H1 1121   1.678   6.404   2.200
  388TIP3    H2 1122   1.799   6.483   2.154
  389TIP3   OH2 1123   6.862   7.647   1.421
  389TIP3    H1 1124   6.771   7.669   1.441
  389TIP3    H2 1125   6.897   7.726   1.379
  390TIP3   OH2 1126   7.238   6.049   3.418
  390TIP3    H1 1127   7.264   6.009   3.501
  390TIP3    H2 1128   7.291   6.129   3.413
  391TIP3   OH2 1129   4.334   1.620   4.599
  391TIP3    H1 1130   4.346   1.525   4.608
  391TIP3    H2 1131   4.239   1.631   4.591
  392TIP3   OH2 1132   3.640   5.308   4.642
  392TIP3    H1 1133   3.548   5.298   4.668
  392TIP3    H2 1134   3.637   5.318   4.547
  393TIP3   OH2 1135   0.841   3.448   1.940
  393TIP3    H1 1136   0.919   3.502   1.945
  393TIP3    H2 1137   0.774   3.507   1.904
  394TIP3   OH2 1138   2.762   6.548   6.591
  394TIP3    H1 1139   2.724   6.501   6.516
  394TIP3    H2 1140   2.766   6.482   6.660
  395TIP3   OH2 1141   3.999   1.195   0.533
  395TIP3    H1 1142   4.088   1.231   0.539
  395TIP3    H2 1143   4.005   1.111   0.578
  396TIP3   OH2 1144   3.296   1.675   3.700
  396TIP3    H1 1145   3.291   1.624   3.619
  396TIP3    H2 1146   3.383   1.655   3.735
  397TIP3   OH2 1147   1.527   3.483   0.849
  397TIP3    H1 1148   1.510   3.440   0.765
  397TIP3    H2 1149   1.479   3.431   0.913
  398TIP3   OH2 1150   4.937   1.940   1.742
  398TIP3    H1 1151   4.876   1.895   1.684
  398TIP3    H2 1152   4.884   1.962   1.819
  399TIP3   OH2 1153   6.597   7.148   5.576
  399TIP3    H1 1154   6.516   7.173   5.621
  399TIP3    H2 1155   6.667   7.169   5.638
  400TIP3   OH2 1156   7.302   7.465   3.108
  400TIP3    H1 1157   7.330   7.446   3.198
  400TIP3    H2 1158   7.258   7.385   3.079
  401TIP3   OH2 1159   2.756   6.667   2.467
  401TIP3    H1 1160   2.815   6.602   2.430
  401TIP3    H2 1161   2.706   6.619   2.534
  402TIP3   OH2 1162   7.889   3.090   5.587
  402TIP3    H1 1163   7.879   3.108   5.494
  402TIP3    H2 1164   7.891   2.994   5.593
  403TIP3   OH2 1165   1.214   6.365   2.845
  403TIP3    H1 1166   1.123   6.380   2.868
  403TIP3    H2 1167   1.246   6.449   2.813
  404TIP3   OH2 1168   1.199   7.082   2.077
  404TIP3    H1 1169   1.268   7.148   2.087
  404TIP3    H2 1170   1.244   7.005   2.044
  405TIP3   OH2 1171   3.804   7.339   6.562
  405TIP3    H1 1172   3.809   7.244   6.556
  405TIP3    H2 1173   3.888   7.365   6.601
  406TIP3   OH2 1174   5.827   3.245   4.377
  406TIP3    H1 1175   5.804   3.228   4.285
  406TIP3    H2 1176   5.891   3.178   4.399
  407TIP3   OH2 1177   2.865   4.056   6.796
  407TIP3    H1 1178   2.954   4.020   6.793
  407TIP3    H2 1179   2.835   4.054   6.706
  408TIP3   OH2 1180   6.552   7.704   3.096
  408TIP3    H1 1181   6.603   7.706   3.177
  408TIP3    H2 1182   6.475   7.651   3.118
  409TIP3   OH2 1183   0.458   6.672   4.678
  409TIP3    H1 1184   0.511   6.715   4.744
  409TIP3    H2 1185   0.509   6.680   4.597
  410TIP3   OH2 1186   1.135   1.380   6.196
  410TIP3    H1 1187   1.056   1.358   6.247
  410TIP3    H2 1188   1.142   1.309   6.132
  411TIP3   OH2 1189   7.987   1.581   2.936
  411TIP3    H1 1190   7.967   1.616   2.849
  411TIP3    H2 1191   7.916   1.518   2.952
  412TIP3   OH2 1192   6.011   2.391   4.865
  412TIP3    H1 1193   5.933   2.386   4.808
  412TIP3    H2 1194   6.061   2.465   4.830
  413TIP3   OH2 1195   4.122   5.476   3.841
  413TIP3    H1 1196   4.208   5.494   3.878
  413TIP3    H2 1197   4.068   5.549   3.871
  414TIP3   OH2 1198   3.617   3.998   4.258
  414TIP3    H1 1199   3.598   4.033   4.345
  414TIP3    H2 1200   3.669   3.919   4.276
  415TIP3   OH2 1201   3.607   7.170   2.515
  415TIP3    H1 1202   3.671   7.100   2.510
  415TIP3    H2 1203   3.633   7.221   2.592
  416TIP3   OH2 1204   7.492   6.786   1.143
  416TIP3    H1 1205   7.446   6.767   1.225
  416TIP3    H2 1206   7.476   6.879   1.128
  417TIP3   OH2 1207   1.431   1.717   1.219
  417TIP3    H1 1208   1.458   1.706   1.128
  417TIP3    H2 1209   1.398   1.807   1.224
  418TIP3   OH2 1210   7.376   1.520   1.919
  418TIP3    H1 1211   7.470   1.508   1.933
  418TIP3    H2 1212   7.354   1.599   1.967
  419TIP3   OH2 1213   2.192   3.383   3.247
  419TIP3    H1 1214   2.191   3.441   3.322
  419TIP3    H2 1215   2.245   3.428   3.181
  420TIP3   OH2 1216   1.713  -0.015   3.057
  420TIP3    H1 1217   1.704   0.080   3.060
  420TIP3    H2 1218   1.666  -0.041   2.977
  421TIP3   OH2 1219   0.726   7.542   3.318
  421TIP3    H1 1220   0.779   7.616   3.289
  421TIP3    H2 1221   0.645   7.548   3.266
  422TIP3   OH2 1222   4.786   4.968   6.107
  422TIP3    H1 1223   4.787   4.888   6.158
  422TIP3    H2 1224   4.725   4.950   6.035
  423TIP3   OH2 1225   1.154   3.997   4.593
  423TIP3    H1 1226   1.240   4.039   4.585
  423TIP3    H2 1227   1.107   4.051   4.656
  424TIP3   OH2 1228   1.106   1.383   6.584
  424TIP3    H1 1229   1.096   1.371   6.679
  424TIP3    H2 1230   1.017   1.392   6.552
  425TIP3   OH2 1231   4.730   6.717   4.054
  425TIP3    H1 1232   4.693   6.686   3.971
  425TIP3    H2 1233   4.803   6.658   4.071
  426TIP3   OH2 1234   2.152   1.311   1.307
  426TIP3    H1 1235   2.207   1.389   1.316
  426TIP3    H2 1236   2.208   1.246   1.265
  427TIP3   OH2 1237   0.456   5.105   3.563
  427TIP3    H1 1238   0.532   5.156   3.590
  427TIP3    H2 1239   0.381   5.163   3.579
  428TIP3   OH2 1240   3.127   7.128   5.040
  428TIP3    H1 1241   3.081   7.056   4.997
  428TIP3    H2 1242   3.216   7.096   5.053
  429TIP3   OH2 1243   7.634   1.174   3.051
  429TIP3    H1 1244   7.571   1.123   3.000
  429TIP3    H2 1245   7.587   1.256   3.071
  430TIP3   OH2 1246   2.090   1.628   4.601
  430TIP3    H1 1247   2.139   1.704   4.632
  430TIP3    H2 1248   2.121   1.615   4.511
  431TIP3   OH2 1249   2.453   2.154   5.816
  431TIP3    H1 1250   2.430   2.124   5.728
  431TIP3    H2 1251   2.380   2.126   5.871
  432TIP3   OH2 1252   0.662   2.118   1.203
  432TIP3    H1 1253   0.716   2.046   1.235
  432TIP3    H2 1254   0.706   2.147   1.123
  433TIP3   OH2 1255   5.029   6.800   0.172
  433TIP3    H1 1256   5.056   6.723   0.123
  433TIP3    H2 1257   4.968   6.766   0.238
  434TIP3   OH2 1258   3.301   5.879   3.878
  434TIP3    H1 1259   3.381   5.931   3.882
  434TIP3    H2 1260   3.265   5.896   3.792
  435TIP3   OH2 1261   4.590   1.190   2.775
  435TIP3    H1 1262   4.644   1.114   2.752
  435TIP3    H2 1263   4.649   1.245   2.827
  436TIP3   OH2 1264   7.297   0.089   5.236
  436TIP3    H1 1265   7.372   0.142   5.265
  436TIP3    H2 1266   7.331   0.000   5.231
  437TIP3   OH2 1267   5.713   0.044   1.818
  437TIP3    H1 1268   5.732   0.064   1.910
  437TIP3    H2 1269   5.640  -0.018   1.821
  438TIP3   OH2 1270   0.198   6.376   3.561
  438TIP3    H1 1271   0.226   6.463   3.587
  438TIP3    H2 1272   0.126   6.355   3.620
  439TIP3   OH2 1273   3.744   2.708   1.348
  439TIP3    H1 1274   3.764   2.782   1.290
  439TIP3    H2 1275   3.754   2.744   1.436
  440TIP3   OH2 1276   8.283   7.194   6.018
  440TIP3    H1 1277   8.256   7.207   5.928
  440TIP3    H2 1278   8.201   7.184   6.067
  441TIP3   OH2 1279   5.489   0.506   0.373
  441TIP3    H1 1280   5.516   0.502   0.465
  441TIP3    H2 1281   5.447   0.422   0.357
  442TIP3   OH2 1282   0.934   5.254   6.309
  442TIP3    H1 1283   0.955   5.277   6.400
  442TIP3    H2 1284   1.019   5.256   6.264
  443TIP3   OH2 1285   4.837   2.679   0.081
  443TIP3    H1 1286   4.892   2.751   0.049
  443TIP3    H2 1287   4.894   2.602   0.076
  444TIP3   OH2 1288   5.333   1.237   5.940
  444TIP3    H1 1289   5.273   1.304   5.975
  444TIP3    H2 1290   5.311   1.158   5.988
  445TIP3   OH2 1291   7.971   5.322   0.295
  445TIP3    H1 1292   8.061   5.301   0.321
  445TIP3    H2 1293   7.935   5.371   0.369
  446TIP3   OH2 1294   4.912   5.954   3.741
  446TIP3    H1 1295   4.961   5.874   3.763
  446TIP3    H2 1296   4.821   5.933   3.764
  447TIP3   OH2 1297   4.656   3.502   4.293
  447TIP3    H1 1298   4.675   3.449   4.370
  447TIP3    H2 1299   4.608   3.578   4.326
  448TIP3   OH2 1300   2.529   5.921   2.539
  448TIP3    H1 1301   2.434   5.920   2.552
  448TIP3    H2 1302   2.540   5.898   2.447
  449TIP3   OH2 1303   8.082   3.392   0.639
  449TIP3    H1 1304   7.987   3.401   0.641
  449TIP3    H2 1305   8.112   3.469   0.592
  450TIP3   OH2 1306   1.710   0.523   4.761
  450TIP3    H1 1307   1.653   0.597   4.783
  450TIP3    H2 1308   1.775   0.522   4.832
  451TIP3   OH2 1309   6.355   7.797   6.111
  451TIP3    H1 1310   6.361   7.791   6.206
  451TIP3    H2 1311   6.441   7.831   6.083
  452TIP3   OH2 1312   5.324   0.352   2.421
  452TIP3    H1 1313   5.401   0.388   2.465
  452TIP3    H2 1314   5.357   0.317   2.339
  453TIP3   OH2 1315   0.312   6.991   4.058
  453TIP3    H1 1316   0.326   6.988   4.152
  453TIP3    H2 1317   0.296   6.900   4.033
  454TIP3   OH2 1318   6.517   2.578   6.535
  454TIP3    H1 1319   6.610   2.583   6.556
  454TIP3    H2 1320   6.514   2.590   6.440
  455TIP3   OH2 1321   1.882   1.292   1.233
  455TIP3    H1 1322   1.969   1.315   1.266
  455TIP3    H2 1323   1.871   1.346   1.155
  456TIP3   OH2 1324   1.129   3.302   4.628
  456TIP3    H1 1325   1.155   3.248   4.553
  456TIP3    H2 1326   1.066   3.365   4.592
  457TIP3   OH2 1327   0.166   4.900   0.495
  457TIP3    H1 1328   0.130   4.861   0.575
  457TIP3    H2 1329   0.252   4.934   0.520
  458TIP3   OH2 1330   5.304   5.895   1.208
  458TIP3    H1 1331   5.345   5.982   1.206
  458TIP3    H2 1332   5.231   5.902   1.146
  459TIP3   OH2 1333   1.921   4.890   0.461
  459TIP3    H1 1334   1.878   4.821   0.513
  459TIP3    H2 1335   1.866   4.899   0.384
  460TIP3   OH2 1336   8.053   1.323   6.413
  460TIP3    H1 1337   8.101   1.369   6.344
  460TIP3    H2 1338   8.094   1.352   6.494
  461TIP3   OH2 1339   4.661   6.347   6.371
  461TIP3    H1 1340   4.644   6.346   6.465
  461TIP3    H2 1341   4.756   6.353   6.364
  462TIP3   OH2 1342   6.896   0.317   6.428
  462TIP3    H1 1343   6.912   0.354   6.341
  462TIP3    H2 1344   6.983   0.306   6.466
  463TIP3   OH2 1345   0.827   2.785   4.232
  463TIP3    H1 1346   0.746   2.830   4.208
  463TIP3    H2 1347   0.799   2.713   4.288
  464TIP3   OH2 1348   6.346   5.119   0.391
  464TIP3    H1 1349   6.372   5.137   0.482
  464TIP3    H2 1350   6.260   5.161   0.383
  465TIP3   OH2 1351   7.247   5.068   5.855
  465TIP3    H1 1352   7.282   5.130   5.919
  465TIP3    H2 1353   7.174   5.025   5.900
  466TIP3   OH2 1354   1.645   3.913   6.745
  466TIP3    H1 1355   1.615   3.887   6.658
  466TIP3    H2 1356   1.736   3.938   6.733
  467TIP3   OH2 1357   3.382   5.613   6.637
  467TIP3    H1 1358   3.308   5.561   6.604
  467TIP3    H2 1359   3.403   5.573   6.721
  468TIP3   OH2 1360   6.282   3.443   2.168
  468TIP3    H1 1361   6.326   3.443   2.253
  468TIP3    H2 1362   6.342   3.394   2.111
  469TIP3   OH2 1363   2.040   2.604   4.151
  469TIP3    H1 1364   2.114   2.646   4.196
  469TIP3    H2 1365   2.080   2.534   4.099
  470TIP3   OH2 1366   6.710   5.967   2.545
  470TIP3    H1 1367   6.642   6.025   2.512
  470TIP3    H2 1368   6.700   5.887   2.494
  471TIP3   OH2 1369   1.125   3.050   4.489
  471TIP3    H1 1370   1.091   2.977   4.437
  471TIP3    H2 1371   1.067   3.054   4.566
  472TIP3   OH2 1372   7.193   1.426   5.100
  472TIP3    H1 1373   7.228   1.515   5.111
  472TIP3    H2 1374   7.186   1.393   5.190
  473TIP3   OH2 1375   8.082   3.202   2.616
  473TIP3    H1 1376   8.150   3.184   2.550
  473TIP3    H2 1377   8.129   3.211   2.698
  474TIP3   OH2 1378   3.586   4.650   3.591
  474TIP3    H1 1379   3.653   4.589   3.623
  474TIP3    H2 1380   3.520   4.594   3.551
  475TIP3   OH2 1381   8.242   5.198   4.193
  475TIP3    H1 1382   8.245   5.282   4.147
  475TIP3    H2 1383   8.198   5.139   4.131
  476TIP3   OH2 1384   4.776   1.372   1.015
  476TIP3    H1 1385   4.708   1.416   0.963
  476TIP3    H2 1386   4.784   1.286   0.975
  477TIP3   OH2 1387   5.961   6.848   5.717
  477TIP3    H1 1388   5.960   6.880   5.627
  477TIP3    H2 1389   6.025   6.776   5.716
  478TIP3   OH2 1390   6.676   6.367   1.921
  478TIP3    H1 1391   6.726   6.298   1.878
  478TIP3    H2 1392   6.607   6.320   1.968
  479TIP3   OH2 1393   3.901   2.014   1.969
  479TIP3    H1 1394   3.841   2.080   1.935
  479TIP3    H2 1395   3.851   1.933   1.966
  480TIP3   OH2 1396   8.274   7.019   5.201
  480TIP3    H1 1397   8.306   7.013   5.291
  480TIP3    H2 1398   8.288   7.110   5.177
  481TIP3   OH2 1399   3.934   1.630   0.955
  481TIP3    H1 1400   3.967   1.628   0.866
  481TIP3    H2 1401   3.846   1.592   0.949
  482TIP3   OH2 1402   1.969   0.753   5.240
  482TIP3    H1 1403   1.887   0.703   5.245
  482TIP3    H2 1404   1.941   0.841   5.216
  483TIP3   OH2 1405   3.965   5.934   0.988
  483TIP3    H1 1406   3.930   5.857   1.032
  483TIP3    H2 1407   3.897   6.001   0.999
  484TIP3   OH2 1408   3.296   5.278   1.098
  484TIP3    H1 1409   3.301   5.208   1.163
  484TIP3    H2 1410   3.213   5.323   1.117
  485TIP3   OH2 1411   2.754   6.782   4.204
  485TIP3    H1 1412   2.702   6.837   4.145
  485TIP3    H2 1413   2.818   6.740   4.147
  486TIP3   OH2 1414   8.025   0.906   2.915
  486TIP3    H1 1415   8.043   0.825   2.963
  486TIP3    H2 1416   8.105   0.921   2.864
  487TIP3   OH2 1417   6.315   3.163   0.601
  487TIP3    H1 1418   6.379   3.119   0.545
  487TIP3    H2 1419   6.368   3.217   0.660
  488TIP3   OH2 1420   7.482   4.217   2.923
  488TIP3    H1 1421   7.387   4.212   2.910
  488TIP3    H2 1422   7.502   4.310   2.917
  489TIP3   OH2 1423   1.733   3.082   5.197
  489TIP3    H1 1424   1.677   3.114   5.126
  489TIP3    H2 1425   1.817   3.126   5.182
  490TIP3   OH2 1426   2.449   0.349   1.220
  490TIP3    H1 1427   2.372   0.361   1.276
  490TIP3    H2 1428   2.508   0.294   1.271
  491TIP3   OH2 1429   0.282   2.130   1.162
  491TIP3    H1 1430   0.338   2.144   1.238
  491TIP3    H2 1431   0.257   2.038   1.167
  492TIP3   OH2 1432   2.890   3.900   3.122
  492TIP3    H1 1433   2.867   3.961   3.191
  492TIP3    H2 1434   2.985   3.906   3.116
  493TIP3   OH2 1435   2.742   5.957   4.445
  493TIP3    H1 1436   2.663   5.938   4.393
  493TIP3    H2 1437   2.812   5.961   4.380
  494TIP3   OH2 1438   6.276   4.877   6.759
  494TIP3    H1 1439   6.214   4.913   6.695
  494TIP3    H2 1440   6.326   4.812   6.710
  495TIP3   OH2 1441   5.484   2.500   0.202
  495TIP3    H1 1442   5.553   2.440   0.175
  495TIP3    H2 1443   5.509   2.584   0.163
  496TIP3   OH2 1444   1.216   0.477   5.777
  496TIP3    H1 1445   1.240   0.392   5.741
  496TIP3    H2 1446   1.133   0.498   5.734
  497TIP3   OH2 1447   6.279   2.037   2.216
  497TIP3    H1 1448   6.212   2.094   2.254
  497TIP3    H2 1449   6.316   1.990   2.291
  498TIP3   OH2 1450   7.694   2.979   0.789
  498TIP3    H1 1451   7.731   2.926   0.859
  498TIP3    H2 1452   7.671   3.062   0.831
  499TIP3   OH2 1453   5.463   7.834   4.831
  499TIP3    H1 1454   5.468   7.812   4.924
  499TIP3    H2 1455   5.531   7.780   4.790
  500TIP3   OH2 1456   2.247   5.754   4.428
  500TIP3    H1 1457   2.195   5.738   4.507
  500TIP3    H2 1458   2.221   5.685   4.368
  501TIP3   OH2 1459   0.300   0.692   0.389
  501TIP3    H1 1460   0.208   0.696   0.416
  501TIP3    H2 1461   0.349   0.712   0.468
  502TIP3   OH2 1462   2.411   1.914   0.961
  502TIP3    H1 1463   2.496   1.872   0.976
  502TIP3    H2 1464   2.366   1.855   0.900
  503TIP3   OH2 1465   1.405   5.978   2.717
  503TIP3    H1 1466   1.394   5.965   2.811
  503TIP3    H2 1467   1.357   6.059   2.697
  504TIP3   OH2 1468   4.663   3.338   2.358
  504TIP3    H1 1469   4.603   3.358   2.286
  504TIP3    H2 1470   4.639   3.401   2.426
  505TIP3   OH2 1471   4.118   7.692   0.987
  505TIP3    H1 1472   4.093   7.773   1.032
  505TIP3    H2 1473   4.042   7.671   0.932
  506TIP3   OH2 1474   7.747   3.887   6.507
  506TIP3    H1 1475   7.754   3.979   6.483
  506TIP3    H2 1476   7.833   3.865   6.544
  507TIP3   OH2 1477   4.808   0.278   4.490
  507TIP3    H1 1478   4.817   0.260   4.584
  507TIP3    H2 1479   4.892   0.315   4.465
  508TIP3   OH2 1480   3.246   7.168   4.427
  508TIP3    H1 1481   3.337   7.158   4.455
  508TIP3    H2 1482   3.226   7.086   4.381
  509TIP3   OH2 1483   8.001   6.464   6.425
  509TIP3    H1 1484   8.052   6.460   6.506
  509TIP3    H2 1485   8.040   6.536   6.375
  510TIP3   OH2 1486   1.579   3.404   2.833
  510TIP3    H1 1487   1.516   3.472   2.806
  510TIP3    H2 1488   1.566   3.396   2.927
  511TIP3   OH2 1489   1.405   4.843   4.409
  511TIP3    H1 1490   1.439   4.838   4.320
  511TIP3    H2 1491   1.478   4.877   4.461
  512TIP3   OH2 1492   5.283   5.296   6.481
  512TIP3    H1 1493   5.212   5.346   6.522
  512TIP3    H2 1494   5.256   5.205   6.489
  513TIP3   OH2 1495   7.347   2.882   3.513
  513TIP3    H1 1496   7.335   2.976   3.528
  513TIP3    H2 1497   7.279   2.859   3.450
  514TIP3   OH2 1498   0.028   3.460   6.360
  514TIP3    H1 1499   0.124   3.459   6.354
  514TIP3    H2 1500   0.003   3.367   6.363
  515TIP3   OH2 1501   1.507   5.000   3.146
  515TIP3    H1 1502   1.524   5.056   3.221
  515TIP3    H2 1503   1.561   5.037   3.076
  516TIP3   OH2 1504   7.101   0.398   4.871
  516TIP3    H1 1505   7.009   0.421   4.886
  516TIP3    H2 1506   7.113   0.317   4.921
  517TIP3   OH2 1507   3.704   0.052   2.372
  517TIP3    H1 1508   3.786   0.091   2.340
  517TIP3    H2 1509   3.651   0.127   2.399
  518TIP3   OH2 1510   4.774   1.634   4.349
  518TIP3    H1 1511   4.760   1.549   4.307
  518TIP3    H2 1512   4.744   1.698   4.284
  519TIP3   OH2 1513   0.046   1.251   2.896
  519TIP3    H1 1514   0.086   1.184   2.952
  519TIP3    H2 1515  -0.013   1.298   2.955
  520TIP3   OH2 1516   1.435   4.082   6.085
  520TIP3    H1 1517   1.444   4.173   6.056
  520TIP3    H2 1518   1.496   4.033   6.030
  521TIP3   OH2 1519   1.346   0.240   0.422
  521TIP3    H1 1520   1.291   0.318   0.419
  521TIP3    H2 1521   1.424   0.267   0.471
  522TIP3   OH2 1522   6.952   5.629   0.507
  522TIP3    H1 1523   6.874   5.682   0.489
  522TIP3    H2 1524   7.022   5.674   0.460
  523TIP3   OH2 1525   5.618   6.250   3.307
  523TIP3    H1 1526   5.578   6.194   3.373
  523TIP3    H2 1527   5.554   6.252   3.236
  524TIP3   OH2 1528   2.450   5.945   6.351
  524TIP3    H1 1529   2.376   5.889   6.376
  524TIP3    H2 1530   2.526   5.904   6.391
  525TIP3   OH2 1531   2.005   0.683   1.938
  525TIP3    H1 1532   2.087   0.727   1.961
  525TIP3    H2 1533   1.958   0.676   2.021
  526TIP3   OH2 1534   2.968   3.277   1.146
  526TIP3    H1 1535   2.953   3.183   1.153
  526TIP3    H2 1536   2.926   3.301   1.063
  527TIP3   OH2 1537   1.188   3.679   5.328
  527TIP3    H1 1538   1.195   3.608   5.392
  527TIP3    H2 1539   1.270   3.673   5.278
  528TIP3   OH2 1540   6.494   3.414   1.374
  528TIP3    H1 1541   6.537   3.331   1.394
  528TIP3    H2 1542   6.455   3.441   1.457
  529TIP3   OH2 1543   2.241   6.942   5.203
  529TIP3    H1 1544   2.329   6.908   5.188
  529TIP3    H2 1545   2.238   7.024   5.155
  530TIP3   OH2 1546   7.967   1.748   1.834
  530TIP3    H1 1547   8.006   1.778   1.916
  530TIP3    H2 1548   7.924   1.826   1.799
  531TIP3   OH2 1549   6.997   5.270   5.314
  531TIP3    H1 1550   7.032   5.350   5.352
  531TIP3    H2 1551   7.048   5.257   5.234
  532TIP3   OH2 1552   2.973   6.775   0.528
  532TIP3    H1 1553   2.902   6.732   0.481
  532TIP3    H2 1554   2.942   6.865   0.540
  533TIP3   OH2 1555   3.441   2.391   0.911
  533TIP3    H1 1556   3.446   2.401   1.006
  533TIP3    H2 1557   3.374   2.454   0.884
  534TIP3   OH2 1558   6.865   2.250   1.371
  534TIP3    H1 1559   6.865   2.154   1.363
  534TIP3    H2 1560   6.800   2.268   1.439
  535TIP3   OH2 1561   4.119   3.418   5.063
  535TIP3    H1 1562   4.040   3.472   5.057
  535TIP3    H2 1563   4.140   3.397   4.972
  536TIP3   OH2 1564   4.357   2.498   5.441
  536TIP3    H1 1565   4.368   2.555   5.365
  536TIP3    H2 1566   4.406   2.419   5.419
  537TIP3   OH2 1567   2.621   0.206   0.871
  537TIP3    H1 1568   2.568   0.167   0.801
  537TIP3    H2 1569   2.687   0.257   0.825
  538TIP3   OH2 1570   5.292   4.244   1.019
  538TIP3    H1 1571   5.275   4.231   0.926
  538TIP3    H2 1572   5.214   4.212   1.063
  539TIP3   OH2 1573   3.358   2.990   2.085
  539TIP3    H1 1574   3.427   3.056   2.097
  539TIP3    H2 1575   3.367   2.964   1.993
  540TIP3   OH2 1576   5.462   2.672   2.946
  540TIP3    H1 1577   5.409   2.706   2.874
  540TIP3    H2 1578   5.482   2.749   2.999
  541TIP3   OH2 1579   5.269   3.583   0.605
  541TIP3    H1 1580   5.347   3.635   0.624
  541TIP3    H2 1581   5.196   3.644   0.617
  542TIP3   OH2 1582   1.943   4.483   0.034
  542TIP3    H1 1583   1.873   4.476   0.098
  542TIP3    H2 1584   1.996   4.557   0.064
  543TIP3   OH2 1585   7.061   4.345   3.791
  543TIP3    H1 1586   7.155   4.361   3.799
  543TIP3    H2 1587   7.031   4.409   3.728
  544TIP3   OH2 1588   4.939   4.910   2.703
  544TIP3    H1 1589   4.938   4.976   2.773
  544TIP3    H2 1590   4.961   4.959   2.624
  545TIP3   OH2 1591   5.447   4.067   6.220
  545TIP3    H1 1592   5.443   4.101   6.131
  545TIP3    H2 1593   5.537   4.037   6.231
  546TIP3   OH2 1594   3.883   2.213   3.110
  546TIP3    H1 1595   3.840   2.147   3.056
  546TIP3    H2 1596   3.834   2.212   3.192
  547TIP3   OH2 1597   3.447   0.841   4.412
  547TIP3    H1 1598   3.404   0.817   4.330
  547TIP3    H2 1599   3.375   0.865   4.471
  548TIP3   OH2 1600   5.070   4.111   1.200
  548TIP3    H1 1601   4.980   4.113   1.166
  548TIP3    H2 1602   5.099   4.021   1.188
  549TIP3   OH2 1603   4.112   7.042   5.711
  549TIP3    H1 1604   4.152   7.001   5.788
  549TIP3    H2 1605   4.166   7.119   5.695
  550TIP3   OH2 1606   6.662   5.319   4.538
  550TIP3    H1 1607   6.755   5.331   4.522
  550TIP3    H2 1608   6.620   5.388   4.486
  551TIP3   OH2 1609   3.288   2.749   0.219
  551TIP3    H1 1610   3.216   2.750   0.156
  551TIP3    H2 1611   3.252   2.703   0.295
  552TIP3   OH2 1612   8.180   7.184   1.477
  552TIP3    H1 1613   8.189   7.200   1.382
  552TIP3    H2 1614   8.236   7.251   1.517
  553TIP3   OH2 1615   6.900   3.317   2.508
  553TIP3    H1 1616   6.949   3.250   2.557
  553TIP3    H2 1617   6.938   3.315   2.420
  554TIP3   OH2 1618   7.272   7.212   1.470
  554TIP3    H1 1619   7.289   7.227   1.563
  554TIP3    H2 1620   7.327   7.138   1.447
  555TIP3   OH2 1621   3.998   6.096   2.848
  555TIP3    H1 1622   3.992   6.013   2.801
  555TIP3    H2 1623   3.918   6.144   2.823
  556TIP3   OH2 1624   5.996   5.317   3.262
  556TIP3    H1 1625   5.914   5.281   3.227
  556TIP3    H2 1626   6.064   5.259   3.228
  557TIP3   OH2 1627   3.756   4.764   6.055
  557TIP3    H1 1628   3.842   4.794   6.027
  557TIP3    H2 1629   3.703   4.843   6.062
  558TIP3   OH2 1630   1.467   2.167   4.508
  558TIP3    H1 1631   1.385   2.189   4.553
  558TIP3    H2 1632   1.535   2.214   4.558
  559TIP3   OH2 1633   5.073   0.977   5.250
  559TIP3    H1 1634   5.168   0.982   5.258
  559TIP3    H2 1635   5.046   1.065   5.223
  560TIP3   OH2 1636   7.714   6.054   2.866
  560TIP3    H1 1637   7.636   6.082   2.818
  560TIP3    H2 1638   7.775   6.024   2.798
  561TIP3   OH2 1639   5.556   6.551   0.383
  561TIP3    H1 1640   5.625   6.566   0.447
  561TIP3    H2 1641   5.597   6.569   0.298
  562TIP3   OH2 1642   0.021   5.194   3.008
  562TIP3    H1 1643   0.002   5.280   3.044
  562TIP3    H2 1644   0.079   5.153   3.071
  563TIP3   OH2 1645   0.554   3.355   6.702
  563TIP3    H1 1646   0.496   3.310   6.763
  563TIP3    H2 1647   0.611   3.408   6.758
  564TIP3   OH2 1648   5.118   6.963   6.307
  564TIP3    H1 1649   5.147   7.052   6.286
  564TIP3    H2 1650   5.179   6.933   6.373
  565TIP3   OH2 1651   4.284   6.002   1.691
  565TIP3    H1 1652   4.271   6.094   1.716
  565TIP3    H2 1653   4.355   6.004   1.627
  566TIP3   OH2 1654   0.295   6.103   1.137
  566TIP3    H1 1655   0.277   6.009   1.143
  566TIP3    H2 1656   0.391   6.108   1.131
  567TIP3   OH2 1657   3.099   4.713   2.889
  567TIP3    H1 1658   3.187   4.714   2.850
  567TIP3    H2 1659   3.044   4.754   2.823
  568TIP3   OH2 1660   2.651   7.205   5.104
  568TIP3    H1 1661   2.653   7.248   5.018
  568TIP3    H2 1662   2.654   7.111   5.084
  569TIP3   OH2 1663   6.077   1.186   5.370
  569TIP3    H1 1664   6.017   1.197   5.297
  569TIP3    H2 1665   6.152   1.242   5.348
  570TIP3   OH2 1666   2.456   2.837   3.046
  570TIP3    H1 1667   2.361   2.829   3.048
  570TIP3    H2 1668   2.475   2.911   3.104
  571TIP3   OH2 1669   1.779   4.581   6.215
  571TIP3    H1 1670   1.773   4.599   6.309
  571TIP3    H2 1671   1.688   4.585   6.185
  572TIP3   OH2 1672   3.365   4.254   4.155
  572TIP3    H1 1673   3.384   4.321   4.089
  572TIP3    H2 1674   3.438   4.193   4.147
  573TIP3   OH2 1675   7.317   6.989   0.048
  573TIP3    H1 1676   7.300   6.932  -0.027
  573TIP3    H2 1677   7.412   6.999   0.051
  574TIP3   OH2 1678   6.002   0.831   5.951
  574TIP3    H1 1679   5.951   0.761   5.910
  574TIP3    H2 1680   6.051   0.870   5.878
  575TIP3   OH2 1681   7.530   0.277   5.251
  575TIP3    H1 1682   7.607   0.328   5.274
  575TIP3    H2 1683   7.560   0.220   5.180
  576TIP3   OH2 1684   1.681   3.960   1.533
  576TIP3    H1 1685   1.690   3.993   1.623
  576TIP3    H2 1686   1.588   3.973   1.512
  577TIP3   OH2 1687   0.382   0.486   5.237
  577TIP3    H1 1688   0.293   0.449   5.228
  577TIP3    H2 1689   0.430   0.449   5.163
  578TIP3   OH2 1690   0.941   7.096   4.443
  578TIP3    H1 1691   0.900   7.034   4.503
  578TIP3    H2 1692   0.961   7.045   4.365
  579TIP3   OH2 1693   2.172   1.057   0.698
  579TIP3    H1 1694   2.189   1.151   0.693
  579TIP3    H2 1695   2.216   1.020   0.622
  580TIP3   OH2 1696   4.774   1.345   6.316
  580TIP3    H1 1697   4.742   1.287   6.385
  580TIP3    H2 1698   4.828   1.409   6.362
  581TIP3   OH2 1699   5.587   7.215   2.682
  581TIP3    H1 1700   5.549   7.232   2.768
  581TIP3    H2 1701   5.677   7.189   2.701
  582TIP3   OH2 1702   6.537   4.010   4.756
  582TIP3    H1 1703   6.508   3.970   4.838
  582TIP3    H2 1704   6.614   3.960   4.731
  583TIP3   OH2 1705   1.792   5.399   0.887
  583TIP3    H1 1706   1.779   5.304   0.899
  583TIP3    H2 1707   1.704   5.433   0.872
  584TIP3   OH2 1708   2.474   7.319   4.670
  584TIP3    H1 1709   2.533   7.245   4.661
  584TIP3    H2 1710   2.427   7.323   4.587
  585TIP3   OH2 1711   8.167   4.952   0.125
  585TIP3    H1 1712   8.109   5.026   0.109
  585TIP3    H2 1713   8.130   4.908   0.201
  586TIP3   OH2 1714   0.795   7.177   1.707
  586TIP3    H1 1715   0.856   7.167   1.780
  586TIP3    H2 1716   0.837   7.132   1.634
  587TIP3   OH2 1717   2.121   2.358   5.718
  587TIP3    H1 1718   2.095   2.298   5.788
  587TIP3    H2 1719   2.166   2.429   5.764
  588TIP3   OH2 1720   8.275   7.465   0.999
  588TIP3    H1 1721   8.304   7.509   0.919
  588TIP3    H2 1722   8.284   7.531   1.067
  589TIP3   OH2 1723   6.137   0.518   2.677
  589TIP3    H1 1724   6.161   0.425   2.670
  589TIP3    H2 1725   6.202   0.555   2.736
  590TIP3   OH2 1726   0.859   7.662   2.644
  590TIP3    H1 1727   0.794   7.650   2.574
  590TIP3    H2 1728   0.814   7.634   2.723
  591TIP3   OH2 1729   3.019   6.897   1.272
  591TIP3    H1 1730   2.975   6.813   1.263
  591TIP3    H2 1731   3.089   6.894   1.207
  592TIP3   OH2 1732   4.628   3.500   4.651
  592TIP3    H1 1733   4.534   3.498   4.635
  592TIP3    H2 1734   4.640   3.453   4.734
  593TIP3   OH2 1735   1.290   4.508   6.087
  593TIP3    H1 1736   1.350   4.439   6.059
  593TIP3    H2 1737   1.219   4.461   6.132
  594TIP3   OH2 1738   3.787   6.898   1.335
  594TIP3    H1 1739   3.750   6.875   1.420
  594TIP3    H2 1740   3.837   6.821   1.308
  595TIP3   OH2 1741   0.229   7.314   0.697
  595TIP3    H1 1742   0.145   7.353   0.673
  595TIP3    H2 1743   0.219   7.221   0.678
  596TIP3   OH2 1744   6.643   7.171   1.665
  596TIP3    H1 1745   6.630   7.262   1.638
  596TIP3    H2 1746   6.693   7.178   1.747
  597TIP3   OH2 1747   0.201   5.830   3.395
  597TIP3    H1 1748   0.268   5.810   3.330
  597TIP3    H2 1749   0.248   5.834   3.478
  598TIP3   OH2 1750   1.340   4.698   2.145
  598TIP3    H1 1751   1.334   4.771   2.084
  598TIP3    H2 1752   1.269   4.712   2.207
  599TIP3   OH2 1753   8.200   5.630   0.838
  599TIP3    H1 1754   8.241   5.546   0.819
  599TIP3    H2 1755   8.176   5.665   0.752
  600TIP3   OH2 1756   4.683   2.182   1.122
  600TIP3    H1 1757   4.687   2.216   1.212
  600TIP3    H2 1758   4.706   2.257   1.067
  601TIP3   OH2 1759   0.161   2.950   4.499
  601TIP3    H1 1760   0.207   2.903   4.429
  601TIP3    H2 1761   0.082   2.898   4.515
  602TIP3   OH2 1762   5.710   5.599   3.319
  602TIP3    H1 1763   5.765   5.554   3.255
  602TIP3    H2 1764   5.764   5.603   3.398
  603TIP3   OH2 1765   5.039   7.666   6.569
  603TIP3    H1 1766   5.048   7.714   6.486
  603TIP3    H2 1767   5.088   7.585   6.556
  604TIP3   OH2 1768   7.474   2.409   5.850
  604TIP3    H1 1769   7.522   2.328   5.833
  604TIP3    H2 1770   7.533   2.479   5.823
  605TIP3   OH2 1771   5.446   3.740   2.180
  605TIP3    H1 1772   5.524   3.688   2.199
  605TIP3    H2 1773   5.374   3.686   2.214
  606TIP3   OH2 1774   4.553   3.033   0.541
  606TIP3    H1 1775   4.544   2.938   0.553
  606TIP3    H2 1776   4.604   3.042   0.461
  607TIP3   OH2 1777   3.678   5.676   6.585
  607TIP3    H1 1778   3.647   5.758   6.624
  607TIP3    H2 1779   3.603   5.642   6.536
  608TIP3   OH2 1780   4.096   2.124   6.638
  608TIP3    H1 1781   4.164   2.061   6.613
  608TIP3    H2 1782   4.123   2.154   6.725
  609TIP3   OH2 1783   6.827   2.961   4.655
  609TIP3    H1 1784   6.912   3.003   4.642
  609TIP3    H2 1785   6.832   2.881   4.601
  610TIP3   OH2 1786   3.708   3.560   0.239
  610TIP3    H1 1787   3.635   3.505   0.267
  610TIP3    H2 1788   3.675   3.650   0.245
  611TIP3   OH2 1789   0.824   4.201   5.252
  611TIP3    H1 1790   0.804   4.259   5.325
  611TIP3    H2 1791   0.898   4.243   5.208
  612TIP3   OH2 1792   4.550   2.248   2.412
  612TIP3    H1 1793   4.604   2.194   2.356
  612TIP3    H2 1794   4.501   2.185   2.466
  613TIP3   OH2 1795   8.186   3.749   2.813
  613TIP3    H1 1796   8.268   3.798   2.807
  613TIP3    H2 1797   8.135   3.778   2.737
  614TIP3   OH2 1798   4.347   0.462   0.459
  614TIP3    H1 1799   4.367   0.434   0.369
  614TIP3    H2 1800   4.367   0.386   0.513
  615TIP3   OH2 1801   8.138   7.324   3.308
  615TIP3    H1 1802   8.161   7.301   3.398
  615TIP3    H2 1803   8.075   7.257   3.281
  616TIP3   OH2 1804   0.770   7.561   0.691
  616TIP3    H1 1805   0.809   7.524   0.611
  616TIP3    H2 1806   0.717   7.491   0.727
  617TIP3   OH2 1807   7.311   0.206   3.039
  617TIP3    H1 1808   7.331   0.138   2.976
  617TIP3    H2 1809   7.317   0.288   2.990
  618TIP3   OH2 1810   1.136   7.819   5.331
  618TIP3    H1 1811   1.210   7.881   5.328
  618TIP3    H2 1812   1.177   7.733   5.329
  619TIP3   OH2 1813   7.265   4.123   0.747
  619TIP3    H1 1814   7.220   4.057   0.694
  619TIP3    H2 1815   7.200   4.191   0.763
  620TIP3   OH2 1816   7.921   7.593   4.177
  620TIP3    H1 1817   7.990   7.628   4.234
  620TIP3    H2 1818   7.938   7.633   4.092
  621TIP3   OH2 1819   4.603   4.696   0.386
  621TIP3    H1 1820   4.598   4.730   0.297
  621TIP3    H2 1821   4.686   4.648   0.389
  622TIP3   OH2 1822   2.170   6.128   4.097
  622TIP3    H1 1823   2.174   6.174   4.181
  622TIP3    H2 1824   2.259   6.135   4.061
  623TIP3   OH2 1825   6.560   3.631   4.542
  623TIP3    H1 1826   6.479   3.671   4.572
  623TIP3    H2 1827   6.533   3.546   4.505
  624TIP3   OH2 1828   3.970   4.870   1.979
  624TIP3    H1 1829   3.966   4.922   1.899
  624TIP3    H2 1830   3.936   4.784   1.954
  625TIP3   OH2 1831   7.324   0.142   3.703
  625TIP3    H1 1832   7.244   0.177   3.742
  625TIP3    H2 1833   7.293   0.074   3.643
  626TIP3   OH2 1834   0.814   1.369   5.355
  626TIP3    H1 1835   0.742   1.311   5.382
  626TIP3    H2 1836   0.824   1.430   5.428
  627TIP3   OH2 1837   6.030   4.438   0.114
  627TIP3    H1 1838   5.970   4.379   0.160
  627TIP3    H2 1839   6.111   4.387   0.106
  628TIP3   OH2 1840   2.962   5.979   5.527
  628TIP3    H1 1841   2.935   6.035   5.600
  628TIP3    H2 1842   2.882   5.964   5.477
  629TIP3   OH2 1843   5.010   0.575   3.882
  629TIP3    H1 1844   4.981   0.666   3.893
  629TIP3    H2 1845   5.017   0.541   3.971
  630TIP3   OH2 1846   3.001   1.923   1.525
  630TIP3    H1 1847   2.957   1.848   1.484
  630TIP3    H2 1848   3.081   1.885   1.564
  631TIP3   OH2 1849   1.246   5.799   0.862
  631TIP3    H1 1850   1.220   5.879   0.908
  631TIP3    H2 1851   1.283   5.743   0.931
  632TIP3   OH2 1852   4.526   3.189   5.368
  632TIP3    H1 1853   4.588   3.223   5.303
  632TIP3    H2 1854   4.446   3.171   5.318
  633TIP3   OH2 1855   7.997   5.220   6.612
  633TIP3    H1 1856   7.989   5.277   6.688
  633TIP3    H2 1857   7.997   5.280   6.537
  634TIP3   OH2 1858  -0.012   6.390   0.203
  634TIP3    H1 1859   0.076   6.392   0.241
  634TIP3    H2 1860  -0.038   6.482   0.199
  635TIP3   OH2 1861   6.103   3.111   0.888
  635TIP3    H1 1862   6.170   3.097   0.956
  635TIP3    H2 1863   6.084   3.205   0.893
  636TIP3   OH2 1864   5.326   7.652   1.271
  636TIP3    H1 1865   5.382   7.590   1.318
  636TIP3    H2 1866   5.382   7.689   1.203
  637TIP3   OH2 1867   5.349   3.188   5.802
  637TIP3    H1 1868   5.323   3.141   5.881
  637TIP3    H2 1869   5.307   3.140   5.731
  638TIP3   OH2 1870   2.763   6.473   1.059
  638TIP3    H1 1871   2.815   6.534   1.111
  638TIP3    H2 1872   2.683   6.521   1.039
  639TIP3   OH2 1873   6.979   0.047   2.107
  639TIP3    H1 1874   6.907   0.001   2.151
  639TIP3    H2 1875   7.017  -0.019   2.049
  640TIP3   OH2 1876   1.845   2.057   0.251
  640TIP3    H1 1877   1.776   2.008   0.295
  640TIP3    H2 1878   1.877   1.998   0.183
  641TIP3   OH2 1879   1.362   0.093   0.677
  641TIP3    H1 1880   1.354   0.047   0.761
  641TIP3    H2 1881   1.317   0.036   0.615
  642TIP3   OH2 1882   6.172   2.863   3.799
  642TIP3    H1 1883   6.086   2.864   3.841
  642TIP3    H2 1884   6.163   2.924   3.726
  643TIP3   OH2 1885   6.831   4.838   0.200
  643TIP3    H1 1886   6.784   4.789   0.269
  643TIP3    H2 1887   6.820   4.930   0.225
  644TIP3   OH2 1888   6.339   2.180   6.175
  644TIP3    H1 1889   6.393   2.224   6.240
  644TIP3    H2 1890   6.401   2.152   6.107
  645TIP3   OH2 1891   4.114   6.005   6.717
  645TIP3    H1 1892   4.055   6.037   6.647
  645TIP3    H2 1893   4.112   5.910   6.708
  646TIP3   OH2 1894   7.421   0.008   1.987
  646TIP3    H1 1895   7.464   0.047   2.063
  646TIP3    H2 1896   7.488  -0.049   1.949
  647TIP3   OH2 1897   3.589   5.753   1.083
  647TIP3    H1 1898   3.589   5.822   1.149
  647TIP3    H2 1899   3.518   5.695   1.109
  648TIP3   OH2 1900   5.371   3.127   0.404
  648TIP3    H1 1901   5.309   3.199   0.411
  648TIP3    H2 1902   5.328   3.054   0.449
  649TIP3   OH2 1903   4.491   5.187   2.822
  649TIP3    H1 1904   4.408   5.231   2.836
  649TIP3    H2 1905   4.539   5.245   2.763
  650TIP3   OH2 1906   2.814   0.882   1.545
  650TIP3    H1 1907   2.852   0.919   1.465
  650TIP3    H2 1908   2.860   0.926   1.616
  651TIP3   OH2 1909   6.250   5.008   4.107
  651TIP3    H1 1910   6.325   4.988   4.163
  651TIP3    H2 1911   6.287   5.017   4.019
  652TIP3   OH2 1912   5.028   4.208   4.052
  652TIP3    H1 1913   4.969   4.254   4.112
  652TIP3    H2 1914   4.977   4.196   3.972
  653TIP3   OH2 1915   2.823   4.104   4.858
  653TIP3    H1 1916   2.880   4.091   4.782
  653TIP3    H2 1917   2.738   4.072   4.829
  654TIP3   OH2 1918   3.955   7.743   4.279
  654TIP3    H1 1919   4.039   7.738   4.233
  654TIP3    H2 1920   3.972   7.702   4.364
  655TIP3   OH2 1921   6.287   2.284   3.096
  655TIP3    H1 1922   6.341   2.255   3.170
  655TIP3    H2 1923   6.349   2.324   3.035
  656TIP3   OH2 1924   6.803   3.887   0.983
  656TIP3    H1 1925   6.767   3.948   0.918
  656TIP3    H2 1926   6.802   3.802   0.939
  657TIP3   OH2 1927   3.528   5.032   4.770
  657TIP3    H1 1928   3.503   5.120   4.740
  657TIP3    H2 1929   3.445   4.986   4.781
  658TIP3   OH2 1930   3.374   3.960   2.614
  658TIP3    H1 1931   3.460   4.001   2.615
  658TIP3    H2 1932   3.346   3.961   2.705
  659TIP3   OH2 1933   5.869   5.220   4.078
  659TIP3    H1 1934   5.859   5.161   4.003
  659TIP3    H2 1935   5.811   5.182   4.145
  660TIP3   OH2 1936   7.950   6.400   3.375
  660TIP3    H1 1937   8.004   6.346   3.317
  660TIP3    H2 1938   8.004   6.478   3.392
  661TIP3   OH2 1939   0.587   5.104   0.746
  661TIP3    H1 1940   0.523   5.053   0.797
  661TIP3    H2 1941   0.670   5.058   0.760
  662TIP3   OH2 1942   4.156   5.927   6.147
  662TIP3    H1 1943   4.188   5.838   6.162
  662TIP3    H2 1944   4.099   5.919   6.071
  663TIP3   OH2 1945   5.269   2.736   0.299
  663TIP3    H1 1946   5.333   2.806   0.284
  663TIP3    H2 1947   5.214   2.769   0.370
  664TIP3   OH2 1948   2.331   3.087   2.472
  664TIP3    H1 1949   2.360   2.996   2.475
  664TIP3    H2 1950   2.245   3.083   2.429
  665TIP3   OH2 1951   3.961   0.884   2.929
  665TIP3    H1 1952   3.969   0.835   2.847
  665TIP3    H2 1953   4.020   0.838   2.990
  666TIP3   OH2 1954   6.704   0.259   6.651
  666TIP3    H1 1955   6.775   0.301   6.602
  666TIP3    H2 1956   6.627   0.270   6.595
  667TIP3   OH2 1957   7.908   4.990   6.489
  667TIP3    H1 1958   7.932   5.074   6.527
  667TIP3    H2 1959   7.935   4.926   6.555
  668TIP3   OH2 1960   1.695   3.322   1.184
  668TIP3    H1 1961   1.765   3.275   1.229
  668TIP3    H2 1962   1.662   3.385   1.248
  669TIP3   OH2 1963   7.078   5.970   4.028
  669TIP3    H1 1964   7.020   5.992   4.101
  669TIP3    H2 1965   7.053   6.031   3.959
  670TIP3   OH2 1966   4.273   4.429   6.044
  670TIP3    H1 1967   4.190   4.452   6.003
  670TIP3    H2 1968   4.299   4.346   6.003
  671TIP3   OH2 1969   5.923   6.858   2.208
  671TIP3    H1 1970   6.013   6.826   2.213
  671TIP3    H2 1971   5.873   6.798   2.262
  672TIP3   OH2 1972   5.851   3.248   2.042
  672TIP3    H1 1973   5.826   3.193   2.117
  672TIP3    H2 1974   5.894   3.324   2.081
  673TIP3   OH2 1975   5.221   0.041   0.150
  673TIP3    H1 1976   5.209   0.110   0.084
  673TIP3    H2 1977   5.183  -0.037   0.109
  674TIP3   OH2 1978   3.014   3.418   6.100
  674TIP3    H1 1979   2.928   3.419   6.057
  674TIP3    H2 1980   3.077   3.416   6.028
  675TIP3   OH2 1981   4.137   1.534   4.847
  675TIP3    H1 1982   4.071   1.476   4.885
  675TIP3    H2 1983   4.186   1.567   4.922
  676TIP3   OH2 1984   4.662   3.756   4.948
  676TIP3    H1 1985   4.647   3.837   4.997
  676TIP3    H2 1986   4.629   3.775   4.860
  677TIP3   OH2 1987   3.441   2.358  -0.027
  677TIP3    H1 1988   3.497   2.330   0.046
  677TIP3    H2 1989   3.360   2.387   0.015
  678TIP3   OH2 1990   2.542   6.371   5.747
  678TIP3    H1 1991   2.538   6.285   5.788
  678TIP3    H2 1992   2.455   6.385   5.711
  679TIP3   OH2 1993   2.506   5.478   5.213
  679TIP3    H1 1994   2.525   5.482   5.120
  679TIP3    H2 1995   2.542   5.560   5.248
  680TIP3   OH2 1996   0.755   4.037   6.070
  680TIP3    H1 1997   0.849   4.017   6.078
  680TIP3    H2 1998   0.745   4.072   5.982
  681TIP3   OH2 1999   6.123   7.806   5.627
  681TIP3    H1 2000   6.062   7.849   5.566
  681TIP3    H2 2001   6.071   7.790   5.706
  682TIP3   OH2 2002   6.675   2.475   3.082
  682TIP3    H1 2003   6.622   2.514   3.012
  682TIP3    H2 2004   6.638   2.511   3.162
  683TIP3   OH2 2005   4.966   0.995   4.048
  683TIP3    H1 2006   4.937   0.910   4.080
  683TIP3    H2 2007   4.983   0.981   3.954
  684TIP3   OH2 2008   5.258   1.399   3.341
  684TIP3    H1 2009   5.225   1.407   3.431
  684TIP3    H2 2010   5.299   1.312   3.338
  685TIP3   OH2 2011   5.244   1.673   6.120
  685TIP3    H1 2012   5.195   1.614   6.178
  685TIP3    H2 2013   5.215   1.649   6.032
  686TIP3   OH2 2014   5.660   5.506   4.624
  686TIP3    H1 2015   5.604   5.520   4.700
  686TIP3    H2 2016   5.600   5.493   4.551
  687TIP3   OH2 2017   0.525   2.317   5.902
  687TIP3    H1 2018   0.515   2.409   5.924
  687TIP3    H2 2019   0.492   2.310   5.812
  688TIP3   OH2 2020   0.218   2.236   0.394
  688TIP3    H1 2021   0.295   2.289   0.415
  688TIP3    H2 2022   0.155   2.298   0.358
  689TIP3   OH2 2023   5.755   4.490   3.507
  689TIP3    H1 2024   5.767   4.584   3.493
  689TIP3    H2 2025   5.664   4.474   3.482
  690TIP3   OH2 2026   5.761   5.480   3.963
  690TIP3    H1 2027   5.668   5.471   3.985
  690TIP3    H2 2028   5.798   5.395   3.986
  691TIP3   OH2 2029   2.791   6.164   0.741
  691TIP3    H1 2030   2.778   6.128   0.829
  691TIP3    H2 2031   2.878   6.133   0.715
  692TIP3   OH2 2032   2.601   4.828   0.335
  692TIP3    H1 2033   2.584   4.772   0.259
  692TIP3    H2 2034   2.644   4.770   0.398
  693TIP3   OH2 2035   6.097   2.256   1.689
  693TIP3    H1 2036   6.080   2.347   1.663
  693TIP3    H2 2037   6.012   2.212   1.679
  694TIP3   OH2 2038   1.505   6.421   2.646
  694TIP3    H1 2039   1.443   6.462   2.585
  694TIP3    H2 2040   1.557   6.362   2.591
  695TIP3   OH2 2041   2.303   1.148   4.188
  695TIP3    H1 2042   2.287   1.224   4.243
  695TIP3    H2 2043   2.342   1.184   4.108
  696TIP3   OH2 2044   1.085   3.043   3.688
  696TIP3    H1 2045   1.051   3.133   3.691
  696TIP3    H2 2046   1.029   2.999   3.624
  697TIP3   OH2 2047   1.225   0.768   5.345
  697TIP3    H1 2048   1.263   0.702   5.404
  697TIP3    H2 2049   1.133   0.743   5.338
  698TIP3   OH2 2050   5.533   1.595   5.112
  698TIP3    H1 2051   5.454   1.611   5.061
  698TIP3    H2 2052   5.541   1.670   5.170
  699TIP3   OH2 2053   6.641   6.705   5.205
  699TIP3    H1 2054   6.683   6.746   5.280
  699TIP3    H2 2055   6.712   6.656   5.162
  700TIP3   OH2 2056   4.720   1.242   3.029
  700TIP3    H1 2057   4.698   1.149   3.034
  700TIP3    H2 2058   4.816   1.244   3.025
  701TIP3   OH2 2059   1.965   3.296   0.737
  701TIP3    H1 2060   1.974   3.234   0.664
  701TIP3    H2 2061   1.980   3.244   0.815
  702TIP3   OH2 2062   5.573   3.853   6.470
  702TIP3    H1 2063   5.549   3.806   6.390
  702TIP3    H2 2064   5.642   3.800   6.509
  703TIP3   OH2 2065   6.354   5.963   6.706
  703TIP3    H1 2066   6.419   5.894   6.721
  703TIP3    H2 2067   6.293   5.953   6.779
  704TIP3   OH2 2068   8.197   6.574   4.567
  704TIP3    H1 2069   8.238   6.494   4.535
  704TIP3    H2 2070   8.142   6.546   4.640
  705TIP3   OH2 2071   4.123   1.345   6.234
  705TIP3    H1 2072   4.187   1.298   6.287
  705TIP3    H2 2073   4.054   1.281   6.217
  706TIP3   OH2 2074   4.449   1.885   5.386
  706TIP3    H1 2075   4.439   1.954   5.452
  706TIP3    H2 2076   4.529   1.909   5.339
  707TIP3   OH2 2077   7.561   0.150   0.552
  707TIP3    H1 2078   7.496   0.094   0.509
  707TIP3    H2 2079   7.523   0.238   0.548
  708TIP3   OH2 2080   7.679   4.852   6.568
  708TIP3    H1 2081   7.704   4.760   6.578
  708TIP3    H2 2082   7.755   4.893   6.526
  709TIP3   OH2 2083   2.181   3.366   2.894
  709TIP3    H1 2084   2.109   3.376   2.956
  709TIP3    H2 2085   2.172   3.441   2.835
  710TIP3   OH2 2086   6.108   1.570   5.631
  710TIP3    H1 2087   6.045   1.503   5.657
  710TIP3    H2 2088   6.071   1.608   5.551
  711TIP3   OH2 2089   7.077   3.704   5.796
  711TIP3    H1 2090   7.124   3.756   5.731
  711TIP3    H2 2091   7.095   3.748   5.880
  712TIP3   OH2 2092   6.739   4.927   3.743
  712TIP3    H1 2093   6.674   4.858   3.733
  712TIP3    H2 2094   6.718   4.990   3.675
  713TIP3   OH2 2095   1.809   2.483   2.160
  713TIP3    H1 2096   1.724   2.522   2.139
  713TIP3    H2 2097   1.872   2.537   2.113
  714TIP3   OH2 2098   3.422   7.101   5.863
  714TIP3    H1 2099   3.385   7.132   5.780
  714TIP3    H2 2100   3.516   7.116   5.854
  715TIP3   OH2 2101   0.482   6.755   4.188
  715TIP3    H1 2102   0.416   6.744   4.120
  715TIP3    H2 2103   0.559   6.787   4.141
  716TIP3   OH2 2104   0.909   6.087   0.742
  716TIP3    H1 2105   0.918   6.158   0.805
  716TIP3    H2 2106   0.826   6.046   0.764
  717TIP3   OH2 2107   2.818   0.316   0.463
  717TIP3    H1 2108   2.902   0.296   0.422
  717TIP3    H2 2109   2.835   0.395   0.514
  718TIP3   OH2 2110   4.358   3.708   3.435
  718TIP3    H1 2111   4.402   3.771   3.379
  718TIP3    H2 2112   4.292   3.759   3.481
  719TIP3   OH2 2113   0.387   5.022   1.900
  719TIP3    H1 2114   0.371   5.011   1.993
  719TIP3    H2 2115   0.371   4.935   1.862
  720TIP3   OH2 2116   6.807   6.917   1.099
  720TIP3    H1 2117   6.857   6.846   1.140
  720TIP3    H2 2118   6.775   6.879   1.017
  721TIP3   OH2 2119   6.081   3.037   0.503
  721TIP3    H1 2120   6.161   3.088   0.513
  721TIP3    H2 2121   6.099   2.978   0.429
  722TIP3   OH2 2122   7.365   4.537   4.805
  722TIP3    H1 2123   7.335   4.528   4.714
  722TIP3    H2 2124   7.451   4.495   4.806
  723TIP3   OH2 2125   1.670   1.427   6.052
  723TIP3    H1 2126   1.687   1.442   5.959
  723TIP3    H2 2127   1.575   1.423   6.058
  724TIP3   OH2 2128   0.192   2.632   0.713
  724TIP3    H1 2129   0.256   2.567   0.684
  724TIP3    H2 2130   0.116   2.616   0.657
  725TIP3   OH2 2131   4.574   5.913   1.904
  725TIP3    H1 2132   4.522   5.904   1.824
  725TIP3    H2 2133   4.604   5.824   1.922
  726TIP3   OH2 2134   4.646   4.405   2.837
  726TIP3    H1 2135   4.672   4.487   2.879
  726TIP3    H2 2136   4.719   4.383   2.779
  727TIP3   OH2 2137   1.907   4.993   5.134
  727TIP3    H1 2138   1.873   4.963   5.049
  727TIP3    H2 2139   1.994   4.953   5.140
  728TIP3   OH2 2140   2.782   2.407   1.973
  728TIP3    H1 2141   2.746   2.368   2.052
  728TIP3    H2 2142   2.874   2.425   1.995
  729TIP3   OH2 2143   6.207   2.631   5.041
  729TIP3    H1 2144   6.140   2.635   5.109
  729TIP3    H2 2145   6.267   2.562   5.069
  730TIP3   OH2 2146   7.294   2.446   5.417
  730TIP3    H1 2147   7.244   2.488   5.487
  730TIP3    H2 2148   7.241   2.460   5.338
  731TIP3   OH2 2149   7.210   0.442   4.334
  731TIP3    H1 2150   7.220   0.362   4.282
  731TIP3    H2 2151   7.133   0.485   4.297
  732TIP3   OH2 2152   0.421   2.703   5.313
  732TIP3    H1 2153   0.463   2.633   5.363
  732TIP3    H2 2154   0.494   2.757   5.283
  733TIP3   OH2 2155   7.687   0.412   3.418
  733TIP3    H1 2156   7.599   0.375   3.426
  733TIP3    H2 2157   7.673   0.503   3.391
  734TIP3   OH2 2158   4.628   6.810   1.006
  734TIP3    H1 2159   4.539   6.805   1.039
  734TIP3    H2 2160   4.661   6.894   1.037
  735TIP3   OH2 2161   3.103   5.666   3.680
  735TIP3    H1 2162   3.081   5.721   3.755
  735TIP3    H2 2163   3.098   5.725   3.605
  736TIP3   OH2 2164   1.667   7.219   2.778
  736TIP3    H1 2165   1.661   7.180   2.865
  736TIP3    H2 2166   1.706   7.149   2.724
  737TIP3   OH2 2167   5.047   6.978   3.203
  737TIP3    H1 2168   5.054   6.964   3.297
  737TIP3    H2 2169   5.071   6.894   3.164
  738TIP3   OH2 2170   1.135   5.801   1.766
  738TIP3    H1 2171   1.204   5.746   1.728
  738TIP3    H2 2172   1.183   5.868   1.815
  739TIP3   OH2 2173   3.736   6.404   3.210
  739TIP3    H1 2174   3.784   6.323   3.230
  739TIP3    H2 2175   3.705   6.391   3.120
  740TIP3   OH2 2176   6.153   6.318   0.178
  740TIP3    H1 2177   6.117   6.307   0.266
  740TIP3    H2 2178   6.225   6.379   0.189
  741TIP3   OH2 2179   3.388   3.492   1.319
  741TIP3    H1 2180   3.439   3.476   1.240
  741TIP3    H2 2181   3.420   3.427   1.382
  742TIP3   OH2 2182   3.063   4.547   4.797
  742TIP3    H1 2183   3.127   4.532   4.727
  742TIP3    H2 2184   2.978   4.530   4.755
  743TIP3   OH2 2185   6.505   2.784   2.113
  743TIP3    H1 2186   6.508   2.709   2.172
  743TIP3    H2 2187   6.426   2.832   2.138
  744TIP3   OH2 2188   4.303   6.491   6.332
  744TIP3    H1 2189   4.338   6.502   6.243
  744TIP3    H2 2190   4.208   6.495   6.320
  745TIP3   OH2 2191   1.909   2.871   0.347
  745TIP3    H1 2192   1.977   2.916   0.298
  745TIP3    H2 2193   1.954   2.829   0.420
  746TIP3   OH2 2194   6.305   3.894   2.583
  746TIP3    H1 2195   6.386   3.935   2.554
  746TIP3    H2 2196   6.325   3.800   2.583
  747TIP3   OH2 2197   2.859   5.360   5.333
  747TIP3    H1 2198   2.886   5.447   5.361
  747TIP3    H2 2199   2.772   5.348   5.373
  748TIP3   OH2 2200   2.388   4.093   0.267
  748TIP3    H1 2201   2.419   4.083   0.177
  748TIP3    H2 2202   2.344   4.010   0.286
  749TIP3   OH2 2203   3.289   4.836   5.243
  749TIP3    H1 2204   3.326   4.878   5.166
  749TIP3    H2 2205   3.265   4.748   5.214
  750TIP3   OH2 2206   1.682   4.144   1.277
  750TIP3    H1 2207   1.669   4.094   1.358
  750TIP3    H2 2208   1.607   4.203   1.273
  751TIP3   OH2 2209   3.038   0.192   1.173
  751TIP3    H1 2210   2.976   0.242   1.120
  751TIP3    H2 2211   3.025   0.225   1.262
  752TIP3   OH2 2212   4.607   6.772   2.247
  752TIP3    H1 2213   4.606   6.828   2.169
  752TIP3    H2 2214   4.635   6.686   2.215
  753TIP3   OH2 2215   6.578   5.426   6.005
  753TIP3    H1 2216   6.609   5.480   5.932
  753TIP3    H2 2217   6.574   5.486   6.080
  754TIP3   OH2 2218   1.798   4.753   3.741
  754TIP3    H1 2219   1.750   4.686   3.790
  754TIP3    H2 2220   1.751   4.761   3.658
  755TIP3   OH2 2221   5.600   4.167   2.364
  755TIP3    H1 2222   5.577   4.111   2.290
  755TIP3    H2 2223   5.566   4.121   2.441
  756TIP3   OH2 2224   6.975   3.513   4.314
  756TIP3    H1 2225   6.917   3.450   4.356
  756TIP3    H2 2226   6.971   3.492   4.221
  757TIP3   OH2 2227   3.847   7.680   4.036
  757TIP3    H1 2228   3.786   7.754   4.030
  757TIP3    H2 2229   3.905   7.702   4.109
  758TIP3   OH2 2230   4.673   4.414   0.521
  758TIP3    H1 2231   4.663   4.341   0.461
  758TIP3    H2 2232   4.762   4.446   0.506
  759TIP3   OH2 2233   7.567   1.125   6.119
  759TIP3    H1 2234   7.591   1.140   6.211
  759TIP3    H2 2235   7.474   1.104   6.122
  760TIP3   OH2 2236   2.640   6.282   0.393
  760TIP3    H1 2237   2.567   6.312   0.339
  760TIP3    H2 2238   2.598   6.246   0.472
  761TIP3   OH2 2239   4.940   7.618   2.843
  761TIP3    H1 2240   4.879   7.629   2.770
  761TIP3    H2 2241   5.002   7.552   2.811
  762TIP3   OH2 2242   6.551   0.797   2.650
  762TIP3    H1 2243   6.627   0.856   2.652
  762TIP3    H2 2244   6.512   0.811   2.564
  763TIP3   OH2 2245   1.453   7.137   3.702
  763TIP3    H1 2246   1.383   7.115   3.764
  763TIP3    H2 2247   1.422   7.216   3.658
  764TIP3   OH2 2248   2.292   0.592   3.463
  764TIP3    H1 2249   2.271   0.506   3.428
  764TIP3    H2 2250   2.366   0.622   3.411
  765TIP3   OH2 2251   2.501   1.245   2.065
  765TIP3    H1 2252   2.456   1.168   2.099
  765TIP3    H2 2253   2.515   1.300   2.143
  766TIP3   OH2 2254   0.681   0.635   6.640
  766TIP3    H1 2255   0.696   0.543   6.665
  766TIP3    H2 2256   0.587   0.639   6.621
  767TIP3   OH2 2257   1.545   3.960   5.648
  767TIP3    H1 2258   1.604   3.890   5.678
  767TIP3    H2 2259   1.483   3.915   5.591
  768TIP3   OH2 2260   0.417   0.928   0.267
  768TIP3    H1 2261   0.397   0.841   0.304
  768TIP3    H2 2262   0.472   0.909   0.191
  769TIP3   OH2 2263   4.215   3.470   0.201
  769TIP3    H1 2264   4.178   3.417   0.272
  769TIP3    H2 2265   4.142   3.483   0.141
  770TIP3   OH2 2266   7.212   1.723   6.691
  770TIP3    H1 2267   7.170   1.752   6.611
  770TIP3    H2 2268   7.165   1.643   6.716
  771TIP3   OH2 2269   1.815   0.771   3.826
  771TIP3    H1 2270   1.729   0.807   3.807
  771TIP3    H2 2271   1.817   0.687   3.780
  772TIP3   OH2 2272   1.270   5.285   1.078
  772TIP3    H1 2273   1.254   5.352   1.012
  772TIP3    H2 2274   1.355   5.247   1.054
  773TIP3   OH2 2275   2.617   1.086   5.787
  773TIP3    H1 2276   2.709   1.110   5.771
  773TIP3    H2 2277   2.570   1.169   5.784
  774TIP3   OH2 2278   0.139   7.696   2.084
  774TIP3    H1 2279   0.197   7.620   2.075
  774TIP3    H2 2280   0.149   7.723   2.175
  775TIP3   OH2 2281   3.597   7.520   2.356
  775TIP3    H1 2282   3.594   7.577   2.279
  775TIP3    H2 2283   3.505   7.498   2.374
  776TIP3   OH2 2284   6.389   0.630   4.117
  776TIP3    H1 2285   6.300   0.666   4.118
  776TIP3    H2 2286   6.386   0.556   4.178
  777TIP3   OH2 2287   0.600   6.925   1.074
  777TIP3    H1 2288   0.640   6.971   1.148
  777TIP3    H2 2289   0.565   6.845   1.112
  778TIP3   OH2 2290   1.569   4.041   2.347
  778TIP3    H1 2291   1.496   4.088   2.387
  778TIP3    H2 2292   1.647   4.080   2.386
  779TIP3   OH2 2293   6.644   1.894   0.516
  779TIP3    H1 2294   6.642   1.838   0.594
  779TIP3    H2 2295   6.717   1.954   0.532
  780TIP3   OH2 2296   6.096   6.557   5.334
  780TIP3    H1 2297   6.182   6.520   5.315
  780TIP3    H2 2298   6.057   6.496   5.396
  781TIP3   OH2 2299   2.062   4.879   6.344
  781TIP3    H1 2300   2.067   4.803   6.286
  781TIP3    H2 2301   2.002   4.939   6.300
  782TIP3   OH2 2302   2.446   5.325   2.140
  782TIP3    H1 2303   2.441   5.283   2.226
  782TIP3    H2 2304   2.406   5.411   2.152
  783TIP3   OH2 2305   1.481   2.287   3.198
  783TIP3    H1 2306   1.398   2.334   3.200
  783TIP3    H2 2307   1.518   2.307   3.112
  784TIP3   OH2 2308   3.730   0.725   1.436
  784TIP3    H1 2309   3.717   0.819   1.432
  784TIP3    H2 2310   3.819   0.712   1.401
  785TIP3   OH2 2311   1.990   5.560   4.276
  785TIP3    H1 2312   2.083   5.539   4.270
  785TIP3    H2 2313   1.953   5.492   4.332
  786TIP3   OH2 2314   1.428   7.189   3.303
  786TIP3    H1 2315   1.333   7.191   3.317
  786TIP3    H2 2316   1.450   7.096   3.298
  787TIP3   OH2 2317   6.902   6.268   5.101
  787TIP3    H1 2318   6.922   6.312   5.018
  787TIP3    H2 2319   6.981   6.219   5.121
  788TIP3   OH2 2320   5.383   3.359   6.112
  788TIP3    H1 2321   5.471   3.387   6.088
  788TIP3    H2 2322   5.377   3.268   6.082
  789TIP3   OH2 2323   7.972   3.850   2.972
  789TIP3    H1 2324   7.886   3.847   2.929
  789TIP3    H2 2325   8.022   3.780   2.929
  790TIP3   OH2 2326   6.625   6.915   4.007
  790TIP3    H1 2327   6.562   6.926   4.079
  790TIP3    H2 2328   6.650   7.004   3.982
  791TIP3   OH2 2329   5.604   4.362   4.965
  791TIP3    H1 2330   5.592   4.325   5.053
  791TIP3    H2 2331   5.676   4.424   4.975
  792TIP3   OH2 2332   0.759   6.533   0.995
  792TIP3    H1 2333   0.839   6.557   1.042
  792TIP3    H2 2334   0.692   6.590   1.033
  793TIP3   OH2 2335   4.792   0.122   2.239
  793TIP3    H1 2336   4.831   0.172   2.311
  793TIP3    H2 2337   4.860   0.120   2.171
  794TIP3   OH2 2338   6.895   1.310   4.006
  794TIP3    H1 2339   6.966   1.340   3.950
  794TIP3    H2 2340   6.825   1.374   3.995
  795TIP3   OH2 2341   6.729   3.694   0.800
  795TIP3    H1 2342   6.672   3.648   0.860
  795TIP3    H2 2343   6.795   3.630   0.774
  796TIP3   OH2 2344   1.753   2.077   6.205
  796TIP3    H1 2345   1.733   2.112   6.292
  796TIP3    H2 2346   1.759   2.155   6.150
  797TIP3   OH2 2347   4.815   6.044   5.293
  797TIP3    H1 2348   4.858   6.029   5.377
  797TIP3    H2 2349   4.722   6.032   5.312
  798TIP3   OH2 2350   4.960   0.520   5.247
  798TIP3    H1 2351   5.025   0.588   5.228
  798TIP3    H2 2352   4.904   0.517   5.169
  799TIP3   OH2 2353   7.016   3.151   1.019
  799TIP3    H1 2354   6.964   3.221   1.056
  799TIP3    H2 2355   7.087   3.138   1.081
  800TIP3   OH2 2356   3.684   6.838   0.489
  800TIP3    H1 2357   3.760   6.853   0.434
  800TIP3    H2 2358   3.689   6.906   0.556
  801TIP3   OH2 2359   5.714   3.788   3.474
  801TIP3    H1 2360   5.719   3.873   3.519
  801TIP3    H2 2361   5.630   3.790   3.429
  802TIP3   OH2 2362   2.514   0.606   0.041
  802TIP3    H1 2363   2.563   0.633  -0.037
  802TIP3    H2 2364   2.580   0.575   0.102
  803TIP3   OH2 2365   5.788   3.470   1.031
  803TIP3    H1 2366   5.785   3.566   1.030
  803TIP3    H2 2367   5.705   3.442   0.992
  804TIP3   OH2 2368   1.095   2.351   6.209
  804TIP3    H1 2369   1.145   2.281   6.249
  804TIP3    H2 2370   1.130   2.359   6.120
  805TIP3   OH2 2371   3.925   6.750   3.154
  805TIP3    H1 2372   3.974   6.670   3.172
  805TIP3    H2 2373   3.967   6.787   3.076
  806TIP3   OH2 2374   3.280   3.839   0.728
  806TIP3    H1 2375   3.209   3.900   0.747
  806TIP3    H2 2376   3.291   3.789   0.809
  807TIP3   OH2 2377   4.323   6.853   2.144
  807TIP3    H1 2378   4.337   6.782   2.206
  807TIP3    H2 2379   4.254   6.821   2.086
  808TIP3   OH2 2380   6.350   5.383   6.627
  808TIP3    H1 2381   6.366   5.332   6.548
  808TIP3    H2 2382   6.370   5.323   6.699
  809TIP3   OH2 2383   0.931   6.508   4.227
  809TIP3    H1 2384   0.836   6.495   4.222
  809TIP3    H2 2385   0.967   6.419   4.225
  810TIP3   OH2 2386   1.678   0.031   0.169
  810TIP3    H1 2387   1.739  -0.009   0.108
  810TIP3    H2 2388   1.638   0.103   0.120
  811TIP3   OH2 2389   6.229   0.243   1.438
  811TIP3    H1 2390   6.230   0.303   1.513
  811TIP3    H2 2391   6.214   0.300   1.362
  812TIP3   OH2 2392   2.580   0.905   5.038
  812TIP3    H1 2393   2.591   0.880   4.946
  812TIP3    H2 2394   2.644   0.975   5.052
  813TIP3   OH2 2395   2.484   4.303   6.606
  813TIP3    H1 2396   2.424   4.243   6.651
  813TIP3    H2 2397   2.431   4.380   6.586
  814TIP3   OH2 2398   7.436   6.789   6.324
  814TIP3    H1 2399   7.426   6.881   6.348
  814TIP3    H2 2400   7.529   6.772   6.333
  815TIP3   OH2 2401   2.884   0.652   1.294
  815TIP3    H1 2402   2.827   0.722   1.261
  815TIP3    H2 2403   2.829   0.605   1.357
  816TIP3   OH2 2404   3.125   5.959   3.654
  816TIP3    H1 2405   3.143   6.050   3.629
  816TIP3    H2 2406   3.084   5.920   3.577
  817TIP3   OH2 2407   3.955   6.517   5.107
  817TIP3    H1 2408   4.018   6.547   5.172
  817TIP3    H2 2409   3.959   6.582   5.038
  818TIP3   OH2 2410   3.570   3.740   0.763
  818TIP3    H1 2411   3.503   3.723   0.697
  818TIP3    H2 2412   3.625   3.662   0.763
  819TIP3   OH2 2413   4.423   6.767   3.072
  819TIP3    H1 2414   4.447   6.850   3.030
  819TIP3    H2 2415   4.348   6.736   3.021
  820TIP3   OH2 2416   7.137   6.938   1.347
  820TIP3    H1 2417   7.147   6.845   1.367
  820TIP3    H2 2418   7.158   6.982   1.429
  821TIP3   OH2 2419   6.289   5.205   5.705
  821TIP3    H1 2420   6.351   5.178   5.637
  821TIP3    H2 2421   6.281   5.300   5.695
  822TIP3   OH2 2422   3.859   7.592   0.865
  822TIP3    H1 2423   3.893   7.523   0.922
  822TIP3    H2 2424   3.821   7.544   0.791
  823TIP3   OH2 2425   0.736   0.820   4.080
  823TIP3    H1 2426   0.672   0.831   4.150
  823TIP3    H2 2427   0.706   0.880   4.011
  824TIP3   OH2 2428   2.541   3.824   1.794
  824TIP3    H1 2429   2.560   3.895   1.734
  824TIP3    H2 2430   2.523   3.749   1.738
  825TIP3   OH2 2431   1.967   2.185   3.539
  825TIP3    H1 2432   1.972   2.210   3.447
  825TIP3    H2 2433   1.917   2.256   3.580
  826TIP3   OH2 2434   8.255   5.318   1.121
  826TIP3    H1 2435   8.299   5.270   1.190
  826TIP3    H2 2436   8.189   5.371   1.167
  827TIP3   OH2 2437   2.136   0.628   2.243
  827TIP3    H1 2438   2.086   0.602   2.320
  827TIP3    H2 2439   2.137   0.723   2.246
  828TIP3   OH2 2440   3.671   4.033   5.187
  828TIP3    H1 2441   3.681   4.118   5.230
  828TIP3    H2 2442   3.760   3.999   5.182
  829TIP3   OH2 2443   0.031   7.284   5.094
  829TIP3    H1 2444   0.029   7.367   5.048
  829TIP3    H2 2445   0.104   7.236   5.055
  830TIP3   OH2 2446   1.039   3.419   5.929
  830TIP3    H1 2447   1.066   3.363   6.002
  830TIP3    H2 2448   1.068   3.507   5.955
  831TIP3   OH2 2449   0.021   6.892   1.844
  831TIP3    H1 2450   0.089   6.959   1.842
  831TIP3    H2 2451  -0.005   6.880   1.753
  832TIP3   OH2 2452   7.946   2.925   3.175
  832TIP3    H1 2453   7.933   3.020   3.178
  832TIP3    H2 2454   8.018   2.909   3.237
  833TIP3   OH2 2455   2.926   4.946   5.657
  833TIP3    H1 2456   2.994   4.912   5.599
  833TIP3    H2 2457   2.846   4.900   5.629
  834TIP3   OH2 2458   4.385   3.225   3.306
  834TIP3    H1 2459   4.375   3.261   3.395
  834TIP3    H2 2460   4.373   3.300   3.249
  835TIP3   OH2 2461   2.236   6.583   0.399
  835TIP3    H1 2462   2.210   6.542   0.316
  835TIP3    H2 2463   2.244   6.511   0.461
  836TIP3   OH2 2464   0.992   1.471   2.394
  836TIP3    H1 2465   0.979   1.376   2.401
  836TIP3    H2 2466   0.958   1.506   2.476
  837TIP3   OH2 2467   4.044   1.577   0.721
  837TIP3    H1 2468   3.978   1.508   0.710
  837TIP3    H2 2469   4.021   1.643   0.656
  838TIP3   OH2 2470   7.753   5.619   3.234
  838TIP3    H1 2471   7.670   5.641   3.276
  838TIP3    H2 2472   7.819   5.660   3.289
  839TIP3   OH2 2473   0.674   6.113   0.049
  839TIP3    H1 2474   0.716   6.196   0.024
  839TIP3    H2 2475   0.743   6.065   0.095
  840TIP3   OH2 2476   5.502   1.702   3.455
  840TIP3    H1 2477   5.510   1.678   3.362
  840TIP3    H2 2478   5.537   1.626   3.502
  841TIP3   OH2 2479   5.091   3.621   2.008
  841TIP3    H1 2480   5.144   3.613   2.087
  841TIP3    H2 2481   5.087   3.716   1.992
  842TIP3   OH2 2482   1.984   5.644   2.588
  842TIP3    H1 2483   1.983   5.739   2.578
  842TIP3    H2 2484   2.058   5.616   2.534
  843TIP3   OH2 2485   2.623   3.664   3.787
  843TIP3    H1 2486   2.678   3.725   3.738
  843TIP3    H2 2487   2.649   3.578   3.755
  844TIP3   OH2 2488   7.394   1.592   4.258
  844TIP3    H1 2489   7.482   1.580   4.221
  844TIP3    H2 2490   7.336   1.591   4.182
  845TIP3   OH2 2491   2.778   7.154   5.945
  845TIP3    H1 2492   2.740   7.066   5.955
  845TIP3    H2 2493   2.735   7.207   6.011
  846TIP3   OH2 2494   0.589   3.341   5.524
  846TIP3    H1 2495   0.669   3.305   5.486
  846TIP3    H2 2496   0.549   3.267   5.570
  847TIP3   OH2 2497   1.496   6.358   5.191
  847TIP3    H1 2498   1.570   6.409   5.157
  847TIP3    H2 2499   1.422   6.419   5.190
  848TIP3   OH2 2500   2.290   6.768   4.891
  848TIP3    H1 2501   2.232   6.719   4.832
  848TIP3    H2 2502   2.280   6.859   4.863
  849TIP3   OH2 2503   5.887   0.404   2.291
  849TIP3    H1 2504   5.814   0.349   2.259
  849TIP3    H2 2505   5.921   0.356   2.366
  850TIP3   OH2 2506   0.117   4.698   0.036
  850TIP3    H1 2507   0.209   4.720   0.044
  850TIP3    H2 2508   0.083   4.705   0.125
  851TIP3   OH2 2509   3.710   5.576   3.696
  851TIP3    H1 2510   3.786   5.604   3.746
  851TIP3    H2 2511   3.733   5.595   3.605
  852TIP3   OH2 2512   2.591   2.745   6.061
  852TIP3    H1 2513   2.664   2.734   6.123
  852TIP3    H2 2514   2.631   2.728   5.976
  853TIP3   OH2 2515   7.843   3.958   2.519
  853TIP3    H1 2516   7.768   3.912   2.558
  853TIP3    H2 2517   7.805   4.035   2.476
  854TIP3   OH2 2518   2.011   6.652   3.084
  854TIP3    H1 2519   1.949   6.625   3.152
  854TIP3    H2 2520   2.090   6.677   3.132
  855TIP3   OH2 2521   7.419   3.409   3.559
  855TIP3    H1 2522   7.460   3.488   3.522
  855TIP3    H2 2523   7.447   3.409   3.650
  856TIP3   OH2 2524   3.953   6.627   4.061
  856TIP3    H1 2525   3.863   6.650   4.083
  856TIP3    H2 2526   4.006   6.669   4.128
  857TIP3   OH2 2527   6.593   0.821   6.736
  857TIP3    H1 2528   6.638   0.742   6.706
  857TIP3    H2 2529   6.579   0.873   6.657
  858TIP3   OH2 2530   5.619   1.161   3.017
  858TIP3    H1 2531   5.569   1.237   3.044
  858TIP3    H2 2532   5.609   1.157   2.922
  859TIP3   OH2 2533   4.184   6.899   6.202
  859TIP3    H1 2534   4.191   6.902   6.106
  859TIP3    H2 2535   4.275   6.903   6.232
  860TIP3   OH2 2536   2.545   1.114   0.325
  860TIP3    H1 2537   2.626   1.073   0.357
  860TIP3    H2 2538   2.480   1.044   0.329
  861TIP3   OH2 2539   0.937   5.168   5.163
  861TIP3    H1 2540   0.862   5.224   5.145
  861TIP3    H2 2541   1.012   5.226   5.158
  862TIP3   OH2 2542   7.149   7.779   4.767
  862TIP3    H1 2543   7.091   7.703   4.762
  862TIP3    H2 2544   7.147   7.805   4.859
  863TIP3   OH2 2545   6.692   4.168   3.007
  863TIP3    H1 2546   6.679   4.185   2.914
  863TIP3    H2 2547   6.671   4.076   3.018
  864TIP3   OH2 2548   4.910   1.910   6.493
  864TIP3    H1 2549   4.993   1.864   6.487
  864TIP3    H2 2550   4.933   1.999   6.521
  865TIP3   OH2 2551   6.099   0.005   5.220
  865TIP3    H1 2552   6.064  -0.021   5.135
  865TIP3    H2 2553   6.085   0.100   5.223
  866TIP3   OH2 2554   4.505   6.129   3.668
  866TIP3    H1 2555   4.595   6.129   3.634
  866TIP3    H2 2556   4.491   6.039   3.697
  867TIP3   OH2 2557   4.943   6.924   4.072
  867TIP3    H1 2558   4.850   6.902   4.060
  867TIP3    H2 2559   4.942   7.002   4.127
  868TIP3   OH2 2560   4.618   7.049   1.475
  868TIP3    H1 2561   4.619   6.972   1.418
  868TIP3    H2 2562   4.689   7.034   1.537
  869TIP3   OH2 2563   0.200   0.106   1.255
  869TIP3    H1 2564   0.160   0.149   1.179
  869TIP3    H2 2565   0.237   0.025   1.219
  870TIP3   OH2 2566   3.810   2.206   3.382
  870TIP3    H1 2567   3.873   2.211   3.454
  870TIP3    H2 2568   3.760   2.126   3.400
  871TIP3   OH2 2569   6.908   5.751   4.011
  871TIP3    H1 2570   6.966   5.827   4.006
  871TIP3    H2 2571   6.967   5.677   4.030
  872TIP3   OH2 2572   0.914   7.281   5.469
  872TIP3    H1 2573   0.920   7.228   5.548
  872TIP3    H2 2574   0.820   7.286   5.450
  873TIP3   OH2 2575   6.941   1.372   0.032
  873TIP3    H1 2576   6.984   1.363   0.116
  873TIP3    H2 2577   6.852   1.339   0.047
  874TIP3   OH2 2578   3.689   0.259   4.362
  874TIP3    H1 2579   3.602   0.252   4.322
  874TIP3    H2 2580   3.684   0.338   4.417
  875TIP3   OH2 2581   5.735   3.000   2.659
  875TIP3    H1 2582   5.649   2.961   2.671
  875TIP3    H2 2583   5.719   3.095   2.659
  876TIP3   OH2 2584   4.044   3.274   0.700
  876TIP3    H1 2585   4.005   3.359   0.677
  876TIP3    H2 2586   3.998   3.248   0.780
  877TIP3   OH2 2587   6.450   7.059   0.772
  877TIP3    H1 2588   6.430   6.981   0.719
  877TIP3    H2 2589   6.512   7.108   0.719
  878TIP3   OH2 2590   3.418   5.264   3.916
  878TIP3    H1 2591   3.386   5.174   3.921
  878TIP3    H2 2592   3.461   5.269   3.830
  879TIP3   OH2 2593   6.694   7.658   4.372
  879TIP3    H1 2594   6.708   7.647   4.278
  879TIP3    H2 2595   6.779   7.686   4.406
  880TIP3   OH2 2596   3.251   4.094   3.369
  880TIP3    H1 2597   3.241   4.043   3.449
  880TIP3    H2 2598   3.344   4.114   3.364
  881TIP3   OH2 2599   2.624   3.534   2.982
  881TIP3    H1 2600   2.608   3.625   3.006
  881TIP3    H2 2601   2.720   3.528   2.975
  882TIP3   OH2 2602   4.798   2.757   0.403
  882TIP3    H1 2603   4.878   2.718   0.438
  882TIP3    H2 2604   4.779   2.706   0.325
  883TIP3   OH2 2605   1.196   5.818   3.369
  883TIP3    H1 2606   1.276   5.805   3.318
  883TIP3    H2 2607   1.188   5.913   3.378
  884TIP3   OH2 2608   6.068   5.403   4.524
  884TIP3    H1 2609   6.156   5.380   4.554
  884TIP3    H2 2610   6.010   5.363   4.589
  885TIP3   OH2 2611   7.450   4.448   5.357
  885TIP3    H1 2612   7.456   4.513   5.287
  885TIP3    H2 2613   7.459   4.364   5.312
  886TIP3   OH2 2614   6.407   5.617   4.749
  886TIP3    H1 2615   6.373   5.545   4.696
  886TIP3    H2 2616   6.350   5.620   4.826
  887TIP3   OH2 2617   7.637   0.058   2.408
  887TIP3    H1 2618   7.623   0.125   2.341
  887TIP3    H2 2619   7.608  -0.024   2.368
  888TIP3   OH2 2620   6.744   3.705   2.302
  888TIP3    H1 2621   6.810   3.772   2.286
  888TIP3    H2 2622   6.749   3.690   2.397
  889TIP3   OH2 2623   6.603   4.264   2.159
  889TIP3    H1 2624   6.600   4.334   2.224
  889TIP3    H2 2625   6.526   4.210   2.178
  890TIP3   OH2 2626   4.419   4.628   4.892
  890TIP3    H1 2627   4.368   4.628   4.973
  890TIP3    H2 2628   4.389   4.706   4.845
  891TIP3   OH2 2629   1.286   3.281   2.687
  891TIP3    H1 2630   1.286   3.370   2.723
  891TIP3    H2 2631   1.368   3.277   2.637
  892TIP3   OH2 2632   3.598   6.911   1.828
  892TIP3    H1 2633   3.563   6.898   1.916
  892TIP3    H2 2634   3.522   6.937   1.776
  893TIP3   OH2 2635   6.489   6.403   1.677
  893TIP3    H1 2636   6.400   6.416   1.646
  893TIP3    H2 2637   6.488   6.436   1.767
  894TIP3   OH2 2638   7.007   5.619   5.014
  894TIP3    H1 2639   6.964   5.535   5.030
  894TIP3    H2 2640   7.082   5.619   5.072
  895TIP3   OH2 2641   5.251   5.382   4.252
  895TIP3    H1 2642   5.279   5.308   4.199
  895TIP3    H2 2643   5.201   5.437   4.192
  896TIP3   OH2 2644   2.105   7.606   1.929
  896TIP3    H1 2645   2.116   7.632   2.020
  896TIP3    H2 2646   2.032   7.660   1.897
  897TIP3   OH2 2647   4.675   2.657   4.680
  897TIP3    H1 2648   4.662   2.751   4.694
  897TIP3    H2 2649   4.622   2.636   4.604
  898TIP3   OH2 2650   6.034   7.163   6.328
  898TIP3    H1 2651   6.081   7.096   6.378
  898TIP3    H2 2652   6.093   7.185   6.256
  899TIP3   OH2 2653   0.880   1.809   4.314
  899TIP3    H1 2654   0.925   1.725   4.319
  899TIP3    H2 2655   0.947   1.874   4.336
  900TIP3   OH2 2656   1.517   1.353   3.060
  900TIP3    H1 2657   1.552   1.439   3.084
  900TIP3    H2 2658   1.561   1.331   2.978
  901TIP3   OH2 2659   0.360   7.545   1.960
  901TIP3    H1 2660   0.367   7.473   2.022
  901TIP3    H2 2661   0.307   7.511   1.888
  902TIP3   OH2 2662   1.493   3.363   6.604
  902TIP3    H1 2663   1.531   3.276   6.591
  902TIP3    H2 2664   1.399   3.347   6.610
  903TIP3   OH2 2665   4.504   3.304   0.631
  903TIP3    H1 2666   4.476   3.350   0.552
  903TIP3    H2 2667   4.532   3.218   0.599
  904TIP3   OH2 2668   8.149   7.675   4.317
  904TIP3    H1 2669   8.197   7.712   4.391
  904TIP3    H2 2670   8.191   7.591   4.301
  905TIP3   OH2 2671   2.062   7.793   5.419
  905TIP3    H1 2672   2.115   7.808   5.496
  905TIP3    H2 2673   2.123   7.758   5.354
  906TIP3   OH2 2674   4.468   7.800   4.159
  906TIP3    H1 2675   4.551   7.847   4.172
  906TIP3    H2 2676   4.492   7.708   4.157
  907TIP3   OH2 2677   1.405   0.714   3.960
  907TIP3    H1 2678   1.464   0.775   3.915
  907TIP3    H2 2679   1.365   0.767   4.029
  908TIP3   OH2 2680   6.351   3.037   5.105
  908TIP3    H1 2681   6.437   3.073   5.126
  908TIP3    H2 2682   6.365   2.984   5.027
  909TIP3   OH2 2683   7.076   4.512   4.915
  909TIP3    H1 2684   7.027   4.533   4.836
  909TIP3    H2 2685   7.165   4.493   4.884
  910TIP3   OH2 2686   2.424   3.823   2.029
  910TIP3    H1 2687   2.479   3.770   2.086
  910TIP3    H2 2688   2.473   3.828   1.947
  911TIP3   OH2 2689   3.296   4.579   5.495
  911TIP3    H1 2690   3.300   4.615   5.583
  911TIP3    H2 2691   3.297   4.484   5.508
  912TIP3   OH2 2692   7.030   1.771   4.212
  912TIP3    H1 2693   6.965   1.836   4.183
  912TIP3    H2 2694   7.072   1.742   4.132
  913TIP3   OH2 2695   5.252   0.077   4.922
  913TIP3    H1 2696   5.196   0.154   4.925
  913TIP3    H2 2697   5.290   0.079   4.834
  914TIP3   OH2 2698   4.253   5.836   1.901
  914TIP3    H1 2699   4.214   5.870   1.981
  914TIP3    H2 2700   4.260   5.912   1.843
  915TIP3   OH2 2701   5.057   2.178   0.156
  915TIP3    H1 2702   5.149   2.204   0.150
  915TIP3    H2 2703   5.043   2.117   0.084
  916TIP3   OH2 2704   4.779   4.059   5.055
  916TIP3    H1 2705   4.784   4.081   5.148
  916TIP3    H2 2706   4.863   4.017   5.036
  917TIP3   OH2 2707   4.833   3.338   1.426
  917TIP3    H1 2708   4.747   3.310   1.393
  917TIP3    H2 2709   4.813   3.396   1.499
  918TIP3   OH2 2710   4.308   6.495   3.456
  918TIP3    H1 2711   4.338   6.582   3.483
  918TIP3    H2 2712   4.303   6.445   3.537
  919TIP3   OH2 2713   7.154   6.828   6.498
  919TIP3    H1 2714   7.201   6.901   6.456
  919TIP3    H2 2715   7.073   6.820   6.447
  920TIP3   OH2 2716   2.292   3.102   2.952
  920TIP3    H1 2717   2.300   3.088   3.046
  920TIP3    H2 2718   2.249   3.187   2.944
  921TIP3   OH2 2719   5.843   4.541   6.213
  921TIP3    H1 2720   5.846   4.587   6.129
  921TIP3    H2 2721   5.751   4.523   6.228
  922TIP3   OH2 2722   5.700   6.631   3.199
  922TIP3    H1 2723   5.774   6.605   3.144
  922TIP3    H2 2724   5.700   6.727   3.195
  923TIP3   OH2 2725   4.742   4.614   1.495
  923TIP3    H1 2726   4.712   4.702   1.474
  923TIP3    H2 2727   4.765   4.576   1.410
  924TIP3   OH2 2728   0.449   3.281   5.105
  924TIP3    H1 2729   0.520   3.345   5.108
  924TIP3    H2 2730   0.455   3.242   5.018
  925TIP3   OH2 2731   5.276   6.227   1.045
  925TIP3    H1 2732   5.261   6.295   0.979
  925TIP3    H2 2733   5.282   6.146   0.995
  926TIP3   OH2 2734   7.803   1.271   6.483
  926TIP3    H1 2735   7.893   1.295   6.461
  926TIP3    H2 2736   7.749   1.334   6.435
  927TIP3   OH2 2737   5.490   0.954   5.749
  927TIP3    H1 2738   5.444   0.871   5.761
  927TIP3    H2 2739   5.582   0.934   5.770
  928TIP3   OH2 2740   7.373   5.784   0.180
  928TIP3    H1 2741   7.363   5.785   0.085
  928TIP3    H2 2742   7.457   5.827   0.196
  929TIP3   OH2 2743   1.164   6.764   3.701
  929TIP3    H1 2744   1.194   6.784   3.613
  929TIP3    H2 2745   1.068   6.758   3.694
  930TIP3   OH2 2746   5.035   5.132   4.924
  930TIP3    H1 2747   5.025   5.222   4.954
  930TIP3    H2 2748   4.946   5.102   4.906
  931TIP3   OH2 2749   8.092   6.595   4.884
  931TIP3    H1 2750   8.088   6.537   4.960
  931TIP3    H2 2751   8.155   6.662   4.909
  932TIP3   OH2 2752   3.736   0.973   5.264
  932TIP3    H1 2753   3.692   1.052   5.233
  932TIP3    H2 2754   3.666   0.920   5.303
  933TIP3   OH2 2755   0.788   2.468   5.441
  933TIP3    H1 2756   0.765   2.486   5.349
  933TIP3    H2 2757   0.879   2.439   5.438
  934TIP3   OH2 2758   3.217   5.665   1.344
  934TIP3    H1 2759   3.173   5.680   1.427
  934TIP3    H2 2760   3.147   5.655   1.280
  935TIP3   OH2 2761   3.183   3.229   1.618
  935TIP3    H1 2762   3.111   3.180   1.660
  935TIP3    H2 2763   3.140   3.303   1.575
  936TIP3   OH2 2764   3.064   0.039   3.334
  936TIP3    H1 2765   3.020  -0.046   3.338
  936TIP3    H2 2766   3.017   0.087   3.266
  937TIP3   OH2 2767   1.853   7.765   5.687
  937TIP3    H1 2768   1.910   7.694   5.659
  937TIP3    H2 2769   1.913   7.839   5.703
  938TIP3   OH2 2770   4.409   4.416   6.288
  938TIP3    H1 2771   4.374   4.438   6.202
  938TIP3    H2 2772   4.504   4.416   6.276
  939TIP3   OH2 2773   5.848   7.607   1.931
  939TIP3    H1 2774   5.939   7.602   1.959
  939TIP3    H2 2775   5.802   7.542   1.985
  940TIP3   OH2 2776   3.204   0.735   2.889
  940TIP3    H1 2777   3.135   0.675   2.862
  940TIP3    H2 2778   3.179   0.819   2.851
  941TIP3   OH2 2779   5.741   5.760   2.452
  941TIP3    H1 2780   5.816   5.794   2.404
  941TIP3    H2 2781   5.683   5.836   2.462
  942TIP3   OH2 2782   1.838   4.836   2.122
  942TIP3    H1 2783   1.783   4.891   2.178
  942TIP3    H2 2784   1.828   4.748   2.157
  943TIP3   OH2 2785   2.305   4.839   6.486
  943TIP3    H1 2786   2.373   4.833   6.419
  943TIP3    H2 2787   2.232   4.884   6.443
  944TIP3   OH2 2788   5.615   7.068   1.656
  944TIP3    H1 2789   5.607   6.973   1.654
  944TIP3    H2 2790   5.677   7.086   1.727
  945TIP3   OH2 2791   5.443   4.607   5.575
  945TIP3    H1 2792   5.396   4.687   5.597
  945TIP3    H2 2793   5.428   4.549   5.650
  946TIP3   OH2 2794   3.102   6.145   5.245
  946TIP3    H1 2795   3.053   6.092   5.183
  946TIP3    H2 2796   3.178   6.091   5.269
  947TIP3   OH2 2797   1.630   3.131   1.449
  947TIP3    H1 2798   1.689   3.056   1.435
  947TIP3    H2 2799   1.682   3.191   1.503
  948TIP3   OH2 2800   7.064   3.396   5.610
  948TIP3    H1 2801   7.089   3.413   5.700
  948TIP3    H2 2802   7.133   3.339   5.575
  949TIP3   OH2 2803   8.118   0.673   2.023
  949TIP3    H1 2804   8.103   0.616   2.099
  949TIP3    H2 2805   8.033   0.674   1.978
  950TIP3   OH2 2806   0.086   2.450   4.876
  950TIP3    H1 2807   0.119   2.476   4.962
  950TIP3    H2 2808  -0.008   2.440   4.889
  951TIP3   OH2 2809   0.119   6.658   0.166
  951TIP3    H1 2810   0.195   6.715   0.157
  951TIP3    H2 2811   0.105   6.623   0.078
  952TIP3   OH2 2812   1.546   0.868   5.570
  952TIP3    H1 2813   1.603   0.935   5.607
  952TIP3    H2 2814   1.590   0.785   5.590
  953TIP3   OH2 2815   7.816   3.653   0.423
  953TIP3    H1 2816   7.742   3.623   0.476
  953TIP3    H2 2817   7.856   3.722   0.476
  954TIP3   OH2 2818   3.379   4.089   5.926
  954TIP3    H1 2819   3.396   4.070   5.834
  954TIP3    H2 2820   3.303   4.149   5.925
  955TIP3   OH2 2821   4.167   2.159   4.616
  955TIP3    H1 2822   4.144   2.066   4.610
  955TIP3    H2 2823   4.183   2.174   4.709
  956TIP3   OH2 2824   2.186   0.565   0.356
  956TIP3    H1 2825   2.205   0.476   0.327
  956TIP3    H2 2826   2.096   0.581   0.328
  957TIP3   OH2 2827   7.794   1.718   1.575
  957TIP3    H1 2828   7.849   1.789   1.541
  957TIP3    H2 2829   7.850   1.672   1.638
  958TIP3   OH2 2830   4.892   0.380   0.270
  958TIP3    H1 2831   4.813   0.435   0.269
  958TIP3    H2 2832   4.888   0.331   0.188
  959TIP3   OH2 2833   1.906   6.529   6.034
  959TIP3    H1 2834   2.001   6.517   6.032
  959TIP3    H2 2835   1.877   6.475   6.108
  960TIP3   OH2 2836   2.121   3.042   0.241
  960TIP3    H1 2837   2.154   3.117   0.291
  960TIP3    H2 2838   2.196   2.984   0.232
  961TIP3   OH2 2839   0.358   5.571   5.728
  961TIP3    H1 2840   0.435   5.614   5.690
  961TIP3    H2 2841   0.342   5.620   5.809
  962TIP3   OH2 2842   3.131   2.458   6.325
  962TIP3    H1 2843   3.086   2.522   6.269
  962TIP3    H2 2844   3.063   2.394   6.347
  963TIP3   OH2 2845   3.803   4.895   3.976
  963TIP3    H1 2846   3.869   4.905   4.045
  963TIP3    H2 2847   3.836   4.823   3.922
  964TIP3   OH2 2848   6.623   3.641   1.274
  964TIP3    H1 2849   6.553   3.582   1.301
  964TIP3    H2 2850   6.595   3.674   1.188
  965TIP3   OH2 2851   2.339   3.820   5.124
  965TIP3    H1 2852   2.304   3.908   5.136
  965TIP3    H2 2853   2.428   3.834   5.093
  966TIP3   OH2 2854   5.205   4.259   3.249
  966TIP3    H1 2855   5.253   4.220   3.322
  966TIP3    H2 2856   5.129   4.201   3.237
  967TIP3   OH2 2857   8.057   4.948   5.955
  967TIP3    H1 2858   7.968   4.914   5.946
  967TIP3    H2 2859   8.090   4.906   6.035
  968TIP3   OH2 2860   8.274   3.824   6.392
  968TIP3    H1 2861   8.340   3.758   6.414
  968TIP3    H2 2862   8.219   3.830   6.470
  969TIP3   OH2 2863   2.861   2.219   0.768
  969TIP3    H1 2864   2.819   2.277   0.832
  969TIP3    H2 2865   2.820   2.242   0.685
  970TIP3   OH2 2866   5.422   5.264   5.891
  970TIP3    H1 2867   5.466   5.229   5.968
  970TIP3    H2 2868   5.379   5.344   5.921
  971TIP3   OH2 2869   7.627   6.038   2.357
  971TIP3    H1 2870   7.667   6.115   2.398
  971TIP3    H2 2871   7.630   6.056   2.263
  972TIP3   OH2 2872   8.148   3.858   6.114
  972TIP3    H1 2873   8.074   3.917   6.098
  972TIP3    H2 2874   8.122   3.775   6.074
  973TIP3   OH2 2875   0.121   3.671   3.131
  973TIP3    H1 2876   0.044   3.643   3.181
  973TIP3    H2 2877   0.195   3.631   3.177
  974TIP3   OH2 2878   7.318   3.251   0.814
  974TIP3    H1 2879   7.357   3.295   0.890
  974TIP3    H2 2880   7.224   3.249   0.833
  975TIP3   OH2 2881   6.837   1.628   0.818
  975TIP3    H1 2882   6.909   1.672   0.863
  975TIP3    H2 2883   6.824   1.546   0.866
  976TIP3   OH2 2884   0.944   3.526   0.086
  976TIP3    H1 2885   0.924   3.552   0.176
  976TIP3    H2 2886   1.013   3.460   0.095
  977TIP3   OH2 2887   2.069   5.388   3.706
  977TIP3    H1 2888   2.104   5.462   3.656
  977TIP3    H2 2889   1.999   5.426   3.759
  978TIP3   OH2 2890   5.358   0.662   3.323
  978TIP3    H1 2891   5.291   0.731   3.316
  978TIP3    H2 2892   5.341   0.621   3.408
  979TIP3   OH2 2893   6.983   0.660   6.273
  979TIP3    H1 2894   7.003   0.689   6.362
  979TIP3    H2 2895   6.986   0.565   6.278
  980TIP3   OH2 2896   4.564   2.279   5.350
  980TIP3    H1 2897   4.599   2.252   5.265
  980TIP3    H2 2898   4.620   2.234   5.413
  981TIP3   OH2 2899   5.318   2.656   5.597
  981TIP3    H1 2900   5.269   2.707   5.532
  981TIP3    H2 2901   5.410   2.672   5.576
  982TIP3   OH2 2902   1.373   7.067   1.310
  982TIP3    H1 2903   1.468   7.065   1.324
  982TIP3    H2 2904   1.336   7.052   1.396
  983TIP3   OH2 2905   1.378   1.247   0.739
  983TIP3    H1 2906   1.391   1.323   0.796
  983TIP3    H2 2907   1.416   1.272   0.655
  984TIP3   OH2 2908   5.132   7.548   6.167
  984TIP3    H1 2909   5.106   7.479   6.228
  984TIP3    H2 2910   5.140   7.504   6.083
  985TIP3   OH2 2911   1.739   1.429   6.391
  985TIP3    H1 2912   1.835   1.435   6.386
  985TIP3    H2 2913   1.714   1.500   6.450
  986TIP3   OH2 2914   2.072   5.126   6.591
  986TIP3    H1 2915   2.129   5.188   6.637
  986TIP3    H2 2916   2.100   5.040   6.623
  987TIP3   OH2 2917   0.947   7.371   0.172
  987TIP3    H1 2918   0.888   7.392   0.100
  987TIP3    H2 2919   1.032   7.361   0.131
  988TIP3   OH2 2920   7.415   3.950   2.270
  988TIP3    H1 2921   7.395   3.986   2.357
  988TIP3    H2 2922   7.359   3.873   2.262
  989TIP3   OH2 2923   1.519   4.684   2.493
  989TIP3    H1 2924   1.502   4.713   2.403
  989TIP3    H2 2925   1.605   4.721   2.514
  990TIP3   OH2 2926   8.179   5.973   4.286
  990TIP3    H1 2927   8.161   5.943   4.375
  990TIP3    H2 2928   8.251   5.918   4.256
  991TIP3   OH2 2929   7.704   0.274   0.291
  991TIP3    H1 2930   7.653   0.209   0.242
  991TIP3    H2 2931   7.644   0.304   0.359
  992TIP3   OH2 2932   0.041   4.139   5.832
  992TIP3    H1 2933   0.002   4.054   5.812
  992TIP3    H2 2934   0.103   4.154   5.762
  993TIP3   OH2 2935   2.437   2.133   5.542
  993TIP3    H1 2936   2.377   2.208   5.538
  993TIP3    H2 2937   2.511   2.159   5.485
  994TIP3   OH2 2938   2.976   2.066   5.248
  994TIP3    H1 2939   3.019   1.983   5.228
  994TIP3    H2 2940   3.047   2.124   5.274
  995TIP3   OH2 2941   5.040   7.361   1.230
  995TIP3    H1 2942   5.077   7.294   1.172
  995TIP3    H2 2943   4.970   7.401   1.178
  996TIP3   OH2 2944   3.245   3.335   5.124
  996TIP3    H1 2945   3.227   3.284   5.204
  996TIP3    H2 2946   3.178   3.403   5.125
  997TIP3   OH2 2947   1.422   7.400   2.974
  997TIP3    H1 2948   1.444   7.422   2.884
  997TIP3    H2 2949   1.335   7.438   2.987
  998TIP3   OH2 2950   6.380   5.791   4.211
  998TIP3    H1 2951   6.361   5.697   4.211
  998TIP3    H2 2952   6.314   5.829   4.268
  999TIP3   OH2 2953   5.569   1.307   1.656
  999TIP3    H1 2954   5.623   1.243   1.609
  999TIP3    H2 2955   5.620   1.330   1.733
 1000TIP3   OH2 2956   1.536   5.160   1.158
 1000TIP3    H1 2957   1.608   5.166   1.096
 1000TIP3    H2 2958   1.547   5.075   1.201
 1001TIP3   OH2 2959   6.515   6.367   1.064
 1001TIP3    H1 2960   6.525   6.328   1.151
 1001TIP3    H2 2961   6.602   6.402   1.044
 1002TIP3   OH2 2962   6.334   6.426   3.433
 1002TIP3    H1 2963   6.369   6.457   3.517
 1002TIP3    H2 2964   6.241   6.448   3.436
 1003TIP3   OH2 2965   6.792   7.195   5.767
 1003TIP3    H1 2966   6.883   7.224   5.768
 1003TIP3    H2 2967   6.754   7.230   5.848
 1004TIP3   OH2 2968   1.602   0.568   1.555
 1004TIP3    H1 2969   1.516   0.563   1.513
 1004TIP3    H2 2970   1.592   0.520   1.637
 1005TIP3   OH2 2971   4.998   2.596   6.010
 1005TIP3    H1 2972   4.958   2.654   5.945
 1005TIP3    H2 2973   4.967   2.630   6.094
 1006TIP3   OH2 2974   4.724   4.103   5.351
 1006TIP3    H1 2975   4.799   4.057   5.388
 1006TIP3    H2 2976   4.750   4.195   5.349
 1007TIP3   OH2 2977   0.102   7.208   4.473
 1007TIP3    H1 2978   0.038   7.156   4.425
 1007TIP3    H2 2979   0.134   7.272   4.409
 1008TIP3   OH2 2980   0.873   3.281   2.837
 1008TIP3    H1 2981   0.936   3.228   2.789
 1008TIP3    H2 2982   0.821   3.218   2.887
 1009TIP3   OH2 2983   0.836   0.016   2.749
 1009TIP3    H1 2984   0.858   0.093   2.697
 1009TIP3    H2 2985   0.895  -0.052   2.717
 1010TIP3   OH2 2986   0.174   1.357   2.255
 1010TIP3    H1 2987   0.147   1.346   2.164
 1010TIP3    H2 2988   0.135   1.283   2.301
 1011TIP3   OH2 2989   3.934   6.793   3.613
 1011TIP3    H1 2990   3.917   6.839   3.531
 1011TIP3    H2 2991   4.001   6.845   3.657
 1012TIP3   OH2 2992   6.509   3.090   5.563
 1012TIP3    H1 2993   6.586   3.147   5.555
 1012TIP3    H2 2994   6.436   3.144   5.532
 1013TIP3   OH2 2995   5.984   6.746   2.602
 1013TIP3    H1 2996   5.974   6.651   2.608
 1013TIP3    H2 2997   5.899   6.780   2.631
 1014TIP3   OH2 2998   1.366   6.231   2.398
 1014TIP3    H1 2999   1.415   6.160   2.356
 1014TIP3    H2 3000   1.344   6.198   2.485
 1015TIP3   OH2 3001   7.316   7.009   6.038
 1015TIP3    H1 3002   7.393   7.044   6.083
 1015TIP3    H2 3003   7.272   6.955   6.103
 1016TIP3   OH2 3004   2.867   7.535   0.239
 1016TIP3    H1 3005   2.790   7.591   0.254
 1016TIP3    H2 3006   2.834   7.461   0.188
 1017TIP3   OH2 3007   0.945   0.959   6.343
 1017TIP3    H1 3008   1.008   0.938   6.275
 1017TIP3    H2 3009   0.910   0.875   6.372
 1018TIP3   OH2 3010   4.430   6.700   0.796
 1018TIP3    H1 3011   4.359   6.664   0.849
 1018TIP3    H2 3012   4.505   6.701   0.855
 1019TIP3   OH2 3013   4.812   7.536   4.029
 1019TIP3    H1 3014   4.879   7.563   4.091
 1019TIP3    H2 3015   4.750   7.609   4.027
 1020TIP3   OH2 3016   1.777   2.744   3.590
 1020TIP3    H1 3017   1.795   2.705   3.676
 1020TIP3    H2 3018   1.852   2.721   3.536
 1021TIP3   OH2 3019   2.698   5.379   2.022
 1021TIP3    H1 3020   2.612   5.380   2.063
 1021TIP3    H2 3021   2.736   5.464   2.043
 1022TIP3   OH2 3022   4.105   3.630   4.327
 1022TIP3    H1 3023   4.157   3.660   4.401
 1022TIP3    H2 3024   4.170   3.609   4.260
 1023TIP3   OH2 3025   4.552   2.109   3.943
 1023TIP3    H1 3026   4.581   2.199   3.959
 1023TIP3    H2 3027   4.590   2.086   3.859
 1024TIP3   OH2 3028   1.659   2.408   6.602
 1024TIP3    H1 3029   1.752   2.432   6.605
 1024TIP3    H2 3030   1.653   2.329   6.656
 1025TIP3   OH2 3031   2.235   6.709   3.224
 1025TIP3    H1 3032   2.322   6.675   3.245
 1025TIP3    H2 3033   2.226   6.788   3.276
 1026TIP3   OH2 3034   0.435   2.567   2.808
 1026TIP3    H1 3035   0.392   2.648   2.836
 1026TIP3    H2 3036   0.368   2.522   2.756
 1027TIP3   OH2 3037   1.582   7.143   4.152
 1027TIP3    H1 3038   1.653   7.143   4.216
 1027TIP3    H2 3039   1.593   7.225   4.104
 1028TIP3   OH2 3040   6.241   5.895   1.523
 1028TIP3    H1 3041   6.225   5.853   1.607
 1028TIP3    H2 3042   6.282   5.978   1.545
 1029TIP3   OH2 3043   4.320   3.899   1.311
 1029TIP3    H1 3044   4.394   3.948   1.347
 1029TIP3    H2 3045   4.315   3.820   1.365
 1030TIP3   OH2 3046   4.198   6.338   4.685
 1030TIP3    H1 3047   4.224   6.333   4.777
 1030TIP3    H2 3048   4.119   6.392   4.686
 1031TIP3   OH2 3049   0.668   4.495   6.207
 1031TIP3    H1 3050   0.606   4.422   6.196
 1031TIP3    H2 3051   0.629   4.548   6.277
 1032TIP3   OH2 3052   0.862   7.204   2.346
 1032TIP3    H1 3053   0.773   7.237   2.330
 1032TIP3    H2 3054   0.919   7.275   2.317
 1033TIP3   OH2 3055   1.640   6.624   6.020
 1033TIP3    H1 3056   1.686   6.552   6.061
 1033TIP3    H2 3057   1.642   6.694   6.085
 1034TIP3   OH2 3058   7.317   5.481   4.909
 1034TIP3    H1 3059   7.257   5.452   4.979
 1034TIP3    H2 3060   7.261   5.533   4.851
 1035TIP3   OH2 3061   3.754   3.309   6.244
 1035TIP3    H1 3062   3.813   3.237   6.266
 1035TIP3    H2 3063   3.770   3.375   6.311
 1036TIP3   OH2 3064   4.189   6.740   4.686
 1036TIP3    H1 3065   4.255   6.674   4.708
 1036TIP3    H2 3066   4.213   6.769   4.598
 1037TIP3   OH2 3067   7.431   6.408   2.366
 1037TIP3    H1 3068   7.453   6.466   2.293
 1037TIP3    H2 3069   7.404   6.326   2.324
 1038TIP3   OH2 3070   1.011   4.179   4.747
 1038TIP3    H1 3071   0.943   4.230   4.793
 1038TIP3    H2 3072   1.066   4.245   4.705
 1039TIP3   OH2 3073   2.252   7.776   4.391
 1039TIP3    H1 3074   2.294   7.752   4.473
 1039TIP3    H2 3075   2.186   7.708   4.377
 1040TIP3   OH2 3076   4.575   6.385   2.483
 1040TIP3    H1 3077   4.501   6.393   2.543
 1040TIP3    H2 3078   4.603   6.475   2.467
 1041TIP3   OH2 3079   2.617   3.604   4.882
 1041TIP3    H1 3080   2.676   3.665   4.838
 1041TIP3    H2 3081   2.586   3.651   4.959
 1042TIP3   OH2 3082   4.033   4.985   5.075
 1042TIP3    H1 3083   3.944   4.998   5.042
 1042TIP3    H2 3084   4.089   5.024   5.008
 1043TIP3   OH2 3085   1.188   6.090   3.446
 1043TIP3    H1 3086   1.245   6.057   3.516
 1043TIP3    H2 3087   1.173   6.182   3.468
 1044TIP3   OH2 3088   4.794   6.173   2.176
 1044TIP3    H1 3089   4.864   6.173   2.110
 1044TIP3    H2 3090   4.840   6.173   2.260
 1045TIP3   OH2 3091   0.738   7.253   3.893
 1045TIP3    H1 3092   0.768   7.330   3.942
 1045TIP3    H2 3093   0.730   7.184   3.958
 1046TIP3   OH2 3094   1.173   3.753   4.769
 1046TIP3    H1 3095   1.107   3.805   4.814
 1046TIP3    H2 3096   1.194   3.805   4.691
 1047TIP3   OH2 3097   8.167   4.050   0.576
 1047TIP3    H1 3098   8.188   4.125   0.520
 1047TIP3    H2 3099   8.080   4.023   0.547
 1048TIP3   OH2 3100   3.293   7.484   3.306
 1048TIP3    H1 3101   3.288   7.553   3.371
 1048TIP3    H2 3102   3.386   7.477   3.285
 1049TIP3   OH2 3103   8.000   7.437   0.974
 1049TIP3    H1 3104   7.977   7.346   0.991
 1049TIP3    H2 3105   8.091   7.445   1.002
 1050TIP3   OH2 3106   3.925   2.165   6.006
 1050TIP3    H1 3107   3.980   2.244   6.012
 1050TIP3    H2 3108   3.986   2.096   5.981
 1051TIP3   OH2 3109   5.553   7.481   4.570
 1051TIP3    H1 3110   5.607   7.540   4.518
 1051TIP3    H2 3111   5.604   7.400   4.577
 1052TIP3   OH2 3112   2.549   7.254   4.043
 1052TIP3    H1 3113   2.504   7.170   4.048
 1052TIP3    H2 3114   2.565   7.268   3.950
 1053TIP3   OH2 3115   2.601   4.153   3.831
 1053TIP3    H1 3116   2.512   4.175   3.859
 1053TIP3    H2 3117   2.654   4.163   3.910
 1054TIP3   OH2 3118   5.079   5.696   3.165
 1054TIP3    H1 3119   5.027   5.621   3.195
 1054TIP3    H2 3120   5.028   5.773   3.190
 1055TIP3   OH2 3121   1.708   2.104   3.212
 1055TIP3    H1 3122   1.680   2.084   3.122
 1055TIP3    H2 3123   1.638   2.160   3.245
 1056TIP3   OH2 3124   2.040   6.049   3.183
 1056TIP3    H1 3125   2.054   5.987   3.112
 1056TIP3    H2 3126   2.094   6.016   3.254
 1057TIP3   OH2 3127   2.689   5.013   6.684
 1057TIP3    H1 3128   2.634   5.062   6.623
 1057TIP3    H2 3129   2.725   4.941   6.632
 1058TIP3   OH2 3130   3.985   5.564   6.214
 1058TIP3    H1 3131   3.986   5.622   6.290
 1058TIP3    H2 3132   3.912   5.594   6.160
 1059TIP3   OH2 3133   7.954   1.348   0.631
 1059TIP3    H1 3134   7.993   1.433   0.610
 1059TIP3    H2 3135   7.864   1.355   0.599
 1060TIP3   OH2 3136   0.040   0.712   0.403
 1060TIP3    H1 3137   0.000   0.708   0.316
 1060TIP3    H2 3138   0.018   0.800   0.435
 1061TIP3   OH2 3139   7.976   5.160   1.389
 1061TIP3    H1 3140   8.066   5.157   1.355
 1061TIP3    H2 3141   7.984   5.202   1.474
 1062TIP3   OH2 3142   0.379   4.232   0.169
 1062TIP3    H1 3143   0.363   4.155   0.115
 1062TIP3    H2 3144   0.341   4.305   0.119
 1063TIP3   OH2 3145   6.614   3.225   1.517
 1063TIP3    H1 3146   6.541   3.182   1.561
 1063TIP3    H2 3147   6.690   3.171   1.539
 1064TIP3   OH2 3148   7.956   2.574   3.824
 1064TIP3    H1 3149   7.880   2.532   3.865
 1064TIP3    H2 3150   7.924   2.660   3.798
 1065TIP3   OH2 3151   0.420   0.892   1.727
 1065TIP3    H1 3152   0.385   0.912   1.641
 1065TIP3    H2 3153   0.383   0.807   1.749
 1066TIP3   OH2 3154   6.789   6.571   5.675
 1066TIP3    H1 3155   6.699   6.599   5.660
 1066TIP3    H2 3156   6.842   6.626   5.617
 1067TIP3   OH2 3157   5.004   1.064   5.993
 1067TIP3    H1 3158   5.054   1.029   6.068
 1067TIP3    H2 3159   5.039   1.152   5.980
 1068TIP3   OH2 3160   3.720   4.781   3.127
 1068TIP3    H1 3161   3.704   4.690   3.150
 1068TIP3    H2 3162   3.732   4.825   3.212
 1069TIP3   OH2 3163   4.680   5.963   3.385
 1069TIP3    H1 3164   4.678   5.874   3.422
 1069TIP3    H2 3165   4.592   5.976   3.351
 1070TIP3   OH2 3166   0.423   3.084   3.781
 1070TIP3    H1 3167   0.484   3.096   3.854
 1070TIP3    H2 3168   0.394   3.172   3.759
 1071TIP3   OH2 3169   6.288   5.378   4.705
 1071TIP3    H1 3170   6.351   5.306   4.700
 1071TIP3    H2 3171   6.269   5.387   4.798
 1072TIP3   OH2 3172   1.813   4.146   4.444
 1072TIP3    H1 3173   1.832   4.075   4.383
 1072TIP3    H2 3174   1.825   4.226   4.393
 1073TIP3   OH2 3175   3.886   5.897   0.611
 1073TIP3    H1 3176   3.824   5.964   0.582
 1073TIP3    H2 3177   3.837   5.844   0.673
 1074TIP3   OH2 3178   4.144   2.563   4.305
 1074TIP3    H1 3179   4.106   2.485   4.346
 1074TIP3    H2 3180   4.090   2.578   4.228
 1075TIP3   OH2 3181   0.013   2.271   6.692
 1075TIP3    H1 3182   0.030   2.291   6.784
 1075TIP3    H2 3183   0.075   2.202   6.670
 1076TIP3   OH2 3184   1.360   2.176   2.180
 1076TIP3    H1 3185   1.375   2.182   2.275
 1076TIP3    H2 3186   1.446   2.187   2.141
 1077TIP3   OH2 3187   5.289   1.305   2.441
 1077TIP3    H1 3188   5.364   1.358   2.466
 1077TIP3    H2 3189   5.214   1.348   2.483
 1078TIP3   OH2 3190   2.749   2.217   2.446
 1078TIP3    H1 3191   2.785   2.247   2.363
 1078TIP3    H2 3192   2.667   2.174   2.423
 1079TIP3   OH2 3193   5.508   3.411   4.412
 1079TIP3    H1 3194   5.528   3.498   4.448
 1079TIP3    H2 3195   5.532   3.350   4.482
 1080TIP3   OH2 3196   4.348   4.658   1.092
 1080TIP3    H1 3197   4.443   4.648   1.092
 1080TIP3    H2 3198   4.320   4.614   1.012
 1081TIP3   OH2 3199   5.029   2.915   6.036
 1081TIP3    H1 3200   4.989   2.871   6.112
 1081TIP3    H2 3201   4.978   2.883   5.962
 1082TIP3   OH2 3202   0.196   1.056   0.332
 1082TIP3    H1 3203   0.282   1.017   0.313
 1082TIP3    H2 3204   0.134   1.003   0.282
 1083TIP3   OH2 3205   7.509   4.860   2.171
 1083TIP3    H1 3206   7.545   4.925   2.111
 1083TIP3    H2 3207   7.420   4.845   2.139
 1084TIP3   OH2 3208   0.967   2.332   3.128
 1084TIP3    H1 3209   0.918   2.359   3.206
 1084TIP3    H2 3210   0.946   2.239   3.117
 1085TIP3   OH2 3211   2.805   1.183   4.292
 1085TIP3    H1 3212   2.765   1.260   4.333
 1085TIP3    H2 3213   2.884   1.167   4.343
 1086TIP3   OH2 3214   1.356   7.352   1.420
 1086TIP3    H1 3215   1.413   7.327   1.348
 1086TIP3    H2 3216   1.395   7.310   1.497
 1087TIP3   OH2 3217   7.876   4.348   4.233
 1087TIP3    H1 3218   7.922   4.431   4.223
 1087TIP3    H2 3219   7.797   4.357   4.181
 1088TIP3   OH2 3220   2.241   3.617   4.429
 1088TIP3    H1 3221   2.205   3.613   4.517
 1088TIP3    H2 3222   2.307   3.686   4.432
 1089TIP3   OH2 3223   2.270   2.454   0.186
 1089TIP3    H1 3224   2.277   2.378   0.244
 1089TIP3    H2 3225   2.176   2.463   0.170
 1090TIP3   OH2 3226   1.388   0.283   2.069
 1090TIP3    H1 3227   1.374   0.290   2.163
 1090TIP3    H2 3228   1.408   0.372   2.041
 1091TIP3   OH2 3229   2.699   0.156   1.150
 1091TIP3    H1 3230   2.696   0.167   1.055
 1091TIP3    H2 3231   2.673   0.240   1.185
 1092TIP3   OH2 3232   6.099   3.983   3.660
 1092TIP3    H1 3233   6.033   3.973   3.728
 1092TIP3    H2 3234   6.173   4.026   3.703
 1093TIP3   OH2 3235   6.480   5.730   5.152
 1093TIP3    H1 3236   6.443   5.732   5.241
 1093TIP3    H2 3237   6.515   5.642   5.142
 1094TIP3   OH2 3238   6.523   5.024   1.552
 1094TIP3    H1 3239   6.617   5.022   1.568
 1094TIP3    H2 3240   6.504   5.115   1.530
 1095TIP3   OH2 3241   5.268   3.067   6.304
 1095TIP3    H1 3242   5.345   3.014   6.324
 1095TIP3    H2 3243   5.215   3.063   6.383
 1096TIP3   OH2 3244   4.373   5.613   3.959
 1096TIP3    H1 3245   4.458   5.654   3.945
 1096TIP3    H2 3246   4.309   5.683   3.942
 1097TIP3   OH2 3247   2.348   4.760   0.726
 1097TIP3    H1 3248   2.330   4.835   0.782
 1097TIP3    H2 3249   2.301   4.779   0.644
 1098TIP3   OH2 3250   6.413   3.370   2.952
 1098TIP3    H1 3251   6.379   3.379   3.040
 1098TIP3    H2 3252   6.381   3.448   2.906
 1099TIP3   OH2 3253   0.719   0.021   0.515
 1099TIP3    H1 3254   0.727   0.116   0.515
 1099TIP3    H2 3255   0.802  -0.010   0.477
 1100TIP3   OH2 3256   7.994   7.190   6.638
 1100TIP3    H1 3257   8.030   7.278   6.632
 1100TIP3    H2 3258   8.051   7.145   6.700
 1101TIP3   OH2 3259   4.844   4.559   3.427
 1101TIP3    H1 3260   4.844   4.627   3.493
 1101TIP3    H2 3261   4.809   4.482   3.472
 1102TIP3   OH2 3262   6.039   5.908   1.941
 1102TIP3    H1 3263   5.979   5.982   1.946
 1102TIP3    H2 3264   6.018   5.855   2.018
 1103TIP3   OH2 3265   5.386   1.722   2.599
 1103TIP3    H1 3266   5.408   1.770   2.679
 1103TIP3    H2 3267   5.302   1.758   2.572
 1104TIP3   OH2 3268   7.112   6.470   2.707
 1104TIP3    H1 3269   7.044   6.490   2.642
 1104TIP3    H2 3270   7.108   6.543   2.769
 1105TIP3   OH2 3271   0.192   1.028   4.164
 1105TIP3    H1 3272   0.264   1.091   4.165
 1105TIP3    H2 3273   0.187   0.999   4.072
 1106TIP3   OH2 3274   8.115   6.239   3.236
 1106TIP3    H1 3275   8.162   6.257   3.155
 1106TIP3    H2 3276   8.174   6.183   3.287
 1107TIP3   OH2 3277   5.346   5.437   5.441
 1107TIP3    H1 3278   5.373   5.429   5.349
 1107TIP3    H2 3279   5.399   5.508   5.476
 1108TIP3   OH2 3280   6.947   0.336   0.802
 1108TIP3    H1 3281   7.003   0.274   0.756
 1108TIP3    H2 3282   6.876   0.355   0.740
 1109TIP3   OH2 3283   8.091   0.745   0.233
 1109TIP3    H1 3284   8.035   0.770   0.160
 1109TIP3    H2 3285   8.041   0.769   0.312
 1110TIP3   OH2 3286   5.136   0.351   4.172
 1110TIP3    H1 3287   5.150   0.257   4.183
 1110TIP3    H2 3288   5.207   0.379   4.114
 1111TIP3   OH2 3289   7.814   5.244   2.025
 1111TIP3    H1 3290   7.905   5.240   1.996
 1111TIP3    H2 3291   7.775   5.314   1.972
 1112TIP3   OH2 3292   7.053   7.224   5.239
 1112TIP3    H1 3293   7.048   7.224   5.143
 1112TIP3    H2 3294   6.963   7.214   5.268
 1113TIP3   OH2 3295   5.347   6.093   0.284
 1113TIP3    H1 3296   5.321   6.089   0.376
 1113TIP3    H2 3297   5.344   6.186   0.262
 1114TIP3   OH2 3298   0.136   1.580   3.093
 1114TIP3    H1 3299   0.221   1.574   3.050
 1114TIP3    H2 3300   0.083   1.512   3.052
 1115TIP3   OH2 3301   4.593   0.853   0.446
 1115TIP3    H1 3302   4.520   0.818   0.394
 1115TIP3    H2 3303   4.562   0.848   0.536
 1116TIP3   OH2 3304   8.065   0.880   1.719
 1116TIP3    H1 3305   7.989   0.937   1.721
 1116TIP3    H2 3306   8.129   0.926   1.664
 1117TIP3   OH2 3307   1.097   7.547   0.669
 1117TIP3    H1 3308   1.124   7.546   0.577
 1117TIP3    H2 3309   1.069   7.457   0.686
 1118TIP3   OH2 3310   3.058   1.783   3.844
 1118TIP3    H1 3311   3.098   1.843   3.907
 1118TIP3    H2 3312   3.127   1.766   3.780
 1119TIP3   OH2 3313   6.421   1.958   2.850
 1119TIP3    H1 3314   6.466   1.891   2.902
 1119TIP3    H2 3315   6.330   1.953   2.877
 1120TIP3   OH2 3316   4.649   6.405   0.828
 1120TIP3    H1 3317   4.611   6.318   0.817
 1120TIP3    H2 3318   4.617   6.435   0.913
 1121TIP3   OH2 3319   7.328   6.107   5.413
 1121TIP3    H1 3320   7.396   6.166   5.379
 1121TIP3    H2 3321   7.274   6.162   5.470
 1122TIP3   OH2 3322   1.161   5.955   4.953
 1122TIP3    H1 3323   1.072   5.918   4.957
 1122TIP3    H2 3324   1.153   6.039   4.997
 1123TIP3   OH2 3325   5.858   3.454   5.525
 1123TIP3    H1 3326   5.851   3.511   5.602
 1123TIP3    H2 3327   5.943   3.477   5.487
 1124TIP3   OH2 3328   1.980   3.162   1.648
 1124TIP3    H1 3329   1.911   3.165   1.714
 1124TIP3    H2 3330   1.972   3.075   1.609
 1125TIP3   OH2 3331   5.129   5.157   0.517
 1125TIP3    H1 3332   5.083   5.142   0.435
 1125TIP3    H2 3333   5.221   5.170   0.492
 1126TIP3   OH2 3334   1.627   2.180   2.656
 1126TIP3    H1 3335   1.675   2.182   2.573
 1126TIP3    H2 3336   1.689   2.143   2.719
 1127TIP3   OH2 3337   0.365   5.733   2.105
 1127TIP3    H1 3338   0.305   5.787   2.156
 1127TIP3    H2 3339   0.451   5.773   2.118
 1128TIP3   OH2 3340   6.636   4.798   6.016
 1128TIP3    H1 3341   6.684   4.876   5.989
 1128TIP3    H2 3342   6.557   4.799   5.963
 1129TIP3   OH2 3343   6.891   1.142   4.219
 1129TIP3    H1 3344   6.861   1.182   4.137
 1129TIP3    H2 3345   6.876   1.049   4.207
 1130TIP3   OH2 3346   4.537   2.060   2.228
 1130TIP3    H1 3347   4.517   2.032   2.139
 1130TIP3    H2 3348   4.452   2.085   2.265
 1131TIP3   OH2 3349   0.506   4.248   5.899
 1131TIP3    H1 3350   0.470   4.293   5.823
 1131TIP3    H2 3351   0.514   4.157   5.872
 1132TIP3   OH2 3352   3.581   7.617   0.500
 1132TIP3    H1 3353   3.537   7.564   0.566
 1132TIP3    H2 3354   3.588   7.560   0.423
 1133TIP3   OH2 3355   4.535   6.266   2.232
 1133TIP3    H1 3356   4.544   6.300   2.321
 1133TIP3    H2 3357   4.616   6.219   2.215
 1134TIP3   OH2 3358   5.541   2.411   4.340
 1134TIP3    H1 3359   5.613   2.442   4.285
 1134TIP3    H2 3360   5.462   2.450   4.301
 1135TIP3   OH2 3361   0.431   5.138   0.089
 1135TIP3    H1 3362   0.350   5.133   0.039
 1135TIP3    H2 3363   0.460   5.228   0.080
 1136TIP3   OH2 3364   7.031   2.454   0.067
 1136TIP3    H1 3365   7.095   2.500   0.011
 1136TIP3    H2 3366   7.031   2.504   0.149
 1137TIP3   OH2 3367   6.690   5.615   0.724
 1137TIP3    H1 3368   6.700   5.551   0.794
 1137TIP3    H2 3369   6.751   5.685   0.747
 1138TIP3   OH2 3370   3.479   7.630   5.348
 1138TIP3    H1 3371   3.415   7.690   5.311
 1138TIP3    H2 3372   3.558   7.682   5.358
 1139TIP3   OH2 3373   3.733   7.414   5.867
 1139TIP3    H1 3374   3.766   7.480   5.806
 1139TIP3    H2 3375   3.680   7.464   5.929
 1140TIP3   OH2 3376   6.867   4.005   6.245
 1140TIP3    H1 3377   6.782   4.015   6.202
 1140TIP3    H2 3378   6.847   4.016   6.339
 1141TIP3   OH2 3379   4.419   7.729   1.898
 1141TIP3    H1 3380   4.483   7.752   1.965
 1141TIP3    H2 3381   4.445   7.779   1.821
 1142TIP3   OH2 3382   1.225   5.694   1.410
 1142TIP3    H1 3383   1.199   5.651   1.492
 1142TIP3    H2 3384   1.320   5.690   1.409
 1143TIP3   OH2 3385   1.602   6.881   0.947
 1143TIP3    H1 3386   1.619   6.878   0.853
 1143TIP3    H2 3387   1.688   6.897   0.987
 1144TIP3   OH2 3388   0.509   3.882   3.616
 1144TIP3    H1 3389   0.501   3.940   3.692
 1144TIP3    H2 3390   0.422   3.882   3.577
 1145TIP3   OH2 3391   4.076   1.596   2.884
 1145TIP3    H1 3392   4.131   1.554   2.818
 1145TIP3    H2 3393   4.109   1.685   2.891
 1146TIP3   OH2 3394   1.757   2.797   0.134
 1146TIP3    H1 3395   1.790   2.810   0.223
 1146TIP3    H2 3396   1.834   2.799   0.079
 1147TIP3   OH2 3397   3.999   0.649   2.452
 1147TIP3    H1 3398   3.941   0.573   2.449
 1147TIP3    H2 3399   4.059   0.636   2.379
 1148TIP3   OH2 3400   2.836   1.240   3.316
 1148TIP3    H1 3401   2.769   1.287   3.267
 1148TIP3    H2 3402   2.804   1.241   3.407
 1149TIP3   OH2 3403   2.478   2.875   5.809
 1149TIP3    H1 3404   2.533   2.801   5.782
 1149TIP3    H2 3405   2.537   2.950   5.811
 1150TIP3   OH2 3406   3.475   0.144   1.206
 1150TIP3    H1 3407   3.518   0.066   1.240
 1150TIP3    H2 3408   3.505   0.215   1.263
 1151TIP3   OH2 3409   8.106   0.847   2.358
 1151TIP3    H1 3410   8.104   0.764   2.405
 1151TIP3    H2 3411   8.192   0.849   2.317
 1152TIP3   OH2 3412   3.738   0.093   1.897
 1152TIP3    H1 3413   3.757   0.030   1.828
 1152TIP3    H2 3414   3.792   0.169   1.877
 1153TIP3   OH2 3415   5.967   2.744   5.186
 1153TIP3    H1 3416   5.941   2.765   5.276
 1153TIP3    H2 3417   5.916   2.666   5.164
 1154TIP3   OH2 3418   7.468   4.622   4.038
 1154TIP3    H1 3419   7.415   4.572   3.977
 1154TIP3    H2 3420   7.495   4.700   3.989
 1155TIP3   OH2 3421   2.597   2.016   6.227
 1155TIP3    H1 3422   2.643   2.034   6.309
 1155TIP3    H2 3423   2.665   2.020   6.160
 1156TIP3   OH2 3424   2.569   5.269   5.396
 1156TIP3    H1 3425   2.594   5.331   5.464
 1156TIP3    H2 3426   2.554   5.322   5.319
 1157TIP3   OH2 3427   7.418   2.310   4.383
 1157TIP3    H1 3428   7.435   2.379   4.319
 1157TIP3    H2 3429   7.504   2.282   4.412
 1158TIP3   OH2 3430   3.313   1.957   3.717
 1158TIP3    H1 3431   3.278   1.985   3.632
 1158TIP3    H2 3432   3.327   1.863   3.707
 1159TIP3   OH2 3433   6.504   2.324   6.356
 1159TIP3    H1 3434   6.521   2.315   6.450
 1159TIP3    H2 3435   6.578   2.373   6.323
 1160TIP3   OH2 3436   4.345   2.756   2.858
 1160TIP3    H1 3437   4.357   2.690   2.927
 1160TIP3    H2 3438   4.250   2.766   2.851
 1161TIP3   OH2 3439   7.342   6.595   2.556
 1161TIP3    H1 3440   7.250   6.573   2.566
 1161TIP3    H2 3441   7.380   6.521   2.510
 1162TIP3   OH2 3442   4.377   1.339   4.707
 1162TIP3    H1 3443   4.451   1.283   4.729
 1162TIP3    H2 3444   4.310   1.318   4.772
 1163TIP3   OH2 3445   6.565   3.685   5.228
 1163TIP3    H1 3446   6.600   3.732   5.153
 1163TIP3    H2 3447   6.493   3.740   5.260
 1164TIP3   OH2 3448   6.245   6.467   2.832
 1164TIP3    H1 3449   6.298   6.417   2.894
 1164TIP3    H2 3450   6.248   6.556   2.865
 1165TIP3   OH2 3451   5.400   1.041   3.907
 1165TIP3    H1 3452   5.448   0.961   3.886
 1165TIP3    H2 3453   5.466   1.099   3.946
 1166TIP3   OH2 3454   3.392   4.615   0.668
 1166TIP3    H1 3455   3.397   4.581   0.579
 1166TIP3    H2 3456   3.359   4.542   0.720
 1167TIP3   OH2 3457   5.289   2.960   1.394
 1167TIP3    H1 3458   5.305   2.890   1.330
 1167TIP3    H2 3459   5.294   3.041   1.344
 1168TIP3   OH2 3460   0.905   0.323   0.518
 1168TIP3    H1 3461   0.934   0.407   0.555
 1168TIP3    H2 3462   0.810   0.322   0.533
 1169TIP3   OH2 3463   8.295   5.752   6.511
 1169TIP3    H1 3464   8.220   5.809   6.527
 1169TIP3    H2 3465   8.347   5.800   6.446
 1170TIP3   OH2 3466   2.119   4.609   0.233
 1170TIP3    H1 3467   2.162   4.524   0.245
 1170TIP3    H2 3468   2.036   4.600   0.280
 1171TIP3   OH2 3469   4.941   6.615   3.665
 1171TIP3    H1 3470   4.980   6.656   3.742
 1171TIP3    H2 3471   5.015   6.588   3.612
 1172TIP3   OH2 3472   0.695   5.201   0.127
 1172TIP3    H1 3473   0.646   5.131   0.084
 1172TIP3    H2 3474   0.697   5.177   0.219
 1173TIP3   OH2 3475   3.001   2.675   1.037
 1173TIP3    H1 3476   3.005   2.667   1.133
 1173TIP3    H2 3477   2.984   2.768   1.023
 1174TIP3   OH2 3478   6.867   4.514   1.966
 1174TIP3    H1 3479   6.952   4.482   1.994
 1174TIP3    H2 3480   6.820   4.436   1.937
 1175TIP3   OH2 3481   1.232   2.268   3.362
 1175TIP3    H1 3482   1.205   2.252   3.271
 1175TIP3    H2 3483   1.157   2.240   3.414
 1176TIP3   OH2 3484   1.598   6.140   4.857
 1176TIP3    H1 3485   1.609   6.235   4.858
 1176TIP3    H2 3486   1.676   6.107   4.902
 1177TIP3   OH2 3487   2.962   1.892   0.258
 1177TIP3    H1 3488   2.967   1.953   0.332
 1177TIP3    H2 3489   2.916   1.941   0.190
 1178TIP3   OH2 3490   5.985   1.223   0.627
 1178TIP3    H1 3491   5.978   1.281   0.703
 1178TIP3    H2 3492   5.932   1.147   0.650
 1179TIP3   OH2 3493   5.796   2.298   3.733
 1179TIP3    H1 3494   5.794   2.227   3.669
 1179TIP3    H2 3495   5.846   2.368   3.689
 1180TIP3   OH2 3496   0.892   6.462   0.217
 1180TIP3    H1 3497   0.797   6.446   0.217
 1180TIP3    H2 3498   0.902   6.547   0.260
 1181TIP3   OH2 3499   6.790   5.327   3.718
 1181TIP3    H1 3500   6.869   5.334   3.772
 1181TIP3    H2 3501   6.810   5.256   3.657
 1182TIP3   OH2 3502   3.995   1.104   2.324
 1182TIP3    H1 3503   3.963   1.156   2.250
 1182TIP3    H2 3504   3.945   1.023   2.321
 1183TIP3   OH2 3505   0.553   2.868   0.746
 1183TIP3    H1 3506   0.544   2.933   0.677
 1183TIP3    H2 3507   0.465   2.858   0.783
 1184TIP3   OH2 3508   2.903   1.855   6.497
 1184TIP3    H1 3509   2.999   1.852   6.488
 1184TIP3    H2 3510   2.874   1.765   6.483
 1185TIP3   OH2 3511   1.002   1.795   2.890
 1185TIP3    H1 3512   1.020   1.773   2.981
 1185TIP3    H2 3513   0.986   1.711   2.847
 1186TIP3   OH2 3514   6.114   0.461   4.382
 1186TIP3    H1 3515   6.082   0.503   4.462
 1186TIP3    H2 3516   6.079   0.515   4.311
 1187TIP3   OH2 3517   5.072   1.266   0.481
 1187TIP3    H1 3518   5.019   1.205   0.430
 1187TIP3    H2 3519   5.080   1.224   0.567
 1188TIP3   OH2 3520   2.061   2.383   2.903
 1188TIP3    H1 3521   2.077   2.385   2.809
 1188TIP3    H2 3522   2.064   2.475   2.930
 1189TIP3   OH2 3523   7.774   7.596   0.933
 1189TIP3    H1 3524   7.716   7.598   1.009
 1189TIP3    H2 3525   7.862   7.589   0.970
 1190TIP3   OH2 3526   6.863   2.069   4.111
 1190TIP3    H1 3527   6.860   1.981   4.074
 1190TIP3    H2 3528   6.803   2.120   4.057
 1191TIP3   OH2 3529   2.021   2.650   1.354
 1191TIP3    H1 3530   2.056   2.709   1.288
 1191TIP3    H2 3531   1.978   2.581   1.304
 1192TIP3   OH2 3532   3.706   4.821   1.731
 1192TIP3    H1 3533   3.633   4.782   1.683
 1192TIP3    H2 3534   3.760   4.863   1.664
 1193TIP3   OH2 3535   0.021   2.733   4.654
 1193TIP3    H1 3536  -0.039   2.683   4.708
 1193TIP3    H2 3537   0.039   2.812   4.705
 1194TIP3   OH2 3538   3.275   2.472   5.671
 1194TIP3    H1 3539   3.344   2.410   5.646
 1194TIP3    H2 3540   3.290   2.548   5.615
 1195TIP3   OH2 3541   7.436   1.337   5.998
 1195TIP3    H1 3542   7.496   1.360   5.928
 1195TIP3    H2 3543   7.482   1.271   6.049
 1196TIP3   OH2 3544   7.485   3.693   6.700
 1196TIP3    H1 3545   7.427   3.762   6.732
 1196TIP3    H2 3546   7.488   3.705   6.605
 1197TIP3   OH2 3547   3.303   7.450   4.203
 1197TIP3    H1 3548   3.355   7.465   4.124
 1197TIP3    H2 3549   3.217   7.488   4.182
 1198TIP3   OH2 3550   2.183   2.695   4.615
 1198TIP3    H1 3551   2.122   2.745   4.561
 1198TIP3    H2 3552   2.129   2.627   4.654
 1199TIP3   OH2 3553   0.327   6.448   3.959
 1199TIP3    H1 3554   0.275   6.377   3.921
 1199TIP3    H2 3555   0.392   6.404   4.013
 1200TIP3   OH2 3556   1.754   4.939   4.471
 1200TIP3    H1 3557   1.730   4.923   4.562
 1200TIP3    H2 3558   1.678   4.983   4.434
 1201TIP3   OH2 3559   6.997   4.004   0.608
 1201TIP3    H1 3560   6.982   4.016   0.514
 1201TIP3    H2 3561   6.941   4.070   0.650
 1202TIP3   OH2 3562   2.063   1.866   5.785
 1202TIP3    H1 3563   2.099   1.791   5.739
 1202TIP3    H2 3564   2.058   1.838   5.877
 1203TIP3   OH2 3565   8.226   5.333   3.389
 1203TIP3    H1 3566   8.278   5.253   3.377
 1203TIP3    H2 3567   8.217   5.369   3.301
 1204TIP3   OH2 3568   4.706   3.056   0.034
 1204TIP3    H1 3569   4.732   3.049  -0.058
 1204TIP3    H2 3570   4.654   2.978   0.051
 1205TIP3   OH2 3571   6.535   5.656   0.505
 1205TIP3    H1 3572   6.574   5.665   0.592
 1205TIP3    H2 3573   6.603   5.685   0.445
 1206TIP3   OH2 3574   3.153   1.306   4.350
 1206TIP3    H1 3575   3.172   1.215   4.326
 1206TIP3    H2 3576   3.081   1.300   4.412
 1207TIP3   OH2 3577   3.506   5.787   0.259
 1207TIP3    H1 3578   3.563   5.858   0.228
 1207TIP3    H2 3579   3.458   5.759   0.181
 1208TIP3   OH2 3580   7.848   3.635   5.214
 1208TIP3    H1 3581   7.795   3.694   5.268
 1208TIP3    H2 3582   7.936   3.641   5.252
 1209TIP3   OH2 3583   3.093   4.671   0.946
 1209TIP3    H1 3584   3.073   4.655   0.854
 1209TIP3    H2 3585   3.064   4.592   0.991
 1210TIP3   OH2 3586   7.085   4.466   0.071
 1210TIP3    H1 3587   7.097   4.479  -0.023
 1210TIP3    H2 3588   7.156   4.406   0.096
 1211TIP3   OH2 3589   4.884   4.765   2.405
 1211TIP3    H1 3590   4.819   4.754   2.475
 1211TIP3    H2 3591   4.953   4.819   2.445
 1212TIP3   OH2 3592   8.162   6.199   1.297
 1212TIP3    H1 3593   8.105   6.147   1.353
 1212TIP3    H2 3594   8.124   6.287   1.300
 1213TIP3   OH2 3595   2.801   6.466   0.262
 1213TIP3    H1 3596   2.767   6.483   0.174
 1213TIP3    H2 3597   2.752   6.389   0.292
 1214TIP3   OH2 3598   4.625   6.168   1.854
 1214TIP3    H1 3599   4.616   6.144   1.762
 1214TIP3    H2 3600   4.628   6.085   1.900
 1215TIP3   OH2 3601   3.647   4.725   5.812
 1215TIP3    H1 3602   3.683   4.755   5.896
 1215TIP3    H2 3603   3.564   4.683   5.835
 1216TIP3   OH2 3604   0.525   0.654   1.951
 1216TIP3    H1 3605   0.597   0.687   1.897
 1216TIP3    H2 3606   0.446   0.688   1.910
 1217TIP3   OH2 3607   4.280   5.082   1.259
 1217TIP3    H1 3608   4.214   5.144   1.229
 1217TIP3    H2 3609   4.251   4.998   1.222
 1218TIP3   OH2 3610   4.941   6.784   2.819
 1218TIP3    H1 3611   4.891   6.794   2.737
 1218TIP3    H2 3612   4.955   6.874   2.848
 1219TIP3   OH2 3613   6.160   3.447   0.491
 1219TIP3    H1 3614   6.207   3.447   0.575
 1219TIP3    H2 3615   6.089   3.383   0.503
 1220TIP3   OH2 3616   2.252   3.101   3.546
 1220TIP3    H1 3617   2.336   3.086   3.503
 1220TIP3    H2 3618   2.261   3.188   3.587
 1221TIP3   OH2 3619   2.192   4.179   1.977
 1221TIP3    H1 3620   2.251   4.135   2.038
 1221TIP3    H2 3621   2.199   4.272   2.000
 1222TIP3   OH2 3622   3.523   7.431   0.020
 1222TIP3    H1 3623   3.588   7.499   0.033
 1222TIP3    H2 3624   3.570   7.349   0.040
 1223TIP3   OH2 3625   4.608   1.769   6.669
 1223TIP3    H1 3626   4.591   1.688   6.621
 1223TIP3    H2 3627   4.608   1.837   6.602
 1224TIP3   OH2 3628   4.473   5.018   0.550
 1224TIP3    H1 3629   4.558   4.974   0.550
 1224TIP3    H2 3630   4.421   4.971   0.615
 1225TIP3   OH2 3631   4.259   0.942   1.866
 1225TIP3    H1 3632   4.336   0.960   1.812
 1225TIP3    H2 3633   4.293   0.940   1.955
 1226TIP3   OH2 3634   7.625   2.805   3.472
 1226TIP3    H1 3635   7.681   2.875   3.504
 1226TIP3    H2 3636   7.540   2.846   3.458
 1227TIP3   OH2 3637   3.120   2.464   1.268
 1227TIP3    H1 3638   3.042   2.518   1.283
 1227TIP3    H2 3639   3.096   2.405   1.197
 1228TIP3   OH2 3640   4.907   6.740   1.177
 1228TIP3    H1 3641   4.875   6.829   1.188
 1228TIP3    H2 3642   4.991   6.738   1.223
 1229TIP3   OH2 3643   6.083   0.368   3.012
 1229TIP3    H1 3644   6.058   0.458   2.992
 1229TIP3    H2 3645   6.105   0.329   2.928
 1230TIP3   OH2 3646   8.033   0.148   4.145
 1230TIP3    H1 3647   8.008   0.222   4.090
 1230TIP3    H2 3648   8.122   0.168   4.173
 1231TIP3   OH2 3649   6.225   0.859   3.389
 1231TIP3    H1 3650   6.229   0.930   3.324
 1231TIP3    H2 3651   6.150   0.882   3.444
 1232TIP3   OH2 3652   7.667   0.914   6.690
 1232TIP3    H1 3653   7.706   0.999   6.713
 1232TIP3    H2 3654   7.578   0.919   6.725
 1233TIP3   OH2 3655   7.918   6.314   0.711
 1233TIP3    H1 3656   7.957   6.247   0.767
 1233TIP3    H2 3657   7.828   6.322   0.743
 1234TIP3   OH2 3658   0.164   0.874   5.856
 1234TIP3    H1 3659   0.119   0.885   5.772
 1234TIP3    H2 3660   0.105   0.821   5.908
 1235TIP3   OH2 3661   6.493   7.653   1.796
 1235TIP3    H1 3662   6.465   7.621   1.882
 1235TIP3    H2 3663   6.418   7.638   1.739
 1236TIP3   OH2 3664   7.885   7.805   5.171
 1236TIP3    H1 3665   7.931   7.814   5.254
 1236TIP3    H2 3666   7.798   7.773   5.195
 1237TIP3   OH2 3667   3.192   4.465   6.058
 1237TIP3    H1 3668   3.251   4.389   6.063
 1237TIP3    H2 3669   3.109   4.433   6.094
 1238TIP3   OH2 3670   7.226   1.109   5.180
 1238TIP3    H1 3671   7.317   1.134   5.168
 1238TIP3    H2 3672   7.192   1.169   5.247
 1239TIP3   OH2 3673   7.404   5.221   4.893
 1239TIP3    H1 3674   7.325   5.168   4.893
 1239TIP3    H2 3675   7.374   5.311   4.879
 1240TIP3   OH2 3676   5.941   2.728   4.677
 1240TIP3    H1 3677   6.010   2.790   4.698
 1240TIP3    H2 3678   5.909   2.697   4.762
 1241TIP3   OH2 3679   3.351   5.576   6.270
 1241TIP3    H1 3680   3.300   5.525   6.332
 1241TIP3    H2 3681   3.439   5.538   6.274
 1242TIP3   OH2 3682   2.431   0.205   3.249
 1242TIP3    H1 3683   2.396   0.147   3.181
 1242TIP3    H2 3684   2.372   0.193   3.323
 1243TIP3   OH2 3685   2.915   0.843   0.730
 1243TIP3    H1 3686   2.940   0.801   0.813
 1243TIP3    H2 3687   2.990   0.829   0.673
 1244TIP3   OH2 3688   6.725   2.683   0.732
 1244TIP3    H1 3689   6.714   2.680   0.827
 1244TIP3    H2 3690   6.718   2.776   0.710
 1245TIP3   OH2 3691   2.530   0.678   5.240
 1245TIP3    H1 3692   2.558   0.716   5.156
 1245TIP3    H2 3693   2.597   0.706   5.302
 1246TIP3   OH2 3694   3.436   7.188   4.164
 1246TIP3    H1 3695   3.367   7.236   4.211
 1246TIP3    H2 3696   3.513   7.194   4.220
 1247TIP3   OH2 3697   5.180   7.495   1.800
 1247TIP3    H1 3698   5.155   7.576   1.845
 1247TIP3    H2 3699   5.170   7.516   1.707
 1248TIP3   OH2 3700   0.557   4.495   4.124
 1248TIP3    H1 3701   0.508   4.560   4.173
 1248TIP3    H2 3702   0.638   4.483   4.174
 1249TIP3   OH2 3703   3.072   3.077   4.590
 1249TIP3    H1 3704   2.990   3.072   4.541
 1249TIP3    H2 3705   3.045   3.068   4.682
 1250TIP3   OH2 3706   7.422   2.182   4.023
 1250TIP3    H1 3707   7.354   2.249   4.017
 1250TIP3    H2 3708   7.391   2.111   3.967
 1251TIP3   OH2 3709   6.022   3.641   5.350
 1251TIP3    H1 3710   6.068   3.699   5.411
 1251TIP3    H2 3711   6.091   3.606   5.294
 1252TIP3   OH2 3712   1.943   3.717   4.500
 1252TIP3    H1 3713   1.883   3.787   4.527
 1252TIP3    H2 3714   2.030   3.750   4.521
 1253TIP3   OH2 3715   1.591   5.155   0.293
 1253TIP3    H1 3716   1.595   5.249   0.311
 1253TIP3    H2 3717   1.571   5.149   0.200
 1254TIP3   OH2 3718   6.894   2.842   6.509
 1254TIP3    H1 3719   6.983   2.808   6.512
 1254TIP3    H2 3720   6.904   2.937   6.513
 1255TIP3   OH2 3721   5.487   4.172   0.275
 1255TIP3    H1 3722   5.511   4.257   0.239
 1255TIP3    H2 3723   5.412   4.144   0.224
 1256TIP3   OH2 3724   7.035   6.737   5.544
 1256TIP3    H1 3725   7.111   6.688   5.513
 1256TIP3    H2 3726   7.059   6.829   5.532
 1257TIP3   OH2 3727   6.811   4.012   6.525
 1257TIP3    H1 3728   6.729   4.017   6.574
 1257TIP3    H2 3729   6.877   4.048   6.585
 1258TIP3   OH2 3730   5.866   4.050   5.032
 1258TIP3    H1 3731   5.916   4.127   5.056
 1258TIP3    H2 3732   5.816   4.027   5.110
 1259TIP3   OH2 3733   4.633   2.418   3.578
 1259TIP3    H1 3734   4.655   2.472   3.502
 1259TIP3    H2 3735   4.538   2.415   3.578
 1260TIP3   OH2 3736   2.277   2.533   1.474
 1260TIP3    H1 3737   2.255   2.447   1.437
 1260TIP3    H2 3738   2.205   2.589   1.449
 1261TIP3   OH2 3739   6.635   5.134   0.531
 1261TIP3    H1 3740   6.652   5.096   0.445
 1261TIP3    H2 3741   6.643   5.229   0.518
 1262TIP3   OH2 3742   6.558   5.490   1.150
 1262TIP3    H1 3743   6.512   5.420   1.196
 1262TIP3    H2 3744   6.533   5.570   1.197
 1263TIP3   OH2 3745   5.702   2.495   1.547
 1263TIP3    H1 3746   5.764   2.427   1.519
 1263TIP3    H2 3747   5.742   2.577   1.519
 1264TIP3   OH2 3748   2.196   4.763   1.801
 1264TIP3    H1 3749   2.127   4.790   1.860
 1264TIP3    H2 3750   2.241   4.692   1.847
 1265TIP3   OH2 3751   6.003   6.261   1.316
 1265TIP3    H1 3752   6.052   6.236   1.238
 1265TIP3    H2 3753   5.998   6.181   1.368
 1266TIP3   OH2 3754   6.427   7.469   4.223
 1266TIP3    H1 3755   6.340   7.507   4.223
 1266TIP3    H2 3756   6.456   7.476   4.132
 1267TIP3   OH2 3757   7.326   0.450   5.326
 1267TIP3    H1 3758   7.350   0.393   5.253
 1267TIP3    H2 3759   7.327   0.392   5.402
 1268TIP3   OH2 3760   0.659   2.157   0.685
 1268TIP3    H1 3761   0.597   2.139   0.614
 1268TIP3    H2 3762   0.745   2.152   0.644
 1269TIP3   OH2 3763   7.512   0.919   3.086
 1269TIP3    H1 3764   7.492   0.825   3.088
 1269TIP3    H2 3765   7.588   0.925   3.028
 1270TIP3   OH2 3766   1.913   1.082   1.736
 1270TIP3    H1 3767   1.870   1.096   1.651
 1270TIP3    H2 3768   1.996   1.128   1.728
 1271TIP3   OH2 3769   0.885   1.047   2.678
 1271TIP3    H1 3770   0.975   1.079   2.684
 1271TIP3    H2 3771   0.865   1.052   2.585
 1272TIP3   OH2 3772   1.735   6.662   1.340
 1272TIP3    H1 3773   1.646   6.696   1.332
 1272TIP3    H2 3774   1.748   6.610   1.261
 1273TIP3   OH2 3775   8.266   0.406   6.373
 1273TIP3    H1 3776   8.196   0.455   6.416
 1273TIP3    H2 3777   8.267   0.440   6.283
 1274TIP3   OH2 3778   2.756   4.190   4.059
 1274TIP3    H1 3779   2.717   4.104   4.072
 1274TIP3    H2 3780   2.788   4.215   4.146
 1275TIP3   OH2 3781   7.045   1.322   6.211
 1275TIP3    H1 3782   7.000   1.405   6.199
 1275TIP3    H2 3783   7.037   1.277   6.127
 1276TIP3   OH2 3784   3.313   4.584   3.520
 1276TIP3    H1 3785   3.297   4.522   3.590
 1276TIP3    H2 3786   3.323   4.530   3.441
 1277TIP3   OH2 3787   2.712   1.172   6.587
 1277TIP3    H1 3788   2.785   1.222   6.625
 1277TIP3    H2 3789   2.634   1.220   6.613
 1278TIP3   OH2 3790   0.328   6.865   1.867
 1278TIP3    H1 3791   0.391   6.936   1.854
 1278TIP3    H2 3792   0.303   6.872   1.959
 1279TIP3   OH2 3793   1.436   2.653   5.857
 1279TIP3    H1 3794   1.458   2.589   5.925
 1279TIP3    H2 3795   1.489   2.730   5.877
 1280TIP3   OH2 3796   0.989   5.925   5.492
 1280TIP3    H1 3797   1.029   6.012   5.501
 1280TIP3    H2 3798   0.920   5.924   5.559
 1281TIP3   OH2 3799   2.334   1.561   4.824
 1281TIP3    H1 3800   2.319   1.545   4.917
 1281TIP3    H2 3801   2.303   1.651   4.811
 1282TIP3   OH2 3802   4.009   2.782   3.181
 1282TIP3    H1 3803   4.079   2.770   3.117
 1282TIP3    H2 3804   4.030   2.866   3.224
 1283TIP3   OH2 3805   0.750   3.935   1.423
 1283TIP3    H1 3806   0.708   4.019   1.405
 1283TIP3    H2 3807   0.716   3.876   1.355
 1284TIP3   OH2 3808   8.306   3.120   3.563
 1284TIP3    H1 3809   8.276   3.033   3.592
 1284TIP3    H2 3810   8.237   3.150   3.504
 1285TIP3   OH2 3811   7.186   4.635   5.805
 1285TIP3    H1 3812   7.185   4.596   5.718
 1285TIP3    H2 3813   7.094   4.651   5.826
 1286TIP3   OH2 3814   7.006   0.907   6.162
 1286TIP3    H1 3815   6.982   0.887   6.071
 1286TIP3    H2 3816   6.975   0.831   6.212
 1287TIP3   OH2 3817   7.243   1.801   4.863
 1287TIP3    H1 3818   7.287   1.872   4.816
 1287TIP3    H2 3819   7.313   1.760   4.914
 1288TIP3   OH2 3820   6.999   1.226   6.792
 1288TIP3    H1 3821   7.036   1.301   6.746
 1288TIP3    H2 3822   7.029   1.150   6.742
 1289TIP3   OH2 3823   1.956   0.786   1.687
 1289TIP3    H1 3824   1.873   0.760   1.647
 1289TIP3    H2 3825   1.958   0.739   1.771
 1290TIP3   OH2 3826   3.567   6.876   5.860
 1290TIP3    H1 3827   3.523   6.953   5.825
 1290TIP3    H2 3828   3.644   6.912   5.906
 1291TIP3   OH2 3829   6.175   5.528   2.211
 1291TIP3    H1 3830   6.212   5.475   2.140
 1291TIP3    H2 3831   6.081   5.529   2.193
 1292TIP3   OH2 3832   7.710   1.168   5.832
 1292TIP3    H1 3833   7.733   1.103   5.767
 1292TIP3    H2 3834   7.615   1.161   5.840
 1293TIP3   OH2 3835   1.786   6.090   3.211
 1293TIP3    H1 3836   1.781   6.124   3.301
 1293TIP3    H2 3837   1.877   6.060   3.202
 1294TIP3   OH2 3838   3.797   2.891   4.125
 1294TIP3    H1 3839   3.788   2.986   4.125
 1294TIP3    H2 3840   3.745   2.861   4.051
 1295TIP3   OH2 3841   5.204   3.808   0.339
 1295TIP3    H1 3842   5.276   3.777   0.393
 1295TIP3    H2 3843   5.131   3.749   0.360
 1296TIP3   OH2 3844   7.689   1.822   4.049
 1296TIP3    H1 3845   7.769   1.867   4.075
 1296TIP3    H2 3846   7.621   1.859   4.106
 1297TIP3   OH2 3847   7.363   1.612   2.683
 1297TIP3    H1 3848   7.389   1.666   2.609
 1297TIP3    H2 3849   7.328   1.532   2.643
 1298TIP3   OH2 3850   5.021   3.187   6.233
 1298TIP3    H1 3851   5.116   3.180   6.228
 1298TIP3    H2 3852   5.006   3.261   6.291
 1299TIP3   OH2 3853   5.767   2.833   5.986
 1299TIP3    H1 3854   5.731   2.905   5.934
 1299TIP3    H2 3855   5.776   2.761   5.923
 1300TIP3   OH2 3856   4.374   2.065   6.522
 1300TIP3    H1 3857   4.347   1.981   6.485
 1300TIP3    H2 3858   4.441   2.098   6.461
 1301TIP3   OH2 3859   2.998   0.355   2.837
 1301TIP3    H1 3860   2.924   0.378   2.894
 1301TIP3    H2 3861   2.997   0.422   2.769
 1302TIP3   OH2 3862   0.619   1.479   1.157
 1302TIP3    H1 3863   0.638   1.545   1.090
 1302TIP3    H2 3864   0.670   1.402   1.130
 1303TIP3   OH2 3865   0.586   5.662   3.879
 1303TIP3    H1 3866   0.591   5.757   3.884
 1303TIP3    H2 3867   0.615   5.641   3.790
 1304TIP3   OH2 3868   3.671   6.954   3.935
 1304TIP3    H1 3869   3.700   6.997   4.016
 1304TIP3    H2 3870   3.678   7.023   3.869
 1305TIP3   OH2 3871   5.206   4.245   0.134
 1305TIP3    H1 3872   5.177   4.296   0.058
 1305TIP3    H2 3873   5.137   4.179   0.145
 1306TIP3   OH2 3874   4.329   0.922   2.140
 1306TIP3    H1 3875   4.339   1.016   2.157
 1306TIP3    H2 3876   4.402   0.882   2.188
 1307TIP3   OH2 3877   5.789   6.214   0.622
 1307TIP3    H1 3878   5.707   6.194   0.667
 1307TIP3    H2 3879   5.851   6.231   0.692
 1308TIP3   OH2 3880   1.917   4.512   4.961
 1308TIP3    H1 3881   1.876   4.549   5.039
 1308TIP3    H2 3882   1.846   4.504   4.898
 1309TIP3   OH2 3883   2.752   1.788   1.259
 1309TIP3    H1 3884   2.819   1.720   1.246
 1309TIP3    H2 3885   2.694   1.752   1.325
 1310TIP3   OH2 3886   1.645   1.558   2.713
 1310TIP3    H1 3887   1.671   1.551   2.622
 1310TIP3    H2 3888   1.567   1.614   2.712
 1311TIP3   OH2 3889   5.683   0.438   2.034
 1311TIP3    H1 3890   5.723   0.392   1.961
 1311TIP3    H2 3891   5.682   0.374   2.105
 1312TIP3   OH2 3892   6.548   7.074   6.392
 1312TIP3    H1 3893   6.520   7.007   6.329
 1312TIP3    H2 3894   6.481   7.072   6.460
 1313TIP3   OH2 3895   6.605   7.655   2.802
 1313TIP3    H1 3896   6.621   7.670   2.895
 1313TIP3    H2 3897   6.623   7.562   2.790
 1314TIP3   OH2 3898   8.080   4.015   3.343
 1314TIP3    H1 3899   8.097   4.018   3.249
 1314TIP3    H2 3900   8.009   4.079   3.356
 1315TIP3   OH2 3901   4.400   3.792   0.322
 1315TIP3    H1 3902   4.461   3.771   0.251
 1315TIP3    H2 3903   4.388   3.887   0.315
 1316TIP3   OH2 3904   4.177   5.547   4.857
 1316TIP3    H1 3905   4.170   5.473   4.796
 1316TIP3    H2 3906   4.189   5.505   4.943
 1317TIP3   OH2 3907   2.430   5.913   1.039
 1317TIP3    H1 3908   2.424   5.948   1.128
 1317TIP3    H2 3909   2.380   5.975   0.986
 1318TIP3   OH2 3910   4.958   7.756   6.174
 1318TIP3    H1 3911   4.934   7.759   6.081
 1318TIP3    H2 3912   5.035   7.699   6.177
 1319TIP3   OH2 3913   1.721   7.500   6.720
 1319TIP3    H1 3914   1.664   7.482   6.645
 1319TIP3    H2 3915   1.667   7.553   6.779
 1320TIP3   OH2 3916   7.198   2.638   4.432
 1320TIP3    H1 3917   7.128   2.683   4.385
 1320TIP3    H2 3918   7.272   2.698   4.431
 1321TIP3   OH2 3919   2.405   3.183   6.491
 1321TIP3    H1 3920   2.488   3.176   6.444
 1321TIP3    H2 3921   2.413   3.122   6.564
 1322TIP3   OH2 3922   5.432   7.741   3.512
 1322TIP3    H1 3923   5.340   7.723   3.529
 1322TIP3    H2 3924   5.472   7.748   3.599
 1323TIP3   OH2 3925   7.367   4.803   4.880
 1323TIP3    H1 3926   7.340   4.715   4.854
 1323TIP3    H2 3927   7.379   4.798   4.975
 1324TIP3   OH2 3928   3.252   4.890   3.614
 1324TIP3    H1 3929   3.258   4.932   3.528
 1324TIP3    H2 3930   3.202   4.810   3.597
 1325TIP3   OH2 3931   0.659   6.585   2.660
 1325TIP3    H1 3932   0.608   6.663   2.681
 1325TIP3    H2 3933   0.733   6.618   2.609
 1326TIP3   OH2 3934   6.013   5.075   0.200
 1326TIP3    H1 3935   5.986   4.988   0.170
 1326TIP3    H2 3936   5.937   5.107   0.250
 1327TIP3   OH2 3937   1.745   7.370   5.062
 1327TIP3    H1 3938   1.667   7.419   5.037
 1327TIP3    H2 3939   1.760   7.394   5.153
 1328TIP3   OH2 3940   6.923   6.778   6.344
 1328TIP3    H1 3941   6.896   6.723   6.270
 1328TIP3    H2 3942   6.874   6.860   6.331
 1329TIP3   OH2 3943   7.824   6.627   0.506
 1329TIP3    H1 3944   7.874   6.596   0.581
 1329TIP3    H2 3945   7.883   6.687   0.460
 1330TIP3   OH2 3946   3.024   5.706   1.546
 1330TIP3    H1 3947   3.010   5.748   1.631
 1330TIP3    H2 3948   2.974   5.624   1.552
 1331TIP3   OH2 3949   3.339   0.936   5.871
 1331TIP3    H1 3950   3.313   0.845   5.858
 1331TIP3    H2 3951   3.258   0.981   5.896
 1332TIP3   OH2 3952   7.334   1.255   1.453
 1332TIP3    H1 3953   7.265   1.270   1.389
 1332TIP3    H2 3954   7.332   1.334   1.508
 1333TIP3   OH2 3955   4.491   0.037   4.849
 1333TIP3    H1 3956   4.427   0.075   4.908
 1333TIP3    H2 3957   4.548  -0.015   4.905
 1334TIP3   OH2 3958   2.945   3.961   2.588
 1334TIP3    H1 3959   2.945   4.005   2.673
 1334TIP3    H2 3960   2.990   4.021   2.529
 1335TIP3   OH2 3961   1.068   2.882   4.275
 1335TIP3    H1 3962   1.123   2.847   4.205
 1335TIP3    H2 3963   0.979   2.858   4.250
 1336TIP3   OH2 3964   1.972   6.879   3.329
 1336TIP3    H1 3965   1.955   6.952   3.388
 1336TIP3    H2 3966   2.001   6.808   3.385
 1337TIP3   OH2 3967   1.886   5.873   4.521
 1337TIP3    H1 3968   1.872   5.813   4.447
 1337TIP3    H2 3969   1.947   5.827   4.578
 1338TIP3   OH2 3970   6.913   5.671   3.182
 1338TIP3    H1 3971   6.870   5.586   3.185
 1338TIP3    H2 3972   6.888   5.707   3.096
 1339TIP3   OH2 3973   4.339   1.276   5.258
 1339TIP3    H1 3974   4.387   1.278   5.340
 1339TIP3    H2 3975   4.359   1.190   5.220
 1340TIP3   OH2 3976   7.654   0.809   0.064
 1340TIP3    H1 3977   7.606   0.855   0.132
 1340TIP3    H2 3978   7.617   0.840  -0.018
 1341TIP3   OH2 3979   2.924   2.900   6.724
 1341TIP3    H1 3980   2.895   2.865   6.808
 1341TIP3    H2 3981   3.018   2.882   6.722
 1342TIP3   OH2 3982   0.136   0.076   0.365
 1342TIP3    H1 3983   0.080   0.011   0.408
 1342TIP3    H2 3984   0.074   0.135   0.321
 1343TIP3   OH2 3985   6.338   6.515   0.188
 1343TIP3    H1 3986   6.387   6.575   0.244
 1343TIP3    H2 3987   6.391   6.435   0.188
 1344TIP3   OH2 3988   3.730   2.997   0.066
 1344TIP3    H1 3989   3.640   2.970   0.082
 1344TIP3    H2 3990   3.766   2.931   0.007
 1345TIP3   OH2 3991   0.516   0.049   0.206
 1345TIP3    H1 3992   0.494   0.005   0.288
 1345TIP3    H2 3993   0.610   0.065   0.211
 1346TIP3   OH2 3994   7.715   0.697   2.044
 1346TIP3    H1 3995   7.779   0.760   2.076
 1346TIP3    H2 3996   7.746   0.673   1.956
 1347TIP3   OH2 3997   4.962   6.028   5.005
 1347TIP3    H1 3998   4.904   6.089   4.960
 1347TIP3    H2 3999   4.903   5.966   5.048
 1348TIP3   OH2 4000   0.515   3.075   5.278
 1348TIP3    H1 4001   0.480   3.020   5.208
 1348TIP3    H2 4002   0.492   3.165   5.253
 1349TIP3   OH2 4003   3.160   5.767   6.539
 1349TIP3    H1 4004   3.218   5.748   6.612
 1349TIP3    H2 4005   3.073   5.744   6.570
 1350TIP3   OH2 4006   5.018   4.735   4.365
 1350TIP3    H1 4007   5.008   4.643   4.341
 1350TIP3    H2 4008   4.935   4.776   4.339
 1351TIP3   OH2 4009   2.728   7.737   5.579
 1351TIP3    H1 4010   2.750   7.651   5.543
 1351TIP3    H2 4011   2.756   7.799   5.511
 1352TIP3   OH2 4012   6.516   2.342   3.445
 1352TIP3    H1 4013   6.487   2.288   3.371
 1352TIP3    H2 4014   6.465   2.310   3.519
 1353TIP3   OH2 4015   0.900   7.369   4.360
 1353TIP3    H1 4016   0.990   7.400   4.352
 1353TIP3    H2 4017   0.903   7.305   4.431
 1354TIP3   OH2 4018   3.145   1.436   3.807
 1354TIP3    H1 4019   3.189   1.517   3.833
 1354TIP3    H2 4020   3.216   1.379   3.776
 1355TIP3   OH2 4021   5.177   4.479   2.366
 1355TIP3    H1 4022   5.264   4.444   2.385
 1355TIP3    H2 4023   5.131   4.474   2.450
 1356TIP3   OH2 4024   4.845   5.530   1.760
 1356TIP3    H1 4025   4.852   5.531   1.856
 1356TIP3    H2 4026   4.797   5.450   1.741
 1357TIP3   OH2 4027   2.632   1.344   3.177
 1357TIP3    H1 4028   2.677   1.392   3.107
 1357TIP3    H2 4029   2.556   1.305   3.134
 1358TIP3   OH2 4030   6.653   0.477   5.770
 1358TIP3    H1 4031   6.728   0.488   5.828
 1358TIP3    H2 4032   6.675   0.527   5.691
 1359TIP3   OH2 4033   4.442   2.372   4.078
 1359TIP3    H1 4034   4.363   2.370   4.024
 1359TIP3    H2 4035   4.512   2.398   4.018
 1360TIP3   OH2 4036   3.671   3.692   4.295
 1360TIP3    H1 4037   3.728   3.620   4.267
 1360TIP3    H2 4038   3.582   3.662   4.274
 1361TIP3   OH2 4039   2.016   7.223   1.805
 1361TIP3    H1 4040   1.959   7.250   1.877
 1361TIP3    H2 4041   2.038   7.132   1.826
 1362TIP3   OH2 4042   3.836   1.718   6.581
 1362TIP3    H1 4043   3.839   1.804   6.537
 1362TIP3    H2 4044   3.887   1.661   6.524
 1363TIP3   OH2 4045   3.079   2.988   5.627
 1363TIP3    H1 4046   3.056   2.958   5.539
 1363TIP3    H2 4047   3.116   2.911   5.670
 1364TIP3   OH2 4048   8.056   2.785   6.642
 1364TIP3    H1 4049   8.019   2.697   6.646
 1364TIP3    H2 4050   8.013   2.826   6.567
 1365TIP3   OH2 4051   1.815   6.418   6.291
 1365TIP3    H1 4052   1.899   6.395   6.331
 1365TIP3    H2 4053   1.762   6.450   6.364
 1366TIP3   OH2 4054   7.766   0.205   1.952
 1366TIP3    H1 4055   7.786   0.118   1.919
 1366TIP3    H2 4056   7.771   0.262   1.874
 1367TIP3   OH2 4057   2.104   1.569   2.386
 1367TIP3    H1 4058   2.088   1.525   2.469
 1367TIP3    H2 4059   2.036   1.535   2.327
 1368TIP3   OH2 4060   6.553   1.418   3.970
 1368TIP3    H1 4061   6.551   1.347   4.034
 1368TIP3    H2 4062   6.461   1.434   3.949
 1369TIP3   OH2 4063   0.700   7.300   3.099
 1369TIP3    H1 4064   0.683   7.351   3.178
 1369TIP3    H2 4065   0.622   7.313   3.045
 1370TIP3   OH2 4066   6.104   4.830   1.582
 1370TIP3    H1 4067   6.147   4.814   1.497
 1370TIP3    H2 4068   6.080   4.743   1.613
 1371TIP3   OH2 4069   3.681   1.579   0.920
 1371TIP3    H1 4070   3.663   1.513   0.852
 1371TIP3    H2 4071   3.623   1.555   0.992
 1372TIP3   OH2 4072   4.344   0.231   1.344
 1372TIP3    H1 4073   4.382   0.316   1.366
 1372TIP3    H2 4074   4.358   0.177   1.422
 1373TIP3   OH2 4075   3.866   0.203   1.199
 1373TIP3    H1 4076   3.811   0.243   1.132
 1373TIP3    H2 4077   3.877   0.112   1.170
 1374TIP3   OH2 4078   2.528   2.540   1.362
 1374TIP3    H1 4079   2.435   2.534   1.386
 1374TIP3    H2 4080   2.565   2.457   1.392
 1375TIP3   OH2 4081   3.584   2.292   4.253
 1375TIP3    H1 4082   3.502   2.315   4.297
 1375TIP3    H2 4083   3.609   2.370   4.204
 1376TIP3   OH2 4084   2.659   2.349   4.906
 1376TIP3    H1 4085   2.709   2.280   4.949
 1376TIP3    H2 4086   2.725   2.414   4.880
 1377TIP3   OH2 4087   6.235   4.476   1.663
 1377TIP3    H1 4088   6.236   4.381   1.666
 1377TIP3    H2 4089   6.290   4.504   1.736
 1378TIP3   OH2 4090   6.012   3.500   6.099
 1378TIP3    H1 4091   5.979   3.532   6.183
 1378TIP3    H2 4092   6.101   3.469   6.118
 1379TIP3   OH2 4093   0.295   3.558   4.333
 1379TIP3    H1 4094   0.356   3.521   4.397
 1379TIP3    H2 4095   0.274   3.485   4.275
 1380TIP3   OH2 4096   4.969   3.232   4.366
 1380TIP3    H1 4097   4.982   3.281   4.285
 1380TIP3    H2 4098   4.936   3.297   4.428
 1381TIP3   OH2 4099   1.359   2.229   2.466
 1381TIP3    H1 4100   1.394   2.302   2.518
 1381TIP3    H2 4101   1.369   2.153   2.523
 1382TIP3   OH2 4102   4.592   2.203   5.805
 1382TIP3    H1 4103   4.662   2.259   5.773
 1382TIP3    H2 4104   4.637   2.123   5.832
 1383TIP3   OH2 4105   7.687   4.084   4.177
 1383TIP3    H1 4106   7.646   4.056   4.259
 1383TIP3    H2 4107   7.773   4.042   4.178
 1384TIP3   OH2 4108   4.645   5.702   3.999
 1384TIP3    H1 4109   4.671   5.620   3.957
 1384TIP3    H2 4110   4.672   5.770   3.937
 1385TIP3   OH2 4111   4.592   6.300   5.170
 1385TIP3    H1 4112   4.595   6.224   5.228
 1385TIP3    H2 4113   4.521   6.354   5.205
 1386TIP3   OH2 4114   1.993   1.055   0.004
 1386TIP3    H1 4115   1.958   1.117   0.068
 1386TIP3    H2 4116   2.032   0.985   0.057
 1387TIP3   OH2 4117   1.213   7.124   5.122
 1387TIP3    H1 4118   1.259   7.147   5.203
 1387TIP3    H2 4119   1.236   7.032   5.107
 1388TIP3   OH2 4120   0.503   2.386   3.808
 1388TIP3    H1 4121   0.598   2.382   3.795
 1388TIP3    H2 4122   0.473   2.296   3.792
 1389TIP3   OH2 4123   6.488   1.698   3.339
 1389TIP3    H1 4124   6.415   1.672   3.283
 1389TIP3    H2 4125   6.563   1.703   3.280
 1390TIP3   OH2 4126   0.386   5.281   1.559
 1390TIP3    H1 4127   0.475   5.245   1.563
 1390TIP3    H2 4128   0.396   5.366   1.517
 1391TIP3   OH2 4129   0.575   3.254   0.467
 1391TIP3    H1 4130   0.644   3.300   0.515
 1391TIP3    H2 4131   0.522   3.212   0.536
 1392TIP3   OH2 4132   5.661   2.663   0.494
 1392TIP3    H1 4133   5.695   2.575   0.506
 1392TIP3    H2 4134   5.699   2.693   0.412
 1393TIP3   OH2 4135   6.778   6.124   3.013
 1393TIP3    H1 4136   6.830   6.125   2.933
 1393TIP3    H2 4137   6.840   6.147   3.082
 1394TIP3   OH2 4138   6.615   2.616   5.091
 1394TIP3    H1 4139   6.620   2.545   5.155
 1394TIP3    H2 4140   6.587   2.692   5.141
 1395TIP3   OH2 4141   0.032   0.406   0.420
 1395TIP3    H1 4142  -0.020   0.367   0.350
 1395TIP3    H2 4143   0.066   0.487   0.382
 1396TIP3   OH2 4144   1.251   4.322   1.674
 1396TIP3    H1 4145   1.228   4.365   1.756
 1396TIP3    H2 4146   1.222   4.231   1.686
 1397TIP3   OH2 4147   6.166   4.943   2.970
 1397TIP3    H1 4148   6.185   4.967   2.879
 1397TIP3    H2 4149   6.082   4.899   2.966
 1398TIP3   OH2 4150   4.238   0.283   6.101
 1398TIP3    H1 4151   4.241   0.193   6.133
 1398TIP3    H2 4152   4.206   0.276   6.011
 1399TIP3   OH2 4153   6.968   7.540   4.368
 1399TIP3    H1 4154   6.976   7.445   4.357
 1399TIP3    H2 4155   6.992   7.576   4.282
 1400TIP3   OH2 4156   6.644   7.617   5.044
 1400TIP3    H1 4157   6.588   7.694   5.052
 1400TIP3    H2 4158   6.640   7.594   4.952
 1401TIP3   OH2 4159   8.259   1.155   4.576
 1401TIP3    H1 4160   8.336   1.175   4.524
 1401TIP3    H2 4161   8.240   1.063   4.557
 1402TIP3   OH2 4162   0.272   5.347   2.924
 1402TIP3    H1 4163   0.319   5.353   2.841
 1402TIP3    H2 4164   0.185   5.316   2.900
 1403TIP3   OH2 4165   4.196   2.459   3.881
 1403TIP3    H1 4166   4.146   2.513   3.943
 1403TIP3    H2 4167   4.175   2.369   3.905
 1404TIP3   OH2 4168   0.956   4.911   3.923
 1404TIP3    H1 4169   0.983   4.992   3.880
 1404TIP3    H2 4170   0.974   4.925   4.016
 1405TIP3   OH2 4171   1.540   5.615   6.517
 1405TIP3    H1 4172   1.577   5.703   6.524
 1405TIP3    H2 4173   1.494   5.602   6.599
 1406TIP3   OH2 4174   6.115   1.839   2.537
 1406TIP3    H1 4175   6.196   1.839   2.486
 1406TIP3    H2 4176   6.056   1.782   2.488
 1407TIP3   OH2 4177   6.392   4.499   1.886
 1407TIP3    H1 4178   6.363   4.450   1.963
 1407TIP3    H2 4179   6.472   4.454   1.858
 1408TIP3   OH2 4180   6.063   4.627   4.278
 1408TIP3    H1 4181   6.125   4.641   4.350
 1408TIP3    H2 4182   6.110   4.658   4.200
 1409TIP3   OH2 4183   7.158   2.288   0.576
 1409TIP3    H1 4184   7.135   2.335   0.656
 1409TIP3    H2 4185   7.076   2.282   0.527
 1410TIP3   OH2 4186   4.139   0.289   0.256
 1410TIP3    H1 4187   4.235   0.291   0.263
 1410TIP3    H2 4188   4.109   0.298   0.347
 1411TIP3   OH2 4189   5.296   5.251   4.484
 1411TIP3    H1 4190   5.230   5.181   4.482
 1411TIP3    H2 4191   5.285   5.297   4.400
 1412TIP3   OH2 4192   4.780   3.240   0.855
 1412TIP3    H1 4193   4.755   3.332   0.845
 1412TIP3    H2 4194   4.761   3.220   0.946
 1413TIP3   OH2 4195   6.807   3.394   5.903
 1413TIP3    H1 4196   6.883   3.415   5.958
 1413TIP3    H2 4197   6.784   3.477   5.862
 1414TIP3   OH2 4198   5.023   7.522   5.382
 1414TIP3    H1 4199   5.009   7.441   5.430
 1414TIP3    H2 4200   5.109   7.511   5.342
 1415TIP3   OH2 4201   7.548   1.824   1.630
 1415TIP3    H1 4202   7.526   1.809   1.538
 1415TIP3    H2 4203   7.641   1.806   1.635
 1416TIP3   OH2 4204   1.615   5.048   6.040
 1416TIP3    H1 4205   1.597   5.098   6.120
 1416TIP3    H2 4206   1.710   5.046   6.034
 1417TIP3   OH2 4207   7.461   0.654   3.120
 1417TIP3    H1 4208   7.435   0.569   3.157
 1417TIP3    H2 4209   7.444   0.645   3.026
 1418TIP3   OH2 4210   4.262   3.926   5.843
 1418TIP3    H1 4211   4.187   3.981   5.864
 1418TIP3    H2 4212   4.271   3.867   5.918
 1419TIP3   OH2 4213   4.998   4.951   1.896
 1419TIP3    H1 4214   4.956   4.919   1.976
 1419TIP3    H2 4215   4.950   4.908   1.825
 1420TIP3   OH2 4216   5.302   5.632   6.426
 1420TIP3    H1 4217   5.239   5.665   6.490
 1420TIP3    H2 4218   5.274   5.543   6.408
 1421TIP3   OH2 4219   1.488   0.340   5.490
 1421TIP3    H1 4220   1.538   0.283   5.548
 1421TIP3    H2 4221   1.505   0.307   5.402
 1422TIP3   OH2 4222   2.940   6.177   4.463
 1422TIP3    H1 4223   3.018   6.233   4.468
 1422TIP3    H2 4224   2.973   6.093   4.433
 1423TIP3   OH2 4225   3.757   3.813   6.274
 1423TIP3    H1 4226   3.744   3.798   6.180
 1423TIP3    H2 4227   3.754   3.908   6.284
 1424TIP3   OH2 4228   2.117   1.941   4.299
 1424TIP3    H1 4229   2.182   1.962   4.366
 1424TIP3    H2 4230   2.169   1.917   4.222
 1425TIP3   OH2 4231   5.385   4.042   0.502
 1425TIP3    H1 4232   5.419   4.081   0.422
 1425TIP3    H2 4233   5.398   3.948   0.490
 1426TIP3   OH2 4234   7.986   6.703   1.327
 1426TIP3    H1 4235   7.951   6.671   1.244
 1426TIP3    H2 4236   8.032   6.628   1.365
 1427TIP3   OH2 4237   0.554   0.073   1.922
 1427TIP3    H1 4238   0.604   0.070   2.003
 1427TIP3    H2 4239   0.558  -0.016   1.888
 1428TIP3   OH2 4240   3.705   3.728   1.381
 1428TIP3    H1 4241   3.786   3.680   1.399
 1428TIP3    H2 4242   3.699   3.728   1.285
 1429TIP3   OH2 4243   2.359   5.456   1.276
 1429TIP3    H1 4244   2.400   5.412   1.350
 1429TIP3    H2 4245   2.270   5.421   1.273
 1430TIP3   OH2 4246   1.673   2.874   4.990
 1430TIP3    H1 4247   1.585   2.892   5.022
 1430TIP3    H2 4248   1.712   2.818   5.057
 1431TIP3   OH2 4249   0.056   1.833   2.199
 1431TIP3    H1 4250   0.020   1.749   2.229
 1431TIP3    H2 4251   0.099   1.869   2.276
 1432TIP3   OH2 4252   7.957   1.731   2.145
 1432TIP3    H1 4253   7.984   1.823   2.151
 1432TIP3    H2 4254   8.006   1.687   2.214
 1433TIP3   OH2 4255   1.260   7.663   0.041
 1433TIP3    H1 4256   1.277   7.634  -0.048
 1433TIP3    H2 4257   1.343   7.650   0.087
 1434TIP3   OH2 4258   3.576   1.806   3.091
 1434TIP3    H1 4259   3.522   1.784   3.016
 1434TIP3    H2 4260   3.637   1.733   3.099
 1435TIP3   OH2 4261   7.176   0.308   6.485
 1435TIP3    H1 4262   7.190   0.214   6.486
 1435TIP3    H2 4263   7.260   0.346   6.512
 1436TIP3   OH2 4264   6.415   4.737   5.855
 1436TIP3    H1 4265   6.416   4.772   5.766
 1436TIP3    H2 4266   6.350   4.790   5.901
 1437TIP3   OH2 4267   1.860   7.032   0.417
 1437TIP3    H1 4268   1.944   6.997   0.446
 1437TIP3    H2 4269   1.807   6.954   0.401
 1438TIP3   OH2 4270   4.836   3.043   5.022
 1438TIP3    H1 4271   4.770   3.022   5.088
 1438TIP3    H2 4272   4.878   3.123   5.054
 1439TIP3   OH2 4273   4.715   2.680   2.641
 1439TIP3    H1 4274   4.778   2.693   2.571
 1439TIP3    H2 4275   4.655   2.613   2.607
 1440TIP3   OH2 4276   1.128   3.901   0.306
 1440TIP3    H1 4277   1.157   3.887   0.216
 1440TIP3    H2 4278   1.033   3.913   0.299
 1441TIP3   OH2 4279   3.302   5.038   5.044
 1441TIP3    H1 4280   3.294   5.052   4.949
 1441TIP3    H2 4281   3.380   5.088   5.069
 1442TIP3   OH2 4282   6.232   4.870   6.005
 1442TIP3    H1 4283   6.156   4.896   5.953
 1442TIP3    H2 4284   6.201   4.874   6.096
 1443TIP3   OH2 4285   4.929   7.725   4.533
 1443TIP3    H1 4286   4.902   7.636   4.509
 1443TIP3    H2 4287   4.855   7.760   4.582
 1444TIP3   OH2 4288   0.083   6.662   2.245
 1444TIP3    H1 4289   0.155   6.724   2.254
 1444TIP3    H2 4290   0.079   6.644   2.151
 1445TIP3   OH2 4291   7.457   1.363   3.439
 1445TIP3    H1 4292   7.392   1.403   3.382
 1445TIP3    H2 4293   7.441   1.402   3.525
 1446TIP3   OH2 4294   2.621   7.374   1.773
 1446TIP3    H1 4295   2.640   7.404   1.862
 1446TIP3    H2 4296   2.545   7.425   1.746
 1447TIP3   OH2 4297   6.303   6.823   0.657
 1447TIP3    H1 4298   6.249   6.753   0.693
 1447TIP3    H2 4299   6.276   6.829   0.565
 1448TIP3   OH2 4300   1.031   6.831   3.956
 1448TIP3    H1 4301   1.060   6.755   3.906
 1448TIP3    H2 4302   0.936   6.835   3.942
 1449TIP3   OH2 4303   3.457   1.112   4.903
 1449TIP3    H1 4304   3.452   1.048   4.831
 1449TIP3    H2 4305   3.544   1.152   4.893
 1450TIP3   OH2 4306   5.128   2.082   5.739
 1450TIP3    H1 4307   5.085   2.160   5.703
 1450TIP3    H2 4308   5.124   2.095   5.834
 1451TIP3   OH2 4309   5.347   4.889   0.800
 1451TIP3    H1 4310   5.400   4.969   0.791
 1451TIP3    H2 4311   5.277   4.914   0.859
 1452TIP3   OH2 4312   2.916   5.098   1.814
 1452TIP3    H1 4313   2.857   5.024   1.800
 1452TIP3    H2 4314   2.874   5.172   1.770
 1453TIP3   OH2 4315   4.596   7.201   2.260
 1453TIP3    H1 4316   4.660   7.240   2.201
 1453TIP3    H2 4317   4.514   7.245   2.237
 1454TIP3   OH2 4318   3.126   4.218   5.980
 1454TIP3    H1 4319   3.083   4.133   5.991
 1454TIP3    H2 4320   3.079   4.259   5.908
 1455TIP3   OH2 4321   7.160   6.138   5.130
 1455TIP3    H1 4322   7.213   6.213   5.104
 1455TIP3    H2 4323   7.220   6.083   5.180
 1456TIP3   OH2 4324   2.673   7.655   2.219
 1456TIP3    H1 4325   2.630   7.595   2.280
 1456TIP3    H2 4326   2.711   7.723   2.275
 1457TIP3   OH2 4327   4.287   0.107   5.037
 1457TIP3    H1 4328   4.322   0.166   5.104
 1457TIP3    H2 4329   4.218   0.158   4.995
 1458TIP3   OH2 4330   5.517   2.104   3.659
 1458TIP3    H1 4331   5.527   2.100   3.754
 1458TIP3    H2 4332   5.599   2.145   3.628
 1459TIP3   OH2 4333   7.645   6.292   3.116
 1459TIP3    H1 4334   7.578   6.229   3.144
 1459TIP3    H2 4335   7.718   6.238   3.086
 1460TIP3   OH2 4336   5.881   4.335   3.690
 1460TIP3    H1 4337   5.830   4.396   3.637
 1460TIP3    H2 4338   5.969   4.372   3.692
 1461TIP3   OH2 4339   7.934   0.704   6.285
 1461TIP3    H1 4340   7.935   0.790   6.243
 1461TIP3    H2 4341   7.929   0.642   6.212
 1462TIP3   OH2 4342   3.416   2.367   3.798
 1462TIP3    H1 4343   3.496   2.359   3.746
 1462TIP3    H2 4344   3.346   2.338   3.739
 1463TIP3   OH2 4345   8.329   5.630   2.094
 1463TIP3    H1 4346   8.283   5.685   2.158
 1463TIP3    H2 4347   8.265   5.562   2.072
 1464TIP3   OH2 4348   2.872   3.799   4.176
 1464TIP3    H1 4349   2.835   3.887   4.175
 1464TIP3    H2 4350   2.805   3.744   4.136
 1465TIP3   OH2 4351   3.602   1.456   3.068
 1465TIP3    H1 4352   3.621   1.505   3.147
 1465TIP3    H2 4353   3.686   1.421   3.039
 1466TIP3   OH2 4354   0.286   4.776   1.462
 1466TIP3    H1 4355   0.274   4.861   1.503
 1466TIP3    H2 4356   0.257   4.712   1.527
 1467TIP3   OH2 4357   2.776   0.408   2.972
 1467TIP3    H1 4358   2.743   0.319   2.971
 1467TIP3    H2 4359   2.753   0.442   3.059
 1468TIP3   OH2 4360   0.568   4.575   4.877
 1468TIP3    H1 4361   0.533   4.596   4.791
 1468TIP3    H2 4362   0.617   4.653   4.904
 1469TIP3   OH2 4363   0.620   7.224   4.910
 1469TIP3    H1 4364   0.715   7.216   4.911
 1469TIP3    H2 4365   0.605   7.318   4.899
 1470TIP3   OH2 4366   7.498   1.876   6.640
 1470TIP3    H1 4367   7.411   1.916   6.648
 1470TIP3    H2 4368   7.501   1.810   6.709
 1471TIP3   OH2 4369   3.832   2.348   0.155
 1471TIP3    H1 4370   3.745   2.308   0.165
 1471TIP3    H2 4371   3.881   2.317   0.230
 1472TIP3   OH2 4372   2.372   3.451   3.815
 1472TIP3    H1 4373   2.434   3.475   3.883
 1472TIP3    H2 4374   2.298   3.511   3.827
 1473TIP3   OH2 4375   1.008   6.404   6.447
 1473TIP3    H1 4376   0.983   6.365   6.531
 1473TIP3    H2 4377   0.975   6.493   6.451
 1474TIP3   OH2 4378   4.898   2.006   0.906
 1474TIP3    H1 4379   4.924   2.075   0.968
 1474TIP3    H2 4380   4.806   1.991   0.924
 1475TIP3   OH2 4381   0.342   5.283   1.054
 1475TIP3    H1 4382   0.281   5.224   1.099
 1475TIP3    H2 4383   0.426   5.270   1.099
 1476TIP3   OH2 4384   3.827   2.810   1.667
 1476TIP3    H1 4385   3.755   2.762   1.707
 1476TIP3    H2 4386   3.903   2.791   1.722
 1477TIP3   OH2 4387   8.265   2.796   0.362
 1477TIP3    H1 4388   8.258   2.760   0.450
 1477TIP3    H2 4389   8.186   2.849   0.351
 1478TIP3   OH2 4390   6.035   1.479   1.148
 1478TIP3    H1 4391   5.949   1.444   1.169
 1478TIP3    H2 4392   6.091   1.449   1.219
 1479TIP3   OH2 4393   8.215   2.536   2.670
 1479TIP3    H1 4394   8.132   2.570   2.636
 1479TIP3    H2 4395   8.281   2.597   2.638
 1480TIP3   OH2 4396   5.535   4.805   2.870
 1480TIP3    H1 4397   5.496   4.719   2.854
 1480TIP3    H2 4398   5.520   4.854   2.789
 1481TIP3   OH2 4399   5.472   4.551   1.585
 1481TIP3    H1 4400   5.422   4.486   1.633
 1481TIP3    H2 4401   5.423   4.633   1.596
 1482TIP3   OH2 4402   7.739   2.192   3.402
 1482TIP3    H1 4403   7.739   2.206   3.496
 1482TIP3    H2 4404   7.829   2.164   3.382
 1483TIP3   OH2 4405   1.492   5.881   6.031
 1483TIP3    H1 4406   1.444   5.920   6.104
 1483TIP3    H2 4407   1.427   5.829   5.984
 1484TIP3   OH2 4408   4.255   2.181   2.171
 1484TIP3    H1 4409   4.197   2.255   2.185
 1484TIP3    H2 4410   4.250   2.164   2.076
 1485TIP3   OH2 4411   2.561   7.180   2.443
 1485TIP3    H1 4412   2.649   7.160   2.475
 1485TIP3    H2 4413   2.563   7.156   2.350
 1486TIP3   OH2 4414  -0.012   1.922   3.176
 1486TIP3    H1 4415  -0.001   1.960   3.088
 1486TIP3    H2 4416   0.023   1.988   3.235
 1487TIP3   OH2 4417   5.030   6.783   5.130
 1487TIP3    H1 4418   4.965   6.743   5.189
 1487TIP3    H2 4419   5.080   6.708   5.097
 1488TIP3   OH2 4420   1.738   1.358   1.875
 1488TIP3    H1 4421   1.794   1.281   1.864
 1488TIP3    H2 4422   1.688   1.340   1.955
 1489TIP3   OH2 4423   3.572   0.797   3.252
 1489TIP3    H1 4424   3.667   0.808   3.258
 1489TIP3    H2 4425   3.551   0.738   3.324
 1490TIP3   OH2 4426   0.538   1.065   5.878
 1490TIP3    H1 4427   0.474   1.132   5.904
 1490TIP3    H2 4428   0.596   1.056   5.954
 1491TIP3   OH2 4429   1.313   3.203   0.380
 1491TIP3    H1 4430   1.407   3.200   0.364
 1491TIP3    H2 4431   1.298   3.134   0.445
 1492TIP3   OH2 4432   6.366   7.728   1.105
 1492TIP3    H1 4433   6.416   7.670   1.163
 1492TIP3    H2 4434   6.427   7.800   1.084
 1493TIP3   OH2 4435   0.412   3.138   2.158
 1493TIP3    H1 4436   0.347   3.160   2.091
 1493TIP3    H2 4437   0.386   3.188   2.235
 1494TIP3   OH2 4438   0.317   7.585   2.752
 1494TIP3    H1 4439   0.370   7.662   2.733
 1494TIP3    H2 4440   0.229   7.620   2.769
 1495TIP3   OH2 4441   6.831   4.365   0.221
 1495TIP3    H1 4442   6.877   4.401   0.297
 1495TIP3    H2 4443   6.894   4.372   0.150
 1496TIP3   OH2 4444   7.370   6.282   3.407
 1496TIP3    H1 4445   7.381   6.340   3.332
 1496TIP3    H2 4446   7.408   6.330   3.480
 1497TIP3   OH2 4447   7.463   0.641   2.561
 1497TIP3    H1 4448   7.417   0.622   2.479
 1497TIP3    H2 4449   7.554   0.654   2.534
 1498TIP3   OH2 4450   6.342   6.864   3.180
 1498TIP3    H1 4451   6.363   6.936   3.239
 1498TIP3    H2 4452   6.308   6.795   3.238
 1499TIP3   OH2 4453   4.325   2.976   2.190
 1499TIP3    H1 4454   4.393   2.971   2.257
 1499TIP3    H2 4455   4.274   2.896   2.202
 1500TIP3   OH2 4456   6.150   5.371   0.543
 1500TIP3    H1 4457   6.113   5.344   0.459
 1500TIP3    H2 4458   6.074   5.379   0.601
 1501TIP3   OH2 4459   7.921   5.216   3.140
 1501TIP3    H1 4460   7.830   5.230   3.117
 1501TIP3    H2 4461   7.964   5.299   3.122
 1502TIP3   OH2 4462   4.174   6.179   6.279
 1502TIP3    H1 4463   4.262   6.157   6.310
 1502TIP3    H2 4464   4.158   6.117   6.208
 1503TIP3   OH2 4465   0.433   4.063   4.143
 1503TIP3    H1 4466   0.499   3.997   4.162
 1503TIP3    H2 4467   0.422   4.060   4.048
 1504TIP3   OH2 4468   1.088   2.606   1.737
 1504TIP3    H1 4469   1.043   2.657   1.670
 1504TIP3    H2 4470   1.180   2.606   1.709
 1505TIP3   OH2 4471   3.266   6.905   3.223
 1505TIP3    H1 4472   3.171   6.890   3.216
 1505TIP3    H2 4473   3.273   6.995   3.255
 1506TIP3   OH2 4474   7.834   1.502   5.584
 1506TIP3    H1 4475   7.796   1.428   5.536
 1506TIP3    H2 4476   7.893   1.462   5.648
 1507TIP3   OH2 4477   7.420   1.092   5.790
 1507TIP3    H1 4478   7.429   1.024   5.856
 1507TIP3    H2 4479   7.430   1.046   5.706
 1508TIP3   OH2 4480   2.223   1.903   1.225
 1508TIP3    H1 4481   2.292   1.881   1.287
 1508TIP3    H2 4482   2.265   1.962   1.162
 1509TIP3   OH2 4483   6.118   5.433   4.935
 1509TIP3    H1 4484   6.105   5.520   4.972
 1509TIP3    H2 4485   6.196   5.400   4.979
 1510TIP3   OH2 4486   7.064   7.579   2.085
 1510TIP3    H1 4487   7.003   7.615   2.021
 1510TIP3    H2 4488   7.026   7.603   2.170
 1511TIP3   OH2 4489   5.777   2.755   0.243
 1511TIP3    H1 4490   5.817   2.835   0.277
 1511TIP3    H2 4491   5.851   2.704   0.209
 1512TIP3   OH2 4492   3.843   0.439   1.356
 1512TIP3    H1 4493   3.895   0.366   1.322
 1512TIP3    H2 4494   3.859   0.437   1.451
 1513TIP3   OH2 4495   2.901   4.899   0.668
 1513TIP3    H1 4496   2.897   4.868   0.578
 1513TIP3    H2 4497   2.811   4.890   0.700
 1514TIP3   OH2 4498   0.889   7.268   3.490
 1514TIP3    H1 4499   0.980   7.256   3.518
 1514TIP3    H2 4500   0.894   7.333   3.420
 1515TIP3   OH2 4501   5.215   1.030   2.484
 1515TIP3    H1 4502   5.241   1.120   2.465
 1515TIP3    H2 4503   5.169   1.001   2.405
 1516TIP3   OH2 4504   0.502   0.629   4.826
 1516TIP3    H1 4505   0.410   0.631   4.802
 1516TIP3    H2 4506   0.508   0.686   4.903
 1517TIP3   OH2 4507   6.207   2.568   4.728
 1517TIP3    H1 4508   6.193   2.627   4.802
 1517TIP3    H2 4509   6.301   2.550   4.730
 1518TIP3   OH2 4510   0.549   4.736   5.333
 1518TIP3    H1 4511   0.479   4.781   5.286
 1518TIP3    H2 4512   0.629   4.777   5.302
 1519TIP3   OH2 4513   6.935   7.289   5.004
 1519TIP3    H1 4514   6.869   7.252   4.946
 1519TIP3    H2 4515   6.894   7.367   5.041
 1520TIP3   OH2 4516   4.415   7.117   5.617
 1520TIP3    H1 4517   4.395   7.208   5.598
 1520TIP3    H2 4518   4.394   7.070   5.537
 1521TIP3   OH2 4519   2.179   2.659   2.286
 1521TIP3    H1 4520   2.146   2.713   2.357
 1521TIP3    H2 4521   2.254   2.612   2.324
 1522TIP3   OH2 4522   4.121   7.397   0.108
 1522TIP3    H1 4523   4.188   7.350   0.157
 1522TIP3    H2 4524   4.120   7.484   0.148
 1523TIP3   OH2 4525   6.804   3.376   4.808
 1523TIP3    H1 4526   6.712   3.363   4.785
 1523TIP3    H2 4527   6.802   3.448   4.872
 1524TIP3   OH2 4528   0.716   4.600   2.469
 1524TIP3    H1 4529   0.623   4.581   2.482
 1524TIP3    H2 4530   0.753   4.519   2.434
 1525TIP3   OH2 4531   8.180   5.315   4.690
 1525TIP3    H1 4532   8.165   5.301   4.596
 1525TIP3    H2 4533   8.224   5.235   4.718
 1526TIP3   OH2 4534   4.696   1.636   5.643
 1526TIP3    H1 4535   4.635   1.635   5.716
 1526TIP3    H2 4536   4.765   1.697   5.670
 1527TIP3   OH2 4537   4.215   6.745   2.420
 1527TIP3    H1 4538   4.144   6.806   2.399
 1527TIP3    H2 4539   4.181   6.659   2.397
 1528TIP3   OH2 4540   0.682   0.837   2.682
 1528TIP3    H1 4541   0.688   0.834   2.586
 1528TIP3    H2 4542   0.730   0.917   2.706
 1529TIP3   OH2 4543   8.246   0.391   2.982
 1529TIP3    H1 4544   8.297   0.317   3.015
 1529TIP3    H2 4545   8.311   0.460   2.967
 1530TIP3   OH2 4546   3.586   2.631   1.122
 1530TIP3    H1 4547   3.624   2.568   1.061
 1530TIP3    H2 4548   3.659   2.655   1.180
 1531TIP3   OH2 4549   5.122   0.384   4.934
 1531TIP3    H1 4550   5.127   0.461   4.877
 1531TIP3    H2 4551   5.030   0.380   4.962
 1532TIP3   OH2 4552   3.010   5.145   4.221
 1532TIP3    H1 4553   3.066   5.173   4.148
 1532TIP3    H2 4554   3.055   5.070   4.260
 1533TIP3   OH2 4555   5.881   0.699   1.236
 1533TIP3    H1 4556   5.925   0.616   1.219
 1533TIP3    H2 4557   5.817   0.708   1.165
 1534TIP3   OH2 4558   7.252   5.372   5.587
 1534TIP3    H1 4559   7.260   5.459   5.547
 1534TIP3    H2 4560   7.342   5.342   5.598
 1535TIP3   OH2 4561   5.015   1.929   0.648
 1535TIP3    H1 4562   4.953   1.860   0.625
 1535TIP3    H2 4563   4.994   1.951   0.739
 1536TIP3   OH2 4564   4.748   4.020   0.163
 1536TIP3    H1 4565   4.749   3.947   0.225
 1536TIP3    H2 4566   4.698   3.987   0.088
 1537TIP3   OH2 4567   3.677   2.598   5.975
 1537TIP3    H1 4568   3.588   2.563   5.978
 1537TIP3    H2 4569   3.687   2.647   6.056
 1538TIP3   OH2 4570   0.178   4.819   3.503
 1538TIP3    H1 4571   0.258   4.819   3.556
 1538TIP3    H2 4572   0.203   4.772   3.423
 1539TIP3   OH2 4573   7.762   7.380   2.414
 1539TIP3    H1 4574   7.803   7.401   2.330
 1539TIP3    H2 4575   7.718   7.296   2.399
 1540TIP3   OH2 4576   0.369   3.309   2.376
 1540TIP3    H1 4577   0.430   3.264   2.435
 1540TIP3    H2 4578   0.304   3.348   2.434
 1541TIP3   OH2 4579   1.548   5.121   6.298
 1541TIP3    H1 4580   1.540   5.176   6.376
 1541TIP3    H2 4581   1.554   5.032   6.332
 1542TIP3   OH2 4582   0.206   2.123   3.960
 1542TIP3    H1 4583   0.282   2.085   4.003
 1542TIP3    H2 4584   0.234   2.142   3.871
 1543TIP3   OH2 4585   8.063   4.080   0.842
 1543TIP3    H1 4586   8.043   3.996   0.882
 1543TIP3    H2 4587   8.098   4.058   0.756
 1544TIP3   OH2 4588   3.987   5.414   0.348
 1544TIP3    H1 4589   3.990   5.336   0.294
 1544TIP3    H2 4590   4.015   5.485   0.290
 1545TIP3   OH2 4591   5.542   5.888   3.017
 1545TIP3    H1 4592   5.556   5.881   3.111
 1545TIP3    H2 4593   5.459   5.935   3.008
 1546TIP3   OH2 4594   3.388   2.854   5.222
 1546TIP3    H1 4595   3.377   2.886   5.132
 1546TIP3    H2 4596   3.471   2.807   5.221
 1547TIP3   OH2 4597   7.872   7.613   1.275
 1547TIP3    H1 4598   7.820   7.535   1.289
 1547TIP3    H2 4599   7.810   7.686   1.284
 1548TIP3   OH2 4600   5.706   7.294   4.190
 1548TIP3    H1 4601   5.671   7.317   4.104
 1548TIP3    H2 4602   5.796   7.324   4.189
 1549TIP3   OH2 4603   7.413   0.846   4.417
 1549TIP3    H1 4604   7.340   0.903   4.442
 1549TIP3    H2 4605   7.478   0.905   4.380
 1550TIP3   OH2 4606   1.268   7.296   5.603
 1550TIP3    H1 4607   1.352   7.319   5.564
 1550TIP3    H2 4608   1.221   7.379   5.611
 1551TIP3   OH2 4609   1.128   5.359   0.674
 1551TIP3    H1 4610   1.055   5.325   0.725
 1551TIP3    H2 4611   1.121   5.454   0.683
 1552TIP3   OH2 4612   6.089   1.566  -0.021
 1552TIP3    H1 4613   6.089   1.562   0.075
 1552TIP3    H2 4614   6.017   1.508  -0.047
 1553TIP3   OH2 4615   8.111   6.255   1.745
 1553TIP3    H1 4616   8.164   6.218   1.816
 1553TIP3    H2 4617   8.160   6.333   1.718
 1554TIP3   OH2 4618   2.095   5.489   5.740
 1554TIP3    H1 4619   2.183   5.505   5.775
 1554TIP3    H2 4620   2.044   5.565   5.769
 1555TIP3   OH2 4621   6.675   6.999   4.890
 1555TIP3    H1 4622   6.751   7.026   4.837
 1555TIP3    H2 4623   6.670   7.063   4.960
 1556TIP3   OH2 4624   7.874   2.862   3.754
 1556TIP3    H1 4625   7.789   2.902   3.738
 1556TIP3    H2 4626   7.910   2.910   3.828
 1557TIP3   OH2 4627   0.048   7.542   4.724
 1557TIP3    H1 4628   0.081   7.570   4.638
 1557TIP3    H2 4629  -0.006   7.616   4.754
 1558TIP3   OH2 4630   7.392   6.941   4.033
 1558TIP3    H1 4631   7.462   6.975   3.978
 1558TIP3    H2 4632   7.428   6.861   4.070
 1559TIP3   OH2 4633   1.032   3.636   1.881
 1559TIP3    H1 4634   0.963   3.702   1.894
 1559TIP3    H2 4635   1.114   3.684   1.891
 1560TIP3   OH2 4636   6.476   4.929   4.259
 1560TIP3    H1 4637   6.538   4.875   4.211
 1560TIP3    H2 4638   6.529   4.972   4.326
 1561TIP3   OH2 4639   3.197   4.884   3.341
 1561TIP3    H1 4640   3.105   4.861   3.332
 1561TIP3    H2 4641   3.238   4.854   3.260
 1562TIP3   OH2 4642   3.122   7.756   0.662
 1562TIP3    H1 4643   3.171   7.698   0.604
 1562TIP3    H2 4644   3.059   7.799   0.605
 1563TIP3   OH2 4645   4.872   6.336   5.513
 1563TIP3    H1 4646   4.851   6.332   5.420
 1563TIP3    H2 4647   4.806   6.281   5.556
 1564TIP3   OH2 4648   7.575   7.602   6.583
 1564TIP3    H1 4649   7.641   7.570   6.644
 1564TIP3    H2 4650   7.524   7.524   6.560
 1565TIP3   OH2 4651   1.198   3.673   3.001
 1565TIP3    H1 4652   1.158   3.601   2.952
 1565TIP3    H2 4653   1.175   3.656   3.092
 1566TIP3   OH2 4654   8.269   2.965   6.584
 1566TIP3    H1 4655   8.207   2.910   6.632
 1566TIP3    H2 4656   8.330   2.903   6.544
 1567TIP3   OH2 4657  -0.011   6.513   0.860
 1567TIP3    H1 4658   0.019   6.566   0.786
 1567TIP3    H2 4659   0.049   6.438   0.862
 1568TIP3   OH2 4660   6.670   1.528   6.077
 1568TIP3    H1 4661   6.743   1.573   6.119
 1568TIP3    H2 4662   6.638   1.589   6.011
 1569TIP3   OH2 4663   6.559   4.047   4.110
 1569TIP3    H1 4664   6.530   4.003   4.030
 1569TIP3    H2 4665   6.495   4.020   4.176
 1570TIP3   OH2 4666   5.056   4.441   3.741
 1570TIP3    H1 4667   5.097   4.435   3.654
 1570TIP3    H2 4668   5.129   4.432   3.802
 1571TIP3   OH2 4669   0.555   6.699   3.676
 1571TIP3    H1 4670   0.536   6.792   3.690
 1571TIP3    H2 4671   0.619   6.677   3.743
 1572TIP3   OH2 4672   6.990   7.036   0.835
 1572TIP3    H1 4673   7.024   7.126   0.841
 1572TIP3    H2 4674   6.996   7.015   0.742
 1573TIP3   OH2 4675   0.933   6.522   3.600
 1573TIP3    H1 4676   0.998   6.549   3.536
 1573TIP3    H2 4677   0.940   6.585   3.671
 1574TIP3   OH2 4678   0.533   3.989   3.348
 1574TIP3    H1 4679   0.519   3.962   3.438
 1574TIP3    H2 4680   0.626   3.970   3.332
 1575TIP3   OH2 4681   2.040   1.090   4.655
 1575TIP3    H1 4682   2.128   1.052   4.647
 1575TIP3    H2 4683   2.039   1.133   4.740
 1576TIP3   OH2 4684   6.435   3.919   3.900
 1576TIP3    H1 4685   6.375   3.844   3.906
 1576TIP3    H2 4686   6.459   3.924   3.808
 1577TIP3   OH2 4687   5.258   1.966   0.547
 1577TIP3    H1 4688   5.297   1.915   0.618
 1577TIP3    H2 4689   5.164   1.957   0.559
 1578TIP3   OH2 4690   5.662   6.925   3.200
 1578TIP3    H1 4691   5.642   6.966   3.284
 1578TIP3    H2 4692   5.599   6.964   3.139
 1579TIP3   OH2 4693   4.735   1.939   5.707
 1579TIP3    H1 4694   4.650   1.946   5.664
 1579TIP3    H2 4695   4.797   1.922   5.636
 1580TIP3   OH2 4696   2.434   0.961   5.321
 1580TIP3    H1 4697   2.485   0.923   5.249
 1580TIP3    H2 4698   2.360   0.902   5.332
 1581TIP3   OH2 4699   7.013   4.260   0.871
 1581TIP3    H1 4700   7.016   4.204   0.948
 1581TIP3    H2 4701   6.964   4.337   0.899
 1582TIP3   OH2 4702   2.026   4.125   3.709
 1582TIP3    H1 4703   1.951   4.089   3.756
 1582TIP3    H2 4704   1.990   4.149   3.623
 1583TIP3   OH2 4705   4.528   2.763   5.001
 1583TIP3    H1 4706   4.456   2.778   4.940
 1583TIP3    H2 4707   4.564   2.678   4.976
 1584TIP3   OH2 4708   3.229   2.019   0.864
 1584TIP3    H1 4709   3.318   2.053   0.854
 1584TIP3    H2 4710   3.178   2.062   0.796
 1585TIP3   OH2 4711   0.393   7.152   1.171
 1585TIP3    H1 4712   0.322   7.174   1.231
 1585TIP3    H2 4713   0.361   7.075   1.123
 1586TIP3   OH2 4714   0.394   2.691   6.339
 1586TIP3    H1 4715   0.338   2.706   6.263
 1586TIP3    H2 4716   0.481   2.678   6.302
 1587TIP3   OH2 4717   6.195   1.838   1.486
 1587TIP3    H1 4718   6.150   1.802   1.562
 1587TIP3    H2 4719   6.287   1.813   1.499
 1588TIP3   OH2 4720   3.638   3.518   2.921
 1588TIP3    H1 4721   3.717   3.549   2.876
 1588TIP3    H2 4722   3.566   3.541   2.862
 1589TIP3   OH2 4723   6.796   4.577   2.355
 1589TIP3    H1 4724   6.778   4.556   2.446
 1589TIP3    H2 4725   6.746   4.657   2.337
 1590TIP3   OH2 4726   1.927   2.257   0.620
 1590TIP3    H1 4727   1.894   2.290   0.536
 1590TIP3    H2 4728   1.872   2.300   0.686
 1591TIP3   OH2 4729   4.658   5.687   2.657
 1591TIP3    H1 4730   4.709   5.697   2.577
 1591TIP3    H2 4731   4.574   5.728   2.638
 1592TIP3   OH2 4732   6.749   5.987   1.386
 1592TIP3    H1 4733   6.712   6.027   1.464
 1592TIP3    H2 4734   6.843   5.980   1.405
 1593TIP3   OH2 4735   7.849   7.082   0.546
 1593TIP3    H1 4736   7.920   7.131   0.586
 1593TIP3    H2 4737   7.815   7.139   0.477
 1594TIP3   OH2 4738   2.537   6.412   4.786
 1594TIP3    H1 4739   2.543   6.448   4.697
 1594TIP3    H2 4740   2.464   6.351   4.783
 1595TIP3   OH2 4741   3.489   3.401   6.214
 1595TIP3    H1 4742   3.582   3.379   6.227
 1595TIP3    H2 4743   3.482   3.420   6.121
 1596TIP3   OH2 4744   0.410   3.764   4.716
 1596TIP3    H1 4745   0.366   3.681   4.738
 1596TIP3    H2 4746   0.339   3.828   4.710
 1597TIP3   OH2 4747   2.627   4.815   0.743
 1597TIP3    H1 4748   2.548   4.768   0.716
 1597TIP3    H2 4749   2.607   4.907   0.726
 1598TIP3   OH2 4750   5.601   0.482   6.661
 1598TIP3    H1 4751   5.574   0.429   6.586
 1598TIP3    H2 4752   5.542   0.557   6.661
 1599TIP3   OH2 4753   0.304   3.759   5.639
 1599TIP3    H1 4754   0.386   3.709   5.631
 1599TIP3    H2 4755   0.327   3.834   5.694
 1600TIP3   OH2 4756   3.491   5.079   1.015
 1600TIP3    H1 4757   3.428   5.008   1.029
 1600TIP3    H2 4758   3.440   5.148   0.973
 1601TIP3   OH2 4759   7.440   0.039   2.603
 1601TIP3    H1 4760   7.517   0.073   2.558
 1601TIP3    H2 4761   7.369   0.098   2.577
 1602TIP3   OH2 4762   4.402   1.853   4.438
 1602TIP3    H1 4763   4.312   1.873   4.466
 1602TIP3    H2 4764   4.421   1.769   4.479
 1603TIP3   OH2 4765   6.993   5.582   0.886
 1603TIP3    H1 4766   6.927   5.516   0.910
 1603TIP3    H2 4767   7.069   5.560   0.939
 1604TIP3   OH2 4768   0.971   5.395   3.542
 1604TIP3    H1 4769   1.035   5.466   3.530
 1604TIP3    H2 4770   0.985   5.365   3.632
 1605TIP3   OH2 4771   5.669   3.033   4.207
 1605TIP3    H1 4772   5.708   3.115   4.175
 1605TIP3    H2 4773   5.620   3.000   4.133
 1606TIP3   OH2 4774   7.503   1.831   3.513
 1606TIP3    H1 4775   7.560   1.855   3.440
 1606TIP3    H2 4776   7.537   1.879   3.588
 1607TIP3   OH2 4777   2.769   2.987   1.219
 1607TIP3    H1 4778   2.729   2.926   1.281
 1607TIP3    H2 4779   2.766   3.072   1.263
 1608TIP3   OH2 4780   1.433   2.936   5.096
 1608TIP3    H1 4781   1.422   3.030   5.109
 1608TIP3    H2 4782   1.392   2.896   5.172
 1609TIP3   OH2 4783   4.872   0.211   1.201
 1609TIP3    H1 4784   4.888   0.157   1.279
 1609TIP3    H2 4785   4.836   0.150   1.137
 1610TIP3   OH2 4786   4.738   5.394   3.970
 1610TIP3    H1 4787   4.807   5.419   4.032
 1610TIP3    H2 4788   4.669   5.357   4.026
 1611TIP3   OH2 4789   2.424   0.909   5.899
 1611TIP3    H1 4790   2.503   0.962   5.894
 1611TIP3    H2 4791   2.446   0.828   5.853
 1612TIP3   OH2 4792   2.891   2.101   4.144
 1612TIP3    H1 4793   2.831   2.047   4.195
 1612TIP3    H2 4794   2.964   2.044   4.122
 1613TIP3   OH2 4795   0.328   7.062   5.228
 1613TIP3    H1 4796   0.418   7.093   5.235
 1613TIP3    H2 4797   0.300   7.088   5.140
 1614TIP3   OH2 4798   8.239   4.403   2.609
 1614TIP3    H1 4799   8.143   4.398   2.607
 1614TIP3    H2 4800   8.267   4.364   2.526
 1615TIP3   OH2 4801   5.566   5.562   2.083
 1615TIP3    H1 4802   5.649   5.538   2.123
 1615TIP3    H2 4803   5.587   5.635   2.025
 1616TIP3   OH2 4804   4.541   5.046   5.412
 1616TIP3    H1 4805   4.492   5.116   5.453
 1616TIP3    H2 4806   4.510   4.966   5.455
 1617TIP3   OH2 4807   1.222   1.088   6.616
 1617TIP3    H1 4808   1.210   0.994   6.605
 1617TIP3    H2 4809   1.258   1.118   6.533
 1618TIP3   OH2 4810   1.026   2.426   5.783
 1618TIP3    H1 4811   1.011   2.469   5.867
 1618TIP3    H2 4812   0.938   2.409   5.749
 1619TIP3   OH2 4813   5.902   0.267   0.326
 1619TIP3    H1 4814   5.836   0.281   0.258
 1619TIP3    H2 4815   5.930   0.355   0.351
 1620TIP3   OH2 4816   1.582   0.343   3.291
 1620TIP3    H1 4817   1.622   0.256   3.297
 1620TIP3    H2 4818   1.627   0.394   3.359
 1621TIP3   OH2 4819   2.380   6.196   6.682
 1621TIP3    H1 4820   2.320   6.122   6.694
 1621TIP3    H2 4821   2.348   6.239   6.602
 1622TIP3   OH2 4822   4.128   0.288   2.929
 1622TIP3    H1 4823   4.070   0.250   2.862
 1622TIP3    H2 4824   4.076   0.287   3.009
 1623TIP3   OH2 4825   5.143   0.388   3.074
 1623TIP3    H1 4826   5.123   0.358   2.985
 1623TIP3    H2 4827   5.185   0.312   3.115
 1624TIP3   OH2 4828   4.040   7.024   4.522
 1624TIP3    H1 4829   3.983   7.031   4.445
 1624TIP3    H2 4830   3.985   6.986   4.590
 1625TIP3   OH2 4831   6.926   6.656   6.611
 1625TIP3    H1 4832   6.947   6.668   6.519
 1625TIP3    H2 4833   6.845   6.604   6.611
 1626TIP3   OH2 4834   2.775   0.456   0.024
 1626TIP3    H1 4835   2.782   0.552   0.024
 1626TIP3    H2 4836   2.742   0.434   0.111
 1627TIP3   OH2 4837   1.913   0.258   4.770
 1627TIP3    H1 4838   1.972   0.332   4.756
 1627TIP3    H2 4839   1.867   0.278   4.851
 1628TIP3   OH2 4840   2.883   1.204   4.947
 1628TIP3    H1 4841   2.924   1.262   5.011
 1628TIP3    H2 4842   2.815   1.158   4.997
 1629TIP3   OH2 4843   6.409   1.562   6.637
 1629TIP3    H1 4844   6.423   1.622   6.710
 1629TIP3    H2 4845   6.324   1.521   6.657
 1630TIP3   OH2 4846   7.251   4.627   4.251
 1630TIP3    H1 4847   7.345   4.617   4.269
 1630TIP3    H2 4848   7.247   4.662   4.162
 1631TIP3   OH2 4849   3.098   0.302   4.943
 1631TIP3    H1 4850   3.038   0.367   4.906
 1631TIP3    H2 4851   3.049   0.262   5.014
 1632TIP3   OH2 4852   6.705   4.893   4.647
 1632TIP3    H1 4853   6.621   4.874   4.688
 1632TIP3    H2 4854   6.754   4.811   4.653
 1633TIP3   OH2 4855   5.955   0.291   0.658
 1633TIP3    H1 4856   6.041   0.310   0.621
 1633TIP3    H2 4857   5.926   0.374   0.697
 1634TIP3   OH2 4858   3.265   7.099   1.244
 1634TIP3    H1 4859   3.237   7.084   1.153
 1634TIP3    H2 4860   3.185   7.088   1.295
 1635TIP3   OH2 4861   6.049   1.395   3.759
 1635TIP3    H1 4862   6.015   1.309   3.734
 1635TIP3    H2 4863   6.043   1.397   3.854
 1636TIP3   OH2 4864   2.536   0.750   2.790
 1636TIP3    H1 4865   2.517   0.658   2.770
 1636TIP3    H2 4866   2.629   0.760   2.773
 1637TIP3   OH2 4867   4.690   3.560   2.582
 1637TIP3    H1 4868   4.731   3.628   2.636
 1637TIP3    H2 4869   4.760   3.499   2.562
 1638TIP3   OH2 4870   4.895   7.765   3.065
 1638TIP3    H1 4871   4.808   7.728   3.080
 1638TIP3    H2 4872   4.919   7.735   2.977
 1639TIP3   OH2 4873   7.354   0.305   5.569
 1639TIP3    H1 4874   7.446   0.325   5.552
 1639TIP3    H2 4875   7.357   0.223   5.619
 1640TIP3   OH2 4876   0.996   5.469   5.782
 1640TIP3    H1 4877   1.040   5.449   5.865
 1640TIP3    H2 4878   1.022   5.398   5.723
 1641TIP3   OH2 4879   2.038   4.520   3.601
 1641TIP3    H1 4880   2.106   4.532   3.667
 1641TIP3    H2 4881   2.074   4.456   3.540
 1642TIP3   OH2 4882   5.368   6.230   5.588
 1642TIP3    H1 4883   5.410   6.278   5.659
 1642TIP3    H2 4884   5.291   6.283   5.566
 1643TIP3   OH2 4885   6.824   6.920   5.722
 1643TIP3    H1 4886   6.822   6.879   5.808
 1643TIP3    H2 4887   6.849   7.011   5.739
 1644TIP3   OH2 4888   1.931   0.118   3.199
 1644TIP3    H1 4889   1.877   0.076   3.132
 1644TIP3    H2 4890   1.977   0.046   3.241
 1645TIP3   OH2 4891   3.715   0.992   6.158
 1645TIP3    H1 4892   3.672   0.939   6.091
 1645TIP3    H2 4893   3.793   1.026   6.115
 1646TIP3   OH2 4894   4.401   1.305   2.619
 1646TIP3    H1 4895   4.463   1.254   2.671
 1646TIP3    H2 4896   4.454   1.343   2.549
 1647TIP3   OH2 4897   6.634   1.258   2.411
 1647TIP3    H1 4898   6.630   1.328   2.476
 1647TIP3    H2 4899   6.544   1.225   2.406
 1648TIP3   OH2 4900   8.028   2.797   6.347
 1648TIP3    H1 4901   8.094   2.730   6.330
 1648TIP3    H2 4902   7.946   2.758   6.314
 1649TIP3   OH2 4903   5.693   4.727   3.219
 1649TIP3    H1 4904   5.660   4.642   3.189
 1649TIP3    H2 4905   5.778   4.736   3.177
 1650TIP3   OH2 4906   4.256   5.233   6.012
 1650TIP3    H1 4907   4.162   5.247   6.003
 1650TIP3    H2 4908   4.277   5.263   6.101
 1651TIP3   OH2 4909   3.729   5.262   4.075
 1651TIP3    H1 4910   3.713   5.274   3.981
 1651TIP3    H2 4911   3.658   5.309   4.118
 1652TIP3   OH2 4912   3.703   7.359   2.993
 1652TIP3    H1 4913   3.775   7.337   3.052
 1652TIP3    H2 4914   3.708   7.454   2.982
 1653TIP3   OH2 4915   7.697   4.163   6.803
 1653TIP3    H1 4916   7.786   4.131   6.784
 1653TIP3    H2 4917   7.659   4.180   6.717
 1654TIP3   OH2 4918   1.779   2.351   2.978
 1654TIP3    H1 4919   1.707   2.288   2.973
 1654TIP3    H2 4920   1.854   2.306   2.941
 1655TIP3   OH2 4921   1.855   4.101   5.584
 1655TIP3    H1 4922   1.852   4.137   5.495
 1655TIP3    H2 4923   1.805   4.019   5.578
 1656TIP3   OH2 4924   2.750   7.328   5.692
 1656TIP3    H1 4925   2.791   7.400   5.739
 1656TIP3    H2 4926   2.780   7.249   5.738
 1657TIP3   OH2 4927   7.748   6.983   4.894
 1657TIP3    H1 4928   7.749   7.023   4.981
 1657TIP3    H2 4929   7.832   7.008   4.856
 1658TIP3   OH2 4930   0.857   6.679   2.846
 1658TIP3    H1 4931   0.830   6.764   2.812
 1658TIP3    H2 4932   0.908   6.700   2.925
 1659TIP3   OH2 4933   6.187   6.255   5.425
 1659TIP3    H1 4934   6.264   6.266   5.481
 1659TIP3    H2 4935   6.113   6.260   5.485
 1660TIP3   OH2 4936   7.551   0.994   5.244
 1660TIP3    H1 4937   7.528   1.044   5.323
 1660TIP3    H2 4938   7.578   0.909   5.277
 1661TIP3   OH2 4939   1.550   5.673   4.457
 1661TIP3    H1 4940   1.590   5.618   4.390
 1661TIP3    H2 4941   1.613   5.673   4.529
 1662TIP3   OH2 4942   3.020   0.206   5.879
 1662TIP3    H1 4943   2.952   0.153   5.836
 1662TIP3    H2 4944   3.083   0.224   5.810
 1663TIP3   OH2 4945   5.479   1.498   1.461
 1663TIP3    H1 4946   5.484   1.572   1.522
 1663TIP3    H2 4947   5.493   1.421   1.516
 1664TIP3   OH2 4948   1.826   0.986   1.977
 1664TIP3    H1 4949   1.747   0.932   1.966
 1664TIP3    H2 4950   1.850   1.010   1.887
 1665TIP3   OH2 4951   7.116   3.347   3.384
 1665TIP3    H1 4952   7.135   3.441   3.385
 1665TIP3    H2 4953   7.054   3.337   3.312
 1666TIP3   OH2 4954   1.616   7.437   0.267
 1666TIP3    H1 4955   1.581   7.351   0.291
 1666TIP3    H2 4956   1.710   7.431   0.283
 1667TIP3   OH2 4957   1.429   0.605   2.334
 1667TIP3    H1 4958   1.391   0.518   2.317
 1667TIP3    H2 4959   1.489   0.591   2.407
 1668TIP3   OH2 4960   5.905   4.305   3.960
 1668TIP3    H1 4961   5.898   4.336   3.869
 1668TIP3    H2 4962   5.990   4.336   3.989
 1669TIP3   OH2 4963   0.329   5.700   5.019
 1669TIP3    H1 4964   0.343   5.624   5.075
 1669TIP3    H2 4965   0.410   5.750   5.026
 1670TIP3   OH2 4966   5.018   0.344   2.838
 1670TIP3    H1 4967   4.983   0.254   2.835
 1670TIP3    H2 4968   4.941   0.398   2.856
 1671TIP3   OH2 4969   0.811   2.077   5.487
 1671TIP3    H1 4970   0.863   2.138   5.539
 1671TIP3    H2 4971   0.738   2.053   5.543
 1672TIP3   OH2 4972   0.701   5.205   6.462
 1672TIP3    H1 4973   0.783   5.196   6.412
 1672TIP3    H2 4974   0.633   5.205   6.395
 1673TIP3   OH2 4975   3.981   4.488   3.440
 1673TIP3    H1 4976   3.901   4.454   3.399
 1673TIP3    H2 4977   4.011   4.556   3.380
 1674TIP3   OH2 4978   3.866   5.863   0.297
 1674TIP3    H1 4979   3.863   5.930   0.366
 1674TIP3    H2 4980   3.895   5.910   0.219
 1675TIP3   OH2 4981   5.227   6.336   4.960
 1675TIP3    H1 4982   5.316   6.365   4.937
 1675TIP3    H2 4983   5.234   6.241   4.966
 1676TIP3   OH2 4984   6.634   1.728   5.914
 1676TIP3    H1 4985   6.641   1.703   5.822
 1676TIP3    H2 4986   6.701   1.795   5.925
 1677TIP3   OH2 4987   3.598   2.495   4.042
 1677TIP3    H1 4988   3.611   2.465   3.952
 1677TIP3    H2 4989   3.508   2.528   4.043
 1678TIP3   OH2 4990   6.561   4.558   2.139
 1678TIP3    H1 4991   6.651   4.528   2.154
 1678TIP3    H2 4992   6.562   4.595   2.051
 1679TIP3   OH2 4993   4.073   6.257   3.055
 1679TIP3    H1 4994   4.044   6.246   3.146
 1679TIP3    H2 4995   4.019   6.195   3.005
 1680TIP3   OH2 4996   3.964   4.903   4.212
 1680TIP3    H1 4997   3.970   4.998   4.222
 1680TIP3    H2 4998   3.918   4.873   4.291
 1681TIP3   OH2 4999   8.113   4.679   5.043
 1681TIP3    H1 5000   8.081   4.769   5.044
 1681TIP3    H2 5001   8.094   4.645   5.131
 1682TIP3   OH2 5002   4.655   1.039   4.665
 1682TIP3    H1 5003   4.731   1.050   4.608
 1682TIP3    H2 5004   4.650   1.120   4.715
 1683TIP3   OH2 5005   0.410   4.675   5.578
 1683TIP3    H1 5006   0.473   4.696   5.509
 1683TIP3    H2 5007   0.405   4.754   5.631
 1684TIP3   OH2 5008   7.308   6.730   5.217
 1684TIP3    H1 5009   7.399   6.743   5.192
 1684TIP3    H2 5010   7.276   6.818   5.239
 1685TIP3   OH2 5011   2.579   5.810   0.669
 1685TIP3    H1 5012   2.537   5.784   0.587
 1685TIP3    H2 5013   2.600   5.903   0.657
 1686TIP3   OH2 5014   7.153   0.388   5.819
 1686TIP3    H1 5015   7.139   0.319   5.884
 1686TIP3    H2 5016   7.221   0.354   5.762
 1687TIP3   OH2 5017   8.249   6.203   2.669
 1687TIP3    H1 5018   8.224   6.120   2.628
 1687TIP3    H2 5019   8.208   6.270   2.614
 1688TIP3   OH2 5020   5.073   3.748   5.838
 1688TIP3    H1 5021   5.035   3.660   5.836
 1688TIP3    H2 5022   5.070   3.778   5.747
 1689TIP3   OH2 5023   2.828   6.168   0.196
 1689TIP3    H1 5024   2.769   6.205   0.262
 1689TIP3    H2 5025   2.904   6.138   0.246
 1690TIP3   OH2 5026   6.267   6.968   5.812
 1690TIP3    H1 5027   6.183   6.988   5.851
 1690TIP3    H2 5028   6.284   7.041   5.753
 1691TIP3   OH2 5029   5.797   6.420   1.463
 1691TIP3    H1 5030   5.889   6.395   1.473
 1691TIP3    H2 5031   5.797   6.515   1.469
 1692TIP3   OH2 5032   1.994   5.921   2.569
 1692TIP3    H1 5033   1.900   5.913   2.556
 1692TIP3    H2 5034   2.003   5.989   2.637
 1693TIP3   OH2 5035   6.867   2.116   5.296
 1693TIP3    H1 5036   6.950   2.158   5.273
 1693TIP3    H2 5037   6.890   2.053   5.364
 1694TIP3   OH2 5038   2.600   1.603   1.550
 1694TIP3    H1 5039   2.667   1.571   1.610
 1694TIP3    H2 5040   2.592   1.697   1.571
 1695TIP3   OH2 5041   6.006   4.609   2.118
 1695TIP3    H1 5042   5.988   4.673   2.049
 1695TIP3    H2 5043   6.007   4.525   2.072
 1696TIP3   OH2 5044   2.270   3.597   4.995
 1696TIP3    H1 5045   2.276   3.692   5.006
 1696TIP3    H2 5046   2.177   3.579   4.986
 1697TIP3   OH2 5047   3.378   5.338   4.185
 1697TIP3    H1 5048   3.296   5.335   4.236
 1697TIP3    H2 5049   3.354   5.304   4.099
 1698TIP3   OH2 5050   7.471   0.324   4.516
 1698TIP3    H1 5051   7.465   0.322   4.421
 1698TIP3    H2 5052   7.414   0.396   4.542
 1699TIP3   OH2 5053   7.128   1.388   3.872
 1699TIP3    H1 5054   7.210   1.340   3.873
 1699TIP3    H2 5055   7.123   1.424   3.783
 1700TIP3   OH2 5056   7.173   6.121   4.768
 1700TIP3    H1 5057   7.208   6.063   4.836
 1700TIP3    H2 5058   7.231   6.198   4.771
 1701TIP3   OH2 5059   7.034   2.709   2.585
 1701TIP3    H1 5060   6.942   2.730   2.572
 1701TIP3    H2 5061   7.041   2.689   2.679
 1702TIP3   OH2 5062   2.689   2.224   0.980
 1702TIP3    H1 5063   2.628   2.294   1.003
 1702TIP3    H2 5064   2.642   2.143   1.001
 1703TIP3   OH2 5065   5.393   1.818   2.938
 1703TIP3    H1 5066   5.310   1.819   2.890
 1703TIP3    H2 5067   5.379   1.880   3.010
 1704TIP3   OH2 5068   1.727   0.660   0.848
 1704TIP3    H1 5069   1.713   0.720   0.921
 1704TIP3    H2 5070   1.678   0.698   0.776
 1705TIP3   OH2 5071   4.501   4.530   4.617
 1705TIP3    H1 5072   4.438   4.562   4.552
 1705TIP3    H2 5073   4.464   4.557   4.701
 1706TIP3   OH2 5074   2.498   2.479   0.036
 1706TIP3    H1 5075   2.425   2.459   0.094
 1706TIP3    H2 5076   2.468   2.552  -0.017
 1707TIP3   OH2 5077   0.490   6.992   4.529
 1707TIP3    H1 5078   0.531   6.910   4.501
 1707TIP3    H2 5079   0.555   7.033   4.585
 1708TIP3   OH2 5080   4.377   2.289   1.225
 1708TIP3    H1 5081   4.452   2.264   1.280
 1708TIP3    H2 5082   4.365   2.214   1.167
 1709TIP3   OH2 5083   7.741   0.612   1.341
 1709TIP3    H1 5084   7.779   0.683   1.291
 1709TIP3    H2 5085   7.675   0.654   1.397
 1710TIP3   OH2 5086   5.783   5.286   4.349
 1710TIP3    H1 5087   5.835   5.240   4.415
 1710TIP3    H2 5088   5.695   5.247   4.356
 1711TIP3   OH2 5089   2.359   4.714   0.150
 1711TIP3    H1 5090   2.264   4.724   0.158
 1711TIP3    H2 5091   2.395   4.783   0.205
 1712TIP3   OH2 5092   7.825   3.083   2.400
 1712TIP3    H1 5093   7.770   3.146   2.446
 1712TIP3    H2 5094   7.881   3.046   2.468
 1713TIP3   OH2 5095   4.388   1.293   0.209
 1713TIP3    H1 5096   4.389   1.373   0.261
 1713TIP3    H2 5097   4.296   1.268   0.205
 1714TIP3   OH2 5098   4.704   1.073   5.023
 1714TIP3    H1 5099   4.781   1.018   5.034
 1714TIP3    H2 5100   4.675   1.090   5.113
 1715TIP3   OH2 5101   1.749   3.505   6.228
 1715TIP3    H1 5102   1.665   3.521   6.270
 1715TIP3    H2 5103   1.814   3.522   6.296
 1716TIP3   OH2 5104   2.981   4.579   5.391
 1716TIP3    H1 5105   2.934   4.510   5.344
 1716TIP3    H2 5106   3.008   4.538   5.473
 1717TIP3   OH2 5107   7.816   3.363   0.743
 1717TIP3    H1 5108   7.845   3.295   0.683
 1717TIP3    H2 5109   7.755   3.318   0.802
 1718TIP3   OH2 5110   2.469   7.539   3.522
 1718TIP3    H1 5111   2.518   7.602   3.576
 1718TIP3    H2 5112   2.531   7.467   3.507
 1719TIP3   OH2 5113   2.814   3.741   4.768
 1719TIP3    H1 5114   2.889   3.800   4.774
 1719TIP3    H2 5115   2.810   3.717   4.676
 1720TIP3   OH2 5116   4.157   0.337   1.585
 1720TIP3    H1 5117   4.190   0.253   1.551
 1720TIP3    H2 5118   4.161   0.396   1.510
 1721TIP3   OH2 5119   6.403   6.092   3.937
 1721TIP3    H1 5120   6.391   6.093   3.842
 1721TIP3    H2 5121   6.332   6.146   3.971
 1722TIP3   OH2 5122   0.494   7.357   6.517
 1722TIP3    H1 5123   0.533   7.271   6.530
 1722TIP3    H2 5124   0.563   7.419   6.540
 1723TIP3   OH2 5125   1.906   1.384   0.307
 1723TIP3    H1 5126   1.994   1.413   0.285
 1723TIP3    H2 5127   1.910   1.289   0.303
 1724TIP3   OH2 5128   6.180   0.566   3.619
 1724TIP3    H1 5129   6.203   0.490   3.672
 1724TIP3    H2 5130   6.246   0.568   3.550
 1725TIP3   OH2 5131   7.455   7.622   4.240
 1725TIP3    H1 5132   7.402   7.568   4.181
 1725TIP3    H2 5133   7.537   7.574   4.248
 1726TIP3   OH2 5134   7.458   1.004   0.163
 1726TIP3    H1 5135   7.485   0.976   0.250
 1726TIP3    H2 5136   7.488   1.094   0.155
 1727TIP3   OH2 5137   2.937   6.425   5.847
 1727TIP3    H1 5138   2.907   6.337   5.822
 1727TIP3    H2 5139   2.891   6.444   5.929
 1728TIP3   OH2 5140   4.372   2.848   6.356
 1728TIP3    H1 5141   4.317   2.921   6.328
 1728TIP3    H2 5142   4.350   2.777   6.297
 1729TIP3   OH2 5143   1.465   7.786   6.090
 1729TIP3    H1 5144   1.454   7.791   6.185
 1729TIP3    H2 5145   1.474   7.693   6.071
 1730TIP3   OH2 5146   2.695   4.785   2.102
 1730TIP3    H1 5147   2.747   4.861   2.075
 1730TIP3    H2 5148   2.606   4.804   2.072
 1731TIP3   OH2 5149   5.616   5.277   2.553
 1731TIP3    H1 5150   5.574   5.284   2.639
 1731TIP3    H2 5151   5.565   5.212   2.506
 1732TIP3   OH2 5152   4.181   0.323   2.203
 1732TIP3    H1 5153   4.109   0.379   2.177
 1732TIP3    H2 5154   4.259   0.377   2.192
 1733TIP3   OH2 5155   7.725   0.368   1.479
 1733TIP3    H1 5156   7.733   0.452   1.434
 1733TIP3    H2 5157   7.655   0.323   1.432
 1734TIP3   OH2 5158   4.222   7.319   5.524
 1734TIP3    H1 5159   4.192   7.405   5.496
 1734TIP3    H2 5160   4.151   7.259   5.500
 1735TIP3   OH2 5161   8.221   6.614   6.313
 1735TIP3    H1 5162   8.255   6.647   6.395
 1735TIP3    H2 5163   8.234   6.686   6.251
 1736TIP3   OH2 5164   2.516   3.708   1.125
 1736TIP3    H1 5165   2.438   3.679   1.078
 1736TIP3    H2 5166   2.536   3.637   1.186
 1737TIP3   OH2 5167   5.726   7.790   3.906
 1737TIP3    H1 5168   5.820   7.771   3.912
 1737TIP3    H2 5169   5.687   7.743   3.979
 1738TIP3   OH2 5170   1.546   0.288   5.214
 1738TIP3    H1 5171   1.592   0.207   5.190
 1738TIP3    H2 5172   1.504   0.317   5.133
 1739TIP3   OH2 5173   5.532   3.436   1.697
 1739TIP3    H1 5174   5.454   3.427   1.642
 1739TIP3    H2 5175   5.500   3.472   1.779
 1740TIP3   OH2 5176   4.266   5.141   4.433
 1740TIP3    H1 5177   4.223   5.187   4.505
 1740TIP3    H2 5178   4.359   5.145   4.454
 1741TIP3   OH2 5179   6.671   0.840   3.814
 1741TIP3    H1 5180   6.728   0.917   3.817
 1741TIP3    H2 5181   6.675   0.811   3.723
 1742TIP3   OH2 5182   6.949   0.005   6.424
 1742TIP3    H1 5183   7.035   0.014   6.383
 1742TIP3    H2 5184   6.910   0.092   6.419
 1743TIP3   OH2 5185   0.669   3.356   4.006
 1743TIP3    H1 5186   0.627   3.270   3.999
 1743TIP3    H2 5187   0.685   3.366   4.100
 1744TIP3   OH2 5188   5.495   4.690   0.108
 1744TIP3    H1 5189   5.440   4.730   0.175
 1744TIP3    H2 5190   5.456   4.717   0.025
 1745TIP3   OH2 5191   1.132   1.303   4.647
 1745TIP3    H1 5192   1.064   1.359   4.685
 1745TIP3    H2 5193   1.088   1.220   4.629
 1746TIP3   OH2 5194   3.402   2.171   6.273
 1746TIP3    H1 5195   3.350   2.148   6.350
 1746TIP3    H2 5196   3.491   2.147   6.296
 1747TIP3   OH2 5197   0.960   7.464   1.664
 1747TIP3    H1 5198   0.977   7.430   1.576
 1747TIP3    H2 5199   0.891   7.406   1.698
 1748TIP3   OH2 5200   1.372   5.057   4.712
 1748TIP3    H1 5201   1.327   4.995   4.770
 1748TIP3    H2 5202   1.321   5.137   4.719
 1749TIP3   OH2 5203   3.309   7.578   0.830
 1749TIP3    H1 5204   3.382   7.620   0.785
 1749TIP3    H2 5205   3.332   7.486   0.834
 1750TIP3   OH2 5206   8.118   4.924   1.155
 1750TIP3    H1 5207   8.024   4.942   1.156
 1750TIP3    H2 5208   8.125   4.842   1.104
 1751TIP3   OH2 5209   2.255   3.412   2.298
 1751TIP3    H1 5210   2.233   3.333   2.348
 1751TIP3    H2 5211   2.254   3.482   2.363
 1752TIP3   OH2 5212   1.866   0.963   4.494
 1752TIP3    H1 5213   1.923   1.026   4.539
 1752TIP3    H2 5214   1.792   1.014   4.464
 1753TIP3   OH2 5215   2.146   0.539   1.520
 1753TIP3    H1 5216   2.150   0.464   1.461
 1753TIP3    H2 5217   2.055   0.568   1.516
 1754TIP3   OH2 5218   7.956   0.207   1.108
 1754TIP3    H1 5219   7.939   0.294   1.072
 1754TIP3    H2 5220   7.939   0.216   1.201
 1755TIP3   OH2 5221   4.972   4.182   6.223
 1755TIP3    H1 5222   4.888   4.158   6.182
 1755TIP3    H2 5223   4.961   4.158   6.315
 1756TIP3   OH2 5224   3.278   3.638   2.052
 1756TIP3    H1 5225   3.269   3.731   2.029
 1756TIP3    H2 5226   3.347   3.636   2.118
 1757TIP3   OH2 5227   4.036   6.965   0.955
 1757TIP3    H1 5228   4.066   6.881   0.921
 1757TIP3    H2 5229   3.964   6.943   1.014
 1758TIP3   OH2 5230   7.187   2.823   1.648
 1758TIP3    H1 5231   7.267   2.802   1.696
 1758TIP3    H2 5232   7.117   2.818   1.714
 1759TIP3   OH2 5233   2.407   6.643   2.455
 1759TIP3    H1 5234   2.468   6.604   2.519
 1759TIP3    H2 5235   2.453   6.637   2.371
 1760TIP3   OH2 5236   5.774   3.095   1.830
 1760TIP3    H1 5237   5.827   3.157   1.880
 1760TIP3    H2 5238   5.687   3.103   1.867
 1761TIP3   OH2 5239   2.429   3.828   0.829
 1761TIP3    H1 5240   2.380   3.794   0.904
 1761TIP3    H2 5241   2.505   3.872   0.867
 1762TIP3   OH2 5242   3.592   2.604   0.158
 1762TIP3    H1 5243   3.524   2.552   0.203
 1762TIP3    H2 5244   3.548   2.686   0.135
 1763TIP3   OH2 5245   7.555   6.500   2.926
 1763TIP3    H1 5246   7.590   6.426   2.976
 1763TIP3    H2 5247   7.585   6.577   2.973
 1764TIP3   OH2 5248   7.655   2.833   4.515
 1764TIP3    H1 5249   7.560   2.845   4.511
 1764TIP3    H2 5250   7.689   2.889   4.445
 1765TIP3   OH2 5251   5.587   4.933   5.910
 1765TIP3    H1 5252   5.555   5.011   5.956
 1765TIP3    H2 5253   5.518   4.868   5.923
 1766TIP3   OH2 5254   6.680   0.759   6.257
 1766TIP3    H1 5255   6.663   0.681   6.309
 1766TIP3    H2 5256   6.743   0.810   6.308
 1767TIP3   OH2 5257   7.943   0.796   0.478
 1767TIP3    H1 5258   7.877   0.863   0.496
 1767TIP3    H2 5259   7.893   0.714   0.475
 1768TIP3   OH2 5260   2.029   3.423   1.619
 1768TIP3    H1 5261   1.943   3.464   1.621
 1768TIP3    H2 5262   2.012   3.330   1.610
 1769TIP3   OH2 5263   7.410   3.123   1.676
 1769TIP3    H1 5264   7.442   3.079   1.598
 1769TIP3    H2 5265   7.458   3.082   1.748
 1770TIP3   OH2 5266   2.172   3.559   6.332
 1770TIP3    H1 5267   2.205   3.480   6.289
 1770TIP3    H2 5268   2.132   3.610   6.262
 1771TIP3   OH2 5269   5.190   4.865   3.476
 1771TIP3    H1 5270   5.126   4.936   3.474
 1771TIP3    H2 5271   5.260   4.898   3.533
 1772TIP3   OH2 5272   5.071   3.375   2.344
 1772TIP3    H1 5273   5.005   3.346   2.281
 1772TIP3    H2 5274   5.140   3.309   2.338
 1773TIP3   OH2 5275   3.423   5.314   6.454
 1773TIP3    H1 5276   3.455   5.230   6.485
 1773TIP3    H2 5277   3.332   5.298   6.429
 1774TIP3   OH2 5278   7.870   6.638   5.793
 1774TIP3    H1 5279   7.884   6.544   5.782
 1774TIP3    H2 5280   7.946   6.667   5.843
 1775TIP3   OH2 5281   4.432   7.685   5.443
 1775TIP3    H1 5282   4.522   7.688   5.476
 1775TIP3    H2 5283   4.438   7.632   5.363
 1776TIP3   OH2 5284   5.043   1.514   1.362
 1776TIP3    H1 5285   5.077   1.583   1.419
 1776TIP3    H2 5286   5.008   1.561   1.286
 1777TIP3   OH2 5287   8.041   3.864   4.926
 1777TIP3    H1 5288   8.096   3.905   4.860
 1777TIP3    H2 5289   7.952   3.892   4.904
 1778TIP3   OH2 5290   4.077   5.924   2.121
 1778TIP3    H1 5291   4.083   5.873   2.201
 1778TIP3    H2 5292   3.985   5.920   2.096
 1779TIP3   OH2 5293   1.952   7.534   4.842
 1779TIP3    H1 5294   1.866   7.549   4.804
 1779TIP3    H2 5295   1.939   7.464   4.906
 1780TIP3   OH2 5296   7.256   5.871   2.965
 1780TIP3    H1 5297   7.247   5.877   2.869
 1780TIP3    H2 5298   7.321   5.803   2.979
 1781TIP3   OH2 5299   7.375   0.395   3.479
 1781TIP3    H1 5300   7.400   0.487   3.475
 1781TIP3    H2 5301   7.339   0.384   3.567
 1782TIP3   OH2 5302   1.761   2.061   1.943
 1782TIP3    H1 5303   1.848   2.034   1.912
 1782TIP3    H2 5304   1.709   2.070   1.863
 1783TIP3   OH2 5305   3.866   7.738   3.766
 1783TIP3    H1 5306   3.861   7.687   3.847
 1783TIP3    H2 5307   3.899   7.676   3.701
 1784TIP3   OH2 5308   6.448   0.368   1.789
 1784TIP3    H1 5309   6.372   0.415   1.755
 1784TIP3    H2 5310   6.433   0.277   1.765
 1785TIP3   OH2 5311   1.720   1.564   0.228
 1785TIP3    H1 5312   1.675   1.572   0.312
 1785TIP3    H2 5313   1.781   1.492   0.240
 1786TIP3   OH2 5314   8.224   0.004   2.480
 1786TIP3    H1 5315   8.256   0.047   2.558
 1786TIP3    H2 5316   8.133  -0.017   2.500
 1787TIP3   OH2 5317   1.349   0.258   3.463
 1787TIP3    H1 5318   1.278   0.288   3.406
 1787TIP3    H2 5319   1.428   0.264   3.409
 1788TIP3   OH2 5320   1.995   1.920   0.058
 1788TIP3    H1 5321   2.004   1.838   0.106
 1788TIP3    H2 5322   2.008   1.896  -0.033
 1789TIP3   OH2 5323   5.118   3.030   6.543
 1789TIP3    H1 5324   5.101   2.958   6.603
 1789TIP3    H2 5325   5.040   3.036   6.489
 1790TIP3   OH2 5326   8.057   7.140   2.054
 1790TIP3    H1 5327   8.002   7.195   1.998
 1790TIP3    H2 5328   8.138   7.190   2.064
 1791TIP3   OH2 5329   7.917   6.802   5.237
 1791TIP3    H1 5330   7.959   6.822   5.153
 1791TIP3    H2 5331   7.985   6.756   5.287
 1792TIP3   OH2 5332   0.671   7.544   2.875
 1792TIP3    H1 5333   0.585   7.501   2.872
 1792TIP3    H2 5334   0.658   7.619   2.934
 1793TIP3   OH2 5335   3.878   1.609   2.422
 1793TIP3    H1 5336   3.856   1.701   2.405
 1793TIP3    H2 5337   3.794   1.566   2.436
 1794TIP3   OH2 5338   0.344   0.105   4.394
 1794TIP3    H1 5339   0.387   0.190   4.401
 1794TIP3    H2 5340   0.380   0.066   4.314
 1795TIP3   OH2 5341   5.868   4.325   0.774
 1795TIP3    H1 5342   5.926   4.335   0.849
 1795TIP3    H2 5343   5.922   4.345   0.698
 1796TIP3   OH2 5344   0.116   4.525   6.674
 1796TIP3    H1 5345   0.112   4.509   6.580
 1796TIP3    H2 5346   0.209   4.524   6.695
 1797TIP3   OH2 5347   0.844   3.208   6.169
 1797TIP3    H1 5348   0.903   3.138   6.139
 1797TIP3    H2 5349   0.781   3.163   6.226
 1798TIP3   OH2 5350   6.904   2.222   4.343
 1798TIP3    H1 5351   6.888   2.162   4.270
 1798TIP3    H2 5352   6.982   2.271   4.317
 1799TIP3   OH2 5353   2.459   3.153   1.750
 1799TIP3    H1 5354   2.471   3.058   1.752
 1799TIP3    H2 5355   2.541   3.188   1.783
 1800TIP3   OH2 5356   1.424   3.437   1.619
 1800TIP3    H1 5357   1.399   3.349   1.591
 1800TIP3    H2 5358   1.483   3.423   1.692
 1801TIP3   OH2 5359   2.341   7.347   4.434
 1801TIP3    H1 5360   2.292   7.299   4.367
 1801TIP3    H2 5361   2.396   7.408   4.385
 1802TIP3   OH2 5362   1.738   3.492   3.264
 1802TIP3    H1 5363   1.669   3.427   3.255
 1802TIP3    H2 5364   1.722   3.533   3.349
 1803TIP3   OH2 5365   1.382   1.125   3.397
 1803TIP3    H1 5366   1.411   1.167   3.478
 1803TIP3    H2 5367   1.297   1.165   3.378
 1804TIP3   OH2 5368   5.904   5.962   1.322
 1804TIP3    H1 5369   5.861   5.953   1.237
 1804TIP3    H2 5370   5.831   5.975   1.383
 1805TIP3   OH2 5371   4.204   5.523   5.274
 1805TIP3    H1 5372   4.221   5.469   5.197
 1805TIP3    H2 5373   4.133   5.582   5.247
 1806TIP3   OH2 5374   7.540   7.789   5.118
 1806TIP3    H1 5375   7.565   7.881   5.117
 1806TIP3    H2 5376   7.491   7.777   5.037
 1807TIP3   OH2 5377   6.058   2.548   6.631
 1807TIP3    H1 5378   6.077   2.600   6.553
 1807TIP3    H2 5379   6.144   2.520   6.664
 1808TIP3   OH2 5380   2.369   6.889   1.147
 1808TIP3    H1 5381   2.291   6.835   1.133
 1808TIP3    H2 5382   2.352   6.934   1.230
 1809TIP3   OH2 5383   0.386   5.959   5.842
 1809TIP3    H1 5384   0.453   6.027   5.843
 1809TIP3    H2 5385   0.434   5.878   5.824
 1810TIP3   OH2 5386   6.570   0.146   4.310
 1810TIP3    H1 5387   6.628   0.080   4.271
 1810TIP3    H2 5388   6.521   0.098   4.377
 1811TIP3   OH2 5389   2.758   6.662   1.748
 1811TIP3    H1 5390   2.833   6.603   1.750
 1811TIP3    H2 5391   2.760   6.706   1.833
 1812TIP3   OH2 5392   7.158   6.551   3.009
 1812TIP3    H1 5393   7.089   6.486   2.993
 1812TIP3    H2 5394   7.123   6.632   2.972
 1813TIP3   OH2 5395   0.392   1.823   4.242
 1813TIP3    H1 5396   0.478   1.861   4.256
 1813TIP3    H2 5397   0.381   1.822   4.146
 1814TIP3   OH2 5398   0.185   3.643   3.675
 1814TIP3    H1 5399   0.183   3.730   3.713
 1814TIP3    H2 5400   0.269   3.637   3.631
 1815TIP3   OH2 5401   5.895   6.684   6.327
 1815TIP3    H1 5402   5.918   6.710   6.237
 1815TIP3    H2 5403   5.918   6.591   6.331
 1816TIP3   OH2 5404   3.685   1.852   2.000
 1816TIP3    H1 5405   3.596   1.853   1.967
 1816TIP3    H2 5406   3.676   1.862   2.095
 1817TIP3   OH2 5407   2.767   6.906   2.306
 1817TIP3    H1 5408   2.793   6.970   2.372
 1817TIP3    H2 5409   2.728   6.834   2.357
 1818TIP3   OH2 5410   7.034   1.431   0.710
 1818TIP3    H1 5411   7.031   1.346   0.754
 1818TIP3    H2 5412   7.039   1.495   0.781
 1819TIP3   OH2 5413   5.683   7.394   3.918
 1819TIP3    H1 5414   5.734   7.463   3.875
 1819TIP3    H2 5415   5.647   7.342   3.847
 1820TIP3   OH2 5416   3.283   2.830   3.319
 1820TIP3    H1 5417   3.205   2.864   3.363
 1820TIP3    H2 5418   3.263   2.739   3.301
 1821TIP3   OH2 5419   5.408   4.933   4.545
 1821TIP3    H1 5420   5.357   4.910   4.466
 1821TIP3    H2 5421   5.413   4.851   4.594
 1822TIP3   OH2 5422   2.571   2.209   2.090
 1822TIP3    H1 5423   2.625   2.195   2.012
 1822TIP3    H2 5424   2.544   2.121   2.116
 1823TIP3   OH2 5425   0.545   1.861   5.046
 1823TIP3    H1 5426   0.474   1.846   5.109
 1823TIP3    H2 5427   0.509   1.832   4.962
 1824TIP3   OH2 5428   1.782   0.282   1.926
 1824TIP3    H1 5429   1.866   0.238   1.941
 1824TIP3    H2 5430   1.770   0.337   2.003
 1825TIP3   OH2 5431   7.223   4.080   3.069
 1825TIP3    H1 5432   7.143   4.128   3.047
 1825TIP3    H2 5433   7.252   4.117   3.152
 1826TIP3   OH2 5434   6.792   1.386   0.965
 1826TIP3    H1 5435   6.698   1.401   0.972
 1826TIP3    H2 5436   6.802   1.321   0.896
 1827TIP3   OH2 5437   4.295   2.433   6.516
 1827TIP3    H1 5438   4.382   2.472   6.512
 1827TIP3    H2 5439   4.289   2.377   6.439
 1828TIP3   OH2 5440   6.751   7.319   6.058
 1828TIP3    H1 5441   6.754   7.310   6.153
 1828TIP3    H2 5442   6.658   7.325   6.038
 1829TIP3   OH2 5443   1.324   4.813   3.856
 1829TIP3    H1 5444   1.351   4.789   3.767
 1829TIP3    H2 5445   1.351   4.905   3.865
 1830TIP3   OH2 5446   6.795   3.287   0.809
 1830TIP3    H1 5447   6.735   3.225   0.849
 1830TIP3    H2 5448   6.828   3.339   0.882
 1831TIP3   OH2 5449   1.996   6.113   3.878
 1831TIP3    H1 5450   2.059   6.116   3.950
 1831TIP3    H2 5451   1.937   6.042   3.900
 1832TIP3   OH2 5452   0.780   1.102   6.524
 1832TIP3    H1 5453   0.690   1.074   6.505
 1832TIP3    H2 5454   0.830   1.075   6.447
 1833TIP3   OH2 5455   1.214   6.180   2.634
 1833TIP3    H1 5456   1.224   6.233   2.713
 1833TIP3    H2 5457   1.128   6.138   2.645
 1834TIP3   OH2 5458   7.410   3.773   1.306
 1834TIP3    H1 5459   7.334   3.778   1.365
 1834TIP3    H2 5460   7.382   3.713   1.237
 1835TIP3   OH2 5461   0.084   2.243   2.583
 1835TIP3    H1 5462   0.132   2.297   2.646
 1835TIP3    H2 5463   0.136   2.247   2.503
 1836TIP3   OH2 5464   1.198   7.626   4.390
 1836TIP3    H1 5465   1.201   7.721   4.381
 1836TIP3    H2 5466   1.273   7.605   4.446
 1837TIP3   OH2 5467   4.179   3.586   1.811
 1837TIP3    H1 5468   4.261   3.628   1.836
 1837TIP3    H2 5469   4.117   3.613   1.878
 1838TIP3   OH2 5470   3.292   5.266   5.827
 1838TIP3    H1 5471   3.214   5.211   5.822
 1838TIP3    H2 5472   3.323   5.271   5.737
 1839TIP3   OH2 5473   7.124   4.690   1.506
 1839TIP3    H1 5474   7.106   4.597   1.523
 1839TIP3    H2 5475   7.042   4.734   1.529
 1840TIP3   OH2 5476   0.153   1.952   4.850
 1840TIP3    H1 5477   0.192   2.036   4.874
 1840TIP3    H2 5478   0.069   1.975   4.812
 1841TIP3   OH2 5479   7.079   6.044   2.416
 1841TIP3    H1 5480   7.046   5.961   2.451
 1841TIP3    H2 5481   7.169   6.024   2.389
 1842TIP3   OH2 5482   5.404   0.960   6.025
 1842TIP3    H1 5483   5.441   0.973   5.937
 1842TIP3    H2 5484   5.476   0.983   6.084
 1843TIP3   OH2 5485   4.667   2.916   5.826
 1843TIP3    H1 5486   4.594   2.880   5.876
 1843TIP3    H2 5487   4.667   3.010   5.846
 1844TIP3   OH2 5488   6.264   4.495   5.805
 1844TIP3    H1 5489   6.322   4.568   5.826
 1844TIP3    H2 5490   6.199   4.532   5.745
 1845TIP3   OH2 5491   4.840   3.946   3.812
 1845TIP3    H1 5492   4.910   3.884   3.790
 1845TIP3    H2 5493   4.877   4.031   3.792
 1846TIP3   OH2 5494   4.302   6.303   2.912
 1846TIP3    H1 5495   4.364   6.345   2.971
 1846TIP3    H2 5496   4.217   6.310   2.957
 1847TIP3   OH2 5497   5.288   3.869   4.871
 1847TIP3    H1 5498   5.334   3.786   4.858
 1847TIP3    H2 5499   5.301   3.889   4.964
 1848TIP3   OH2 5500   0.490   2.195   4.095
 1848TIP3    H1 5501   0.506   2.116   4.044
 1848TIP3    H2 5502   0.458   2.259   4.031
 1849TIP3   OH2 5503   6.879   2.809   4.044
 1849TIP3    H1 5504   6.927   2.773   4.119
 1849TIP3    H2 5505   6.944   2.859   3.995
 1850TIP3   OH2 5506   2.824   6.139   3.828
 1850TIP3    H1 5507   2.763   6.129   3.755
 1850TIP3    H2 5508   2.884   6.209   3.799
 1851TIP3   OH2 5509   5.271   3.749   6.516
 1851TIP3    H1 5510   5.352   3.795   6.534
 1851TIP3    H2 5511   5.244   3.779   6.429
 1852TIP3   OH2 5512   2.077   0.372   3.879
 1852TIP3    H1 5513   2.128   0.428   3.939
 1852TIP3    H2 5514   2.025   0.317   3.937
 1853TIP3   OH2 5515   6.649   6.838   4.404
 1853TIP3    H1 5516   6.674   6.930   4.407
 1853TIP3    H2 5517   6.728   6.790   4.429
 1854TIP3   OH2 5518   6.188   1.042   1.637
 1854TIP3    H1 5519   6.266   1.097   1.626
 1854TIP3    H2 5520   6.191   1.015   1.729
 1855TIP3   OH2 5521   4.212   0.192   4.362
 1855TIP3    H1 5522   4.208   0.125   4.294
 1855TIP3    H2 5523   4.293   0.240   4.344
 1856TIP3   OH2 5524   3.684   7.489   3.771
 1856TIP3    H1 5525   3.645   7.552   3.711
 1856TIP3    H2 5526   3.631   7.496   3.851
 1857TIP3   OH2 5527   8.143   1.713   4.130
 1857TIP3    H1 5528   8.171   1.798   4.097
 1857TIP3    H2 5529   8.070   1.733   4.189
 1858TIP3   OH2 5530   2.403   1.507   3.824
 1858TIP3    H1 5531   2.432   1.432   3.876
 1858TIP3    H2 5532   2.424   1.483   3.734
 1859TIP3   OH2 5533   5.281   0.206   2.674
 1859TIP3    H1 5534   5.207   0.170   2.626
 1859TIP3    H2 5535   5.350   0.215   2.608
 1860TIP3   OH2 5536   7.853   4.763   1.451
 1860TIP3    H1 5537   7.828   4.781   1.542
 1860TIP3    H2 5538   7.785   4.806   1.399
 1861TIP3   OH2 5539   3.381   6.991   1.670
 1861TIP3    H1 5540   3.334   7.048   1.731
 1861TIP3    H2 5541   3.323   6.984   1.595
 1862TIP3   OH2 5542   4.947   0.544   3.177
 1862TIP3    H1 5543   4.987   0.473   3.126
 1862TIP3    H2 5544   5.002   0.550   3.256
 1863TIP3   OH2 5545   3.794   5.371   3.147
 1863TIP3    H1 5546   3.719   5.430   3.156
 1863TIP3    H2 5547   3.804   5.331   3.233
 1864TIP3   OH2 5548   1.513   1.688   0.643
 1864TIP3    H1 5549   1.426   1.699   0.605
 1864TIP3    H2 5550   1.561   1.636   0.578
 1865TIP3   OH2 5551   0.058   5.243   1.941
 1865TIP3    H1 5552   0.013   5.311   1.889
 1865TIP3    H2 5553   0.095   5.184   1.876
 1866TIP3   OH2 5554   4.041   5.387   2.092
 1866TIP3    H1 5555   4.045   5.461   2.031
 1866TIP3    H2 5556   4.126   5.344   2.082
 1867TIP3   OH2 5557   8.097   2.089   2.668
 1867TIP3    H1 5558   8.085   2.167   2.723
 1867TIP3    H2 5559   8.110   2.123   2.580
 1868TIP3   OH2 5560   2.115   6.501   2.861
 1868TIP3    H1 5561   2.064   6.556   2.920
 1868TIP3    H2 5562   2.049   6.456   2.808
 1869TIP3   OH2 5563   6.689   3.505   2.532
 1869TIP3    H1 5564   6.730   3.429   2.491
 1869TIP3    H2 5565   6.665   3.475   2.619
 1870TIP3   OH2 5566   5.292   0.762   3.794
 1870TIP3    H1 5567   5.264   0.854   3.795
 1870TIP3    H2 5568   5.308   0.742   3.886
 1871TIP3   OH2 5569   1.536   1.825   6.177
 1871TIP3    H1 5570   1.576   1.769   6.111
 1871TIP3    H2 5571   1.519   1.908   6.131
 1872TIP3   OH2 5572   6.295   6.237   3.244
 1872TIP3    H1 5573   6.334   6.289   3.314
 1872TIP3    H2 5574   6.292   6.148   3.279
 1873TIP3   OH2 5575   8.084   5.365   2.834
 1873TIP3    H1 5576   7.989   5.349   2.832
 1873TIP3    H2 5577   8.110   5.342   2.923
 1874TIP3   OH2 5578   4.885   7.376   2.176
 1874TIP3    H1 5579   4.830   7.412   2.106
 1874TIP3    H2 5580   4.920   7.294   2.140
 1875TIP3   OH2 5581   3.429   4.444   3.987
 1875TIP3    H1 5582   3.520   4.455   3.962
 1875TIP3    H2 5583   3.381   4.507   3.933
 1876TIP3   OH2 5584   3.831   3.709   3.732
 1876TIP3    H1 5585   3.827   3.644   3.662
 1876TIP3    H2 5586   3.742   3.712   3.767
 1877TIP3   OH2 5587   7.472   5.160   3.296
 1877TIP3    H1 5588   7.480   5.178   3.390
 1877TIP3    H2 5589   7.548   5.105   3.275
 1878TIP3   OH2 5590   6.870   2.395   4.795
 1878TIP3    H1 5591   6.779   2.381   4.768
 1878TIP3    H2 5592   6.912   2.437   4.720
 1879TIP3   OH2 5593   3.110   2.952   2.466
 1879TIP3    H1 5594   3.022   2.963   2.500
 1879TIP3    H2 5595   3.165   3.007   2.522
 1880TIP3   OH2 5596   7.009   3.114   4.274
 1880TIP3    H1 5597   6.998   3.187   4.334
 1880TIP3    H2 5598   6.951   3.134   4.201
 1881TIP3   OH2 5599   2.470   3.143   3.366
 1881TIP3    H1 5600   2.477   3.210   3.435
 1881TIP3    H2 5601   2.540   3.164   3.305
 1882TIP3   OH2 5602   1.570   0.294   2.711
 1882TIP3    H1 5603   1.560   0.220   2.651
 1882TIP3    H2 5604   1.664   0.313   2.711
 1883TIP3   OH2 5605   3.707   4.286   2.948
 1883TIP3    H1 5606   3.677   4.366   2.905
 1883TIP3    H2 5607   3.792   4.309   2.985
 1884TIP3   OH2 5608   2.059   7.049   1.491
 1884TIP3    H1 5609   2.072   7.123   1.551
 1884TIP3    H2 5610   2.118   7.068   1.418
 1885TIP3   OH2 5611   6.571   5.787   1.929
 1885TIP3    H1 5612   6.487   5.812   1.892
 1885TIP3    H2 5613   6.597   5.862   1.983
 1886TIP3   OH2 5614   1.463   7.336   1.722
 1886TIP3    H1 5615   1.370   7.316   1.720
 1886TIP3    H2 5616   1.468   7.421   1.764
 1887TIP3   OH2 5617   5.049   2.891   5.189
 1887TIP3    H1 5618   5.084   2.911   5.102
 1887TIP3    H2 5619   4.978   2.829   5.173
 1888TIP3   OH2 5620   1.465   6.480   0.052
 1888TIP3    H1 5621   1.555   6.496   0.023
 1888TIP3    H2 5622   1.455   6.385   0.052
 1889TIP3   OH2 5623   3.023   2.938   3.321
 1889TIP3    H1 5624   2.989   2.917   3.234
 1889TIP3    H2 5625   2.966   2.890   3.381
 1890TIP3   OH2 5626   0.572   0.793   2.202
 1890TIP3    H1 5627   0.569   0.733   2.127
 1890TIP3    H2 5628   0.539   0.876   2.167
 1891TIP3   OH2 5629   7.117   3.354   6.584
 1891TIP3    H1 5630   7.089   3.443   6.562
 1891TIP3    H2 5631   7.210   3.363   6.606
 1892TIP3   OH2 5632   8.020   5.686   4.494
 1892TIP3    H1 5633   8.061   5.648   4.572
 1892TIP3    H2 5634   8.024   5.780   4.508
 1893TIP3   OH2 5635   5.766   0.445   5.666
 1893TIP3    H1 5636   5.765   0.382   5.737
 1893TIP3    H2 5637   5.767   0.392   5.586
 1894TIP3   OH2 5638   2.842   5.727   3.091
 1894TIP3    H1 5639   2.869   5.818   3.102
 1894TIP3    H2 5640   2.917   5.685   3.048
 1895TIP3   OH2 5641   6.752   6.546   4.303
 1895TIP3    H1 5642   6.718   6.592   4.226
 1895TIP3    H2 5643   6.814   6.482   4.268
 1896TIP3   OH2 5644   2.466   2.265   1.690
 1896TIP3    H1 5645   2.473   2.181   1.736
 1896TIP3    H2 5646   2.557   2.288   1.669
 1897TIP3   OH2 5647   2.603   0.915   2.021
 1897TIP3    H1 5648   2.673   0.976   1.996
 1897TIP3    H2 5649   2.619   0.838   1.967
 1898TIP3   OH2 5650   3.606   4.113   2.674
 1898TIP3    H1 5651   3.700   4.123   2.659
 1898TIP3    H2 5652   3.592   4.147   2.763
 1899TIP3   OH2 5653   1.233   2.610   6.267
 1899TIP3    H1 5654   1.144   2.578   6.278
 1899TIP3    H2 5655   1.269   2.614   6.356
 1900TIP3   OH2 5656   3.000   7.590   1.462
 1900TIP3    H1 5657   2.946   7.658   1.422
 1900TIP3    H2 5658   3.062   7.565   1.394
 1901TIP3   OH2 5659   5.423   0.516   1.842
 1901TIP3    H1 5660   5.342   0.491   1.885
 1901TIP3    H2 5661   5.491   0.463   1.884
 1902TIP3   OH2 5662   8.248   7.537   0.104
 1902TIP3    H1 5663   8.187   7.607   0.078
 1902TIP3    H2 5664   8.331   7.583   0.121
 1903TIP3   OH2 5665   5.531   0.879   3.466
 1903TIP3    H1 5666   5.544   0.909   3.376
 1903TIP3    H2 5667   5.534   0.783   3.460
 1904TIP3   OH2 5668   3.548   4.884   1.963
 1904TIP3    H1 5669   3.533   4.915   1.874
 1904TIP3    H2 5670   3.623   4.934   1.993
 1905TIP3   OH2 5671   4.138   0.281   3.516
 1905TIP3    H1 5672   4.092   0.202   3.544
 1905TIP3    H2 5673   4.187   0.309   3.593
 1906TIP3   OH2 5674   6.734   4.707   6.243
 1906TIP3    H1 5675   6.713   4.740   6.155
 1906TIP3    H2 5676   6.825   4.677   6.236
 1907TIP3   OH2 5677   7.479   2.183   6.300
 1907TIP3    H1 5678   7.478   2.089   6.315
 1907TIP3    H2 5679   7.389   2.204   6.274
 1908TIP3   OH2 5680   1.098   0.065   1.871
 1908TIP3    H1 5681   1.076   0.086   1.962
 1908TIP3    H2 5682   1.056  -0.019   1.855
 1909TIP3   OH2 5683   6.580   4.195   5.038
 1909TIP3    H1 5684   6.594   4.229   4.949
 1909TIP3    H2 5685   6.548   4.270   5.088
 1910TIP3   OH2 5686   8.121   5.021   4.738
 1910TIP3    H1 5687   8.164   4.956   4.682
 1910TIP3    H2 5688   8.040   4.978   4.767
 1911TIP3   OH2 5689   0.284   2.260   2.385
 1911TIP3    H1 5690   0.349   2.284   2.451
 1911TIP3    H2 5691   0.318   2.299   2.304
 1912TIP3   OH2 5692   5.601   4.281   5.247
 1912TIP3    H1 5693   5.551   4.301   5.327
 1912TIP3    H2 5694   5.618   4.187   5.254
 1913TIP3   OH2 5695   1.527   0.101   4.135
 1913TIP3    H1 5696   1.500   0.161   4.204
 1913TIP3    H2 5697   1.483   0.134   4.056
 1914TIP3   OH2 5698   1.706   6.614   0.830
 1914TIP3    H1 5699   1.615   6.629   0.802
 1914TIP3    H2 5700   1.731   6.532   0.787
 1915TIP3   OH2 5701   5.015   5.586   6.702
 1915TIP3    H1 5702   5.063   5.579   6.784
 1915TIP3    H2 5703   4.942   5.524   6.712
 1916TIP3   OH2 5704   4.775   7.307   5.169
 1916TIP3    H1 5705   4.849   7.367   5.160
 1916TIP3    H2 5706   4.812   7.230   5.213
 1917TIP3   OH2 5707   2.369   2.401   4.902
 1917TIP3    H1 5708   2.375   2.491   4.935
 1917TIP3    H2 5709   2.447   2.358   4.937
 1918TIP3   OH2 5710   5.344   4.006   3.222
 1918TIP3    H1 5711   5.373   4.096   3.211
 1918TIP3    H2 5712   5.260   4.014   3.269
 1919TIP3   OH2 5713   3.907   1.434   0.389
 1919TIP3    H1 5714   3.819   1.462   0.412
 1919TIP3    H2 5715   3.921   1.355   0.442
 1920TIP3   OH2 5716   2.789   1.292   0.856
 1920TIP3    H1 5717   2.750   1.210   0.825
 1920TIP3    H2 5718   2.850   1.317   0.786
 1921TIP3   OH2 5719   5.726   7.675   4.778
 1921TIP3    H1 5720   5.716   7.594   4.730
 1921TIP3    H2 5721   5.812   7.709   4.751
 1922TIP3   OH2 5722   4.459   3.696   5.159
 1922TIP3    H1 5723   4.512   3.718   5.082
 1922TIP3    H2 5724   4.480   3.765   5.222
 1923TIP3   OH2 5725   7.739   3.623   6.614
 1923TIP3    H1 5726   7.750   3.697   6.554
 1923TIP3    H2 5727   7.663   3.646   6.667
 1924TIP3   OH2 5728   6.882   1.827   5.872
 1924TIP3    H1 5729   6.948   1.895   5.880
 1924TIP3    H2 5730   6.922   1.750   5.912
 1925TIP3   OH2 5731   5.505   7.449   6.377
 1925TIP3    H1 5732   5.519   7.403   6.294
 1925TIP3    H2 5733   5.583   7.503   6.389
 1926TIP3   OH2 5734   1.468   0.284   1.320
 1926TIP3    H1 5735   1.536   0.220   1.338
 1926TIP3    H2 5736   1.445   0.319   1.406
 1927TIP3   OH2 5737   4.396   5.824   4.354
 1927TIP3    H1 5738   4.333   5.866   4.412
 1927TIP3    H2 5739   4.345   5.758   4.307
 1928TIP3   OH2 5740   2.482   2.607   5.521
 1928TIP3    H1 5741   2.546   2.544   5.554
 1928TIP3    H2 5742   2.404   2.555   5.502
 1929TIP3   OH2 5743   3.813   3.560   2.487
 1929TIP3    H1 5744   3.744   3.626   2.499
 1929TIP3    H2 5745   3.843   3.540   2.576
 1930TIP3   OH2 5746   1.301   6.897   6.607
 1930TIP3    H1 5747   1.338   6.835   6.669
 1930TIP3    H2 5748   1.212   6.912   6.637
 1931TIP3   OH2 5749   5.973   2.783   2.361
 1931TIP3    H1 5750   6.055   2.759   2.403
 1931TIP3    H2 5751   5.946   2.863   2.407
 1932TIP3   OH2 5752   5.702   6.094   5.417
 1932TIP3    H1 5753   5.707   6.152   5.493
 1932TIP3    H2 5754   5.626   6.124   5.368
 1933TIP3   OH2 5755   7.239   5.163   0.175
 1933TIP3    H1 5756   7.253   5.074   0.143
 1933TIP3    H2 5757   7.327   5.200   0.180
 1934TIP3   OH2 5758   2.825   7.472   3.555
 1934TIP3    H1 5759   2.899   7.417   3.529
 1934TIP3    H2 5760   2.825   7.544   3.492
 1935TIP3   OH2 5761   1.576   7.500   2.002
 1935TIP3    H1 5762   1.629   7.521   1.925
 1935TIP3    H2 5763   1.633   7.443   2.054
 1936TIP3   OH2 5764   4.350   7.352   0.275
 1936TIP3    H1 5765   4.386   7.427   0.323
 1936TIP3    H2 5766   4.414   7.282   0.290
 1937TIP3   OH2 5767   0.321   0.897   2.577
 1937TIP3    H1 5768   0.316   0.982   2.620
 1937TIP3    H2 5769   0.386   0.909   2.508
 1938TIP3   OH2 5770   1.414   6.947   2.008
 1938TIP3    H1 5771   1.438   7.024   2.060
 1938TIP3    H2 5772   1.483   6.883   2.028
 1939TIP3   OH2 5773   4.416   4.912   5.021
 1939TIP3    H1 5774   4.409   4.998   5.062
 1939TIP3    H2 5775   4.498   4.915   4.972
 1940TIP3   OH2 5776   7.608   5.641   6.716
 1940TIP3    H1 5777   7.516   5.624   6.694
 1940TIP3    H2 5778   7.622   5.591   6.797
 1941TIP3   OH2 5779   2.078   4.843   4.628
 1941TIP3    H1 5780   2.033   4.759   4.622
 1941TIP3    H2 5781   2.093   4.870   4.537
 1942TIP3   OH2 5782   8.199   3.338   4.132
 1942TIP3    H1 5783   8.286   3.346   4.171
 1942TIP3    H2 5784   8.139   3.333   4.207
 1943TIP3   OH2 5785   0.249   1.496   6.046
 1943TIP3    H1 5786   0.209   1.452   6.121
 1943TIP3    H2 5787   0.300   1.567   6.084
 1944TIP3   OH2 5788   1.168   0.214   5.158
 1944TIP3    H1 5789   1.173   0.213   5.063
 1944TIP3    H2 5790   1.213   0.295   5.183
 1945TIP3   OH2 5791   2.059   4.626   1.291
 1945TIP3    H1 5792   2.066   4.667   1.378
 1945TIP3    H2 5793   2.101   4.688   1.232
 1946TIP3   OH2 5794   4.783   7.423   4.857
 1946TIP3    H1 5795   4.764   7.362   4.929
 1946TIP3    H2 5796   4.746   7.380   4.779
 1947TIP3   OH2 5797   2.948   4.059   2.882
 1947TIP3    H1 5798   3.014   4.090   2.945
 1947TIP3    H2 5799   2.891   4.002   2.934
 1948TIP3   OH2 5800   6.940   5.188   2.762
 1948TIP3    H1 5801   7.013   5.137   2.798
 1948TIP3    H2 5802   6.980   5.246   2.698
 1949TIP3   OH2 5803   1.013   3.470   2.593
 1949TIP3    H1 5804   1.021   3.507   2.681
 1949TIP3    H2 5805   0.920   3.474   2.573
 1950TIP3   OH2 5806   3.184   0.036   2.368
 1950TIP3    H1 5807   3.216   0.013   2.281
 1950TIP3    H2 5808   3.099  -0.008   2.374
 1951TIP3   OH2 5809   3.709   0.437   4.950
 1951TIP3    H1 5810   3.662   0.456   4.869
 1951TIP3    H2 5811   3.726   0.343   4.947
 1952TIP3   OH2 5812   0.042   4.610   0.957
 1952TIP3    H1 5813   0.089   4.683   0.917
 1952TIP3    H2 5814   0.045   4.541   0.890
 1953TIP3   OH2 5815   3.913   7.618   3.434
 1953TIP3    H1 5816   3.848   7.684   3.457
 1953TIP3    H2 5817   3.918   7.620   3.339
 1954TIP3   OH2 5818   7.284   3.865   3.283
 1954TIP3    H1 5819   7.365   3.866   3.335
 1954TIP3    H2 5820   7.300   3.927   3.212
 1955TIP3   OH2 5821   7.435   0.549   0.219
 1955TIP3    H1 5822   7.461   0.504   0.139
 1955TIP3    H2 5823   7.378   0.620   0.190
 1956TIP3   OH2 5824   0.438   2.828   1.712
 1956TIP3    H1 5825   0.359   2.774   1.705
 1956TIP3    H2 5826   0.407   2.910   1.749
 1957TIP3   OH2 5827   4.079   2.921   1.078
 1957TIP3    H1 5828   4.075   2.946   1.170
 1957TIP3    H2 5829   4.162   2.957   1.047
 1958TIP3   OH2 5830   0.422   7.472   1.433
 1958TIP3    H1 5831   0.458   7.559   1.415
 1958TIP3    H2 5832   0.345   7.465   1.375
 1959TIP3   OH2 5833   7.674   3.306   2.571
 1959TIP3    H1 5834   7.608   3.352   2.623
 1959TIP3    H2 5835   7.644   3.315   2.481
 1960TIP3   OH2 5836   3.209   6.854   0.455
 1960TIP3    H1 5837   3.159   6.929   0.424
 1960TIP3    H2 5838   3.143   6.788   0.476
 1961TIP3   OH2 5839   4.437   0.788   2.669
 1961TIP3    H1 5840   4.383   0.867   2.662
 1961TIP3    H2 5841   4.385   0.728   2.723
 1962TIP3   OH2 5842   6.690   4.817   0.757
 1962TIP3    H1 5843   6.775   4.839   0.718
 1962TIP3    H2 5844   6.678   4.884   0.825
 1963TIP3   OH2 5845   4.401   0.093   5.487
 1963TIP3    H1 5846   4.373   0.064   5.574
 1963TIP3    H2 5847   4.377   0.185   5.483
 1964TIP3   OH2 5848   7.191   3.674   0.510
 1964TIP3    H1 5849   7.192   3.621   0.590
 1964TIP3    H2 5850   7.199   3.611   0.439
 1965TIP3   OH2 5851   6.468   6.583   3.178
 1965TIP3    H1 5852   6.410   6.597   3.103
 1965TIP3    H2 5853   6.410   6.552   3.248
 1966TIP3   OH2 5854   0.398   3.695   2.399
 1966TIP3    H1 5855   0.447   3.771   2.367
 1966TIP3    H2 5856   0.430   3.683   2.489
 1967TIP3   OH2 5857   6.942   7.768   4.514
 1967TIP3    H1 5858   7.016   7.828   4.528
 1967TIP3    H2 5859   6.977   7.700   4.456
 1968TIP3   OH2 5860   5.519   3.255   4.003
 1968TIP3    H1 5861   5.497   3.230   3.913
 1968TIP3    H2 5862   5.443   3.306   4.033
 1969TIP3   OH2 5863   4.546   3.259   4.214
 1969TIP3    H1 5864   4.543   3.236   4.121
 1969TIP3    H2 5865   4.582   3.347   4.215
 1970TIP3   OH2 5866   2.041   1.677   1.995
 1970TIP3    H1 5867   2.036   1.762   1.951
 1970TIP3    H2 5868   1.980   1.684   2.068
 1971TIP3   OH2 5869   4.019   2.587   1.756
 1971TIP3    H1 5870   4.032   2.544   1.672
 1971TIP3    H2 5871   4.084   2.657   1.757
 1972TIP3   OH2 5872   6.644   5.298   1.464
 1972TIP3    H1 5873   6.696   5.297   1.545
 1972TIP3    H2 5874   6.689   5.362   1.408
 1973TIP3   OH2 5875   3.684   1.582   0.130
 1973TIP3    H1 5876   3.708   1.557   0.220
 1973TIP3    H2 5877   3.596   1.619   0.138
 1974TIP3   OH2 5878   1.087   4.269   5.159
 1974TIP3    H1 5879   1.088   4.173   5.151
 1974TIP3    H2 5880   1.127   4.300   5.078
 1975TIP3   OH2 5881   7.975   4.086   1.314
 1975TIP3    H1 5882   7.974   4.162   1.371
 1975TIP3    H2 5883   8.046   4.031   1.348
 1976TIP3   OH2 5884   3.228   7.051   2.790
 1976TIP3    H1 5885   3.167   7.103   2.843
 1976TIP3    H2 5886   3.257   7.111   2.721
 1977TIP3   OH2 5887   1.006   2.371   2.315
 1977TIP3    H1 5888   1.014   2.276   2.311
 1977TIP3    H2 5889   0.982   2.397   2.226
 1978TIP3   OH2 5890   4.569   0.834   5.960
 1978TIP3    H1 5891   4.497   0.804   5.904
 1978TIP3    H2 5892   4.647   0.795   5.920
 1979TIP3   OH2 5893   8.254   3.879   5.814
 1979TIP3    H1 5894   8.272   3.875   5.720
 1979TIP3    H2 5895   8.227   3.791   5.837
 1980TIP3   OH2 5896   6.903   3.123   1.821
 1980TIP3    H1 5897   6.872   3.165   1.901
 1980TIP3    H2 5898   6.996   3.146   1.816
 1981TIP3   OH2 5899   6.459   1.765   6.130
 1981TIP3    H1 5900   6.487   1.702   6.064
 1981TIP3    H2 5901   6.520   1.838   6.122
 1982TIP3   OH2 5902   4.436   7.008   0.089
 1982TIP3    H1 5903   4.518   6.963   0.072
 1982TIP3    H2 5904   4.435   7.020   0.184
 1983TIP3   OH2 5905   2.237   7.229   2.923
 1983TIP3    H1 5906   2.206   7.223   2.832
 1983TIP3    H2 5907   2.212   7.145   2.962
 1984TIP3   OH2 5908   3.681   7.195   0.123
 1984TIP3    H1 5909   3.700   7.158   0.037
 1984TIP3    H2 5910   3.755   7.168   0.178
 1985TIP3   OH2 5911   3.458   2.750   2.230
 1985TIP3    H1 5912   3.422   2.821   2.177
 1985TIP3    H2 5913   3.469   2.788   2.317
 1986TIP3   OH2 5914   4.452   4.357   1.505
 1986TIP3    H1 5915   4.479   4.337   1.415
 1986TIP3    H2 5916   4.533   4.349   1.556
 1987TIP3   OH2 5917   4.815   4.340   2.637
 1987TIP3    H1 5918   4.867   4.259   2.634
 1987TIP3    H2 5919   4.742   4.323   2.577
 1988TIP3   OH2 5920   5.495   3.063   4.830
 1988TIP3    H1 5921   5.548   2.986   4.850
 1988TIP3    H2 5922   5.447   3.040   4.750
 1989TIP3   OH2 5923   3.053   3.505   6.572
 1989TIP3    H1 5924   2.962   3.508   6.600
 1989TIP3    H2 5925   3.052   3.540   6.483
 1990TIP3   OH2 5926   5.848   2.487   2.818
 1990TIP3    H1 5927   5.821   2.494   2.910
 1990TIP3    H2 5928   5.931   2.440   2.821
 1991TIP3   OH2 5929   7.911   5.558   2.299
 1991TIP3    H1 5930   7.891   5.652   2.305
 1991TIP3    H2 5931   7.826   5.515   2.301
 1992TIP3   OH2 5932   0.390   6.004   4.808
 1992TIP3    H1 5933   0.445   5.975   4.735
 1992TIP3    H2 5934   0.307   6.028   4.767
 1993TIP3   OH2 5935   3.824   5.236   2.332
 1993TIP3    H1 5936   3.911   5.250   2.296
 1993TIP3    H2 5937   3.835   5.246   2.427
 1994TIP3   OH2 5938   1.657   6.981   5.474
 1994TIP3    H1 5939   1.690   7.069   5.455
 1994TIP3    H2 5940   1.708   6.952   5.550
 1995TIP3   OH2 5941   4.874   6.088   6.062
 1995TIP3    H1 5942   4.842   6.179   6.058
 1995TIP3    H2 5943   4.915   6.081   6.148
 1996TIP3   OH2 5944   0.015   6.812   3.966
 1996TIP3    H1 5945   0.065   6.791   4.045
 1996TIP3    H2 5946   0.080   6.844   3.904
 1997TIP3   OH2 5947   7.702   3.056   1.140
 1997TIP3    H1 5948   7.779   3.060   1.197
 1997TIP3    H2 5949   7.665   2.969   1.157
 1998TIP3   OH2 5950   4.190   5.148   4.897
 1998TIP3    H1 5951   4.163   5.186   4.813
 1998TIP3    H2 5952   4.285   5.142   4.891
 1999TIP3   OH2 5953   5.447   2.012   1.778
 1999TIP3    H1 5954   5.352   2.018   1.783
 1999TIP3    H2 5955   5.473   2.086   1.723
 2000TIP3   OH2 5956   3.253   7.167   1.851
 2000TIP3    H1 5957   3.159   7.166   1.837
 2000TIP3    H2 5958   3.264   7.145   1.944
 2001TIP3   OH2 5959   7.882   5.147   3.859
 2001TIP3    H1 5960   7.844   5.120   3.943
 2001TIP3    H2 5961   7.907   5.238   3.873
 2002TIP3   OH2 5962   1.528   6.492   4.112
 2002TIP3    H1 5963   1.563   6.405   4.130
 2002TIP3    H2 5964   1.571   6.549   4.177
 2003TIP3   OH2 5965   8.052   6.145   0.964
 2003TIP3    H1 5966   7.991   6.103   1.025
 2003TIP3    H2 5967   8.138   6.132   1.003
 2004TIP3   OH2 5968   8.021   2.747   1.691
 2004TIP3    H1 5969   8.009   2.679   1.625
 2004TIP3    H2 5970   7.933   2.770   1.720
 2005TIP3   OH2 5971   2.075   4.893   5.998
 2005TIP3    H1 5972   1.991   4.903   6.042
 2005TIP3    H2 5973   2.128   4.965   6.033
 2006TIP3   OH2 5974   1.778   6.610   1.602
 2006TIP3    H1 5975   1.791   6.618   1.508
 2006TIP3    H2 5976   1.686   6.633   1.616
 2007TIP3   OH2 5977   0.566   5.760   1.337
 2007TIP3    H1 5978   0.557   5.667   1.357
 2007TIP3    H2 5979   0.522   5.805   1.409
 2008TIP3   OH2 5980   1.082   5.663   5.499
 2008TIP3    H1 5981   1.173   5.683   5.519
 2008TIP3    H2 5982   1.036   5.747   5.505
 2009TIP3   OH2 5983   3.992   6.496   6.294
 2009TIP3    H1 5984   3.906   6.536   6.281
 2009TIP3    H2 5985   3.972   6.408   6.326
 2010TIP3   OH2 5986   6.359   1.545   5.181
 2010TIP3    H1 5987   6.451   1.553   5.208
 2010TIP3    H2 5988   6.320   1.629   5.205
 2011TIP3   OH2 5989   0.858   6.204   3.452
 2011TIP3    H1 5990   0.803   6.249   3.515
 2011TIP3    H2 5991   0.847   6.253   3.370
 2012TIP3   OH2 5992   0.393   3.127   0.629
 2012TIP3    H1 5993   0.318   3.070   0.613
 2012TIP3    H2 5994   0.359   3.196   0.686
 2013TIP3   OH2 5995   6.577   7.336   2.273
 2013TIP3    H1 5996   6.506   7.327   2.209
 2013TIP3    H2 5997   6.559   7.268   2.338
 2014TIP3   OH2 5998   5.136   7.747   1.965
 2014TIP3    H1 5999   5.091   7.786   2.040
 2014TIP3    H2 6000   5.229   7.757   1.987
 2015TIP3   OH2 6001   2.642   3.287   6.323
 2015TIP3    H1 6002   2.615   3.291   6.231
 2015TIP3    H2 6003   2.737   3.276   6.320
 2016TIP3   OH2 6004   7.592   6.087   5.009
 2016TIP3    H1 6005   7.524   6.120   4.951
 2016TIP3    H2 6006   7.545   6.034   5.073
 2017TIP3   OH2 6007   6.654   1.582   5.160
 2017TIP3    H1 6008   6.654   1.580   5.064
 2017TIP3    H2 6009   6.666   1.675   5.182
 2018TIP3   OH2 6010   5.207   5.088   2.177
 2018TIP3    H1 6011   5.259   5.157   2.135
 2018TIP3    H2 6012   5.226   5.010   2.126
 2019TIP3   OH2 6013   2.815   3.664   3.256
 2019TIP3    H1 6014   2.831   3.745   3.207
 2019TIP3    H2 6015   2.896   3.648   3.303
 2020TIP3   OH2 6016   5.406   2.847   4.290
 2020TIP3    H1 6017   5.345   2.774   4.291
 2020TIP3    H2 6018   5.355   2.921   4.259
 2021TIP3   OH2 6019   1.200   6.642   2.789
 2021TIP3    H1 6020   1.243   6.673   2.709
 2021TIP3    H2 6021   1.106   6.645   2.768
 2022TIP3   OH2 6022   4.777   0.639   4.761
 2022TIP3    H1 6023   4.732   0.580   4.701
 2022TIP3    H2 6024   4.710   0.702   4.788
 2023TIP3   OH2 6025   6.406   6.757   6.435
 2023TIP3    H1 6026   6.450   6.791   6.356
 2023TIP3    H2 6027   6.328   6.813   6.444
 2024TIP3   OH2 6028   6.222   6.561   0.494
 2024TIP3    H1 6029   6.175   6.572   0.577
 2024TIP3    H2 6030   6.153   6.544   0.430
 2025TIP3   OH2 6031   0.900   3.649   0.341
 2025TIP3    H1 6032   0.843   3.604   0.403
 2025TIP3    H2 6033   0.871   3.740   0.343
 2026TIP3   OH2 6034   0.910   7.650   0.928
 2026TIP3    H1 6035   0.879   7.583   0.989
 2026TIP3    H2 6036   0.874   7.624   0.843
 2027TIP3   OH2 6037   6.927   3.574   2.905
 2027TIP3    H1 6038   6.998   3.515   2.882
 2027TIP3    H2 6039   6.937   3.648   2.845
 2028TIP3   OH2 6040   2.356   3.574   3.414
 2028TIP3    H1 6041   2.382   3.578   3.322
 2028TIP3    H2 6042   2.345   3.666   3.440
 2029TIP3   OH2 6043   4.766   7.753   6.402
 2029TIP3    H1 6044   4.818   7.771   6.324
 2029TIP3    H2 6045   4.762   7.836   6.449
 2030TIP3   OH2 6046   3.372   4.198   2.120
 2030TIP3    H1 6047   3.297   4.234   2.073
 2030TIP3    H2 6048   3.401   4.270   2.177
 2031TIP3   OH2 6049   6.516   5.687   3.620
 2031TIP3    H1 6050   6.576   5.658   3.551
 2031TIP3    H2 6051   6.570   5.743   3.676
 2032TIP3   OH2 6052   6.441   1.393   1.415
 2032TIP3    H1 6053   6.500   1.441   1.357
 2032TIP3    H2 6054   6.354   1.404   1.375
 2033TIP3   OH2 6055   2.894   7.543   5.818
 2033TIP3    H1 6056   2.913   7.629   5.782
 2033TIP3    H2 6057   2.977   7.495   5.812
 2034TIP3   OH2 6058   5.234   0.746   1.164
 2034TIP3    H1 6059   5.159   0.691   1.142
 2034TIP3    H2 6060   5.198   0.835   1.165
 2035TIP3   OH2 6061   3.441   5.364   0.895
 2035TIP3    H1 6062   3.387   5.345   0.818
 2035TIP3    H2 6063   3.388   5.335   0.969
 2036TIP3   OH2 6064   2.046   5.706   1.829
 2036TIP3    H1 6065   2.033   5.693   1.735
 2036TIP3    H2 6066   2.120   5.649   1.851
 2037TIP3   OH2 6067   5.280   5.733   5.812
 2037TIP3    H1 6068   5.375   5.722   5.810
 2037TIP3    H2 6069   5.261   5.765   5.900
 2038TIP3   OH2 6070   5.299   7.374   3.881
 2038TIP3    H1 6071   5.342   7.416   3.806
 2038TIP3    H2 6072   5.243   7.442   3.918
 2039TIP3   OH2 6073   2.447   6.396   5.295
 2039TIP3    H1 6074   2.510   6.455   5.253
 2039TIP3    H2 6075   2.462   6.311   5.254
 2040TIP3   OH2 6076   3.762   4.419   4.653
 2040TIP3    H1 6077   3.849   4.455   4.636
 2040TIP3    H2 6078   3.741   4.450   4.741
 2041TIP3   OH2 6079   2.300   2.262   0.411
 2041TIP3    H1 6080   2.229   2.230   0.466
 2041TIP3    H2 6081   2.370   2.197   0.421
 2042TIP3   OH2 6082   4.878   1.536   3.298
 2042TIP3    H1 6083   4.793   1.567   3.267
 2042TIP3    H2 6084   4.936   1.611   3.288
 2043TIP3   OH2 6085   6.717   7.408   0.042
 2043TIP3    H1 6086   6.640   7.458   0.018
 2043TIP3    H2 6087   6.683   7.323   0.070
 2044TIP3   OH2 6088   3.870   1.284   6.428
 2044TIP3    H1 6089   3.934   1.355   6.420
 2044TIP3    H2 6090   3.786   1.325   6.406
 2045TIP3   OH2 6091   6.088   2.232   3.704
 2045TIP3    H1 6092   6.030   2.199   3.772
 2045TIP3    H2 6093   6.130   2.309   3.742
 2046TIP3   OH2 6094   7.828   2.937   6.070
 2046TIP3    H1 6095   7.803   2.863   6.125
 2046TIP3    H2 6096   7.831   2.901   5.981
 2047TIP3   OH2 6097   1.559   3.533   1.327
 2047TIP3    H1 6098   1.556   3.566   1.417
 2047TIP3    H2 6099   1.476   3.562   1.288
 2048TIP3   OH2 6100   6.184   6.287   3.794
 2048TIP3    H1 6101   6.145   6.365   3.834
 2048TIP3    H2 6102   6.143   6.213   3.840
 2049TIP3   OH2 6103   3.470   0.025   1.909
 2049TIP3    H1 6104   3.542   0.086   1.895
 2049TIP3    H2 6105   3.510  -0.051   1.951
 2050TIP3   OH2 6106   6.666   4.618   6.513
 2050TIP3    H1 6107   6.702   4.673   6.443
 2050TIP3    H2 6108   6.704   4.532   6.497
 2051TIP3   OH2 6109   7.982   1.536   0.326
 2051TIP3    H1 6110   8.066   1.580   0.340
 2051TIP3    H2 6111   7.984   1.509   0.234
 2052TIP3   OH2 6112   7.950   0.366   3.988
 2052TIP3    H1 6113   7.897   0.442   4.010
 2052TIP3    H2 6114   7.927   0.347   3.897
 2053TIP3   OH2 6115   6.451   2.221   2.051
 2053TIP3    H1 6116   6.490   2.232   2.138
 2053TIP3    H2 6117   6.390   2.148   2.061
 2054TIP3   OH2 6118   4.074   7.266   4.673
 2054TIP3    H1 6119   4.064   7.198   4.607
 2054TIP3    H2 6120   4.077   7.348   4.623
 2055TIP3   OH2 6121   7.224   3.812   6.300
 2055TIP3    H1 6122   7.313   3.816   6.334
 2055TIP3    H2 6123   7.171   3.860   6.363
 2056TIP3   OH2 6124   6.482   1.723   3.898
 2056TIP3    H1 6125   6.450   1.640   3.932
 2056TIP3    H2 6126   6.462   1.721   3.804
 2057TIP3   OH2 6127   6.790   1.108   3.799
 2057TIP3    H1 6128   6.790   1.167   3.724
 2057TIP3    H2 6129   6.817   1.163   3.873
 2058TIP3   OH2 6130   0.716   0.626   6.140
 2058TIP3    H1 6131   0.649   0.692   6.159
 2058TIP3    H2 6132   0.799   0.669   6.161
 2059TIP3   OH2 6133   2.743   3.424   1.545
 2059TIP3    H1 6134   2.758   3.518   1.534
 2059TIP3    H2 6135   2.682   3.418   1.618
 2060TIP3   OH2 6136   0.897   7.765   1.308
 2060TIP3    H1 6137   0.984   7.737   1.279
 2060TIP3    H2 6138   0.841   7.688   1.294
 2061TIP3   OH2 6139   6.567   3.110   2.587
 2061TIP3    H1 6140   6.617   3.175   2.635
 2061TIP3    H2 6141   6.604   3.111   2.499
 2062TIP3   OH2 6142   1.094   1.994   4.623
 2062TIP3    H1 6143   1.078   1.926   4.688
 2062TIP3    H2 6144   1.112   1.946   4.542
 2063TIP3   OH2 6145   7.300   1.459   1.663
 2063TIP3    H1 6146   7.273   1.546   1.634
 2063TIP3    H2 6147   7.331   1.472   1.753
 2064TIP3   OH2 6148   0.031   5.204   5.655
 2064TIP3    H1 6149   0.008   5.159   5.737
 2064TIP3    H2 6150   0.099   5.267   5.682
 2065TIP3   OH2 6151   6.887   0.843   2.755
 2065TIP3    H1 6152   6.929   0.921   2.719
 2065TIP3    H2 6153   6.956   0.777   2.757
 2066TIP3   OH2 6154   8.001   7.130   5.215
 2066TIP3    H1 6155   7.995   7.063   5.147
 2066TIP3    H2 6156   8.030   7.209   5.169
 2067TIP3   OH2 6157   1.163   5.024   4.471
 2067TIP3    H1 6158   1.083   5.023   4.524
 2067TIP3    H2 6159   1.198   5.112   4.483
 2068TIP3   OH2 6160   2.701   6.445   0.752
 2068TIP3    H1 6161   2.713   6.351   0.738
 2068TIP3    H2 6162   2.701   6.483   0.664
 2069TIP3   OH2 6163   3.373   4.120   5.631
 2069TIP3    H1 6164   3.282   4.127   5.603
 2069TIP3    H2 6165   3.418   4.193   5.589
 2070TIP3   OH2 6166   4.424   6.968   6.318
 2070TIP3    H1 6167   4.478   6.908   6.369
 2070TIP3    H2 6168   4.486   7.017   6.265
 2071TIP3   OH2 6169   1.227   4.024   2.258
 2071TIP3    H1 6170   1.217   4.084   2.184
 2071TIP3    H2 6171   1.137   3.999   2.281
 2072TIP3   OH2 6172   7.641   1.374   0.025
 2072TIP3    H1 6173   7.593   1.355   0.106
 2072TIP3    H2 6174   7.731   1.347   0.044
 2073TIP3   OH2 6175   7.469   0.810   1.166
 2073TIP3    H1 6176   7.511   0.770   1.090
 2073TIP3    H2 6177   7.413   0.741   1.201
 2074TIP3   OH2 6178   1.409   3.785   1.408
 2074TIP3    H1 6179   1.363   3.852   1.358
 2074TIP3    H2 6180   1.405   3.706   1.354
 2075TIP3   OH2 6181   4.598   7.768   0.353
 2075TIP3    H1 6182   4.518   7.812   0.381
 2075TIP3    H2 6183   4.567   7.698   0.294
 2076TIP3   OH2 6184   4.698   6.691   2.987
 2076TIP3    H1 6185   4.618   6.687   2.935
 2076TIP3    H2 6186   4.756   6.749   2.937
 2077TIP3   OH2 6187   4.553   7.668   2.202
 2077TIP3    H1 6188   4.537   7.581   2.165
 2077TIP3    H2 6189   4.504   7.669   2.284
 2078TIP3   OH2 6190   0.282   5.568   0.456
 2078TIP3    H1 6191   0.298   5.557   0.550
 2078TIP3    H2 6192   0.300   5.482   0.418
 2079TIP3   OH2 6193   1.833   1.539   0.934
 2079TIP3    H1 6194   1.827   1.634   0.918
 2079TIP3    H2 6195   1.743   1.508   0.931
 2080TIP3   OH2 6196   8.235   7.086   2.853
 2080TIP3    H1 6197   8.266   7.079   2.762
 2080TIP3    H2 6198   8.143   7.109   2.845
 2081TIP3   OH2 6199   7.429   0.631   2.844
 2081TIP3    H1 6200   7.418   0.652   2.751
 2081TIP3    H2 6201   7.374   0.553   2.858
 2082TIP3   OH2 6202   7.445   1.066   4.010
 2082TIP3    H1 6203   7.456   1.158   3.986
 2082TIP3    H2 6204   7.401   1.026   3.935
 2083TIP3   OH2 6205   4.711   0.019   4.542
 2083TIP3    H1 6206   4.676   0.030   4.631
 2083TIP3    H2 6207   4.767   0.096   4.529
 2084TIP3   OH2 6208   4.468   2.932   3.163
 2084TIP3    H1 6209   4.431   2.845   3.179
 2084TIP3    H2 6210   4.400   2.979   3.115
 2085TIP3   OH2 6211   0.329   1.708   6.191
 2085TIP3    H1 6212   0.325   1.704   6.287
 2085TIP3    H2 6213   0.378   1.789   6.172
 2086TIP3   OH2 6214   4.374   5.314   2.116
 2086TIP3    H1 6215   4.363   5.387   2.176
 2086TIP3    H2 6216   4.384   5.354   2.030
 2087TIP3   OH2 6217   7.990   0.337   2.621
 2087TIP3    H1 6218   8.068   0.300   2.580
 2087TIP3    H2 6219   8.022   0.411   2.672
 2088TIP3   OH2 6220   8.302   7.074   6.438
 2088TIP3    H1 6221   8.208   7.069   6.421
 2088TIP3    H2 6222   8.311   7.145   6.502
 2089TIP3   OH2 6223   0.208   3.704   6.502
 2089TIP3    H1 6224   0.228   3.639   6.435
 2089TIP3    H2 6225   0.269   3.777   6.484
 2090TIP3   OH2 6226   2.811   2.334   1.682
 2090TIP3    H1 6227   2.857   2.390   1.620
 2090TIP3    H2 6228   2.807   2.386   1.762
 2091TIP3   OH2 6229   2.385   0.580   1.693
 2091TIP3    H1 6230   2.333   0.518   1.746
 2091TIP3    H2 6231   2.330   0.598   1.617
 2092TIP3   OH2 6232   7.853   2.337   1.670
 2092TIP3    H1 6233   7.877   2.361   1.581
 2092TIP3    H2 6234   7.776   2.281   1.659
 2093TIP3   OH2 6235   4.191   2.233   0.021
 2093TIP3    H1 6236   4.190   2.172   0.095
 2093TIP3    H2 6237   4.283   2.258   0.012
 2094TIP3   OH2 6238   1.658   1.094   3.658
 2094TIP3    H1 6239   1.694   1.162   3.601
 2094TIP3    H2 6240   1.569   1.123   3.678
 2095TIP3   OH2 6241   3.926   1.761   4.379
 2095TIP3    H1 6242   3.897   1.670   4.384
 2095TIP3    H2 6243   3.857   1.811   4.422
 2096TIP3   OH2 6244   1.774   1.866   5.224
 2096TIP3    H1 6245   1.751   1.802   5.155
 2096TIP3    H2 6246   1.690   1.886   5.266
 2097TIP3   OH2 6247   0.367   4.207   1.449
 2097TIP3    H1 6248   0.442   4.182   1.394
 2097TIP3    H2 6249   0.346   4.127   1.498
 2098TIP3   OH2 6250   8.291   6.813   6.492
 2098TIP3    H1 6251   8.206   6.810   6.536
 2098TIP3    H2 6252   8.306   6.906   6.473
 2099TIP3   OH2 6253   3.422   7.153   2.071
 2099TIP3    H1 6254   3.503   7.186   2.033
 2099TIP3    H2 6255   3.440   7.061   2.091
 2100TIP3   OH2 6256   2.295   5.879   3.287
 2100TIP3    H1 6257   2.305   5.836   3.371
 2100TIP3    H2 6258   2.343   5.824   3.225
 2101TIP3   OH2 6259   3.766   4.404   6.045
 2101TIP3    H1 6260   3.794   4.490   6.078
 2101TIP3    H2 6261   3.783   4.407   5.951
 2102TIP3   OH2 6262   6.823   1.239   1.188
 2102TIP3    H1 6263   6.888   1.171   1.169
 2102TIP3    H2 6264   6.811   1.285   1.105
 2103TIP3   OH2 6265   2.439   0.869   2.568
 2103TIP3    H1 6266   2.480   0.955   2.577
 2103TIP3    H2 6267   2.483   0.814   2.632
 2104TIP3   OH2 6268   2.951   1.975   4.865
 2104TIP3    H1 6269   2.961   2.048   4.804
 2104TIP3    H2 6270   2.883   2.004   4.926
 2105TIP3   OH2 6271   7.684   4.075   0.807
 2105TIP3    H1 6272   7.653   4.011   0.871
 2105TIP3    H2 6273   7.733   4.139   0.858
 2106TIP3   OH2 6274   5.345   2.476   5.794
 2106TIP3    H1 6275   5.342   2.520   5.879
 2106TIP3    H2 6276   5.310   2.541   5.732
 2107TIP3   OH2 6277   1.087   0.995   0.341
 2107TIP3    H1 6278   1.022   1.029   0.280
 2107TIP3    H2 6279   1.111   1.071   0.395
 2108TIP3   OH2 6280   6.204   1.538   1.355
 2108TIP3    H1 6281   6.155   1.565   1.432
 2108TIP3    H2 6282   6.287   1.586   1.361
 2109TIP3   OH2 6283   7.934   6.397   4.631
 2109TIP3    H1 6284   7.908   6.309   4.659
 2109TIP3    H2 6285   7.852   6.447   4.631
 2110TIP3   OH2 6286   5.009   1.764   3.399
 2110TIP3    H1 6287   5.052   1.753   3.484
 2110TIP3    H2 6288   5.081   1.768   3.336
 2111TIP3   OH2 6289   1.736   4.709   1.513
 2111TIP3    H1 6290   1.721   4.670   1.427
 2111TIP3    H2 6291   1.656   4.689   1.562
 2112TIP3   OH2 6292   0.360   1.241   4.212
 2112TIP3    H1 6293   0.451   1.269   4.217
 2112TIP3    H2 6294   0.323   1.292   4.140
 2113TIP3   OH2 6295   6.962   4.906   5.138
 2113TIP3    H1 6296   6.902   4.953   5.081
 2113TIP3    H2 6297   6.936   4.931   5.227
 2114TIP3   OH2 6298   1.548   3.671   0.144
 2114TIP3    H1 6299   1.459   3.649   0.170
 2114TIP3    H2 6300   1.541   3.696   0.052
 2115TIP3   OH2 6301   7.221   1.903   5.450
 2115TIP3    H1 6302   7.242   1.865   5.364
 2115TIP3    H2 6303   7.232   1.830   5.511
 2116TIP3   OH2 6304   4.927   2.331   5.971
 2116TIP3    H1 6305   4.869   2.360   5.901
 2116TIP3    H2 6306   4.981   2.407   5.991
 2117TIP3   OH2 6307   5.002   4.461   4.573
 2117TIP3    H1 6308   4.998   4.518   4.650
 2117TIP3    H2 6309   4.962   4.379   4.602
 2118TIP3   OH2 6310   3.938   6.178   2.537
 2118TIP3    H1 6311   3.898   6.259   2.569
 2118TIP3    H2 6312   3.864   6.123   2.512
 2119TIP3   OH2 6313   0.370   1.445   6.615
 2119TIP3    H1 6314   0.300   1.416   6.557
 2119TIP3    H2 6315   0.446   1.457   6.558
 2120TIP3   OH2 6316   4.753   3.218   3.172
 2120TIP3    H1 6317   4.767   3.137   3.221
 2120TIP3    H2 6318   4.666   3.207   3.133
 2121TIP3   OH2 6319   1.662   6.201   2.608
 2121TIP3    H1 6320   1.752   6.212   2.575
 2121TIP3    H2 6321   1.632   6.119   2.568
 2122TIP3   OH2 6322   3.298   7.395   6.356
 2122TIP3    H1 6323   3.293   7.484   6.322
 2122TIP3    H2 6324   3.236   7.345   6.303
 2123TIP3   OH2 6325   7.971   7.171   2.858
 2123TIP3    H1 6326   7.943   7.263   2.862
 2123TIP3    H2 6327   7.932   7.137   2.778
 2124TIP3   OH2 6328   6.998   2.791   0.904
 2124TIP3    H1 6329   6.917   2.780   0.953
 2124TIP3    H2 6330   6.987   2.873   0.856
 2125TIP3   OH2 6331   8.012   6.576   0.695
 2125TIP3    H1 6332   8.107   6.569   0.700
 2125TIP3    H2 6333   7.981   6.485   0.688
 2126TIP3   OH2 6334   1.788   5.452   2.163
 2126TIP3    H1 6335   1.740   5.534   2.150
 2126TIP3    H2 6336   1.724   5.392   2.201
 2127TIP3   OH2 6337   4.932   0.562   1.882
 2127TIP3    H1 6338   4.920   0.557   1.977
 2127TIP3    H2 6339   5.000   0.628   1.870
 2128TIP3   OH2 6340   1.711   7.608   4.728
 2128TIP3    H1 6341   1.703   7.700   4.751
 2128TIP3    H2 6342   1.749   7.608   4.640
 2129TIP3   OH2 6343   8.118   0.939   1.984
 2129TIP3    H1 6344   8.143   0.868   2.044
 2129TIP3    H2 6345   8.090   0.895   1.904
 2130TIP3   OH2 6346   3.848   5.197   4.760
 2130TIP3    H1 6347   3.773   5.246   4.728
 2130TIP3    H2 6348   3.923   5.236   4.715
 2131TIP3   OH2 6349   5.624   1.812   1.534
 2131TIP3    H1 6350   5.550   1.784   1.587
 2131TIP3    H2 6351   5.585   1.850   1.455
 2132TIP3   OH2 6352   1.097   2.276   2.715
 2132TIP3    H1 6353   1.071   2.203   2.660
 2132TIP3    H2 6354   1.162   2.239   2.775
 2133TIP3   OH2 6355   1.955   5.071   0.151
 2133TIP3    H1 6356   1.903   5.151   0.158
 2133TIP3    H2 6357   1.894   5.000   0.171
 2134TIP3   OH2 6358   0.121   4.186   4.743
 2134TIP3    H1 6359   0.210   4.222   4.751
 2134TIP3    H2 6360   0.070   4.257   4.705
 2135TIP3   OH2 6361   6.397   2.238   0.147
 2135TIP3    H1 6362   6.379   2.329   0.173
 2135TIP3    H2 6363   6.426   2.196   0.228
 2136TIP3   OH2 6364   1.666   7.498   2.754
 2136TIP3    H1 6365   1.710   7.504   2.669
 2136TIP3    H2 6366   1.676   7.406   2.779
 2137TIP3   OH2 6367   0.612   4.938   0.383
 2137TIP3    H1 6368   0.620   4.904   0.294
 2137TIP3    H2 6369   0.669   5.015   0.384
 2138TIP3   OH2 6370   1.680   0.994   4.066
 2138TIP3    H1 6371   1.589   1.014   4.048
 2138TIP3    H2 6372   1.696   0.910   4.024
 2139TIP3   OH2 6373   2.924   6.648   3.104
 2139TIP3    H1 6374   3.005   6.599   3.115
 2139TIP3    H2 6375   2.947   6.738   3.128
 2140TIP3   OH2 6376   3.151   7.308   3.130
 2140TIP3    H1 6377   3.173   7.391   3.171
 2140TIP3    H2 6378   3.214   7.299   3.058
 2141TIP3   OH2 6379   2.925   3.673   3.786
 2141TIP3    H1 6380   2.874   3.594   3.767
 2141TIP3    H2 6381   2.875   3.744   3.747
 2142TIP3   OH2 6382   1.712   1.210   5.166
 2142TIP3    H1 6383   1.757   1.255   5.238
 2142TIP3    H2 6384   1.650   1.275   5.132
 2143TIP3   OH2 6385   0.965   3.694   1.257
 2143TIP3    H1 6386   0.952   3.675   1.164
 2143TIP3    H2 6387   0.993   3.785   1.259
 2144TIP3   OH2 6388   4.487   0.233   6.329
 2144TIP3    H1 6389   4.545   0.302   6.362
 2144TIP3    H2 6390   4.464   0.182   6.407
 2145TIP3   OH2 6391   5.823   2.158   1.969
 2145TIP3    H1 6392   5.853   2.240   1.931
 2145TIP3    H2 6393   5.777   2.185   2.049
 2146TIP3   OH2 6394   1.462   6.584   4.697
 2146TIP3    H1 6395   1.483   6.521   4.766
 2146TIP3    H2 6396   1.481   6.670   4.736
 2147TIP3   OH2 6397   4.516   1.945   1.942
 2147TIP3    H1 6398   4.467   2.005   1.885
 2147TIP3    H2 6399   4.449   1.905   1.998
 2148TIP3   OH2 6400   5.673   2.422   2.639
 2148TIP3    H1 6401   5.739   2.447   2.705
 2148TIP3    H2 6402   5.675   2.494   2.576
 2149TIP3   OH2 6403   5.773   2.165   3.033
 2149TIP3    H1 6404   5.786   2.096   2.969
 2149TIP3    H2 6405   5.854   2.215   3.032
 2150TIP3   OH2 6406   7.063   7.514   0.069
 2150TIP3    H1 6407   7.142   7.565   0.087
 2150TIP3    H2 6408   7.095   7.427   0.047
 2151TIP3   OH2 6409   3.778   5.395   1.249
 2151TIP3    H1 6410   3.836   5.456   1.205
 2151TIP3    H2 6411   3.701   5.389   1.193
 2152TIP3   OH2 6412   4.274   1.083   6.418
 2152TIP3    H1 6413   4.266   1.074   6.513
 2152TIP3    H2 6414   4.343   1.021   6.394
 2153TIP3   OH2 6415   1.571   7.182   3.055
 2153TIP3    H1 6416   1.550   7.263   3.009
 2153TIP3    H2 6417   1.531   7.193   3.141
 2154TIP3   OH2 6418   5.349   1.903   3.586
 2154TIP3    H1 6419   5.407   1.974   3.614
 2154TIP3    H2 6420   5.408   1.834   3.555
 2155TIP3   OH2 6421   2.161   0.807   3.077
 2155TIP3    H1 6422   2.241   0.826   3.027
 2155TIP3    H2 6423   2.179   0.841   3.165
 2156TIP3   OH2 6424   2.502   4.453   5.238
 2156TIP3    H1 6425   2.453   4.412   5.309
 2156TIP3    H2 6426   2.437   4.470   5.170
 2157TIP3   OH2 6427   7.161   5.626   4.009
 2157TIP3    H1 6428   7.226   5.676   3.960
 2157TIP3    H2 6429   7.211   5.581   4.077
 2158TIP3   OH2 6430   4.018   0.261   2.670
 2158TIP3    H1 6431   3.987   0.177   2.638
 2158TIP3    H2 6432   4.113   0.259   2.654
 2159TIP3   OH2 6433   2.948   0.840   3.448
 2159TIP3    H1 6434   3.008   0.836   3.522
 2159TIP3    H2 6435   2.865   0.868   3.485
 2160TIP3   OH2 6436   3.869   4.356   1.498
 2160TIP3    H1 6437   3.818   4.334   1.576
 2160TIP3    H2 6438   3.950   4.305   1.507
 2161TIP3   OH2 6439   7.279   1.663   5.642
 2161TIP3    H1 6440   7.184   1.654   5.648
 2161TIP3    H2 6441   7.304   1.708   5.723
 2162TIP3   OH2 6442   0.348   7.027   6.782
 2162TIP3    H1 6443   0.304   6.984   6.708
 2162TIP3    H2 6444   0.350   7.120   6.758
 2163TIP3   OH2 6445   0.605   1.226   4.625
 2163TIP3    H1 6446   0.590   1.227   4.719
 2163TIP3    H2 6447   0.536   1.281   4.588
 2164TIP3   OH2 6448   7.849   2.321   2.114
 2164TIP3    H1 6449   7.787   2.255   2.146
 2164TIP3    H2 6450   7.926   2.310   2.169
 2165TIP3   OH2 6451   2.865   2.404   2.612
 2165TIP3    H1 6452   2.799   2.350   2.568
 2165TIP3    H2 6453   2.942   2.397   2.555
 2166TIP3   OH2 6454   2.421  -0.020   0.057
 2166TIP3    H1 6455   2.490   0.043   0.080
 2166TIP3    H2 6456   2.351  -0.003   0.120
 2167TIP3   OH2 6457   2.397   1.157   1.183
 2167TIP3    H1 6458   2.478   1.194   1.146
 2167TIP3    H2 6459   2.358   1.108   1.110
 2168TIP3   OH2 6460   6.026   7.408   6.455
 2168TIP3    H1 6461   6.112   7.441   6.426
 2168TIP3    H2 6462   6.024   7.317   6.425
 2169TIP3   OH2 6463   3.526   0.576   3.075
 2169TIP3    H1 6464   3.480   0.656   3.098
 2169TIP3    H2 6465   3.535   0.529   3.158
 2170TIP3   OH2 6466   3.495   7.368   4.914
 2170TIP3    H1 6467   3.449   7.451   4.903
 2170TIP3    H2 6468   3.483   7.345   5.006
 2171TIP3   OH2 6469   6.450   3.973   6.490
 2171TIP3    H1 6470   6.410   3.987   6.404
 2171TIP3    H2 6471   6.482   4.060   6.515
 2172TIP3   OH2 6472   6.615   3.268   0.537
 2172TIP3    H1 6473   6.571   3.316   0.607
 2172TIP3    H2 6474   6.703   3.304   0.534
 2173TIP3   OH2 6475   4.985   1.529   5.535
 2173TIP3    H1 6476   5.071   1.570   5.538
 2173TIP3    H2 6477   4.936   1.570   5.606
 2174TIP3   OH2 6478   6.219   0.215   4.434
 2174TIP3    H1 6479   6.198   0.301   4.398
 2174TIP3    H2 6480   6.136   0.183   4.469
 2175TIP3   OH2 6481   6.797   6.969   2.576
 2175TIP3    H1 6482   6.890   6.982   2.592
 2175TIP3    H2 6483   6.792   6.890   2.522
 2176TIP3   OH2 6484   2.122   2.216   0.169
 2176TIP3    H1 6485   2.151   2.168   0.246
 2176TIP3    H2 6486   2.026   2.212   0.173
 2177TIP3   OH2 6487   4.340   6.087   0.925
 2177TIP3    H1 6488   4.420   6.106   0.876
 2177TIP3    H2 6489   4.328   5.993   0.917
 2178TIP3   OH2 6490   1.668   3.735   5.710
 2178TIP3    H1 6491   1.586   3.696   5.741
 2178TIP3    H2 6492   1.695   3.679   5.637
 2179TIP3   OH2 6493   2.634   7.443   2.035
 2179TIP3    H1 6494   2.551   7.401   2.060
 2179TIP3    H2 6495   2.657   7.497   2.111
 2180TIP3   OH2 6496   1.488   0.705   4.840
 2180TIP3    H1 6497   1.408   0.708   4.786
 2180TIP3    H2 6498   1.502   0.796   4.866
 2181TIP3   OH2 6499   2.764   4.765   6.577
 2181TIP3    H1 6500   2.821   4.783   6.652
 2181TIP3    H2 6501   2.824   4.762   6.502
 2182TIP3   OH2 6502   7.268   2.836   0.383
 2182TIP3    H1 6503   7.346   2.803   0.338
 2182TIP3    H2 6504   7.270   2.792   0.468
 2183TIP3   OH2 6505   2.856   5.431   0.080
 2183TIP3    H1 6506   2.789   5.407   0.144
 2183TIP3    H2 6507   2.939   5.427   0.128
 2184TIP3   OH2 6508   1.476   0.002   5.039
 2184TIP3    H1 6509   1.536   0.029   5.107
 2184TIP3    H2 6510   1.437   0.084   5.007
 2185TIP3   OH2 6511   0.505   5.305   0.587
 2185TIP3    H1 6512   0.501   5.381   0.646
 2185TIP3    H2 6513   0.549   5.237   0.639
 2186TIP3   OH2 6514   1.170   0.363   3.279
 2186TIP3    H1 6515   1.105   0.294   3.289
 2186TIP3    H2 6516   1.173   0.380   3.185
 2187TIP3   OH2 6517   2.288   7.086   5.425
 2187TIP3    H1 6518   2.382   7.074   5.439
 2187TIP3    H2 6519   2.269   7.034   5.347
 2188TIP3   OH2 6520   2.550   7.538   3.120
 2188TIP3    H1 6521   2.483   7.597   3.156
 2188TIP3    H2 6522   2.529   7.532   3.027
 2189TIP3   OH2 6523   8.047   3.039   6.242
 2189TIP3    H1 6524   8.028   2.950   6.270
 2189TIP3    H2 6525   7.984   3.057   6.172
 2190TIP3   OH2 6526   3.218   7.671   1.819
 2190TIP3    H1 6527   3.145   7.630   1.772
 2190TIP3    H2 6528   3.181   7.752   1.854
 2191TIP3   OH2 6529   3.259   4.891   1.031
 2191TIP3    H1 6530   3.219   4.966   0.987
 2191TIP3    H2 6531   3.211   4.815   0.998
 2192TIP3   OH2 6532   6.451   7.816   6.413
 2192TIP3    H1 6533   6.485   7.805   6.501
 2192TIP3    H2 6534   6.362   7.781   6.417
 2193TIP3   OH2 6535   2.938   5.546   6.188
 2193TIP3    H1 6536   2.956   5.561   6.281
 2193TIP3    H2 6537   2.981   5.463   6.169
 2194TIP3   OH2 6538   2.924   3.598   0.227
 2194TIP3    H1 6539   2.886   3.680   0.257
 2194TIP3    H2 6540   2.971   3.621   0.147
 2195TIP3   OH2 6541   6.905   1.554   6.222
 2195TIP3    H1 6542   6.928   1.641   6.188
 2195TIP3    H2 6543   6.853   1.572   6.301
 2196TIP3   OH2 6544   4.406   1.747   2.341
 2196TIP3    H1 6545   4.374   1.782   2.258
 2196TIP3    H2 6546   4.501   1.751   2.334
 2197TIP3   OH2 6547   5.720   0.684   1.030
 2197TIP3    H1 6548   5.703   0.591   1.019
 2197TIP3    H2 6549   5.644   0.717   1.078
 2198TIP3   OH2 6550   1.691   2.019   0.536
 2198TIP3    H1 6551   1.632   1.987   0.468
 2198TIP3    H2 6552   1.633   2.035   0.611
 2199TIP3   OH2 6553   2.406   3.574   0.726
 2199TIP3    H1 6554   2.339   3.524   0.774
 2199TIP3    H2 6555   2.404   3.660   0.768
 2200TIP3   OH2 6556   0.402   2.320   4.967
 2200TIP3    H1 6557   0.435   2.235   4.996
 2200TIP3    H2 6558   0.316   2.300   4.929
 2201TIP3   OH2 6559   4.773   4.989   0.391
 2201TIP3    H1 6560   4.738   4.917   0.338
 2201TIP3    H2 6561   4.841   5.028   0.335
 2202TIP3   OH2 6562   0.684   2.707   3.906
 2202TIP3    H1 6563   0.769   2.671   3.931
 2202TIP3    H2 6564   0.625   2.679   3.976
 2203TIP3   OH2 6565   7.053   3.465   1.309
 2203TIP3    H1 6566   6.999   3.532   1.268
 2203TIP3    H2 6567   7.049   3.484   1.403
 2204TIP3   OH2 6568   2.146   4.392   0.769
 2204TIP3    H1 6569   2.138   4.402   0.864
 2204TIP3    H2 6570   2.161   4.298   0.756
 2205TIP3   OH2 6571   4.085   0.329   4.096
 2205TIP3    H1 6572   4.009   0.377   4.129
 2205TIP3    H2 6573   4.048   0.253   4.052
 2206TIP3   OH2 6574   2.545   0.111   2.798
 2206TIP3    H1 6575   2.523   0.140   2.710
 2206TIP3    H2 6576   2.528   0.017   2.798
 2207TIP3   OH2 6577   1.277   1.542   3.873
 2207TIP3    H1 6578   1.290   1.624   3.826
 2207TIP3    H2 6579   1.286   1.565   3.965
 2208TIP3   OH2 6580   3.369   3.525   3.326
 2208TIP3    H1 6581   3.409   3.603   3.363
 2208TIP3    H2 6582   3.442   3.465   3.311
 2209TIP3   OH2 6583   1.653   7.818   6.463
 2209TIP3    H1 6584   1.663   7.737   6.414
 2209TIP3    H2 6585   1.559   7.838   6.460
 2210TIP3   OH2 6586   0.302   2.533   3.911
 2210TIP3    H1 6587   0.373   2.495   3.860
 2210TIP3    H2 6588   0.224   2.485   3.884
 2211TIP3   OH2 6589   3.940   2.744   6.000
 2211TIP3    H1 6590   3.864   2.706   5.954
 2211TIP3    H2 6591   3.989   2.668   6.031
 2212TIP3   OH2 6592   3.472   7.574   5.845
 2212TIP3    H1 6593   3.391   7.558   5.797
 2212TIP3    H2 6594   3.540   7.573   5.778
 2213TIP3   OH2 6595   3.873   4.113   6.023
 2213TIP3    H1 6596   3.884   4.129   5.929
 2213TIP3    H2 6597   3.936   4.171   6.064
 2214TIP3   OH2 6598   4.752   1.695   6.034
 2214TIP3    H1 6599   4.701   1.775   6.027
 2214TIP3    H2 6600   4.733   1.661   6.121
 2215TIP3   OH2 6601   5.996   1.589   5.267
 2215TIP3    H1 6602   6.084   1.625   5.278
 2215TIP3    H2 6603   5.977   1.601   5.174
 2216TIP3   OH2 6604   3.869   7.394   3.974
 2216TIP3    H1 6605   3.830   7.424   4.057
 2216TIP3    H2 6606   3.838   7.457   3.909
 2217TIP3   OH2 6607   5.346   4.486   3.171
 2217TIP3    H1 6608   5.315   4.566   3.213
 2217TIP3    H2 6609   5.280   4.420   3.191
 2218TIP3   OH2 6610   1.099   5.466   6.080
 2218TIP3    H1 6611   1.029   5.408   6.048
 2218TIP3    H2 6612   1.156   5.408   6.131
 2219TIP3   OH2 6613   7.358   0.663   4.220
 2219TIP3    H1 6614   7.307   0.589   4.252
 2219TIP3    H2 6615   7.361   0.724   4.293
 2220TIP3   OH2 6616   4.279   7.246   5.150
 2220TIP3    H1 6617   4.282   7.232   5.055
 2220TIP3    H2 6618   4.238   7.167   5.185
 2221TIP3   OH2 6619   3.020   1.872   0.643
 2221TIP3    H1 6620   3.006   1.935   0.572
 2221TIP3    H2 6621   2.978   1.792   0.612
 2222TIP3   OH2 6622   5.039   5.427   4.461
 2222TIP3    H1 6623   5.079   5.344   4.435
 2222TIP3    H2 6624   5.086   5.453   4.540
 2223TIP3   OH2 6625   6.896   2.891   1.282
 2223TIP3    H1 6626   6.829   2.959   1.279
 2223TIP3    H2 6627   6.894   2.851   1.195
 2224TIP3   OH2 6628   1.341   4.486   2.535
 2224TIP3    H1 6629   1.385   4.401   2.545
 2224TIP3    H2 6630   1.410   4.550   2.547
 2225TIP3   OH2 6631   1.920   1.869   2.206
 2225TIP3    H1 6632   1.907   1.845   2.298
 2225TIP3    H2 6633   1.852   1.820   2.159
 2226TIP3   OH2 6634   3.051   0.989   3.704
 2226TIP3    H1 6635   3.146   0.982   3.712
 2226TIP3    H2 6636   3.017   0.952   3.785
 2227TIP3   OH2 6637   5.716   0.729   4.564
 2227TIP3    H1 6638   5.641   0.767   4.519
 2227TIP3    H2 6639   5.726   0.642   4.525
 2228TIP3   OH2 6640   7.679   7.011   2.981
 2228TIP3    H1 6641   7.704   6.944   2.918
 2228TIP3    H2 6642   7.585   7.024   2.967
 2229TIP3   OH2 6643   4.717   1.957   6.143
 2229TIP3    H1 6644   4.809   1.979   6.127
 2229TIP3    H2 6645   4.720   1.873   6.189
 2230TIP3   OH2 6646   2.803   0.762   0.062
 2230TIP3    H1 6647   2.832   0.847   0.029
 2230TIP3    H2 6648   2.772   0.780   0.151
 2231TIP3   OH2 6649   1.098   0.366   4.643
 2231TIP3    H1 6650   1.033   0.396   4.579
 2231TIP3    H2 6651   1.115   0.275   4.619
 2232TIP3   OH2 6652   2.645   1.821   5.373
 2232TIP3    H1 6653   2.722   1.771   5.347
 2232TIP3    H2 6654   2.675   1.912   5.376
 2233TIP3   OH2 6655   6.520   1.176   4.097
 2233TIP3    H1 6656   6.511   1.091   4.139
 2233TIP3    H2 6657   6.469   1.168   4.016
 2234TIP3   OH2 6658   2.614   0.401   1.597
 2234TIP3    H1 6659   2.599   0.408   1.691
 2234TIP3    H2 6660   2.573   0.480   1.560
 2235TIP3   OH2 6661   7.259   5.893   6.148
 2235TIP3    H1 6662   7.289   5.979   6.179
 2235TIP3    H2 6663   7.239   5.907   6.056
 2236TIP3   OH2 6664   8.082   5.474   1.234
 2236TIP3    H1 6665   7.991   5.480   1.261
 2236TIP3    H2 6666   8.088   5.527   1.155
 2237TIP3   OH2 6667   6.892   3.722   4.984
 2237TIP3    H1 6668   6.983   3.750   4.985
 2237TIP3    H2 6669   6.872   3.709   4.891
 2238TIP3   OH2 6670   7.742   2.037   0.351
 2238TIP3    H1 6671   7.665   2.020   0.297
 2238TIP3    H2 6672   7.760   2.131   0.339
 2239TIP3   OH2 6673   5.182   0.144   0.928
 2239TIP3    H1 6674   5.231   0.095   0.862
 2239TIP3    H2 6675   5.105   0.178   0.881
 2240TIP3   OH2 6676   3.235   5.009   6.267
 2240TIP3    H1 6677   3.283   4.928   6.281
 2240TIP3    H2 6678   3.189   4.997   6.184
 2241TIP3   OH2 6679   7.107   5.754   6.341
 2241TIP3    H1 6680   7.168   5.789   6.276
 2241TIP3    H2 6681   7.025   5.741   6.293
 2242TIP3   OH2 6682   3.916   2.206   5.524
 2242TIP3    H1 6683   3.951   2.118   5.519
 2242TIP3    H2 6684   3.993   2.261   5.541
 2243TIP3   OH2 6685   6.368   4.223   1.625
 2243TIP3    H1 6686   6.408   4.232   1.712
 2243TIP3    H2 6687   6.314   4.144   1.631
 2244TIP3   OH2 6688   0.452   1.650   2.358
 2244TIP3    H1 6689   0.369   1.683   2.393
 2244TIP3    H2 6690   0.485   1.592   2.426
 2245TIP3   OH2 6691   5.752   1.844   6.284
 2245TIP3    H1 6692   5.784   1.757   6.258
 2245TIP3    H2 6693   5.657   1.835   6.288
 2246TIP3   OH2 6694   0.363   1.208   5.102
 2246TIP3    H1 6695   0.394   1.180   5.016
 2246TIP3    H2 6696   0.376   1.303   5.102
 2247TIP3   OH2 6697   6.347   4.551   6.381
 2247TIP3    H1 6698   6.287   4.573   6.310
 2247TIP3    H2 6699   6.433   4.579   6.350
 2248TIP3   OH2 6700   3.176   7.845   5.947
 2248TIP3    H1 6701   3.271   7.849   5.932
 2248TIP3    H2 6702   3.158   7.753   5.965
 2249TIP3   OH2 6703   1.974   1.372   3.287
 2249TIP3    H1 6704   2.048   1.424   3.319
 2249TIP3    H2 6705   1.933   1.338   3.367
 2250TIP3   OH2 6706   8.109   4.585   6.656
 2250TIP3    H1 6707   8.198   4.551   6.660
 2250TIP3    H2 6708   8.059   4.517   6.612
 2251TIP3   OH2 6709   0.786   3.712   4.474
 2251TIP3    H1 6710   0.704   3.691   4.518
 2251TIP3    H2 6711   0.824   3.782   4.527
 2252TIP3   OH2 6712   7.203   2.919   4.798
 2252TIP3    H1 6713   7.132   2.875   4.846
 2252TIP3    H2 6714   7.244   2.977   4.862
 2253TIP3   OH2 6715   1.128   3.464   1.028
 2253TIP3    H1 6716   1.041   3.467   1.067
 2253TIP3    H2 6717   1.115   3.492   0.937
 2254TIP3   OH2 6718   0.061   5.712   0.390
 2254TIP3    H1 6719   0.086   5.699   0.298
 2254TIP3    H2 6720   0.126   5.664   0.440
 2255TIP3   OH2 6721   2.930   2.760   3.515
 2255TIP3    H1 6722   2.893   2.777   3.602
 2255TIP3    H2 6723   3.022   2.738   3.532
 2256TIP3   OH2 6724   7.073   1.250   4.386
 2256TIP3    H1 6725   7.016   1.323   4.411
 2256TIP3    H2 6726   7.029   1.209   4.311
 2257TIP3   OH2 6727   2.313   1.208   3.518
 2257TIP3    H1 6728   2.277   1.142   3.577
 2257TIP3    H2 6729   2.272   1.290   3.546
 2258TIP3   OH2 6730   7.863   6.290   3.656
 2258TIP3    H1 6731   7.916   6.211   3.648
 2258TIP3    H2 6732   7.852   6.320   3.566
 2259TIP3   OH2 6733   0.727   6.615   2.317
 2259TIP3    H1 6734   0.723   6.661   2.400
 2259TIP3    H2 6735   0.664   6.660   2.261
 2260TIP3   OH2 6736   7.502   2.711   1.409
 2260TIP3    H1 6737   7.420   2.664   1.393
 2260TIP3    H2 6738   7.566   2.642   1.426
 2261TIP3   OH2 6739   1.417   1.559   6.607
 2261TIP3    H1 6740   1.416   1.484   6.548
 2261TIP3    H2 6741   1.327   1.565   6.640
 2262TIP3   OH2 6742   7.822   0.740   1.111
 2262TIP3    H1 6743   7.895   0.765   1.054
 2262TIP3    H2 6744   7.753   0.711   1.051
 2263TIP3   OH2 6745   5.250   3.633   3.300
 2263TIP3    H1 6746   5.199   3.616   3.380
 2263TIP3    H2 6747   5.184   3.652   3.233
 2264TIP3   OH2 6748   3.281   5.404   0.589
 2264TIP3    H1 6749   3.304   5.498   0.589
 2264TIP3    H2 6750   3.186   5.403   0.587
 2265TIP3   OH2 6751   5.346   5.325   3.099
 2265TIP3    H1 6752   5.410   5.277   3.047
 2265TIP3    H2 6753   5.364   5.299   3.189
 2266TIP3   OH2 6754   3.553   7.171   6.764
 2266TIP3    H1 6755   3.600   7.238   6.715
 2266TIP3    H2 6756   3.476   7.216   6.798
 2267TIP3   OH2 6757   6.649   6.111   1.185
 2267TIP3    H1 6758   6.736   6.131   1.150
 2267TIP3    H2 6759   6.666   6.083   1.275
 2268TIP3   OH2 6760   7.054   6.892   1.643
 2268TIP3    H1 6761   6.969   6.870   1.607
 2268TIP3    H2 6762   7.049   6.986   1.662
 2269TIP3   OH2 6763   3.137   6.717   2.760
 2269TIP3    H1 6764   3.201   6.771   2.712
 2269TIP3    H2 6765   3.180   6.696   2.843
 2270TIP3   OH2 6766   4.998   6.653   4.776
 2270TIP3    H1 6767   5.027   6.619   4.691
 2270TIP3    H2 6768   5.072   6.704   4.808
 2271TIP3   OH2 6769   7.705   0.404   2.494
 2271TIP3    H1 6770   7.743   0.462   2.428
 2271TIP3    H2 6771   7.778   0.351   2.525
 2272TIP3   OH2 6772   2.970   1.656   6.224
 2272TIP3    H1 6773   2.912   1.600   6.275
 2272TIP3    H2 6774   3.058   1.619   6.239
 2273TIP3   OH2 6775   6.788   3.897   5.565
 2273TIP3    H1 6776   6.702   3.854   5.565
 2273TIP3    H2 6777   6.817   3.892   5.475
 2274TIP3   OH2 6778   7.934   4.343   4.987
 2274TIP3    H1 6779   7.931   4.408   4.916
 2274TIP3    H2 6780   8.022   4.305   4.980
 2275TIP3   OH2 6781   4.470   0.469   2.570
 2275TIP3    H1 6782   4.513   0.440   2.650
 2275TIP3    H2 6783   4.502   0.558   2.556
 2276TIP3   OH2 6784   4.819   6.143   0.449
 2276TIP3    H1 6785   4.838   6.186   0.532
 2276TIP3    H2 6786   4.893   6.164   0.393
 2277TIP3   OH2 6787   4.438   0.947   3.209
 2277TIP3    H1 6788   4.404   1.037   3.203
 2277TIP3    H2 6789   4.432   0.926   3.302
 2278TIP3   OH2 6790   0.966   1.311   0.262
 2278TIP3    H1 6791   0.914   1.324   0.183
 2278TIP3    H2 6792   1.057   1.323   0.234
 2279TIP3   OH2 6793   1.532   6.093   4.331
 2279TIP3    H1 6794   1.474   6.020   4.311
 2279TIP3    H2 6795   1.523   6.106   4.426
 2280TIP3   OH2 6796   1.324   3.013   3.527
 2280TIP3    H1 6797   1.312   2.932   3.575
 2280TIP3    H2 6798   1.380   3.066   3.584
 2281TIP3   OH2 6799   3.835   3.088   3.388
 2281TIP3    H1 6800   3.758   3.112   3.337
 2281TIP3    H2 6801   3.908   3.102   3.327
 2282TIP3   OH2 6802   7.518   3.459   6.033
 2282TIP3    H1 6803   7.564   3.539   6.060
 2282TIP3    H2 6804   7.428   3.488   6.015
 2283TIP3   OH2 6805   8.257   3.129   0.268
 2283TIP3    H1 6806   8.252   3.168   0.355
 2283TIP3    H2 6807   8.347   3.144   0.240
 2284TIP3   OH2 6808   2.853   0.090   3.494
 2284TIP3    H1 6809   2.931   0.096   3.439
 2284TIP3    H2 6810   2.864   0.158   3.560
 2285TIP3   OH2 6811   5.351   3.823   4.020
 2285TIP3    H1 6812   5.278   3.824   3.958
 2285TIP3    H2 6813   5.348   3.736   4.060
 2286TIP3   OH2 6814   4.218   5.521   3.553
 2286TIP3    H1 6815   4.176   5.460   3.614
 2286TIP3    H2 6816   4.155   5.532   3.482
 2287TIP3   OH2 6817   2.700   2.190   5.691
 2287TIP3    H1 6818   2.618   2.188   5.741
 2287TIP3    H2 6819   2.756   2.126   5.735
 2288TIP3   OH2 6820   6.135   1.246   5.904
 2288TIP3    H1 6821   6.175   1.160   5.920
 2288TIP3    H2 6822   6.096   1.239   5.817
 2289TIP3   OH2 6823   5.747   6.220   5.692
 2289TIP3    H1 6824   5.839   6.196   5.679
 2289TIP3    H2 6825   5.730   6.200   5.784
 2290TIP3   OH2 6826   3.463   7.317   1.728
 2290TIP3    H1 6827   3.534   7.286   1.784
 2290TIP3    H2 6828   3.390   7.258   1.748
 2291TIP3   OH2 6829   1.087   6.499   5.747
 2291TIP3    H1 6830   1.076   6.425   5.688
 2291TIP3    H2 6831   1.062   6.465   5.833
 2292TIP3   OH2 6832   7.181   5.986   0.803
 2292TIP3    H1 6833   7.236   6.050   0.847
 2292TIP3    H2 6834   7.194   6.002   0.710
 2293TIP3   OH2 6835   2.864   4.852   4.493
 2293TIP3    H1 6836   2.846   4.758   4.490
 2293TIP3    H2 6837   2.943   4.863   4.439
 2294TIP3   OH2 6838   5.657   1.087   1.522
 2294TIP3    H1 6839   5.693   1.031   1.591
 2294TIP3    H2 6840   5.586   1.035   1.485
 2295TIP3   OH2 6841   1.223   4.453   2.783
 2295TIP3    H1 6842   1.284   4.406   2.839
 2295TIP3    H2 6843   1.274   4.475   2.705
 2296TIP3   OH2 6844   2.885   5.578   5.664
 2296TIP3    H1 6845   2.937   5.630   5.726
 2296TIP3    H2 6846   2.911   5.610   5.578
 2297TIP3   OH2 6847   4.843   0.857   5.346
 2297TIP3    H1 6848   4.859   0.914   5.420
 2297TIP3    H2 6849   4.924   0.860   5.295
 2298TIP3   OH2 6850   0.306   7.474   6.345
 2298TIP3    H1 6851   0.364   7.441   6.414
 2298TIP3    H2 6852   0.265   7.395   6.308
 2299TIP3   OH2 6853   6.756   7.428   1.561
 2299TIP3    H1 6854   6.772   7.437   1.655
 2299TIP3    H2 6855   6.804   7.500   1.521
 2300TIP3   OH2 6856   2.243   0.614   5.624
 2300TIP3    H1 6857   2.180   0.660   5.679
 2300TIP3    H2 6858   2.323   0.666   5.630
 2301TIP3   OH2 6859   4.748   2.339   5.651
 2301TIP3    H1 6860   4.838   2.320   5.626
 2301TIP3    H2 6861   4.738   2.433   5.636
 2302TIP3   OH2 6862   4.928   4.491   4.300
 2302TIP3    H1 6863   5.002   4.431   4.306
 2302TIP3    H2 6864   4.869   4.464   4.370
 2303TIP3   OH2 6865   5.575   4.423   0.173
 2303TIP3    H1 6866   5.566   4.518   0.164
 2303TIP3    H2 6867   5.667   4.406   0.154
 2304TIP3   OH2 6868   5.443   2.760   4.802
 2304TIP3    H1 6869   5.499   2.772   4.726
 2304TIP3    H2 6870   5.364   2.718   4.768
 2305TIP3   OH2 6871   7.922   1.412   0.021
 2305TIP3    H1 6872   7.992   1.350   0.041
 2305TIP3    H2 6873   7.956   1.463  -0.053
 2306TIP3   OH2 6874   0.750   0.845   1.081
 2306TIP3    H1 6875   0.835   0.867   1.043
 2306TIP3    H2 6876   0.768   0.770   1.138
 2307TIP3   OH2 6877   5.527   0.128   4.414
 2307TIP3    H1 6878   5.597   0.106   4.474
 2307TIP3    H2 6879   5.567   0.187   4.350
 2308TIP3   OH2 6880   2.995   6.285   1.267
 2308TIP3    H1 6881   3.014   6.265   1.175
 2308TIP3    H2 6882   3.070   6.338   1.295
 2309TIP3   OH2 6883   6.900   1.490   3.432
 2309TIP3    H1 6884   6.912   1.489   3.337
 2309TIP3    H2 6885   6.817   1.536   3.445
 2310TIP3   OH2 6886   3.342   4.968   2.184
 2310TIP3    H1 6887   3.362   4.990   2.092
 2310TIP3    H2 6888   3.425   4.982   2.230
 2311TIP3   OH2 6889   7.165   2.114   5.112
 2311TIP3    H1 6890   7.242   2.080   5.065
 2311TIP3    H2 6891   7.145   2.196   5.069
 2312TIP3   OH2 6892   5.954   1.298   6.311
 2312TIP3    H1 6893   5.989   1.358   6.378
 2312TIP3    H2 6894   6.028   1.286   6.250
 2313TIP3   OH2 6895   4.457   7.360   1.886
 2313TIP3    H1 6896   4.515   7.401   1.821
 2313TIP3    H2 6897   4.484   7.268   1.887
 2314TIP3   OH2 6898   7.950   4.218   5.224
 2314TIP3    H1 6899   7.988   4.138   5.188
 2314TIP3    H2 6900   7.918   4.266   5.147
 2315TIP3   OH2 6901   6.781   7.680   0.287
 2315TIP3    H1 6902   6.851   7.727   0.333
 2315TIP3    H2 6903   6.814   7.670   0.198
 2316TIP3   OH2 6904   2.988   5.605   5.399
 2316TIP3    H1 6905   3.075   5.639   5.377
 2316TIP3    H2 6906   2.929   5.652   5.340
 2317TIP3   OH2 6907   4.102   1.924   6.234
 2317TIP3    H1 6908   4.143   1.931   6.148
 2317TIP3    H2 6909   4.122   2.007   6.277
 2318TIP3   OH2 6910   7.996   1.001   6.238
 2318TIP3    H1 6911   7.909   1.039   6.234
 2318TIP3    H2 6912   8.038   1.028   6.156
 2319TIP3   OH2 6913   1.590   4.233   5.674
 2319TIP3    H1 6914   1.593   4.137   5.666
 2319TIP3    H2 6915   1.681   4.260   5.666
 2320TIP3   OH2 6916   1.063   4.464   4.644
 2320TIP3    H1 6917   0.988   4.521   4.660
 2320TIP3    H2 6918   1.059   4.446   4.550
 2321TIP3   OH2 6919   2.488   4.349   5.602
 2321TIP3    H1 6920   2.555   4.402   5.559
 2321TIP3    H2 6921   2.526   4.262   5.608
 2322TIP3   OH2 6922   3.401   3.151   2.964
 2322TIP3    H1 6923   3.448   3.103   2.896
 2322TIP3    H2 6924   3.344   3.086   3.005
 2323TIP3   OH2 6925   4.487   7.144   4.849
 2323TIP3    H1 6926   4.498   7.057   4.885
 2323TIP3    H2 6927   4.400   7.143   4.808
 2324TIP3   OH2 6928   2.401   2.310   6.348
 2324TIP3    H1 6929   2.478   2.312   6.291
 2324TIP3    H2 6930   2.340   2.372   6.309
 2325TIP3   OH2 6931   1.113   6.072   4.019
 2325TIP3    H1 6932   1.047   6.004   4.008
 2325TIP3    H2 6933   1.196   6.024   4.024
 2326TIP3   OH2 6934   4.098   3.583   6.615
 2326TIP3    H1 6935   4.183   3.590   6.660
 2326TIP3    H2 6936   4.034   3.579   6.686
 2327TIP3   OH2 6937   3.297   4.872   0.110
 2327TIP3    H1 6938   3.240   4.910   0.044
 2327TIP3    H2 6939   3.385   4.882   0.074
 2328TIP3   OH2 6940   2.599   7.448   0.090
 2328TIP3    H1 6941   2.513   7.489   0.092
 2328TIP3    H2 6942   2.617   7.434  -0.003
 2329TIP3   OH2 6943   5.211   3.915   6.302
 2329TIP3    H1 6944   5.283   3.948   6.249
 2329TIP3    H2 6945   5.134   3.922   6.246
 2330TIP3   OH2 6946   6.257   5.688   4.996
 2330TIP3    H1 6947   6.211   5.771   5.011
 2330TIP3    H2 6948   6.337   5.695   5.048
 2331TIP3   OH2 6949   2.047   3.053   5.612
 2331TIP3    H1 6950   2.002   3.093   5.537
 2331TIP3    H2 6951   2.029   3.112   5.685
 2332TIP3   OH2 6952   7.736   5.155   0.602
 2332TIP3    H1 6953   7.677   5.156   0.526
 2332TIP3    H2 6954   7.810   5.211   0.576
 2333TIP3   OH2 6955   5.713   7.529   2.890
 2333TIP3    H1 6956   5.645   7.462   2.895
 2333TIP3    H2 6957   5.693   7.590   2.961
 2334TIP3   OH2 6958   1.649   1.868   3.494
 2334TIP3    H1 6959   1.590   1.936   3.460
 2334TIP3    H2 6960   1.716   1.916   3.543
 2335TIP3   OH2 6961   0.917   3.291   0.783
 2335TIP3    H1 6962   0.825   3.287   0.760
 2335TIP3    H2 6963   0.944   3.380   0.761
 2336TIP3   OH2 6964   5.428   1.686   0.288
 2336TIP3    H1 6965   5.515   1.645   0.287
 2336TIP3    H2 6966   5.370   1.620   0.251
 2337TIP3   OH2 6967   2.437   5.962   2.932
 2337TIP3    H1 6968   2.515   6.015   2.945
 2337TIP3    H2 6969   2.470   5.872   2.922
 2338TIP3   OH2 6970   7.715   6.300   1.536
 2338TIP3    H1 6971   7.709   6.282   1.630
 2338TIP3    H2 6972   7.795   6.351   1.527
 2339TIP3   OH2 6973   3.604   4.242   0.434
 2339TIP3    H1 6974   3.538   4.311   0.445
 2339TIP3    H2 6975   3.643   4.259   0.348
 2340TIP3   OH2 6976   5.508   2.955   3.989
 2340TIP3    H1 6977   5.521   2.861   3.976
 2340TIP3    H2 6978   5.536   2.996   3.907
 2341TIP3   OH2 6979   0.484   4.946   0.942
 2341TIP3    H1 6980   0.558   4.984   0.990
 2341TIP3    H2 6981   0.443   4.887   1.006
 2342TIP3   OH2 6982   6.774   6.419   1.606
 2342TIP3    H1 6983   6.830   6.450   1.677
 2342TIP3    H2 6984   6.686   6.419   1.644
 2343TIP3   OH2 6985   7.554   5.180   2.368
 2343TIP3    H1 6986   7.627   5.120   2.351
 2343TIP3    H2 6987   7.476   5.129   2.345
 2344TIP3   OH2 6988   0.672   4.826   4.791
 2344TIP3    H1 6989   0.672   4.878   4.711
 2344TIP3    H2 6990   0.693   4.889   4.860
 2345TIP3   OH2 6991   4.808   4.885   4.432
 2345TIP3    H1 6992   4.726   4.853   4.468
 2345TIP3    H2 6993   4.828   4.964   4.483
 2346TIP3   OH2 6994   6.886   4.630   4.401
 2346TIP3    H1 6995   6.853   4.556   4.350
 2346TIP3    H2 6996   6.844   4.621   4.486
 2347TIP3   OH2 6997   5.429   7.672   4.023
 2347TIP3    H1 6998   5.483   7.652   4.100
 2347TIP3    H2 6999   5.361   7.605   4.023
 2348TIP3   OH2 7000   7.499   6.462   4.036
 2348TIP3    H1 7001   7.487   6.367   4.041
 2348TIP3    H2 7002   7.455   6.495   4.114
 2349TIP3   OH2 7003   1.091   2.367   3.833
 2349TIP3    H1 7004   1.052   2.327   3.755
 2349TIP3    H2 7005   1.103   2.459   3.809
 2350TIP3   OH2 7006   5.440   2.854   6.492
 2350TIP3    H1 7007   5.444   2.914   6.568
 2350TIP3    H2 7008   5.517   2.878   6.440
 2351TIP3   OH2 7009   8.177   5.760   1.084
 2351TIP3    H1 7010   8.090   5.793   1.061
 2351TIP3    H2 7011   8.207   5.715   1.005
 2352TIP3   OH2 7012   2.133   4.622   5.573
 2352TIP3    H1 7013   2.164   4.532   5.583
 2352TIP3    H2 7014   2.158   4.665   5.654
 2353TIP3   OH2 7015   3.448   5.171   0.555
 2353TIP3    H1 7016   3.387   5.239   0.526
 2353TIP3    H2 7017   3.438   5.101   0.491
 2354TIP3   OH2 7018   1.659   1.811   0.141
 2354TIP3    H1 7019   1.614   1.789   0.060
 2354TIP3    H2 7020   1.687   1.727   0.177
 2355TIP3   OH2 7021   1.236   6.334   3.282
 2355TIP3    H1 7022   1.304   6.285   3.328
 2355TIP3    H2 7023   1.283   6.400   3.232
 2356TIP3   OH2 7024   5.891   4.840   3.962
 2356TIP3    H1 7025   5.839   4.772   3.919
 2356TIP3    H2 7026   5.874   4.919   3.910
 2357TIP3   OH2 7027   4.245   7.454   0.830
 2357TIP3    H1 7028   4.232   7.536   0.878
 2357TIP3    H2 7029   4.197   7.465   0.749
 2358TIP3   OH2 7030   0.963   0.883   1.484
 2358TIP3    H1 7031   0.877   0.910   1.450
 2358TIP3    H2 7032   1.012   0.855   1.407
 2359TIP3   OH2 7033   6.898   4.458   1.010
 2359TIP3    H1 7034   6.893   4.439   1.104
 2359TIP3    H2 7035   6.888   4.553   1.004
 2360TIP3   OH2 7036   6.912   6.617   2.590
 2360TIP3    H1 7037   6.820   6.630   2.566
 2360TIP3    H2 7038   6.957   6.606   2.506
 2361TIP3   OH2 7039   7.779   6.560   6.558
 2361TIP3    H1 7040   7.707   6.536   6.500
 2361TIP3    H2 7041   7.855   6.515   6.521
 2362TIP3   OH2 7042   1.208   3.859   0.050
 2362TIP3    H1 7043   1.137   3.815   0.004
 2362TIP3    H2 7044   1.284   3.850  -0.008
 2363TIP3   OH2 7045   2.799   5.710   4.922
 2363TIP3    H1 7046   2.775   5.742   4.835
 2363TIP3    H2 7047   2.743   5.633   4.934
 2364TIP3   OH2 7048   5.695   1.649   0.681
 2364TIP3    H1 7049   5.773   1.672   0.730
 2364TIP3    H2 7050   5.724   1.582   0.619
 2365TIP3   OH2 7051   5.299   1.920   0.276
 2365TIP3    H1 7052   5.343   1.836   0.284
 2365TIP3    H2 7053   5.284   1.949   0.367
 2366TIP3   OH2 7054   1.825   6.695   3.695
 2366TIP3    H1 7055   1.834   6.783   3.729
 2366TIP3    H2 7056   1.731   6.677   3.700
 2367TIP3   OH2 7057   1.524   6.317   5.529
 2367TIP3    H1 7058   1.579   6.284   5.600
 2367TIP3    H2 7059   1.567   6.286   5.449
 2368TIP3   OH2 7060   5.018   0.036   5.998
 2368TIP3    H1 7061   4.941   0.076   6.038
 2368TIP3    H2 7062   4.983  -0.039   5.950
 2369TIP3   OH2 7063   2.959   6.636   6.437
 2369TIP3    H1 7064   2.896   6.599   6.498
 2369TIP3    H2 7065   3.015   6.562   6.412
 2370TIP3   OH2 7066   5.806   5.174   5.073
 2370TIP3    H1 7067   5.774   5.259   5.101
 2370TIP3    H2 7068   5.897   5.171   5.104
 2371TIP3   OH2 7069   8.260   6.328   0.508
 2371TIP3    H1 7070   8.321   6.389   0.466
 2371TIP3    H2 7071   8.241   6.369   0.593
 2372TIP3   OH2 7072   3.027   5.610   5.922
 2372TIP3    H1 7073   3.062   5.698   5.910
 2372TIP3    H2 7074   2.992   5.610   6.012
 2373TIP3   OH2 7075   4.422   0.666   1.764
 2373TIP3    H1 7076   4.393   0.735   1.705
 2373TIP3    H2 7077   4.473   0.711   1.831
 2374TIP3   OH2 7078   6.028   3.081   5.954
 2374TIP3    H1 7079   6.119   3.057   5.934
 2374TIP3    H2 7080   5.976   3.034   5.888
 2375TIP3   OH2 7081   4.717   4.311   6.513
 2375TIP3    H1 7082   4.688   4.330   6.423
 2375TIP3    H2 7083   4.771   4.232   6.505
 2376TIP3   OH2 7084   1.159   1.860   2.342
 2376TIP3    H1 7085   1.120   1.942   2.371
 2376TIP3    H2 7086   1.246   1.859   2.381
 2377TIP3   OH2 7087   5.575   6.223   4.381
 2377TIP3    H1 7088   5.520   6.196   4.308
 2377TIP3    H2 7089   5.664   6.205   4.351
 2378TIP3   OH2 7090   5.356   7.049   4.174
 2378TIP3    H1 7091   5.315   6.974   4.217
 2378TIP3    H2 7092   5.349   7.120   4.238
 2379TIP3   OH2 7093   7.572   4.066   5.399
 2379TIP3    H1 7094   7.540   4.131   5.461
 2379TIP3    H2 7095   7.514   3.991   5.411
 2380TIP3   OH2 7096   2.379   1.597   3.044
 2380TIP3    H1 7097   2.297   1.643   3.061
 2380TIP3    H2 7098   2.445   1.666   3.035
 2381TIP3   OH2 7099   5.497   1.478   3.211
 2381TIP3    H1 7100   5.495   1.421   3.134
 2381TIP3    H2 7101   5.420   1.452   3.261
 2382TIP3   OH2 7102   7.470   2.715   1.739
 2382TIP3    H1 7103   7.472   2.769   1.818
 2382TIP3    H2 7104   7.522   2.764   1.675
 2383TIP3   OH2 7105   6.439   1.679   1.393
 2383TIP3    H1 7106   6.488   1.723   1.463
 2383TIP3    H2 7107   6.484   1.704   1.313
 2384TIP3   OH2 7108   7.978   2.665   0.624
 2384TIP3    H1 7109   7.995   2.759   0.617
 2384TIP3    H2 7110   7.994   2.645   0.716
 2385TIP3   OH2 7111   6.376   5.607   2.950
 2385TIP3    H1 7112   6.317   5.572   3.016
 2385TIP3    H2 7113   6.332   5.589   2.866
 2386TIP3   OH2 7114   6.304  -0.001   0.181
 2386TIP3    H1 7115   6.245   0.026   0.252
 2386TIP3    H2 7116   6.250   0.003   0.102
 2387TIP3   OH2 7117   0.204   4.837   2.411
 2387TIP3    H1 7118   0.151   4.805   2.484
 2387TIP3    H2 7119   0.247   4.915   2.444
 2388TIP3   OH2 7120   7.680   1.727   3.796
 2388TIP3    H1 7121   7.652   1.751   3.885
 2388TIP3    H2 7122   7.704   1.810   3.755
 2389TIP3   OH2 7123   6.240   4.492   6.118
 2389TIP3    H1 7124   6.328   4.520   6.092
 2389TIP3    H2 7125   6.197   4.470   6.035
 2390TIP3   OH2 7126   6.894   3.501   1.884
 2390TIP3    H1 7127   6.850   3.464   1.960
 2390TIP3    H2 7128   6.837   3.481   1.811
 2391TIP3   OH2 7129   1.376   7.433   3.630
 2391TIP3    H1 7130   1.331   7.492   3.690
 2391TIP3    H2 7131   1.466   7.464   3.629
 2392TIP3   OH2 7132   3.803   2.341   4.463
 2392TIP3    H1 7133   3.744   2.268   4.444
 2392TIP3    H2 7134   3.760   2.417   4.422
 2393TIP3   OH2 7135   5.066   3.422   1.817
 2393TIP3    H1 7136   5.081   3.489   1.884
 2393TIP3    H2 7137   5.038   3.344   1.866
 2394TIP3   OH2 7138   0.300   0.804   4.928
 2394TIP3    H1 7139   0.226   0.837   4.980
 2394TIP3    H2 7140   0.374   0.805   4.987
 2395TIP3   OH2 7141   5.428   7.349   5.125
 2395TIP3    H1 7142   5.463   7.340   5.037
 2395TIP3    H2 7143   5.489   7.300   5.180
 2396TIP3   OH2 7144   0.206   2.426   2.759
 2396TIP3    H1 7145   0.118   2.465   2.759
 2396TIP3    H2 7146   0.226   2.413   2.851
 2397TIP3   OH2 7147   3.573   3.786   0.017
 2397TIP3    H1 7148   3.604   3.834   0.093
 2397TIP3    H2 7149   3.477   3.793   0.022
 2398TIP3   OH2 7150   4.799   4.869   5.155
 2398TIP3    H1 7151   4.771   4.923   5.080
 2398TIP3    H2 7152   4.854   4.801   5.116
 2399TIP3   OH2 7153   5.978   4.140   4.589
 2399TIP3    H1 7154   6.034   4.119   4.663
 2399TIP3    H2 7155   5.984   4.235   4.580
 2400TIP3   OH2 7156   5.994   0.622   2.960
 2400TIP3    H1 7157   6.049   0.697   2.980
 2400TIP3    H2 7158   5.913   0.660   2.924
 2401TIP3   OH2 7159   5.263   5.050   5.834
 2401TIP3    H1 7160   5.201   5.120   5.854
 2401TIP3    H2 7161   5.347   5.095   5.820
 2402TIP3   OH2 7162   6.682   4.394   4.850
 2402TIP3    H1 7163   6.733   4.453   4.795
 2402TIP3    H2 7164   6.597   4.387   4.807
 2403TIP3   OH2 7165   1.738   4.354   1.534
 2403TIP3    H1 7166   1.741   4.397   1.619
 2403TIP3    H2 7167   1.646   4.361   1.507
 2404TIP3   OH2 7168   2.675   0.942   6.411
 2404TIP3    H1 7169   2.686   1.011   6.476
 2404TIP3    H2 7170   2.712   0.864   6.453
 2405TIP3   OH2 7171   6.094   4.073   6.054
 2405TIP3    H1 7172   6.091   4.122   5.972
 2405TIP3    H2 7173   6.004   4.044   6.068
 2406TIP3   OH2 7174   7.902   5.898   2.359
 2406TIP3    H1 7175   7.845   5.887   2.283
 2406TIP3    H2 7176   7.932   5.988   2.355
 2407TIP3   OH2 7177   6.297   1.081   0.192
 2407TIP3    H1 7178   6.250   1.013   0.144
 2407TIP3    H2 7179   6.312   1.044   0.279
 2408TIP3   OH2 7180   0.100   2.956   1.521
 2408TIP3    H1 7181   0.022   2.903   1.501
 2408TIP3    H2 7182   0.172   2.893   1.522
 2409TIP3   OH2 7183   4.416   5.853   6.641
 2409TIP3    H1 7184   4.397   5.946   6.639
 2409TIP3    H2 7185   4.486   5.843   6.706
 2410TIP3   OH2 7186   2.536   5.648   2.060
 2410TIP3    H1 7187   2.448   5.618   2.080
 2410TIP3    H2 7188   2.546   5.632   1.966
 2411TIP3   OH2 7189   3.956   0.502   6.647
 2411TIP3    H1 7190   3.868   0.532   6.629
 2411TIP3    H2 7191   4.001   0.577   6.685
 2412TIP3   OH2 7192   7.838   2.957   5.299
 2412TIP3    H1 7193   7.832   2.879   5.353
 2412TIP3    H2 7194   7.782   2.938   5.223
 2413TIP3   OH2 7195   7.772   5.868   3.713
 2413TIP3    H1 7196   7.795   5.916   3.792
 2413TIP3    H2 7197   7.705   5.923   3.671
 2414TIP3   OH2 7198   6.142   5.843   1.262
 2414TIP3    H1 7199   6.200   5.885   1.325
 2414TIP3    H2 7200   6.062   5.895   1.265
 2415TIP3   OH2 7201   8.290   5.639   3.843
 2415TIP3    H1 7202   8.293   5.716   3.899
 2415TIP3    H2 7203   8.197   5.630   3.820
 2416TIP3   OH2 7204   5.666   2.639   6.274
 2416TIP3    H1 7205   5.671   2.734   6.276
 2416TIP3    H2 7206   5.634   2.618   6.187
 2417TIP3   OH2 7207   1.118   2.452   4.311
 2417TIP3    H1 7208   1.193   2.443   4.252
 2417TIP3    H2 7209   1.141   2.527   4.367
 2418TIP3   OH2 7210   6.450   5.048   2.517
 2418TIP3    H1 7211   6.493   5.127   2.550
 2418TIP3    H2 7212   6.360   5.054   2.550
 2419TIP3   OH2 7213   3.561   5.124   5.133
 2419TIP3    H1 7214   3.589   5.035   5.109
 2419TIP3    H2 7215   3.633   5.180   5.105
 2420TIP3   OH2 7216   0.490   6.900   0.561
 2420TIP3    H1 7217   0.486   6.962   0.634
 2420TIP3    H2 7218   0.567   6.926   0.511
 2421TIP3   OH2 7219   0.576   4.839   1.473
 2421TIP3    H1 7220   0.497   4.824   1.420
 2421TIP3    H2 7221   0.556   4.917   1.523
 2422TIP3   OH2 7222   8.176   4.295   3.905
 2422TIP3    H1 7223   8.162   4.312   3.812
 2422TIP3    H2 7224   8.270   4.279   3.913
 2423TIP3   OH2 7225   1.387   3.623   4.099
 2423TIP3    H1 7226   1.350   3.551   4.048
 2423TIP3    H2 7227   1.480   3.625   4.075
 2424TIP3   OH2 7228   5.898   0.866   1.647
 2424TIP3    H1 7229   5.890   0.957   1.678
 2424TIP3    H2 7230   5.981   0.865   1.598
 2425TIP3   OH2 7231   7.858   2.578   0.365
 2425TIP3    H1 7232   7.915   2.628   0.424
 2425TIP3    H2 7233   7.790   2.640   0.340
 2426TIP3   OH2 7234   3.117   2.156   2.807
 2426TIP3    H1 7235   3.187   2.141   2.870
 2426TIP3    H2 7236   3.038   2.123   2.850
 2427TIP3   OH2 7237   8.164   1.916   2.007
 2427TIP3    H1 7238   8.095   1.969   2.048
 2427TIP3    H2 7239   8.230   1.906   2.076
 2428TIP3   OH2 7240   2.594   4.571   4.719
 2428TIP3    H1 7241   2.505   4.607   4.721
 2428TIP3    H2 7242   2.636   4.606   4.798
 2429TIP3   OH2 7243   4.781   7.477   1.923
 2429TIP3    H1 7244   4.767   7.427   1.842
 2429TIP3    H2 7245   4.805   7.564   1.893
 2430TIP3   OH2 7246   2.551   3.816   2.667
 2430TIP3    H1 7247   2.465   3.794   2.702
 2430TIP3    H2 7248   2.612   3.782   2.732
 2431TIP3   OH2 7249   3.960   5.757   4.294
 2431TIP3    H1 7250   3.924   5.709   4.219
 2431TIP3    H2 7251   3.887   5.760   4.356
 2432TIP3   OH2 7252   3.007   3.551   4.133
 2432TIP3    H1 7253   3.001   3.624   4.195
 2432TIP3    H2 7254   2.918   3.541   4.099
 2433TIP3   OH2 7255   7.100   6.411   3.294
 2433TIP3    H1 7256   7.180   6.394   3.245
 2433TIP3    H2 7257   7.130   6.428   3.383
 2434TIP3   OH2 7258   7.284   5.686   1.138
 2434TIP3    H1 7259   7.325   5.707   1.222
 2434TIP3    H2 7260   7.237   5.604   1.155
 2435TIP3   OH2 7261   3.409   1.118   2.108
 2435TIP3    H1 7262   3.319   1.144   2.124
 2435TIP3    H2 7263   3.403   1.043   2.048
 2436TIP3   OH2 7264   2.212   4.647   0.940
 2436TIP3    H1 7265   2.282   4.682   0.885
 2436TIP3    H2 7266   2.242   4.560   0.966
 2437TIP3   OH2 7267   1.819   0.948   5.665
 2437TIP3    H1 7268   1.877   0.996   5.724
 2437TIP3    H2 7269   1.800   0.866   5.712
 2438TIP3   OH2 7270   2.136   5.139   5.583
 2438TIP3    H1 7271   2.171   5.175   5.664
 2438TIP3    H2 7272   2.075   5.070   5.611
 2439TIP3   OH2 7273   3.719   1.990   2.617
 2439TIP3    H1 7274   3.690   1.919   2.675
 2439TIP3    H2 7275   3.764   1.945   2.546
 2440TIP3   OH2 7276   4.931   6.601   2.374
 2440TIP3    H1 7277   4.934   6.586   2.469
 2440TIP3    H2 7278   4.912   6.514   2.337
 2441TIP3   OH2 7279   1.939   5.664   3.782
 2441TIP3    H1 7280   1.928   5.759   3.771
 2441TIP3    H2 7281   1.898   5.645   3.867
 2442TIP3   OH2 7282   3.962   4.325   3.017
 2442TIP3    H1 7283   3.988   4.247   3.065
 2442TIP3    H2 7284   4.029   4.335   2.949
 2443TIP3   OH2 7285   1.041   6.817   5.044
 2443TIP3    H1 7286   1.084   6.813   5.129
 2443TIP3    H2 7287   0.955   6.779   5.058
 2444TIP3   OH2 7288   2.798   7.415   5.208
 2444TIP3    H1 7289   2.734   7.350   5.180
 2444TIP3    H2 7290   2.750   7.497   5.208
 2445TIP3   OH2 7291   4.331   3.802   1.864
 2445TIP3    H1 7292   4.376   3.862   1.924
 2445TIP3    H2 7293   4.241   3.833   1.863
 2446TIP3   OH2 7294   0.700   5.287   1.358
 2446TIP3    H1 7295   0.753   5.360   1.390
 2446TIP3    H2 7296   0.685   5.233   1.436
 2447TIP3   OH2 7297   2.701   5.671   3.572
 2447TIP3    H1 7298   2.731   5.640   3.487
 2447TIP3    H2 7299   2.768   5.640   3.634
 2448TIP3   OH2 7300   2.283   0.453   4.068
 2448TIP3    H1 7301   2.263   0.475   4.159
 2448TIP3    H2 7302   2.319   0.364   4.073
 2449TIP3   OH2 7303   1.497   0.496   6.000
 2449TIP3    H1 7304   1.570   0.450   5.959
 2449TIP3    H2 7305   1.525   0.588   6.001
 2450TIP3   OH2 7306   5.983   6.635   1.997
 2450TIP3    H1 7307   5.911   6.697   1.993
 2450TIP3    H2 7308   5.947   6.553   1.963
 2451TIP3   OH2 7309   4.492   6.579   6.566
 2451TIP3    H1 7310   4.531   6.515   6.624
 2451TIP3    H2 7311   4.453   6.527   6.495
 2452TIP3   OH2 7312   0.042   0.954   1.346
 2452TIP3    H1 7313  -0.047   0.922   1.330
 2452TIP3    H2 7314   0.037   0.996   1.432
 2453TIP3   OH2 7315   4.376   2.611   2.361
 2453TIP3    H1 7316   4.448   2.554   2.333
 2453TIP3    H2 7317   4.368   2.676   2.291
 2454TIP3   OH2 7318   2.937   0.730   4.903
 2454TIP3    H1 7319   2.842   0.721   4.903
 2454TIP3    H2 7320   2.954   0.811   4.951
 2455TIP3   OH2 7321   5.851   0.276   3.144
 2455TIP3    H1 7322   5.935   0.306   3.110
 2455TIP3    H2 7323   5.810   0.229   3.070
 2456TIP3   OH2 7324   5.927   2.959   0.739
 2456TIP3    H1 7325   5.977   3.002   0.809
 2456TIP3    H2 7326   5.982   2.970   0.661
 2457TIP3   OH2 7327   1.545   2.849   0.872
 2457TIP3    H1 7328   1.455   2.880   0.868
 2457TIP3    H2 7329   1.538   2.754   0.879
 2458TIP3   OH2 7330   3.961   2.617   2.851
 2458TIP3    H1 7331   3.905   2.579   2.918
 2458TIP3    H2 7332   3.916   2.596   2.768
 2459TIP3   OH2 7333   2.791   2.344   6.727
 2459TIP3    H1 7334   2.718   2.314   6.673
 2459TIP3    H2 7335   2.821   2.424   6.684
 2460TIP3   OH2 7336   8.184   6.510   3.466
 2460TIP3    H1 7337   8.272   6.536   3.438
 2460TIP3    H2 7338   8.192   6.418   3.491
 2461TIP3   OH2 7339   2.936   2.439   5.545
 2461TIP3    H1 7340   2.970   2.357   5.507
 2461TIP3    H2 7341   2.977   2.508   5.493
 2462TIP3   OH2 7342   6.003   2.195   3.452
 2462TIP3    H1 7343   6.022   2.210   3.544
 2462TIP3    H2 7344   6.082   2.225   3.406
 2463TIP3   OH2 7345   6.877   4.827   1.335
 2463TIP3    H1 7346   6.868   4.853   1.427
 2463TIP3    H2 7347   6.914   4.903   1.292
 2464TIP3   OH2 7348   6.544   1.410   3.122
 2464TIP3    H1 7349   6.614   1.352   3.093
 2464TIP3    H2 7350   6.565   1.431   3.213
 2465TIP3   OH2 7351   5.027   1.651   0.958
 2465TIP3    H1 7352   4.937   1.654   0.924
 2465TIP3    H2 7353   5.018   1.683   1.048
 2466TIP3   OH2 7354   3.350   2.885   4.553
 2466TIP3    H1 7355   3.343   2.807   4.498
 2466TIP3    H2 7356   3.291   2.949   4.512
 2467TIP3   OH2 7357   2.090   6.324   4.904
 2467TIP3    H1 7358   2.165   6.360   4.858
 2467TIP3    H2 7359   2.024   6.311   4.836
 2468TIP3   OH2 7360   1.068   5.098   1.967
 2468TIP3    H1 7361   0.978   5.122   1.990
 2468TIP3    H2 7362   1.080   5.011   2.005
 2469TIP3   OH2 7363   0.733   5.267   5.851
 2469TIP3    H1 7364   0.756   5.266   5.758
 2469TIP3    H2 7365   0.639   5.287   5.852
 2470TIP3   OH2 7366   5.481   0.553   5.344
 2470TIP3    H1 7367   5.397   0.596   5.356
 2470TIP3    H2 7368   5.540   0.598   5.404
 2471TIP3   OH2 7369   1.838   7.746   0.517
 2471TIP3    H1 7370   1.919   7.796   0.529
 2471TIP3    H2 7371   1.845   7.674   0.580
 2472TIP3   OH2 7372   6.995   2.329   0.990
 2472TIP3    H1 7373   7.044   2.382   1.053
 2472TIP3    H2 7374   6.985   2.385   0.913
 2473TIP3   OH2 7375   6.328   6.729   1.727
 2473TIP3    H1 7376   6.395   6.742   1.794
 2473TIP3    H2 7377   6.358   6.781   1.652
 2474TIP3   OH2 7378   4.349   6.531   6.057
 2474TIP3    H1 7379   4.383   6.591   5.990
 2474TIP3    H2 7380   4.262   6.506   6.025
 2475TIP3   OH2 7381   3.759   1.390   6.716
 2475TIP3    H1 7382   3.717   1.311   6.682
 2475TIP3    H2 7383   3.736   1.459   6.653
 2476TIP3   OH2 7384   1.870   4.990   3.544
 2476TIP3    H1 7385   1.931   4.919   3.526
 2476TIP3    H2 7386   1.922   5.070   3.534
 2477TIP3   OH2 7387   6.748   5.855   2.252
 2477TIP3    H1 7388   6.840   5.857   2.225
 2477TIP3    H2 7389   6.702   5.906   2.185
 2478TIP3   OH2 7390   5.938   0.214   5.026
 2478TIP3    H1 7391   5.878   0.273   4.982
 2478TIP3    H2 7392   6.000   0.272   5.071
 2479TIP3   OH2 7393   3.119   6.546   5.691
 2479TIP3    H1 7394   3.116   6.482   5.620
 2479TIP3    H2 7395   3.065   6.508   5.760
 2480TIP3   OH2 7396   7.587   0.637   4.550
 2480TIP3    H1 7397   7.498   0.607   4.569
 2480TIP3    H2 7398   7.578   0.732   4.541
 2481TIP3   OH2 7399   6.408   1.666   0.040
 2481TIP3    H1 7400   6.401   1.750   0.085
 2481TIP3    H2 7401   6.317   1.643   0.019
 2482TIP3   OH2 7402   2.145   4.438   4.306
 2482TIP3    H1 7403   2.190   4.472   4.229
 2482TIP3    H2 7404   2.054   4.427   4.278
 2483TIP3   OH2 7405   5.148   7.347   2.890
 2483TIP3    H1 7406   5.111   7.268   2.931
 2483TIP3    H2 7407   5.169   7.319   2.801
 2484TIP3   OH2 7408   0.633   3.020   1.850
 2484TIP3    H1 7409   0.622   3.089   1.784
 2484TIP3    H2 7410   0.706   2.968   1.819
 2485TIP3   OH2 7411   3.370   0.892   0.357
 2485TIP3    H1 7412   3.380   0.821   0.294
 2485TIP3    H2 7413   3.348   0.848   0.439
 2486TIP3   OH2 7414   5.775   1.020   5.081
 2486TIP3    H1 7415   5.810   0.942   5.039
 2486TIP3    H2 7416   5.773   1.086   5.011
 2487TIP3   OH2 7417   1.991   6.395   1.069
 2487TIP3    H1 7418   2.033   6.310   1.083
 2487TIP3    H2 7419   1.945   6.386   0.986
 2488TIP3   OH2 7420   1.521   6.462   2.285
 2488TIP3    H1 7421   1.493   6.373   2.304
 2488TIP3    H2 7422   1.456   6.518   2.328
 2489TIP3   OH2 7423   5.374   7.675   6.721
 2489TIP3    H1 7424   5.440   7.679   6.789
 2489TIP3    H2 7425   5.361   7.767   6.694
 2490TIP3   OH2 7426   4.578   4.069   0.449
 2490TIP3    H1 7427   4.496   4.053   0.496
 2490TIP3    H2 7428   4.616   3.982   0.437
 2491TIP3   OH2 7429   1.042   1.783   4.790
 2491TIP3    H1 7430   1.095   1.778   4.869
 2491TIP3    H2 7431   1.093   1.736   4.723
 2492TIP3   OH2 7432   2.164   2.745   0.880
 2492TIP3    H1 7433   2.236   2.711   0.827
 2492TIP3    H2 7434   2.154   2.836   0.850
 2493TIP3   OH2 7435   6.334   0.586   0.682
 2493TIP3    H1 7436   6.361   0.619   0.767
 2493TIP3    H2 7437   6.416   0.570   0.635
 2494TIP3   OH2 7438   1.028   1.300   4.927
 2494TIP3    H1 7439   1.089   1.245   4.878
 2494TIP3    H2 7440   1.034   1.268   5.017
 2495TIP3   OH2 7441   4.210   4.807   0.720
 2495TIP3    H1 7442   4.292   4.776   0.681
 2495TIP3    H2 7443   4.143   4.785   0.655
 2496TIP3   OH2 7444   0.172   3.320   6.104
 2496TIP3    H1 7445   0.114   3.326   6.027
 2496TIP3    H2 7446   0.148   3.237   6.145
 2497TIP3   OH2 7447   4.863   0.419   5.483
 2497TIP3    H1 7448   4.915   0.416   5.563
 2497TIP3    H2 7449   4.928   0.421   5.413
 2498TIP3   OH2 7450   6.172   0.464   4.830
 2498TIP3    H1 7451   6.224   0.516   4.770
 2498TIP3    H2 7452   6.202   0.374   4.816
 2499TIP3   OH2 7453   7.173   4.619   6.521
 2499TIP3    H1 7454   7.192   4.580   6.606
 2499TIP3    H2 7455   7.251   4.670   6.499
 2500TIP3   OH2 7456   3.098   1.155   5.528
 2500TIP3    H1 7457   3.102   1.070   5.572
 2500TIP3    H2 7458   3.094   1.219   5.599
 2501TIP3   OH2 7459   6.337   1.837   4.510
 2501TIP3    H1 7460   6.261   1.868   4.460
 2501TIP3    H2 7461   6.397   1.911   4.511
 2502TIP3   OH2 7462   4.924   3.242   0.526
 2502TIP3    H1 7463   4.829   3.253   0.531
 2502TIP3    H2 7464   4.941   3.165   0.579
 2503TIP3   OH2 7465   5.322   2.218   0.045
 2503TIP3    H1 7466   5.316   2.265  -0.038
 2503TIP3    H2 7467   5.404   2.169   0.038
 2504TIP3   OH2 7468   8.254   4.090   6.224
 2504TIP3    H1 7469   8.191   4.140   6.172
 2504TIP3    H2 7470   8.335   4.141   6.217
 2505TIP3   OH2 7471   3.128   1.191   0.034
 2505TIP3    H1 7472   3.144   1.154   0.121
 2505TIP3    H2 7473   3.204   1.246   0.018
 2506TIP3   OH2 7474   0.233   5.879   2.636
 2506TIP3    H1 7475   0.323   5.904   2.616
 2506TIP3    H2 7476   0.179   5.943   2.588
 2507TIP3   OH2 7477   2.450   0.647   1.130
 2507TIP3    H1 7478   2.383   0.685   1.187
 2507TIP3    H2 7479   2.450   0.554   1.153
 2508TIP3   OH2 7480   0.300   2.527   6.688
 2508TIP3    H1 7481   0.265   2.601   6.738
 2508TIP3    H2 7482   0.264   2.539   6.600
 2509TIP3   OH2 7483   6.529   2.035   4.454
 2509TIP3    H1 7484   6.576   2.056   4.535
 2509TIP3    H2 7485   6.552   2.106   4.394
 2510TIP3   OH2 7486   7.525   0.105   4.646
 2510TIP3    H1 7487   7.520   0.119   4.740
 2510TIP3    H2 7488   7.521   0.193   4.608
 2511TIP3   OH2 7489   3.839   1.171   3.225
 2511TIP3    H1 7490   3.855   1.252   3.177
 2511TIP3    H2 7491   3.916   1.160   3.280
 2512TIP3   OH2 7492   4.237   0.745   4.381
 2512TIP3    H1 7493   4.303   0.794   4.430
 2512TIP3    H2 7494   4.153   0.776   4.416
 2513TIP3   OH2 7495   6.824   3.819   5.963
 2513TIP3    H1 7496   6.827   3.901   5.913
 2513TIP3    H2 7497   6.835   3.847   6.054
 2514TIP3   OH2 7498   0.521   2.588   3.640
 2514TIP3    H1 7499   0.504   2.503   3.680
 2514TIP3    H2 7500   0.495   2.577   3.549
 2515TIP3   OH2 7501   1.989   6.991   2.217
 2515TIP3    H1 7502   1.900   6.997   2.181
 2515TIP3    H2 7503   1.976   6.967   2.309
 2516TIP3   OH2 7504   3.003   3.027   3.753
 2516TIP3    H1 7505   2.958   3.027   3.837
 2516TIP3    H2 7506   2.936   3.051   3.689
 2517TIP3   OH2 7507   1.576   6.805   4.814
 2517TIP3    H1 7508   1.502   6.859   4.842
 2517TIP3    H2 7509   1.648   6.867   4.804
 2518TIP3   OH2 7510   2.916   6.257   6.536
 2518TIP3    H1 7511   3.001   6.289   6.504
 2518TIP3    H2 7512   2.904   6.173   6.492
 2519TIP3   OH2 7513   0.397   6.860   0.168
 2519TIP3    H1 7514   0.454   6.784   0.155
 2519TIP3    H2 7515   0.457   6.931   0.192
 2520TIP3   OH2 7516   6.437   0.100   2.332
 2520TIP3    H1 7517   6.384   0.178   2.317
 2520TIP3    H2 7518   6.410   0.069   2.419
 2521TIP3   OH2 7519   1.982   6.987   4.142
 2521TIP3    H1 7520   1.921   6.922   4.108
 2521TIP3    H2 7521   2.052   6.991   4.076
 2522TIP3   OH2 7522   2.573   4.422   1.220
 2522TIP3    H1 7523   2.616   4.498   1.259
 2522TIP3    H2 7524   2.550   4.367   1.295
 2523TIP3   OH2 7525   6.738   0.524   2.139
 2523TIP3    H1 7526   6.699   0.582   2.205
 2523TIP3    H2 7527   6.829   0.515   2.166
 2524TIP3   OH2 7528   2.593   2.408   0.591
 2524TIP3    H1 7529   2.511   2.385   0.635
 2524TIP3    H2 7530   2.565   2.453   0.511
 2525TIP3   OH2 7531   7.465   1.346   2.157
 2525TIP3    H1 7532   7.535   1.281   2.146
 2525TIP3    H2 7533   7.490   1.418   2.098
 2526TIP3   OH2 7534   6.859   5.326   4.090
 2526TIP3    H1 7535   6.808   5.250   4.116
 2526TIP3    H2 7536   6.797   5.398   4.089
 2527TIP3   OH2 7537   4.263   0.745   1.500
 2527TIP3    H1 7538   4.202   0.693   1.446
 2527TIP3    H2 7539   4.260   0.832   1.462
 2528TIP3   OH2 7540   5.414   1.437   0.763
 2528TIP3    H1 7541   5.410   1.422   0.668
 2528TIP3    H2 7542   5.336   1.489   0.782
 2529TIP3   OH2 7543   6.139   6.509   1.064
 2529TIP3    H1 7544   6.148   6.440   0.998
 2529TIP3    H2 7545   6.046   6.530   1.063
 2530TIP3   OH2 7546   1.654   0.937   5.159
 2530TIP3    H1 7547   1.672   1.031   5.167
 2530TIP3    H2 7548   1.587   0.920   5.225
 2531TIP3   OH2 7549   0.793   0.744   3.367
 2531TIP3    H1 7550   0.810   0.788   3.283
 2531TIP3    H2 7551   0.699   0.726   3.366
 2532TIP3   OH2 7552   4.561   2.450   2.236
 2532TIP3    H1 7553   4.652   2.432   2.212
 2532TIP3    H2 7554   4.539   2.382   2.299
 2533TIP3   OH2 7555   3.418   1.966   3.250
 2533TIP3    H1 7556   3.483   1.931   3.189
 2533TIP3    H2 7557   3.455   2.048   3.282
 2534TIP3   OH2 7558   5.745   3.830   0.386
 2534TIP3    H1 7559   5.723   3.836   0.293
 2534TIP3    H2 7560   5.821   3.888   0.397
 2535TIP3   OH2 7561   0.747   0.618   3.796
 2535TIP3    H1 7562   0.834   0.590   3.822
 2535TIP3    H2 7563   0.753   0.713   3.789
 2536TIP3   OH2 7564   7.121   6.628   1.492
 2536TIP3    H1 7565   7.038   6.652   1.451
 2536TIP3    H2 7566   7.145   6.545   1.451
 2537TIP3   OH2 7567   5.685   3.427   5.315
 2537TIP3    H1 7568   5.737   3.431   5.395
 2537TIP3    H2 7569   5.644   3.340   5.318
 2538TIP3   OH2 7570   7.344   4.426   0.558
 2538TIP3    H1 7571   7.414   4.367   0.586
 2538TIP3    H2 7572   7.302   4.380   0.485
 2539TIP3   OH2 7573   2.574   2.916   6.354
 2539TIP3    H1 7574   2.546   2.824   6.362
 2539TIP3    H2 7575   2.636   2.929   6.426
 2540TIP3   OH2 7576   7.813   1.092   2.699
 2540TIP3    H1 7577   7.881   1.139   2.746
 2540TIP3    H2 7578   7.847   1.083   2.610
 2541TIP3   OH2 7579   5.216   5.688   4.348
 2541TIP3    H1 7580   5.182   5.661   4.433
 2541TIP3    H2 7581   5.286   5.625   4.329
 2542TIP3   OH2 7582   1.529   0.515   3.076
 2542TIP3    H1 7583   1.448   0.469   3.099
 2542TIP3    H2 7584   1.590   0.493   3.146
 2543TIP3   OH2 7585   3.238   6.829   6.614
 2543TIP3    H1 7586   3.197   6.781   6.685
 2543TIP3    H2 7587   3.165   6.865   6.563
 2544TIP3   OH2 7588   5.080   0.566   0.580
 2544TIP3    H1 7589   5.018   0.619   0.529
 2544TIP3    H2 7590   5.132   0.520   0.514
 2545TIP3   OH2 7591   2.468   0.213   2.512
 2545TIP3    H1 7592   2.444   0.301   2.481
 2545TIP3    H2 7593   2.391   0.160   2.494
 2546TIP3   OH2 7594   1.176   3.272   1.936
 2546TIP3    H1 7595   1.263   3.234   1.932
 2546TIP3    H2 7596   1.123   3.209   1.985
 2547TIP3   OH2 7597   5.906   2.739   2.056
 2547TIP3    H1 7598   5.961   2.667   2.086
 2547TIP3    H2 7599   5.914   2.805   2.124
 2548TIP3   OH2 7600   7.824   1.594   0.749
 2548TIP3    H1 7601   7.854   1.643   0.672
 2548TIP3    H2 7602   7.730   1.612   0.754
 2549TIP3   OH2 7603   1.593   3.965   4.810
 2549TIP3    H1 7604   1.570   3.875   4.830
 2549TIP3    H2 7605   1.523   4.018   4.847
 2550TIP3   OH2 7606   6.146   2.956   4.730
 2550TIP3    H1 7607   6.229   2.944   4.777
 2550TIP3    H2 7608   6.160   3.034   4.677
 2551TIP3   OH2 7609   7.616   3.547   0.600
 2551TIP3    H1 7610   7.644   3.457   0.617
 2551TIP3    H2 7611   7.547   3.563   0.664
 2552TIP3   OH2 7612   0.587   2.636   0.562
 2552TIP3    H1 7613   0.556   2.689   0.635
 2552TIP3    H2 7614   0.663   2.589   0.596
 2553TIP3   OH2 7615   5.775   1.143   2.757
 2553TIP3    H1 7616   5.852   1.150   2.701
 2553TIP3    H2 7617   5.707   1.108   2.700
 2554TIP3   OH2 7618   1.684   6.259   4.563
 2554TIP3    H1 7619   1.614   6.292   4.506
 2554TIP3    H2 7620   1.640   6.198   4.622
 2555TIP3   OH2 7621   5.629   3.202   5.014
 2555TIP3    H1 7622   5.717   3.174   4.989
 2555TIP3    H2 7623   5.571   3.153   4.956
 2556TIP3   OH2 7624   5.715   5.552   6.325
 2556TIP3    H1 7625   5.710   5.499   6.405
 2556TIP3    H2 7626   5.707   5.488   6.254
 2557TIP3   OH2 7627   6.696   5.533   3.982
 2557TIP3    H1 7628   6.770   5.568   3.933
 2557TIP3    H2 7629   6.624   5.533   3.920
 2558TIP3   OH2 7630   1.997   1.506   2.654
 2558TIP3    H1 7631   2.071   1.476   2.706
 2558TIP3    H2 7632   1.937   1.432   2.652
 2559TIP3   OH2 7633   7.992   3.319   4.557
 2559TIP3    H1 7634   7.909   3.338   4.600
 2559TIP3    H2 7635   8.038   3.260   4.617
 2560TIP3   OH2 7636   2.997   3.602   2.034
 2560TIP3    H1 7637   2.954   3.598   2.120
 2560TIP3    H2 7638   3.086   3.629   2.052
 2561TIP3   OH2 7639   0.791   4.804   5.205
 2561TIP3    H1 7640   0.844   4.726   5.192
 2561TIP3    H2 7641   0.778   4.840   5.117
 2562TIP3   OH2 7642   4.503   2.398   6.110
 2562TIP3    H1 7643   4.423   2.356   6.140
 2562TIP3    H2 7644   4.569   2.328   6.111
 2563TIP3   OH2 7645   6.307   2.104   2.566
 2563TIP3    H1 7646   6.261   2.033   2.611
 2563TIP3    H2 7647   6.393   2.107   2.607
 2564TIP3   OH2 7648   0.430   2.946   6.464
 2564TIP3    H1 7649   0.486   2.987   6.398
 2564TIP3    H2 7650   0.424   2.855   6.437
 2565TIP3   OH2 7651   2.785   3.869   3.651
 2565TIP3    H1 7652   2.833   3.943   3.686
 2565TIP3    H2 7653   2.770   3.892   3.559
 2566TIP3   OH2 7654   4.939   1.045   3.441
 2566TIP3    H1 7655   4.957   1.024   3.349
 2566TIP3    H2 7656   4.907   1.135   3.439
 2567TIP3   OH2 7657   3.890   2.855   0.877
 2567TIP3    H1 7658   3.956   2.863   0.946
 2567TIP3    H2 7659   3.941   2.857   0.795
 2568TIP3   OH2 7660   4.470   5.558   5.013
 2568TIP3    H1 7661   4.493   5.499   5.086
 2568TIP3    H2 7662   4.472   5.501   4.936
 2569TIP3   OH2 7663   3.547   4.874   5.334
 2569TIP3    H1 7664   3.550   4.829   5.249
 2569TIP3    H2 7665   3.454   4.873   5.357
 2570TIP3   OH2 7666   2.373   5.143   0.612
 2570TIP3    H1 7667   2.384   5.232   0.647
 2570TIP3    H2 7668   2.462   5.107   0.611
 2571TIP3   OH2 7669   0.852   3.730   2.112
 2571TIP3    H1 7670   0.776   3.707   2.058
 2571TIP3    H2 7671   0.816   3.737   2.201
 2572TIP3   OH2 7672   1.594   2.477   3.423
 2572TIP3    H1 7673   1.529   2.476   3.352
 2572TIP3    H2 7674   1.673   2.515   3.382
 2573TIP3   OH2 7675   5.606   7.132   5.225
 2573TIP3    H1 7676   5.697   7.159   5.234
 2573TIP3    H2 7677   5.609   7.036   5.225
 2574TIP3   OH2 7678   4.785   7.475   6.235
 2574TIP3    H1 7679   4.879   7.458   6.223
 2574TIP3    H2 7680   4.778   7.570   6.240
 2575TIP3   OH2 7681   3.165   1.370   2.789
 2575TIP3    H1 7682   3.136   1.308   2.855
 2575TIP3    H2 7683   3.107   1.354   2.714
 2576TIP3   OH2 7684   2.188   3.893   4.312
 2576TIP3    H1 7685   2.183   3.929   4.223
 2576TIP3    H2 7686   2.273   3.848   4.314
 2577TIP3   OH2 7687   4.603   0.580   1.969
 2577TIP3    H1 7688   4.646   0.624   1.896
 2577TIP3    H2 7689   4.642   0.621   2.047
 2578TIP3   OH2 7690   6.769   4.466   5.490
 2578TIP3    H1 7691   6.789   4.412   5.414
 2578TIP3    H2 7692   6.810   4.421   5.563
 2579TIP3   OH2 7693   1.173   2.639   4.487
 2579TIP3    H1 7694   1.224   2.710   4.448
 2579TIP3    H2 7695   1.106   2.684   4.539
 2580TIP3   OH2 7696   1.343   5.981   3.664
 2580TIP3    H1 7697   1.271   5.927   3.697
 2580TIP3    H2 7698   1.402   5.991   3.738
 2581TIP3   OH2 7699   6.205   2.708   0.290
 2581TIP3    H1 7700   6.153   2.681   0.366
 2581TIP3    H2 7701   6.156   2.674   0.214
 2582TIP3   OH2 7702   1.883   5.218   6.439
 2582TIP3    H1 7703   1.953   5.185   6.495
 2582TIP3    H2 7704   1.828   5.271   6.497
 2583TIP3   OH2 7705   1.039   1.042   4.641
 2583TIP3    H1 7706   0.966   0.984   4.619
 2583TIP3    H2 7707   1.066   1.014   4.728
 2584TIP3   OH2 7708   0.509   3.902   6.151
 2584TIP3    H1 7709   0.446   3.974   6.159
 2584TIP3    H2 7710   0.592   3.945   6.133
 2585TIP3   OH2 7711   6.445   2.866   5.671
 2585TIP3    H1 7712   6.487   2.942   5.632
 2585TIP3    H2 7713   6.391   2.901   5.741
 2586TIP3   OH2 7714   5.812   4.447   5.147
 2586TIP3    H1 7715   5.867   4.375   5.178
 2586TIP3    H2 7716   5.725   4.427   5.182
 2587TIP3   OH2 7717   1.761  -0.007   1.798
 2587TIP3    H1 7718   1.801  -0.004   1.711
 2587TIP3    H2 7719   1.757   0.084   1.826
 2588TIP3   OH2 7720   2.741   6.217   6.041
 2588TIP3    H1 7721   2.793   6.294   6.064
 2588TIP3    H2 7722   2.766   6.150   6.105
 2589TIP3   OH2 7723   8.168   3.391   3.087
 2589TIP3    H1 7724   8.250   3.386   3.136
 2589TIP3    H2 7725   8.191   3.367   2.998
 2590TIP3   OH2 7726   2.726   2.690   5.806
 2590TIP3    H1 7727   2.717   2.616   5.746
 2590TIP3    H2 7728   2.818   2.689   5.832
 2591TIP3   OH2 7729   6.088   5.396   5.999
 2591TIP3    H1 7730   6.032   5.324   5.969
 2591TIP3    H2 7731   6.032   5.446   6.060
 2592TIP3   OH2 7732   3.651   1.441   6.373
 2592TIP3    H1 7733   3.647   1.490   6.291
 2592TIP3    H2 7734   3.626   1.504   6.440
 2593TIP3   OH2 7735   2.948   1.447   3.616
 2593TIP3    H1 7736   2.953   1.354   3.592
 2593TIP3    H2 7737   3.031   1.464   3.661
 2594TIP3   OH2 7738   5.905   0.143   3.873
 2594TIP3    H1 7739   5.985   0.102   3.841
 2594TIP3    H2 7740   5.912   0.138   3.968
 2595TIP3   OH2 7741   4.129   6.453   2.342
 2595TIP3    H1 7742   4.118   6.379   2.282
 2595TIP3    H2 7743   4.175   6.417   2.417
 2596TIP3   OH2 7744   8.258   5.838   4.027
 2596TIP3    H1 7745   8.302   5.797   4.102
 2596TIP3    H2 7746   8.177   5.874   4.063
 2597TIP3   OH2 7747   6.184   5.102   3.191
 2597TIP3    H1 7748   6.173   5.048   3.113
 2597TIP3    H2 7749   6.277   5.122   3.193
 2598TIP3   OH2 7750   3.910   1.783   3.315
 2598TIP3    H1 7751   3.974   1.808   3.381
 2598TIP3    H2 7752   3.935   1.833   3.237
 2599TIP3   OH2 7753   1.673   5.540   5.658
 2599TIP3    H1 7754   1.752   5.506   5.699
 2599TIP3    H2 7755   1.682   5.515   5.566
 2600TIP3   OH2 7756   6.324   4.849   3.479
 2600TIP3    H1 7757   6.247   4.801   3.509
 2600TIP3    H2 7758   6.390   4.781   3.461
 2601TIP3   OH2 7759   1.518   6.764   1.210
 2601TIP3    H1 7760   1.423   6.769   1.201
 2601TIP3    H2 7761   1.552   6.808   1.132
 2602TIP3   OH2 7762   4.686   5.867   5.648
 2602TIP3    H1 7763   4.760   5.901   5.598
 2602TIP3    H2 7764   4.622   5.938   5.648
 2603TIP3   OH2 7765   6.534   2.809   2.491
 2603TIP3    H1 7766   6.589   2.749   2.442
 2603TIP3    H2 7767   6.508   2.876   2.427
 2604TIP3   OH2 7768   6.233   1.059   0.581
 2604TIP3    H1 7769   6.218   1.150   0.557
 2604TIP3    H2 7770   6.200   1.053   0.671
 2605TIP3   OH2 7771   5.158   3.001   3.906
 2605TIP3    H1 7772   5.074   2.996   3.862
 2605TIP3    H2 7773   5.196   2.914   3.897
 2606TIP3   OH2 7774   5.154   7.779   4.333
 2606TIP3    H1 7775   5.084   7.724   4.298
 2606TIP3    H2 7776   5.171   7.843   4.264
 2607TIP3   OH2 7777   0.845   2.025   6.803
 2607TIP3    H1 7778   0.780   1.992   6.740
 2607TIP3    H2 7779   0.918   2.055   6.749
 2608TIP3   OH2 7780   0.856   4.796   4.432
 2608TIP3    H1 7781   0.877   4.888   4.450
 2608TIP3    H2 7782   0.846   4.792   4.337
 2609TIP3   OH2 7783   6.554   4.126   3.333
 2609TIP3    H1 7784   6.599   4.044   3.349
 2609TIP3    H2 7785   6.574   4.181   3.409
 2610TIP3   OH2 7786   7.126   3.137   5.361
 2610TIP3    H1 7787   7.058   3.160   5.297
 2610TIP3    H2 7788   7.078   3.124   5.443
 2611TIP3   OH2 7789   4.169   0.377   1.078
 2611TIP3    H1 7790   4.097   0.379   1.014
 2611TIP3    H2 7791   4.208   0.290   1.066
 2612TIP3   OH2 7792   6.700   5.445   2.299
 2612TIP3    H1 7793   6.757   5.369   2.295
 2612TIP3    H2 7794   6.699   5.479   2.209
 2613TIP3   OH2 7795   6.044   1.902   3.444
 2613TIP3    H1 7796   6.059   1.996   3.429
 2613TIP3    H2 7797   6.121   1.859   3.407
 2614TIP3   OH2 7798   1.721   3.188   2.690
 2614TIP3    H1 7799   1.659   3.254   2.722
 2614TIP3    H2 7800   1.740   3.215   2.600
 2615TIP3   OH2 7801   4.268   3.671   4.903
 2615TIP3    H1 7802   4.178   3.695   4.879
 2615TIP3    H2 7803   4.265   3.661   4.998
 2616TIP3   OH2 7804   2.516   6.468   4.106
 2616TIP3    H1 7805   2.454   6.433   4.042
 2616TIP3    H2 7806   2.463   6.523   4.163
 2617TIP3   OH2 7807   4.418   1.765   6.022
 2617TIP3    H1 7808   4.414   1.857   6.047
 2617TIP3    H2 7809   4.382   1.719   6.098
 2618TIP3   OH2 7810   7.930   4.290   1.502
 2618TIP3    H1 7811   7.976   4.323   1.580
 2618TIP3    H2 7812   7.907   4.368   1.453
 2619TIP3   OH2 7813   4.804   5.866   3.016
 2619TIP3    H1 7814   4.736   5.931   3.000
 2619TIP3    H2 7815   4.828   5.878   3.108
 2620TIP3   OH2 7816   7.309   1.405   0.676
 2620TIP3    H1 7817   7.332   1.390   0.768
 2620TIP3    H2 7818   7.214   1.389   0.672
 2621TIP3   OH2 7819   0.571   7.101   6.515
 2621TIP3    H1 7820   0.575   7.005   6.524
 2621TIP3    H2 7821   0.515   7.115   6.439
 2622TIP3   OH2 7822   5.949   6.223   4.704
 2622TIP3    H1 7823   5.924   6.186   4.789
 2622TIP3    H2 7824   5.867   6.258   4.668
 2623TIP3   OH2 7825   6.891   5.943   5.218
 2623TIP3    H1 7826   6.927   5.957   5.130
 2623TIP3    H2 7827   6.798   5.928   5.204
 2624TIP3   OH2 7828   8.240   7.378   5.429
 2624TIP3    H1 7829   8.247   7.349   5.338
 2624TIP3    H2 7830   8.317   7.342   5.472
 2625TIP3   OH2 7831   5.915   2.203   4.516
 2625TIP3    H1 7832   5.899   2.294   4.541
 2625TIP3    H2 7833   6.002   2.184   4.550
 2626TIP3   OH2 7834   0.657   2.431   1.970
 2626TIP3    H1 7835   0.640   2.524   1.962
 2626TIP3    H2 7836   0.747   2.425   2.001
 2627TIP3   OH2 7837   5.347   2.940   2.259
 2627TIP3    H1 7838   5.267   2.916   2.213
 2627TIP3    H2 7839   5.412   2.955   2.190
 2628TIP3   OH2 7840   7.670   5.268   4.444
 2628TIP3    H1 7841   7.672   5.221   4.527
 2628TIP3    H2 7842   7.763   5.283   4.422
 2629TIP3   OH2 7843   6.577   4.063   5.326
 2629TIP3    H1 7844   6.524   4.019   5.260
 2629TIP3    H2 7845   6.557   4.156   5.316
 2630TIP3   OH2 7846   2.262   3.528   1.495
 2630TIP3    H1 7847   2.186   3.500   1.546
 2630TIP3    H2 7848   2.235   3.611   1.456
 2631TIP3   OH2 7849   4.033   4.334   4.481
 2631TIP3    H1 7850   4.052   4.414   4.431
 2631TIP3    H2 7851   4.064   4.352   4.569
 2632TIP3   OH2 7852   1.228   3.357   6.676
 2632TIP3    H1 7853   1.254   3.417   6.746
 2632TIP3    H2 7854   1.146   3.394   6.641
 2633TIP3   OH2 7855   0.528   1.809   1.871
 2633TIP3    H1 7856   0.541   1.848   1.957
 2633TIP3    H2 7857   0.454   1.750   1.882
 2634TIP3   OH2 7858   1.738   6.119   5.776
 2634TIP3    H1 7859   1.772   6.205   5.800
 2634TIP3    H2 7860   1.645   6.123   5.797
 2635TIP3   OH2 7861   0.885   2.008   0.024
 2635TIP3    H1 7862   0.824   1.950   0.070
 2635TIP3    H2 7863   0.841   2.093   0.024
 2636TIP3   OH2 7864   7.559   1.070   4.648
 2636TIP3    H1 7865   7.496   1.000   4.667
 2636TIP3    H2 7866   7.510   1.151   4.659
 2637TIP3   OH2 7867   2.163   0.804   4.435
 2637TIP3    H1 7868   2.187   0.855   4.358
 2637TIP3    H2 7869   2.148   0.715   4.401
 2638TIP3   OH2 7870   1.752   1.538   2.403
 2638TIP3    H1 7871   1.683   1.599   2.375
 2638TIP3    H2 7872   1.816   1.539   2.332
 2639TIP3   OH2 7873   0.079   4.589   3.605
 2639TIP3    H1 7874   0.088   4.672   3.558
 2639TIP3    H2 7875  -0.003   4.598   3.654
 2640TIP3   OH2 7876   5.006   6.524   0.155
 2640TIP3    H1 7877   5.081   6.465   0.154
 2640TIP3    H2 7878   4.959   6.505   0.073
 2641TIP3   OH2 7879   2.818   1.812   2.910
 2641TIP3    H1 7880   2.834   1.902   2.939
 2641TIP3    H2 7881   2.884   1.797   2.842
 2642TIP3   OH2 7882   4.610   3.105   3.407
 2642TIP3    H1 7883   4.647   3.017   3.412
 2642TIP3    H2 7884   4.553   3.102   3.330
 2643TIP3   OH2 7885   4.825   1.225   5.297
 2643TIP3    H1 7886   4.877   1.197   5.372
 2643TIP3    H2 7887   4.758   1.283   5.334
 2644TIP3   OH2 7888   2.578   7.028   0.728
 2644TIP3    H1 7889   2.592   6.938   0.757
 2644TIP3    H2 7890   2.512   7.062   0.788
 2645TIP3   OH2 7891   1.934   5.417   4.858
 2645TIP3    H1 7892   1.891   5.422   4.943
 2645TIP3    H2 7893   1.936   5.324   4.836
 2646TIP3   OH2 7894   2.027   3.737   0.765
 2646TIP3    H1 7895   1.981   3.668   0.717
 2646TIP3    H2 7896   2.081   3.690   0.828
 2647TIP3   OH2 7897   0.609   1.763   6.763
 2647TIP3    H1 7898   0.607   1.858   6.752
 2647TIP3    H2 7899   0.655   1.730   6.686
 2648TIP3   OH2 7900   4.187   5.476   6.523
 2648TIP3    H1 7901   4.104   5.443   6.558
 2648TIP3    H2 7902   4.163   5.553   6.472
 2649TIP3   OH2 7903   5.713   6.893   5.856
 2649TIP3    H1 7904   5.796   6.873   5.813
 2649TIP3    H2 7905   5.714   6.839   5.935
 2650TIP3   OH2 7906   5.278  -0.007   3.949
 2650TIP3    H1 7907   5.270   0.048   4.026
 2650TIP3    H2 7908   5.244   0.046   3.877
 2651TIP3   OH2 7909   2.677   0.053   5.036
 2651TIP3    H1 7910   2.678  -0.004   4.960
 2651TIP3    H2 7911   2.690   0.141   5.000
 2652TIP3   OH2 7912   3.041   5.309   1.405
 2652TIP3    H1 7913   2.949   5.315   1.431
 2652TIP3    H2 7914   3.041   5.332   1.312
 2653TIP3   OH2 7915   4.734   1.598   3.630
 2653TIP3    H1 7916   4.747   1.686   3.593
 2653TIP3    H2 7917   4.780   1.540   3.570
 2654TIP3   OH2 7918   3.387   4.450   1.934
 2654TIP3    H1 7919   3.330   4.519   1.967
 2654TIP3    H2 7920   3.475   4.474   1.965
 2655TIP3   OH2 7921   5.534   1.814   5.254
 2655TIP3    H1 7922   5.497   1.897   5.223
 2655TIP3    H2 7923   5.628   1.830   5.258
 2656TIP3   OH2 7924   8.188   4.206   4.948
 2656TIP3    H1 7925   8.255   4.211   5.016
 2656TIP3    H2 7926   8.235   4.177   4.870
 2657TIP3   OH2 7927   5.197   4.481   0.329
 2657TIP3    H1 7928   5.186   4.491   0.235
 2657TIP3    H2 7929   5.278   4.431   0.339
 2658TIP3   OH2 7930   6.173   0.036   3.458
 2658TIP3    H1 7931   6.200   0.008   3.371
 2658TIP3    H2 7932   6.111   0.107   3.443
 2659TIP3   OH2 7933   5.879   1.101   0.039
 2659TIP3    H1 7934   5.814   1.035   0.016
 2659TIP3    H2 7935   5.877   1.104   0.135
 2660TIP3   OH2 7936   4.849   2.490   2.448
 2660TIP3    H1 7937   4.829   2.446   2.365
 2660TIP3    H2 7938   4.888   2.573   2.421
 2661TIP3   OH2 7939   7.152   2.573   3.681
 2661TIP3    H1 7940   7.146   2.478   3.695
 2661TIP3    H2 7941   7.221   2.583   3.616
 2662TIP3   OH2 7942   0.838   5.524   5.094
 2662TIP3    H1 7943   0.828   5.524   5.189
 2662TIP3    H2 7944   0.822   5.434   5.068
 2663TIP3   OH2 7945   7.886   5.623   6.679
 2663TIP3    H1 7946   7.936   5.612   6.599
 2663TIP3    H2 7947   7.795   5.610   6.653
 2664TIP3   OH2 7948   7.488   1.232   2.392
 2664TIP3    H1 7949   7.466   1.146   2.356
 2664TIP3    H2 7950   7.487   1.291   2.317
 2665TIP3   OH2 7951   6.100   7.301   0.799
 2665TIP3    H1 7952   6.111   7.298   0.894
 2665TIP3    H2 7953   6.093   7.210   0.772
 2666TIP3   OH2 7954   1.461   7.564   0.515
 2666TIP3    H1 7955   1.496   7.526   0.435
 2666TIP3    H2 7956   1.382   7.611   0.487
 2667TIP3   OH2 7957   4.377   3.204   0.352
 2667TIP3    H1 7958   4.327   3.123   0.358
 2667TIP3    H2 7959   4.315   3.273   0.375
 2668TIP3   OH2 7960   2.579   2.961   4.062
 2668TIP3    H1 7961   2.550   3.033   4.006
 2668TIP3    H2 7962   2.511   2.894   4.051
 2669TIP3   OH2 7963   4.064   0.291   5.882
 2669TIP3    H1 7964   3.977   0.252   5.873
 2669TIP3    H2 7965   4.046   0.383   5.901
 2670TIP3   OH2 7966   5.743   0.554   5.167
 2670TIP3    H1 7967   5.811   0.619   5.147
 2670TIP3    H2 7968   5.676   0.602   5.215
 2671TIP3   OH2 7969   3.406   6.300   6.667
 2671TIP3    H1 7970   3.324   6.251   6.677
 2671TIP3    H2 7971   3.441   6.271   6.583
 2672TIP3   OH2 7972   2.736   5.538   3.305
 2672TIP3    H1 7973   2.651   5.516   3.345
 2672TIP3    H2 7974   2.715   5.555   3.213
 2673TIP3   OH2 7975   5.609   5.717   1.077
 2673TIP3    H1 7976   5.659   5.658   1.021
 2673TIP3    H2 7977   5.666   5.734   1.152
 2674TIP3   OH2 7978   3.741   1.898   4.172
 2674TIP3    H1 7979   3.834   1.909   4.193
 2674TIP3    H2 7980   3.739   1.826   4.109
 2675TIP3   OH2 7981   3.041   5.008   1.480
 2675TIP3    H1 7982   3.057   5.100   1.460
 2675TIP3    H2 7983   3.067   4.998   1.571
 2676TIP3   OH2 7984   4.926   0.005   3.842
 2676TIP3    H1 7985   4.922  -0.027   3.932
 2676TIP3    H2 7986   5.009   0.052   3.836
 2677TIP3   OH2 7987   4.397   7.353   6.282
 2677TIP3    H1 7988   4.445   7.435   6.265
 2677TIP3    H2 7989   4.345   7.372   6.360
 2678TIP3   OH2 7990   6.065   2.514   2.150
 2678TIP3    H1 7991   6.102   2.529   2.237
 2678TIP3    H2 7992   6.078   2.421   2.134
 2679TIP3   OH2 7993   6.748   2.323   6.188
 2679TIP3    H1 7994   6.781   2.245   6.143
 2679TIP3    H2 7995   6.722   2.382   6.117
 2680TIP3   OH2 7996   5.428   5.145   0.772
 2680TIP3    H1 7997   5.469   5.184   0.849
 2680TIP3    H2 7998   5.447   5.206   0.701
 2681TIP3   OH2 7999   5.667   1.637   1.972
 2681TIP3    H1 8000   5.715   1.711   2.011
 2681TIP3    H2 8001   5.673   1.652   1.878
 2682TIP3   OH2 8002   5.275   0.522   6.622
 2682TIP3    H1 8003   5.306   0.452   6.679
 2682TIP3    H2 8004   5.257   0.595   6.682
 2683TIP3   OH2 8005   5.294   0.251   4.515
 2683TIP3    H1 8006   5.286   0.191   4.589
 2683TIP3    H2 8007   5.371   0.220   4.467
 2684TIP3   OH2 8008   6.195   5.561   1.281
 2684TIP3    H1 8009   6.177   5.655   1.282
 2684TIP3    H2 8010   6.246   5.545   1.360
 2685TIP3   OH2 8011   2.707   1.049   0.761
 2685TIP3    H1 8012   2.639   1.003   0.713
 2685TIP3    H2 8013   2.786   0.997   0.747
 2686TIP3   OH2 8014   5.868   5.263   6.387
 2686TIP3    H1 8015   5.863   5.333   6.452
 2686TIP3    H2 8016   5.956   5.227   6.397
 2687TIP3   OH2 8017   5.778   3.046   3.352
 2687TIP3    H1 8018   5.692   3.043   3.393
 2687TIP3    H2 8019   5.820   3.124   3.389
 2688TIP3   OH2 8020   1.584   5.326   2.901
 2688TIP3    H1 8021   1.579   5.403   2.957
 2688TIP3    H2 8022   1.668   5.286   2.923
 2689TIP3   OH2 8023   7.686   0.790   4.808
 2689TIP3    H1 8024   7.605   0.809   4.760
 2689TIP3    H2 8025   7.745   0.861   4.784
 2690TIP3   OH2 8026   6.292   3.057   2.490
 2690TIP3    H1 8027   6.377   3.086   2.525
 2690TIP3    H2 8028   6.235   3.132   2.501
 2691TIP3   OH2 8029   7.377   4.884   1.118
 2691TIP3    H1 8030   7.343   4.882   1.029
 2691TIP3    H2 8031   7.360   4.974   1.149
 2692TIP3   OH2 8032   8.109   4.678   3.632
 2692TIP3    H1 8033   8.025   4.632   3.634
 2692TIP3    H2 8034   8.091   4.762   3.674
 2693TIP3   OH2 8035   0.511   3.467   1.236
 2693TIP3    H1 8036   0.431   3.465   1.289
 2693TIP3    H2 8037   0.571   3.407   1.280
 2694TIP3   OH2 8038   1.691   1.839   5.633
 2694TIP3    H1 8039   1.643   1.781   5.574
 2694TIP3    H2 8040   1.623   1.892   5.675
 2695TIP3   OH2 8041   2.479   6.852   2.768
 2695TIP3    H1 8042   2.545   6.807   2.821
 2695TIP3    H2 8043   2.412   6.786   2.753
 2696TIP3   OH2 8044   1.643   3.837   6.021
 2696TIP3    H1 8045   1.652   3.781   5.944
 2696TIP3    H2 8046   1.730   3.836   6.061
 2697TIP3   OH2 8047   4.211   1.708   0.996
 2697TIP3    H1 8048   4.237   1.623   0.962
 2697TIP3    H2 8049   4.116   1.702   1.005
 2698TIP3   OH2 8050   1.238   5.792   2.976
 2698TIP3    H1 8051   1.253   5.715   3.031
 2698TIP3    H2 8052   1.267   5.866   3.029
 2699TIP3   OH2 8053   0.904   6.319   6.689
 2699TIP3    H1 8054   0.977   6.374   6.717
 2699TIP3    H2 8055   0.901   6.247   6.752
 2700TIP3   OH2 8056   7.995   7.023   3.890
 2700TIP3    H1 8057   8.079   7.033   3.934
 2700TIP3    H2 8058   7.946   6.962   3.945
 2701TIP3   OH2 8059   5.750   7.639   1.219
 2701TIP3    H1 8060   5.822   7.577   1.229
 2701TIP3    H2 8061   5.682   7.589   1.173
 2702TIP3   OH2 8062   3.129   2.155   1.438
 2702TIP3    H1 8063   3.138   2.149   1.343
 2702TIP3    H2 8064   3.081   2.076   1.462
 2703TIP3   OH2 8065   6.757   0.430   1.531
 2703TIP3    H1 8066   6.795   0.510   1.566
 2703TIP3    H2 8067   6.766   0.366   1.602
 2704TIP3   OH2 8068   5.371   1.220   2.181
 2704TIP3    H1 8069   5.420   1.291   2.140
 2704TIP3    H2 8070   5.332   1.260   2.259
 2705TIP3   OH2 8071   6.715   4.435   3.069
 2705TIP3    H1 8072   6.697   4.341   3.061
 2705TIP3    H2 8073   6.703   4.455   3.162
 2706TIP3   OH2 8074   0.449   4.335   0.637
 2706TIP3    H1 8075   0.364   4.337   0.592
 2706TIP3    H2 8076   0.513   4.344   0.566
 2707TIP3   OH2 8077   5.318  -0.008   6.438
 2707TIP3    H1 8078   5.223  -0.021   6.444
 2707TIP3    H2 8079   5.329   0.086   6.428
 2708TIP3   OH2 8080   7.223   2.250   0.100
 2708TIP3    H1 8081   7.157   2.204   0.152
 2708TIP3    H2 8082   7.177   2.325   0.063
 2709TIP3   OH2 8083   3.970   4.561   1.656
 2709TIP3    H1 8084   4.060   4.528   1.650
 2709TIP3    H2 8085   3.927   4.529   1.577
 2710TIP3   OH2 8086   4.994   3.928   6.091
 2710TIP3    H1 8087   5.000   4.016   6.053
 2710TIP3    H2 8088   4.958   3.874   6.022
 2711TIP3   OH2 8089   7.590   6.090   3.687
 2711TIP3    H1 8090   7.584   6.163   3.749
 2711TIP3    H2 8091   7.607   6.131   3.602
 2712TIP3   OH2 8092   1.001   7.043   1.005
 2712TIP3    H1 8093   0.953   7.093   0.938
 2712TIP3    H2 8094   1.049   7.109   1.054
 2713TIP3   OH2 8095   3.818   5.658   5.432
 2713TIP3    H1 8096   3.749   5.689   5.491
 2713TIP3    H2 8097   3.796   5.695   5.347
 2714TIP3   OH2 8098   6.474   2.220   2.360
 2714TIP3    H1 8099   6.417   2.150   2.391
 2714TIP3    H2 8100   6.445   2.298   2.408
 2715TIP3   OH2 8101   3.015   5.503   3.999
 2715TIP3    H1 8102   3.083   5.570   3.997
 2715TIP3    H2 8103   3.055   5.428   3.956
 2716TIP3   OH2 8104   2.369   6.780   4.402
 2716TIP3    H1 8105   2.280   6.815   4.400
 2716TIP3    H2 8106   2.386   6.751   4.312
 2717TIP3   OH2 8107   3.013   4.448   5.615
 2717TIP3    H1 8108   3.091   4.448   5.671
 2717TIP3    H2 8109   2.940   4.439   5.676
 2718TIP3   OH2 8110   0.647   3.693   6.568
 2718TIP3    H1 8111   0.676   3.671   6.480
 2718TIP3    H2 8112   0.625   3.608   6.607
 2719TIP3   OH2 8113   2.270   0.357   3.670
 2719TIP3    H1 8114   2.228   0.430   3.715
 2719TIP3    H2 8115   2.226   0.279   3.703
 2720TIP3   OH2 8116   1.649   1.624   4.713
 2720TIP3    H1 8117   1.692   1.581   4.787
 2720TIP3    H2 8118   1.708   1.695   4.688
 2721TIP3   OH2 8119   1.407   5.553   6.756
 2721TIP3    H1 8120   1.424   5.463   6.784
 2721TIP3    H2 8121   1.312   5.558   6.748
 2722TIP3   OH2 8122   5.856   2.337   1.387
 2722TIP3    H1 8123   5.948   2.362   1.399
 2722TIP3    H2 8124   5.817   2.413   1.342
 2723TIP3   OH2 8125   4.170   0.635   0.333
 2723TIP3    H1 8126   4.127   0.611   0.251
 2723TIP3    H2 8127   4.182   0.551   0.379
 2724TIP3   OH2 8128   5.020   0.356   6.275
 2724TIP3    H1 8129   5.023   0.432   6.216
 2724TIP3    H2 8130   5.091   0.371   6.337
 2725TIP3   OH2 8131   3.690   5.717   6.218
 2725TIP3    H1 8132   3.660   5.658   6.287
 2725TIP3    H2 8133   3.735   5.787   6.265
 2726TIP3   OH2 8134   4.854   6.652   0.340
 2726TIP3    H1 8135   4.891   6.590   0.277
 2726TIP3    H2 8136   4.760   6.636   0.336
 2727TIP3   OH2 8137   0.018   0.342   5.476
 2727TIP3    H1 8138   0.038   0.432   5.502
 2727TIP3    H2 8139   0.041   0.337   5.384
 2728TIP3   OH2 8140   3.580   5.099   0.324
 2728TIP3    H1 8141   3.494   5.131   0.297
 2728TIP3    H2 8142   3.626   5.178   0.353
 2729TIP3   OH2 8143   7.836   1.135   2.106
 2729TIP3    H1 8144   7.749   1.113   2.140
 2729TIP3    H2 8145   7.820   1.164   2.017
 2730TIP3   OH2 8146   6.426   5.476   3.403
 2730TIP3    H1 8147   6.450   5.430   3.322
 2730TIP3    H2 8148   6.445   5.568   3.385
 2731TIP3   OH2 8149   0.981   6.528   3.927
 2731TIP3    H1 8150   1.020   6.451   3.885
 2731TIP3    H2 8151   1.038   6.546   4.002
 2732TIP3   OH2 8152   7.361   5.496   4.143
 2732TIP3    H1 8153   7.431   5.495   4.077
 2732TIP3    H2 8154   7.390   5.560   4.208
 2733TIP3   OH2 8155   3.357   1.569   6.382
 2733TIP3    H1 8156   3.303   1.557   6.304
 2733TIP3    H2 8157   3.411   1.645   6.362
 2734TIP3   OH2 8158   8.247   3.649   1.121
 2734TIP3    H1 8159   8.199   3.596   1.058
 2734TIP3    H2 8160   8.236   3.604   1.204
 2735TIP3   OH2 8161   3.928   0.727   6.149
 2735TIP3    H1 8162   3.839   0.708   6.180
 2735TIP3    H2 8163   3.962   0.790   6.212
 2736TIP3   OH2 8164   2.217   5.122   2.283
 2736TIP3    H1 8165   2.190   5.195   2.226
 2736TIP3    H2 8166   2.268   5.163   2.353
 2737TIP3   OH2 8167   6.157   5.557   3.104
 2737TIP3    H1 8168   6.120   5.470   3.113
 2737TIP3    H2 8169   6.098   5.614   3.153
 2738TIP3   OH2 8170   7.236   7.317   1.117
 2738TIP3    H1 8171   7.164   7.378   1.098
 2738TIP3    H2 8172   7.196   7.230   1.111
 2739TIP3   OH2 8173   5.513   0.120   6.028
 2739TIP3    H1 8174   5.520   0.118   5.933
 2739TIP3    H2 8175   5.428   0.160   6.045
 2740TIP3   OH2 8176   1.512   6.597   1.584
 2740TIP3    H1 8177   1.419   6.605   1.608
 2740TIP3    H2 8178   1.519   6.510   1.545
 2741TIP3   OH2 8179   1.791   5.921   1.931
 2741TIP3    H1 8180   1.711   5.934   1.982
 2741TIP3    H2 8181   1.859   5.965   1.982
 2742TIP3   OH2 8182   2.677   5.873   5.447
 2742TIP3    H1 8183   2.618   5.818   5.498
 2742TIP3    H2 8184   2.632   5.957   5.441
 2743TIP3   OH2 8185   1.372   0.240   5.969
 2743TIP3    H1 8186   1.351   0.227   5.876
 2743TIP3    H2 8187   1.383   0.335   5.978
 2744TIP3   OH2 8188   5.411   5.595   1.805
 2744TIP3    H1 8189   5.472   5.655   1.847
 2744TIP3    H2 8190   5.401   5.630   1.716
 2745TIP3   OH2 8191   5.702   5.501   2.378
 2745TIP3    H1 8192   5.666   5.440   2.442
 2745TIP3    H2 8193   5.695   5.587   2.420
 2746TIP3   OH2 8194   7.711   7.276   0.421
 2746TIP3    H1 8195   7.665   7.283   0.505
 2746TIP3    H2 8196   7.642   7.274   0.355
 2747TIP3   OH2 8197   5.360   0.400   0.042
 2747TIP3    H1 8198   5.382   0.341   0.114
 2747TIP3    H2 8199   5.281   0.445   0.070
 2748TIP3   OH2 8200   5.310   7.597   4.559
 2748TIP3    H1 8201   5.391   7.554   4.588
 2748TIP3    H2 8202   5.240   7.541   4.592
 2749TIP3   OH2 8203   2.174   7.592   3.529
 2749TIP3    H1 8204   2.266   7.570   3.543
 2749TIP3    H2 8205   2.170   7.620   3.438
 2750TIP3   OH2 8206   0.417   1.421   3.247
 2750TIP3    H1 8207   0.342   1.457   3.295
 2750TIP3    H2 8208   0.421   1.472   3.166
 2751TIP3   OH2 8209   3.543   0.522   2.506
 2751TIP3    H1 8210   3.540   0.570   2.423
 2751TIP3    H2 8211   3.519   0.587   2.572
 2752TIP3   OH2 8212   7.061   2.999   3.854
 2752TIP3    H1 8213   7.041   2.955   3.772
 2752TIP3    H2 8214   7.157   3.005   3.855
 2753TIP3   OH2 8215   3.698   5.916   4.760
 2753TIP3    H1 8216   3.775   5.918   4.703
 2753TIP3    H2 8217   3.732   5.936   4.847
 2754TIP3   OH2 8218   6.839   3.138   4.971
 2754TIP3    H1 8219   6.744   3.139   4.959
 2754TIP3    H2 8220   6.875   3.144   4.883
 2755TIP3   OH2 8221   4.191   7.707   4.158
 2755TIP3    H1 8222   4.281   7.721   4.187
 2755TIP3    H2 8223   4.193   7.627   4.106
 2756TIP3   OH2 8224   0.378   4.163   2.002
 2756TIP3    H1 8225   0.291   4.178   2.039
 2756TIP3    H2 8226   0.361   4.114   1.921
 2757TIP3   OH2 8227   6.428   2.393   2.872
 2757TIP3    H1 8228   6.453   2.482   2.893
 2757TIP3    H2 8229   6.378   2.400   2.790
 2758TIP3   OH2 8230   5.416   5.303   1.458
 2758TIP3    H1 8231   5.468   5.223   1.465
 2758TIP3    H2 8232   5.411   5.320   1.364
 2759TIP3   OH2 8233   1.752   4.146   6.039
 2759TIP3    H1 8234   1.820   4.130   5.973
 2759TIP3    H2 8235   1.731   4.239   6.030
 2760TIP3   OH2 8236   7.334   7.536   6.407
 2760TIP3    H1 8237   7.255   7.499   6.366
 2760TIP3    H2 8238   7.356   7.611   6.352
 2761TIP3   OH2 8239   0.917   4.995   3.033
 2761TIP3    H1 8240   0.862   5.041   2.970
 2761TIP3    H2 8241   0.944   4.915   2.989
 2762TIP3   OH2 8242   7.133   1.062   5.747
 2762TIP3    H1 8243   7.179   1.053   5.664
 2762TIP3    H2 8244   7.202   1.088   5.809
 2763TIP3   OH2 8245   3.811   7.436   0.664
 2763TIP3    H1 8246   3.717   7.431   0.651
 2763TIP3    H2 8247   3.849   7.391   0.589
 2764TIP3   OH2 8248   6.649   7.598   2.065
 2764TIP3    H1 8249   6.625   7.631   1.978
 2764TIP3    H2 8250   6.716   7.532   2.047
 2765TIP3   OH2 8251   8.063   7.161   6.159
 2765TIP3    H1 8252   8.062   7.133   6.250
 2765TIP3    H2 8253   8.045   7.081   6.109
 2766TIP3   OH2 8254   1.936   2.942   3.069
 2766TIP3    H1 8255   1.970   2.885   2.999
 2766TIP3    H2 8256   1.932   3.028   3.028
 2767TIP3   OH2 8257   0.071   2.408   0.259
 2767TIP3    H1 8258   0.091   2.377   0.171
 2767TIP3    H2 8259  -0.012   2.455   0.249
 2768TIP3   OH2 8260   5.730   2.432   4.542
 2768TIP3    H1 8261   5.731   2.521   4.506
 2768TIP3    H2 8262   5.669   2.384   4.487
 2769TIP3   OH2 8263   3.486   5.990   4.629
 2769TIP3    H1 8264   3.562   5.954   4.676
 2769TIP3    H2 8265   3.466   5.924   4.562
 2770TIP3   OH2 8266   0.532   3.768   3.128
 2770TIP3    H1 8267   0.539   3.708   3.202
 2770TIP3    H2 8268   0.466   3.832   3.155
 2771TIP3   OH2 8269   5.089   4.788   0.154
 2771TIP3    H1 8270   5.134   4.836   0.084
 2771TIP3    H2 8271   5.074   4.701   0.117
 2772TIP3   OH2 8272   7.617   5.877   1.317
 2772TIP3    H1 8273   7.678   5.941   1.352
 2772TIP3    H2 8274   7.651   5.857   1.229
 2773TIP3   OH2 8275   5.649   1.180   5.480
 2773TIP3    H1 8276   5.683   1.254   5.430
 2773TIP3    H2 8277   5.629   1.216   5.567
 2774TIP3   OH2 8278   0.704   5.468   1.751
 2774TIP3    H1 8279   0.665   5.553   1.774
 2774TIP3    H2 8280   0.653   5.404   1.800
 2775TIP3   OH2 8281   1.388   6.225   0.052
 2775TIP3    H1 8282   1.434   6.149   0.015
 2775TIP3    H2 8283   1.366   6.198   0.141
 2776TIP3   OH2 8284   5.643   4.962   6.752
 2776TIP3    H1 8285   5.602   5.036   6.796
 2776TIP3    H2 8286   5.732   4.992   6.733
 2777TIP3   OH2 8287   4.538   3.763   2.267
 2777TIP3    H1 8288   4.574   3.821   2.335
 2777TIP3    H2 8289   4.465   3.718   2.310
 2778TIP3   OH2 8290   7.566   7.582   6.064
 2778TIP3    H1 8291   7.473   7.556   6.060
 2778TIP3    H2 8292   7.607   7.533   5.993
 2779TIP3   OH2 8293   1.006   4.802   6.136
 2779TIP3    H1 8294   1.066   4.796   6.062
 2779TIP3    H2 8295   0.927   4.758   6.106
 2780TIP3   OH2 8296   2.874   3.994   1.438
 2780TIP3    H1 8297   2.886   4.008   1.532
 2780TIP3    H2 8298   2.839   4.077   1.405
 2781TIP3   OH2 8299   7.138   7.302   5.514
 2781TIP3    H1 8300   7.183   7.378   5.552
 2781TIP3    H2 8301   7.080   7.340   5.448
 2782TIP3   OH2 8302   3.697   1.224   4.862
 2782TIP3    H1 8303   3.718   1.313   4.892
 2782TIP3    H2 8304   3.758   1.168   4.909
 2783TIP3   OH2 8305   2.126   0.923   5.002
 2783TIP3    H1 8306   2.101   0.942   5.092
 2783TIP3    H2 8307   2.173   1.001   4.973
 2784TIP3   OH2 8308   7.265   7.002   4.281
 2784TIP3    H1 8309   7.227   6.915   4.299
 2784TIP3    H2 8310   7.323   6.987   4.206
 2785TIP3   OH2 8311   2.647   7.604   4.573
 2785TIP3    H1 8312   2.651   7.610   4.668
 2785TIP3    H2 8313   2.674   7.515   4.553
 2786TIP3   OH2 8314   4.583   5.961   4.944
 2786TIP3    H1 8315   4.525   5.891   4.914
 2786TIP3    H2 8316   4.538   5.999   5.019
 2787TIP3   OH2 8317   5.371   1.552   3.726
 2787TIP3    H1 8318   5.396   1.637   3.761
 2787TIP3    H2 8319   5.449   1.520   3.681
 2788TIP3   OH2 8320   5.481   5.397   3.957
 2788TIP3    H1 8321   5.484   5.371   3.865
 2788TIP3    H2 8322   5.442   5.322   4.002
 2789TIP3   OH2 8323   0.943   1.363   3.995
 2789TIP3    H1 8324   0.923   1.293   4.058
 2789TIP3    H2 8325   0.892   1.437   4.025
 2790TIP3   OH2 8326   5.739   5.168   1.716
 2790TIP3    H1 8327   5.757   5.253   1.677
 2790TIP3    H2 8328   5.824   5.124   1.718
 2791TIP3   OH2 8329   0.857   4.910   1.324
 2791TIP3    H1 8330   0.929   4.971   1.342
 2791TIP3    H2 8331   0.792   4.928   1.392
 2792TIP3   OH2 8332   0.792   7.698   2.166
 2792TIP3    H1 8333   0.873   7.742   2.192
 2792TIP3    H2 8334   0.739   7.697   2.245
 2793TIP3   OH2 8335   6.948   6.615   3.194
 2793TIP3    H1 8336   6.880   6.563   3.150
 2793TIP3    H2 8337   7.015   6.551   3.218
 2794TIP3   OH2 8338   2.809   4.808   5.935
 2794TIP3    H1 8339   2.810   4.757   5.854
 2794TIP3    H2 8340   2.752   4.883   5.915
 2795TIP3   OH2 8341   2.891   7.636   1.125
 2795TIP3    H1 8342   2.967   7.670   1.171
 2795TIP3    H2 8343   2.923   7.619   1.036
 2796TIP3   OH2 8344   4.777   3.885   6.255
 2796TIP3    H1 8345   4.873   3.894   6.256
 2796TIP3    H2 8346   4.756   3.870   6.163
 2797TIP3   OH2 8347   3.252   3.166   5.560
 2797TIP3    H1 8348   3.203   3.096   5.603
 2797TIP3    H2 8349   3.241   3.149   5.466
 2798TIP3   OH2 8350   3.068   0.981   4.188
 2798TIP3    H1 8351   3.148   0.945   4.151
 2798TIP3    H2 8352   3.029   0.909   4.237
 2799TIP3   OH2 8353   6.136   1.003   0.845
 2799TIP3    H1 8354   6.122   1.090   0.884
 2799TIP3    H2 8355   6.072   0.947   0.889
 2800TIP3   OH2 8356   3.313   3.075   5.007
 2800TIP3    H1 8357   3.246   3.037   4.949
 2800TIP3    H2 8358   3.279   3.162   5.029
 2801TIP3   OH2 8359   0.764   7.510   1.336
 2801TIP3    H1 8360   0.686   7.564   1.348
 2801TIP3    H2 8361   0.762   7.449   1.410
 2802TIP3   OH2 8362   7.423   2.374   0.502
 2802TIP3    H1 8363   7.424   2.426   0.422
 2802TIP3    H2 8364   7.330   2.362   0.522
 2803TIP3   OH2 8365   2.143   2.837   3.569
 2803TIP3    H1 8366   2.115   2.807   3.482
 2803TIP3    H2 8367   2.172   2.928   3.554
 2804TIP3   OH2 8368   6.700   3.309   2.721
 2804TIP3    H1 8369   6.791   3.319   2.694
 2804TIP3    H2 8370   6.695   3.353   2.806
 2805TIP3   OH2 8371   0.034   4.218   1.484
 2805TIP3    H1 8372   0.054   4.302   1.442
 2805TIP3    H2 8373   0.032   4.239   1.577
 2806TIP3   OH2 8374   2.262   5.468   6.010
 2806TIP3    H1 8375   2.276   5.483   6.103
 2806TIP3    H2 8376   2.193   5.530   5.985
 2807TIP3   OH2 8377   4.469   7.411   2.144
 2807TIP3    H1 8378   4.389   7.391   2.193
 2807TIP3    H2 8379   4.443   7.406   2.052
 2808TIP3   OH2 8380   2.181   6.496   3.671
 2808TIP3    H1 8381   2.151   6.456   3.589
 2808TIP3    H2 8382   2.100   6.512   3.721
 2809TIP3   OH2 8383   1.382   7.562   6.341
 2809TIP3    H1 8384   1.309   7.501   6.343
 2809TIP3    H2 8385   1.431   7.539   6.262
 2810TIP3   OH2 8386   5.468   6.806   5.759
 2810TIP3    H1 8387   5.411   6.834   5.830
 2810TIP3    H2 8388   5.556   6.829   5.789
 2811TIP3   OH2 8389   7.664   6.458   5.994
 2811TIP3    H1 8390   7.688   6.512   6.069
 2811TIP3    H2 8391   7.591   6.504   5.954
 2812TIP3   OH2 8392   1.925   6.025   2.134
 2812TIP3    H1 8393   1.933   5.937   2.170
 2812TIP3    H2 8394   1.917   6.082   2.210
 2813TIP3   OH2 8395   1.441   6.966   2.936
 2813TIP3    H1 8396   1.516   7.026   2.937
 2813TIP3    H2 8397   1.402   6.979   2.849
 2814TIP3   OH2 8398   7.513   4.072   4.942
 2814TIP3    H1 8399   7.489   3.996   4.889
 2814TIP3    H2 8400   7.562   4.129   4.881
 2815TIP3   OH2 8401   3.159   6.353   4.490
 2815TIP3    H1 8402   3.202   6.438   4.481
 2815TIP3    H2 8403   3.227   6.289   4.468
 2816TIP3   OH2 8404   3.216   4.122   4.753
 2816TIP3    H1 8405   3.148   4.178   4.716
 2816TIP3    H2 8406   3.298   4.159   4.719
 2817TIP3   OH2 8407   2.003   0.425   1.789
 2817TIP3    H1 8408   2.098   0.420   1.800
 2817TIP3    H2 8409   1.979   0.504   1.837
 2818TIP3   OH2 8410   4.499   3.760   4.339
 2818TIP3    H1 8411   4.569   3.793   4.396
 2818TIP3    H2 8412   4.444   3.707   4.397
 2819TIP3   OH2 8413   6.822   2.333   3.742
 2819TIP3    H1 8414   6.802   2.344   3.649
 2819TIP3    H2 8415   6.767   2.398   3.786
 2820TIP3   OH2 8416   4.043   6.326   5.583
 2820TIP3    H1 8417   4.108   6.282   5.528
 2820TIP3    H2 8418   4.089   6.343   5.666
 2821TIP3   OH2 8419   2.333   4.374   3.184
 2821TIP3    H1 8420   2.317   4.295   3.132
 2821TIP3    H2 8421   2.406   4.351   3.241
 2822TIP3   OH2 8422   1.528   5.107   4.402
 2822TIP3    H1 8423   1.515   5.174   4.469
 2822TIP3    H2 8424   1.470   5.135   4.330
 2823TIP3   OH2 8425   6.539   6.419   0.686
 2823TIP3    H1 8426   6.632   6.412   0.710
 2823TIP3    H2 8427   6.515   6.508   0.709
 2824TIP3   OH2 8428   4.491   0.993   1.743
 2824TIP3    H1 8429   4.516   1.015   1.833
 2824TIP3    H2 8430   4.573   1.001   1.694
 2825TIP3   OH2 8431   4.428   4.878   5.698
 2825TIP3    H1 8432   4.385   4.952   5.743
 2825TIP3    H2 8433   4.394   4.882   5.609
 2826TIP3   OH2 8434   2.902   1.601   0.205
 2826TIP3    H1 8435   2.923   1.690   0.233
 2826TIP3    H2 8436   2.825   1.578   0.257
 2827TIP3   OH2 8437   7.064   5.235   3.883
 2827TIP3    H1 8438   7.143   5.280   3.855
 2827TIP3    H2 8439   7.018   5.299   3.938
 2828TIP3   OH2 8440   3.292   2.103   4.180
 2828TIP3    H1 8441   3.306   2.183   4.229
 2828TIP3    H2 8442   3.329   2.120   4.093
 2829TIP3   OH2 8443   1.862   7.175   0.928
 2829TIP3    H1 8444   1.797   7.245   0.925
 2829TIP3    H2 8445   1.855   7.133   0.842
 2830TIP3   OH2 8446   7.778   6.401   6.770
 2830TIP3    H1 8447   7.798   6.435   6.683
 2830TIP3    H2 8448   7.863   6.385   6.810
 2831TIP3   OH2 8449   1.227   5.658   2.518
 2831TIP3    H1 8450   1.174   5.713   2.460
 2831TIP3    H2 8451   1.207   5.569   2.490
 2832TIP3   OH2 8452   1.694   6.626   4.311
 2832TIP3    H1 8453   1.618   6.663   4.357
 2832TIP3    H2 8454   1.744   6.581   4.379
 2833TIP3   OH2 8455   3.135   7.012   1.493
 2833TIP3    H1 8456   3.098   6.954   1.427
 2833TIP3    H2 8457   3.089   7.095   1.482
 2834TIP3   OH2 8458   7.059   7.241   5.771
 2834TIP3    H1 8459   7.089   7.260   5.682
 2834TIP3    H2 8460   7.088   7.151   5.788
 2835TIP3   OH2 8461   1.710   7.216   5.788
 2835TIP3    H1 8462   1.789   7.225   5.841
 2835TIP3    H2 8463   1.703   7.123   5.771
 2836TIP3   OH2 8464   1.936   1.901   3.305
 2836TIP3    H1 8465   1.899   1.814   3.294
 2836TIP3    H2 8466   1.863   1.961   3.289
 2837TIP3   OH2 8467   0.344   4.954   4.814
 2837TIP3    H1 8468   0.310   4.865   4.826
 2837TIP3    H2 8469   0.316   5.001   4.892
 2838TIP3   OH2 8470   5.997   0.649   3.818
 2838TIP3    H1 8471   5.967   0.559   3.834
 2838TIP3    H2 8472   6.058   0.641   3.745
 2839TIP3   OH2 8473   0.467   2.144   4.373
 2839TIP3    H1 8474   0.509   2.059   4.379
 2839TIP3    H2 8475   0.486   2.174   4.284
 2840TIP3   OH2 8476   4.064   1.848   4.165
 2840TIP3    H1 8477   4.155   1.820   4.173
 2840TIP3    H2 8478   4.023   1.819   4.247
 2841TIP3   OH2 8479   2.972   6.455   2.715
 2841TIP3    H1 8480   2.912   6.501   2.657
 2841TIP3    H2 8481   3.030   6.523   2.749
 2842TIP3   OH2 8482   2.727   3.030   1.907
 2842TIP3    H1 8483   2.641   2.990   1.920
 2842TIP3    H2 8484   2.754   3.058   1.995
 2843TIP3   OH2 8485   2.287   0.244   4.825
 2843TIP3    H1 8486   2.214   0.223   4.883
 2843TIP3    H2 8487   2.273   0.190   4.748
 2844TIP3   OH2 8488   7.752   7.527   5.094
 2844TIP3    H1 8489   7.838   7.552   5.060
 2844TIP3    H2 8490   7.689   7.577   5.042
 2845TIP3   OH2 8491   1.333   5.673   0.371
 2845TIP3    H1 8492   1.426   5.675   0.350
 2845TIP3    H2 8493   1.330   5.681   0.466
 2846TIP3   OH2 8494   5.724   6.150   6.756
 2846TIP3    H1 8495   5.774   6.165   6.675
 2846TIP3    H2 8496   5.659   6.219   6.757
 2847TIP3   OH2 8497   5.020   5.697   6.361
 2847TIP3    H1 8498   4.985   5.614   6.329
 2847TIP3    H2 8499   5.032   5.750   6.282
 2848TIP3   OH2 8500   7.410   6.507   4.643
 2848TIP3    H1 8501   7.427   6.593   4.603
 2848TIP3    H2 8502   7.488   6.489   4.694
 2849TIP3   OH2 8503   3.252   3.604   0.862
 2849TIP3    H1 8504   3.161   3.583   0.839
 2849TIP3    H2 8505   3.297   3.520   0.863
 2850TIP3   OH2 8506   2.613   5.616   4.126
 2850TIP3    H1 8507   2.579   5.577   4.206
 2850TIP3    H2 8508   2.669   5.548   4.088
 2851TIP3   OH2 8509   3.383   1.823   6.030
 2851TIP3    H1 8510   3.461   1.865   6.067
 2851TIP3    H2 8511   3.323   1.896   6.015
 2852TIP3   OH2 8512   7.562   6.985   1.871
 2852TIP3    H1 8513   7.634   6.985   1.809
 2852TIP3    H2 8514   7.602   7.012   1.954
 2853TIP3   OH2 8515   0.858   3.939   5.310
 2853TIP3    H1 8516   0.880   3.943   5.403
 2853TIP3    H2 8517   0.821   4.025   5.291
 2854TIP3   OH2 8518   0.213   4.119   3.361
 2854TIP3    H1 8519   0.185   4.121   3.269
 2854TIP3    H2 8520   0.174   4.198   3.399
 2855TIP3   OH2 8521   6.013   0.034   1.432
 2855TIP3    H1 8522   6.043  -0.043   1.481
 2855TIP3    H2 8523   6.081   0.099   1.447
 2856TIP3   OH2 8524   0.744   6.895   3.454
 2856TIP3    H1 8525   0.707   6.970   3.501
 2856TIP3    H2 8526   0.831   6.924   3.427
 2857TIP3   OH2 8527   3.643   4.487   2.028
 2857TIP3    H1 8528   3.705   4.417   2.006
 2857TIP3    H2 8529   3.696   4.567   2.024
 2858TIP3   OH2 8530   6.708   4.470   3.361
 2858TIP3    H1 8531   6.786   4.414   3.367
 2858TIP3    H2 8532   6.696   4.504   3.449
 2859TIP3   OH2 8533   3.271   0.669   5.802
 2859TIP3    H1 8534   3.306   0.611   5.869
 2859TIP3    H2 8535   3.321   0.649   5.724
 2860TIP3   OH2 8536   3.520   3.985   0.855
 2860TIP3    H1 8537   3.514   3.891   0.840
 2860TIP3    H2 8538   3.465   4.001   0.931
 2861TIP3   OH2 8539   7.924   0.805   0.026
 2861TIP3    H1 8540   7.828   0.802   0.025
 2861TIP3    H2 8541   7.945   0.896   0.007
 2862TIP3   OH2 8542   6.422   2.796   4.507
 2862TIP3    H1 8543   6.388   2.875   4.465
 2862TIP3    H2 8544   6.403   2.808   4.600
 2863TIP3   OH2 8545   4.155   6.334   6.530
 2863TIP3    H1 8546   4.139   6.421   6.493
 2863TIP3    H2 8547   4.180   6.280   6.454
 2864TIP3   OH2 8548   0.503   3.380   4.497
 2864TIP3    H1 8549   0.455   3.298   4.490
 2864TIP3    H2 8550   0.591   3.354   4.527
 2865TIP3   OH2 8551   1.888   4.572   1.695
 2865TIP3    H1 8552   1.885   4.645   1.757
 2865TIP3    H2 8553   1.845   4.604   1.616
 2866TIP3   OH2 8554   3.411   3.286   4.237
 2866TIP3    H1 8555   3.420   3.380   4.252
 2866TIP3    H2 8556   3.352   3.256   4.306
 2867TIP3   OH2 8557   7.026   1.196   0.846
 2867TIP3    H1 8558   7.060   1.114   0.811
 2867TIP3    H2 8559   7.037   1.188   0.940
 2868TIP3   OH2 8560   7.313   7.463   2.387
 2868TIP3    H1 8561   7.308   7.426   2.476
 2868TIP3    H2 8562   7.333   7.388   2.331
 2869TIP3   OH2 8563   4.659   6.218   5.630
 2869TIP3    H1 8564   4.582   6.226   5.573
 2869TIP3    H2 8565   4.651   6.292   5.691
 2870TIP3   OH2 8566   2.656   1.781   5.959
 2870TIP3    H1 8567   2.712   1.708   5.932
 2870TIP3    H2 8568   2.633   1.762   6.050
 2871TIP3   OH2 8569   2.478   3.387   5.447
 2871TIP3    H1 8570   2.457   3.343   5.529
 2871TIP3    H2 8571   2.427   3.468   5.450
 2872TIP3   OH2 8572   4.028   2.716   3.766
 2872TIP3    H1 8573   4.022   2.621   3.765
 2872TIP3    H2 8574   4.057   2.740   3.678
 2873TIP3   OH2 8575   5.615   3.910   0.744
 2873TIP3    H1 8576   5.534   3.948   0.777
 2873TIP3    H2 8577   5.599   3.816   0.745
 2874TIP3   OH2 8578   0.625   5.542   3.634
 2874TIP3    H1 8579   0.534   5.535   3.662
 2874TIP3    H2 8580   0.625   5.515   3.543
 2875TIP3   OH2 8581   6.084   5.729   0.155
 2875TIP3    H1 8582   6.108   5.701   0.243
 2875TIP3    H2 8583   5.989   5.740   0.158
 2876TIP3   OH2 8584   6.352   0.396   0.338
 2876TIP3    H1 8585   6.345   0.488   0.315
 2876TIP3    H2 8586   6.392   0.355   0.261
 2877TIP3   OH2 8587   4.248   2.761   4.457
 2877TIP3    H1 8588   4.183   2.713   4.406
 2877TIP3    H2 8589   4.233   2.853   4.435
 2878TIP3   OH2 8590   7.204   3.259   1.221
 2878TIP3    H1 8591   7.151   3.325   1.264
 2878TIP3    H2 8592   7.214   3.190   1.287
 2879TIP3   OH2 8593   7.053   5.723   1.426
 2879TIP3    H1 8594   7.052   5.801   1.371
 2879TIP3    H2 8595   7.065   5.756   1.515
 2880TIP3   OH2 8596   5.610   7.108   6.232
 2880TIP3    H1 8597   5.529   7.159   6.225
 2880TIP3    H2 8598   5.587   7.022   6.195
 2881TIP3   OH2 8599   1.309   0.793   5.822
 2881TIP3    H1 8600   1.392   0.779   5.867
 2881TIP3    H2 8601   1.272   0.705   5.813
 2882TIP3   OH2 8602   1.142   3.367   1.695
 2882TIP3    H1 8603   1.189   3.450   1.706
 2882TIP3    H2 8604   1.171   3.313   1.768
 2883TIP3   OH2 8605   3.273   4.483   5.038
 2883TIP3    H1 8606   3.288   4.389   5.030
 2883TIP3    H2 8607   3.200   4.501   4.978
 2884TIP3   OH2 8608   5.451   7.787   5.120
 2884TIP3    H1 8609   5.411   7.862   5.165
 2884TIP3    H2 8610   5.511   7.750   5.184
 2885TIP3   OH2 8611   6.409   5.734   5.413
 2885TIP3    H1 8612   6.392   5.659   5.470
 2885TIP3    H2 8613   6.497   5.763   5.437
 2886TIP3   OH2 8614   5.314   4.161   0.744
 2886TIP3    H1 8615   5.284   4.231   0.685
 2886TIP3    H2 8616   5.338   4.089   0.686
 2887TIP3   OH2 8617   4.842   4.357   5.381
 2887TIP3    H1 8618   4.928   4.374   5.344
 2887TIP3    H2 8619   4.784   4.419   5.337
 2888TIP3   OH2 8620   4.407   1.021   5.158
 2888TIP3    H1 8621   4.473   0.957   5.183
 2888TIP3    H2 8622   4.377   0.991   5.072
 2889TIP3   OH2 8623   5.859   4.687   1.463
 2889TIP3    H1 8624   5.901   4.636   1.533
 2889TIP3    H2 8625   5.785   4.632   1.436
 2890TIP3   OH2 8626   6.807   7.081   6.477
 2890TIP3    H1 8627   6.716   7.087   6.447
 2890TIP3    H2 8628   6.805   7.013   6.544
 2891TIP3   OH2 8629   6.439   1.073   2.728
 2891TIP3    H1 8630   6.455   1.074   2.634
 2891TIP3    H2 8631   6.511   1.022   2.764
 2892TIP3   OH2 8632   0.939   4.585   1.887
 2892TIP3    H1 8633   0.884   4.616   1.815
 2892TIP3    H2 8634   0.948   4.491   1.872
 2893TIP3   OH2 8635   5.701   3.055   0.933
 2893TIP3    H1 8636   5.739   3.000   0.865
 2893TIP3    H2 8637   5.750   3.033   1.012
 2894TIP3   OH2 8638   4.187   2.076   1.896
 2894TIP3    H1 8639   4.204   2.055   1.804
 2894TIP3    H2 8640   4.093   2.065   1.905
 2895TIP3   OH2 8641   4.576   5.425   1.189
 2895TIP3    H1 8642   4.565   5.340   1.148
 2895TIP3    H2 8643   4.487   5.461   1.195
 2896TIP3   OH2 8644   4.791   0.694   3.542
 2896TIP3    H1 8645   4.774   0.658   3.629
 2896TIP3    H2 8646   4.750   0.780   3.543
 2897TIP3   OH2 8647   6.132   0.534   5.988
 2897TIP3    H1 8648   6.215   0.491   5.967
 2897TIP3    H2 8649   6.136   0.618   5.944
 2898TIP3   OH2 8650   8.197   2.318   1.461
 2898TIP3    H1 8651   8.123   2.266   1.430
 2898TIP3    H2 8652   8.268   2.255   1.469
 2899TIP3   OH2 8653   1.025   1.268   5.604
 2899TIP3    H1 8654   1.008   1.207   5.676
 2899TIP3    H2 8655   0.955   1.333   5.611
 2900TIP3   OH2 8656   4.579   6.573   0.285
 2900TIP3    H1 8657   4.579   6.558   0.379
 2900TIP3    H2 8658   4.535   6.496   0.249
 2901TIP3   OH2 8659   1.875   2.993   6.725
 2901TIP3    H1 8660   1.861   2.937   6.649
 2901TIP3    H2 8661   1.961   3.032   6.711
 2902TIP3   OH2 8662   2.078   1.985   3.916
 2902TIP3    H1 8663   2.133   1.933   3.974
 2902TIP3    H2 8664   2.042   1.922   3.854
 2903TIP3   OH2 8665   8.242   6.363   5.805
 2903TIP3    H1 8666   8.278   6.290   5.756
 2903TIP3    H2 8667   8.306   6.433   5.796
 2904TIP3   OH2 8668   0.454   3.063   0.954
 2904TIP3    H1 8669   0.499   3.059   0.870
 2904TIP3    H2 8670   0.471   3.152   0.985
 2905TIP3   OH2 8671   1.740   5.468   5.401
 2905TIP3    H1 8672   1.751   5.452   5.307
 2905TIP3    H2 8673   1.819   5.432   5.441
 2906TIP3   OH2 8674   1.737   0.903   3.462
 2906TIP3    H1 8675   1.718   0.935   3.551
 2906TIP3    H2 8676   1.808   0.959   3.431
 2907TIP3   OH2 8677   1.012   3.926   4.895
 2907TIP3    H1 8678   0.939   3.922   4.957
 2907TIP3    H2 8679   1.012   4.017   4.864
 2908TIP3   OH2 8680   2.736   6.257   3.400
 2908TIP3    H1 8681   2.725   6.313   3.323
 2908TIP3    H2 8682   2.830   6.260   3.419
 2909TIP3   OH2 8683   7.128   4.112   4.453
 2909TIP3    H1 8684   7.032   4.117   4.450
 2909TIP3    H2 8685   7.158   4.179   4.392
 2910TIP3   OH2 8686   2.494   7.250   1.284
 2910TIP3    H1 8687   2.559   7.288   1.224
 2910TIP3    H2 8688   2.443   7.325   1.314
 2911TIP3   OH2 8689   6.597   3.204   4.331
 2911TIP3    H1 8690   6.613   3.139   4.399
 2911TIP3    H2 8691   6.545   3.157   4.265
 2912TIP3   OH2 8692   4.733   0.728   5.743
 2912TIP3    H1 8693   4.823   0.748   5.771
 2912TIP3    H2 8694   4.742   0.707   5.650
 2913TIP3   OH2 8695   5.628   0.967   6.393
 2913TIP3    H1 8696   5.624   0.889   6.337
 2913TIP3    H2 8697   5.634   1.040   6.332
 2914TIP3   OH2 8698   7.525   5.440   1.497
 2914TIP3    H1 8699   7.501   5.503   1.429
 2914TIP3    H2 8700   7.540   5.358   1.449
 2915TIP3   OH2 8701   7.949   6.434   6.118
 2915TIP3    H1 8702   8.035   6.475   6.104
 2915TIP3    H2 8703   7.911   6.428   6.030
 2916TIP3   OH2 8704   6.371   2.499   1.190
 2916TIP3    H1 8705   6.431   2.574   1.185
 2916TIP3    H2 8706   6.412   2.440   1.253
 2917TIP3   OH2 8707   7.249   1.893   2.487
 2917TIP3    H1 8708   7.327   1.838   2.498
 2917TIP3    H2 8709   7.243   1.910   2.393
 2918TIP3   OH2 8710   6.987   4.808   4.198
 2918TIP3    H1 8711   6.894   4.818   4.180
 2918TIP3    H2 8712   6.991   4.759   4.280
 2919TIP3   OH2 8713   6.121   2.526   2.436
 2919TIP3    H1 8714   6.180   2.557   2.505
 2919TIP3    H2 8715   6.041   2.503   2.482
 2920TIP3   OH2 8716   6.006   7.055   5.884
 2920TIP3    H1 8717   5.971   6.983   5.832
 2920TIP3    H2 8718   5.953   7.054   5.964
 2921TIP3   OH2 8719   0.798   6.298   5.070
 2921TIP3    H1 8720   0.779   6.210   5.104
 2921TIP3    H2 8721   0.893   6.300   5.061
 2922TIP3   OH2 8722   2.830   4.543   2.113
 2922TIP3    H1 8723   2.887   4.571   2.186
 2922TIP3    H2 8724   2.789   4.624   2.083
 2923TIP3   OH2 8725   3.793   3.334   4.036
 2923TIP3    H1 8726   3.818   3.387   4.111
 2923TIP3    H2 8727   3.721   3.382   3.995
 2924TIP3   OH2 8728   3.450   0.150   4.510
 2924TIP3    H1 8729   3.464   0.199   4.430
 2924TIP3    H2 8730   3.373   0.096   4.492
 2925TIP3   OH2 8731   2.535   6.365   1.147
 2925TIP3    H1 8732   2.527   6.393   1.055
 2925TIP3    H2 8733   2.621   6.394   1.174
 2926TIP3   OH2 8734   3.384   1.258   3.089
 2926TIP3    H1 8735   3.438   1.207   3.149
 2926TIP3    H2 8736   3.446   1.301   3.031
 2927TIP3   OH2 8737   2.647   1.599   0.322
 2927TIP3    H1 8738   2.581   1.534   0.348
 2927TIP3    H2 8739   2.597   1.678   0.303
 2928TIP3   OH2 8740   2.855   1.185   3.638
 2928TIP3    H1 8741   2.769   1.170   3.677
 2928TIP3    H2 8742   2.909   1.115   3.673
 2929TIP3   OH2 8743   1.167   6.670   4.270
 2929TIP3    H1 8744   1.183   6.685   4.177
 2929TIP3    H2 8745   1.088   6.616   4.272
 2930TIP3   OH2 8746   8.048   6.425   5.083
 2930TIP3    H1 8747   8.047   6.331   5.101
 2930TIP3    H2 8748   7.978   6.460   5.138
 2931TIP3   OH2 8749   3.765   2.864   1.132
 2931TIP3    H1 8750   3.818   2.873   1.053
 2931TIP3    H2 8751   3.697   2.931   1.123
 2932TIP3   OH2 8752   1.084   5.484   0.077
 2932TIP3    H1 8753   1.068   5.397   0.040
 2932TIP3    H2 8754   1.145   5.468   0.150
 2933TIP3   OH2 8755   7.471   0.380   3.178
 2933TIP3    H1 8756   7.554   0.334   3.165
 2933TIP3    H2 8757   7.404   0.316   3.154
 2934TIP3   OH2 8758   3.705   2.096   3.969
 2934TIP3    H1 8759   3.773   2.142   4.018
 2934TIP3    H2 8760   3.640   2.073   4.036
 2935TIP3   OH2 8761   3.817   0.362   1.934
 2935TIP3    H1 8762   3.884   0.356   1.866
 2935TIP3    H2 8763   3.739   0.392   1.888
 2936TIP3   OH2 8764   1.375   3.480   3.336
 2936TIP3    H1 8765   1.355   3.469   3.429
 2936TIP3    H2 8766   1.328   3.559   3.311
 2937TIP3   OH2 8767   8.206   2.028   6.474
 2937TIP3    H1 8768   8.294   2.054   6.500
 2937TIP3    H2 8769   8.168   1.988   6.552
 2938TIP3   OH2 8770   6.309   4.755   1.950
 2938TIP3    H1 8771   6.315   4.660   1.939
 2938TIP3    H2 8772   6.293   4.768   2.043
 2939TIP3   OH2 8773   0.377   1.062   4.850
 2939TIP3    H1 8774   0.355   0.974   4.879
 2939TIP3    H2 8775   0.310   1.084   4.785
 2940TIP3   OH2 8776   5.478   6.215   5.331
 2940TIP3    H1 8777   5.470   6.254   5.418
 2940TIP3    H2 8778   5.418   6.267   5.276
 2941TIP3   OH2 8779   3.363   7.590   4.896
 2941TIP3    H1 8780   3.359   7.684   4.909
 2941TIP3    H2 8781   3.271   7.562   4.889
 2942TIP3   OH2 8782   5.417   4.516   3.503
 2942TIP3    H1 8783   5.331   4.542   3.471
 2942TIP3    H2 8784   5.448   4.592   3.553
 2943TIP3   OH2 8785   0.488   7.713   6.649
 2943TIP3    H1 8786   0.451   7.708   6.737
 2943TIP3    H2 8787   0.573   7.670   6.657
 2944TIP3   OH2 8788   2.585   0.735   1.802
 2944TIP3    H1 8789   2.524   0.677   1.755
 2944TIP3    H2 8790   2.569   0.822   1.764
 2945TIP3   OH2 8791   7.966   7.025   0.107
 2945TIP3    H1 8792   7.880   7.066   0.093
 2945TIP3    H2 8793   8.018   7.093   0.149
 2946TIP3   OH2 8794   5.805   1.007   0.752
 2946TIP3    H1 8795   5.718   0.970   0.763
 2946TIP3    H2 8796   5.850   0.989   0.835
 2947TIP3   OH2 8797   6.586   1.347   3.412
 2947TIP3    H1 8798   6.610   1.378   3.499
 2947TIP3    H2 8799   6.638   1.267   3.400
 2948TIP3   OH2 8800   7.170   4.952   4.038
 2948TIP3    H1 8801   7.121   4.894   4.096
 2948TIP3    H2 8802   7.249   4.975   4.087
 2949TIP3   OH2 8803   7.649   7.483   3.149
 2949TIP3    H1 8804   7.567   7.519   3.115
 2949TIP3    H2 8805   7.656   7.397   3.107
 2950TIP3   OH2 8806   3.224   3.809   6.534
 2950TIP3    H1 8807   3.174   3.728   6.532
 2950TIP3    H2 8808   3.312   3.784   6.505
 2951TIP3   OH2 8809   1.261   0.756   4.707
 2951TIP3    H1 8810   1.228   0.828   4.762
 2951TIP3    H2 8811   1.188   0.734   4.650
 2952TIP3   OH2 8812   7.461   7.740   3.942
 2952TIP3    H1 8813   7.500   7.660   3.978
 2952TIP3    H2 8814   7.429   7.715   3.856
 2953TIP3   OH2 8815   4.698   4.129   2.098
 2953TIP3    H1 8816   4.676   4.214   2.060
 2953TIP3    H2 8817   4.773   4.098   2.048
 2954TIP3   OH2 8818   0.242   6.868   6.589
 2954TIP3    H1 8819   0.159   6.841   6.628
 2954TIP3    H2 8820   0.237   6.837   6.499
 2955TIP3   OH2 8821   6.715   5.388   0.507
 2955TIP3    H1 8822   6.808   5.398   0.525
 2955TIP3    H2 8823   6.675   5.470   0.536
 2956TIP3   OH2 8824   6.990   2.523   1.722
 2956TIP3    H1 8825   7.084   2.519   1.739
 2956TIP3    H2 8826   6.969   2.438   1.683
 2957TIP3   OH2 8827   8.290   5.483   2.414
 2957TIP3    H1 8828   8.276   5.567   2.370
 2957TIP3    H2 8829   8.212   5.471   2.468
 2958TIP3   OH2 8830   1.845   6.831   6.140
 2958TIP3    H1 8831   1.881   6.769   6.076
 2958TIP3    H2 8832   1.851   6.916   6.097
 2959TIP3   OH2 8833   0.132   1.366   5.276
 2959TIP3    H1 8834   0.206   1.411   5.318
 2959TIP3    H2 8835   0.163   1.277   5.262
 2960TIP3   OH2 8836   5.308   6.459   1.580
 2960TIP3    H1 8837   5.294   6.369   1.611
 2960TIP3    H2 8838   5.396   6.458   1.543
 2961TIP3   OH2 8839   7.236   2.804   3.256
 2961TIP3    H1 8840   7.245   2.869   3.186
 2961TIP3    H2 8841   7.274   2.724   3.220
 2962TIP3   OH2 8842   2.736   2.845   2.261
 2962TIP3    H1 8843   2.648   2.867   2.230
 2962TIP3    H2 8844   2.788   2.839   2.182
 2963TIP3   OH2 8845   1.795   5.635   2.787
 2963TIP3    H1 8846   1.849   5.626   2.709
 2963TIP3    H2 8847   1.839   5.701   2.839
 2964TIP3   OH2 8848   3.242   2.581   0.889
 2964TIP3    H1 8849   3.305   2.653   0.899
 2964TIP3    H2 8850   3.169   2.605   0.947
 2965TIP3   OH2 8851   5.336   6.858   0.241
 2965TIP3    H1 8852   5.298   6.771   0.254
 2965TIP3    H2 8853   5.377   6.879   0.325
 2966TIP3   OH2 8854   0.620   6.361   0.787
 2966TIP3    H1 8855   0.644   6.270   0.804
 2966TIP3    H2 8856   0.629   6.405   0.871
 2967TIP3   OH2 8857   2.091   0.094   3.745
 2967TIP3    H1 8858   2.052   0.079   3.830
 2967TIP3    H2 8859   2.023   0.137   3.694
 2968TIP3   OH2 8860   2.833   1.661   0.512
 2968TIP3    H1 8861   2.774   1.736   0.519
 2968TIP3    H2 8862   2.792   1.605   0.446
 2969TIP3   OH2 8863   3.108   4.197   5.504
 2969TIP3    H1 8864   3.062   4.127   5.550
 2969TIP3    H2 8865   3.084   4.277   5.551
 2970TIP3   OH2 8866   1.460   7.460   2.282
 2970TIP3    H1 8867   1.514   7.517   2.227
 2970TIP3    H2 8868   1.370   7.484   2.260
 2971TIP3   OH2 8869   4.121   1.995   5.978
 2971TIP3    H1 8870   4.108   1.926   5.913
 2971TIP3    H2 8871   4.204   2.036   5.953
 2972TIP3   OH2 8872   2.980   2.368   1.053
 2972TIP3    H1 8873   2.893   2.396   1.081
 2972TIP3    H2 8874   2.992   2.408   0.967
 2973TIP3   OH2 8875   7.354   6.058   2.408
 2973TIP3    H1 8876   7.345   6.121   2.479
 2973TIP3    H2 8877   7.446   6.064   2.383
 2974TIP3   OH2 8878   1.145   6.641   1.583
 2974TIP3    H1 8879   1.065   6.652   1.635
 2974TIP3    H2 8880   1.136   6.706   1.513
 2975TIP3   OH2 8881   8.242   1.145   1.056
 2975TIP3    H1 8882   8.210   1.234   1.040
 2975TIP3    H2 8883   8.162   1.092   1.062
 2976TIP3   OH2 8884   3.723   0.644   1.696
 2976TIP3    H1 8885   3.720   0.682   1.608
 2976TIP3    H2 8886   3.648   0.585   1.700
 2977TIP3   OH2 8887   6.340   2.128   1.659
 2977TIP3    H1 8888   6.261   2.179   1.678
 2977TIP3    H2 8889   6.341   2.060   1.727
 2978TIP3   OH2 8890   6.181   7.417   6.736
 2978TIP3    H1 8891   6.267   7.386   6.710
 2978TIP3    H2 8892   6.165   7.492   6.678
 2979TIP3   OH2 8893   0.548   0.423   4.615
 2979TIP3    H1 8894   0.501   0.342   4.636
 2979TIP3    H2 8895   0.531   0.480   4.689
 2980TIP3   OH2 8896   4.927   5.819   1.986
 2980TIP3    H1 8897   4.925   5.816   2.081
 2980TIP3    H2 8898   5.010   5.779   1.962
 2981TIP3   OH2 8899   6.973   0.092   1.191
 2981TIP3    H1 8900   6.984   0.106   1.285
 2981TIP3    H2 8901   6.890   0.136   1.170
 2982TIP3   OH2 8902   2.451   4.235   5.952
 2982TIP3    H1 8903   2.363   4.257   5.984
 2982TIP3    H2 8904   2.508   4.300   5.993
 2983TIP3   OH2 8905   3.061   2.226   6.590
 2983TIP3    H1 8906   3.032   2.232   6.681
 2983TIP3    H2 8907   2.987   2.262   6.540
 2984TIP3   OH2 8908   4.989   5.629   0.747
 2984TIP3    H1 8909   5.016   5.567   0.815
 2984TIP3    H2 8910   4.949   5.574   0.679
 2985TIP3   OH2 8911   0.916   3.562   0.701
 2985TIP3    H1 8912   0.976   3.618   0.653
 2985TIP3    H2 8913   0.849   3.622   0.735
 2986TIP3   OH2 8914   7.428   0.228   6.254
 2986TIP3    H1 8915   7.490   0.184   6.196
 2986TIP3    H2 8916   7.484   0.273   6.318
 2987TIP3   OH2 8917   3.198   0.332   1.701
 2987TIP3    H1 8918   3.288   0.319   1.729
 2987TIP3    H2 8919   3.205   0.369   1.613
 2988TIP3   OH2 8920   7.810   3.013   1.413
 2988TIP3    H1 8921   7.849   2.926   1.403
 2988TIP3    H2 8922   7.884   3.073   1.407
 2989TIP3   OH2 8923   7.913   3.805   5.563
 2989TIP3    H1 8924   7.946   3.894   5.548
 2989TIP3    H2 8925   7.844   3.795   5.497
 2990TIP3   OH2 8926   3.496   4.833   0.397
 2990TIP3    H1 8927   3.549   4.912   0.391
 2990TIP3    H2 8928   3.531   4.776   0.329
 2991TIP3   OH2 8929   0.662   7.055   2.702
 2991TIP3    H1 8930   0.667   7.147   2.726
 2991TIP3    H2 8931   0.735   7.014   2.748
 2992TIP3   OH2 8932   3.672   3.634   3.492
 2992TIP3    H1 8933   3.586   3.633   3.533
 2992TIP3    H2 8934   3.704   3.544   3.500
 2993TIP3   OH2 8935   4.462   1.134   0.902
 2993TIP3    H1 8936   4.515   1.075   0.955
 2993TIP3    H2 8937   4.466   1.097   0.814
 2994TIP3   OH2 8938   2.024   6.501   4.320
 2994TIP3    H1 8939   2.081   6.428   4.346
 2994TIP3    H2 8940   1.967   6.516   4.396
 2995TIP3   OH2 8941   0.409   5.411   4.864
 2995TIP3    H1 8942   0.486   5.355   4.852
 2995TIP3    H2 8943   0.426   5.458   4.945
 2996TIP3   OH2 8944   7.530   4.927   6.032
 2996TIP3    H1 8945   7.481   4.875   5.969
 2996TIP3    H2 8946   7.464   4.983   6.073
 2997TIP3   OH2 8947   3.389   5.316   2.197
 2997TIP3    H1 8948   3.435   5.357   2.124
 2997TIP3    H2 8949   3.422   5.226   2.199
 2998TIP3   OH2 8950   2.023   5.235   6.030
 2998TIP3    H1 8951   2.016   5.328   6.051
 2998TIP3    H2 8952   1.998   5.229   5.938
 2999TIP3   OH2 8953   5.727   1.344   1.883
 2999TIP3    H1 8954   5.819   1.335   1.859
 2999TIP3    H2 8955   5.729   1.378   1.973
 3000TIP3   OH2 8956   7.146   3.372   4.505
 3000TIP3    H1 8957   7.238   3.367   4.530
 3000TIP3    H2 8958   7.131   3.465   4.487
 3001TIP3   OH2 8959   3.081   1.648   1.863
 3001TIP3    H1 8960   3.106   1.653   1.955
 3001TIP3    H2 8961   3.062   1.555   1.847
 3002TIP3   OH2 8962   4.508   3.938   6.409
 3002TIP3    H1 8963   4.465   3.986   6.337
 3002TIP3    H2 8964   4.601   3.941   6.387
 3003TIP3   OH2 8965   5.026   3.151   0.854
 3003TIP3    H1 8966   5.072   3.232   0.835
 3003TIP3    H2 8967   4.934   3.175   0.858
 3004TIP3   OH2 8968   1.251   4.958   2.501
 3004TIP3    H1 8969   1.304   4.893   2.455
 3004TIP3    H2 8970   1.277   4.951   2.592
 3005TIP3   OH2 8971   4.727   5.781   1.652
 3005TIP3    H1 8972   4.756   5.701   1.696
 3005TIP3    H2 8973   4.799   5.843   1.665
 3006TIP3   OH2 8974   3.023   1.345   0.240
 3006TIP3    H1 8975   3.035   1.322   0.148
 3006TIP3    H2 8976   3.007   1.439   0.240
 3007TIP3   OH2 8977   7.674   4.826   3.464
 3007TIP3    H1 8978   7.721   4.804   3.544
 3007TIP3    H2 8979   7.656   4.742   3.422
 3008TIP3   OH2 8980   2.893   4.870   3.701
 3008TIP3    H1 8981   2.819   4.812   3.684
 3008TIP3    H2 8982   2.970   4.819   3.674
 3009TIP3   OH2 8983   5.048   0.063   2.172
 3009TIP3    H1 8984   5.029  -0.027   2.200
 3009TIP3    H2 8985   5.117   0.092   2.232
 3010TIP3   OH2 8986   1.590   6.800   3.900
 3010TIP3    H1 8987   1.623   6.888   3.889
 3010TIP3    H2 8988   1.620   6.773   3.987
 3011TIP3   OH2 8989   1.638   6.452   6.526
 3011TIP3    H1 8990   1.710   6.510   6.549
 3011TIP3    H2 8991   1.561   6.510   6.523
 3012TIP3   OH2 8992   5.836   0.448   6.491
 3012TIP3    H1 8993   5.776   0.416   6.424
 3012TIP3    H2 8994   5.797   0.421   6.574
 3013TIP3   OH2 8995   5.611   6.824   1.778
 3013TIP3    H1 8996   5.524   6.831   1.817
 3013TIP3    H2 8997   5.671   6.846   1.850
 3014TIP3   OH2 8998   4.702   6.874   5.479
 3014TIP3    H1 8999   4.618   6.917   5.464
 3014TIP3    H2 9000   4.719   6.826   5.397
 3015TIP3   OH2 9001   5.944   0.556   2.072
 3015TIP3    H1 9002   5.859   0.559   2.027
 3015TIP3    H2 9003   5.931   0.493   2.143
 3016TIP3   OH2 9004   4.304   4.638   2.398
 3016TIP3    H1 9005   4.387   4.599   2.425
 3016TIP3    H2 9006   4.253   4.565   2.364
 3017TIP3   OH2 9007   3.703   4.123   0.046
 3017TIP3    H1 9008   3.764   4.049   0.038
 3017TIP3    H2 9009   3.639   4.094   0.111
 3018TIP3   OH2 9010   7.887   1.304   1.556
 3018TIP3    H1 9011   7.940   1.374   1.519
 3018TIP3    H2 9012   7.811   1.348   1.595
 3019TIP3   OH2 9013   3.548   3.436   4.852
 3019TIP3    H1 9014   3.590   3.373   4.910
 3019TIP3    H2 9015   3.611   3.509   4.846
 3020TIP3   OH2 9016   4.619   2.942   4.117
 3020TIP3    H1 9017   4.555   2.873   4.135
 3020TIP3    H2 9018   4.690   2.925   4.180
 3021TIP3   OH2 9019   8.219   5.960   6.297
 3021TIP3    H1 9020   8.137   5.911   6.298
 3021TIP3    H2 9021   8.193   6.052   6.288
 3022TIP3   OH2 9022   2.467   2.501   1.009
 3022TIP3    H1 9023   2.544   2.533   1.057
 3022TIP3    H2 9024   2.404   2.478   1.076
 3023TIP3   OH2 9025   3.770   2.776   3.874
 3023TIP3    H1 9026   3.852   2.760   3.827
 3023TIP3    H2 9027   3.704   2.782   3.805
 3024TIP3   OH2 9028   1.322   2.246   6.523
 3024TIP3    H1 9029   1.394   2.216   6.578
 3024TIP3    H2 9030   1.341   2.210   6.436
 3025TIP3   OH2 9031   7.517   5.305  -0.015
 3025TIP3    H1 9032   7.518   5.355   0.066
 3025TIP3    H2 9033   7.550   5.218   0.009
 3026TIP3   OH2 9034   2.088   3.253   4.464
 3026TIP3    H1 9035   2.063   3.340   4.431
 3026TIP3    H2 9036   2.029   3.192   4.420
 3027TIP3   OH2 9037   0.140   1.514   3.999
 3027TIP3    H1 9038   0.129   1.447   3.932
 3027TIP3    H2 9039   0.183   1.587   3.954
 3028TIP3   OH2 9040   3.905   3.398   4.888
 3028TIP3    H1 9041   3.860   3.481   4.874
 3028TIP3    H2 9042   3.842   3.345   4.939
 3029TIP3   OH2 9043   5.174   4.699   1.236
 3029TIP3    H1 9044   5.184   4.689   1.141
 3029TIP3    H2 9045   5.264   4.705   1.268
 3030TIP3   OH2 9046   0.851   3.903   0.250
 3030TIP3    H1 9047   0.833   3.870   0.161
 3030TIP3    H2 9048   0.799   3.983   0.257
 3031TIP3   OH2 9049   0.447   5.397   0.020
 3031TIP3    H1 9050   0.441   5.460  -0.051
 3031TIP3    H2 9051   0.457   5.451   0.099
 3032TIP3   OH2 9052   0.311   4.928   2.145
 3032TIP3    H1 9053   0.244   4.924   2.214
 3032TIP3    H2 9054   0.345   5.017   2.150
 3033TIP3   OH2 9055   3.193   5.897   5.088
 3033TIP3    H1 9056   3.283   5.911   5.060
 3033TIP3    H2 9057   3.201   5.861   5.176
 3034TIP3   OH2 9058   6.717   3.340   2.037
 3034TIP3    H1 9059   6.641   3.387   2.001
 3034TIP3    H2 9060   6.682   3.255   2.064
 3035TIP3   OH2 9061   2.284   6.382   1.217
 3035TIP3    H1 9062   2.377   6.369   1.198
 3035TIP3    H2 9063   2.282   6.403   1.310
 3036TIP3   OH2 9064   0.432   6.554   6.594
 3036TIP3    H1 9065   0.468   6.527   6.509
 3036TIP3    H2 9066   0.454   6.647   6.600
 3037TIP3   OH2 9067   5.949   4.907   4.909
 3037TIP3    H1 9068   5.854   4.899   4.920
 3037TIP3    H2 9069   5.960   4.978   4.846
 3038TIP3   OH2 9070   7.625   7.445   0.657
 3038TIP3    H1 9071   7.561   7.496   0.609
 3038TIP3    H2 9072   7.605   7.462   0.749
 3039TIP3   OH2 9073   0.577   7.132   5.158
 3039TIP3    H1 9074   0.601   7.154   5.068
 3039TIP3    H2 9075   0.583   7.216   5.205
 3040TIP3   OH2 9076   1.840   0.304   5.041
 3040TIP3    H1 9077   1.858   0.278   5.131
 3040TIP3    H2 9078   1.810   0.394   5.047
 3041TIP3   OH2 9079   8.003   2.514   0.861
 3041TIP3    H1 9080   8.033   2.424   0.868
 3041TIP3    H2 9081   7.943   2.525   0.935
 3042TIP3   OH2 9082   0.400   6.005   3.741
 3042TIP3    H1 9083   0.397   6.090   3.697
 3042TIP3    H2 9084   0.311   5.989   3.771
 3043TIP3   OH2 9085   5.881   3.149   4.914
 3043TIP3    H1 9086   5.973   3.144   4.938
 3043TIP3    H2 9087   5.874   3.230   4.863
 3044TIP3   OH2 9088   8.039   2.300   3.805
 3044TIP3    H1 9089   8.021   2.283   3.897
 3044TIP3    H2 9090   8.002   2.386   3.789
 3045TIP3   OH2 9091   7.759   4.338   5.370
 3045TIP3    H1 9092   7.830   4.289   5.327
 3045TIP3    H2 9093   7.691   4.273   5.384
 3046TIP3   OH2 9094   3.349   4.175   1.312
 3046TIP3    H1 9095   3.277   4.173   1.375
 3046TIP3    H2 9096   3.307   4.201   1.230
 3047TIP3   OH2 9097   4.022   2.286   2.566
 3047TIP3    H1 9098   4.085   2.354   2.543
 3047TIP3    H2 9099   4.029   2.222   2.495
 3048TIP3   OH2 9100   1.097   5.640   3.574
 3048TIP3    H1 9101   1.127   5.689   3.650
 3048TIP3    H2 9102   1.123   5.693   3.499
 3049TIP3   OH2 9103   6.520   7.334   1.441
 3049TIP3    H1 9104   6.603   7.356   1.483
 3049TIP3    H2 9105   6.545   7.294   1.358
 3050TIP3   OH2 9106   0.568   6.281   6.136
 3050TIP3    H1 9107   0.483   6.243   6.161
 3050TIP3    H2 9108   0.599   6.225   6.065
 3051TIP3   OH2 9109   5.584   5.662   0.220
 3051TIP3    H1 9110   5.559   5.749   0.250
 3051TIP3    H2 9111   5.504   5.624   0.184
 3052TIP3   OH2 9112   7.291   0.563   0.975
 3052TIP3    H1 9113   7.298   0.479   1.019
 3052TIP3    H2 9114   7.201   0.566   0.941
 3053TIP3   OH2 9115   0.373   4.488   6.740
 3053TIP3    H1 9116   0.424   4.467   6.818
 3053TIP3    H2 9117   0.437   4.489   6.669
 3054TIP3   OH2 9118   3.860   7.695   1.576
 3054TIP3    H1 9119   3.909   7.759   1.525
 3054TIP3    H2 9120   3.874   7.720   1.667
 3055TIP3   OH2 9121   0.757   2.475   2.421
 3055TIP3    H1 9122   0.789   2.470   2.511
 3055TIP3    H2 9123   0.835   2.460   2.367
 3056TIP3   OH2 9124   7.563   3.189   3.393
 3056TIP3    H1 9125   7.641   3.239   3.419
 3056TIP3    H2 9126   7.520   3.166   3.475
 3057TIP3   OH2 9127   6.192   3.373   4.813
 3057TIP3    H1 9128   6.167   3.387   4.722
 3057TIP3    H2 9129   6.160   3.285   4.834
 3058TIP3   OH2 9130   5.165   7.673   3.501
 3058TIP3    H1 9131   5.096   7.607   3.500
 3058TIP3    H2 9132   5.168   7.706   3.411
 3059TIP3   OH2 9133   6.161   4.603   5.575
 3059TIP3    H1 9134   6.068   4.617   5.592
 3059TIP3    H2 9135   6.170   4.615   5.480
 3060TIP3   OH2 9136   3.117   7.080   3.551
 3060TIP3    H1 9137   3.188   7.028   3.588
 3060TIP3    H2 9138   3.143   7.096   3.461
 3061TIP3   OH2 9139   7.548   0.471   1.746
 3061TIP3    H1 9140   7.515   0.399   1.694
 3061TIP3    H2 9141   7.637   0.486   1.713
 3062TIP3   OH2 9142   2.388   2.814   1.178
 3062TIP3    H1 9143   2.388   2.846   1.088
 3062TIP3    H2 9144   2.300   2.780   1.192
 3063TIP3   OH2 9145   2.652   3.943   4.066
 3063TIP3    H1 9146   2.590   3.953   3.993
 3063TIP3    H2 9147   2.601   3.966   4.144
 3064TIP3   OH2 9148   4.377   5.667   1.487
 3064TIP3    H1 9149   4.291   5.690   1.522
 3064TIP3    H2 9150   4.432   5.744   1.504
 3065TIP3   OH2 9151   7.247   0.033   1.310
 3065TIP3    H1 9152   7.309  -0.024   1.264
 3065TIP3    H2 9153   7.172   0.038   1.252
 3066TIP3   OH2 9154   1.899   6.833   2.447
 3066TIP3    H1 9155   1.906   6.864   2.538
 3066TIP3    H2 9156   1.805   6.826   2.431
 3067TIP3   OH2 9157   1.090   7.535   2.540
 3067TIP3    H1 9158   1.018   7.597   2.545
 3067TIP3    H2 9159   1.078   7.478   2.615
 3068TIP3   OH2 9160   8.113   5.039   3.230
 3068TIP3    H1 9161   8.115   5.042   3.326
 3068TIP3    H2 9162   8.063   5.116   3.205
 3069TIP3   OH2 9163   5.804   4.190   1.171
 3069TIP3    H1 9164   5.878   4.138   1.139
 3069TIP3    H2 9165   5.777   4.146   1.252
 3070TIP3   OH2 9166   5.058   2.484   6.535
 3070TIP3    H1 9167   5.071   2.391   6.515
 3070TIP3    H2 9168   5.144   2.524   6.523
 3071TIP3   OH2 9169   6.380   0.334   3.586
 3071TIP3    H1 9170   6.305   0.321   3.528
 3071TIP3    H2 9171   6.386   0.254   3.638
 3072TIP3   OH2 9172   1.962   1.604   6.379
 3072TIP3    H1 9173   1.871   1.630   6.363
 3072TIP3    H2 9174   2.013   1.673   6.338
 3073TIP3   OH2 9175   7.370   5.973   6.596
 3073TIP3    H1 9176   7.369   5.987   6.690
 3073TIP3    H2 9177   7.342   6.057   6.559
 3074TIP3   OH2 9178   0.138   3.552   5.717
 3074TIP3    H1 9179   0.205   3.493   5.753
 3074TIP3    H2 9180   0.184   3.634   5.702
 3075TIP3   OH2 9181   5.376   5.171   4.093
 3075TIP3    H1 9182   5.351   5.089   4.049
 3075TIP3    H2 9183   5.437   5.143   4.161
 3076TIP3   OH2 9184   1.411   7.250   2.130
 3076TIP3    H1 9185   1.433   7.313   2.199
 3076TIP3    H2 9186   1.421   7.300   2.049
 3077TIP3   OH2 9187   5.778   1.937   0.414
 3077TIP3    H1 9188   5.695   1.976   0.386
 3077TIP3    H2 9189   5.812   1.893   0.336
 3078TIP3   OH2 9190   4.876   6.489   2.985
 3078TIP3    H1 9191   4.914   6.537   2.911
 3078TIP3    H2 9192   4.810   6.548   3.020
 3079TIP3   OH2 9193   4.717   2.010   0.346
 3079TIP3    H1 9194   4.740   1.986   0.256
 3079TIP3    H2 9195   4.676   2.097   0.338
 3080TIP3   OH2 9196   0.213   3.377   4.150
 3080TIP3    H1 9197   0.228   3.283   4.139
 3080TIP3    H2 9198   0.219   3.413   4.061
 3081TIP3   OH2 9199   3.072   1.572   2.133
 3081TIP3    H1 9200   3.136   1.544   2.199
 3081TIP3    H2 9201   2.989   1.577   2.180
 3082TIP3   OH2 9202   4.003   3.052   5.767
 3082TIP3    H1 9203   4.085   3.011   5.738
 3082TIP3    H2 9204   3.974   3.104   5.693
 3083TIP3   OH2 9205   8.081   3.708   5.373
 3083TIP3    H1 9206   8.152   3.651   5.400
 3083TIP3    H2 9207   8.040   3.737   5.454
 3084TIP3   OH2 9208   6.279   1.530   3.597
 3084TIP3    H1 9209   6.291   1.507   3.689
 3084TIP3    H2 9210   6.218   1.464   3.563
 3085TIP3   OH2 9211   2.238   2.065   5.946
 3085TIP3    H1 9212   2.159   2.042   5.996
 3085TIP3    H2 9213   2.273   1.980   5.917
 3086TIP3   OH2 9214   7.025   2.157   6.429
 3086TIP3    H1 9215   6.958   2.225   6.426
 3086TIP3    H2 9216   7.036   2.138   6.522
 3087TIP3   OH2 9217   4.227   6.304   5.199
 3087TIP3    H1 9218   4.165   6.231   5.192
 3087TIP3    H2 9219   4.268   6.309   5.113
 3088TIP3   OH2 9220   2.203   1.992   6.544
 3088TIP3    H1 9221   2.114   1.962   6.524
 3088TIP3    H2 9222   2.197   2.088   6.546
 3089TIP3   OH2 9223   2.613   6.168   3.638
 3089TIP3    H1 9224   2.667   6.191   3.562
 3089TIP3    H2 9225   2.523   6.184   3.609
 3090TIP3   OH2 9226   4.887   4.401   1.728
 3090TIP3    H1 9227   4.927   4.337   1.786
 3090TIP3    H2 9228   4.887   4.482   1.778
 3091TIP3   OH2 9229   6.442   3.355   4.920
 3091TIP3    H1 9230   6.464   3.447   4.937
 3091TIP3    H2 9231   6.364   3.359   4.864
 3092TIP3   OH2 9232   7.847   1.298   4.439
 3092TIP3    H1 9233   7.929   1.323   4.395
 3092TIP3    H2 9234   7.849   1.346   4.522
 3093TIP3   OH2 9235   5.760   6.709   1.382
 3093TIP3    H1 9236   5.822   6.732   1.451
 3093TIP3    H2 9237   5.794   6.751   1.303
 3094TIP3   OH2 9238   0.295   2.390   3.016
 3094TIP3    H1 9239   0.381   2.415   2.983
 3094TIP3    H2 9240   0.303   2.396   3.111
 3095TIP3   OH2 9241   3.952   2.082   3.598
 3095TIP3    H1 9242   3.861   2.081   3.629
 3095TIP3    H2 9243   3.978   1.989   3.598
 3096TIP3   OH2 9244   8.170   4.230   3.560
 3096TIP3    H1 9245   8.224   4.280   3.499
 3096TIP3    H2 9246   8.080   4.250   3.534
 3097TIP3   OH2 9247   5.869   0.463   2.711
 3097TIP3    H1 9248   5.963   0.467   2.693
 3097TIP3    H2 9249   5.855   0.529   2.779
 3098TIP3   OH2 9250   0.266   7.061   2.845
 3098TIP3    H1 9251   0.230   7.026   2.763
 3098TIP3    H2 9252   0.230   7.149   2.852
 3099TIP3   OH2 9253   0.113   6.170   1.474
 3099TIP3    H1 9254   0.136   6.080   1.450
 3099TIP3    H2 9255   0.029   6.185   1.433
 3100TIP3   OH2 9256   1.515   5.242   6.548
 3100TIP3    H1 9257   1.602   5.270   6.575
 3100TIP3    H2 9258   1.461   5.252   6.626
 3101TIP3   OH2 9259   2.689   6.733   2.913
 3101TIP3    H1 9260   2.734   6.738   2.997
 3101TIP3    H2 9261   2.651   6.645   2.911
 3102TIP3   OH2 9262   4.465   2.454   1.574
 3102TIP3    H1 9263   4.378   2.425   1.600
 3102TIP3    H2 9264   4.454   2.547   1.554
 3103TIP3   OH2 9265   7.173   5.615   1.685
 3103TIP3    H1 9266   7.221   5.669   1.623
 3103TIP3    H2 9267   7.232   5.542   1.703
 3104TIP3   OH2 9268   5.602   1.894   0.616
 3104TIP3    H1 9269   5.677   1.893   0.557
 3104TIP3    H2 9270   5.597   1.984   0.647
 3105TIP3   OH2 9271   0.734   3.894   0.966
 3105TIP3    H1 9272   0.707   3.817   1.018
 3105TIP3    H2 9273   0.820   3.870   0.932
 3106TIP3   OH2 9274   0.566   7.214   5.821
 3106TIP3    H1 9275   0.563   7.236   5.914
 3106TIP3    H2 9276   0.591   7.296   5.778
 3107TIP3   OH2 9277   2.121   4.364   3.375
 3107TIP3    H1 9278   2.170   4.324   3.303
 3107TIP3    H2 9279   2.122   4.458   3.355
 3108TIP3   OH2 9280   2.503   6.582   4.540
 3108TIP3    H1 9281   2.595   6.589   4.516
 3108TIP3    H2 9282   2.465   6.666   4.515
 3109TIP3   OH2 9283   7.785   6.833   3.172
 3109TIP3    H1 9284   7.760   6.914   3.127
 3109TIP3    H2 9285   7.836   6.862   3.247
 3110TIP3   OH2 9286   6.132   3.637   4.937
 3110TIP3    H1 9287   6.042   3.632   4.969
 3110TIP3    H2 9288   6.149   3.551   4.899
 3111TIP3   OH2 9289   6.719   7.151   3.914
 3111TIP3    H1 9290   6.692   7.232   3.958
 3111TIP3    H2 9291   6.814   7.148   3.927
 3112TIP3   OH2 9292   4.468   7.604   0.162
 3112TIP3    H1 9293   4.449   7.668   0.093
 3112TIP3    H2 9294   4.488   7.523   0.114
 3113TIP3   OH2 9295   4.115   0.790   2.695
 3113TIP3    H1 9296   4.151   0.722   2.752
 3113TIP3    H2 9297   4.065   0.742   2.630
 3114TIP3   OH2 9298   3.587   3.413   3.176
 3114TIP3    H1 9299   3.676   3.439   3.200
 3114TIP3    H2 9300   3.580   3.434   3.083
 3115TIP3   OH2 9301   4.518   4.859   3.426
 3115TIP3    H1 9302   4.525   4.800   3.501
 3115TIP3    H2 9303   4.594   4.917   3.434
 3116TIP3   OH2 9304   7.842   0.422   0.723
 3116TIP3    H1 9305   7.938   0.424   0.723
 3116TIP3    H2 9306   7.820   0.349   0.666
 3117TIP3   OH2 9307   3.443   3.284   5.699
 3117TIP3    H1 9308   3.367   3.240   5.660
 3117TIP3    H2 9309   3.517   3.232   5.669
 3118TIP3   OH2 9310   2.235   5.654   2.419
 3118TIP3    H1 9311   2.260   5.746   2.413
 3118TIP3    H2 9312   2.241   5.621   2.329
 3119TIP3   OH2 9313   4.923   5.002   1.193
 3119TIP3    H1 9314   4.971   5.067   1.243
 3119TIP3    H2 9315   4.874   5.052   1.128
 3120TIP3   OH2 9316   3.681   6.818   0.107
 3120TIP3    H1 9317   3.641   6.876   0.042
 3120TIP3    H2 9318   3.642   6.844   0.190
 3121TIP3   OH2 9319   2.102   5.028   2.760
 3121TIP3    H1 9320   2.042   5.032   2.834
 3121TIP3    H2 9321   2.189   5.040   2.799
 3122TIP3   OH2 9322   3.754   5.651   2.641
 3122TIP3    H1 9323   3.665   5.684   2.627
 3122TIP3    H2 9324   3.766   5.652   2.736
 3123TIP3   OH2 9325   0.359   0.697   4.351
 3123TIP3    H1 9326   0.384   0.777   4.396
 3123TIP3    H2 9327   0.438   0.643   4.352
 3124TIP3   OH2 9328   2.143   1.733   3.141
 3124TIP3    H1 9329   2.127   1.764   3.052
 3124TIP3    H2 9330   2.185   1.807   3.185
 3125TIP3   OH2 9331   0.758   0.911   6.748
 3125TIP3    H1 9332   0.739   0.851   6.675
 3125TIP3    H2 9333   0.846   0.944   6.728
 3126TIP3   OH2 9334   3.542   7.225   0.359
 3126TIP3    H1 9335   3.617   7.229   0.418
 3126TIP3    H2 9336   3.581   7.218   0.272
 3127TIP3   OH2 9337   0.072   7.715   1.163
 3127TIP3    H1 9338   0.147   7.748   1.212
 3127TIP3    H2 9339   0.019   7.793   1.145
 3128TIP3   OH2 9340   4.236   3.156   2.668
 3128TIP3    H1 9341   4.181   3.103   2.611
 3128TIP3    H2 9342   4.317   3.106   2.677
 3129TIP3   OH2 9343   5.051   1.929   4.309
 3129TIP3    H1 9344   5.011   1.978   4.237
 3129TIP3    H2 9345   5.063   1.840   4.274
 3130TIP3   OH2 9346   0.686   1.660   0.948
 3130TIP3    H1 9347   0.769   1.644   0.904
 3130TIP3    H2 9348   0.624   1.678   0.877
 3131TIP3   OH2 9349   4.326   4.008   0.116
 3131TIP3    H1 9350   4.368   4.071   0.058
 3131TIP3    H2 9351   4.244   4.050   0.143
 3132TIP3   OH2 9352   4.053   3.346   1.579
 3132TIP3    H1 9353   4.034   3.321   1.669
 3132TIP3    H2 9354   4.147   3.364   1.577
 3133TIP3   OH2 9355   4.473   5.236   6.558
 3133TIP3    H1 9356   4.545   5.194   6.511
 3133TIP3    H2 9357   4.478   5.328   6.533
 3134TIP3   OH2 9358   1.897   6.413   4.091
 3134TIP3    H1 9359   1.834   6.342   4.102
 3134TIP3    H2 9360   1.955   6.405   4.168
 3135TIP3   OH2 9361   1.406   2.474   6.075
 3135TIP3    H1 9362   1.385   2.498   6.165
 3135TIP3    H2 9363   1.325   2.434   6.042
 3136TIP3   OH2 9364   5.404   3.696   2.837
 3136TIP3    H1 9365   5.326   3.670   2.789
 3136TIP3    H2 9366   5.441   3.613   2.869
 3137TIP3   OH2 9367   3.265   6.608   0.074
 3137TIP3    H1 9368   3.271   6.704   0.068
 3137TIP3    H2 9369   3.217   6.582  -0.004
 3138TIP3   OH2 9370   5.930   7.795   6.230
 3138TIP3    H1 9371   5.877   7.870   6.254
 3138TIP3    H2 9372   5.893   7.764   6.148
 3139TIP3   OH2 9373   1.955   5.337   4.423
 3139TIP3    H1 9374   2.023   5.323   4.489
 3139TIP3    H2 9375   1.931   5.249   4.394
 3140TIP3   OH2 9376   2.255   4.957   0.265
 3140TIP3    H1 9377   2.185   4.992   0.209
 3140TIP3    H2 9378   2.332   5.008   0.241
 3141TIP3   OH2 9379   5.303   7.004   1.585
 3141TIP3    H1 9380   5.397   6.993   1.594
 3141TIP3    H2 9381   5.293   7.085   1.535
 3142TIP3   OH2 9382   3.544   1.110   5.910
 3142TIP3    H1 9383   3.475   1.047   5.892
 3142TIP3    H2 9384   3.502   1.178   5.962
 3143TIP3   OH2 9385   6.279   7.181   1.886
 3143TIP3    H1 9386   6.336   7.104   1.883
 3143TIP3    H2 9387   6.274   7.211   1.796
 3144TIP3   OH2 9388   4.930   2.855   4.013
 3144TIP3    H1 9389   4.896   2.899   4.092
 3144TIP3    H2 9390   4.873   2.886   3.943
 3145TIP3   OH2 9391   5.104   6.298   2.266
 3145TIP3    H1 9392   5.122   6.206   2.249
 3145TIP3    H2 9393   5.117   6.341   2.181
 3146TIP3   OH2 9394   6.352   1.064   3.210
 3146TIP3    H1 9395   6.341   1.121   3.134
 3146TIP3    H2 9396   6.412   0.996   3.180
 3147TIP3   OH2 9397   4.172   0.866   3.670
 3147TIP3    H1 9398   4.172   0.960   3.688
 3147TIP3    H2 9399   4.225   0.828   3.740
 3148TIP3   OH2 9400   7.847   2.829   0.958
 3148TIP3    H1 9401   7.857   2.744   1.000
 3148TIP3    H2 9402   7.884   2.892   1.020
 3149TIP3   OH2 9403   2.895   4.500   1.332
 3149TIP3    H1 9404   2.927   4.480   1.244
 3149TIP3    H2 9405   2.952   4.571   1.362
 3150TIP3   OH2 9406   3.194   2.531   6.620
 3150TIP3    H1 9407   3.187   2.436   6.613
 3150TIP3    H2 9408   3.225   2.560   6.534
 3151TIP3   OH2 9409   4.699   4.843   0.637
 3151TIP3    H1 9410   4.729   4.753   0.645
 3151TIP3    H2 9411   4.740   4.875   0.556
 3152TIP3   OH2 9412   3.712   7.198   2.763
 3152TIP3    H1 9413   3.704   7.103   2.774
 3152TIP3    H2 9414   3.725   7.232   2.852
 3153TIP3   OH2 9415   7.393   2.517   0.744
 3153TIP3    H1 9416   7.469   2.574   0.742
 3153TIP3    H2 9417   7.411   2.449   0.679
 3154TIP3   OH2 9418   1.246   1.450   0.979
 3154TIP3    H1 9419   1.269   1.424   1.068
 3154TIP3    H2 9420   1.153   1.429   0.970
 3155TIP3   OH2 9421   2.287   7.513   2.491
 3155TIP3    H1 9422   2.241   7.452   2.549
 3155TIP3    H2 9423   2.292   7.594   2.540
 3156TIP3   OH2 9424   2.375   5.264   1.730
 3156TIP3    H1 9425   2.397   5.251   1.822
 3156TIP3    H2 9426   2.328   5.184   1.705
 3157TIP3   OH2 9427   6.028   0.947   1.261
 3157TIP3    H1 9428   5.967   1.020   1.252
 3157TIP3    H2 9429   5.982   0.872   1.222
 3158TIP3   OH2 9430   6.654   4.988   5.147
 3158TIP3    H1 9431   6.568   4.963   5.179
 3158TIP3    H2 9432   6.690   4.908   5.109
 3159TIP3   OH2 9433   4.675   7.727   1.504
 3159TIP3    H1 9434   4.592   7.774   1.497
 3159TIP3    H2 9435   4.651   7.638   1.531
 3160TIP3   OH2 9436   0.223   3.687   1.140
 3160TIP3    H1 9437   0.130   3.681   1.120
 3160TIP3    H2 9438   0.227   3.708   1.233
 3161TIP3   OH2 9439   6.968   5.460   1.828
 3161TIP3    H1 9440   6.914   5.398   1.780
 3161TIP3    H2 9441   7.015   5.508   1.760
 3162TIP3   OH2 9442   6.058   5.333   0.273
 3162TIP3    H1 9443   6.055   5.406   0.211
 3162TIP3    H2 9444   6.009   5.263   0.230
 3163TIP3   OH2 9445   3.785   5.032   4.976
 3163TIP3    H1 9446   3.713   4.980   4.941
 3163TIP3    H2 9447   3.794   5.105   4.915
 3164TIP3   OH2 9448   5.962   7.175   6.643
 3164TIP3    H1 9449   6.028   7.243   6.628
 3164TIP3    H2 9450   5.900   7.186   6.571
 3165TIP3   OH2 9451   1.450   7.600   5.824
 3165TIP3    H1 9452   1.432   7.682   5.779
 3165TIP3    H2 9453   1.388   7.598   5.897
 3166TIP3   OH2 9454   4.390   4.905   0.142
 3166TIP3    H1 9455   4.446   4.836   0.107
 3166TIP3    H2 9456   4.302   4.867   0.143
 3167TIP3   OH2 9457   4.957   2.429   1.470
 3167TIP3    H1 9458   4.870   2.451   1.505
 3167TIP3    H2 9459   4.948   2.438   1.376
 3168TIP3   OH2 9460   7.130   6.484   6.165
 3168TIP3    H1 9461   7.038   6.511   6.159
 3168TIP3    H2 9462   7.163   6.525   6.245
 3169TIP3   OH2 9463   3.966   5.136   0.250
 3169TIP3    H1 9464   3.968   5.116   0.343
 3169TIP3    H2 9465   4.028   5.075   0.211
 3170TIP3   OH2 9466   2.652   3.206   0.673
 3170TIP3    H1 9467   2.595   3.162   0.610
 3170TIP3    H2 9468   2.680   3.136   0.732
 3171TIP3   OH2 9469   0.225   2.781   6.132
 3171TIP3    H1 9470   0.288   2.833   6.083
 3171TIP3    H2 9471   0.150   2.772   6.074
 3172TIP3   OH2 9472   6.788   1.842   6.524
 3172TIP3    H1 9473   6.719   1.902   6.497
 3172TIP3    H2 9474   6.781   1.837   6.619
 3173TIP3   OH2 9475   5.463   1.470   2.088
 3173TIP3    H1 9476   5.438   1.534   2.155
 3173TIP3    H2 9477   5.543   1.504   2.050
 3174TIP3   OH2 9478   0.156   6.512   1.558
 3174TIP3    H1 9479   0.208   6.442   1.598
 3174TIP3    H2 9480   0.193   6.592   1.596
 3175TIP3   OH2 9481   0.530   6.293   6.660
 3175TIP3    H1 9482   0.564   6.381   6.675
 3175TIP3    H2 9483   0.446   6.307   6.615
 3176TIP3   OH2 9484   2.915   7.519   6.302
 3176TIP3    H1 9485   2.861   7.536   6.379
 3176TIP3    H2 9486   2.944   7.606   6.274
 3177TIP3   OH2 9487   4.336   0.081   2.233
 3177TIP3    H1 9488   4.300   0.168   2.218
 3177TIP3    H2 9489   4.299   0.053   2.317
 3178TIP3   OH2 9490   6.989   3.755   3.569
 3178TIP3    H1 9491   7.071   3.716   3.539
 3178TIP3    H2 9492   6.966   3.819   3.501
 3179TIP3   OH2 9493   6.654   5.417   4.787
 3179TIP3    H1 9494   6.593   5.490   4.777
 3179TIP3    H2 9495   6.643   5.365   4.707
 3180TIP3   OH2 9496   7.887   1.902   2.459
 3180TIP3    H1 9497   7.808   1.856   2.430
 3180TIP3    H2 9498   7.871   1.919   2.552
 3181TIP3   OH2 9499   4.144   3.192   6.117
 3181TIP3    H1 9500   4.084   3.122   6.094
 3181TIP3    H2 9501   4.104   3.235   6.192
 3182TIP3   OH2 9502   5.849   7.447   2.473
 3182TIP3    H1 9503   5.857   7.434   2.379
 3182TIP3    H2 9504   5.757   7.470   2.487
 3183TIP3   OH2 9505   2.473   6.708   5.571
 3183TIP3    H1 9506   2.470   6.684   5.664
 3183TIP3    H2 9507   2.432   6.635   5.525
 3184TIP3   OH2 9508   1.682   3.445   2.142
 3184TIP3    H1 9509   1.688   3.524   2.196
 3184TIP3    H2 9510   1.773   3.421   2.124
 3185TIP3   OH2 9511   2.172   5.939   1.965
 3185TIP3    H1 9512   2.110   6.012   1.958
 3185TIP3    H2 9513   2.120   5.861   1.949
 3186TIP3   OH2 9514   6.775   3.444   1.641
 3186TIP3    H1 9515   6.717   3.380   1.600
 3186TIP3    H2 9516   6.727   3.527   1.635
 3187TIP3   OH2 9517   6.543   3.628   6.500
 3187TIP3    H1 9518   6.451   3.651   6.486
 3187TIP3    H2 9519   6.550   3.537   6.471
 3188TIP3   OH2 9520   6.029   4.422   3.470
 3188TIP3    H1 9521   5.934   4.432   3.470
 3188TIP3    H2 9522   6.044   4.337   3.430
 3189TIP3   OH2 9523  -0.010   0.629   0.676
 3189TIP3    H1 9524   0.017   0.621   0.585
 3189TIP3    H2 9525   0.064   0.673   0.718
 3190TIP3   OH2 9526   0.597   7.188   6.124
 3190TIP3    H1 9527   0.673   7.133   6.145
 3190TIP3    H2 9528   0.528   7.157   6.182
 3191TIP3   OH2 9529   1.044   4.914   5.075
 3191TIP3    H1 9530   1.075   4.929   5.164
 3191TIP3    H2 9531   0.967   4.971   5.066
 3192TIP3   OH2 9532   6.991   0.374   4.619
 3192TIP3    H1 9533   7.062   0.378   4.683
 3192TIP3    H2 9534   7.018   0.307   4.557
 3193TIP3   OH2 9535   0.314   1.657   0.377
 3193TIP3    H1 9536   0.343   1.698   0.458
 3193TIP3    H2 9537   0.355   1.571   0.377
 3194TIP3   OH2 9538   4.965   7.167   0.532
 3194TIP3    H1 9539   4.887   7.129   0.572
 3194TIP3    H2 9540   5.006   7.095   0.484
 3195TIP3   OH2 9541   7.475   6.590   2.166
 3195TIP3    H1 9542   7.407   6.597   2.099
 3195TIP3    H2 9543   7.549   6.550   2.121
 3196TIP3   OH2 9544   5.088   0.671   6.127
 3196TIP3    H1 9545   5.046   0.714   6.053
 3196TIP3    H2 9546   5.098   0.739   6.193
 3197TIP3   OH2 9547   7.008   3.902   3.303
 3197TIP3    H1 9548   6.979   3.901   3.212
 3197TIP3    H2 9549   7.104   3.907   3.298
 3198TIP3   OH2 9550   2.934   2.495   5.823
 3198TIP3    H1 9551   2.934   2.461   5.733
 3198TIP3    H2 9552   2.900   2.423   5.875
 3199TIP3   OH2 9553   5.853   1.608   6.184
 3199TIP3    H1 9554   5.930   1.571   6.141
 3199TIP3    H2 9555   5.783   1.543   6.169
 3200TIP3   OH2 9556   0.090   0.526   2.012
 3200TIP3    H1 9557   0.014   0.581   1.991
 3200TIP3    H2 9558   0.063   0.438   1.988
 3201TIP3   OH2 9559   1.779   5.342   5.901
 3201TIP3    H1 9560   1.713   5.339   5.969
 3201TIP3    H2 9561   1.804   5.250   5.887
 3202TIP3   OH2 9562   2.892   7.435   4.057
 3202TIP3    H1 9563   2.924   7.403   3.973
 3202TIP3    H2 9564   2.921   7.368   4.120
 3203TIP3   OH2 9565   4.257   2.768   0.750
 3203TIP3    H1 9566   4.218   2.718   0.678
 3203TIP3    H2 9567   4.209   2.851   0.750
 3204TIP3   OH2 9568   7.980   5.797   5.686
 3204TIP3    H1 9569   7.902   5.770   5.638
 3204TIP3    H2 9570   8.029   5.715   5.701
 3205TIP3   OH2 9571   4.636   2.629   3.390
 3205TIP3    H1 9572   4.544   2.656   3.386
 3205TIP3    H2 9573   4.677   2.673   3.315
 3206TIP3   OH2 9574   4.353   2.747   1.267
 3206TIP3    H1 9575   4.407   2.827   1.272
 3206TIP3    H2 9576   4.398   2.693   1.202
 3207TIP3   OH2 9577   7.123   1.962   0.589
 3207TIP3    H1 9578   7.139   1.905   0.664
 3207TIP3    H2 9579   7.210   1.973   0.549
 3208TIP3   OH2 9580   0.240   3.408   1.024
 3208TIP3    H1 9581   0.188   3.429   0.946
 3208TIP3    H2 9582   0.259   3.493   1.064
 3209TIP3   OH2 9583   6.289   3.196   1.750
 3209TIP3    H1 9584   6.235   3.116   1.756
 3209TIP3    H2 9585   6.226   3.265   1.730
 3210TIP3   OH2 9586   0.036   6.605   2.504
 3210TIP3    H1 9587   0.050   6.619   2.410
 3210TIP3    H2 9588  -0.007   6.685   2.534
 3211TIP3   OH2 9589   7.264   1.701   3.357
 3211TIP3    H1 9590   7.345   1.725   3.402
 3211TIP3    H2 9591   7.249   1.772   3.295
 3212TIP3   OH2 9592   4.872   4.527   0.993
 3212TIP3    H1 9593   4.856   4.621   0.985
 3212TIP3    H2 9594   4.893   4.514   1.086
 3213TIP3   OH2 9595   0.444   5.611   6.210
 3213TIP3    H1 9596   0.486   5.661   6.281
 3213TIP3    H2 9597   0.428   5.525   6.249
 3214TIP3   OH2 9598   6.556   0.315   1.295
 3214TIP3    H1 9599   6.591   0.404   1.287
 3214TIP3    H2 9600   6.510   0.314   1.379
 3215TIP3   OH2 9601   1.494   6.094   6.230
 3215TIP3    H1 9602   1.568   6.121   6.176
 3215TIP3    H2 9603   1.531   6.084   6.317
 3216TIP3   OH2 9604   6.247   1.606   3.204
 3216TIP3    H1 9605   6.258   1.514   3.225
 3216TIP3    H2 9606   6.172   1.609   3.144
 3217TIP3   OH2 9607   4.866   6.574   4.395
 3217TIP3    H1 9608   4.935   6.552   4.457
 3217TIP3    H2 9609   4.803   6.501   4.403
 3218TIP3   OH2 9610   6.070   6.755   1.243
 3218TIP3    H1 9611   6.138   6.728   1.181
 3218TIP3    H2 9612   6.060   6.849   1.229
 3219TIP3   OH2 9613   4.982   2.516   0.834
 3219TIP3    H1 9614   5.040   2.464   0.780
 3219TIP3    H2 9615   4.933   2.570   0.772
 3220TIP3   OH2 9616   1.099   0.136   2.948
 3220TIP3    H1 9617   1.164   0.114   3.015
 3220TIP3    H2 9618   1.025   0.078   2.966
 3221TIP3   OH2 9619   3.203   0.005   2.109
 3221TIP3    H1 9620   3.178  -0.041   2.029
 3221TIP3    H2 9621   3.272   0.066   2.081
 3222TIP3   OH2 9622   4.671   5.361   2.648
 3222TIP3    H1 9623   4.632   5.367   2.561
 3222TIP3    H2 9624   4.629   5.431   2.699
 3223TIP3   OH2 9625   6.259   0.025   5.583
 3223TIP3    H1 9626   6.321   0.049   5.514
 3223TIP3    H2 9627   6.188   0.089   5.576
 3224TIP3   OH2 9628   7.409   1.114   0.621
 3224TIP3    H1 9629   7.473   1.144   0.686
 3224TIP3    H2 9630   7.330   1.164   0.640
 3225TIP3   OH2 9631   1.549   5.428   0.254
 3225TIP3    H1 9632   1.455   5.440   0.241
 3225TIP3    H2 9633   1.576   5.504   0.307
 3226TIP3   OH2 9634   1.581   3.556   2.581
 3226TIP3    H1 9635   1.556   3.621   2.516
 3226TIP3    H2 9636   1.608   3.607   2.657
 3227TIP3   OH2 9637   6.780   6.831   5.428
 3227TIP3    H1 9638   6.870   6.801   5.439
 3227TIP3    H2 9639   6.761   6.878   5.509
 3228TIP3   OH2 9640   0.546   1.010   2.044
 3228TIP3    H1 9641   0.497   1.073   2.097
 3228TIP3    H2 9642   0.616   1.062   2.005
 3229TIP3   OH2 9643   2.418   7.337   4.944
 3229TIP3    H1 9644   2.504   7.323   4.984
 3229TIP3    H2 9645   2.436   7.341   4.850
 3230TIP3   OH2 9646   1.029   6.795   3.073
 3230TIP3    H1 9647   1.093   6.852   3.030
 3230TIP3    H2 9648   1.023   6.827   3.163
 3231TIP3   OH2 9649   7.367   1.649   2.961
 3231TIP3    H1 9650   7.421   1.727   2.969
 3231TIP3    H2 9651   7.349   1.641   2.867
 3232TIP3   OH2 9652   2.799   4.277   3.363
 3232TIP3    H1 9653   2.892   4.299   3.369
 3232TIP3    H2 9654   2.765   4.291   3.452
 3233TIP3   OH2 9655   5.720   2.260   6.268
 3233TIP3    H1 9656   5.770   2.339   6.249
 3233TIP3    H2 9657   5.786   2.193   6.286
 3234TIP3   OH2 9658   0.548   4.363   3.598
 3234TIP3    H1 9659   0.592   4.440   3.635
 3234TIP3    H2 9660   0.455   4.385   3.604
 3235TIP3   OH2 9661   1.722   0.355   5.839
 3235TIP3    H1 9662   1.702   0.306   5.760
 3235TIP3    H2 9663   1.760   0.290   5.899
 3236TIP3   OH2 9664   1.356   6.773   6.131
 3236TIP3    H1 9665   1.317   6.831   6.197
 3236TIP3    H2 9666   1.445   6.757   6.163
 3237TIP3   OH2 9667   3.582   7.595   6.375
 3237TIP3    H1 9668   3.586   7.564   6.285
 3237TIP3    H2 9669   3.668   7.634   6.392
 3238TIP3   OH2 9670   1.985   2.245   1.449
 3238TIP3    H1 9671   2.074   2.214   1.466
 3238TIP3    H2 9672   1.976   2.324   1.502
 3239TIP3   OH2 9673   1.536   6.188   3.121
 3239TIP3    H1 9674   1.627   6.188   3.153
 3239TIP3    H2 9675   1.539   6.236   3.039
 3240TIP3   OH2 9676   5.345   2.231   1.393
 3240TIP3    H1 9677   5.402   2.229   1.470
 3240TIP3    H2 9678   5.335   2.324   1.373
 3241TIP3   OH2 9679   2.315   0.856   4.687
 3241TIP3    H1 9680   2.244   0.822   4.632
 3241TIP3    H2 9681   2.275   0.869   4.773
 3242TIP3   OH2 9682   5.826   4.108   2.016
 3242TIP3    H1 9683   5.786   4.149   1.939
 3242TIP3    H2 9684   5.756   4.052   2.052
 3243TIP3   OH2 9685   0.972   2.894   1.134
 3243TIP3    H1 9686   0.924   2.942   1.201
 3243TIP3    H2 9687   0.985   2.957   1.064
 3244TIP3   OH2 9688   7.307   1.286   4.903
 3244TIP3    H1 9689   7.247   1.314   4.971
 3244TIP3    H2 9690   7.382   1.249   4.950
 3245TIP3   OH2 9691   2.388   1.230   5.388
 3245TIP3    H1 9692   2.416   1.149   5.344
 3245TIP3    H2 9693   2.341   1.200   5.466
 3246TIP3   OH2 9694   1.527   0.966   4.915
 3246TIP3    H1 9695   1.571   0.961   5.000
 3246TIP3    H2 9696   1.435   0.977   4.937
 3247TIP3   OH2 9697   0.210   2.211   4.795
 3247TIP3    H1 9698   0.167   2.296   4.809
 3247TIP3    H2 9699   0.205   2.197   4.701
 3248TIP3   OH2 9700   6.467   6.656   0.811
 3248TIP3    H1 9701   6.430   6.689   0.893
 3248TIP3    H2 9702   6.420   6.705   0.742
 3249TIP3   OH2 9703   4.640   7.327   6.052
 3249TIP3    H1 9704   4.621   7.385   5.978
 3249TIP3    H2 9705   4.681   7.384   6.117
 3250TIP3   OH2 9706   7.313   2.217   1.243
 3250TIP3    H1 9707   7.259   2.177   1.175
 3250TIP3    H2 9708   7.356   2.291   1.199
 3251TIP3   OH2 9709   7.942   2.391   3.479
 3251TIP3    H1 9710   7.867   2.445   3.503
 3251TIP3    H2 9711   7.948   2.397   3.384
 3252TIP3   OH2 9712   5.617   7.420   1.109
 3252TIP3    H1 9713   5.581   7.436   1.022
 3252TIP3    H2 9714   5.642   7.328   1.108
 3253TIP3   OH2 9715   1.334   6.744   3.036
 3253TIP3    H1 9716   1.282   6.693   2.974
 3253TIP3    H2 9717   1.396   6.792   2.981
 3254TIP3   OH2 9718   7.048   3.498   1.580
 3254TIP3    H1 9719   6.954   3.482   1.591
 3254TIP3    H2 9720   7.088   3.412   1.587
 3255TIP3   OH2 9721   5.593   3.920   4.696
 3255TIP3    H1 9722   5.538   3.994   4.724
 3255TIP3    H2 9723   5.560   3.897   4.609
 3256TIP3   OH2 9724   5.193   1.555   4.576
 3256TIP3    H1 9725   5.138   1.495   4.526
 3256TIP3    H2 9726   5.133   1.593   4.641
 3257TIP3   OH2 9727   8.250   3.977   4.769
 3257TIP3    H1 9728   8.331   4.028   4.773
 3257TIP3    H2 9729   8.231   3.969   4.675
 3258TIP3   OH2 9730   8.263   0.117   3.005
 3258TIP3    H1 9731   8.212   0.092   3.082
 3258TIP3    H2 9732   8.205   0.097   2.931
 3259TIP3   OH2 9733   5.435   3.845   1.921
 3259TIP3    H1 9734   5.440   3.803   2.007
 3259TIP3    H2 9735   5.345   3.877   1.915
 3260TIP3   OH2 9736   2.427   2.292   3.179
 3260TIP3    H1 9737   2.335   2.286   3.157
 3260TIP3    H2 9738   2.454   2.379   3.148
 3261TIP3   OH2 9739   6.247   3.414   6.167
 3261TIP3    H1 9740   6.234   3.321   6.186
 3261TIP3    H2 9741   6.341   3.424   6.156
 3262TIP3   OH2 9742   4.613   1.322   0.025
 3262TIP3    H1 9743   4.534   1.304   0.077
 3262TIP3    H2 9744   4.631   1.241  -0.022
 3263TIP3   OH2 9745   5.401   6.642   5.355
 3263TIP3    H1 9746   5.464   6.702   5.315
 3263TIP3    H2 9747   5.436   6.626   5.443
 3264TIP3   OH2 9748   5.362   5.323   4.743
 3264TIP3    H1 9749   5.368   5.321   4.648
 3264TIP3    H2 9750   5.446   5.289   4.773
 3265TIP3   OH2 9751   1.203   1.445   1.945
 3265TIP3    H1 9752   1.212   1.447   2.040
 3265TIP3    H2 9753   1.125   1.498   1.927
 3266TIP3   OH2 9754   4.426   7.574   3.835
 3266TIP3    H1 9755   4.464   7.549   3.919
 3266TIP3    H2 9756   4.495   7.554   3.771
 3267TIP3   OH2 9757   1.312   6.032   3.069
 3267TIP3    H1 9758   1.241   6.094   3.084
 3267TIP3    H2 9759   1.392   6.081   3.088
 3268TIP3   OH2 9760   6.426   6.095   4.265
 3268TIP3    H1 9761   6.418   6.000   4.265
 3268TIP3    H2 9762   6.357   6.125   4.205
 3269TIP3   OH2 9763   7.960   1.443   3.224
 3269TIP3    H1 9764   7.905   1.506   3.270
 3269TIP3    H2 9765   7.909   1.419   3.147
 3270TIP3   OH2 9766   2.662   3.432   3.227
 3270TIP3    H1 9767   2.695   3.521   3.235
 3270TIP3    H2 9768   2.670   3.411   3.134
 3271TIP3   OH2 9769   0.841   2.363   1.290
 3271TIP3    H1 9770   0.775   2.296   1.273
 3271TIP3    H2 9771   0.791   2.440   1.314
 3272TIP3   OH2 9772   7.163   0.851   1.530
 3272TIP3    H1 9773   7.219   0.850   1.607
 3272TIP3    H2 9774   7.219   0.884   1.460
 3273TIP3   OH2 9775   2.136   0.914   3.323
 3273TIP3    H1 9776   2.101   0.872   3.402
 3273TIP3    H2 9777   2.072   0.982   3.302
 3274TIP3   OH2 9778   5.278   2.620   6.024
 3274TIP3    H1 9779   5.184   2.602   6.031
 3274TIP3    H2 9780   5.283   2.710   5.991
 3275TIP3   OH2 9781   1.178   7.186   1.135
 3275TIP3    H1 9782   1.240   7.131   1.182
 3275TIP3    H2 9783   1.232   7.255   1.096
 3276TIP3   OH2 9784   6.268   3.491   5.502
 3276TIP3    H1 9785   6.213   3.443   5.565
 3276TIP3    H2 9786   6.259   3.583   5.528
 3277TIP3   OH2 9787   1.380   2.566   5.219
 3277TIP3    H1 9788   1.470   2.595   5.233
 3277TIP3    H2 9789   1.374   2.482   5.264
 3278TIP3   OH2 9790   5.941   5.260   1.522
 3278TIP3    H1 9791   6.004   5.259   1.451
 3278TIP3    H2 9792   5.954   5.177   1.568
 3279TIP3   OH2 9793   4.107   1.324   4.449
 3279TIP3    H1 9794   4.050   1.324   4.372
 3279TIP3    H2 9795   4.062   1.379   4.513
 3280TIP3   OH2 9796   0.560   4.202   6.165
 3280TIP3    H1 9797   0.643   4.160   6.144
 3280TIP3    H2 9798   0.530   4.239   6.082
 3281TIP3   OH2 9799   7.446   5.215   6.062
 3281TIP3    H1 9800   7.513   5.264   6.014
 3281TIP3    H2 9801   7.364   5.260   6.040
 3282TIP3   OH2 9802   7.960   7.076   2.575
 3282TIP3    H1 9803   8.051   7.084   2.545
 3282TIP3    H2 9804   7.908   7.108   2.502
 3283TIP3   OH2 9805   1.008   0.749   3.539
 3283TIP3    H1 9806   1.074   0.707   3.484
 3283TIP3    H2 9807   0.925   0.736   3.493
 3284TIP3   OH2 9808   1.064   4.391   0.392
 3284TIP3    H1 9809   1.101   4.306   0.412
 3284TIP3    H2 9810   0.976   4.372   0.358
 3285TIP3   OH2 9811   3.236   6.521   1.188
 3285TIP3    H1 9812   3.257   6.439   1.143
 3285TIP3    H2 9813   3.258   6.589   1.124
 3286TIP3   OH2 9814   7.301   6.888   0.800
 3286TIP3    H1 9815   7.237   6.894   0.729
 3286TIP3    H2 9816   7.332   6.797   0.796
 3287TIP3   OH2 9817   6.432   0.954   0.421
 3287TIP3    H1 9818   6.378   0.996   0.488
 3287TIP3    H2 9819   6.506   0.918   0.469
 3288TIP3   OH2 9820   4.552   3.678   1.739
 3288TIP3    H1 9821   4.470   3.705   1.780
 3288TIP3    H2 9822   4.620   3.707   1.800
 3289TIP3   OH2 9823   4.125   5.357   4.320
 3289TIP3    H1 9824   4.169   5.273   4.305
 3289TIP3    H2 9825   4.096   5.352   4.411
 3290TIP3   OH2 9826   5.763   0.243   3.669
 3290TIP3    H1 9827   5.810   0.177   3.718
 3290TIP3    H2 9828   5.821   0.320   3.669
 3291TIP3   OH2 9829   6.967   5.387   0.657
 3291TIP3    H1 9830   6.995   5.474   0.630
 3291TIP3    H2 9831   7.032   5.360   0.723
 3292TIP3   OH2 9832   6.149   5.092   3.633
 3292TIP3    H1 9833   6.111   5.059   3.552
 3292TIP3    H2 9834   6.217   5.153   3.603
 3293TIP3   OH2 9835   3.283   1.701   4.235
 3293TIP3    H1 9836   3.245   1.619   4.203
 3293TIP3    H2 9837   3.320   1.742   4.156
 3294TIP3   OH2 9838   4.299   7.761   5.674
 3294TIP3    H1 9839   4.215   7.807   5.669
 3294TIP3    H2 9840   4.334   7.765   5.585
 3295TIP3   OH2 9841   7.058   1.671   4.711
 3295TIP3    H1 9842   7.116   1.724   4.767
 3295TIP3    H2 9843   7.048   1.724   4.632
 3296TIP3   OH2 9844   0.839   1.467   5.649
 3296TIP3    H1 9845   0.887   1.480   5.730
 3296TIP3    H2 9846   0.877   1.531   5.588
 3297TIP3   OH2 9847   1.515   3.390   5.925
 3297TIP3    H1 9848   1.522   3.447   6.001
 3297TIP3    H2 9849   1.589   3.414   5.870
 3298TIP3   OH2 9850   6.165   7.646   4.502
 3298TIP3    H1 9851   6.124   7.609   4.581
 3298TIP3    H2 9852   6.257   7.657   4.525
 3299TIP3   OH2 9853   6.454   2.729   1.604
 3299TIP3    H1 9854   6.497   2.744   1.688
 3299TIP3    H2 9855   6.520   2.685   1.551
 3300TIP3   OH2 9856   3.338   4.663   2.286
 3300TIP3    H1 9857   3.321   4.637   2.377
 3300TIP3    H2 9858   3.311   4.755   2.282
 3301TIP3   OH2 9859   3.936   5.158   4.270
 3301TIP3    H1 9860   3.972   5.230   4.321
 3301TIP3    H2 9861   3.903   5.199   4.190
 3302TIP3   OH2 9862   7.233   2.231   6.250
 3302TIP3    H1 9863   7.163   2.179   6.290
 3302TIP3    H2 9864   7.231   2.314   6.297
 3303TIP3   OH2 9865   7.921   3.882   0.977
 3303TIP3    H1 9866   7.853   3.928   1.027
 3303TIP3    H2 9867   7.882   3.797   0.956
 3304TIP3   OH2 9868   4.018   4.329   5.117
 3304TIP3    H1 9869   4.071   4.253   5.144
 3304TIP3    H2 9870   4.075   4.404   5.133
 3305TIP3   OH2 9871   0.048   6.302   4.555
 3305TIP3    H1 9872  -0.008   6.325   4.629
 3305TIP3    H2 9873   0.129   6.350   4.570
 3306TIP3   OH2 9874   6.921   2.108   6.175
 3306TIP3    H1 9875   6.991   2.044   6.189
 3306TIP3    H2 9876   6.914   2.154   6.258
 3307TIP3   OH2 9877   3.829   6.298   5.759
 3307TIP3    H1 9878   3.789   6.373   5.715
 3307TIP3    H2 9879   3.907   6.279   5.708
 3308TIP3   OH2 9880   3.764   5.076   2.068
 3308TIP3    H1 9881   3.825   5.082   1.994
 3308TIP3    H2 9882   3.790   5.147   2.126
 3309TIP3   OH2 9883   5.021   0.464   0.808
 3309TIP3    H1 9884   5.019   0.368   0.802
 3309TIP3    H2 9885   5.042   0.492   0.719
 3310TIP3   OH2 9886   4.369   4.037   1.653
 3310TIP3    H1 9887   4.387   3.965   1.714
 3310TIP3    H2 9888   4.354   4.113   1.710
 3311TIP3   OH2 9889   2.256   5.116   5.330
 3311TIP3    H1 9890   2.201   5.132   5.407
 3311TIP3    H2 9891   2.243   5.194   5.275
 3312TIP3   OH2 9892   7.000   5.852   4.586
 3312TIP3    H1 9893   6.953   5.786   4.535
 3312TIP3    H2 9894   6.931   5.906   4.624
 3313TIP3   OH2 9895   5.939   1.488   2.833
 3313TIP3    H1 9896   6.028   1.459   2.812
 3313TIP3    H2 9897   5.903   1.415   2.884
 3314TIP3   OH2 9898   2.921   6.697   5.027
 3314TIP3    H1 9899   2.907   6.697   5.122
 3314TIP3    H2 9900   2.900   6.608   5.000
 3315TIP3   OH2 9901   6.346   5.522   1.733
 3315TIP3    H1 9902   6.327   5.443   1.784
 3315TIP3    H2 9903   6.291   5.590   1.773
 3316TIP3   OH2 9904   5.233   6.856   2.588
 3316TIP3    H1 9905   5.310   6.913   2.583
 3316TIP3    H2 9906   5.164   6.911   2.624
 3317TIP3   OH2 9907   0.053   6.645   1.934
 3317TIP3    H1 9908   0.051   6.736   1.904
 3317TIP3    H2 9909   0.144   6.619   1.927
 3318TIP3   OH2 9910   3.579   5.310   4.372
 3318TIP3    H1 9911   3.622   5.236   4.328
 3318TIP3    H2 9912   3.502   5.328   4.319
 3319TIP3   OH2 9913   2.624   7.150   6.363
 3319TIP3    H1 9914   2.547   7.105   6.328
 3319TIP3    H2 9915   2.620   7.134   6.458
 3320TIP3   OH2 9916   6.234   5.616   6.608
 3320TIP3    H1 9917   6.226   5.638   6.701
 3320TIP3    H2 9918   6.277   5.531   6.607
 3321TIP3   OH2 9919   1.814   1.545   4.320
 3321TIP3    H1 9920   1.743   1.584   4.268
 3321TIP3    H2 9921   1.871   1.619   4.342
 3322TIP3   OH2 9922   5.050   3.818   0.623
 3322TIP3    H1 9923   5.089   3.905   0.634
 3322TIP3    H2 9924   4.983   3.813   0.691
 3323TIP3   OH2 9925   3.072   4.307   3.952
 3323TIP3    H1 9926   3.085   4.224   3.998
 3323TIP3    H2 9927   3.119   4.371   4.006
 3324TIP3   OH2 9928   0.834   1.894   1.590
 3324TIP3    H1 9929   0.808   1.957   1.657
 3324TIP3    H2 9930   0.898   1.941   1.536
 3325TIP3   OH2 9931   0.893   2.803   5.287
 3325TIP3    H1 9932   0.971   2.770   5.242
 3325TIP3    H2 9933   0.888   2.895   5.260
 3326TIP3   OH2 9934   5.758   2.324   6.756
 3326TIP3    H1 9935   5.698   2.250   6.767
 3326TIP3    H2 9936   5.783   2.321   6.664
 3327TIP3   OH2 9937   6.472   4.497   5.012
 3327TIP3    H1 9938   6.536   4.546   4.960
 3327TIP3    H2 9939   6.455   4.552   5.088
 3328TIP3   OH2 9940   7.990   7.377   4.557
 3328TIP3    H1 9941   8.002   7.285   4.581
 3328TIP3    H2 9942   8.036   7.386   4.474
 3329TIP3   OH2 9943   7.236   7.721   0.527
 3329TIP3    H1 9944   7.149   7.728   0.488
 3329TIP3    H2 9945   7.259   7.810   0.552
 3330TIP3   OH2 9946   0.628   6.726   3.283
 3330TIP3    H1 9947   0.653   6.787   3.352
 3330TIP3    H2 9948   0.704   6.670   3.270
 3331TIP3   OH2 9949   3.824   5.616   4.092
 3331TIP3    H1 9950   3.837   5.671   4.014
 3331TIP3    H2 9951   3.735   5.584   4.083
 3332TIP3   OH2 9952   0.857   1.406   6.459
 3332TIP3    H1 9953   0.884   1.401   6.367
 3332TIP3    H2 9954   0.819   1.321   6.478
 3333TIP3   OH2 9955   2.392   4.291   2.358
 3333TIP3    H1 9956   2.453   4.245   2.415
 3333TIP3    H2 9957   2.415   4.262   2.270
 3334TIP3   OH2 9958   1.896   1.613   1.496
 3334TIP3    H1 9959   1.826   1.617   1.431
 3334TIP3    H2 9960   1.856   1.569   1.571
 3335TIP3   OH2 9961   3.005   7.251   1.745
 3335TIP3    H1 9962   2.964   7.183   1.691
 3335TIP3    H2 9963   2.991   7.332   1.696
 3336TIP3   OH2 9964   1.157   1.661   5.052
 3336TIP3    H1 9965   1.184   1.691   5.138
 3336TIP3    H2 9966   1.064   1.640   5.061
 3337TIP3   OH2 9967   3.223   1.212   3.487
 3337TIP3    H1 9968   3.251   1.194   3.577
 3337TIP3    H2 9969   3.221   1.127   3.444
 3338TIP3   OH2 9970   4.461   5.346   1.572
 3338TIP3    H1 9971   4.403   5.271   1.590
 3338TIP3    H2 9972   4.404   5.411   1.532
 3339TIP3   OH2 9973   0.520   5.751   0.384
 3339TIP3    H1 9974   0.551   5.683   0.443
 3339TIP3    H2 9975   0.575   5.827   0.405
 3340TIP3   OH2 9976   3.707   3.947   4.709
 3340TIP3    H1 9977   3.773   3.954   4.641
 3340TIP3    H2 9978   3.721   4.024   4.764
 3341TIP3   OH2 9979   1.759   6.034   0.409
 3341TIP3    H1 9980   1.671   6.051   0.443
 3341TIP3    H2 9981   1.806   6.117   0.420
 3342TIP3   OH2 9982   1.890   1.268   3.518
 3342TIP3    H1 9983   1.912   1.178   3.495
 3342TIP3    H2 9984   1.948   1.288   3.592
 3343TIP3   OH2 9985   5.216   3.845   1.586
 3343TIP3    H1 9986   5.230   3.787   1.512
 3343TIP3    H2 9987   5.304   3.861   1.621
 3344TIP3   OH2 9988   5.979   6.588   4.022
 3344TIP3    H1 9989   5.932   6.586   4.105
 3344TIP3    H2 9990   5.962   6.675   3.987
 3345TIP3   OH2 9991   8.018   0.574   1.373
 3345TIP3    H1 9992   8.043   0.663   1.347
 3345TIP3    H2 9993   7.935   0.558   1.328
 3346TIP3   OH2 9994   1.048   5.385   5.493
 3346TIP3    H1 9995   1.074   5.476   5.506
 3346TIP3    H2 9996   1.103   5.355   5.421
 3347TIP3   OH2 9997   1.285   4.934   2.785
 3347TIP3    H1 9998   1.312   4.877   2.857
 3347TIP3    H2 9999   1.189   4.939   2.794
 3348TIP3   OH210000   3.323   4.771   6.570
 3348TIP3    H110001   3.328   4.761   6.665
 3348TIP3    H210002   3.413   4.756   6.539
 3349TIP3   OH210003   7.918   0.283   0.110
 3349TIP3    H110004   7.914   0.195   0.072
 3349TIP3    H210005   7.857   0.280   0.183
 3350TIP3   OH210006   0.743   3.303   1.385
 3350TIP3    H110007   0.772   3.353   1.462
 3350TIP3    H210008   0.823   3.286   1.336
 3351TIP3   OH210009   3.359   1.573   5.199
 3351TIP3    H110010   3.384   1.658   5.161
 3351TIP3    H210011   3.411   1.509   5.149
 3352TIP3   OH210012   1.355   4.135   3.699
 3352TIP3    H110013   1.289   4.204   3.700
 3352TIP3    H210014   1.312   4.060   3.741
 3353TIP3   OH210015   1.874   6.421   2.692
 3353TIP3    H110016   1.819   6.371   2.753
 3353TIP3    H210017   1.857   6.512   2.714
 3354TIP3   OH210018   5.531   6.741   0.836
 3354TIP3    H110019   5.448   6.785   0.818
 3354TIP3    H210020   5.546   6.757   0.929
 3355TIP3   OH210021   5.409   0.140   5.132
 3355TIP3    H110022   5.421   0.233   5.113
 3355TIP3    H210023   5.360   0.106   5.057
 3356TIP3   OH210024   7.791   3.280   3.700
 3356TIP3    H110025   7.790   3.352   3.763
 3356TIP3    H210026   7.884   3.269   3.679
 3357TIP3   OH210027   5.744   6.673   6.025
 3357TIP3    H110028   5.835   6.645   6.013
 3357TIP3    H210029   5.694   6.591   6.024
 3358TIP3   OH210030   2.401   5.935   6.049
 3358TIP3    H110031   2.480   5.888   6.020
 3358TIP3    H210032   2.412   5.942   6.144
 3359TIP3   OH210033   7.379   5.327   5.308
 3359TIP3    H110034   7.344   5.393   5.368
 3359TIP3    H210035   7.312   5.321   5.239
 3360TIP3   OH210036   3.947   6.253   5.016
 3360TIP3    H110037   3.883   6.261   4.946
 3360TIP3    H210038   3.955   6.341   5.052
 3361TIP3   OH210039   1.259   1.268   2.303
 3361TIP3    H110040   1.268   1.362   2.285
 3361TIP3    H210041   1.200   1.237   2.234
 3362TIP3   OH210042   3.739   1.674   1.478
 3362TIP3    H110043   3.649   1.653   1.503
 3362TIP3    H210044   3.730   1.727   1.399
 3363TIP3   OH210045   0.057   3.651   1.671
 3363TIP3    H110046   0.054   3.555   1.678
 3363TIP3    H210047  -0.017   3.680   1.725
 3364TIP3   OH210048   8.184   3.190   3.814
 3364TIP3    H110049   8.259   3.187   3.873
 3364TIP3    H210050   8.219   3.163   3.730
 3365TIP3   OH210051   0.919   2.592   3.625
 3365TIP3    H110052   1.012   2.604   3.640
 3365TIP3    H210053   0.891   2.532   3.695
 3366TIP3   OH210054   4.293   7.199   0.546
 3366TIP3    H110055   4.344   7.181   0.467
 3366TIP3    H210056   4.292   7.116   0.593
 3367TIP3   OH210057   7.114   1.297   5.371
 3367TIP3    H110058   7.183   1.349   5.412
 3367TIP3    H210059   7.036   1.316   5.422
 3368TIP3   OH210060   6.943   2.198   5.897
 3368TIP3    H110061   6.990   2.126   5.857
 3368TIP3    H210062   6.930   2.171   5.988
 3369TIP3   OH210063   0.338   4.681   0.674
 3369TIP3    H110064   0.297   4.731   0.744
 3369TIP3    H210065   0.291   4.598   0.672
 3370TIP3   OH210066   2.853   0.894   4.656
 3370TIP3    H110067   2.780   0.945   4.690
 3370TIP3    H210068   2.929   0.927   4.703
 3371TIP3   OH210069   7.926   4.355   2.357
 3371TIP3    H110070   7.924   4.425   2.423
 3371TIP3    H210071   7.874   4.285   2.396
 3372TIP3   OH210072   5.557   3.499   6.419
 3372TIP3    H110073   5.644   3.493   6.458
 3372TIP3    H210074   5.562   3.571   6.357
 3373TIP3   OH210075   5.018   0.650   0.999
 3373TIP3    H110076   5.020   0.600   0.917
 3373TIP3    H210077   4.967   0.595   1.059
 3374TIP3   OH210078   2.807   7.134   2.501
 3374TIP3    H110079   2.869   7.204   2.479
 3374TIP3    H210080   2.848   7.089   2.575
 3375TIP3   OH210081   2.206   0.813   5.346
 3375TIP3    H110082   2.136   0.778   5.291
 3375TIP3    H210083   2.164   0.839   5.427
 3376TIP3   OH210084   7.964   1.118   3.695
 3376TIP3    H110085   7.966   1.049   3.762
 3376TIP3    H210086   8.016   1.082   3.623
 3377TIP3   OH210087   5.924   1.619   3.401
 3377TIP3    H110088   5.854   1.623   3.336
 3377TIP3    H210089   5.973   1.540   3.378
 3378TIP3   OH210090   5.474   4.876   4.979
 3378TIP3    H110091   5.569   4.881   4.991
 3378TIP3    H210092   5.438   4.900   5.065
 3379TIP3   OH210093   5.675   3.500   2.862
 3379TIP3    H110094   5.692   3.477   2.953
 3379TIP3    H210095   5.697   3.421   2.813
 3380TIP3   OH210096   6.619   0.575   1.272
 3380TIP3    H110097   6.669   0.603   1.196
 3380TIP3    H210098   6.647   0.634   1.343
 3381TIP3   OH210099   0.779   6.231   3.854
 3381TIP3    H110100   0.869   6.263   3.860
 3381TIP3    H210101   0.760   6.230   3.760
 3382TIP3   OH210102   5.789   4.059   1.464
 3382TIP3    H110103   5.880   4.084   1.454
 3382TIP3    H210104   5.792   3.965   1.484
 3383TIP3   OH210105   7.587   1.087   2.180
 3383TIP3    H110106   7.596   1.057   2.270
 3383TIP3    H210107   7.528   1.023   2.139
 3384TIP3   OH210108   3.145   4.088   2.417
 3384TIP3    H110109   3.238   4.087   2.392
 3384TIP3    H210110   3.099   4.056   2.339
 3385TIP3   OH210111   2.077   0.298   6.080
 3385TIP3    H110112   2.139   0.311   6.152
 3385TIP3    H210113   2.127   0.317   6.001
 3386TIP3   OH210114   4.516   2.584   6.518
 3386TIP3    H110115   4.598   2.563   6.474
 3386TIP3    H210116   4.533   2.667   6.563
 3387TIP3   OH210117   2.080   7.140   3.633
 3387TIP3    H110118   2.109   7.198   3.704
 3387TIP3    H210119   2.154   7.138   3.573
 3388TIP3   OH210120   4.312   1.178   2.186
 3388TIP3    H110121   4.303   1.258   2.238
 3388TIP3    H210122   4.244   1.187   2.119
 3389TIP3   OH210123   0.940   3.597   3.963
 3389TIP3    H110124   0.892   3.520   3.994
 3389TIP3    H210125   0.959   3.647   4.043
 3390TIP3   OH210126   1.567   3.947   1.129
 3390TIP3    H110127   1.630   4.012   1.162
 3390TIP3    H210128   1.481   3.981   1.156
 3391TIP3   OH210129   1.116   2.244   0.170
 3391TIP3    H110130   1.105   2.149   0.172
 3391TIP3    H210131   1.089   2.270   0.083
 3392TIP3   OH210132   7.408   0.562   1.331
 3392TIP3    H110133   7.343   0.499   1.363
 3392TIP3    H210134   7.457   0.513   1.265
 3393TIP3   OH210135   2.830   0.100   5.592
 3393TIP3    H110136   2.823   0.168   5.526
 3393TIP3    H210137   2.743   0.094   5.631
 3394TIP3   OH210138   4.495   3.705   1.475
 3394TIP3    H110139   4.530   3.675   1.559
 3394TIP3    H210140   4.565   3.688   1.413
 3395TIP3   OH210141   4.466   7.371   2.472
 3395TIP3    H110142   4.561   7.361   2.482
 3395TIP3    H210143   4.433   7.282   2.459
 3396TIP3   OH210144   8.156   7.783   5.930
 3396TIP3    H110145   8.199   7.857   5.974
 3396TIP3    H210146   8.136   7.722   6.001
 3397TIP3   OH210147   2.737   6.582   0.505
 3397TIP3    H110148   2.644   6.603   0.496
 3397TIP3    H210149   2.759   6.534   0.425
 3398TIP3   OH210150   3.572   3.140   4.718
 3398TIP3    H110151   3.538   3.206   4.657
 3398TIP3    H210152   3.567   3.058   4.669
 3399TIP3   OH210153   5.509   5.094   2.375
 3399TIP3    H110154   5.513   5.000   2.358
 3399TIP3    H210155   5.508   5.133   2.288
 3400TIP3   OH210156   1.081   1.473   0.546
 3400TIP3    H110157   1.096   1.542   0.611
 3400TIP3    H210158   0.995   1.493   0.509
 3401TIP3   OH210159   2.188   4.829   1.135
 3401TIP3    H110160   2.204   4.915   1.096
 3401TIP3    H210161   2.219   4.767   1.070
 3402TIP3   OH210162   6.233   3.804   4.301
 3402TIP3    H110163   6.311   3.812   4.356
 3402TIP3    H210164   6.167   3.858   4.346
 3403TIP3   OH210165   6.548   5.632   6.192
 3403TIP3    H110166   6.517   5.671   6.274
 3403TIP3    H210167   6.557   5.706   6.132
 3404TIP3   OH210168   1.153   1.162   2.076
 3404TIP3    H110169   1.066   1.152   2.114
 3404TIP3    H210170   1.167   1.081   2.026
 3405TIP3   OH210171   4.074   6.238   1.243
 3405TIP3    H110172   4.105   6.242   1.152
 3405TIP3    H210173   4.154   6.242   1.296
 3406TIP3   OH210174   3.607   0.159   6.265
 3406TIP3    H110175   3.671   0.121   6.205
 3406TIP3    H210176   3.588   0.089   6.327
 3407TIP3   OH210177   5.211   7.531   0.813
 3407TIP3    H110178   5.115   7.530   0.811
 3407TIP3    H210179   5.234   7.488   0.896
 3408TIP3   OH210180   1.826   2.832   5.333
 3408TIP3    H110181   1.775   2.897   5.284
 3408TIP3    H210182   1.770   2.754   5.335
 3409TIP3   OH210183   3.703   7.261   4.311
 3409TIP3    H110184   3.715   7.356   4.304
 3409TIP3    H210185   3.680   7.246   4.402
 3410TIP3   OH210186   7.830   6.077   1.366
 3410TIP3    H110187   7.910   6.053   1.413
 3410TIP3    H210188   7.796   6.152   1.415
 3411TIP3   OH210189   2.758   6.483   3.290
 3411TIP3    H110190   2.801   6.540   3.226
 3411TIP3    H210191   2.822   6.473   3.360
 3412TIP3   OH210192   0.454   7.140   5.555
 3412TIP3    H110193   0.512   7.140   5.631
 3412TIP3    H210194   0.481   7.216   5.504
 3413TIP3   OH210195   0.027   1.773   2.902
 3413TIP3    H110196  -0.009   1.858   2.926
 3413TIP3    H210197   0.062   1.738   2.984
 3414TIP3   OH210198   4.725   6.668   5.978
 3414TIP3    H110199   4.743   6.744   5.922
 3414TIP3    H210200   4.634   6.679   6.006
 3415TIP3   OH210201   1.927   3.080   4.253
 3415TIP3    H110202   1.936   3.092   4.159
 3415TIP3    H210203   1.860   3.011   4.262
 3416TIP3   OH210204   1.900   4.961   1.116
 3416TIP3    H110205   1.985   5.004   1.124
 3416TIP3    H210206   1.867   4.954   1.206
 3417TIP3   OH210207   5.819   1.959   2.334
 3417TIP3    H110208   5.761   1.883   2.341
 3417TIP3    H210209   5.789   2.018   2.403
 3418TIP3   OH210210   0.200   6.879   5.390
 3418TIP3    H110211   0.248   6.946   5.341
 3418TIP3    H210212   0.204   6.802   5.333
 3419TIP3   OH210213   7.852   4.637   0.398
 3419TIP3    H110214   7.785   4.697   0.366
 3419TIP3    H210215   7.852   4.566   0.334
 3420TIP3   OH210216   2.806   2.145   5.034
 3420TIP3    H110217   2.807   2.076   5.100
 3420TIP3    H210218   2.880   2.201   5.056
 3421TIP3   OH210219   7.387   3.402   6.647
 3421TIP3    H110220   7.402   3.401   6.552
 3421TIP3    H210221   7.444   3.473   6.678
 3422TIP3   OH210222   3.906   1.893   3.912
 3422TIP3    H110223   3.850   1.968   3.895
 3422TIP3    H210224   3.961   1.920   3.986
 3423TIP3   OH210225   7.918   0.958   3.915
 3423TIP3    H110226   7.941   0.890   3.978
 3423TIP3    H210227   7.834   0.991   3.947
 3424TIP3   OH210228   4.682   4.267   4.916
 3424TIP3    H110229   4.734   4.248   4.838
 3424TIP3    H210230   4.715   4.207   4.982
 3425TIP3   OH210231   5.837   3.942   2.558
 3425TIP3    H110232   5.921   3.968   2.518
 3425TIP3    H210233   5.795   4.025   2.580
 3426TIP3   OH210234   4.088   2.870   2.820
 3426TIP3    H110235   4.039   2.794   2.852
 3426TIP3    H210236   4.082   2.863   2.725
 3427TIP3   OH210237   2.560   1.785   3.207
 3427TIP3    H110238   2.613   1.816   3.280
 3427TIP3    H210239   2.568   1.854   3.141
 3428TIP3   OH210240   1.954   4.031   1.254
 3428TIP3    H110241   1.998   3.976   1.189
 3428TIP3    H210242   1.862   4.026   1.230
 3429TIP3   OH210243   5.032   1.235   5.095
 3429TIP3    H110244   5.021   1.313   5.041
 3429TIP3    H210245   4.952   1.232   5.149
 3430TIP3   OH210246   3.193   2.228   0.625
 3430TIP3    H110247   3.147   2.310   0.609
 3430TIP3    H210248   3.267   2.252   0.680
 3431TIP3   OH210249   6.643   3.997   4.459
 3431TIP3    H110250   6.633   3.925   4.521
 3431TIP3    H210251   6.560   4.043   4.461
 3432TIP3   OH210252   7.081   4.114   5.949
 3432TIP3    H110253   7.057   4.206   5.937
 3432TIP3    H210254   7.054   4.071   5.868
 3433TIP3   OH210255   4.163   3.819   3.203
 3433TIP3    H110256   4.213   3.838   3.282
 3433TIP3    H210257   4.093   3.761   3.234
 3434TIP3   OH210258   4.788   5.467   0.613
 3434TIP3    H110259   4.762   5.481   0.704
 3434TIP3    H210260   4.762   5.377   0.594
 3435TIP3   OH210261   0.768   4.400   0.581
 3435TIP3    H110262   0.786   4.488   0.615
 3435TIP3    H210263   0.732   4.416   0.493
 3436TIP3   OH210264   2.809   2.289   0.496
 3436TIP3    H110265   2.758   2.267   0.418
 3436TIP3    H210266   2.754   2.351   0.544
 3437TIP3   OH210267   4.877   4.741   3.653
 3437TIP3    H110268   4.968   4.758   3.677
 3437TIP3    H210269   4.829   4.748   3.736
 3438TIP3   OH210270   7.767   2.390   0.720
 3438TIP3    H110271   7.721   2.474   0.717
 3438TIP3    H210272   7.853   2.411   0.758
 3439TIP3   OH210273   6.013   4.490   0.578
 3439TIP3    H110274   5.985   4.572   0.539
 3439TIP3    H210275   6.108   4.491   0.571
 3440TIP3   OH210276   2.662   7.709   0.271
 3440TIP3    H110277   2.690   7.764   0.344
 3440TIP3    H210278   2.618   7.769   0.210
 3441TIP3   OH210279   2.950   1.217   2.710
 3441TIP3    H110280   3.010   1.150   2.677
 3441TIP3    H210281   2.889   1.170   2.767
 3442TIP3   OH210282   2.032   4.084   6.281
 3442TIP3    H110283   2.094   4.088   6.354
 3442TIP3    H210284   1.996   4.173   6.274
 3443TIP3   OH210285   8.075   5.456   6.269
 3443TIP3    H110286   8.075   5.491   6.358
 3443TIP3    H210287   8.000   5.398   6.266
 3444TIP3   OH210288   1.215   2.228   4.643
 3444TIP3    H110289   1.181   2.284   4.573
 3444TIP3    H210290   1.160   2.150   4.639
 3445TIP3   OH210291   2.686   7.685   5.164
 3445TIP3    H110292   2.667   7.768   5.209
 3445TIP3    H210293   2.601   7.644   5.153
 3446TIP3   OH210294   2.828   4.431   4.705
 3446TIP3    H110295   2.748   4.466   4.665
 3446TIP3    H210296   2.818   4.449   4.799
 3447TIP3   OH210297   4.462   3.651   4.056
 3447TIP3    H110298   4.492   3.567   4.090
 3447TIP3    H210299   4.503   3.716   4.114
 3448TIP3   OH210300   6.122   0.443   0.120
 3448TIP3    H110301   6.085   0.411   0.202
 3448TIP3    H210302   6.141   0.535   0.136
 3449TIP3   OH210303   6.148   7.329   3.622
 3449TIP3    H110304   6.220   7.368   3.572
 3449TIP3    H210305   6.094   7.286   3.557
 3450TIP3   OH210306   3.865   0.897   2.539
 3450TIP3    H110307   3.851   0.844   2.617
 3450TIP3    H210308   3.888   0.834   2.471
 3451TIP3   OH210309   7.658   5.367   5.906
 3451TIP3    H110310   7.684   5.439   5.848
 3451TIP3    H210311   7.735   5.309   5.908
 3452TIP3   OH210312   0.436   0.421   2.059
 3452TIP3    H110313   0.426   0.458   2.147
 3452TIP3    H210314   0.466   0.494   2.006
 3453TIP3   OH210315   7.347   2.573   3.490
 3453TIP3    H110316   7.345   2.658   3.445
 3453TIP3    H210317   7.415   2.524   3.444
 3454TIP3   OH210318   2.327   2.717   6.107
 3454TIP3    H110319   2.346   2.649   6.172
 3454TIP3    H210320   2.413   2.739   6.070
 3455TIP3   OH210321   0.788   4.065   2.240
 3455TIP3    H110322   0.824   4.152   2.259
 3455TIP3    H210323   0.864   4.007   2.246
 3456TIP3   OH210324   4.868   0.248   2.470
 3456TIP3    H110325   4.809   0.318   2.440
 3456TIP3    H210326   4.828   0.218   2.552
 3457TIP3   OH210327   2.242   7.731   5.660
 3457TIP3    H110328   2.296   7.804   5.691
 3457TIP3    H210329   2.303   7.659   5.648
 3458TIP3   OH210330   5.686   7.847   0.971
 3458TIP3    H110331   5.711   7.759   0.943
 3458TIP3    H210332   5.601   7.835   1.013
 3459TIP3   OH210333   4.693   1.636   1.140
 3459TIP3    H110334   4.635   1.693   1.090
 3459TIP3    H210335   4.735   1.580   1.074
 3460TIP3   OH210336   1.572   6.417   4.897
 3460TIP3    H110337   1.633   6.442   4.967
 3460TIP3    H210338   1.489   6.402   4.941
 3461TIP3   OH210339   0.678   0.205   1.711
 3461TIP3    H110340   0.643   0.182   1.797
 3461TIP3    H210341   0.614   0.170   1.648
 3462TIP3   OH210342   0.637   7.301   1.482
 3462TIP3    H110343   0.555   7.341   1.456
 3462TIP3    H210344   0.644   7.320   1.576
 3463TIP3   OH210345   4.797   3.985   1.559
 3463TIP3    H110346   4.812   3.984   1.653
 3463TIP3    H210347   4.772   4.076   1.540
 3464TIP3   OH210348   3.234   2.415   3.008
 3464TIP3    H110349   3.287   2.390   2.932
 3464TIP3    H210350   3.147   2.432   2.971
 3465TIP3   OH210351   3.928   0.506   0.266
 3465TIP3    H110352   4.000   0.456   0.227
 3465TIP3    H210353   3.879   0.540   0.191
 3466TIP3   OH210354   0.800   4.195   6.475
 3466TIP3    H110355   0.807   4.270   6.416
 3466TIP3    H210356   0.724   4.215   6.530
 3467TIP3   OH210357   0.169   4.450   4.252
 3467TIP3    H110358   0.246   4.404   4.287
 3467TIP3    H210359   0.095   4.408   4.295
 3468TIP3   OH210360   8.198   6.786   3.159
 3468TIP3    H110361   8.267   6.847   3.133
 3468TIP3    H210362   8.238   6.731   3.225
 3469TIP3   OH210363   2.618   7.069   1.477
 3469TIP3    H110364   2.550   7.121   1.434
 3469TIP3    H210365   2.571   6.992   1.510
 3470TIP3   OH210366   2.701   4.705   3.629
 3470TIP3    H110367   2.640   4.728   3.559
 3470TIP3    H210368   2.702   4.609   3.630
 3471TIP3   OH210369   5.968   0.870   3.183
 3471TIP3    H110370   6.040   0.835   3.131
 3471TIP3    H210371   5.906   0.902   3.118
 3472TIP3   OH210372   4.714   0.225   5.363
 3472TIP3    H110373   4.712   0.145   5.415
 3472TIP3    H210374   4.773   0.284   5.410
 3473TIP3   OH210375   4.538   2.399   3.277
 3473TIP3    H110376   4.622   2.382   3.235
 3473TIP3    H210377   4.555   2.472   3.336
 3474TIP3   OH210378   5.231   2.142   5.038
 3474TIP3    H110379   5.292   2.080   5.000
 3474TIP3    H210380   5.144   2.103   5.025
 3475TIP3   OH210381   0.125   1.047   0.852
 3475TIP3    H110382   0.103   0.954   0.851
 3475TIP3    H210383   0.077   1.083   0.926
 3476TIP3   OH210384   5.116   2.353   0.474
 3476TIP3    H110385   5.199   2.305   0.472
 3476TIP3    H210386   5.109   2.394   0.388
 3477TIP3   OH210387   1.211   1.161   1.011
 3477TIP3    H110388   1.254   1.193   0.932
 3477TIP3    H210389   1.282   1.156   1.076
 3478TIP3   OH210390   4.730   2.398   4.314
 3478TIP3    H110391   4.723   2.472   4.254
 3478TIP3    H210392   4.810   2.413   4.363
 3479TIP3   OH210393   1.104   0.450   1.055
 3479TIP3    H110394   1.158   0.377   1.085
 3479TIP3    H210395   1.122   0.521   1.117
 3480TIP3   OH210396   2.933   1.323   4.670
 3480TIP3    H110397   2.908   1.292   4.757
 3480TIP3    H210398   3.024   1.349   4.678
 3481TIP3   OH210399   7.486   0.051   4.229
 3481TIP3    H110400   7.497   0.139   4.266
 3481TIP3    H210401   7.503  -0.008   4.302
 3482TIP3   OH210402   3.000   7.140   2.894
 3482TIP3    H110403   2.935   7.135   2.964
 3482TIP3    H210404   2.975   7.072   2.832
 3483TIP3   OH210405   2.719   2.532   2.356
 3483TIP3    H110406   2.797   2.497   2.314
 3483TIP3    H210407   2.650   2.525   2.290
 3484TIP3   OH210408   3.388   4.303   5.412
 3484TIP3    H110409   3.307   4.251   5.416
 3484TIP3    H210410   3.432   4.271   5.333
 3485TIP3   OH210411   0.453   4.065   3.854
 3485TIP3    H110412   0.413   4.121   3.788
 3485TIP3    H210413   0.538   4.105   3.871
 3486TIP3   OH210414   3.113   4.733   1.374
 3486TIP3    H110415   3.097   4.816   1.420
 3486TIP3    H210416   3.085   4.750   1.284
 3487TIP3   OH210417   1.366   2.466   0.031
 3487TIP3    H110418   1.417   2.545   0.047
 3487TIP3    H210419   1.380   2.446  -0.062
 3488TIP3   OH210420   6.952   1.476   4.968
 3488TIP3    H110421   7.023   1.492   4.906
 3488TIP3    H210422   6.973   1.530   5.044
 3489TIP3   OH210423   4.980   6.069   6.327
 3489TIP3    H110424   4.898   6.057   6.375
 3489TIP3    H210425   5.041   6.009   6.370
 3490TIP3   OH210426   1.895   2.259   4.599
 3490TIP3    H110427   1.933   2.340   4.633
 3490TIP3    H210428   1.955   2.191   4.628
 3491TIP3   OH210429   4.410   1.408   3.893
 3491TIP3    H110430   4.470   1.335   3.876
 3491TIP3    H210431   4.396   1.448   3.807
 3492TIP3   OH210432   4.515   2.085   0.107
 3492TIP3    H110433   4.504   2.035   0.188
 3492TIP3    H210434   4.555   2.167   0.135
 3493TIP3   OH210435   7.007   3.727   1.989
 3493TIP3    H110436   7.070   3.655   1.995
 3493TIP3    H210437   6.932   3.689   1.942
 3494TIP3   OH210438   5.680   6.755   4.099
 3494TIP3    H110439   5.696   6.850   4.098
 3494TIP3    H210440   5.613   6.742   4.032
 3495TIP3   OH210441   6.967   7.176   0.538
 3495TIP3    H110442   7.032   7.223   0.590
 3495TIP3    H210443   6.958   7.228   0.458
 3496TIP3   OH210444   2.265   0.568   2.795
 3496TIP3    H110445   2.261   0.549   2.888
 3496TIP3    H210446   2.342   0.520   2.764
 3497TIP3   OH210447   1.644   5.547   4.232
 3497TIP3    H110448   1.619   5.601   4.156
 3497TIP3    H210449   1.656   5.460   4.195
 3498TIP3   OH210450   1.472   1.237   6.712
 3498TIP3    H110451   1.472   1.164   6.774
 3498TIP3    H210452   1.380   1.250   6.690
 3499TIP3   OH210453   6.249   3.825   0.856
 3499TIP3    H110454   6.161   3.798   0.884
 3499TIP3    H210455   6.242   3.830   0.760
 3500TIP3   OH210456   1.250   6.680   4.559
 3500TIP3    H110457   1.241   6.711   4.468
 3500TIP3    H210458   1.344   6.666   4.570
 3501TIP3   OH210459   6.888   1.152   4.847
 3501TIP3    H110460   6.890   1.174   4.941
 3501TIP3    H210461   6.814   1.202   4.813
 3502TIP3   OH210462   7.546   6.311   1.325
 3502TIP3    H110463   7.598   6.356   1.392
 3502TIP3    H210464   7.607   6.301   1.251
 3503TIP3   OH210465   7.941   5.253   2.457
 3503TIP3    H110466   7.975   5.275   2.370
 3503TIP3    H210467   7.974   5.165   2.473
 3504TIP3   OH210468   1.879   6.911   6.422
 3504TIP3    H110469   1.842   6.826   6.446
 3504TIP3    H210470   1.845   6.927   6.334
 3505TIP3   OH210471   2.812   3.033   3.543
 3505TIP3    H110472   2.828   2.939   3.534
 3505TIP3    H210473   2.722   3.039   3.577
 3506TIP3   OH210474   2.718   6.065   1.529
 3506TIP3    H110475   2.735   5.986   1.478
 3506TIP3    H210476   2.700   6.033   1.618
 3507TIP3   OH210477   2.595   2.571   3.887
 3507TIP3    H110478   2.556   2.484   3.884
 3507TIP3    H210479   2.533   2.624   3.938
 3508TIP3   OH210480   3.646   2.660   5.459
 3508TIP3    H110481   3.695   2.597   5.512
 3508TIP3    H210482   3.560   2.620   5.446
 3509TIP3   OH210483   7.506   7.324   0.232
 3509TIP3    H110484   7.429   7.312   0.176
 3509TIP3    H210485   7.486   7.401   0.285
 3510TIP3   OH210486   4.880   5.705   5.810
 3510TIP3    H110487   4.942   5.760   5.858
 3510TIP3    H210488   4.930   5.626   5.787
 3511TIP3   OH210489   3.029   1.831   2.381
 3511TIP3    H110490   3.026   1.867   2.292
 3511TIP3    H210491   3.037   1.907   2.438
 3512TIP3   OH210492   7.643   6.764   5.886
 3512TIP3    H110493   7.718   6.708   5.862
 3512TIP3    H210494   7.567   6.716   5.854
 3513TIP3   OH210495   6.302   2.041   5.026
 3513TIP3    H110496   6.386   2.007   4.994
 3513TIP3    H210497   6.239   2.017   4.958
 3514TIP3   OH210498   5.270   2.849   5.879
 3514TIP3    H110499   5.212   2.908   5.927
 3514TIP3    H210500   5.287   2.895   5.796
 3515TIP3   OH210501   8.079   1.917   6.674
 3515TIP3    H110502   8.131   1.896   6.752
 3515TIP3    H210503   8.016   1.846   6.667
 3516TIP3   OH210504   7.291   4.448   6.178
 3516TIP3    H110505   7.336   4.487   6.104
 3516TIP3    H210506   7.330   4.360   6.185
 3517TIP3   OH210507   7.697   0.651   3.694
 3517TIP3    H110508   7.642   0.694   3.629
 3517TIP3    H210509   7.656   0.566   3.708
 3518TIP3   OH210510   4.458   1.910   0.392
 3518TIP3    H110511   4.551   1.929   0.406
 3518TIP3    H210512   4.417   1.929   0.477
 3519TIP3   OH210513   4.062   1.330   1.004
 3519TIP3    H110514   4.116   1.375   1.069
 3519TIP3    H210515   3.972   1.353   1.028
 3520TIP3   OH210516   1.349   7.105   2.691
 3520TIP3    H110517   1.311   7.079   2.607
 3520TIP3    H210518   1.444   7.101   2.677
 3521TIP3   OH210519   7.421   0.601   6.234
 3521TIP3    H110520   7.365   0.659   6.285
 3521TIP3    H210521   7.469   0.550   6.299
 3522TIP3   OH210522   0.445   4.513   0.909
 3522TIP3    H110523   0.369   4.464   0.941
 3522TIP3    H210524   0.448   4.494   0.816
 3523TIP3   OH210525   6.430   1.235   1.875
 3523TIP3    H110526   6.408   1.144   1.895
 3523TIP3    H210527   6.508   1.229   1.821
 3524TIP3   OH210528   7.068   7.209   4.331
 3524TIP3    H110529   7.068   7.258   4.248
 3524TIP3    H210530   7.138   7.145   4.321
 3525TIP3   OH210531   6.021   1.681   6.588
 3525TIP3    H110532   6.106   1.725   6.592
 3525TIP3    H210533   5.961   1.748   6.557
 3526TIP3   OH210534   2.668   2.979   0.824
 3526TIP3    H110535   2.671   2.891   0.788
 3526TIP3    H210536   2.596   2.977   0.887
 3527TIP3   OH210537   3.804   5.427   0.587
 3527TIP3    H110538   3.866   5.410   0.516
 3527TIP3    H210539   3.772   5.516   0.572
 3528TIP3   OH210540   4.751   1.342   0.693
 3528TIP3    H110541   4.758   1.252   0.662
 3528TIP3    H210542   4.657   1.357   0.702
 3529TIP3   OH210543   3.705   6.259   0.059
 3529TIP3    H110544   3.794   6.243   0.090
 3529TIP3    H210545   3.699   6.209  -0.023
 3530TIP3   OH210546   0.597   6.423   6.375
 3530TIP3    H110547   0.586   6.517   6.361
 3530TIP3    H210548   0.601   6.385   6.287
 3531TIP3   OH210549   7.302   3.644   2.829
 3531TIP3    H110550   7.307   3.608   2.917
 3531TIP3    H210551   7.239   3.716   2.837
 3532TIP3   OH210552   4.770   6.640   4.980
 3532TIP3    H110553   4.860   6.668   4.960
 3532TIP3    H210554   4.741   6.701   5.048
 3533TIP3   OH210555   4.014   4.673   4.044
 3533TIP3    H110556   4.078   4.681   3.973
 3533TIP3    H210557   4.017   4.758   4.088
 3534TIP3   OH210558   6.326   3.471   1.033
 3534TIP3    H110559   6.234   3.474   1.007
 3534TIP3    H210560   6.328   3.406   1.104
 3535TIP3   OH210561   5.285   1.568   1.006
 3535TIP3    H110562   5.190   1.576   1.015
 3535TIP3    H210563   5.312   1.516   1.081
 3536TIP3   OH210564   4.331   5.598   2.189
 3536TIP3    H110565   4.353   5.613   2.280
 3536TIP3    H210566   4.249   5.645   2.175
 3537TIP3   OH210567   7.587   1.241   0.764
 3537TIP3    H110568   7.581   1.196   0.848
 3537TIP3    H210569   7.528   1.317   0.773
 3538TIP3   OH210570   6.280   1.863   4.029
 3538TIP3    H110571   6.302   1.948   3.992
 3538TIP3    H210572   6.356   1.808   4.009
 3539TIP3   OH210573   5.076   4.004   0.156
 3539TIP3    H110574   4.981   3.992   0.161
 3539TIP3    H210575   5.109   3.959   0.234
 3540TIP3   OH210576   4.596   2.198   6.392
 3540TIP3    H110577   4.668   2.255   6.420
 3540TIP3    H210578   4.599   2.201   6.296
 3541TIP3   OH210579   7.606   3.325   2.313
 3541TIP3    H110580   7.578   3.408   2.275
 3541TIP3    H210581   7.527   3.271   2.317
 3542TIP3   OH210582   8.010   3.649   0.165
 3542TIP3    H110583   7.948   3.671   0.235
 3542TIP3    H210584   8.078   3.716   0.170
 3543TIP3   OH210585   0.384   4.334   6.340
 3543TIP3    H110586   0.306   4.329   6.284
 3543TIP3    H210587   0.449   4.279   6.297
 3544TIP3   OH210588   3.004   7.244   1.417
 3544TIP3    H110589   2.983   7.238   1.324
 3544TIP3    H210590   2.934   7.298   1.454
 3545TIP3   OH210591   7.660   3.206   0.921
 3545TIP3    H110592   7.680   3.165   1.005
 3545TIP3    H210593   7.600   3.278   0.943
 3546TIP3   OH210594   6.020   5.163   4.751
 3546TIP3    H110595   5.994   5.255   4.757
 3546TIP3    H210596   5.999   5.138   4.661
 3547TIP3   OH210597   5.638   6.759   2.513
 3547TIP3    H110598   5.674   6.719   2.592
 3547TIP3    H210599   5.680   6.711   2.441
 3548TIP3   OH210600   4.508   6.463   3.079
 3548TIP3    H110601   4.563   6.423   3.146
 3548TIP3    H210602   4.519   6.557   3.091
 3549TIP3   OH210603   5.639   0.652   0.704
 3549TIP3    H110604   5.626   0.745   0.686
 3549TIP3    H210605   5.553   0.620   0.729
 3550TIP3   OH210606   4.131   7.105   4.114
 3550TIP3    H110607   4.069   7.115   4.042
 3550TIP3    H210608   4.077   7.098   4.193
 3551TIP3   OH210609   5.805   0.651   2.384
 3551TIP3    H110610   5.729   0.668   2.328
 3551TIP3    H210611   5.833   0.563   2.361
 3552TIP3   OH210612   6.724   6.725   0.877
 3552TIP3    H110613   6.643   6.682   0.850
 3552TIP3    H210614   6.769   6.746   0.795
 3553TIP3   OH210615   7.638   5.849   4.500
 3553TIP3    H110616   7.653   5.755   4.503
 3553TIP3    H210617   7.674   5.877   4.417
 3554TIP3   OH210618   3.671   3.189   4.248
 3554TIP3    H110619   3.580   3.220   4.246
 3554TIP3    H210620   3.711   3.225   4.169
 3555TIP3   OH210621   2.381   2.356   0.759
 3555TIP3    H110622   2.398   2.422   0.826
 3555TIP3    H210623   2.333   2.287   0.805
 3556TIP3   OH210624   4.271   7.102   3.579
 3556TIP3    H110625   4.290   7.195   3.566
 3556TIP3    H210626   4.355   7.064   3.603
 3557TIP3   OH210627   5.789   1.183   5.782
 3557TIP3    H110628   5.734   1.106   5.793
 3557TIP3    H210629   5.796   1.221   5.870
 3558TIP3   OH210630   7.781   0.359   6.229
 3558TIP3    H110631   7.861   0.322   6.268
 3558TIP3    H210632   7.788   0.337   6.136
 3559TIP3   OH210633   4.686   2.974   0.837
 3559TIP3    H110634   4.628   2.937   0.771
 3559TIP3    H210635   4.684   3.068   0.821
 3560TIP3   OH210636   3.813   3.385   1.293
 3560TIP3    H110637   3.891   3.389   1.237
 3560TIP3    H210638   3.742   3.414   1.237
 3561TIP3   OH210639   2.147   5.901   5.231
 3561TIP3    H110640   2.066   5.868   5.192
 3561TIP3    H210641   2.173   5.973   5.174
 3562TIP3   OH210642   7.711   4.364   3.109
 3562TIP3    H110643   7.781   4.359   3.174
 3562TIP3    H210644   7.754   4.349   3.025
 3563TIP3   OH210645   0.459   6.094   1.777
 3563TIP3    H110646   0.462   6.094   1.873
 3563TIP3    H210647   0.508   6.172   1.752
 3564TIP3   OH210648   3.623   3.633   5.745
 3564TIP3    H110649   3.667   3.691   5.684
 3564TIP3    H210650   3.680   3.556   5.750
 3565TIP3   OH210651   4.566   2.468   2.568
 3565TIP3    H110652   4.477   2.474   2.603
 3565TIP3    H210653   4.560   2.401   2.500
 3566TIP3   OH210654  -0.009   0.065   6.114
 3566TIP3    H110655   0.073   0.085   6.070
 3566TIP3    H210656  -0.041  -0.014   6.071
 3567TIP3   OH210657   8.155   4.476   0.169
 3567TIP3    H110658   8.146   4.470   0.264
 3567TIP3    H210659   8.245   4.506   0.155
 3568TIP3   OH210660   2.232   7.056   6.066
 3568TIP3    H110661   2.220   7.016   5.980
 3568TIP3    H210662   2.170   7.009   6.122
 3569TIP3   OH210663   5.070   1.244   1.098
 3569TIP3    H110664   5.087   1.328   1.140
 3569TIP3    H210665   5.028   1.267   1.015
 3570TIP3   OH210666   3.390   1.536   4.467
 3570TIP3    H110667   3.436   1.452   4.471
 3570TIP3    H210668   3.298   1.514   4.475
 3571TIP3   OH210669   1.794   7.732   5.361
 3571TIP3    H110670   1.746   7.810   5.390
 3571TIP3    H210671   1.860   7.719   5.429
 3572TIP3   OH210672   1.027   0.516   2.826
 3572TIP3    H110673   1.005   0.608   2.814
 3572TIP3    H210674   0.989   0.493   2.911
 3573TIP3   OH210675   3.448   0.753   6.674
 3573TIP3    H110676   3.425   0.710   6.592
 3573TIP3    H210677   3.534   0.719   6.696
 3574TIP3   OH210678   5.706   0.782   2.617
 3574TIP3    H110679   5.774   0.752   2.556
 3574TIP3    H210680   5.749   0.778   2.703
 3575TIP3   OH210681   7.953   7.732   4.923
 3575TIP3    H110682   7.960   7.786   5.001
 3575TIP3    H210683   7.862   7.741   4.895
 3576TIP3   OH210684   3.908   2.485   4.902
 3576TIP3    H110685   3.938   2.575   4.917
 3576TIP3    H210686   3.961   2.454   4.829
 3577TIP3   OH210687   1.629   2.490   1.257
 3577TIP3    H110688   1.626   2.408   1.305
 3577TIP3    H210689   1.715   2.491   1.216
 3578TIP3   OH210690   2.026   3.462   1.041
 3578TIP3    H110691   2.039   3.466   1.136
 3578TIP3    H210692   1.939   3.500   1.027
 3579TIP3   OH210693   1.358   5.687   1.687
 3579TIP3    H110694   1.427   5.692   1.620
 3579TIP3    H210695   1.392   5.624   1.751
 3580TIP3   OH210696   4.600   2.918   4.694
 3580TIP3    H110697   4.513   2.912   4.654
 3580TIP3    H210698   4.583   2.953   4.782
 3581TIP3   OH210699   8.009   3.699   0.705
 3581TIP3    H110700   8.064   3.708   0.783
 3581TIP3    H210701   7.943   3.768   0.715
 3582TIP3   OH210702   5.883   5.089   3.830
 3582TIP3    H110703   5.957   5.064   3.775
 3582TIP3    H210704   5.854   5.173   3.795
 3583TIP3   OH210705   4.174   0.466   1.348
 3583TIP3    H110706   4.111   0.530   1.315
 3583TIP3    H210707   4.179   0.400   1.278
 3584TIP3   OH210708   2.199   7.188   5.001
 3584TIP3    H110709   2.264   7.245   4.960
 3584TIP3    H210710   2.115   7.230   4.983
 3585TIP3   OH210711   1.265   7.238   4.735
 3585TIP3    H110712   1.196   7.179   4.704
 3585TIP3    H210713   1.336   7.226   4.671
 3586TIP3   OH210714   8.171   2.144   5.746
 3586TIP3    H110715   8.221   2.104   5.675
 3586TIP3    H210716   8.211   2.111   5.826
 3587TIP3   OH210717   7.163   5.560   3.385
 3587TIP3    H110718   7.153   5.500   3.459
 3587TIP3    H210719   7.233   5.522   3.332
 3588TIP3   OH210720   6.025   2.307   3.060
 3588TIP3    H110721   6.120   2.314   3.067
 3588TIP3    H210722   5.993   2.322   3.149
 3589TIP3   OH210723   1.022   2.116   1.451
 3589TIP3    H110724   1.008   2.177   1.524
 3589TIP3    H210725   1.011   2.169   1.372
 3590TIP3   OH210726   7.751   1.496   3.668
 3590TIP3    H110727   7.738   1.443   3.746
 3590TIP3    H210728   7.729   1.585   3.695
 3591TIP3   OH210729   3.419   3.080   1.762
 3591TIP3    H110730   3.370   3.162   1.763
 3591TIP3    H210731   3.510   3.107   1.777
 3592TIP3   OH210732   5.302   4.730   0.582
 3592TIP3    H110733   5.284   4.654   0.637
 3592TIP3    H210734   5.311   4.802   0.644
 3593TIP3   OH210735   2.175   4.622   3.847
 3593TIP3    H110736   2.135   4.707   3.830
 3593TIP3    H210737   2.255   4.623   3.794
 3594TIP3   OH210738   5.091   5.517   2.244
 3594TIP3    H110739   5.163   5.508   2.182
 3594TIP3    H210740   5.115   5.591   2.299
 3595TIP3   OH210741   5.468   0.442   6.209
 3595TIP3    H110742   5.549   0.422   6.162
 3595TIP3    H210743   5.433   0.519   6.164
 3596TIP3   OH210744   0.283   2.824   6.681
 3596TIP3    H110745   0.350   2.891   6.669
 3596TIP3    H210746   0.224   2.836   6.606
 3597TIP3   OH210747   1.437   2.273   4.889
 3597TIP3    H110748   1.447   2.207   4.820
 3597TIP3    H210749   1.350   2.257   4.925
 3598TIP3   OH210750   3.861   1.373   0.711
 3598TIP3    H110751   3.813   1.331   0.783
 3598TIP3    H210752   3.876   1.303   0.648
 3599TIP3   OH210753   5.727   3.166   6.246
 3599TIP3    H110754   5.754   3.214   6.167
 3599TIP3    H210755   5.657   3.218   6.283
 3600TIP3   OH210756   3.994   1.530   2.038
 3600TIP3    H110757   4.048   1.549   2.114
 3600TIP3    H210758   3.928   1.470   2.070
 3601TIP3   OH210759   7.635   4.400   4.098
 3601TIP3    H110760   7.574   4.332   4.127
 3601TIP3    H210761   7.579   4.472   4.071
 3602TIP3   OH210762   3.431   2.327   5.018
 3602TIP3    H110763   3.498   2.325   4.949
 3602TIP3    H210764   3.463   2.265   5.084
 3603TIP3   OH210765   6.304   2.009   4.257
 3603TIP3    H110766   6.332   1.945   4.190
 3603TIP3    H210767   6.378   2.012   4.318
 3604TIP3   OH210768   6.159   0.285   5.284
 3604TIP3    H110769   6.126   0.280   5.374
 3604TIP3    H210770   6.249   0.315   5.293
 3605TIP3   OH210771   0.609   0.100   6.003
 3605TIP3    H110772   0.689   0.062   6.038
 3605TIP3    H210773   0.588   0.172   6.064
 3606TIP3   OH210774   0.179   0.652   1.552
 3606TIP3    H110775   0.160   0.590   1.482
 3606TIP3    H210776   0.094   0.671   1.591
 3607TIP3   OH210777   4.683   1.944   1.373
 3607TIP3    H110778   4.716   1.881   1.437
 3607TIP3    H210779   4.760   1.974   1.326
 3608TIP3   OH210780   3.113   4.834   5.498
 3608TIP3    H110781   3.188   4.829   5.438
 3608TIP3    H210782   3.075   4.746   5.496
 3609TIP3   OH210783   7.035   1.114   1.529
 3609TIP3    H110784   7.067   1.033   1.568
 3609TIP3    H210785   7.027   1.174   1.603
 3610TIP3   OH210786   1.006   5.474   1.038
 3610TIP3    H110787   1.082   5.531   1.027
 3610TIP3    H210788   1.010   5.446   1.130
 3611TIP3   OH210789   0.909   5.759   4.749
 3611TIP3    H110790   0.939   5.760   4.840
 3611TIP3    H210791   0.906   5.852   4.724
 3612TIP3   OH210792   6.932   3.423   4.063
 3612TIP3    H110793   6.942   3.441   3.970
 3612TIP3    H210794   6.903   3.332   4.067
 3613TIP3   OH210795   5.805   7.511   6.730
 3613TIP3    H110796   5.896   7.533   6.709
 3613TIP3    H210797   5.753   7.573   6.679
 3614TIP3   OH210798   2.857   5.940   0.387
 3614TIP3    H110799   2.902   5.870   0.340
 3614TIP3    H210800   2.919   6.013   0.384
 3615TIP3   OH210801   6.350   7.183   5.667
 3615TIP3    H110802   6.274   7.226   5.707
 3615TIP3    H210803   6.333   7.189   5.573
 3616TIP3   OH210804   1.302   1.919   0.610
 3616TIP3    H110805   1.276   1.843   0.556
 3616TIP3    H210806   1.287   1.994   0.553
 3617TIP3   OH210807   6.586   2.285   2.679
 3617TIP3    H110808   6.542   2.293   2.764
 3617TIP3    H210809   6.566   2.367   2.634
 3618TIP3   OH210810   2.397   4.358   4.900
 3618TIP3    H110811   2.450   4.421   4.950
 3618TIP3    H210812   2.334   4.413   4.853
 3619TIP3   OH210813   5.558   3.067   2.424
 3619TIP3    H110814   5.590   3.009   2.494
 3619TIP3    H210815   5.471   3.034   2.403
 3620TIP3   OH210816   0.852   3.281   5.446
 3620TIP3    H110817   0.926   3.251   5.498
 3620TIP3    H210818   0.828   3.366   5.484
 3621TIP3   OH210819   5.552   1.877   2.213
 3621TIP3    H110820   5.521   1.956   2.258
 3621TIP3    H210821   5.566   1.905   2.122
 3622TIP3   OH210822   7.589   1.258   1.335
 3622TIP3    H110823   7.615   1.168   1.353
 3622TIP3    H210824   7.503   1.266   1.377
 3623TIP3   OH210825   4.298   2.223   2.823
 3623TIP3    H110826   4.359   2.165   2.869
 3623TIP3    H210827   4.213   2.181   2.833
 3624TIP3   OH210828   2.398   5.612   3.072
 3624TIP3    H110829   2.328   5.625   3.008
 3624TIP3    H210830   2.478   5.634   3.024
 3625TIP3   OH210831   3.661   4.505   3.171
 3625TIP3    H110832   3.596   4.451   3.126
 3625TIP3    H210833   3.717   4.442   3.216
 3626TIP3   OH210834   5.990   6.887   3.355
 3626TIP3    H110835   6.074   6.842   3.359
 3626TIP3    H210836   5.933   6.838   3.415
 3627TIP3   OH210837   1.853   5.754   0.421
 3627TIP3    H110838   1.860   5.739   0.515
 3627TIP3    H210839   1.832   5.847   0.413
 3628TIP3   OH210840   2.208   0.112   6.285
 3628TIP3    H110841   2.234   0.057   6.358
 3628TIP3    H210842   2.290   0.129   6.238
 3629TIP3   OH210843   4.552   5.080   1.382
 3629TIP3    H110844   4.549   4.994   1.341
 3629TIP3    H210845   4.473   5.124   1.351
 3630TIP3   OH210846   1.820   6.318   1.640
 3630TIP3    H110847   1.739   6.299   1.686
 3630TIP3    H210848   1.823   6.413   1.634
 3631TIP3   OH210849   0.580   1.419   0.275
 3631TIP3    H110850   0.523   1.359   0.323
 3631TIP3    H210851   0.549   1.414   0.185
 3632TIP3   OH210852   1.300   2.978   5.964
 3632TIP3    H110853   1.386   2.992   5.925
 3632TIP3    H210854   1.312   2.904   6.023
 3633TIP3   OH210855   4.317   5.222   3.729
 3633TIP3    H110856   4.309   5.284   3.802
 3633TIP3    H210857   4.399   5.176   3.746
 3634TIP3   OH210858   2.250   7.703   0.343
 3634TIP3    H110859   2.286   7.790   0.364
 3634TIP3    H210860   2.225   7.666   0.427
 3635TIP3   OH210861   2.541   1.820   6.676
 3635TIP3    H110862   2.560   1.907   6.711
 3635TIP3    H210863   2.521   1.766   6.753
 3636TIP3   OH210864   1.538   7.622   4.149
 3636TIP3    H110865   1.524   7.548   4.208
 3636TIP3    H210866   1.627   7.609   4.115
 3637TIP3   OH210867   5.290   7.407   3.357
 3637TIP3    H110868   5.238   7.481   3.324
 3637TIP3    H210869   5.333   7.441   3.435
 3638TIP3   OH210870   2.760   5.115   3.787
 3638TIP3    H110871   2.818   5.041   3.767
 3638TIP3    H210872   2.698   5.117   3.714
 3639TIP3   OH210873   3.044   2.788   2.763
 3639TIP3    H110874   3.003   2.759   2.681
 3639TIP3    H210875   3.081   2.708   2.800
 3640TIP3   OH210876   4.855   6.317   5.191
 3640TIP3    H110877   4.874   6.223   5.187
 3640TIP3    H210878   4.762   6.323   5.171
 3641TIP3   OH210879   1.608   6.134   6.491
 3641TIP3    H110880   1.538   6.133   6.556
 3641TIP3    H210881   1.633   6.227   6.485
 3642TIP3   OH210882   4.622   1.669   5.121
 3642TIP3    H110883   4.568   1.710   5.189
 3642TIP3    H210884   4.565   1.667   5.044
 3643TIP3   OH210885   0.676   6.427   4.670
 3643TIP3    H110886   0.611   6.482   4.714
 3643TIP3    H210887   0.624   6.365   4.619
 3644TIP3   OH210888   2.443   2.006   1.810
 3644TIP3    H110889   2.445   2.035   1.902
 3644TIP3    H210890   2.387   1.929   1.811
 3645TIP3   OH210891   4.618   5.488   2.403
 3645TIP3    H110892   4.639   5.511   2.313
 3645TIP3    H210893   4.577   5.566   2.439
 3646TIP3   OH210894   3.552   6.516   0.131
 3646TIP3    H110895   3.621   6.459   0.098
 3646TIP3    H210896   3.572   6.602   0.094
 3647TIP3   OH210897   5.933   5.477   2.828
 3647TIP3    H110898   5.883   5.499   2.907
 3647TIP3    H210899   5.946   5.561   2.785
 3648TIP3   OH210900   4.405   5.998   4.126
 3648TIP3    H110901   4.406   6.058   4.200
 3648TIP3    H210902   4.412   5.911   4.165
 3649TIP3   OH210903   6.842   1.888   3.031
 3649TIP3    H110904   6.927   1.879   2.990
 3649TIP3    H210905   6.823   1.982   3.028
 3650TIP3   OH210906   1.429   5.289   3.497
 3650TIP3    H110907   1.480   5.246   3.566
 3650TIP3    H210908   1.353   5.324   3.543
 3651TIP3   OH210909   7.562   1.691   0.737
 3651TIP3    H110910   7.523   1.666   0.654
 3651TIP3    H210911   7.514   1.770   0.764
 3652TIP3   OH210912   1.175   3.155   4.873
 3652TIP3    H110913   1.210   3.067   4.862
 3652TIP3    H210914   1.171   3.190   4.784
 3653TIP3   OH210915   2.754   5.818   3.930
 3653TIP3    H110916   2.685   5.764   3.970
 3653TIP3    H210917   2.706   5.884   3.880
 3654TIP3   OH210918   0.741   4.904   1.828
 3654TIP3    H110919   0.681   4.948   1.888
 3654TIP3    H210920   0.823   4.953   1.837
 3655TIP3   OH210921   3.869   6.331   1.683
 3655TIP3    H110922   3.948   6.284   1.656
 3655TIP3    H210923   3.829   6.273   1.748
 3656TIP3   OH210924   1.923   4.331   6.231
 3656TIP3    H110925   1.955   4.386   6.302
 3656TIP3    H210926   1.831   4.353   6.223
 3657TIP3   OH210927   5.124   1.524   6.353
 3657TIP3    H110928   5.104   1.573   6.433
 3657TIP3    H210929   5.122   1.432   6.381
 3658TIP3   OH210930   4.890   2.412   0.224
 3658TIP3    H110931   4.915   2.320   0.217
 3658TIP3    H210932   4.962   2.460   0.184
 3659TIP3   OH210933   7.930   7.293   3.496
 3659TIP3    H110934   7.959   7.237   3.567
 3659TIP3    H210935   7.922   7.234   3.421
 3660TIP3   OH210936   1.485   7.115   0.612
 3660TIP3    H110937   1.465   7.024   0.592
 3660TIP3    H210938   1.461   7.125   0.704
 3661TIP3   OH210939   3.217   1.834   5.658
 3661TIP3    H110940   3.275   1.909   5.642
 3661TIP3    H210941   3.133   1.861   5.621
 3662TIP3   OH210942   4.744   0.489   0.810
 3662TIP3    H110943   4.719   0.507   0.900
 3662TIP3    H210944   4.839   0.483   0.812
 3663TIP3   OH210945   5.688   6.595   2.015
 3663TIP3    H110946   5.675   6.690   2.016
 3663TIP3    H210947   5.607   6.559   2.050
 3664TIP3   OH210948   0.285   3.799   1.753
 3664TIP3    H110949   0.334   3.721   1.777
 3664TIP3    H210950   0.195   3.768   1.738
 3665TIP3   OH210951   6.119   2.934   3.280
 3665TIP3    H110952   6.108   2.840   3.292
 3665TIP3    H210953   6.132   2.945   3.186
 3666TIP3   OH210954   7.948   4.056   6.118
 3666TIP3    H110955   7.992   4.141   6.112
 3666TIP3    H210956   7.895   4.050   6.039
 3667TIP3   OH210957   5.566   4.514   6.248
 3667TIP3    H110958   5.500   4.460   6.291
 3667TIP3    H210959   5.561   4.490   6.156
 3668TIP3   OH210960   3.650   6.629   4.762
 3668TIP3    H110961   3.634   6.592   4.675
 3668TIP3    H210962   3.570   6.610   4.811
 3669TIP3   OH210963   0.211   4.656   2.082
 3669TIP3    H110964   0.260   4.575   2.070
 3669TIP3    H210965   0.252   4.697   2.159
 3670TIP3   OH210966   4.987   7.246   0.063
 3670TIP3    H110967   4.975   7.284  -0.024
 3670TIP3    H210968   5.002   7.153   0.046
 3671TIP3   OH210969   7.593   4.620   0.241
 3671TIP3    H110970   7.510   4.611   0.194
 3671TIP3    H210971   7.606   4.714   0.249
 3672TIP3   OH210972   1.705   3.215   3.234
 3672TIP3    H110973   1.790   3.259   3.228
 3672TIP3    H210974   1.708   3.170   3.318
 3673TIP3   OH210975   5.969   5.785   6.588
 3673TIP3    H110976   5.949   5.786   6.681
 3673TIP3    H210977   6.063   5.769   6.583
 3674TIP3   OH210978   5.501   0.215   3.814
 3674TIP3    H110979   5.559   0.270   3.761
 3674TIP3    H210980   5.552   0.136   3.830
 3675TIP3   OH210981   3.651   0.320   1.066
 3675TIP3    H110982   3.579   0.268   1.101
 3675TIP3    H210983   3.635   0.324   0.972
 3676TIP3   OH210984   0.166   1.063   2.404
 3676TIP3    H110985   0.215   1.010   2.466
 3676TIP3    H210986   0.153   1.006   2.328
 3677TIP3   OH210987   4.669   3.485   0.899
 3677TIP3    H110988   4.683   3.561   0.955
 3677TIP3    H210989   4.637   3.522   0.816
 3678TIP3   OH210990   0.747   1.585   4.741
 3678TIP3    H110991   0.730   1.678   4.726
 3678TIP3    H210992   0.768   1.580   4.835
 3679TIP3   OH210993   4.582   2.279   4.534
 3679TIP3    H110994   4.613   2.314   4.451
 3679TIP3    H210995   4.490   2.259   4.519
 3680TIP3   OH210996   1.247   3.713   3.300
 3680TIP3    H110997   1.329   3.755   3.325
 3680TIP3    H210998   1.185   3.738   3.368
 3681TIP3   OH210999   5.728   3.930   4.150
 3681TIP3    H111000   5.737   3.849   4.101
 3681TIP3    H211001   5.815   3.971   4.146
 3682TIP3   OH211002   5.191   6.418   3.027
 3682TIP3    H111003   5.201   6.497   2.973
 3682TIP3    H211004   5.141   6.358   2.971
 3683TIP3   OH211005   6.334   2.730   0.564
 3683TIP3    H111006   6.411   2.677   0.541
 3683TIP3    H211007   6.305   2.766   0.480
 3684TIP3   OH211008   2.188   6.758   2.272
 3684TIP3    H111009   2.134   6.830   2.240
 3684TIP3    H211010   2.268   6.762   2.219
 3685TIP3   OH211011   0.513   3.611   5.543
 3685TIP3    H111012   0.527   3.517   5.535
 3685TIP3    H211013   0.583   3.650   5.492
 3686TIP3   OH211014   3.318   4.594   1.179
 3686TIP3    H111015   3.293   4.547   1.100
 3686TIP3    H211016   3.396   4.549   1.211
 3687TIP3   OH211017   3.398   2.051   5.480
 3687TIP3    H111018   3.476   2.065   5.426
 3687TIP3    H211019   3.420   2.092   5.564
 3688TIP3   OH211020   1.450   0.270   4.355
 3688TIP3    H111021   1.478   0.355   4.389
 3688TIP3    H211022   1.355   0.275   4.351
 3689TIP3   OH211023   2.997   0.401   6.758
 3689TIP3    H111024   3.022   0.359   6.841
 3689TIP3    H211025   2.965   0.329   6.704
 3690TIP3   OH211026   5.249   1.781   3.277
 3690TIP3    H111027   5.304   1.745   3.346
 3690TIP3    H211028   5.278   1.872   3.268
 3691TIP3   OH211029   7.998   5.018   2.945
 3691TIP3    H111030   7.974   5.089   3.003
 3691TIP3    H211031   7.919   4.964   2.939
 3692TIP3   OH211032   1.057   7.695   1.749
 3692TIP3    H111033   1.038   7.606   1.720
 3692TIP3    H211034   1.130   7.724   1.694
 3693TIP3   OH211035   0.794   3.893   5.038
 3693TIP3    H111036   0.799   3.912   5.131
 3693TIP3    H211037   0.723   3.828   5.031
 3694TIP3   OH211038   0.347   0.077   2.834
 3694TIP3    H111039   0.402   0.070   2.913
 3694TIP3    H211040   0.343  -0.013   2.800
 3695TIP3   OH211041   7.829   2.790   1.909
 3695TIP3    H111042   7.776   2.809   1.832
 3695TIP3    H211043   7.895   2.859   1.910
 3696TIP3   OH211044   7.757   6.679   0.838
 3696TIP3    H111045   7.730   6.761   0.797
 3696TIP3    H211046   7.843   6.660   0.799
 3697TIP3   OH211047   7.131   4.185   4.870
 3697TIP3    H111048   7.170   4.106   4.834
 3697TIP3    H211049   7.113   4.164   4.961
 3698TIP3   OH211050   3.654   4.384   0.187
 3698TIP3    H111051   3.572   4.383   0.139
 3698TIP3    H211052   3.686   4.474   0.176
 3699TIP3   OH211053   2.347   1.527   1.330
 3699TIP3    H111054   2.429   1.498   1.369
 3699TIP3    H211055   2.328   1.611   1.373
 3700TIP3   OH211056   2.311   5.235   3.023
 3700TIP3    H111057   2.267   5.317   3.000
 3700TIP3    H211058   2.359   5.255   3.104
 3701TIP3   OH211059   0.429   1.082   3.456
 3701TIP3    H111060   0.428   0.997   3.500
 3701TIP3    H211061   0.385   1.142   3.516
 3702TIP3   OH211062   6.960   2.830   5.214
 3702TIP3    H111063   6.878   2.871   5.187
 3702TIP3    H211064   6.953   2.824   5.309
 3703TIP3   OH211065   4.281   6.033   2.872
 3703TIP3    H111066   4.193   6.063   2.848
 3703TIP3    H211067   4.313   6.099   2.933
 3704TIP3   OH211068   5.146   0.334   0.405
 3704TIP3    H111069   5.075   0.333   0.341
 3704TIP3    H211070   5.130   0.257   0.460
 3705TIP3   OH211071   1.832   3.031   4.604
 3705TIP3    H111072   1.798   3.109   4.559
 3705TIP3    H211073   1.819   3.049   4.697
 3706TIP3   OH211074   2.126   6.172   0.860
 3706TIP3    H111075   2.091   6.119   0.788
 3706TIP3    H211076   2.106   6.121   0.939
 3707TIP3   OH211077   7.015   6.119   3.830
 3707TIP3    H111078   6.976   6.206   3.831
 3707TIP3    H211079   6.956   6.067   3.776
 3708TIP3   OH211080   0.616   3.919   6.731
 3708TIP3    H111081   0.522   3.933   6.719
 3708TIP3    H211082   0.635   3.838   6.683
 3709TIP3   OH211083   3.747   1.719   4.805
 3709TIP3    H111084   3.739   1.668   4.886
 3709TIP3    H211085   3.672   1.779   4.807
 3710TIP3   OH211086   2.648   6.352   6.324
 3710TIP3    H111087   2.718   6.294   6.353
 3710TIP3    H211088   2.605   6.304   6.253
 3711TIP3   OH211089   4.623   4.870   4.626
 3711TIP3    H111090   4.537   4.857   4.665
 3711TIP3    H211091   4.674   4.914   4.695
 3712TIP3   OH211092   2.559   5.183   4.159
 3712TIP3    H111093   2.611   5.244   4.106
 3712TIP3    H211094   2.604   5.181   4.243
 3713TIP3   OH211095   4.088   4.778   6.209
 3713TIP3    H111096   4.148   4.839   6.253
 3713TIP3    H211097   4.084   4.810   6.119
 3714TIP3   OH211098   6.906   0.237   3.244
 3714TIP3    H111099   6.995   0.265   3.265
 3714TIP3    H211100   6.855   0.259   3.322
 3715TIP3   OH211101   7.166   5.177   0.922
 3715TIP3    H111102   7.182   5.234   0.847
 3715TIP3    H211103   7.146   5.091   0.885
 3716TIP3   OH211104   0.068   1.753   6.646
 3716TIP3    H111105   0.015   1.800   6.711
 3716TIP3    H211106   0.140   1.716   6.697
 3717TIP3   OH211107   1.012   2.928   6.317
 3717TIP3    H111108   0.944   2.920   6.384
 3717TIP3    H211109   1.087   2.966   6.364
 3718TIP3   OH211110   6.895   0.671   1.697
 3718TIP3    H111111   6.921   0.618   1.772
 3718TIP3    H211112   6.868   0.755   1.736
 3719TIP3   OH211113   6.933   1.422   4.679
 3719TIP3    H111114   6.994   1.351   4.656
 3719TIP3    H211115   6.986   1.501   4.674
 3720TIP3   OH211116   1.754   7.268   0.600
 3720TIP3    H111117   1.681   7.207   0.616
 3720TIP3    H211118   1.815   7.218   0.546
 3721TIP3   OH211119   1.031   2.742   4.941
 3721TIP3    H111120   1.102   2.806   4.949
 3721TIP3    H211121   1.043   2.683   5.016
 3722TIP3   OH211122   6.295   3.604   3.381
 3722TIP3    H111123   6.348   3.598   3.460
 3722TIP3    H211124   6.213   3.644   3.411
 3723TIP3   OH211125   0.178   6.094   1.875
 3723TIP3    H111126   0.101   6.096   1.933
 3723TIP3    H211127   0.178   6.004   1.840
 3724TIP3   OH211128   7.128   2.138   6.703
 3724TIP3    H111129   7.162   2.093   6.780
 3724TIP3    H211130   7.199   2.196   6.675
 3725TIP3   OH211131   2.005   6.616   6.473
 3725TIP3    H111132   1.957   6.696   6.493
 3725TIP3    H211133   1.972   6.552   6.536
 3726TIP3   OH211134   0.095   5.658   5.546
 3726TIP3    H111135   0.054   5.625   5.626
 3726TIP3    H211136   0.167   5.713   5.576
 3727TIP3   OH211137   7.730   2.551   5.774
 3727TIP3    H111138   7.760   2.508   5.693
 3727TIP3    H211139   7.767   2.498   5.844
 3728TIP3   OH211140   2.497   4.625   2.331
 3728TIP3    H111141   2.497   4.540   2.287
 3728TIP3    H211142   2.551   4.681   2.275
 3729TIP3   OH211143   0.478   1.411   4.499
 3729TIP3    H111144   0.481   1.506   4.506
 3729TIP3    H211145   0.513   1.392   4.412
 3730TIP3   OH211146   7.181   6.125   3.030
 3730TIP3    H111147   7.220   6.041   3.010
 3730TIP3    H211148   7.240   6.190   2.991
 3731TIP3   OH211149   6.447   7.679   4.524
 3731TIP3    H111150   6.511   7.645   4.461
 3731TIP3    H211151   6.488   7.665   4.609
 3732TIP3   OH211152   2.295   4.033   3.500
 3732TIP3    H111153   2.337   3.949   3.514
 3732TIP3    H211154   2.206   4.012   3.471
 3733TIP3   OH211155   1.946   5.100   4.661
 3733TIP3    H111156   2.013   5.160   4.627
 3733TIP3    H211157   1.965   5.016   4.619
 3734TIP3   OH211158   3.990   7.279   4.294
 3734TIP3    H111159   3.909   7.230   4.286
 3734TIP3    H211160   3.971   7.347   4.359
 3735TIP3   OH211161   5.246   6.066   4.995
 3735TIP3    H111162   5.156   6.040   4.974
 3735TIP3    H211163   5.300   6.018   4.932
 3736TIP3   OH211164   1.490   5.206   5.692
 3736TIP3    H111165   1.467   5.278   5.750
 3736TIP3    H211166   1.580   5.224   5.664
 3737TIP3   OH211167   0.779   5.487   6.227
 3737TIP3    H111168   0.726   5.528   6.295
 3737TIP3    H211169   0.806   5.403   6.265
 3738TIP3   OH211170   7.905   6.638   3.712
 3738TIP3    H111171   7.891   6.544   3.706
 3738TIP3    H211172   7.926   6.653   3.805
 3739TIP3   OH211173   4.021   7.361   3.003
 3739TIP3    H111174   4.030   7.269   3.028
 3739TIP3    H211175   4.102   7.402   3.033
 3740TIP3   OH211176   8.222   1.575   2.735
 3740TIP3    H111177   8.186   1.643   2.678
 3740TIP3    H211178   8.259   1.623   2.809
 3741TIP3   OH211179   4.573   5.131   3.750
 3741TIP3    H111180   4.626   5.115   3.828
 3741TIP3    H211181   4.634   5.173   3.688
 3742TIP3   OH211182   0.053   1.274   1.321
 3742TIP3    H111183   0.144   1.296   1.343
 3742TIP3    H211184   0.060   1.224   1.239
 3743TIP3   OH211185   4.552   4.608   6.775
 3743TIP3    H111186   4.538   4.649   6.689
 3743TIP3    H211187   4.496   4.530   6.774
 3744TIP3   OH211188   0.369   3.564   1.870
 3744TIP3    H111189   0.374   3.479   1.825
 3744TIP3    H211190   0.386   3.542   1.962
 3745TIP3   OH211191   5.105   6.533   1.050
 3745TIP3    H111192   5.071   6.535   1.139
 3745TIP3    H211193   5.029   6.515   0.995
 3746TIP3   OH211194   3.313   4.878   2.557
 3746TIP3    H111195   3.407   4.872   2.540
 3746TIP3    H211196   3.303   4.848   2.647
 3747TIP3   OH211197   2.280   3.179   3.879
 3747TIP3    H111198   2.291   3.273   3.865
 3747TIP3    H211199   2.365   3.142   3.859
 3748TIP3   OH211200   7.876   4.525   6.028
 3748TIP3    H111201   7.861   4.602   6.082
 3748TIP3    H211202   7.824   4.540   5.949
 3749TIP3   OH211203   3.020   7.255   6.675
 3749TIP3    H111204   2.940   7.304   6.691
 3749TIP3    H211205   3.012   7.225   6.584
 3750TIP3   OH211206   0.217   7.063   0.349
 3750TIP3    H111207   0.224   7.059   0.444
 3750TIP3    H211208   0.245   6.977   0.319
 3751TIP3   OH211209   7.302   3.708   2.394
 3751TIP3    H111210   7.353   3.732   2.472
 3751TIP3    H211211   7.211   3.709   2.424
 3752TIP3   OH211212   4.767   4.946   3.491
 3752TIP3    H111213   4.793   5.026   3.537
 3752TIP3    H211214   4.798   4.875   3.547
 3753TIP3   OH211215   5.785   7.426   0.472
 3753TIP3    H111216   5.787   7.519   0.496
 3753TIP3    H211217   5.746   7.383   0.548
 3754TIP3   OH211218   0.665   4.364   1.901
 3754TIP3    H111219   0.747   4.389   1.859
 3754TIP3    H211220   0.629   4.296   1.845
 3755TIP3   OH211221   1.980   6.723   1.721
 3755TIP3    H111222   1.965   6.697   1.811
 3755TIP3    H211223   1.920   6.670   1.669
 3756TIP3   OH211224   1.754   4.203   0.991
 3756TIP3    H111225   1.659   4.201   0.978
 3756TIP3    H211226   1.768   4.158   1.074
 3757TIP3   OH211227   7.120   2.971   5.747
 3757TIP3    H111228   7.058   2.959   5.676
 3757TIP3    H211229   7.184   3.034   5.714
 3758TIP3   OH211230   0.059   5.398   0.829
 3758TIP3    H111231   0.033   5.402   0.921
 3758TIP3    H211232   0.017   5.318   0.796
 3759TIP3   OH211233   0.448   5.327   5.889
 3759TIP3    H111234   0.387   5.328   5.963
 3759TIP3    H211235   0.419   5.399   5.833
 3760TIP3   OH211236   7.883   5.951   3.399
 3760TIP3    H111237   7.942   5.999   3.341
 3760TIP3    H211238   7.809   6.010   3.412
 3761TIP3   OH211239   3.724   2.214   1.910
 3761TIP3    H111240   3.765   2.274   1.847
 3761TIP3    H211241   3.636   2.199   1.875
 3762TIP3   OH211242   8.209   1.197   5.369
 3762TIP3    H111243   8.174   1.203   5.458
 3762TIP3    H211244   8.228   1.288   5.345
 3763TIP3   OH211245   7.931   3.389   6.535
 3763TIP3    H111246   8.018   3.419   6.561
 3763TIP3    H211247   7.871   3.438   6.591
 3764TIP3   OH211248   6.681   1.216   0.782
 3764TIP3    H111249   6.597   1.248   0.751
 3764TIP3    H211250   6.661   1.134   0.827
 3765TIP3   OH211251   3.109   6.696   3.711
 3765TIP3    H111252   3.162   6.624   3.744
 3765TIP3    H211253   3.022   6.680   3.748
 3766TIP3   OH211254   7.955   2.524   2.335
 3766TIP3    H111255   7.883   2.555   2.280
 3766TIP3    H211256   7.937   2.560   2.422
 3767TIP3   OH211257   7.842   1.357   3.001
 3767TIP3    H111258   7.906   1.332   2.934
 3767TIP3    H211259   7.769   1.297   2.987
 3768TIP3   OH211260   5.369   0.843   0.393
 3768TIP3    H111261   5.366   0.795   0.311
 3768TIP3    H211262   5.282   0.829   0.432
 3769TIP3   OH211263   8.102   0.952   4.779
 3769TIP3    H111264   8.060   1.015   4.721
 3769TIP3    H211265   8.152   1.005   4.841
 3770TIP3   OH211266   1.501   2.902   4.403
 3770TIP3    H111267   1.489   2.818   4.359
 3770TIP3    H211268   1.532   2.879   4.491
 3771TIP3   OH211269   6.644   0.707   3.563
 3771TIP3    H111270   6.619   0.623   3.603
 3771TIP3    H211271   6.571   0.765   3.583
 3772TIP3   OH211272   1.498   1.601   5.566
 3772TIP3    H111273   1.449   1.520   5.551
 3772TIP3    H211274   1.565   1.577   5.630
 3773TIP3   OH211275   0.538   4.509   4.443
 3773TIP3    H111276   0.462   4.482   4.392
 3773TIP3    H211277   0.613   4.490   4.386
 3774TIP3   OH211278   8.005   6.063   3.611
 3774TIP3    H111279   8.069   6.066   3.541
 3774TIP3    H211280   7.936   6.006   3.578
 3775TIP3   OH211281   0.970   5.179   1.102
 3775TIP3    H111282   0.950   5.238   1.175
 3775TIP3    H211283   0.976   5.237   1.026
 3776TIP3   OH211284   4.274   0.093   5.819
 3776TIP3    H111285   4.191   0.139   5.811
 3776TIP3    H211286   4.267   0.043   5.900
 3777TIP3   OH211287   5.779   6.869   0.549
 3777TIP3    H111288   5.874   6.869   0.538
 3777TIP3    H211289   5.760   6.785   0.590
 3778TIP3   OH211290   2.622   3.674   6.201
 3778TIP3    H111291   2.665   3.757   6.220
 3778TIP3    H211292   2.539   3.698   6.159
 3779TIP3   OH211293   4.342   7.039   2.724
 3779TIP3    H111294   4.314   6.953   2.693
 3779TIP3    H211295   4.410   7.066   2.661
 3780TIP3   OH211296   3.177   4.476   0.040
 3780TIP3    H111297   3.161   4.491  -0.053
 3780TIP3    H211298   3.234   4.399   0.043
 3781TIP3   OH211299   1.269   3.746   2.211
 3781TIP3    H111300   1.257   3.838   2.235
 3781TIP3    H211301   1.233   3.697   2.285
 3782TIP3   OH211302   4.850   0.719   4.094
 3782TIP3    H111303   4.872   0.626   4.106
 3782TIP3    H211304   4.756   0.720   4.077
 3783TIP3   OH211305   3.329   6.676   1.395
 3783TIP3    H111306   3.374   6.743   1.344
 3783TIP3    H211307   3.284   6.622   1.330
 3784TIP3   OH211308   7.044   0.812   5.378
 3784TIP3    H111309   7.096   0.807   5.298
 3784TIP3    H211310   6.965   0.763   5.358
 3785TIP3   OH211311   3.568   0.056   6.716
 3785TIP3    H111312   3.626   0.086   6.645
 3785TIP3    H211313   3.552  -0.037   6.695
 3786TIP3   OH211314   0.186   2.103   6.535
 3786TIP3    H111315   0.217   2.095   6.445
 3786TIP3    H211316   0.255   2.150   6.581
 3787TIP3   OH211317   2.154   3.008   6.596
 3787TIP3    H111318   2.222   3.047   6.651
 3787TIP3    H211319   2.177   3.033   6.507
 3788TIP3   OH211320   7.659   3.941   6.195
 3788TIP3    H111321   7.667   3.863   6.140
 3788TIP3    H211322   7.745   3.983   6.191
 3789TIP3   OH211323   0.483   4.887   3.301
 3789TIP3    H111324   0.463   4.958   3.362
 3789TIP3    H211325   0.562   4.917   3.255
 3790TIP3   OH211326   8.182   6.334   4.754
 3790TIP3    H111327   8.184   6.329   4.850
 3790TIP3    H211328   8.097   6.373   4.733
 3791TIP3   OH211329   7.958   1.061   2.472
 3791TIP3    H111330   8.015   1.127   2.433
 3791TIP3    H211331   7.986   0.979   2.431
 3792TIP3   OH211332   1.229   6.932   3.378
 3792TIP3    H111333   1.246   6.979   3.296
 3792TIP3    H211334   1.295   6.862   3.380
 3793TIP3   OH211335   2.555   6.175   5.162
 3793TIP3    H111336   2.462   6.154   5.154
 3793TIP3    H211337   2.596   6.130   5.089
 3794TIP3   OH211338   2.991   3.429   4.523
 3794TIP3    H111339   3.068   3.486   4.517
 3794TIP3    H211340   2.976   3.399   4.434
 3795TIP3   OH211341   5.664   1.761   2.496
 3795TIP3    H111342   5.703   1.749   2.582
 3795TIP3    H211343   5.570   1.758   2.511
 3796TIP3   OH211344   2.436   6.943   0.480
 3796TIP3    H111345   2.509   6.979   0.531
 3796TIP3    H211346   2.463   6.953   0.389
 3797TIP3   OH211347   7.490   4.975   1.459
 3797TIP3    H111348   7.444   4.892   1.472
 3797TIP3    H211349   7.486   5.019   1.544
 3798TIP3   OH211350   6.360   5.320   1.216
 3798TIP3    H111351   6.335   5.256   1.282
 3798TIP3    H211352   6.276   5.356   1.184
 3799TIP3   OH211353   5.661   3.495   0.245
 3799TIP3    H111354   5.671   3.402   0.225
 3799TIP3    H211355   5.608   3.498   0.325
 3800TIP3   OH211356   4.776   7.644   3.476
 3800TIP3    H111357   4.754   7.578   3.411
 3800TIP3    H211358   4.816   7.594   3.548
 3801TIP3   OH211359   0.048   5.969   0.878
 3801TIP3    H111360   0.116   5.902   0.882
 3801TIP3    H211361   0.047   6.008   0.966
 3802TIP3   OH211362   2.729   4.168   3.133
 3802TIP3    H111363   2.743   4.213   3.216
 3802TIP3    H211364   2.721   4.239   3.069
 3803TIP3   OH211365   3.451   0.178   0.380
 3803TIP3    H111366   3.392   0.138   0.444
 3803TIP3    H211367   3.420   0.268   0.373
 3804TIP3   OH211368   5.725   4.479   1.688
 3804TIP3    H111369   5.652   4.469   1.627
 3804TIP3    H211370   5.720   4.402   1.744
 3805TIP3   OH211371   6.125   5.379   1.950
 3805TIP3    H111372   6.205   5.339   1.915
 3805TIP3    H211373   6.083   5.420   1.874
 3806TIP3   OH211374   6.514   6.917   0.453
 3806TIP3    H111375   6.458   6.983   0.412
 3806TIP3    H211376   6.587   6.967   0.488
 3807TIP3   OH211377   1.797   3.354   4.790
 3807TIP3    H111378   1.882   3.398   4.795
 3807TIP3    H211379   1.819   3.260   4.794
 3808TIP3   OH211380   4.270   6.975   0.708
 3808TIP3    H111381   4.364   6.959   0.718
 3808TIP3    H211382   4.231   6.888   0.707
 3809TIP3   OH211383   0.016   6.145   5.630
 3809TIP3    H111384   0.024   6.056   5.665
 3809TIP3    H211385   0.065   6.143   5.548
 3810TIP3   OH211386   2.556   1.165   3.670
 3810TIP3    H111387   2.511   1.110   3.606
 3810TIP3    H211388   2.575   1.106   3.744
 3811TIP3   OH211389   5.930   3.800   6.091
 3811TIP3    H111390   6.018   3.831   6.069
 3811TIP3    H211391   5.944   3.736   6.160
 3812TIP3   OH211392   6.698   6.441   3.768
 3812TIP3    H111393   6.777   6.418   3.817
 3812TIP3    H211394   6.690   6.536   3.778
 3813TIP3   OH211395   2.322   6.088   5.403
 3813TIP3    H111396   2.246   6.136   5.370
 3813TIP3    H211397   2.288   6.000   5.421
 3814TIP3   OH211398   5.909   6.478   2.545
 3814TIP3    H111399   5.974   6.421   2.587
 3814TIP3    H211400   5.825   6.438   2.567
 3815TIP3   OH211401   2.913   3.195   3.178
 3815TIP3    H111402   2.887   3.108   3.206
 3815TIP3    H211403   2.876   3.204   3.090
 3816TIP3   OH211404   0.380   3.316   1.806
 3816TIP3    H111405   0.471   3.293   1.787
 3816TIP3    H211406   0.331   3.236   1.786
 3817TIP3   OH211407   1.815   7.716   0.805
 3817TIP3    H111408   1.847   7.629   0.780
 3817TIP3    H211409   1.730   7.724   0.762
 3818TIP3   OH211410   6.424   2.305   4.974
 3818TIP3    H111411   6.361   2.251   5.021
 3818TIP3    H211412   6.500   2.248   4.962
 3819TIP3   OH211413   2.182   2.849   3.174
 3819TIP3    H111414   2.217   2.937   3.190
 3819TIP3    H211415   2.089   2.864   3.156
 3820TIP3   OH211416   0.864   5.826   1.749
 3820TIP3    H111417   0.959   5.824   1.738
 3820TIP3    H211418   0.851   5.885   1.823
 3821TIP3   OH211419   2.233   5.959   1.295
 3821TIP3    H111420   2.142   5.953   1.322
 3821TIP3    H211421   2.283   5.935   1.374
 3822TIP3   OH211422   7.084   1.295   1.723
 3822TIP3    H111423   7.053   1.344   1.800
 3822TIP3    H211424   7.155   1.348   1.687
 3823TIP3   OH211425   4.606   4.531   1.736
 3823TIP3    H111426   4.660   4.561   1.663
 3823TIP3    H211427   4.665   4.531   1.812
 3824TIP3   OH211428   7.447   1.519   3.653
 3824TIP3    H111429   7.534   1.508   3.689
 3824TIP3    H211430   7.427   1.612   3.664
 3825TIP3   OH211431   0.993   4.254   0.983
 3825TIP3    H111432   0.997   4.232   0.890
 3825TIP3    H211433   0.941   4.335   0.985
 3826TIP3   OH211434   1.723   4.184   2.612
 3826TIP3    H111435   1.811   4.197   2.577
 3826TIP3    H211436   1.692   4.272   2.633
 3827TIP3   OH211437   5.639   0.181   3.411
 3827TIP3    H111438   5.636   0.089   3.385
 3827TIP3    H211439   5.641   0.179   3.506
 3828TIP3   OH211440   3.019   1.376   1.045
 3828TIP3    H111441   3.044   1.424   0.966
 3828TIP3    H211442   3.013   1.285   1.017
 3829TIP3   OH211443   6.640   3.348   6.456
 3829TIP3    H111444   6.642   3.312   6.367
 3829TIP3    H211445   6.638   3.271   6.513
 3830TIP3   OH211446   1.907   5.756   5.359
 3830TIP3    H111447   1.899   5.756   5.263
 3830TIP3    H211448   1.961   5.679   5.378
 3831TIP3   OH211449   2.419   1.769   3.753
 3831TIP3    H111450   2.421   1.676   3.775
 3831TIP3    H211451   2.424   1.771   3.657
 3832TIP3   OH211452   8.227   2.020   5.984
 3832TIP3    H111453   8.212   2.070   6.064
 3832TIP3    H211454   8.193   1.933   6.003
 3833TIP3   OH211455   4.589   4.920   0.873
 3833TIP3    H111456   4.500   4.957   0.870
 3833TIP3    H211457   4.604   4.887   0.784
 3834TIP3   OH211458   2.456   3.057   5.361
 3834TIP3    H111459   2.463   3.131   5.301
 3834TIP3    H211460   2.478   3.093   5.447
 3835TIP3   OH211461   1.348   1.415   4.739
 3835TIP3    H111462   1.262   1.373   4.739
 3835TIP3    H211463   1.376   1.413   4.647
 3836TIP3   OH211464   0.110   6.582   3.312
 3836TIP3    H111465   0.085   6.546   3.227
 3836TIP3    H211466   0.204   6.601   3.304
 3837TIP3   OH211467   6.441   6.655   4.425
 3837TIP3    H111468   6.526   6.687   4.396
 3837TIP3    H211469   6.441   6.668   4.520
 3838TIP3   OH211470   6.944   6.568   3.494
 3838TIP3    H111471   6.901   6.653   3.493
 3838TIP3    H211472   6.936   6.536   3.404
 3839TIP3   OH211473   4.587   3.379   1.748
 3839TIP3    H111474   4.664   3.425   1.714
 3839TIP3    H211475   4.539   3.446   1.797
 3840TIP3   OH211476   1.615   6.939   3.505
 3840TIP3    H111477   1.560   6.988   3.567
 3840TIP3    H211478   1.699   6.984   3.507
 3841TIP3   OH211479   0.056   6.440   5.040
 3841TIP3    H111480  -0.013   6.461   5.103
 3841TIP3    H211481   0.118   6.386   5.090
 3842TIP3   OH211482   3.186   5.883   5.371
 3842TIP3    H111483   3.115   5.901   5.433
 3842TIP3    H211484   3.240   5.817   5.414
 3843TIP3   OH211485   5.943   0.839   2.766
 3843TIP3    H111486   5.982   0.804   2.686
 3843TIP3    H211487   5.992   0.920   2.783
 3844TIP3   OH211488   1.915   1.079   0.748
 3844TIP3    H111489   2.009   1.069   0.739
 3844TIP3    H211490   1.880   1.070   0.659
 3845TIP3   OH211491   5.441   6.002   0.921
 3845TIP3    H111492   5.461   6.023   0.830
 3845TIP3    H211493   5.506   5.937   0.946
 3846TIP3   OH211494   0.695   7.203   0.119
 3846TIP3    H111495   0.611   7.169   0.089
 3846TIP3    H211496   0.714   7.277   0.061
 3847TIP3   OH211497   6.552   6.615   1.909
 3847TIP3    H111498   6.600   6.534   1.892
 3847TIP3    H211499   6.466   6.586   1.938
 3848TIP3   OH211500   1.082   0.626   2.039
 3848TIP3    H111501   1.097   0.673   1.957
 3848TIP3    H211502   1.166   0.629   2.084
 3849TIP3   OH211503   2.756   0.662   6.545
 3849TIP3    H111504   2.661   0.674   6.549
 3849TIP3    H211505   2.774   0.594   6.609
 3850TIP3   OH211506   5.566   2.412   5.625
 3850TIP3    H111507   5.625   2.348   5.664
 3850TIP3    H211508   5.496   2.422   5.689
 3851TIP3   OH211509   7.524   5.045   5.770
 3851TIP3    H111510   7.430   5.062   5.777
 3851TIP3    H211511   7.545   4.997   5.851
 3852TIP3   OH211512   4.867   5.257   3.325
 3852TIP3    H111513   4.951   5.237   3.366
 3852TIP3    H211514   4.866   5.204   3.245
 3853TIP3   OH211515   5.401   1.778   0.841
 3853TIP3    H111516   5.360   1.700   0.879
 3853TIP3    H211517   5.359   1.851   0.887
 3854TIP3   OH211518   1.884   2.626   3.841
 3854TIP3    H111519   1.807   2.653   3.891
 3854TIP3    H211520   1.958   2.637   3.901
 3855TIP3   OH211521   2.862   2.514   4.779
 3855TIP3    H111522   2.936   2.574   4.790
 3855TIP3    H211523   2.812   2.551   4.706
 3856TIP3   OH211524   5.296   3.985   4.419
 3856TIP3    H111525   5.242   3.994   4.341
 3856TIP3    H211526   5.376   3.943   4.388
 3857TIP3   OH211527   6.779   6.363   2.685
 3857TIP3    H111528   6.850   6.342   2.624
 3857TIP3    H211529   6.733   6.437   2.644
 3858TIP3   OH211530   4.947   6.007   2.767
 3858TIP3    H111531   4.856   6.007   2.736
 3858TIP3    H211532   4.944   5.958   2.849
 3859TIP3   OH211533   3.892   3.926   0.094
 3859TIP3    H111534   3.935   3.956   0.014
 3859TIP3    H211535   3.960   3.877   0.141
 3860TIP3   OH211536   7.069   0.587   1.484
 3860TIP3    H111537   7.101   0.675   1.466
 3860TIP3    H211538   7.007   0.599   1.556
 3861TIP3   OH211539   7.803   3.634   5.773
 3861TIP3    H111540   7.730   3.610   5.717
 3861TIP3    H211541   7.856   3.693   5.720
 3862TIP3   OH211542   7.146   4.456   3.375
 3862TIP3    H111543   7.120   4.517   3.306
 3862TIP3    H211544   7.200   4.508   3.435
 3863TIP3   OH211545   7.706   4.174   2.433
 3863TIP3    H111546   7.675   4.230   2.361
 3863TIP3    H211547   7.653   4.200   2.508
 3864TIP3   OH211548   2.214   3.166   5.141
 3864TIP3    H111549   2.299   3.205   5.164
 3864TIP3    H211550   2.217   3.157   5.046
 3865TIP3   OH211551   4.101   2.077   0.821
 3865TIP3    H111552   4.005   2.083   0.828
 3865TIP3    H211553   4.116   2.041   0.733
 3866TIP3   OH211554   4.113   6.388   0.017
 3866TIP3    H111555   4.052   6.321   0.049
 3866TIP3    H211556   4.195   6.370   0.063
 3867TIP3   OH211557   4.698   6.434   1.872
 3867TIP3    H111558   4.675   6.346   1.842
 3867TIP3    H211559   4.684   6.490   1.795
 3868TIP3   OH211560   0.848   2.099   1.778
 3868TIP3    H111561   0.831   2.186   1.742
 3868TIP3    H211562   0.821   2.105   1.870
 3869TIP3   OH211563   5.556   2.188   1.576
 3869TIP3    H111564   5.621   2.153   1.515
 3869TIP3    H211565   5.588   2.275   1.598
 3870TIP3   OH211566   6.704   1.690   3.173
 3870TIP3    H111567   6.765   1.617   3.185
 3870TIP3    H211568   6.759   1.763   3.146
 3871TIP3   OH211569   2.518   2.714   3.451
 3871TIP3    H111570   2.540   2.630   3.492
 3871TIP3    H211571   2.431   2.700   3.414
 3872TIP3   OH211572   0.973   6.468   2.243
 3872TIP3    H111573   0.903   6.531   2.260
 3872TIP3    H211574   1.013   6.452   2.328
 3873TIP3   OH211575   6.488   3.320   5.182
 3873TIP3    H111576   6.568   3.370   5.197
 3873TIP3    H211577   6.462   3.343   5.093
 3874TIP3   OH211578   3.089   6.122   2.119
 3874TIP3    H111579   3.016   6.142   2.060
 3874TIP3    H211580   3.051   6.124   2.206
 3875TIP3   OH211581   0.780   4.419   5.881
 3875TIP3    H111582   0.685   4.422   5.870
 3875TIP3    H211583   0.801   4.326   5.885
 3876TIP3   OH211584   7.549   3.966   0.263
 3876TIP3    H111585   7.520   3.875   0.250
 3876TIP3    H211586   7.642   3.964   0.239
 3877TIP3   OH211587   2.647   4.352   2.241
 3877TIP3    H111588   2.702   4.425   2.212
 3877TIP3    H211589   2.671   4.280   2.183
 3878TIP3   OH211590   3.267   0.695   3.920
 3878TIP3    H111591   3.320   0.616   3.904
 3878TIP3    H211592   3.186   0.679   3.873
 3879TIP3   OH211593   0.386   3.623   0.270
 3879TIP3    H111594   0.422   3.667   0.194
 3879TIP3    H211595   0.306   3.580   0.238
 3880TIP3   OH211596   8.193   2.881   3.641
 3880TIP3    H111597   8.107   2.843   3.626
 3880TIP3    H211598   8.243   2.810   3.683
 3881TIP3   OH211599   6.477   2.246   4.132
 3881TIP3    H111600   6.398   2.196   4.111
 3881TIP3    H211601   6.546   2.205   4.080
 3882TIP3   OH211602   7.991   7.513   2.538
 3882TIP3    H111603   7.943   7.431   2.531
 3882TIP3    H211604   7.971   7.559   2.456
 3883TIP3   OH211605   8.008   5.067   2.674
 3883TIP3    H111606   8.098   5.077   2.643
 3883TIP3    H211607   8.013   5.086   2.768
 3884TIP3   OH211608   4.211   3.659   1.538
 3884TIP3    H111609   4.190   3.652   1.632
 3884TIP3    H211610   4.306   3.664   1.535
 3885TIP3   OH211611   4.967   2.587   5.001
 3885TIP3    H111612   4.974   2.554   5.090
 3885TIP3    H211613   5.054   2.622   4.981
 3886TIP3   OH211614   0.995   1.200   5.187
 3886TIP3    H111615   1.069   1.189   5.246
 3886TIP3    H211616   0.938   1.263   5.231
 3887TIP3   OH211617   3.428   1.005   5.592
 3887TIP3    H111618   3.479   1.043   5.663
 3887TIP3    H211619   3.343   0.986   5.631
 3888TIP3   OH211620   6.423   2.790   5.249
 3888TIP3    H111621   6.333   2.760   5.262
 3888TIP3    H211622   6.421   2.884   5.268
 3889TIP3   OH211623   0.012   1.594   0.783
 3889TIP3    H111624  -0.051   1.540   0.831
 3889TIP3    H211625   0.047   1.536   0.716
 3890TIP3   OH211626   0.668   7.627   2.443
 3890TIP3    H111627   0.656   7.534   2.461
 3890TIP3    H211628   0.592   7.669   2.483
 3891TIP3   OH211629   2.000   7.185   4.566
 3891TIP3    H111630   2.051   7.236   4.629
 3891TIP3    H211631   1.990   7.099   4.607
 3892TIP3   OH211632   3.445   2.925   3.942
 3892TIP3    H111633   3.472   2.848   3.993
 3892TIP3    H211634   3.524   2.978   3.935
 3893TIP3   OH211635   7.927   0.473   1.000
 3893TIP3    H111636   8.005   0.528   1.002
 3893TIP3    H211637   7.884   0.496   0.918
 3894TIP3   OH211638   0.930   7.540   3.677
 3894TIP3    H111639   0.956   7.467   3.734
 3894TIP3    H211640   0.836   7.525   3.662
 3895TIP3   OH211641   0.933   4.163   1.370
 3895TIP3    H111642   0.913   4.150   1.463
 3895TIP3    H211643   0.902   4.252   1.352
 3896TIP3   OH211644   7.718   6.884   4.348
 3896TIP3    H111645   7.699   6.795   4.317
 3896TIP3    H211646   7.798   6.874   4.400
 3897TIP3   OH211647   2.476   3.025   6.125
 3897TIP3    H111648   2.482   3.002   6.218
 3897TIP3    H211649   2.509   2.948   6.079
 3898TIP3   OH211650   5.572   4.977   3.574
 3898TIP3    H111651   5.612   4.983   3.487
 3898TIP3    H211652   5.493   5.029   3.568
 3899TIP3   OH211653   0.341   4.426   3.945
 3899TIP3    H111654   0.295   4.442   4.027
 3899TIP3    H211655   0.426   4.468   3.958
 3900TIP3   OH211656   6.269   1.909   3.276
 3900TIP3    H111657   6.340   1.848   3.297
 3900TIP3    H211658   6.312   1.995   3.271
 3901TIP3   OH211659   0.522   1.794   5.887
 3901TIP3    H111660   0.617   1.798   5.893
 3901TIP3    H211661   0.504   1.719   5.831
 3902TIP3   OH211662   7.863   0.995   1.468
 3902TIP3    H111663   7.857   1.087   1.442
 3902TIP3    H211664   7.790   0.982   1.529
 3903TIP3   OH211665   7.658   2.248   4.420
 3903TIP3    H111666   7.725   2.180   4.426
 3903TIP3    H211667   7.703   2.328   4.448
 3904TIP3   OH211668   0.116   2.700   0.169
 3904TIP3    H111669   0.065   2.735   0.242
 3904TIP3    H211670   0.148   2.616   0.201
 3905TIP3   OH211671   0.337   0.367   5.482
 3905TIP3    H111672   0.269   0.434   5.490
 3905TIP3    H211673   0.370   0.378   5.393
 3906TIP3   OH211674   0.746   6.903   0.480
 3906TIP3    H111675   0.818   6.853   0.442
 3906TIP3    H211676   0.731   6.862   0.565
 3907TIP3   OH211677   5.584   7.039   0.707
 3907TIP3    H111678   5.673   7.037   0.671
 3907TIP3    H211679   5.533   6.983   0.649
 3908TIP3   OH211680   3.830   4.525   1.060
 3908TIP3    H111681   3.918   4.492   1.075
 3908TIP3    H211682   3.786   4.517   1.144
 3909TIP3   OH211683   3.944   5.866   6.334
 3909TIP3    H111684   4.021   5.910   6.297
 3909TIP3    H211685   3.936   5.903   6.422
 3910TIP3   OH211686   1.416   1.166   5.450
 3910TIP3    H111687   1.446   1.222   5.379
 3910TIP3    H211688   1.418   1.078   5.413
 3911TIP3   OH211689   5.182   3.997   4.177
 3911TIP3    H111690   5.124   4.055   4.128
 3911TIP3    H211691   5.250   3.972   4.115
 3912TIP3   OH211692   5.337   0.838   0.909
 3912TIP3    H111693   5.371   0.885   0.985
 3912TIP3    H211694   5.271   0.778   0.944
 3913TIP3   OH211695   6.267   5.293   2.538
 3913TIP3    H111696   6.178   5.323   2.520
 3913TIP3    H211697   6.311   5.295   2.453
 3914TIP3   OH211698   7.664   2.859   5.117
 3914TIP3    H111699   7.670   2.764   5.105
 3914TIP3    H211700   7.571   2.878   5.106
 3915TIP3   OH211701   1.460   2.509   3.653
 3915TIP3    H111702   1.410   2.427   3.650
 3915TIP3    H211703   1.512   2.509   3.573
 3916TIP3   OH211704   5.641   6.923   5.002
 3916TIP3    H111705   5.684   6.839   4.985
 3916TIP3    H211706   5.683   6.984   4.942
 3917TIP3   OH211707   6.044   6.049   6.193
 3917TIP3    H111708   6.119   6.103   6.221
 3917TIP3    H211709   6.024   5.995   6.269
 3918TIP3   OH211710   0.530   0.393   2.485
 3918TIP3    H111711   0.503   0.481   2.456
 3918TIP3    H211712   0.607   0.373   2.432
 3919TIP3   OH211713   2.417   3.656   2.298
 3919TIP3    H111714   2.381   3.637   2.385
 3919TIP3    H211715   2.344   3.643   2.238
 3920TIP3   OH211716   7.802   3.894   1.787
 3920TIP3    H111717   7.717   3.937   1.779
 3920TIP3    H211718   7.837   3.928   1.870
 3921TIP3   OH211719   2.687   3.446   5.610
 3921TIP3    H111720   2.650   3.428   5.524
 3921TIP3    H211721   2.730   3.364   5.636
 3922TIP3   OH211722   4.521   7.381   4.461
 3922TIP3    H111723   4.528   7.409   4.553
 3922TIP3    H211724   4.432   7.406   4.436
 3923TIP3   OH211725   4.085   4.764   1.463
 3923TIP3    H111726   4.064   4.719   1.545
 3923TIP3    H211727   4.153   4.710   1.423
 3924TIP3   OH211728   0.789   6.822   5.972
 3924TIP3    H111729   0.878   6.787   5.966
 3924TIP3    H211730   0.749   6.800   5.888
 3925TIP3   OH211731   1.604   5.468   1.168
 3925TIP3    H111732   1.672   5.473   1.236
 3925TIP3    H211733   1.567   5.380   1.178
 3926TIP3   OH211734   3.870   1.083   5.033
 3926TIP3    H111735   3.812   1.012   5.061
 3926TIP3    H211736   3.899   1.124   5.114
 3927TIP3   OH211737   2.183   1.781   4.830
 3927TIP3    H111738   2.092   1.807   4.839
 3927TIP3    H211739   2.229   1.831   4.898
 3928TIP3   OH211740   4.881   2.924   4.581
 3928TIP3    H111741   4.917   2.974   4.655
 3928TIP3    H211742   4.788   2.915   4.601
 3929TIP3   OH211743   5.930   7.761   5.903
 3929TIP3    H111744   5.852   7.816   5.892
 3929TIP3    H211745   5.997   7.822   5.937
 3930TIP3   OH211746   3.526   3.802   3.725
 3930TIP3    H111747   3.521   3.710   3.699
 3930TIP3    H211748   3.446   3.841   3.690
 3931TIP3   OH211749   5.078   5.736   2.408
 3931TIP3    H111750   5.006   5.675   2.422
 3931TIP3    H211751   5.093   5.777   2.493
 3932TIP3   OH211752   4.692   5.632   2.178
 3932TIP3    H111753   4.638   5.635   2.099
 3932TIP3    H211754   4.703   5.724   2.202
 3933TIP3   OH211755   1.785   3.623   4.060
 3933TIP3    H111756   1.822   3.536   4.071
 3933TIP3    H211757   1.733   3.617   3.981
 3934TIP3   OH211758   7.492   6.568   5.787
 3934TIP3    H111759   7.401   6.550   5.809
 3934TIP3    H211760   7.503   6.532   5.699
 3935TIP3   OH211761   7.208   3.434   5.836
 3935TIP3    H111762   7.298   3.427   5.805
 3935TIP3    H211763   7.184   3.525   5.818
 3936TIP3   OH211764   0.954   7.288   5.838
 3936TIP3    H111765   1.022   7.222   5.828
 3936TIP3    H211766   0.943   7.296   5.933
 3937TIP3   OH211767   4.469   7.615   6.224
 3937TIP3    H111768   4.446   7.704   6.249
 3937TIP3    H211769   4.519   7.625   6.143
 3938TIP3   OH211770   1.783   2.141   2.435
 3938TIP3    H111771   1.847   2.197   2.392
 3938TIP3    H211772   1.739   2.095   2.364
 3939TIP3   OH211773   5.392   7.026   5.566
 3939TIP3    H111774   5.452   7.079   5.619
 3939TIP3    H211775   5.351   6.966   5.629
 3940TIP3   OH211776   3.520   3.118   1.126
 3940TIP3    H111777   3.536   3.086   1.037
 3940TIP3    H211778   3.451   3.184   1.115
 3941TIP3   OH211779   6.104   7.041   0.707
 3941TIP3    H111780   6.174   6.980   0.685
 3941TIP3    H211781   6.102   7.103   0.633
 3942TIP3   OH211782   4.461   3.123   5.615
 3942TIP3    H111783   4.498   3.171   5.540
 3942TIP3    H211784   4.517   3.147   5.689
 3943TIP3   OH211785   6.768   3.016   1.636
 3943TIP3    H111786   6.819   3.002   1.556
 3943TIP3    H211787   6.828   3.061   1.695
 3944TIP3   OH211788   4.091   4.262   5.641
 3944TIP3    H111789   4.045   4.346   5.632
 3944TIP3    H211790   4.030   4.206   5.687
 3945TIP3   OH211791   3.628   0.821   5.947
 3945TIP3    H111792   3.720   0.818   5.923
 3945TIP3    H211793   3.585   0.866   5.874
 3946TIP3   OH211794   2.849   4.424   3.869
 3946TIP3    H111795   2.939   4.398   3.888
 3946TIP3    H211796   2.801   4.406   3.950
 3947TIP3   OH211797   6.028   0.394   0.993
 3947TIP3    H111798   5.976   0.314   0.982
 3947TIP3    H211799   6.000   0.451   0.921
 3948TIP3   OH211800   2.725   4.156   2.058
 3948TIP3    H111801   2.734   4.170   1.964
 3948TIP3    H211802   2.724   4.061   2.068
 3949TIP3   OH211803   3.598   4.338   4.358
 3949TIP3    H111804   3.634   4.362   4.443
 3949TIP3    H211805   3.517   4.292   4.378
 3950TIP3   OH211806   2.977   7.795   6.213
 3950TIP3    H111807   2.906   7.838   6.165
 3950TIP3    H211808   3.055   7.811   6.160
 3951TIP3   OH211809   3.646   4.696   5.517
 3951TIP3    H111810   3.607   4.763   5.460
 3951TIP3    H211811   3.652   4.739   5.602
 3952TIP3   OH211812   5.608   3.361   5.735
 3952TIP3    H111813   5.666   3.296   5.694
 3952TIP3    H211814   5.522   3.319   5.735
 3953TIP3   OH211815   0.172   0.394   6.649
 3953TIP3    H111816   0.121   0.470   6.676
 3953TIP3    H211817   0.160   0.389   6.554
 3954TIP3   OH211818   5.533   3.722   6.234
 3954TIP3    H111819   5.573   3.698   6.150
 3954TIP3    H211820   5.442   3.693   6.225
 3955TIP3   OH211821   6.525   1.524   1.935
 3955TIP3    H111822   6.445   1.576   1.934
 3955TIP3    H211823   6.496   1.434   1.951
 3956TIP3   OH211824   1.928   1.295   4.182
 3956TIP3    H111825   2.019   1.311   4.209
 3956TIP3    H211826   1.878   1.365   4.224
 3957TIP3   OH211827   7.560   0.419   1.155
 3957TIP3    H111828   7.644   0.462   1.170
 3957TIP3    H211829   7.572   0.368   1.075
 3958TIP3   OH211830   5.933   2.156   5.358
 3958TIP3    H111831   5.984   2.217   5.304
 3958TIP3    H211832   5.932   2.196   5.445
 3959TIP3   OH211833   6.449   0.258   0.121
 3959TIP3    H111834   6.388   0.185   0.128
 3959TIP3    H211835   6.533   0.223   0.150
 3960TIP3   OH211836   6.671   6.142   5.186
 3960TIP3    H111837   6.727   6.200   5.134
 3960TIP3    H211838   6.646   6.072   5.125
 3961TIP3   OH211839   0.304   5.794   4.074
 3961TIP3    H111840   0.308   5.712   4.026
 3961TIP3    H211841   0.364   5.782   4.147
 3962TIP3   OH211842   7.028   7.481   2.902
 3962TIP3    H111843   7.012   7.473   2.808
 3962TIP3    H211844   7.047   7.574   2.915
 3963TIP3   OH211845   2.040   6.953   0.654
 3963TIP3    H111846   2.078   6.895   0.721
 3963TIP3    H211847   2.100   6.946   0.580
 3964TIP3   OH211848   7.816   6.788   5.549
 3964TIP3    H111849   7.784   6.874   5.577
 3964TIP3    H211850   7.825   6.739   5.631
 3965TIP3   OH211851   7.279   7.040   6.348
 3965TIP3    H111852   7.208   7.103   6.357
 3965TIP3    H211853   7.352   7.078   6.397
 3966TIP3   OH211854   6.255   6.238   4.095
 3966TIP3    H111855   6.171   6.220   4.138
 3966TIP3    H211856   6.254   6.333   4.080
 3967TIP3   OH211857   5.019   3.918   4.990
 3967TIP3    H111858   5.068   3.995   4.959
 3967TIP3    H211859   5.081   3.872   5.048
 3968TIP3   OH211860   2.556   2.205   2.743
 3968TIP3    H111861   2.601   2.271   2.796
 3968TIP3    H211862   2.497   2.161   2.804
 3969TIP3   OH211863   7.343   4.480   3.843
 3969TIP3    H111864   7.424   4.435   3.819
 3969TIP3    H211865   7.323   4.535   3.767
 3970TIP3   OH211866   4.222   4.135   5.207
 3970TIP3    H111867   4.209   4.084   5.287
 3970TIP3    H211868   4.317   4.143   5.198
 3971TIP3   OH211869   3.561   1.821   2.245
 3971TIP3    H111870   3.498   1.805   2.315
 3971TIP3    H211871   3.527   1.898   2.199
 3972TIP3   OH211872   2.127   0.377   5.572
 3972TIP3    H111873   2.163   0.462   5.598
 3972TIP3    H211874   2.043   0.371   5.618
 3973TIP3   OH211875   0.817   2.082   4.055
 3973TIP3    H111876   0.892   2.066   3.997
 3973TIP3    H211877   0.848   2.150   4.114
 3974TIP3   OH211878   0.541   0.602   5.426
 3974TIP3    H111879   0.474   0.577   5.362
 3974TIP3    H211880   0.576   0.684   5.393
 3975TIP3   OH211881   6.638   0.575   3.273
 3975TIP3    H111882   6.656   0.490   3.314
 3975TIP3    H211883   6.604   0.629   3.344
 3976TIP3   OH211884   3.533   5.554   4.108
 3976TIP3    H111885   3.482   5.479   4.139
 3976TIP3    H211886   3.499   5.628   4.157
 3977TIP3   OH211887   2.144   6.914   6.295
 3977TIP3    H111888   2.057   6.903   6.333
 3977TIP3    H211889   2.159   6.833   6.247
 3978TIP3   OH211890   3.101   2.683   1.830
 3978TIP3    H111891   3.063   2.722   1.752
 3978TIP3    H211892   3.115   2.591   1.806
 3979TIP3   OH211893   6.178   1.232   0.977
 3979TIP3    H111894   6.215   1.193   1.056
 3979TIP3    H211895   6.199   1.325   0.983
 3980TIP3   OH211896   3.130   2.963   0.877
 3980TIP3    H111897   3.040   2.949   0.907
 3980TIP3    H211898   3.183   2.954   0.957
 3981TIP3   OH211899   2.405   3.456   1.203
 3981TIP3    H111900   2.471   3.393   1.234
 3981TIP3    H211901   2.340   3.458   1.273
 3982TIP3   OH211902   3.212   0.615   3.233
 3982TIP3    H111903   3.119   0.600   3.250
 3982TIP3    H211904   3.249   0.639   3.318
 3983TIP3   OH211905   5.524   3.578   0.759
 3983TIP3    H111906   5.504   3.578   0.852
 3983TIP3    H211907   5.601   3.522   0.750
 3984TIP3   OH211908   4.384   3.098   4.601
 3984TIP3    H111909   4.382   3.075   4.508
 3984TIP3    H211910   4.352   3.188   4.604
 3985TIP3   OH211911   8.063   1.154   0.377
 3985TIP3    H111912   8.095   1.223   0.319
 3985TIP3    H211913   8.003   1.199   0.436
 3986TIP3   OH211914   2.316   2.762   6.490
 3986TIP3    H111915   2.311   2.813   6.409
 3986TIP3    H211916   2.397   2.792   6.532
 3987TIP3   OH211917   4.752   1.319   4.530
 3987TIP3    H111918   4.758   1.408   4.493
 3987TIP3    H211919   4.802   1.324   4.612
 3988TIP3   OH211920   6.853   2.688   3.086
 3988TIP3    H111921   6.908   2.679   3.164
 3988TIP3    H211922   6.778   2.631   3.104
 3989TIP3   OH211923   7.062   6.019   2.029
 3989TIP3    H111924   7.029   5.943   1.980
 3989TIP3    H211925   7.141   5.987   2.072
 3990TIP3   OH211926   3.983   7.166   0.746
 3990TIP3    H111927   4.037   7.147   0.669
 3990TIP3    H211928   4.006   7.098   0.809
 3991TIP3   OH211929   7.369   6.329   4.998
 3991TIP3    H111930   7.457   6.365   4.996
 3991TIP3    H211931   7.335   6.343   4.910
 3992TIP3   OH211932   5.097   4.909   4.551
 3992TIP3    H111933   5.066   4.847   4.484
 3992TIP3    H211934   5.059   4.877   4.632
 3993TIP3   OH211935   6.303   0.591   6.573
 3993TIP3    H111936   6.220   0.548   6.550
 3993TIP3    H211937   6.316   0.656   6.503
 3994TIP3   OH211938   3.384   2.066   1.565
 3994TIP3    H111939   3.364   1.972   1.574
 3994TIP3    H211940   3.332   2.095   1.491
 3995TIP3   OH211941   4.885   0.816   2.537
 3995TIP3    H111942   4.979   0.799   2.542
 3995TIP3    H211943   4.876   0.884   2.469
 3996TIP3   OH211944   2.743   2.363   3.326
 3996TIP3    H111945   2.691   2.320   3.393
 3996TIP3    H211946   2.733   2.457   3.345
 3997TIP3   OH211947   6.073   5.585   6.282
 3997TIP3    H111948   6.007   5.652   6.297
 3997TIP3    H211949   6.147   5.609   6.338
 3998TIP3   OH211950   4.219   1.020   5.439
 3998TIP3    H111951   4.252   1.086   5.377
 3998TIP3    H211952   4.143   0.982   5.394
 3999TIP3   OH211953   1.807   3.753   4.807
 3999TIP3    H111954   1.747   3.687   4.770
 3999TIP3    H211955   1.819   3.816   4.736
 4000TIP3   OH211956   0.324   7.725   0.362
 4000TIP3    H111957   0.260   7.783   0.403
 4000TIP3    H211958   0.407   7.747   0.404
 4001TIP3   OH211959   1.416   0.449   6.255
 4001TIP3    H111960   1.474   0.457   6.180
 4001TIP3    H211961   1.423   0.533   6.300
 4002TIP3   OH211962   5.186   4.151   4.811
 4002TIP3    H111963   5.178   4.182   4.721
 4002TIP3    H211964   5.223   4.063   4.803
 4003TIP3   OH211965   7.334   0.766   0.070
 4003TIP3    H111966   7.239   0.779   0.072
 4003TIP3    H211967   7.371   0.853   0.089
 4004TIP3   OH211968   5.665   3.970   5.214
 4004TIP3    H111969   5.640   3.986   5.305
 4004TIP3    H211970   5.677   3.875   5.209
 4005TIP3   OH211971   3.452   2.051   2.132
 4005TIP3    H111972   3.382   2.076   2.073
 4005TIP3    H211973   3.420   2.076   2.219
 4006TIP3   OH211974   2.371   5.646   2.655
 4006TIP3    H111975   2.316   5.635   2.577
 4006TIP3    H211976   2.324   5.599   2.724
 4007TIP3   OH211977   0.233   0.540   1.124
 4007TIP3    H111978   0.168   0.610   1.118
 4007TIP3    H211979   0.221   0.491   1.043
 4008TIP3   OH211980   8.139   7.443   3.727
 4008TIP3    H111981   8.134   7.535   3.700
 4008TIP3    H211982   8.054   7.424   3.765
 4009TIP3   OH211983   4.415   6.838   4.975
 4009TIP3    H111984   4.493   6.827   4.920
 4009TIP3    H211985   4.355   6.889   4.922
 4010TIP3   OH211986   4.001   2.644   1.076
 4010TIP3    H111987   4.034   2.733   1.093
 4010TIP3    H211988   3.990   2.605   1.162
 4011TIP3   OH211989   1.890   4.454   0.677
 4011TIP3    H111990   1.985   4.446   0.688
 4011TIP3    H211991   1.862   4.366   0.650
 4012TIP3   OH211992   4.486   3.266   3.946
 4012TIP3    H111993   4.532   3.207   3.888
 4012TIP3    H211994   4.394   3.240   3.940
 4013TIP3   OH211995   3.227   1.596   6.134
 4013TIP3    H111996   3.287   1.661   6.098
 4013TIP3    H211997   3.152   1.597   6.075
 4014TIP3   OH211998   3.905   5.557   4.642
 4014TIP3    H111999   3.967   5.486   4.627
 4014TIP3    H212000   3.824   5.528   4.598
 4015TIP3   OH212001   7.631   1.552   4.133
 4015TIP3    H112002   7.667   1.528   4.218
 4015TIP3    H212003   7.657   1.643   4.121
 4016TIP3   OH212004   0.189   3.650   0.705
 4016TIP3    H112005   0.207   3.728   0.651
 4016TIP3    H212006   0.267   3.640   0.759
 4017TIP3   OH212007   4.695   2.571   1.266
 4017TIP3    H112008   4.766   2.625   1.231
 4017TIP3    H212009   4.625   2.577   1.201
 4018TIP3   OH212010   6.490   5.789   5.837
 4018TIP3    H112011   6.400   5.795   5.805
 4018TIP3    H212012   6.518   5.700   5.815
 4019TIP3   OH212013   2.083   2.091   2.133
 4019TIP3    H112014   2.081   2.160   2.200
 4019TIP3    H212015   2.034   2.019   2.173
 4020TIP3   OH212016   2.960   0.566   3.335
 4020TIP3    H112017   2.957   0.660   3.356
 4020TIP3    H212018   2.872   0.547   3.301
 4021TIP3   OH212019   3.730   4.961   0.532
 4021TIP3    H112020   3.681   5.018   0.473
 4021TIP3    H212021   3.816   5.004   0.541
 4022TIP3   OH212022   3.756   7.537   4.589
 4022TIP3    H112023   3.842   7.550   4.550
 4022TIP3    H212024   3.733   7.447   4.566
 4023TIP3   OH212025   3.851   1.407   1.448
 4023TIP3    H112026   3.854   1.496   1.483
 4023TIP3    H212027   3.941   1.377   1.450
 4024TIP3   OH212028   6.234   4.441   3.656
 4024TIP3    H112029   6.237   4.524   3.704
 4024TIP3    H212030   6.164   4.452   3.592
 4025TIP3   OH212031   2.485   7.558   2.843
 4025TIP3    H112032   2.530   7.629   2.798
 4025TIP3    H212033   2.516   7.478   2.800
 4026TIP3   OH212034   0.509   4.320   5.596
 4026TIP3    H112035   0.597   4.288   5.574
 4026TIP3    H212036   0.487   4.379   5.524
 4027TIP3   OH212037   1.149   0.750   4.309
 4027TIP3    H112038   1.183   0.819   4.251
 4027TIP3    H212039   1.078   0.709   4.260
 4028TIP3   OH212040   8.128   1.640   2.349
 4028TIP3    H112041   8.150   1.699   2.421
 4028TIP3    H212042   8.133   1.552   2.388
 4029TIP3   OH212043   5.711   1.327   4.309
 4029TIP3    H112044   5.787   1.269   4.303
 4029TIP3    H212045   5.679   1.314   4.398
 4030TIP3   OH212046   0.462   7.321   2.948
 4030TIP3    H112047   0.439   7.259   3.017
 4030TIP3    H212048   0.392   7.314   2.884
 4031TIP3   OH212049   8.006   5.818   5.406
 4031TIP3    H112050   8.017   5.817   5.501
 4031TIP3    H212051   8.036   5.731   5.378
 4032TIP3   OH212052   3.476   7.095   0.845
 4032TIP3    H112053   3.456   7.013   0.800
 4032TIP3    H212054   3.399   7.150   0.829
 4033TIP3   OH212055   2.583   4.909   5.764
 4033TIP3    H112056   2.513   4.943   5.708
 4033TIP3    H212057   2.540   4.894   5.848
 4034TIP3   OH212058   6.604   3.646   1.552
 4034TIP3    H112059   6.633   3.669   1.464
 4034TIP3    H212060   6.520   3.603   1.539
 4035TIP3   OH212061   5.067   7.217   1.597
 4035TIP3    H112062   5.085   7.306   1.567
 4035TIP3    H212063   5.124   7.206   1.673
 4036TIP3   OH212064   6.127   5.738   1.731
 4036TIP3    H112065   6.054   5.726   1.671
 4036TIP3    H212066   6.096   5.805   1.792
 4037TIP3   OH212067   1.500   7.278   2.465
 4037TIP3    H112068   1.481   7.328   2.544
 4037TIP3    H212069   1.489   7.340   2.394
 4038TIP3   OH212070   6.557   4.271   3.584
 4038TIP3    H112071   6.590   4.360   3.590
 4038TIP3    H212072   6.462   4.282   3.572
 4039TIP3   OH212073   6.712   7.508   1.035
 4039TIP3    H112074   6.687   7.586   1.084
 4039TIP3    H212075   6.653   7.440   1.068
 4040TIP3   OH212076   4.866   4.225   4.646
 4040TIP3    H112077   4.934   4.228   4.712
 4040TIP3    H212078   4.894   4.156   4.585
 4041TIP3   OH212079   6.235   6.713   0.014
 4041TIP3    H112080   6.233   6.680  -0.076
 4041TIP3    H212081   6.270   6.641   0.066
 4042TIP3   OH212082   3.961   7.227   5.450
 4042TIP3    H112083   3.871   7.252   5.472
 4042TIP3    H212084   3.967   7.135   5.477
 4043TIP3   OH212085   6.277   7.164   6.526
 4043TIP3    H112086   6.287   7.215   6.606
 4043TIP3    H212087   6.273   7.230   6.456
 4044TIP3   OH212088   8.230   4.361   0.694
 4044TIP3    H112089   8.191   4.349   0.781
 4044TIP3    H212090   8.249   4.272   0.664
 4045TIP3   OH212091   4.426   7.153   6.650
 4045TIP3    H112092   4.409   7.247   6.638
 4045TIP3    H212093   4.346   7.110   6.620
 4046TIP3   OH212094   3.095   0.223   4.203
 4046TIP3    H112095   3.189   0.211   4.194
 4046TIP3    H212096   3.074   0.294   4.143
 4047TIP3   OH212097   3.467   5.726   4.922
 4047TIP3    H112098   3.413   5.798   4.890
 4047TIP3    H212099   3.477   5.668   4.847
 4048TIP3   OH212100   0.257   0.847   4.643
 4048TIP3    H112101   0.179   0.807   4.682
 4048TIP3    H212102   0.329   0.791   4.670
 4049TIP3   OH212103   5.032   2.282   5.581
 4049TIP3    H112104   5.051   2.369   5.617
 4049TIP3    H212105   5.102   2.266   5.519
 4050TIP3   OH212106   1.157   6.348   3.564
 4050TIP3    H112107   1.171   6.426   3.618
 4050TIP3    H212108   1.072   6.363   3.523
 4051TIP3   OH212109   1.209   1.529   2.221
 4051TIP3    H112110   1.142   1.545   2.287
 4051TIP3    H212111   1.228   1.616   2.185
 4052TIP3   OH212112   3.331   2.154   6.550
 4052TIP3    H112113   3.349   2.130   6.641
 4052TIP3    H212114   3.235   2.158   6.544
 4053TIP3   OH212115   2.217   3.673   6.703
 4053TIP3    H112116   2.214   3.578   6.710
 4053TIP3    H212117   2.239   3.703   6.791
 4054TIP3   OH212118   6.784   3.818   0.305
 4054TIP3    H112119   6.718   3.821   0.236
 4054TIP3    H212120   6.748   3.758   0.370
 4055TIP3   OH212121   5.277   2.630   6.614
 4055TIP3    H112122   5.337   2.555   6.613
 4055TIP3    H212123   5.318   2.694   6.556
 4056TIP3   OH212124   3.750   5.808   3.372
 4056TIP3    H112125   3.699   5.827   3.451
 4056TIP3    H212126   3.721   5.722   3.344
 4057TIP3   OH212127   5.275   2.182   2.573
 4057TIP3    H112128   5.196   2.231   2.548
 4057TIP3    H212129   5.344   2.248   2.574
 4058TIP3   OH212130   0.403   3.130   5.660
 4058TIP3    H112131   0.466   3.077   5.611
 4058TIP3    H212132   0.420   3.108   5.752
 4059TIP3   OH212133   1.217   4.727   5.932
 4059TIP3    H112134   1.280   4.786   5.972
 4059TIP3    H212135   1.229   4.644   5.978
 4060TIP3   OH212136   1.660   7.445   3.706
 4060TIP3    H112137   1.748   7.442   3.742
 4060TIP3    H212138   1.650   7.533   3.671
 4061TIP3   OH212139   0.582   7.677   0.451
 4061TIP3    H112140   0.666   7.656   0.409
 4061TIP3    H212141   0.553   7.594   0.489
 4062TIP3   OH212142   5.484   5.456   6.196
 4062TIP3    H112143   5.395   5.427   6.176
 4062TIP3    H212144   5.501   5.420   6.283
 4063TIP3   OH212145   0.827   2.115   2.271
 4063TIP3    H112146   0.783   2.150   2.193
 4063TIP3    H212147   0.831   2.021   2.256
 4064TIP3   OH212148   2.806   6.656   3.664
 4064TIP3    H112149   2.721   6.693   3.640
 4064TIP3    H212150   2.868   6.697   3.604
 4065TIP3   OH212151   7.101   2.041   3.646
 4065TIP3    H112152   7.112   2.103   3.717
 4065TIP3    H212153   7.185   2.043   3.599
 4066TIP3   OH212154   3.146   5.949   2.837
 4066TIP3    H112155   3.122   5.866   2.796
 4066TIP3    H212156   3.224   5.929   2.889
 4067TIP3   OH212157   2.100   0.804   6.701
 4067TIP3    H112158   2.070   0.757   6.624
 4067TIP3    H212159   2.123   0.891   6.668
 4068TIP3   OH212160   3.769   5.389   0.873
 4068TIP3    H112161   3.779   5.392   0.778
 4068TIP3    H212162   3.675   5.380   0.888
 4069TIP3   OH212163   3.799   4.739   4.777
 4069TIP3    H112164   3.723   4.698   4.818
 4069TIP3    H212165   3.863   4.669   4.771
 4070TIP3   OH212166   1.714   1.109   6.563
 4070TIP3    H112167   1.663   1.163   6.503
 4070TIP3    H212168   1.685   1.136   6.650
 4071TIP3   OH212169   3.369   4.015   0.383
 4071TIP3    H112170   3.448   3.961   0.392
 4071TIP3    H212171   3.349   4.013   0.289
 4072TIP3   OH212172   5.824   0.326   1.806
 4072TIP3    H112173   5.915   0.296   1.807
 4072TIP3    H212174   5.777   0.259   1.756
 4073TIP3   OH212175   4.352   6.126   6.626
 4073TIP3    H112176   4.277   6.116   6.684
 4073TIP3    H212177   4.409   6.190   6.669
 4074TIP3   OH212178   6.484   2.105   3.271
 4074TIP3    H112179   6.544   2.052   3.323
 4074TIP3    H212180   6.522   2.106   3.183
 4075TIP3   OH212181   7.028   5.927   1.241
 4075TIP3    H112182   6.980   5.910   1.159
 4075TIP3    H212183   7.043   6.021   1.241
 4076TIP3   OH212184   0.340   7.452   3.843
 4076TIP3    H112185   0.297   7.537   3.842
 4076TIP3    H212186   0.332   7.419   3.753
 4077TIP3   OH212187   4.617   2.950   6.287
 4077TIP3    H112188   4.601   3.003   6.209
 4077TIP3    H212189   4.545   2.888   6.289
 4078TIP3   OH212190   4.212   1.987   1.301
 4078TIP3    H112191   4.118   1.981   1.318
 4078TIP3    H212192   4.219   2.029   1.216
 4079TIP3   OH212193   6.525   1.002   1.309
 4079TIP3    H112194   6.592   1.039   1.366
 4079TIP3    H212195   6.575   0.959   1.239
 4080TIP3   OH212196   4.234   4.362   4.789
 4080TIP3    H112197   4.281   4.399   4.863
 4080TIP3    H212198   4.303   4.331   4.730
 4081TIP3   OH212199   7.671   6.316   4.529
 4081TIP3    H112200   7.715   6.384   4.479
 4081TIP3    H212201   7.664   6.351   4.617
 4082TIP3   OH212202   5.810   5.480   1.081
 4082TIP3    H112203   5.876   5.433   1.133
 4082TIP3    H212204   5.727   5.438   1.104
 4083TIP3   OH212205   5.115   7.419   0.521
 4083TIP3    H112206   5.108   7.389   0.431
 4083TIP3    H212207   5.060   7.358   0.571
 4084TIP3   OH212208   1.456   1.967   5.753
 4084TIP3    H112209   1.368   1.994   5.727
 4084TIP3    H212210   1.442   1.902   5.821
 4085TIP3   OH212211   2.647   1.000   3.873
 4085TIP3    H112212   2.628   1.032   3.962
 4085TIP3    H212213   2.720   0.938   3.885
 4086TIP3   OH212214   6.897   0.349   5.553
 4086TIP3    H112215   6.954   0.426   5.559
 4086TIP3    H212216   6.849   0.362   5.471
 4087TIP3   OH212217   3.863   3.842   4.471
 4087TIP3    H112218   3.816   3.763   4.445
 4087TIP3    H212219   3.893   3.880   4.389
 4088TIP3   OH212220   0.774   6.648   2.037
 4088TIP3    H112221   0.707   6.645   1.969
 4088TIP3    H212222   0.734   6.602   2.112
 4089TIP3   OH212223   3.515   6.455   1.468
 4089TIP3    H112224   3.491   6.483   1.557
 4089TIP3    H212225   3.526   6.537   1.420
 4090TIP3   OH212226   7.633   0.670   6.062
 4090TIP3    H112227   7.564   0.649   6.125
 4090TIP3    H212228   7.617   0.611   5.989
 4091TIP3   OH212229   2.211   1.612   5.914
 4091TIP3    H112230   2.268   1.630   5.989
 4091TIP3    H212231   2.257   1.651   5.839
 4092TIP3   OH212232   7.572   5.533   0.699
 4092TIP3    H112233   7.542   5.513   0.788
 4092TIP3    H212234   7.653   5.582   0.711
 4093TIP3   OH212235   5.662   4.520   1.381
 4093TIP3    H112236   5.581   4.532   1.429
 4093TIP3    H212237   5.641   4.455   1.314
 4094TIP3   OH212238   1.871   4.184   2.285
 4094TIP3    H112239   1.927   4.110   2.265
 4094TIP3    H212240   1.903   4.216   2.370
 4095TIP3   OH212241   0.035   2.778   0.982
 4095TIP3    H112242   0.071   2.804   1.067
 4095TIP3    H212243   0.052   2.853   0.925
 4096TIP3   OH212244   5.270   2.997   4.636
 4096TIP3    H112245   5.275   3.042   4.551
 4096TIP3    H212246   5.195   3.036   4.680
 4097TIP3   OH212247   3.289   2.923   1.543
 4097TIP3    H112248   3.349   2.963   1.607
 4097TIP3    H212249   3.347   2.878   1.481
 4098TIP3   OH212250   2.627   4.334   2.532
 4098TIP3    H112251   2.639   4.363   2.442
 4098TIP3    H212252   2.651   4.242   2.531
 4099TIP3   OH212253   4.681   5.690   3.503
 4099TIP3    H112254   4.652   5.671   3.414
 4099TIP3    H212255   4.661   5.610   3.552
 4100TIP3   OH212256   1.165   4.108   4.282
 4100TIP3    H112257   1.198   4.036   4.227
 4100TIP3    H212258   1.076   4.081   4.306
 4101TIP3   OH212259   7.496   7.377   1.916
 4101TIP3    H112260   7.561   7.404   1.981
 4101TIP3    H212261   7.516   7.430   1.839
 4102TIP3   OH212262   5.153   6.165   3.371
 4102TIP3    H112263   5.218   6.129   3.310
 4102TIP3    H212264   5.128   6.091   3.426
 4103TIP3   OH212265   0.117   3.971   0.718
 4103TIP3    H112266   0.161   4.044   0.674
 4103TIP3    H212267   0.049   3.944   0.657
 4104TIP3   OH212268   4.096   5.166   0.803
 4104TIP3    H112269   4.087   5.234   0.735
 4104TIP3    H212270   4.018   5.113   0.793
 4105TIP3   OH212271   6.246   5.152   0.123
 4105TIP3    H112272   6.161   5.130   0.162
 4105TIP3    H212273   6.224   5.206   0.047
 4106TIP3   OH212274   6.742   0.615   6.540
 4106TIP3    H112275   6.827   0.583   6.569
 4106TIP3    H212276   6.691   0.535   6.524
 4107TIP3   OH212277   5.698   2.144   5.770
 4107TIP3    H112278   5.732   2.084   5.704
 4107TIP3    H212279   5.615   2.106   5.797
 4108TIP3   OH212280   4.218   5.622   0.947
 4108TIP3    H112281   4.219   5.526   0.946
 4108TIP3    H212282   4.147   5.646   0.887
 4109TIP3   OH212283   5.877   2.383   2.429
 4109TIP3    H112284   5.801   2.327   2.443
 4109TIP3    H212285   5.841   2.462   2.388
 4110TIP3   OH212286   7.069   5.095   0.614
 4110TIP3    H112287   7.071   5.125   0.523
 4110TIP3    H212288   7.156   5.059   0.630
 4111TIP3   OH212289   5.080   7.073   5.508
 4111TIP3    H112290   5.084   6.996   5.564
 4111TIP3    H212291   5.158   7.066   5.452
 4112TIP3   OH212292   2.483   3.860   6.554
 4112TIP3    H112293   2.435   3.840   6.474
 4112TIP3    H212294   2.514   3.950   6.542
 4113TIP3   OH212295   6.906   7.760   6.680
 4113TIP3    H112296   6.907   7.720   6.767
 4113TIP3    H212297   6.970   7.830   6.685
 4114TIP3   OH212298   4.904   0.291   1.762
 4114TIP3    H112299   4.824   0.253   1.800
 4114TIP3    H212300   4.906   0.381   1.795
 4115TIP3   OH212301   0.970   4.548   2.877
 4115TIP3    H112302   1.060   4.514   2.870
 4115TIP3    H212303   0.925   4.486   2.934
 4116TIP3   OH212304   7.318   4.344   0.123
 4116TIP3    H112305   7.345   4.329   0.213
 4116TIP3    H212306   7.360   4.274   0.073
 4117TIP3   OH212307   8.279   1.039   1.608
 4117TIP3    H112308   8.298   1.041   1.702
 4117TIP3    H212309   8.264   1.131   1.585
 4118TIP3   OH212310   7.224   2.120   5.644
 4118TIP3    H112311   7.189   2.200   5.603
 4118TIP3    H212312   7.247   2.063   5.571
 4119TIP3   OH212313   7.996   5.347   0.816
 4119TIP3    H112314   7.952   5.428   0.790
 4119TIP3    H212315   7.940   5.309   0.883
 4120TIP3   OH212316   4.415   3.877   2.588
 4120TIP3    H112317   4.366   3.821   2.648
 4120TIP3    H212318   4.496   3.897   2.635
 4121TIP3   OH212319   0.968   1.490   5.950
 4121TIP3    H112320   1.002   1.424   6.011
 4121TIP3    H212321   0.920   1.551   6.005
 4122TIP3   OH212322   6.606   4.262   2.740
 4122TIP3    H112323   6.565   4.216   2.667
 4122TIP3    H212324   6.537   4.316   2.778
 4123TIP3   OH212325   0.850   1.615   3.244
 4123TIP3    H112326   0.801   1.665   3.308
 4123TIP3    H212327   0.929   1.588   3.290
 4124TIP3   OH212328   3.878   2.201   4.145
 4124TIP3    H112329   3.938   2.189   4.218
 4124TIP3    H212330   3.836   2.286   4.161
 4125TIP3   OH212331   5.201   2.653   4.684
 4125TIP3    H112332   5.178   2.691   4.600
 4125TIP3    H212333   5.221   2.562   4.665
 4126TIP3   OH212334   1.731   3.321   1.611
 4126TIP3    H112335   1.738   3.290   1.701
 4126TIP3    H212336   1.737   3.416   1.618
 4127TIP3   OH212337   1.490   1.393   0.037
 4127TIP3    H112338   1.558   1.447   0.077
 4127TIP3    H212339   1.460   1.444  -0.038
 4128TIP3   OH212340   1.936   2.538   6.616
 4128TIP3    H112341   1.941   2.470   6.683
 4128TIP3    H212342   1.979   2.614   6.656
 4129TIP3   OH212343   1.283   2.765   2.142
 4129TIP3    H112344   1.213   2.808   2.091
 4129TIP3    H212345   1.237   2.709   2.203
 4130TIP3   OH212346   4.334   1.376   3.573
 4130TIP3    H112347   4.363   1.465   3.551
 4130TIP3    H212348   4.239   1.384   3.580
 4131TIP3   OH212349   7.773   5.607   6.402
 4131TIP3    H112350   7.719   5.531   6.425
 4131TIP3    H212351   7.713   5.668   6.360
 4132TIP3   OH212352   4.322   2.559   3.055
 4132TIP3    H112353   4.350   2.572   3.145
 4132TIP3    H212354   4.246   2.501   3.061
 4133TIP3   OH212355   7.385   4.966   4.232
 4133TIP3    H112356   7.428   4.903   4.289
 4133TIP3    H212357   7.425   5.050   4.254
 4134TIP3   OH212358   1.005   0.732   0.372
 4134TIP3    H112359   0.961   0.679   0.305
 4134TIP3    H212360   1.002   0.821   0.337
 4135TIP3   OH212361   7.416   1.915   1.033
 4135TIP3    H112362   7.383   1.957   0.954
 4135TIP3    H212363   7.487   1.972   1.062
 4136TIP3   OH212364   3.864   2.654   0.158
 4136TIP3    H112365   3.879   2.687   0.069
 4136TIP3    H212366   3.772   2.630   0.160
 4137TIP3   OH212367   5.159   6.499   6.355
 4137TIP3    H112368   5.218   6.554   6.302
 4137TIP3    H212369   5.204   6.415   6.362
 4138TIP3   OH212370   6.081   7.404   1.684
 4138TIP3    H112371   6.030   7.463   1.628
 4138TIP3    H212372   6.015   7.354   1.732
 4139TIP3   OH212373   4.651   4.167   0.802
 4139TIP3    H112374   4.637   4.151   0.708
 4139TIP3    H212375   4.743   4.193   0.808
 4140TIP3   OH212376   5.280   6.816   0.801
 4140TIP3    H112377   5.229   6.763   0.739
 4140TIP3    H212378   5.235   6.901   0.801
 4141TIP3   OH212379   0.839   0.494   4.540
 4141TIP3    H112380   0.759   0.442   4.551
 4141TIP3    H212381   0.837   0.557   4.612
 4142TIP3   OH212382   0.994   7.814   6.102
 4142TIP3    H112383   1.025   7.726   6.084
 4142TIP3    H212384   1.030   7.867   6.030
 4143TIP3   OH212385   5.495   0.065   0.460
 4143TIP3    H112386   5.588   0.071   0.478
 4143TIP3    H212387   5.453   0.110   0.534
 4144TIP3   OH212388   0.718   1.343   3.756
 4144TIP3    H112389   0.663   1.420   3.776
 4144TIP3    H212390   0.665   1.268   3.783
 4145TIP3   OH212391   0.502   2.414   4.513
 4145TIP3    H112392   0.471   2.329   4.482
 4145TIP3    H212393   0.506   2.405   4.608
 4146TIP3   OH212394   0.282   2.894   0.765
 4146TIP3    H112395   0.217   2.935   0.708
 4146TIP3    H212396   0.248   2.805   0.778
 4147TIP3   OH212397   7.194   1.743   3.804
 4147TIP3    H112398   7.139   1.783   3.870
 4147TIP3    H212399   7.140   1.741   3.725
 4148TIP3   OH212400   2.297   5.772   5.864
 4148TIP3    H112401   2.216   5.815   5.835
 4148TIP3    H212402   2.340   5.837   5.919
 4149TIP3   OH212403   8.010   3.437   1.851
 4149TIP3    H112404   8.042   3.349   1.870
 4149TIP3    H212405   7.957   3.427   1.772
 4150TIP3   OH212406   6.057   1.894   5.923
 4150TIP3    H112407   6.147   1.895   5.890
 4150TIP3    H212408   6.048   1.976   5.970
 4151TIP3   OH212409   6.334   0.701   0.365
 4151TIP3    H112410   6.241   0.686   0.348
 4151TIP3    H212411   6.343   0.797   0.366
 4152TIP3   OH212412   0.208   7.614   3.243
 4152TIP3    H112413   0.193   7.520   3.239
 4152TIP3    H212414   0.173   7.648   3.161
 4153TIP3   OH212415   0.099   1.191   0.583
 4153TIP3    H112416   0.132   1.142   0.507
 4153TIP3    H212417   0.123   1.137   0.658
 4154TIP3   OH212418   5.026   6.710   3.385
 4154TIP3    H112419   5.103   6.680   3.432
 4154TIP3    H212420   4.997   6.788   3.432
 4155TIP3   OH212421   7.338   7.449   6.699
 4155TIP3    H112422   7.320   7.515   6.631
 4155TIP3    H212423   7.253   7.409   6.717
 4156TIP3   OH212424   2.231   2.342   3.429
 4156TIP3    H112425   2.325   2.329   3.415
 4156TIP3    H212426   2.190   2.314   3.346
 4157TIP3   OH212427   4.837   6.070   0.769
 4157TIP3    H112428   4.849   6.165   0.763
 4157TIP3    H212429   4.922   6.034   0.742
 4158TIP3   OH212430   1.167   0.560   1.606
 4158TIP3    H112431   1.146   0.519   1.690
 4158TIP3    H212432   1.086   0.603   1.580
 4159TIP3   OH212433   5.986   0.897   3.572
 4159TIP3    H112434   5.939   0.836   3.515
 4159TIP3    H212435   5.917   0.952   3.610
 4160TIP3   OH212436   3.588   7.500   6.117
 4160TIP3    H112437   3.546   7.534   6.038
 4160TIP3    H212438   3.545   7.415   6.132
 4161TIP3   OH212439   0.401   4.156   2.289
 4161TIP3    H112440   0.324   4.103   2.268
 4161TIP3    H212441   0.461   4.142   2.215
 4162TIP3   OH212442   3.046   3.777   5.469
 4162TIP3    H112443   3.142   3.779   5.474
 4162TIP3    H212444   3.019   3.838   5.538
 4163TIP3   OH212445   2.680   4.965   3.328
 4163TIP3    H112446   2.616   4.933   3.392
 4163TIP3    H212447   2.639   4.947   3.243
 4164TIP3   OH212448   0.221   3.338   5.245
 4164TIP3    H112449   0.169   3.399   5.192
 4164TIP3    H212450   0.300   3.323   5.193
 4165TIP3   OH212451   5.877   2.435   3.330
 4165TIP3    H112452   5.886   2.356   3.383
 4165TIP3    H212453   5.794   2.474   3.359
 4166TIP3   OH212454   2.557   5.001   2.288
 4166TIP3    H112455   2.621   5.018   2.218
 4166TIP3    H212456   2.605   5.018   2.369
 4167TIP3   OH212457   7.352   3.560   4.158
 4167TIP3    H112458   7.317   3.474   4.184
 4167TIP3    H212459   7.300   3.584   4.081
 4168TIP3   OH212460   4.830   2.185   1.532
 4168TIP3    H112461   4.837   2.147   1.620
 4168TIP3    H212462   4.881   2.266   1.537
 4169TIP3   OH212463   4.816   5.192   1.025
 4169TIP3    H112464   4.723   5.170   1.032
 4169TIP3    H212465   4.831   5.203   0.931
 4170TIP3   OH212466   5.694   6.822   6.454
 4170TIP3    H112467   5.719   6.865   6.536
 4170TIP3    H212468   5.776   6.784   6.422
 4171TIP3   OH212469   3.376   0.439   0.343
 4171TIP3    H112470   3.469   0.452   0.327
 4171TIP3    H212471   3.333   0.498   0.281
 4172TIP3   OH212472   4.632   6.828   3.255
 4172TIP3    H112473   4.679   6.748   3.280
 4172TIP3    H212474   4.557   6.796   3.205
 4173TIP3   OH212475   4.417   6.739   3.530
 4173TIP3    H112476   4.493   6.681   3.526
 4173TIP3    H212477   4.452   6.822   3.562
 4174TIP3   OH212478   3.168   4.079   5.255
 4174TIP3    H112479   3.091   4.101   5.203
 4174TIP3    H212480   3.140   4.092   5.346
 4175TIP3   OH212481   8.206   1.949   4.721
 4175TIP3    H112482   8.152   2.007   4.775
 4175TIP3    H212483   8.194   1.981   4.632
 4176TIP3   OH212484   5.464   7.070   0.949
 4176TIP3    H112485   5.491   7.057   0.858
 4176TIP3    H212486   5.546   7.068   0.999
 4177TIP3   OH212487   1.731   6.109   2.849
 4177TIP3    H112488   1.668   6.099   2.778
 4177TIP3    H212489   1.710   6.193   2.889
 4178TIP3   OH212490   7.594   2.014   2.593
 4178TIP3    H112491   7.603   2.105   2.563
 4178TIP3    H212492   7.670   2.000   2.650
 4179TIP3   OH212493   1.539   3.890   4.370
 4179TIP3    H112494   1.627   3.870   4.340
 4179TIP3    H212495   1.518   3.820   4.433
 4180TIP3   OH212496   4.801   6.821   5.739
 4180TIP3    H112497   4.867   6.758   5.709
 4180TIP3    H212498   4.761   6.854   5.658
 4181TIP3   OH212499   2.364   4.091   1.148
 4181TIP3    H112500   2.287   4.066   1.200
 4181TIP3    H212501   2.347   4.181   1.121
 4182TIP3   OH212502   2.245   7.811   6.424
 4182TIP3    H112503   2.258   7.747   6.354
 4182TIP3    H212504   2.152   7.804   6.446
 4183TIP3   OH212505   5.749   7.805   5.039
 4183TIP3    H112506   5.785   7.740   4.979
 4183TIP3    H212507   5.727   7.755   5.118
 4184TIP3   OH212508   6.433   0.325   5.226
 4184TIP3    H112509   6.423   0.413   5.263
 4184TIP3    H212510   6.468   0.340   5.138
 4185TIP3   OH212511   2.686   5.913   1.799
 4185TIP3    H112512   2.684   5.836   1.741
 4185TIP3    H212513   2.594   5.937   1.809
 4186TIP3   OH212514   4.172   7.397   2.247
 4186TIP3    H112515   4.195   7.304   2.247
 4186TIP3    H212516   4.103   7.406   2.312
 4187TIP3   OH212517   0.482   5.865   6.349
 4187TIP3    H112518   0.475   5.882   6.443
 4187TIP3    H212519   0.392   5.848   6.321
 4188TIP3   OH212520   2.467   1.217   1.482
 4188TIP3    H112521   2.425   1.158   1.419
 4188TIP3    H212522   2.534   1.263   1.432
 4189TIP3   OH212523   5.279   3.119   1.167
 4189TIP3    H112524   5.375   3.112   1.167
 4189TIP3    H212525   5.250   3.045   1.114
 4190TIP3   OH212526   6.047   4.060   1.388
 4190TIP3    H112527   6.120   4.029   1.442
 4190TIP3    H212528   6.066   4.153   1.373
 4191TIP3   OH212529   3.646   5.019   5.983
 4191TIP3    H112530   3.661   5.058   5.897
 4191TIP3    H212531   3.556   5.044   6.006
 4192TIP3   OH212532   2.805   3.987   1.105
 4192TIP3    H112533   2.900   3.975   1.108
 4192TIP3    H212534   2.779   3.996   1.197
 4193TIP3   OH212535   6.185   2.261   4.621
 4193TIP3    H112536   6.164   2.287   4.710
 4193TIP3    H212537   6.245   2.328   4.589
 4194TIP3   OH212538   5.243   4.087   2.168
 4194TIP3    H112539   5.167   4.143   2.183
 4194TIP3    H212540   5.263   4.050   2.254
 4195TIP3   OH212541   0.143   1.870   4.331
 4195TIP3    H112542   0.131   1.806   4.402
 4195TIP3    H212543   0.234   1.858   4.304
 4196TIP3   OH212544   3.900   3.666   2.013
 4196TIP3    H112545   3.883   3.666   1.919
 4196TIP3    H212546   3.834   3.726   2.049
 4197TIP3   OH212547   0.520   7.303   3.704
 4197TIP3    H112548   0.469   7.340   3.777
 4197TIP3    H212549   0.592   7.364   3.692
 4198TIP3   OH212550   6.611   1.190   0.349
 4198TIP3    H112551   6.541   1.125   0.342
 4198TIP3    H212552   6.585   1.260   0.289
 4199TIP3   OH212553   7.258   5.938   4.945
 4199TIP3    H112554   7.277   5.916   5.036
 4199TIP3    H212555   7.292   5.865   4.894
 4200TIP3   OH212556   5.401   1.043   0.575
 4200TIP3    H112557   5.403   1.131   0.539
 4200TIP3    H212558   5.394   0.986   0.499
 4201TIP3   OH212559   4.757   5.433   6.500
 4201TIP3    H112560   4.800   5.413   6.583
 4201TIP3    H212561   4.699   5.506   6.520
 4202TIP3   OH212562   0.208   4.158   0.533
 4202TIP3    H112563   0.193   4.112   0.450
 4202TIP3    H212564   0.303   4.151   0.547
 4203TIP3   OH212565   2.935   4.774   0.132
 4203TIP3    H112566   2.853   4.727   0.149
 4203TIP3    H212567   2.962   4.805   0.218
 4204TIP3   OH212568   6.534   1.494   5.595
 4204TIP3    H112569   6.449   1.452   5.605
 4204TIP3    H212570   6.584   1.435   5.538
 4205TIP3   OH212571   1.047   2.975   1.428
 4205TIP3    H112572   1.017   3.005   1.514
 4205TIP3    H212573   1.127   3.024   1.412
 4206TIP3   OH212574   4.222   2.061   0.230
 4206TIP3    H112575   4.268   1.984   0.195
 4206TIP3    H212576   4.243   2.060   0.323
 4207TIP3   OH212577   5.875   4.242   0.250
 4207TIP3    H112578   5.941   4.177   0.272
 4207TIP3    H212579   5.846   4.276   0.334
 4208TIP3   OH212580   1.533   0.262   3.676
 4208TIP3    H112581   1.575   0.176   3.670
 4208TIP3    H212582   1.459   0.256   3.616
 4209TIP3   OH212583   4.837   6.452   2.663
 4209TIP3    H112584   4.755   6.443   2.711
 4209TIP3    H212585   4.828   6.392   2.589
 4210TIP3   OH212586   4.596   3.192   2.568
 4210TIP3    H112587   4.512   3.145   2.572
 4210TIP3    H212588   4.596   3.234   2.482
 4211TIP3   OH212589   7.703   5.926   6.207
 4211TIP3    H112590   7.763   5.996   6.231
 4211TIP3    H212591   7.634   5.929   6.272
 4212TIP3   OH212592   2.677   3.319   1.794
 4212TIP3    H112593   2.716   3.406   1.794
 4212TIP3    H212594   2.751   3.260   1.808
 4213TIP3   OH212595   5.051   6.959   3.527
 4213TIP3    H112596   5.114   6.924   3.590
 4213TIP3    H212597   5.085   7.046   3.504
 4214TIP3   OH212598   3.984   1.916   0.151
 4214TIP3    H112599   4.060   1.864   0.177
 4214TIP3    H212600   4.006   2.005   0.178
 4215TIP3   OH212601   1.135   5.665   0.655
 4215TIP3    H112602   1.040   5.673   0.671
 4215TIP3    H212603   1.174   5.729   0.715
 4216TIP3   OH212604   7.805   1.396   6.137
 4216TIP3    H112605   7.863   1.325   6.163
 4216TIP3    H212606   7.783   1.440   6.219
 4217TIP3   OH212607   6.910   1.629   1.898
 4217TIP3    H112608   6.861   1.669   1.826
 4217TIP3    H212609   6.992   1.677   1.901
 4218TIP3   OH212610   6.602   3.292   4.625
 4218TIP3    H112611   6.555   3.221   4.669
 4218TIP3    H212612   6.550   3.311   4.547
 4219TIP3   OH212613   5.998   4.701   3.671
 4219TIP3    H112614   5.948   4.712   3.752
 4219TIP3    H212615   5.936   4.723   3.602
 4220TIP3   OH212616   2.984   7.556   1.732
 4220TIP3    H112617   2.896   7.585   1.757
 4220TIP3    H212618   2.981   7.553   1.636
 4221TIP3   OH212619   6.049   6.496   1.421
 4221TIP3    H112620   6.031   6.583   1.387
 4221TIP3    H212621   6.022   6.437   1.350
 4222TIP3   OH212622   7.406   5.303   2.895
 4222TIP3    H112623   7.482   5.294   2.953
 4222TIP3    H212624   7.341   5.243   2.932
 4223TIP3   OH212625   3.062   6.862   2.205
 4223TIP3    H112626   3.086   6.952   2.185
 4223TIP3    H212627   2.975   6.868   2.243
 4224TIP3   OH212628   7.584   6.759   5.128
 4224TIP3    H112629   7.605   6.852   5.134
 4224TIP3    H212630   7.616   6.721   5.210
 4225TIP3   OH212631   7.159   2.949   6.657
 4225TIP3    H112632   7.095   2.916   6.719
 4225TIP3    H212633   7.227   2.988   6.712
 4226TIP3   OH212634   2.476   6.589   4.984
 4226TIP3    H112635   2.419   6.663   4.962
 4226TIP3    H212636   2.498   6.549   4.900
 4227TIP3   OH212637   5.507   3.403   1.294
 4227TIP3    H112638   5.584   3.419   1.347
 4227TIP3    H212639   5.509   3.310   1.275
 4228TIP3   OH212640   3.695   2.555   0.446
 4228TIP3    H112641   3.619   2.604   0.476
 4228TIP3    H212642   3.682   2.547   0.351
 4229TIP3   OH212643   5.607   1.998   1.986
 4229TIP3    H112644   5.658   2.075   1.961
 4229TIP3    H212645   5.527   2.003   1.934
 4230TIP3   OH212646   8.170   1.414   3.045
 4230TIP3    H112647   8.162   1.407   3.140
 4230TIP3    H212648   8.119   1.492   3.022
 4231TIP3   OH212649   6.835   6.806   3.440
 4231TIP3    H112650   6.872   6.893   3.428
 4231TIP3    H212651   6.826   6.771   3.352
 4232TIP3   OH212652   7.626   6.228   4.248
 4232TIP3    H112653   7.586   6.250   4.332
 4232TIP3    H212654   7.670   6.144   4.265
 4233TIP3   OH212655   4.508   7.597   6.502
 4233TIP3    H112656   4.601   7.576   6.496
 4233TIP3    H212657   4.475   7.587   6.412
 4234TIP3   OH212658   6.571   5.883   4.017
 4234TIP3    H112659   6.517   5.953   3.981
 4234TIP3    H212660   6.514   5.839   4.080
 4235TIP3   OH212661   2.050   4.804   1.559
 4235TIP3    H112662   2.105   4.771   1.629
 4235TIP3    H212663   1.991   4.866   1.602
 4236TIP3   OH212664   7.124   4.479   2.042
 4236TIP3    H112665   7.182   4.532   1.988
 4236TIP3    H212666   7.122   4.524   2.127
 4237TIP3   OH212667   5.926   5.430   0.698
 4237TIP3    H112668   5.917   5.508   0.753
 4237TIP3    H212669   5.896   5.358   0.754
 4238TIP3   OH212670   4.851   6.269   1.587
 4238TIP3    H112671   4.935   6.247   1.626
 4238TIP3    H212672   4.853   6.364   1.578
 4239TIP3   OH212673   7.106   1.067   2.697
 4239TIP3    H112674   7.113   1.081   2.603
 4239TIP3    H212675   7.073   1.150   2.732
 4240TIP3   OH212676   7.473   5.882   3.554
 4240TIP3    H112677   7.427   5.826   3.616
 4240TIP3    H212678   7.494   5.961   3.604
 4241TIP3   OH212679   7.218   7.730   5.941
 4241TIP3    H112680   7.255   7.655   5.989
 4241TIP3    H212681   7.145   7.759   5.995
 4242TIP3   OH212682   3.606   6.581   5.832
 4242TIP3    H112683   3.566   6.657   5.876
 4242TIP3    H212684   3.531   6.529   5.803
 4243TIP3   OH212685   4.684   1.394   5.510
 4243TIP3    H112686   4.677   1.488   5.529
 4243TIP3    H212687   4.753   1.363   5.569
 4244TIP3   OH212688   2.817   1.535   1.135
 4244TIP3    H112689   2.887   1.473   1.113
 4244TIP3    H212690   2.790   1.571   1.050
 4245TIP3   OH212691   0.918   1.640   4.040
 4245TIP3    H112692   0.991   1.686   4.081
 4245TIP3    H212693   0.935   1.646   3.946
 4246TIP3   OH212694   2.968   4.024   2.183
 4246TIP3    H112695   2.993   4.108   2.146
 4246TIP3    H212696   2.906   3.987   2.120
 4247TIP3   OH212697   7.413   2.039   1.611
 4247TIP3    H112698   7.459   1.964   1.648
 4247TIP3    H212699   7.320   2.020   1.626
 4248TIP3   OH212700   7.275   0.632   1.699
 4248TIP3    H112701   7.227   0.566   1.649
 4248TIP3    H212702   7.362   0.593   1.711
 4249TIP3   OH212703   5.218   3.335   0.504
 4249TIP3    H112704   5.127   3.330   0.475
 4249TIP3    H212705   5.230   3.427   0.530
 4250TIP3   OH212706   7.282   3.042   6.044
 4250TIP3    H112707   7.354   3.007   5.992
 4250TIP3    H212708   7.233   3.097   5.983
 4251TIP3   OH212709   6.503   7.699   5.373
 4251TIP3    H112710   6.480   7.621   5.423
 4251TIP3    H212711   6.419   7.730   5.337
 4252TIP3   OH212712   7.511   2.636   6.073
 4252TIP3    H112713   7.459   2.679   6.006
 4252TIP3    H212714   7.537   2.707   6.132
 4253TIP3   OH212715   4.877   7.740   0.398
 4253TIP3    H112716   4.789   7.778   0.387
 4253TIP3    H212717   4.930   7.813   0.431
 4254TIP3   OH212718   0.467   5.843   0.136
 4254TIP3    H112719   0.525   5.811   0.206
 4254TIP3    H212720   0.436   5.928   0.168
 4255TIP3   OH212721   5.264   5.404   5.170
 4255TIP3    H112722   5.244   5.346   5.097
 4255TIP3    H212723   5.189   5.463   5.175
 4256TIP3   OH212724   4.592   0.847   4.861
 4256TIP3    H112725   4.601   0.887   4.774
 4256TIP3    H212726   4.613   0.919   4.921
 4257TIP3   OH212727   4.705   3.516   0.472
 4257TIP3    H112728   4.626   3.533   0.524
 4257TIP3    H212729   4.685   3.435   0.424
 4258TIP3   OH212730   5.199   4.276   5.059
 4258TIP3    H112731   5.267   4.210   5.075
 4258TIP3    H212732   5.161   4.251   4.975
 4259TIP3   OH212733   1.149   7.692   2.018
 4259TIP3    H112734   1.202   7.768   2.040
 4259TIP3    H212735   1.107   7.714   1.935
 4260TIP3   OH212736   8.051   5.246   1.862
 4260TIP3    H112737   8.073   5.154   1.852
 4260TIP3    H212738   8.131   5.293   1.839
 4261TIP3   OH212739   0.394   4.850   5.131
 4261TIP3    H112740   0.361   4.811   5.050
 4261TIP3    H212741   0.318   4.856   5.188
 4262TIP3   OH212742   0.743   4.210   3.488
 4262TIP3    H112743   0.682   4.270   3.531
 4262TIP3    H212744   0.804   4.185   3.557
 4263TIP3   OH212745   7.990   3.267   5.011
 4263TIP3    H112746   7.899   3.288   5.034
 4263TIP3    H212747   8.037   3.349   5.023
 4264TIP3   OH212748   0.021   6.746   6.076
 4264TIP3    H112749   0.057   6.833   6.063
 4264TIP3    H212750   0.096   6.687   6.067
 4265TIP3   OH212751   7.208   7.426   4.564
 4265TIP3    H112752   7.180   7.483   4.636
 4265TIP3    H212753   7.223   7.485   4.491
 4266TIP3   OH212754   6.956   5.955   0.235
 4266TIP3    H112755   6.912   6.012   0.298
 4266TIP3    H212756   7.022   6.011   0.194
 4267TIP3   OH212757   6.316   4.923   5.004
 4267TIP3    H112758   6.228   4.959   4.993
 4267TIP3    H212759   6.333   4.930   5.098
 4268TIP3   OH212760   5.301   4.167   3.789
 4268TIP3    H112761   5.297   4.260   3.768
 4268TIP3    H212762   5.356   4.162   3.868
 4269TIP3   OH212763   7.320   2.318   2.627
 4269TIP3    H112764   7.326   2.344   2.719
 4269TIP3    H212765   7.406   2.340   2.591
 4270TIP3   OH212766   1.411   3.129   3.766
 4270TIP3    H112767   1.418   3.044   3.811
 4270TIP3    H212768   1.462   3.189   3.819
 4271TIP3   OH212769   4.344   5.792   0.695
 4271TIP3    H112770   4.338   5.782   0.600
 4271TIP3    H212771   4.255   5.810   0.723
 4272TIP3   OH212772   3.141   6.727   1.616
 4272TIP3    H112773   3.214   6.725   1.555
 4272TIP3    H212774   3.128   6.821   1.634
 4273TIP3   OH212775   4.271   2.069   4.047
 4273TIP3    H112776   4.361   2.040   4.031
 4273TIP3    H212777   4.273   2.105   4.136
 4274TIP3   OH212778   6.624   2.991  -0.015
 4274TIP3    H112779   6.596   2.910   0.029
 4274TIP3    H212780   6.580   3.061   0.033
 4275TIP3   OH212781   7.052   3.872   6.492
 4275TIP3    H112782   6.959   3.864   6.514
 4275TIP3    H212783   7.086   3.936   6.554
 4276TIP3   OH212784   1.065   0.848   6.105
 4276TIP3    H112785   1.072   0.754   6.086
 4276TIP3    H212786   1.153   0.873   6.135
 4277TIP3   OH212787   2.233   7.658   2.844
 4277TIP3    H112788   2.324   7.627   2.838
 4277TIP3    H212789   2.184   7.596   2.789
 4278TIP3   OH212790   2.860   2.076   2.935
 4278TIP3    H112791   2.810   2.132   2.995
 4278TIP3    H212792   2.806   2.071   2.857
 4279TIP3   OH212793   4.531   4.851   2.697
 4279TIP3    H112794   4.513   4.928   2.751
 4279TIP3    H212795   4.456   4.847   2.637
 4280TIP3   OH212796   3.521   0.765   4.670
 4280TIP3    H112797   3.480   0.850   4.656
 4280TIP3    H212798   3.463   0.703   4.626
 4281TIP3   OH212799   7.373   3.427   3.846
 4281TIP3    H112800   7.316   3.352   3.861
 4281TIP3    H212801   7.323   3.502   3.878
 4282TIP3   OH212802   5.386   5.185   0.413
 4282TIP3    H112803   5.454   5.129   0.375
 4282TIP3    H212804   5.434   5.250   0.465
 4283TIP3   OH212805   7.891   1.403   2.510
 4283TIP3    H112806   7.816   1.373   2.562
 4283TIP3    H212807   7.853   1.430   2.427
 4284TIP3   OH212808   3.215   3.028   3.111
 4284TIP3    H112809   3.216   3.069   3.197
 4284TIP3    H212810   3.169   2.945   3.124
 4285TIP3   OH212811   0.749   4.704   5.707
 4285TIP3    H112812   0.808   4.655   5.649
 4285TIP3    H212813   0.676   4.644   5.723
 4286TIP3   OH212814   2.946   6.623   1.220
 4286TIP3    H112815   3.001   6.551   1.249
 4286TIP3    H212816   2.880   6.632   1.290
 4287TIP3   OH212817   7.912   1.757   0.515
 4287TIP3    H112818   7.838   1.796   0.468
 4287TIP3    H212819   7.956   1.704   0.449
 4288TIP3   OH212820   0.826   0.765   1.903
 4288TIP3    H112821   0.843   0.841   1.847
 4288TIP3    H212822   0.895   0.702   1.879
 4289TIP3   OH212823   1.624   2.367   4.596
 4289TIP3    H112824   1.707   2.320   4.604
 4289TIP3    H212825   1.612   2.409   4.682
 4290TIP3   OH212826   4.271   5.709   6.382
 4290TIP3    H112827   4.344   5.771   6.386
 4290TIP3    H212828   4.266   5.684   6.290
 4291TIP3   OH212829   6.374   3.233   2.006
 4291TIP3    H112830   6.355   3.236   1.912
 4291TIP3    H212831   6.290   3.214   2.047
 4292TIP3   OH212832   8.055   0.233   1.626
 4292TIP3    H112833   8.055   0.138   1.618
 4292TIP3    H212834   8.140   0.261   1.592
 4293TIP3   OH212835   1.399   5.884   4.860
 4293TIP3    H112836   1.309   5.908   4.880
 4293TIP3    H212837   1.450   5.962   4.882
 4294TIP3   OH212838   0.233   6.252   3.314
 4294TIP3    H112839   0.201   6.307   3.242
 4294TIP3    H212840   0.218   6.303   3.393
 4295TIP3   OH212841   6.353   4.203   1.297
 4295TIP3    H112842   6.385   4.144   1.365
 4295TIP3    H212843   6.270   4.235   1.331
 4296TIP3   OH212844   7.014   7.071   3.781
 4296TIP3    H112845   7.105   7.071   3.752
 4296TIP3    H212846   7.019   7.077   3.876
 4297TIP3   OH212847   7.553   3.295   1.284
 4297TIP3    H112848   7.544   3.277   1.377
 4297TIP3    H212849   7.602   3.220   1.250
 4298TIP3   OH212850   2.243   5.352   5.160
 4298TIP3    H112851   2.207   5.425   5.109
 4298TIP3    H212852   2.316   5.391   5.208
 4299TIP3   OH212853   7.583   7.162   6.085
 4299TIP3    H112854   7.519   7.232   6.097
 4299TIP3    H212855   7.590   7.152   5.990
 4300TIP3   OH212856   6.890   6.173   0.388
 4300TIP3    H112857   6.971   6.214   0.416
 4300TIP3    H212858   6.822   6.235   0.412
 4301TIP3   OH212859   7.947   3.575   3.697
 4301TIP3    H112860   7.956   3.511   3.627
 4301TIP3    H212861   7.981   3.530   3.775
 4302TIP3   OH212862   0.007   0.873   4.457
 4302TIP3    H112863   0.089   0.865   4.506
 4302TIP3    H212864   0.011   0.802   4.392
 4303TIP3   OH212865   7.409   6.364   0.194
 4303TIP3    H112866   7.374   6.376   0.106
 4303TIP3    H212867   7.438   6.272   0.196
 4304TIP3   OH212868   6.336   1.032   5.289
 4304TIP3    H112869   6.395   1.007   5.218
 4304TIP3    H212870   6.252   0.994   5.266
 4305TIP3   OH212871   7.219   3.340   6.300
 4305TIP3    H112872   7.162   3.370   6.371
 4305TIP3    H212873   7.308   3.351   6.336
 4306TIP3   OH212874   7.062   2.146   3.157
 4306TIP3    H112875   7.017   2.211   3.104
 4306TIP3    H212876   7.007   2.136   3.234
 4307TIP3   OH212877   5.140   3.639   6.114
 4307TIP3    H112878   5.054   3.614   6.148
 4307TIP3    H212879   5.122   3.675   6.027
 4308TIP3   OH212880   6.817   5.106   0.739
 4308TIP3    H112881   6.892   5.127   0.683
 4308TIP3    H212882   6.741   5.114   0.681
 4309TIP3   OH212883   0.508   2.738   0.151
 4309TIP3    H112884   0.443   2.773   0.090
 4309TIP3    H212885   0.487   2.644   0.156
 4310TIP3   OH212886   6.011   6.604   5.954
 4310TIP3    H112887   6.023   6.537   6.020
 4310TIP3    H212888   6.093   6.653   5.954
 4311TIP3   OH212889   6.444   0.104   5.405
 4311TIP3    H112890   6.446   0.169   5.335
 4311TIP3    H212891   6.533   0.071   5.409
 4312TIP3   OH212892   1.948   4.098   5.847
 4312TIP3    H112893   1.929   4.095   5.753
 4312TIP3    H212894   2.039   4.069   5.854
 4313TIP3   OH212895   3.587   3.500   1.124
 4313TIP3    H112896   3.600   3.595   1.125
 4313TIP3    H212897   3.556   3.481   1.035
 4314TIP3   OH212898   6.872  -0.010   3.043
 4314TIP3    H112899   6.881   0.067   3.099
 4314TIP3    H212900   6.883   0.023   2.954
 4315TIP3   OH212901   4.852   2.279   6.757
 4315TIP3    H112902   4.764   2.307   6.731
 4315TIP3    H212903   4.893   2.358   6.792
 4316TIP3   OH212904   7.381   2.618   2.260
 4316TIP3    H112905   7.461   2.671   2.265
 4316TIP3    H212906   7.377   2.590   2.168
 4317TIP3   OH212907   7.830   1.329   5.027
 4317TIP3    H112908   7.854   1.421   5.012
 4317TIP3    H212909   7.746   1.334   5.074
 4318TIP3   OH212910   2.803   5.651   1.885
 4318TIP3    H112911   2.883   5.702   1.899
 4318TIP3    H212912   2.734   5.716   1.875
 4319TIP3   OH212913   7.552   2.874   4.789
 4319TIP3    H112914   7.503   2.824   4.724
 4319TIP3    H212915   7.486   2.906   4.851
 4320TIP3   OH212916   0.520   1.979   0.129
 4320TIP3    H112917   0.553   2.005   0.215
 4320TIP3    H212918   0.587   1.920   0.095
 4321TIP3   OH212919   6.681   5.956   0.596
 4321TIP3    H112920   6.749   5.916   0.651
 4321TIP3    H212921   6.723   5.966   0.510
 4322TIP3   OH212922   2.436   7.004   6.251
 4322TIP3    H112923   2.391   7.060   6.188
 4322TIP3    H212924   2.429   6.916   6.215
 4323TIP3   OH212925   5.889   7.380   1.267
 4323TIP3    H112926   5.873   7.340   1.352
 4323TIP3    H212927   5.841   7.325   1.205
 4324TIP3   OH212928   0.845   1.948   6.409
 4324TIP3    H112929   0.884   1.942   6.322
 4324TIP3    H212930   0.907   1.999   6.460
 4325TIP3   OH212931   7.126   0.465   6.733
 4325TIP3    H112932   7.127   0.394   6.669
 4325TIP3    H212933   7.204   0.449   6.787
 4326TIP3   OH212934   3.637   5.917   3.031
 4326TIP3    H112935   3.661   5.934   2.940
 4326TIP3    H212936   3.720   5.915   3.078
 4327TIP3   OH212937   7.903   2.036   4.404
 4327TIP3    H112938   7.865   1.971   4.463
 4327TIP3    H212939   7.991   2.051   4.438
 4328TIP3   OH212940   4.195   0.744   4.687
 4328TIP3    H112941   4.187   0.760   4.781
 4328TIP3    H212942   4.112   0.775   4.651
 4329TIP3   OH212943   4.774   2.435   0.483
 4329TIP3    H112944   4.817   2.435   0.397
 4329TIP3    H212945   4.816   2.364   0.531
 4330TIP3   OH212946   5.806   3.710   1.473
 4330TIP3    H112947   5.763   3.624   1.474
 4330TIP3    H212948   5.892   3.693   1.436
 4331TIP3   OH212949   3.473   4.783   1.565
 4331TIP3    H112950   3.441   4.777   1.475
 4331TIP3    H212951   3.393   4.791   1.618
 4332TIP3   OH212952   4.236   7.735   6.678
 4332TIP3    H112953   4.200   7.751   6.591
 4332TIP3    H212954   4.331   7.742   6.666
 4333TIP3   OH212955   3.095   6.882   5.243
 4333TIP3    H112956   3.116   6.880   5.150
 4333TIP3    H212957   3.109   6.792   5.273
 4334TIP3   OH212958   5.489   0.606   2.821
 4334TIP3    H112959   5.419   0.590   2.884
 4334TIP3    H212960   5.443   0.625   2.739
 4335TIP3   OH212961   4.400   4.826   2.213
 4335TIP3    H112962   4.319   4.833   2.163
 4335TIP3    H212963   4.373   4.788   2.296
 4336TIP3   OH212964   5.003   2.717   2.382
 4336TIP3    H112965   4.918   2.760   2.385
 4336TIP3    H212966   5.050   2.752   2.458
 4337TIP3   OH212967   6.089   6.865   0.466
 4337TIP3    H112968   6.059   6.777   0.441
 4337TIP3    H212969   6.134   6.898   0.389
 4338TIP3   OH212970   2.671   1.113   6.081
 4338TIP3    H112971   2.679   1.028   6.038
 4338TIP3    H212972   2.728   1.107   6.157
 4339TIP3   OH212973   3.418   5.561   1.187
 4339TIP3    H112974   3.342   5.586   1.240
 4339TIP3    H212975   3.405   5.468   1.169
 4340TIP3   OH212976   1.830   4.026   3.848
 4340TIP3    H112977   1.852   4.040   3.940
 4340TIP3    H212978   1.745   4.068   3.837
 4341TIP3   OH212979   7.834   3.393   5.550
 4341TIP3    H112980   7.903   3.348   5.501
 4341TIP3    H212981   7.833   3.348   5.635
 4342TIP3   OH212982   6.698   0.209   6.029
 4342TIP3    H112983   6.774   0.240   5.980
 4342TIP3    H212984   6.701   0.114   6.018
 4343TIP3   OH212985   3.061   3.463   5.502
 4343TIP3    H112986   2.990   3.462   5.567
 4343TIP3    H212987   3.054   3.549   5.460
 4344TIP3   OH212988   0.090   3.516   5.088
 4344TIP3    H112989   0.024   3.585   5.097
 4344TIP3    H212990   0.145   3.545   5.015
 4345TIP3   OH212991   3.419   1.985   0.190
 4345TIP3    H112992   3.442   1.976   0.283
 4345TIP3    H212993   3.333   2.026   0.191
 4346TIP3   OH212994   1.929   2.148   2.796
 4346TIP3    H112995   1.964   2.152   2.707
 4346TIP3    H212996   2.002   2.177   2.851
 4347TIP3   OH212997   4.075   2.418   0.669
 4347TIP3    H112998   4.104   2.355   0.604
 4347TIP3    H212999   4.092   2.503   0.629
 4348TIP3   OH213000   5.575   6.946   3.465
 4348TIP3    H113001   5.570   6.976   3.556
 4348TIP3    H213002   5.495   6.895   3.452
 4349TIP3   OH213003   2.307   6.342   6.455
 4349TIP3    H113004   2.304   6.437   6.466
 4349TIP3    H213005   2.215   6.317   6.445
 4350TIP3   OH213006   8.022   5.525   4.721
 4350TIP3    H113007   7.932   5.501   4.740
 4350TIP3    H213008   8.066   5.442   4.702
 4351TIP3   OH213009   5.719   2.925   4.936
 4351TIP3    H113010   5.782   2.997   4.943
 4351TIP3    H213011   5.774   2.846   4.933
 4352TIP3   OH213012   5.692   1.561   6.440
 4352TIP3    H113013   5.676   1.479   6.394
 4352TIP3    H213014   5.787   1.566   6.449
 4353TIP3   OH213015   4.334   0.859   5.630
 4353TIP3    H113016   4.283   0.888   5.555
 4353TIP3    H213017   4.410   0.815   5.592
 4354TIP3   OH213018   2.804   4.928   1.353
 4354TIP3    H113019   2.878   4.961   1.404
 4354TIP3    H213020   2.843   4.885   1.278
 4355TIP3   OH213021   1.149   5.044   5.860
 4355TIP3    H113022   1.071   5.077   5.905
 4355TIP3    H213023   1.204   5.009   5.930
 4356TIP3   OH213024   3.880   3.484   4.267
 4356TIP3    H113025   3.880   3.406   4.323
 4356TIP3    H213026   3.946   3.542   4.305
 4357TIP3   OH213027   1.945   5.767   0.149
 4357TIP3    H113028   1.894   5.768   0.230
 4357TIP3    H213029   1.992   5.850   0.149
 4358TIP3   OH213030   6.587   5.181   4.969
 4358TIP3    H113031   6.678   5.198   4.947
 4358TIP3    H213032   6.590   5.103   5.026
 4359TIP3   OH213033   7.693   1.322   0.515
 4359TIP3    H113034   7.644   1.403   0.503
 4359TIP3    H213035   7.648   1.277   0.587
 4360TIP3   OH213036   5.910   5.974   0.432
 4360TIP3    H113037   5.999   5.982   0.465
 4360TIP3    H213038   5.862   6.048   0.471
 4361TIP3   OH213039   3.196   5.595   4.226
 4361TIP3    H113040   3.188   5.689   4.211
 4361TIP3    H213041   3.188   5.556   4.139
 4362TIP3   OH213042   6.803   7.748   0.886
 4362TIP3    H113043   6.801   7.653   0.898
 4362TIP3    H213044   6.720   7.768   0.842
 4363TIP3   OH213045   2.057   7.460   3.014
 4363TIP3    H113046   2.088   7.497   2.931
 4363TIP3    H213047   2.106   7.379   3.024
 4364TIP3   OH213048   2.387   2.099   5.217
 4364TIP3    H113049   2.445   2.171   5.243
 4364TIP3    H213050   2.322   2.094   5.287
 4365TIP3   OH213051   3.997   3.660   2.265
 4365TIP3    H113052   3.953   3.603   2.328
 4365TIP3    H213053   3.970   3.628   2.179
 4366TIP3   OH213054   4.333   2.615   0.028
 4366TIP3    H113055   4.256   2.606   0.084
 4366TIP3    H213056   4.306   2.677  -0.040
 4367TIP3   OH213057   1.022   5.326   2.768
 4367TIP3    H113058   1.025   5.278   2.851
 4367TIP3    H213059   1.085   5.397   2.779
 4368TIP3   OH213060   7.612   5.044   2.007
 4368TIP3    H113061   7.681   5.103   2.037
 4368TIP3    H213062   7.658   4.962   1.986
 4369TIP3   OH213063   5.772   5.443   5.137
 4369TIP3    H113064   5.770   5.535   5.162
 4369TIP3    H213065   5.691   5.407   5.172
 4370TIP3   OH213066   1.845   5.864   2.908
 4370TIP3    H113067   1.939   5.862   2.926
 4370TIP3    H213068   1.827   5.954   2.881
 4371TIP3   OH213069   0.307   0.369   1.795
 4371TIP3    H113070   0.336   0.283   1.765
 4371TIP3    H213071   0.327   0.370   1.888
 4372TIP3   OH213072   6.599   5.556   4.417
 4372TIP3    H113073   6.545   5.511   4.352
 4372TIP3    H213074   6.628   5.636   4.372
 4373TIP3   OH213075   4.826   2.375   6.359
 4373TIP3    H113076   4.854   2.403   6.272
 4373TIP3    H213077   4.884   2.423   6.419
 4374TIP3   OH213078   3.621   2.270   6.623
 4374TIP3    H113079   3.687   2.201   6.616
 4374TIP3    H213080   3.541   2.228   6.590
 4375TIP3   OH213081   3.077   1.084   4.770
 4375TIP3    H113082   3.036   1.140   4.836
 4375TIP3    H213083   3.137   1.141   4.723
 4376TIP3   OH213084   0.673   6.511   4.158
 4376TIP3    H113085   0.625   6.432   4.135
 4376TIP3    H213086   0.611   6.582   4.143
 4377TIP3   OH213087   5.328   4.521   5.335
 4377TIP3    H113088   5.402   4.526   5.275
 4377TIP3    H213089   5.355   4.572   5.411
 4378TIP3   OH213090   0.607   1.201   5.296
 4378TIP3    H113091   0.554   1.269   5.254
 4378TIP3    H213092   0.665   1.170   5.227
 4379TIP3   OH213093   3.343   0.678   0.547
 4379TIP3    H113094   3.351   0.592   0.505
 4379TIP3    H213095   3.336   0.658   0.641
 4380TIP3   OH213096   0.429   5.846   0.638
 4380TIP3    H113097   0.411   5.802   0.554
 4380TIP3    H213098   0.522   5.869   0.633
 4381TIP3   OH213099   0.309   7.014   0.872
 4381TIP3    H113100   0.403   7.012   0.858
 4381TIP3    H213101   0.286   6.923   0.893
 4382TIP3   OH213102   5.365   4.410   4.839
 4382TIP3    H113103   5.331   4.321   4.846
 4382TIP3    H213104   5.447   4.408   4.888
 4383TIP3   OH213105   7.270   7.240   2.733
 4383TIP3    H113106   7.346   7.204   2.777
 4383TIP3    H213107   7.282   7.335   2.739
 4384TIP3   OH213108   5.061   2.268   3.144
 4384TIP3    H113109   5.044   2.291   3.053
 4384TIP3    H213110   5.156   2.276   3.154
 4385TIP3   OH213111   6.257   2.130   5.713
 4385TIP3    H113112   6.246   2.209   5.766
 4385TIP3    H213113   6.277   2.061   5.776
 4386TIP3   OH213114   2.203   2.005   3.212
 4386TIP3    H113115   2.193   2.094   3.178
 4386TIP3    H213116   2.119   1.985   3.253
 4387TIP3   OH213117   2.378   2.231   4.263
 4387TIP3    H113118   2.353   2.156   4.317
 4387TIP3    H213119   2.424   2.192   4.188
 4388TIP3   OH213120   6.471   0.948   4.260
 4388TIP3    H113121   6.541   0.888   4.235
 4388TIP3    H213122   6.492   0.973   4.350
 4389TIP3   OH213123   2.887   1.704   4.021
 4389TIP3    H113124   2.940   1.731   3.946
 4389TIP3    H213125   2.802   1.743   4.006
 4390TIP3   OH213126   3.544   2.566   4.497
 4390TIP3    H113127   3.555   2.602   4.586
 4390TIP3    H213128   3.459   2.599   4.468
 4391TIP3   OH213129   1.087   4.803   1.980
 4391TIP3    H113130   1.043   4.724   1.946
 4391TIP3    H213131   1.113   4.851   1.902
 4392TIP3   OH213132   2.102   4.438   2.975
 4392TIP3    H113133   2.097   4.488   2.893
 4392TIP3    H213134   2.175   4.377   2.962
 4393TIP3   OH213135   1.146   4.639   1.090
 4393TIP3    H113136   1.114   4.627   1.179
 4393TIP3    H213137   1.108   4.566   1.040
 4394TIP3   OH213138   3.244   5.438   3.693
 4394TIP3    H113139   3.312   5.477   3.747
 4394TIP3    H213140   3.185   5.511   3.673
 4395TIP3   OH213141   4.660   7.266   4.232
 4395TIP3    H113142   4.592   7.278   4.298
 4395TIP3    H213143   4.629   7.194   4.178
 4396TIP3   OH213144   4.676   1.954   5.257
 4396TIP3    H113145   4.712   2.010   5.327
 4396TIP3    H213146   4.740   1.960   5.187
 4397TIP3   OH213147   2.606   3.299   1.327
 4397TIP3    H113148   2.671   3.344   1.381
 4397TIP3    H213149   2.525   3.304   1.377
 4398TIP3   OH213150   4.208   1.518   0.058
 4398TIP3    H113151   4.116   1.511   0.083
 4398TIP3    H213152   4.257   1.504   0.139
 4399TIP3   OH213153   7.084   1.898   2.860
 4399TIP3    H113154   7.014   1.901   2.796
 4399TIP3    H213155   7.150   1.959   2.827
 4400TIP3   OH213156   2.152   4.887   4.363
 4400TIP3    H113157   2.120   4.844   4.283
 4400TIP3    H213158   2.224   4.833   4.393
 4401TIP3   OH213159   7.720   3.828   2.849
 4401TIP3    H113160   7.721   3.793   2.760
 4401TIP3    H213161   7.687   3.757   2.904
 4402TIP3   OH213162   7.920   3.994   0.486
 4402TIP3    H113163   7.879   3.953   0.561
 4402TIP3    H213164   7.862   4.066   0.462
 4403TIP3   OH213165   5.395   0.633   4.214
 4403TIP3    H113166   5.357   0.702   4.160
 4403TIP3    H213167   5.353   0.553   4.185
 4404TIP3   OH213168   5.794   2.221   0.491
 4404TIP3    H113169   5.788   2.167   0.411
 4404TIP3    H213170   5.751   2.168   0.558
 4405TIP3   OH213171   2.140   5.585   2.916
 4405TIP3    H113172   2.170   5.523   2.850
 4405TIP3    H213173   2.086   5.532   2.975
 4406TIP3   OH213174   4.604   2.589   0.161
 4406TIP3    H113175   4.680   2.645   0.146
 4406TIP3    H213176   4.559   2.587   0.077
 4407TIP3   OH213177   0.697   1.675   1.690
 4407TIP3    H113178   0.647   1.736   1.744
 4407TIP3    H213179   0.759   1.730   1.642
 4408TIP3   OH213180   5.177   0.868   5.556
 4408TIP3    H113181   5.243   0.933   5.533
 4408TIP3    H213182   5.105   0.919   5.594
 4409TIP3   OH213183   8.184   5.424   3.124
 4409TIP3    H113184   8.093   5.453   3.118
 4409TIP3    H213185   8.236   5.501   3.099
 4410TIP3   OH213186   1.594   4.085   2.047
 4410TIP3    H113187   1.532   4.151   2.080
 4410TIP3    H213188   1.624   4.038   2.125
 4411TIP3   OH213189   0.389   4.428   5.058
 4411TIP3    H113190   0.454   4.477   5.007
 4411TIP3    H213191   0.305   4.451   5.019
 4412TIP3   OH213192   2.918   2.586   5.148
 4412TIP3    H113193   2.938   2.516   5.086
 4412TIP3    H213194   2.978   2.570   5.222
 4413TIP3   OH213195   4.258   0.383   6.342
 4413TIP3    H113196   4.341   0.336   6.338
 4413TIP3    H213197   4.221   0.374   6.254
 4414TIP3   OH213198   2.579   7.317   5.444
 4414TIP3    H113199   2.631   7.242   5.416
 4414TIP3    H213200   2.596   7.325   5.538
 4415TIP3   OH213201   0.907   6.003   4.621
 4415TIP3    H113202   0.926   6.094   4.645
 4415TIP3    H213203   0.907   6.004   4.525
 4416TIP3   OH213204   5.556   5.969   1.807
 4416TIP3    H113205   5.484   5.950   1.746
 4416TIP3    H213206   5.513   6.004   1.885
 4417TIP3   OH213207   3.844   4.232   4.277
 4417TIP3    H113208   3.882   4.239   4.365
 4417TIP3    H213209   3.756   4.269   4.287
 4418TIP3   OH213210   1.104   2.542   2.515
 4418TIP3    H113211   1.062   2.483   2.453
 4418TIP3    H213212   1.125   2.486   2.591
 4419TIP3   OH213213   2.644   1.238   1.113
 4419TIP3    H113214   2.684   1.259   1.029
 4419TIP3    H213215   2.625   1.323   1.152
 4420TIP3   OH213216   2.113   5.952   6.585
 4420TIP3    H113217   2.071   5.993   6.661
 4420TIP3    H213218   2.045   5.894   6.550
 4421TIP3   OH213219   3.682   0.404   0.329
 4421TIP3    H113220   3.764   0.438   0.293
 4421TIP3    H213221   3.708   0.345   0.399
 4422TIP3   OH213222   2.748   7.309   4.504
 4422TIP3    H113223   2.702   7.248   4.447
 4422TIP3    H213224   2.835   7.318   4.465
 4423TIP3   OH213225   8.302   5.366   6.741
 4423TIP3    H113226   8.208   5.345   6.741
 4423TIP3    H213227   8.341   5.296   6.794
 4424TIP3   OH213228   0.330   0.773   1.019
 4424TIP3    H113229   0.301   0.701   1.075
 4424TIP3    H213230   0.415   0.745   0.986
 4425TIP3   OH213231   4.110   7.767   6.085
 4425TIP3    H113232   4.080   7.738   5.999
 4425TIP3    H213233   4.132   7.686   6.131
 4426TIP3   OH213234   3.611   1.796   5.324
 4426TIP3    H113235   3.643   1.885   5.339
 4426TIP3    H213236   3.615   1.754   5.410
 4427TIP3   OH213237   5.284   5.144   1.801
 4427TIP3    H113238   5.343   5.072   1.779
 4427TIP3    H213239   5.341   5.207   1.846
 4428TIP3   OH213240   3.925   3.952   2.048
 4428TIP3    H113241   3.983   4.010   2.098
 4428TIP3    H213242   3.844   3.950   2.098
 4429TIP3   OH213243   0.406   0.624   5.936
 4429TIP3    H113244   0.473   0.657   5.876
 4429TIP3    H213245   0.406   0.685   6.009
 4430TIP3   OH213246   5.030   3.398   5.511
 4430TIP3    H113247   4.986   3.338   5.572
 4430TIP3    H213248   5.121   3.368   5.510
 4431TIP3   OH213249   0.685   0.935   1.437
 4431TIP3    H113250   0.595   0.933   1.469
 4431TIP3    H213251   0.682   0.989   1.358
 4432TIP3   OH213252   3.955   3.206   5.549
 4432TIP3    H113253   3.987   3.295   5.532
 4432TIP3    H213254   3.948   3.165   5.463
 4433TIP3   OH213255   0.982   7.527   4.689
 4433TIP3    H113256   1.077   7.537   4.681
 4433TIP3    H213257   0.946   7.585   4.621
 4434TIP3   OH213258   2.307   1.266   5.638
 4434TIP3    H113259   2.399   1.277   5.662
 4434TIP3    H213260   2.259   1.320   5.701
 4435TIP3   OH213261   0.611   0.696   2.976
 4435TIP3    H113262   0.571   0.614   3.006
 4435TIP3    H213263   0.656   0.730   3.054
 4436TIP3   OH213264   6.158   0.678   2.231
 4436TIP3    H113265   6.230   0.656   2.171
 4436TIP3    H213266   6.079   0.661   2.180
 4437TIP3   OH213267   7.127   6.533   5.098
 4437TIP3    H113268   7.162   6.609   5.144
 4437TIP3    H213269   7.204   6.477   5.083
 4438TIP3   OH213270   5.737   1.388   2.482
 4438TIP3    H113271   5.647   1.422   2.471
 4438TIP3    H213272   5.743   1.366   2.575
 4439TIP3   OH213273   7.632   3.603   3.402
 4439TIP3    H113274   7.719   3.601   3.361
 4439TIP3    H213275   7.615   3.695   3.418
 4440TIP3   OH213276   1.108   5.847   4.333
 4440TIP3    H113277   1.055   5.926   4.347
 4440TIP3    H213278   1.091   5.792   4.409
 4441TIP3   OH213279   5.024   4.669   5.447
 4441TIP3    H113280   5.056   4.627   5.367
 4441TIP3    H213281   5.064   4.620   5.518
 4442TIP3   OH213282   4.396   7.236   4.102
 4442TIP3    H113283   4.407   7.242   4.007
 4442TIP3    H213284   4.313   7.190   4.114
 4443TIP3   OH213285   8.196   7.279   1.217
 4443TIP3    H113286   8.183   7.370   1.244
 4443TIP3    H213287   8.246   7.286   1.135
 4444TIP3   OH213288   6.271   4.243   5.039
 4444TIP3    H113289   6.313   4.159   5.021
 4444TIP3    H213290   6.323   4.281   5.110
 4445TIP3   OH213291   6.929   3.281   5.203
 4445TIP3    H113292   6.900   3.254   5.116
 4445TIP3    H213293   6.974   3.365   5.188
 4446TIP3   OH213294   6.350   0.004   1.529
 4446TIP3    H113295   6.316   0.089   1.500
 4446TIP3    H213296   6.287  -0.025   1.596
 4447TIP3   OH213297   6.071   6.857   4.328
 4447TIP3    H113298   6.143   6.902   4.373
 4447TIP3    H213299   6.112   6.783   4.285
 4448TIP3   OH213300   4.525   3.919   3.271
 4448TIP3    H113301   4.519   4.008   3.306
 4448TIP3    H213302   4.578   3.927   3.192
 4449TIP3   OH213303   2.694   0.182   5.359
 4449TIP3    H113304   2.682   0.276   5.347
 4449TIP3    H213305   2.606   0.149   5.377
 4450TIP3   OH213306   7.550   1.883   2.858
 4450TIP3    H113307   7.627   1.842   2.819
 4450TIP3    H213308   7.517   1.943   2.791
 4451TIP3   OH213309   0.329   4.763   1.848
 4451TIP3    H113310   0.285   4.712   1.780
 4451TIP3    H213311   0.297   4.727   1.930
 4452TIP3   OH213312   2.752   4.706   6.206
 4452TIP3    H113313   2.824   4.765   6.231
 4452TIP3    H213314   2.758   4.700   6.111
 4453TIP3   OH213315   1.775   7.475   5.311
 4453TIP3    H113316   1.768   7.568   5.333
 4453TIP3    H213317   1.869   7.459   5.303
 4454TIP3   OH213318   0.313   4.312   4.540
 4454TIP3    H113319   0.336   4.247   4.606
 4454TIP3    H213320   0.339   4.272   4.457
 4455TIP3   OH213321   7.199   1.399   1.200
 4455TIP3    H113322   7.127   1.416   1.140
 4455TIP3    H213323   7.270   1.453   1.168
 4456TIP3   OH213324   0.794   3.431   0.483
 4456TIP3    H113325   0.827   3.341   0.482
 4456TIP3    H213326   0.819   3.465   0.569
 4457TIP3   OH213327   1.715   7.695   5.913
 4457TIP3    H113328   1.766   7.713   5.834
 4457TIP3    H213329   1.642   7.641   5.883
 4458TIP3   OH213330   7.114   4.592   2.343
 4458TIP3    H113331   7.020   4.598   2.324
 4458TIP3    H213332   7.118   4.565   2.434
 4459TIP3   OH213333   0.357   0.200   3.591
 4459TIP3    H113334   0.381   0.291   3.574
 4459TIP3    H213335   0.293   0.206   3.663
 4460TIP3   OH213336   4.567   7.059   6.118
 4460TIP3    H113337   4.555   7.026   6.029
 4460TIP3    H213338   4.596   7.149   6.106
 4461TIP3   OH213339   5.052   0.082   3.523
 4461TIP3    H113340   4.986   0.013   3.511
 4461TIP3    H213341   5.008   0.162   3.495
 4462TIP3   OH213342   1.710   4.992   2.799
 4462TIP3    H113343   1.748   5.021   2.882
 4462TIP3    H213344   1.687   5.073   2.754
 4463TIP3   OH213345   0.356   1.617   5.316
 4463TIP3    H113346   0.360   1.657   5.403
 4463TIP3    H213347   0.300   1.675   5.265
 4464TIP3   OH213348   2.200   3.606   4.709
 4464TIP3    H113349   2.116   3.565   4.729
 4464TIP3    H213350   2.245   3.609   4.793
 4465TIP3   OH213351   0.933   4.685   3.531
 4465TIP3    H113352   0.982   4.757   3.492
 4465TIP3    H213353   0.842   4.702   3.505
 4466TIP3   OH213354   4.502   0.292   4.388
 4466TIP3    H113355   4.570   0.313   4.453
 4466TIP3    H213356   4.452   0.374   4.379
 4467TIP3   OH213357   5.991   0.142   4.125
 4467TIP3    H113358   6.066   0.201   4.116
 4467TIP3    H213359   5.967   0.148   4.218
 4468TIP3   OH213360   2.923   1.976   0.879
 4468TIP3    H113361   2.911   2.064   0.844
 4468TIP3    H213362   2.968   1.928   0.809
 4469TIP3   OH213363   0.108   0.473   2.722
 4469TIP3    H113364   0.192   0.430   2.739
 4469TIP3    H213365   0.132   0.555   2.679
 4470TIP3   OH213366   7.601   5.595   6.028
 4470TIP3    H113367   7.614   5.501   6.023
 4470TIP3    H213368   7.521   5.606   6.080
 4471TIP3   OH213369   4.298   4.897   3.267
 4471TIP3    H113370   4.328   4.905   3.176
 4471TIP3    H213371   4.374   4.866   3.315
 4472TIP3   OH213372   3.003   2.082   1.118
 4472TIP3    H113373   2.995   2.175   1.099
 4472TIP3    H213374   3.005   2.040   1.032
 4473TIP3   OH213375   0.950   4.580   5.536
 4473TIP3    H113376   0.994   4.506   5.494
 4473TIP3    H213377   0.994   4.657   5.500
 4474TIP3   OH213378   1.927   6.032   5.432
 4474TIP3    H113379   1.958   5.942   5.422
 4474TIP3    H213380   1.895   6.056   5.345
 4475TIP3   OH213381   2.286   3.539   1.873
 4475TIP3    H113382   2.248   3.626   1.888
 4475TIP3    H213383   2.299   3.535   1.778
 4476TIP3   OH213384   5.177   5.452   1.251
 4476TIP3    H113385   5.098   5.502   1.230
 4476TIP3    H213386   5.246   5.517   1.255
 4477TIP3   OH213387   0.439   5.884   1.548
 4477TIP3    H113388   0.451   5.906   1.640
 4477TIP3    H213389   0.361   5.932   1.522
 4478TIP3   OH213390   0.439   7.468   0.638
 4478TIP3    H113391   0.370   7.401   0.644
 4478TIP3    H213392   0.399   7.546   0.678
 4479TIP3   OH213393   6.117   0.721   4.041
 4479TIP3    H113394   6.041   0.755   4.089
 4479TIP3    H213395   6.088   0.718   3.950
 4480TIP3   OH213396   6.476   4.729   1.555
 4480TIP3    H113397   6.414   4.789   1.514
 4480TIP3    H213398   6.529   4.696   1.483
 4481TIP3   OH213399   5.200   1.952   6.244
 4481TIP3    H113400   5.226   1.886   6.179
 4481TIP3    H213401   5.194   1.904   6.326
 4482TIP3   OH213402   0.178   6.973   6.041
 4482TIP3    H113403   0.118   7.046   6.033
 4482TIP3    H213404   0.251   6.994   5.984
 4483TIP3   OH213405   4.954   0.075   1.600
 4483TIP3    H113406   5.047   0.057   1.609
 4483TIP3    H213407   4.937   0.145   1.663
 4484TIP3   OH213408   4.473   7.086   1.842
 4484TIP3    H113409   4.514   7.016   1.791
 4484TIP3    H213410   4.383   7.089   1.811
 4485TIP3   OH213411   3.987   1.934   5.546
 4485TIP3    H113412   3.979   1.859   5.487
 4485TIP3    H213413   3.957   1.901   5.630
 4486TIP3   OH213414   8.252   7.643   2.486
 4486TIP3    H113415   8.183   7.582   2.510
 4486TIP3    H213416   8.219   7.687   2.408
 4487TIP3   OH213417   7.281   7.377   2.065
 4487TIP3    H113418   7.345   7.358   1.996
 4487TIP3    H213419   7.252   7.466   2.046
 4488TIP3   OH213420   4.440   4.089   6.628
 4488TIP3    H113421   4.346   4.078   6.614
 4488TIP3    H213422   4.481   4.048   6.552
 4489TIP3   OH213423   3.900   5.313   3.399
 4489TIP3    H113424   3.935   5.310   3.488
 4489TIP3    H213425   3.962   5.262   3.347
 4490TIP3   OH213426   3.761   6.764   4.209
 4490TIP3    H113427   3.736   6.693   4.268
 4490TIP3    H213428   3.678   6.806   4.186
 4491TIP3   OH213429   6.508   0.441   2.307
 4491TIP3    H113430   6.522   0.426   2.214
 4491TIP3    H213431   6.416   0.418   2.321
 4492TIP3   OH213432   1.500   6.330   2.901
 4492TIP3    H113433   1.517   6.368   2.815
 4492TIP3    H213434   1.405   6.316   2.902
 4493TIP3   OH213435   2.788   2.682   6.229
 4493TIP3    H113436   2.858   2.643   6.176
 4493TIP3    H213437   2.831   2.750   6.280
 4494TIP3   OH213438   4.606   3.885   3.925
 4494TIP3    H113439   4.562   3.969   3.915
 4494TIP3    H213440   4.688   3.894   3.876
 4495TIP3   OH213441   1.534   3.539   4.976
 4495TIP3    H113442   1.516   3.604   4.908
 4495TIP3    H213443   1.464   3.474   4.967
 4496TIP3   OH213444   0.837   1.342   3.195
 4496TIP3    H113445   0.772   1.306   3.255
 4496TIP3    H213446   0.816   1.435   3.188
 4497TIP3   OH213447   1.334   6.644   4.020
 4497TIP3    H113448   1.402   6.577   4.026
 4497TIP3    H213449   1.381   6.723   3.993
 4498TIP3   OH213450   2.988   6.046   2.404
 4498TIP3    H113451   2.979   6.020   2.495
 4498TIP3    H213452   2.899   6.043   2.369
 4499TIP3   OH213453   4.697   2.942   3.858
 4499TIP3    H113454   4.669   2.952   3.949
 4499TIP3    H213455   4.620   2.908   3.813
 4500TIP3   OH213456   1.384   5.372   0.811
 4500TIP3    H113457   1.316   5.378   0.744
 4500TIP3    H213458   1.388   5.278   0.831
 4501TIP3   OH213459   0.727   6.171   1.575
 4501TIP3    H113460   0.750   6.079   1.563
 4501TIP3    H213461   0.811   6.217   1.580
 4502TIP3   OH213462   1.327   3.594   1.201
 4502TIP3    H113463   1.260   3.526   1.216
 4502TIP3    H213464   1.286   3.654   1.139
 4503TIP3   OH213465   6.521   3.729   4.295
 4503TIP3    H113466   6.604   3.724   4.249
 4503TIP3    H213467   6.544   3.724   4.387
 4504TIP3   OH213468   1.452   2.930   1.124
 4504TIP3    H113469   1.519   2.901   1.063
 4504TIP3    H213470   1.385   2.861   1.120
 4505TIP3   OH213471   2.670   5.368   0.859
 4505TIP3    H113472   2.625   5.436   0.909
 4505TIP3    H213473   2.616   5.356   0.781
 4506TIP3   OH213474   5.206   6.049   5.264
 4506TIP3    H113475   5.208   6.035   5.169
 4506TIP3    H213476   5.167   6.136   5.274
 4507TIP3   OH213477   5.324   6.587   2.589
 4507TIP3    H113478   5.241   6.570   2.633
 4507TIP3    H213479   5.311   6.670   2.544
 4508TIP3   OH213480   6.001   7.700   2.376
 4508TIP3    H113481   6.031   7.710   2.467
 4508TIP3    H213482   5.917   7.745   2.374
 4509TIP3   OH213483   5.472   0.359   1.605
 4509TIP3    H113484   5.517   0.388   1.525
 4509TIP3    H213485   5.433   0.439   1.641
 4510TIP3   OH213486   2.107   4.153   4.701
 4510TIP3    H113487   2.032   4.156   4.761
 4510TIP3    H213488   2.117   4.243   4.672
 4511TIP3   OH213489   4.067   1.917   5.073
 4511TIP3    H113490   4.095   1.950   5.158
 4511TIP3    H213491   4.018   1.838   5.092
 4512TIP3   OH213492   3.229   5.641   2.480
 4512TIP3    H113493   3.221   5.546   2.471
 4512TIP3    H213494   3.150   5.676   2.438
 4513TIP3   OH213495   3.675   0.780   2.055
 4513TIP3    H113496   3.607   0.715   2.035
 4513TIP3    H213497   3.757   0.739   2.029
 4514TIP3   OH213498   7.824   3.431   1.661
 4514TIP3    H113499   7.817   3.517   1.620
 4514TIP3    H213500   7.735   3.410   1.689
 4515TIP3   OH213501   2.572   0.976   6.736
 4515TIP3    H113502   2.515   1.049   6.758
 4515TIP3    H213503   2.655   1.017   6.710
 4516TIP3   OH213504   2.911   2.723   2.467
 4516TIP3    H113505   2.849   2.651   2.481
 4516TIP3    H213506   2.868   2.778   2.401
 4517TIP3   OH213507   0.931   0.273   4.415
 4517TIP3    H113508   0.856   0.253   4.358
 4517TIP3    H213509   0.900   0.345   4.470
 4518TIP3   OH213510   3.137   6.479   2.269
 4518TIP3    H113511   3.122   6.527   2.187
 4518TIP3    H213512   3.051   6.476   2.311
 4519TIP3   OH213513   3.191   0.697   4.647
 4519TIP3    H113514   3.224   0.611   4.624
 4519TIP3    H213515   3.096   0.689   4.644
 4520TIP3   OH213516   2.298   3.488   0.486
 4520TIP3    H113517   2.217   3.539   0.491
 4520TIP3    H213518   2.344   3.509   0.567
 4521TIP3   OH213519   3.362   4.935   0.724
 4521TIP3    H113520   3.280   4.979   0.747
 4521TIP3    H213521   3.409   4.998   0.670
 4522TIP3   OH213522   2.841   3.798   4.456
 4522TIP3    H113523   2.886   3.821   4.375
 4522TIP3    H213524   2.799   3.714   4.437
 4523TIP3   OH213525   7.672   6.211   1.800
 4523TIP3    H113526   7.749   6.174   1.843
 4523TIP3    H213527   7.640   6.277   1.862
 4524TIP3   OH213528   3.164   0.310   3.139
 4524TIP3    H113529   3.074   0.277   3.149
 4524TIP3    H213530   3.163   0.395   3.182
 4525TIP3   OH213531   7.159   6.226   6.049
 4525TIP3    H113532   7.169   6.313   6.087
 4525TIP3    H213533   7.161   6.167   6.124
 4526TIP3   OH213534   5.630   1.116   6.123
 4526TIP3    H113535   5.587   1.180   6.067
 4526TIP3    H213536   5.717   1.105   6.085
 4527TIP3   OH213537   6.575   7.048   2.905
 4527TIP3    H113538   6.660   7.060   2.948
 4527TIP3    H213539   6.514   7.098   2.960
 4528TIP3   OH213540   2.236   0.057   4.627
 4528TIP3    H113541   2.274   0.025   4.545
 4528TIP3    H213542   2.235  -0.019   4.685
 4529TIP3   OH213543   1.326   4.075   4.918
 4529TIP3    H113544   1.231   4.064   4.923
 4529TIP3    H213545   1.338   4.159   4.873
 4530TIP3   OH213546   7.351   0.053   5.726
 4530TIP3    H113547   7.271   0.010   5.755
 4530TIP3    H213548   7.397  -0.014   5.675
 4531TIP3   OH213549   4.701   7.264   6.623
 4531TIP3    H113550   4.676   7.355   6.637
 4531TIP3    H213551   4.627   7.212   6.655
 4532TIP3   OH213552   7.076   7.548   3.240
 4532TIP3    H113553   7.133   7.561   3.164
 4532TIP3    H213554   7.127   7.578   3.315
 4533TIP3   OH213555   3.077   5.825   0.711
 4533TIP3    H113556   3.060   5.912   0.748
 4533TIP3    H213557   3.069   5.765   0.785
 4534TIP3   OH213558   3.674   3.812   3.988
 4534TIP3    H113559   3.706   3.890   4.035
 4534TIP3    H213560   3.597   3.843   3.941
 4535TIP3   OH213561   4.134   4.119   1.530
 4535TIP3    H113562   4.073   4.047   1.524
 4535TIP3    H213563   4.220   4.078   1.534
 4536TIP3   OH213564   0.157   2.332   6.123
 4536TIP3    H113565   0.210   2.350   6.200
 4536TIP3    H213566   0.191   2.250   6.088
 4537TIP3   OH213567   7.631   2.411   3.047
 4537TIP3    H113568   7.631   2.317   3.066
 4537TIP3    H213569   7.722   2.431   3.024
 4538TIP3   OH213570   6.012   5.383   1.240
 4538TIP3    H113571   6.061   5.307   1.272
 4538TIP3    H213572   6.064   5.458   1.270
 4539TIP3   OH213573   6.400   1.172   1.564
 4539TIP3    H113574   6.441   1.244   1.613
 4539TIP3    H213575   6.396   1.204   1.474
 4540TIP3   OH213576   7.444   7.066   1.108
 4540TIP3    H113577   7.423   7.067   1.015
 4540TIP3    H213578   7.359   7.071   1.152
 4541TIP3   OH213579   7.681   1.763   5.198
 4541TIP3    H113580   7.687   1.743   5.292
 4541TIP3    H213581   7.770   1.748   5.165
 4542TIP3   OH213582   7.665   5.319   5.364
 4542TIP3    H113583   7.577   5.285   5.380
 4542TIP3    H213584   7.709   5.311   5.448
 4543TIP3   OH213585   2.745   3.416   0.991
 4543TIP3    H113586   2.667   3.366   0.968
 4543TIP3    H213587   2.760   3.473   0.915
 4544TIP3   OH213588   4.442   1.675   4.896
 4544TIP3    H113589   4.517   1.685   4.837
 4544TIP3    H213590   4.366   1.666   4.839
 4545TIP3   OH213591   4.780   3.062   6.669
 4545TIP3    H113592   4.794   3.071   6.574
 4545TIP3    H213593   4.838   2.990   6.694
 4546TIP3   OH213594   3.462   2.771   4.176
 4546TIP3    H113595   3.370   2.782   4.153
 4546TIP3    H213596   3.463   2.695   4.234
 4547TIP3   OH213597   3.498   6.107   3.791
 4547TIP3    H113598   3.517   6.197   3.765
 4547TIP3    H213599   3.529   6.054   3.717
 4548TIP3   OH213600   2.788   0.502   3.810
 4548TIP3    H113601   2.710   0.535   3.855
 4548TIP3    H213602   2.766   0.504   3.717
 4549TIP3   OH213603   4.923   3.402   1.146
 4549TIP3    H113604   4.989   3.399   1.076
 4549TIP3    H213605   4.853   3.345   1.115
 4550TIP3   OH213606   0.750   0.039   5.340
 4550TIP3    H113607   0.688   0.076   5.277
 4550TIP3    H213608   0.769   0.112   5.400
 4551TIP3   OH213609   7.465   6.479   5.502
 4551TIP3    H113610   7.505   6.555   5.460
 4551TIP3    H213611   7.539   6.427   5.533
 4552TIP3   OH213612   0.917   2.897   0.477
 4552TIP3    H113613   0.832   2.872   0.441
 4552TIP3    H213614   0.918   2.858   0.564
 4553TIP3   OH213615   4.142   2.460   0.179
 4553TIP3    H113616   4.137   2.388   0.115
 4553TIP3    H213617   4.052   2.472   0.208
 4554TIP3   OH213618   3.997   3.692   5.950
 4554TIP3    H113619   3.967   3.607   5.982
 4554TIP3    H213620   4.088   3.698   5.980
 4555TIP3   OH213621   0.565   5.089   4.741
 4555TIP3    H113622   0.579   5.078   4.647
 4555TIP3    H213623   0.491   5.032   4.761
 4556TIP3   OH213624   8.195   2.030   0.531
 4556TIP3    H113625   8.194   1.989   0.618
 4556TIP3    H213626   8.167   2.120   0.547
 4557TIP3   OH213627   1.492   4.823   4.131
 4557TIP3    H113628   1.581   4.853   4.111
 4557TIP3    H213629   1.464   4.778   4.051
 4558TIP3   OH213630   2.848   3.136   2.120
 4558TIP3    H113631   2.830   3.187   2.199
 4558TIP3    H213632   2.921   3.079   2.145
 4559TIP3   OH213633   0.821   2.837   2.818
 4559TIP3    H113634   0.771   2.861   2.740
 4559TIP3    H213635   0.756   2.804   2.880
 4560TIP3   OH213636   3.644   1.023   2.778
 4560TIP3    H113637   3.714   1.085   2.803
 4560TIP3    H213638   3.689   0.939   2.771
 4561TIP3   OH213639   3.893   4.938   6.380
 4561TIP3    H113640   3.894   4.856   6.331
 4561TIP3    H213641   3.966   4.930   6.442
 4562TIP3   OH213642   6.108   2.121   6.589
 4562TIP3    H113643   6.186   2.068   6.574
 4562TIP3    H213644   6.129   2.173   6.667
 4563TIP3   OH213645   7.660   3.699   5.994
 4563TIP3    H113646   7.709   3.668   5.918
 4563TIP3    H213647   7.602   3.767   5.960
 4564TIP3   OH213648   5.982   7.600   1.518
 4564TIP3    H113649   6.021   7.659   1.455
 4564TIP3    H213650   5.890   7.629   1.524
 4565TIP3   OH213651   3.857   1.872   6.361
 4565TIP3    H113652   3.943   1.873   6.319
 4565TIP3    H213653   3.802   1.924   6.302
 4566TIP3   OH213654   6.386   5.677   2.496
 4566TIP3    H113655   6.478   5.702   2.492
 4566TIP3    H213656   6.370   5.629   2.415
 4567TIP3   OH213657   0.901   3.784   6.123
 4567TIP3    H113658   0.918   3.698   6.163
 4567TIP3    H213659   0.882   3.841   6.197
 4568TIP3   OH213660   1.984   6.109   2.775
 4568TIP3    H113661   2.031   6.156   2.844
 4568TIP3    H213662   1.892   6.134   2.786
 4569TIP3   OH213663   0.993   3.549   3.212
 4569TIP3    H113664   0.938   3.612   3.166
 4569TIP3    H213665   1.018   3.486   3.145
 4570TIP3   OH213666   7.418   1.002   6.377
 4570TIP3    H113667   7.376   0.918   6.360
 4570TIP3    H213668   7.421   1.009   6.472
 4571TIP3   OH213669   3.690   3.160   1.746
 4571TIP3    H113670   3.713   3.080   1.699
 4571TIP3    H213671   3.771   3.184   1.793
 4572TIP3   OH213672   4.814   3.540   5.422
 4572TIP3    H113673   4.764   3.476   5.371
 4572TIP3    H213674   4.899   3.498   5.436
 4573TIP3   OH213675   4.912   3.866   1.330
 4573TIP3    H113676   4.872   3.779   1.338
 4573TIP3    H213677   4.881   3.913   1.407
 4574TIP3   OH213678   0.721   6.808   3.970
 4574TIP3    H113679   0.721   6.713   3.956
 4574TIP3    H213680   0.661   6.842   3.904
 4575TIP3   OH213681   3.511   4.905   3.694
 4575TIP3    H113682   3.557   4.841   3.639
 4575TIP3    H213683   3.421   4.905   3.659
 4576TIP3   OH213684   7.455   3.441   2.658
 4576TIP3    H113685   7.439   3.480   2.744
 4576TIP3    H213686   7.368   3.428   2.621
 4577TIP3   OH213687   3.105   1.661   3.298
 4577TIP3    H113688   3.137   1.750   3.287
 4577TIP3    H213689   3.013   1.671   3.324
 4578TIP3   OH213690   5.069   1.144   4.457
 4578TIP3    H113691   5.108   1.079   4.399
 4578TIP3    H213692   5.124   1.143   4.535
 4579TIP3   OH213693   7.173   2.471   6.402
 4579TIP3    H113694   7.169   2.540   6.335
 4579TIP3    H213695   7.081   2.454   6.423
 4580TIP3   OH213696   3.951   6.525   3.461
 4580TIP3    H113697   4.007   6.453   3.490
 4580TIP3    H213698   3.978   6.600   3.515
 4581TIP3   OH213699   1.171   0.762   2.553
 4581TIP3    H113700   1.165   0.671   2.582
 4581TIP3    H213701   1.256   0.792   2.584
 4582TIP3   OH213702   5.115   4.579   1.961
 4582TIP3    H113703   5.113   4.484   1.943
 4582TIP3    H213704   5.071   4.588   2.045
 4583TIP3   OH213705   1.947   4.270   5.081
 4583TIP3    H113706   1.948   4.345   5.021
 4583TIP3    H213707   2.028   4.277   5.130
 4584TIP3   OH213708   2.649   2.797   1.397
 4584TIP3    H113709   2.612   2.709   1.397
 4584TIP3    H213710   2.574   2.855   1.385
 4585TIP3   OH213711   2.043   3.874   1.037
 4585TIP3    H113712   2.052   3.930   0.960
 4585TIP3    H213713   1.956   3.836   1.029
 4586TIP3   OH213714   7.011   4.427   2.582
 4586TIP3    H113715   6.996   4.376   2.661
 4586TIP3    H213716   6.949   4.393   2.518
 4587TIP3   OH213717   1.109   7.553   6.063
 4587TIP3    H113718   1.133   7.541   5.972
 4587TIP3    H213719   1.159   7.486   6.110
 4588TIP3   OH213720   7.750   5.299   1.292
 4588TIP3    H113721   7.665   5.277   1.330
 4588TIP3    H213722   7.812   5.239   1.334
 4589TIP3   OH213723   4.549   6.398   2.790
 4589TIP3    H113724   4.587   6.403   2.877
 4589TIP3    H213725   4.528   6.306   2.778
 4590TIP3   OH213726   6.753   5.177   6.760
 4590TIP3    H113727   6.659   5.161   6.755
 4590TIP3    H213728   6.762   5.272   6.745
 4591TIP3   OH213729   3.602   4.100   2.030
 4591TIP3    H113730   3.656   4.160   1.980
 4591TIP3    H213731   3.522   4.149   2.048
 4592TIP3   OH213732   3.597   4.427   5.509
 4592TIP3    H113733   3.508   4.409   5.477
 4592TIP3    H213734   3.606   4.522   5.503
 4593TIP3   OH213735   3.498   2.387   1.193
 4593TIP3    H113736   3.485   2.481   1.181
 4593TIP3    H213737   3.588   2.379   1.225
 4594TIP3   OH213738   6.784   5.449   0.991
 4594TIP3    H113739   6.716   5.485   1.048
 4594TIP3    H213740   6.738   5.383   0.938
 4595TIP3   OH213741   0.784   4.888   4.182
 4595TIP3    H113742   0.762   4.981   4.194
 4595TIP3    H213743   0.727   4.859   4.111
 4596TIP3   OH213744   7.466   4.219   0.339
 4596TIP3    H113745   7.493   4.211   0.430
 4596TIP3    H213746   7.467   4.130   0.306
 4597TIP3   OH213747   1.510   5.460   2.447
 4597TIP3    H113748   1.514   5.538   2.502
 4597TIP3    H213749   1.598   5.452   2.410
 4598TIP3   OH213750   2.380   4.439   1.656
 4598TIP3    H113751   2.285   4.426   1.661
 4598TIP3    H213752   2.412   4.411   1.741
 4599TIP3   OH213753   6.019   3.962   1.147
 4599TIP3    H113754   6.033   3.982   1.240
 4599TIP3    H213755   6.106   3.940   1.114
 4600TIP3   OH213756   4.439   2.591   1.817
 4600TIP3    H113757   4.419   2.498   1.829
 4600TIP3    H213758   4.486   2.595   1.733
 4601TIP3   OH213759   6.046   1.706   3.978
 4601TIP3    H113760   5.965   1.754   3.993
 4601TIP3    H213761   6.115   1.771   3.986
 4602TIP3   OH213762   8.196   7.345   4.857
 4602TIP3    H113763   8.241   7.391   4.786
 4602TIP3    H213764   8.166   7.263   4.816
 4603TIP3   OH213765   3.542   1.402   4.110
 4603TIP3    H113766   3.492   1.443   4.038
 4603TIP3    H213767   3.588   1.475   4.151
 4604TIP3   OH213768   6.817   7.065   3.035
 4604TIP3    H113769   6.898   7.113   3.019
 4604TIP3    H213770   6.843   6.988   3.086
 4605TIP3   OH213771   7.208   5.573   4.500
 4605TIP3    H113772   7.285   5.526   4.532
 4605TIP3    H213773   7.225   5.587   4.407
 4606TIP3   OH213774   6.203   4.427   2.472
 4606TIP3    H113775   6.242   4.476   2.400
 4606TIP3    H213776   6.125   4.478   2.497
 4607TIP3   OH213777   5.553   0.933   0.774
 4607TIP3    H113778   5.499   0.993   0.722
 4607TIP3    H213779   5.489   0.875   0.817
 4608TIP3   OH213780   4.154   3.031   3.294
 4608TIP3    H113781   4.092   3.053   3.224
 4608TIP3    H213782   4.229   3.088   3.279
 4609TIP3   OH213783   3.476   2.181   5.731
 4609TIP3    H113784   3.460   2.190   5.825
 4609TIP3    H213785   3.570   2.194   5.721
 4610TIP3   OH213786   5.752   6.679   4.960
 4610TIP3    H113787   5.793   6.629   4.889
 4610TIP3    H213788   5.810   6.667   5.035
 4611TIP3   OH213789   5.002   1.354   0.789
 4611TIP3    H113790   5.000   1.261   0.812
 4611TIP3    H213791   4.928   1.366   0.729
 4612TIP3   OH213792   6.676   2.606   0.279
 4612TIP3    H113793   6.770   2.595   0.290
 4612TIP3    H213794   6.658   2.576   0.190
 4613TIP3   OH213795   6.588   3.887   1.688
 4613TIP3    H113796   6.589   3.826   1.614
 4613TIP3    H213797   6.568   3.972   1.649
 4614TIP3   OH213798   1.310   0.693   2.996
 4614TIP3    H113799   1.290   0.712   3.088
 4614TIP3    H213800   1.349   0.606   2.997
 4615TIP3   OH213801   4.967   3.496   4.215
 4615TIP3    H113802   4.901   3.531   4.156
 4615TIP3    H213803   4.961   3.550   4.294
 4616TIP3   OH213804   8.265   1.417   6.135
 4616TIP3    H113805   8.217   1.444   6.056
 4616TIP3    H213806   8.247   1.323   6.142
 4617TIP3   OH213807   6.214   1.399   6.359
 4617TIP3    H113808   6.211   1.326   6.297
 4617TIP3    H213809   6.209   1.358   6.445
 4618TIP3   OH213810   7.711   1.506   6.368
 4618TIP3    H113811   7.641   1.532   6.428
 4618TIP3    H213812   7.790   1.549   6.402
 4619TIP3   OH213813   3.091   6.445   3.126
 4619TIP3    H113814   3.126   6.439   3.037
 4619TIP3    H213815   3.150   6.392   3.179
 4620TIP3   OH213816   8.160   5.011   1.725
 4620TIP3    H113817   8.140   4.954   1.650
 4620TIP3    H213818   8.252   5.033   1.714
 4621TIP3   OH213819   1.155   5.982   2.035
 4621TIP3    H113820   1.159   6.057   2.095
 4621TIP3    H213821   1.247   5.960   2.019
 4622TIP3   OH213822   3.928   7.472   5.663
 4622TIP3    H113823   3.878   7.400   5.627
 4622TIP3    H213824   3.979   7.505   5.589
 4623TIP3   OH213825   5.464   5.212   2.136
 4623TIP3    H113826   5.442   5.295   2.178
 4623TIP3    H213827   5.495   5.237   2.048
 4624TIP3   OH213828   5.335   7.626   2.713
 4624TIP3    H113829   5.301   7.710   2.745
 4624TIP3    H213830   5.299   7.619   2.624
 4625TIP3   OH213831   1.010   5.395   1.308
 4625TIP3    H113832   1.084   5.359   1.357
 4625TIP3    H213833   0.960   5.444   1.372
 4626TIP3   OH213834   2.299   0.887   1.519
 4626TIP3    H113835   2.296   0.836   1.438
 4626TIP3    H213836   2.241   0.962   1.503
 4627TIP3   OH213837   5.087   6.852   5.655
 4627TIP3    H113838   5.144   6.828   5.727
 4627TIP3    H213839   5.057   6.769   5.618
 4628TIP3   OH213840   6.821   0.826   2.452
 4628TIP3    H113841   6.867   0.797   2.530
 4628TIP3    H213842   6.862   0.779   2.379
 4629TIP3   OH213843   2.273   0.872   2.358
 4629TIP3    H113844   2.335   0.880   2.286
 4629TIP3    H213845   2.327   0.869   2.437
 4630TIP3   OH213846   8.193   2.168   6.212
 4630TIP3    H113847   8.176   2.131   6.299
 4630TIP3    H213848   8.264   2.231   6.227
 4631TIP3   OH213849   7.323   5.117   3.076
 4631TIP3    H113850   7.382   5.122   3.151
 4631TIP3    H213851   7.244   5.075   3.110
 4632TIP3   OH213852   0.802   5.037   3.604
 4632TIP3    H113853   0.822   5.067   3.515
 4632TIP3    H213854   0.880   5.060   3.655
 4633TIP3   OH213855   0.314   3.313   3.649
 4633TIP3    H113856   0.274   3.263   3.578
 4633TIP3    H213857   0.372   3.375   3.605
 4634TIP3   OH213858   4.915   1.271   3.754
 4634TIP3    H113859   5.000   1.230   3.737
 4634TIP3    H213860   4.885   1.300   3.668
 4635TIP3   OH213861   2.953   7.151   3.307
 4635TIP3    H113862   2.861   7.141   3.286
 4635TIP3    H213863   2.986   7.216   3.245
 4636TIP3   OH213864   7.159   4.700   1.812
 4636TIP3    H113865   7.167   4.715   1.718
 4636TIP3    H213866   7.106   4.773   1.844
 4637TIP3   OH213867   4.771   2.248   5.148
 4637TIP3    H113868   4.798   2.319   5.205
 4637TIP3    H213869   4.815   2.265   5.064
 4638TIP3   OH213870   4.336   1.164   5.696
 4638TIP3    H113871   4.312   1.087   5.645
 4638TIP3    H213872   4.367   1.227   5.630
 4639TIP3   OH213873   1.459   1.181   3.962
 4639TIP3    H113874   1.448   1.171   3.867
 4639TIP3    H213875   1.371   1.201   3.994
 4640TIP3   OH213876   1.981   3.575   4.937
 4640TIP3    H113877   1.906   3.550   4.992
 4640TIP3    H213878   1.945   3.639   4.875
 4641TIP3   OH213879   7.898   6.063   2.639
 4641TIP3    H113880   7.858   6.103   2.561
 4641TIP3    H213881   7.931   6.137   2.689
 4642TIP3   OH213882   5.115   1.776   2.254
 4642TIP3    H113883   5.081   1.851   2.303
 4642TIP3    H213884   5.130   1.809   2.165
 4643TIP3   OH213885   4.463   1.301   1.289
 4643TIP3    H113886   4.543   1.352   1.298
 4643TIP3    H213887   4.486   1.213   1.317
 4644TIP3   OH213888   7.429   3.451   3.279
 4644TIP3    H113889   7.503   3.491   3.324
 4644TIP3    H213890   7.426   3.361   3.312
 4645TIP3   OH213891   5.749   1.203   4.866
 4645TIP3    H113892   5.654   1.195   4.855
 4645TIP3    H213893   5.761   1.291   4.902
 4646TIP3   OH213894   4.494   1.496   2.828
 4646TIP3    H113895   4.484   1.414   2.780
 4646TIP3    H213896   4.589   1.508   2.835
 4647TIP3   OH213897   2.001   1.973   1.889
 4647TIP3    H113898   2.043   2.038   1.833
 4647TIP3    H213899   2.019   2.003   1.978
 4648TIP3   OH213900   5.016   2.113   6.605
 4648TIP3    H113901   4.975   2.173   6.667
 4648TIP3    H213902   5.074   2.169   6.553
 4649TIP3   OH213903   3.097   0.306   0.491
 4649TIP3    H113904   3.066   0.320   0.581
 4649TIP3    H213905   3.170   0.244   0.499
 4650TIP3   OH213906   6.797   6.004   4.706
 4650TIP3    H113907   6.739   5.928   4.701
 4650TIP3    H213908   6.743   6.072   4.745
 4651TIP3   OH213909   7.724   6.737   2.447
 4651TIP3    H113910   7.662   6.796   2.404
 4651TIP3    H213911   7.685   6.719   2.532
 4652TIP3   OH213912   1.333   4.788   1.230
 4652TIP3    H113913   1.245   4.792   1.194
 4652TIP3    H213914   1.349   4.695   1.245
 4653TIP3   OH213915   4.033   1.931   2.194
 4653TIP3    H113916   4.067   2.001   2.250
 4653TIP3    H213917   3.973   1.976   2.134
 4654TIP3   OH213918   6.731   1.028   3.110
 4654TIP3    H113919   6.745   1.078   3.191
 4654TIP3    H213920   6.685   0.949   3.138
 4655TIP3   OH213921   0.802   1.406   4.544
 4655TIP3    H113922   0.725   1.358   4.574
 4655TIP3    H213923   0.809   1.480   4.604
 4656TIP3   OH213924   3.044   0.531   5.799
 4656TIP3    H113925   3.084   0.500   5.880
 4656TIP3    H213926   3.106   0.593   5.762
 4657TIP3   OH213927   3.023   4.431   1.088
 4657TIP3    H113928   2.963   4.366   1.052
 4657TIP3    H213929   3.105   4.384   1.100
 4658TIP3   OH213930   1.834   4.799  -0.001
 4658TIP3    H113931   1.783   4.842   0.067
 4658TIP3    H213932   1.792   4.714  -0.013
 4659TIP3   OH213933   3.968   1.580   5.784
 4659TIP3    H113934   4.037   1.520   5.754
 4659TIP3    H213935   3.916   1.597   5.705
 4660TIP3   OH213936   8.264   2.630   6.747
 4660TIP3    H113937   8.277   2.556   6.688
 4660TIP3    H213938   8.237   2.702   6.690
 4661TIP3   OH213939   1.734   6.889   4.465
 4661TIP3    H113940   1.639   6.884   4.477
 4661TIP3    H213941   1.757   6.809   4.418
 4662TIP3   OH213942   0.867   6.278   0.519
 4662TIP3    H113943   0.892   6.243   0.605
 4662TIP3    H213944   0.776   6.249   0.508
 4663TIP3   OH213945   1.774   0.711   5.794
 4663TIP3    H113946   1.798   0.656   5.868
 4663TIP3    H213947   1.739   0.650   5.729
 4664TIP3   OH213948   7.164   6.849   2.331
 4664TIP3    H113949   7.231   6.882   2.271
 4664TIP3    H213950   7.081   6.877   2.292
 4665TIP3   OH213951   1.943   1.902   6.503
 4665TIP3    H113952   1.913   1.841   6.435
 4665TIP3    H213953   1.895   1.983   6.486
 4666TIP3   OH213954   5.541   3.345   3.713
 4666TIP3    H113955   5.542   3.416   3.648
 4666TIP3    H213956   5.449   3.336   3.737
 4667TIP3   OH213957   0.630   3.300   3.455
 4667TIP3    H113958   0.720   3.288   3.422
 4667TIP3    H213959   0.640   3.302   3.550
 4668TIP3   OH213960   7.716   6.621   1.143
 4668TIP3    H113961   7.753   6.644   1.057
 4668TIP3    H213962   7.642   6.681   1.153
 4669TIP3   OH213963   4.613   4.859   1.981
 4669TIP3    H113964   4.603   4.910   2.061
 4669TIP3    H213965   4.529   4.813   1.972
 4670TIP3   OH213966   3.262   4.724   3.868
 4670TIP3    H113967   3.232   4.711   3.778
 4670TIP3    H213968   3.288   4.816   3.872
 4671TIP3   OH213969   1.352   0.177   1.828
 4671TIP3    H113970   1.261   0.151   1.819
 4671TIP3    H213971   1.360   0.205   1.919
 4672TIP3   OH213972   7.237   1.733   0.238
 4672TIP3    H113973   7.270   1.808   0.286
 4672TIP3    H213974   7.147   1.756   0.216
 4673TIP3   OH213975   4.008   4.044   0.503
 4673TIP3    H113976   3.921   4.079   0.520
 4673TIP3    H213977   4.062   4.078   0.573
 4674TIP3   OH213978   2.543   4.873   3.128
 4674TIP3    H113979   2.630   4.867   3.089
 4674TIP3    H213980   2.485   4.893   3.054
 4675TIP3   OH213981   2.016   6.900   1.191
 4675TIP3    H113982   1.985   6.941   1.110
 4675TIP3    H213983   2.088   6.956   1.220
 4676TIP3   OH213984   4.752   3.188   1.127
 4676TIP3    H113985   4.795   3.116   1.174
 4676TIP3    H213986   4.668   3.199   1.172
 4677TIP3   OH213987   4.976   5.659   5.426
 4677TIP3    H113988   5.009   5.576   5.460
 4677TIP3    H213989   5.014   5.725   5.483
 4678TIP3   OH213990   5.620   5.936   1.351
 4678TIP3    H113991   5.545   5.979   1.310
 4678TIP3    H213992   5.622   5.849   1.313
 4679TIP3   OH213993   0.347   3.042   1.230
 4679TIP3    H113994   0.394   3.030   1.147
 4679TIP3    H213995   0.345   2.955   1.269
 4680TIP3   OH213996   0.359   3.902   6.741
 4680TIP3    H113997   0.297   3.840   6.702
 4680TIP3    H213998   0.322   3.921   6.827
 4681TIP3   OH213999   1.971   6.019   5.707
 4681TIP3    H114000   1.896   6.061   5.749
 4681TIP3    H214001   1.950   6.020   5.614
 4682TIP3   OH214002   2.903   3.245   6.290
 4682TIP3    H114003   2.970   3.177   6.295
 4682TIP3    H214004   2.934   3.303   6.221
 4683TIP3   OH214005   0.764   2.313   3.733
 4683TIP3    H114006   0.814   2.290   3.655
 4683TIP3    H214007   0.776   2.239   3.792
 4684TIP3   OH214008   1.590   6.979   6.351
 4684TIP3    H114009   1.555   7.030   6.424
 4684TIP3    H214010   1.569   7.031   6.273
 4685TIP3   OH214011   2.510   7.457   5.912
 4685TIP3    H114012   2.522   7.407   5.992
 4685TIP3    H214013   2.576   7.527   5.916
 4686TIP3   OH214014   0.058   2.736   3.812
 4686TIP3    H114015   0.040   2.751   3.905
 4686TIP3    H214016   0.065   2.641   3.803
 4687TIP3   OH214017   5.161   0.944   6.175
 4687TIP3    H114018   5.254   0.944   6.150
 4687TIP3    H214019   5.162   0.951   6.270
 4688TIP3   OH214020   1.390   1.725   1.721
 4688TIP3    H114021   1.329   1.764   1.658
 4688TIP3    H214022   1.477   1.750   1.688
 4689TIP3   OH214023   1.918   7.370   2.112
 4689TIP3    H114024   1.978   7.319   2.167
 4689TIP3    H214025   1.872   7.304   2.060
 4690TIP3   OH214026   3.705   3.674   4.805
 4690TIP3    H114027   3.747   3.723   4.876
 4690TIP3    H214028   3.689   3.739   4.736
 4691TIP3   OH214029   8.190   6.131   0.278
 4691TIP3    H114030   8.202   6.143   0.373
 4691TIP3    H214031   8.238   6.204   0.239
 4692TIP3   OH214032   0.066   0.885   5.617
 4692TIP3    H114033   0.106   0.959   5.571
 4692TIP3    H214034  -0.028   0.898   5.604
 4693TIP3   OH214035   1.922   0.381   6.614
 4693TIP3    H114036   1.861   0.436   6.662
 4693TIP3    H214037   2.006   0.393   6.659
 4694TIP3   OH214038   6.581   1.678   2.343
 4694TIP3    H114039   6.608   1.640   2.427
 4694TIP3    H214040   6.664   1.696   2.298
 4695TIP3   OH214041   3.710   1.475   5.361
 4695TIP3    H114042   3.705   1.486   5.266
 4695TIP3    H214043   3.687   1.562   5.396
 4696TIP3   OH214044   5.341   6.310   2.736
 4696TIP3    H114045   5.254   6.289   2.771
 4696TIP3    H214046   5.334   6.402   2.709
 4697TIP3   OH214047   6.058   1.563   0.269
 4697TIP3    H114048   6.082   1.470   0.268
 4697TIP3    H214049   6.067   1.589   0.360
 4698TIP3   OH214050   2.088   5.647   1.319
 4698TIP3    H114051   2.044   5.621   1.400
 4698TIP3    H214052   2.031   5.715   1.282
 4699TIP3   OH214053   0.313   6.237   4.950
 4699TIP3    H114054   0.221   6.240   4.976
 4699TIP3    H214055   0.318   6.162   4.891
 4700TIP3   OH214056   2.332   3.401   6.066
 4700TIP3    H114057   2.292   3.334   6.012
 4700TIP3    H214058   2.313   3.484   6.022
 4701TIP3   OH214059   4.847   6.331   0.675
 4701TIP3    H114060   4.916   6.390   0.704
 4701TIP3    H214061   4.767   6.367   0.714
 4702TIP3   OH214062   5.226   7.272   2.647
 4702TIP3    H114063   5.171   7.337   2.605
 4702TIP3    H214064   5.287   7.244   2.579
 4703TIP3   OH214065   3.427   2.045   5.059
 4703TIP3    H114066   3.372   2.022   4.984
 4703TIP3    H214067   3.487   1.971   5.068
 4704TIP3   OH214068   0.440   6.959   5.884
 4704TIP3    H114069   0.380   6.935   5.814
 4704TIP3    H214070   0.478   7.043   5.855
 4705TIP3   OH214071   0.624   3.623   1.950
 4705TIP3    H114072   0.591   3.559   2.013
 4705TIP3    H214073   0.553   3.632   1.886
 4706TIP3   OH214074   5.611   1.747   4.036
 4706TIP3    H114075   5.548   1.768   3.967
 4706TIP3    H214076   5.588   1.658   4.064
 4707TIP3   OH214077   8.053   0.579   6.529
 4707TIP3    H114078   8.066   0.651   6.467
 4707TIP3    H214079   7.962   0.588   6.558
 4708TIP3   OH214080   1.159   7.094   0.583
 4708TIP3    H114081   1.188   7.014   0.539
 4708TIP3    H214082   1.185   7.081   0.674
 4709TIP3   OH214083   7.359   6.467   3.181
 4709TIP3    H114084   7.302   6.499   3.111
 4709TIP3    H214085   7.423   6.536   3.194
 4710TIP3   OH214086   2.625   4.663   1.363
 4710TIP3    H114087   2.566   4.660   1.438
 4710TIP3    H214088   2.713   4.667   1.402
 4711TIP3   OH214089   6.005   7.175   3.414
 4711TIP3    H114090   6.008   7.080   3.401
 4711TIP3    H214091   5.994   7.211   3.326
 4712TIP3   OH214092   7.657   4.725   5.126
 4712TIP3    H114093   7.563   4.737   5.122
 4712TIP3    H214094   7.693   4.808   5.094
 4713TIP3   OH214095   0.451   7.736   3.608
 4713TIP3    H114096   0.384   7.803   3.595
 4713TIP3    H214097   0.454   7.723   3.703
 4714TIP3   OH214098   0.757   3.106   4.787
 4714TIP3    H114099   0.682   3.050   4.807
 4714TIP3    H214100   0.783   3.142   4.872
 4715TIP3   OH214101   4.724   4.695   2.954
 4715TIP3    H114102   4.743   4.682   3.047
 4715TIP3    H214103   4.639   4.741   2.954
 4716TIP3   OH214104   6.525   0.420   6.458
 4716TIP3    H114105   6.450   0.450   6.511
 4716TIP3    H214106   6.486   0.383   6.379
 4717TIP3   OH214107   7.097   2.886   0.173
 4717TIP3    H114108   7.017   2.925   0.210
 4717TIP3    H214109   7.162   2.892   0.243
 4718TIP3   OH214110   6.010   7.051   1.234
 4718TIP3    H114111   6.046   7.107   1.302
 4718TIP3    H214112   5.919   7.080   1.224
 4719TIP3   OH214113   1.902   3.963   6.683
 4719TIP3    H114114   1.962   3.905   6.635
 4719TIP3    H214115   1.945   4.049   6.679
 4720TIP3   OH214116   1.711   6.980   2.172
 4720TIP3    H114117   1.702   6.986   2.267
 4720TIP3    H214118   1.697   6.887   2.153
 4721TIP3   OH214119   6.989   1.619   2.716
 4721TIP3    H114120   7.048   1.614   2.792
 4721TIP3    H214121   7.004   1.706   2.679
 4722TIP3   OH214122   0.923   3.537   3.507
 4722TIP3    H114123   0.942   3.539   3.413
 4722TIP3    H214124   0.849   3.597   3.518
 4723TIP3   OH214125   6.208   4.289   5.454
 4723TIP3    H114126   6.211   4.320   5.545
 4723TIP3    H214127   6.122   4.247   5.446
 4724TIP3   OH214128   4.882   4.075   2.671
 4724TIP3    H114129   4.931   4.044   2.595
 4724TIP3    H214130   4.948   4.085   2.739
 4725TIP3   OH214131   5.427   7.525   1.522
 4725TIP3    H114132   5.445   7.465   1.450
 4725TIP3    H214133   5.446   7.476   1.601
 4726TIP3   OH214134   3.021   5.766   2.048
 4726TIP3    H114135   2.997   5.848   2.091
 4726TIP3    H214136   3.070   5.794   1.970
 4727TIP3   OH214137   7.606   7.298   4.028
 4727TIP3    H114138   7.653   7.259   3.954
 4727TIP3    H214139   7.614   7.233   4.098
 4728TIP3   OH214140   1.986   6.432   5.139
 4728TIP3    H114141   2.036   6.404   5.062
 4728TIP3    H214142   2.013   6.522   5.154
 4729TIP3   OH214143   0.727   2.808   3.594
 4729TIP3    H114144   0.810   2.763   3.577
 4729TIP3    H214145   0.711   2.861   3.516
 4730TIP3   OH214146   5.851   7.671   2.652
 4730TIP3    H114147   5.813   7.635   2.572
 4730TIP3    H214148   5.820   7.613   2.722
 4731TIP3   OH214149   2.973   7.152   4.669
 4731TIP3    H114150   3.020   7.214   4.613
 4731TIP3    H214151   2.952   7.202   4.748
 4732TIP3   OH214152   7.405   7.038   3.011
 4732TIP3    H114153   7.382   7.018   3.102
 4732TIP3    H214154   7.322   7.039   2.964
 4733TIP3   OH214155   4.926   1.748   6.753
 4733TIP3    H114156   4.906   1.826   6.701
 4733TIP3    H214157   4.845   1.698   6.754
 4734TIP3   OH214158   7.649   3.631   3.015
 4734TIP3    H114159   7.584   3.568   2.983
 4734TIP3    H214160   7.690   3.587   3.089
 4735TIP3   OH214161   4.304   5.110   5.770
 4735TIP3    H114162   4.255   5.180   5.727
 4735TIP3    H214163   4.271   5.110   5.860
 4736TIP3   OH214164   1.901   2.893   6.465
 4736TIP3    H114165   1.811   2.884   6.435
 4736TIP3    H214166   1.935   2.969   6.417
 4737TIP3   OH214167   7.924   2.542   4.458
 4737TIP3    H114168   7.835   2.548   4.494
 4737TIP3    H214169   7.976   2.505   4.529
 4738TIP3   OH214170   0.486   4.852   2.722
 4738TIP3    H114171   0.454   4.857   2.811
 4738TIP3    H214172   0.578   4.824   2.731
 4739TIP3   OH214173   4.660   2.401   3.893
 4739TIP3    H114174   4.681   2.434   3.806
 4739TIP3    H214175   4.725   2.441   3.951
 4740TIP3   OH214176   4.776   6.160   4.852
 4740TIP3    H114177   4.705   6.224   4.850
 4740TIP3    H214178   4.732   6.076   4.869
 4741TIP3   OH214179   7.307   7.259   0.696
 4741TIP3    H114180   7.220   7.281   0.728
 4741TIP3    H214181   7.310   7.296   0.608
 4742TIP3   OH214182   0.873   2.034   2.842
 4742TIP3    H114183   0.900   1.945   2.865
 4742TIP3    H214184   0.944   2.089   2.874
 4743TIP3   OH214185   6.085   7.750   1.318
 4743TIP3    H114186   6.148   7.821   1.329
 4743TIP3    H214187   6.075   7.741   1.223
 4744TIP3   OH214188   5.681   4.029   2.975
 4744TIP3    H114189   5.715   3.948   2.938
 4744TIP3    H214190   5.586   4.020   2.970
 4745TIP3   OH214191   2.767   2.038   5.979
 4745TIP3    H114192   2.841   1.984   6.007
 4745TIP3    H214193   2.723   1.984   5.913
 4746TIP3   OH214194   5.137   5.144   5.552
 4746TIP3    H114195   5.227   5.175   5.561
 4746TIP3    H214196   5.105   5.137   5.641
 4747TIP3   OH214197   5.138   0.624   4.486
 4747TIP3    H114198   5.142   0.602   4.579
 4747TIP3    H214199   5.116   0.541   4.443
 4748TIP3   OH214200   4.187   1.042   5.910
 4748TIP3    H114201   4.135   1.018   5.833
 4748TIP3    H214202   4.259   1.093   5.875
 4749TIP3   OH214203   8.244   6.667   3.691
 4749TIP3    H114204   8.216   6.596   3.632
 4749TIP3    H214205   8.331   6.641   3.720
 4750TIP3   OH214206   2.666   3.049   5.839
 4750TIP3    H114207   2.735   3.009   5.892
 4750TIP3    H214208   2.713   3.094   5.768
 4751TIP3   OH214209   7.470   3.128   5.279
 4751TIP3    H114210   7.527   3.158   5.350
 4751TIP3    H214211   7.491   3.035   5.270
 4752TIP3   OH214212   3.557   0.357   1.363
 4752TIP3    H114213   3.529   0.444   1.333
 4752TIP3    H214214   3.653   0.361   1.363
 4753TIP3   OH214215   5.394   0.242   0.659
 4753TIP3    H114216   5.442   0.264   0.739
 4753TIP3    H214217   5.349   0.323   0.635
 4754TIP3   OH214218   7.581   2.016   3.705
 4754TIP3    H114219   7.536   1.977   3.780
 4754TIP3    H214220   7.626   2.092   3.741
 4755TIP3   OH214221   3.336   1.964   2.656
 4755TIP3    H114222   3.271   2.000   2.715
 4755TIP3    H214223   3.382   1.898   2.708
 4756TIP3   OH214224   3.854   3.718   1.759
 4756TIP3    H114225   3.802   3.795   1.783
 4756TIP3    H214226   3.792   3.661   1.713
 4757TIP3   OH214227   0.027   3.433   4.520
 4757TIP3    H114228   0.020   3.501   4.454
 4757TIP3    H214229   0.005   3.476   4.602
 4758TIP3   OH214230   1.667   4.317   6.383
 4758TIP3    H114231   1.652   4.224   6.398
 4758TIP3    H214232   1.680   4.355   6.470
 4759TIP3   OH214233   8.236   3.031   5.340
 4759TIP3    H114234   8.216   2.943   5.369
 4759TIP3    H214235   8.312   3.057   5.392
 4760TIP3   OH214236   6.198   4.476   2.816
 4760TIP3    H114237   6.233   4.389   2.795
 4760TIP3    H214238   6.115   4.459   2.859
 4761TIP3   OH214239   4.780   2.006   1.999
 4761TIP3    H114240   4.700   1.963   1.966
 4761TIP3    H214241   4.777   2.094   1.961
 4762TIP3   OH214242   5.006   7.438   5.112
 4762TIP3    H114243   5.077   7.493   5.081
 4762TIP3    H214244   5.042   7.349   5.111
 4763TIP3   OH214245   7.742   0.703   0.752
 4763TIP3    H114246   7.748   0.615   0.715
 4763TIP3    H214247   7.791   0.758   0.692
 4764TIP3   OH214248   1.786   3.016   3.734
 4764TIP3    H114249   1.772   2.935   3.685
 4764TIP3    H214250   1.881   3.031   3.729
 4765TIP3   OH214251   1.314   3.551   2.752
 4765TIP3    H114252   1.318   3.629   2.807
 4765TIP3    H214253   1.354   3.577   2.669
 4766TIP3   OH214254   5.268   3.097   4.986
 4766TIP3    H114255   5.349   3.059   4.953
 4766TIP3    H214256   5.238   3.153   4.915
 4767TIP3   OH214257   0.675   5.650   6.022
 4767TIP3    H114258   0.710   5.590   6.088
 4767TIP3    H214259   0.583   5.661   6.045
 4768TIP3   OH214260   5.766   5.348   6.136
 4768TIP3    H114261   5.811   5.318   6.215
 4768TIP3    H214262   5.682   5.303   6.138
 4769TIP3   OH214263   7.155   2.360   4.320
 4769TIP3    H114264   7.229   2.304   4.345
 4769TIP3    H214265   7.178   2.447   4.353
 4770TIP3   OH214266   1.576   0.816   2.201
 4770TIP3    H114267   1.514   0.831   2.130
 4770TIP3    H214268   1.536   0.748   2.254
 4771TIP3   OH214269   1.685   4.991   2.307
 4771TIP3    H114270   1.618   5.058   2.320
 4771TIP3    H214271   1.767   5.033   2.334
 4772TIP3   OH214272   0.355   7.291   4.078
 4772TIP3    H114273   0.343   7.348   4.002
 4772TIP3    H214274   0.327   7.204   4.048
 4773TIP3   OH214275   2.527   4.404   0.128
 4773TIP3    H114276   2.511   4.313   0.103
 4773TIP3    H214277   2.450   4.451   0.095
 4774TIP3   OH214278   3.324   4.439   3.257
 4774TIP3    H114279   3.324   4.349   3.223
 4774TIP3    H214280   3.352   4.492   3.183
 4775TIP3   OH214281   3.142   6.378   6.415
 4775TIP3    H114282   3.210   6.445   6.425
 4775TIP3    H214283   3.147   6.353   6.323
 4776TIP3   OH214284   3.874   2.961   4.788
 4776TIP3    H114285   3.917   2.951   4.703
 4776TIP3    H214286   3.783   2.937   4.773
 4777TIP3   OH214287   3.288   7.153   3.322
 4777TIP3    H114288   3.270   7.239   3.283
 4777TIP3    H214289   3.383   7.153   3.336
 4778TIP3   OH214290   0.518   6.819   2.671
 4778TIP3    H114291   0.542   6.912   2.665
 4778TIP3    H214292   0.429   6.815   2.636
 4779TIP3   OH214293   1.409   1.615   4.933
 4779TIP3    H114294   1.314   1.615   4.948
 4779TIP3    H214295   1.419   1.580   4.844
 4780TIP3   OH214296   2.265   2.428   5.484
 4780TIP3    H114297   2.222   2.400   5.565
 4780TIP3    H214298   2.227   2.373   5.416
 4781TIP3   OH214299   2.588   1.547   5.372
 4781TIP3    H114300   2.677   1.534   5.404
 4781TIP3    H214301   2.585   1.639   5.346
 4782TIP3   OH214302   3.142   3.802   5.858
 4782TIP3    H114303   3.213   3.765   5.805
 4782TIP3    H214304   3.182   3.820   5.943
 4783TIP3   OH214305   0.924   0.661   4.169
 4783TIP3    H114306   0.852   0.713   4.133
 4783TIP3    H214307   0.882   0.583   4.205
 4784TIP3   OH214308   1.856   3.535   0.064
 4784TIP3    H114309   1.921   3.476   0.102
 4784TIP3    H214310   1.905   3.589   0.003
 4785TIP3   OH214311   2.976   1.125   1.598
 4785TIP3    H114312   2.998   1.189   1.665
 4785TIP3    H214313   3.049   1.062   1.598
 4786TIP3   OH214314   7.128   2.343   2.443
 4786TIP3    H114315   7.192   2.344   2.514
 4786TIP3    H214316   7.053   2.295   2.478
 4787TIP3   OH214317   5.617   0.870   4.135
 4787TIP3    H114318   5.572   0.946   4.171
 4787TIP3    H214319   5.595   0.870   4.042
 4788TIP3   OH214320   7.745   4.447   0.640
 4788TIP3    H114321   7.738   4.538   0.612
 4788TIP3    H214322   7.659   4.427   0.677
 4789TIP3   OH214323   2.704   0.962   1.047
 4789TIP3    H114324   2.709   0.968   0.951
 4789TIP3    H214325   2.671   1.048   1.074
 4790TIP3   OH214326   3.501   4.509   1.553
 4790TIP3    H114327   3.413   4.501   1.517
 4790TIP3    H214328   3.516   4.603   1.560
 4791TIP3   OH214329   5.195   6.743   1.214
 4791TIP3    H114330   5.215   6.658   1.176
 4791TIP3    H214331   5.204   6.730   1.309
 4792TIP3   OH214332   1.182   6.799   0.752
 4792TIP3    H114333   1.104   6.775   0.802
 4792TIP3    H214334   1.163   6.770   0.663
 4793TIP3   OH214335   7.896   3.529   2.091
 4793TIP3    H114336   7.941   3.495   2.014
 4793TIP3    H214337   7.946   3.495   2.165
 4794TIP3   OH214338   6.214   2.075   0.647
 4794TIP3    H114339   6.169   2.157   0.666
 4794TIP3    H214340   6.144   2.009   0.646
 4795TIP3   OH214341   3.363   6.208   0.472
 4795TIP3    H114342   3.341   6.284   0.418
 4795TIP3    H214343   3.418   6.154   0.416
 4796TIP3   OH214344   1.902   3.057   2.072
 4796TIP3    H114345   1.957   2.987   2.037
 4796TIP3    H214346   1.844   3.080   1.999
 4797TIP3   OH214347   6.032   5.410   3.685
 4797TIP3    H114348   6.069   5.403   3.773
 4797TIP3    H214349   6.107   5.397   3.627
 4798TIP3   OH214350   3.852   0.135   1.479
 4798TIP3    H114351   3.825   0.135   1.387
 4798TIP3    H214352   3.922   0.070   1.483
 4799TIP3   OH214353   4.045   4.286   6.163
 4799TIP3    H114354   4.036   4.348   6.235
 4799TIP3    H214355   4.028   4.338   6.084
 4800TIP3   OH214356   7.269   6.596   1.727
 4800TIP3    H114357   7.346   6.574   1.674
 4800TIP3    H214358   7.215   6.651   1.669
 4801TIP3   OH214359   1.509   2.430   6.380
 4801TIP3    H114360   1.559   2.398   6.455
 4801TIP3    H214361   1.422   2.393   6.391
 4802TIP3   OH214362   6.030   4.645   2.410
 4802TIP3    H114363   6.004   4.735   2.429
 4802TIP3    H214364   6.023   4.637   2.315
 4803TIP3   OH214365   5.256   7.515   5.267
 4803TIP3    H114366   5.318   7.450   5.233
 4803TIP3    H214367   5.229   7.565   5.191
 4804TIP3   OH214368   4.913   5.705   1.441
 4804TIP3    H114369   4.822   5.698   1.469
 4804TIP3    H214370   4.909   5.695   1.345
 4805TIP3   OH214371   7.930   5.850   5.129
 4805TIP3    H114372   7.983   5.808   5.197
 4805TIP3    H214373   7.957   5.808   5.047
 4806TIP3   OH214374   0.822   5.178   4.236
 4806TIP3    H114375   0.768   5.239   4.185
 4806TIP3    H214376   0.815   5.208   4.326
 4807TIP3   OH214377   4.080   2.267   5.232
 4807TIP3    H114378   3.989   2.258   5.204
 4807TIP3    H214379   4.123   2.187   5.201
 4808TIP3   OH214380   3.942   5.829   4.622
 4808TIP3    H114381   3.917   5.859   4.534
 4808TIP3    H214382   3.940   5.734   4.617
 4809TIP3   OH214383   4.509   4.012   5.022
 4809TIP3    H114384   4.472   4.074   5.085
 4809TIP3    H214385   4.602   4.034   5.019
 4810TIP3   OH214386   0.824   2.972   3.967
 4810TIP3    H114387   0.898   3.028   3.990
 4810TIP3    H214388   0.861   2.907   3.907
 4811TIP3   OH214389   3.219   2.867   3.791
 4811TIP3    H114390   3.153   2.929   3.762
 4811TIP3    H214391   3.295   2.921   3.813
 4812TIP3   OH214392   2.124   3.731   1.347
 4812TIP3    H114393   2.163   3.818   1.349
 4812TIP3    H214394   2.029   3.748   1.350
 4813TIP3   OH214395   6.849   7.205   2.759
 4813TIP3    H114396   6.800   7.124   2.745
 4813TIP3    H214397   6.919   7.203   2.693
 4814TIP3   OH214398   6.099   0.877   0.438
 4814TIP3    H114399   6.006   0.900   0.429
 4814TIP3    H214400   6.137   0.949   0.489
 4815TIP3   OH214401   6.420   2.237   3.663
 4815TIP3    H114402   6.347   2.208   3.717
 4815TIP3    H214403   6.483   2.165   3.668
 4816TIP3   OH214404   2.596   6.974   4.079
 4816TIP3    H114405   2.643   6.963   3.996
 4816TIP3    H214406   2.520   6.916   4.071
 4817TIP3   OH214407   0.599   2.830   2.204
 4817TIP3    H114408   0.603   2.735   2.216
 4817TIP3    H214409   0.532   2.842   2.136
 4818TIP3   OH214410   1.216   1.457   0.216
 4818TIP3    H114411   1.137   1.511   0.214
 4818TIP3    H214412   1.284   1.511   0.176
 4819TIP3   OH214413   6.104   3.930   5.181
 4819TIP3    H114414   6.041   3.874   5.135
 4819TIP3    H214415   6.053   3.968   5.253
 4820TIP3   OH214416   7.049   6.777   1.908
 4820TIP3    H114417   7.027   6.728   1.828
 4820TIP3    H214418   7.082   6.861   1.876
 4821TIP3   OH214419   0.189   6.890   3.774
 4821TIP3    H114420   0.215   6.982   3.785
 4821TIP3    H214421   0.185   6.877   3.679
 4822TIP3   OH214422   6.455   3.103   2.935
 4822TIP3    H114423   6.492   3.079   2.850
 4822TIP3    H214424   6.442   3.197   2.930
 4823TIP3   OH214425   6.244   3.857   6.628
 4823TIP3    H114426   6.207   3.944   6.644
 4823TIP3    H214427   6.333   3.875   6.599
 4824TIP3   OH214428   7.528   1.831   4.441
 4824TIP3    H114429   7.582   1.758   4.412
 4824TIP3    H214430   7.439   1.796   4.444
 4825TIP3   OH214431   4.164   5.557   2.797
 4825TIP3    H114432   4.103   5.486   2.814
 4825TIP3    H214433   4.165   5.608   2.879
 4826TIP3   OH214434   7.293   7.653   3.409
 4826TIP3    H114435   7.304   7.558   3.421
 4826TIP3    H214436   7.377   7.682   3.375
 4827TIP3   OH214437   7.351   1.607   5.316
 4827TIP3    H114438   7.403   1.631   5.393
 4827TIP3    H214439   7.260   1.613   5.346
 4828TIP3   OH214440   8.223   6.490   1.699
 4828TIP3    H114441   8.270   6.530   1.772
 4828TIP3    H214442   8.284   6.494   1.625
 4829TIP3   OH214443   8.304   6.098   4.987
 4829TIP3    H114444   8.227   6.141   5.023
 4829TIP3    H214445   8.320   6.024   5.046
 4830TIP3   OH214446   5.963   7.042   4.100
 4830TIP3    H114447   6.009   7.118   4.135
 4830TIP3    H214448   5.962   6.980   4.173
 4831TIP3   OH214449   5.224   1.660   5.606
 4831TIP3    H114450   5.294   1.611   5.563
 4831TIP3    H214451   5.270   1.728   5.656
 4832TIP3   OH214452   5.037   2.507   5.721
 4832TIP3    H114453   5.021   2.599   5.705
 4832TIP3    H214454   5.110   2.506   5.783
 4833TIP3   OH214455   1.918   0.402   0.500
 4833TIP3    H114456   2.000   0.353   0.491
 4833TIP3    H214457   1.903   0.439   0.413
 4834TIP3   OH214458   3.800   6.456   2.522
 4834TIP3    H114459   3.762   6.430   2.607
 4834TIP3    H214460   3.759   6.396   2.459
 4835TIP3   OH214461   2.164   7.029   3.945
 4835TIP3    H114462   2.089   7.011   3.888
 4835TIP3    H214463   2.233   7.057   3.885
 4836TIP3   OH214464   6.061   6.247   2.197
 4836TIP3    H114465   5.980   6.263   2.245
 4836TIP3    H214466   6.128   6.237   2.264
 4837TIP3   OH214467   4.964   1.612   1.769
 4837TIP3    H114468   4.940   1.680   1.707
 4837TIP3    H214469   4.885   1.600   1.823
 4838TIP3   OH214470   8.304   5.510   2.759
 4838TIP3    H114471   8.331   5.433   2.708
 4838TIP3    H214472   8.226   5.481   2.806
 4839TIP3   OH214473   2.354   0.508   4.903
 4839TIP3    H114474   2.297   0.541   4.972
 4839TIP3    H214475   2.340   0.414   4.902
 4840TIP3   OH214476   5.962   2.704   2.668
 4840TIP3    H114477   5.910   2.652   2.729
 4840TIP3    H214478   6.052   2.696   2.700
 4841TIP3   OH214479   4.421   6.189   2.660
 4841TIP3    H114480   4.373   6.179   2.577
 4841TIP3    H214481   4.356   6.168   2.727
 4842TIP3   OH214482   0.979   6.082   5.909
 4842TIP3    H114483   0.959   6.175   5.922
 4842TIP3    H214484   0.932   6.037   5.979
 4843TIP3   OH214485   0.644   1.648   0.559
 4843TIP3    H114486   0.582   1.717   0.583
 4843TIP3    H214487   0.591   1.569   0.553
 4844TIP3   OH214488   8.154   7.435   5.739
 4844TIP3    H114489   8.086   7.406   5.678
 4844TIP3    H214490   8.216   7.363   5.742
 4845TIP3   OH214491   0.045   0.545   4.995
 4845TIP3    H114492   0.015   0.455   4.982
 4845TIP3    H214493   0.133   0.547   4.957
 4846TIP3   OH214494   3.114   2.665   3.946
 4846TIP3    H114495   3.062   2.609   3.889
 4846TIP3    H214496   3.124   2.746   3.897
 4847TIP3   OH214497   6.541   6.957   5.164
 4847TIP3    H114498   6.625   6.996   5.186
 4847TIP3    H214499   6.550   6.864   5.187
 4848TIP3   OH214500   5.034   5.149   0.236
 4848TIP3    H114501   5.061   5.241   0.243
 4848TIP3    H214502   5.063   5.123   0.149
 4849TIP3   OH214503   2.602   5.707   2.956
 4849TIP3    H114504   2.679   5.720   3.011
 4849TIP3    H214505   2.629   5.733   2.868
 4850TIP3   OH214506   4.136   3.361   3.532
 4850TIP3    H114507   4.228   3.389   3.533
 4850TIP3    H214508   4.102   3.389   3.617
 4851TIP3   OH214509   7.700   1.677   2.320
 4851TIP3    H114510   7.715   1.582   2.315
 4851TIP3    H214511   7.766   1.715   2.262
 4852TIP3   OH214512   7.827   0.574   5.530
 4852TIP3    H114513   7.780   0.657   5.533
 4852TIP3    H214514   7.895   0.586   5.464
 4853TIP3   OH214515   6.883   1.821   3.963
 4853TIP3    H114516   6.831   1.746   3.992
 4853TIP3    H214517   6.860   1.832   3.871
 4854TIP3   OH214518   6.045   6.334   3.198
 4854TIP3    H114519   5.985   6.324   3.271
 4854TIP3    H214520   6.127   6.294   3.228
 4855TIP3   OH214521   3.498   6.750   3.545
 4855TIP3    H114522   3.567   6.725   3.605
 4855TIP3    H214523   3.498   6.682   3.478
 4856TIP3   OH214524   3.324   2.683   5.460
 4856TIP3    H114525   3.324   2.741   5.383
 4856TIP3    H214526   3.351   2.740   5.532
 4857TIP3   OH214527   5.610   1.402   6.240
 4857TIP3    H114528   5.518   1.381   6.257
 4857TIP3    H214529   5.622   1.380   6.147
 4858TIP3   OH214530   4.634   1.221   1.627
 4858TIP3    H114531   4.708   1.276   1.601
 4858TIP3    H214532   4.624   1.238   1.721
 4859TIP3   OH214533   1.477   4.318   1.211
 4859TIP3    H114534   1.465   4.390   1.149
 4859TIP3    H214535   1.390   4.301   1.245
 4860TIP3   OH214536   6.222   6.249   2.410
 4860TIP3    H114537   6.255   6.171   2.454
 4860TIP3    H214538   6.248   6.321   2.468
 4861TIP3   OH214539   8.295   2.605   5.124
 4861TIP3    H114540   8.366   2.648   5.172
 4861TIP3    H214541   8.216   2.653   5.148
 4862TIP3   OH214542   1.112   3.694   0.534
 4862TIP3    H114543   1.062   3.682   0.453
 4862TIP3    H214544   1.161   3.775   0.519
 4863TIP3   OH214545   5.501   7.710   3.771
 4863TIP3    H114546   5.460   7.722   3.856
 4863TIP3    H214547   5.593   7.733   3.784
 4864TIP3   OH214548   6.426   4.078   2.230
 4864TIP3    H114549   6.460   4.031   2.306
 4864TIP3    H214550   6.333   4.088   2.246
 4865TIP3   OH214551   0.744   3.717   5.443
 4865TIP3    H114552   0.815   3.654   5.454
 4865TIP3    H214553   0.755   3.750   5.354
 4866TIP3   OH214554   7.440   3.383   1.011
 4866TIP3    H114555   7.426   3.477   1.017
 4866TIP3    H214556   7.443   3.353   1.102
 4867TIP3   OH214557   6.035   2.625   0.482
 4867TIP3    H114558   5.979   2.571   0.426
 4867TIP3    H214559   6.011   2.598   0.571
 4868TIP3   OH214560   3.756   6.508   2.916
 4868TIP3    H114561   3.719   6.596   2.903
 4868TIP3    H214562   3.803   6.514   2.999
 4869TIP3   OH214563   3.792   1.085   5.560
 4869TIP3    H114564   3.732   1.029   5.510
 4869TIP3    H214565   3.756   1.173   5.549
 4870TIP3   OH214566   0.376   6.455   0.106
 4870TIP3    H114567   0.301   6.396   0.101
 4870TIP3    H214568   0.399   6.472   0.015
 4871TIP3   OH214569   6.072   4.373   0.968
 4871TIP3    H114570   6.113   4.459   0.958
 4871TIP3    H214571   6.145   4.311   0.959
 4872TIP3   OH214572   6.401   3.116   4.690
 4872TIP3    H114573   6.314   3.143   4.661
 4872TIP3    H214574   6.444   3.083   4.610
 4873TIP3   OH214575   2.119   0.442   0.818
 4873TIP3    H114576   2.172   0.401   0.886
 4873TIP3    H214577   2.033   0.402   0.828
 4874TIP3   OH214578   4.027   6.599   0.591
 4874TIP3    H114579   3.974   6.529   0.554
 4874TIP3    H214580   4.117   6.573   0.572
 4875TIP3   OH214581   7.821   5.593   5.351
 4875TIP3    H114582   7.806   5.652   5.425
 4875TIP3    H214583   7.783   5.510   5.379
 4876TIP3   OH214584   6.901   4.262   1.641
 4876TIP3    H114585   6.953   4.325   1.591
 4876TIP3    H214586   6.928   4.274   1.732
 4877TIP3   OH214587   4.962   2.965   2.114
 4877TIP3    H114588   4.870   2.952   2.092
 4877TIP3    H214589   4.961   3.025   2.188
 4878TIP3   OH214590   2.549   7.645   6.211
 4878TIP3    H114591   2.600   7.672   6.135
 4878TIP3    H214592   2.569   7.712   6.277
 4879TIP3   OH214593   8.032   2.534   1.502
 4879TIP3    H114594   7.969   2.493   1.444
 4879TIP3    H214595   8.112   2.482   1.492
 4880TIP3   OH214596   0.530   2.943   5.535
 4880TIP3    H114597   0.532   2.991   5.451
 4880TIP3    H214598   0.616   2.901   5.540
 4881TIP3   OH214599   0.731   5.589   4.400
 4881TIP3    H114600   0.814   5.550   4.427
 4881TIP3    H214601   0.685   5.606   4.483
 4882TIP3   OH214602   8.124   5.860   0.378
 4882TIP3    H114603   8.141   5.952   0.356
 4882TIP3    H214604   8.209   5.817   0.370
 4883TIP3   OH214605   5.580   5.701   6.557
 4883TIP3    H114606   5.612   5.631   6.499
 4883TIP3    H214607   5.497   5.728   6.518
 4884TIP3   OH214608   5.975   3.445   2.179
 4884TIP3    H114609   6.035   3.437   2.253
 4884TIP3    H214610   5.949   3.537   2.179
 4885TIP3   OH214611   3.590   6.864   4.947
 4885TIP3    H114612   3.502   6.826   4.944
 4885TIP3    H214613   3.636   6.823   4.875
 4886TIP3   OH214614   3.722   6.527   1.213
 4886TIP3    H114615   3.804   6.576   1.208
 4886TIP3    H214616   3.743   6.450   1.266
 4887TIP3   OH214617   3.694   0.969   1.849
 4887TIP3    H114618   3.684   0.915   1.927
 4887TIP3    H214619   3.782   0.948   1.817
 4888TIP3   OH214620   0.198   0.140   5.964
 4888TIP3    H114621   0.263   0.204   5.994
 4888TIP3    H214622   0.170   0.172   5.878
 4889TIP3   OH214623   6.153   2.243   4.344
 4889TIP3    H114624   6.203   2.174   4.300
 4889TIP3    H214625   6.178   2.235   4.436
 4890TIP3   OH214626   6.369   0.504   2.856
 4890TIP3    H114627   6.366   0.458   2.940
 4890TIP3    H214628   6.461   0.500   2.830
 4891TIP3   OH214629   7.159   1.931   6.260
 4891TIP3    H114630   7.110   1.918   6.341
 4891TIP3    H214631   7.250   1.913   6.284
 4892TIP3   OH214632   3.447   7.609   3.589
 4892TIP3    H114633   3.395   7.608   3.670
 4892TIP3    H214634   3.408   7.678   3.536
 4893TIP3   OH214635   0.265   5.144   4.383
 4893TIP3    H114636   0.210   5.134   4.461
 4893TIP3    H214637   0.239   5.228   4.346
 4894TIP3   OH214638   5.492   6.543   0.044
 4894TIP3    H114639   5.536   6.531  -0.041
 4894TIP3    H214640   5.559   6.585   0.099
 4895TIP3   OH214641   4.897   7.750   5.905
 4895TIP3    H114642   4.880   7.692   5.831
 4895TIP3    H214643   4.932   7.830   5.867
 4896TIP3   OH214644   6.062   0.591   1.538
 4896TIP3    H114645   6.099   0.678   1.521
 4896TIP3    H214646   6.047   0.554   1.450
 4897TIP3   OH214647   5.096   1.029   6.660
 4897TIP3    H114648   5.004   1.036   6.684
 4897TIP3    H214649   5.143   1.059   6.738
 4898TIP3   OH214650   1.200   7.533   2.293
 4898TIP3    H114651   1.162   7.520   2.380
 4898TIP3    H214652   1.191   7.627   2.276
 4899TIP3   OH214653   1.067   6.284   3.822
 4899TIP3    H114654   1.121   6.296   3.744
 4899TIP3    H214655   1.100   6.203   3.861
 4900TIP3   OH214656   0.488   1.611   1.364
 4900TIP3    H114657   0.486   1.562   1.446
 4900TIP3    H214658   0.549   1.562   1.308
 4901TIP3   OH214659   2.776   1.559   5.810
 4901TIP3    H114660   2.752   1.501   5.881
 4901TIP3    H214661   2.847   1.515   5.764
 4902TIP3   OH214662   4.736   4.136   6.069
 4902TIP3    H114663   4.664   4.074   6.074
 4902TIP3    H214664   4.733   4.168   5.978
 4903TIP3   OH214665   3.280   3.026   2.705
 4903TIP3    H114666   3.291   2.979   2.788
 4903TIP3    H214667   3.362   3.009   2.657
 4904TIP3   OH214668   5.956   0.820   0.949
 4904TIP3    H114669   5.873   0.858   0.976
 4904TIP3    H214670   5.937   0.727   0.935
 4905TIP3   OH214671   6.718   4.526   2.630
 4905TIP3    H114672   6.641   4.581   2.642
 4905TIP3    H214673   6.705   4.452   2.690
 4906TIP3   OH214674   0.211   7.285   5.454
 4906TIP3    H114675   0.244   7.345   5.521
 4906TIP3    H214676   0.269   7.209   5.459
 4907TIP3   OH214677   3.244   4.816   1.717
 4907TIP3    H114678   3.190   4.741   1.742
 4907TIP3    H214679   3.251   4.868   1.798
 4908TIP3   OH214680   1.488   0.911   2.931
 4908TIP3    H114681   1.505   0.938   3.021
 4908TIP3    H214682   1.422   0.843   2.938
 4909TIP3   OH214683   6.912   1.576   6.557
 4909TIP3    H114684   6.842   1.513   6.542
 4909TIP3    H214685   6.870   1.661   6.543
 4910TIP3   OH214686   4.102   5.223   4.030
 4910TIP3    H114687   4.044   5.299   4.034
 4910TIP3    H214688   4.187   5.256   4.058
 4911TIP3   OH214689   2.108   3.463   3.516
 4911TIP3    H114690   2.044   3.500   3.455
 4911TIP3    H214691   2.192   3.496   3.486
 4912TIP3   OH214692   5.353   0.566   3.585
 4912TIP3    H114693   5.332   0.627   3.655
 4912TIP3    H214694   5.447   0.549   3.595
 4913TIP3   OH214695   3.187   5.360   5.302
 4913TIP3    H114696   3.128   5.418   5.350
 4913TIP3    H214697   3.192   5.281   5.356
 4914TIP3   OH214698   5.647   7.326   3.622
 4914TIP3    H114699   5.683   7.405   3.582
 4914TIP3    H214700   5.713   7.258   3.605
 4915TIP3   OH214701   2.471   7.472   4.207
 4915TIP3    H114702   2.498   7.396   4.155
 4915TIP3    H214703   2.377   7.482   4.189
 4916TIP3   OH214704   6.937   0.250   3.542
 4916TIP3    H114705   6.903   0.161   3.534
 4916TIP3    H214706   6.964   0.257   3.633
 4917TIP3   OH214707   5.767   7.519   6.340
 4917TIP3    H114708   5.852   7.521   6.385
 4917TIP3    H214709   5.788   7.489   6.251
 4918TIP3   OH214710   8.206   6.567   4.202
 4918TIP3    H114711   8.158   6.581   4.284
 4918TIP3    H214712   8.232   6.655   4.175
 4919TIP3   OH214713   1.457   5.720   4.069
 4919TIP3    H114714   1.472   5.788   4.135
 4919TIP3    H214715   1.362   5.705   4.073
 4920TIP3   OH214716   5.488   5.557   5.932
 4920TIP3    H114717   5.500   5.511   6.015
 4920TIP3    H214718   5.555   5.520   5.875
 4921TIP3   OH214719   0.817   5.275   0.800
 4921TIP3    H114720   0.736   5.240   0.762
 4921TIP3    H214721   0.789   5.345   0.858
 4922TIP3   OH214722   5.800   3.431   2.492
 4922TIP3    H114723   5.738   3.396   2.429
 4922TIP3    H214724   5.825   3.517   2.458
 4923TIP3   OH214725   5.563   0.088   5.383
 4923TIP3    H114726   5.497   0.155   5.403
 4923TIP3    H214727   5.631   0.135   5.334
 4924TIP3   OH214728   0.214   4.620   3.328
 4924TIP3    H114729   0.178   4.606   3.241
 4924TIP3    H214730   0.300   4.578   3.325
 4925TIP3   OH214731   5.261   6.160   4.306
 4925TIP3    H114732   5.187   6.206   4.346
 4925TIP3    H214733   5.314   6.229   4.266
 4926TIP3   OH214734   2.211   3.402   6.578
 4926TIP3    H114735   2.222   3.462   6.504
 4926TIP3    H214736   2.257   3.322   6.552
 4927TIP3   OH214737   0.418   2.903   2.023
 4927TIP3    H114738   0.392   2.967   2.089
 4927TIP3    H214739   0.465   2.954   1.957
 4928TIP3   OH214740   7.530   6.195   3.984
 4928TIP3    H114741   7.446   6.151   3.996
 4928TIP3    H214742   7.573   6.187   4.070
 4929TIP3   OH214743   2.176   4.940   5.065
 4929TIP3    H114744   2.228   4.921   5.143
 4929TIP3    H214745   2.239   4.944   4.993
 4930TIP3   OH214746   3.370   6.465   5.809
 4930TIP3    H114747   3.283   6.504   5.794
 4930TIP3    H214748   3.355   6.371   5.798
 4931TIP3   OH214749   5.767   7.749   5.581
 4931TIP3    H114750   5.696   7.796   5.625
 4931TIP3    H214751   5.815   7.816   5.534
 4932TIP3   OH214752   4.191   5.810   3.662
 4932TIP3    H114753   4.123   5.791   3.597
 4932TIP3    H214754   4.243   5.730   3.667
 4933TIP3   OH214755   5.071   5.723   2.883
 4933TIP3    H114756   5.107   5.721   2.972
 4933TIP3    H214757   4.991   5.671   2.889
 4934TIP3   OH214758   1.964   6.922   4.936
 4934TIP3    H114759   2.011   6.843   4.963
 4934TIP3    H214760   1.952   6.971   5.017
 4935TIP3   OH214761   1.170   1.740   5.334
 4935TIP3    H114762   1.209   1.742   5.421
 4935TIP3    H214763   1.094   1.797   5.339
 4936TIP3   OH214764   0.871   1.806   2.324
 4936TIP3    H114765   0.965   1.816   2.339
 4936TIP3    H214766   0.838   1.765   2.404
 4937TIP3   OH214767   5.580   0.301   6.450
 4937TIP3    H114768   5.551   0.331   6.363
 4937TIP3    H214769   5.499   0.274   6.494
 4938TIP3   OH214770   7.726   1.006   3.399
 4938TIP3    H114771   7.789   1.077   3.414
 4938TIP3    H214772   7.679   1.033   3.320
 4939TIP3   OH214773   3.081   3.905   0.367
 4939TIP3    H114774   3.175   3.893   0.385
 4939TIP3    H214775   3.041   3.821   0.388
 4940TIP3   OH214776   5.683   5.522   1.707
 4940TIP3    H114777   5.613   5.532   1.643
 4940TIP3    H214778   5.754   5.576   1.673
 4941TIP3   OH214779   1.035   5.727   6.138
 4941TIP3    H114780   1.111   5.759   6.187
 4941TIP3    H214781   1.042   5.632   6.142
 4942TIP3   OH214782   2.691   0.154   3.018
 4942TIP3    H114783   2.654   0.131   2.932
 4942TIP3    H214784   2.635   0.109   3.081
 4943TIP3   OH214785   3.670   2.435   2.342
 4943TIP3    H114786   3.697   2.344   2.334
 4943TIP3    H214787   3.685   2.457   2.434
 4944TIP3   OH214788   2.097   3.904   5.384
 4944TIP3    H114789   2.007   3.897   5.416
 4944TIP3    H214790   2.107   3.829   5.326
 4945TIP3   OH214791   8.081   6.623   3.934
 4945TIP3    H114792   8.144   6.666   3.876
 4945TIP3    H214793   8.135   6.581   4.001
 4946TIP3   OH214794   7.265   6.269   2.563
 4946TIP3    H114795   7.261   6.336   2.631
 4946TIP3    H214796   7.226   6.309   2.486
 4947TIP3   OH214797   6.118   5.177   0.839
 4947TIP3    H114798   6.137   5.269   0.859
 4947TIP3    H214799   6.035   5.179   0.792
 4948TIP3   OH214800   4.104   7.586   1.255
 4948TIP3    H114801   4.009   7.581   1.260
 4948TIP3    H214802   4.121   7.636   1.174
 4949TIP3   OH214803   4.848   4.130   0.505
 4949TIP3    H114804   4.816   4.184   0.433
 4949TIP3    H214805   4.785   4.059   0.511
 4950TIP3   OH214806   6.435   4.523   5.505
 4950TIP3    H114807   6.341   4.543   5.511
 4950TIP3    H214808   6.464   4.570   5.427
 4951TIP3   OH214809   5.050   4.369   1.499
 4951TIP3    H114810   5.015   4.370   1.588
 4951TIP3    H214811   5.067   4.462   1.480
 4952TIP3   OH214812   0.830   5.488   3.244
 4952TIP3    H114813   0.838   5.460   3.153
 4952TIP3    H214814   0.907   5.544   3.258
 4953TIP3   OH214815   5.565   3.571   3.561
 4953TIP3    H114816   5.534   3.636   3.625
 4953TIP3    H214817   5.629   3.618   3.509
 4954TIP3   OH214818   6.325   1.201   2.995
 4954TIP3    H114819   6.322   1.143   2.919
 4954TIP3    H214820   6.399   1.259   2.978
 4955TIP3   OH214821   3.212   0.916   1.291
 4955TIP3    H114822   3.255   0.944   1.372
 4955TIP3    H214823   3.122   0.947   1.299
 4956TIP3   OH214824   6.114   0.240   2.752
 4956TIP3    H114825   6.087   0.159   2.795
 4956TIP3    H214826   6.169   0.212   2.679
 4957TIP3   OH214827   2.737   3.607   4.050
 4957TIP3    H114828   2.652   3.565   4.061
 4957TIP3    H214829   2.728   3.660   3.970
 4958TIP3   OH214830   6.848   4.109   1.362
 4958TIP3    H114831   6.769   4.117   1.415
 4958TIP3    H214832   6.913   4.072   1.421
 4959TIP3   OH214833   1.289   1.730   0.182
 4959TIP3    H114834   1.336   1.750   0.101
 4959TIP3    H214835   1.211   1.785   0.179
 4960TIP3   OH214836   7.981   2.485   4.212
 4960TIP3    H114837   7.966   2.508   4.304
 4960TIP3    H214838   7.894   2.483   4.173
 4961TIP3   OH214839   7.259   6.397   4.436
 4961TIP3    H114840   7.212   6.320   4.467
 4961TIP3    H214841   7.303   6.431   4.514
 4962TIP3   OH214842   4.594   4.904   4.090
 4962TIP3    H114843   4.501   4.926   4.087
 4962TIP3    H214844   4.600   4.830   4.150
 4963TIP3   OH214845   6.108   4.326   1.343
 4963TIP3    H114846   6.040   4.380   1.302
 4963TIP3    H214847   6.174   4.389   1.372
 4964TIP3   OH214848   5.558   6.336   1.563
 4964TIP3    H114849   5.650   6.348   1.541
 4964TIP3    H214850   5.542   6.395   1.636
 4965TIP3   OH214851   5.409   6.801   1.932
 4965TIP3    H114852   5.342   6.751   1.886
 4965TIP3    H214853   5.422   6.754   2.014
 4966TIP3   OH214854   4.398   7.146   3.211
 4966TIP3    H114855   4.347   7.066   3.227
 4966TIP3    H214856   4.400   7.191   3.296
 4967TIP3   OH214857   0.309   1.121   2.740
 4967TIP3    H114858   0.263   1.134   2.824
 4967TIP3    H214859   0.264   1.180   2.680
 4968TIP3   OH214860   3.877   6.584   1.615
 4968TIP3    H114861   3.810   6.629   1.666
 4968TIP3    H214862   3.869   6.492   1.642
 4969TIP3   OH214863   4.483   6.563   3.842
 4969TIP3    H114864   4.509   6.587   3.753
 4969TIP3    H214865   4.424   6.633   3.869
 4970TIP3   OH214866   7.824   1.010   4.738
 4970TIP3    H114867   7.879   1.003   4.660
 4970TIP3    H214868   7.737   1.030   4.704
 4971TIP3   OH214869   7.141   5.627   4.767
 4971TIP3    H114870   7.046   5.631   4.780
 4971TIP3    H214871   7.154   5.664   4.679
 4972TIP3   OH214872   0.273   3.566   2.711
 4972TIP3    H114873   0.206   3.635   2.712
 4972TIP3    H214874   0.356   3.613   2.707
 4973TIP3   OH214875   1.887   0.075   5.457
 4973TIP3    H114876   1.823   0.010   5.428
 4973TIP3    H214877   1.967   0.024   5.474
 4974TIP3   OH214878   2.189   4.042   1.416
 4974TIP3    H114879   2.234   4.120   1.448
 4974TIP3    H214880   2.098   4.070   1.404
 4975TIP3   OH214881   5.857   2.789   3.606
 4975TIP3    H114882   5.917   2.833   3.546
 4975TIP3    H214883   5.846   2.851   3.678
 4976TIP3   OH214884   8.005   6.923   3.293
 4976TIP3    H114885   8.034   6.887   3.376
 4976TIP3    H214886   8.070   6.893   3.229
 4977TIP3   OH214887   2.590   4.014   6.072
 4977TIP3    H114888   2.628   3.983   5.990
 4977TIP3    H214889   2.555   4.101   6.052
 4978TIP3   OH214890   4.797   1.155   1.282
 4978TIP3    H114891   4.822   1.209   1.358
 4978TIP3    H214892   4.805   1.214   1.207
 4979TIP3   OH214893   1.106   5.873   5.220
 4979TIP3    H114894   1.075   5.872   5.310
 4979TIP3    H214895   1.201   5.859   5.227
 4980TIP3   OH214896   8.084   7.488   6.566
 4980TIP3    H114897   8.026   7.473   6.491
 4980TIP3    H214898   8.055   7.572   6.602
 4981TIP3   OH214899   0.432   2.398   0.440
 4981TIP3    H114900   0.433   2.465   0.508
 4981TIP3    H214901   0.440   2.446   0.358
 4982TIP3   OH214902   5.024   4.745   0.523
 4982TIP3    H114903   5.114   4.765   0.496
 4982TIP3    H214904   5.020   4.773   0.615
 4983TIP3   OH214905   1.469   5.340   5.384
 4983TIP3    H114906   1.470   5.259   5.333
 4983TIP3    H214907   1.557   5.376   5.372
 4984TIP3   OH214908   7.559   4.756   4.325
 4984TIP3    H114909   7.596   4.691   4.266
 4984TIP3    H214910   7.600   4.737   4.410
 4985TIP3   OH214911   6.301   1.205   3.894
 4985TIP3    H114912   6.366   1.157   3.842
 4985TIP3    H214913   6.233   1.140   3.914
 4986TIP3   OH214914   0.689   3.095   2.155
 4986TIP3    H114915   0.687   2.999   2.158
 4986TIP3    H214916   0.597   3.121   2.147
 4987TIP3   OH214917   3.533   6.623   0.665
 4987TIP3    H114918   3.531   6.622   0.569
 4987TIP3    H214919   3.625   6.609   0.687
 4988TIP3   OH214920   0.324   1.569   2.136
 4988TIP3    H114921   0.265   1.496   2.154
 4988TIP3    H214922   0.357   1.596   2.222
 4989TIP3   OH214923   4.023   0.262   5.069
 4989TIP3    H114924   3.933   0.237   5.052
 4989TIP3    H214925   4.067   0.251   4.984
 4990TIP3   OH214926   0.589   2.561   2.241
 4990TIP3    H114927   0.659   2.521   2.294
 4990TIP3    H214928   0.579   2.501   2.167
 4991TIP3   OH214929   7.439   4.299   4.326
 4991TIP3    H114930   7.353   4.278   4.290
 4991TIP3    H214931   7.465   4.220   4.374
 4992TIP3   OH214932   3.266   3.359   2.244
 4992TIP3    H114933   3.209   3.334   2.172
 4992TIP3    H214934   3.293   3.449   2.223
 4993TIP3   OH214935   3.902   6.958   5.540
 4993TIP3    H114936   3.831   6.914   5.587
 4993TIP3    H214937   3.955   6.997   5.609
 4994TIP3   OH214938   4.259   5.240   5.368
 4994TIP3    H114939   4.310   5.241   5.287
 4994TIP3    H214940   4.280   5.323   5.410
 4995TIP3   OH214941   1.881   3.675   3.039
 4995TIP3    H114942   1.914   3.676   3.129
 4995TIP3    H214943   1.787   3.660   3.048
 4996TIP3   OH214944   2.669   0.914   3.504
 4996TIP3    H114945   2.606   0.872   3.562
 4996TIP3    H214946   2.615   0.950   3.433
 4997TIP3   OH214947   1.903   2.437   1.220
 4997TIP3    H114948   1.916   2.349   1.255
 4997TIP3    H214949   1.945   2.435   1.134
 4998TIP3   OH214950   1.377   3.724   3.591
 4998TIP3    H114951   1.286   3.697   3.604
 4998TIP3    H214952   1.384   3.808   3.638
 4999TIP3   OH214953   5.562   5.558   1.459
 4999TIP3    H114954   5.501   5.611   1.408
 4999TIP3    H214955   5.532   5.468   1.448
 5000TIP3   OH214956   3.691   7.146   5.917
 5000TIP3    H114957   3.719   7.228   5.876
 5000TIP3    H214958   3.700   7.161   6.011
 5001TIP3   OH214959   6.520   0.601   4.790
 5001TIP3    H114960   6.469   0.630   4.715
 5001TIP3    H214961   6.598   0.560   4.753
 5002TIP3   OH214962   3.028   3.168   5.162
 5002TIP3    H114963   2.991   3.122   5.087
 5002TIP3    H214964   2.962   3.158   5.231
 5003TIP3   OH214965   3.348   2.541   1.439
 5003TIP3    H114966   3.365   2.635   1.437
 5003TIP3    H214967   3.283   2.527   1.370
 5004TIP3   OH214968   2.597   6.132   5.419
 5004TIP3    H114969   2.503   6.117   5.431
 5004TIP3    H214970   2.605   6.155   5.326
 5005TIP3   OH214971   7.897   2.065   5.878
 5005TIP3    H114972   7.852   2.064   5.794
 5005TIP3    H214973   7.985   2.032   5.858
 5006TIP3   OH214974   8.115   6.618   0.085
 5006TIP3    H114975   8.083   6.599  -0.003
 5006TIP3    H214976   8.045   6.590   0.144
 5007TIP3   OH214977   0.674   6.344   1.887
 5007TIP3    H114978   0.692   6.435   1.865
 5007TIP3    H214979   0.751   6.296   1.856
 5008TIP3   OH214980   1.635   6.735   2.093
 5008TIP3    H114981   1.588   6.666   2.047
 5008TIP3    H214982   1.727   6.711   2.085
 5009TIP3   OH214983   6.274   2.976   4.361
 5009TIP3    H114984   6.180   2.961   4.354
 5009TIP3    H214985   6.293   3.045   4.297
 5010TIP3   OH214986   8.208   1.693   5.238
 5010TIP3    H114987   8.277   1.687   5.172
 5010TIP3    H214988   8.243   1.752   5.304
 5011TIP3   OH214989   5.255   5.082   5.088
 5011TIP3    H114990   5.322   5.051   5.149
 5011TIP3    H214991   5.184   5.112   5.145
 5012TIP3   OH214992   6.898   5.436   2.991
 5012TIP3    H114993   6.872   5.358   2.943
 5012TIP3    H214994   6.859   5.509   2.943
 5013TIP3   OH214995   1.169   0.105   4.587
 5013TIP3    H114996   1.131   0.121   4.500
 5013TIP3    H214997   1.262   0.091   4.571
 5014TIP3   OH214998   7.564   0.397   4.947
 5014TIP3    H114999   7.527   0.311   4.927
 5014TIP3    H215000   7.494   0.459   4.925
 5015TIP3   OH215001   1.475   2.645   5.581
 5015TIP3    H115002   1.503   2.692   5.659
 5015TIP3    H215003   1.384   2.620   5.600
 5016TIP3   OH215004   1.728   1.146   0.494
 5016TIP3    H115005   1.708   1.153   0.400
 5016TIP3    H215006   1.778   1.064   0.501
 5017TIP3   OH215007   0.252   7.487   1.219
 5017TIP3    H115008   0.277   7.453   1.133
 5017TIP3    H215009   0.175   7.540   1.202
 5018TIP3   OH215010   2.021   4.119   4.073
 5018TIP3    H115011   1.937   4.100   4.115
 5018TIP3    H215012   2.079   4.048   4.101
 5019TIP3   OH215013   1.091   2.891   5.770
 5019TIP3    H115014   1.163   2.922   5.824
 5019TIP3    H215015   1.129   2.822   5.716
 5020TIP3   OH215016   5.220   2.282   4.597
 5020TIP3    H115017   5.167   2.206   4.620
 5020TIP3    H215018   5.211   2.290   4.502
 5021TIP3   OH215019   7.013   4.339   5.617
 5021TIP3    H115020   7.026   4.416   5.562
 5021TIP3    H215021   7.003   4.267   5.555
 5022TIP3   OH215022   3.982   3.031   0.158
 5022TIP3    H115023   4.004   3.120   0.132
 5022TIP3    H215024   3.887   3.024   0.145
 5023TIP3   OH215025   2.963   3.316   4.766
 5023TIP3    H115026   2.964   3.365   4.684
 5023TIP3    H215027   3.038   3.349   4.815
 5024TIP3   OH215028   3.059   1.478   3.030
 5024TIP3    H115029   3.077   1.461   2.937
 5024TIP3    H215030   2.966   1.500   3.032
 5025TIP3   OH215031   1.650   5.717   1.834
 5025TIP3    H115032   1.573   5.756   1.876
 5025TIP3    H215033   1.720   5.780   1.849
 5026TIP3   OH215034   7.634   7.822   5.974
 5026TIP3    H115035   7.619   7.737   6.016
 5026TIP3    H215036   7.625   7.885   6.044
 5027TIP3   OH215037   1.992   7.761   4.077
 5027TIP3    H115038   1.905   7.721   4.076
 5027TIP3    H215039   1.979   7.846   4.120
 5028TIP3   OH215040   5.718   6.144   5.975
 5028TIP3    H115041   5.761   6.131   6.060
 5028TIP3    H215042   5.630   6.109   5.987
 5029TIP3   OH215043   7.833   5.761   2.606
 5029TIP3    H115044   7.742   5.790   2.602
 5029TIP3    H215045   7.878   5.815   2.541
 5030TIP3   OH215046   2.068   0.834   3.904
 5030TIP3    H115047   1.974   0.840   3.886
 5030TIP3    H215048   2.084   0.901   3.970
 5031TIP3   OH215049   0.543   7.815   4.852
 5031TIP3    H115050   0.460   7.786   4.890
 5031TIP3    H215051   0.609   7.762   4.895
 5032TIP3   OH215052   3.098   1.924   4.088
 5032TIP3    H115053   3.127   1.841   4.126
 5032TIP3    H215054   3.150   1.990   4.132
 5033TIP3   OH215055   4.294   7.124   1.490
 5033TIP3    H115056   4.262   7.054   1.546
 5033TIP3    H215057   4.389   7.113   1.489
 5034TIP3   OH215058   6.498   3.891   3.010
 5034TIP3    H115059   6.430   3.945   2.969
 5034TIP3    H215060   6.455   3.850   3.085
 5035TIP3   OH215061   4.389   6.553   1.530
 5035TIP3    H115062   4.341   6.551   1.613
 5035TIP3    H215063   4.374   6.466   1.492
 5036TIP3   OH215064   8.141   2.994   5.759
 5036TIP3    H115065   8.086   2.997   5.681
 5036TIP3    H215066   8.103   3.059   5.818
 5037TIP3   OH215067   0.230   1.175   5.774
 5037TIP3    H115068   0.303   1.217   5.821
 5037TIP3    H215069   0.265   1.155   5.688
 5038TIP3   OH215070   2.117   0.207   2.242
 5038TIP3    H115071   2.034   0.159   2.235
 5038TIP3    H215072   2.159   0.169   2.319
 5039TIP3   OH215073   2.702   5.826   4.704
 5039TIP3    H115074   2.724   5.909   4.746
 5039TIP3    H215075   2.718   5.841   4.611
 5040TIP3   OH215076   5.070   5.389   5.461
 5040TIP3    H115077   5.165   5.400   5.468
 5040TIP3    H215078   5.056   5.296   5.480
 5041TIP3   OH215079   1.669   1.653   1.336
 5041TIP3    H115080   1.588   1.681   1.293
 5041TIP3    H215081   1.655   1.671   1.429
 5042TIP3   OH215082   4.924   6.840   2.280
 5042TIP3    H115083   4.859   6.854   2.210
 5042TIP3    H215084   4.925   6.745   2.292
 5043TIP3   OH215085   2.961   6.526   0.808
 5043TIP3    H115086   2.868   6.506   0.797
 5043TIP3    H215087   2.968   6.619   0.787
 5044TIP3   OH215088   6.814   3.686   6.554
 5044TIP3    H115089   6.722   3.690   6.528
 5044TIP3    H215090   6.850   3.613   6.504
 5045TIP3   OH215091   7.469   6.146   2.768
 5045TIP3    H115092   7.422   6.213   2.818
 5045TIP3    H215093   7.498   6.191   2.688
 5046TIP3   OH215094   7.213   1.278   6.440
 5046TIP3    H115095   7.303   1.281   6.409
 5046TIP3    H215096   7.161   1.306   6.365
 5047TIP3   OH215097   4.074   0.215   5.323
 5047TIP3    H115098   4.081   0.215   5.228
 5047TIP3    H215099   3.993   0.261   5.342
 5048TIP3   OH215100   3.467   2.790   1.373
 5048TIP3    H115101   3.517   2.866   1.400
 5048TIP3    H215102   3.519   2.750   1.304
 5049TIP3   OH215103   1.442   5.610   4.849
 5049TIP3    H115104   1.489   5.586   4.929
 5049TIP3    H215105   1.438   5.706   4.852
 5050TIP3   OH215106   6.890   2.719   4.555
 5050TIP3    H115107   6.961   2.687   4.610
 5050TIP3    H215108   6.858   2.641   4.510
 5051TIP3   OH215109   3.667   6.161   5.099
 5051TIP3    H115110   3.724   6.086   5.083
 5051TIP3    H215111   3.712   6.212   5.166
 5052TIP3   OH215112   7.768   4.115   2.805
 5052TIP3    H115113   7.745   4.028   2.839
 5052TIP3    H215114   7.793   4.099   2.714
 5053TIP3   OH215115   1.769   1.361   0.648
 5053TIP3    H115116   1.861   1.359   0.673
 5053TIP3    H215117   1.754   1.277   0.605
 5054TIP3   OH215118   0.445   0.429   3.474
 5054TIP3    H115119   0.456   0.446   3.568
 5054TIP3    H215120   0.530   0.450   3.436
 5055TIP3   OH215121   6.190   2.155  -0.015
 5055TIP3    H115122   6.120   2.219  -0.029
 5055TIP3    H215123   6.235   2.185   0.064
 5056TIP3   OH215124   7.906   1.036   3.148
 5056TIP3    H115125   7.817   1.069   3.138
 5056TIP3    H215126   7.939   1.030   3.058
 5057TIP3   OH215127   0.283   5.475   2.143
 5057TIP3    H115128   0.309   5.567   2.155
 5057TIP3    H215129   0.207   5.479   2.085
 5058TIP3   OH215130   3.451   4.262   4.697
 5058TIP3    H115131   3.410   4.348   4.686
 5058TIP3    H215132   3.465   4.254   4.791
 5059TIP3   OH215133   2.490   1.452   1.851
 5059TIP3    H115134   2.450   1.444   1.765
 5059TIP3    H215135   2.431   1.508   1.901
 5060TIP3   OH215136   2.398   6.842   6.496
 5060TIP3    H115137   2.401   6.902   6.421
 5060TIP3    H215138   2.487   6.843   6.531
 5061TIP3   OH215139   0.635   0.234   3.614
 5061TIP3    H115140   0.614   0.317   3.657
 5061TIP3    H215141   0.553   0.206   3.574
 5062TIP3   OH215142   1.021   1.529   3.770
 5062TIP3    H115143   0.963   1.467   3.814
 5062TIP3    H215144   1.102   1.528   3.822
 5063TIP3   OH215145   4.630   1.238   3.856
 5063TIP3    H115146   4.633   1.199   3.769
 5063TIP3    H215147   4.719   1.270   3.872
 5064TIP3   OH215148   4.992   2.629   4.280
 5064TIP3    H115149   4.998   2.721   4.303
 5064TIP3    H215150   4.988   2.583   4.365
 5065TIP3   OH215151   3.986   0.704   5.551
 5065TIP3    H115152   3.974   0.761   5.476
 5065TIP3    H215153   4.075   0.669   5.540
 5066TIP3   OH215154   7.546   5.835   1.030
 5066TIP3    H115155   7.507   5.765   0.978
 5066TIP3    H215156   7.471   5.881   1.068
 5067TIP3   OH215157   2.479   3.642   5.697
 5067TIP3    H115158   2.398   3.591   5.706
 5067TIP3    H215159   2.548   3.577   5.689
 5068TIP3   OH215160   0.349   5.538   3.661
 5068TIP3    H115161   0.336   5.630   3.638
 5068TIP3    H215162   0.307   5.489   3.590
 5069TIP3   OH215163   1.768   6.318   0.894
 5069TIP3    H115164   1.764   6.292   0.986
 5069TIP3    H215165   1.691   6.276   0.855
 5070TIP3   OH215166   4.967   1.149   4.809
 5070TIP3    H115167   4.942   1.081   4.871
 5070TIP3    H215168   5.057   1.128   4.784
 5071TIP3   OH215169   3.166   0.295   2.265
 5071TIP3    H115170   3.235   0.274   2.202
 5071TIP3    H215171   3.147   0.212   2.308
 5072TIP3   OH215172   1.673   0.176   5.610
 5072TIP3    H115173   1.732   0.148   5.540
 5072TIP3    H215174   1.649   0.096   5.656
 5073TIP3   OH215175   6.619   5.467   5.061
 5073TIP3    H115176   6.583   5.430   4.981
 5073TIP3    H215177   6.604   5.400   5.128
 5074TIP3   OH215178   5.345   5.789   1.609
 5074TIP3    H115179   5.353   5.876   1.570
 5074TIP3    H215180   5.263   5.754   1.575
 5075TIP3   OH215181   6.404   5.426   0.183
 5075TIP3    H115182   6.325   5.430   0.129
 5075TIP3    H215183   6.375   5.389   0.266
 5076TIP3   OH215184   1.448   5.105   5.269
 5076TIP3    H115185   1.382   5.038   5.254
 5076TIP3    H215186   1.531   5.057   5.267
 5077TIP3   OH215187   2.903   1.936   2.141
 5077TIP3    H115188   2.871   2.018   2.104
 5077TIP3    H215189   2.829   1.875   2.132
 5078TIP3   OH215190   2.601   6.157   2.686
 5078TIP3    H115191   2.562   6.076   2.656
 5078TIP3    H215192   2.527   6.216   2.701
 5079TIP3   OH215193   3.775   3.867   6.639
 5079TIP3    H115194   3.805   3.912   6.718
 5079TIP3    H215195   3.819   3.912   6.567
 5080TIP3   OH215196   6.741   0.033   5.628
 5080TIP3    H115197   6.661   0.079   5.654
 5080TIP3    H215198   6.761   0.068   5.541
 5081TIP3   OH215199   6.635   6.422   4.941
 5081TIP3    H115200   6.726   6.400   4.962
 5081TIP3    H215201   6.630   6.517   4.954
 5082TIP3   OH215202   2.793   2.966   4.525
 5082TIP3    H115203   2.761   3.033   4.585
 5082TIP3    H215204   2.774   3.001   4.438
 5083TIP3   OH215205   4.647   0.121   1.599
 5083TIP3    H115206   4.659   0.151   1.690
 5083TIP3    H215207   4.666   0.199   1.546
 5084TIP3   OH215208   4.836   3.660   4.006
 5084TIP3    H115209   4.767   3.723   3.985
 5084TIP3    H215210   4.893   3.660   3.929
 5085TIP3   OH215211   2.003   4.113   1.783
 5085TIP3    H115212   2.022   4.115   1.689
 5085TIP3    H215213   2.087   4.132   1.825
 5086TIP3   OH215214   0.430   2.489   1.496
 5086TIP3    H115215   0.427   2.433   1.574
 5086TIP3    H215216   0.440   2.427   1.423
 5087TIP3   OH215217   7.189   5.207   6.405
 5087TIP3    H115218   7.284   5.208   6.403
 5087TIP3    H215219   7.167   5.227   6.496
 5088TIP3   OH215220   3.758   2.435   2.965
 5088TIP3    H115221   3.710   2.392   2.894
 5088TIP3    H215222   3.815   2.367   3.000
 5089TIP3   OH215223   4.676   0.438   2.391
 5089TIP3    H115224   4.587   0.410   2.412
 5089TIP3    H215225   4.678   0.530   2.416
 5090TIP3   OH215226   2.435   6.421   6.031
 5090TIP3    H115227   2.482   6.354   6.081
 5090TIP3    H215228   2.484   6.427   5.948
 5091TIP3   OH215229   0.623   2.154   2.864
 5091TIP3    H115230   0.565   2.079   2.876
 5091TIP3    H215231   0.699   2.119   2.818
 5092TIP3   OH215232   3.601   1.676   5.566
 5092TIP3    H115233   3.654   1.730   5.625
 5092TIP3    H215234   3.524   1.653   5.617
 5093TIP3   OH215235   6.340   3.031   0.219
 5093TIP3    H115236   6.378   2.944   0.236
 5093TIP3    H215237   6.412   3.092   0.237
 5094TIP3   OH215238   3.139   5.971   4.386
 5094TIP3    H115239   3.112   5.902   4.447
 5094TIP3    H215240   3.140   5.927   4.301
 5095TIP3   OH215241  -0.001   2.306   4.380
 5095TIP3    H115242   0.022   2.387   4.426
 5095TIP3    H215243   0.003   2.329   4.287
 5096TIP3   OH215244   5.632   3.009   0.414
 5096TIP3    H115245   5.560   3.073   0.408
 5096TIP3    H215246   5.611   2.957   0.492
 5097TIP3   OH215247   0.484   5.180   2.184
 5097TIP3    H115248   0.515   5.265   2.156
 5097TIP3    H215249   0.561   5.137   2.222
 5098TIP3   OH215250   3.969   1.213   5.301
 5098TIP3    H115251   3.910   1.208   5.377
 5098TIP3    H215252   4.017   1.295   5.314
 5099TIP3   OH215253   5.352   2.488   0.914
 5099TIP3    H115254   5.343   2.582   0.930
 5099TIP3    H215255   5.370   2.450   0.999
 5100TIP3   OH215256   1.997   5.423   1.111
 5100TIP3    H115257   1.958   5.451   1.194
 5100TIP3    H215258   1.922   5.414   1.052
 5101TIP3   OH215259   5.415   0.289   2.175
 5101TIP3    H115260   5.378   0.217   2.124
 5101TIP3    H215261   5.501   0.257   2.203
 5102TIP3   OH215262   1.021   7.435   3.305
 5102TIP3    H115263   1.102   7.405   3.347
 5102TIP3    H215264   1.034   7.529   3.293
 5103TIP3   OH215265   2.984   0.204   5.176
 5103TIP3    H115266   2.897   0.198   5.216
 5103TIP3    H215267   3.044   0.173   5.244
 5104TIP3   OH215268   5.113   4.327   0.578
 5104TIP3    H115269   5.086   4.241   0.547
 5104TIP3    H215270   5.114   4.382   0.500
 5105TIP3   OH215271   7.333   0.946   3.776
 5105TIP3    H115272   7.240   0.964   3.786
 5105TIP3    H215273   7.367   1.022   3.729
 5106TIP3   OH215274   4.911   1.726   5.282
 5106TIP3    H115275   4.936   1.664   5.351
 5106TIP3    H215276   4.821   1.702   5.260
 5107TIP3   OH215277   7.931   1.678   6.491
 5107TIP3    H115278   8.013   1.630   6.505
 5107TIP3    H215279   7.957   1.758   6.445
 5108TIP3   OH215280   8.115   1.806   2.577
 5108TIP3    H115281   8.154   1.881   2.621
 5108TIP3    H215282   8.041   1.842   2.528
 5109TIP3   OH215283   2.144   3.693   5.640
 5109TIP3    H115284   2.174   3.603   5.653
 5109TIP3    H215285   2.053   3.684   5.612
 5110TIP3   OH215286   4.515   6.678   2.759
 5110TIP3    H115287   4.501   6.708   2.669
 5110TIP3    H215288   4.530   6.584   2.751
 5111TIP3   OH215289   5.684   7.543   1.688
 5111TIP3    H115290   5.764   7.559   1.738
 5111TIP3    H215291   5.686   7.610   1.619
 5112TIP3   OH215292   0.060   7.771   4.525
 5112TIP3    H115293   0.075   7.848   4.471
 5112TIP3    H215294   0.005   7.803   4.597
 5113TIP3   OH215295   6.614   3.937   0.678
 5113TIP3    H115296   6.660   3.853   0.672
 5113TIP3    H215297   6.632   3.979   0.594
 5114TIP3   OH215298   6.401   5.264   3.612
 5114TIP3    H115299   6.381   5.309   3.530
 5114TIP3    H215300   6.441   5.331   3.667
 5115TIP3   OH215301   5.300   3.001   3.004
 5115TIP3    H115302   5.307   3.047   2.920
 5115TIP3    H215303   5.220   2.949   2.996
 5116TIP3   OH215304   1.696   4.529   0.868
 5116TIP3    H115305   1.752   4.550   0.943
 5116TIP3    H215306   1.752   4.476   0.811
 5117TIP3   OH215307   5.471   6.819   0.536
 5117TIP3    H115308   5.552   6.774   0.512
 5117TIP3    H215309   5.434   6.765   0.607
 5118TIP3   OH215310   5.583   4.568   0.801
 5118TIP3    H115311   5.622   4.480   0.804
 5118TIP3    H215312   5.562   4.588   0.892
 5119TIP3   OH215313   6.252   3.344   1.273
 5119TIP3    H115314   6.329   3.387   1.312
 5119TIP3    H215315   6.286   3.263   1.235
 5120TIP3   OH215316   1.142   6.152   2.265
 5120TIP3    H115317   1.227   6.186   2.293
 5120TIP3    H215318   1.080   6.187   2.330
 5121TIP3   OH215319   2.775   1.514   2.226
 5121TIP3    H115320   2.704   1.451   2.237
 5121TIP3    H215321   2.801   1.537   2.315
 5122TIP3   OH215322   5.645   7.512   5.661
 5122TIP3    H115323   5.580   7.531   5.593
 5122TIP3    H215324   5.723   7.561   5.634
 5123TIP3   OH215325   1.823   1.603   5.367
 5123TIP3    H115326   1.780   1.583   5.284
 5123TIP3    H215327   1.806   1.696   5.381
 5124TIP3   OH215328   7.139   0.722   2.924
 5124TIP3    H115329   7.137   0.671   2.843
 5124TIP3    H215330   7.133   0.656   2.994
 5125TIP3   OH215331   6.591   6.126   1.580
 5125TIP3    H115332   6.495   6.120   1.576
 5125TIP3    H215333   6.610   6.220   1.577
 5126TIP3   OH215334   0.752   0.077   4.658
 5126TIP3    H115335   0.795   0.137   4.719
 5126TIP3    H215336   0.824   0.034   4.611
 5127TIP3   OH215337   7.848   1.496   1.897
 5127TIP3    H115338   7.906   1.435   1.852
 5127TIP3    H215339   7.886   1.582   1.881
 5128TIP3   OH215340   0.312   3.512   6.277
 5128TIP3    H115341   0.270   3.452   6.216
 5128TIP3    H215342   0.388   3.545   6.230
 5129TIP3   OH215343   3.151   1.871   0.073
 5129TIP3    H115344   3.169   1.964   0.075
 5129TIP3    H215345   3.078   1.858   0.134
 5130TIP3   OH215346   3.561   4.974   4.099
 5130TIP3    H115347   3.604   5.000   4.181
 5130TIP3    H215348   3.633   4.953   4.040
 5131TIP3   OH215349   0.394   3.915   1.062
 5131TIP3    H115350   0.355   4.002   1.061
 5131TIP3    H215351   0.323   3.856   1.088
 5132TIP3   OH215352   7.489   5.578   0.443
 5132TIP3    H115353   7.483   5.671   0.418
 5132TIP3    H215354   7.497   5.579   0.538
 5133TIP3   OH215355   5.479   4.906   3.137
 5133TIP3    H115356   5.552   4.860   3.177
 5133TIP3    H215357   5.489   4.891   3.043
 5134TIP3   OH215358   4.298   0.973   1.371
 5134TIP3    H115359   4.225   1.023   1.334
 5134TIP3    H215360   4.375   1.029   1.357
 5135TIP3   OH215361   4.655   5.777   6.303
 5135TIP3    H115362   4.681   5.706   6.244
 5135TIP3    H215363   4.612   5.840   6.246
 5136TIP3   OH215364   0.360   2.013   2.349
 5136TIP3    H115365   0.295   1.952   2.384
 5136TIP3    H215366   0.320   2.099   2.359
 5137TIP3   OH215367   8.168   4.795   2.376
 5137TIP3    H115368   8.172   4.792   2.472
 5137TIP3    H215369   8.190   4.706   2.349
 5138TIP3   OH215370   7.400   6.994   5.791
 5138TIP3    H115371   7.385   6.985   5.885
 5138TIP3    H215372   7.314   6.984   5.751
 5139TIP3   OH215373   6.498   7.440   5.520
 5139TIP3    H115374   6.426   7.460   5.580
 5139TIP3    H215375   6.533   7.357   5.553
 5140TIP3   OH215376   1.143   1.899   4.069
 5140TIP3    H115377   1.120   1.909   4.161
 5140TIP3    H215378   1.156   1.988   4.037
 5141TIP3   OH215379   5.285   4.074   5.612
 5141TIP3    H115380   5.219   4.104   5.674
 5141TIP3    H215381   5.284   3.978   5.621
 5142TIP3   OH215382   4.921   0.799   3.014
 5142TIP3    H115383   5.000   0.769   2.970
 5142TIP3    H215384   4.896   0.726   3.071
 5143TIP3   OH215385   5.782   7.701   0.567
 5143TIP3    H115386   5.759   7.783   0.609
 5143TIP3    H215387   5.866   7.718   0.524
 5144TIP3   OH215388   7.894   7.279   1.892
 5144TIP3    H115389   7.924   7.367   1.869
 5144TIP3    H215390   7.890   7.232   1.809
 5145TIP3   OH215391   4.076   3.078   4.938
 5145TIP3    H115392   4.046   3.108   5.024
 5145TIP3    H215393   3.995   3.056   4.891
 5146TIP3   OH215394   3.147   3.439   0.338
 5146TIP3    H115395   3.122   3.444   0.431
 5146TIP3    H215396   3.073   3.476   0.291
 5147TIP3   OH215397   4.329   5.364   4.066
 5147TIP3    H115398   4.394   5.346   4.134
 5147TIP3    H215399   4.352   5.451   4.033
 5148TIP3   OH215400   1.313   4.198   2.437
 5148TIP3    H115401   1.359   4.254   2.374
 5148TIP3    H215402   1.266   4.135   2.383
 5149TIP3   OH215403   6.415   5.456   2.323
 5149TIP3    H115404   6.331   5.472   2.280
 5149TIP3    H215405   6.476   5.438   2.251
 5150TIP3   OH215406   3.330   6.273   0.747
 5150TIP3    H115407   3.343   6.248   0.655
 5150TIP3    H215408   3.326   6.368   0.746
 5151TIP3   OH215409   4.508   7.719   3.495
 5151TIP3    H115410   4.603   7.707   3.494
 5151TIP3    H215411   4.487   7.753   3.408
 5152TIP3   OH215412   6.600   5.275   1.969
 5152TIP3    H115413   6.520   5.241   1.929
 5152TIP3    H215414   6.617   5.217   2.043
 5153TIP3   OH215415   2.282   4.295   3.663
 5153TIP3    H115416   2.242   4.254   3.740
 5153TIP3    H215417   2.266   4.232   3.592
 5154TIP3   OH215418   2.178   0.896   1.804
 5154TIP3    H115419   2.232   0.881   1.726
 5154TIP3    H215420   2.089   0.874   1.777
 5155TIP3   OH215421   4.141   5.302   5.676
 5155TIP3    H115422   4.143   5.375   5.613
 5155TIP3    H215423   4.051   5.271   5.673
 5156TIP3   OH215424   3.544   0.010   3.236
 5156TIP3    H115425   3.464   0.030   3.285
 5156TIP3    H215426   3.515   0.003   3.145
 5157TIP3   OH215427   5.542   4.246   4.550
 5157TIP3    H115428   5.560   4.332   4.590
 5157TIP3    H215429   5.455   4.255   4.513
 5158TIP3   OH215430   6.629   1.737   4.704
 5158TIP3    H115431   6.686   1.677   4.752
 5158TIP3    H215432   6.645   1.717   4.612
 5159TIP3   OH215433   5.434   1.446   4.650
 5159TIP3    H115434   5.476   1.524   4.685
 5159TIP3    H215435   5.356   1.479   4.604
 5160TIP3   OH215436   2.569   4.680   6.392
 5160TIP3    H115437   2.648   4.684   6.337
 5160TIP3    H215438   2.601   4.699   6.480
 5161TIP3   OH215439   1.561   4.844   0.645
 5161TIP3    H115440   1.652   4.816   0.652
 5161TIP3    H215441   1.511   4.762   0.641
 5162TIP3   OH215442   1.658   3.966   0.608
 5162TIP3    H115443   1.729   4.012   0.653
 5162TIP3    H215444   1.696   3.881   0.585
 5163TIP3   OH215445   2.984   6.083   1.665
 5163TIP3    H115446   2.905   6.134   1.644
 5163TIP3    H215447   3.053   6.124   1.613
 5164TIP3   OH215448   3.028   7.399   3.414
 5164TIP3    H115449   3.065   7.443   3.338
 5164TIP3    H215450   3.040   7.306   3.395
 5165TIP3   OH215451   4.105   6.816   1.983
 5165TIP3    H115452   4.045   6.887   1.962
 5165TIP3    H215453   4.060   6.737   1.953
 5166TIP3   OH215454   4.347   0.331   4.023
 5166TIP3    H115455   4.298   0.257   4.061
 5166TIP3    H215456   4.294   0.408   4.045
 5167TIP3   OH215457   2.182   6.996   3.100
 5167TIP3    H115458   2.096   7.033   3.124
 5167TIP3    H215459   2.227   6.986   3.183
 5168TIP3   OH215460   2.150   6.925   4.436
 5168TIP3    H115461   2.074   6.936   4.379
 5168TIP3    H215462   2.112   6.914   4.524
 5169TIP3   OH215463   6.424   5.713   0.209
 5169TIP3    H115464   6.513   5.702   0.177
 5169TIP3    H215465   6.395   5.625   0.232
 5170TIP3   OH215466   2.186   1.028   6.263
 5170TIP3    H115467   2.252   1.092   6.237
 5170TIP3    H215468   2.102   1.074   6.255
 5171TIP3   OH215469   8.013   2.230   3.208
 5171TIP3    H115470   7.963   2.153   3.181
 5171TIP3    H215471   8.104   2.200   3.207
 5172TIP3   OH215472   3.525   0.247   2.477
 5172TIP3    H115473   3.514   0.339   2.499
 5172TIP3    H215474   3.480   0.200   2.548
 5173TIP3   OH215475   1.478   6.930   5.902
 5173TIP3    H115476   1.438   6.869   5.964
 5173TIP3    H215477   1.541   6.876   5.853
 5174TIP3   OH215478   5.872   6.672   5.223
 5174TIP3    H115479   5.950   6.667   5.277
 5174TIP3    H215480   5.830   6.587   5.233
 5175TIP3   OH215481   7.730   5.481   4.001
 5175TIP3    H115482   7.800   5.467   3.937
 5175TIP3    H215483   7.722   5.398   4.047
 5176TIP3   OH215484   7.524   3.320   5.041
 5176TIP3    H115485   7.601   3.364   5.078
 5176TIP3    H215486   7.497   3.259   5.110
 5177TIP3   OH215487   0.985   2.720   4.656
 5177TIP3    H115488   1.019   2.749   4.741
 5177TIP3    H215489   0.924   2.650   4.677
 5178TIP3   OH215490   2.243   7.317   3.807
 5178TIP3    H115491   2.310   7.248   3.806
 5178TIP3    H215492   2.287   7.392   3.848
 5179TIP3   OH215493   2.344   5.289   4.320
 5179TIP3    H115494   2.276   5.266   4.383
 5179TIP3    H215495   2.410   5.221   4.330
 5180TIP3   OH215496   1.462   1.891   2.393
 5180TIP3    H115497   1.434   1.799   2.397
 5180TIP3    H215498   1.480   1.915   2.484
 5181TIP3   OH215499   3.617   2.957   4.389
 5181TIP3    H115500   3.662   3.030   4.346
 5181TIP3    H215501   3.559   2.921   4.322
 5182TIP3   OH215502   6.132   3.904   3.009
 5182TIP3    H115503   6.123   3.976   3.072
 5182TIP3    H215504   6.183   3.940   2.937
 5183TIP3   OH215505   7.050   0.597   5.667
 5183TIP3    H115506   7.132   0.608   5.618
 5183TIP3    H215507   7.066   0.524   5.726
 5184TIP3   OH215508   0.388   1.377   3.952
 5184TIP3    H115509   0.335   1.449   3.919
 5184TIP3    H215510   0.469   1.419   3.982
 5185TIP3   OH215511   4.406   0.746   0.245
 5185TIP3    H115512   4.335   0.690   0.276
 5185TIP3    H215513   4.362   0.825   0.213
 5186TIP3   OH215514   3.324   3.730   3.137
 5186TIP3    H115515   3.341   3.643   3.100
 5186TIP3    H215516   3.265   3.713   3.211
 5187TIP3   OH215517   1.343   0.634   1.150
 5187TIP3    H115518   1.337   0.625   1.245
 5187TIP3    H215519   1.399   0.561   1.123
 5188TIP3   OH215520   0.305   5.694   5.971
 5188TIP3    H115521   0.350   5.673   6.053
 5188TIP3    H215522   0.213   5.704   5.996
 5189TIP3   OH215523   7.372   2.995   3.091
 5189TIP3    H115524   7.457   3.013   3.132
 5189TIP3    H215525   7.342   3.080   3.061
 5190TIP3   OH215526   0.071   4.601   5.298
 5190TIP3    H115527  -0.024   4.607   5.299
 5190TIP3    H215528   0.101   4.689   5.323
 5191TIP3   OH215529   1.673   1.095   4.323
 5191TIP3    H115530   1.585   1.116   4.355
 5191TIP3    H215531   1.660   1.073   4.231
 5192TIP3   OH215532   6.456   6.440   2.302
 5192TIP3    H115533   6.360   6.445   2.308
 5192TIP3    H215534   6.482   6.525   2.266
 5193TIP3   OH215535   1.323   6.896   1.762
 5193TIP3    H115536   1.363   6.935   1.840
 5193TIP3    H215537   1.325   6.802   1.778
 5194TIP3   OH215538   7.755   3.383   5.179
 5194TIP3    H115539   7.795   3.346   5.257
 5194TIP3    H215540   7.797   3.468   5.168
 5195TIP3   OH215541   3.632   1.277   2.062
 5195TIP3    H115542   3.590   1.358   2.092
 5195TIP3    H215543   3.585   1.207   2.107
 5196TIP3   OH215544   3.881   6.683   4.494
 5196TIP3    H115545   3.800   6.658   4.449
 5196TIP3    H215546   3.853   6.748   4.559
 5197TIP3   OH215547   7.168   5.427   1.090
 5197TIP3    H115548   7.206   5.354   1.041
 5197TIP3    H215549   7.123   5.386   1.164
 5198TIP3   OH215550   0.122   5.142   0.387
 5198TIP3    H115551   0.135   5.136   0.292
 5198TIP3    H215552   0.132   5.053   0.419
 5199TIP3   OH215553   4.970   1.256   2.045
 5199TIP3    H115554   5.012   1.170   2.042
 5199TIP3    H215555   5.039   1.316   2.073
 5200TIP3   OH215556   3.374   5.631   2.067
 5200TIP3    H115557   3.322   5.634   1.987
 5200TIP3    H215558   3.325   5.572   2.125
 5201TIP3   OH215559   7.048   0.598   0.817
 5201TIP3    H115560   7.005   0.513   0.816
 5201TIP3    H215561   7.076   0.612   0.726
 5202TIP3   OH215562   6.888   2.397   6.426
 5202TIP3    H115563   6.818   2.382   6.363
 5202TIP3    H215564   6.858   2.471   6.479
 5203TIP3   OH215565   3.564   0.755   5.393
 5203TIP3    H115566   3.589   0.776   5.484
 5203TIP3    H215567   3.496   0.819   5.372
 5204TIP3   OH215568   2.457   2.564   3.118
 5204TIP3    H115569   2.377   2.558   3.171
 5204TIP3    H215570   2.473   2.658   3.109
 5205TIP3   OH215571   7.496   5.211   3.985
 5205TIP3    H115572   7.508   5.217   4.080
 5205TIP3    H215573   7.488   5.117   3.968
 5206TIP3   OH215574   8.023   3.768   4.563
 5206TIP3    H115575   8.038   3.701   4.496
 5206TIP3    H215576   8.099   3.761   4.621
 5207TIP3   OH215577   5.471   7.416   2.020
 5207TIP3    H115578   5.454   7.475   1.947
 5207TIP3    H215579   5.384   7.398   2.057
 5208TIP3   OH215580   2.865   1.683   5.321
 5208TIP3    H115581   2.876   1.678   5.226
 5208TIP3    H215582   2.945   1.644   5.357
 5209TIP3   OH215583   7.188   2.770   1.243
 5209TIP3    H115584   7.243   2.798   1.170
 5209TIP3    H215585   7.167   2.851   1.289
 5210TIP3   OH215586   7.893   5.301   1.641
 5210TIP3    H115587   7.800   5.280   1.651
 5210TIP3    H215588   7.930   5.288   1.729
 5211TIP3   OH215589   4.786   7.337   0.715
 5211TIP3    H115590   4.793   7.404   0.646
 5211TIP3    H215591   4.692   7.328   0.730
 5212TIP3   OH215592   5.442   4.436   2.119
 5212TIP3    H115593   5.455   4.429   2.213
 5212TIP3    H215594   5.492   4.514   2.093
 5213TIP3   OH215595   2.368   6.583   2.802
 5213TIP3    H115596   2.408   6.513   2.750
 5213TIP3    H215597   2.288   6.543   2.837
 5214TIP3   OH215598   7.648   6.160   6.666
 5214TIP3    H115599   7.702   6.233   6.698
 5214TIP3    H215600   7.576   6.155   6.728
 5215TIP3   OH215601   3.921   3.902   5.538
 5215TIP3    H115602   3.841   3.935   5.498
 5215TIP3    H215603   3.952   3.834   5.478
 5216TIP3   OH215604   0.103   2.822   3.032
 5216TIP3    H115605   0.087   2.845   3.123
 5216TIP3    H215606   0.017   2.796   2.999
 5217TIP3   OH215607   1.497   4.184   0.902
 5217TIP3    H115608   1.463   4.121   0.838
 5217TIP3    H215609   1.428   4.192   0.967
 5218TIP3   OH215610   1.825   5.169   3.868
 5218TIP3    H115611   1.914   5.142   3.844
 5218TIP3    H215612   1.833   5.263   3.887
 5219TIP3   OH215613   0.189   1.321   6.377
 5219TIP3    H115614   0.121   1.279   6.325
 5219TIP3    H215615   0.145   1.349   6.458
 5220TIP3   OH215616   4.284   0.590   2.813
 5220TIP3    H115617   4.307   0.513   2.760
 5220TIP3    H215618   4.286   0.558   2.903
 5221TIP3   OH215619   4.199   1.444   5.748
 5221TIP3    H115620   4.256   1.487   5.811
 5221TIP3    H215621   4.225   1.352   5.749
 5222TIP3   OH215622   3.489   3.620   2.220
 5222TIP3    H115623   3.514   3.667   2.299
 5222TIP3    H215624   3.563   3.562   2.201
 5223TIP3   OH215625   4.528   3.221   3.007
 5223TIP3    H115626   4.452   3.165   2.993
 5223TIP3    H215627   4.545   3.260   2.921
 5224TIP3   OH215628   8.304   5.713   6.094
 5224TIP3    H115629   8.263   5.692   6.010
 5224TIP3    H215630   8.238   5.764   6.141
 5225TIP3   OH215631   5.223   3.589   2.271
 5225TIP3    H115632   5.155   3.528   2.300
 5225TIP3    H215633   5.289   3.586   2.340
 5226TIP3   OH215634   6.738   7.038   0.542
 5226TIP3    H115635   6.813   7.063   0.489
 5226TIP3    H215636   6.739   7.099   0.616
 5227TIP3   OH215637   1.382   1.673   4.348
 5227TIP3    H115638   1.420   1.753   4.385
 5227TIP3    H215639   1.433   1.602   4.386
 5228TIP3   OH215640   6.737   2.819   2.880
 5228TIP3    H115641   6.757   2.904   2.919
 5228TIP3    H215642   6.776   2.755   2.939
 5229TIP3   OH215643   1.910   3.154   3.994
 5229TIP3    H115644   1.833   3.110   3.957
 5229TIP3    H215645   1.984   3.114   3.948
 5230TIP3   OH215646   3.320   7.645   6.238
 5230TIP3    H115647   3.408   7.677   6.221
 5230TIP3    H215648   3.287   7.617   6.153
 5231TIP3   OH215649   7.134   0.053   0.946
 5231TIP3    H115650   7.144  -0.031   0.989
 5231TIP3    H215651   7.066   0.098   0.996
 5232TIP3   OH215652   0.986   2.048   3.828
 5232TIP3    H115653   0.991   2.092   3.743
 5232TIP3    H215654   1.073   2.062   3.866
 5233TIP3   OH215655   3.345   5.911   3.031
 5233TIP3    H115656   3.436   5.938   3.033
 5233TIP3    H215657   3.304   5.962   3.102
 5234TIP3   OH215658   4.766   1.882   2.582
 5234TIP3    H115659   4.730   1.957   2.630
 5234TIP3    H215660   4.778   1.815   2.649
 5235TIP3   OH215661   7.930   6.812   2.598
 5235TIP3    H115662   7.864   6.763   2.549
 5235TIP3    H215663   7.917   6.903   2.571
 5236TIP3   OH215664   4.204   7.281   2.592
 5236TIP3    H115665   4.130   7.278   2.653
 5236TIP3    H215666   4.231   7.190   2.582
 5237TIP3   OH215667   6.681   6.505   0.104
 5237TIP3    H115668   6.745   6.475   0.039
 5237TIP3    H215669   6.618   6.434   0.111
 5238TIP3   OH215670   5.072   5.937   3.488
 5238TIP3    H115671   5.126   5.868   3.527
 5238TIP3    H215672   5.023   5.974   3.561
 5239TIP3   OH215673   3.945   2.922   1.441
 5239TIP3    H115674   3.917   3.013   1.443
 5239TIP3    H215675   3.916   2.885   1.524
 5240TIP3   OH215676  -0.011   3.758   6.670
 5240TIP3    H115677   0.069   3.775   6.620
 5240TIP3    H215678  -0.007   3.819   6.743
 5241TIP3   OH215679   0.348   4.715   6.559
 5241TIP3    H115680   0.430   4.758   6.536
 5241TIP3    H215681   0.351   4.710   6.655
 5242TIP3   OH215682   4.815   7.459   1.122
 5242TIP3    H115683   4.821   7.523   1.193
 5242TIP3    H215684   4.729   7.476   1.083
 5243TIP3   OH215685   4.798   7.007   1.150
 5243TIP3    H115686   4.860   7.061   1.199
 5243TIP3    H215687   4.751   7.068   1.094
 5244TIP3   OH215688   3.828   5.041   5.278
 5244TIP3    H115689   3.873   4.992   5.209
 5244TIP3    H215690   3.736   5.017   5.266
 5245TIP3   OH215691   1.058   4.605   1.360
 5245TIP3    H115692   0.998   4.679   1.368
 5245TIP3    H215693   1.001   4.528   1.358
 5246TIP3   OH215694   6.941   1.998   4.979
 5246TIP3    H115695   6.996   2.041   5.044
 5246TIP3    H215696   6.994   1.994   4.900
 5247TIP3   OH215697   4.939   7.155   4.242
 5247TIP3    H115698   4.844   7.160   4.254
 5247TIP3    H215699   4.975   7.196   4.321
 5248TIP3   OH215700   2.159   2.525   5.131
 5248TIP3    H115701   2.246   2.500   5.164
 5248TIP3    H215702   2.155   2.620   5.143
 5249TIP3   OH215703   2.210   3.796   3.299
 5249TIP3    H115704   2.148   3.867   3.315
 5249TIP3    H215705   2.245   3.813   3.212
 5250TIP3   OH215706   0.951   3.623   4.839
 5250TIP3    H115707   1.012   3.657   4.904
 5250TIP3    H215708   1.004   3.610   4.760
 5251TIP3   OH215709   0.058   1.142   3.327
 5251TIP3    H115710   0.007   1.079   3.275
 5251TIP3    H215711   0.148   1.129   3.299
 5252TIP3   OH215712   3.073   5.145   3.123
 5252TIP3    H115713   3.146   5.099   3.082
 5252TIP3    H215714   3.091   5.139   3.217
 5253TIP3   OH215715   3.233   5.796   6.103
 5253TIP3    H115716   3.324   5.823   6.088
 5253TIP3    H215717   3.239   5.703   6.121
 5254TIP3   OH215718   6.420   4.744   6.566
 5254TIP3    H115719   6.380   4.660   6.544
 5254TIP3    H215720   6.511   4.723   6.587
 5255TIP3   OH215721   6.189   2.546   1.924
 5255TIP3    H115722   6.211   2.638   1.936
 5255TIP3    H215723   6.131   2.525   1.997
 5256TIP3   OH215724   2.364   6.845   4.088
 5256TIP3    H115725   2.326   6.933   4.095
 5256TIP3    H215726   2.289   6.786   4.099
 5257TIP3   OH215727   0.898   1.036   2.116
 5257TIP3    H115728   0.906   0.965   2.053
 5257TIP3    H215729   0.873   1.112   2.064
 5258TIP3   OH215730   0.431   1.491   5.081
 5258TIP3    H115731   0.480   1.552   5.138
 5258TIP3    H215732   0.351   1.538   5.059
 5259TIP3   OH215733   6.573   4.477   0.149
 5259TIP3    H115734   6.493   4.426   0.133
 5259TIP3    H215735   6.642   4.412   0.157
 5260TIP3   OH215736   3.836   7.183   3.166
 5260TIP3    H115737   3.757   7.163   3.216
 5260TIP3    H215738   3.905   7.192   3.232
 5261TIP3   OH215739   5.562   5.612   2.984
 5261TIP3    H115740   5.564   5.706   3.001
 5261TIP3    H215741   5.471   5.594   2.959
 5262TIP3   OH215742   3.269   4.253   6.735
 5262TIP3    H115743   3.249   4.174   6.685
 5262TIP3    H215744   3.220   4.243   6.816
 5263TIP3   OH215745   3.897   7.588   2.022
 5263TIP3    H115746   3.988   7.606   1.995
 5263TIP3    H215747   3.881   7.648   2.094
 5264TIP3   OH215748   4.843   1.571   5.005
 5264TIP3    H115749   4.770   1.600   5.059
 5264TIP3    H215750   4.858   1.643   4.944
 5265TIP3   OH215751   0.815   2.363   6.142
 5265TIP3    H115752   0.835   2.432   6.080
 5265TIP3    H215753   0.900   2.330   6.171
 5266TIP3   OH215754   6.121   6.850   1.869
 5266TIP3    H115755   6.193   6.808   1.823
 5266TIP3    H215756   6.117   6.805   1.954
 5267TIP3   OH215757   5.292   2.772   3.851
 5267TIP3    H115758   5.375   2.775   3.804
 5267TIP3    H215759   5.309   2.713   3.924
 5268TIP3   OH215760   4.378   1.417   4.343
 5268TIP3    H115761   4.386   1.512   4.349
 5268TIP3    H215762   4.438   1.392   4.273
 5269TIP3   OH215763   4.812   6.580   5.312
 5269TIP3    H115764   4.824   6.509   5.249
 5269TIP3    H215765   4.725   6.614   5.293
 5270TIP3   OH215766   0.379   4.701   5.997
 5270TIP3    H115767   0.433   4.732   6.069
 5270TIP3    H215768   0.340   4.780   5.960
 5271TIP3   OH215769   7.203   5.836   3.242
 5271TIP3    H115770   7.245   5.908   3.289
 5271TIP3    H215771   7.224   5.854   3.150
 5272TIP3   OH215772   6.361   1.967   1.876
 5272TIP3    H115773   6.394   1.893   1.926
 5272TIP3    H215774   6.266   1.964   1.889
 5273TIP3   OH215775   1.483   7.126   6.107
 5273TIP3    H115776   1.498   7.201   6.049
 5273TIP3    H215777   1.478   7.051   6.048
 5274TIP3   OH215778   7.767   6.181   0.447
 5274TIP3    H115779   7.812   6.107   0.487
 5274TIP3    H215780   7.837   6.237   0.413
 5275TIP3   OH215781   7.870   7.125   2.319
 5275TIP3    H115782   7.795   7.079   2.280
 5275TIP3    H215783   7.919   7.159   2.245
 5276TIP3   OH215784   0.203   1.806   5.138
 5276TIP3    H115785   0.221   1.810   5.044
 5276TIP3    H215786   0.164   1.891   5.159
 5277TIP3   OH215787   6.826   0.713   0.926
 5277TIP3    H115788   6.910   0.710   0.878
 5277TIP3    H215789   6.828   0.635   0.981
 5278TIP3   OH215790   2.195   4.052   2.387
 5278TIP3    H115791   2.277   4.099   2.369
 5278TIP3    H215792   2.149   4.052   2.304
 5279TIP3   OH215793   5.427   0.099   1.675
 5279TIP3    H115794   5.456   0.190   1.677
 5279TIP3    H215795   5.402   0.080   1.766
 5280TIP3   OH215796   3.734   4.957   4.608
 5280TIP3    H115797   3.772   4.898   4.673
 5280TIP3    H215798   3.686   5.022   4.660
 5281TIP3   OH215799   4.099   2.418   5.538
 5281TIP3    H115800   4.179   2.450   5.496
 5281TIP3    H215801   4.057   2.497   5.573
 5282TIP3   OH215802   1.534   7.511   6.135
 5282TIP3    H115803   1.600   7.560   6.183
 5282TIP3    H215804   1.572   7.425   6.121
 5283TIP3   OH215805   5.786   5.982   4.610
 5283TIP3    H115806   5.727   6.006   4.683
 5283TIP3    H215807   5.741   5.910   4.566
 5284TIP3   OH215808   6.335   7.058   1.425
 5284TIP3    H115809   6.301   7.127   1.483
 5284TIP3    H215810   6.310   7.087   1.337
 5285TIP3   OH215811   5.532   3.121   3.471
 5285TIP3    H115812   5.444   3.155   3.490
 5285TIP3    H215813   5.589   3.197   3.482
 5286TIP3   OH215814   5.145   2.760   2.139
 5286TIP3    H115815   5.086   2.828   2.106
 5286TIP3    H215816   5.116   2.746   2.229
 5287TIP3   OH215817   2.055   4.906   2.421
 5287TIP3    H115818   2.060   5.001   2.420
 5287TIP3    H215819   1.962   4.886   2.411
 5288TIP3   OH215820   4.051   4.532   5.913
 5288TIP3    H115821   3.970   4.528   5.862
 5288TIP3    H215822   4.080   4.623   5.904
 5289TIP3   OH215823   3.114   7.379   5.818
 5289TIP3    H115824   3.151   7.394   5.731
 5289TIP3    H215825   3.110   7.284   5.827
 5290TIP3   OH215826   5.656   5.270   3.429
 5290TIP3    H115827   5.568   5.293   3.399
 5290TIP3    H215828   5.707   5.260   3.348
 5291TIP3   OH215829   4.563   2.555   0.558
 5291TIP3    H115830   4.632   2.505   0.515
 5291TIP3    H215831   4.527   2.496   0.624
 5292TIP3   OH215832   3.816   7.665   6.641
 5292TIP3    H115833   3.799   7.575   6.671
 5292TIP3    H215834   3.859   7.654   6.557
 5293TIP3   OH215835   3.783   4.701   0.448
 5293TIP3    H115836   3.713   4.757   0.482
 5293TIP3    H215837   3.802   4.736   0.362
 5294TIP3   OH215838   1.184   1.647   4.548
 5294TIP3    H115839   1.124   1.586   4.506
 5294TIP3    H215840   1.253   1.661   4.483
 5295TIP3   OH215841   7.796   2.359   5.967
 5295TIP3    H115842   7.780   2.275   5.924
 5295TIP3    H215843   7.735   2.361   6.041
 5296TIP3   OH215844   6.302   5.860   3.581
 5296TIP3    H115845   6.374   5.917   3.609
 5296TIP3    H215846   6.345   5.778   3.557
 5297TIP3   OH215847   1.615   7.414   6.480
 5297TIP3    H115848   1.573   7.467   6.412
 5297TIP3    H215849   1.700   7.390   6.441
 5298TIP3   OH215850   3.702   6.799   0.909
 5298TIP3    H115851   3.737   6.742   0.841
 5298TIP3    H215852   3.639   6.745   0.956
 5299TIP3   OH215853   0.703   5.397   4.160
 5299TIP3    H115854   0.619   5.410   4.115
 5299TIP3    H215855   0.704   5.463   4.229
 5300TIP3   OH215856   5.448   4.300   5.591
 5300TIP3    H115857   5.394   4.376   5.615
 5300TIP3    H215858   5.386   4.228   5.582
 5301TIP3   OH215859   4.079   7.164   6.685
 5301TIP3    H115860   4.139   7.196   6.618
 5301TIP3    H215861   4.097   7.071   6.693
 5302TIP3   OH215862   0.481   2.628   4.078
 5302TIP3    H115863   0.406   2.592   4.031
 5302TIP3    H215864   0.536   2.553   4.097
 5303TIP3   OH215865   5.696   4.816   5.655
 5303TIP3    H115866   5.690   4.906   5.622
 5303TIP3    H215867   5.664   4.821   5.745
 5304TIP3   OH215868   7.320   7.585   1.487
 5304TIP3    H115869   7.379   7.565   1.415
 5304TIP3    H215870   7.235   7.549   1.460
 5305TIP3   OH215871   8.055   5.873   6.684
 5305TIP3    H115872   8.038   5.925   6.763
 5305TIP3    H215873   7.996   5.798   6.692
 5306TIP3   OH215874   0.640   3.073   6.297
 5306TIP3    H115875   0.595   3.067   6.213
 5306TIP3    H215876   0.594   3.144   6.343
 5307TIP3   OH215877   4.093   5.701   2.291
 5307TIP3    H115878   4.122   5.704   2.382
 5307TIP3    H215879   4.003   5.668   2.295
 5308TIP3   OH215880   4.783   1.541   0.449
 5308TIP3    H115881   4.791   1.482   0.523
 5308TIP3    H215882   4.774   1.628   0.488
 5309TIP3   OH215883   1.201   3.573   0.784
 5309TIP3    H115884   1.259   3.506   0.749
 5309TIP3    H215885   1.173   3.623   0.707
 5310TIP3   OH215886   6.039   3.314   1.434
 5310TIP3    H115887   6.102   3.344   1.369
 5310TIP3    H215888   6.060   3.222   1.447
 5311TIP3   OH215889   8.210   7.435   2.820
 5311TIP3    H115890   8.133   7.493   2.823
 5311TIP3    H215891   8.218   7.404   2.910
 5312TIP3   OH215892   2.196   3.126   1.427
 5312TIP3    H115893   2.130   3.098   1.489
 5312TIP3    H215894   2.157   3.110   1.341
 5313TIP3   OH215895   1.815   4.232   0.518
 5313TIP3    H115896   1.861   4.164   0.469
 5313TIP3    H215897   1.793   4.191   0.601
 5314TIP3   OH215898   1.359   1.373   4.220
 5314TIP3    H115899   1.401   1.313   4.282
 5314TIP3    H215900   1.394   1.459   4.243
 5315TIP3   OH215901   1.434   3.943   0.770
 5315TIP3    H115902   1.516   3.954   0.721
 5315TIP3    H215903   1.367   3.932   0.702
 5316TIP3   OH215904   6.302   0.596   3.321
 5316TIP3    H115905   6.280   0.686   3.344
 5316TIP3    H215906   6.219   0.549   3.328
 5317TIP3   OH215907   2.194   4.804   0.497
 5317TIP3    H115908   2.099   4.808   0.502
 5317TIP3    H215909   2.216   4.858   0.421
 5318TIP3   OH215910   1.799   4.698   0.604
 5318TIP3    H115911   1.853   4.633   0.648
 5318TIP3    H215912   1.748   4.648   0.540
 5319TIP3   OH215913   7.673   5.374   2.219
 5319TIP3    H115914   7.622   5.323   2.281
 5319TIP3    H215915   7.723   5.309   2.169
 5320TIP3   OH215916   1.120   2.933   0.329
 5320TIP3    H115917   1.194   2.972   0.377
 5320TIP3    H215918   1.057   2.911   0.397
 5321TIP3   OH215919   4.975   7.173   6.536
 5321TIP3    H115920   4.953   7.083   6.511
 5321TIP3    H215921   4.890   7.214   6.555
 5322TIP3   OH215922   6.385   2.361   1.525
 5322TIP3    H115923   6.373   2.270   1.554
 5322TIP3    H215924   6.420   2.406   1.602
 5323TIP3   OH215925   5.917   3.000   1.110
 5323TIP3    H115926   5.984   3.054   1.070
 5323TIP3    H215927   5.894   3.046   1.191
 5324TIP3   OH215928   3.393   2.333   4.472
 5324TIP3    H115929   3.443   2.410   4.500
 5324TIP3    H215930   3.320   2.369   4.421
 5325TIP3   OH215931   1.718   6.526   5.105
 5325TIP3    H115932   1.810   6.501   5.117
 5325TIP3    H215933   1.702   6.590   5.174
 5326TIP3   OH215934   2.552   0.323   3.667
 5326TIP3    H115935   2.566   0.306   3.760
 5326TIP3    H215936   2.459   0.341   3.659
 5327TIP3   OH215937   3.170   5.426   6.591
 5327TIP3    H115938   3.193   5.335   6.573
 5327TIP3    H215939   3.098   5.421   6.654
 5328TIP3   OH215940   7.235   0.043   1.665
 5328TIP3    H115941   7.292   0.120   1.668
 5328TIP3    H215942   7.188   0.052   1.582
 5329TIP3   OH215943   8.231   1.191   2.333
 5329TIP3    H115944   8.279   1.126   2.384
 5329TIP3    H215945   8.202   1.256   2.397
 5330TIP3   OH215946   4.737   0.221   3.817
 5330TIP3    H115947   4.701   0.232   3.905
 5330TIP3    H215948   4.814   0.166   3.830
 5331TIP3   OH215949   2.285   0.647   6.353
 5331TIP3    H115950   2.322   0.559   6.357
 5331TIP3    H215951   2.348   0.696   6.300
 5332TIP3   OH215952   2.586   5.575   4.667
 5332TIP3    H115953   2.623   5.663   4.672
 5332TIP3    H215954   2.644   5.522   4.721
 5333TIP3   OH215955   0.736   7.514   6.231
 5333TIP3    H115956   0.720   7.527   6.324
 5333TIP3    H215957   0.713   7.598   6.191
 5334TIP3   OH215958   6.603   3.517   0.962
 5334TIP3    H115959   6.674   3.460   0.992
 5334TIP3    H215960   6.523   3.471   0.985
 5335TIP3   OH215961   8.080   1.524   4.883
 5335TIP3    H115962   8.154   1.574   4.849
 5335TIP3    H215963   8.076   1.446   4.827
 5336TIP3   OH215964   7.742   3.660   2.288
 5336TIP3    H115965   7.651   3.645   2.259
 5336TIP3    H215966   7.795   3.636   2.212
 5337TIP3   OH215967   0.115   6.453   3.075
 5337TIP3    H115968   0.101   6.524   3.013
 5337TIP3    H215969   0.142   6.378   3.021
 5338TIP3   OH215970   7.408   4.756   6.479
 5338TIP3    H115971   7.482   4.816   6.489
 5338TIP3    H215972   7.369   4.782   6.395
 5339TIP3   OH215973   6.835   1.094   2.534
 5339TIP3    H115974   6.778   1.148   2.480
 5339TIP3    H215975   6.810   1.004   2.513
 5340TIP3   OH215976   7.524   7.019   6.518
 5340TIP3    H115977   7.569   7.103   6.505
 5340TIP3    H215978   7.589   6.953   6.496
 5341TIP3   OH215979   3.223   0.431   1.446
 5341TIP3    H115980   3.290   0.379   1.401
 5341TIP3    H215981   3.214   0.509   1.391
 5342TIP3   OH215982   0.182   1.687   0.993
 5342TIP3    H115983   0.231   1.617   1.036
 5342TIP3    H215984   0.153   1.649   0.910
 5343TIP3   OH215985   5.729   4.901   1.363
 5343TIP3    H115986   5.790   4.839   1.403
 5343TIP3    H215987   5.669   4.925   1.434
 5344TIP3   OH215988   3.086   5.724   2.711
 5344TIP3    H115989   2.994   5.701   2.693
 5344TIP3    H215990   3.136   5.673   2.647
 5345TIP3   OH215991   6.185   7.589   0.042
 5345TIP3    H115992   6.194   7.505  -0.002
 5345TIP3    H215993   6.090   7.601   0.050
 5346TIP3   OH215994   5.266   1.488   0.038
 5346TIP3    H115995   5.216   1.455   0.113
 5346TIP3    H215996   5.225   1.571   0.016
 5347TIP3   OH215997   6.153   6.995   3.674
 5347TIP3    H115998   6.075   7.013   3.622
 5347TIP3    H215999   6.131   6.916   3.723
 5348TIP3   OH216000   2.378   4.886   3.750
 5348TIP3    H116001   2.416   4.972   3.733
 5348TIP3    H216002   2.293   4.904   3.789
 5349TIP3   OH216003   6.330   6.046   4.871
 5349TIP3    H116004   6.397   6.036   4.939
 5349TIP3    H216005   6.247   6.039   4.918
 5350TIP3   OH216006   6.114   7.355   5.123
 5350TIP3    H116007   6.159   7.274   5.148
 5350TIP3    H216008   6.181   7.423   5.130
 5351TIP3   OH216009   3.973   5.547   1.473
 5351TIP3    H116010   3.898   5.596   1.441
 5351TIP3    H216011   4.017   5.607   1.533
 5352TIP3   OH216012   3.007   2.454   0.294
 5352TIP3    H116013   2.950   2.378   0.305
 5352TIP3    H216014   2.965   2.524   0.344
 5353TIP3   OH216015   7.808   0.597   3.055
 5353TIP3    H116016   7.762   0.673   3.091
 5353TIP3    H216017   7.783   0.597   2.962
 5354TIP3   OH216018   6.552   0.277   4.726
 5354TIP3    H116019   6.602   0.347   4.685
 5354TIP3    H216020   6.612   0.202   4.724
 5355TIP3   OH216021   5.390   3.648   5.998
 5355TIP3    H116022   5.429   3.561   6.008
 5355TIP3    H216023   5.300   3.637   6.028
 5356TIP3   OH216024   8.214   5.026   6.631
 5356TIP3    H116025   8.210   4.996   6.722
 5356TIP3    H216026   8.147   5.094   6.625
 5357TIP3   OH216027   1.870   3.715   2.482
 5357TIP3    H116028   1.779   3.687   2.472
 5357TIP3    H216029   1.901   3.728   2.392
 5358TIP3   OH216030   5.178   2.507   0.213
 5358TIP3    H116031   5.156   2.577   0.274
 5358TIP3    H216032   5.271   2.521   0.192
 5359TIP3   OH216033   2.642   1.949   2.625
 5359TIP3    H116034   2.587   1.904   2.690
 5359TIP3    H216035   2.628   2.042   2.641
 5360TIP3   OH216036   1.524   1.074   4.646
 5360TIP3    H116037   1.495   1.072   4.737
 5360TIP3    H216038   1.578   1.153   4.641
 5361TIP3   OH216039   2.071   1.454   5.701
 5361TIP3    H116040   1.992   1.504   5.721
 5361TIP3    H216041   2.139   1.520   5.688
 5362TIP3   OH216042   6.878   0.044   1.755
 5362TIP3    H116043   6.904  -0.010   1.680
 5362TIP3    H216044   6.950   0.107   1.765
 5363TIP3   OH216045   2.576   0.277   4.269
 5363TIP3    H116046   2.547   0.301   4.357
 5363TIP3    H216047   2.498   0.240   4.227
 5364TIP3   OH216048   6.260   1.628   1.071
 5364TIP3    H116049   6.196   1.568   1.110
 5364TIP3    H216050   6.211   1.708   1.054
 5365TIP3   OH216051   7.159   5.073   3.481
 5365TIP3    H116052   7.220   5.082   3.408
 5365TIP3    H216053   7.140   4.979   3.484
 5366TIP3   OH216054   2.639   6.115   4.919
 5366TIP3    H116055   2.724   6.088   4.882
 5366TIP3    H216056   2.583   6.128   4.842
 5367TIP3   OH216057   5.865   3.250   3.520
 5367TIP3    H116058   5.933   3.314   3.539
 5367TIP3    H216059   5.793   3.301   3.484
 5368TIP3   OH216060   4.287   0.776   5.892
 5368TIP3    H116061   4.317   0.757   5.804
 5368TIP3    H216062   4.242   0.860   5.885
 5369TIP3   OH216063   3.544   0.722   2.309
 5369TIP3    H116064   3.461   0.737   2.262
 5369TIP3    H216065   3.605   0.783   2.268
 5370TIP3   OH216066   5.025   7.436   3.509
 5370TIP3    H116067   4.992   7.381   3.438
 5370TIP3    H216068   5.044   7.375   3.580
 5371TIP3   OH216069   0.135   5.988   2.918
 5371TIP3    H116070   0.206   6.010   2.977
 5371TIP3    H216071   0.169   5.917   2.864
 5372TIP3   OH216072   0.688   2.267   0.963
 5372TIP3    H116073   0.681   2.234   0.873
 5372TIP3    H216074   0.657   2.357   0.959
 5373TIP3   OH216075   8.228   4.884   2.134
 5373TIP3    H116076   8.282   4.959   2.159
 5373TIP3    H216077   8.204   4.842   2.217
 5374TIP3   OH216078   6.728   3.390   2.993
 5374TIP3    H116079   6.764   3.475   2.969
 5374TIP3    H216080   6.657   3.411   3.054
 5375TIP3   OH216081   3.194   2.053   6.014
 5375TIP3    H116082   3.101   2.069   6.031
 5375TIP3    H216083   3.223   2.130   5.966
 5376TIP3   OH216084   0.874   0.301   3.965
 5376TIP3    H116085   0.959   0.271   3.998
 5376TIP3    H216086   0.892   0.338   3.879
 5377TIP3   OH216087   3.406   3.208   2.425
 5377TIP3    H116088   3.490   3.252   2.435
 5377TIP3    H216089   3.358   3.262   2.362
 5378TIP3   OH216090   6.789   0.717   0.252
 5378TIP3    H116091   6.727   0.781   0.217
 5378TIP3    H216092   6.810   0.748   0.340
 5379TIP3   OH216093   6.745   2.388   2.108
 5379TIP3    H116094   6.794   2.312   2.076
 5379TIP3    H216095   6.722   2.437   2.029
 5380TIP3   OH216096   7.751   5.231   4.163
 5380TIP3    H116097   7.759   5.145   4.204
 5380TIP3    H216098   7.790   5.291   4.226
 5381TIP3   OH216099   3.944   7.186   0.218
 5381TIP3    H116100   3.996   7.232   0.285
 5381TIP3    H216101   3.986   7.210   0.135
 5382TIP3   OH216102   2.981   6.334   3.506
 5382TIP3    H116103   2.970   6.347   3.600
 5382TIP3    H216104   3.041   6.404   3.480
 5383TIP3   OH216105   3.798   2.069   6.580
 5383TIP3    H116106   3.818   2.017   6.502
 5383TIP3    H216107   3.881   2.110   6.603
 5384TIP3   OH216108   8.162   7.329   4.310
 5384TIP3    H116109   8.156   7.235   4.326
 5384TIP3    H216110   8.251   7.342   4.278
 5385TIP3   OH216111   2.646   3.854   5.771
 5385TIP3    H116112   2.700   3.814   5.839
 5385TIP3    H216113   2.580   3.788   5.751
 5386TIP3   OH216114   3.154   4.961   6.646
 5386TIP3    H116115   3.218   4.910   6.596
 5386TIP3    H216116   3.091   4.896   6.677
 5387TIP3   OH216117   8.161   2.939   1.820
 5387TIP3    H116118   8.121   2.866   1.773
 5387TIP3    H216119   8.241   2.903   1.857
 5388TIP3   OH216120   2.493   5.231   1.149
 5388TIP3    H116121   2.461   5.281   1.074
 5388TIP3    H216122   2.496   5.295   1.220
 5389TIP3   OH216123   1.150   3.184   5.133
 5389TIP3    H116124   1.182   3.167   5.044
 5389TIP3    H216125   1.224   3.224   5.178
 5390TIP3   OH216126   0.665   5.335   4.855
 5390TIP3    H116127   0.728   5.359   4.787
 5390TIP3    H216128   0.643   5.244   4.835
 5391TIP3   OH216129   0.237   6.285   1.687
 5391TIP3    H116130   0.210   6.240   1.607
 5391TIP3    H216131   0.234   6.218   1.755
 5392TIP3   OH216132   1.242   0.844   1.025
 5392TIP3    H116133   1.309   0.885   0.971
 5392TIP3    H216134   1.288   0.775   1.072
 5393TIP3   OH216135   6.937   7.100   1.869
 5393TIP3    H116136   6.982   7.133   1.948
 5393TIP3    H216137   6.923   7.178   1.816
 5394TIP3   OH216138   2.512   7.005   0.225
 5394TIP3    H116139   2.443   6.967   0.171
 5394TIP3    H216140   2.580   6.939   0.226
 5395TIP3   OH216141   1.891   6.074   4.924
 5395TIP3    H116142   1.911   5.990   4.881
 5395TIP3    H216143   1.947   6.138   4.880
 5396TIP3   OH216144   3.893   0.533   2.140
 5396TIP3    H116145   3.836   0.470   2.097
 5396TIP3    H216146   3.904   0.603   2.076
 5397TIP3   OH216147   1.361   4.560   1.385
 5397TIP3    H116148   1.273   4.567   1.422
 5397TIP3    H216149   1.414   4.527   1.458
 5398TIP3   OH216150   4.552   7.418   0.459
 5398TIP3    H116151   4.611   7.468   0.403
 5398TIP3    H216152   4.554   7.330   0.423
 5399TIP3   OH216153   5.804   0.923   5.484
 5399TIP3    H116154   5.774   1.012   5.502
 5399TIP3    H216155   5.898   0.933   5.468
 5400TIP3   OH216156   6.837   3.425   1.051
 5400TIP3    H116157   6.852   3.505   1.101
 5400TIP3    H216158   6.822   3.358   1.118
 5401TIP3   OH216159   2.353   3.829   5.526
 5401TIP3    H116160   2.264   3.800   5.548
 5401TIP3    H216161   2.404   3.813   5.605
 5402TIP3   OH216162   5.032   2.820   1.512
 5402TIP3    H116163   5.054   2.811   1.419
 5402TIP3    H216164   5.057   2.911   1.533
 5403TIP3   OH216165   0.431   5.673   3.250
 5403TIP3    H116166   0.492   5.599   3.253
 5403TIP3    H216167   0.429   5.706   3.340
 5404TIP3   OH216168   6.508   6.935   1.633
 5404TIP3    H116169   6.559   6.885   1.696
 5404TIP3    H216170   6.508   7.024   1.668
 5405TIP3   OH216171   1.598   3.187   0.689
 5405TIP3    H116172   1.621   3.179   0.782
 5405TIP3    H216173   1.637   3.270   0.662
 5406TIP3   OH216174   2.742   3.504   6.521
 5406TIP3    H116175   2.680   3.467   6.457
 5406TIP3    H216176   2.727   3.598   6.517
 5407TIP3   OH216177   4.060   2.813   3.493
 5407TIP3    H116178   4.138   2.841   3.446
 5407TIP3    H216179   3.989   2.862   3.451
 5408TIP3   OH216180   7.663   2.996   2.162
 5408TIP3    H116181   7.713   3.037   2.232
 5408TIP3    H216182   7.728   2.948   2.111
 5409TIP3   OH216183   5.609   1.495   3.595
 5409TIP3    H116184   5.699   1.505   3.564
 5409TIP3    H216185   5.607   1.410   3.639
 5410TIP3   OH216186   1.525   3.367   5.429
 5410TIP3    H116187   1.600   3.309   5.438
 5410TIP3    H216188   1.562   3.449   5.394
 5411TIP3   OH216189   7.707   4.373   0.205
 5411TIP3    H116190   7.650   4.446   0.230
 5411TIP3    H216191   7.664   4.335   0.128
 5412TIP3   OH216192   5.063   1.644   4.234
 5412TIP3    H116193   4.995   1.590   4.276
 5412TIP3    H216194   5.033   1.654   4.144
 5413TIP3   OH216195   7.682   4.161   4.521
 5413TIP3    H116196   7.719   4.079   4.552
 5413TIP3    H216197   7.600   4.170   4.570
 5414TIP3   OH216198   3.998   5.215   5.441
 5414TIP3    H116199   4.077   5.235   5.390
 5414TIP3    H216200   3.958   5.142   5.394
 5415TIP3   OH216201   4.509   5.882   1.520
 5415TIP3    H116202   4.594   5.842   1.538
 5415TIP3    H216203   4.529   5.975   1.508
 5416TIP3   OH216204   3.873   3.722   3.344
 5416TIP3    H116205   3.794   3.709   3.395
 5416TIP3    H216206   3.879   3.645   3.288
 5417TIP3   OH216207   3.236   0.000   1.155
 5417TIP3    H116208   3.159   0.057   1.156
 5417TIP3    H216209   3.310   0.060   1.152
 5418TIP3   OH216210   5.492   1.971   4.645
 5418TIP3    H116211   5.410   1.923   4.640
 5418TIP3    H216212   5.467   2.062   4.630
 5419TIP3   OH216213   3.637   1.120   0.254
 5419TIP3    H116214   3.628   1.128   0.349
 5419TIP3    H216215   3.561   1.070   0.226
 5420TIP3   OH216216   7.475   7.264   2.235
 5420TIP3    H116217   7.400   7.287   2.181
 5420TIP3    H216218   7.551   7.292   2.185
 5421TIP3   OH216219   6.770   5.706   1.595
 5421TIP3    H116220   6.708   5.654   1.645
 5421TIP3    H216221   6.805   5.646   1.529
 5422TIP3   OH216222   6.308   6.433   1.301
 5422TIP3    H116223   6.310   6.445   1.206
 5422TIP3    H216224   6.236   6.489   1.330
 5423TIP3   OH216225   0.211   1.074   3.024
 5423TIP3    H116226   0.190   0.981   3.031
 5423TIP3    H216227   0.259   1.093   3.105
 5424TIP3   OH216228   7.274   2.544   1.739
 5424TIP3    H116229   7.302   2.463   1.695
 5424TIP3    H216230   7.345   2.606   1.721
 5425TIP3   OH216231   3.835   1.868   2.381
 5425TIP3    H116232   3.749   1.873   2.340
 5425TIP3    H216233   3.895   1.906   2.316
 5426TIP3   OH216234   4.987   7.485   4.241
 5426TIP3    H116235   4.923   7.507   4.309
 5426TIP3    H216236   4.943   7.417   4.189
 5427TIP3   OH216237   7.029   1.863   0.881
 5427TIP3    H116238   6.964   1.934   0.883
 5427TIP3    H216239   7.058   1.854   0.971
 5428TIP3   OH216240   0.178   4.990   6.031
 5428TIP3    H116241   0.267   5.016   6.007
 5428TIP3    H216242   0.122   5.040   5.972
 5429TIP3   OH216243   6.043   2.289   2.784
 5429TIP3    H116244   6.043   2.195   2.765
 5429TIP3    H216245   6.049   2.295   2.879
 5430TIP3   OH216246   3.574   7.173   3.284
 5430TIP3    H116247   3.610   7.261   3.292
 5430TIP3    H216248   3.607   7.126   3.360
 5431TIP3   OH216249   1.367   6.987   4.194
 5431TIP3    H116250   1.341   6.985   4.102
 5431TIP3    H216251   1.454   7.027   4.194
 5432TIP3   OH216252   7.455   3.495   4.842
 5432TIP3    H116253   7.462   3.572   4.898
 5432TIP3    H216254   7.478   3.422   4.899
 5433TIP3   OH216255   7.058   4.845   3.541
 5433TIP3    H116256   6.983   4.803   3.499
 5433TIP3    H216257   7.128   4.780   3.537
 5434TIP3   OH216258   0.517   5.762   4.243
 5434TIP3    H116259   0.609   5.763   4.217
 5434TIP3    H216260   0.513   5.700   4.315
 5435TIP3   OH216261   4.456   5.142   5.152
 5435TIP3    H116262   4.498   5.135   5.237
 5435TIP3    H216263   4.511   5.202   5.102
 5436TIP3   OH216264   3.936   4.974   1.254
 5436TIP3    H116265   4.014   4.940   1.210
 5436TIP3    H216266   3.876   4.997   1.182
 5437TIP3   OH216267   0.763   4.275   1.556
 5437TIP3    H116268   0.684   4.249   1.602
 5437TIP3    H216269   0.746   4.365   1.528
 5438TIP3   OH216270   7.701   6.181   5.989
 5438TIP3    H116271   7.620   6.137   6.015
 5438TIP3    H216272   7.686   6.273   6.009
 5439TIP3   OH216273   1.726   4.427   5.988
 5439TIP3    H116274   1.798   4.437   6.049
 5439TIP3    H216275   1.733   4.502   5.929
 5440TIP3   OH216276   2.069   5.085   3.028
 5440TIP3    H116277   2.068   5.057   3.120
 5440TIP3    H216278   2.157   5.120   3.014
 5441TIP3   OH216279   2.097   3.853   6.525
 5441TIP3    H116280   2.131   3.788   6.585
 5441TIP3    H216281   2.166   3.865   6.460
 5442TIP3   OH216282   6.936   0.420   1.321
 5442TIP3    H116283   6.853   0.435   1.365
 5442TIP3    H216284   7.000   0.470   1.372
 5443TIP3   OH216285   8.193   4.022   4.475
 5443TIP3    H116286   8.209   4.019   4.381
 5443TIP3    H216287   8.100   4.043   4.484
 5444TIP3   OH216288   0.955   4.585   5.142
 5444TIP3    H116289   1.031   4.583   5.200
 5444TIP3    H216290   0.970   4.513   5.081
 5445TIP3   OH216291   0.676   5.328   2.725
 5445TIP3    H116292   0.738   5.359   2.659
 5445TIP3    H216293   0.594   5.372   2.704
 5446TIP3   OH216294   1.593   0.748   0.622
 5446TIP3    H116295   1.512   0.697   0.618
 5446TIP3    H216296   1.577   0.823   0.565
 5447TIP3   OH216297   4.976   4.046   5.275
 5447TIP3    H116298   5.059   4.048   5.322
 5447TIP3    H216299   4.951   3.953   5.273
 5448TIP3   OH216300   1.293   3.273   5.818
 5448TIP3    H116301   1.361   3.310   5.874
 5448TIP3    H216302   1.212   3.285   5.867
 5449TIP3   OH216303   2.156   6.552   6.775
 5449TIP3    H116304   2.117   6.640   6.780
 5449TIP3    H216305   2.221   6.559   6.705
 5450TIP3   OH216306   7.800   3.549   4.857
 5450TIP3    H116307   7.731   3.578   4.916
 5450TIP3    H216308   7.771   3.576   4.770
 5451TIP3   OH216309   6.101   4.281   5.887
 5451TIP3    H116310   6.155   4.359   5.868
 5451TIP3    H216311   6.023   4.293   5.833
 5452TIP3   OH216312   1.152   2.260   4.898
 5452TIP3    H116313   1.181   2.248   4.808
 5452TIP3    H216314   1.102   2.180   4.918
 5453TIP3   OH216315   1.518   1.181   2.300
 5453TIP3    H116316   1.529   1.088   2.323
 5453TIP3    H216317   1.438   1.208   2.345
 5454TIP3   OH216318   6.677   6.356   6.679
 5454TIP3    H116319   6.656   6.312   6.762
 5454TIP3    H216320   6.594   6.391   6.648
 5455TIP3   OH216321   7.949   1.971   3.295
 5455TIP3    H116322   7.935   1.965   3.390
 5455TIP3    H216323   7.996   1.891   3.273
 5456TIP3   OH216324   8.115   1.741   4.423
 5456TIP3    H116325   8.192   1.684   4.418
 5456TIP3    H216326   8.150   1.827   4.447
 5457TIP3   OH216327   0.084   0.583   3.937
 5457TIP3    H116328   0.154   0.618   3.993
 5457TIP3    H216329   0.006   0.587   3.992
 5458TIP3   OH216330   4.090   5.496   5.964
 5458TIP3    H116331   4.053   5.408   5.959
 5458TIP3    H216332   4.054   5.533   6.044
 5459TIP3   OH216333   4.784   0.043   0.169
 5459TIP3    H116334   4.812   0.097   0.096
 5459TIP3    H216335   4.842  -0.033   0.166
 5460TIP3   OH216336   2.246   6.431   4.657
 5460TIP3    H116337   2.231   6.526   4.659
 5460TIP3    H216338   2.298   6.417   4.578
 5461TIP3   OH216339   1.948   4.167   1.525
 5461TIP3    H116340   1.904   4.114   1.459
 5461TIP3    H216341   1.886   4.238   1.543
 5462TIP3   OH216342   3.229   4.597   4.332
 5462TIP3    H116343   3.280   4.523   4.365
 5462TIP3    H216344   3.291   4.646   4.278
 5463TIP3   OH216345   4.946   5.321   2.585
 5463TIP3    H116346   4.923   5.279   2.502
 5463TIP3    H216347   4.863   5.326   2.634
 5464TIP3   OH216348   0.590   3.209   1.654
 5464TIP3    H116349   0.509   3.216   1.603
 5464TIP3    H216350   0.658   3.241   1.596
 5465TIP3   OH216351   0.224   0.238   3.936
 5465TIP3    H116352   0.191   0.158   3.895
 5465TIP3    H216353   0.165   0.307   3.904
 5466TIP3   OH216354   7.000   4.929   3.796
 5466TIP3    H116355   7.009   4.908   3.703
 5466TIP3    H216356   6.906   4.925   3.813
 5467TIP3   OH216357   7.107   6.472   1.223
 5467TIP3    H116358   7.026   6.442   1.265
 5467TIP3    H216359   7.177   6.430   1.273
 5468TIP3   OH216360   1.746   0.427   3.988
 5468TIP3    H116361   1.671   0.448   4.045
 5468TIP3    H216362   1.757   0.332   3.999
 5469TIP3   OH216363   3.570   1.787   5.063
 5469TIP3    H116364   3.597   1.795   5.154
 5469TIP3    H216365   3.607   1.703   5.034
 5470TIP3   OH216366   7.868   3.693   1.585
 5470TIP3    H116367   7.797   3.741   1.542
 5470TIP3    H216368   7.868   3.726   1.675
 5471TIP3   OH216369   2.206   1.251   1.977
 5471TIP3    H116370   2.271   1.181   1.978
 5471TIP3    H216371   2.134   1.216   1.924
 5472TIP3   OH216372   4.185   4.214   0.682
 5472TIP3    H116373   4.175   4.305   0.652
 5472TIP3    H216374   4.157   4.217   0.774
 5473TIP3   OH216375   0.235   5.344   6.090
 5473TIP3    H116376   0.169   5.340   6.020
 5473TIP3    H216377   0.238   5.437   6.113
 5474TIP3   OH216378   6.019   1.212   2.359
 5474TIP3    H116379   6.036   1.281   2.295
 5474TIP3    H216380   5.946   1.163   2.322
 5475TIP3   OH216381   4.741   5.483   5.344
 5475TIP3    H116382   4.817   5.438   5.307
 5475TIP3    H216383   4.776   5.564   5.381
 5476TIP3   OH216384   3.970   1.682   5.112
 5476TIP3    H116385   4.014   1.608   5.153
 5476TIP3    H216386   3.878   1.657   5.109
 5477TIP3   OH216387   3.291   6.031   2.322
 5477TIP3    H116388   3.325   6.020   2.410
 5477TIP3    H216389   3.196   6.024   2.332
 5478TIP3   OH216390   5.800   6.419   4.482
 5478TIP3    H116391   5.783   6.471   4.403
 5478TIP3    H216392   5.891   6.389   4.471
 5479TIP3   OH216393   3.282   2.394   1.852
 5479TIP3    H116394   3.232   2.377   1.772
 5479TIP3    H216395   3.372   2.369   1.829
 5480TIP3   OH216396   2.129   3.117   2.286
 5480TIP3    H116397   2.180   3.154   2.214
 5480TIP3    H216398   2.038   3.130   2.260
 5481TIP3   OH216399   1.068   0.230   0.767
 5481TIP3    H116400   1.035   0.276   0.689
 5481TIP3    H216401   1.082   0.140   0.737
 5482TIP3   OH216402   3.820   3.648   5.369
 5482TIP3    H116403   3.758   3.683   5.432
 5482TIP3    H216404   3.765   3.615   5.298
 5483TIP3   OH216405   2.369   7.312   1.623
 5483TIP3    H116406   2.309   7.355   1.684
 5483TIP3    H216407   2.379   7.375   1.551
 5484TIP3   OH216408   4.778   1.201   5.763
 5484TIP3    H116409   4.822   1.257   5.827
 5484TIP3    H216410   4.699   1.171   5.809
 5485TIP3   OH216411   1.951   5.346   5.561
 5485TIP3    H116412   1.999   5.404   5.620
 5485TIP3    H216413   2.013   5.275   5.542
 5486TIP3   OH216414   2.343   3.950   6.767
 5486TIP3    H116415   2.380   3.904   6.691
 5486TIP3    H216416   2.314   3.880   6.826
 5487TIP3   OH216417   2.166   0.844   5.986
 5487TIP3    H116418   2.250   0.862   5.943
 5487TIP3    H216419   2.189   0.832   6.078
 5488TIP3   OH216420   0.715   5.888   5.368
 5488TIP3    H116421   0.663   5.812   5.396
 5488TIP3    H216422   0.792   5.887   5.425
 5489TIP3   OH216423   4.223   0.569   5.564
 5489TIP3    H116424   4.222   0.481   5.602
 5489TIP3    H216425   4.313   0.600   5.579
 5490TIP3   OH216426   0.720   5.533   0.173
 5490TIP3    H116427   0.789   5.554   0.236
 5490TIP3    H216428   0.690   5.446   0.198
 5491TIP3   OH216429   0.639   6.342   1.382
 5491TIP3    H116430   0.653   6.289   1.461
 5491TIP3    H216431   0.727   6.363   1.351
 5492TIP3   OH216432   1.309   2.180   6.268
 5492TIP3    H116433   1.385   2.179   6.210
 5492TIP3    H216434   1.278   2.089   6.268
 5493TIP3   OH216435   6.603   3.013   4.514
 5493TIP3    H116436   6.575   2.922   4.509
 5493TIP3    H216437   6.676   3.013   4.575
 5494TIP3   OH216438   7.250   7.573   0.738
 5494TIP3    H116439   7.263   7.622   0.657
 5494TIP3    H216440   7.176   7.515   0.719
 5495TIP3   OH216441   2.825   5.516   1.657
 5495TIP3    H116442   2.801   5.542   1.746
 5495TIP3    H216443   2.796   5.425   1.650
 5496TIP3   OH216444   8.163   0.626   0.956
 5496TIP3    H116445   8.172   0.720   0.940
 5496TIP3    H216446   8.211   0.585   0.884
 5497TIP3   OH216447   2.126   7.343   6.091
 5497TIP3    H116448   2.086   7.363   6.176
 5497TIP3    H216449   2.162   7.255   6.102
 5498TIP3   OH216450   2.189   5.707   3.876
 5498TIP3    H116451   2.103   5.672   3.852
 5498TIP3    H216452   2.248   5.677   3.807
 5499TIP3   OH216453   8.039   0.481   4.284
 5499TIP3    H116454   7.984   0.511   4.357
 5499TIP3    H216455   7.978   0.442   4.222
 5500TIP3   OH216456   8.127   2.856   4.982
 5500TIP3    H116457   8.122   2.946   5.016
 5500TIP3    H216458   8.211   2.853   4.936
 5501TIP3   OH216459   4.172   7.319   6.466
 5501TIP3    H116460   4.123   7.291   6.389
 5501TIP3    H216461   4.130   7.401   6.493
 5502TIP3   OH216462   3.619   2.018   0.489
 5502TIP3    H116463   3.641   2.111   0.481
 5502TIP3    H216464   3.702   1.973   0.479
 5503TIP3   OH216465   3.569   1.309   5.561
 5503TIP3    H116466   3.603   1.361   5.489
 5503TIP3    H216467   3.477   1.336   5.570
 5504TIP3   OH216468   4.573   6.671   2.503
 5504TIP3    H116469   4.576   6.699   2.412
 5504TIP3    H216470   4.656   6.700   2.541
 5505TIP3   OH216471   2.112   1.776   1.007
 5505TIP3    H116472   2.168   1.808   1.077
 5505TIP3    H216473   2.027   1.762   1.049
 5506TIP3   OH216474   1.622   2.993   3.106
 5506TIP3    H116475   1.676   2.978   3.028
 5506TIP3    H216476   1.645   3.081   3.135
 5507TIP3   OH216477   0.726   1.151   1.281
 5507TIP3    H116478   0.677   1.148   1.199
 5507TIP3    H216479   0.812   1.115   1.259
 5508TIP3   OH216480   7.207   5.323   5.993
 5508TIP3    H116481   7.135   5.305   6.053
 5508TIP3    H216482   7.207   5.418   5.982
 5509TIP3   OH216483   1.097   5.045   1.309
 5509TIP3    H116484   1.182   5.088   1.320
 5509TIP3    H216485   1.060   5.087   1.231
 5510TIP3   OH216486   6.993   5.800   1.793
 5510TIP3    H116487   6.959   5.753   1.717
 5510TIP3    H216488   6.934   5.775   1.864
 5511TIP3   OH216489   6.698   3.155   5.876
 5511TIP3    H116490   6.760   3.220   5.909
 5511TIP3    H216491   6.617   3.204   5.864
 5512TIP3   OH216492   3.782   0.171   4.640
 5512TIP3    H116493   3.756   0.226   4.567
 5512TIP3    H216494   3.709   0.175   4.701
 5513TIP3   OH216495   2.550   6.082   4.651
 5513TIP3    H116496   2.589   6.016   4.594
 5513TIP3    H216497   2.593   6.164   4.626
 5514TIP3   OH216498   2.180   4.384   4.568
 5514TIP3    H116499   2.147   4.396   4.479
 5514TIP3    H216500   2.198   4.472   4.600
 5515TIP3   OH216501   4.351   4.341   2.300
 5515TIP3    H116502   4.421   4.318   2.361
 5515TIP3    H216503   4.397   4.375   2.223
 5516TIP3   OH216504   2.562   5.171   6.485
 5516TIP3    H116505   2.473   5.204   6.495
 5516TIP3    H216506   2.576   5.167   6.390
 5517TIP3   OH216507   4.941   0.948   5.004
 5517TIP3    H116508   4.955   0.867   4.955
 5517TIP3    H216509   4.980   0.930   5.090
 5518TIP3   OH216510   3.907   6.265   0.833
 5518TIP3    H116511   3.876   6.206   0.902
 5518TIP3    H216512   4.000   6.275   0.851
 5519TIP3   OH216513   0.018   5.202   0.633
 5519TIP3    H116514   0.055   5.130   0.685
 5519TIP3    H216515   0.052   5.187   0.545
 5520TIP3   OH216516   6.319   3.512   6.716
 5520TIP3    H116517   6.306   3.468   6.632
 5520TIP3    H216518   6.281   3.600   6.703
 5521TIP3   OH216519   1.937   5.174   1.439
 5521TIP3    H116520   1.884   5.102   1.407
 5521TIP3    H216521   1.957   5.151   1.530
 5522TIP3   OH216522   8.190   0.932   0.474
 5522TIP3    H116523   8.148   1.017   0.459
 5522TIP3    H216524   8.117   0.870   0.478
 5523TIP3   OH216525   6.817   2.783   0.028
 5523TIP3    H116526   6.911   2.763   0.017
 5523TIP3    H216527   6.810   2.821   0.115
 5524TIP3   OH216528   0.818   2.510   4.764
 5524TIP3    H116529   0.892   2.455   4.737
 5524TIP3    H216530   0.741   2.453   4.755
 5525TIP3   OH216531   2.696   0.461   6.694
 5525TIP3    H116532   2.619   0.406   6.684
 5525TIP3    H216533   2.717   0.456   6.787
 5526TIP3   OH216534   0.940   6.151   2.449
 5526TIP3    H116535   0.851   6.139   2.416
 5526TIP3    H216536   0.942   6.102   2.531
 5527TIP3   OH216537   1.561   4.824   5.118
 5527TIP3    H116538   1.569   4.794   5.208
 5527TIP3    H216539   1.565   4.744   5.065
 5528TIP3   OH216540   4.106   4.391   2.785
 5528TIP3    H116541   4.131   4.473   2.828
 5528TIP3    H216542   4.120   4.407   2.692
 5529TIP3   OH216543   1.369  -0.014   0.068
 5529TIP3    H116544   1.350  -0.046  -0.020
 5529TIP3    H216545   1.419   0.066   0.055
 5530TIP3   OH216546   2.833   3.438   5.269
 5530TIP3    H116547   2.869   3.359   5.309
 5530TIP3    H216548   2.777   3.405   5.198
 5531TIP3   OH216549   0.020   3.517   2.051
 5531TIP3    H116550  -0.035   3.594   2.034
 5531TIP3    H216551   0.057   3.495   1.966
 5532TIP3   OH216552   4.047   3.941   2.826
 5532TIP3    H116553   3.996   3.893   2.891
 5532TIP3    H216554   4.131   3.957   2.869
 5533TIP3   OH216555   8.064   5.200   2.208
 5533TIP3    H116556   8.017   5.120   2.186
 5533TIP3    H216557   8.154   5.185   2.180
 5534TIP3   OH216558   8.043   3.413   0.051
 5534TIP3    H116559   7.965   3.420  -0.003
 5534TIP3    H216560   8.051   3.498   0.094
 5535TIP3   OH216561   7.100   0.133   0.419
 5535TIP3    H116562   7.012   0.113   0.451
 5535TIP3    H216563   7.087   0.185   0.340
 5536TIP3   OH216564   0.272   6.464   1.023
 5536TIP3    H116565   0.247   6.399   0.957
 5536TIP3    H216566   0.192   6.480   1.073
 5537TIP3   OH216567   0.209   7.234   4.719
 5537TIP3    H116568   0.293   7.270   4.688
 5537TIP3    H216569   0.161   7.212   4.639
 5538TIP3   OH216570   5.415   2.092   5.758
 5538TIP3    H116571   5.416   2.093   5.662
 5538TIP3    H216572   5.337   2.142   5.782
 5539TIP3   OH216573   7.116   1.698   5.082
 5539TIP3    H116574   7.166   1.741   5.013
 5539TIP3    H216575   7.041   1.756   5.096
 5540TIP3   OH216576   0.903   2.041   3.155
 5540TIP3    H116577   0.903   2.024   3.250
 5540TIP3    H216578   0.818   2.009   3.125
 5541TIP3   OH216579   1.242   7.271   0.367
 5541TIP3    H116580   1.219   7.205   0.432
 5541TIP3    H216581   1.328   7.244   0.335
 5542TIP3   OH216582   4.894   6.888   0.614
 5542TIP3    H116583   4.804   6.920   0.609
 5542TIP3    H216584   4.886   6.794   0.600
 5543TIP3   OH216585   6.259   2.143   3.952
 5543TIP3    H116586   6.167   2.144   3.926
 5543TIP3    H216587   6.292   2.229   3.927
 5544TIP3   OH216588   4.004   0.837   0.973
 5544TIP3    H116589   3.993   0.932   0.975
 5544TIP3    H216590   3.987   0.812   0.882
 5545TIP3   OH216591   3.480   3.486   1.897
 5545TIP3    H116592   3.496   3.534   1.816
 5545TIP3    H216593   3.389   3.505   1.919
 5546TIP3   OH216594   1.358   5.957   1.278
 5546TIP3    H116595   1.417   5.992   1.345
 5546TIP3    H216596   1.296   5.903   1.327
 5547TIP3   OH216597   6.396   5.981   0.202
 5547TIP3    H116598   6.485   6.014   0.185
 5547TIP3    H216599   6.406   5.886   0.203
 5548TIP3   OH216600   4.245   6.962   6.537
 5548TIP3    H116601   4.245   6.973   6.442
 5548TIP3    H216602   4.330   6.923   6.557
 5549TIP3   OH216603   3.848   1.264   4.353
 5549TIP3    H116604   3.809   1.299   4.433
 5549TIP3    H216605   3.872   1.341   4.302
 5550TIP3   OH216606   3.929   0.244   0.809
 5550TIP3    H116607   3.905   0.180   0.875
 5550TIP3    H216608   3.851   0.298   0.798
 5551TIP3   OH216609   6.909   5.297   1.161
 5551TIP3    H116610   6.884   5.356   1.090
 5551TIP3    H216611   6.884   5.210   1.130
 5552TIP3   OH216612   5.193   6.147   5.845
 5552TIP3    H116613   5.269   6.135   5.787
 5552TIP3    H216614   5.154   6.229   5.816
 5553TIP3   OH216615   0.919   6.636   1.772
 5553TIP3    H116616   0.845   6.629   1.712
 5553TIP3    H216617   0.925   6.730   1.791
 5554TIP3   OH216618   2.401   1.821   5.095
 5554TIP3    H116619   2.419   1.888   5.161
 5554TIP3    H216620   2.488   1.794   5.066
 5555TIP3   OH216621   2.083   3.336   4.739
 5555TIP3    H116622   2.162   3.301   4.780
 5555TIP3    H216623   2.086   3.304   4.649
 5556TIP3   OH216624   4.053   3.578   1.073
 5556TIP3    H116625   4.059   3.490   1.036
 5556TIP3    H216626   4.061   3.637   0.998
 5557TIP3   OH216627   3.096   5.091   0.496
 5557TIP3    H116628   3.040   5.016   0.518
 5557TIP3    H216629   3.042   5.167   0.518
 5558TIP3   OH216630   5.772   1.912   3.897
 5558TIP3    H116631   5.710   1.862   3.950
 5558TIP3    H216632   5.739   2.002   3.899
 5559TIP3   OH216633   4.723   5.582   6.145
 5559TIP3    H116634   4.672   5.510   6.107
 5559TIP3    H216635   4.814   5.555   6.136
 5560TIP3   OH216636   5.150   4.827   4.983
 5560TIP3    H116637   5.139   4.756   4.920
 5560TIP3    H216638   5.158   4.782   5.068
 5561TIP3   OH216639   2.484   7.745   0.738
 5561TIP3    H116640   2.572   7.775   0.759
 5561TIP3    H216641   2.498   7.674   0.676
 5562TIP3   OH216642   0.102   1.368   3.766
 5562TIP3    H116643   0.086   1.366   3.671
 5562TIP3    H216644   0.021   1.334   3.804
 5563TIP3   OH216645   4.189   7.575   3.376
 5563TIP3    H116646   4.208   7.630   3.451
 5563TIP3    H216647   4.095   7.558   3.381
 5564TIP3   OH216648   7.820   1.161   6.720
 5564TIP3    H116649   7.815   1.235   6.781
 5564TIP3    H216650   7.812   1.201   6.633
 5565TIP3   OH216651   8.042   4.958   1.953
 5565TIP3    H116652   8.085   4.900   2.015
 5565TIP3    H216653   8.086   4.941   1.870
 5566TIP3   OH216654   2.723   4.670   4.940
 5566TIP3    H116655   2.701   4.763   4.941
 5566TIP3    H216656   2.729   4.646   5.033
 5567TIP3   OH216657   8.258   5.716   1.355
 5567TIP3    H116658   8.190   5.756   1.410
 5567TIP3    H216659   8.239   5.749   1.267
 5568TIP3   OH216660   0.274   1.136   3.678
 5568TIP3    H116661   0.242   1.220   3.712
 5568TIP3    H216662   0.195   1.082   3.672
 5569TIP3   OH216663   1.624   0.799   4.575
 5569TIP3    H116664   1.574   0.742   4.634
 5569TIP3    H216665   1.567   0.874   4.561
 5570TIP3   OH216666   2.441   0.917   4.377
 5570TIP3    H116667   2.358   0.955   4.348
 5570TIP3    H216668   2.448   0.943   4.469
 5571TIP3   OH216669   7.224   6.504   5.862
 5571TIP3    H116670   7.152   6.553   5.822
 5571TIP3    H216671   7.211   6.514   5.957
 5572TIP3   OH216672   1.582   4.492   5.491
 5572TIP3    H116673   1.507   4.503   5.549
 5572TIP3    H216674   1.654   4.466   5.548
 5573TIP3   OH216675   4.454   4.267   0.286
 5573TIP3    H116676   4.383   4.266   0.351
 5573TIP3    H216677   4.508   4.191   0.309
 5574TIP3   OH216678   4.299   2.106   4.324
 5574TIP3    H116679   4.300   2.019   4.365
 5574TIP3    H216680   4.227   2.152   4.367
 5575TIP3   OH216681   3.018   5.329   5.011
 5575TIP3    H116682   2.987   5.365   5.094
 5575TIP3    H216683   3.002   5.235   5.019
 5576TIP3   OH216684   1.282   1.956   0.884
 5576TIP3    H116685   1.276   1.934   0.791
 5576TIP3    H216686   1.221   1.896   0.927
 5577TIP3   OH216687   1.981   4.213   6.644
 5577TIP3    H116688   1.894   4.245   6.619
 5577TIP3    H216689   2.008   4.270   6.716
 5578TIP3   OH216690   7.593   2.683   3.223
 5578TIP3    H116691   7.608   2.738   3.146
 5578TIP3    H216692   7.611   2.740   3.297
 5579TIP3   OH216693   4.355   1.992   3.049
 5579TIP3    H116694   4.369   1.901   3.074
 5579TIP3    H216695   4.429   2.039   3.087
 5580TIP3   OH216696   1.554   2.830   4.699
 5580TIP3    H116697   1.511   2.744   4.701
 5580TIP3    H216698   1.630   2.819   4.756
 5581TIP3   OH216699   2.468   1.870   1.345
 5581TIP3    H116700   2.519   1.948   1.323
 5581TIP3    H216701   2.510   1.835   1.423
 5582TIP3   OH216702   6.128   1.209   1.395
 5582TIP3    H116703   6.035   1.224   1.406
 5582TIP3    H216704   6.158   1.174   1.479
 5583TIP3   OH216705   4.879   6.899   6.464
 5583TIP3    H116706   4.794   6.865   6.436
 5583TIP3    H216707   4.930   6.905   6.383
 5584TIP3   OH216708   2.577   0.666   4.865
 5584TIP3    H116709   2.503   0.617   4.901
 5584TIP3    H216710   2.561   0.667   4.770
 5585TIP3   OH216711   4.171   1.378   2.754
 5585TIP3    H116712   4.124   1.298   2.775
 5585TIP3    H216713   4.239   1.350   2.693
 5586TIP3   OH216714   7.998   6.323   0.423
 5586TIP3    H116715   8.090   6.299   0.423
 5586TIP3    H216716   7.972   6.322   0.515
 5587TIP3   OH216717   6.028   0.652   5.184
 5587TIP3    H116718   6.087   0.595   5.135
 5587TIP3    H216719   6.067   0.739   5.176
 5588TIP3   OH216720   0.396   0.739   3.861
 5588TIP3    H116721   0.394   0.684   3.940
 5588TIP3    H216722   0.484   0.775   3.860
 5589TIP3   OH216723   0.544   6.878   5.456
 5589TIP3    H116724   0.470   6.936   5.475
 5589TIP3    H216725   0.605   6.893   5.529
 5590TIP3   OH216726   1.916   1.311   6.068
 5590TIP3    H116727   1.822   1.314   6.084
 5590TIP3    H216728   1.927   1.345   5.979
 5591TIP3   OH216729   5.658   3.962   0.141
 5591TIP3    H116730   5.612   3.954   0.057
 5591TIP3    H216731   5.619   4.038   0.183
 5592TIP3   OH216732   3.388   4.841   1.285
 5592TIP3    H116733   3.325   4.769   1.290
 5592TIP3    H216734   3.455   4.810   1.224
 5593TIP3   OH216735   2.518   6.922   5.214
 5593TIP3    H116736   2.516   6.945   5.121
 5593TIP3    H216737   2.610   6.930   5.239
 5594TIP3   OH216738   6.285   1.486   3.904
 5594TIP3    H116739   6.223   1.517   3.970
 5594TIP3    H216740   6.266   1.393   3.895
 5595TIP3   OH216741   0.401   1.790   0.626
 5595TIP3    H116742   0.384   1.873   0.582
 5595TIP3    H216743   0.393   1.809   0.719
 5596TIP3   OH216744   6.209   4.601   5.014
 5596TIP3    H116745   6.291   4.566   4.981
 5596TIP3    H216746   6.207   4.692   4.984
 5597TIP3   OH216747   1.979   7.722   3.651
 5597TIP3    H116748   2.047   7.662   3.621
 5597TIP3    H216749   2.024   7.781   3.712
 5598TIP3   OH216750   2.252   5.242   5.833
 5598TIP3    H116751   2.230   5.301   5.905
 5598TIP3    H216752   2.250   5.155   5.873
 5599TIP3   OH216753   0.143   6.576   2.754
 5599TIP3    H116754   0.091   6.582   2.674
 5599TIP3    H216755   0.149   6.482   2.772
 5600TIP3   OH216756   3.216   4.510   2.626
 5600TIP3    H116757   3.164   4.448   2.576
 5600TIP3    H216758   3.156   4.584   2.641
 5601TIP3   OH216759   1.000   7.105   0.228
 5601TIP3    H116760   0.994   7.193   0.191
 5601TIP3    H216761   0.971   7.115   0.319
 5602TIP3   OH216762   2.504   1.625   2.670
 5602TIP3    H116763   2.528   1.547   2.620
 5602TIP3    H216764   2.428   1.661   2.624
 5603TIP3   OH216765   4.299   1.899   2.090
 5603TIP3    H116766   4.233   1.929   2.153
 5603TIP3    H216767   4.262   1.922   2.005
 5604TIP3   OH216768   4.163   0.027   6.389
 5604TIP3    H116769   4.086   0.053   6.339
 5604TIP3    H216770   4.130  -0.041   6.448
 5605TIP3   OH216771   1.253   7.498   4.780
 5605TIP3    H116772   1.272   7.412   4.741
 5605TIP3    H216773   1.219   7.478   4.867
 5606TIP3   OH216774   4.925   5.236   2.901
 5606TIP3    H116775   4.833   5.210   2.897
 5606TIP3    H216776   4.959   5.192   2.978
 5607TIP3   OH216777   0.609   0.321   0.518
 5607TIP3    H116778   0.520   0.296   0.493
 5607TIP3    H216779   0.599   0.361   0.604
 5608TIP3   OH216780   1.133   6.206   5.078
 5608TIP3    H116781   1.190   6.278   5.050
 5608TIP3    H216782   1.139   6.206   5.174
 5609TIP3   OH216783   8.011   4.264   4.707
 5609TIP3    H116784   8.042   4.278   4.617
 5609TIP3    H216785   8.051   4.335   4.757
 5610TIP3   OH216786   6.573   4.657   2.916
 5610TIP3    H116787   6.530   4.697   2.992
 5610TIP3    H216788   6.647   4.609   2.953
 5611TIP3   OH216789   3.139   6.626   4.395
 5611TIP3    H116790   3.113   6.680   4.469
 5611TIP3    H216791   3.064   6.631   4.335
 5612TIP3   OH216792   1.309   5.575   3.130
 5612TIP3    H116793   1.356   5.598   3.210
 5612TIP3    H216794   1.253   5.501   3.155
 5613TIP3   OH216795   6.929   3.015   5.557
 5613TIP3    H116796   6.885   3.091   5.595
 5613TIP3    H216797   6.859   2.950   5.547
 5614TIP3   OH216798   6.879   1.253   3.581
 5614TIP3    H116799   6.911   1.340   3.559
 5614TIP3    H216800   6.955   1.196   3.572
 5615TIP3   OH216801   0.401   1.930   3.976
 5615TIP3    H116802   0.491   1.924   3.944
 5615TIP3    H216803   0.349   1.882   3.912
 5616TIP3   OH216804   0.639   5.954   3.868
 5616TIP3    H116805   0.594   6.012   3.808
 5616TIP3    H216806   0.598   5.970   3.953
 5617TIP3   OH216807   3.526   6.315   4.912
 5617TIP3    H116808   3.581   6.259   4.967
 5617TIP3    H216809   3.586   6.357   4.850
 5618TIP3   OH216810   7.705   5.022   2.992
 5618TIP3    H116811   7.666   5.016   3.079
 5618TIP3    H216812   7.694   5.114   2.968
 5619TIP3   OH216813   5.807   0.954   2.974
 5619TIP3    H116814   5.832   0.918   2.889
 5619TIP3    H216815   5.789   1.046   2.957
 5620TIP3   OH216816   1.802   6.589   4.806
 5620TIP3    H116817   1.737   6.643   4.850
 5620TIP3    H216818   1.779   6.499   4.830
 5621TIP3   OH216819   2.853   5.939   4.176
 5621TIP3    H116820   2.821   5.901   4.094
 5621TIP3    H216821   2.824   6.030   4.173
 5622TIP3   OH216822   3.488   2.945   0.385
 5622TIP3    H116823   3.415   2.933   0.325
 5622TIP3    H216824   3.509   2.857   0.415
 5623TIP3   OH216825   1.440   0.851   1.612
 5623TIP3    H116826   1.523   0.883   1.576
 5623TIP3    H216827   1.373   0.906   1.571
 5624TIP3   OH216828   2.718   6.823   0.283
 5624TIP3    H116829   2.752   6.884   0.349
 5624TIP3    H216830   2.796   6.780   0.248
 5625TIP3   OH216831   6.084   2.786   1.342
 5625TIP3    H116832   6.083   2.724   1.270
 5625TIP3    H216833   6.118   2.737   1.417
 5626TIP3   OH216834   0.254   3.459   3.864
 5626TIP3    H116835   0.265   3.384   3.805
 5626TIP3    H216836   0.225   3.530   3.806
 5627TIP3   OH216837   7.737   5.246   3.623
 5627TIP3    H116838   7.792   5.233   3.701
 5627TIP3    H216839   7.754   5.337   3.597
 5628TIP3   OH216840   4.254   1.457   0.845
 5628TIP3    H116841   4.242   1.375   0.893
 5628TIP3    H216842   4.166   1.481   0.817
 5629TIP3   OH216843   1.908   6.695   2.837
 5629TIP3    H116844   1.853   6.772   2.822
 5629TIP3    H216845   1.917   6.690   2.932
 5630TIP3   OH216846   2.688   5.913   5.765
 5630TIP3    H116847   2.706   5.842   5.827
 5630TIP3    H216848   2.627   5.875   5.702
 5631TIP3   OH216849   5.145   0.514   0.136
 5631TIP3    H116850   5.154   0.599   0.179
 5631TIP3    H216851   5.053   0.492   0.144
 5632TIP3   OH216852   3.442   1.686   3.351
 5632TIP3    H116853   3.443   1.773   3.390
 5632TIP3    H216854   3.402   1.698   3.265
 5633TIP3   OH216855   1.420   5.635   3.581
 5633TIP3    H116856   1.393   5.651   3.491
 5633TIP3    H216857   1.417   5.540   3.591
 5634TIP3   OH216858   1.450   5.417   6.353
 5634TIP3    H116859   1.445   5.503   6.394
 5634TIP3    H216860   1.457   5.356   6.426
 5635TIP3   OH216861   7.079   6.365   0.466
 5635TIP3    H116862   7.154   6.420   0.489
 5635TIP3    H216863   7.033   6.414   0.399
 5636TIP3   OH216864   4.046   1.583   4.594
 5636TIP3    H116865   3.953   1.563   4.599
 5636TIP3    H216866   4.076   1.585   4.685
 5637TIP3   OH216867   4.518   4.521   5.737
 5637TIP3    H116868   4.513   4.430   5.708
 5637TIP3    H216869   4.593   4.557   5.690
 5638TIP3   OH216870   7.467   2.887   5.903
 5638TIP3    H116871   7.461   2.838   5.821
 5638TIP3    H216872   7.550   2.934   5.898
 5639TIP3   OH216873   1.655   0.232   0.929
 5639TIP3    H116874   1.729   0.211   0.873
 5639TIP3    H216875   1.582   0.245   0.869
 5640TIP3   OH216876   0.522   1.384   4.839
 5640TIP3    H116877   0.568   1.461   4.805
 5640TIP3    H216878   0.473   1.418   4.915
 5641TIP3   OH216879   5.403   5.669   1.266
 5641TIP3    H116880   5.472   5.658   1.201
 5641TIP3    H216881   5.371   5.758   1.253
 5642TIP3   OH216882   1.205   1.240   4.031
 5642TIP3    H116883   1.137   1.300   4.001
 5642TIP3    H216884   1.253   1.290   4.097
 5643TIP3   OH216885   2.316   2.307   4.628
 5643TIP3    H116886   2.397   2.257   4.620
 5643TIP3    H216887   2.315   2.338   4.718
 5644TIP3   OH216888   5.620   2.690   4.173
 5644TIP3    H116889   5.567   2.665   4.098
 5644TIP3    H216890   5.578   2.768   4.208
 5645TIP3   OH216891   1.795   5.519   1.752
 5645TIP3    H116892   1.771   5.438   1.797
 5645TIP3    H216893   1.744   5.587   1.795
 5646TIP3   OH216894   5.097   1.392   2.667
 5646TIP3    H116895   5.016   1.372   2.620
 5646TIP3    H216896   5.074   1.466   2.723
 5647TIP3   OH216897   0.509   2.590   5.856
 5647TIP3    H116898   0.568   2.571   5.784
 5647TIP3    H216899   0.526   2.682   5.877
 5648TIP3   OH216900   4.292   6.064   4.906
 5648TIP3    H116901   4.204   6.074   4.869
 5648TIP3    H216902   4.317   5.975   4.884
 5649TIP3   OH216903   3.573   6.126   1.730
 5649TIP3    H116904   3.606   6.106   1.818
 5649TIP3    H216905   3.628   6.075   1.671
 5650TIP3   OH216906   8.210   6.719   0.390
 5650TIP3    H116907   8.121   6.746   0.367
 5650TIP3    H216908   8.253   6.703   0.306
 5651TIP3   OH216909   2.487   2.059   0.415
 5651TIP3    H116910   2.554   2.042   0.482
 5651TIP3    H216911   2.456   1.972   0.391
 5652TIP3   OH216912   0.554   3.713   2.667
 5652TIP3    H116913   0.600   3.642   2.712
 5652TIP3    H216914   0.567   3.790   2.723
 5653TIP3   OH216915   0.179   2.081   5.188
 5653TIP3    H116916   0.254   2.141   5.184
 5653TIP3    H216917   0.103   2.138   5.201
 5654TIP3   OH216918   1.230   2.512   2.814
 5654TIP3    H116919   1.217   2.595   2.769
 5654TIP3    H216920   1.141   2.479   2.829
 5655TIP3   OH216921   1.309   0.424   0.842
 5655TIP3    H116922   1.253   0.350   0.818
 5655TIP3    H216923   1.255   0.477   0.901
 5656TIP3   OH216924   5.893   2.225   5.965
 5656TIP3    H116925   5.836   2.160   5.923
 5656TIP3    H216926   5.933   2.179   6.039
 5657TIP3   OH216927   7.747   4.973   4.299
 5657TIP3    H116928   7.798   4.975   4.380
 5657TIP3    H216929   7.674   4.914   4.319
 5658TIP3   OH216930   4.270   6.681   0.269
 5658TIP3    H116931   4.329   6.750   0.237
 5658TIP3    H216932   4.217   6.724   0.335
 5659TIP3   OH216933   0.559   1.219   3.036
 5659TIP3    H116934   0.479   1.172   3.057
 5659TIP3    H216935   0.589   1.254   3.121
 5660TIP3   OH216936   1.028   3.961   1.183
 5660TIP3    H116937   1.012   4.042   1.232
 5660TIP3    H216938   1.008   3.984   1.092
 5661TIP3   OH216939   7.273   2.536   2.008
 5661TIP3    H116940   7.292   2.528   1.915
 5661TIP3    H216941   7.182   2.566   2.011
 5662TIP3   OH216942   2.340   2.628   2.833
 5662TIP3    H116943   2.264   2.634   2.890
 5662TIP3    H216944   2.303   2.605   2.747
 5663TIP3   OH216945   4.044   0.514   0.874
 5663TIP3    H116946   4.006   0.591   0.832
 5663TIP3    H216947   4.024   0.442   0.814
 5664TIP3   OH216948   8.097   7.112   5.471
 5664TIP3    H116949   8.005   7.114   5.499
 5664TIP3    H216950   8.092   7.106   5.375
 5665TIP3   OH216951   5.745   1.356   1.161
 5665TIP3    H116952   5.675   1.303   1.124
 5665TIP3    H216953   5.708   1.444   1.167
 5666TIP3   OH216954   5.368   6.301   2.351
 5666TIP3    H116955   5.313   6.331   2.279
 5666TIP3    H216956   5.311   6.246   2.404
 5667TIP3   OH216957   1.646   3.141   3.480
 5667TIP3    H116958   1.707   3.178   3.545
 5667TIP3    H216959   1.645   3.048   3.500
 5668TIP3   OH216960   0.673   6.145   5.902
 5668TIP3    H116961   0.736   6.079   5.872
 5668TIP3    H216962   0.686   6.219   5.843
 5669TIP3   OH216963   7.934   0.237   1.373
 5669TIP3    H116964   7.985   0.247   1.453
 5669TIP3    H216965   7.846   0.268   1.396
 5670TIP3   OH216966   8.022   5.725   3.796
 5670TIP3    H116967   7.975   5.788   3.742
 5670TIP3    H216968   8.034   5.769   3.880
 5671TIP3   OH216969   7.566   4.316   3.773
 5671TIP3    H116970   7.589   4.288   3.685
 5671TIP3    H216971   7.640   4.289   3.827
 5672TIP3   OH216972   5.535   4.090   5.434
 5672TIP3    H116973   5.538   4.019   5.498
 5672TIP3    H216974   5.533   4.170   5.487
 5673TIP3   OH216975   1.269   4.574   4.104
 5673TIP3    H116976   1.185   4.564   4.060
 5673TIP3    H216977   1.260   4.652   4.157
 5674TIP3   OH216978   6.526   4.377   2.415
 5674TIP3    H116979   6.532   4.452   2.475
 5674TIP3    H216980   6.433   4.354   2.414
 5675TIP3   OH216981   4.442   1.341   6.395
 5675TIP3    H116982   4.432   1.291   6.314
 5675TIP3    H216983   4.446   1.274   6.464
 5676TIP3   OH216984   7.141   3.164   0.590
 5676TIP3    H116985   7.098   3.090   0.547
 5676TIP3    H216986   7.233   3.158   0.563
 5677TIP3   OH216987   6.756   0.497   4.737
 5677TIP3    H116988   6.776   0.451   4.818
 5677TIP3    H216989   6.833   0.482   4.681
 5678TIP3   OH216990   4.240   4.570   1.357
 5678TIP3    H116991   4.264   4.596   1.269
 5678TIP3    H216992   4.215   4.478   1.350
 5679TIP3   OH216993   7.302   5.872   5.868
 5679TIP3    H116994   7.263   5.954   5.838
 5679TIP3    H216995   7.386   5.898   5.906
 5680TIP3   OH216996   6.589   2.484   3.742
 5680TIP3    H116997   6.578   2.520   3.653
 5680TIP3    H216998   6.531   2.408   3.744
 5681TIP3   OH216999   6.232   3.595   6.440
 5681TIP3    H117000   6.274   3.511   6.420
 5681TIP3    H217001   6.208   3.630   6.354
 5682TIP3   OH217002   3.099   0.195   6.182
 5682TIP3    H117003   3.130   0.120   6.233
 5682TIP3    H217004   3.066   0.157   6.101
 5683TIP3   OH217005   7.387   6.284   5.756
 5683TIP3    H117006   7.325   6.257   5.688
 5683TIP3    H217007   7.342   6.354   5.803
 5684TIP3   OH217008   5.273   0.839   4.090
 5684TIP3    H117009   5.276   0.930   4.059
 5684TIP3    H217010   5.214   0.841   4.166
 5685TIP3   OH217011   1.538   4.374   0.705
 5685TIP3    H117012   1.532   4.310   0.776
 5685TIP3    H217013   1.568   4.454   0.747
 5686TIP3   OH217014   7.279   0.243   1.892
 5686TIP3    H117015   7.324   0.159   1.885
 5686TIP3    H217016   7.294   0.271   1.982
 5687TIP3   OH217017   7.829   0.631   2.396
 5687TIP3    H117018   7.863   0.656   2.482
 5687TIP3    H217019   7.810   0.714   2.352
 5688TIP3   OH217020   6.709   6.786   1.758
 5688TIP3    H117021   6.766   6.843   1.809
 5688TIP3    H217022   6.682   6.717   1.819
 5689TIP3   OH217023   7.833   3.391   0.374
 5689TIP3    H117024   7.740   3.404   0.354
 5689TIP3    H217025   7.868   3.479   0.384
 5690TIP3   OH217026   4.527   2.185   0.869
 5690TIP3    H117027   4.588   2.240   0.918
 5690TIP3    H217028   4.572   2.102   0.857
 5691TIP3   OH217029   0.463   5.816   3.013
 5691TIP3    H117030   0.462   5.772   3.098
 5691TIP3    H217031   0.388   5.780   2.966
 5692TIP3   OH217032   0.630   0.473   1.404
 5692TIP3    H117033   0.568   0.451   1.335
 5692TIP3    H217034   0.576   0.499   1.478
 5693TIP3   OH217035   6.390   0.372   4.266
 5693TIP3    H117036   6.346   0.317   4.331
 5693TIP3    H217037   6.479   0.335   4.260
 5694TIP3   OH217038   3.374   0.446   3.888
 5694TIP3    H117039   3.400   0.361   3.852
 5694TIP3    H217040   3.330   0.426   3.970
 5695TIP3   OH217041   4.283   5.123   2.314
 5695TIP3    H117042   4.259   5.201   2.363
 5695TIP3    H217043   4.360   5.148   2.263
 5696TIP3   OH217044   7.653   1.819   0.078
 5696TIP3    H117045   7.684   1.755   0.014
 5696TIP3    H217046   7.703   1.798   0.158
 5697TIP3   OH217047   8.082   2.412   5.014
 5697TIP3    H117048   8.109   2.370   5.096
 5697TIP3    H217049   8.061   2.502   5.038
 5698TIP3   OH217050   5.686   7.288   3.063
 5698TIP3    H117051   5.624   7.215   3.056
 5698TIP3    H217052   5.636   7.359   3.104
 5699TIP3   OH217053   0.057   0.094   1.793
 5699TIP3    H117054   0.151   0.102   1.780
 5699TIP3    H217055   0.024   0.183   1.784
 5700TIP3   OH217056   3.261   2.084   3.056
 5700TIP3    H117057   3.203   2.147   3.099
 5700TIP3    H217058   3.305   2.039   3.128
 5701TIP3   OH217059   1.628   4.538   3.847
 5701TIP3    H117060   1.610   4.534   3.941
 5701TIP3    H217061   1.542   4.532   3.806
 5702TIP3   OH217062   2.900   0.973   3.191
 5702TIP3    H117063   2.882   1.064   3.214
 5702TIP3    H217064   2.916   0.930   3.276
 5703TIP3   OH217065   8.265   5.944   5.436
 5703TIP3    H117066   8.182   5.973   5.398
 5703TIP3    H217067   8.266   5.849   5.421
 5704TIP3   OH217068   7.742   5.950   4.272
 5704TIP3    H117069   7.826   5.996   4.270
 5704TIP3    H217070   7.749   5.885   4.201
 5705TIP3   OH217071   7.631   6.892   0.672
 5705TIP3    H117072   7.697   6.948   0.631
 5705TIP3    H217073   7.571   6.952   0.716
 5706TIP3   OH217074   0.566   1.988   6.426
 5706TIP3    H117075   0.518   1.907   6.409
 5706TIP3    H217076   0.657   1.960   6.433
 5707TIP3   OH217077   6.421   3.075   6.737
 5707TIP3    H117078   6.371   3.146   6.777
 5707TIP3    H217079   6.512   3.099   6.751
 5708TIP3   OH217080   2.771   1.344   2.000
 5708TIP3    H117081   2.778   1.403   2.075
 5708TIP3    H217082   2.859   1.341   1.963
 5709TIP3   OH217083   6.233   6.500   3.994
 5709TIP3    H117084   6.148   6.540   4.013
 5709TIP3    H217085   6.296   6.572   4.001
 5710TIP3   OH217086   6.811   4.832   2.970
 5710TIP3    H117087   6.734   4.813   2.917
 5710TIP3    H217088   6.884   4.796   2.919
 5711TIP3   OH217089   4.734   2.905   1.948
 5711TIP3    H117090   4.752   2.859   1.866
 5711TIP3    H217091   4.743   2.998   1.926
 5712TIP3   OH217092   0.293   2.303   5.726
 5712TIP3    H117093   0.260   2.370   5.786
 5712TIP3    H217094   0.354   2.349   5.669
 5713TIP3   OH217095   3.809   3.511   6.440
 5713TIP3    H117096   3.795   3.596   6.398
 5713TIP3    H217097   3.769   3.520   6.526
 5714TIP3   OH217098   2.176   6.647   4.139
 5714TIP3    H117099   2.216   6.568   4.101
 5714TIP3    H217100   2.121   6.613   4.210
 5715TIP3   OH217101   1.263   6.119   0.381
 5715TIP3    H117102   1.180   6.152   0.347
 5715TIP3    H217103   1.244   6.094   0.472
 5716TIP3   OH217104   2.589   4.255   6.322
 5716TIP3    H117105   2.530   4.184   6.298
 5716TIP3    H217106   2.547   4.295   6.399
 5717TIP3   OH217107   4.482   0.667   1.199
 5717TIP3    H117108   4.400   0.686   1.151
 5717TIP3    H217109   4.501   0.748   1.246
 5718TIP3   OH217110   1.522   6.010   3.455
 5718TIP3    H117111   1.500   6.102   3.438
 5718TIP3    H217112   1.476   5.990   3.537
 5719TIP3   OH217113   5.192   3.829   1.239
 5719TIP3    H117114   5.098   3.825   1.255
 5719TIP3    H217115   5.227   3.752   1.285
 5720TIP3   OH217116   1.161   1.716   2.610
 5720TIP3    H117117   1.234   1.700   2.550
 5720TIP3    H217118   1.192   1.685   2.695
 5721TIP3   OH217119   0.343   0.970   4.403
 5721TIP3    H117120   0.287   1.008   4.336
 5721TIP3    H217121   0.289   0.967   4.482
 5722TIP3   OH217122   4.503   6.154   0.717
 5722TIP3    H117123   4.583   6.101   0.723
 5722TIP3    H217124   4.459   6.122   0.638
 5723TIP3   OH217125   6.813   0.729   5.688
 5723TIP3    H117126   6.814   0.802   5.627
 5723TIP3    H217127   6.897   0.685   5.676
 5724TIP3   OH217128   6.886   4.322   4.555
 5724TIP3    H117129   6.869   4.347   4.464
 5724TIP3    H217130   6.906   4.404   4.599
 5725TIP3   OH217131   7.379   2.014   0.477
 5725TIP3    H117132   7.447   2.056   0.530
 5725TIP3    H217133   7.424   1.989   0.396
 5726TIP3   OH217134   7.782   4.255   0.451
 5726TIP3    H117135   7.744   4.291   0.372
 5726TIP3    H217136   7.771   4.323   0.517
 5727TIP3   OH217137   3.063   7.306   5.237
 5727TIP3    H117138   3.068   7.226   5.184
 5727TIP3    H217139   2.983   7.349   5.207
 5728TIP3   OH217140   3.208   3.896   1.343
 5728TIP3    H117141   3.182   3.914   1.252
 5728TIP3    H217142   3.168   3.812   1.363
 5729TIP3   OH217143   4.391   0.583   3.646
 5729TIP3    H117144   4.454   0.562   3.577
 5729TIP3    H217145   4.354   0.499   3.672
 5730TIP3   OH217146   5.046   3.879   4.699
 5730TIP3    H117147   5.126   3.861   4.750
 5730TIP3    H217148   4.975   3.852   4.756
 5731TIP3   OH217149   2.260   6.136   2.751
 5731TIP3    H117150   2.170   6.103   2.760
 5731TIP3    H217151   2.314   6.070   2.795
 5732TIP3   OH217152   5.046   3.229   3.335
 5732TIP3    H117153   4.989   3.156   3.312
 5732TIP3    H217154   4.988   3.295   3.373
 5733TIP3   OH217155   4.392   6.229   2.003
 5733TIP3    H117156   4.470   6.229   1.947
 5733TIP3    H217157   4.427   6.221   2.092
 5734TIP3   OH217158   3.919   7.426   3.622
 5734TIP3    H117159   3.829   7.431   3.654
 5734TIP3    H217160   3.928   7.499   3.562
 5735TIP3   OH217161   0.197   0.876  -0.019
 5735TIP3    H117162   0.247   0.804   0.020
 5735TIP3    H217163   0.165   0.926   0.056
 5736TIP3   OH217164   3.298   2.380   6.106
 5736TIP3    H117165   3.302   2.299   6.158
 5736TIP3    H217166   3.257   2.443   6.165
 5737TIP3   OH217167   2.201   6.541   5.992
 5737TIP3    H117168   2.187   6.514   5.901
 5737TIP3    H217169   2.291   6.515   6.011
 5738TIP3   OH217170   1.858   1.965   3.698
 5738TIP3    H117171   1.893   2.053   3.681
 5738TIP3    H217172   1.933   1.907   3.685
 5739TIP3   OH217173   0.251   5.702   2.852
 5739TIP3    H117174   0.193   5.625   2.851
 5739TIP3    H217175   0.235   5.744   2.767
 5740TIP3   OH217176   3.952   1.510   0.117
 5740TIP3    H117177   3.954   1.486   0.209
 5740TIP3    H217178   3.860   1.530   0.100
 5741TIP3   OH217179   3.122   6.612   4.818
 5741TIP3    H117180   3.039   6.563   4.815
 5741TIP3    H217181   3.123   6.662   4.737
 5742TIP3   OH217182   7.888   5.532   5.828
 5742TIP3    H117183   7.857   5.622   5.840
 5742TIP3    H217184   7.983   5.540   5.825
 5743TIP3   OH217185   0.926   5.059   4.600
 5743TIP3    H117186   0.885   5.128   4.547
 5743TIP3    H217187   0.925   5.095   4.689
 5744TIP3   OH217188   0.283   7.504   3.560
 5744TIP3    H117189   0.350   7.547   3.506
 5744TIP3    H217190   0.261   7.424   3.513
 5745TIP3   OH217191   3.507   0.909   1.175
 5745TIP3    H117192   3.456   0.834   1.147
 5745TIP3    H217193   3.486   0.919   1.268
 5746TIP3   OH217194   5.397   2.590   4.023
 5746TIP3    H117195   5.359   2.552   4.103
 5746TIP3    H217196   5.379   2.526   3.955
 5747TIP3   OH217197   1.284   4.823   0.195
 5747TIP3    H117198   1.259   4.915   0.185
 5747TIP3    H217199   1.201   4.775   0.190
 5748TIP3   OH217200   5.700   0.784   1.443
 5748TIP3    H117201   5.630   0.824   1.392
 5748TIP3    H217202   5.764   0.756   1.377
 5749TIP3   OH217203   4.213   4.999   2.065
 5749TIP3    H117204   4.210   5.051   2.146
 5749TIP3    H217205   4.121   4.977   2.048
 5750TIP3   OH217206   5.106   5.157   3.897
 5750TIP3    H117207   5.166   5.089   3.868
 5750TIP3    H217208   5.043   5.167   3.825
 5751TIP3   OH217209   3.056   4.290   3.427
 5751TIP3    H117210   3.098   4.355   3.483
 5751TIP3    H217211   3.130   4.243   3.387
 5752TIP3   OH217212   4.437   2.542   1.123
 5752TIP3    H117213   4.398   2.469   1.171
 5752TIP3    H217214   4.389   2.544   1.040
 5753TIP3   OH217215   7.481   5.473   0.193
 5753TIP3    H117216   7.428   5.529   0.248
 5753TIP3    H217217   7.571   5.487   0.224
 5754TIP3   OH217218   4.671   7.396   3.390
 5754TIP3    H117219   4.710   7.312   3.366
 5754TIP3    H217220   4.620   7.423   3.314
 5755TIP3   OH217221   6.370   1.832   0.883
 5755TIP3    H117222   6.360   1.927   0.875
 5755TIP3    H217223   6.451   1.812   0.837
 5756TIP3   OH217224   6.769   6.491   1.052
 5756TIP3    H117225   6.811   6.567   1.011
 5756TIP3    H217226   6.835   6.423   1.051
 5757TIP3   OH217227   5.275   4.782   4.313
 5757TIP3    H117228   5.301   4.704   4.362
 5757TIP3    H217229   5.185   4.800   4.343
 5758TIP3   OH217230   5.978   5.793   2.178
 5758TIP3    H117231   6.002   5.841   2.257
 5758TIP3    H217232   6.013   5.705   2.192
 5759TIP3   OH217233   8.039   2.288   6.606
 5759TIP3    H117234   8.019   2.213   6.549
 5759TIP3    H217235   8.128   2.272   6.637
 5760TIP3   OH217236   0.699   5.525   0.574
 5760TIP3    H117237   0.635   5.459   0.547
 5760TIP3    H217238   0.771   5.515   0.512
 5761TIP3   OH217239   3.297   6.241   1.222
 5761TIP3    H117240   3.384   6.211   1.197
 5761TIP3    H217241   3.299   6.244   1.318
 5762TIP3   OH217242   1.179   2.403   2.016
 5762TIP3    H117243   1.244   2.439   2.077
 5762TIP3    H217244   1.232   2.364   1.946
 5763TIP3   OH217245   3.847   6.340   6.036
 5763TIP3    H117246   3.759   6.371   6.056
 5763TIP3    H217247   3.845   6.319   5.943
 5764TIP3   OH217248   3.148   5.260   3.963
 5764TIP3    H117249   3.231   5.296   3.932
 5764TIP3    H217250   3.121   5.199   3.894
 5765TIP3   OH217251   6.364   0.151   2.964
 5765TIP3    H117252   6.288   0.205   2.981
 5765TIP3    H217253   6.438   0.211   2.969
 5766TIP3   OH217254   8.153   1.398   2.499
 5766TIP3    H117255   8.058   1.399   2.507
 5766TIP3    H217256   8.185   1.431   2.583
 5767TIP3   OH217257   2.366   3.532   3.109
 5767TIP3    H117258   2.345   3.617   3.069
 5767TIP3    H217259   2.458   3.517   3.087
 5768TIP3   OH217260   4.891   4.747   4.682
 5768TIP3    H117261   4.833   4.722   4.754
 5768TIP3    H217262   4.831   4.768   4.610
 5769TIP3   OH217263   3.952   5.104   1.811
 5769TIP3    H117264   3.988   5.189   1.784
 5769TIP3    H217265   3.942   5.055   1.729
 5770TIP3   OH217266   4.584   1.022   2.021
 5770TIP3    H117267   4.632   0.939   2.017
 5770TIP3    H217268   4.590   1.048   2.113
 5771TIP3   OH217269   0.237   0.467   4.462
 5771TIP3    H117270   0.324   0.455   4.423
 5771TIP3    H217271   0.186   0.511   4.394
 5772TIP3   OH217272   3.357   5.395   3.275
 5772TIP3    H117273   3.328   5.464   3.335
 5772TIP3    H217274   3.367   5.317   3.330
 5773TIP3   OH217275   1.583   3.740   2.775
 5773TIP3    H117276   1.578   3.697   2.861
 5773TIP3    H217277   1.513   3.805   2.777
 5774TIP3   OH217278   6.365   1.230   2.330
 5774TIP3    H117279   6.388   1.172   2.257
 5774TIP3    H217280   6.273   1.251   2.316
 5775TIP3   OH217281   8.320   5.574   4.851
 5775TIP3    H117282   8.310   5.663   4.884
 5775TIP3    H217283   8.241   5.558   4.800
 5776TIP3   OH217284   1.376   3.158   1.579
 5776TIP3    H117285   1.450   3.127   1.528
 5776TIP3    H217286   1.302   3.159   1.518
 5777TIP3   OH217287   0.123   3.131   3.912
 5777TIP3    H117288   0.186   3.164   3.976
 5777TIP3    H217289   0.087   3.052   3.952
 5778TIP3   OH217290   2.784   2.094   3.628
 5778TIP3    H117291   2.805   2.001   3.630
 5778TIP3    H217292   2.839   2.132   3.696
 5779TIP3   OH217293   3.253   5.605   3.956
 5779TIP3    H117294   3.258   5.699   3.938
 5779TIP3    H217295   3.322   5.566   3.903
 5780TIP3   OH217296   7.515   1.274   0.253
 5780TIP3    H117297   7.588   1.267   0.315
 5780TIP3    H217298   7.452   1.330   0.297
 5781TIP3   OH217299   2.686   1.380   6.030
 5781TIP3    H117300   2.593   1.396   6.041
 5781TIP3    H217301   2.696   1.286   6.046
 5782TIP3   OH217302   2.610   0.979   4.740
 5782TIP3    H117303   2.524   0.940   4.727
 5782TIP3    H217304   2.592   1.066   4.776
 5783TIP3   OH217305   7.662   7.103   2.677
 5783TIP3    H117306   7.669   7.010   2.700
 5783TIP3    H217307   7.621   7.103   2.591
 5784TIP3   OH217308   0.406   6.415   2.724
 5784TIP3    H117309   0.385   6.486   2.786
 5784TIP3    H217310   0.380   6.336   2.771
 5785TIP3   OH217311   8.190   3.235   1.189
 5785TIP3    H117312   8.202   3.326   1.216
 5785TIP3    H217313   8.278   3.197   1.191
 5786TIP3   OH217314   2.237   7.625   1.673
 5786TIP3    H117315   2.182   7.605   1.748
 5786TIP3    H217316   2.180   7.677   1.615
 5787TIP3   OH217317   1.223   3.914   6.079
 5787TIP3    H117318   1.310   3.950   6.091
 5787TIP3    H217319   1.175   3.937   6.158
 5788TIP3   OH217320   3.716   6.275   6.739
 5788TIP3    H117321   3.683   6.251   6.652
 5788TIP3    H217322   3.702   6.370   6.744
 5789TIP3   OH217323   5.206   7.207   4.832
 5789TIP3    H117324   5.124   7.193   4.880
 5789TIP3    H217325   5.255   7.126   4.842
 5790TIP3   OH217326   3.861   2.279   5.047
 5790TIP3    H117327   3.858   2.224   4.969
 5790TIP3    H217328   3.904   2.360   5.018
 5791TIP3   OH217329   0.082   4.523   5.024
 5791TIP3    H117330   0.003   4.470   5.012
 5791TIP3    H217331   0.071   4.564   5.110
 5792TIP3   OH217332   7.555   2.566   4.782
 5792TIP3    H117333   7.479   2.621   4.801
 5792TIP3    H217334   7.628   2.609   4.828
 5793TIP3   OH217335   7.940   0.386   5.715
 5793TIP3    H117336   7.884   0.450   5.670
 5793TIP3    H217337   8.022   0.433   5.730
 5794TIP3   OH217338   0.075   4.370   3.417
 5794TIP3    H117339   0.087   4.450   3.366
 5794TIP3    H217340   0.071   4.400   3.508
 5795TIP3   OH217341   7.414   2.534   0.272
 5795TIP3    H117342   7.477   2.471   0.237
 5795TIP3    H217343   7.454   2.620   0.256
 5796TIP3   OH217344   7.569   6.158   6.383
 5796TIP3    H117345   7.653   6.159   6.336
 5796TIP3    H217346   7.592   6.137   6.474
 5797TIP3   OH217347   2.077   1.873   5.180
 5797TIP3    H117348   2.012   1.918   5.234
 5797TIP3    H217349   2.156   1.872   5.235
 5798TIP3   OH217350   6.029   7.432   2.732
 5798TIP3    H117351   5.972   7.416   2.657
 5798TIP3    H217352   6.084   7.354   2.738
 5799TIP3   OH217353   1.333   0.793   3.665
 5799TIP3    H117354   1.255   0.758   3.707
 5799TIP3    H217355   1.345   0.740   3.587
 5800TIP3   OH217356   7.123   4.830   0.127
 5800TIP3    H117357   7.148   4.852   0.037
 5800TIP3    H217358   7.028   4.846   0.130
 5801TIP3   OH217359   2.070   3.031   3.772
 5801TIP3    H117360   2.081   2.943   3.735
 5801TIP3    H217361   2.159   3.062   3.787
 5802TIP3   OH217362   3.907   1.259   2.110
 5802TIP3    H117363   3.816   1.265   2.081
 5802TIP3    H217364   3.952   1.212   2.039
 5803TIP3   OH217365   7.840   1.906   4.629
 5803TIP3    H117366   7.760   1.872   4.670
 5803TIP3    H217367   7.897   1.830   4.620
 5804TIP3   OH217368   1.889   0.188   4.027
 5804TIP3    H117369   1.873   0.167   4.119
 5804TIP3    H217370   1.869   0.108   3.980
 5805TIP3   OH217371   1.126   4.942   5.345
 5805TIP3    H117372   1.038   4.973   5.367
 5805TIP3    H217373   1.182   4.978   5.413
 5806TIP3   OH217374   5.275   0.196   6.165
 5806TIP3    H117375   5.180   0.187   6.174
 5806TIP3    H217376   5.298   0.267   6.225
 5807TIP3   OH217377   5.933   6.947   3.088
 5807TIP3    H117378   5.840   6.936   3.068
 5807TIP3    H217379   5.943   6.907   3.175
 5808TIP3   OH217380   4.095   6.623   6.536
 5808TIP3    H117381   4.042   6.623   6.456
 5808TIP3    H217382   4.032   6.619   6.608
 5809TIP3   OH217383   6.938   6.271   6.540
 5809TIP3    H117384   6.850   6.304   6.526
 5809TIP3    H217385   6.935   6.228   6.625
 5810TIP3   OH217386   0.674   7.306   0.735
 5810TIP3    H117387   0.683   7.251   0.656
 5810TIP3    H217388   0.589   7.348   0.725
 5811TIP3   OH217389   5.056   5.136   4.415
 5811TIP3    H117390   5.059   5.042   4.434
 5811TIP3    H217391   5.035   5.141   4.322
 5812TIP3   OH217392   7.277   4.202   3.319
 5812TIP3    H117393   7.273   4.160   3.405
 5812TIP3    H217394   7.216   4.276   3.325
 5813TIP3   OH217395   4.503   7.460   4.717
 5813TIP3    H117396   4.413   7.492   4.710
 5813TIP3    H217397   4.528   7.478   4.807
 5814TIP3   OH217398   2.276   5.514   3.294
 5814TIP3    H117399   2.351   5.487   3.347
 5814TIP3    H217400   2.315   5.556   3.217
 5815TIP3   OH217401   0.353   5.300   6.679
 5815TIP3    H117402   0.335   5.219   6.728
 5815TIP3    H217403   0.270   5.318   6.634
 5816TIP3   OH217404   6.293   6.195   6.238
 5816TIP3    H117405   6.326   6.129   6.177
 5816TIP3    H217406   6.345   6.183   6.317
 5817TIP3   OH217407   0.591   1.521   6.479
 5817TIP3    H117408   0.589   1.445   6.422
 5817TIP3    H217409   0.682   1.528   6.507
 5818TIP3   OH217410   6.162   5.442   0.960
 5818TIP3    H117411   6.104   5.450   1.035
 5818TIP3    H217412   6.223   5.516   0.969
 5819TIP3   OH217413   7.635   2.699   2.284
 5819TIP3    H117414   7.652   2.654   2.367
 5819TIP3    H217415   7.694   2.656   2.222
 5820TIP3   OH217416   4.805   7.313   0.233
 5820TIP3    H117417   4.873   7.315   0.301
 5820TIP3    H217418   4.854   7.312   0.151
 5821TIP3   OH217419   7.516   6.182   4.729
 5821TIP3    H117420   7.492   6.089   4.729
 5821TIP3    H217421   7.541   6.200   4.639
 5822TIP3   OH217422   1.050   0.129   2.128
 5822TIP3    H117423   1.033   0.048   2.176
 5822TIP3    H217424   1.114   0.176   2.181
 5823TIP3   OH217425   2.392   3.021   0.501
 5823TIP3    H117426   2.441   3.067   0.433
 5823TIP3    H217427   2.400   2.928   0.478
 5824TIP3   OH217428   2.767   5.613   1.315
 5824TIP3    H117429   2.773   5.518   1.319
 5824TIP3    H217430   2.674   5.631   1.299
 5825TIP3   OH217431   1.459   4.892   1.792
 5825TIP3    H117432   1.507   4.946   1.854
 5825TIP3    H217433   1.477   4.931   1.707
 5826TIP3   OH217434   7.014   2.468   5.835
 5826TIP3    H117435   6.952   2.400   5.862
 5826TIP3    H217436   7.092   2.453   5.888
 5827TIP3   OH217437   7.710   4.988   5.012
 5827TIP3    H117438   7.683   5.063   5.065
 5827TIP3    H217439   7.649   4.987   4.939
 5828TIP3   OH217440   3.606   7.587   1.382
 5828TIP3    H117441   3.573   7.675   1.397
 5828TIP3    H217442   3.543   7.547   1.322
 5829TIP3   OH217443   5.246   3.017   5.626
 5829TIP3    H117444   5.304   2.997   5.553
 5829TIP3    H217445   5.161   2.980   5.599
 5830TIP3   OH217446   0.094   2.645   1.460
 5830TIP3    H117447   0.012   2.664   1.413
 5830TIP3    H217448   0.127   2.565   1.417
 5831TIP3   OH217449   6.661   6.725   4.911
 5831TIP3    H117450   6.658   6.820   4.923
 5831TIP3    H217451   6.749   6.701   4.939
 5832TIP3   OH217452   5.986   3.077   6.223
 5832TIP3    H117453   5.894   3.102   6.233
 5832TIP3    H217454   5.999   3.069   6.129
 5833TIP3   OH217455   4.637   1.502   1.371
 5833TIP3    H117456   4.571   1.544   1.426
 5833TIP3    H217457   4.660   1.570   1.307
 5834TIP3   OH217458   0.415   7.080   3.418
 5834TIP3    H117459   0.494   7.115   3.459
 5834TIP3    H217460   0.343   7.122   3.465
 5835TIP3   OH217461   5.338   6.145   6.591
 5835TIP3    H117462   5.295   6.200   6.656
 5835TIP3    H217463   5.431   6.168   6.598
 5836TIP3   OH217464   3.131   2.245   3.232
 5836TIP3    H117465   3.089   2.237   3.317
 5836TIP3    H217466   3.145   2.339   3.221
 5837TIP3   OH217467   1.458   7.078   1.049
 5837TIP3    H117468   1.443   7.072   1.143
 5837TIP3    H217469   1.523   7.010   1.031
 5838TIP3   OH217470   1.455   7.710   5.418
 5838TIP3    H117471   1.503   7.681   5.341
 5838TIP3    H217472   1.510   7.779   5.456
 5839TIP3   OH217473   8.155   2.853   1.473
 5839TIP3    H117474   8.109   2.818   1.549
 5839TIP3    H217475   8.119   2.941   1.461
 5840TIP3   OH217476   4.588   7.073   2.627
 5840TIP3    H117477   4.629   7.050   2.543
 5840TIP3    H217478   4.619   7.162   2.645
 5841TIP3   OH217479   5.717   6.696   2.767
 5841TIP3    H117480   5.746   6.785   2.784
 5841TIP3    H217481   5.623   6.698   2.783
 5842TIP3   OH217482   7.017   5.899   5.694
 5842TIP3    H117483   7.031   5.973   5.754
 5842TIP3    H217484   6.980   5.939   5.616
 5843TIP3   OH217485   1.052   6.260   5.342
 5843TIP3    H117486   1.041   6.354   5.328
 5843TIP3    H217487   1.114   6.253   5.415
 5844TIP3   OH217488   8.222   0.645   1.662
 5844TIP3    H117489   8.165   0.722   1.666
 5844TIP3    H217490   8.162   0.571   1.660
 5845TIP3   OH217491   8.147   6.416   2.454
 5845TIP3    H117492   8.190   6.486   2.504
 5845TIP3    H217493   8.082   6.462   2.400
 5846TIP3   OH217494   3.675   6.765   2.834
 5846TIP3    H117495   3.734   6.840   2.842
 5846TIP3    H217496   3.594   6.792   2.876
 5847TIP3   OH217497   1.244   6.321   0.955
 5847TIP3    H117498   1.161   6.336   0.910
 5847TIP3    H217499   1.233   6.364   1.040
 5848TIP3   OH217500   5.669   4.424   5.501
 5848TIP3    H117501   5.607   4.371   5.551
 5848TIP3    H217502   5.630   4.511   5.499
 5849TIP3   OH217503   0.583   1.887   1.051
 5849TIP3    H117504   0.559   1.888   1.144
 5849TIP3    H217505   0.629   1.804   1.039
 5850TIP3   OH217506   1.405   6.150   4.062
 5850TIP3    H117507   1.365   6.213   4.122
 5850TIP3    H217508   1.472   6.105   4.114
 5851TIP3   OH217509   3.738   3.968   3.571
 5851TIP3    H117510   3.687   3.893   3.602
 5851TIP3    H217511   3.684   4.008   3.503
 5852TIP3   OH217512   4.792   4.665   6.103
 5852TIP3    H117513   4.710   4.618   6.094
 5852TIP3    H217514   4.846   4.610   6.160
 5853TIP3   OH217515   2.427   0.137   1.880
 5853TIP3    H117516   2.459   0.104   1.797
 5853TIP3    H217517   2.396   0.060   1.927
 5854TIP3   OH217518   5.513   4.149   4.824
 5854TIP3    H117519   5.573   4.198   4.879
 5854TIP3    H217520   5.528   4.183   4.735
 5855TIP3   OH217521   6.593   1.500   2.598
 5855TIP3    H117522   6.654   1.548   2.655
 5855TIP3    H217523   6.530   1.460   2.658
 5856TIP3   OH217524   5.883   4.607   5.634
 5856TIP3    H117525   5.828   4.682   5.658
 5856TIP3    H217526   5.840   4.570   5.557
 5857TIP3   OH217527   0.673   6.644   1.596
 5857TIP3    H117528   0.592   6.593   1.595
 5857TIP3    H217529   0.648   6.731   1.566
 5858TIP3   OH217530   7.743   5.757   5.573
 5858TIP3    H117531   7.666   5.736   5.627
 5858TIP3    H217532   7.750   5.852   5.579
 5859TIP3   OH217533   7.499   3.058   3.860
 5859TIP3    H117534   7.455   3.143   3.856
 5859TIP3    H217535   7.573   3.073   3.918
 5860TIP3   OH217536   3.010   5.843   3.885
 5860TIP3    H117537   3.018   5.912   3.819
 5860TIP3    H217538   2.918   5.845   3.911
 5861TIP3   OH217539   5.936   5.628   0.876
 5861TIP3    H117540   5.913   5.575   0.952
 5861TIP3    H217541   6.026   5.656   0.893
 5862TIP3   OH217542   5.305   7.230   2.384
 5862TIP3    H117543   5.295   7.307   2.326
 5862TIP3    H217544   5.237   7.170   2.354
 5863TIP3   OH217545   7.006   6.507   1.792
 5863TIP3    H117546   7.094   6.522   1.759
 5863TIP3    H217547   7.018   6.477   1.882
 5864TIP3   OH217548   2.637   5.945   0.237
 5864TIP3    H117549   2.713   5.940   0.294
 5864TIP3    H217550   2.646   6.028   0.190
 5865TIP3   OH217551   2.811   5.733   0.821
 5865TIP3    H117552   2.734   5.743   0.765
 5865TIP3    H217553   2.788   5.779   0.902
 5866TIP3   OH217554   1.870   7.788   5.080
 5866TIP3    H117555   1.839   7.874   5.108
 5866TIP3    H217556   1.848   7.730   5.153
 5867TIP3   OH217557   6.723   6.225   5.435
 5867TIP3    H117558   6.687   6.181   5.358
 5867TIP3    H217559   6.773   6.299   5.400
 5868TIP3   OH217560   2.211   3.827   5.882
 5868TIP3    H117561   2.211   3.922   5.869
 5868TIP3    H217562   2.194   3.791   5.794
 5869TIP3   OH217563   2.005   6.797   6.760
 5869TIP3    H117564   2.084   6.841   6.731
 5869TIP3    H217565   1.934   6.858   6.739
 5870TIP3   OH217566   7.213   6.395   4.786
 5870TIP3    H117567   7.282   6.407   4.720
 5870TIP3    H217568   7.140   6.449   4.755
 5871TIP3   OH217569   6.423   5.473   4.211
 5871TIP3    H117570   6.345   5.421   4.229
 5871TIP3    H217571   6.458   5.434   4.130
 5872TIP3   OH217572   3.063   3.825   3.975
 5872TIP3    H117573   3.011   3.813   4.054
 5872TIP3    H217574   3.014   3.780   3.906
 5873TIP3   OH217575   1.874   3.917   6.127
 5873TIP3    H117576   1.944   3.966   6.171
 5873TIP3    H217577   1.812   3.983   6.099
 5874TIP3   OH217578   5.094   7.245   3.714
 5874TIP3    H117579   5.125   7.236   3.804
 5874TIP3    H217580   5.167   7.212   3.661
 5875TIP3   OH217581   6.959   3.718   4.503
 5875TIP3    H117582   6.995   3.783   4.443
 5875TIP3    H217583   6.923   3.650   4.445
 5876TIP3   OH217584   6.548   2.830   0.197
 5876TIP3    H117585   6.585   2.890   0.262
 5876TIP3    H217586   6.573   2.743   0.228
 5877TIP3   OH217587   3.367   7.207   5.611
 5877TIP3    H117588   3.346   7.299   5.631
 5877TIP3    H217589   3.305   7.183   5.543
 5878TIP3   OH217590   0.640   6.278   3.618
 5878TIP3    H117591   0.565   6.224   3.595
 5878TIP3    H217592   0.622   6.363   3.579
 5879TIP3   OH217593   7.790   2.751   6.496
 5879TIP3    H117594   7.780   2.722   6.406
 5879TIP3    H217595   7.745   2.684   6.548
 5880TIP3   OH217596   7.433   6.020   4.334
 5880TIP3    H117597   7.385   5.970   4.400
 5880TIP3    H217598   7.521   5.983   4.334
 5881TIP3   OH217599   2.977   7.643   0.846
 5881TIP3    H117600   3.048   7.695   0.810
 5881TIP3    H217601   2.984   7.558   0.803
 5882TIP3   OH217602   3.448   1.266   4.482
 5882TIP3    H117603   3.432   1.235   4.393
 5882TIP3    H217604   3.543   1.265   4.491
 5883TIP3   OH217605   6.181   6.325   1.941
 5883TIP3    H117606   6.161   6.281   2.023
 5883TIP3    H217607   6.115   6.293   1.879
 5884TIP3   OH217608   3.700   1.592   3.280
 5884TIP3    H117609   3.628   1.635   3.325
 5884TIP3    H217610   3.768   1.659   3.273
 5885TIP3   OH217611   8.131   3.572   6.185
 5885TIP3    H117612   8.212   3.554   6.231
 5885TIP3    H217613   8.073   3.500   6.210
 5886TIP3   OH217614   4.103   5.790   5.153
 5886TIP3    H117615   4.064   5.762   5.070
 5886TIP3    H217616   4.092   5.885   5.154
 5887TIP3   OH217617   5.286   3.552   3.835
 5887TIP3    H117618   5.290   3.548   3.931
 5887TIP3    H217619   5.370   3.592   3.810
 5888TIP3   OH217620   3.544   0.462   4.741
 5888TIP3    H117621   3.456   0.428   4.728
 5888TIP3    H217622   3.532   0.544   4.789
 5889TIP3   OH217623   7.104   0.878   2.145
 5889TIP3    H117624   7.159   0.841   2.076
 5889TIP3    H217625   7.059   0.802   2.183
 5890TIP3   OH217626   1.579   5.258   3.751
 5890TIP3    H117627   1.638   5.184   3.761
 5890TIP3    H217628   1.625   5.332   3.791
 5891TIP3   OH217629   3.426   4.941   4.439
 5891TIP3    H117630   3.481   4.951   4.361
 5891TIP3    H217631   3.464   4.866   4.485
 5892TIP3   OH217632   1.526   2.889   3.875
 5892TIP3    H117633   1.607   2.939   3.866
 5892TIP3    H217634   1.549   2.815   3.931
 5893TIP3   OH217635   2.416   5.319   3.935
 5893TIP3    H117636   2.335   5.354   3.972
 5893TIP3    H217637   2.460   5.276   4.008
 5894TIP3   OH217638   3.754   2.303   2.608
 5894TIP3    H117639   3.721   2.214   2.619
 5894TIP3    H217640   3.845   2.291   2.581
 5895TIP3   OH217641   6.244   3.136   6.285
 5895TIP3    H117642   6.296   3.090   6.351
 5895TIP3    H217643   6.165   3.083   6.275
 5896TIP3   OH217644   4.714   5.766   5.277
 5896TIP3    H117645   4.730   5.731   5.189
 5896TIP3    H217646   4.760   5.850   5.277
 5897TIP3   OH217647   3.905   5.263   2.621
 5897TIP3    H117648   3.999   5.254   2.638
 5897TIP3    H217649   3.870   5.305   2.699
 5898TIP3   OH217650   2.281   5.023   4.023
 5898TIP3    H117651   2.220   4.994   4.091
 5898TIP3    H217652   2.365   5.029   4.068
 5899TIP3   OH217653   7.062   0.254   2.744
 5899TIP3    H117654   6.997   0.198   2.702
 5899TIP3    H217655   7.042   0.250   2.837
 5900TIP3   OH217656   6.588   5.768   3.031
 5900TIP3    H117657   6.591   5.835   2.962
 5900TIP3    H217658   6.510   5.717   3.012
 5901TIP3   OH217659   7.324   1.392   5.569
 5901TIP3    H117660   7.295   1.364   5.656
 5901TIP3    H217661   7.307   1.486   5.568
 5902TIP3   OH217662   5.074   1.250   6.478
 5902TIP3    H117663   5.098   1.165   6.515
 5902TIP3    H217664   5.017   1.289   6.544
 5903TIP3   OH217665   7.362   6.564   4.263
 5903TIP3    H117666   7.392   6.633   4.323
 5903TIP3    H217667   7.309   6.506   4.317
 5904TIP3   OH217668   0.471   2.287   2.573
 5904TIP3    H117669   0.487   2.311   2.665
 5904TIP3    H217670   0.555   2.252   2.543
 5905TIP3   OH217671   6.116   0.503   6.420
 5905TIP3    H117672   6.024   0.494   6.446
 5905TIP3    H217673   6.141   0.415   6.390
 5906TIP3   OH217674   4.611   1.394   3.258
 5906TIP3    H117675   4.654   1.362   3.179
 5906TIP3    H217676   4.534   1.339   3.267
 5907TIP3   OH217677   0.419   1.918   1.375
 5907TIP3    H117678   0.433   1.824   1.377
 5907TIP3    H217679   0.327   1.929   1.350
 5908TIP3   OH217680   4.709   0.643   5.450
 5908TIP3    H117681   4.770   0.708   5.416
 5908TIP3    H217682   4.761   0.562   5.455
 5909TIP3   OH217683   5.473   1.013   2.046
 5909TIP3    H117684   5.418   1.078   2.090
 5909TIP3    H217685   5.411   0.961   1.994
 5910TIP3   OH217686   7.672   4.473   4.376
 5910TIP3    H117687   7.586   4.442   4.404
 5910TIP3    H217688   7.691   4.423   4.297
 5911TIP3   OH217689   6.215   3.832   2.165
 5911TIP3    H117690   6.305   3.812   2.191
 5911TIP3    H217691   6.166   3.832   2.248
 5912TIP3   OH217692   4.379   7.628   2.430
 5912TIP3    H117693   4.404   7.537   2.443
 5912TIP3    H217694   4.284   7.626   2.415
 5913TIP3   OH217695   1.737   4.413   2.144
 5913TIP3    H117696   1.758   4.360   2.221
 5913TIP3    H217697   1.756   4.356   2.069
 5914TIP3   OH217698   4.204   6.132   0.659
 5914TIP3    H117699   4.180   6.041   0.677
 5914TIP3    H217700   4.203   6.174   0.745
 5915TIP3   OH217701   5.580   5.937   0.283
 5915TIP3    H117702   5.488   5.960   0.272
 5915TIP3    H217703   5.627   6.019   0.268
 5916TIP3   OH217704   7.025   6.482   0.204
 5916TIP3    H117705   6.998   6.571   0.228
 5916TIP3    H217706   7.104   6.494   0.151
 5917TIP3   OH217707   6.156   2.990   3.574
 5917TIP3    H117708   6.147   2.953   3.487
 5917TIP3    H217709   6.210   3.068   3.562
 5918TIP3   OH217710   0.187   2.040   3.343
 5918TIP3    H117711   0.260   2.089   3.305
 5918TIP3    H217712   0.133   2.107   3.385
 5919TIP3   OH217713   2.680   0.256   3.338
 5919TIP3    H117714   2.603   0.215   3.299
 5919TIP3    H217715   2.694   0.208   3.420
 5920TIP3   OH217716   7.742   3.457   1.127
 5920TIP3    H117717   7.810   3.476   1.191
 5920TIP3    H217718   7.665   3.435   1.180
 5921TIP3   OH217719   3.597   6.431   0.416
 5921TIP3    H117720   3.586   6.465   0.327
 5921TIP3    H217721   3.510   6.403   0.443
 5922TIP3   OH217722   7.896   3.009   6.765
 5922TIP3    H117723   7.817   2.996   6.712
 5922TIP3    H217724   7.962   2.954   6.723
 5923TIP3   OH217725   1.773   7.758   0.089
 5923TIP3    H117726   1.835   7.827   0.114
 5923TIP3    H217727   1.786   7.689   0.154
 5924TIP3   OH217728   1.971   6.925   4.660
 5924TIP3    H117729   1.964   6.929   4.755
 5924TIP3    H217730   1.881   6.923   4.629
 5925TIP3   OH217731   3.489   5.342   2.492
 5925TIP3    H117732   3.442   5.360   2.410
 5925TIP3    H217733   3.441   5.393   2.558
 5926TIP3   OH217734   8.223   4.326   6.526
 5926TIP3    H117735   8.313   4.295   6.524
 5926TIP3    H217736   8.196   4.318   6.617
 5927TIP3   OH217737   1.393   5.894   2.453
 5927TIP3    H117738   1.397   5.890   2.549
 5927TIP3    H217739   1.376   5.804   2.426
 5928TIP3   OH217740   2.504   1.316   4.035
 5928TIP3    H117741   2.520   1.224   4.057
 5928TIP3    H217742   2.586   1.360   4.055
 5929TIP3   OH217743   8.202   3.734   2.176
 5929TIP3    H117744   8.277   3.706   2.229
 5929TIP3    H217745   8.133   3.750   2.240
 5930TIP3   OH217746   2.249   3.961   4.053
 5930TIP3    H117747   2.235   3.953   3.959
 5930TIP3    H217748   2.306   4.037   4.062
 5931TIP3   OH217749   8.238   6.267   3.657
 5931TIP3    H117750   8.238   6.186   3.605
 5931TIP3    H217751   8.157   6.262   3.708
 5932TIP3   OH217752   6.291   0.273   5.772
 5932TIP3    H117753   6.243   0.212   5.828
 5932TIP3    H217754   6.234   0.287   5.697
 5933TIP3   OH217755   0.691   3.014   1.235
 5933TIP3    H117756   0.663   3.105   1.238
 5933TIP3    H217757   0.665   2.978   1.320
 5934TIP3   OH217758   0.442   2.011   1.698
 5934TIP3    H117759   0.515   2.045   1.647
 5934TIP3    H217760   0.482   1.951   1.761
 5935TIP3   OH217761   2.737   0.160   6.716
 5935TIP3    H117762   2.770   0.174   6.627
 5935TIP3    H217763   2.643   0.149   6.705
 5936TIP3   OH217764   0.294   5.616   6.483
 5936TIP3    H117765   0.203   5.591   6.471
 5936TIP3    H217766   0.344   5.538   6.459
 5937TIP3   OH217767   7.197   5.287   4.689
 5937TIP3    H117768   7.129   5.220   4.676
 5937TIP3    H217769   7.151   5.370   4.681
 5938TIP3   OH217770   6.402   5.630   0.961
 5938TIP3    H117771   6.473   5.694   0.967
 5938TIP3    H217772   6.429   5.559   1.020
 5939TIP3   OH217773   4.910   7.267   3.283
 5939TIP3    H117774   4.875   7.183   3.254
 5939TIP3    H217775   4.893   7.326   3.209
 5940TIP3   OH217776   0.935   1.398   1.215
 5940TIP3    H117777   0.896   1.327   1.266
 5940TIP3    H217778   0.947   1.360   1.128
 5941TIP3   OH217779   6.405   3.742   1.095
 5941TIP3    H117780   6.414   3.649   1.072
 5941TIP3    H217781   6.380   3.785   1.014
 5942TIP3   OH217782   5.399   6.259   1.788
 5942TIP3    H117783   5.447   6.342   1.793
 5942TIP3    H217784   5.424   6.212   1.867
 5943TIP3   OH217785   3.772   1.782   1.169
 5943TIP3    H117786   3.846   1.806   1.225
 5943TIP3    H217787   3.813   1.749   1.089
 5944TIP3   OH217788   1.948   5.069   4.340
 5944TIP3    H117789   2.017   5.003   4.326
 5944TIP3    H217790   1.870   5.018   4.361
 5945TIP3   OH217791   6.593   1.731   1.157
 5945TIP3    H117792   6.576   1.824   1.142
 5945TIP3    H217793   6.568   1.689   1.074
 5946TIP3   OH217794   3.711   4.445   0.789
 5946TIP3    H117795   3.633   4.413   0.742
 5946TIP3    H217796   3.677   4.476   0.873
 5947TIP3   OH217797   8.244   1.147   1.876
 5947TIP3    H117798   8.224   1.061   1.912
 5947TIP3    H217799   8.205   1.209   1.938
 5948TIP3   OH217800   3.223   0.625   4.911
 5948TIP3    H117801   3.153   0.690   4.906
 5948TIP3    H217802   3.247   0.608   4.820
 5949TIP3   OH217803   0.782   5.917   1.499
 5949TIP3    H117804   0.794   5.877   1.585
 5949TIP3    H217805   0.726   5.855   1.451
 5950TIP3   OH217806   6.234   6.846   5.066
 5950TIP3    H117807   6.250   6.757   5.037
 5950TIP3    H217808   6.322   6.883   5.080
 5951TIP3   OH217809   2.982   2.038   2.567
 5951TIP3    H117810   3.022   2.118   2.602
 5951TIP3    H217811   2.889   2.059   2.561
 5952TIP3   OH217812   7.463   3.873   5.875
 5952TIP3    H117813   7.501   3.949   5.831
 5952TIP3    H217814   7.392   3.908   5.928
 5953TIP3   OH217815   8.129   2.587   4.018
 5953TIP3    H117816   8.103   2.550   4.103
 5953TIP3    H217817   8.050   2.581   3.964
 5954TIP3   OH217818   8.213   2.607   6.288
 5954TIP3    H117819   8.253   2.584   6.205
 5954TIP3    H217820   8.228   2.531   6.344
 5955TIP3   OH217821   7.349   5.416   1.686
 5955TIP3    H117822   7.431   5.416   1.637
 5955TIP3    H217823   7.364   5.358   1.760
 5956TIP3   OH217824   2.929   6.966   4.917
 5956TIP3    H117825   2.900   6.924   4.837
 5956TIP3    H217826   2.926   6.898   4.984
 5957TIP3   OH217827   7.803   2.579   2.091
 5957TIP3    H117828   7.806   2.489   2.059
 5957TIP3    H217829   7.809   2.633   2.012
 5958TIP3   OH217830   7.188   6.117   0.155
 5958TIP3    H117831   7.257   6.091   0.095
 5958TIP3    H217832   7.233   6.136   0.237
 5959TIP3   OH217833   8.172   7.744   4.773
 5959TIP3    H117834   8.090   7.723   4.818
 5959TIP3    H217835   8.167   7.838   4.757
 5960TIP3   OH217836   5.886   5.218   2.559
 5960TIP3    H117837   5.795   5.243   2.543
 5960TIP3    H217838   5.935   5.300   2.550
 5961TIP3   OH217839   3.216   7.363   4.653
 5961TIP3    H117840   3.238   7.427   4.585
 5961TIP3    H217841   3.146   7.405   4.704
 5962TIP3   OH217842   2.782   5.424   4.733
 5962TIP3    H117843   2.741   5.385   4.810
 5962TIP3    H217844   2.876   5.404   4.743
 5963TIP3   OH217845   2.556   4.129   0.070
 5963TIP3    H117846   2.527   4.081  -0.007
 5963TIP3    H217847   2.647   4.153   0.052
 5964TIP3   OH217848   1.425   5.824   6.708
 5964TIP3    H117849   1.519   5.839   6.707
 5964TIP3    H217850   1.415   5.732   6.733
 5965TIP3   OH217851   3.892   0.677   1.900
 5965TIP3    H117852   3.969   0.706   1.851
 5965TIP3    H217853   3.821   0.677   1.836
 5966TIP3   OH217854   1.506   7.570   3.174
 5966TIP3    H117855   1.460   7.499   3.130
 5966TIP3    H217856   1.592   7.573   3.133
 5967TIP3   OH217857   2.155   6.966   0.419
 5967TIP3    H117858   2.135   6.903   0.350
 5967TIP3    H217859   2.249   6.953   0.435
 5968TIP3   OH217860   1.585   4.165   3.121
 5968TIP3    H117861   1.604   4.158   3.027
 5968TIP3    H217862   1.630   4.245   3.148
 5969TIP3   OH217863   2.379   2.011   2.076
 5969TIP3    H117864   2.375   1.916   2.090
 5969TIP3    H217865   2.288   2.039   2.078
 5970TIP3   OH217866   3.679   3.927   1.763
 5970TIP3    H117867   3.665   3.967   1.677
 5970TIP3    H217868   3.652   3.993   1.826
 5971TIP3   OH217869   1.654   2.796   2.806
 5971TIP3    H117870   1.668   2.805   2.712
 5971TIP3    H217871   1.565   2.828   2.820
 5972TIP3   OH217872   4.858   7.295   1.434
 5972TIP3    H117873   4.914   7.323   1.362
 5972TIP3    H217874   4.916   7.243   1.490
 5973TIP3   OH217875   3.936   7.602   0.311
 5973TIP3    H117876   4.031   7.597   0.325
 5973TIP3    H217877   3.905   7.662   0.379
 5974TIP3   OH217878   4.099   1.695   3.858
 5974TIP3    H117879   4.032   1.760   3.838
 5974TIP3    H217880   4.058   1.611   3.837
 5975TIP3   OH217881   3.313   0.230   6.609
 5975TIP3    H117882   3.288   0.138   6.605
 5975TIP3    H217883   3.336   0.245   6.700
 5976TIP3   OH217884   6.013   5.061   1.722
 5976TIP3    H117885   6.038   5.069   1.814
 5976TIP3    H217886   6.068   4.990   1.688
 5977TIP3   OH217887   2.634   1.750   3.912
 5977TIP3    H117888   2.671   1.712   3.833
 5977TIP3    H217889   2.554   1.793   3.883
 5978TIP3   OH217890   5.156   6.906   4.288
 5978TIP3    H117891   5.077   6.870   4.247
 5978TIP3    H217892   5.128   6.933   4.375
 5979TIP3   OH217893   0.413   1.734   6.495
 5979TIP3    H117894   0.466   1.655   6.505
 5979TIP3    H217895   0.395   1.762   6.585
 5980TIP3   OH217896   2.058   4.795   4.115
 5980TIP3    H117897   2.031   4.703   4.117
 5980TIP3    H217898   2.071   4.814   4.022
 5981TIP3   OH217899   2.540   6.109   5.858
 5981TIP3    H117900   2.588   6.030   5.832
 5981TIP3    H217901   2.538   6.104   5.954
 5982TIP3   OH217902   3.501   5.383   3.030
 5982TIP3    H117903   3.459   5.372   3.115
 5982TIP3    H217904   3.491   5.476   3.010
 5983TIP3   OH217905   1.574   0.599   4.158
 5983TIP3    H117906   1.499   0.590   4.217
 5983TIP3    H217907   1.534   0.618   4.072
 5984TIP3   OH217908   6.829   0.639   5.334
 5984TIP3    H117909   6.739   0.666   5.317
 5984TIP3    H217910   6.830   0.545   5.316
 5985TIP3   OH217911   2.739   0.792   4.438
 5985TIP3    H117912   2.662   0.755   4.481
 5985TIP3    H217913   2.796   0.819   4.510
 5986TIP3   OH217914   6.334   5.995   6.056
 5986TIP3    H117915   6.270   5.934   6.093
 5986TIP3    H217916   6.323   5.986   5.961
 5987TIP3   OH217917   6.662   2.416   1.687
 5987TIP3    H117918   6.664   2.327   1.654
 5987TIP3    H217919   6.578   2.423   1.734
 5988TIP3   OH217920   0.462   2.563   3.383
 5988TIP3    H117921   0.378   2.578   3.341
 5988TIP3    H217922   0.520   2.630   3.345
 5989TIP3   OH217923   5.398   4.203   1.975
 5989TIP3    H117924   5.431   4.265   2.039
 5989TIP3    H217925   5.332   4.152   2.022
 5990TIP3   OH217926   7.550   2.440   3.380
 5990TIP3    H117927   7.548   2.353   3.340
 5990TIP3    H217928   7.567   2.500   3.307
 5991TIP3   OH217929   1.941   5.804   6.077
 5991TIP3    H117930   2.013   5.836   6.132
 5991TIP3    H217931   1.869   5.865   6.094
 5992TIP3   OH217932   1.543   6.850   6.673
 5992TIP3    H117933   1.545   6.877   6.765
 5992TIP3    H217934   1.523   6.931   6.625
 5993TIP3   OH217935   1.979   2.555   0.773
 5993TIP3    H117936   2.031   2.625   0.813
 5993TIP3    H217937   1.968   2.491   0.843
 5994TIP3   OH217938   2.759   3.713   1.448
 5994TIP3    H117939   2.779   3.674   1.363
 5994TIP3    H217940   2.809   3.795   1.450
 5995TIP3   OH217941   3.451   2.604   4.757
 5995TIP3    H117942   3.468   2.654   4.837
 5995TIP3    H217943   3.502   2.523   4.768
 5996TIP3   OH217944   5.573   5.077   4.298
 5996TIP3    H117945   5.508   5.067   4.367
 5996TIP3    H217946   5.601   4.987   4.279
 5997TIP3   OH217947   2.767   2.134   1.271
 5997TIP3    H117948   2.749   2.184   1.191
 5997TIP3    H217949   2.858   2.105   1.261
 5998TIP3   OH217950   7.117   5.259   5.057
 5998TIP3    H117951   7.066   5.300   4.987
 5998TIP3    H217952   7.139   5.172   5.023
 5999TIP3   OH217953   5.320   6.672   3.863
 5999TIP3    H117954   5.225   6.656   3.867
 5999TIP3    H217955   5.329   6.742   3.798
 6000TIP3   OH217956   2.522   0.765   4.156
 6000TIP3    H117957   2.431   0.782   4.132
 6000TIP3    H217958   2.531   0.801   4.244
 6001TIP3   OH217959   6.415   5.582   1.465
 6001TIP3    H117960   6.469   5.658   1.443
 6001TIP3    H217961   6.396   5.593   1.558
 6002TIP3   OH217962   7.635   2.375   0.139
 6002TIP3    H117963   7.695   2.352   0.209
 6002TIP3    H217964   7.677   2.449   0.094
 6003TIP3   OH217965   1.925   2.071   1.049
 6003TIP3    H117966   1.939   2.056   0.955
 6003TIP3    H217967   1.918   1.983   1.086
 6004TIP3   OH217968   7.438   3.031   4.993
 6004TIP3    H117969   7.496   3.106   4.984
 6004TIP3    H217970   7.350   3.068   5.001
 6005TIP3   OH217971   7.736   2.700   5.407
 6005TIP3    H117972   7.757   2.607   5.401
 6005TIP3    H217973   7.649   2.707   5.367
 6006TIP3   OH217974   4.943   1.747   4.530
 6006TIP3    H117975   4.873   1.714   4.474
 6006TIP3    H217976   4.967   1.831   4.491
 6007TIP3   OH217977   5.714   6.869   2.048
 6007TIP3    H117978   5.675   6.956   2.054
 6007TIP3    H217979   5.784   6.870   2.114
 6008TIP3   OH217980   7.390   1.374   0.937
 6008TIP3    H117981   7.453   1.323   0.987
 6008TIP3    H217982   7.379   1.454   0.987
 6009TIP3   OH217983   0.018   0.754   4.724
 6009TIP3    H117984   0.055   0.708   4.799
 6009TIP3    H217985  -0.050   0.810   4.760
 6010TIP3   OH217986   1.201   2.032   3.154
 6010TIP3    H117987   1.106   2.028   3.146
 6010TIP3    H217988   1.224   1.958   3.210
 6011TIP3   OH217989   6.913   6.339   4.846
 6011TIP3    H117990   6.995   6.295   4.825
 6011TIP3    H217991   6.892   6.391   4.768
 6012TIP3   OH217992   5.444   0.712   2.580
 6012TIP3    H117993   5.528   0.758   2.585
 6012TIP3    H217994   5.411   0.732   2.493
 6013TIP3   OH217995   6.255   7.243   4.591
 6013TIP3    H117996   6.280   7.154   4.616
 6013TIP3    H217997   6.315   7.299   4.640
 6014TIP3   OH217998   7.700   2.108   2.993
 6014TIP3    H117999   7.634   2.056   3.040
 6014TIP3    H218000   7.767   2.045   2.968
 6015TIP3   OH218001   8.112   0.541   2.784
 6015TIP3    H118002   8.190   0.486   2.790
 6015TIP3    H218003   8.114   0.594   2.864
 6016TIP3   OH218004   7.213   2.805   6.433
 6016TIP3    H118005   7.195   2.865   6.505
 6016TIP3    H218006   7.166   2.842   6.358
 6017TIP3   OH218007   1.883   3.689   6.411
 6017TIP3    H118008   1.952   3.755   6.412
 6017TIP3    H218009   1.805   3.736   6.380
 6018TIP3   OH218010   0.836   6.651   6.446
 6018TIP3    H118011   0.898   6.720   6.420
 6018TIP3    H218012   0.763   6.661   6.385
 6019TIP3   OH218013   7.365   6.722   1.390
 6019TIP3    H118014   7.273   6.707   1.412
 6019TIP3    H218015   7.410   6.643   1.420
 6020TIP3   OH218016   1.562   5.282   2.227
 6020TIP3    H118017   1.498   5.268   2.158
 6020TIP3    H218018   1.519   5.253   2.307
 6021TIP3   OH218019   0.558   2.436   6.203
 6021TIP3    H118020   0.542   2.381   6.280
 6021TIP3    H218021   0.636   2.398   6.163
 6022TIP3   OH218022   4.505   2.963   1.203
 6022TIP3    H118023   4.540   2.990   1.288
 6022TIP3    H218024   4.570   2.901   1.170
 6023TIP3   OH218025   6.818   4.329   0.642
 6023TIP3    H118026   6.869   4.314   0.722
 6023TIP3    H218027   6.875   4.381   0.586
 6024TIP3   OH218028   2.262   1.528   2.005
 6024TIP3    H118029   2.260   1.432   1.999
 6024TIP3    H218030   2.170   1.554   2.002
 6025TIP3   OH218031   8.060   3.265   5.413
 6025TIP3    H118032   8.129   3.320   5.450
 6025TIP3    H218033   8.106   3.205   5.355
 6026TIP3   OH218034   4.566   5.313   0.852
 6026TIP3    H118035   4.557   5.286   0.760
 6026TIP3    H218036   4.604   5.401   0.847
 6027TIP3   OH218037   3.959   3.928   3.815
 6027TIP3    H118038   3.927   3.845   3.778
 6027TIP3    H218039   3.888   3.957   3.872
 6028TIP3   OH218040   5.972   3.718   0.935
 6028TIP3    H118041   6.011   3.681   1.014
 6028TIP3    H218042   5.889   3.756   0.964
 6029TIP3   OH218043   5.270   3.146   1.832
 6029TIP3    H118044   5.187   3.141   1.880
 6029TIP3    H218045   5.263   3.227   1.781
 6030TIP3   OH218046   0.175   3.514   0.159
 6030TIP3    H118047   0.128   3.498   0.241
 6030TIP3    H218048   0.114   3.487   0.091
 6031TIP3   OH218049   4.099   6.648   0.855
 6031TIP3    H118050   4.069   6.622   0.768
 6031TIP3    H218051   4.158   6.578   0.883
 6032TIP3   OH218052   2.044   4.018   2.149
 6032TIP3    H118053   2.083   4.072   2.080
 6032TIP3    H218054   2.025   3.935   2.106
 6033TIP3   OH218055   1.450   0.698   3.411
 6033TIP3    H118056   1.417   0.777   3.367
 6033TIP3    H218057   1.544   0.698   3.394
 6034TIP3   OH218058   5.877   1.209   6.054
 6034TIP3    H118059   5.962   1.165   6.054
 6034TIP3    H218060   5.878   1.263   6.134
 6035TIP3   OH218061   3.097   2.548   5.368
 6035TIP3    H118062   3.164   2.598   5.414
 6035TIP3    H218063   3.144   2.502   5.299
 6036TIP3   OH218064   1.701   6.257   6.093
 6036TIP3    H118065   1.621   6.309   6.080
 6036TIP3    H218066   1.747   6.301   6.164
 6037TIP3   OH218067   5.616   2.339   4.785
 6037TIP3    H118068   5.674   2.351   4.711
 6037TIP3    H218069   5.535   2.305   4.747
 6038TIP3   OH218070   2.349   5.971   0.767
 6038TIP3    H118071   2.347   5.880   0.736
 6038TIP3    H218072   2.257   5.996   0.773
 6039TIP3   OH218073   7.271   3.573   3.106
 6039TIP3    H118074   7.302   3.519   3.178
 6039TIP3    H218075   7.282   3.663   3.136
 6040TIP3   OH218076   3.462   3.540   2.701
 6040TIP3    H118077   3.409   3.617   2.721
 6040TIP3    H218078   3.398   3.472   2.679
 6041TIP3   OH218079   6.341   4.241   2.664
 6041TIP3    H118080   6.292   4.311   2.620
 6041TIP3    H218081   6.384   4.194   2.594
 6042TIP3   OH218082   4.000   5.885   2.627
 6042TIP3    H118083   3.939   5.926   2.566
 6042TIP3    H218084   3.956   5.805   2.656
 6043TIP3   OH218085   6.984   1.848   2.559
 6043TIP3    H118086   6.921   1.873   2.492
 6043TIP3    H218087   7.066   1.889   2.531
 6044TIP3   OH218088   4.823   5.884   0.524
 6044TIP3    H118089   4.749   5.882   0.584
 6044TIP3    H218090   4.819   5.971   0.485
 6045TIP3   OH218091   3.125   5.010   0.819
 6045TIP3    H118092   3.084   4.966   0.745
 6045TIP3    H218093   3.079   5.093   0.826
 6046TIP3   OH218094   3.464   1.148   4.183
 6046TIP3    H118095   3.495   1.237   4.164
 6046TIP3    H218096   3.539   1.106   4.225
 6047TIP3   OH218097   0.695   1.686   2.159
 6047TIP3    H118098   0.629   1.755   2.163
 6047TIP3    H218099   0.763   1.713   2.221
 6048TIP3   OH218100   4.264   4.953   1.799
 6048TIP3    H118101   4.237   4.943   1.890
 6048TIP3    H218102   4.316   4.875   1.781
 6049TIP3   OH218103   2.974   4.486   3.144
 6049TIP3    H118104   3.046   4.433   3.179
 6049TIP3    H218105   2.976   4.471   3.050
 6050TIP3   OH218106   7.675   6.968   5.685
 6050TIP3    H118107   7.592   6.981   5.640
 6050TIP3    H218108   7.656   6.901   5.751
 6051TIP3   OH218109   7.166   6.761   3.584
 6051TIP3    H118110   7.197   6.788   3.670
 6051TIP3    H218111   7.082   6.719   3.601
 6052TIP3   OH218112   1.796   0.853   2.570
 6052TIP3    H118113   1.888   0.851   2.541
 6052TIP3    H218114   1.800   0.893   2.657
 6053TIP3   OH218115   7.354   4.671   2.921
 6053TIP3    H118116   7.389   4.729   2.853
 6053TIP3    H218117   7.381   4.712   3.003
 6054TIP3   OH218118   6.952   0.390   4.013
 6054TIP3    H118119   6.881   0.325   4.014
 6054TIP3    H218120   7.027   0.344   4.051
 6055TIP3   OH218121   5.079   3.572   3.521
 6055TIP3    H118122   4.988   3.599   3.533
 6055TIP3    H218123   5.090   3.497   3.580
 6056TIP3   OH218124   3.539   6.228   2.720
 6056TIP3    H118125   3.472   6.164   2.695
 6056TIP3    H218126   3.495   6.313   2.713
 6057TIP3   OH218127   1.377   2.837   5.373
 6057TIP3    H118128   1.437   2.783   5.424
 6057TIP3    H218129   1.340   2.899   5.436
 6058TIP3   OH218130   1.406   0.948   2.659
 6058TIP3    H118131   1.461   0.948   2.737
 6058TIP3    H218132   1.467   0.953   2.585
 6059TIP3   OH218133   1.903   7.379   1.361
 6059TIP3    H118134   1.858   7.347   1.439
 6059TIP3    H218135   1.931   7.468   1.384
 6060TIP3   OH218136   5.642   6.813   5.321
 6060TIP3    H118137   5.725   6.789   5.281
 6060TIP3    H218138   5.666   6.858   5.402
 6061TIP3   OH218139   3.390   3.489   0.555
 6061TIP3    H118140   3.381   3.439   0.637
 6061TIP3    H218141   3.346   3.435   0.490
 6062TIP3   OH218142   2.984   0.134   0.798
 6062TIP3    H118143   2.934   0.213   0.815
 6062TIP3    H218144   3.072   0.154   0.829
 6063TIP3   OH218145   4.699   3.130   4.457
 6063TIP3    H118146   4.629   3.115   4.521
 6063TIP3    H218147   4.656   3.126   4.372
 6064TIP3   OH218148   0.231   4.238   6.597
 6064TIP3    H118149   0.300   4.177   6.623
 6064TIP3    H218150   0.271   4.292   6.528
 6065TIP3   OH218151   2.415   4.528   2.972
 6065TIP3    H118152   2.398   4.465   3.042
 6065TIP3    H218153   2.401   4.478   2.892
 6066TIP3   OH218154   0.883   3.790   3.762
 6066TIP3    H118155   0.844   3.842   3.833
 6066TIP3    H218156   0.931   3.720   3.808
 6067TIP3   OH218157   3.379   3.084   3.455
 6067TIP3    H118158   3.397   2.990   3.456
 6067TIP3    H218159   3.445   3.120   3.396
 6068TIP3   OH218160   6.263   7.604   2.897
 6068TIP3    H118161   6.300   7.691   2.880
 6068TIP3    H218162   6.318   7.544   2.847
 6069TIP3   OH218163   0.388   1.910   0.869
 6069TIP3    H118164   0.470   1.918   0.918
 6069TIP3    H218165   0.332   1.855   0.924
 6070TIP3   OH218166   7.105   1.353   0.444
 6070TIP3    H118167   7.074   1.411   0.514
 6070TIP3    H218168   7.030   1.342   0.387
 6071TIP3   OH218169   0.777   4.232   2.557
 6071TIP3    H118170   0.738   4.299   2.501
 6071TIP3    H218171   0.703   4.176   2.582
 6072TIP3   OH218172   5.933   2.395   4.272
 6072TIP3    H118173   5.996   2.337   4.314
 6072TIP3    H218174   5.936   2.475   4.325
 6073TIP3   OH218175   6.104   4.125   3.167
 6073TIP3    H118176   6.080   4.140   3.258
 6073TIP3    H218177   6.199   4.138   3.165
 6074TIP3   OH218178   3.253   4.067   6.266
 6074TIP3    H118179   3.206   4.137   6.310
 6074TIP3    H218180   3.297   4.109   6.192
 6075TIP3   OH218181   4.051   0.554   3.860
 6075TIP3    H118182   4.069   0.503   3.939
 6075TIP3    H218183   4.021   0.639   3.893
 6076TIP3   OH218184   0.446   2.615   2.485
 6076TIP3    H118185   0.486   2.545   2.536
 6076TIP3    H218186   0.493   2.615   2.402
 6077TIP3   OH218187   7.931   1.962   4.123
 6077TIP3    H118188   8.022   1.992   4.120
 6077TIP3    H218189   7.912   1.954   4.216
 6078TIP3   OH218190   5.789   4.459   1.105
 6078TIP3    H118191   5.807   4.366   1.114
 6078TIP3    H218192   5.838   4.500   1.176
 6079TIP3   OH218193   4.076   0.918   0.364
 6079TIP3    H118194   4.069   0.834   0.318
 6079TIP3    H218195   3.989   0.934   0.399
 6080TIP3   OH218196   2.402   0.066   1.463
 6080TIP3    H118197   2.407  -0.023   1.427
 6080TIP3    H218198   2.483   0.075   1.514
 6081TIP3   OH218199   2.738   6.342   1.379
 6081TIP3    H118200   2.687   6.261   1.372
 6081TIP3    H218201   2.829   6.314   1.371
 6082TIP3   OH218202   0.594   4.163   1.741
 6082TIP3    H118203   0.664   4.098   1.735
 6082TIP3    H218204   0.514   4.111   1.751
 6083TIP3   OH218205   6.585   1.986   2.599
 6083TIP3    H118206   6.557   1.968   2.689
 6083TIP3    H218207   6.632   2.069   2.605
 6084TIP3   OH218208   7.374   4.155   5.801
 6084TIP3    H118209   7.434   4.197   5.740
 6084TIP3    H218210   7.314   4.105   5.745
 6085TIP3   OH218211   5.724   0.012   5.779
 6085TIP3    H118212   5.815   0.017   5.809
 6085TIP3    H218213   5.715   0.087   5.720
 6086TIP3   OH218214   4.906   4.093   6.483
 6086TIP3    H118215   4.996   4.078   6.512
 6086TIP3    H218216   4.852   4.059   6.554
 6087TIP3   OH218217   2.201   7.540   0.557
 6087TIP3    H118218   2.251   7.564   0.635
 6087TIP3    H218219   2.149   7.465   0.584
 6088TIP3   OH218220   6.306   5.157   2.067
 6088TIP3    H118221   6.340   5.123   2.149
 6088TIP3    H218222   6.331   5.090   2.002
 6089TIP3   OH218223   4.198   7.305   1.868
 6089TIP3    H118224   4.144   7.376   1.902
 6089TIP3    H218225   4.288   7.338   1.872
 6090TIP3   OH218226   6.972   1.395   5.696
 6090TIP3    H118227   7.054   1.375   5.741
 6090TIP3    H218228   6.905   1.349   5.748
 6091TIP3   OH218229   0.074   5.474   4.424
 6091TIP3    H118230   0.105   5.423   4.349
 6091TIP3    H218231   0.135   5.452   4.495
 6092TIP3   OH218232   3.286   7.103   2.312
 6092TIP3    H118233   3.376   7.115   2.344
 6092TIP3    H218234   3.295   7.102   2.217
 6093TIP3   OH218235   5.087   7.046   2.716
 6093TIP3    H118236   5.057   7.086   2.797
 6093TIP3    H218237   5.126   7.118   2.666
 6094TIP3   OH218238   4.458   4.223   1.024
 6094TIP3    H118239   4.517   4.219   0.949
 6094TIP3    H218240   4.373   4.196   0.990
 6095TIP3   OH218241   7.851   4.906   1.076
 6095TIP3    H118242   7.801   4.884   0.998
 6095TIP3    H218243   7.790   4.893   1.148
 6096TIP3   OH218244   6.168   6.911   6.448
 6096TIP3    H118245   6.138   6.850   6.515
 6096TIP3    H218246   6.214   6.980   6.496
 6097TIP3   OH218247   6.993   0.147   4.430
 6097TIP3    H118248   6.948   0.086   4.488
 6097TIP3    H218249   7.079   0.108   4.415
 6098TIP3   OH218250   0.930   7.722   4.514
 6098TIP3    H118251   1.023   7.717   4.493
 6098TIP3    H218252   0.911   7.816   4.517
 6099TIP3   OH218253   1.022   7.727   3.289
 6099TIP3    H118254   0.939   7.775   3.283
 6099TIP3    H218255   1.067   7.747   3.207
 6100TIP3   OH218256   6.978   0.145   0.134
 6100TIP3    H118257   7.039   0.080   0.099
 6100TIP3    H218258   7.008   0.228   0.097
 6101TIP3   OH218259   2.822   1.343   2.494
 6101TIP3    H118260   2.873   1.294   2.558
 6101TIP3    H218261   2.866   1.427   2.486
 6102TIP3   OH218262   0.970   0.194   1.553
 6102TIP3    H118263   0.914   0.236   1.618
 6102TIP3    H218264   0.944   0.234   1.470
 6103TIP3   OH218265   6.371   5.038   0.859
 6103TIP3    H118266   6.287   5.081   0.843
 6103TIP3    H218267   6.376   4.970   0.792
 6104TIP3   OH218268   1.927   1.576   3.531
 6104TIP3    H118269   1.836   1.553   3.549
 6104TIP3    H218270   1.929   1.595   3.437
 6105TIP3   OH218271   3.046   3.513   5.097
 6105TIP3    H118272   2.982   3.574   5.061
 6105TIP3    H218273   2.994   3.455   5.153
 6106TIP3   OH218274   8.119   3.702   1.441
 6106TIP3    H118275   8.156   3.791   1.437
 6106TIP3    H218276   8.040   3.712   1.493
 6107TIP3   OH218277   6.798   4.744   3.349
 6107TIP3    H118278   6.788   4.832   3.313
 6107TIP3    H218279   6.710   4.707   3.347
 6108TIP3   OH218280   0.661   0.152   3.937
 6108TIP3    H118281   0.642   0.100   3.859
 6108TIP3    H218282   0.738   0.203   3.913
 6109TIP3   OH218283   3.214   7.197   2.564
 6109TIP3    H118284   3.136   7.249   2.544
 6109TIP3    H218285   3.238   7.157   2.480
 6110TIP3   OH218286   3.402   3.616   4.189
 6110TIP3    H118287   3.356   3.607   4.105
 6110TIP3    H218288   3.336   3.652   4.248
 6111TIP3   OH218289   6.378   5.300   1.502
 6111TIP3    H118290   6.471   5.301   1.478
 6111TIP3    H218291   6.350   5.391   1.493
 6112TIP3   OH218292   4.021   5.824   5.926
 6112TIP3    H118293   3.983   5.737   5.928
 6112TIP3    H218294   4.115   5.810   5.917
 6113TIP3   OH218295   0.145   4.122   5.105
 6113TIP3    H118296   0.178   4.065   5.035
 6113TIP3    H218297   0.183   4.085   5.185
 6114TIP3   OH218298   4.910   2.325   3.470
 6114TIP3    H118299   4.846   2.336   3.541
 6114TIP3    H218300   4.972   2.261   3.505
 6115TIP3   OH218301   3.285   3.844   6.079
 6115TIP3    H118302   3.346   3.829   6.151
 6115TIP3    H218303   3.299   3.935   6.054
 6116TIP3   OH218304   3.980   1.133   6.123
 6116TIP3    H118305   3.920   1.149   6.051
 6116TIP3    H218306   4.063   1.112   6.081
 6117TIP3   OH218307   7.015   5.373   2.540
 6117TIP3    H118308   7.083   5.391   2.475
 6117TIP3    H218309   6.994   5.459   2.577
 6118TIP3   OH218310   7.432   0.848   4.722
 6118TIP3    H118311   7.353   0.814   4.680
 6118TIP3    H218312   7.414   0.842   4.816
 6119TIP3   OH218313   5.182   3.899   1.976
 6119TIP3    H118314   5.181   3.934   2.065
 6119TIP3    H218315   5.133   3.963   1.924
 6120TIP3   OH218316   4.063   1.188   4.820
 6120TIP3    H118317   4.157   1.187   4.840
 6120TIP3    H218318   4.020   1.198   4.904
 6121TIP3   OH218319   5.586   3.317   4.676
 6121TIP3    H118320   5.638   3.239   4.693
 6121TIP3    H218321   5.501   3.299   4.716
 6122TIP3   OH218322   8.092   2.783   2.964
 6122TIP3    H118323   8.058   2.815   2.881
 6122TIP3    H218324   8.024   2.803   3.028
 6123TIP3   OH218325   5.267   7.497   6.534
 6123TIP3    H118326   5.310   7.497   6.449
 6123TIP3    H218327   5.319   7.556   6.588
 6124TIP3   OH218328   5.498   1.019   0.172
 6124TIP3    H118329   5.411   1.043   0.203
 6124TIP3    H218330   5.493   0.924   0.158
 6125TIP3   OH218331   3.947   3.647   5.097
 6125TIP3    H118332   3.864   3.600   5.096
 6125TIP3    H218333   3.931   3.726   5.046
 6126TIP3   OH218334   6.490   1.391   0.198
 6126TIP3    H118335   6.527   1.473   0.166
 6126TIP3    H218336   6.423   1.369   0.133
 6127TIP3   OH218337   7.922   0.796   4.190
 6127TIP3    H118338   7.847   0.854   4.203
 6127TIP3    H218339   7.996   0.843   4.227
 6128TIP3   OH218340   2.995   3.118   0.585
 6128TIP3    H118341   2.969   3.200   0.626
 6128TIP3    H218342   2.914   3.083   0.547
 6129TIP3   OH218343   2.644   5.718   1.605
 6129TIP3    H118344   2.573   5.697   1.544
 6129TIP3    H218345   2.714   5.657   1.581
 6130TIP3   OH218346   1.111   0.765   1.800
 6130TIP3    H118347   1.168   0.749   1.725
 6130TIP3    H218348   1.104   0.860   1.806
 6131TIP3   OH218349   7.670   1.810   3.286
 6131TIP3    H118350   7.762   1.830   3.304
 6131TIP3    H218351   7.667   1.715   3.277
 6132TIP3   OH218352   0.576   2.866   4.218
 6132TIP3    H118353   0.572   2.852   4.312
 6132TIP3    H218354   0.543   2.785   4.180
 6133TIP3   OH218355   3.881   1.480   3.803
 6133TIP3    H118356   3.796   1.520   3.785
 6133TIP3    H218357   3.867   1.430   3.884
 6134TIP3   OH218358   1.800   3.090   4.882
 6134TIP3    H118359   1.750   3.018   4.921
 6134TIP3    H218360   1.841   3.133   4.957
 6135TIP3   OH218361   7.852   5.321   4.926
 6135TIP3    H118362   7.774   5.289   4.971
 6135TIP3    H218363   7.924   5.300   4.985
 6136TIP3   OH218364   7.311   7.285   5.024
 6136TIP3    H118365   7.370   7.335   4.968
 6136TIP3    H218366   7.366   7.256   5.097
 6137TIP3   OH218367   1.183   0.599   3.413
 6137TIP3    H118368   1.171   0.509   3.384
 6137TIP3    H218369   1.274   0.620   3.392
 6138TIP3   OH218370   7.578   4.470   1.493
 6138TIP3    H118371   7.593   4.475   1.587
 6138TIP3    H218372   7.665   4.468   1.454
 6139TIP3   OH218373   1.598   4.185   3.814
 6139TIP3    H118374   1.518   4.157   3.768
 6139TIP3    H218375   1.570   4.199   3.904
 6140TIP3   OH218376   8.256   3.497   3.607
 6140TIP3    H118377   8.342   3.538   3.605
 6140TIP3    H218378   8.224   3.510   3.696
 6141TIP3   OH218379   7.259   0.036   6.563
 6141TIP3    H118380   7.286  -0.050   6.530
 6141TIP3    H218381   7.326   0.058   6.628
 6142TIP3   OH218382   2.417   5.764   4.801
 6142TIP3    H118383   2.465   5.701   4.747
 6142TIP3    H218384   2.329   5.765   4.764
 6143TIP3   OH218385   4.982   6.827   6.092
 6143TIP3    H118386   5.032   6.865   6.164
 6143TIP3    H218387   4.891   6.834   6.119
 6144TIP3   OH218388   2.613   0.667   2.309
 6144TIP3    H118389   2.623   0.756   2.342
 6144TIP3    H218390   2.700   0.627   2.318
 6145TIP3   OH218391   3.945   0.950   1.717
 6145TIP3    H118392   4.016   0.979   1.774
 6145TIP3    H218393   3.952   0.854   1.718
 6146TIP3   OH218394   6.069   6.137   5.906
 6146TIP3    H118395   6.068   6.221   5.953
 6146TIP3    H218396   6.066   6.071   5.974
 6147TIP3   OH218397   2.031   5.864   4.056
 6147TIP3    H118398   2.070   5.942   4.095
 6147TIP3    H218399   2.100   5.828   4.000
 6148TIP3   OH218400   5.553   2.413   3.178
 6148TIP3    H118401   5.573   2.435   3.269
 6148TIP3    H218402   5.589   2.486   3.128
 6149TIP3   OH218403   5.445   2.394   5.384
 6149TIP3    H118404   5.491   2.450   5.322
 6149TIP3    H218405   5.503   2.389   5.460
 6150TIP3   OH218406   1.813   3.604   1.626
 6150TIP3    H118407   1.820   3.661   1.549
 6150TIP3    H218408   1.765   3.657   1.690
 6151TIP3   OH218409   1.881   0.534   3.712
 6151TIP3    H118410   1.848   0.481   3.784
 6151TIP3    H218411   1.959   0.488   3.681
 6152TIP3   OH218412   1.519   5.978   1.017
 6152TIP3    H118413   1.455   5.971   1.088
 6152TIP3    H218414   1.580   5.905   1.032
 6153TIP3   OH218415   3.141   5.373   4.376
 6153TIP3    H118416   3.045   5.365   4.374
 6153TIP3    H218417   3.158   5.464   4.352
 6154TIP3   OH218418   5.126   0.845   4.328
 6154TIP3    H118419   5.159   0.756   4.335
 6154TIP3    H218420   5.037   0.840   4.362
 6155TIP3   OH218421   5.576   1.495   0.993
 6155TIP3    H118422   5.504   1.484   0.932
 6155TIP3    H218423   5.651   1.454   0.950
 6156TIP3   OH218424   6.155   1.371   6.618
 6156TIP3    H118425   6.170   1.281   6.647
 6156TIP3    H218426   6.102   1.410   6.687
 6157TIP3   OH218427   7.568   0.090   3.585
 6157TIP3    H118428   7.553   0.010   3.534
 6157TIP3    H218429   7.484   0.109   3.626
 6158TIP3   OH218430   7.899   0.851   5.438
 6158TIP3    H118431   7.897   0.922   5.374
 6158TIP3    H218432   7.926   0.774   5.389
 6159TIP3   OH218433   2.281   6.118   4.721
 6159TIP3    H118434   2.271   6.195   4.664
 6159TIP3    H218435   2.368   6.085   4.701
 6160TIP3   OH218436   2.159   3.783   2.540
 6160TIP3    H118437   2.069   3.761   2.518
 6160TIP3    H218438   2.188   3.841   2.469
 6161TIP3   OH218439   0.238   2.319   3.608
 6161TIP3    H118440   0.322   2.274   3.604
 6161TIP3    H218441   0.174   2.250   3.625
 6162TIP3   OH218442   5.579   3.936   1.730
 6162TIP3    H118443   5.531   3.931   1.812
 6162TIP3    H218444   5.556   3.855   1.683
 6163TIP3   OH218445   5.957   2.785   6.205
 6163TIP3    H118446   5.868   2.778   6.169
 6163TIP3    H218447   5.979   2.878   6.195
 6164TIP3   OH218448   5.596   3.321   2.333
 6164TIP3    H118449   5.609   3.235   2.375
 6164TIP3    H218450   5.552   3.301   2.251
 6165TIP3   OH218451   6.718   0.356   5.299
 6165TIP3    H118452   6.730   0.266   5.270
 6165TIP3    H218453   6.665   0.349   5.378
 6166TIP3   OH218454   1.166   7.009   2.888
 6166TIP3    H118455   1.197   7.049   2.807
 6166TIP3    H218456   1.234   7.029   2.952
 6167TIP3   OH218457   4.821   7.584   0.629
 6167TIP3    H118458   4.878   7.599   0.705
 6167TIP3    H218459   4.875   7.607   0.553
 6168TIP3   OH218460   4.139   3.302   1.842
 6168TIP3    H118461   4.155   3.388   1.804
 6168TIP3    H218462   4.224   3.259   1.844
 6169TIP3   OH218463   7.695   1.625   2.716
 6169TIP3    H118464   7.639   1.659   2.646
 6169TIP3    H218465   7.698   1.531   2.700
 6170TIP3   OH218466   7.103   7.487   4.818
 6170TIP3    H118467   7.164   7.417   4.843
 6170TIP3    H218468   7.060   7.512   4.900
 6171TIP3   OH218469   1.337   5.333   4.549
 6171TIP3    H118470   1.407   5.397   4.536
 6171TIP3    H218471   1.267   5.361   4.490
 6172TIP3   OH218472   2.829   3.729   5.950
 6172TIP3    H118473   2.818   3.634   5.958
 6172TIP3    H218474   2.922   3.744   5.964
 6173TIP3   OH218475   4.996   6.550   0.728
 6173TIP3    H118476   5.054   6.615   0.688
 6173TIP3    H218477   4.940   6.601   0.786
 6174TIP3   OH218478   1.608   3.845   6.441
 6174TIP3    H118479   1.513   3.845   6.431
 6174TIP3    H218480   1.638   3.924   6.395
 6175TIP3   OH218481   5.919   3.912   3.848
 6175TIP3    H118482   5.824   3.918   3.852
 6175TIP3    H218483   5.948   3.939   3.935
 6176TIP3   OH218484   0.908   3.990   4.346
 6176TIP3    H118485   0.949   3.944   4.419
 6176TIP3    H218486   0.831   4.033   4.383
 6177TIP3   OH218487   4.263   6.050   3.470
 6177TIP3    H118488   4.256   6.004   3.554
 6177TIP3    H218489   4.336   6.008   3.425
 6178TIP3   OH218490   2.654   0.194   4.708
 6178TIP3    H118491   2.622   0.248   4.635
 6178TIP3    H218492   2.670   0.257   4.778
 6179TIP3   OH218493   3.467   3.964   1.189
 6179TIP3    H118494   3.413   4.035   1.224
 6179TIP3    H218495   3.410   3.887   1.194
 6180TIP3   OH218496   2.020   3.140   6.268
 6180TIP3    H118497   2.096   3.196   6.281
 6180TIP3    H218498   1.957   3.169   6.334
 6181TIP3   OH218499   1.625   0.039   1.422
 6181TIP3    H118500   1.686  -0.016   1.470
 6181TIP3    H218501   1.551   0.050   1.481
 6182TIP3   OH218502   2.914   4.409   1.899
 6182TIP3    H118503   2.841   4.377   1.845
 6182TIP3    H218504   2.872   4.461   1.967
 6183TIP3   OH218505   5.643   3.326   0.848
 6183TIP3    H118506   5.552   3.327   0.878
 6183TIP3    H218507   5.678   3.243   0.879
 6184TIP3   OH218508   2.644   4.890   5.096
 6184TIP3    H118509   2.560   4.892   5.141
 6184TIP3    H218510   2.690   4.968   5.127
 6185TIP3   OH218511   6.517   3.424   6.115
 6185TIP3    H118512   6.605   3.410   6.149
 6185TIP3    H218513   6.524   3.504   6.063
 6186TIP3   OH218514   3.301   1.473   3.530
 6186TIP3    H118515   3.275   1.386   3.501
 6186TIP3    H218516   3.289   1.529   3.453
 6187TIP3   OH218517   0.106   1.622   4.485
 6187TIP3    H118518   0.086   1.641   4.576
 6187TIP3    H218519   0.183   1.564   4.489
 6188TIP3   OH218520   0.247   2.232   1.455
 6188TIP3    H118521   0.339   2.240   1.430
 6188TIP3    H218522   0.201   2.287   1.391
 6189TIP3   OH218523   4.857   6.394   3.785
 6189TIP3    H118524   4.856   6.483   3.750
 6189TIP3    H218525   4.941   6.386   3.830
 6190TIP3   OH218526   4.677   1.006   2.518
 6190TIP3    H118527   4.694   0.966   2.603
 6190TIP3    H218528   4.582   1.022   2.518
 6191TIP3   OH218529   0.981   1.275   2.978
 6191TIP3    H118530   0.949   1.186   2.962
 6191TIP3    H218531   0.942   1.301   3.061
 6192TIP3   OH218532   2.492   1.416   0.134
 6192TIP3    H118533   2.487   1.374   0.220
 6192TIP3    H218534   2.500   1.509   0.154
 6193TIP3   OH218535   2.420   3.877   0.526
 6193TIP3    H118536   2.495   3.932   0.506
 6193TIP3    H218537   2.450   3.820   0.597
 6194TIP3   OH218538   4.667   4.226   3.580
 6194TIP3    H118539   4.600   4.204   3.645
 6194TIP3    H218540   4.708   4.305   3.615
 6195TIP3   OH218541   5.460   2.511   4.954
 6195TIP3    H118542   5.497   2.467   4.877
 6195TIP3    H218543   5.460   2.603   4.930
 6196TIP3   OH218544   1.809   7.597   2.240
 6196TIP3    H118545   1.832   7.666   2.178
 6196TIP3    H218546   1.847   7.517   2.203
 6197TIP3   OH218547   0.111   1.463   0.565
 6197TIP3    H118548   0.200   1.497   0.561
 6197TIP3    H218549   0.122   1.368   0.562
 6198TIP3   OH218550   6.834   4.447   5.066
 6198TIP3    H118551   6.763   4.409   5.015
 6198TIP3    H218552   6.904   4.464   5.003
 6199TIP3   OH218553   4.496   4.056   4.233
 6199TIP3    H118554   4.462   4.118   4.298
 6199TIP3    H218555   4.477   3.970   4.269
 6200TIP3   OH218556   4.585   0.073   6.130
 6200TIP3    H118557   4.511   0.025   6.092
 6200TIP3    H218558   4.545   0.134   6.192
 6201TIP3   OH218559   5.837   1.587   5.505
 6201TIP3    H118560   5.744   1.612   5.510
 6201TIP3    H218561   5.840   1.521   5.435
 6202TIP3   OH218562   7.476   4.075   6.346
 6202TIP3    H118563   7.548   4.013   6.347
 6202TIP3    H218564   7.433   4.061   6.261
 6203TIP3   OH218565   3.699   2.157   2.195
 6203TIP3    H118566   3.610   2.126   2.176
 6203TIP3    H218567   3.730   2.196   2.113
 6204TIP3   OH218568   7.125   7.516   1.724
 6204TIP3    H118569   7.128   7.505   1.629
 6204TIP3    H218570   7.217   7.526   1.749
 6205TIP3   OH218571   6.323   3.747   3.160
 6205TIP3    H118572   6.235   3.777   3.138
 6205TIP3    H218573   6.311   3.691   3.236
 6206TIP3   OH218574   1.643   3.292   2.454
 6206TIP3    H118575   1.629   3.386   2.468
 6206TIP3    H218576   1.557   3.260   2.426
 6207TIP3   OH218577   5.818   4.060   5.984
 6207TIP3    H118578   5.865   3.984   5.949
 6207TIP3    H218579   5.769   4.026   6.058
 6208TIP3   OH218580   2.263   2.692   4.291
 6208TIP3    H118581   2.266   2.599   4.315
 6208TIP3    H218582   2.230   2.736   4.369
 6209TIP3   OH218583   5.748   3.415   1.460
 6209TIP3    H118584   5.801   3.378   1.389
 6209TIP3    H218585   5.803   3.405   1.538
 6210TIP3   OH218586   6.939   3.587   5.456
 6210TIP3    H118587   6.847   3.561   5.454
 6210TIP3    H218588   6.983   3.516   5.502
 6211TIP3   OH218589   0.164   5.299   2.631
 6211TIP3    H118590   0.135   5.221   2.583
 6211TIP3    H218591   0.244   5.326   2.585
 6212TIP3   OH218592   7.911   3.437   3.045
 6212TIP3    H118593   8.006   3.426   3.050
 6212TIP3    H218594   7.893   3.448   2.951
 6213TIP3   OH218595   2.210   3.426   0.833
 6213TIP3    H118596   2.183   3.361   0.767
 6213TIP3    H218597   2.136   3.430   0.893
 6214TIP3   OH218598   6.331   4.574   2.294
 6214TIP3    H118599   6.398   4.545   2.231
 6214TIP3    H218600   6.374   4.641   2.346
 6215TIP3   OH218601   3.912   6.084   5.410
 6215TIP3    H118602   3.823   6.093   5.446
 6215TIP3    H218603   3.946   6.005   5.451
 6216TIP3   OH218604   2.077   0.476   4.755
 6216TIP3    H118605   2.018   0.524   4.814
 6216TIP3    H218606   2.159   0.525   4.758
 6217TIP3   OH218607   6.598   6.171   4.820
 6217TIP3    H118608   6.591   6.254   4.868
 6217TIP3    H218609   6.577   6.105   4.886
 6218TIP3   OH218610   3.163   3.185   0.158
 6218TIP3    H118611   3.177   3.212   0.067
 6218TIP3    H218612   3.097   3.247   0.191
 6219TIP3   OH218613   0.418   5.373   6.416
 6219TIP3    H118614   0.404   5.295   6.361
 6219TIP3    H218615   0.434   5.337   6.503
 6220TIP3   OH218616   7.530   1.157   1.015
 6220TIP3    H118617   7.447   1.124   1.050
 6220TIP3    H218618   7.588   1.160   1.091
 6221TIP3   OH218619   4.149   4.066   2.223
 6221TIP3    H118620   4.105   4.019   2.294
 6221TIP3    H218621   4.239   4.078   2.254
 6222TIP3   OH218622   4.105   0.761   2.135
 6222TIP3    H118623   4.182   0.816   2.118
 6222TIP3    H218624   4.138   0.692   2.193
 6223TIP3   OH218625   0.261   1.690   1.903
 6223TIP3    H118626   0.272   1.610   1.851
 6223TIP3    H218627   0.243   1.659   1.992
 6224TIP3   OH218628   4.637   4.003   2.730
 6224TIP3    H118629   4.723   4.045   2.718
 6224TIP3    H218630   4.590   4.061   2.789
 6225TIP3   OH218631   2.756   2.296   3.043
 6225TIP3    H118632   2.763   2.317   3.136
 6225TIP3    H218633   2.679   2.344   3.013
 6226TIP3   OH218634   0.262   0.494   3.281
 6226TIP3    H118635   0.206   0.417   3.280
 6226TIP3    H218636   0.335   0.471   3.338
 6227TIP3   OH218637   6.784   4.672   0.437
 6227TIP3    H118638   6.833   4.725   0.500
 6227TIP3    H218639   6.835   4.592   0.428
 6228TIP3   OH218640   3.103   6.655   6.037
 6228TIP3    H118641   3.165   6.725   6.059
 6228TIP3    H218642   3.056   6.687   5.960
 6229TIP3   OH218643   7.472   4.614   1.151
 6229TIP3    H118644   7.392   4.566   1.130
 6229TIP3    H218645   7.460   4.700   1.110
 6230TIP3   OH218646   6.660   5.858   3.767
 6230TIP3    H118647   6.596   5.930   3.762
 6230TIP3    H218648   6.671   5.842   3.861
 6231TIP3   OH218649   3.002   7.259   5.546
 6231TIP3    H118650   3.030   7.265   5.455
 6231TIP3    H218651   2.907   7.247   5.542
 6232TIP3   OH218652   6.846   0.144   0.509
 6232TIP3    H118653   6.838   0.235   0.537
 6232TIP3    H218654   6.796   0.095   0.574
 6233TIP3   OH218655   4.681   0.399   6.105
 6233TIP3    H118656   4.656   0.434   6.191
 6233TIP3    H218657   4.610   0.426   6.047
 6234TIP3   OH218658   7.912   3.307   4.234
 6234TIP3    H118659   7.915   3.366   4.158
 6234TIP3    H218660   7.968   3.233   4.208
 6235TIP3   OH218661   7.236   7.366   0.440
 6235TIP3    H118662   7.287   7.441   0.410
 6235TIP3    H218663   7.157   7.367   0.387
 6236TIP3   OH218664   0.416   0.116   6.637
 6236TIP3    H118665   0.476   0.167   6.583
 6236TIP3    H218666   0.330   0.151   6.617
 6237TIP3   OH218667   1.033   6.217   0.285
 6237TIP3    H118668   0.972   6.222   0.358
 6237TIP3    H218669   1.025   6.301   0.241
 6238TIP3   OH218670   3.474   5.534   3.809
 6238TIP3    H118671   3.506   5.503   3.893
 6238TIP3    H218672   3.554   5.548   3.757
 6239TIP3   OH218673   4.917   7.077   5.777
 6239TIP3    H118674   4.907   6.982   5.786
 6239TIP3    H218675   4.963   7.088   5.694
 6240TIP3   OH218676   5.681   6.310   4.693
 6240TIP3    H118677   5.628   6.234   4.671
 6240TIP3    H218678   5.705   6.347   4.608
 6241TIP3   OH218679   4.407   2.057   5.592
 6241TIP3    H118680   4.411   2.151   5.572
 6241TIP3    H218681   4.384   2.053   5.685
 6242TIP3   OH218682   5.769   1.975   5.981
 6242TIP3    H118683   5.795   1.927   6.060
 6242TIP3    H218684   5.747   1.907   5.918
 6243TIP3   OH218685   4.834   7.670   1.305
 6243TIP3    H118686   4.789   7.698   1.384
 6243TIP3    H218687   4.924   7.698   1.317
 6244TIP3   OH218688   4.150   2.958   4.237
 6244TIP3    H118689   4.101   2.924   4.162
 6244TIP3    H218690   4.121   3.049   4.246
 6245TIP3   OH218691   6.582   6.698   6.653
 6245TIP3    H118692   6.633   6.640   6.595
 6245TIP3    H218693   6.506   6.723   6.601
 6246TIP3   OH218694   3.329   1.202   3.730
 6246TIP3    H118695   3.400   1.229   3.788
 6246TIP3    H218696   3.341   1.108   3.718
 6247TIP3   OH218697   6.322   0.856   3.911
 6247TIP3    H118698   6.300   0.819   3.826
 6247TIP3    H218699   6.332   0.780   3.968
 6248TIP3   OH218700   7.889   7.732   6.490
 6248TIP3    H118701   7.937   7.692   6.418
 6248TIP3    H218702   7.807   7.683   6.494
 6249TIP3   OH218703   2.646   5.165   3.519
 6249TIP3    H118704   2.729   5.207   3.496
 6249TIP3    H218705   2.661   5.072   3.502
 6250TIP3   OH218706   0.586   1.503   3.453
 6250TIP3    H118707   0.643   1.461   3.517
 6250TIP3    H218708   0.600   1.596   3.466
 6251TIP3   OH218709   1.825   2.409   0.419
 6251TIP3    H118710   1.803   2.472   0.488
 6251TIP3    H218711   1.747   2.356   0.409
 6252TIP3   OH218712   8.096   6.744   2.316
 6252TIP3    H118713   8.117   6.837   2.305
 6252TIP3    H218714   8.177   6.698   2.291
 6253TIP3   OH218715   1.295   4.883   1.499
 6253TIP3    H118716   1.325   4.817   1.437
 6253TIP3    H218717   1.256   4.951   1.445
 6254TIP3   OH218718   1.217   5.270   5.748
 6254TIP3    H118719   1.170   5.214   5.686
 6254TIP3    H218720   1.241   5.212   5.820
 6255TIP3   OH218721   0.213   4.756   1.214
 6255TIP3    H118722   0.122   4.765   1.240
 6255TIP3    H218723   0.262   4.756   1.296
 6256TIP3   OH218724   2.572   0.962   2.299
 6256TIP3    H118725   2.607   0.933   2.215
 6256TIP3    H218726   2.535   1.049   2.281
 6257TIP3   OH218727   1.094   7.072   5.382
 6257TIP3    H118728   1.080   7.164   5.407
 6257TIP3    H218729   1.006   7.039   5.364
 6258TIP3   OH218730   6.971   1.851   0.251
 6258TIP3    H118731   7.020   1.933   0.240
 6258TIP3    H218732   6.884   1.871   0.217
 6259TIP3   OH218733   2.645   0.566   0.734
 6259TIP3    H118734   2.575   0.511   0.699
 6259TIP3    H218735   2.600   0.626   0.794
 6260TIP3   OH218736   4.605   6.374   3.518
 6260TIP3    H118737   4.512   6.363   3.534
 6260TIP3    H218738   4.646   6.299   3.562
 6261TIP3   OH218739   3.724   2.707   5.191
 6261TIP3    H118740   3.718   2.660   5.275
 6261TIP3    H218741   3.816   2.732   5.185
 6262TIP3   OH218742   6.951   6.039   4.244
 6262TIP3    H118743   6.899   5.990   4.308
 6262TIP3    H218744   7.007   6.095   4.297
 6263TIP3   OH218745   3.780   7.261   5.094
 6263TIP3    H118746   3.819   7.205   5.162
 6263TIP3    H218747   3.688   7.266   5.118
 6264TIP3   OH218748   7.428   7.326   6.247
 6264TIP3    H118749   7.459   7.361   6.331
 6264TIP3    H218750   7.334   7.340   6.249
 6265TIP3   OH218751   6.898   3.477   2.238
 6265TIP3    H118752   6.825   3.433   2.194
 6265TIP3    H218753   6.863   3.563   2.261
 6266TIP3   OH218754   5.671   4.814   4.306
 6266TIP3    H118755   5.639   4.728   4.333
 6266TIP3    H218756   5.746   4.796   4.249
 6267TIP3   OH218757   7.318   0.941   2.816
 6267TIP3    H118758   7.290   0.879   2.883
 6267TIP3    H218759   7.236   0.975   2.780
 6268TIP3   OH218760   7.995   3.129   0.082
 6268TIP3    H118761   8.041   3.213   0.089
 6268TIP3    H218762   8.063   3.064   0.098
 6269TIP3   OH218763   0.649   6.659   0.090
 6269TIP3    H118764   0.738   6.654   0.057
 6269TIP3    H218765   0.635   6.576   0.136
 6270TIP3   OH218766   6.780   4.298   6.103
 6270TIP3    H118767   6.738   4.218   6.073
 6270TIP3    H218768   6.859   4.306   6.049
 6271TIP3   OH218769   6.943   4.836   0.611
 6271TIP3    H118770   7.008   4.778   0.649
 6271TIP3    H218771   6.984   4.923   0.611
 6272TIP3   OH218772   7.273   0.938   4.175
 6272TIP3    H118773   7.289   0.844   4.166
 6272TIP3    H218774   7.328   0.978   4.107
 6273TIP3   OH218775   6.177   0.199   6.313
 6273TIP3    H118776   6.218   0.167   6.394
 6273TIP3    H218777   6.241   0.181   6.245
 6274TIP3   OH218778   1.306   1.319   5.677
 6274TIP3    H118779   1.348   1.282   5.600
 6274TIP3    H218780   1.214   1.331   5.652
 6275TIP3   OH218781   0.767   5.808   4.192
 6275TIP3    H118782   0.837   5.794   4.128
 6275TIP3    H218783   0.798   5.765   4.271
 6276TIP3   OH218784   2.437   3.060   0.047
 6276TIP3    H118785   2.366   3.016   0.001
 6276TIP3    H218786   2.449   3.143   0.000
 6277TIP3   OH218787   3.625   3.011   2.814
 6277TIP3    H118788   3.608   3.092   2.766
 6277TIP3    H218789   3.718   2.992   2.798
 6278TIP3   OH218790   3.649   2.890   4.645
 6278TIP3    H118791   3.593   2.814   4.664
 6278TIP3    H218792   3.632   2.909   4.552
 6279TIP3   OH218793   5.321   5.952   0.058
 6279TIP3    H118794   5.414   5.957   0.036
 6279TIP3    H218795   5.312   6.005   0.138
 6280TIP3   OH218796   4.691   5.049   1.788
 6280TIP3    H118797   4.674   5.010   1.874
 6280TIP3    H218798   4.680   4.977   1.727
 6281TIP3   OH218799   1.645   2.895   6.377
 6281TIP3    H118800   1.653   2.813   6.329
 6281TIP3    H218801   1.560   2.887   6.422
 6282TIP3   OH218802   0.968   7.702   0.064
 6282TIP3    H118803   0.919   7.677  -0.014
 6282TIP3    H218804   1.059   7.682   0.043
 6283TIP3   OH218805   7.922   6.415   1.890
 6283TIP3    H118806   7.970   6.497   1.892
 6283TIP3    H218807   7.938   6.379   1.803
 6284TIP3   OH218808   0.458   2.225   5.304
 6284TIP3    H118809   0.447   2.154   5.368
 6284TIP3    H218810   0.537   2.202   5.256
 6285TIP3   OH218811   3.763   3.860   2.843
 6285TIP3    H118812   3.702   3.913   2.791
 6285TIP3    H218813   3.742   3.883   2.934
 6286TIP3   OH218814   7.298   2.017   2.732
 6286TIP3    H118815   7.348   2.097   2.714
 6286TIP3    H218816   7.280   1.980   2.646
 6287TIP3   OH218817   4.365   3.171   0.045
 6287TIP3    H118818   4.404   3.084   0.049
 6287TIP3    H218819   4.337   3.188   0.135
 6288TIP3   OH218820   6.208   6.791   2.174
 6288TIP3    H118821   6.285   6.832   2.213
 6288TIP3    H218822   6.195   6.711   2.225
 6289TIP3   OH218823   5.594   0.251   0.875
 6289TIP3    H118824   5.573   0.340   0.904
 6289TIP3    H218825   5.689   0.244   0.886
 6290TIP3   OH218826   7.894   2.584   3.261
 6290TIP3    H118827   7.973   2.628   3.290
 6290TIP3    H218828   7.823   2.628   3.309
 6291TIP3   OH218829   6.096   6.606   5.636
 6291TIP3    H118830   6.013   6.559   5.634
 6291TIP3    H218831   6.128   6.604   5.546
 6292TIP3   OH218832   0.103   5.875   5.142
 6292TIP3    H118833   0.078   5.822   5.218
 6292TIP3    H218834   0.172   5.824   5.099
 6293TIP3   OH218835   1.840   4.642   1.072
 6293TIP3    H118836   1.897   4.614   1.144
 6293TIP3    H218837   1.823   4.734   1.089
 6294TIP3   OH218838   2.896   3.565   2.898
 6294TIP3    H118839   2.867   3.508   2.826
 6294TIP3    H218840   2.960   3.624   2.857
 6295TIP3   OH218841   0.276   5.099   2.497
 6295TIP3    H118842   0.283   5.175   2.439
 6295TIP3    H218843   0.359   5.098   2.544
 6296TIP3   OH218844   3.730   7.171   4.828
 6296TIP3    H118845   3.638   7.168   4.852
 6296TIP3    H218846   3.775   7.205   4.906
 6297TIP3   OH218847   1.224   0.962   5.156
 6297TIP3    H118848   1.200   0.895   5.220
 6297TIP3    H218849   1.210   1.045   5.202
 6298TIP3   OH218850   4.269   5.109   1.550
 6298TIP3    H118851   4.237   5.049   1.616
 6298TIP3    H218852   4.279   5.056   1.471
 6299TIP3   OH218853   4.695   3.303   2.003
 6299TIP3    H118854   4.607   3.265   2.004
 6299TIP3    H218855   4.681   3.397   2.000
 6300TIP3   OH218856   7.285   1.952   4.631
 6300TIP3    H118857   7.290   1.878   4.571
 6300TIP3    H218858   7.372   1.993   4.627
 6301TIP3   OH218859   1.485  -0.031   0.397
 6301TIP3    H118860   1.444   0.051   0.425
 6301TIP3    H218861   1.543  -0.006   0.326
 6302TIP3   OH218862   5.283   5.716   5.086
 6302TIP3    H118863   5.189   5.706   5.100
 6302TIP3    H218864   5.301   5.669   5.004
 6303TIP3   OH218865   0.077   3.229   4.875
 6303TIP3    H118866   0.029   3.201   4.953
 6303TIP3    H218867   0.158   3.268   4.908
 6304TIP3   OH218868   4.035   6.907   6.774
 6304TIP3    H118869   4.115   6.910   6.827
 6304TIP3    H218870   4.062   6.868   6.692
 6305TIP3   OH218871   5.061   0.843   1.520
 6305TIP3    H118872   5.064   0.768   1.461
 6305TIP3    H218873   5.070   0.919   1.462
 6306TIP3   OH218874   7.080   2.555   4.676
 6306TIP3    H118875   7.109   2.538   4.586
 6306TIP3    H218876   7.149   2.518   4.731
 6307TIP3   OH218877   5.736   6.273   4.096
 6307TIP3    H118878   5.791   6.254   4.019
 6307TIP3    H218879   5.649   6.242   4.070
 6308TIP3   OH218880   7.028   7.376   6.029
 6308TIP3    H118881   7.062   7.297   5.986
 6308TIP3    H218882   6.934   7.363   6.032
 6309TIP3   OH218883   1.472   1.862   5.020
 6309TIP3    H118884   1.453   1.775   4.985
 6309TIP3    H218885   1.386   1.898   5.042
 6310TIP3   OH218886   0.013   6.928   0.980
 6310TIP3    H118887   0.039   7.020   0.980
 6310TIP3    H218888   0.073   6.886   1.042
 6311TIP3   OH218889   3.055   4.757   4.071
 6311TIP3    H118890   2.979   4.794   4.027
 6311TIP3    H218891   3.123   4.756   4.004
 6312TIP3   OH218892   4.574   2.921   6.587
 6312TIP3    H118893   4.570   2.910   6.492
 6312TIP3    H218894   4.664   2.899   6.609
 6313TIP3   OH218895   6.305   7.560   5.130
 6313TIP3    H118896   6.310   7.655   5.116
 6313TIP3    H218897   6.382   7.526   5.084
 6314TIP3   OH218898   5.661   4.214   3.298
 6314TIP3    H118899   5.644   4.127   3.334
 6314TIP3    H218900   5.740   4.204   3.246
 6315TIP3   OH218901   2.616   4.798   3.879
 6315TIP3    H118902   2.656   4.774   3.796
 6315TIP3    H218903   2.529   4.830   3.856
 6316TIP3   OH218904   7.294   3.930   5.386
 6316TIP3    H118905   7.245   3.863   5.433
 6316TIP3    H218906   7.228   3.977   5.335
 6317TIP3   OH218907   7.213   4.326   4.626
 6317TIP3    H118908   7.178   4.299   4.711
 6317TIP3    H218909   7.194   4.253   4.568
 6318TIP3   OH218910   0.395   0.181   1.043
 6318TIP3    H118911   0.470   0.121   1.048
 6318TIP3    H218912   0.337   0.141   0.979
 6319TIP3   OH218913   3.864   2.412   5.833
 6319TIP3    H118914   3.935   2.433   5.894
 6319TIP3    H218915   3.785   2.443   5.876
 6320TIP3   OH218916   7.762   3.780   3.631
 6320TIP3    H118917   7.788   3.797   3.540
 6320TIP3    H218918   7.836   3.731   3.668
 6321TIP3   OH218919   3.079   0.432   3.535
 6321TIP3    H118920   3.006   0.454   3.478
 6321TIP3    H218921   3.157   0.457   3.486
 6322TIP3   OH218922   7.274   5.388   0.765
 6322TIP3    H118923   7.311   5.339   0.692
 6322TIP3    H218924   7.348   5.438   0.800
 6323TIP3   OH218925   5.473   1.952   1.288
 6323TIP3    H118926   5.531   2.025   1.309
 6323TIP3    H218927   5.513   1.911   1.211
 6324TIP3   OH218928   3.262   3.212   6.022
 6324TIP3    H118929   3.289   3.293   5.980
 6324TIP3    H218930   3.265   3.232   6.116
 6325TIP3   OH218931   0.982   2.529   2.944
 6325TIP3    H118932   0.975   2.467   3.017
 6325TIP3    H218933   0.894   2.533   2.908
 6326TIP3   OH218934   0.310   1.658   3.824
 6326TIP3    H118935   0.225   1.688   3.792
 6326TIP3    H218936   0.345   1.603   3.754
 6327TIP3   OH218937   1.913   1.807   1.206
 6327TIP3    H118938   1.960   1.772   1.281
 6327TIP3    H218939   1.822   1.781   1.220
 6328TIP3   OH218940   0.681   4.691   0.513
 6328TIP3    H118941   0.647   4.763   0.460
 6328TIP3    H218942   0.669   4.721   0.603
 6329TIP3   OH218943   3.902   7.691   3.183
 6329TIP3    H118944   3.834   7.661   3.122
 6329TIP3    H218945   3.977   7.711   3.127
 6330TIP3   OH218946   0.753   0.480   5.720
 6330TIP3    H118947   0.705   0.399   5.708
 6330TIP3    H218948   0.686   0.546   5.736
 6331TIP3   OH218949   2.089   1.631   5.410
 6331TIP3    H118950   2.146   1.576   5.355
 6331TIP3    H218951   2.002   1.592   5.400
 6332TIP3   OH218952   1.970   3.189   1.012
 6332TIP3    H118953   1.934   3.169   1.098
 6332TIP3    H218954   1.999   3.280   1.019
 6333TIP3   OH218955   5.958   5.683   5.124
 6333TIP3    H118956   6.044   5.694   5.165
 6333TIP3    H218957   5.896   5.687   5.197
 6334TIP3   OH218958   7.126   1.106   3.565
 6334TIP3    H118959   7.127   1.128   3.472
 6334TIP3    H218960   7.219   1.108   3.591
 6335TIP3   OH218961   1.767   4.986   6.662
 6335TIP3    H118962   1.776   5.081   6.658
 6335TIP3    H218963   1.678   4.969   6.633
 6336TIP3   OH218964   0.014   0.293   4.475
 6336TIP3    H118965  -0.042   0.369   4.486
 6336TIP3    H218966   0.103   0.328   4.479
 6337TIP3   OH218967   4.170   6.297   1.664
 6337TIP3    H118968   4.208   6.292   1.576
 6337TIP3    H218969   4.192   6.385   1.694
 6338TIP3   OH218970   3.567   1.196   1.797
 6338TIP3    H118971   3.597   1.245   1.873
 6338TIP3    H218972   3.592   1.106   1.815
 6339TIP3   OH218973   1.070   3.758   3.547
 6339TIP3    H118974   1.034   3.672   3.523
 6339TIP3    H218975   1.019   3.785   3.624
 6340TIP3   OH218976   0.445   2.307   1.703
 6340TIP3    H118977   0.387   2.362   1.755
 6340TIP3    H218978   0.426   2.218   1.733
 6341TIP3   OH218979   8.071   3.111   1.414
 6341TIP3    H118980   8.092   3.173   1.484
 6341TIP3    H218981   8.106   3.151   1.335
 6342TIP3   OH218982   1.531   5.265   3.238
 6342TIP3    H118983   1.483   5.278   3.320
 6342TIP3    H218984   1.472   5.297   3.170
 6343TIP3   OH218985   4.164   2.442   1.554
 6343TIP3    H118986   4.156   2.362   1.502
 6343TIP3    H218987   4.133   2.511   1.496
 6344TIP3   OH218988   4.875   3.602   4.826
 6344TIP3    H118989   4.788   3.640   4.813
 6344TIP3    H218990   4.901   3.631   4.914
 6345TIP3   OH218991   4.632   6.852   4.638
 6345TIP3    H118992   4.598   6.778   4.587
 6345TIP3    H218993   4.628   6.926   4.578
 6346TIP3   OH218994   5.418   5.697   2.272
 6346TIP3    H118995   5.471   5.772   2.245
 6346TIP3    H218996   5.463   5.621   2.234
 6347TIP3   OH218997   6.339   7.534   6.021
 6347TIP3    H118998   6.348   7.627   6.042
 6347TIP3    H218999   6.319   7.532   5.927
 6348TIP3   OH219000   1.890   0.071   2.242
 6348TIP3    H119001   1.909  -0.016   2.205
 6348TIP3    H219002   1.800   0.089   2.216
 6349TIP3   OH219003   0.171   1.950   1.961
 6349TIP3    H119004   0.143   1.914   2.045
 6349TIP3    H219005   0.161   1.878   1.899
 6350TIP3   OH219006   5.413   1.349   1.203
 6350TIP3    H119007   5.341   1.355   1.266
 6350TIP3    H219008   5.462   1.431   1.215
 6351TIP3   OH219009   3.137   5.970   4.826
 6351TIP3    H119010   3.200   6.038   4.800
 6351TIP3    H219011   3.160   5.951   4.917
 6352TIP3   OH219012   2.375   2.756   4.041
 6352TIP3    H119013   2.322   2.725   3.967
 6352TIP3    H219014   2.328   2.723   4.118
 6353TIP3   OH219015   7.960   2.657   5.090
 6353TIP3    H119016   7.997   2.735   5.049
 6353TIP3    H219017   7.868   2.658   5.064
 6354TIP3   OH219018   5.589   6.851   6.200
 6354TIP3    H119019   5.638   6.782   6.155
 6354TIP3    H219020   5.629   6.856   6.287
 6355TIP3   OH219021   4.678   6.941   2.044
 6355TIP3    H119022   4.631   7.023   2.029
 6355TIP3    H219023   4.700   6.910   1.956
 6356TIP3   OH219024   2.751   3.062   4.264
 6356TIP3    H119025   2.691   3.026   4.198
 6356TIP3    H219026   2.779   3.146   4.228
 6357TIP3   OH219027   6.361   0.268   6.733
 6357TIP3    H119028   6.283   0.218   6.756
 6357TIP3    H219029   6.353   0.349   6.781
 6358TIP3   OH219030   8.210   7.641   5.517
 6358TIP3    H119031   8.226   7.547   5.511
 6358TIP3    H219032   8.232   7.663   5.608
 6359TIP3   OH219033   5.652   5.665   5.638
 6359TIP3    H119034   5.696   5.581   5.629
 6359TIP3    H219035   5.679   5.698   5.724
 6360TIP3   OH219036   5.301   6.870   6.488
 6360TIP3    H119037   5.307   6.790   6.541
 6360TIP3    H219038   5.349   6.936   6.538
 6361TIP3   OH219039   3.333   0.047   3.402
 6361TIP3    H119040   3.306   0.012   3.487
 6361TIP3    H219041   3.256   0.037   3.346
 6362TIP3   OH219042   1.323   4.659   5.024
 6362TIP3    H119043   1.271   4.644   5.103
 6362TIP3    H219044   1.284   4.737   4.984
 6363TIP3   OH219045   3.733   4.276   5.325
 6363TIP3    H119046   3.702   4.356   5.367
 6363TIP3    H219047   3.828   4.287   5.319
 6364TIP3   OH219048   3.690   3.622   6.677
 6364TIP3    H119049   3.717   3.713   6.666
 6364TIP3    H219050   3.607   3.627   6.726
 6365TIP3   OH219051   7.693   2.024   0.985
 6365TIP3    H119052   7.702   2.011   0.890
 6365TIP3    H219053   7.772   2.072   1.010
 6366TIP3   OH219054   7.606   1.458   5.176
 6366TIP3    H119055   7.635   1.525   5.114
 6366TIP3    H219056   7.599   1.504   5.259
 6367TIP3   OH219057   6.732   2.312   2.361
 6367TIP3    H119058   6.639   2.289   2.347
 6367TIP3    H219059   6.756   2.362   2.283
 6368TIP3   OH219060   5.224   6.434   2.055
 6368TIP3    H119061   5.238   6.511   2.111
 6368TIP3    H219062   5.311   6.403   2.033
 6369TIP3   OH219063   6.636   6.033   2.040
 6369TIP3    H119064   6.678   6.059   1.958
 6369TIP3    H219065   6.572   6.102   2.057
 6370TIP3   OH219066   7.535   3.689   0.198
 6370TIP3    H119067   7.617   3.704   0.151
 6370TIP3    H219068   7.542   3.598   0.228
 6371TIP3   OH219069   7.346   1.630   0.010
 6371TIP3    H119070   7.421   1.688  -0.002
 6371TIP3    H219071   7.308   1.657   0.093
 6372TIP3   OH219072   2.405   2.277   2.511
 6372TIP3    H119073   2.416   2.372   2.508
 6372TIP3    H219074   2.463   2.247   2.580
 6373TIP3   OH219075   7.559   3.145   4.641
 6373TIP3    H119076   7.563   3.066   4.694
 6373TIP3    H219077   7.642   3.189   4.657
 6374TIP3   OH219078   1.270   7.561   3.860
 6374TIP3    H119079   1.207   7.600   3.920
 6374TIP3    H219080   1.348   7.616   3.870
 6375TIP3   OH219081   3.849   3.917   3.154
 6375TIP3    H119082   3.884   3.852   3.215
 6375TIP3    H219083   3.759   3.930   3.182
 6376TIP3   OH219084   2.086   2.773   0.527
 6376TIP3    H119085   2.180   2.766   0.507
 6376TIP3    H219086   2.068   2.699   0.584
 6377TIP3   OH219087   3.633   6.098   5.522
 6377TIP3    H119088   3.561   6.160   5.535
 6377TIP3    H219089   3.598   6.033   5.462
 6378TIP3   OH219090   5.864   0.733   6.391
 6378TIP3    H119091   5.881   0.649   6.436
 6378TIP3    H219092   5.856   0.796   6.462
 6379TIP3   OH219093   5.014   1.100   2.781
 6379TIP3    H119094   5.092   1.047   2.765
 6379TIP3    H219095   4.986   1.128   2.694
 6380TIP3   OH219096   5.787   1.958   4.555
 6380TIP3    H119097   5.723   1.945   4.624
 6380TIP3    H219098   5.817   2.049   4.567
 6381TIP3   OH219099   7.907   6.110   1.880
 6381TIP3    H119100   7.947   6.170   1.817
 6381TIP3    H219101   7.970   6.039   1.890
 6382TIP3   OH219102   0.412   3.244   3.307
 6382TIP3    H119103   0.409   3.154   3.275
 6382TIP3    H219104   0.494   3.250   3.355
 6383TIP3   OH219105   1.610   2.442   2.714
 6383TIP3    H119106   1.608   2.346   2.707
 6383TIP3    H219107   1.683   2.469   2.658
 6384TIP3   OH219108   8.214   4.787   5.524
 6384TIP3    H119109   8.268   4.798   5.602
 6384TIP3    H219110   8.183   4.875   5.504
 6385TIP3   OH219111   8.163   3.910   1.138
 6385TIP3    H119112   8.177   3.816   1.148
 6385TIP3    H219113   8.069   3.921   1.131
 6386TIP3   OH219114   7.784   5.866   2.107
 6386TIP3    H119115   7.844   5.801   2.071
 6386TIP3    H219116   7.707   5.863   2.050
 6387TIP3   OH219117   2.302   0.537   5.277
 6387TIP3    H119118   2.388   0.580   5.267
 6387TIP3    H219119   2.249   0.601   5.325
 6388TIP3   OH219120   5.528   3.753   3.779
 6388TIP3    H119121   5.580   3.753   3.859
 6388TIP3    H219122   5.516   3.845   3.757
 6389TIP3   OH219123   5.325   6.058   2.541
 6389TIP3    H119124   5.277   5.984   2.577
 6389TIP3    H219125   5.292   6.134   2.590
 6390TIP3   OH219126   7.161   3.879   4.331
 6390TIP3    H119127   7.238   3.827   4.353
 6390TIP3    H219128   7.169   3.957   4.385
 6391TIP3   OH219129   2.218   1.350   2.742
 6391TIP3    H119130   2.286   1.317   2.801
 6391TIP3    H219131   2.165   1.274   2.720
 6392TIP3   OH219132   2.125   2.724   6.678
 6392TIP3    H119133   2.203   2.699   6.629
 6392TIP3    H219134   2.103   2.812   6.646
 6393TIP3   OH219135   4.283   6.831   3.309
 6393TIP3    H119136   4.327   6.801   3.230
 6393TIP3    H219137   4.332   6.792   3.381
 6394TIP3   OH219138   5.037   1.563   2.887
 6394TIP3    H119139   5.077   1.540   2.971
 6394TIP3    H219140   5.046   1.658   2.882
 6395TIP3   OH219141   8.115   1.384   6.681
 6395TIP3    H119142   8.187   1.320   6.684
 6395TIP3    H219143   8.155   1.463   6.644
 6396TIP3   OH219144   5.851   2.580   3.082
 6396TIP3    H119145   5.873   2.534   3.163
 6396TIP3    H219146   5.807   2.660   3.111
 6397TIP3   OH219147   6.803   1.968   2.366
 6397TIP3    H119148   6.720   1.926   2.388
 6397TIP3    H219149   6.778   2.055   2.334
 6398TIP3   OH219150   5.341   3.474   4.721
 6398TIP3    H119151   5.418   3.524   4.749
 6398TIP3    H219152   5.306   3.523   4.646
 6399TIP3   OH219153   4.584   6.256   0.345
 6399TIP3    H119154   4.668   6.212   0.358
 6399TIP3    H219155   4.519   6.193   0.375
 6400TIP3   OH219156   4.338   5.283   0.570
 6400TIP3    H119157   4.369   5.194   0.552
 6400TIP3    H219158   4.247   5.273   0.595
 6401TIP3   OH219159   5.732   5.920   1.592
 6401TIP3    H119160   5.674   5.958   1.658
 6401TIP3    H219161   5.680   5.916   1.512
 6402TIP3   OH219162   5.720   3.690   4.021
 6402TIP3    H119163   5.679   3.625   4.078
 6402TIP3    H219164   5.811   3.660   4.013
 6403TIP3   OH219165   6.067   0.190   1.798
 6403TIP3    H119166   6.036   0.154   1.881
 6403TIP3    H219167   6.157   0.158   1.791
 6404TIP3   OH219168   7.361   5.913   5.210
 6404TIP3    H119169   7.441   5.863   5.228
 6404TIP3    H219170   7.361   5.984   5.274
 6405TIP3   OH219171   4.300   6.741   5.244
 6405TIP3    H119172   4.236   6.791   5.295
 6405TIP3    H219173   4.292   6.775   5.155
 6406TIP3   OH219174   0.383   1.395   5.478
 6406TIP3    H119175   0.402   1.475   5.429
 6406TIP3    H219176   0.450   1.393   5.547
 6407TIP3   OH219177   0.575   7.375   5.292
 6407TIP3    H119178   0.482   7.398   5.285
 6407TIP3    H219179   0.600   7.404   5.380
 6408TIP3   OH219180   4.323   0.558   6.570
 6408TIP3    H119181   4.400   0.578   6.515
 6408TIP3    H219182   4.274   0.494   6.519
 6409TIP3   OH219183   6.875   2.297   3.017
 6409TIP3    H119184   6.886   2.323   2.926
 6409TIP3    H219185   6.829   2.371   3.057
 6410TIP3   OH219186   7.443   4.852   0.825
 6410TIP3    H119187   7.518   4.840   0.883
 6410TIP3    H219188   7.442   4.773   0.771
 6411TIP3   OH219189   3.094   6.837   6.264
 6411TIP3    H119190   3.024   6.857   6.326
 6411TIP3    H219191   3.072   6.750   6.231
 6412TIP3   OH219192   6.045   2.549   1.689
 6412TIP3    H119193   6.084   2.602   1.620
 6412TIP3    H219194   6.109   2.552   1.761
 6413TIP3   OH219195   5.208   2.312   4.307
 6413TIP3    H119196   5.257   2.242   4.262
 6413TIP3    H219197   5.138   2.334   4.246
 6414TIP3   OH219198   3.530   2.238   6.035
 6414TIP3    H119199   3.601   2.266   6.093
 6414TIP3    H219200   3.453   2.232   6.093
 6415TIP3   OH219201   6.968   5.991   4.978
 6415TIP3    H119202   7.054   6.030   4.996
 6415TIP3    H219203   6.962   5.988   4.883
 6416TIP3   OH219204   1.957   7.237   5.402
 6416TIP3    H119205   1.992   7.214   5.488
 6416TIP3    H219206   1.967   7.332   5.397
 6417TIP3   OH219207   2.081   2.503   2.641
 6417TIP3    H119208   2.028   2.578   2.615
 6417TIP3    H219209   2.047   2.430   2.588
 6418TIP3   OH219210   6.218   3.962   1.579
 6418TIP3    H119211   6.235   3.868   1.580
 6418TIP3    H219212   6.161   3.977   1.654
 6419TIP3   OH219213   2.620   6.307   3.118
 6419TIP3    H119214   2.540   6.288   3.166
 6419TIP3    H219215   2.664   6.375   3.170
 6420TIP3   OH219216   5.387   7.108   4.543
 6420TIP3    H119217   5.454   7.050   4.507
 6420TIP3    H219218   5.376   7.176   4.477
 6421TIP3   OH219219   0.058   7.762   5.266
 6421TIP3    H119220   0.014   7.813   5.198
 6421TIP3    H219221   0.019   7.792   5.348
 6422TIP3   OH219222   6.336   3.383   0.026
 6422TIP3    H119223   6.271   3.380   0.096
 6422TIP3    H219224   6.305   3.452  -0.034
 6423TIP3   OH219225   4.351   3.543   5.535
 6423TIP3    H119226   4.272   3.581   5.575
 6423TIP3    H219227   4.324   3.522   5.445
 6424TIP3   OH219228   3.808   6.293   1.329
 6424TIP3    H119229   3.897   6.274   1.299
 6424TIP3    H219230   3.799   6.243   1.410
 6425TIP3   OH219231   7.147   7.725   1.160
 6425TIP3    H119232   7.168   7.789   1.228
 6425TIP3    H219233   7.230   7.708   1.116
 6426TIP3   OH219234   5.396   6.247   3.120
 6426TIP3    H119235   5.322   6.291   3.077
 6426TIP3    H219236   5.366   6.157   3.134
 6427TIP3   OH219237   2.405   5.923   3.808
 6427TIP3    H119238   2.426   5.955   3.720
 6427TIP3    H219239   2.336   5.859   3.794
 6428TIP3   OH219240   3.809   0.887   3.185
 6428TIP3    H119241   3.810   0.980   3.210
 6428TIP3    H219242   3.843   0.886   3.096
 6429TIP3   OH219243   2.765   4.320   0.499
 6429TIP3    H119244   2.685   4.367   0.474
 6429TIP3    H219245   2.768   4.245   0.439
 6430TIP3   OH219246   6.765   3.218   5.423
 6430TIP3    H119247   6.841   3.242   5.370
 6430TIP3    H219248   6.713   3.298   5.427
 6431TIP3   OH219249   2.614   5.670   0.103
 6431TIP3    H119250   2.616   5.575   0.094
 6431TIP3    H219251   2.578   5.686   0.190
 6432TIP3   OH219252   1.808   5.913   3.812
 6432TIP3    H119253   1.788   5.917   3.718
 6432TIP3    H219254   1.741   5.856   3.848
 6433TIP3   OH219255   0.919   7.785   0.639
 6433TIP3    H119256   1.000   7.740   0.664
 6433TIP3    H219257   0.849   7.732   0.676
 6434TIP3   OH219258   6.751   6.179   3.669
 6434TIP3    H119259   6.823   6.166   3.608
 6434TIP3    H219260   6.756   6.271   3.693
 6435TIP3   OH219261   5.009   7.129   2.981
 6435TIP3    H119262   4.914   7.140   2.977
 6435TIP3    H219263   5.025   7.084   3.064
 6436TIP3   OH219264   4.837   1.345   1.474
 6436TIP3    H119265   4.766   1.395   1.433
 6436TIP3    H219266   4.917   1.393   1.451
 6437TIP3   OH219267   5.704   7.210   6.494
 6437TIP3    H119268   5.693   7.152   6.418
 6437TIP3    H219269   5.670   7.294   6.464
 6438TIP3   OH219270   2.509   3.251   2.337
 6438TIP3    H119271   2.433   3.206   2.373
 6438TIP3    H219272   2.479   3.340   2.319
 6439TIP3   OH219273   5.248   5.045   6.222
 6439TIP3    H119274   5.187   4.975   6.199
 6439TIP3    H219275   5.242   5.052   6.317
 6440TIP3   OH219276   2.747   3.871   2.040
 6440TIP3    H119277   2.713   3.785   2.066
 6440TIP3    H219278   2.799   3.853   1.962
 6441TIP3   OH219279   4.766   5.237   5.722
 6441TIP3    H119280   4.678   5.214   5.753
 6441TIP3    H219281   4.813   5.264   5.801
 6442TIP3   OH219282   4.608   6.327   6.678
 6442TIP3    H119283   4.570   6.310   6.764
 6442TIP3    H219284   4.697   6.291   6.683
 6443TIP3   OH219285   2.485   5.273   6.129
 6443TIP3    H119286   2.562   5.218   6.113
 6443TIP3    H219287   2.419   5.240   6.069
 6444TIP3   OH219288   0.736   3.723   3.511
 6444TIP3    H119289   0.717   3.767   3.594
 6444TIP3    H219290   0.779   3.790   3.458
 6445TIP3   OH219291   5.590   3.479   5.068
 6445TIP3    H119292   5.624   3.467   5.157
 6445TIP3    H219293   5.592   3.391   5.030
 6446TIP3   OH219294   6.759   5.759   0.347
 6446TIP3    H119295   6.819   5.832   0.331
 6446TIP3    H219296   6.747   5.720   0.260
 6447TIP3   OH219297   3.781   4.786   4.386
 6447TIP3    H119298   3.729   4.834   4.450
 6447TIP3    H219299   3.720   4.719   4.352
 6448TIP3   OH219300   5.940   4.002   0.439
 6448TIP3    H119301   6.035   4.011   0.450
 6448TIP3    H219302   5.903   4.044   0.517
 6449TIP3   OH219303   7.206   3.515   0.735
 6449TIP3    H119304   7.231   3.423   0.733
 6449TIP3    H219305   7.138   3.521   0.801
 6450TIP3   OH219306   4.017   5.288   3.633
 6450TIP3    H119307   4.017   5.201   3.673
 6450TIP3    H219308   4.012   5.348   3.708
 6451TIP3   OH219309   5.662   6.043   2.849
 6451TIP3    H119310   5.625   6.128   2.873
 6451TIP3    H219311   5.628   5.983   2.916
 6452TIP3   OH219312   4.071   3.910   1.836
 6452TIP3    H119313   4.034   3.849   1.773
 6452TIP3    H219314   4.019   3.897   1.916
 6453TIP3   OH219315   4.910   3.788   5.295
 6453TIP3    H119316   4.848   3.734   5.345
 6453TIP3    H219317   4.987   3.732   5.284
 6454TIP3   OH219318   2.331   4.536   6.558
 6454TIP3    H119319   2.321   4.574   6.646
 6454TIP3    H219320   2.396   4.591   6.515
 6455TIP3   OH219321   7.395   4.791   5.854
 6455TIP3    H119322   7.339   4.868   5.848
 6455TIP3    H219323   7.340   4.718   5.825
 6456TIP3   OH219324   6.237   3.716   1.739
 6456TIP3    H119325   6.199   3.684   1.820
 6456TIP3    H219326   6.284   3.796   1.764
 6457TIP3   OH219327   0.587   4.886   0.114
 6457TIP3    H119328   0.681   4.875   0.105
 6457TIP3    H219329   0.561   4.935   0.036
 6458TIP3   OH219330   6.946   2.566   0.289
 6458TIP3    H119331   6.966   2.605   0.374
 6458TIP3    H219332   6.951   2.471   0.304
 6459TIP3   OH219333   2.906   4.822   2.654
 6459TIP3    H119334   2.847   4.750   2.632
 6459TIP3    H219335   2.918   4.869   2.571
 6460TIP3   OH219336   0.306   6.761   2.506
 6460TIP3    H119337   0.226   6.718   2.537
 6460TIP3    H219338   0.274   6.835   2.453
 6461TIP3   OH219339   2.624   2.248   0.269
 6461TIP3    H119340   2.575   2.289   0.198
 6461TIP3    H219341   2.567   2.180   0.302
 6462TIP3   OH219342   6.116   2.894   6.610
 6462TIP3    H119343   6.163   2.896   6.694
 6462TIP3    H219344   6.174   2.845   6.552
 6463TIP3   OH219345   6.564   2.293   1.270
 6463TIP3    H119346   6.603   2.336   1.194
 6463TIP3    H219347   6.612   2.328   1.345
 6464TIP3   OH219348   6.400   5.071   5.937
 6464TIP3    H119349   6.346   5.093   5.860
 6464TIP3    H219350   6.353   4.999   5.979
 6465TIP3   OH219351   3.678   3.035   6.733
 6465TIP3    H119352   3.592   2.993   6.739
 6465TIP3    H219353   3.740   2.967   6.760
 6466TIP3   OH219354   4.119   7.498   3.992
 6466TIP3    H119355   4.030   7.463   3.994
 6466TIP3    H219356   4.152   7.472   3.906
 6467TIP3   OH219357   4.368   7.107   4.423
 6467TIP3    H119358   4.275   7.120   4.402
 6467TIP3    H219359   4.400   7.195   4.442
 6468TIP3   OH219360   4.676   1.524   6.523
 6468TIP3    H119361   4.691   1.482   6.608
 6468TIP3    H219362   4.622   1.462   6.474
 6469TIP3   OH219363   3.671   6.039   0.504
 6469TIP3    H119364   3.613   6.058   0.430
 6469TIP3    H219365   3.658   6.112   0.564
 6470TIP3   OH219366   3.096   5.797   4.594
 6470TIP3    H119367   3.091   5.855   4.671
 6470TIP3    H219368   3.123   5.713   4.630
 6471TIP3   OH219369   5.565   4.775   2.568
 6471TIP3    H119370   5.561   4.820   2.483
 6471TIP3    H219371   5.527   4.689   2.551
 6472TIP3   OH219372   2.229   4.774   5.814
 6472TIP3    H119373   2.166   4.807   5.878
 6472TIP3    H219374   2.311   4.764   5.864
 6473TIP3   OH219375   0.891   4.493   0.953
 6473TIP3    H119376   0.867   4.559   1.017
 6473TIP3    H219377   0.900   4.541   0.871
 6474TIP3   OH219378   5.024   5.922   4.763
 6474TIP3    H119379   4.935   5.893   4.743
 6474TIP3    H219380   5.018   5.962   4.850
 6475TIP3   OH219381   3.032   2.606   6.123
 6475TIP3    H119382   3.018   2.572   6.035
 6475TIP3    H219383   3.099   2.673   6.113
 6476TIP3   OH219384   5.356   3.603   1.812
 6476TIP3    H119385   5.327   3.673   1.871
 6476TIP3    H219386   5.278   3.548   1.800
 6477TIP3   OH219387   1.858   0.247   3.600
 6477TIP3    H119388   1.822   0.294   3.525
 6477TIP3    H219389   1.794   0.178   3.618
 6478TIP3   OH219390   6.036   1.995   2.767
 6478TIP3    H119391   6.058   1.957   2.682
 6478TIP3    H219392   6.099   1.956   2.828
 6479TIP3   OH219393   4.342   4.855   4.755
 6479TIP3    H119394   4.380   4.937   4.785
 6479TIP3    H219395   4.248   4.872   4.749
 6480TIP3   OH219396   0.258   5.591   3.904
 6480TIP3    H119397   0.166   5.599   3.880
 6480TIP3    H219398   0.302   5.568   3.823
 6481TIP3   OH219399   2.455   2.982   1.407
 6481TIP3    H119400   2.395   2.959   1.336
 6481TIP3    H219401   2.422   3.067   1.438
 6482TIP3   OH219402   3.112   3.978   6.732
 6482TIP3    H119403   3.168   3.952   6.805
 6482TIP3    H219404   3.132   3.915   6.662
 6483TIP3   OH219405   3.676   0.844   4.912
 6483TIP3    H119406   3.766   0.812   4.916
 6483TIP3    H219407   3.653   0.839   4.820
 6484TIP3   OH219408   1.337   2.124   4.245
 6484TIP3    H119409   1.379   2.182   4.309
 6484TIP3    H219410   1.410   2.074   4.208
 6485TIP3   OH219411   1.880   0.571   1.508
 6485TIP3    H119412   1.888   0.510   1.582
 6485TIP3    H219413   1.786   0.588   1.501
 6486TIP3   OH219414   0.640   2.422   4.156
 6486TIP3    H119415   0.584   2.346   4.142
 6486TIP3    H219416   0.729   2.385   4.156
 6487TIP3   OH219417   2.604   4.090   5.613
 6487TIP3    H119418   2.630   4.053   5.529
 6487TIP3    H219419   2.618   4.018   5.675
 6488TIP3   OH219420   0.439   5.507   1.376
 6488TIP3    H119421   0.492   5.465   1.308
 6488TIP3    H219422   0.351   5.508   1.341
 6489TIP3   OH219423   4.321   4.509   3.898
 6489TIP3    H119424   4.323   4.504   3.803
 6489TIP3    H219425   4.282   4.594   3.917
 6490TIP3   OH219426   1.293   1.808   3.337
 6490TIP3    H119427   1.355   1.744   3.371
 6490TIP3    H219428   1.288   1.875   3.404
 6491TIP3   OH219429   6.232   6.480   6.397
 6491TIP3    H119430   6.295   6.519   6.337
 6491TIP3    H219431   6.192   6.409   6.346
 6492TIP3   OH219432   0.317   3.926   4.964
 6492TIP3    H119433   0.293   3.853   4.906
 6492TIP3    H219434   0.350   3.883   5.043
 6493TIP3   OH219435   1.437   0.875   0.442
 6493TIP3    H119436   1.463   0.797   0.392
 6493TIP3    H219437   1.435   0.946   0.377
 6494TIP3   OH219438   0.832   4.578   0.043
 6494TIP3    H119439   0.908   4.630   0.018
 6494TIP3    H219440   0.797   4.545  -0.039
 6495TIP3   OH219441   2.908   2.713   0.409
 6495TIP3    H119442   2.924   2.789   0.352
 6495TIP3    H219443   2.956   2.734   0.490
 6496TIP3   OH219444   0.526   6.245   2.095
 6496TIP3    H119445   0.520   6.323   2.150
 6496TIP3    H219446   0.564   6.277   2.013
 6497TIP3   OH219447   7.491   2.774   6.751
 6497TIP3    H119448   7.456   2.775   6.662
 6497TIP3    H219449   7.418   2.746   6.806
 6498TIP3   OH219450   5.104   5.780   3.878
 6498TIP3    H119451   5.043   5.728   3.826
 6498TIP3    H219452   5.056   5.799   3.959
 6499TIP3   OH219453   1.923   7.081   5.172
 6499TIP3    H119454   1.934   7.157   5.115
 6499TIP3    H219455   1.972   7.103   5.251
 6500TIP3   OH219456   0.258   3.600   3.391
 6500TIP3    H119457   0.340   3.578   3.435
 6500TIP3    H219458   0.241   3.692   3.415
 6501TIP3   OH219459   8.014   6.155   5.569
 6501TIP3    H119460   8.001   6.239   5.614
 6501TIP3    H219461   8.105   6.132   5.587
 6502TIP3   OH219462   3.587   1.751   0.623
 6502TIP3    H119463   3.614   1.808   0.695
 6502TIP3    H219464   3.573   1.811   0.550
 6503TIP3   OH219465   1.064   4.462   5.824
 6503TIP3    H119466   0.970   4.448   5.831
 6503TIP3    H219467   1.074   4.523   5.752
 6504TIP3   OH219468   4.450   5.679   3.110
 6504TIP3    H119469   4.521   5.636   3.157
 6504TIP3    H219470   4.490   5.710   3.028
 6505TIP3   OH219471   8.261   1.165   6.345
 6505TIP3    H119472   8.316   1.115   6.406
 6505TIP3    H219473   8.172   1.154   6.379
 6506TIP3   OH219474   3.049   6.355   0.586
 6506TIP3    H119475   3.093   6.422   0.638
 6506TIP3    H219476   3.008   6.298   0.651
 6507TIP3   OH219477   6.724   7.442   2.989
 6507TIP3    H119478   6.811   7.478   2.972
 6507TIP3    H219479   6.677   7.514   3.032
 6508TIP3   OH219480   6.143   5.964   0.056
 6508TIP3    H119481   6.139   5.872   0.082
 6508TIP3    H219482   6.214   6.001   0.109
 6509TIP3   OH219483   1.915   1.181   4.941
 6509TIP3    H119484   1.845   1.176   5.006
 6509TIP3    H219485   1.995   1.169   4.991
 6510TIP3   OH219486   6.109   3.265   2.528
 6510TIP3    H119487   6.098   3.296   2.618
 6510TIP3    H219488   6.093   3.343   2.474
 6511TIP3   OH219489   3.445   7.549   3.974
 6511TIP3    H119490   3.366   7.593   3.941
 6511TIP3    H219491   3.443   7.462   3.933
 6512TIP3   OH219492   2.952   2.069   6.232
 6512TIP3    H119493   3.000   2.150   6.215
 6512TIP3    H219494   3.019   2.002   6.237
 6513TIP3   OH219495   0.664   5.175   6.164
 6513TIP3    H119496   0.585   5.124   6.148
 6513TIP3    H219497   0.692   5.205   6.078
 6514TIP3   OH219498   4.959   2.064   2.903
 6514TIP3    H119499   4.901   2.113   2.845
 6514TIP3    H219500   4.938   2.096   2.991
 6515TIP3   OH219501   8.045   2.929   0.444
 6515TIP3    H119502   8.037   2.950   0.537
 6515TIP3    H219503   8.002   3.003   0.400
 6516TIP3   OH219504   1.095   7.349   1.424
 6516TIP3    H119505   1.074   7.344   1.330
 6516TIP3    H219506   1.190   7.349   1.427
 6517TIP3   OH219507   2.550   4.188   0.696
 6517TIP3    H119508   2.574   4.134   0.772
 6517TIP3    H219509   2.606   4.157   0.625
 6518TIP3   OH219510   1.368   3.063   0.836
 6518TIP3    H119511   1.452   3.074   0.791
 6518TIP3    H219512   1.353   3.148   0.879
 6519TIP3   OH219513   7.479   2.158   3.322
 6519TIP3    H119514   7.571   2.155   3.347
 6519TIP3    H219515   7.473   2.100   3.246
 6520TIP3   OH219516   1.381   0.642   1.437
 6520TIP3    H119517   1.390   0.707   1.506
 6520TIP3    H219518   1.304   0.591   1.462
 6521TIP3   OH219519   2.149   6.693   1.982
 6521TIP3    H119520   2.222   6.716   2.040
 6521TIP3    H219521   2.191   6.651   1.907
 6522TIP3   OH219522   8.187   0.868   6.430
 6522TIP3    H119523   8.166   0.924   6.356
 6522TIP3    H219524   8.111   0.873   6.487
 6523TIP3   OH219525   6.422   4.844   0.325
 6523TIP3    H119526   6.456   4.756   0.310
 6523TIP3    H219527   6.435   4.858   0.419
 6524TIP3   OH219528   1.172   0.332   4.313
 6524TIP3    H119529   1.087   0.322   4.355
 6524TIP3    H219530   1.164   0.285   4.230
 6525TIP3   OH219531   2.766   3.452   3.700
 6525TIP3    H119532   2.792   3.402   3.623
 6525TIP3    H219533   2.773   3.389   3.772
 6526TIP3   OH219534   0.776   2.436   0.388
 6526TIP3    H119535   0.768   2.528   0.360
 6526TIP3    H219536   0.869   2.417   0.382
 6527TIP3   OH219537   4.969   1.060   5.604
 6527TIP3    H119538   5.020   1.132   5.567
 6527TIP3    H219539   4.900   1.102   5.655
 6528TIP3   OH219540   3.183   6.933   4.300
 6528TIP3    H119541   3.193   6.886   4.217
 6528TIP3    H219542   3.088   6.935   4.315
 6529TIP3   OH219543   2.298   5.486   4.697
 6529TIP3    H119544   2.250   5.563   4.668
 6529TIP3    H219545   2.390   5.510   4.687
 6530TIP3   OH219546   0.112   4.633   3.060
 6530TIP3    H119547   0.087   4.572   2.990
 6530TIP3    H219548   0.126   4.716   3.015
 6531TIP3   OH219549   5.418   6.920   6.009
 6531TIP3    H119550   5.462   6.886   6.087
 6531TIP3    H219551   5.463   7.002   5.990
 6532TIP3   OH219552   1.023   6.977   5.971
 6532TIP3    H119553   0.992   7.028   6.046
 6532TIP3    H219554   1.112   7.008   5.955
 6533TIP3   OH219555   0.962   4.011   2.637
 6533TIP3    H119556   0.925   4.085   2.589
 6533TIP3    H219557   0.975   4.043   2.726
 6534TIP3   OH219558   7.964   3.113   3.935
 6534TIP3    H119559   8.031   3.163   3.888
 6534TIP3    H219560   8.011   3.075   4.010
 6535TIP3   OH219561   0.921   2.141   0.578
 6535TIP3    H119562   0.958   2.093   0.652
 6535TIP3    H219563   0.961   2.228   0.583
 6536TIP3   OH219564   2.894   6.954   4.374
 6536TIP3    H119565   2.808   6.972   4.411
 6536TIP3    H219566   2.878   6.891   4.304
 6537TIP3   OH219567   7.029   5.308   6.193
 6537TIP3    H119568   6.935   5.299   6.208
 6537TIP3    H219569   7.070   5.279   6.275
 6538TIP3   OH219570   8.123   2.523   3.610
 6538TIP3    H119571   8.067   2.475   3.549
 6538TIP3    H219572   8.066   2.541   3.685
 6539TIP3   OH219573   6.430   4.313   5.263
 6539TIP3    H119574   6.356   4.307   5.323
 6539TIP3    H219575   6.477   4.392   5.290
 6540TIP3   OH219576   5.819   3.233   4.087
 6540TIP3    H119577   5.744   3.258   4.033
 6540TIP3    H219578   5.894   3.275   4.045
 6541TIP3   OH219579   8.115   6.802   6.737
 6541TIP3    H119580   8.175   6.806   6.811
 6541TIP3    H219581   8.061   6.881   6.746
 6542TIP3   OH219582   7.702   2.792   2.988
 6542TIP3    H119583   7.667   2.880   2.975
 6542TIP3    H219584   7.785   2.806   3.035
 6543TIP3   OH219585   5.794   3.037   1.403
 6543TIP3    H119586   5.789   2.948   1.438
 6543TIP3    H219587   5.746   3.090   1.465
 6544TIP3   OH219588   6.156   7.192   0.148
 6544TIP3    H119589   6.078   7.154   0.109
 6544TIP3    H219590   6.137   7.286   0.153
 6545TIP3   OH219591   5.897   3.713   1.997
 6545TIP3    H119592   5.974   3.656   2.007
 6545TIP3    H219593   5.914   3.761   1.916
 6546TIP3   OH219594   5.530   5.034   1.520
 6546TIP3    H119595   5.599   5.069   1.577
 6546TIP3    H219596   5.481   4.974   1.575
 6547TIP3   OH219597   4.905   7.090   5.246
 6547TIP3    H119598   4.976   7.062   5.188
 6547TIP3    H219599   4.927   7.051   5.331
 6548TIP3   OH219600   3.343   5.533   4.503
 6548TIP3    H119601   3.296   5.476   4.442
 6548TIP3    H219602   3.306   5.513   4.588
 6549TIP3   OH219603   0.842   0.409   6.645
 6549TIP3    H119604   0.848   0.390   6.551
 6549TIP3    H219605   0.884   0.333   6.687
 6550TIP3   OH219606   7.620   3.511   1.918
 6550TIP3    H119607   7.691   3.558   1.959
 6550TIP3    H219608   7.545   3.571   1.921
 6551TIP3   OH219609   0.949   6.053   4.356
 6551TIP3    H119610   0.980   6.132   4.312
 6551TIP3    H219611   0.858   6.044   4.330
 6552TIP3   OH219612   5.414   5.504   0.972
 6552TIP3    H119613   5.487   5.502   0.911
 6552TIP3    H219614   5.382   5.594   0.969
 6553TIP3   OH219615   7.470   4.284   5.120
 6553TIP3    H119616   7.470   4.196   5.083
 6553TIP3    H219617   7.537   4.331   5.071
 6554TIP3   OH219618   7.981   5.678   3.431
 6554TIP3    H119619   7.941   5.764   3.438
 6554TIP3    H219620   8.065   5.694   3.388
 6555TIP3   OH219621   4.135   4.974   2.790
 6555TIP3    H119622   4.063   4.963   2.852
 6555TIP3    H219623   4.118   4.909   2.721
 6556TIP3   OH219624   0.493   5.095   5.092
 6556TIP3    H119625   0.483   5.002   5.108
 6556TIP3    H219626   0.404   5.130   5.099
 6557TIP3   OH219627   6.965   1.674   5.618
 6557TIP3    H119628   6.895   1.722   5.662
 6557TIP3    H219629   6.948   1.582   5.641
 6558TIP3   OH219630   2.195   1.434   3.607
 6558TIP3    H119631   2.219   1.457   3.696
 6558TIP3    H219632   2.144   1.510   3.576
 6559TIP3   OH219633   7.146   7.242   3.003
 6559TIP3    H119634   7.145   7.172   2.937
 6559TIP3    H219635   7.098   7.314   2.962
 6560TIP3   OH219636   7.349   2.236   2.013
 6560TIP3    H119637   7.340   2.321   2.056
 6560TIP3    H219638   7.357   2.174   2.085
 6561TIP3   OH219639   0.228   0.634   0.129
 6561TIP3    H119640   0.187   0.548   0.118
 6561TIP3    H219641   0.250   0.638   0.222
 6562TIP3   OH219642   7.782   0.523   4.826
 6562TIP3    H119643   7.749   0.612   4.813
 6562TIP3    H219644   7.712   0.478   4.873
 6563TIP3   OH219645   3.884   7.853   4.897
 6563TIP3    H119646   3.796   7.824   4.921
 6563TIP3    H219647   3.932   7.772   4.879
 6564TIP3   OH219648   8.034   4.531   4.820
 6564TIP3    H119649   8.062   4.552   4.731
 6564TIP3    H219650   8.097   4.577   4.876
 6565TIP3   OH219651   6.192   7.247   6.110
 6565TIP3    H119652   6.209   7.326   6.059
 6565TIP3    H219653   6.225   7.176   6.056
 6566TIP3   OH219654   8.110   0.590   3.970
 6566TIP3    H119655   8.054   0.597   4.047
 6566TIP3    H219656   8.051   0.570   3.898
 6567TIP3   OH219657   3.347   7.407   2.263
 6567TIP3    H119658   3.344   7.399   2.168
 6567TIP3    H219659   3.256   7.396   2.291
 6568TIP3   OH219660   1.615   1.635   4.095
 6568TIP3    H119661   1.520   1.632   4.098
 6568TIP3    H219662   1.642   1.547   4.069
 6569TIP3   OH219663   6.201   6.462   1.647
 6569TIP3    H119664   6.136   6.466   1.578
 6569TIP3    H219665   6.224   6.554   1.664
 6570TIP3   OH219666   6.157   5.738   5.290
 6570TIP3    H119667   6.125   5.662   5.339
 6570TIP3    H219668   6.247   5.751   5.322
 6571TIP3   OH219669   5.354   0.560   0.676
 6571TIP3    H119670   5.266   0.591   0.654
 6571TIP3    H219671   5.356   0.559   0.771
 6572TIP3   OH219672   1.766   3.498   5.085
 6572TIP3    H119673   1.723   3.501   5.170
 6572TIP3    H219674   1.696   3.514   5.022
 6573TIP3   OH219675   7.546   2.055   4.588
 6573TIP3    H119676   7.562   1.989   4.521
 6573TIP3    H219677   7.572   2.137   4.547
 6574TIP3   OH219678   7.602   4.910   4.779
 6574TIP3    H119679   7.597   5.002   4.754
 6574TIP3    H219680   7.512   4.885   4.798
 6575TIP3   OH219681   4.636   0.195   1.861
 6575TIP3    H119682   4.608   0.131   1.927
 6575TIP3    H219683   4.582   0.272   1.878
 6576TIP3   OH219684   6.877   6.208   0.092
 6576TIP3    H119685   6.932   6.239   0.165
 6576TIP3    H219686   6.898   6.268   0.020
 6577TIP3   OH219687   6.594   3.116   2.119
 6577TIP3    H119688   6.512   3.155   2.089
 6577TIP3    H219689   6.579   3.022   2.111
 6578TIP3   OH219690   0.897   1.660   2.596
 6578TIP3    H119691   0.897   1.622   2.683
 6578TIP3    H219692   0.987   1.690   2.583
 6579TIP3   OH219693   5.136   0.925   0.736
 6579TIP3    H119694   5.098   0.856   0.682
 6579TIP3    H219695   5.228   0.901   0.746
 6580TIP3   OH219696   3.792   3.914   0.894
 6580TIP3    H119697   3.701   3.943   0.899
 6580TIP3    H219698   3.842   3.995   0.886
 6581TIP3   OH219699   7.516   6.501   3.544
 6581TIP3    H119700   7.579   6.486   3.474
 6581TIP3    H219701   7.491   6.593   3.536
 6582TIP3   OH219702   1.335   3.132   4.333
 6582TIP3    H119703   1.375   3.045   4.340
 6582TIP3    H219704   1.253   3.124   4.381
 6583TIP3   OH219705   2.860   1.617   3.385
 6583TIP3    H119706   2.894   1.571   3.461
 6583TIP3    H219707   2.779   1.658   3.417
 6584TIP3   OH219708   2.154   1.974   1.476
 6584TIP3    H119709   2.162   1.963   1.381
 6584TIP3    H219710   2.155   1.885   1.511
 6585TIP3   OH219711   4.374   5.419   5.819
 6585TIP3    H119712   4.335   5.425   5.732
 6585TIP3    H219713   4.303   5.383   5.874
 6586TIP3   OH219714   7.546   6.971   0.254
 6586TIP3    H119715   7.461   7.003   0.285
 6586TIP3    H219716   7.563   6.893   0.308
 6587TIP3   OH219717   4.796   0.176   5.988
 6587TIP3    H119718   4.728   0.119   6.024
 6587TIP3    H219719   4.766   0.265   6.009
 6588TIP3   OH219720   5.685   5.766   1.960
 6588TIP3    H119721   5.761   5.748   1.905
 6588TIP3    H219722   5.634   5.829   1.910
 6589TIP3   OH219723   2.953   3.898   0.737
 6589TIP3    H119724   2.934   3.854   0.654
 6589TIP3    H219725   2.934   3.990   0.719
 6590TIP3   OH219726   1.293   6.825   0.395
 6590TIP3    H119727   1.280   6.867   0.310
 6590TIP3    H219728   1.387   6.834   0.412
 6591TIP3   OH219729   4.878   7.381   2.478
 6591TIP3    H119730   4.887   7.341   2.392
 6591TIP3    H219731   4.959   7.431   2.490
 6592TIP3   OH219732   7.220   4.197   4.208
 6592TIP3    H119733   7.206   4.132   4.141
 6592TIP3    H219734   7.171   4.274   4.179
 6593TIP3   OH219735   2.479   3.135   2.744
 6593TIP3    H119736   2.444   3.154   2.657
 6593TIP3    H219737   2.402   3.128   2.800
 6594TIP3   OH219738   2.800   6.375   1.636
 6594TIP3    H119739   2.771   6.359   1.547
 6594TIP3    H219740   2.895   6.387   1.628
 6595TIP3   OH219741   0.381   4.602   2.437
 6595TIP3    H119742   0.341   4.520   2.408
 6595TIP3    H219743   0.312   4.668   2.427
 6596TIP3   OH219744   4.264   5.072   6.660
 6596TIP3    H119745   4.239   5.126   6.735
 6596TIP3    H219746   4.327   5.125   6.612
 6597TIP3   OH219747   4.885   0.745   6.420
 6597TIP3    H119748   4.807   0.766   6.369
 6597TIP3    H219749   4.954   0.801   6.384
 6598TIP3   OH219750   7.502   4.303   5.604
 6598TIP3    H119751   7.464   4.347   5.528
 6598TIP3    H219752   7.557   4.370   5.644
 6599TIP3   OH219753   3.731   0.596   6.530
 6599TIP3    H119754   3.655   0.539   6.543
 6599TIP3    H219755   3.722   0.662   6.599
 6600TIP3   OH219756   7.906   5.991   0.193
 6600TIP3    H119757   7.837   6.040   0.238
 6600TIP3    H219758   7.986   6.038   0.215
 6601TIP3   OH219759   4.713   5.666   0.410
 6601TIP3    H119760   4.737   5.745   0.458
 6601TIP3    H219761   4.693   5.601   0.478
 6602TIP3   OH219762   5.081   5.288   6.691
 6602TIP3    H119763   5.148   5.309   6.756
 6602TIP3    H219764   5.046   5.203   6.719
 6603TIP3   OH219765   4.467   5.446   4.755
 6603TIP3    H119766   4.445   5.355   4.736
 6603TIP3    H219767   4.457   5.491   4.670
 6604TIP3   OH219768   5.883   0.683   5.741
 6604TIP3    H119769   5.963   0.703   5.693
 6604TIP3    H219770   5.860   0.594   5.714
 6605TIP3   OH219771   4.897   5.251   5.993
 6605TIP3    H119772   4.872   5.163   6.020
 6605TIP3    H219773   4.869   5.307   6.066
 6606TIP3   OH219774   7.622   5.860   1.692
 6606TIP3    H119775   7.619   5.950   1.725
 6606TIP3    H219776   7.604   5.806   1.768
 6607TIP3   OH219777   3.368   0.773   1.677
 6607TIP3    H119778   3.393   0.787   1.586
 6607TIP3    H219779   3.413   0.692   1.701
 6608TIP3   OH219780   6.282   5.497   2.723
 6608TIP3    H119781   6.274   5.413   2.679
 6608TIP3    H219782   6.326   5.554   2.659
 6609TIP3   OH219783   7.118   1.420   6.668
 6609TIP3    H119784   7.068   1.484   6.618
 6609TIP3    H219785   7.176   1.379   6.604
 6610TIP3   OH219786   5.879   1.499   5.761
 6610TIP3    H119787   5.873   1.591   5.787
 6610TIP3    H219788   5.862   1.498   5.667
 6611TIP3   OH219789   6.821   2.641   4.888
 6611TIP3    H119790   6.762   2.638   4.963
 6611TIP3    H219791   6.836   2.549   4.865
 6612TIP3   OH219792   6.132   2.344   1.386
 6612TIP3    H119793   6.212   2.353   1.438
 6612TIP3    H219794   6.163   2.314   1.300
 6613TIP3   OH219795   1.332   5.504   2.197
 6613TIP3    H119796   1.281   5.585   2.193
 6613TIP3    H219797   1.357   5.495   2.289
 6614TIP3   OH219798   5.513   2.281   6.093
 6614TIP3    H119799   5.527   2.372   6.067
 6614TIP3    H219800   5.601   2.247   6.112
 6615TIP3   OH219801   6.388   5.994   2.306
 6615TIP3    H119802   6.298   6.009   2.335
 6615TIP3    H219803   6.385   5.911   2.258
 6616TIP3   OH219804   4.799   5.387   4.668
 6616TIP3    H119805   4.730   5.421   4.612
 6616TIP3    H219806   4.873   5.373   4.609
 6617TIP3   OH219807   4.687   4.334   6.231
 6617TIP3    H119808   4.778   4.358   6.248
 6617TIP3    H219809   4.693   4.255   6.178
 6618TIP3   OH219810   3.505   0.391   6.187
 6618TIP3    H119811   3.422   0.410   6.228
 6618TIP3    H219812   3.541   0.318   6.238
 6619TIP3   OH219813   8.103   3.943   2.594
 6619TIP3    H119814   8.010   3.956   2.576
 6619TIP3    H219815   8.122   4.002   2.666
 6620TIP3   OH219816   8.069   6.836   3.556
 6620TIP3    H119817   8.153   6.807   3.589
 6620TIP3    H219818   8.008   6.767   3.581
 6621TIP3   OH219819   1.403   1.622   2.462
 6621TIP3    H119820   1.372   1.540   2.500
 6621TIP3    H219821   1.440   1.597   2.377
 6622TIP3   OH219822   7.434   7.782   6.744
 6622TIP3    H119823   7.404   7.843   6.676
 6622TIP3    H219824   7.487   7.718   6.697
 6623TIP3   OH219825   0.647   4.919   5.997
 6623TIP3    H119826   0.614   4.903   6.085
 6623TIP3    H219827   0.692   4.838   5.973
 6624TIP3   OH219828   0.225   5.898   5.636
 6624TIP3    H119829   0.298   5.925   5.692
 6624TIP3    H219830   0.263   5.896   5.547
 6625TIP3   OH219831   1.845   4.787   1.845
 6625TIP3    H119832   1.788   4.860   1.822
 6625TIP3    H219833   1.855   4.793   1.940
 6626TIP3   OH219834   0.780   5.865   3.224
 6626TIP3    H119835   0.744   5.856   3.312
 6626TIP3    H219836   0.852   5.802   3.220
 6627TIP3   OH219837   6.666   1.050   5.674
 6627TIP3    H119838   6.751   1.024   5.639
 6627TIP3    H219839   6.605   0.987   5.637
 6628TIP3   OH219840   0.955   6.781   0.925
 6628TIP3    H119841   0.974   6.872   0.948
 6628TIP3    H219842   0.918   6.743   1.005
 6629TIP3   OH219843   0.632   1.391   6.124
 6629TIP3    H119844   0.580   1.346   6.191
 6629TIP3    H219845   0.643   1.480   6.159
 6630TIP3   OH219846   8.268   3.716   4.677
 6630TIP3    H119847   8.275   3.634   4.726
 6630TIP3    H219848   8.280   3.784   4.743
 6631TIP3   OH219849   1.156   4.075   1.761
 6631TIP3    H119850   1.090   4.025   1.713
 6631TIP3    H219851   1.202   4.008   1.813
 6632TIP3   OH219852   3.747   2.422   1.339
 6632TIP3    H119853   3.766   2.516   1.348
 6632TIP3    H219854   3.817   2.379   1.387
 6633TIP3   OH219855   1.762   6.202   1.162
 6633TIP3    H119856   1.687   6.174   1.215
 6633TIP3    H219857   1.821   6.245   1.225
 6634TIP3   OH219858   3.001   5.702   1.144
 6634TIP3    H119859   3.025   5.789   1.110
 6634TIP3    H219860   2.910   5.711   1.171
 6635TIP3   OH219861   3.411   7.288   3.872
 6635TIP3    H119862   3.430   7.251   3.958
 6635TIP3    H219863   3.336   7.238   3.840
 6636TIP3   OH219864   4.632   3.807   5.978
 6636TIP3    H119865   4.570   3.879   5.990
 6636TIP3    H219866   4.651   3.806   5.884
 6637TIP3   OH219867   4.152   7.342   3.742
 6637TIP3    H119868   4.085   7.276   3.761
 6637TIP3    H219869   4.112   7.399   3.677
 6638TIP3   OH219870   2.234   0.423   2.105
 6638TIP3    H119871   2.179   0.496   2.133
 6638TIP3    H219872   2.197   0.347   2.151
 6639TIP3   OH219873   3.785   0.568   5.192
 6639TIP3    H119874   3.753   0.505   5.127
 6639TIP3    H219875   3.708   0.617   5.218
 6640TIP3   OH219876   3.653   5.838   1.814
 6640TIP3    H119877   3.630   5.753   1.779
 6640TIP3    H219878   3.697   5.883   1.742
 6641TIP3   OH219879   0.783   2.482   0.681
 6641TIP3    H119880   0.878   2.487   0.679
 6641TIP3    H219881   0.759   2.442   0.598
 6642TIP3   OH219882   4.642   5.960   0.244
 6642TIP3    H119883   4.671   6.005   0.165
 6642TIP3    H219884   4.643   5.867   0.221
 6643TIP3   OH219885   0.890   7.066   3.801
 6643TIP3    H119886   0.828   7.138   3.790
 6643TIP3    H219887   0.959   7.101   3.857
 6644TIP3   OH219888   3.308   0.543   0.771
 6644TIP3    H119889   3.385   0.534   0.827
 6644TIP3    H219890   3.234   0.521   0.827
 6645TIP3   OH219891   6.582   6.063   6.128
 6645TIP3    H119892   6.618   6.087   6.043
 6645TIP3    H219893   6.512   6.002   6.108
 6646TIP3   OH219894   2.078   7.583   4.543
 6646TIP3    H119895   2.029   7.666   4.541
 6646TIP3    H219896   2.148   7.598   4.607
 6647TIP3   OH219897   4.380   3.544   0.445
 6647TIP3    H119898   4.401   3.619   0.390
 6647TIP3    H219899   4.352   3.476   0.384
 6648TIP3   OH219900   6.928   5.111   1.364
 6648TIP3    H119901   7.014   5.154   1.363
 6648TIP3    H219902   6.866   5.181   1.344
 6649TIP3   OH219903   2.547   2.530   4.680
 6649TIP3    H119904   2.595   2.455   4.644
 6649TIP3    H219905   2.479   2.490   4.735
 6650TIP3   OH219906   3.331   2.517   2.109
 6650TIP3    H119907   3.338   2.483   2.020
 6650TIP3    H219908   3.399   2.584   2.115
 6651TIP3   OH219909   2.629   4.894   4.735
 6651TIP3    H119910   2.608   4.891   4.642
 6651TIP3    H219911   2.717   4.931   4.739
 6652TIP3   OH219912   5.022   6.825   6.672
 6652TIP3    H119913   4.980   6.752   6.718
 6652TIP3    H219914   4.960   6.848   6.603
 6653TIP3   OH219915   0.242   0.519   3.006
 6653TIP3    H119916   0.295   0.446   2.975
 6653TIP3    H219917   0.281   0.543   3.090
 6654TIP3   OH219918   2.785   5.091   5.326
 6654TIP3    H119919   2.716   5.156   5.342
 6654TIP3    H219920   2.866   5.141   5.325
 6655TIP3   OH219921   7.264   7.299   0.051
 6655TIP3    H119922   7.291   7.286  -0.040
 6655TIP3    H219923   7.240   7.211   0.082
 6656TIP3   OH219924   1.418   6.703   3.496
 6656TIP3    H119925   1.491   6.765   3.483
 6656TIP3    H219926   1.451   6.639   3.558
 6657TIP3   OH219927   2.572   4.724   4.160
 6657TIP3    H119928   2.500   4.783   4.181
 6657TIP3    H219929   2.630   4.776   4.104
 6658TIP3   OH219930   2.016   1.746   3.759
 6658TIP3    H119931   2.004   1.700   3.842
 6658TIP3    H219932   1.999   1.680   3.692
 6659TIP3   OH219933   4.432   1.073   2.448
 6659TIP3    H119934   4.455   1.132   2.376
 6659TIP3    H219935   4.337   1.080   2.455
 6660TIP3   OH219936   3.874   0.856   5.814
 6660TIP3    H119937   3.887   0.935   5.866
 6660TIP3    H219938   3.915   0.876   5.730
 6661TIP3   OH219939   7.703   2.865   1.677
 6661TIP3    H119940   7.735   2.955   1.687
 6661TIP3    H219941   7.711   2.848   1.583
 6662TIP3   OH219942   7.214   6.828   3.866
 6662TIP3    H119943   7.130   6.785   3.885
 6662TIP3    H219944   7.230   6.883   3.943
 6663TIP3   OH219945   1.522   1.951   0.339
 6663TIP3    H119946   1.531   1.898   0.260
 6663TIP3    H219947   1.447   2.007   0.322
 6664TIP3   OH219948   7.900   7.802   4.406
 6664TIP3    H119949   7.841   7.783   4.333
 6664TIP3    H219950   7.987   7.785   4.371
 6665TIP3   OH219951   7.710   4.692   6.243
 6665TIP3    H119952   7.714   4.787   6.234
 6665TIP3    H219953   7.652   4.664   6.172
 6666TIP3   OH219954   7.219   5.171   1.371
 6666TIP3    H119955   7.303   5.186   1.328
 6666TIP3    H219956   7.222   5.079   1.399
 6667TIP3   OH219957   5.638   0.615   3.456
 6667TIP3    H119958   5.691   0.669   3.397
 6667TIP3    H219959   5.612   0.540   3.403
 6668TIP3   OH219960   6.965   5.084   6.611
 6668TIP3    H119961   6.895   5.080   6.676
 6668TIP3    H219962   6.953   5.168   6.568
 6669TIP3   OH219963   6.031   1.482   6.004
 6669TIP3    H119964   5.984   1.490   5.921
 6669TIP3    H219965   6.077   1.398   5.999
 6670TIP3   OH219966   1.161   7.389   5.025
 6670TIP3    H119967   1.072   7.379   5.057
 6670TIP3    H219968   1.198   7.300   5.029
 6671TIP3   OH219969   5.691   2.079   3.265
 6671TIP3    H119970   5.654   2.002   3.224
 6671TIP3    H219971   5.747   2.118   3.198
 6672TIP3   OH219972   6.873   3.684   2.627
 6672TIP3    H119973   6.801   3.625   2.603
 6672TIP3    H219974   6.829   3.760   2.665
 6673TIP3   OH219975   7.222   1.244   0.142
 6673TIP3    H119976   7.247   1.284   0.225
 6673TIP3    H219977   7.271   1.162   0.139
 6674TIP3   OH219978   4.770   1.364   4.249
 6674TIP3    H119979   4.680   1.356   4.219
 6674TIP3    H219980   4.821   1.318   4.181
 6675TIP3   OH219981   6.897   3.422   3.220
 6675TIP3    H119982   6.817   3.396   3.174
 6675TIP3    H219983   6.935   3.491   3.166
 6676TIP3   OH219984   6.942   0.868   4.763
 6676TIP3    H119985   6.909   0.827   4.843
 6676TIP3    H219986   6.946   0.961   4.783
 6677TIP3   OH219987   1.344   5.119   3.839
 6677TIP3    H119988   1.255   5.153   3.827
 6677TIP3    H219989   1.401   5.195   3.828
 6678TIP3   OH219990   7.427   4.285   1.700
 6678TIP3    H119991   7.480   4.364   1.712
 6678TIP3    H219992   7.412   4.281   1.606
 6679TIP3   OH219993   3.065   2.780   1.549
 6679TIP3    H119994   2.996   2.810   1.609
 6679TIP3    H219995   3.144   2.825   1.579
 6680TIP3   OH219996   6.306   4.954   3.833
 6680TIP3    H119997   6.241   4.996   3.778
 6680TIP3    H219998   6.272   4.865   3.847
 6681TIP3   OH219999   7.785   1.134   0.160
 6681TIP3    H120000   7.845   1.104   0.228
 6681TIP3    H220001   7.822   1.099   0.079
 6682TIP3   OH220002   2.949   7.317   4.915
 6682TIP3    H120003   2.854   7.326   4.917
 6682TIP3    H220004   2.965   7.232   4.956
 6683TIP3   OH220005   3.667   7.681   2.972
 6683TIP3    H120006   3.641   7.631   2.895
 6683TIP3    H220007   3.629   7.767   2.959
 6684TIP3   OH220008   0.297   2.991   3.551
 6684TIP3    H120009   0.348   3.000   3.631
 6684TIP3    H220010   0.217   3.041   3.567
 6685TIP3   OH220011   2.029   5.523   0.696
 6685TIP3    H120012   1.976   5.479   0.630
 6685TIP3    H220013   1.976   5.520   0.775
 6686TIP3   OH220014   5.258   2.634   3.418
 6686TIP3    H120015   5.314   2.564   3.450
 6686TIP3    H220016   5.318   2.705   3.395
 6687TIP3   OH220017   1.319   5.189   2.918
 6687TIP3    H120018   1.404   5.232   2.917
 6687TIP3    H220019   1.333   5.106   2.874
 6688TIP3   OH220020   1.092   3.109   2.602
 6688TIP3    H120021   1.158   3.178   2.611
 6688TIP3    H220022   1.028   3.145   2.542
 6689TIP3   OH220023   7.283   6.653   2.001
 6689TIP3    H120024   7.304   6.635   1.909
 6689TIP3    H220025   7.195   6.691   1.998
 6690TIP3   OH220026   5.772   1.643   1.318
 6690TIP3    H120027   5.728   1.697   1.383
 6690TIP3    H220028   5.851   1.692   1.296
 6691TIP3   OH220029   6.749   0.612   3.011
 6691TIP3    H120030   6.722   0.607   3.102
 6691TIP3    H220031   6.843   0.632   3.015
 6692TIP3   OH220032   6.998   3.347   0.423
 6692TIP3    H120033   7.040   3.277   0.473
 6692TIP3    H220034   7.069   3.392   0.378
 6693TIP3   OH220035   0.239   0.520   4.763
 6693TIP3    H120036   0.286   0.439   4.781
 6693TIP3    H220037   0.180   0.498   4.690
 6694TIP3   OH220038   1.800   0.418   6.329
 6694TIP3    H120039   1.832   0.442   6.416
 6694TIP3    H220040   1.750   0.493   6.299
 6695TIP3   OH220041   0.608   4.622   3.726
 6695TIP3    H120042   0.516   4.633   3.750
 6695TIP3    H220043   0.619   4.677   3.648
 6696TIP3   OH220044   5.267   6.891   2.912
 6696TIP3    H120045   5.198   6.915   2.850
 6696TIP3    H220046   5.220   6.851   2.986
 6697TIP3   OH220047   4.957   1.739   1.211
 6697TIP3    H120048   4.861   1.734   1.205
 6697TIP3    H220049   4.975   1.833   1.218
 6698TIP3   OH220050   5.416   2.996   5.413
 6698TIP3    H120051   5.491   3.055   5.408
 6698TIP3    H220052   5.397   2.974   5.321
 6699TIP3   OH220053   4.559   3.203   5.069
 6699TIP3    H120054   4.481   3.171   5.023
 6699TIP3    H220055   4.594   3.126   5.113
 6700TIP3   OH220056   5.078   5.538   5.725
 6700TIP3    H120057   5.145   5.605   5.714
 6700TIP3    H220058   5.055   5.512   5.636
 6701TIP3   OH220059   4.180   2.683   0.491
 6701TIP3    H120060   4.130   2.627   0.433
 6701TIP3    H220061   4.266   2.690   0.450
 6702TIP3   OH220062   0.373   1.978   4.650
 6702TIP3    H120063   0.332   1.983   4.736
 6702TIP3    H220064   0.310   2.019   4.590
 6703TIP3   OH220065   8.160   3.027   2.866
 6703TIP3    H120066   8.215   3.104   2.850
 6703TIP3    H220067   8.156   3.020   2.962
 6704TIP3   OH220068   1.355   4.484   5.714
 6704TIP3    H120069   1.327   4.397   5.684
 6704TIP3    H220070   1.356   4.477   5.810
 6705TIP3   OH220071   3.951   3.525   0.362
 6705TIP3    H120072   3.866   3.528   0.318
 6705TIP3    H220073   3.965   3.614   0.394
 6706TIP3   OH220074   0.993   5.555   4.466
 6706TIP3    H120075   1.058   5.592   4.526
 6706TIP3    H220076   1.044   5.497   4.409
 6707TIP3   OH220077   0.957   1.623   1.980
 6707TIP3    H120078   1.013   1.691   2.018
 6707TIP3    H220079   0.870   1.643   2.013
 6708TIP3   OH220080   0.538   4.443   6.542
 6708TIP3    H120081   0.560   4.361   6.588
 6708TIP3    H220082   0.494   4.415   6.462
 6709TIP3   OH220083   6.557   3.930   1.417
 6709TIP3    H120084   6.587   3.957   1.330
 6709TIP3    H220085   6.569   4.007   1.471
 6710TIP3   OH220086   0.963   0.843   5.575
 6710TIP3    H120087   1.027   0.914   5.573
 6710TIP3    H220088   0.887   0.879   5.528
 6711TIP3   OH220089   4.717   3.290   6.144
 6711TIP3    H120090   4.664   3.363   6.113
 6711TIP3    H220091   4.740   3.314   6.234
 6712TIP3   OH220092   2.853   3.778   5.057
 6712TIP3    H120093   2.774   3.782   5.004
 6712TIP3    H220094   2.823   3.748   5.143
 6713TIP3   OH220095   4.313   0.270   3.280
 6713TIP3    H120096   4.289   0.180   3.259
 6713TIP3    H220097   4.270   0.286   3.365
 6714TIP3   OH220098   1.593   3.583   3.830
 6714TIP3    H120099   1.556   3.497   3.851
 6714TIP3    H220100   1.638   3.570   3.747
 6715TIP3   OH220101   2.548   5.184   3.210
 6715TIP3    H120102   2.635   5.194   3.171
 6715TIP3    H220103   2.561   5.123   3.283
 6716TIP3   OH220104   5.841   0.329   4.384
 6716TIP3    H120105   5.920   0.366   4.424
 6716TIP3    H220106   5.806   0.399   4.329
 6717TIP3   OH220107   1.736   5.185   5.582
 6717TIP3    H120108   1.819   5.231   5.573
 6717TIP3    H220109   1.728   5.133   5.502
 6718TIP3   OH220110   3.036   7.138   5.990
 6718TIP3    H120111   2.942   7.151   5.988
 6718TIP3    H220112   3.057   7.102   5.904
 6719TIP3   OH220113   2.283   0.351   1.854
 6719TIP3    H120114   2.335   0.273   1.871
 6719TIP3    H220115   2.268   0.389   1.941
 6720TIP3   OH220116   5.198   1.349   3.960
 6720TIP3    H120117   5.108   1.318   3.952
 6720TIP3    H220118   5.196   1.439   3.927
 6721TIP3   OH220119   5.099   7.779   1.359
 6721TIP3    H120120   5.126   7.869   1.376
 6721TIP3    H220121   5.167   7.745   1.301
 6722TIP3   OH220122   1.034   0.218   0.304
 6722TIP3    H120123   1.109   0.181   0.351
 6722TIP3    H220124   0.987   0.268   0.371
 6723TIP3   OH220125   3.720   7.284   2.299
 6723TIP3    H120126   3.672   7.233   2.364
 6723TIP3    H220127   3.697   7.375   2.317
 6724TIP3   OH220128   7.758   6.663   4.166
 6724TIP3    H120129   7.811   6.601   4.215
 6724TIP3    H220130   7.681   6.613   4.139
 6725TIP3   OH220131   0.592   4.746   0.770
 6725TIP3    H120132   0.594   4.813   0.839
 6725TIP3    H220133   0.500   4.722   0.763
 6726TIP3   OH220134   1.529   6.011   3.860
 6726TIP3    H120135   1.473   6.018   3.938
 6726TIP3    H220136   1.597   5.949   3.886
 6727TIP3   OH220137   1.133   5.842   2.725
 6727TIP3    H120138   1.191   5.805   2.658
 6727TIP3    H220139   1.184   5.836   2.806
 6728TIP3   OH220140   6.562   5.012   3.946
 6728TIP3    H120141   6.613   4.995   3.866
 6728TIP3    H220142   6.474   4.982   3.925
 6729TIP3   OH220143   2.695   0.522   3.231
 6729TIP3    H120144   2.621   0.578   3.252
 6729TIP3    H220145   2.664   0.433   3.248
 6730TIP3   OH220146   7.966   6.131   6.079
 6730TIP3    H120147   7.877   6.139   6.045
 6730TIP3    H220148   8.000   6.052   6.036
 6731TIP3   OH220149   5.922   5.481   0.066
 6731TIP3    H120150   5.979   5.557   0.078
 6731TIP3    H220151   5.905   5.478  -0.028
 6732TIP3   OH220152   4.314   5.518   5.553
 6732TIP3    H120153   4.390   5.576   5.547
 6732TIP3    H220154   4.275   5.521   5.465
 6733TIP3   OH220155   6.225   3.564   0.222
 6733TIP3    H120156   6.216   3.554   0.317
 6733TIP3    H220157   6.145   3.609   0.195
 6734TIP3   OH220158   2.874   5.657   0.497
 6734TIP3    H120159   2.859   5.696   0.583
 6734TIP3    H220160   2.937   5.716   0.455
 6735TIP3   OH220161   0.395   6.182   3.541
 6735TIP3    H120162   0.354   6.268   3.547
 6735TIP3    H220163   0.384   6.156   3.449
 6736TIP3   OH220164   4.345   3.987   0.568
 6736TIP3    H120165   4.285   4.046   0.614
 6736TIP3    H220166   4.325   3.901   0.604
 6737TIP3   OH220167   6.277   4.514   4.728
 6737TIP3    H120168   6.205   4.463   4.690
 6737TIP3    H220169   6.336   4.448   4.766
 6738TIP3   OH220170   2.043   4.201   0.213
 6738TIP3    H120171   2.107   4.253   0.262
 6738TIP3    H220172   2.022   4.128   0.271
 6739TIP3   OH220173   1.920   2.948   3.339
 6739TIP3    H120174   1.955   3.030   3.375
 6739TIP3    H220175   1.900   2.968   3.248
 6740TIP3   OH220176   0.456   4.509   3.179
 6740TIP3    H120177   0.519   4.526   3.109
 6740TIP3    H220178   0.494   4.435   3.228
 6741TIP3   OH220179   2.796   7.636   6.507
 6741TIP3    H120180   2.867   7.697   6.488
 6741TIP3    H220181   2.719   7.691   6.520
 6742TIP3   OH220182   2.970   2.532   1.616
 6742TIP3    H120183   2.992   2.611   1.567
 6742TIP3    H220184   3.048   2.476   1.606
 6743TIP3   OH220185   1.791   4.038   4.167
 6743TIP3    H120186   1.782   3.944   4.181
 6743TIP3    H220187   1.703   4.068   4.145
 6744TIP3   OH220188   7.085   4.122   3.966
 6744TIP3    H120189   7.082   4.193   3.902
 6744TIP3    H220190   6.994   4.111   3.993
 6745TIP3   OH220191   2.316   1.758   2.189
 6745TIP3    H120192   2.284   1.712   2.267
 6745TIP3    H220193   2.327   1.690   2.123
 6746TIP3   OH220194   1.231   3.013   3.191
 6746TIP3    H120195   1.239   3.066   3.112
 6746TIP3    H220196   1.214   2.925   3.158
 6747TIP3   OH220197   5.247   6.904   3.716
 6747TIP3    H120198   5.322   6.964   3.719
 6747TIP3    H220199   5.194   6.930   3.792
 6748TIP3   OH220200   3.167   5.263   0.094
 6748TIP3    H120201   3.249   5.215   0.079
 6748TIP3    H220202   3.153   5.312   0.013
 6749TIP3   OH220203   0.527   2.282   6.455
 6749TIP3    H120204   0.576   2.285   6.537
 6749TIP3    H220205   0.526   2.189   6.431
 6750TIP3   OH220206   3.963   0.231   5.618
 6750TIP3    H120207   3.974   0.313   5.665
 6750TIP3    H220208   3.921   0.256   5.535
 6751TIP3   OH220209   8.100   5.251   4.435
 6751TIP3    H120210   8.165   5.240   4.366
 6751TIP3    H220211   8.036   5.312   4.398
 6752TIP3   OH220212   4.178   5.732   6.699
 6752TIP3    H120213   4.256   5.770   6.659
 6752TIP3    H220214   4.129   5.695   6.626
 6753TIP3   OH220215   0.999   4.883   1.013
 6753TIP3    H120216   1.055   4.809   1.035
 6753TIP3    H220217   1.037   4.957   1.060
 6754TIP3   OH220218   4.247   4.666   5.775
 6754TIP3    H120219   4.319   4.719   5.739
 6754TIP3    H220220   4.284   4.579   5.785
 6755TIP3   OH220221   4.073   6.529   3.217
 6755TIP3    H120222   4.129   6.453   3.211
 6755TIP3    H220223   4.035   6.525   3.305
 6756TIP3   OH220224   2.007   2.465   4.738
 6756TIP3    H120225   2.040   2.395   4.793
 6756TIP3    H220226   1.952   2.518   4.796
 6757TIP3   OH220227   7.612   4.460   4.767
 6757TIP3    H120228   7.682   4.406   4.731
 6757TIP3    H220229   7.633   4.467   4.860
 6758TIP3   OH220230   7.651   5.337   6.712
 6758TIP3    H120231   7.657   5.415   6.767
 6758TIP3    H220232   7.584   5.283   6.753
 6759TIP3   OH220233   1.804   7.559   4.040
 6759TIP3    H120234   1.859   7.558   3.962
 6759TIP3    H220235   1.842   7.492   4.097
 6760TIP3   OH220236   5.060   5.077   5.310
 6760TIP3    H120237   4.965   5.070   5.314
 6760TIP3    H220238   5.087   5.096   5.400
 6761TIP3   OH220239   1.163   3.361   2.418
 6761TIP3    H120240   1.116   3.392   2.496
 6761TIP3    H220241   1.143   3.425   2.351
 6762TIP3   OH220242   1.822   2.621   2.943
 6762TIP3    H120243   1.785   2.535   2.920
 6762TIP3    H220244   1.772   2.684   2.891
 6763TIP3   OH220245   0.722   3.182   3.049
 6763TIP3    H120246   0.666   3.106   3.030
 6763TIP3    H220247   0.668   3.258   3.027
 6764TIP3   OH220248   2.785   3.199   2.896
 6764TIP3    H120249   2.723   3.239   2.835
 6764TIP3    H220250   2.871   3.218   2.860
 6765TIP3   OH220251   1.221   6.235   4.612
 6765TIP3    H120252   1.197   6.292   4.685
 6765TIP3    H220253   1.139   6.195   4.584
 6766TIP3   OH220254   6.513   1.378   6.238
 6766TIP3    H120255   6.586   1.424   6.197
 6766TIP3    H220256   6.439   1.396   6.180
 6767TIP3   OH220257   8.211   0.405   5.777
 6767TIP3    H120258   8.256   0.329   5.739
 6767TIP3    H220259   8.278   0.451   5.827
 6768TIP3   OH220260   1.601   7.357   3.982
 6768TIP3    H120261   1.531   7.359   3.916
 6768TIP3    H220262   1.647   7.439   3.969
 6769TIP3   OH220263   0.109   7.184   0.990
 6769TIP3    H120264   0.193   7.151   0.958
 6769TIP3    H220265   0.097   7.268   0.946
 6770TIP3   OH220266   1.412   4.418   5.006
 6770TIP3    H120267   1.389   4.511   5.014
 6770TIP3    H220268   1.469   4.400   5.081
 6771TIP3   OH220269   5.348   3.089   6.051
 6771TIP3    H120270   5.389   3.003   6.042
 6771TIP3    H220271   5.305   3.087   6.136
 6772TIP3   OH220272   3.636   7.517   1.693
 6772TIP3    H120273   3.652   7.536   1.786
 6772TIP3    H220274   3.556   7.464   1.693
 6773TIP3   OH220275   3.875   4.437   4.100
 6773TIP3    H120276   3.897   4.402   4.186
 6773TIP3    H220277   3.909   4.527   4.102
 6774TIP3   OH220278   1.932   0.355   4.386
 6774TIP3    H120279   1.963   0.292   4.451
 6774TIP3    H220280   1.877   0.302   4.327
 6775TIP3   OH220281   2.614   1.041   3.069
 6775TIP3    H120282   2.678   1.005   3.131
 6775TIP3    H220283   2.661   1.112   3.025
 6776TIP3   OH220284   6.382   0.011   1.037
 6776TIP3    H120285   6.338  -0.013   0.956
 6776TIP3    H220286   6.331   0.085   1.071
 6777TIP3   OH220287   4.082   4.699   3.257
 6777TIP3    H120288   4.069   4.676   3.165
 6777TIP3    H220289   4.153   4.763   3.256
 6778TIP3   OH220290   4.974   3.112   2.791
 6778TIP3    H120291   4.922   3.157   2.857
 6778TIP3    H220292   5.008   3.035   2.836
 6779TIP3   OH220293   3.796   2.481   1.008
 6779TIP3    H120294   3.864   2.415   0.991
 6779TIP3    H220295   3.845   2.561   1.027
 6780TIP3   OH220296   2.858   7.728   2.583
 6780TIP3    H120297   2.782   7.743   2.640
 6780TIP3    H220298   2.844   7.641   2.547
 6781TIP3   OH220299   1.593   6.279   3.754
 6781TIP3    H120300   1.688   6.283   3.767
 6781TIP3    H220301   1.565   6.204   3.806
 6782TIP3   OH220302   7.817   1.977   5.585
 6782TIP3    H120303   7.827   1.895   5.634
 6782TIP3    H220304   7.745   1.960   5.524
 6783TIP3   OH220305   0.177   5.848   6.305
 6783TIP3    H120306   0.111   5.904   6.264
 6783TIP3    H220307   0.163   5.762   6.265
 6784TIP3   OH220308   4.658   5.627   1.355
 6784TIP3    H120309   4.591   5.644   1.421
 6784TIP3    H220310   4.629   5.546   1.312
 6785TIP3   OH220311   0.623   2.004   5.672
 6785TIP3    H120312   0.555   1.991   5.738
 6785TIP3    H220313   0.701   1.962   5.709
 6786TIP3   OH220314   0.943   5.335   1.752
 6786TIP3    H120315   0.869   5.384   1.788
 6786TIP3    H220316   0.962   5.269   1.818
 6787TIP3   OH220317   1.492   1.145   1.751
 6787TIP3    H120318   1.537   1.091   1.687
 6787TIP3    H220319   1.487   1.232   1.711
 6788TIP3   OH220320   1.683   5.665   5.964
 6788TIP3    H120321   1.614   5.632   6.022
 6788TIP3    H220322   1.732   5.728   6.017
 6789TIP3   OH220323   7.005   5.521   3.802
 6789TIP3    H120324   6.957   5.596   3.767
 6789TIP3    H220325   7.065   5.559   3.866
 6790TIP3   OH220326   7.144   4.704   5.116
 6790TIP3    H120327   7.082   4.776   5.131
 6790TIP3    H220328   7.114   4.664   5.034
 6791TIP3   OH220329   5.905   2.857   3.873
 6791TIP3    H120330   5.927   2.835   3.964
 6791TIP3    H220331   5.872   2.947   3.877
 6792TIP3   OH220332   0.752   1.826   0.186
 6792TIP3    H120333   0.805   1.834   0.265
 6792TIP3    H220334   0.753   1.732   0.166
 6793TIP3   OH220335   2.169   2.266   6.549
 6793TIP3    H120336   2.090   2.303   6.510
 6793TIP3    H220337   2.229   2.340   6.560
 6794TIP3   OH220338   6.001   5.689   5.784
 6794TIP3    H120339   5.946   5.630   5.733
 6794TIP3    H220340   5.939   5.746   5.829
 6795TIP3   OH220341   2.516   7.475   6.569
 6795TIP3    H120342   2.426   7.445   6.574
 6795TIP3    H220343   2.543   7.459   6.478
 6796TIP3   OH220344   2.616   4.916   2.584
 6796TIP3    H120345   2.555   4.851   2.550
 6796TIP3    H220346   2.690   4.914   2.523
 6797TIP3   OH220347   2.736   1.131   5.164
 6797TIP3    H120348   2.752   1.111   5.257
 6797TIP3    H220349   2.676   1.205   5.166
 6798TIP3   OH220350   7.535   0.329   2.719
 6798TIP3    H120351   7.612   0.326   2.775
 6798TIP3    H220352   7.570   0.350   2.632
 6799TIP3   OH220353   4.592   3.795   6.749
 6799TIP3    H120354   4.544   3.760   6.674
 6799TIP3    H220355   4.668   3.737   6.758
 6800TIP3   OH220356   4.705   4.621   6.436
 6800TIP3    H120357   4.664   4.555   6.491
 6800TIP3    H220358   4.636   4.648   6.375
 6801TIP3   OH220359   0.061   0.272   4.868
 6801TIP3    H120360   0.033   0.182   4.883
 6801TIP3    H220361  -0.004   0.308   4.808
 6802TIP3   OH220362   1.837   4.379   4.289
 6802TIP3    H120363   1.797   4.461   4.317
 6802TIP3    H220364   1.855   4.390   4.196
 6803TIP3   OH220365   7.003   2.830   4.306
 6803TIP3    H120366   7.025   2.920   4.282
 6803TIP3    H220367   6.933   2.838   4.370
 6804TIP3   OH220368   2.790   6.849   4.727
 6804TIP3    H120369   2.823   6.759   4.733
 6804TIP3    H220370   2.750   6.853   4.640
 6805TIP3   OH220371   1.811   7.835   1.187
 6805TIP3    H120372   1.782   7.822   1.277
 6805TIP3    H220373   1.851   7.751   1.163
 6806TIP3   OH220374   6.960   2.829   3.666
 6806TIP3    H120375   6.968   2.830   3.570
 6806TIP3    H220376   6.953   2.736   3.689
 6807TIP3   OH220377   1.187   6.095   1.517
 6807TIP3    H120378   1.279   6.071   1.508
 6807TIP3    H220379   1.152   6.035   1.583
 6808TIP3   OH220380   2.074   7.486   5.341
 6808TIP3    H120381   2.097   7.554   5.277
 6808TIP3    H220382   2.156   7.441   5.358
 6809TIP3   OH220383   3.959   0.738   0.713
 6809TIP3    H120384   3.908   0.818   0.698
 6809TIP3    H220385   3.932   0.679   0.642
 6810TIP3   OH220386   8.201   4.902   0.754
 6810TIP3    H120387   8.183   4.990   0.785
 6810TIP3    H220388   8.115   4.862   0.742
 6811TIP3   OH220389   7.627   1.668   5.456
 6811TIP3    H120390   7.594   1.716   5.532
 6811TIP3    H220391   7.677   1.595   5.493
 6812TIP3   OH220392   8.196   7.714   1.965
 6812TIP3    H120393   8.167   7.805   1.967
 6812TIP3    H220394   8.288   7.717   1.992
 6813TIP3   OH220395   6.467   1.400   0.711
 6813TIP3    H120396   6.483   1.464   0.781
 6813TIP3    H220397   6.465   1.453   0.631
 6814TIP3   OH220398   4.267   2.890   5.214
 6814TIP3    H120399   4.215   2.873   5.292
 6814TIP3    H220400   4.255   2.983   5.197
 6815TIP3   OH220401   6.372   6.472   4.854
 6815TIP3    H120402   6.367   6.508   4.943
 6815TIP3    H220403   6.449   6.415   4.856
 6816TIP3   OH220404   7.144   5.809   0.387
 6816TIP3    H120405   7.226   5.792   0.340
 6816TIP3    H220406   7.090   5.857   0.324
 6817TIP3   OH220407   8.177   2.600   1.209
 6817TIP3    H120408   8.209   2.642   1.129
 6817TIP3    H220409   8.085   2.627   1.214
 6818TIP3   OH220410   6.168   3.794   0.573
 6818TIP3    H120411   6.078   3.762   0.560
 6818TIP3    H220412   6.180   3.860   0.504
 6819TIP3   OH220413   1.321   5.165   2.122
 6819TIP3    H120414   1.262   5.159   2.047
 6819TIP3    H220415   1.264   5.191   2.195
 6820TIP3   OH220416   7.011   3.553   6.369
 6820TIP3    H120417   7.044   3.625   6.423
 6820TIP3    H220418   7.031   3.578   6.279
 6821TIP3   OH220419   0.935   2.626   1.152
 6821TIP3    H120420   0.942   2.721   1.142
 6821TIP3    H220421   0.854   2.612   1.201
 6822TIP3   OH220422   7.614   1.528   2.044
 6822TIP3    H120423   7.599   1.621   2.027
 6822TIP3    H220424   7.694   1.507   1.995
 6823TIP3   OH220425   1.493   7.651   5.110
 6823TIP3    H120426   1.504   7.734   5.064
 6823TIP3    H220427   1.529   7.586   5.049
 6824TIP3   OH220428   0.469   0.350   4.340
 6824TIP3    H120429   0.545   0.375   4.393
 6824TIP3    H220430   0.500   0.358   4.249
 6825TIP3   OH220431   5.046   7.744   4.920
 6825TIP3    H120432   5.050   7.730   4.826
 6825TIP3    H220433   5.125   7.701   4.954
 6826TIP3   OH220434   3.819   2.626   3.339
 6826TIP3    H120435   3.875   2.689   3.296
 6826TIP3    H220436   3.768   2.586   3.268
 6827TIP3   OH220437   6.215   2.425   3.890
 6827TIP3    H120438   6.253   2.494   3.835
 6827TIP3    H220439   6.195   2.469   3.973
 6828TIP3   OH220440   7.645   7.645   2.473
 6828TIP3    H120441   7.632   7.613   2.562
 6828TIP3    H220442   7.700   7.579   2.431
 6829TIP3   OH220443   4.929   1.609   2.430
 6829TIP3    H120444   5.009   1.662   2.428
 6829TIP3    H220445   4.881   1.635   2.352
 6830TIP3   OH220446   3.725   1.139   6.623
 6830TIP3    H120447   3.695   1.065   6.571
 6830TIP3    H220448   3.803   1.170   6.577
 6831TIP3   OH220449   4.218   4.442   1.637
 6831TIP3    H120450   4.277   4.467   1.566
 6831TIP3    H220451   4.272   4.446   1.716
 6832TIP3   OH220452   6.513   6.072   3.680
 6832TIP3    H120453   6.478   6.086   3.592
 6832TIP3    H220454   6.604   6.100   3.674
 6833TIP3   OH220455   6.424   7.289   6.731
 6833TIP3    H120456   6.484   7.242   6.789
 6833TIP3    H220457   6.473   7.368   6.705
 6834TIP3   OH220458   4.257   1.810   0.081
 6834TIP3    H120459   4.257   1.719   0.052
 6834TIP3    H220460   4.311   1.855   0.016
 6835TIP3   OH220461   2.296   1.480   5.339
 6835TIP3    H120462   2.383   1.488   5.377
 6835TIP3    H220463   2.277   1.386   5.341
 6836TIP3   OH220464   5.894   6.124   1.994
 6836TIP3    H120465   5.828   6.180   1.953
 6836TIP3    H220466   5.946   6.182   2.049
 6837TIP3   OH220467   6.486   2.843   2.763
 6837TIP3    H120468   6.502   2.848   2.669
 6837TIP3    H220469   6.572   2.860   2.802
 6838TIP3   OH220470   0.188   6.218   3.895
 6838TIP3    H120471   0.123   6.227   3.965
 6838TIP3    H220472   0.175   6.128   3.864
 6839TIP3   OH220473   6.771   0.296   4.434
 6839TIP3    H120474   6.706   0.227   4.422
 6839TIP3    H220475   6.853   0.249   4.452
 6840TIP3   OH220476   0.575   2.912   1.469
 6840TIP3    H120477   0.560   2.928   1.562
 6840TIP3    H220478   0.594   2.818   1.463
 6841TIP3   OH220479   6.223   0.996   6.026
 6841TIP3    H120480   6.184   0.922   5.979
 6841TIP3    H220481   6.307   0.963   6.058
 6842TIP3   OH220482   3.004   4.963   2.057
 6842TIP3    H120483   2.970   5.014   1.984
 6842TIP3    H220484   3.096   4.949   2.037
 6843TIP3   OH220485   7.974   2.055   1.071
 6843TIP3    H120486   8.025   2.134   1.055
 6843TIP3    H220487   8.034   1.983   1.053
 6844TIP3   OH220488   7.987   5.847   4.104
 6844TIP3    H120489   7.958   5.924   4.054
 6844TIP3    H220490   7.909   5.791   4.108
 6845TIP3   OH220491   6.964   3.190   6.791
 6845TIP3    H120492   7.011   3.267   6.759
 6845TIP3    H220493   6.999   3.117   6.739
 6846TIP3   OH220494   1.878   4.355   1.287
 6846TIP3    H120495   1.819   4.283   1.308
 6846TIP3    H220496   1.855   4.424   1.349
 6847TIP3   OH220497   5.880   1.129   0.304
 6847TIP3    H120498   5.922   1.207   0.340
 6847TIP3    H220499   5.859   1.076   0.380
 6848TIP3   OH220500   3.163   7.698   3.534
 6848TIP3    H120501   3.097   7.709   3.602
 6848TIP3    H220502   3.144   7.767   3.471
 6849TIP3   OH220503   7.057   3.062   2.357
 6849TIP3    H120504   7.030   2.988   2.303
 6849TIP3    H220505   7.153   3.055   2.360
 6850TIP3   OH220506   8.201   1.296   1.533
 6850TIP3    H120507   8.132   1.338   1.481
 6850TIP3    H220508   8.279   1.300   1.478
 6851TIP3   OH220509   4.578   3.673   5.543
 6851TIP3    H120510   4.499   3.618   5.542
 6851TIP3    H220511   4.638   3.628   5.482
 6852TIP3   OH220512   0.215   5.097   0.790
 6852TIP3    H120513   0.285   5.106   0.726
 6852TIP3    H220514   0.231   5.166   0.854
 6853TIP3   OH220515   3.627   3.045   5.218
 6853TIP3    H120516   3.581   2.997   5.149
 6853TIP3    H220517   3.569   3.038   5.294
 6854TIP3   OH220518   6.823   0.486   1.053
 6854TIP3    H120519   6.880   0.435   0.995
 6854TIP3    H220520   6.832   0.444   1.138
 6855TIP3   OH220521   3.928   0.710   4.863
 6855TIP3    H120522   3.902   0.644   4.798
 6855TIP3    H220523   3.986   0.664   4.922
 6856TIP3   OH220524   7.087   0.586   0.539
 6856TIP3    H120525   7.151   0.626   0.481
 6856TIP3    H220526   7.117   0.495   0.549
 6857TIP3   OH220527   7.598   1.260   4.304
 6857TIP3    H120528   7.662   1.294   4.367
 6857TIP3    H220529   7.515   1.296   4.334
 6858TIP3   OH220530   0.852   2.915   1.733
 6858TIP3    H120531   0.886   2.868   1.809
 6858TIP3    H220532   0.925   2.968   1.703
 6859TIP3   OH220533   6.057   4.274   6.256
 6859TIP3    H120534   6.046   4.366   6.236
 6859TIP3    H220535   6.090   4.235   6.175
 6860TIP3   OH220536   6.105   4.867   6.368
 6860TIP3    H120537   6.140   4.828   6.449
 6860TIP3    H220538   6.014   4.837   6.365
 6861TIP3   OH220539   4.612   0.414   2.795
 6861TIP3    H120540   4.602   0.374   2.881
 6861TIP3    H220541   4.666   0.491   2.810
 6862TIP3   OH220542   3.578   6.082   3.360
 6862TIP3    H120543   3.543   5.997   3.385
 6862TIP3    H220544   3.666   6.084   3.398
 6863TIP3   OH220545   0.228   3.855   3.428
 6863TIP3    H120546   0.136   3.855   3.456
 6863TIP3    H220547   0.241   3.941   3.387
 6864TIP3   OH220548   4.734   0.368   1.435
 6864TIP3    H120549   4.774   0.387   1.349
 6864TIP3    H220550   4.644   0.399   1.427
 6865TIP3   OH220551   0.690   1.122   0.151
 6865TIP3    H120552   0.677   1.118   0.246
 6865TIP3    H220553   0.659   1.038   0.118
 6866TIP3   OH220554   0.187   6.483   0.371
 6866TIP3    H120555   0.146   6.542   0.307
 6866TIP3    H220556   0.262   6.533   0.404
 6867TIP3   OH220557   6.999   2.596   2.022
 6867TIP3    H120558   6.969   2.645   1.946
 6867TIP3    H220559   6.931   2.531   2.038
 6868TIP3   OH220560   7.164   3.613   3.968
 6868TIP3    H120561   7.082   3.568   3.947
 6868TIP3    H220562   7.173   3.680   3.899
 6869TIP3   OH220563   2.715   1.164   2.833
 6869TIP3    H120564   2.686   1.114   2.756
 6869TIP3    H220565   2.672   1.249   2.824
 6870TIP3   OH220566   6.069   7.451   0.536
 6870TIP3    H120567   6.162   7.459   0.561
 6870TIP3    H220568   6.046   7.362   0.560
 6871TIP3   OH220569   5.681   3.574   2.109
 6871TIP3    H120570   5.723   3.638   2.051
 6871TIP3    H220571   5.736   3.572   2.187
 6872TIP3   OH220572   1.318   1.666   0.461
 6872TIP3    H120573   1.329   1.707   0.375
 6872TIP3    H220574   1.242   1.609   0.450
 6873TIP3   OH220575   2.155   7.341   4.749
 6873TIP3    H120576   2.096   7.415   4.758
 6873TIP3    H220577   2.233   7.367   4.799
 6874TIP3   OH220578   6.345   4.252   4.262
 6874TIP3    H120579   6.285   4.202   4.317
 6874TIP3    H220580   6.344   4.340   4.299
 6875TIP3   OH220581   5.080   5.958   1.545
 6875TIP3    H120582   5.026   5.908   1.483
 6875TIP3    H220583   5.021   5.978   1.617
 6876TIP3   OH220584   1.286   2.132   1.433
 6876TIP3    H120585   1.293   2.226   1.453
 6876TIP3    H220586   1.194   2.111   1.450
 6877TIP3   OH220587   0.969   6.046   1.338
 6877TIP3    H120588   1.040   6.065   1.399
 6877TIP3    H220589   0.906   5.997   1.390
 6878TIP3   OH220590   8.244   1.977   1.418
 6878TIP3    H120591   8.275   1.965   1.507
 6878TIP3    H220592   8.148   1.972   1.424
 6879TIP3   OH220593   0.901   0.981   1.757
 6879TIP3    H120594   0.935   0.951   1.673
 6879TIP3    H220595   0.931   1.072   1.763
 6880TIP3   OH220596   1.315   7.015   0.814
 6880TIP3    H120597   1.282   6.926   0.806
 6880TIP3    H220598   1.368   7.014   0.894
 6881TIP3   OH220599   2.087   2.540   2.073
 6881TIP3    H120600   2.162   2.492   2.040
 6881TIP3    H220601   2.116   2.576   2.156
 6882TIP3   OH220602   4.297   5.374   0.130
 6882TIP3    H120603   4.340   5.293   0.158
 6882TIP3    H220604   4.267   5.356   0.041
 6883TIP3   OH220605   0.965   3.205   0.477
 6883TIP3    H120606   1.002   3.226   0.562
 6883TIP3    H220607   0.958   3.109   0.477
 6884TIP3   OH220608   3.233   4.401   3.719
 6884TIP3    H120609   3.300   4.334   3.704
 6884TIP3    H220610   3.175   4.362   3.785
 6885TIP3   OH220611   5.499   7.122   2.224
 6885TIP3    H120612   5.424   7.167   2.264
 6885TIP3    H220613   5.473   7.030   2.221
 6886TIP3   OH220614   2.593   5.485   5.552
 6886TIP3    H120615   2.628   5.574   5.559
 6886TIP3    H220616   2.540   5.475   5.632
 6887TIP3   OH220617   5.353   6.687   6.254
 6887TIP3    H120618   5.436   6.724   6.225
 6887TIP3    H220619   5.308   6.759   6.299
 6888TIP3   OH220620   3.353   4.769   4.889
 6888TIP3    H120621   3.299   4.844   4.916
 6888TIP3    H220622   3.301   4.725   4.822
 6889TIP3   OH220623   5.261   2.595   4.264
 6889TIP3    H120624   5.181   2.645   4.270
 6889TIP3    H220625   5.234   2.504   4.277
 6890TIP3   OH220626   7.178   0.420   3.671
 6890TIP3    H120627   7.125   0.500   3.679
 6890TIP3    H220628   7.145   0.363   3.740
 6891TIP3   OH220629   6.984   6.104   3.513
 6891TIP3    H120630   7.022   6.187   3.541
 6891TIP3    H220631   7.053   6.063   3.460
 6892TIP3   OH220632   1.912   5.058   6.203
 6892TIP3    H120633   1.869   5.111   6.271
 6892TIP3    H220634   1.936   5.121   6.135
 6893TIP3   OH220635   2.932   7.719   3.347
 6893TIP3    H120636   2.940   7.724   3.252
 6893TIP3    H220637   2.991   7.649   3.373
 6894TIP3   OH220638   2.164   6.275   4.368
 6894TIP3    H120639   2.256   6.298   4.378
 6894TIP3    H220640   2.139   6.238   4.453
 6895TIP3   OH220641   7.752   3.722   0.032
 6895TIP3    H120642   7.713   3.653  -0.021
 6895TIP3    H220643   7.846   3.718   0.011
 6896TIP3   OH220644   3.705   0.490   3.857
 6896TIP3    H120645   3.686   0.581   3.878
 6896TIP3    H220646   3.797   0.492   3.829
 6897TIP3   OH220647   4.085   3.724   5.353
 6897TIP3    H120648   3.996   3.709   5.321
 6897TIP3    H220649   4.136   3.651   5.318
 6898TIP3   OH220650   0.923   1.905   0.418
 6898TIP3    H120651   0.901   1.990   0.456
 6898TIP3    H220652   0.939   1.848   0.494
 6899TIP3   OH220653   1.014   4.937   0.340
 6899TIP3    H120654   1.091   4.917   0.393
 6899TIP3    H220655   0.952   4.867   0.360
 6900TIP3   OH220656   0.964   6.834   0.323
 6900TIP3    H120657   1.057   6.813   0.325
 6900TIP3    H220658   0.959   6.919   0.278
 6901TIP3   OH220659   6.301   5.315   5.294
 6901TIP3    H120660   6.342   5.258   5.358
 6901TIP3    H220661   6.215   5.276   5.279
 6902TIP3   OH220662   4.905   1.256   4.051
 6902TIP3    H120663   4.920   1.162   4.058
 6902TIP3    H220664   4.899   1.272   3.956
 6903TIP3   OH220665   3.508   0.546   2.026
 6903TIP3    H120666   3.451   0.616   2.057
 6903TIP3    H220667   3.523   0.490   2.103
 6904TIP3   OH220668   5.038   4.233   5.684
 6904TIP3    H120669   4.984   4.164   5.645
 6904TIP3    H220670   4.990   4.314   5.668
 6905TIP3   OH220671   0.510   6.124   5.117
 6905TIP3    H120672   0.449   6.156   5.050
 6905TIP3    H220673   0.551   6.047   5.077
 6906TIP3   OH220674   3.613   1.681   6.181
 6906TIP3    H120675   3.699   1.683   6.140
 6906TIP3    H220676   3.557   1.735   6.124
 6907TIP3   OH220677   0.444   2.462   0.750
 6907TIP3    H120678   0.501   2.473   0.826
 6907TIP3    H220679   0.406   2.375   0.760
 6908TIP3   OH220680   5.723   7.020   2.389
 6908TIP3    H120681   5.650   7.081   2.400
 6908TIP3    H220682   5.685   6.934   2.407
 6909TIP3   OH220683   6.184   2.372   1.020
 6909TIP3    H120684   6.234   2.413   1.090
 6909TIP3    H220685   6.219   2.410   0.939
 6910TIP3   OH220686   3.965   6.495   4.701
 6910TIP3    H120687   3.949   6.553   4.775
 6910TIP3    H220688   3.939   6.546   4.624
 6911TIP3   OH220689   7.213   4.898   1.355
 6911TIP3    H120690   7.158   4.898   1.277
 6911TIP3    H220691   7.180   4.826   1.409
 6912TIP3   OH220692   3.319   5.102   1.298
 6912TIP3    H120693   3.312   5.090   1.393
 6912TIP3    H220694   3.333   5.013   1.264
 6913TIP3   OH220695   2.758   5.160   4.909
 6913TIP3    H120696   2.810   5.109   4.971
 6913TIP3    H220697   2.795   5.137   4.824
 6914TIP3   OH220698   2.549   4.379   1.960
 6914TIP3    H120699   2.626   4.341   1.919
 6914TIP3    H220700   2.536   4.328   2.040
 6915TIP3   OH220701   3.529   7.380   0.646
 6915TIP3    H120702   3.469   7.312   0.616
 6915TIP3    H220703   3.549   7.355   0.737
 6916TIP3   OH220704   7.567   4.035   1.793
 6916TIP3    H120705   7.540   4.122   1.763
 6916TIP3    H220706   7.543   3.976   1.721
 6917TIP3   OH220707   8.030   7.240   0.268
 6917TIP3    H120708   7.963   7.309   0.274
 6917TIP3    H220709   8.085   7.254   0.345
 6918TIP3   OH220710   3.339   0.745   0.129
 6918TIP3    H120711   3.368   0.816   0.072
 6918TIP3    H220712   3.413   0.684   0.131
 6919TIP3   OH220713   2.991   1.387   6.009
 6919TIP3    H120714   3.023   1.398   5.919
 6919TIP3    H220715   2.933   1.462   6.023
 6920TIP3   OH220716   0.970   6.443   2.736
 6920TIP3    H120717   0.924   6.522   2.764
 6920TIP3    H220718   0.902   6.377   2.728
 6921TIP3   OH220719   1.242   6.947   4.645
 6921TIP3    H120720   1.282   6.907   4.722
 6921TIP3    H220721   1.150   6.959   4.669
 6922TIP3   OH220722   4.450   6.025   5.694
 6922TIP3    H120723   4.481   6.109   5.728
 6922TIP3    H220724   4.358   6.042   5.671
 6923TIP3   OH220725   6.638   5.054   4.434
 6923TIP3    H120726   6.637   5.134   4.486
 6923TIP3    H220727   6.682   4.990   4.490
 6924TIP3   OH220728   6.852   4.835   6.496
 6924TIP3    H120729   6.857   4.847   6.401
 6924TIP3    H220730   6.939   4.860   6.528
 6925TIP3   OH220731   0.189   5.482   3.449
 6925TIP3    H120732   0.095   5.491   3.440
 6925TIP3    H220733   0.222   5.480   3.359
 6926TIP3   OH220734   3.651   4.093   5.846
 6926TIP3    H120735   3.693   4.008   5.836
 6926TIP3    H220736   3.567   4.074   5.889
 6927TIP3   OH220737   2.286   3.451   5.711
 6927TIP3    H120738   2.327   3.369   5.737
 6927TIP3    H220739   2.217   3.466   5.776
 6928TIP3   OH220740   2.460   0.309   5.222
 6928TIP3    H120741   2.386   0.368   5.234
 6928TIP3    H220742   2.420   0.223   5.208
 6929TIP3   OH220743   7.178   4.451   1.165
 6929TIP3    H120744   7.118   4.525   1.160
 6929TIP3    H220745   7.220   4.460   1.250
 6930TIP3   OH220746   3.442   1.526   1.070
 6930TIP3    H120747   3.405   1.613   1.050
 6930TIP3    H220748   3.404   1.468   1.004
 6931TIP3   OH220749   0.983   7.351   3.037
 6931TIP3    H120750   0.887   7.346   3.038
 6931TIP3    H220751   1.005   7.385   3.124
 6932TIP3   OH220752   6.832   0.917   5.496
 6932TIP3    H120753   6.804   0.965   5.419
 6932TIP3    H220754   6.922   0.891   5.477
 6933TIP3   OH220755   6.328   1.706   2.033
 6933TIP3    H120756   6.365   1.625   2.067
 6933TIP3    H220757   6.257   1.728   2.095
 6934TIP3   OH220758   2.729   3.599   1.803
 6934TIP3    H120759   2.721   3.684   1.760
 6934TIP3    H220760   2.679   3.608   1.884
 6935TIP3   OH220761   4.607   7.414   3.671
 6935TIP3    H120762   4.690   7.383   3.709
 6935TIP3    H220763   4.630   7.442   3.583
 6936TIP3   OH220764   5.651   5.186   4.780
 6936TIP3    H120765   5.743   5.211   4.775
 6936TIP3    H220766   5.646   5.104   4.732
 6937TIP3   OH220767   2.720   6.867   6.003
 6937TIP3    H120768   2.780   6.814   5.950
 6937TIP3    H220769   2.733   6.837   6.092
 6938TIP3   OH220770   5.829   1.052   2.259
 6938TIP3    H120771   5.745   1.094   2.278
 6938TIP3    H220772   5.828   0.973   2.313
 6939TIP3   OH220773   8.108   3.353   1.578
 6939TIP3    H120774   8.017   3.376   1.593
 6939TIP3    H220775   8.134   3.304   1.657
 6940TIP3   OH220776   1.275   6.301   1.685
 6940TIP3    H120777   1.210   6.331   1.748
 6940TIP3    H220778   1.338   6.251   1.737
 6941TIP3   OH220779   6.352   1.352   4.945
 6941TIP3    H120780   6.379   1.402   5.022
 6941TIP3    H220781   6.302   1.414   4.893
 6942TIP3   OH220782   1.845   3.154   2.934
 6942TIP3    H120783   1.889   3.239   2.938
 6942TIP3    H220784   1.788   3.160   2.858
 6943TIP3   OH220785   5.041   2.689   1.250
 6943TIP3    H120786   5.005   2.603   1.225
 6943TIP3    H220787   5.089   2.718   1.172
 6944TIP3   OH220788   6.351   5.769   2.175
 6944TIP3    H120789   6.263   5.733   2.173
 6944TIP3    H220790   6.386   5.752   2.087
 6945TIP3   OH220791   4.846   2.427   2.178
 6945TIP3    H120792   4.940   2.410   2.170
 6945TIP3    H220793   4.825   2.482   2.102
 6946TIP3   OH220794   4.715   0.644   6.651
 6946TIP3    H120795   4.655   0.706   6.610
 6946TIP3    H220796   4.659   0.594   6.710
 6947TIP3   OH220797   0.593   6.014   1.173
 6947TIP3    H120798   0.585   5.938   1.232
 6947TIP3    H220799   0.669   6.061   1.205
 6948TIP3   OH220800   5.102   5.794   6.090
 6948TIP3    H120801   5.091   5.865   6.026
 6948TIP3    H220802   5.194   5.770   6.083
 6949TIP3   OH220803   2.683   0.337   4.924
 6949TIP3    H120804   2.755   0.398   4.906
 6949TIP3    H220805   2.604   0.392   4.922
 6950TIP3   OH220806   4.095   5.361   0.600
 6950TIP3    H120807   4.065   5.376   0.511
 6950TIP3    H220808   4.096   5.448   0.640
 6951TIP3   OH220809   2.249   6.409   0.885
 6951TIP3    H120810   2.207   6.444   0.964
 6951TIP3    H220811   2.214   6.321   0.876
 6952TIP3   OH220812   4.915   2.242   0.615
 6952TIP3    H120813   4.930   2.149   0.630
 6952TIP3    H220814   4.989   2.270   0.560
 6953TIP3   OH220815   2.930   7.379   2.019
 6953TIP3    H120816   2.951   7.355   1.929
 6953TIP3    H220817   2.845   7.422   2.013
 6954TIP3   OH220818   5.193   3.578   2.668
 6954TIP3    H120819   5.143   3.510   2.714
 6954TIP3    H220820   5.250   3.530   2.609
 6955TIP3   OH220821   5.688   5.410   0.221
 6955TIP3    H120822   5.648   5.496   0.234
 6955TIP3    H220823   5.775   5.429   0.186
 6956TIP3   OH220824   3.508   2.720   6.549
 6956TIP3    H120825   3.473   2.635   6.521
 6956TIP3    H220826   3.603   2.710   6.542
 6957TIP3   OH220827   3.584   2.216   2.896
 6957TIP3    H120828   3.543   2.221   2.982
 6957TIP3    H220829   3.519   2.251   2.836
 6958TIP3   OH220830   4.425   5.786   1.239
 6958TIP3    H120831   4.407   5.724   1.310
 6958TIP3    H220832   4.519   5.800   1.242
 6959TIP3   OH220833   6.740   6.122   1.812
 6959TIP3    H120834   6.707   6.081   1.733
 6959TIP3    H220835   6.833   6.100   1.814
 6960TIP3   OH220836   6.868   2.181   2.002
 6960TIP3    H120837   6.932   2.167   2.071
 6960TIP3    H220838   6.908   2.141   1.924
 6961TIP3   OH220839   5.900   3.008   0.269
 6961TIP3    H120840   5.815   3.030   0.307
 6961TIP3    H220841   5.892   3.032   0.177
 6962TIP3   OH220842   3.131   1.888   5.142
 6962TIP3    H120843   3.182   1.853   5.069
 6962TIP3    H220844   3.191   1.884   5.217
 6963TIP3   OH220845   8.050   3.520   4.400
 6963TIP3    H120846   8.028   3.447   4.457
 6963TIP3    H220847   7.970   3.535   4.350
 6964TIP3   OH220848   4.950   1.961   4.895
 6964TIP3    H120849   4.912   2.045   4.868
 6964TIP3    H220850   4.947   1.963   4.990
 6965TIP3   OH220851   5.018   4.248   2.225
 6965TIP3    H120852   5.069   4.320   2.263
 6965TIP3    H220853   4.958   4.290   2.164
 6966TIP3   OH220854   3.323   1.412   5.543
 6966TIP3    H120855   3.259   1.371   5.602
 6966TIP3    H220856   3.271   1.470   5.488
 6967TIP3   OH220857   8.185   4.224   0.369
 6967TIP3    H120858   8.252   4.247   0.305
 6967TIP3    H220859   8.125   4.299   0.370
 6968TIP3   OH220860   2.505   7.717   2.511
 6968TIP3    H120861   2.417   7.753   2.522
 6968TIP3    H220862   2.541   7.763   2.435
 6969TIP3   OH220863   0.338   3.762   4.152
 6969TIP3    H120864   0.373   3.698   4.089
 6969TIP3    H220865   0.345   3.718   4.236
 6970TIP3   OH220866   1.179   4.975   3.600
 6970TIP3    H120867   1.248   4.984   3.666
 6970TIP3    H220868   1.098   4.983   3.650
 6971TIP3   OH220869   6.849   2.969   0.283
 6971TIP3    H120870   6.889   2.984   0.369
 6971TIP3    H220871   6.755   2.979   0.298
 6972TIP3   OH220872   5.450   1.699   6.479
 6972TIP3    H120873   5.544   1.680   6.474
 6972TIP3    H220874   5.426   1.725   6.390
 6973TIP3   OH220875   0.426   7.445   4.464
 6973TIP3    H120876   0.448   7.397   4.544
 6973TIP3    H220877   0.483   7.407   4.397
 6974TIP3   OH220878   6.932   3.886   3.055
 6974TIP3    H120879   6.989   3.840   2.994
 6974TIP3    H220880   6.942   3.978   3.033
 6975TIP3   OH220881   6.345   6.186   1.406
 6975TIP3    H120882   6.337   6.136   1.325
 6975TIP3    H220883   6.328   6.277   1.380
 6976TIP3   OH220884   2.024   0.927   2.156
 6976TIP3    H120885   2.031   1.007   2.208
 6976TIP3    H220886   1.955   0.946   2.093
 6977TIP3   OH220887   1.660   2.810   5.865
 6977TIP3    H120888   1.650   2.899   5.899
 6977TIP3    H220889   1.724   2.818   5.795
 6978TIP3   OH220890   4.706   0.184   0.394
 6978TIP3    H120891   4.682   0.093   0.375
 6978TIP3    H220892   4.776   0.204   0.332
 6979TIP3   OH220893   3.265   5.028   1.895
 6979TIP3    H120894   3.214   5.104   1.922
 6979TIP3    H220895   3.347   5.065   1.861
 6980TIP3   OH220896   4.437   1.644   3.676
 6980TIP3    H120897   4.434   1.694   3.757
 6980TIP3    H220898   4.531   1.634   3.658
 6981TIP3   OH220899   7.027   7.789   2.831
 6981TIP3    H120900   6.964   7.741   2.777
 6981TIP3    H220901   6.974   7.830   2.900
 6982TIP3   OH220902   4.374   2.384   3.625
 6982TIP3    H120903   4.329   2.451   3.676
 6982TIP3    H220904   4.308   2.316   3.609
 6983TIP3   OH220905   6.110   1.111   6.629
 6983TIP3    H120906   6.022   1.134   6.601
 6983TIP3    H220907   6.147   1.062   6.556
 6984TIP3   OH220908   0.712   7.066   4.646
 6984TIP3    H120909   0.762   7.137   4.687
 6984TIP3    H220910   0.777   7.000   4.623
 6985TIP3   OH220911   7.210   7.700   5.426
 6985TIP3    H120912   7.238   7.654   5.505
 6985TIP3    H220913   7.184   7.631   5.366
 6986TIP3   OH220914   4.283   5.545   1.202
 6986TIP3    H120915   4.255   5.478   1.140
 6986TIP3    H220916   4.258   5.510   1.288
 6987TIP3   OH220917   0.563   7.695   1.401
 6987TIP3    H120918   0.511   7.743   1.336
 6987TIP3    H220919   0.524   7.720   1.485
 6988TIP3   OH220920   3.065   3.886   4.811
 6988TIP3    H120921   3.036   3.868   4.901
 6988TIP3    H220922   3.159   3.901   4.818
 6989TIP3   OH220923   0.239   1.396   4.662
 6989TIP3    H120924   0.330   1.425   4.666
 6989TIP3    H220925   0.241   1.321   4.602
 6990TIP3   OH220926   1.752   0.277   1.390
 6990TIP3    H120927   1.714   0.189   1.397
 6990TIP3    H220928   1.814   0.282   1.462
 6991TIP3   OH220929   5.841   6.199   6.501
 6991TIP3    H120930   5.824   6.245   6.418
 6991TIP3    H220931   5.936   6.187   6.503
 6992TIP3   OH220932   6.966   1.963   5.502
 6992TIP3    H120933   7.036   2.028   5.506
 6992TIP3    H220934   7.009   1.881   5.527
 6993TIP3   OH220935   1.469   4.194   6.642
 6993TIP3    H120936   1.430   4.112   6.671
 6993TIP3    H220937   1.414   4.222   6.568
 6994TIP3   OH220938   3.912   3.779   0.474
 6994TIP3    H120939   3.948   3.868   0.475
 6994TIP3    H220940   3.852   3.777   0.549
 6995TIP3   OH220941   8.156   0.883   0.804
 6995TIP3    H120942   8.121   0.958   0.756
 6995TIP3    H220943   8.204   0.833   0.738
 6996TIP3   OH220944   3.207   1.925   6.277
 6996TIP3    H120945   3.286   1.880   6.308
 6996TIP3    H220946   3.237   1.977   6.203
 6997TIP3   OH220947   7.224   1.437   3.307
 6997TIP3    H120948   7.259   1.523   3.329
 6997TIP3    H220949   7.173   1.451   3.227
 6998TIP3   OH220950   0.462   3.568   3.622
 6998TIP3    H120951   0.524   3.523   3.678
 6998TIP3    H220952   0.498   3.656   3.610
 6999TIP3   OH220953   7.580   2.184   0.641
 6999TIP3    H120954   7.564   2.245   0.570
 6999TIP3    H220955   7.648   2.226   0.694
 7000TIP3   OH220956   3.736   7.192   1.372
 7000TIP3    H120957   3.645   7.215   1.394
 7000TIP3    H220958   3.729   7.141   1.292
 7001TIP3   OH220959   0.035   6.786   4.852
 7001TIP3    H120960   0.066   6.816   4.766
 7001TIP3    H220961   0.108   6.737   4.888
 7002TIP3   OH220962   8.077   5.320   5.742
 7002TIP3    H120963   8.144   5.288   5.681
 7002TIP3    H220964   8.126   5.373   5.806
 7003TIP3   OH220965   3.315   0.140   4.072
 7003TIP3    H120966   3.324   0.045   4.059
 7003TIP3    H220967   3.327   0.178   3.985
 7004TIP3   OH220968   8.147   5.422   1.495
 7004TIP3    H120969   8.130   5.452   1.406
 7004TIP3    H220970   8.061   5.419   1.536
 7005TIP3   OH220971   3.698   6.275   2.341
 7005TIP3    H120972   3.606   6.283   2.365
 7005TIP3    H220973   3.697   6.225   2.259
 7006TIP3   OH220974   3.016   0.673   6.147
 7006TIP3    H120975   2.955   0.747   6.138
 7006TIP3    H220976   3.000   0.640   6.236
 7007TIP3   OH220977   3.166   2.738   4.196
 7007TIP3    H120978   3.095   2.800   4.208
 7007TIP3    H220979   3.155   2.706   4.106
 7008TIP3   OH220980   4.167   7.472   6.041
 7008TIP3    H120981   4.229   7.491   5.970
 7008TIP3    H220982   4.215   7.413   6.099
 7009TIP3   OH220983   3.446   2.677   3.771
 7009TIP3    H120984   3.386   2.714   3.836
 7009TIP3    H220985   3.416   2.587   3.758
 7010TIP3   OH220986   7.685   3.034   3.645
 7010TIP3    H120987   7.617   3.044   3.712
 7010TIP3    H220988   7.738   3.113   3.653
 7011TIP3   OH220989   5.712   7.779   3.466
 7011TIP3    H120990   5.629   7.734   3.484
 7011TIP3    H220991   5.710   7.856   3.522
 7012TIP3   OH220992   8.252   0.560   3.691
 7012TIP3    H120993   8.278   0.581   3.781
 7012TIP3    H220994   8.159   0.580   3.688
 7013TIP3   OH220995   3.459   6.883   2.072
 7013TIP3    H120996   3.544   6.875   2.114
 7013TIP3    H220997   3.429   6.793   2.061
 7014TIP3   OH220998   2.430   0.853   3.003
 7014TIP3    H120999   2.486   0.929   3.016
 7014TIP3    H221000   2.462   0.814   2.921
 7015TIP3   OH221001   3.454   2.210   3.432
 7015TIP3    H121002   3.536   2.209   3.481
 7015TIP3    H221003   3.386   2.193   3.498
 7016TIP3   OH221004   8.279   4.699   6.008
 7016TIP3    H121005   8.222   4.711   6.084
 7016TIP3    H221006   8.343   4.634   6.035
 7017TIP3   OH221007   4.138   5.357   5.074
 7017TIP3    H121008   4.168   5.272   5.042
 7017TIP3    H221009   4.048   5.342   5.102
 7018TIP3   OH221010   6.334   3.779   1.349
 7018TIP3    H121011   6.341   3.759   1.256
 7018TIP3    H221012   6.414   3.827   1.370
 7019TIP3   OH221013   7.905   5.041   4.533
 7019TIP3    H121014   7.901   4.989   4.613
 7019TIP3    H221015   7.991   5.083   4.536
 7020TIP3   OH221016   0.814   6.162   4.114
 7020TIP3    H121017   0.790   6.180   4.023
 7020TIP3    H221018   0.897   6.207   4.127
 7021TIP3   OH221019   5.088   3.398   0.829
 7021TIP3    H121020   5.028   3.453   0.778
 7021TIP3    H221021   5.171   3.445   0.827
 7022TIP3   OH221022   1.237   3.500   6.317
 7022TIP3    H121023   1.169   3.519   6.381
 7022TIP3    H221024   1.301   3.570   6.329
 7023TIP3   OH221025   4.411   4.363   1.814
 7023TIP3    H121026   4.467   4.289   1.835
 7023TIP3    H221027   4.468   4.425   1.769
 7024TIP3   OH221028   6.510   7.308   5.913
 7024TIP3    H121029   6.461   7.380   5.953
 7024TIP3    H221030   6.536   7.341   5.827
 7025TIP3   OH221031   7.310   0.640   2.314
 7025TIP3    H121032   7.343   0.552   2.299
 7025TIP3    H221033   7.385   0.697   2.297
 7026TIP3   OH221034   5.633   2.212   1.117
 7026TIP3    H121035   5.655   2.137   1.173
 7026TIP3    H221036   5.716   2.238   1.078
 7027TIP3   OH221037   0.940   1.833   5.464
 7027TIP3    H121038   0.882   1.907   5.446
 7027TIP3    H221039   0.978   1.852   5.550
 7028TIP3   OH221040   2.556   4.968   1.484
 7028TIP3    H121041   2.622   4.953   1.416
 7028TIP3    H221042   2.475   4.934   1.447
 7029TIP3   OH221043   6.549   3.225   0.105
 7029TIP3    H121044   6.470   3.263   0.067
 7029TIP3    H221045   6.589   3.298   0.154
 7030TIP3   OH221046   0.766   0.433   4.187
 7030TIP3    H121047   0.743   0.342   4.204
 7030TIP3    H221048   0.776   0.438   4.092
 7031TIP3   OH221049   6.248   2.542   5.328
 7031TIP3    H121050   6.198   2.491   5.393
 7031TIP3    H221051   6.336   2.504   5.331
 7032TIP3   OH221052   1.760   5.685   4.893
 7032TIP3    H121053   1.718   5.755   4.843
 7032TIP3    H221054   1.801   5.630   4.826
 7033TIP3   OH221055   4.247   2.336   3.322
 7033TIP3    H121056   4.221   2.314   3.232
 7033TIP3    H221057   4.339   2.360   3.314
 7034TIP3   OH221058   7.153   4.402   1.600
 7034TIP3    H121059   7.194   4.375   1.518
 7034TIP3    H221060   7.221   4.392   1.666
 7035TIP3   OH221061   4.577   0.997   6.745
 7035TIP3    H121062   4.541   1.076   6.705
 7035TIP3    H221063   4.666   1.022   6.772
 7036TIP3   OH221064   0.693   4.126   0.583
 7036TIP3    H121065   0.696   4.216   0.614
 7036TIP3    H221066   0.636   4.081   0.646
 7037TIP3   OH221067   4.368   7.781   2.938
 7037TIP3    H121068   4.354   7.756   2.847
 7037TIP3    H221069   4.285   7.760   2.981
 7038TIP3   OH221070   6.133   3.180   2.173
 7038TIP3    H121071   6.119   3.273   2.190
 7038TIP3    H221072   6.048   3.148   2.143
 7039TIP3   OH221073   7.765   3.612   4.607
 7039TIP3    H121074   7.769   3.554   4.531
 7039TIP3    H221075   7.849   3.658   4.606
 7040TIP3   OH221076   0.837   0.415   1.087
 7040TIP3    H121077   0.791   0.373   1.014
 7040TIP3    H221078   0.928   0.423   1.057
 7041TIP3   OH221079   0.946   7.756   4.131
 7041TIP3    H121080   1.014   7.695   4.158
 7041TIP3    H221081   0.873   7.738   4.190
 7042TIP3   OH221082   6.586   1.918   4.044
 7042TIP3    H121083   6.553   1.844   3.992
 7042TIP3    H221084   6.625   1.877   4.121
 7043TIP3   OH221085   6.660   0.014   2.173
 7043TIP3    H121086   6.713   0.084   2.135
 7043TIP3    H221087   6.596   0.060   2.228
 7044TIP3   OH221088   3.678   7.811   4.518
 7044TIP3    H121089   3.715   7.724   4.524
 7044TIP3    H221090   3.656   7.835   4.608
 7045TIP3   OH221091   3.277   1.725   4.679
 7045TIP3    H121092   3.242   1.718   4.590
 7045TIP3    H221093   3.336   1.650   4.687
 7046TIP3   OH221094   3.021   7.728   2.313
 7046TIP3    H121095   3.056   7.768   2.392
 7046TIP3    H221096   2.978   7.800   2.267
 7047TIP3   OH221097   2.732   4.591   2.650
 7047TIP3    H121098   2.643   4.613   2.623
 7047TIP3    H221099   2.742   4.498   2.631
 7048TIP3   OH221100   6.680   0.116   0.263
 7048TIP3    H121101   6.687   0.046   0.328
 7048TIP3    H221102   6.749   0.097   0.200
 7049TIP3   OH221103   0.370   6.490   2.470
 7049TIP3    H121104   0.386   6.457   2.559
 7049TIP3    H221105   0.385   6.584   2.476
 7050TIP3   OH221106   6.635   2.109   1.823
 7050TIP3    H121107   6.678   2.101   1.909
 7050TIP3    H221108   6.541   2.107   1.844
 7051TIP3   OH221109   1.193   0.162   2.634
 7051TIP3    H121110   1.107   0.199   2.615
 7051TIP3    H221111   1.201   0.167   2.730
 7052TIP3   OH221112   4.066   2.912   3.966
 7052TIP3    H121113   4.073   2.863   3.884
 7052TIP3    H221114   3.977   2.946   3.966
 7053TIP3   OH221115   6.117   5.227   6.736
 7053TIP3    H121116   6.137   5.317   6.710
 7053TIP3    H221117   6.126   5.176   6.656
 7054TIP3   OH221118   5.214   7.161   1.032
 7054TIP3    H121119   5.304   7.131   1.019
 7054TIP3    H221120   5.163   7.113   0.967
 7055TIP3   OH221121   1.798   4.952   1.391
 7055TIP3    H121122   1.711   4.954   1.351
 7055TIP3    H221123   1.803   4.867   1.435
 7056TIP3   OH221124   5.741   1.601   3.199
 7056TIP3    H121125   5.656   1.559   3.214
 7056TIP3    H221126   5.729   1.650   3.118
 7057TIP3   OH221127   6.023   6.167   5.624
 7057TIP3    H121128   6.007   6.077   5.595
 7057TIP3    H221129   6.062   6.157   5.711
 7058TIP3   OH221130   5.234   7.260   5.805
 7058TIP3    H121131   5.250   7.168   5.826
 7058TIP3    H221132   5.186   7.258   5.722
 7059TIP3   OH221133   7.914   2.353   5.264
 7059TIP3    H121134   7.919   2.421   5.331
 7059TIP3    H221135   7.965   2.280   5.299
 7060TIP3   OH221136   1.510   6.096   0.551
 7060TIP3    H121137   1.446   6.098   0.479
 7060TIP3    H221138   1.501   6.181   0.593
 7061TIP3   OH221139   4.397   7.660   2.691
 7061TIP3    H121140   4.375   7.672   2.599
 7061TIP3    H221141   4.447   7.579   2.693
 7062TIP3   OH221142   1.719   5.629   3.617
 7062TIP3    H121143   1.806   5.625   3.658
 7062TIP3    H221144   1.720   5.558   3.553
 7063TIP3   OH221145   0.246   4.446   5.452
 7063TIP3    H121146   0.331   4.488   5.468
 7063TIP3    H221147   0.207   4.498   5.381
 7064TIP3   OH221148   8.037   2.257   4.066
 7064TIP3    H121149   7.991   2.283   4.146
 7064TIP3    H221150   8.127   2.287   4.079
 7065TIP3   OH221151   4.085   0.137   0.028
 7065TIP3    H121152   4.007   0.085   0.044
 7065TIP3    H221153   4.101   0.184   0.110
 7066TIP3   OH221154   2.267   2.197   3.899
 7066TIP3    H121155   2.259   2.195   3.804
 7066TIP3    H221156   2.231   2.112   3.928
 7067TIP3   OH221157   1.146   1.166   5.389
 7067TIP3    H121158   1.090   1.191   5.463
 7067TIP3    H221159   1.226   1.132   5.430
 7068TIP3   OH221160   6.961   1.290   2.672
 7068TIP3    H121161   6.967   1.365   2.613
 7068TIP3    H221162   6.882   1.243   2.644
 7069TIP3   OH221163   1.752   5.289   4.132
 7069TIP3    H121164   1.847   5.283   4.142
 7069TIP3    H221165   1.727   5.204   4.095
 7070TIP3   OH221166   8.096   2.412   0.266
 7070TIP3    H121167   8.090   2.363   0.348
 7070TIP3    H221168   8.015   2.463   0.262
 7071TIP3   OH221169   0.885   2.707   0.206
 7071TIP3    H121170   0.961   2.765   0.212
 7071TIP3    H221171   0.816   2.752   0.254
 7072TIP3   OH221172   3.623   5.480   6.349
 7072TIP3    H121173   3.565   5.423   6.398
 7072TIP3    H221174   3.620   5.446   6.259
 7073TIP3   OH221175   6.807   7.616   3.237
 7073TIP3    H121176   6.799   7.629   3.331
 7073TIP3    H221177   6.882   7.558   3.226
 7074TIP3   OH221178   4.752   7.603   5.111
 7074TIP3    H121179   4.825   7.571   5.164
 7074TIP3    H221180   4.768   7.567   5.024
 7075TIP3   OH221181   6.269   1.246   4.334
 7075TIP3    H121182   6.269   1.180   4.265
 7075TIP3    H221183   6.263   1.196   4.415
 7076TIP3   OH221184   1.406   1.145   4.395
 7076TIP3    H121185   1.439   1.114   4.480
 7076TIP3    H221186   1.311   1.146   4.405
 7077TIP3   OH221187   0.316   2.618   4.426
 7077TIP3    H121188   0.356   2.531   4.432
 7077TIP3    H221189   0.389   2.677   4.406
 7078TIP3   OH221190   5.503   3.704   1.606
 7078TIP3    H121191   5.447   3.656   1.667
 7078TIP3    H221192   5.531   3.639   1.542
 7079TIP3   OH221193   7.595   2.080   6.024
 7079TIP3    H121194   7.658   2.029   6.075
 7079TIP3    H221195   7.630   2.079   5.935
 7080TIP3   OH221196   2.422   2.515   0.409
 7080TIP3    H121197   2.382   2.558   0.334
 7080TIP3    H221198   2.378   2.430   0.415
 7081TIP3   OH221199   0.844   5.896   6.040
 7081TIP3    H121200   0.783   5.826   6.017
 7081TIP3    H221201   0.918   5.852   6.081
 7082TIP3   OH221202   5.250   0.351   1.080
 7082TIP3    H121203   5.242   0.280   1.016
 7082TIP3    H221204   5.225   0.310   1.163
 7083TIP3   OH221205   0.050   2.316   2.191
 7083TIP3    H121206   0.005   2.395   2.223
 7083TIP3    H221207   0.142   2.332   2.211
 7084TIP3   OH221208   3.414   0.121   2.724
 7084TIP3    H121209   3.391   0.207   2.758
 7084TIP3    H221210   3.332   0.085   2.691
 7085TIP3   OH221211   0.197   3.705   1.414
 7085TIP3    H121212   0.119   3.740   1.458
 7085TIP3    H221213   0.260   3.690   1.485
 7086TIP3   OH221214   4.099   7.555   2.755
 7086TIP3    H121215   4.187   7.521   2.770
 7086TIP3    H221216   4.041   7.480   2.769
 7087TIP3   OH221217   0.171   1.628   1.617
 7087TIP3    H121218   0.132   1.574   1.686
 7087TIP3    H221219   0.265   1.610   1.623
 7088TIP3   OH221220   2.465   7.627   1.793
 7088TIP3    H121221   2.396   7.639   1.727
 7088TIP3    H221222   2.421   7.586   1.867
 7089TIP3   OH221223   0.376   3.027   6.124
 7089TIP3    H121224   0.291   3.056   6.156
 7089TIP3    H221225   0.403   3.095   6.062
 7090TIP3   OH221226   2.565   0.617   3.887
 7090TIP3    H121227   2.579   0.685   3.952
 7090TIP3    H221228   2.470   0.616   3.871
 7091TIP3   OH221229   0.384   5.471   5.143
 7091TIP3    H121230   0.402   5.463   5.237
 7091TIP3    H221231   0.357   5.384   5.116
 7092TIP3   OH221232   6.985   3.200   6.177
 7092TIP3    H121233   7.055   3.256   6.210
 7092TIP3    H221234   7.004   3.189   6.084
 7093TIP3   OH221235   3.294   7.725   2.241
 7093TIP3    H121236   3.297   7.630   2.228
 7093TIP3    H221237   3.211   7.741   2.288
 7094TIP3   OH221238   5.889   5.855   5.494
 7094TIP3    H121239   5.857   5.765   5.488
 7094TIP3    H221240   5.810   5.909   5.489
 7095TIP3   OH221241   3.979   6.874   6.465
 7095TIP3    H121242   4.002   6.924   6.386
 7095TIP3    H221243   4.063   6.846   6.501
 7096TIP3   OH221244   5.925   3.700   0.558
 7096TIP3    H121245   5.869   3.760   0.509
 7096TIP3    H221246   5.866   3.633   0.592
 7097TIP3   OH221247   4.098   3.420   6.276
 7097TIP3    H121248   4.139   3.360   6.338
 7097TIP3    H221249   4.141   3.504   6.293
 7098TIP3   OH221250   0.687   2.852   2.560
 7098TIP3    H121251   0.684   2.945   2.583
 7098TIP3    H221252   0.608   2.838   2.506
 7099TIP3   OH221253   0.324   7.310   1.641
 7099TIP3    H121254   0.361   7.380   1.587
 7099TIP3    H221255   0.396   7.282   1.697
 7100TIP3   OH221256   6.028   3.427   6.617
 7100TIP3    H121257   6.095   3.410   6.550
 7100TIP3    H221258   6.061   3.503   6.664
 7101TIP3   OH221259   6.614   5.580   1.768
 7101TIP3    H121260   6.525   5.550   1.755
 7101TIP3    H221261   6.605   5.663   1.815
 7102TIP3   OH221262   2.580   1.798   2.399
 7102TIP3    H121263   2.615   1.829   2.482
 7102TIP3    H221264   2.498   1.756   2.421
 7103TIP3   OH221265   0.228   1.591   3.360
 7103TIP3    H121266   0.184   1.614   3.278
 7103TIP3    H221267   0.167   1.617   3.429
 7104TIP3   OH221268   4.932   5.686   0.223
 7104TIP3    H121269   4.918   5.736   0.142
 7104TIP3    H221270   4.880   5.733   0.289
 7105TIP3   OH221271   3.224   4.772   0.385
 7105TIP3    H121272   3.255   4.779   0.295
 7105TIP3    H221273   3.300   4.799   0.438
 7106TIP3   OH221274   2.767   7.299   1.530
 7106TIP3    H121275   2.711   7.227   1.502
 7106TIP3    H221276   2.726   7.330   1.611
 7107TIP3   OH221277   4.970   3.139   1.557
 7107TIP3    H121278   4.904   3.071   1.551
 7107TIP3    H221279   4.929   3.216   1.518
 7108TIP3   OH221280   4.113   2.705   6.410
 7108TIP3    H121281   4.185   2.670   6.359
 7108TIP3    H221282   4.056   2.630   6.427
 7109TIP3   OH221283   4.916   5.146   6.300
 7109TIP3    H121284   4.921   5.094   6.380
 7109TIP3    H221285   4.873   5.087   6.237
 7110TIP3   OH221286   4.906   6.841   4.409
 7110TIP3    H121287   4.973   6.859   4.475
 7110TIP3    H221288   4.898   6.745   4.409
 7111TIP3   OH221289   6.720   2.572   1.889
 7111TIP3    H121290   6.698   2.663   1.870
 7111TIP3    H221291   6.737   2.532   1.804
 7112TIP3   OH221292   3.835   5.916   1.985
 7112TIP3    H121293   3.799   6.005   1.985
 7112TIP3    H221294   3.796   5.875   1.908
 7113TIP3   OH221295   0.982   6.684   5.573
 7113TIP3    H121296   1.006   6.617   5.638
 7113TIP3    H221297   0.992   6.767   5.619
 7114TIP3   OH221298   6.496   1.937   4.856
 7114TIP3    H121299   6.537   2.015   4.817
 7114TIP3    H221300   6.546   1.864   4.821
 7115TIP3   OH221301   7.952   6.854   0.352
 7115TIP3    H121302   7.959   6.908   0.273
 7115TIP3    H221303   7.917   6.913   0.419
 7116TIP3   OH221304   2.811   4.401   5.826
 7116TIP3    H121305   2.806   4.494   5.803
 7116TIP3    H221306   2.734   4.385   5.881
 7117TIP3   OH221307   8.105   1.269   2.072
 7117TIP3    H121308   8.130   1.271   2.165
 7117TIP3    H221309   8.030   1.209   2.069
 7118TIP3   OH221310   7.033   6.480   4.286
 7118TIP3    H121311   7.097   6.439   4.343
 7118TIP3    H221312   7.063   6.570   4.275
 7119TIP3   OH221313   2.320   2.893   4.755
 7119TIP3    H121314   2.317   2.971   4.699
 7119TIP3    H221315   2.264   2.830   4.711
 7120TIP3   OH221316   2.737   6.076   2.256
 7120TIP3    H121317   2.781   6.082   2.171
 7120TIP3    H221318   2.668   6.011   2.242
 7121TIP3   OH221319   0.604   7.361   1.775
 7121TIP3    H121320   0.641   7.276   1.800
 7121TIP3    H221321   0.639   7.422   1.840
 7122TIP3   OH221322  -0.025   6.368   2.063
 7122TIP3    H121323   0.004   6.441   2.008
 7122TIP3    H221324   0.053   6.344   2.114
 7123TIP3   OH221325   2.735   6.241   2.465
 7123TIP3    H121326   2.718   6.177   2.396
 7123TIP3    H221327   2.695   6.202   2.543
 7124TIP3   OH221328   7.997   2.949   2.587
 7124TIP3    H121329   8.083   2.909   2.573
 7124TIP3    H221330   8.017   3.040   2.611
 7125TIP3   OH221331   0.349   4.918   3.935
 7125TIP3    H121332   0.254   4.929   3.948
 7125TIP3    H221333   0.387   5.002   3.960
 7126TIP3   OH221334   0.408   5.002   0.565
 7126TIP3    H121335   0.463   4.960   0.500
 7126TIP3    H221336   0.470   5.042   0.626
 7127TIP3   OH221337   0.905   4.081   5.812
 7127TIP3    H121338   0.993   4.043   5.816
 7127TIP3    H221339   0.863   4.035   5.739
 7128TIP3   OH221340   4.759   1.609   0.847
 7128TIP3    H121341   4.733   1.523   0.814
 7128TIP3    H221342   4.694   1.670   0.811
 7129TIP3   OH221343   5.174   4.653   0.969
 7129TIP3    H121344   5.098   4.692   0.927
 7129TIP3    H221345   5.202   4.583   0.910
 7130TIP3   OH221346   2.444   6.107   4.018
 7130TIP3    H121347   2.445   6.051   3.940
 7130TIP3    H221348   2.483   6.052   4.087
 7131TIP3   OH221349   5.866   0.748   4.949
 7131TIP3    H121350   5.927   0.717   5.015
 7131TIP3    H221351   5.915   0.745   4.867
 7132TIP3   OH221352   1.039   0.555   3.733
 7132TIP3    H121353   1.003   0.475   3.696
 7132TIP3    H221354   1.055   0.612   3.658
 7133TIP3   OH221355   6.243   1.047   5.659
 7133TIP3    H121356   6.148   1.045   5.646
 7133TIP3    H221357   6.265   1.140   5.655
 7134TIP3   OH221358   2.242   2.683   3.812
 7134TIP3    H121359   2.207   2.596   3.794
 7134TIP3    H221360   2.220   2.734   3.734
 7135TIP3   OH221361   7.503   0.335   4.240
 7135TIP3    H121362   7.466   0.379   4.163
 7135TIP3    H221363   7.598   0.334   4.224
 7136TIP3   OH221364   2.683   7.309   6.145
 7136TIP3    H121365   2.653   7.265   6.224
 7136TIP3    H221366   2.724   7.390   6.177
 7137TIP3   OH221367   2.164   0.626   5.043
 7137TIP3    H121368   2.166   0.612   5.138
 7137TIP3    H221369   2.169   0.722   5.034
 7138TIP3   OH221370   3.663   3.277   2.717
 7138TIP3    H121371   3.627   3.275   2.629
 7138TIP3    H221372   3.629   3.358   2.755
 7139TIP3   OH221373   5.403   3.962   2.941
 7139TIP3    H121374   5.395   3.870   2.917
 7139TIP3    H221375   5.355   3.969   3.024
 7140TIP3   OH221376   2.571   2.298   5.221
 7140TIP3    H121377   2.601   2.382   5.256
 7140TIP3    H221378   2.589   2.303   5.127
 7141TIP3   OH221379   6.007   1.669   3.688
 7141TIP3    H121380   6.068   1.703   3.752
 7141TIP3    H221381   6.004   1.575   3.704
 7142TIP3   OH221382   3.272   1.920   4.396
 7142TIP3    H121383   3.295   1.982   4.326
 7142TIP3    H221384   3.283   1.834   4.356
 7143TIP3   OH221385   4.167   6.036   5.672
 7143TIP3    H121386   4.165   5.967   5.739
 7143TIP3    H221387   4.111   6.003   5.602
 7144TIP3   OH221388   1.440   3.600   5.756
 7144TIP3    H121389   1.372   3.567   5.697
 7144TIP3    H221390   1.442   3.536   5.828
 7145TIP3   OH221391   7.068   2.073   4.762
 7145TIP3    H121392   7.134   2.029   4.709
 7145TIP3    H221393   6.987   2.067   4.710
 7146TIP3   OH221394   1.102   6.499   4.680
 7146TIP3    H121395   1.037   6.555   4.723
 7146TIP3    H221396   1.146   6.558   4.618
 7147TIP3   OH221397   0.227   2.578   3.235
 7147TIP3    H121398   0.161   2.573   3.304
 7147TIP3    H221399   0.183   2.621   3.162
 7148TIP3   OH221400   0.802   1.454   4.995
 7148TIP3    H121401   0.874   1.404   4.957
 7148TIP3    H221402   0.746   1.387   5.035
 7149TIP3   OH221403   2.460   6.854   1.582
 7149TIP3    H121404   2.370   6.862   1.614
 7149TIP3    H221405   2.480   6.760   1.591
 7150TIP3   OH221406   5.545   7.661   1.886
 7150TIP3    H121407   5.561   7.755   1.874
 7150TIP3    H221408   5.593   7.619   1.815
 7151TIP3   OH221409   7.762   0.976   5.649
 7151TIP3    H121410   7.747   0.900   5.705
 7151TIP3    H221411   7.801   0.941   5.569
 7152TIP3   OH221412   4.785   6.192   3.650
 7152TIP3    H121413   4.852   6.127   3.673
 7152TIP3    H221414   4.805   6.268   3.704
 7153TIP3   OH221415   8.199   1.835   0.992
 7153TIP3    H121416   8.161   1.808   0.908
 7153TIP3    H221417   8.293   1.821   0.982
 7154TIP3   OH221418   3.964   7.148   3.870
 7154TIP3    H121419   3.949   7.233   3.911
 7154TIP3    H221420   3.887   7.134   3.816
 7155TIP3   OH221421   7.515   3.456   0.331
 7155TIP3    H121422   7.541   3.433   0.420
 7155TIP3    H221423   7.524   3.375   0.282
 7156TIP3   OH221424   5.608   0.817   4.815
 7156TIP3    H121425   5.651   0.746   4.768
 7156TIP3    H221426   5.662   0.831   4.893
 7157TIP3   OH221427   4.351   3.649   3.800
 7157TIP3    H121428   4.404   3.638   3.879
 7157TIP3    H221429   4.332   3.742   3.796
 7158TIP3   OH221430   5.762   6.117   1.100
 7158TIP3    H121431   5.829   6.162   1.152
 7158TIP3    H221432   5.679   6.146   1.137
 7159TIP3   OH221433   8.055   7.205   0.706
 7159TIP3    H121434   8.050   7.156   0.788
 7159TIP3    H221435   8.013   7.288   0.725
 7160TIP3   OH221436   4.500   4.540   2.111
 7160TIP3    H121437   4.425   4.546   2.052
 7160TIP3    H221438   4.484   4.608   2.177
 7161TIP3   OH221439   7.474   2.672   5.355
 7161TIP3    H121440   7.436   2.605   5.298
 7161TIP3    H221441   7.405   2.736   5.368
 7162TIP3   OH221442   6.612   1.751   0.759
 7162TIP3    H121443   6.564   1.684   0.808
 7162TIP3    H221444   6.704   1.724   0.766
 7163TIP3   OH221445   2.758   7.173   0.278
 7163TIP3    H121446   2.670   7.139   0.261
 7163TIP3    H221447   2.807   7.152   0.198
 7164TIP3   OH221448   3.640   2.547   2.094
 7164TIP3    H121449   3.642   2.473   2.155
 7164TIP3    H221450   3.623   2.623   2.150
 7165TIP3   OH221451   6.666   1.740   1.832
 7165TIP3    H121452   6.642   1.797   1.905
 7165TIP3    H221453   6.619   1.658   1.850
 7166TIP3   OH221454   3.453   1.844   6.375
 7166TIP3    H121455   3.530   1.850   6.319
 7166TIP3    H221456   3.476   1.893   6.453
 7167TIP3   OH221457   5.491   4.967   1.837
 7167TIP3    H121458   5.535   4.899   1.787
 7167TIP3    H221459   5.418   4.922   1.880
 7168TIP3   OH221460   5.796   6.321   5.006
 7168TIP3    H121461   5.852   6.396   4.986
 7168TIP3    H221462   5.760   6.340   5.093
 7169TIP3   OH221463   7.482   2.180   0.032
 7169TIP3    H121464   7.536   2.255   0.058
 7169TIP3    H221465   7.393   2.205   0.057
 7170TIP3   OH221466   5.388   4.876   6.621
 7170TIP3    H121467   5.453   4.864   6.552
 7170TIP3    H221468   5.437   4.911   6.696
 7171TIP3   OH221469   3.934   3.044   5.266
 7171TIP3    H121470   3.925   2.951   5.247
 7171TIP3    H221471   3.857   3.085   5.226
 7172TIP3   OH221472   6.130   4.014   0.131
 7172TIP3    H121473   6.178   4.033   0.211
 7172TIP3    H221474   6.197   4.003   0.064
 7173TIP3   OH221475   7.887   7.429   3.773
 7173TIP3    H121476   7.820   7.468   3.829
 7173TIP3    H221477   7.872   7.469   3.687
 7174TIP3   OH221478   4.419   0.883   3.500
 7174TIP3    H121479   4.476   0.833   3.558
 7174TIP3    H221480   4.391   0.958   3.552
 7175TIP3   OH221481   4.795   1.812   0.555
 7175TIP3    H121482   4.763   1.869   0.485
 7175TIP3    H221483   4.729   1.819   0.624
 7176TIP3   OH221484   1.926   3.194   5.822
 7176TIP3    H121485   1.925   3.131   5.894
 7176TIP3    H221486   1.837   3.228   5.819
 7177TIP3   OH221487   1.703   3.485   6.746
 7177TIP3    H121488   1.782   3.499   6.693
 7177TIP3    H221489   1.649   3.426   6.693
 7178TIP3   OH221490   3.800   5.921   5.049
 7178TIP3    H121491   3.863   5.878   4.992
 7178TIP3    H221492   3.762   5.850   5.101
 7179TIP3   OH221493   3.383   2.988   5.929
 7179TIP3    H121494   3.476   2.996   5.949
 7179TIP3    H221495   3.346   3.074   5.952
 7180TIP3   OH221496   5.547   1.667   4.801
 7180TIP3    H121497   5.621   1.728   4.792
 7180TIP3    H221498   5.516   1.681   4.891
 7181TIP3   OH221499   3.284   0.090   0.585
 7181TIP3    H121500   3.313   0.005   0.552
 7181TIP3    H221501   3.303   0.087   0.679
 7182TIP3   OH221502   5.659   2.557   3.405
 7182TIP3    H121503   5.600   2.576   3.478
 7182TIP3    H221504   5.701   2.640   3.385
 7183TIP3   OH221505   2.740   5.751   6.523
 7183TIP3    H121506   2.704   5.836   6.545
 7183TIP3    H221507   2.786   5.723   6.602
 7184TIP3   OH221508   6.479   0.945   6.165
 7184TIP3    H121509   6.523   0.975   6.085
 7184TIP3    H221510   6.541   0.883   6.203
 7185TIP3   OH221511   2.137   1.959   3.523
 7185TIP3    H121512   2.075   1.915   3.466
 7185TIP3    H221513   2.093   2.040   3.549
 7186TIP3   OH221514   4.983   6.876   1.451
 7186TIP3    H121515   5.059   6.861   1.508
 7186TIP3    H221516   5.012   6.944   1.390
 7187TIP3   OH221517   4.696   2.674   4.219
 7187TIP3    H121518   4.779   2.711   4.250
 7187TIP3    H221519   4.638   2.677   4.296
 7188TIP3   OH221520   0.868   6.739   2.545
 7188TIP3    H121521   0.960   6.722   2.566
 7188TIP3    H221522   0.865   6.832   2.524
 7189TIP3   OH221523   3.379   0.011   0.178
 7189TIP3    H121524   3.429  -0.067   0.202
 7189TIP3    H221525   3.410   0.078   0.239
 7190TIP3   OH221526   4.236   2.574   0.948
 7190TIP3    H121527   4.147   2.576   0.985
 7190TIP3    H221528   4.238   2.648   0.887
 7191TIP3   OH221529   6.816   0.411   5.041
 7191TIP3    H121530   6.722   0.399   5.026
 7191TIP3    H221531   6.822   0.447   5.129
 7192TIP3   OH221532   5.465   0.481   0.975
 7192TIP3    H121533   5.485   0.555   1.032
 7192TIP3    H221534   5.397   0.432   1.022
 7193TIP3   OH221535   5.440   7.362   1.310
 7193TIP3    H121536   5.510   7.372   1.245
 7193TIP3    H221537   5.406   7.274   1.294
 7194TIP3   OH221538   5.424   5.700   5.510
 7194TIP3    H121539   5.411   5.794   5.497
 7194TIP3    H221540   5.512   5.693   5.546
 7195TIP3   OH221541   2.381   5.824   1.539
 7195TIP3    H121542   2.415   5.845   1.626
 7195TIP3    H221543   2.286   5.817   1.550
 7196TIP3   OH221544   7.999   0.440   5.033
 7196TIP3    H121545   8.011   0.388   4.953
 7196TIP3    H221546   7.968   0.525   5.002
 7197TIP3   OH221547   6.392   3.546   4.155
 7197TIP3    H121548   6.476   3.501   4.157
 7197TIP3    H221549   6.398   3.612   4.225
 7198TIP3   OH221550   6.622   0.550   2.757
 7198TIP3    H121551   6.612   0.637   2.721
 7198TIP3    H221552   6.664   0.564   2.842
 7199TIP3   OH221553   3.237   3.072   5.311
 7199TIP3    H121554   3.262   2.987   5.273
 7199TIP3    H221555   3.169   3.105   5.252
 7200TIP3   OH221556   6.440   3.076   4.137
 7200TIP3    H121557   6.496   3.090   4.061
 7200TIP3    H221558   6.429   2.981   4.142
 7201TIP3   OH221559   1.812   7.210   4.327
 7201TIP3    H121560   1.845   7.287   4.280
 7201TIP3    H221561   1.870   7.201   4.402
 7202TIP3   OH221562   3.438   1.014   1.426
 7202TIP3    H121563   3.517   1.005   1.479
 7202TIP3    H221564   3.400   1.098   1.454
 7203TIP3   OH221565   1.230   0.621   6.067
 7203TIP3    H121566   1.269   0.706   6.046
 7203TIP3    H221567   1.259   0.563   5.997
 7204TIP3   OH221568   3.037   0.466   1.880
 7204TIP3    H121569   3.011   0.393   1.937
 7204TIP3    H221570   3.086   0.424   1.809
 7205TIP3   OH221571   5.327   1.836   5.800
 7205TIP3    H121572   5.383   1.913   5.783
 7205TIP3    H221573   5.349   1.810   5.889
 7206TIP3   OH221574   3.899   3.566   1.502
 7206TIP3    H121575   3.978   3.561   1.556
 7206TIP3    H221576   3.918   3.509   1.427
 7207TIP3   OH221577   7.366   4.984   2.715
 7207TIP3    H121578   7.310   4.939   2.652
 7207TIP3    H221579   7.395   5.063   2.670
 7208TIP3   OH221580   1.373   2.581   1.663
 7208TIP3    H121581   1.416   2.666   1.656
 7208TIP3    H221582   1.413   2.539   1.739
 7209TIP3   OH221583   2.601   2.253   6.542
 7209TIP3    H121584   2.656   2.189   6.497
 7209TIP3    H221585   2.532   2.274   6.479
 7210TIP3   OH221586   1.169   5.680   4.112
 7210TIP3    H121587   1.134   5.743   4.175
 7210TIP3    H221588   1.112   5.603   4.120
 7211TIP3   OH221589   4.214   1.541   1.874
 7211TIP3    H121590   4.146   1.527   1.940
 7211TIP3    H221591   4.179   1.501   1.795
 7212TIP3   OH221592   4.464   4.200   2.857
 7212TIP3    H121593   4.414   4.215   2.937
 7212TIP3    H221594   4.531   4.269   2.857
 7213TIP3   OH221595   2.070   2.773   1.122
 7213TIP3    H121596   1.981   2.760   1.089
 7213TIP3    H221597   2.125   2.765   1.044
 7214TIP3   OH221598   2.453   2.040   3.367
 7214TIP3    H121599   2.372   2.020   3.320
 7214TIP3    H221600   2.518   2.054   3.298
 7215TIP3   OH221601   5.624   0.070   4.964
 7215TIP3    H121602   5.594   0.054   5.054
 7215TIP3    H221603   5.634   0.165   4.959
 7216TIP3   OH221604   2.053   2.085   0.793
 7216TIP3    H121605   2.025   2.009   0.742
 7216TIP3    H221606   2.042   2.159   0.734
 7217TIP3   OH221607   5.837   1.875   2.063
 7217TIP3    H121608   5.762   1.922   2.028
 7217TIP3    H221609   5.837   1.897   2.156
 7218TIP3   OH221610   6.009   5.847   3.497
 7218TIP3    H121611   5.986   5.938   3.478
 7218TIP3    H221612   6.105   5.849   3.507
 7219TIP3   OH221613   4.265   3.125   3.921
 7219TIP3    H121614   4.189   3.172   3.956
 7219TIP3    H221615   4.246   3.033   3.937
 7220TIP3   OH221616   6.176   7.192   5.413
 7220TIP3    H121617   6.085   7.213   5.390
 7220TIP3    H221618   6.223   7.197   5.330
 7221TIP3   OH221619   4.823   6.027   1.392
 7221TIP3    H121620   4.757   6.083   1.351
 7221TIP3    H221621   4.860   6.081   1.462
 7222TIP3   OH221622   2.618   0.237   3.928
 7222TIP3    H121623   2.647   0.158   3.975
 7222TIP3    H221624   2.645   0.310   3.984
 7223TIP3   OH221625   0.544   3.714   5.113
 7223TIP3    H121626   0.578   3.626   5.096
 7223TIP3    H221627   0.470   3.701   5.172
 7224TIP3   OH221628   2.808   5.568   3.826
 7224TIP3    H121629   2.820   5.661   3.845
 7224TIP3    H221630   2.890   5.527   3.855
 7225TIP3   OH221631   0.526   0.831   5.064
 7225TIP3    H121632   0.585   0.768   5.104
 7225TIP3    H221633   0.486   0.878   5.137
 7226TIP3   OH221634   6.586   0.490   3.927
 7226TIP3    H121635   6.627   0.492   4.014
 7226TIP3    H221636   6.495   0.466   3.945
 7227TIP3   OH221637   4.464   0.788   3.788
 7227TIP3    H121638   4.547   0.824   3.819
 7227TIP3    H221639   4.481   0.694   3.776
 7228TIP3   OH221640   4.106   1.433   3.290
 7228TIP3    H121641   4.195   1.399   3.284
 7228TIP3    H221642   4.103   1.476   3.376
 7229TIP3   OH221643   5.499   4.309   1.258
 7229TIP3    H121644   5.422   4.334   1.308
 7229TIP3    H221645   5.544   4.244   1.312
 7230TIP3   OH221646   1.303   3.952   1.204
 7230TIP3    H121647   1.214   3.946   1.241
 7230TIP3    H221648   1.299   3.900   1.124
 7231TIP3   OH221649   0.842   3.980   3.028
 7231TIP3    H121650   0.882   3.909   3.077
 7231TIP3    H221651   0.916   4.030   2.993
 7232TIP3   OH221652   2.150   5.271   0.106
 7232TIP3    H121653   2.101   5.351   0.086
 7232TIP3    H221654   2.084   5.209   0.137
 7233TIP3   OH221655   3.626   5.547   3.322
 7233TIP3    H121656   3.548   5.603   3.330
 7233TIP3    H221657   3.597   5.462   3.357
 7234TIP3   OH221658   6.872   0.323   3.001
 7234TIP3    H121659   6.800   0.385   3.004
 7234TIP3    H221660   6.894   0.307   3.093
 7235TIP3   OH221661   5.066   0.100   0.574
 7235TIP3    H121662   5.148   0.077   0.618
 7235TIP3    H221663   5.011   0.138   0.643
 7236TIP3   OH221664   1.767   4.179   3.543
 7236TIP3    H121665   1.791   4.256   3.596
 7236TIP3    H221666   1.676   4.197   3.517
 7237TIP3   OH221667   0.866   4.973   5.441
 7237TIP3    H121668   0.824   4.945   5.522
 7237TIP3    H221669   0.830   4.915   5.374
 7238TIP3   OH221670   1.484   5.773   3.314
 7238TIP3    H121671   1.492   5.831   3.389
 7238TIP3    H221672   1.542   5.811   3.248
 7239TIP3   OH221673   4.340   3.659   1.045
 7239TIP3    H121674   4.296   3.589   0.998
 7239TIP3    H221675   4.319   3.643   1.137
 7240TIP3   OH221676   2.586   1.675   6.212
 7240TIP3    H121677   2.566   1.583   6.229
 7240TIP3    H221678   2.502   1.719   6.214
 7241TIP3   OH221679   5.891   4.205   2.277
 7241TIP3    H121680   5.876   4.156   2.196
 7241TIP3    H221681   5.806   4.204   2.322
 7242TIP3   OH221682   5.431   3.442   3.174
 7242TIP3    H121683   5.366   3.388   3.129
 7242TIP3    H221684   5.382   3.517   3.207
 7243TIP3   OH221685   2.845   3.750   0.941
 7243TIP3    H121686   2.810   3.821   0.995
 7243TIP3    H221687   2.877   3.794   0.862
 7244TIP3   OH221688   7.495   3.032   1.912
 7244TIP3    H121689   7.433   2.968   1.948
 7244TIP3    H221690   7.555   3.051   1.984
 7245TIP3   OH221691   5.408   2.441   2.737
 7245TIP3    H121692   5.481   2.405   2.687
 7245TIP3    H221693   5.448   2.508   2.792
 7246TIP3   OH221694   2.625   3.618   2.061
 7246TIP3    H121695   2.702   3.585   2.108
 7246TIP3    H221696   2.563   3.545   2.064
 7247TIP3   OH221697   4.797   4.860   1.380
 7247TIP3    H121698   4.747   4.913   1.443
 7247TIP3    H221699   4.820   4.921   1.311
 7248TIP3   OH221700   3.469   0.178   5.993
 7248TIP3    H121701   3.503   0.255   6.039
 7248TIP3    H221702   3.375   0.196   5.982
 7249TIP3   OH221703   5.725   4.915   5.045
 7249TIP3    H121704   5.788   4.881   5.109
 7249TIP3    H221705   5.734   5.010   5.052
 7250TIP3   OH221706   7.518   1.526   0.530
 7250TIP3    H121707   7.482   1.565   0.450
 7250TIP3    H221708   7.441   1.508   0.584
 7251TIP3   OH221709   3.750   7.001   1.090
 7251TIP3    H121710   3.766   6.946   1.167
 7251TIP3    H221711   3.728   6.939   1.021
 7252TIP3   OH221712   3.736   7.247   6.174
 7252TIP3    H121713   3.676   7.263   6.247
 7252TIP3    H221714   3.796   7.321   6.175
 7253TIP3   OH221715   4.564   2.134   4.273
 7253TIP3    H121716   4.534   2.207   4.219
 7253TIP3    H221717   4.484   2.100   4.313
 7254TIP3   OH221718   5.382   1.459   5.463
 7254TIP3    H121719   5.366   1.387   5.524
 7254TIP3    H221720   5.400   1.415   5.380
 7255TIP3   OH221721   2.904   0.201   6.485
 7255TIP3    H121722   2.958   0.140   6.434
 7255TIP3    H221723   2.877   0.267   6.422
 7256TIP3   OH221724   0.966   7.111   1.511
 7256TIP3    H121725   1.058   7.087   1.524
 7256TIP3    H221726   0.969   7.185   1.450
 7257TIP3   OH221727   8.171   1.292   0.155
 7257TIP3    H121728   8.258   1.323   0.179
 7257TIP3    H221729   8.186   1.209   0.110
 7258TIP3   OH221730   0.775   6.879   0.745
 7258TIP3    H121731   0.702   6.907   0.801
 7258TIP3    H221732   0.832   6.829   0.804
 7259TIP3   OH221733   7.738   7.363   2.694
 7259TIP3    H121734   7.712   7.397   2.609
 7259TIP3    H221735   7.730   7.268   2.685
 7260TIP3   OH221736   4.053   4.190   1.812
 7260TIP3    H121737   4.041   4.095   1.803
 7260TIP3    H221738   4.079   4.220   1.725
 7261TIP3   OH221739   2.469   3.001   2.201
 7261TIP3    H121740   2.399   3.019   2.139
 7261TIP3    H221741   2.499   3.087   2.229
 7262TIP3   OH221742   1.748   6.711   6.569
 7262TIP3    H121743   1.668   6.754   6.599
 7262TIP3    H221744   1.788   6.675   6.648
 7263TIP3   OH221745   5.117   7.030   4.604
 7263TIP3    H121746   5.211   7.044   4.599
 7263TIP3    H221747   5.105   6.964   4.673
 7264TIP3   OH221748   1.741   2.571   1.647
 7264TIP3    H121749   1.781   2.632   1.709
 7264TIP3    H221750   1.691   2.511   1.702
 7265TIP3   OH221751   3.524   6.545   6.741
 7265TIP3    H121752   3.543   6.530   6.834
 7265TIP3    H221753   3.467   6.472   6.717
 7266TIP3   OH221754   2.131   3.447   5.345
 7266TIP3    H121755   2.213   3.480   5.307
 7266TIP3    H221756   2.063   3.502   5.305
 7267TIP3   OH221757   4.830   4.653   4.101
 7267TIP3    H121758   4.740   4.665   4.132
 7267TIP3    H221759   4.869   4.592   4.164
 7268TIP3   OH221760   6.101   1.821   4.287
 7268TIP3    H121761   6.054   1.764   4.226
 7268TIP3    H221762   6.163   1.868   4.232
 7269TIP3   OH221763   7.779   4.136   6.405
 7269TIP3    H121764   7.747   4.178   6.325
 7269TIP3    H221765   7.871   4.116   6.388
 7270TIP3   OH221766   1.993   6.188   0.530
 7270TIP3    H121767   2.060   6.129   0.497
 7270TIP3    H221768   2.039   6.268   0.553
 7271TIP3   OH221769   1.214   7.061   2.371
 7271TIP3    H121770   1.256   7.147   2.367
 7271TIP3    H221771   1.203   7.035   2.280
 7272TIP3   OH221772   2.842   3.248   6.606
 7272TIP3    H121773   2.891   3.257   6.524
 7272TIP3    H221774   2.784   3.323   6.607
 7273TIP3   OH221775   0.098   0.826   2.253
 7273TIP3    H121776   0.150   0.837   2.173
 7273TIP3    H221777   0.092   0.731   2.264
 7274TIP3   OH221778   3.821   6.008   5.891
 7274TIP3    H121779   3.898   5.951   5.893
 7274TIP3    H221780   3.855   6.095   5.911
 7275TIP3   OH221781   1.519   4.621   1.767
 7275TIP3    H121782   1.585   4.622   1.837
 7275TIP3    H221783   1.475   4.706   1.773
 7276TIP3   OH221784   1.564   1.345   1.203
 7276TIP3    H121785   1.497   1.406   1.173
 7276TIP3    H221786   1.635   1.401   1.236
 7277TIP3   OH221787   4.765   3.601   1.324
 7277TIP3    H121788   4.739   3.608   1.232
 7277TIP3    H221789   4.815   3.520   1.329
 7278TIP3   OH221790   0.984   3.304   3.667
 7278TIP3    H121791   0.994   3.390   3.628
 7278TIP3    H221792   0.987   3.320   3.762
 7279TIP3   OH221793   2.109   2.098   4.689
 7279TIP3    H121794   2.148   2.077   4.774
 7279TIP3    H221795   2.168   2.163   4.651
 7280TIP3   OH221796   1.093   0.091   5.988
 7280TIP3    H121797   1.111   0.012   6.040
 7280TIP3    H221798   1.179   0.119   5.958
 7281TIP3   OH221799   3.338   7.571   2.988
 7281TIP3    H121800   3.245   7.548   2.997
 7281TIP3    H221801   3.384   7.487   2.984
 7282TIP3   OH221802   3.740   6.604   6.306
 7282TIP3    H121803   3.655   6.635   6.274
 7282TIP3    H221804   3.742   6.633   6.398
 7283TIP3   OH221805   3.451   3.541   3.650
 7283TIP3    H121806   3.493   3.455   3.651
 7283TIP3    H221807   3.357   3.521   3.657
 7284TIP3   OH221808   7.711   7.156   0.138
 7284TIP3    H121809   7.649   7.087   0.164
 7284TIP3    H221810   7.669   7.237   0.165
 7285TIP3   OH221811   0.593   7.397   2.539
 7285TIP3    H121812   0.654   7.344   2.590
 7285TIP3    H221813   0.520   7.413   2.598
 7286TIP3   OH221814   3.754   3.816   5.876
 7286TIP3    H121815   3.711   3.738   5.842
 7286TIP3    H221816   3.827   3.782   5.928
 7287TIP3   OH221817   7.975   7.778   5.427
 7287TIP3    H121818   8.057   7.733   5.448
 7287TIP3    H221819   7.913   7.749   5.494
 7288TIP3   OH221820   3.641   7.020   3.490
 7288TIP3    H121821   3.686   6.961   3.429
 7288TIP3    H221822   3.584   6.962   3.540
 7289TIP3   OH221823   7.965   6.523   4.386
 7289TIP3    H121824   8.001   6.488   4.468
 7289TIP3    H221825   7.924   6.448   4.344
 7290TIP3   OH221826   5.487   2.606   1.758
 7290TIP3    H121827   5.579   2.630   1.746
 7290TIP3    H221828   5.437   2.672   1.710
 7291TIP3   OH221829   5.404   0.819   2.318
 7291TIP3    H121830   5.388   0.889   2.255
 7291TIP3    H221831   5.466   0.761   2.275
 7292TIP3   OH221832   7.087   6.370   3.627
 7292TIP3    H121833   7.047   6.454   3.607
 7292TIP3    H221834   7.174   6.392   3.660
 7293TIP3   OH221835   3.761   1.013   4.265
 7293TIP3    H121836   3.755   0.932   4.316
 7293TIP3    H221837   3.815   1.071   4.319
 7294TIP3   OH221838   1.286   6.936   3.913
 7294TIP3    H121839   1.206   6.903   3.954
 7294TIP3    H221840   1.281   6.905   3.822
 7295TIP3   OH221841   4.247   1.323   0.574
 7295TIP3    H121842   4.324   1.267   0.571
 7295TIP3    H221843   4.262   1.382   0.648
 7296TIP3   OH221844   4.290   6.555   1.014
 7296TIP3    H121845   4.307   6.637   1.061
 7296TIP3    H221846   4.357   6.494   1.046
 7297TIP3   OH221847   2.732   3.176   4.683
 7297TIP3    H121848   2.665   3.196   4.748
 7297TIP3    H221849   2.813   3.209   4.723
 7298TIP3   OH221850   6.163   6.729   3.730
 7298TIP3    H121851   6.206   6.644   3.733
 7298TIP3    H221852   6.075   6.713   3.764
 7299TIP3   OH221853   2.926   4.870   3.368
 7299TIP3    H121854   2.862   4.903   3.305
 7299TIP3    H221855   2.886   4.791   3.404
 7300TIP3   OH221856   2.965   2.213   4.702
 7300TIP3    H121857   3.046   2.232   4.750
 7300TIP3    H221858   2.955   2.286   4.642
 7301TIP3   OH221859   3.340   3.233   6.356
 7301TIP3    H121860   3.409   3.291   6.322
 7301TIP3    H221861   3.368   3.211   6.445
 7302TIP3   OH221862   8.001   7.676   2.764
 7302TIP3    H121863   7.969   7.632   2.686
 7302TIP3    H221864   7.929   7.666   2.828
 7303TIP3   OH221865   0.083   5.078   3.446
 7303TIP3    H121866   0.148   5.101   3.379
 7303TIP3    H221867   0.115   4.995   3.482
 7304TIP3   OH221868   6.926   4.309   3.399
 7304TIP3    H121869   6.936   4.255   3.477
 7304TIP3    H221870   7.012   4.348   3.385
 7305TIP3   OH221871   3.497   2.824   3.523
 7305TIP3    H121872   3.426   2.788   3.471
 7305TIP3    H221873   3.497   2.770   3.603
 7306TIP3   OH221874   7.115   5.507   5.334
 7306TIP3    H121875   7.082   5.582   5.284
 7306TIP3    H221876   7.192   5.542   5.380
 7307TIP3   OH221877   1.952   2.103   5.913
 7307TIP3    H121878   2.008   2.066   5.845
 7307TIP3    H221879   1.917   2.027   5.960
 7308TIP3   OH221880   2.661   3.808   2.961
 7308TIP3    H121881   2.631   3.899   2.958
 7308TIP3    H221882   2.755   3.814   2.975
 7309TIP3   OH221883   5.039   5.808   4.132
 7309TIP3    H121884   5.104   5.778   4.196
 7309TIP3    H221885   4.973   5.853   4.185
 7310TIP3   OH221886   2.936   7.325   0.412
 7310TIP3    H121887   2.892   7.258   0.360
 7310TIP3    H221888   2.923   7.406   0.364
 7311TIP3   OH221889   0.226   6.865   1.146
 7311TIP3    H121890   0.261   6.824   1.225
 7311TIP3    H221891   0.282   6.832   1.076
 7312TIP3   OH221892   5.793   7.379   6.056
 7312TIP3    H121893   5.829   7.411   5.974
 7312TIP3    H221894   5.819   7.287   6.060
 7313TIP3   OH221895   4.897   2.886   3.554
 7313TIP3    H121896   4.993   2.884   3.556
 7313TIP3    H221897   4.870   2.801   3.588
 7314TIP3   OH221898   2.872   3.988   3.384
 7314TIP3    H121899   2.824   4.070   3.372
 7314TIP3    H221900   2.962   4.016   3.402
 7315TIP3   OH221901   2.823   2.023   6.770
 7315TIP3    H121902   2.888   2.030   6.840
 7315TIP3    H221903   2.875   2.012   6.690
 7316TIP3   OH221904   6.743   4.608   4.000
 7316TIP3    H121905   6.756   4.525   3.954
 7316TIP3    H221906   6.817   4.662   3.974
 7317TIP3   OH221907   1.072   4.460   2.452
 7317TIP3    H121908   1.071   4.478   2.358
 7317TIP3    H221909   1.160   4.484   2.480
 7318TIP3   OH221910   0.435   0.561   1.579
 7318TIP3    H121911   0.372   0.507   1.627
 7318TIP3    H221912   0.382   0.631   1.541
 7319TIP3   OH221913   2.516   0.474   2.762
 7319TIP3    H121914   2.565   0.434   2.834
 7319TIP3    H221915   2.565   0.451   2.684
 7320TIP3   OH221916   5.979   5.736   3.210
 7320TIP3    H121917   5.982   5.788   3.290
 7320TIP3    H221918   5.972   5.801   3.140
 7321TIP3   OH221919   1.641   5.950   4.134
 7321TIP3    H121920   1.699   5.876   4.155
 7321TIP3    H221921   1.619   5.988   4.219
 7322TIP3   OH221922   2.516   2.814   6.656
 7322TIP3    H121923   2.560   2.898   6.651
 7322TIP3    H221924   2.552   2.772   6.734
 7323TIP3   OH221925   3.276   5.135   2.674
 7323TIP3    H121926   3.326   5.091   2.743
 7323TIP3    H221927   3.288   5.079   2.597
 7324TIP3   OH221928   5.364   7.505   2.364
 7324TIP3    H121929   5.439   7.476   2.415
 7324TIP3    H221930   5.394   7.584   2.320
 7325TIP3   OH221931   5.390   0.047   4.680
 7325TIP3    H121932   5.405   0.010   4.593
 7325TIP3    H221933   5.476   0.045   4.722
 7326TIP3   OH221934   0.375   6.330   5.598
 7326TIP3    H121935   0.382   6.255   5.539
 7326TIP3    H221936   0.292   6.372   5.574
 7327TIP3   OH221937   6.709   2.554   5.363
 7327TIP3    H121938   6.648   2.578   5.432
 7327TIP3    H221939   6.681   2.467   5.335
 7328TIP3   OH221940   2.916   6.054   5.070
 7328TIP3    H121941   2.891   6.097   4.988
 7328TIP3    H221942   2.873   6.106   5.138
 7329TIP3   OH221943   6.479   2.640   2.932
 7329TIP3    H121944   6.430   2.664   3.011
 7329TIP3    H221945   6.466   2.713   2.872
 7330TIP3   OH221946   1.527   4.799   5.961
 7330TIP3    H121947   1.472   4.842   5.896
 7330TIP3    H221948   1.589   4.867   5.988
 7331TIP3   OH221949   6.257   0.810   1.191
 7331TIP3    H121950   6.165   0.836   1.193
 7331TIP3    H221951   6.298   0.858   1.263
 7332TIP3   OH221952   4.912   0.089   2.856
 7332TIP3    H121953   4.818   0.083   2.845
 7332TIP3    H221954   4.940  -0.001   2.872
 7333TIP3   OH221955   0.127   4.669   3.889
 7333TIP3    H121956   0.089   4.599   3.941
 7333TIP3    H221957   0.085   4.749   3.922
 7334TIP3   OH221958   2.297   4.517   4.080
 7334TIP3    H121959   2.244   4.558   4.011
 7334TIP3    H221960   2.385   4.513   4.043
 7335TIP3   OH221961   0.674   3.719   0.785
 7335TIP3    H121962   0.681   3.794   0.844
 7335TIP3    H221963   0.685   3.757   0.697
 7336TIP3   OH221964   0.174   7.154   1.350
 7336TIP3    H121965   0.088   7.127   1.318
 7336TIP3    H221966   0.156   7.229   1.407
 7337TIP3   OH221967   3.330   7.393   5.322
 7337TIP3    H121968   3.254   7.387   5.264
 7337TIP3    H221969   3.355   7.486   5.318
 7338TIP3   OH221970   5.851   0.174   5.519
 7338TIP3    H121971   5.845   0.079   5.530
 7338TIP3    H221972   5.824   0.189   5.428
 7339TIP3   OH221973   3.783   7.046   5.285
 7339TIP3    H121974   3.867   7.036   5.330
 7339TIP3    H221975   3.718   7.020   5.350
 7340TIP3   OH221976   7.843   4.368   6.262
 7340TIP3    H121977   7.754   4.342   6.239
 7340TIP3    H221978   7.876   4.412   6.183
 7341TIP3   OH221979   2.825   6.173   5.710
 7341TIP3    H121980   2.794   6.229   5.639
 7341TIP3    H221981   2.767   6.097   5.708
 7342TIP3   OH221982   7.281   5.904   1.590
 7342TIP3    H121983   7.199   5.948   1.567
 7342TIP3    H221984   7.350   5.960   1.554
 7343TIP3   OH221985   0.455   0.438   0.744
 7343TIP3    H121986   0.376   0.389   0.722
 7343TIP3    H221987   0.440   0.525   0.706
 7344TIP3   OH221988   0.938   2.032   6.092
 7344TIP3    H121989   0.858   2.078   6.115
 7344TIP3    H221990   0.923   2.001   6.002
 7345TIP3   OH221991   3.086   4.656   3.653
 7345TIP3    H121992   3.039   4.575   3.673
 7345TIP3    H221993   3.146   4.631   3.583
 7346TIP3   OH221994   5.327   7.186   6.208
 7346TIP3    H121995   5.290   7.140   6.132
 7346TIP3    H221996   5.370   7.263   6.171
 7347TIP3   OH221997   3.454   5.863   0.520
 7347TIP3    H121998   3.529   5.913   0.551
 7347TIP3    H221999   3.486   5.815   0.444
 7348TIP3   OH222000   3.736   5.318   5.097
 7348TIP3    H122001   3.696   5.345   5.014
 7348TIP3    H222002   3.815   5.370   5.104
 7349TIP3   OH222003   3.998   3.780   6.420
 7349TIP3    H122004   3.906   3.806   6.407
 7349TIP3    H222005   3.993   3.688   6.447
 7350TIP3   OH222006   1.150   4.396   3.749
 7350TIP3    H122007   1.109   4.414   3.665
 7350TIP3    H222008   1.132   4.473   3.802
 7351TIP3   OH222009   6.246   2.628   4.145
 7351TIP3    H122010   6.319   2.685   4.123
 7351TIP3    H222011   6.273   2.583   4.225
 7352TIP3   OH222012   0.185   5.875   1.426
 7352TIP3    H122013   0.101   5.833   1.410
 7352TIP3    H222014   0.240   5.846   1.353
 7353TIP3   OH222015   2.749   5.111   5.950
 7353TIP3    H122016   2.804   5.189   5.959
 7353TIP3    H222017   2.743   5.096   5.856
 7354TIP3   OH222018   5.115   5.278   5.828
 7354TIP3    H122019   5.041   5.266   5.887
 7354TIP3    H222020   5.106   5.367   5.794
 7355TIP3   OH222021   7.157   1.854   1.144
 7355TIP3    H122022   7.136   1.947   1.149
 7355TIP3    H222023   7.251   1.849   1.166
 7356TIP3   OH222024   2.961   7.287   3.817
 7356TIP3    H122025   2.897   7.265   3.749
 7356TIP3    H222026   3.034   7.327   3.769
 7357TIP3   OH222027   3.998   6.591   1.886
 7357TIP3    H122028   3.928   6.582   1.951
 7357TIP3    H222029   3.963   6.550   1.807
 7358TIP3   OH222030   0.207   7.242   3.481
 7358TIP3    H122031   0.115   7.233   3.506
 7358TIP3    H222032   0.205   7.273   3.391
 7359TIP3   OH222033   4.448   5.513   2.776
 7359TIP3    H122034   4.461   5.532   2.868
 7359TIP3    H222035   4.355   5.493   2.769
 7360TIP3   OH222036   2.523   4.511   5.809
 7360TIP3    H122037   2.532   4.552   5.723
 7360TIP3    H222038   2.493   4.422   5.790
 7361TIP3   OH222039   3.566   5.152   2.906
 7361TIP3    H122040   3.567   5.154   2.811
 7361TIP3    H222041   3.541   5.240   2.933
 7362TIP3   OH222042   1.035   1.969   2.603
 7362TIP3    H122043   0.969   1.979   2.672
 7362TIP3    H222044   1.072   1.882   2.619
 7363TIP3   OH222045   3.022   4.155   1.244
 7363TIP3    H122046   2.939   4.200   1.259
 7363TIP3    H222047   3.055   4.135   1.332
 7364TIP3   OH222048   1.107   2.083   6.454
 7364TIP3    H122049   1.157   2.024   6.397
 7364TIP3    H222050   1.172   2.143   6.489
 7365TIP3   OH222051   4.595   0.749   2.926
 7365TIP3    H122052   4.591   0.707   3.011
 7365TIP3    H222053   4.508   0.787   2.914
 7366TIP3   OH222054   2.434   3.507   4.102
 7366TIP3    H122055   2.404   3.575   4.163
 7366TIP3    H222056   2.362   3.445   4.098
 7367TIP3   OH222057   3.854   3.602   2.749
 7367TIP3    H122058   3.919   3.561   2.806
 7367TIP3    H222059   3.851   3.693   2.778
 7368TIP3   OH222060   6.914   0.684   3.227
 7368TIP3    H122061   7.001   0.652   3.249
 7368TIP3    H222062   6.899   0.757   3.288
 7369TIP3   OH222063   6.561   3.579   1.869
 7369TIP3    H122064   6.541   3.598   1.777
 7369TIP3    H222065   6.595   3.662   1.903
 7370TIP3   OH222066   6.411   0.773   2.896
 7370TIP3    H122067   6.448   0.788   2.809
 7370TIP3    H222068   6.370   0.686   2.890
 7371TIP3   OH222069   7.909   5.629   1.974
 7371TIP3    H122070   7.846   5.558   1.959
 7371TIP3    H222071   7.974   5.592   2.033
 7372TIP3   OH222072   0.727   1.575   0.104
 7372TIP3    H122073   0.676   1.541   0.178
 7372TIP3    H222074   0.766   1.498   0.064
 7373TIP3   OH222075   2.554   1.397   2.802
 7373TIP3    H122076   2.482   1.386   2.864
 7373TIP3    H222077   2.544   1.487   2.770
 7374TIP3   OH222078   6.609   2.041   3.653
 7374TIP3    H122079   6.605   2.017   3.560
 7374TIP3    H222080   6.689   1.999   3.685
 7375TIP3   OH222081   5.171   4.186   4.547
 7375TIP3    H122082   5.212   4.102   4.524
 7375TIP3    H222083   5.168   4.234   4.464
 7376TIP3   OH222084   1.053   0.026   3.827
 7376TIP3    H122085   1.092  -0.036   3.889
 7376TIP3    H222086   1.128   0.059   3.777
 7377TIP3   OH222087   5.979   0.792   6.653
 7377TIP3    H122088   6.011   0.807   6.742
 7377TIP3    H222089   6.023   0.857   6.600
 7378TIP3   OH222090   7.721   4.570   6.611
 7378TIP3    H122091   7.796   4.513   6.593
 7378TIP3    H222092   7.655   4.542   6.548
 7379TIP3   OH222093   1.166   5.705   6.470
 7379TIP3    H122094   1.195   5.700   6.561
 7379TIP3    H222095   1.071   5.690   6.475
 7380TIP3   OH222096   0.389   5.754   6.712
 7380TIP3    H122097   0.338   5.706   6.647
 7380TIP3    H222098   0.480   5.737   6.690
 7381TIP3   OH222099   2.173   0.530   6.604
 7381TIP3    H122100   2.173   0.607   6.548
 7381TIP3    H222101   2.266   0.511   6.618
 7382TIP3   OH222102   1.703   6.678   5.325
 7382TIP3    H122103   1.637   6.689   5.393
 7382TIP3    H222104   1.786   6.695   5.370
 7383TIP3   OH222105   4.755   4.522   0.110
 7383TIP3    H122106   4.759   4.580   0.186
 7383TIP3    H222107   4.829   4.549   0.055
 7384TIP3   OH222108   6.807   4.094   3.983
 7384TIP3    H122109   6.736   4.065   4.040
 7384TIP3    H222110   6.834   4.015   3.936
 7385TIP3   OH222111   0.779   4.372   4.844
 7385TIP3    H122112   0.722   4.441   4.878
 7385TIP3    H222113   0.775   4.303   4.910
 7386TIP3   OH222114   6.703   2.512   5.659
 7386TIP3    H122115   6.722   2.418   5.653
 7386TIP3    H222116   6.612   2.520   5.632
 7387TIP3   OH222117   5.083   6.550   2.723
 7387TIP3    H122118   4.999   6.508   2.703
 7387TIP3    H222119   5.059   6.638   2.751
 7388TIP3   OH222120   3.957   2.535   0.397
 7388TIP3    H122121   3.875   2.504   0.435
 7388TIP3    H222122   3.934   2.617   0.353
 7389TIP3   OH222123   0.061   7.271   0.251
 7389TIP3    H122124   0.029   7.292   0.338
 7389TIP3    H222125   0.121   7.198   0.264
 7390TIP3   OH222126   2.792   3.833   0.195
 7390TIP3    H122127   2.701   3.814   0.220
 7390TIP3    H222128   2.799   3.928   0.203
 7391TIP3   OH222129   7.257   0.411   6.139
 7391TIP3    H122130   7.300   0.496   6.145
 7391TIP3    H222131   7.325   0.348   6.164
 7392TIP3   OH222132   0.697   2.818   0.362
 7392TIP3    H122133   0.643   2.813   0.284
 7392TIP3    H222134   0.653   2.760   0.425
 7393TIP3   OH222135   4.057   2.125   2.798
 7393TIP3    H122136   3.980   2.096   2.847
 7393TIP3    H222137   4.022   2.153   2.713
 7394TIP3   OH222138   0.210   7.720   6.046
 7394TIP3    H122139   0.175   7.636   6.016
 7394TIP3    H222140   0.295   7.728   6.004
 7395TIP3   OH222141   0.165   0.682   2.556
 7395TIP3    H122142   0.130   0.680   2.467
 7395TIP3    H222143   0.213   0.764   2.561
 7396TIP3   OH222144   2.622   1.438   1.309
 7396TIP3    H122145   2.664   1.509   1.261
 7396TIP3    H222146   2.656   1.446   1.398
 7397TIP3   OH222147   1.537   7.459   4.399
 7397TIP3    H122148   1.631   7.445   4.409
 7397TIP3    H222149   1.511   7.510   4.476
 7398TIP3   OH222150   6.800   5.062   1.612
 7398TIP3    H122151   6.840   5.076   1.527
 7398TIP3    H222152   6.803   5.148   1.655
 7399TIP3   OH222153   5.043   2.873   2.996
 7399TIP3    H122154   4.955   2.908   3.006
 7399TIP3    H222155   5.037   2.782   3.023
 7400TIP3   OH222156   2.553   1.408   6.654
 7400TIP3    H122157   2.475   1.433   6.703
 7400TIP3    H222158   2.615   1.377   6.720
 7401TIP3   OH222159   5.702   2.427   3.938
 7401TIP3    H122160   5.686   2.366   4.010
 7401TIP3    H222161   5.725   2.372   3.864
 7402TIP3   OH222162   2.809   6.629   4.434
 7402TIP3    H122163   2.770   6.705   4.391
 7402TIP3    H222164   2.811   6.562   4.366
 7403TIP3   OH222165   1.307   7.787   5.647
 7403TIP3    H122166   1.289   7.881   5.649
 7403TIP3    H222167   1.350   7.773   5.563
 7404TIP3   OH222168   2.911   2.682   1.300
 7404TIP3    H122169   2.827   2.718   1.328
 7404TIP3    H222170   2.968   2.692   1.376
 7405TIP3   OH222171   1.384   3.212   2.405
 7405TIP3    H122172   1.398   3.200   2.311
 7405TIP3    H222173   1.298   3.254   2.411
 7406TIP3   OH222174   4.581   7.665   0.694
 7406TIP3    H122175   4.587   7.622   0.779
 7406TIP3    H222176   4.663   7.641   0.650
 7407TIP3   OH222177   6.810   6.775   2.396
 7407TIP3    H122178   6.737   6.721   2.367
 7407TIP3    H222179   6.864   6.789   2.318
 7408TIP3   OH222180   1.903   0.545   0.265
 7408TIP3    H122181   1.865   0.624   0.228
 7408TIP3    H222182   1.935   0.496   0.189
 7409TIP3   OH222183   6.720   6.418   3.118
 7409TIP3    H122184   6.716   6.341   3.175
 7409TIP3    H222185   6.638   6.466   3.136
 7410TIP3   OH222186   5.726   2.636   2.386
 7410TIP3    H122187   5.801   2.693   2.368
 7410TIP3    H222188   5.653   2.696   2.399
 7411TIP3   OH222189   4.586   2.275   1.394
 7411TIP3    H122190   4.650   2.224   1.443
 7411TIP3    H222191   4.563   2.347   1.453
 7412TIP3   OH222192   4.018   3.292   6.596
 7412TIP3    H122193   3.999   3.386   6.588
 7412TIP3    H222194   3.962   3.251   6.530
 7413TIP3   OH222195   2.104   4.459   2.112
 7413TIP3    H122196   2.129   4.506   2.191
 7413TIP3    H222197   2.008   4.466   2.110
 7414TIP3   OH222198   2.288   1.025   0.955
 7414TIP3    H122199   2.256   1.035   0.865
 7414TIP3    H222200   2.213   0.993   1.004
 7415TIP3   OH222201   3.295   5.569   5.851
 7415TIP3    H122202   3.311   5.479   5.824
 7415TIP3    H222203   3.204   5.570   5.879
 7416TIP3   OH222204   6.065   1.842   1.746
 7416TIP3    H122205   6.052   1.936   1.735
 7416TIP3    H222206   6.060   1.829   1.841
 7417TIP3   OH222207   6.082   2.086   0.262
 7417TIP3    H122208   6.123   2.039   0.334
 7417TIP3    H222209   6.038   2.019   0.210
 7418TIP3   OH222210   6.935   2.108   3.425
 7418TIP3    H122211   7.009   2.097   3.484
 7418TIP3    H222212   6.888   2.184   3.459
 7419TIP3   OH222213   4.015   7.135   5.999
 7419TIP3    H122214   3.923   7.159   5.993
 7419TIP3    H222215   4.058   7.190   5.933
 7420TIP3   OH222216   7.167   4.888   6.635
 7420TIP3    H122217   7.212   4.882   6.551
 7420TIP3    H222218   7.132   4.977   6.637
 7421TIP3   OH222219   7.614   5.893   2.633
 7421TIP3    H122220   7.522   5.907   2.608
 7421TIP3    H222221   7.664   5.941   2.568
 7422TIP3   OH222222   0.254   3.345   0.724
 7422TIP3    H122223   0.171   3.391   0.737
 7422TIP3    H222224   0.293   3.384   0.646
 7423TIP3   OH222225   2.959   2.354   4.176
 7423TIP3    H122226   2.880   2.406   4.163
 7423TIP3    H222227   2.937   2.268   4.139
 7424TIP3   OH222228   2.301   0.268   0.958
 7424TIP3    H122229   2.343   0.239   0.877
 7424TIP3    H222230   2.371   0.267   1.024
 7425TIP3   OH222231   6.888   7.705   1.895
 7425TIP3    H122232   6.970   7.694   1.846
 7425TIP3    H222233   6.861   7.795   1.876
 7426TIP3   OH222234   8.116   7.832   1.698
 7426TIP3    H122235   8.119   7.742   1.664
 7426TIP3    H222236   8.201   7.844   1.740
 7427TIP3   OH222237   6.822   1.375   2.272
 7427TIP3    H122238   6.874   1.405   2.347
 7427TIP3    H222239   6.762   1.310   2.309
 7428TIP3   OH222240   2.970   2.312   3.494
 7428TIP3    H122241   2.921   2.262   3.560
 7428TIP3    H222242   2.905   2.333   3.427
 7429TIP3   OH222243   5.693   5.005   0.542
 7429TIP3    H122244   5.659   4.920   0.572
 7429TIP3    H222245   5.674   5.006   0.448
 7430TIP3   OH222246   6.804   4.780   1.937
 7430TIP3    H122247   6.732   4.774   1.875
 7430TIP3    H222248   6.820   4.689   1.964
 7431TIP3   OH222249   4.106   0.262   6.593
 7431TIP3    H122250   4.051   0.338   6.572
 7431TIP3    H222251   4.151   0.242   6.511
 7432TIP3   OH222252   6.295   1.531   4.252
 7432TIP3    H122253   6.208   1.570   4.267
 7432TIP3    H222254   6.284   1.439   4.277
 7433TIP3   OH222255   7.597   7.149   3.328
 7433TIP3    H122256   7.548   7.069   3.310
 7433TIP3    H222257   7.652   7.161   3.251
 7434TIP3   OH222258   0.806   0.452   1.953
 7434TIP3    H122259   0.863   0.528   1.950
 7434TIP3    H222260   0.787   0.432   1.861
 7435TIP3   OH222261   7.980   1.993   2.213
 7435TIP3    H122262   7.997   2.083   2.241
 7435TIP3    H222263   7.967   1.945   2.295
 7436TIP3   OH222264   5.822   2.621   1.203
 7436TIP3    H122265   5.869   2.668   1.134
 7436TIP3    H222266   5.769   2.556   1.156
 7437TIP3   OH222267   2.765   2.056   5.421
 7437TIP3    H122268   2.829   2.094   5.361
 7437TIP3    H222269   2.782   2.099   5.505
 7438TIP3   OH222270   1.294   4.196   2.013
 7438TIP3    H122271   1.318   4.288   2.009
 7438TIP3    H222272   1.223   4.186   1.949
 7439TIP3   OH222273   5.532   5.386   6.466
 7439TIP3    H122274   5.438   5.369   6.459
 7439TIP3    H222275   5.547   5.401   6.559
 7440TIP3   OH222276   7.593   0.334   3.749
 7440TIP3    H122277   7.669   0.282   3.774
 7440TIP3    H222278   7.550   0.284   3.680
 7441TIP3   OH222279   0.652   5.852   2.089
 7441TIP3    H122280   0.631   5.905   2.166
 7441TIP3    H222281   0.736   5.887   2.059
 7442TIP3   OH222282   5.516   6.605   1.328
 7442TIP3    H122283   5.489   6.668   1.262
 7442TIP3    H222284   5.588   6.649   1.375
 7443TIP3   OH222285   2.345   2.493   6.572
 7443TIP3    H122286   2.336   2.574   6.522
 7443TIP3    H222287   2.416   2.446   6.529
 7444TIP3   OH222288   1.788   3.791   1.088
 7444TIP3    H122289   1.718   3.853   1.066
 7444TIP3    H222290   1.752   3.705   1.068
 7445TIP3   OH222291   0.586   4.135   1.286
 7445TIP3    H122292   0.622   4.211   1.240
 7445TIP3    H222293   0.568   4.072   1.217
 7446TIP3   OH222294   7.266   2.292   4.615
 7446TIP3    H122295   7.253   2.197   4.616
 7446TIP3    H222296   7.322   2.307   4.538
 7447TIP3   OH222297   6.709   2.490   5.959
 7447TIP3    H122298   6.722   2.567   6.013
 7447TIP3    H222299   6.743   2.514   5.873
 7448TIP3   OH222300   6.536   5.043   0.125
 7448TIP3    H122301   6.550   5.137   0.137
 7448TIP3    H222302   6.529   5.031   0.030
 7449TIP3   OH222303   2.308   4.619   4.700
 7449TIP3    H122304   2.276   4.691   4.645
 7449TIP3    H222305   2.264   4.631   4.784
 7450TIP3   OH222306   0.535   0.711   3.288
 7450TIP3    H122307   0.516   0.777   3.221
 7450TIP3    H222308   0.497   0.746   3.368
 7451TIP3   OH222309   0.206   0.360   0.635
 7451TIP3    H122310   0.172   0.302   0.702
 7451TIP3    H222311   0.148   0.346   0.560
 7452TIP3   OH222312   0.180   1.567   2.444
 7452TIP3    H122313   0.173   1.496   2.381
 7452TIP3    H222314   0.219   1.526   2.521
 7453TIP3   OH222315   4.800   1.630   2.208
 7453TIP3    H122316   4.770   1.582   2.131
 7453TIP3    H222317   4.747   1.709   2.209
 7454TIP3   OH222318   1.462   7.318   5.866
 7454TIP3    H122319   1.533   7.287   5.809
 7454TIP3    H222320   1.451   7.410   5.842
 7455TIP3   OH222321   0.636   7.119   1.272
 7455TIP3    H122322   0.649   7.182   1.344
 7455TIP3    H222323   0.553   7.146   1.232
 7456TIP3   OH222324   5.129   4.010   3.394
 7456TIP3    H122325   5.131   3.962   3.476
 7456TIP3    H222326   5.039   4.043   3.388
 7457TIP3   OH222327   0.574   4.823   2.440
 7457TIP3    H122328   0.659   4.778   2.444
 7457TIP3    H222329   0.510   4.752   2.437
 7458TIP3   OH222330   2.508   5.058   0.187
 7458TIP3    H122331   2.573   5.032   0.252
 7458TIP3    H222332   2.559   5.088   0.112
 7459TIP3   OH222333   4.069   1.827   5.778
 7459TIP3    H122334   4.026   1.748   5.810
 7459TIP3    H222335   4.098   1.805   5.689
 7460TIP3   OH222336   6.526   1.227   5.840
 7460TIP3    H122337   6.493   1.196   5.756
 7460TIP3    H222338   6.574   1.153   5.877
 7461TIP3   OH222339   4.277   0.652   4.117
 7461TIP3    H122340   4.267   0.675   4.209
 7461TIP3    H222341   4.262   0.734   4.070
 7462TIP3   OH222342   2.761   3.460   6.008
 7462TIP3    H122343   2.720   3.500   6.086
 7462TIP3    H222344   2.712   3.379   5.995
 7463TIP3   OH222345   7.237   0.158   2.489
 7463TIP3    H122346   7.225   0.135   2.397
 7463TIP3    H222347   7.150   0.185   2.518
 7464TIP3   OH222348   3.379   0.500   4.463
 7464TIP3    H122349   3.454   0.456   4.423
 7464TIP3    H222350   3.313   0.502   4.394
 7465TIP3   OH222351   0.803   3.924   3.331
 7465TIP3    H122352   0.884   3.917   3.280
 7465TIP3    H222353   0.796   4.018   3.352
 7466TIP3   OH222354   5.358   2.198   2.061
 7466TIP3    H122355   5.396   2.256   1.995
 7466TIP3    H222356   5.287   2.153   2.015
 7467TIP3   OH222357   7.592   5.942   0.139
 7467TIP3    H122358   7.681   5.912   0.157
 7467TIP3    H222359   7.603   6.008   0.070
 7468TIP3   OH222360   2.026   4.919   5.694
 7468TIP3    H122361   2.097   4.901   5.755
 7468TIP3    H222362   1.949   4.930   5.750
 7469TIP3   OH222363   0.072   0.155   3.659
 7469TIP3    H122364   0.033   0.235   3.625
 7469TIP3    H222365   0.021   0.135   3.738
 7470TIP3   OH222366   3.673   7.736   5.098
 7470TIP3    H122367   3.662   7.670   5.030
 7470TIP3    H222368   3.763   7.725   5.129
 7471TIP3   OH222369   3.094   0.854   5.617
 7471TIP3    H122370   3.142   0.779   5.654
 7471TIP3    H222371   3.065   0.824   5.531
 7472TIP3   OH222372   7.677   0.964   2.420
 7472TIP3    H122373   7.614   0.949   2.490
 7472TIP3    H222374   7.752   1.005   2.463
 7473TIP3   OH222375   5.770   3.841   5.517
 7473TIP3    H122376   5.685   3.821   5.557
 7473TIP3    H222377   5.771   3.789   5.437
 7474TIP3   OH222378   7.693   5.463   1.883
 7474TIP3    H122379   7.612   5.449   1.930
 7474TIP3    H222380   7.667   5.506   1.801
 7475TIP3   OH222381   0.703   1.399   2.199
 7475TIP3    H122382   0.704   1.387   2.104
 7475TIP3    H222383   0.711   1.493   2.212
 7476TIP3   OH222384   7.279   0.106   0.727
 7476TIP3    H122385   7.314   0.027   0.684
 7476TIP3    H222386   7.240   0.074   0.808
 7477TIP3   OH222387   0.880   0.719   5.871
 7477TIP3    H122388   0.831   0.637   5.879
 7477TIP3    H222389   0.869   0.745   5.779
 7478TIP3   OH222390   5.554   4.507   4.634
 7478TIP3    H122391   5.614   4.574   4.666
 7478TIP3    H222392   5.476   4.517   4.689
 7479TIP3   OH222393   3.244   0.779   5.175
 7479TIP3    H122394   3.170   0.836   5.153
 7479TIP3    H222395   3.299   0.832   5.233
 7480TIP3   OH222396   2.923   0.042   1.867
 7480TIP3    H122397   2.933  -0.008   1.948
 7480TIP3    H222398   2.929   0.133   1.895
 7481TIP3   OH222399   5.392  -0.028   2.783
 7481TIP3    H122400   5.394  -0.028   2.878
 7481TIP3    H222401   5.358   0.059   2.759
 7482TIP3   OH222402   0.923   4.691   0.391
 7482TIP3    H122403   0.972   4.627   0.340
 7482TIP3    H222404   0.854   4.641   0.434
 7483TIP3   OH222405   2.524   7.318   3.276
 7483TIP3    H122406   2.486   7.263   3.207
 7483TIP3    H222407   2.547   7.400   3.232
 7484TIP3   OH222408   7.397   2.328   2.307
 7484TIP3    H122409   7.395   2.418   2.275
 7484TIP3    H222410   7.312   2.315   2.350
 7485TIP3   OH222411   7.406   1.109   3.582
 7485TIP3    H122412   7.414   1.120   3.488
 7485TIP3    H222413   7.488   1.142   3.618
 7486TIP3   OH222414   2.703   2.991   6.591
 7486TIP3    H122415   2.751   3.072   6.573
 7486TIP3    H222416   2.763   2.941   6.646
 7487TIP3   OH222417   1.933   3.401   2.072
 7487TIP3    H122418   1.949   3.452   1.993
 7487TIP3    H222419   1.986   3.323   2.061
 7488TIP3   OH222420   8.124   3.021   4.165
 7488TIP3    H122421   8.111   2.961   4.238
 7488TIP3    H222422   8.206   3.067   4.187
 7489TIP3   OH222423   4.533   0.755   1.480
 7489TIP3    H122424   4.576   0.836   1.452
 7489TIP3    H222425   4.439   0.777   1.480
 7490TIP3   OH222426   4.989   3.062   4.783
 7490TIP3    H122427   4.934   3.055   4.861
 7490TIP3    H222428   5.013   3.154   4.779
 7491TIP3   OH222429   7.741   4.176   4.812
 7491TIP3    H122430   7.816   4.221   4.851
 7491TIP3    H222431   7.780   4.109   4.756
 7492TIP3   OH222432   3.644   3.449   1.647
 7492TIP3    H122433   3.635   3.353   1.652
 7492TIP3    H222434   3.726   3.464   1.602
 7493TIP3   OH222435   3.975   0.064   3.981
 7493TIP3    H122436   3.894   0.115   3.986
 7493TIP3    H222437   3.977   0.030   3.891
 7494TIP3   OH222438   2.613   0.932   5.576
 7494TIP3    H122439   2.564   0.965   5.501
 7494TIP3    H222440   2.610   1.004   5.639
 7495TIP3   OH222441   1.558   6.565   3.690
 7495TIP3    H122442   1.531   6.591   3.777
 7495TIP3    H222443   1.575   6.471   3.697
 7496TIP3   OH222444   3.888   0.491   0.564
 7496TIP3    H122445   3.892   0.395   0.558
 7496TIP3    H222446   3.942   0.521   0.490
 7497TIP3   OH222447   3.284   1.265   6.416
 7497TIP3    H122448   3.356   1.312   6.374
 7497TIP3    H222449   3.327   1.194   6.464
 7498TIP3   OH222450   0.314   6.256   0.427
 7498TIP3    H122451   0.271   6.332   0.388
 7498TIP3    H222452   0.268   6.242   0.510
 7499TIP3   OH222453   2.475   4.729   5.971
 7499TIP3    H122454   2.485   4.656   5.909
 7499TIP3    H222455   2.424   4.692   6.043
 7500TIP3   OH222456   2.755   0.153   6.082
 7500TIP3    H122457   2.808   0.202   6.020
 7500TIP3    H222458   2.770   0.196   6.166
 7501TIP3   OH222459   3.824   6.405   5.488
 7501TIP3    H122460   3.900   6.346   5.496
 7501TIP3    H222461   3.782   6.377   5.406
 7502TIP3   OH222462   0.706   3.829   1.675
 7502TIP3    H122463   0.620   3.788   1.687
 7502TIP3    H222464   0.710   3.847   1.581
 7503TIP3   OH222465   7.062   6.810   4.589
 7503TIP3    H122466   7.002   6.874   4.626
 7503TIP3    H222467   7.127   6.795   4.657
 7504TIP3   OH222468   4.550   0.391   3.346
 7504TIP3    H122469   4.607   0.327   3.388
 7504TIP3    H222470   4.472   0.342   3.321
 7505TIP3   OH222471   1.556   3.730   2.350
 7505TIP3    H122472   1.584   3.814   2.386
 7505TIP3    H222473   1.460   3.736   2.347
 7506TIP3   OH222474   1.492   4.433   1.588
 7506TIP3    H122475   1.417   4.381   1.616
 7506TIP3    H222476   1.488   4.512   1.641
 7507TIP3   OH222477   7.389   2.862   4.527
 7507TIP3    H122478   7.379   2.947   4.484
 7507TIP3    H222479   7.327   2.865   4.601
 7508TIP3   OH222480   7.141   3.860   3.810
 7508TIP3    H122481   7.137   3.936   3.867
 7508TIP3    H222482   7.068   3.872   3.748
 7509TIP3   OH222483   3.519   4.397   6.161
 7509TIP3    H122484   3.613   4.398   6.143
 7509TIP3    H222485   3.513   4.375   6.254
 7510TIP3   OH222486   1.047   5.434   4.906
 7510TIP3    H122487   1.023   5.494   4.976
 7510TIP3    H222488   1.141   5.448   4.893
 7511TIP3   OH222489   0.171   4.466   0.610
 7511TIP3    H122490   0.148   4.450   0.519
 7511TIP3    H222491   0.101   4.424   0.660
 7512TIP3   OH222492   3.851   2.843   5.537
 7512TIP3    H122493   3.784   2.797   5.487
 7512TIP3    H222494   3.815   2.850   5.625
 7513TIP3   OH222495   3.263   0.947   6.258
 7513TIP3    H122496   3.245   1.039   6.239
 7513TIP3    H222497   3.198   0.923   6.324
 7514TIP3   OH222498   0.177   3.982   0.286
 7514TIP3    H122499   0.182   3.918   0.215
 7514TIP3    H222500   0.198   4.066   0.246
 7515TIP3   OH222501   3.728   5.798   4.446
 7515TIP3    H122502   3.652   5.804   4.388
 7515TIP3    H222503   3.701   5.736   4.514
 7516TIP3   OH222504   1.443   5.990   1.630
 7516TIP3    H122505   1.489   5.914   1.665
 7516TIP3    H222506   1.448   6.055   1.700
 7517TIP3   OH222507   4.227   0.013   2.480
 7517TIP3    H122508   4.257   0.097   2.512
 7517TIP3    H222509   4.240  -0.047   2.553
 7518TIP3   OH222510   2.574   4.004   4.717
 7518TIP3    H122511   2.599   4.063   4.646
 7518TIP3    H222512   2.481   4.023   4.732
 7519TIP3   OH222513   5.665   7.380   0.231
 7519TIP3    H122514   5.646   7.471   0.208
 7519TIP3    H222515   5.694   7.384   0.322
 7520TIP3   OH222516   4.003   3.651   4.012
 7520TIP3    H122517   3.909   3.640   3.997
 7520TIP3    H222518   4.014   3.745   4.027
 7521TIP3   OH222519   2.845   6.235   2.824
 7521TIP3    H122520   2.886   6.317   2.796
 7521TIP3    H222521   2.763   6.231   2.775
 7522TIP3   OH222522   6.470   2.942   3.823
 7522TIP3    H122523   6.511   2.856   3.835
 7522TIP3    H222524   6.381   2.923   3.792
 7523TIP3   OH222525   7.122   4.160   2.395
 7523TIP3    H122526   7.141   4.154   2.301
 7523TIP3    H222527   7.029   4.182   2.399
 7524TIP3   OH222528   0.900   5.478   0.399
 7524TIP3    H122529   0.958   5.554   0.395
 7524TIP3    H222530   0.957   5.404   0.378
 7525TIP3   OH222531   7.902   0.143   3.364
 7525TIP3    H122532   7.820   0.174   3.326
 7525TIP3    H222533   7.912   0.054   3.331
 7526TIP3   OH222534   4.208   7.734   3.823
 7526TIP3    H122535   4.169   7.706   3.907
 7526TIP3    H222536   4.288   7.682   3.816
 7527TIP3   OH222537   3.816   3.236   4.667
 7527TIP3    H122538   3.733   3.207   4.705
 7527TIP3    H222539   3.844   3.308   4.722
 7528TIP3   OH222540   5.251   3.998   5.920
 7528TIP3    H122541   5.340   4.014   5.889
 7528TIP3    H222542   5.244   3.903   5.925
 7529TIP3   OH222543   0.942   3.304   3.932
 7529TIP3    H122544   0.988   3.270   4.009
 7529TIP3    H222545   0.863   3.344   3.967
 7530TIP3   OH222546   2.353   2.833   2.623
 7530TIP3    H122547   2.439   2.876   2.618
 7530TIP3    H222548   2.356   2.785   2.706
 7531TIP3   OH222549   1.802   5.578   3.282
 7531TIP3    H122550   1.816   5.647   3.348
 7531TIP3    H222551   1.732   5.613   3.227
 7532TIP3   OH222552   3.843   3.190   1.473
 7532TIP3    H122553   3.815   3.265   1.420
 7532TIP3    H222554   3.913   3.226   1.529
 7533TIP3   OH222555   3.792   0.141   0.069
 7533TIP3    H122556   3.769   0.048   0.063
 7533TIP3    H222557   3.767   0.166   0.159
 7534TIP3   OH222558   0.153   0.549   2.290
 7534TIP3    H122559   0.120   0.467   2.327
 7534TIP3    H222560   0.132   0.543   2.197
 7535TIP3   OH222561   4.496   3.915   2.044
 7535TIP3    H122562   4.517   3.852   2.112
 7535TIP3    H222563   4.565   3.980   2.049
 7536TIP3   OH222564   0.999   1.541   4.378
 7536TIP3    H122565   1.036   1.462   4.338
 7536TIP3    H222566   0.932   1.508   4.438
 7537TIP3   OH222567   1.457   4.333   5.923
 7537TIP3    H122568   1.465   4.293   5.837
 7537TIP3    H222569   1.542   4.375   5.939
 7538TIP3   OH222570   3.267   5.454   5.055
 7538TIP3    H122571   3.185   5.494   5.026
 7538TIP3    H222572   3.241   5.395   5.126
 7539TIP3   OH222573   7.346   4.880   3.379
 7539TIP3    H122574   7.358   4.953   3.440
 7539TIP3    H222575   7.324   4.805   3.435
 7540TIP3   OH222576   5.442   2.121   2.328
 7540TIP3    H122577   5.364   2.123   2.384
 7540TIP3    H222578   5.418   2.173   2.251
 7541TIP3   OH222579   1.738   6.910   2.960
 7541TIP3    H122580   1.777   6.990   2.995
 7541TIP3    H222581   1.679   6.880   3.030
 7542TIP3   OH222582   1.727   4.945   0.239
 7542TIP3    H122583   1.661   4.892   0.284
 7542TIP3    H222584   1.699   5.036   0.254
 7543TIP3   OH222585   3.995   4.613   3.013
 7543TIP3    H122586   3.978   4.650   2.926
 7543TIP3    H222587   3.953   4.527   3.010
 7544TIP3   OH222588   4.778   3.625   3.083
 7544TIP3    H122589   4.720   3.602   3.155
 7544TIP3    H222590   4.720   3.659   3.015
 7545TIP3   OH222591   0.591   4.268   3.277
 7545TIP3    H122592   0.660   4.248   3.341
 7545TIP3    H222593   0.544   4.185   3.266
 7546TIP3   OH222594   5.540   2.082   3.923
 7546TIP3    H122595   5.574   2.076   4.012
 7546TIP3    H222596   5.447   2.063   3.931
 7547TIP3   OH222597   0.026   1.755   3.419
 7547TIP3    H122598  -0.037   1.690   3.387
 7547TIP3    H222599   0.022   1.826   3.355
 7548TIP3   OH222600   3.881   5.791   1.219
 7548TIP3    H122601   3.838   5.734   1.282
 7548TIP3    H222602   3.830   5.871   1.220
 7549TIP3   OH222603   7.747   3.104   4.961
 7549TIP3    H122604   7.693   3.028   4.981
 7549TIP3    H222605   7.738   3.160   5.039
 7550TIP3   OH222606   3.010   0.996   6.419
 7550TIP3    H122607   3.051   0.917   6.456
 7550TIP3    H222608   3.013   1.060   6.490
 7551TIP3   OH222609   4.734   4.216   4.191
 7551TIP3    H122610   4.741   4.243   4.283
 7551TIP3    H222611   4.671   4.144   4.192
 7552TIP3   OH222612   3.331   5.656   3.363
 7552TIP3    H122613   3.252   5.683   3.409
 7552TIP3    H222614   3.314   5.677   3.271
 7553TIP3   OH222615   0.617   4.281   4.614
 7553TIP3    H122616   0.672   4.309   4.687
 7553TIP3    H222617   0.565   4.358   4.593
 7554TIP3   OH222618   5.343   4.796   0.307
 7554TIP3    H122619   5.345   4.754   0.393
 7554TIP3    H222620   5.251   4.818   0.293
 7555TIP3   OH222621   1.464   1.357   0.333
 7555TIP3    H122622   1.398   1.298   0.371
 7555TIP3    H222623   1.423   1.389   0.252
 7556TIP3   OH222624   4.944   4.151   3.154
 7556TIP3    H122625   4.894   4.230   3.131
 7556TIP3    H222626   4.921   4.134   3.246
 7557TIP3   OH222627   3.124   4.223   0.410
 7557TIP3    H122628   3.103   4.149   0.466
 7557TIP3    H222629   3.097   4.195   0.322
 7558TIP3   OH222630   5.490   1.124   5.123
 7558TIP3    H122631   5.576   1.086   5.138
 7558TIP3    H222632   5.493   1.208   5.168
 7559TIP3   OH222633   5.194   3.095   4.388
 7559TIP3    H122634   5.195   3.071   4.295
 7559TIP3    H222635   5.121   3.155   4.397
 7560TIP3   OH222636   3.379   2.095   4.629
 7560TIP3    H122637   3.385   2.179   4.583
 7560TIP3    H222638   3.347   2.034   4.562
 7561TIP3   OH222639   5.997   1.766   4.536
 7561TIP3    H122640   6.035   1.753   4.449
 7561TIP3    H222641   5.924   1.826   4.521
 7562TIP3   OH222642   7.618   5.642   3.689
 7562TIP3    H122643   7.652   5.586   3.619
 7562TIP3    H222644   7.690   5.701   3.711
 7563TIP3   OH222645   3.926   5.551   2.450
 7563TIP3    H122646   3.981   5.529   2.525
 7563TIP3    H222647   3.845   5.584   2.489
 7564TIP3   OH222648   2.402   5.914   6.691
 7564TIP3    H122649   2.317   5.870   6.699
 7564TIP3    H222650   2.446   5.895   6.773
 7565TIP3   OH222651   1.575   2.556   0.881
 7565TIP3    H122652   1.607   2.532   0.795
 7565TIP3    H222653   1.548   2.473   0.921
 7566TIP3   OH222654   0.047   2.434   6.459
 7566TIP3    H122655   0.038   2.357   6.516
 7566TIP3    H222656   0.135   2.425   6.421
 7567TIP3   OH222657   3.547   4.080   4.513
 7567TIP3    H122658   3.587   4.022   4.577
 7567TIP3    H222659   3.519   4.156   4.563
 7568TIP3   OH222660   2.747   0.581   5.854
 7568TIP3    H122661   2.841   0.585   5.837
 7568TIP3    H222662   2.722   0.493   5.828
 7569TIP3   OH222663   0.197   6.394   4.205
 7569TIP3    H122664   0.197   6.432   4.117
 7569TIP3    H222665   0.224   6.466   4.262
 7570TIP3   OH222666   4.291   2.644   4.688
 7570TIP3    H122667   4.195   2.645   4.691
 7570TIP3    H222668   4.312   2.687   4.605
 7571TIP3   OH222669   4.703   5.842   0.882
 7571TIP3    H122670   4.724   5.828   0.975
 7571TIP3    H222671   4.737   5.930   0.864
 7572TIP3   OH222672   7.033   4.653   3.230
 7572TIP3    H122673   6.944   4.676   3.258
 7572TIP3    H222674   7.031   4.662   3.135
 7573TIP3   OH222675   4.238   6.173   2.420
 7573TIP3    H122676   4.255   6.182   2.326
 7573TIP3    H222677   4.143   6.175   2.428
 7574TIP3   OH222678   0.005   4.701   1.917
 7574TIP3    H122679  -0.031   4.761   1.982
 7574TIP3    H222680   0.092   4.679   1.950
 7575TIP3   OH222681   4.140   1.051   6.736
 7575TIP3    H122682   4.131   1.146   6.726
 7575TIP3    H222683   4.066   1.026   6.791
 7576TIP3   OH222684   2.564   5.840   2.265
 7576TIP3    H122685   2.581   5.774   2.198
 7576TIP3    H222686   2.474   5.870   2.247
 7577TIP3   OH222687   4.037   0.523   5.119
 7577TIP3    H122688   3.949   0.534   5.155
 7577TIP3    H222689   4.046   0.429   5.105
 7578TIP3   OH222690   3.451   3.257   1.469
 7578TIP3    H122691   3.503   3.179   1.450
 7578TIP3    H222692   3.395   3.231   1.542
 7579TIP3   OH222693   6.570   0.160   5.792
 7579TIP3    H122694   6.475   0.170   5.787
 7579TIP3    H222695   6.593   0.186   5.882
 7580TIP3   OH222696   0.443   7.828   5.428
 7580TIP3    H122697   0.469   7.795   5.514
 7580TIP3    H222698   0.377   7.765   5.398
 7581TIP3   OH222699   6.779   3.702   4.201
 7581TIP3    H122700   6.845   3.748   4.150
 7581TIP3    H222701   6.825   3.627   4.239
 7582TIP3   OH222702   7.260   3.662   1.553
 7582TIP3    H122703   7.199   3.589   1.555
 7582TIP3    H222704   7.210   3.733   1.513
 7583TIP3   OH222705   2.238   3.163   0.689
 7583TIP3    H122706   2.307   3.110   0.649
 7583TIP3    H222707   2.167   3.100   0.707
 7584TIP3   OH222708   4.035   0.524   3.493
 7584TIP3    H122709   4.098   0.596   3.490
 7584TIP3    H222710   4.086   0.445   3.476
 7585TIP3   OH222711   5.006   5.078   1.622
 7585TIP3    H122712   5.029   4.987   1.606
 7585TIP3    H222713   4.930   5.094   1.565
 7586TIP3   OH222714   2.038   5.360   2.217
 7586TIP3    H122715   2.108   5.424   2.208
 7586TIP3    H222716   1.962   5.400   2.175
 7587TIP3   OH222717   1.031   6.917   4.238
 7587TIP3    H122718   1.021   6.901   4.144
 7587TIP3    H222719   1.100   6.857   4.266
 7588TIP3   OH222720   5.685   0.438   4.643
 7588TIP3    H122721   5.679   0.428   4.548
 7588TIP3    H222722   5.596   0.461   4.670
 7589TIP3   OH222723   2.510   0.743   6.222
 7589TIP3    H122724   2.580   0.688   6.188
 7589TIP3    H222725   2.555   0.822   6.253
 7590TIP3   OH222726   6.968   1.193   5.097
 7590TIP3    H122727   6.985   1.287   5.094
 7590TIP3    H222728   7.053   1.154   5.116
 7591TIP3   OH222729   6.919   5.142   3.552
 7591TIP3    H122730   7.002   5.110   3.515
 7591TIP3    H222731   6.853   5.087   3.511
 7592TIP3   OH222732   6.821   1.123   0.567
 7592TIP3    H122733   6.763   1.142   0.494
 7592TIP3    H222734   6.781   1.169   0.642
 7593TIP3   OH222735   3.551   0.592   0.099
 7593TIP3    H122736   3.644   0.576   0.083
 7593TIP3    H222737   3.509   0.575   0.015
 7594TIP3   OH222738   0.072   4.913   4.021
 7594TIP3    H122739   0.091   4.965   4.098
 7594TIP3    H222740  -0.015   4.877   4.037
 7595TIP3   OH222741   4.406   0.625   3.333
 7595TIP3    H122742   4.451   0.541   3.333
 7595TIP3    H222743   4.472   0.688   3.306
 7596TIP3   OH222744   4.124   1.349   2.461
 7596TIP3    H122745   4.088   1.436   2.441
 7596TIP3    H222746   4.217   1.356   2.440
 7597TIP3   OH222747   2.379   1.715   0.167
 7597TIP3    H122748   2.448   1.782   0.158
 7597TIP3    H222749   2.314   1.756   0.223
 7598TIP3   OH222750   0.627  -0.019   6.365
 7598TIP3    H122751   0.543  -0.034   6.320
 7598TIP3    H222752   0.617   0.068   6.404
 7599TIP3   OH222753   7.617   4.175   3.537
 7599TIP3    H122754   7.535   4.125   3.530
 7599TIP3    H222755   7.621   4.225   3.456
 7600TIP3   OH222756   7.303   6.093   4.109
 7600TIP3    H122757   7.231   6.030   4.105
 7600TIP3    H222758   7.356   6.064   4.183
 7601TIP3   OH222759   6.036   0.732   1.865
 7601TIP3    H122760   6.123   0.722   1.826
 7601TIP3    H222761   6.013   0.644   1.896
 7602TIP3   OH222762   6.661   6.032   6.632
 7602TIP3    H122763   6.616   6.015   6.715
 7602TIP3    H222764   6.724   6.101   6.653
 7603TIP3   OH222765   2.183   0.530   3.077
 7603TIP3    H122766   2.158   0.619   3.102
 7603TIP3    H222767   2.134   0.474   3.138
 7604TIP3   OH222768   5.868   6.780   4.665
 7604TIP3    H122769   5.888   6.690   4.691
 7604TIP3    H222770   5.857   6.775   4.570
 7605TIP3   OH222771   3.135   3.288   3.638
 7605TIP3    H122772   3.114   3.282   3.545
 7605TIP3    H222773   3.117   3.200   3.673
 7606TIP3   OH222774   3.793   7.600   2.553
 7606TIP3    H122775   3.715   7.584   2.500
 7606TIP3    H222776   3.854   7.532   2.527
 7607TIP3   OH222777   4.263   3.052   2.992
 7607TIP3    H122778   4.281   3.024   2.902
 7607TIP3    H222779   4.167   3.061   2.995
 7608TIP3   OH222780   8.223   2.508   3.009
 7608TIP3    H122781   8.216   2.443   2.939
 7608TIP3    H222782   8.163   2.578   2.983
 7609TIP3   OH222783   7.334   4.163   3.792
 7609TIP3    H122784   7.325   4.123   3.878
 7609TIP3    H222785   7.399   4.233   3.805
 7610TIP3   OH222786   0.355   6.059   4.124
 7610TIP3    H122787   0.334   5.966   4.138
 7610TIP3    H222788   0.277   6.095   4.083
 7611TIP3   OH222789   6.321   3.376   3.261
 7611TIP3    H122790   6.289   3.464   3.278
 7611TIP3    H222791   6.242   3.321   3.263
 7612TIP3   OH222792   7.904   0.670   1.820
 7612TIP3    H122793   7.943   0.729   1.755
 7612TIP3    H222794   7.886   0.590   1.771
 7613TIP3   OH222795   2.436   5.958   4.343
 7613TIP3    H122796   2.452   5.915   4.259
 7613TIP3    H222797   2.366   5.908   4.383
 7614TIP3   OH222798   1.579   1.238   6.294
 7614TIP3    H122799   1.646   1.297   6.329
 7614TIP3    H222800   1.498   1.268   6.334
 7615TIP3   OH222801   1.856   4.030   0.030
 7615TIP3    H122802   1.796   3.970   0.075
 7615TIP3    H222803   1.841   4.115   0.071
 7616TIP3   OH222804   2.480   7.510   5.162
 7616TIP3    H122805   2.451   7.456   5.236
 7616TIP3    H222806   2.423   7.484   5.090
 7617TIP3   OH222807   5.247   5.871   6.639
 7617TIP3    H122808   5.264   5.955   6.597
 7617TIP3    H222809   5.152   5.866   6.645
 7618TIP3   OH222810   1.332   4.309   4.057
 7618TIP3    H122811   1.323   4.404   4.064
 7618TIP3    H222812   1.242   4.276   4.053
 7619TIP3   OH222813   7.261   6.109   3.716
 7619TIP3    H122814   7.302   6.194   3.700
 7619TIP3    H222815   7.172   6.130   3.744
 7620TIP3   OH222816   5.025   4.607   6.283
 7620TIP3    H122817   5.066   4.613   6.369
 7620TIP3    H222818   5.061   4.527   6.245
 7621TIP3   OH222819   0.193   3.869   6.146
 7621TIP3    H122820   0.240   3.792   6.116
 7621TIP3    H222821   0.231   3.941   6.097
 7622TIP3   OH222822   1.240   3.814   1.895
 7622TIP3    H122823   1.317   3.838   1.947
 7622TIP3    H222824   1.275   3.780   1.813
 7623TIP3   OH222825   5.175   7.050   3.949
 7623TIP3    H122826   5.099   7.021   4.001
 7623TIP3    H222827   5.231   7.095   4.011
 7624TIP3   OH222828   5.240   3.556   4.100
 7624TIP3    H122829   5.290   3.482   4.134
 7624TIP3    H222830   5.149   3.534   4.119
 7625TIP3   OH222831   7.192   6.340   4.051
 7625TIP3    H122832   7.223   6.252   4.070
 7625TIP3    H222833   7.170   6.378   4.136
 7626TIP3   OH222834   3.348   6.162   4.427
 7626TIP3    H122835   3.394   6.116   4.497
 7626TIP3    H222836   3.287   6.098   4.392
 7627TIP3   OH222837   7.006   7.364   0.320
 7627TIP3    H122838   6.976   7.455   0.316
 7627TIP3    H222839   6.996   7.332   0.230
 7628TIP3   OH222840   1.916   7.099   6.093
 7628TIP3    H122841   1.863   7.176   6.112
 7628TIP3    H222842   1.959   7.119   6.010
 7629TIP3   OH222843   0.794   0.765   6.418
 7629TIP3    H122844   0.713   0.765   6.366
 7629TIP3    H222845   0.769   0.725   6.501
 7630TIP3   OH222846   7.576   5.552   2.585
 7630TIP3    H122847   7.635   5.626   2.568
 7630TIP3    H222848   7.628   5.475   2.565
 7631TIP3   OH222849   7.188   3.268   1.540
 7631TIP3    H122850   7.242   3.200   1.581
 7631TIP3    H222851   7.251   3.329   1.502
 7632TIP3   OH222852   2.672   2.553   5.262
 7632TIP3    H122853   2.670   2.617   5.333
 7632TIP3    H222854   2.760   2.562   5.224
 7633TIP3   OH222855   4.327   7.231   6.052
 7633TIP3    H122856   4.379   7.285   5.991
 7633TIP3    H222857   4.357   7.259   6.139
 7634TIP3   OH222858   5.968   6.614   0.390
 7634TIP3    H122859   5.884   6.574   0.413
 7634TIP3    H222860   5.983   6.587   0.300
 7635TIP3   OH222861   3.053   7.750   0.261
 7635TIP3    H122862   3.010   7.668   0.238
 7635TIP3    H222863   3.134   7.724   0.305
 7636TIP3   OH222864   1.237   2.001   3.521
 7636TIP3    H122865   1.301   2.062   3.558
 7636TIP3    H222866   1.153   2.047   3.529
 7637TIP3   OH222867   5.116   7.046   2.296
 7637TIP3    H122868   5.056   7.079   2.229
 7637TIP3    H222869   5.078   6.962   2.323
 7638TIP3   OH222870   4.932   5.252   2.298
 7638TIP3    H122871   4.880   5.237   2.219
 7638TIP3    H222872   4.972   5.338   2.286
 7639TIP3   OH222873   6.610   5.839   1.001
 7639TIP3    H122874   6.564   5.917   0.970
 7639TIP3    H222875   6.699   5.849   0.967
 7640TIP3   OH222876   8.004   3.883   2.022
 7640TIP3    H122877   8.045   3.871   2.108
 7640TIP3    H222878   8.074   3.867   1.959
 7641TIP3   OH222879   2.591   3.347   4.497
 7641TIP3    H122880   2.521   3.362   4.561
 7641TIP3    H222881   2.637   3.270   4.528
 7642TIP3   OH222882   0.499   4.180   5.132
 7642TIP3    H122883   0.460   4.256   5.088
 7642TIP3    H222884   0.441   4.107   5.110
 7643TIP3   OH222885   4.778   0.215   4.759
 7643TIP3    H122886   4.710   0.270   4.799
 7643TIP3    H222887   4.793   0.144   4.822
 7644TIP3   OH222888   4.130   2.053   3.292
 7644TIP3    H122889   4.079   2.132   3.276
 7644TIP3    H222890   4.117   1.999   3.215
 7645TIP3   OH222891   5.659   3.854   1.296
 7645TIP3    H122892   5.689   3.808   1.374
 7645TIP3    H222893   5.572   3.887   1.320
 7646TIP3   OH222894   7.735   1.392   4.669
 7646TIP3    H122895   7.767   1.397   4.759
 7646TIP3    H222896   7.645   1.359   4.677
 7647TIP3   OH222897   3.870   4.050   6.411
 7647TIP3    H122898   3.850   4.137   6.446
 7647TIP3    H222899   3.956   4.061   6.370
 7648TIP3   OH222900   1.754   1.236   5.660
 7648TIP3    H122901   1.792   1.153   5.631
 7648TIP3    H222902   1.755   1.292   5.583
 7649TIP3   OH222903   6.205   5.275   4.198
 7649TIP3    H122904   6.159   5.239   4.274
 7649TIP3    H222905   6.232   5.198   4.147
 7650TIP3   OH222906   3.026   3.965   5.664
 7650TIP3    H122907   2.981   4.032   5.716
 7650TIP3    H222908   3.060   3.904   5.729
 7651TIP3   OH222909   2.465   6.666   0.538
 7651TIP3    H122910   2.433   6.753   0.515
 7651TIP3    H222911   2.404   6.606   0.495
 7652TIP3   OH222912   7.837   1.731   5.733
 7652TIP3    H122913   7.832   1.645   5.693
 7652TIP3    H222914   7.929   1.744   5.753
 7653TIP3   OH222915   1.639   2.226   4.119
 7653TIP3    H122916   1.628   2.131   4.125
 7653TIP3    H222917   1.602   2.250   4.034
 7654TIP3   OH222918   6.011   4.842   6.655
 7654TIP3    H122919   5.980   4.927   6.686
 7654TIP3    H222920   5.939   4.782   6.675
 7655TIP3   OH222921   6.876   5.886   2.746
 7655TIP3    H122922   6.829   5.901   2.665
 7655TIP3    H222923   6.909   5.972   2.772
 7656TIP3   OH222924   0.373   3.236   1.476
 7656TIP3    H122925   0.337   3.314   1.434
 7656TIP3    H222926   0.370   3.168   1.408
 7657TIP3   OH222927   7.792   3.874   0.677
 7657TIP3    H122928   7.755   3.953   0.715
 7657TIP3    H222929   7.723   3.808   0.687
 7658TIP3   OH222930   0.971   3.536   5.529
 7658TIP3    H122931   1.045   3.482   5.557
 7658TIP3    H222932   0.948   3.587   5.607
 7659TIP3   OH222933   1.449   4.350   2.268
 7659TIP3    H122934   1.395   4.365   2.191
 7659TIP3    H222935   1.521   4.412   2.261
 7660TIP3   OH222936   6.588   5.279   2.558
 7660TIP3    H122937   6.597   5.352   2.619
 7660TIP3    H222938   6.587   5.319   2.471
 7661TIP3   OH222939   0.862   5.750   3.700
 7661TIP3    H122940   0.906   5.718   3.621
 7661TIP3    H222941   0.785   5.693   3.710
 7662TIP3   OH222942   1.985   7.350   3.478
 7662TIP3    H122943   2.058   7.412   3.485
 7662TIP3    H222944   1.940   7.357   3.562
 7663TIP3   OH222945   5.816   7.428   5.332
 7663TIP3    H122946   5.868   7.426   5.412
 7663TIP3    H222947   5.835   7.345   5.288
 7664TIP3   OH222948   5.823   7.038   4.812
 7664TIP3    H122949   5.873   7.091   4.751
 7664TIP3    H222950   5.824   6.950   4.775
 7665TIP3   OH222951   5.040   5.215   1.331
 7665TIP3    H122952   5.080   5.301   1.316
 7665TIP3    H222953   4.951   5.235   1.360
 7666TIP3   OH222954   2.579   3.260   6.049
 7666TIP3    H122955   2.569   3.165   6.049
 7666TIP3    H222956   2.489   3.294   6.049
 7667TIP3   OH222957   6.356   2.432   6.751
 7667TIP3    H122958   6.393   2.476   6.675
 7667TIP3    H222959   6.383   2.486   6.825
 7668TIP3   OH222960   1.151   5.246   1.525
 7668TIP3    H122961   1.179   5.271   1.613
 7668TIP3    H222962   1.232   5.232   1.477
 7669TIP3   OH222963   6.401   6.618   5.086
 7669TIP3    H122964   6.393   6.591   5.177
 7669TIP3    H222965   6.488   6.658   5.081
 7670TIP3   OH222966   3.324   0.754   2.106
 7670TIP3    H122967   3.350   0.811   2.034
 7670TIP3    H222968   3.233   0.732   2.088
 7671TIP3   OH222969   1.961   6.607   3.450
 7671TIP3    H122970   1.877   6.570   3.422
 7671TIP3    H222971   1.942   6.649   3.534
 7672TIP3   OH222972   1.787   4.915   4.050
 7672TIP3    H122973   1.870   4.895   4.093
 7672TIP3    H222974   1.812   4.956   3.967
 7673TIP3   OH222975   6.092   2.665   3.357
 7673TIP3    H122976   6.035   2.590   3.375
 7673TIP3    H222977   6.165   2.654   3.418
 7674TIP3   OH222978   0.630   0.629   4.306
 7674TIP3    H122979   0.681   0.639   4.386
 7674TIP3    H222980   0.679   0.566   4.253
 7675TIP3   OH222981   6.857   2.012   0.627
 7675TIP3    H122982   6.950   1.999   0.607
 7675TIP3    H222983   6.856   2.050   0.714
 7676TIP3   OH222984   8.123   3.802   3.762
 7676TIP3    H122985   8.089   3.721   3.725
 7676TIP3    H222986   8.092   3.802   3.852
 7677TIP3   OH222987   1.523   4.500   4.414
 7677TIP3    H122988   1.541   4.417   4.458
 7677TIP3    H222989   1.603   4.520   4.366
 7678TIP3   OH222990   5.931   6.483   3.753
 7678TIP3    H122991   5.839   6.456   3.759
 7678TIP3    H222992   5.968   6.461   3.838
 7679TIP3   OH222993   0.810   6.586   0.729
 7679TIP3    H122994   0.774   6.549   0.809
 7679TIP3    H222995   0.738   6.636   0.691
 7680TIP3   OH222996   1.321   3.366   0.607
 7680TIP3    H122997   1.282   3.293   0.557
 7680TIP3    H222998   1.374   3.413   0.543
 7681TIP3   OH222999   2.459   3.333   0.964
 7681TIP3    H123000   2.384   3.357   0.909
 7681TIP3    H223001   2.434   3.361   1.052
 7682TIP3   OH223002   0.143   6.098   4.744
 7682TIP3    H123003   0.069   6.091   4.804
 7682TIP3    H223004   0.114   6.161   4.677
 7683TIP3   OH223005   1.933   0.347   1.195
 7683TIP3    H123006   1.858   0.315   1.245
 7683TIP3    H223007   1.894   0.396   1.122
 7684TIP3   OH223008   5.259   6.425   0.807
 7684TIP3    H123009   5.244   6.500   0.864
 7684TIP3    H223010   5.173   6.405   0.770
 7685TIP3   OH223011   7.164   1.417   2.890
 7685TIP3    H123012   7.117   1.394   2.810
 7685TIP3    H223013   7.250   1.445   2.860
 7686TIP3   OH223014   5.267   6.608   1.791
 7686TIP3    H123015   5.271   6.557   1.709
 7686TIP3    H223016   5.185   6.579   1.832
 7687TIP3   OH223017   6.137   6.606   2.414
 7687TIP3    H123018   6.089   6.686   2.435
 7687TIP3    H223019   6.074   6.536   2.430
 7688TIP3   OH223020   5.739   7.610   4.159
 7688TIP3    H123021   5.817   7.605   4.104
 7688TIP3    H223022   5.715   7.518   4.175
 7689TIP3   OH223023   7.587   5.287   0.354
 7689TIP3    H123024   7.525   5.357   0.336
 7689TIP3    H223025   7.651   5.292   0.282
 7690TIP3   OH223026   7.254   2.653   0.060
 7690TIP3    H123027   7.196   2.727   0.076
 7690TIP3    H223028   7.266   2.612   0.145
 7691TIP3   OH223029   3.284   6.548   0.711
 7691TIP3    H123030   3.226   6.619   0.736
 7691TIP3    H223031   3.368   6.591   0.692
 7692TIP3   OH223032   4.146   1.321   1.464
 7692TIP3    H123033   4.196   1.396   1.431
 7692TIP3    H223034   4.158   1.253   1.397
 7693TIP3   OH223035   2.284   4.074   0.670
 7693TIP3    H123036   2.330   4.003   0.626
 7693TIP3    H223037   2.337   4.152   0.650
 7694TIP3   OH223038   7.940   4.908   2.293
 7694TIP3    H123039   8.021   4.898   2.343
 7694TIP3    H223040   7.930   4.826   2.246
 7695TIP3   OH223041   1.159   1.909   4.355
 7695TIP3    H123042   1.216   1.978   4.320
 7695TIP3    H223043   1.218   1.836   4.372
 7696TIP3   OH223044   4.095   2.795   0.198
 7696TIP3    H123045   4.029   2.729   0.180
 7696TIP3    H223046   4.057   2.877   0.165
 7697TIP3   OH223047   6.763   4.197   1.937
 7697TIP3    H123048   6.731   4.203   2.027
 7697TIP3    H223049   6.809   4.114   1.933
 7698TIP3   OH223050   2.221   6.868   2.573
 7698TIP3    H123051   2.178   6.891   2.655
 7698TIP3    H223052   2.275   6.944   2.552
 7699TIP3   OH223053   6.186   1.800   5.255
 7699TIP3    H123054   6.222   1.865   5.316
 7699TIP3    H223055   6.121   1.849   5.204
 7700TIP3   OH223056   0.691   0.075   2.177
 7700TIP3    H123057   0.739   0.157   2.187
 7700TIP3    H223058   0.665   0.052   2.266
 7701TIP3   OH223059   5.998   7.250   4.726
 7701TIP3    H123060   6.076   7.242   4.672
 7701TIP3    H223061   6.021   7.316   4.791
 7702TIP3   OH223062   1.232   5.720   0.019
 7702TIP3    H123063   1.281   5.704   0.100
 7702TIP3    H223064   1.166   5.651   0.017
 7703TIP3   OH223065   5.487   6.607   6.684
 7703TIP3    H123066   5.400   6.601   6.723
 7703TIP3    H223067   5.509   6.700   6.689
 7704TIP3   OH223068   8.228   1.060   6.091
 7704TIP3    H123069   8.247   1.106   6.173
 7704TIP3    H223070   8.286   0.984   6.092
 7705TIP3   OH223071   2.706   5.822   1.074
 7705TIP3    H123072   2.671   5.772   1.148
 7705TIP3    H223073   2.629   5.857   1.030
 7706TIP3   OH223074   5.240   4.755   2.968
 7706TIP3    H123075   5.262   4.848   2.969
 7706TIP3    H223076   5.212   4.735   3.057
 7707TIP3   OH223077   2.966   7.609   3.754
 7707TIP3    H123078   2.884   7.582   3.713
 7707TIP3    H223079   2.940   7.672   3.821
 7708TIP3   OH223080   6.701   1.298   4.729
 7708TIP3    H123081   6.689   1.257   4.643
 7708TIP3    H223082   6.773   1.360   4.717
 7709TIP3   OH223083   7.031   5.053   4.624
 7709TIP3    H123084   7.058   4.962   4.636
 7709TIP3    H223085   7.018   5.061   4.529
 7710TIP3   OH223086   6.148   3.172   4.987
 7710TIP3    H123087   6.110   3.226   5.056
 7710TIP3    H223088   6.213   3.118   5.033
 7711TIP3   OH223089   1.239   1.318   2.868
 7711TIP3    H123090   1.145   1.308   2.879
 7711TIP3    H223091   1.272   1.229   2.855
 7712TIP3   OH223092   6.422   6.372   6.599
 7712TIP3    H123093   6.367   6.420   6.537
 7712TIP3    H223094   6.359   6.328   6.657
 7713TIP3   OH223095   6.676   0.515   4.242
 7713TIP3    H123096   6.753   0.572   4.245
 7713TIP3    H223097   6.692   0.449   4.310
 7714TIP3   OH223098   7.572   6.056   0.668
 7714TIP3    H123099   7.526   6.116   0.610
 7714TIP3    H223100   7.655   6.099   0.686
 7715TIP3   OH223101   3.062   0.567   3.782
 7715TIP3    H123102   2.968   0.573   3.800
 7715TIP3    H223103   3.070   0.497   3.717
 7716TIP3   OH223104   2.861   1.407   6.280
 7716TIP3    H123105   2.940   1.370   6.241
 7716TIP3    H223106   2.799   1.412   6.208
 7717TIP3   OH223107   4.893   6.529   1.477
 7717TIP3    H123108   4.969   6.488   1.434
 7717TIP3    H223109   4.831   6.544   1.406
 7718TIP3   OH223110   6.007   2.546   0.763
 7718TIP3    H123111   6.097   2.517   0.776
 7718TIP3    H223112   5.999   2.625   0.816
 7719TIP3   OH223113   4.568   3.644   0.703
 7719TIP3    H123114   4.605   3.728   0.732
 7719TIP3    H223115   4.478   3.665   0.678
 7720TIP3   OH223116   6.793   2.143   0.191
 7720TIP3    H123117   6.770   2.169   0.102
 7720TIP3    H223118   6.751   2.058   0.203
 7721TIP3   OH223119   0.164   6.005   6.031
 7721TIP3    H123120   0.235   5.981   5.971
 7721TIP3    H223121   0.086   6.006   5.976
 7722TIP3   OH223122   4.950   4.468   3.001
 7722TIP3    H123123   4.953   4.495   2.909
 7722TIP3    H223124   4.913   4.543   3.046
 7723TIP3   OH223125   1.119   5.534   6.687
 7723TIP3    H123126   1.100   5.445   6.657
 7723TIP3    H223127   1.038   5.564   6.728
 7724TIP3   OH223128   5.779   5.091   5.808
 7724TIP3    H123129   5.750   5.107   5.719
 7724TIP3    H223130   5.713   5.033   5.846
 7725TIP3   OH223131   2.786   4.304   2.877
 7725TIP3    H123132   2.855   4.238   2.863
 7725TIP3    H223133   2.834   4.385   2.895
 7726TIP3   OH223134   5.911   4.283   5.482
 7726TIP3    H123135   5.887   4.233   5.561
 7726TIP3    H223136   5.842   4.348   5.473
 7727TIP3   OH223137   5.178   6.512   3.548
 7727TIP3    H123138   5.261   6.478   3.582
 7727TIP3    H223139   5.177   6.486   3.456
 7728TIP3   OH223140   1.977   4.526   4.061
 7728TIP3    H123141   1.899   4.473   4.043
 7728TIP3    H223142   2.033   4.513   3.984
 7729TIP3   OH223143   7.708   2.087   1.610
 7729TIP3    H123144   7.764   2.035   1.552
 7729TIP3    H223145   7.620   2.071   1.578
 7730TIP3   OH223146   5.251   7.178   3.479
 7730TIP3    H123147   5.346   7.170   3.474
 7730TIP3    H223148   5.231   7.263   3.440
 7731TIP3   OH223149   3.410   1.405   1.735
 7731TIP3    H123150   3.466   1.330   1.756
 7731TIP3    H223151   3.341   1.404   1.801
 7732TIP3   OH223152   7.487   3.801   1.686
 7732TIP3    H123153   7.493   3.725   1.744
 7732TIP3    H223154   7.400   3.793   1.646
 7733TIP3   OH223155   7.918   1.072   4.985
 7733TIP3    H123156   7.884   1.025   4.909
 7733TIP3    H223157   7.889   1.162   4.972
 7734TIP3   OH223158   5.768   5.974   2.198
 7734TIP3    H123159   5.792   5.883   2.183
 7734TIP3    H223160   5.805   6.021   2.123
 7735TIP3   OH223161   0.350   4.063   1.735
 7735TIP3    H123162   0.263   4.096   1.712
 7735TIP3    H223163   0.338   3.969   1.743
 7736TIP3   OH223164   6.124   5.154   1.324
 7736TIP3    H123165   6.122   5.102   1.244
 7736TIP3    H223166   6.191   5.113   1.378
 7737TIP3   OH223167   1.619   2.284   2.035
 7737TIP3    H123168   1.650   2.338   2.108
 7737TIP3    H223169   1.688   2.220   2.021
 7738TIP3   OH223170   8.233   0.306   3.914
 7738TIP3    H123171   8.173   0.380   3.917
 7738TIP3    H223172   8.278   0.308   3.999
 7739TIP3   OH223173   5.373   2.385   1.860
 7739TIP3    H123174   5.291   2.413   1.818
 7739TIP3    H223175   5.433   2.459   1.846
 7740TIP3   OH223176   2.881   1.107   5.724
 7740TIP3    H123177   2.932   1.186   5.742
 7740TIP3    H223178   2.940   1.035   5.746
 7741TIP3   OH223179   2.859   6.339   1.913
 7741TIP3    H123180   2.817   6.325   1.828
 7741TIP3    H223181   2.930   6.401   1.895
 7742TIP3   OH223182   4.527   2.660   4.442
 7742TIP3    H123183   4.447   2.711   4.455
 7742TIP3    H223184   4.496   2.572   4.419
 7743TIP3   OH223185   7.784   0.581   0.390
 7743TIP3    H123186   7.736   0.498   0.399
 7743TIP3    H223187   7.781   0.600   0.296
 7744TIP3   OH223188   6.470   0.177   0.591
 7744TIP3    H123189   6.469   0.225   0.508
 7744TIP3    H223190   6.483   0.244   0.658
 7745TIP3   OH223191   1.497   6.221   0.869
 7745TIP3    H123192   1.410   6.256   0.888
 7745TIP3    H223193   1.496   6.133   0.905
 7746TIP3   OH223194   3.529   2.657   2.549
 7746TIP3    H123195   3.501   2.746   2.528
 7746TIP3    H223196   3.448   2.610   2.571
 7747TIP3   OH223197   2.636   7.609   1.437
 7747TIP3    H123198   2.706   7.546   1.418
 7747TIP3    H223199   2.673   7.693   1.410
 7748TIP3   OH223200   1.511   1.053   6.065
 7748TIP3    H123201   1.491   1.084   5.977
 7748TIP3    H223202   1.555   1.126   6.108
 7749TIP3   OH223203   0.713   7.448   5.771
 7749TIP3    H123204   0.740   7.536   5.797
 7749TIP3    H223205   0.789   7.393   5.789
 7750TIP3   OH223206   1.462   1.907   3.022
 7750TIP3    H123207   1.482   1.820   2.985
 7750TIP3    H223208   1.396   1.890   3.089
 7751TIP3   OH223209   3.024   2.963   6.139
 7751TIP3    H123210   3.054   2.979   6.229
 7751TIP3    H223211   3.079   2.892   6.108
 7752TIP3   OH223212   7.100   6.787   0.952
 7752TIP3    H123213   7.031   6.841   0.913
 7752TIP3    H223214   7.180   6.839   0.940
 7753TIP3   OH223215   5.650   0.676   5.540
 7753TIP3    H123216   5.702   0.605   5.576
 7753TIP3    H223217   5.702   0.755   5.556
 7754TIP3   OH223218   4.429   0.445   5.982
 7754TIP3    H123219   4.379   0.375   6.023
 7754TIP3    H223220   4.389   0.526   6.016
 7755TIP3   OH223221   7.783   4.097   1.109
 7755TIP3    H123222   7.816   4.169   1.055
 7755TIP3    H223223   7.846   4.091   1.182
 7756TIP3   OH223224   8.175   3.071   0.935
 7756TIP3    H123225   8.264   3.081   0.902
 7756TIP3    H223226   8.173   3.122   1.016
 7757TIP3   OH223227   0.889   3.654   2.796
 7757TIP3    H123228   0.874   3.677   2.887
 7757TIP3    H223229   0.833   3.579   2.780
 7758TIP3   OH223230   7.911   2.432   3.048
 7758TIP3    H123231   7.913   2.501   3.115
 7758TIP3    H223232   7.957   2.359   3.088
 7759TIP3   OH223233   0.674   4.778   3.500
 7759TIP3    H123234   0.624   4.775   3.419
 7759TIP3    H223235   0.681   4.872   3.521
 7760TIP3   OH223236   7.213   1.017   4.473
 7760TIP3    H123237   7.161   1.089   4.510
 7760TIP3    H223238   7.195   1.021   4.379
 7761TIP3   OH223239   5.526   5.516   4.401
 7761TIP3    H123240   5.503   5.576   4.329
 7761TIP3    H223241   5.478   5.436   4.382
 7762TIP3   OH223242   4.928   5.427   6.280
 7762TIP3    H123243   4.934   5.335   6.306
 7762TIP3    H223244   4.859   5.464   6.334
 7763TIP3   OH223245   4.078   3.128   2.231
 7763TIP3    H123246   4.148   3.086   2.180
 7763TIP3    H223247   4.125   3.176   2.300
 7764TIP3   OH223248   3.041   1.392   5.121
 7764TIP3    H123249   3.084   1.447   5.186
 7764TIP3    H223250   3.093   1.312   5.118
 7765TIP3   OH223251   4.379   7.547   1.175
 7765TIP3    H123252   4.441   7.541   1.247
 7765TIP3    H223253   4.293   7.549   1.217
 7766TIP3   OH223254   5.259   2.703   0.667
 7766TIP3    H123255   5.332   2.646   0.643
 7766TIP3    H223256   5.245   2.687   0.760
 7767TIP3   OH223257   6.450   7.386   4.996
 7767TIP3    H123258   6.475   7.334   4.919
 7767TIP3    H223259   6.421   7.321   5.061
 7768TIP3   OH223260   6.662   2.305   0.858
 7768TIP3    H123261   6.632   2.363   0.928
 7768TIP3    H223262   6.596   2.235   0.856
 7769TIP3   OH223263   2.439   5.439   5.785
 7769TIP3    H123264   2.368   5.418   5.845
 7769TIP3    H223265   2.507   5.478   5.840
 7770TIP3   OH223266   2.005   7.412   6.343
 7770TIP3    H123267   2.000   7.336   6.401
 7770TIP3    H223268   2.043   7.481   6.398
 7771TIP3   OH223269   1.510   0.415   1.756
 7771TIP3    H123270   1.563   0.336   1.768
 7771TIP3    H223271   1.424   0.391   1.791
 7772TIP3   OH223272   7.503   6.074   3.230
 7772TIP3    H123273   7.530   5.994   3.185
 7772TIP3    H223274   7.421   6.099   3.187
 7773TIP3   OH223275   3.845   0.320   5.407
 7773TIP3    H123276   3.759   0.302   5.370
 7773TIP3    H223277   3.839   0.409   5.442
 7774TIP3   OH223278   7.121   4.092   6.248
 7774TIP3    H123279   7.043   4.093   6.192
 7774TIP3    H223280   7.098   4.031   6.319
 7775TIP3   OH223281   5.843   6.203   2.334
 7775TIP3    H123282   5.899   6.168   2.403
 7775TIP3    H223283   5.801   6.126   2.296
 7776TIP3   OH223284   2.983   3.265   4.246
 7776TIP3    H123285   3.007   3.223   4.164
 7776TIP3    H223286   3.013   3.356   4.236
 7777TIP3   OH223287   3.672   5.052   4.340
 7777TIP3    H123288   3.761   5.048   4.307
 7777TIP3    H223289   3.680   5.037   4.434
 7778TIP3   OH223290   1.391   5.950   0.207
 7778TIP3    H123291   1.431   5.894   0.273
 7778TIP3    H223292   1.323   5.998   0.254
 7779TIP3   OH223293   5.829   0.217   2.871
 7779TIP3    H123294   5.735   0.239   2.866
 7779TIP3    H223295   5.873   0.290   2.828
 7780TIP3   OH223296   3.319   3.828   4.415
 7780TIP3    H123297   3.399   3.881   4.419
 7780TIP3    H223298   3.248   3.893   4.414
 7781TIP3   OH223299   7.680   0.983   4.095
 7781TIP3    H123300   7.606   1.023   4.049
 7781TIP3    H223301   7.652   0.893   4.112
 7782TIP3   OH223302   7.303   7.122   0.357
 7782TIP3    H123303   7.281   7.215   0.366
 7782TIP3    H223304   7.236   7.087   0.298
 7783TIP3   OH223305   5.576   4.241   0.626
 7783TIP3    H123306   5.528   4.166   0.591
 7783TIP3    H223307   5.619   4.280   0.550
 7784TIP3   OH223308   7.005   5.993   1.555
 7784TIP3    H123309   6.983   5.923   1.618
 7784TIP3    H223310   6.997   6.074   1.606
 7785TIP3   OH223311   6.851   1.342   0.339
 7785TIP3    H123312   6.801   1.394   0.402
 7785TIP3    H223313   6.791   1.273   0.312
 7786TIP3   OH223314   7.129   0.178   5.041
 7786TIP3    H123315   7.174   0.165   5.125
 7786TIP3    H223316   7.038   0.158   5.059
 7787TIP3   OH223317   8.007   6.743   1.638
 7787TIP3    H123318   8.077   6.769   1.579
 7787TIP3    H223319   8.010   6.808   1.709
 7788TIP3   OH223320   7.243   1.771   0.748
 7788TIP3    H123321   7.185   1.811   0.813
 7788TIP3    H223322   7.232   1.677   0.761
 7789TIP3   OH223323   2.516   2.283   3.802
 7789TIP3    H123324   2.497   2.242   3.718
 7789TIP3    H223325   2.441   2.260   3.857
 7790TIP3   OH223326   7.466   5.536   0.981
 7790TIP3    H123327   7.382   5.576   1.004
 7790TIP3    H223328   7.492   5.486   1.058
 7791TIP3   OH223329   3.985   7.629   4.784
 7791TIP3    H123330   4.002   7.578   4.705
 7791TIP3    H223331   3.945   7.568   4.845
 7792TIP3   OH223332   4.523   6.981   3.628
 7792TIP3    H123333   4.528   6.975   3.723
 7792TIP3    H223334   4.606   7.021   3.602
 7793TIP3   OH223335   2.316   4.045   4.861
 7793TIP3    H123336   2.264   4.003   4.930
 7793TIP3    H223337   2.252   4.076   4.798
 7794TIP3   OH223338   5.284   5.957   4.495
 7794TIP3    H123339   5.233   5.879   4.473
 7794TIP3    H223340   5.258   6.023   4.430
 7795TIP3   OH223341   1.040   1.645   1.174
 7795TIP3    H123342   0.990   1.570   1.207
 7795TIP3    H223343   1.098   1.669   1.246
 7796TIP3   OH223344   1.245   6.969   6.275
 7796TIP3    H123345   1.302   7.033   6.317
 7796TIP3    H223346   1.158   7.009   6.277
 7797TIP3   OH223347   4.352   0.384   1.763
 7797TIP3    H123348   4.369   0.478   1.761
 7797TIP3    H223349   4.262   0.374   1.732
 7798TIP3   OH223350   5.765   0.998   1.044
 7798TIP3    H123351   5.752   1.016   1.137
 7798TIP3    H223352   5.681   1.019   1.003
 7799TIP3   OH223353   6.972   5.354   2.143
 7799TIP3    H123354   7.053   5.347   2.093
 7799TIP3    H223355   6.978   5.284   2.208
 7800TIP3   OH223356   1.984   2.430   1.655
 7800TIP3    H123357   1.900   2.475   1.651
 7800TIP3    H223358   2.048   2.493   1.623
 7801TIP3   OH223359   0.996   5.404   4.065
 7801TIP3    H123360   0.988   5.344   3.991
 7801TIP3    H223361   0.907   5.414   4.099
 7802TIP3   OH223362   5.046   0.389   5.772
 7802TIP3    H123363   5.121   0.334   5.748
 7802TIP3    H223364   5.032   0.373   5.865
 7803TIP3   OH223365   6.996   5.482   0.077
 7803TIP3    H123366   6.953   5.469   0.162
 7803TIP3    H223367   6.947   5.553   0.037
 7804TIP3   OH223368   1.245   5.151   4.998
 7804TIP3    H123369   1.258   5.177   5.089
 7804TIP3    H223370   1.284   5.221   4.946
 7805TIP3   OH223371   1.033   0.724   4.588
 7805TIP3    H123372   1.070   0.744   4.502
 7805TIP3    H223373   0.945   0.763   4.586
 7806TIP3   OH223374   3.302   0.245   5.339
 7806TIP3    H123375   3.382   0.248   5.391
 7806TIP3    H223376   3.262   0.161   5.361
 7807TIP3   OH223377   2.247   4.269   5.127
 7807TIP3    H123378   2.305   4.275   5.051
 7807TIP3    H223379   2.224   4.176   5.133
 7808TIP3   OH223380   4.753   1.913   3.323
 7808TIP3    H123381   4.714   1.826   3.316
 7808TIP3    H223382   4.846   1.896   3.338
 7809TIP3   OH223383   5.672   2.454   6.465
 7809TIP3    H123384   5.668   2.518   6.394
 7809TIP3    H223385   5.694   2.372   6.423
 7810TIP3   OH223386   1.355   4.460   1.989
 7810TIP3    H123387   1.433   4.472   1.934
 7810TIP3    H223388   1.335   4.548   2.021
 7811TIP3   OH223389   7.203   1.594   4.033
 7811TIP3    H123390   7.180   1.503   4.011
 7811TIP3    H223391   7.225   1.634   3.949
 7812TIP3   OH223392   5.503   4.726   3.686
 7812TIP3    H123393   5.438   4.723   3.756
 7812TIP3    H223394   5.526   4.819   3.680
 7813TIP3   OH223395   0.087   7.283   6.617
 7813TIP3    H123396   0.048   7.370   6.632
 7813TIP3    H223397   0.178   7.293   6.644
 7814TIP3   OH223398   5.958   6.512   0.095
 7814TIP3    H123399   6.013   6.437   0.116
 7814TIP3    H223400   5.943   6.506   0.001
 7815TIP3   OH223401   3.259   3.376   2.616
 7815TIP3    H123402   3.195   3.432   2.572
 7815TIP3    H223403   3.274   3.304   2.555
 7816TIP3   OH223404   8.023   6.927   1.851
 7816TIP3    H123405   8.019   7.011   1.898
 7816TIP3    H223406   8.110   6.892   1.871
 7817TIP3   OH223407   0.727   0.347   3.250
 7817TIP3    H123408   0.809   0.298   3.254
 7817TIP3    H223409   0.725   0.397   3.331
 7818TIP3   OH223410   6.823   2.698   5.787
 7818TIP3    H123411   6.780   2.648   5.718
 7818TIP3    H223412   6.914   2.670   5.785
 7819TIP3   OH223413   2.386   5.643   3.652
 7819TIP3    H123414   2.451   5.573   3.659
 7819TIP3    H223415   2.428   5.709   3.597
 7820TIP3   OH223416   3.705   0.758   4.389
 7820TIP3    H123417   3.617   0.792   4.407
 7820TIP3    H223418   3.705   0.671   4.428
 7821TIP3   OH223419   4.827   0.166   4.243
 7821TIP3    H123420   4.878   0.102   4.292
 7821TIP3    H223421   4.786   0.221   4.309
 7822TIP3   OH223422   3.281   5.959   1.996
 7822TIP3    H123423   3.355   5.935   2.052
 7822TIP3    H223424   3.224   6.013   2.053
 7823TIP3   OH223425   7.474   3.618   2.219
 7823TIP3    H123426   7.429   3.646   2.139
 7823TIP3    H223427   7.420   3.653   2.290
 7824TIP3   OH223428   7.179   0.846   5.067
 7824TIP3    H123429   7.179   0.933   5.106
 7824TIP3    H223430   7.268   0.833   5.034
 7825TIP3   OH223431   2.692   7.381   1.154
 7825TIP3    H123432   2.786   7.387   1.169
 7825TIP3    H223433   2.677   7.430   1.073
 7826TIP3   OH223434   0.674   4.109   4.424
 7826TIP3    H123435   0.663   4.190   4.475
 7826TIP3    H223436   0.622   4.044   4.471
 7827TIP3   OH223437   7.140   3.419   2.810
 7827TIP3    H123438   7.188   3.501   2.800
 7827TIP3    H223439   7.142   3.380   2.723
 7828TIP3   OH223440   3.039   2.986   4.132
 7828TIP3    H123441   3.121   3.016   4.093
 7828TIP3    H223442   3.032   3.037   4.213
 7829TIP3   OH223443   2.001   1.639   5.025
 7829TIP3    H123444   2.094   1.616   5.031
 7829TIP3    H223445   1.995   1.723   5.069
 7830TIP3   OH223446   3.561   0.586   0.944
 7830TIP3    H123447   3.629   0.613   1.006
 7830TIP3    H223448   3.480   0.622   0.981
 7831TIP3   OH223449   1.501   1.142   5.801
 7831TIP3    H123450   1.453   1.222   5.780
 7831TIP3    H223451   1.590   1.159   5.769
 7832TIP3   OH223452   2.994   2.085   0.456
 7832TIP3    H123453   3.073   2.129   0.488
 7832TIP3    H223454   2.922   2.144   0.479
 7833TIP3   OH223455   4.299   0.482   4.777
 7833TIP3    H123456   4.278   0.553   4.718
 7833TIP3    H223457   4.373   0.514   4.828
 7834TIP3   OH223458   2.390   4.065   2.144
 7834TIP3    H123459   2.356   3.977   2.127
 7834TIP3    H223460   2.484   4.053   2.153
 7835TIP3   OH223461   4.669   6.915   0.341
 7835TIP3    H123462   4.639   6.882   0.426
 7835TIP3    H223463   4.700   6.837   0.295
 7836TIP3   OH223464   4.577   0.804   2.241
 7836TIP3    H123465   4.584   0.775   2.332
 7836TIP3    H223466   4.663   0.842   2.222
 7837TIP3   OH223467   2.494   4.682   1.596
 7837TIP3    H123468   2.428   4.626   1.637
 7837TIP3    H223469   2.460   4.771   1.606
 7838TIP3   OH223470   3.369   1.066   2.857
 7838TIP3    H123471   3.456   1.028   2.842
 7838TIP3    H223472   3.341   1.029   2.940
 7839TIP3   OH223473   5.400   5.908   4.791
 7839TIP3    H123474   5.352   5.828   4.814
 7839TIP3    H223475   5.363   5.935   4.707
 7840TIP3   OH223476   3.212   3.792   5.184
 7840TIP3    H123477   3.167   3.876   5.184
 7840TIP3    H223478   3.146   3.729   5.156
 7841TIP3   OH223479   6.721   7.129   3.630
 7841TIP3    H123480   6.699   7.119   3.722
 7841TIP3    H223481   6.659   7.073   3.584
 7842TIP3   OH223482   5.243   7.011   5.302
 7842TIP3    H123483   5.322   7.035   5.351
 7842TIP3    H223484   5.266   6.929   5.259
 7843TIP3   OH223485   7.794   4.846   2.021
 7843TIP3    H123486   7.846   4.777   2.062
 7843TIP3    H223487   7.858   4.902   1.978
 7844TIP3   OH223488   5.807   5.178   0.753
 7844TIP3    H123489   5.735   5.132   0.709
 7844TIP3    H223490   5.808   5.143   0.842
 7845TIP3   OH223491   2.696   0.845   5.975
 7845TIP3    H123492   2.772   0.824   5.921
 7845TIP3    H223493   2.659   0.760   5.999
 7846TIP3   OH223494   2.224   4.348   5.609
 7846TIP3    H123495   2.313   4.365   5.640
 7846TIP3    H223496   2.233   4.275   5.548
 7847TIP3   OH223497   2.684   4.486   5.490
 7847TIP3    H123498   2.755   4.484   5.426
 7847TIP3    H223499   2.643   4.572   5.478
 7848TIP3   OH223500   1.514   2.480   1.864
 7848TIP3    H123501   1.558   2.402   1.898
 7848TIP3    H223502   1.523   2.545   1.934
 7849TIP3   OH223503   6.909   7.013   4.732
 7849TIP3    H123504   6.919   7.096   4.686
 7849TIP3    H223505   6.974   7.016   4.802
 7850TIP3   OH223506   0.618   2.182   0.357
 7850TIP3    H123507   0.634   2.266   0.399
 7850TIP3    H223508   0.669   2.185   0.276
 7851TIP3   OH223509   7.489   5.468   3.284
 7851TIP3    H123510   7.490   5.555   3.323
 7851TIP3    H223511   7.480   5.408   3.359
 7852TIP3   OH223512   7.851   4.429   2.096
 7852TIP3    H123513   7.889   4.392   2.176
 7852TIP3    H223514   7.758   4.435   2.115
 7853TIP3   OH223515   0.961   3.909   1.621
 7853TIP3    H123516   0.926   3.921   1.533
 7853TIP3    H223517   0.885   3.889   1.675
 7854TIP3   OH223518   0.519   3.707   0.056
 7854TIP3    H123519   0.613   3.704   0.039
 7854TIP3    H223520   0.479   3.712  -0.031
 7855TIP3   OH223521   1.005   4.310   1.878
 7855TIP3    H123522   1.027   4.273   1.964
 7855TIP3    H223523   1.029   4.242   1.816
 7856TIP3   OH223524   4.802   4.841   0.152
 7856TIP3    H123525   4.894   4.828   0.172
 7856TIP3    H223526   4.781   4.774   0.087
 7857TIP3   OH223527   5.496   6.820   1.148
 7857TIP3    H123528   5.405   6.844   1.127
 7857TIP3    H223529   5.525   6.888   1.208
 7858TIP3   OH223530   1.175   4.013   6.328
 7858TIP3    H123531   1.252   3.968   6.364
 7858TIP3    H223532   1.186   4.104   6.356
 7859TIP3   OH223533   6.723   6.542   6.447
 7859TIP3    H123534   6.714   6.447   6.447
 7859TIP3    H223535   6.748   6.564   6.357
 7860TIP3   OH223536   7.275   5.016   3.718
 7860TIP3    H123537   7.258   5.028   3.625
 7860TIP3    H223538   7.369   5.005   3.725
 7861TIP3   OH223539   5.044   2.559   3.236
 7861TIP3    H123540   5.003   2.480   3.271
 7861TIP3    H223541   5.107   2.586   3.303
 7862TIP3   OH223542   2.824   3.595   2.246
 7862TIP3    H123543   2.766   3.652   2.297
 7862TIP3    H223544   2.853   3.529   2.309
 7863TIP3   OH223545   6.800   3.640   5.772
 7863TIP3    H123546   6.883   3.638   5.723
 7863TIP3    H223547   6.806   3.718   5.826
 7864TIP3   OH223548   6.826   6.811   1.497
 7864TIP3    H123549   6.761   6.777   1.559
 7864TIP3    H223550   6.820   6.906   1.506
 7865TIP3   OH223551   6.105   0.696   0.185
 7865TIP3    H123552   6.133   0.750   0.111
 7865TIP3    H223553   6.022   0.735   0.213
 7866TIP3   OH223554   3.686   6.796   5.623
 7866TIP3    H123555   3.698   6.747   5.704
 7866TIP3    H223556   3.628   6.741   5.570
 7867TIP3   OH223557   2.093   0.596   1.078
 7867TIP3    H123558   2.024   0.547   1.034
 7867TIP3    H223559   2.122   0.537   1.148
 7868TIP3   OH223560   0.716   6.568   3.848
 7868TIP3    H123561   0.812   6.567   3.846
 7868TIP3    H223562   0.691   6.475   3.850
 7869TIP3   OH223563   2.999   5.333   2.564
 7869TIP3    H123564   3.044   5.288   2.636
 7869TIP3    H223565   3.067   5.346   2.498
 7870TIP3   OH223566   0.790   2.895   4.539
 7870TIP3    H123567   0.782   2.958   4.611
 7870TIP3    H223568   0.841   2.823   4.575
 7871TIP3   OH223569   1.233   4.469   0.182
 7871TIP3    H123570   1.165   4.420   0.228
 7871TIP3    H223571   1.308   4.469   0.242
 7872TIP3   OH223572   7.389   0.972   2.348
 7872TIP3    H123573   7.299   1.002   2.364
 7872TIP3    H223574   7.384   0.877   2.359
 7873TIP3   OH223575   2.707   4.603   0.178
 7873TIP3    H123576   2.631   4.546   0.168
 7873TIP3    H223577   2.782   4.544   0.174
 7874TIP3   OH223578   4.409   0.928   6.258
 7874TIP3    H123579   4.501   0.903   6.247
 7874TIP3    H223580   4.360   0.850   6.234
 7875TIP3   OH223581   2.638   2.457   6.267
 7875TIP3    H123582   2.683   2.539   6.245
 7875TIP3    H223583   2.572   2.448   6.198
 7876TIP3   OH223584   7.961   5.820   6.290
 7876TIP3    H123585   7.937   5.729   6.271
 7876TIP3    H223586   7.881   5.860   6.323
 7877TIP3   OH223587   3.957   6.704   4.891
 7877TIP3    H123588   3.901   6.774   4.925
 7877TIP3    H223589   4.017   6.748   4.830
 7878TIP3   OH223590   2.093   0.780   3.560
 7878TIP3    H123591   2.149   0.716   3.516
 7878TIP3    H223592   2.065   0.735   3.640
 7879TIP3   OH223593   6.333   5.943   2.950
 7879TIP3    H123594   6.293   5.856   2.946
 7879TIP3    H223595   6.384   5.950   2.869
 7880TIP3   OH223596   6.867   6.909   6.670
 7880TIP3    H123597   6.892   6.818   6.656
 7880TIP3    H223598   6.870   6.921   6.765
 7881TIP3   OH223599   3.345   3.700   5.699
 7881TIP3    H123600   3.433   3.675   5.726
 7881TIP3    H223601   3.348   3.695   5.603
 7882TIP3   OH223602   5.860   6.607   1.051
 7882TIP3    H123603   5.766   6.589   1.060
 7882TIP3    H223604   5.867   6.702   1.061
 7883TIP3   OH223605   4.758   7.600   2.641
 7883TIP3    H123606   4.769   7.576   2.549
 7883TIP3    H223607   4.679   7.653   2.643
 7884TIP3   OH223608   1.106   1.535   3.350
 7884TIP3    H123609   1.143   1.471   3.290
 7884TIP3    H223610   1.179   1.558   3.408
 7885TIP3   OH223611   0.738   7.059   5.620
 7885TIP3    H123612   0.807   6.996   5.640
 7885TIP3    H223613   0.720   7.102   5.704
 7886TIP3   OH223614   4.398   2.695   2.071
 7886TIP3    H123615   4.426   2.646   1.993
 7886TIP3    H223616   4.302   2.696   2.065
 7887TIP3   OH223617   5.031   2.627   0.458
 7887TIP3    H123618   5.070   2.668   0.536
 7887TIP3    H223619   5.041   2.533   0.474
 7888TIP3   OH223620   6.685   5.695   4.215
 7888TIP3    H123621   6.639   5.655   4.141
 7888TIP3    H223622   6.757   5.744   4.175
 7889TIP3   OH223623   7.337   6.240   2.145
 7889TIP3    H123624   7.327   6.146   2.127
 7889TIP3    H223625   7.264   6.261   2.204
 7890TIP3   OH223626   3.627   5.639   0.495
 7890TIP3    H123627   3.562   5.678   0.554
 7890TIP3    H223628   3.623   5.692   0.416
 7891TIP3   OH223629   3.686   2.786   6.260
 7891TIP3    H123630   3.720   2.772   6.348
 7891TIP3    H223631   3.632   2.865   6.266
 7892TIP3   OH223632   5.843   3.260   1.213
 7892TIP3    H123633   5.825   3.328   1.148
 7892TIP3    H223634   5.931   3.281   1.246
 7893TIP3   OH223635   4.317   3.040   0.995
 7893TIP3    H123636   4.368   3.118   0.971
 7893TIP3    H223637   4.374   2.992   1.055
 7894TIP3   OH223638   4.672   1.835   1.673
 7894TIP3    H123639   4.639   1.855   1.761
 7894TIP3    H223640   4.605   1.778   1.635
 7895TIP3   OH223641   2.972   0.558   6.393
 7895TIP3    H123642   3.051   0.599   6.427
 7895TIP3    H223643   2.901   0.616   6.420
 7896TIP3   OH223644   0.803   6.643   6.728
 7896TIP3    H123645   0.743   6.712   6.759
 7896TIP3    H223646   0.805   6.655   6.633
 7897TIP3   OH223647   3.441   0.387   5.683
 7897TIP3    H123648   3.483   0.439   5.614
 7897TIP3    H223649   3.456   0.436   5.763
 7898TIP3   OH223650   2.041   0.729   5.753
 7898TIP3    H123651   2.083   0.757   5.834
 7898TIP3    H223652   1.948   0.740   5.769
 7899TIP3   OH223653   6.740   5.671   4.910
 7899TIP3    H123654   6.708   5.606   4.973
 7899TIP3    H223655   6.835   5.672   4.923
 7900TIP3   OH223656   0.116   6.537   6.668
 7900TIP3    H123657   0.209   6.556   6.658
 7900TIP3    H223658   0.113   6.450   6.707
 7901TIP3   OH223659   7.395   0.732   5.314
 7901TIP3    H123660   7.328   0.666   5.294
 7901TIP3    H223661   7.478   0.687   5.303
 7902TIP3   OH223662   8.266   1.187   5.850
 7902TIP3    H123663   8.242   1.137   5.929
 7902TIP3    H223664   8.360   1.172   5.839
 7903TIP3   OH223665   7.752   5.598   4.511
 7903TIP3    H123666   7.733   5.567   4.599
 7903TIP3    H223667   7.839   5.638   4.518
 7904TIP3   OH223668   1.101   5.544   1.648
 7904TIP3    H123669   1.075   5.453   1.659
 7904TIP3    H223670   1.074   5.587   1.730
 7905TIP3   OH223671   4.450   1.645   1.850
 7905TIP3    H123672   4.461   1.680   1.939
 7905TIP3    H223673   4.363   1.605   1.851
 7906TIP3   OH223674   4.093   3.751   0.148
 7906TIP3    H123675   4.135   3.743   0.234
 7906TIP3    H223676   4.110   3.666   0.106
 7907TIP3   OH223677   3.102   2.415   2.413
 7907TIP3    H123678   3.164   2.474   2.372
 7907TIP3    H223679   3.155   2.344   2.448
 7908TIP3   OH223680   5.592   4.460   2.622
 7908TIP3    H123681   5.578   4.476   2.715
 7908TIP3    H223682   5.665   4.517   2.599
 7909TIP3   OH223683   7.980   1.849   3.795
 7909TIP3    H123684   7.926   1.859   3.874
 7909TIP3    H223685   8.039   1.777   3.816
 7910TIP3   OH223686   0.455   3.290   6.380
 7910TIP3    H123687   0.411   3.256   6.457
 7910TIP3    H223688   0.441   3.385   6.383
 7911TIP3   OH223689   3.729   7.518   4.273
 7911TIP3    H123690   3.697   7.587   4.215
 7911TIP3    H223691   3.808   7.555   4.314
 7912TIP3   OH223692   8.106   1.170   5.618
 7912TIP3    H123693   8.071   1.083   5.597
 7912TIP3    H223694   8.165   1.154   5.692
 7913TIP3   OH223695   5.408   6.981   4.922
 7913TIP3    H123696   5.494   6.960   4.958
 7913TIP3    H223697   5.347   6.962   4.993
 7914TIP3   OH223698   4.664   6.323   6.082
 7914TIP3    H123699   4.677   6.337   6.176
 7914TIP3    H223700   4.571   6.340   6.068
 7915TIP3   OH223701   7.692   4.537   5.612
 7915TIP3    H123702   7.710   4.586   5.532
 7915TIP3    H223703   7.774   4.491   5.630
 7916TIP3   OH223704   4.773   6.829   2.616
 7916TIP3    H123705   4.715   6.890   2.662
 7916TIP3    H223706   4.793   6.873   2.534
 7917TIP3   OH223707   6.342   1.179   3.458
 7917TIP3    H123708   6.417   1.235   3.442
 7917TIP3    H223709   6.338   1.121   3.382
 7918TIP3   OH223710   5.606   3.444   5.994
 7918TIP3    H123711   5.603   3.441   5.899
 7918TIP3    H223712   5.684   3.393   6.017
 7919TIP3   OH223713   1.509   7.657   0.184
 7919TIP3    H123714   1.566   7.586   0.211
 7919TIP3    H223715   1.563   7.710   0.124
 7920TIP3   OH223716   3.538   2.015   4.324
 7920TIP3    H123717   3.545   2.106   4.296
 7920TIP3    H223718   3.596   1.967   4.266
 7921TIP3   OH223719   3.057   2.544   2.116
 7921TIP3    H123720   3.146   2.574   2.101
 7921TIP3    H223721   3.004   2.624   2.116
 7922TIP3   OH223722   5.226   2.212   6.177
 7922TIP3    H123723   5.232   2.120   6.205
 7922TIP3    H223724   5.317   2.239   6.163
 7923TIP3   OH223725   0.628   1.602   3.804
 7923TIP3    H123726   0.548   1.632   3.760
 7923TIP3    H223727   0.686   1.678   3.803
 7924TIP3   OH223728   7.561   7.587   1.118
 7924TIP3    H123729   7.507   7.629   1.051
 7924TIP3    H223730   7.567   7.495   1.090
 7925TIP3   OH223731   3.508   6.110   0.272
 7925TIP3    H123732   3.473   6.073   0.191
 7925TIP3    H223733   3.579   6.168   0.242
 7926TIP3   OH223734   4.284   1.973   3.711
 7926TIP3    H123735   4.320   1.993   3.624
 7926TIP3    H223736   4.255   2.057   3.745
 7927TIP3   OH223737   1.342   5.773   5.444
 7927TIP3    H123738   1.403   5.712   5.487
 7927TIP3    H223739   1.377   5.782   5.355
 7928TIP3   OH223740   6.560   6.689   2.182
 7928TIP3    H123741   6.595   6.679   2.093
 7928TIP3    H223742   6.534   6.781   2.187
 7929TIP3   OH223743   1.445   6.398   4.498
 7929TIP3    H123744   1.369   6.351   4.533
 7929TIP3    H223745   1.461   6.468   4.561
 7930TIP3   OH223746   5.534   5.357   0.577
 7930TIP3    H123747   5.614   5.350   0.628
 7930TIP3    H223748   5.511   5.449   0.579
 7931TIP3   OH223749   2.640   2.675   2.001
 7931TIP3    H123750   2.685   2.742   1.950
 7931TIP3    H223751   2.704   2.605   2.013
 7932TIP3   OH223752   6.948   0.684   5.001
 7932TIP3    H123753   6.963   0.604   5.052
 7932TIP3    H223754   7.032   0.731   5.007
 7933TIP3   OH223755   3.860   0.528   5.966
 7933TIP3    H123756   3.905   0.570   6.039
 7933TIP3    H223757   3.907   0.556   5.888
 7934TIP3   OH223758   0.968   1.050   1.172
 7934TIP3    H123759   0.993   1.063   1.081
 7934TIP3    H223760   1.051   1.034   1.218
 7935TIP3   OH223761   1.517   1.508   4.503
 7935TIP3    H123762   1.597   1.459   4.483
 7935TIP3    H223763   1.537   1.554   4.584
 7936TIP3   OH223764   3.644   2.324   6.326
 7936TIP3    H123765   3.565   2.344   6.375
 7936TIP3    H223766   3.682   2.410   6.306
 7937TIP3   OH223767   2.957   4.784   5.225
 7937TIP3    H123768   2.865   4.757   5.226
 7937TIP3    H223769   2.998   4.730   5.292
 7938TIP3   OH223770   5.873   7.174   5.227
 7938TIP3    H123771   5.924   7.231   5.170
 7938TIP3    H223772   5.888   7.086   5.193
 7939TIP3   OH223773   4.648   0.510   1.048
 7939TIP3    H123774   4.591   0.432   1.045
 7939TIP3    H223775   4.587   0.583   1.056
 7940TIP3   OH223776   1.761   3.524   1.012
 7940TIP3    H123777   1.708   3.530   0.932
 7940TIP3    H223778   1.718   3.456   1.064
 7941TIP3   OH223779   4.897   6.018   5.554
 7941TIP3    H123780   4.977   5.966   5.561
 7941TIP3    H223781   4.894   6.069   5.635
 7942TIP3   OH223782   3.226   3.854   1.847
 7942TIP3    H123783   3.295   3.888   1.904
 7942TIP3    H223784   3.268   3.844   1.761
 7943TIP3   OH223785   2.475   3.552   0.094
 7943TIP3    H123786   2.457   3.481   0.032
 7943TIP3    H223787   2.522   3.617   0.042
 7944TIP3   OH223788   5.785   6.868   1.000
 7944TIP3    H123789   5.754   6.944   1.050
 7944TIP3    H223790   5.785   6.898   0.909
 7945TIP3   OH223791   7.973   3.020   1.147
 7945TIP3    H123792   8.031   3.027   1.072
 7945TIP3    H223793   8.031   3.031   1.223
 7946TIP3   OH223794   7.546   7.708   3.317
 7946TIP3    H123795   7.583   7.624   3.290
 7946TIP3    H223796   7.607   7.740   3.384
 7947TIP3   OH223797   5.194   1.018   4.719
 7947TIP3    H123798   5.245   0.942   4.691
 7947TIP3    H223799   5.238   1.049   4.798
 7948TIP3   OH223800   5.929   3.063   2.465
 7948TIP3    H123801   5.993   3.133   2.478
 7948TIP3    H223802   5.888   3.053   2.551
 7949TIP3   OH223803   6.348   2.554   4.392
 7949TIP3    H123804   6.368   2.618   4.459
 7949TIP3    H223805   6.253   2.540   4.399
 7950TIP3   OH223806   5.476   2.772   2.436
 7950TIP3    H123807   5.421   2.698   2.463
 7950TIP3    H223808   5.426   2.814   2.366
 7951TIP3   OH223809   2.752   2.510   4.112
 7951TIP3    H123810   2.723   2.576   4.176
 7951TIP3    H223811   2.711   2.537   4.030
 7952TIP3   OH223812   4.334   1.601   6.230
 7952TIP3    H123813   4.415   1.580   6.277
 7952TIP3    H223814   4.268   1.610   6.298
 7953TIP3   OH223815   3.018   3.120   2.762
 7953TIP3    H123816   3.003   3.038   2.810
 7953TIP3    H223817   3.092   3.102   2.706
 7954TIP3   OH223818   7.420   6.972   1.512
 7954TIP3    H123819   7.407   6.885   1.473
 7954TIP3    H223820   7.507   6.999   1.483
 7955TIP3   OH223821   4.007   2.694   4.598
 7955TIP3    H123822   3.981   2.604   4.614
 7955TIP3    H223823   3.959   2.720   4.520
 7956TIP3   OH223824   1.461   1.099   1.190
 7956TIP3    H123825   1.503   1.181   1.167
 7956TIP3    H223826   1.524   1.031   1.164
 7957TIP3   OH223827   0.264   5.560   1.037
 7957TIP3    H123828   0.237   5.523   1.121
 7957TIP3    H223829   0.266   5.485   0.978
 7958TIP3   OH223830   0.833   6.057   3.002
 7958TIP3    H123831   0.818   6.036   3.094
 7958TIP3    H223832   0.909   6.114   3.003
 7959TIP3   OH223833   7.454   1.188   5.451
 7959TIP3    H123834   7.543   1.221   5.444
 7959TIP3    H223835   7.404   1.260   5.490
 7960TIP3   OH223836   8.091   5.922   1.880
 7960TIP3    H123837   8.148   5.853   1.847
 7960TIP3    H223838   8.147   5.974   1.938
 7961TIP3   OH223839   3.981   7.108   1.465
 7961TIP3    H123840   3.987   7.023   1.509
 7961TIP3    H223841   3.890   7.114   1.437
 7962TIP3   OH223842   0.209   5.030   1.131
 7962TIP3    H123843   0.207   5.014   1.037
 7962TIP3    H223844   0.174   4.950   1.170
 7963TIP3   OH223845   1.813   5.438   2.456
 7963TIP3    H123846   1.875   5.409   2.390
 7963TIP3    H223847   1.822   5.533   2.459
 7964TIP3   OH223848   4.351   4.944   2.968
 7964TIP3    H123849   4.285   4.941   2.898
 7964TIP3    H223850   4.421   5.000   2.933
 7965TIP3   OH223851   1.778   1.267   2.440
 7965TIP3    H123852   1.746   1.356   2.426
 7965TIP3    H223853   1.708   1.211   2.410
 7966TIP3   OH223854   1.620   6.903   2.697
 7966TIP3    H123855   1.575   6.820   2.713
 7966TIP3    H223856   1.697   6.899   2.754
 7967TIP3   OH223857   5.946   7.547   4.987
 7967TIP3    H123858   5.864   7.501   4.970
 7967TIP3    H223859   5.988   7.498   5.057
 7968TIP3   OH223860   7.785   5.469   0.485
 7968TIP3    H123861   7.690   5.463   0.501
 7968TIP3    H223862   7.804   5.563   0.493
 7969TIP3   OH223863   4.654   6.645   1.659
 7969TIP3    H123864   4.561   6.628   1.645
 7969TIP3    H223865   4.684   6.682   1.576
 7970TIP3   OH223866   4.348   2.295   5.098
 7970TIP3    H123867   4.297   2.326   5.172
 7970TIP3    H223868   4.365   2.374   5.046
 7971TIP3   OH223869   5.305   5.569   4.863
 7971TIP3    H123870   5.284   5.477   4.846
 7971TIP3    H223871   5.394   5.567   4.898
 7972TIP3   OH223872   4.255   6.996   5.938
 7972TIP3    H123873   4.328   7.054   5.960
 7972TIP3    H223874   4.177   7.043   5.967
 7973TIP3   OH223875   1.470   7.838   3.256
 7973TIP3    H123876   1.452   7.822   3.348
 7973TIP3    H223877   1.455   7.753   3.213
 7974TIP3   OH223878   5.425   7.658   6.023
 7974TIP3    H123879   5.440   7.577   5.974
 7974TIP3    H223880   5.400   7.628   6.111
 7975TIP3   OH223881   5.067   7.805   6.790
 7975TIP3    H123882   5.071   7.758   6.706
 7975TIP3    H223883   5.019   7.885   6.770
 7976TIP3   OH223884   5.078   5.981   1.064
 7976TIP3    H123885   5.088   6.055   1.123
 7976TIP3    H223886   5.073   6.020   0.976
 7977TIP3   OH223887   7.679   6.433   3.344
 7977TIP3    H123888   7.772   6.454   3.351
 7977TIP3    H223889   7.665   6.417   3.251
 7978TIP3   OH223890   3.475   4.746   0.961
 7978TIP3    H123891   3.545   4.739   1.026
 7978TIP3    H223892   3.401   4.781   1.009
 7979TIP3   OH223893   3.648   2.296   5.206
 7979TIP3    H123894   3.707   2.261   5.139
 7979TIP3    H223895   3.645   2.390   5.190
 7980TIP3   OH223896   6.898   3.111   2.927
 7980TIP3    H123897   6.816   3.160   2.931
 7980TIP3    H223898   6.934   3.132   2.841
 7981TIP3   OH223899   7.922   5.426   3.792
 7981TIP3    H123900   7.970   5.412   3.710
 7981TIP3    H223901   7.921   5.521   3.803
 7982TIP3   OH223902   3.063   5.423   1.166
 7982TIP3    H123903   2.983   5.381   1.135
 7982TIP3    H223904   3.038   5.515   1.178
 7983TIP3   OH223905   0.960   7.000   2.544
 7983TIP3    H123906   0.882   7.056   2.540
 7983TIP3    H223907   1.023   7.043   2.486
 7984TIP3   OH223908   5.644   1.754   2.990
 7984TIP3    H123909   5.687   1.820   2.936
 7984TIP3    H223910   5.551   1.778   2.988
 7985TIP3   OH223911   0.248   5.796   0.830
 7985TIP3    H123912   0.235   5.703   0.810
 7985TIP3    H223913   0.320   5.823   0.773
 7986TIP3   OH223914   5.497   1.986   6.016
 7986TIP3    H123915   5.591   2.002   6.013
 7986TIP3    H223916   5.460   2.051   5.956
 7987TIP3   OH223917   1.257   5.417   0.275
 7987TIP3    H123918   1.256   5.490   0.337
 7987TIP3    H223919   1.211   5.346   0.321
 7988TIP3   OH223920   7.256   6.589   6.389
 7988TIP3    H123921   7.227   6.673   6.425
 7988TIP3    H223922   7.337   6.610   6.342
 7989TIP3   OH223923   1.373   7.569   1.138
 7989TIP3    H123924   1.443   7.614   1.091
 7989TIP3    H223925   1.370   7.481   1.100
 7990TIP3   OH223926   7.914   1.917   3.550
 7990TIP3    H123927   7.864   1.995   3.576
 7990TIP3    H223928   7.942   1.878   3.633
 7991TIP3   OH223929   7.724   1.212   5.485
 7991TIP3    H123930   7.739   1.152   5.558
 7991TIP3    H223931   7.769   1.172   5.411
 7992TIP3   OH223932   7.199   6.520   5.437
 7992TIP3    H123933   7.219   6.549   5.348
 7992TIP3    H223934   7.281   6.478   5.467
 7993TIP3   OH223935   0.619   5.358   2.405
 7993TIP3    H123936   0.608   5.271   2.443
 7993TIP3    H223937   0.712   5.376   2.414
 7994TIP3   OH223938   7.179   3.146   1.855
 7994TIP3    H123939   7.210   3.196   1.931
 7994TIP3    H223940   7.257   3.132   1.802
 7995TIP3   OH223941   6.841   6.566   6.157
 7995TIP3    H123942   6.820   6.598   6.069
 7995TIP3    H223943   6.837   6.471   6.149
 7996TIP3   OH223944   8.135   5.533   6.542
 7996TIP3    H123945   8.194   5.488   6.603
 7996TIP3    H223946   8.177   5.617   6.526
 7997TIP3   OH223947   4.449   1.635   1.565
 7997TIP3    H123948   4.388   1.707   1.552
 7997TIP3    H223949   4.454   1.625   1.660
 7998TIP3   OH223950   1.052   7.333   3.882
 7998TIP3    H123951   1.018   7.389   3.952
 7998TIP3    H223952   1.147   7.348   3.884
 7999TIP3   OH223953   6.859   0.154   5.043
 7999TIP3    H123954   6.783   0.106   5.009
 7999TIP3    H223955   6.832   0.246   5.039
 8000TIP3   OH223956   0.180   4.453   5.969
 8000TIP3    H123957   0.243   4.525   5.964
 8000TIP3    H223958   0.168   4.425   5.878
 8001TIP3   OH223959   6.712   6.135   3.966
 8001TIP3    H123960   6.698   6.041   3.972
 8001TIP3    H223961   6.694   6.156   3.874
 8002TIP3   OH223962   1.532   0.323   0.668
 8002TIP3    H123963   1.472   0.398   0.667
 8002TIP3    H223964   1.475   0.246   0.671
 8003TIP3   OH223965   0.183   7.678   3.732
 8003TIP3    H123966   0.090   7.699   3.734
 8003TIP3    H223967   0.192   7.615   3.660
 8004TIP3   OH223968   0.952   1.533   2.847
 8004TIP3    H123969   0.896   1.505   2.920
 8004TIP3    H223970   0.965   1.454   2.796
 8005TIP3   OH223971   5.837   5.472   6.600
 8005TIP3    H123972   5.885   5.554   6.611
 8005TIP3    H223973   5.765   5.476   6.663
 8006TIP3   OH223974   7.180   0.091   6.254
 8006TIP3    H123975   7.147   0.132   6.174
 8006TIP3    H223976   7.269   0.126   6.264
 8007TIP3   OH223977   0.326   2.833   2.631
 8007TIP3    H123978   0.355   2.744   2.610
 8007TIP3    H223979   0.345   2.883   2.552
 8008TIP3   OH223980   0.163   4.195   5.488
 8008TIP3    H123981   0.084   4.181   5.436
 8008TIP3    H223982   0.189   4.285   5.469
 8009TIP3   OH223983   5.783   3.197   5.603
 8009TIP3    H123984   5.803   3.288   5.581
 8009TIP3    H223985   5.827   3.146   5.535
 8010TIP3   OH223986   5.500   3.829   5.584
 8010TIP3    H123987   5.506   3.872   5.670
 8010TIP3    H223988   5.429   3.766   5.594
 8011TIP3   OH223989   2.903   2.302   2.220
 8011TIP3    H123990   2.967   2.362   2.258
 8011TIP3    H223991   2.947   2.266   2.142
 8012TIP3   OH223992   1.303   4.798   0.895
 8012TIP3    H123993   1.271   4.737   0.961
 8012TIP3    H223994   1.397   4.780   0.889
 8013TIP3   OH223995   6.257   3.302   4.193
 8013TIP3    H123996   6.278   3.393   4.172
 8013TIP3    H223997   6.327   3.251   4.153
 8014TIP3   OH223998   0.056   0.392   1.736
 8014TIP3    H123999   0.149   0.387   1.761
 8014TIP3    H224000   0.046   0.479   1.698
 8015TIP3   OH224001   7.873   6.044   3.922
 8015TIP3    H124002   7.930   6.082   3.856
 8015TIP3    H224003   7.822   6.118   3.955
 8016TIP3   OH224004   5.182   4.094   1.710
 8016TIP3    H124005   5.088   4.091   1.731
 8016TIP3    H224006   5.194   4.023   1.648
 8017TIP3   OH224007   1.569   0.947   2.440
 8017TIP3    H124008   1.588   0.914   2.352
 8017TIP3    H224009   1.646   0.923   2.491
 8018TIP3   OH224010   2.298   4.527   0.565
 8018TIP3    H124011   2.258   4.460   0.620
 8018TIP3    H224012   2.259   4.609   0.594
 8019TIP3   OH224013   6.985   5.733   2.072
 8019TIP3    H124014   7.033   5.691   2.143
 8019TIP3    H224015   6.917   5.670   2.048
 8020TIP3   OH224016   2.458   3.493   2.763
 8020TIP3    H124017   2.444   3.409   2.806
 8020TIP3    H224018   2.525   3.536   2.816
 8021TIP3   OH224019   5.327   4.284   2.752
 8021TIP3    H124020   5.418   4.312   2.741
 8021TIP3    H224021   5.284   4.360   2.791
 8022TIP3   OH224022   3.112   1.191   3.018
 8022TIP3    H124023   3.202   1.209   3.043
 8022TIP3    H224024   3.066   1.177   3.100
 8023TIP3   OH224025   4.192   0.855   4.938
 8023TIP3    H124026   4.221   0.829   5.025
 8023TIP3    H224027   4.121   0.918   4.954
 8024TIP3   OH224028   6.295   0.652   5.016
 8024TIP3    H124029   6.242   0.592   4.964
 8024TIP3    H224030   6.298   0.733   4.965
 8025TIP3   OH224031   5.202   1.921   2.579
 8025TIP3    H124032   5.121   1.948   2.535
 8025TIP3    H224033   5.250   2.003   2.592
 8026TIP3   OH224034   2.408   5.152   3.727
 8026TIP3    H124035   2.404   5.218   3.796
 8026TIP3    H224036   2.469   5.188   3.663
 8027TIP3   OH224037   1.230   0.506   0.454
 8027TIP3    H124038   1.165   0.556   0.405
 8027TIP3    H224039   1.289   0.572   0.490
 8028TIP3   OH224040   5.697   7.012   4.038
 8028TIP3    H124041   5.635   7.079   4.009
 8028TIP3    H224042   5.781   7.058   4.046
 8029TIP3   OH224043   0.653   1.715   3.050
 8029TIP3    H124044   0.685   1.644   2.993
 8029TIP3    H224045   0.711   1.711   3.126
 8030TIP3   OH224046   5.598   6.036   2.570
 8030TIP3    H124047   5.602   6.023   2.665
 8030TIP3    H224048   5.514   6.079   2.555
 8031TIP3   OH224049   4.117   4.325   2.042
 8031TIP3    H124050   4.086   4.274   1.967
 8031TIP3    H224051   4.156   4.260   2.101
 8032TIP3   OH224052   8.090   1.401   4.327
 8032TIP3    H124053   8.169   1.411   4.379
 8032TIP3    H224054   8.111   1.332   4.264
 8033TIP3   OH224055   1.385   2.575   3.176
 8033TIP3    H124056   1.404   2.528   3.095
 8033TIP3    H224057   1.447   2.648   3.177
 8034TIP3   OH224058   5.773   1.972   2.842
 8034TIP3    H124059   5.722   2.024   2.780
 8034TIP3    H224060   5.862   1.976   2.807
 8035TIP3   OH224061   2.100   3.397   1.291
 8035TIP3    H124062   2.070   3.472   1.342
 8035TIP3    H224063   2.033   3.330   1.306
 8036TIP3   OH224064   7.505   1.965   3.129
 8036TIP3    H124065   7.562   1.905   3.176
 8036TIP3    H224066   7.494   1.925   3.042
 8037TIP3   OH224067   1.567   3.247   5.022
 8037TIP3    H124068   1.568   3.215   4.932
 8037TIP3    H224069   1.592   3.339   5.016
 8038TIP3   OH224070   1.640   1.500   0.468
 8038TIP3    H124071   1.684   1.442   0.531
 8038TIP3    H224072   1.569   1.447   0.432
 8039TIP3   OH224073   1.025   4.804   2.833
 8039TIP3    H124074   0.994   4.796   2.743
 8039TIP3    H224075   1.023   4.715   2.867
 8040TIP3   OH224076   4.121   6.963   3.761
 8040TIP3    H124077   4.078   7.028   3.816
 8040TIP3    H224078   4.165   7.014   3.693
 8041TIP3   OH224079   6.770   4.752   5.491
 8041TIP3    H124080   6.740   4.761   5.401
 8041TIP3    H224081   6.764   4.658   5.509
 8042TIP3   OH224082   1.987   1.458   0.755
 8042TIP3    H124083   1.958   1.525   0.693
 8042TIP3    H224084   1.941   1.479   0.836
 8043TIP3   OH224085   2.383   0.898   0.395
 8043TIP3    H124086   2.310   0.843   0.425
 8043TIP3    H224087   2.406   0.862   0.309
 8044TIP3   OH224088   6.376   4.277   0.119
 8044TIP3    H124089   6.385   4.254   0.211
 8044TIP3    H224090   6.405   4.198   0.072
 8045TIP3   OH224091   2.206   7.426   4.172
 8045TIP3    H124092   2.181   7.333   4.174
 8045TIP3    H224093   2.196   7.452   4.081
 8046TIP3   OH224094   4.531   7.028   5.321
 8046TIP3    H124095   4.526   7.123   5.315
 8046TIP3    H224096   4.479   6.996   5.247
 8047TIP3   OH224097   4.601   3.602   3.309
 8047TIP3    H124098   4.631   3.689   3.334
 8047TIP3    H224099   4.531   3.582   3.370
 8048TIP3   OH224100   8.161   6.236   6.264
 8048TIP3    H124101   8.128   6.307   6.320
 8048TIP3    H224102   8.085   6.208   6.214
 8049TIP3   OH224103   4.732   2.622   2.026
 8049TIP3    H124104   4.758   2.714   2.022
 8049TIP3    H224105   4.655   2.621   2.082
 8050TIP3   OH224106   1.668   6.616   3.082
 8050TIP3    H124107   1.615   6.559   3.137
 8050TIP3    H224108   1.697   6.686   3.141
 8051TIP3   OH224109   4.983   7.328   5.573
 8051TIP3    H124110   5.017   7.252   5.526
 8051TIP3    H224111   4.888   7.323   5.560
 8052TIP3   OH224112   7.744   5.756   0.439
 8052TIP3    H124113   7.661   5.747   0.485
 8052TIP3    H224114   7.784   5.835   0.475
 8053TIP3   OH224115   0.290   6.598   6.010
 8053TIP3    H124116   0.332   6.684   6.000
 8053TIP3    H224117   0.358   6.535   5.987
 8054TIP3   OH224118   6.936   2.295   0.385
 8054TIP3    H124119   6.875   2.279   0.457
 8054TIP3    H224120   6.894   2.256   0.308
 8055TIP3   OH224121   6.794   2.458   4.466
 8055TIP3    H124122   6.857   2.392   4.437
 8055TIP3    H224123   6.728   2.460   4.396
 8056TIP3   OH224124   2.642   7.336   3.783
 8056TIP3    H124125   2.695   7.332   3.703
 8056TIP3    H224126   2.672   7.416   3.827
 8057TIP3   OH224127   2.279   7.352   6.656
 8057TIP3    H124128   2.285   7.294   6.580
 8057TIP3    H224129   2.195   7.397   6.644
 8058TIP3   OH224130   0.512   1.484   1.592
 8058TIP3    H124131   0.578   1.540   1.634
 8058TIP3    H224132   0.556   1.399   1.582
 8059TIP3   OH224133   3.564   6.387   6.050
 8059TIP3    H124134   3.546   6.463   6.106
 8059TIP3    H224135   3.573   6.424   5.962
 8060TIP3   OH224136   1.454   3.301   2.134
 8060TIP3    H124137   1.403   3.377   2.105
 8060TIP3    H224138   1.542   3.335   2.150
 8061TIP3   OH224139   1.127   3.511   1.378
 8061TIP3    H124140   1.059   3.550   1.324
 8061TIP3    H224141   1.096   3.520   1.468
 8062TIP3   OH224142   2.477   0.767   6.581
 8062TIP3    H124143   2.519   0.842   6.623
 8062TIP3    H224144   2.394   0.802   6.548
 8063TIP3   OH224145   4.305   5.356   0.990
 8063TIP3    H124146   4.274   5.265   0.999
 8063TIP3    H224147   4.380   5.350   0.932
 8064TIP3   OH224148   5.987   2.899   5.748
 8064TIP3    H124149   6.044   2.950   5.691
 8064TIP3    H224150   6.025   2.811   5.746
 8065TIP3   OH224151   3.134   1.675   5.846
 8065TIP3    H124152   3.181   1.723   5.778
 8065TIP3    H224153   3.107   1.593   5.804
 8066TIP3   OH224154   0.215   4.844   2.708
 8066TIP3    H124155   0.296   4.893   2.700
 8066TIP3    H224156   0.150   4.908   2.736
 8067TIP3   OH224157   4.875   5.571   2.459
 8067TIP3    H124158   4.907   5.497   2.510
 8067TIP3    H224159   4.809   5.534   2.402
 8068TIP3   OH224160   7.899   2.035   6.164
 8068TIP3    H124161   7.876   2.064   6.075
 8068TIP3    H224162   7.932   1.946   6.151
 8069TIP3   OH224163   4.074   1.768   3.579
 8069TIP3    H124164   4.095   1.674   3.577
 8069TIP3    H224165   4.153   1.809   3.615
 8070TIP3   OH224166   1.836   0.723   2.157
 8070TIP3    H124167   1.909   0.769   2.198
 8070TIP3    H224168   1.759   0.777   2.176
 8071TIP3   OH224169   5.243   4.823   5.649
 8071TIP3    H124170   5.149   4.812   5.635
 8071TIP3    H224171   5.250   4.890   5.716
 8072TIP3   OH224172   6.888   0.610   4.406
 8072TIP3    H124173   6.948   0.669   4.359
 8072TIP3    H224174   6.943   0.537   4.433
 8073TIP3   OH224175   6.853   4.367   1.267
 8073TIP3    H124176   6.861   4.293   1.327
 8073TIP3    H224177   6.759   4.372   1.247
 8074TIP3   OH224178   1.442   6.805   5.483
 8074TIP3    H124179   1.398   6.854   5.552
 8074TIP3    H224180   1.522   6.854   5.465
 8075TIP3   OH224181   7.932   4.367   3.246
 8075TIP3    H124182   8.023   4.397   3.243
 8075TIP3    H224183   7.933   4.286   3.194
 8076TIP3   OH224184   4.292   5.488   0.395
 8076TIP3    H124185   4.300   5.445   0.310
 8076TIP3    H224186   4.323   5.424   0.458
 8077TIP3   OH224187   6.029   6.194   4.220
 8077TIP3    H124188   5.990   6.263   4.273
 8077TIP3    H224189   5.982   6.114   4.246
 8078TIP3   OH224190   1.555   2.894   2.167
 8078TIP3    H124191   1.552   2.911   2.261
 8078TIP3    H224192   1.469   2.856   2.148
 8079TIP3   OH224193   5.096   5.433   0.536
 8079TIP3    H124194   5.121   5.459   0.625
 8079TIP3    H224195   5.117   5.339   0.532
 8080TIP3   OH224196   7.961   5.619   1.706
 8080TIP3    H124197   7.957   5.642   1.799
 8080TIP3    H224198   7.871   5.594   1.685
 8081TIP3   OH224199   6.705   3.906   3.388
 8081TIP3    H124200   6.667   3.852   3.319
 8081TIP3    H224201   6.794   3.924   3.359
 8082TIP3   OH224202   2.903   6.696   5.859
 8082TIP3    H124203   2.919   6.603   5.845
 8082TIP3    H224204   2.879   6.730   5.773
 8083TIP3   OH224205   3.132   0.766   6.486
 8083TIP3    H124206   3.226   0.749   6.483
 8083TIP3    H224207   3.110   0.760   6.579
 8084TIP3   OH224208   5.883   3.356   4.751
 8084TIP3    H124209   5.828   3.376   4.675
 8084TIP3    H224210   5.864   3.426   4.813
 8085TIP3   OH224211   7.100   6.740   4.310
 8085TIP3    H124212   7.062   6.721   4.397
 8085TIP3    H224213   7.027   6.778   4.261
 8086TIP3   OH224214   2.766   2.074   6.431
 8086TIP3    H124215   2.767   1.992   6.479
 8086TIP3    H224216   2.831   2.062   6.361
 8087TIP3   OH224217   1.007   3.964   2.022
 8087TIP3    H124218   0.940   3.898   2.040
 8087TIP3    H224219   1.088   3.913   2.010
 8088TIP3   OH224220   0.607   0.617   0.373
 8088TIP3    H124221   0.607   0.693   0.315
 8088TIP3    H224222   0.515   0.592   0.380
 8089TIP3   OH224223   0.816   5.256   5.533
 8089TIP3    H124224   0.894   5.310   5.522
 8089TIP3    H224225   0.841   5.171   5.497
 8090TIP3   OH224226   4.854   7.564   3.752
 8090TIP3    H124227   4.833   7.501   3.821
 8090TIP3    H224228   4.947   7.548   3.733
 8091TIP3   OH224229   1.460   0.419   6.681
 8091TIP3    H124230   1.490   0.337   6.642
 8091TIP3    H224231   1.365   0.412   6.682
 8092TIP3   OH224232   6.363   7.694   2.025
 8092TIP3    H124233   6.293   7.744   2.067
 8092TIP3    H224234   6.432   7.690   2.092
 8093TIP3   OH224235   5.974   0.218   6.531
 8093TIP3    H124236   5.930   0.297   6.499
 8093TIP3    H224237   5.993   0.167   6.452
 8094TIP3   OH224238   0.215   1.517   4.900
 8094TIP3    H124239   0.203   1.477   4.814
 8094TIP3    H224240   0.160   1.464   4.958
 8095TIP3   OH224241   3.014   0.752   5.371
 8095TIP3    H124242   3.018   0.787   5.282
 8095TIP3    H224243   3.085   0.688   5.375
 8096TIP3   OH224244   1.735   3.871   0.203
 8096TIP3    H124245   1.671   3.800   0.201
 8096TIP3    H224246   1.793   3.848   0.276
 8097TIP3   OH224247   4.529   5.830   2.877
 8097TIP3    H124248   4.585   5.907   2.887
 8097TIP3    H224249   4.444   5.865   2.851
 8098TIP3   OH224250   2.896   4.445   6.608
 8098TIP3    H124251   2.889   4.539   6.623
 8098TIP3    H224252   2.925   4.409   6.692
 8099TIP3   OH224253   4.643   1.214   3.556
 8099TIP3    H124254   4.573   1.248   3.501
 8099TIP3    H224255   4.723   1.253   3.519
 8100TIP3   OH224256   2.602   5.208   5.716
 8100TIP3    H124257   2.554   5.136   5.676
 8100TIP3    H224258   2.537   5.278   5.725
 8101TIP3   OH224259   8.163   2.159   1.742
 8101TIP3    H124260   8.089   2.103   1.765
 8101TIP3    H224261   8.124   2.244   1.720
 8102TIP3   OH224262   2.507   7.432   2.291
 8102TIP3    H124263   2.451   7.477   2.354
 8102TIP3    H224264   2.558   7.371   2.344
 8103TIP3   OH224265   4.577   7.488   2.941
 8103TIP3    H124266   4.536   7.402   2.950
 8103TIP3    H224267   4.509   7.543   2.902
 8104TIP3   OH224268   0.296   1.972   6.762
 8104TIP3    H124269   0.387   1.999   6.754
 8104TIP3    H224270   0.253   2.010   6.685
 8105TIP3   OH224271   5.810   1.871   3.617
 8105TIP3    H124272   5.764   1.951   3.593
 8105TIP3    H224273   5.805   1.868   3.713
 8106TIP3   OH224274   8.208   3.149   2.105
 8106TIP3    H124275   8.232   3.058   2.085
 8106TIP3    H224276   8.112   3.150   2.104
 8107TIP3   OH224277   0.237   6.857   4.643
 8107TIP3    H124278   0.291   6.893   4.573
 8107TIP3    H224279   0.299   6.841   4.715
 8108TIP3   OH224280   2.256   5.051   1.599
 8108TIP3    H124281   2.173   5.035   1.642
 8108TIP3    H224282   2.264   4.982   1.534
 8109TIP3   OH224283   7.046   0.283   1.746
 8109TIP3    H124284   7.028   0.367   1.788
 8109TIP3    H224285   7.126   0.252   1.789
 8110TIP3   OH224286   6.835   1.980   1.312
 8110TIP3    H124287   6.750   1.972   1.269
 8110TIP3    H224288   6.830   1.921   1.387
 8111TIP3   OH224289   3.077   0.408   5.549
 8111TIP3    H124290   3.053   0.421   5.641
 8111TIP3    H224291   2.998   0.370   5.509
 8112TIP3   OH224292   8.179   7.718   3.790
 8112TIP3    H124293   8.117   7.776   3.747
 8112TIP3    H224294   8.196   7.759   3.875
 8113TIP3   OH224295   3.437   0.291   4.263
 8113TIP3    H124296   3.380   0.242   4.204
 8113TIP3    H224297   3.447   0.376   4.222
 8114TIP3   OH224298   3.057   3.717   2.750
 8114TIP3    H124299   3.027   3.806   2.731
 8114TIP3    H224300   3.141   3.710   2.705
 8115TIP3   OH224301   1.932   1.640   0.540
 8115TIP3    H124302   1.932   1.732   0.568
 8115TIP3    H224303   1.840   1.615   0.541
 8116TIP3   OH224304   0.202   4.009   4.313
 8116TIP3    H124305   0.275   4.029   4.255
 8116TIP3    H224306   0.124   4.031   4.262
 8117TIP3   OH224307   7.158   4.220   0.403
 8117TIP3    H124308   7.163   4.237   0.309
 8117TIP3    H224309   7.182   4.128   0.413
 8118TIP3   OH224310   6.849   0.042   4.675
 8118TIP3    H124311   6.844   0.087   4.760
 8118TIP3    H224312   6.853  -0.051   4.698
 8119TIP3   OH224313   0.063   4.711   0.325
 8119TIP3    H124314  -0.029   4.740   0.321
 8119TIP3    H224315   0.109   4.784   0.366
 8120TIP3   OH224316   0.718   3.745   4.741
 8120TIP3    H124317   0.789   3.691   4.777
 8120TIP3    H224318   0.639   3.707   4.779
 8121TIP3   OH224319   4.825   3.371   6.394
 8121TIP3    H124320   4.877   3.372   6.474
 8121TIP3    H224321   4.786   3.459   6.391
 8122TIP3   OH224322   1.789   2.520   3.208
 8122TIP3    H124323   1.743   2.600   3.184
 8122TIP3    H224324   1.793   2.469   3.127
 8123TIP3   OH224325   3.100   2.986   1.908
 8123TIP3    H124326   3.035   3.051   1.882
 8123TIP3    H224327   3.137   3.020   1.989
 8124TIP3   OH224328   0.997   4.035   0.578
 8124TIP3    H124329   1.066   4.078   0.528
 8124TIP3    H224330   0.916   4.063   0.535
 8125TIP3   OH224331   2.379   7.463   1.402
 8125TIP3    H124332   2.432   7.540   1.384
 8125TIP3    H224333   2.299   7.477   1.351
 8126TIP3   OH224334   5.699   2.276   2.169
 8126TIP3    H124335   5.617   2.319   2.196
 8126TIP3    H224336   5.725   2.225   2.246
 8127TIP3   OH224337   5.103   5.389   0.016
 8127TIP3    H124338   5.032   5.391  -0.048
 8127TIP3    H224339   5.060   5.407   0.100
 8128TIP3   OH224340   0.528   1.157   0.802
 8128TIP3    H124341   0.474   1.232   0.826
 8128TIP3    H224342   0.474   1.081   0.819
 8129TIP3   OH224343   2.218   4.090   5.858
 8129TIP3    H124344   2.276   4.133   5.795
 8129TIP3    H224345   2.236   4.133   5.941
 8130TIP3   OH224346   7.142   2.819   5.990
 8130TIP3    H124347   7.211   2.875   6.025
 8130TIP3    H224348   7.106   2.868   5.916
 8131TIP3   OH224349   1.776   1.046   1.169
 8131TIP3    H124350   1.815   1.125   1.206
 8131TIP3    H224351   1.766   0.987   1.243
 8132TIP3   OH224352   0.536   1.029   1.105
 8132TIP3    H124353   0.465   0.966   1.092
 8132TIP3    H224354   0.616   0.977   1.095
 8133TIP3   OH224355   0.100   3.390   1.807
 8133TIP3    H124356   0.193   3.402   1.823
 8133TIP3    H224357   0.095   3.333   1.730
 8134TIP3   OH224358   2.266   0.950   6.532
 8134TIP3    H124359   2.308   1.035   6.547
 8134TIP3    H224360   2.241   0.952   6.439
 8135TIP3   OH224361   5.308   3.404   5.490
 8135TIP3    H124362   5.371   3.462   5.449
 8135TIP3    H224363   5.300   3.330   5.431
 8136TIP3   OH224364   6.607   6.213   2.808
 8136TIP3    H124365   6.668   6.270   2.761
 8136TIP3    H224366   6.656   6.182   2.883
 8137TIP3   OH224367   3.323   2.512   4.019
 8137TIP3    H124368   3.325   2.447   3.949
 8137TIP3    H224369   3.239   2.556   4.009
 8138TIP3   OH224370   7.575   4.540   3.429
 8138TIP3    H124371   7.492   4.557   3.472
 8138TIP3    H224372   7.561   4.458   3.381
 8139TIP3   OH224373   2.951   3.774   1.821
 8139TIP3    H124374   3.038   3.796   1.853
 8139TIP3    H224375   2.929   3.692   1.866
 8140TIP3   OH224376   2.229   1.370   4.646
 8140TIP3    H124377   2.270   1.429   4.709
 8140TIP3    H224378   2.142   1.408   4.631
 8141TIP3   OH224379   2.870   0.494   4.569
 8141TIP3    H124380   2.813   0.526   4.499
 8141TIP3    H224381   2.924   0.427   4.527
 8142TIP3   OH224382   3.676   3.576   5.106
 8142TIP3    H124383   3.617   3.650   5.090
 8142TIP3    H224384   3.618   3.503   5.125
 8143TIP3   OH224385   6.588   5.493   2.747
 8143TIP3    H124386   6.581   5.567   2.687
 8143TIP3    H224387   6.520   5.509   2.813
 8144TIP3   OH224388   2.547   4.130   2.860
 8144TIP3    H124389   2.622   4.189   2.861
 8144TIP3    H224390   2.502   4.149   2.777
 8145TIP3   OH224391   1.756   2.287   0.123
 8145TIP3    H124392   1.687   2.343   0.158
 8145TIP3    H224393   1.779   2.229   0.196
 8146TIP3   OH224394   5.476   6.584   5.607
 8146TIP3    H124395   5.477   6.513   5.670
 8146TIP3    H224396   5.466   6.663   5.660
 8147TIP3   OH224397   8.281   3.927   1.525
 8147TIP3    H124398   8.192   3.948   1.554
 8147TIP3    H224399   8.323   4.012   1.512
 8148TIP3   OH224400   6.326   7.270   1.634
 8148TIP3    H124401   6.370   7.297   1.553
 8148TIP3    H224402   6.244   7.319   1.635
 8149TIP3   OH224403   2.570   0.258   0.392
 8149TIP3    H124404   2.540   0.197   0.459
 8149TIP3    H224405   2.647   0.299   0.430
 8150TIP3   OH224406   5.774   3.841   4.881
 8150TIP3    H124407   5.740   3.874   4.797
 8150TIP3    H224408   5.819   3.916   4.920
 8151TIP3   OH224409   2.338   5.616   1.828
 8151TIP3    H124410   2.309   5.540   1.777
 8151TIP3    H224411   2.300   5.603   1.915
 8152TIP3   OH224412   6.344   0.058   2.603
 8152TIP3    H124413   6.420   0.049   2.661
 8152TIP3    H224414   6.279  -0.003   2.639
 8153TIP3   OH224415   3.256   2.197   2.463
 8153TIP3    H124416   3.308   2.127   2.501
 8153TIP3    H224417   3.321   2.257   2.425
 8154TIP3   OH224418   4.787   4.467   3.678
 8154TIP3    H124419   4.759   4.505   3.761
 8154TIP3    H224420   4.882   4.479   3.676
 8155TIP3   OH224421   5.251   5.932   1.875
 8155TIP3    H124422   5.219   5.842   1.884
 8155TIP3    H224423   5.245   5.950   1.781
 8156TIP3   OH224424   5.257   0.430   6.371
 8156TIP3    H124425   5.344   0.439   6.331
 8156TIP3    H224426   5.266   0.469   6.458
 8157TIP3   OH224427   3.948   5.245   5.982
 8157TIP3    H124428   3.888   5.220   6.053
 8157TIP3    H224429   3.897   5.232   5.903
 8158TIP3   OH224430   5.138   2.945   0.991
 8158TIP3    H124431   5.070   2.877   0.987
 8158TIP3    H224432   5.100   3.019   0.944
 8159TIP3   OH224433   6.558   0.946   4.512
 8159TIP3    H124434   6.619   0.873   4.526
 8159TIP3    H224435   6.613   1.024   4.518
 8160TIP3   OH224436   1.822   2.840   5.625
 8160TIP3    H124437   1.843   2.800   5.541
 8160TIP3    H224438   1.894   2.901   5.641
 8161TIP3   OH224439   1.522   4.498   2.943
 8161TIP3    H124440   1.510   4.590   2.920
 8161TIP3    H224441   1.609   4.496   2.983
 8162TIP3   OH224442   3.694   2.838   5.788
 8162TIP3    H124443   3.706   2.871   5.877
 8162TIP3    H224444   3.666   2.747   5.800
 8163TIP3   OH224445   3.918   1.640   5.504
 8163TIP3    H124446   3.876   1.555   5.489
 8163TIP3    H224447   4.012   1.621   5.505
 8164TIP3   OH224448   3.083   1.366   3.303
 8164TIP3    H124449   3.125   1.307   3.366
 8164TIP3    H224450   2.996   1.329   3.289
 8165TIP3   OH224451   2.969   1.518   4.218
 8165TIP3    H124452   2.941   1.573   4.145
 8165TIP3    H224453   3.003   1.439   4.177
 8166TIP3   OH224454   6.783   5.213   6.293
 8166TIP3    H124455   6.745   5.288   6.339
 8166TIP3    H224456   6.708   5.162   6.264
 8167TIP3   OH224457   6.126   6.613   0.743
 8167TIP3    H124458   6.038   6.643   0.764
 8167TIP3    H224459   6.126   6.520   0.765
 8168TIP3   OH224460   3.108   7.110   0.373
 8168TIP3    H124461   3.028   7.153   0.404
 8168TIP3    H224462   3.130   7.156   0.292
 8169TIP3   OH224463   3.446   7.312   3.031
 8169TIP3    H124464   3.469   7.240   3.089
 8169TIP3    H224465   3.529   7.339   2.991
 8170TIP3   OH224466   1.890   1.894   1.630
 8170TIP3    H124467   1.914   1.984   1.610
 8170TIP3    H224468   1.969   1.856   1.668
 8171TIP3   OH224469   7.610   4.312   2.223
 8171TIP3    H124470   7.561   4.368   2.283
 8171TIP3    H224471   7.543   4.263   2.176
 8172TIP3   OH224472   3.017   4.787   4.954
 8172TIP3    H124473   3.017   4.701   4.912
 8172TIP3    H224474   3.015   4.767   5.048
 8173TIP3   OH224475   0.469   6.433   5.915
 8173TIP3    H124476   0.519   6.397   5.988
 8173TIP3    H224477   0.526   6.423   5.839
 8174TIP3   OH224478   7.843   2.252   2.452
 8174TIP3    H124479   7.862   2.335   2.408
 8174TIP3    H224480   7.771   2.215   2.402
 8175TIP3   OH224481   5.141   2.924   2.566
 8175TIP3    H124482   5.165   2.996   2.624
 8175TIP3    H224483   5.065   2.956   2.518
 8176TIP3   OH224484   7.507   3.645   4.629
 8176TIP3    H124485   7.593   3.605   4.615
 8176TIP3    H224486   7.481   3.615   4.716
 8177TIP3   OH224487   7.726   4.849   0.284
 8177TIP3    H124488   7.706   4.920   0.223
 8177TIP3    H224489   7.778   4.891   0.352
 8178TIP3   OH224490   2.386   2.538   2.412
 8178TIP3    H124491   2.456   2.513   2.351
 8178TIP3    H224492   2.430   2.588   2.480
 8179TIP3   OH224493   3.231   2.378   4.245
 8179TIP3    H124494   3.143   2.383   4.208
 8179TIP3    H224495   3.287   2.423   4.181
 8180TIP3   OH224496   5.733   2.077   1.379
 8180TIP3    H124497   5.775   2.013   1.321
 8180TIP3    H224498   5.784   2.157   1.369
 8181TIP3   OH224499   2.011   7.544   5.613
 8181TIP3    H124500   2.086   7.504   5.655
 8181TIP3    H224501   2.034   7.548   5.520
 8182TIP3   OH224502   0.255   4.845   4.308
 8182TIP3    H124503   0.311   4.813   4.238
 8182TIP3    H224504   0.277   4.938   4.316
 8183TIP3   OH224505   3.807   3.110   2.181
 8183TIP3    H124506   3.902   3.120   2.191
 8183TIP3    H224507   3.797   3.036   2.122
 8184TIP3   OH224508   1.160   4.244   5.945
 8184TIP3    H124509   1.239   4.208   5.904
 8184TIP3    H224510   1.145   4.327   5.900
 8185TIP3   OH224511   7.970   4.200   4.439
 8185TIP3    H124512   7.901   4.186   4.504
 8185TIP3    H224513   7.925   4.240   4.364
 8186TIP3   OH224514   4.587   4.846   1.610
 8186TIP3    H124515   4.518   4.895   1.565
 8186TIP3    H224516   4.546   4.764   1.635
 8187TIP3   OH224517   7.148   4.638   0.717
 8187TIP3    H124518   7.155   4.578   0.643
 8187TIP3    H224519   7.213   4.607   0.780
 8188TIP3   OH224520   1.317   6.035   5.516
 8188TIP3    H124521   1.285   5.948   5.489
 8188TIP3    H224522   1.409   6.036   5.490
 8189TIP3   OH224523   8.215   7.075   4.652
 8189TIP3    H124524   8.240   6.987   4.622
 8189TIP3    H224525   8.281   7.133   4.613
 8190TIP3   OH224526   2.106   3.910   4.582
 8190TIP3    H124527   2.114   3.900   4.487
 8190TIP3    H224528   2.091   4.004   4.594
 8191TIP3   OH224529   6.630   1.259   5.467
 8191TIP3    H124530   6.562   1.214   5.417
 8191TIP3    H224531   6.649   1.200   5.540
 8192TIP3   OH224532   6.896   6.785   4.115
 8192TIP3    H124533   6.923   6.738   4.036
 8192TIP3    H224534   6.801   6.792   4.107
 8193TIP3   OH224535   6.006   1.960   5.111
 8193TIP3    H124536   6.020   2.046   5.151
 8193TIP3    H224537   6.005   1.978   5.017
 8194TIP3   OH224538   4.658   3.183   5.830
 8194TIP3    H124539   4.590   3.251   5.836
 8194TIP3    H224540   4.717   3.203   5.903
 8195TIP3   OH224541   5.284   1.687   4.964
 8195TIP3    H124542   5.220   1.677   4.893
 8195TIP3    H224543   5.243   1.642   5.039
 8196TIP3   OH224544   6.301   0.229   2.086
 8196TIP3    H124545   6.382   0.280   2.080
 8196TIP3    H224546   6.251   0.270   2.157
 8197TIP3   OH224547   4.908   7.259   5.974
 8197TIP3    H124548   4.900   7.192   5.906
 8197TIP3    H224549   4.818   7.275   6.003
 8198TIP3   OH224550   4.492   0.051   3.104
 8198TIP3    H124551   4.436   0.037   3.180
 8198TIP3    H224552   4.558  -0.017   3.110
 8199TIP3   OH224553   7.038   3.141   4.624
 8199TIP3    H124554   7.054   3.213   4.562
 8199TIP3    H224555   7.121   3.094   4.627
 8200TIP3   OH224556   5.531   6.536   1.752
 8200TIP3    H124557   5.463   6.559   1.815
 8200TIP3    H224558   5.594   6.609   1.757
 8201TIP3   OH224559   1.727   2.343   6.156
 8201TIP3    H124560   1.665   2.367   6.225
 8201TIP3    H224561   1.813   2.359   6.194
 8202TIP3   OH224562   5.945   0.093   2.023
 8202TIP3    H124563   5.857   0.113   2.055
 8202TIP3    H224564   5.992   0.060   2.099
 8203TIP3   OH224565   2.082   2.689   2.921
 8203TIP3    H124566   2.080   2.770   2.870
 8203TIP3    H224567   1.990   2.670   2.939
 8204TIP3   OH224568   5.340   5.134   3.564
 8204TIP3    H124569   5.365   5.201   3.627
 8204TIP3    H224570   5.246   5.125   3.574
 8205TIP3   OH224571   2.455   1.083   6.222
 8205TIP3    H124572   2.517   1.051   6.288
 8205TIP3    H224573   2.510   1.115   6.151
 8206TIP3   OH224574   5.202   7.356   2.091
 8206TIP3    H124575   5.123   7.406   2.110
 8206TIP3    H224576   5.179   7.304   2.013
 8207TIP3   OH224577   1.426   3.191   1.216
 8207TIP3    H124578   1.512   3.231   1.217
 8207TIP3    H224579   1.441   3.102   1.183
 8208TIP3   OH224580   5.075   5.171   3.143
 8208TIP3    H124581   5.151   5.117   3.120
 8208TIP3    H224582   5.111   5.256   3.165
 8209TIP3   OH224583   1.856   5.369   2.928
 8209TIP3    H124584   1.913   5.391   3.001
 8209TIP3    H224585   1.840   5.452   2.883
 8210TIP3   OH224586   2.684   2.438   5.615
 8210TIP3    H124587   2.685   2.347   5.644
 8210TIP3    H224588   2.774   2.455   5.586
 8211TIP3   OH224589   4.415   4.352   5.029
 8211TIP3    H124590   4.451   4.306   5.105
 8211TIP3    H224591   4.482   4.341   4.961
 8212TIP3   OH224592   5.318   7.766   5.645
 8212TIP3    H124593   5.244   7.782   5.587
 8212TIP3    H224594   5.280   7.768   5.733
 8213TIP3   OH224595   3.761   1.561   4.590
 8213TIP3    H124596   3.721   1.598   4.511
 8213TIP3    H224597   3.751   1.629   4.656
 8214TIP3   OH224598   1.321   4.139   5.741
 8214TIP3    H124599   1.295   4.175   5.656
 8214TIP3    H224600   1.416   4.126   5.733
 8215TIP3   OH224601   0.238   5.850   1.109
 8215TIP3    H124602   0.273   5.821   1.024
 8215TIP3    H224603   0.179   5.780   1.136
 8216TIP3   OH224604   7.408   7.792   6.282
 8216TIP3    H124605   7.483   7.843   6.251
 8216TIP3    H224606   7.353   7.782   6.204
 8217TIP3   OH224607   0.446   5.654   4.491
 8217TIP3    H124608   0.520   5.656   4.552
 8217TIP3    H224609   0.369   5.651   4.548
 8218TIP3   OH224610   5.782   4.762   3.526
 8218TIP3    H124611   5.752   4.769   3.435
 8218TIP3    H224612   5.764   4.847   3.564
 8219TIP3   OH224613   4.658   2.078   2.758
 8219TIP3    H124614   4.627   2.134   2.829
 8219TIP3    H224615   4.591   2.010   2.751
 8220TIP3   OH224616   2.094   4.618   3.240
 8220TIP3    H124617   2.162   4.678   3.211
 8220TIP3    H224618   2.083   4.557   3.167
 8221TIP3   OH224619   1.660   5.209   2.642
 8221TIP3    H124620   1.714   5.256   2.577
 8221TIP3    H224621   1.618   5.279   2.693
 8222TIP3   OH224622   6.645   7.446   5.255
 8222TIP3    H124623   6.569   7.456   5.312
 8222TIP3    H224624   6.622   7.496   5.176
 8223TIP3   OH224625   1.711   0.914   3.097
 8223TIP3    H124626   1.711   0.911   3.001
 8223TIP3    H224627   1.639   0.973   3.118
 8224TIP3   OH224628   2.446   0.721   0.816
 8224TIP3    H124629   2.443   0.726   0.911
 8224TIP3    H224630   2.357   0.696   0.790
 8225TIP3   OH224631   1.251   6.408   1.426
 8225TIP3    H124632   1.252   6.333   1.485
 8225TIP3    H224633   1.196   6.473   1.471
 8226TIP3   OH224634   0.769   1.853   4.783
 8226TIP3    H124635   0.743   1.876   4.872
 8226TIP3    H224636   0.865   1.848   4.786
 8227TIP3   OH224637   7.058   7.264   3.280
 8227TIP3    H124638   7.101   7.227   3.202
 8227TIP3    H224639   7.052   7.358   3.262
 8228TIP3   OH224640   1.870   1.225   2.113
 8228TIP3    H124641   1.939   1.192   2.171
 8228TIP3    H224642   1.855   1.153   2.052
 8229TIP3   OH224643   3.018   0.274   1.422
 8229TIP3    H124644   3.082   0.344   1.437
 8229TIP3    H224645   2.984   0.254   1.508
 8230TIP3   OH224646   6.153   4.791   1.001
 8230TIP3    H124647   6.084   4.730   0.976
 8230TIP3    H224648   6.218   4.783   0.932
 8231TIP3   OH224649   6.863   5.567   3.565
 8231TIP3    H124650   6.862   5.482   3.610
 8231TIP3    H224651   6.834   5.547   3.476
 8232TIP3   OH224652   5.180   6.028   2.270
 8232TIP3    H124653   5.119   5.954   2.264
 8232TIP3    H224654   5.241   6.003   2.340
 8233TIP3   OH224655   5.108   2.329   2.089
 8233TIP3    H124656   5.170   2.268   2.128
 8233TIP3    H224657   5.153   2.364   2.012
 8234TIP3   OH224658   5.718   4.251   6.179
 8234TIP3    H124659   5.745   4.297   6.258
 8234TIP3    H224660   5.766   4.168   6.182
 8235TIP3   OH224661   3.589   5.368   1.478
 8235TIP3    H124662   3.668   5.369   1.423
 8235TIP3    H224663   3.580   5.276   1.504
 8236TIP3   OH224664   5.851   1.146   6.516
 8236TIP3    H124665   5.777   1.091   6.490
 8236TIP3    H224666   5.881   1.187   6.435
 8237TIP3   OH224667   3.238   7.041   6.211
 8237TIP3    H124668   3.198   7.061   6.126
 8237TIP3    H224669   3.191   6.964   6.243
 8238TIP3   OH224670   5.840   5.992   4.286
 8238TIP3    H124671   5.798   5.979   4.372
 8238TIP3    H224672   5.840   5.905   4.246
 8239TIP3   OH224673   2.756   6.673   6.233
 8239TIP3    H124674   2.814   6.682   6.309
 8239TIP3    H224675   2.679   6.628   6.267
 8240TIP3   OH224676   4.574   4.520   2.429
 8240TIP3    H124677   4.615   4.433   2.420
 8240TIP3    H224678   4.621   4.561   2.502
 8241TIP3   OH224679   4.303   5.761   0.410
 8241TIP3    H124680   4.262   5.687   0.455
 8241TIP3    H224681   4.356   5.720   0.341
 8242TIP3   OH224682   1.627   2.041   2.212
 8242TIP3    H124683   1.609   2.031   2.119
 8242TIP3    H224684   1.564   1.983   2.255
 8243TIP3   OH224685   3.312   7.487   2.670
 8243TIP3    H124686   3.309   7.431   2.592
 8243TIP3    H224687   3.233   7.463   2.719
 8244TIP3   OH224688   6.919   7.373   3.702
 8244TIP3    H124689   6.904   7.280   3.687
 8244TIP3    H224690   6.849   7.399   3.761
 8245TIP3   OH224691   7.551   0.161   6.539
 8245TIP3    H124692   7.478   0.190   6.593
 8245TIP3    H224693   7.627   0.166   6.596
 8246TIP3   OH224694   0.216   4.610   1.685
 8246TIP3    H124695   0.245   4.520   1.673
 8246TIP3    H224696   0.123   4.608   1.664
 8247TIP3   OH224697   3.632   2.642   1.829
 8247TIP3    H124698   3.630   2.611   1.919
 8247TIP3    H224699   3.542   2.670   1.812
 8248TIP3   OH224700   0.408   0.080   5.408
 8248TIP3    H124701   0.430   0.082   5.315
 8248TIP3    H224702   0.399   0.173   5.432
 8249TIP3   OH224703   3.899   6.111   3.508
 8249TIP3    H124704   3.967   6.174   3.532
 8249TIP3    H224705   3.881   6.064   3.590
 8250TIP3   OH224706   7.154   6.908   3.343
 8250TIP3    H124707   7.154   6.851   3.421
 8250TIP3    H224708   7.077   6.964   3.356
 8251TIP3   OH224709   1.815   6.743   4.096
 8251TIP3    H124710   1.880   6.681   4.062
 8251TIP3    H224711   1.782   6.703   4.176
 8252TIP3   OH224712   5.387   7.217   6.472
 8252TIP3    H124713   5.418   7.307   6.467
 8252TIP3    H224714   5.361   7.195   6.383
 8253TIP3   OH224715   1.323   0.904   6.179
 8253TIP3    H124716   1.375   0.846   6.235
 8253TIP3    H224717   1.387   0.964   6.141
 8254TIP3   OH224718   1.463   5.363   4.021
 8254TIP3    H124719   1.437   5.455   4.019
 8254TIP3    H224720   1.558   5.365   4.011
 8255TIP3   OH224721   4.210   6.748   2.682
 8255TIP3    H124722   4.180   6.739   2.591
 8255TIP3    H224723   4.290   6.696   2.686
 8256TIP3   OH224724   6.648   4.523   3.623
 8256TIP3    H124725   6.718   4.520   3.688
 8256TIP3    H224726   6.583   4.583   3.661
 8257TIP3   OH224727   3.676   3.817   2.102
 8257TIP3    H124728   3.642   3.903   2.075
 8257TIP3    H224729   3.598   3.765   2.121
 8258TIP3   OH224730   0.017   6.902   1.585
 8258TIP3    H124731  -0.013   6.979   1.538
 8258TIP3    H224732   0.058   6.847   1.519
 8259TIP3   OH224733   2.352   2.010   4.438
 8259TIP3    H124734   2.413   1.941   4.413
 8259TIP3    H224735   2.356   2.013   4.533
 8260TIP3   OH224736   6.883   3.673   1.154
 8260TIP3    H124737   6.814   3.726   1.193
 8260TIP3    H224738   6.942   3.736   1.113
 8261TIP3   OH224739   2.090   4.564   2.719
 8261TIP3    H124740   2.140   4.645   2.711
 8261TIP3    H224741   2.131   4.504   2.658
 8262TIP3   OH224742   8.196   4.295   0.960
 8262TIP3    H124743   8.156   4.221   0.914
 8262TIP3    H224744   8.218   4.260   1.046
 8263TIP3   OH224745   0.530   0.434   3.754
 8263TIP3    H124746   0.599   0.496   3.776
 8263TIP3    H224747   0.481   0.423   3.835
 8264TIP3   OH224748   3.160   7.756   4.672
 8264TIP3    H124749   3.225   7.779   4.738
 8264TIP3    H224750   3.120   7.676   4.706
 8265TIP3   OH224751   6.332   7.588   3.166
 8265TIP3    H124752   6.256   7.610   3.219
 8265TIP3    H224753   6.303   7.600   3.075
 8266TIP3   OH224754   0.602   1.346   4.253
 8266TIP3    H124755   0.633   1.372   4.166
 8266TIP3    H224756   0.683   1.328   4.302
 8267TIP3   OH224757   5.385   2.935   1.658
 8267TIP3    H124758   5.353   2.997   1.724
 8267TIP3    H224759   5.335   2.955   1.579
 8268TIP3   OH224760   0.621   1.663   6.221
 8268TIP3    H124761   0.603   1.642   6.312
 8268TIP3    H224762   0.562   1.737   6.201
 8269TIP3   OH224763   0.038   3.854   5.569
 8269TIP3    H124764   0.133   3.848   5.581
 8269TIP3    H224765   0.022   3.812   5.484
 8270TIP3   OH224766   0.234   7.150   3.770
 8270TIP3    H124767   0.178   7.212   3.816
 8270TIP3    H224768   0.253   7.191   3.686
 8271TIP3   OH224769   0.966   6.307   1.146
 8271TIP3    H124770   0.937   6.242   1.211
 8271TIP3    H224771   1.032   6.359   1.192
 8272TIP3   OH224772   1.464   4.638   4.641
 8272TIP3    H124773   1.370   4.649   4.658
 8272TIP3    H224774   1.467   4.591   4.558
 8273TIP3   OH224775   0.681   0.376   6.044
 8273TIP3    H124776   0.773   0.373   6.018
 8273TIP3    H224777   0.675   0.453   6.101
 8274TIP3   OH224778   2.259   0.368   5.884
 8274TIP3    H124779   2.299   0.293   5.840
 8274TIP3    H224780   2.181   0.387   5.833
 8275TIP3   OH224781   7.705   1.001   4.381
 8275TIP3    H124782   7.649   1.030   4.453
 8275TIP3    H224783   7.699   1.072   4.317
 8276TIP3   OH224784   3.197   2.869   4.848
 8276TIP3    H124785   3.178   2.776   4.834
 8276TIP3    H224786   3.208   2.905   4.760
 8277TIP3   OH224787   4.534   2.544   5.859
 8277TIP3    H124788   4.528   2.460   5.905
 8277TIP3    H224789   4.448   2.584   5.870
 8278TIP3   OH224790   2.917   6.962   2.692
 8278TIP3    H124791   2.899   6.878   2.735
 8278TIP3    H224792   3.009   6.957   2.667
 8279TIP3   OH224793   8.211   6.813   2.633
 8279TIP3    H124794   8.132   6.835   2.583
 8279TIP3    H224795   8.183   6.817   2.725
 8280TIP3   OH224796   2.698   4.638   2.931
 8280TIP3    H124797   2.726   4.610   2.843
 8280TIP3    H224798   2.607   4.608   2.937
 8281TIP3   OH224799   2.477   0.760   3.277
 8281TIP3    H124800   2.451   0.768   3.185
 8281TIP3    H224801   2.501   0.849   3.303
 8282TIP3   OH224802   3.527   5.178   3.664
 8282TIP3    H124803   3.528   5.084   3.680
 8282TIP3    H224804   3.446   5.193   3.615
 8283TIP3   OH224805   6.261   7.404   2.537
 8283TIP3    H124806   6.223   7.323   2.502
 8283TIP3    H224807   6.222   7.473   2.484
 8284TIP3   OH224808   6.658   2.295   5.199
 8284TIP3    H124809   6.704   2.219   5.235
 8284TIP3    H224810   6.692   2.303   5.110
 8285TIP3   OH224811   3.394   6.598   4.899
 8285TIP3    H124812   3.407   6.504   4.909
 8285TIP3    H224813   3.316   6.606   4.845
 8286TIP3   OH224814   0.704   0.169   1.383
 8286TIP3    H124815   0.656   0.245   1.417
 8286TIP3    H224816   0.789   0.205   1.356
 8287TIP3   OH224817   3.100   4.325   2.091
 8287TIP3    H124818   3.126   4.416   2.074
 8287TIP3    H224819   3.076   4.291   2.005
 8288TIP3   OH224820   7.453   5.477   4.516
 8288TIP3    H124821   7.548   5.471   4.506
 8288TIP3    H224822   7.428   5.395   4.557
 8289TIP3   OH224823   1.751   1.888   2.806
 8289TIP3    H124824   1.679   1.833   2.774
 8289TIP3    H224825   1.830   1.848   2.770
 8290TIP3   OH224826   4.639   5.506   3.737
 8290TIP3    H124827   4.646   5.428   3.682
 8290TIP3    H224828   4.681   5.481   3.820
 8291TIP3   OH224829   3.469   5.654   5.198
 8291TIP3    H124830   3.405   5.584   5.185
 8291TIP3    H224831   3.475   5.697   5.113
 8292TIP3   OH224832  -0.004   2.257   3.126
 8292TIP3    H124833  -0.019   2.336   3.075
 8292TIP3    H224834   0.063   2.281   3.190
 8293TIP3   OH224835   7.038   5.637   2.699
 8293TIP3    H124836   6.989   5.711   2.734
 8293TIP3    H224837   7.086   5.603   2.774
 8294TIP3   OH224838   6.117   5.155   6.463
 8294TIP3    H124839   6.191   5.179   6.407
 8294TIP3    H224840   6.103   5.062   6.445
 8295TIP3   OH224841   0.160   1.328   0.214
 8295TIP3    H124842   0.243   1.301   0.176
 8295TIP3    H224843   0.141   1.263   0.282
 8296TIP3   OH224844   2.014   6.846   5.697
 8296TIP3    H124845   2.050   6.858   5.785
 8296TIP3    H224846   2.057   6.768   5.663
 8297TIP3   OH224847   7.095   4.785   4.673
 8297TIP3    H124848   7.011   4.741   4.681
 8297TIP3    H224849   7.153   4.718   4.636
 8298TIP3   OH224850   2.414   0.441   6.101
 8298TIP3    H124851   2.359   0.444   6.023
 8298TIP3    H224852   2.486   0.501   6.083
 8299TIP3   OH224853   4.289   1.562   6.513
 8299TIP3    H124854   4.309   1.489   6.455
 8299TIP3    H224855   4.356   1.557   6.581
 8300TIP3   OH224856   7.043   0.491   5.184
 8300TIP3    H124857   7.129   0.485   5.225
 8300TIP3    H224858   7.041   0.420   5.120
 8301TIP3   OH224859   4.833   0.708   0.448
 8301TIP3    H124860   4.793   0.622   0.460
 8301TIP3    H224861   4.759   0.769   0.447
 8302TIP3   OH224862   2.572   5.413   3.719
 8302TIP3    H124863   2.517   5.383   3.791
 8302TIP3    H224864   2.644   5.460   3.762
 8303TIP3   OH224865   6.116   1.575   1.613
 8303TIP3    H124866   6.210   1.556   1.608
 8303TIP3    H224867   6.109   1.651   1.670
 8304TIP3   OH224868   7.949   1.316   5.776
 8304TIP3    H124869   7.998   1.271   5.708
 8304TIP3    H224870   7.889   1.250   5.810
 8305TIP3   OH224871   5.615   1.616   5.839
 8305TIP3    H124872   5.698   1.663   5.836
 8305TIP3    H224873   5.554   1.670   5.788
 8306TIP3   OH224874   5.843   5.291   1.977
 8306TIP3    H124875   5.937   5.308   1.972
 8306TIP3    H224876   5.810   5.315   1.890
 8307TIP3   OH224877   3.370   3.407   4.613
 8307TIP3    H124878   3.447   3.434   4.663
 8307TIP3    H224879   3.304   3.386   4.679
 8308TIP3   OH224880   6.506   1.730   4.262
 8308TIP3    H124881   6.434   1.678   4.225
 8308TIP3    H224882   6.465   1.777   4.335
 8309TIP3   OH224883   1.456   1.029   0.186
 8309TIP3    H124884   1.385   1.089   0.162
 8309TIP3    H224885   1.530   1.086   0.206
 8310TIP3   OH224886   5.578   3.124   1.239
 8310TIP3    H124887   5.663   3.156   1.209
 8310TIP3    H224888   5.599   3.056   1.303
 8311TIP3   OH224889   7.456   5.251   4.254
 8311TIP3    H124890   7.542   5.272   4.291
 8311TIP3    H224891   7.411   5.335   4.248
 8312TIP3   OH224892   3.179   5.373   2.362
 8312TIP3    H124893   3.241   5.318   2.314
 8312TIP3    H224894   3.125   5.413   2.295
 8313TIP3   OH224895   3.165   5.298   1.929
 8313TIP3    H124896   3.077   5.329   1.907
 8313TIP3    H224897   3.214   5.308   1.848
 8314TIP3   OH224898   0.301   7.729   4.996
 8314TIP3    H124899   0.332   7.694   5.079
 8314TIP3    H224900   0.234   7.794   5.020
 8315TIP3   OH224901   5.821   7.187   2.831
 8315TIP3    H124902   5.798   7.239   2.908
 8315TIP3    H224903   5.914   7.207   2.816
 8316TIP3   OH224904   8.172   1.539   3.348
 8316TIP3    H124905   8.123   1.565   3.270
 8316TIP3    H224906   8.105   1.517   3.413
 8317TIP3   OH224907   1.599   5.698   0.325
 8317TIP3    H124908   1.609   5.758   0.252
 8317TIP3    H224909   1.672   5.718   0.383
 8318TIP3   OH224910   3.484   0.505   1.749
 8318TIP3    H124911   3.464   0.494   1.842
 8318TIP3    H224912   3.461   0.421   1.709
 8319TIP3   OH224913   1.646   7.136   1.737
 8319TIP3    H124914   1.576   7.201   1.747
 8319TIP3    H224915   1.618   7.081   1.665
 8320TIP3   OH224916   1.485   3.993   0.296
 8320TIP3    H124917   1.448   4.055   0.234
 8320TIP3    H224918   1.549   3.943   0.245
 8321TIP3   OH224919   0.167   7.132   1.793
 8321TIP3    H124920   0.215   7.209   1.763
 8321TIP3    H224921   0.122   7.161   1.873
 8322TIP3   OH224922   2.138   3.767   0.444
 8322TIP3    H124923   2.153   3.727   0.358
 8322TIP3    H224924   2.225   3.784   0.479
 8323TIP3   OH224925   4.513   1.810   2.820
 8323TIP3    H124926   4.490   1.819   2.912
 8323TIP3    H224927   4.503   1.717   2.802
 8324TIP3   OH224928   6.321   1.319   5.608
 8324TIP3    H124929   6.229   1.346   5.612
 8324TIP3    H224930   6.337   1.304   5.515
 8325TIP3   OH224931   7.727   5.905   6.766
 8325TIP3    H124932   7.706   5.982   6.713
 8325TIP3    H224933   7.672   5.836   6.731
 8326TIP3   OH224934   6.840   0.376   0.216
 8326TIP3    H124935   6.893   0.299   0.235
 8326TIP3    H224936   6.755   0.356   0.255
 8327TIP3   OH224937   6.721   6.765   0.012
 8327TIP3    H124938   6.732   6.837   0.074
 8327TIP3    H224939   6.738   6.686   0.064
 8328TIP3   OH224940   8.097   4.638   5.317
 8328TIP3    H124941   8.002   4.646   5.306
 8328TIP3    H224942   8.116   4.692   5.394
 8329TIP3   OH224943   3.101   4.903   4.303
 8329TIP3    H124944   3.163   4.835   4.328
 8329TIP3    H224945   3.065   4.874   4.220
 8330TIP3   OH224946   4.173   6.317   0.916
 8330TIP3    H124947   4.229   6.385   0.954
 8330TIP3    H224948   4.228   6.239   0.913
 8331TIP3   OH224949   5.794   5.636   1.344
 8331TIP3    H124950   5.837   5.568   1.291
 8331TIP3    H224951   5.719   5.592   1.383
 8332TIP3   OH224952   0.381   4.615   0.397
 8332TIP3    H124953   0.381   4.651   0.486
 8332TIP3    H224954   0.366   4.691   0.340
 8333TIP3   OH224955   8.269   5.893   5.776
 8333TIP3    H124956   8.237   5.803   5.775
 8333TIP3    H224957   8.351   5.890   5.725
 8334TIP3   OH224958   0.909   1.481   3.518
 8334TIP3    H124959   0.938   1.471   3.608
 8334TIP3    H224960   0.988   1.469   3.466
 8335TIP3   OH224961   1.501   7.199   0.328
 8335TIP3    H124962   1.511   7.136   0.258
 8335TIP3    H224963   1.524   7.151   0.408
 8336TIP3   OH224964   5.844   0.410   3.903
 8336TIP3    H124965   5.873   0.319   3.899
 8336TIP3    H224966   5.750   0.406   3.917
 8337TIP3   OH224967   0.923   0.251   2.594
 8337TIP3    H124968   0.941   0.323   2.533
 8337TIP3    H224969   0.904   0.295   2.677
 8338TIP3   OH224970   5.209   6.700   1.481
 8338TIP3    H124971   5.263   6.777   1.500
 8338TIP3    H224972   5.262   6.626   1.508
 8339TIP3   OH224973   5.742   7.757   1.496
 8339TIP3    H124974   5.722   7.716   1.411
 8339TIP3    H224975   5.677   7.828   1.503
 8340TIP3   OH224976   7.959   3.379   6.261
 8340TIP3    H124977   7.894   3.315   6.232
 8340TIP3    H224978   7.984   3.348   6.349
 8341TIP3   OH224979   1.756   2.934   1.316
 8341TIP3    H124980   1.739   2.849   1.356
 8341TIP3    H224981   1.693   2.941   1.245
 8342TIP3   OH224982   0.455   0.682   6.520
 8342TIP3    H124983   0.398   0.744   6.563
 8342TIP3    H224984   0.456   0.709   6.428
 8343TIP3   OH224985   5.406   5.336   1.189
 8343TIP3    H124986   5.414   5.401   1.119
 8343TIP3    H224987   5.314   5.339   1.215
 8344TIP3   OH224988   4.407   7.425   6.676
 8344TIP3    H124989   4.431   7.504   6.628
 8344TIP3    H224990   4.447   7.436   6.762
 8345TIP3   OH224991   5.232   1.985   1.379
 8345TIP3    H124992   5.241   2.065   1.430
 8345TIP3    H224993   5.311   1.982   1.325
 8346TIP3   OH224994   3.080   1.261   2.384
 8346TIP3    H124995   3.041   1.216   2.309
 8346TIP3    H224996   3.134   1.330   2.344
 8347TIP3   OH224997   5.038   0.387   1.534
 8347TIP3    H124998   4.966   0.326   1.521
 8347TIP3    H224999   5.060   0.379   1.627
 8348TIP3   OH225000   5.032   1.872   5.568
 8348TIP3    H125001   5.104   1.814   5.545
 8348TIP3    H225002   5.072   1.940   5.622
 8349TIP3   OH225003   8.135   3.667   1.887
 8349TIP3    H125004   8.089   3.586   1.864
 8349TIP3    H225005   8.082   3.707   1.956
 8350TIP3   OH225006   6.618   6.293   0.414
 8350TIP3    H125007   6.616   6.345   0.495
 8350TIP3    H225008   6.539   6.239   0.419
 8351TIP3   OH225009   0.033   7.317   3.890
 8351TIP3    H125010  -0.023   7.353   3.821
 8351TIP3    H225011   0.048   7.390   3.950
 8352TIP3   OH225012   0.462   6.419   1.628
 8352TIP3    H125013   0.381   6.370   1.642
 8352TIP3    H225014   0.504   6.374   1.554
 8353TIP3   OH225015   3.005   4.521   4.200
 8353TIP3    H125016   3.008   4.591   4.136
 8353TIP3    H225017   3.077   4.539   4.260
 8354TIP3   OH225018   1.317   0.026   3.091
 8354TIP3    H125019   1.388   0.063   3.144
 8354TIP3    H225020   1.295  -0.056   3.135
 8355TIP3   OH225021   1.006   1.042   5.796
 8355TIP3    H125022   0.988   0.969   5.855
 8355TIP3    H225023   1.075   1.010   5.738
 8356TIP3   OH225024   3.511   5.161   1.832
 8356TIP3    H125025   3.504   5.146   1.738
 8356TIP3    H225026   3.584   5.223   1.840
 8357TIP3   OH225027   0.722   6.038   2.277
 8357TIP3    H125028   0.686   6.119   2.314
 8357TIP3    H225029   0.726   5.978   2.351
 8358TIP3   OH225030   5.799   0.281   5.906
 8358TIP3    H125031   5.831   0.192   5.918
 8358TIP3    H225032   5.838   0.331   5.977
 8359TIP3   OH225033   0.400   6.653   1.394
 8359TIP3    H125034   0.334   6.647   1.463
 8359TIP3    H225035   0.406   6.565   1.358
 8360TIP3   OH225036   4.293   4.539   0.284
 8360TIP3    H125037   4.339   4.550   0.201
 8360TIP3    H225038   4.362   4.537   0.350
 8361TIP3   OH225039   5.824   1.721   4.218
 8361TIP3    H125040   5.749   1.700   4.161
 8361TIP3    H225041   5.825   1.817   4.222
 8362TIP3   OH225042   2.158   5.274   4.624
 8362TIP3    H125043   2.182   5.363   4.650
 8362TIP3    H225044   2.201   5.217   4.688
 8363TIP3   OH225045   1.287   2.142   0.465
 8363TIP3    H125046   1.236   2.203   0.518
 8363TIP3    H225047   1.264   2.162   0.375
 8364TIP3   OH225048   8.010   3.989   1.610
 8364TIP3    H125049   7.934   3.934   1.629
 8364TIP3    H225050   7.983   4.077   1.636
 8365TIP3   OH225051   1.803   5.069   5.809
 8365TIP3    H125052   1.773   5.128   5.740
 8365TIP3    H225053   1.748   4.991   5.798
 8366TIP3   OH225054   4.689   2.313   0.075
 8366TIP3    H125055   4.733   2.378   0.129
 8366TIP3    H225056   4.623   2.363   0.027
 8367TIP3   OH225057   5.509   4.607   5.958
 8367TIP3    H125058   5.473   4.691   5.987
 8367TIP3    H225059   5.439   4.568   5.905
 8368TIP3   OH225060   5.362   1.347   6.290
 8368TIP3    H125061   5.283   1.402   6.287
 8368TIP3    H225062   5.386   1.345   6.382
 8369TIP3   OH225063   8.155   1.026   3.512
 8369TIP3    H125064   8.124   0.948   3.464
 8369TIP3    H225065   8.196   1.080   3.445
 8370TIP3   OH225066   7.986   4.677   2.154
 8370TIP3    H125067   8.075   4.641   2.155
 8370TIP3    H225068   7.929   4.602   2.139
 8371TIP3   OH225069   4.839   4.060   3.391
 8371TIP3    H125070   4.789   4.122   3.445
 8371TIP3    H225071   4.780   3.986   3.378
 8372TIP3   OH225072   1.531   4.868   6.363
 8372TIP3    H125073   1.578   4.848   6.444
 8372TIP3    H225074   1.526   4.785   6.317
 8373TIP3   OH225075   4.552   7.548   1.699
 8373TIP3    H125076   4.461   7.539   1.669
 8373TIP3    H225077   4.551   7.625   1.756
 8374TIP3   OH225078   3.620   0.749   4.063
 8374TIP3    H125079   3.635   0.819   4.000
 8374TIP3    H225080   3.693   0.756   4.124
 8375TIP3   OH225081   8.161   4.534   2.913
 8375TIP3    H125082   8.120   4.448   2.916
 8375TIP3    H225083   8.211   4.534   2.831
 8376TIP3   OH225084   1.725   6.827   0.294
 8376TIP3    H125085   1.649   6.785   0.334
 8376TIP3    H225086   1.750   6.769   0.222
 8377TIP3   OH225087   0.833   4.995   0.823
 8377TIP3    H125088   0.885   4.939   0.881
 8377TIP3    H225089   0.873   5.082   0.832
 8378TIP3   OH225090   5.062   1.268   5.463
 8378TIP3    H125091   5.020   1.353   5.480
 8378TIP3    H225092   5.156   1.287   5.466
 8379TIP3   OH225093   5.329   5.672   2.527
 8379TIP3    H125094   5.255   5.730   2.546
 8379TIP3    H225095   5.329   5.665   2.431
 8380TIP3   OH225096   6.692   6.651   0.362
 8380TIP3    H125097   6.712   6.611   0.277
 8380TIP3    H225098   6.597   6.663   0.361
 8381TIP3   OH225099   6.330   7.421   0.669
 8381TIP3    H125100   6.262   7.358   0.695
 8381TIP3    H225101   6.319   7.494   0.729
 8382TIP3   OH225102   3.888   3.480   6.062
 8382TIP3    H125103   3.941   3.481   6.141
 8382TIP3    H225104   3.819   3.415   6.080
 8383TIP3   OH225105   3.039   5.600   3.269
 8383TIP3    H125106   3.073   5.559   3.189
 8383TIP3    H225107   2.946   5.575   3.271
 8384TIP3   OH225108   4.135   6.751   4.231
 8384TIP3    H125109   4.190   6.796   4.166
 8384TIP3    H225110   4.172   6.778   4.315
 8385TIP3   OH225111   3.855   4.601   5.382
 8385TIP3    H125112   3.775   4.631   5.424
 8385TIP3    H225113   3.922   4.609   5.449
 8386TIP3   OH225114   1.428   7.749   1.364
 8386TIP3    H125115   1.475   7.819   1.318
 8386TIP3    H225116   1.402   7.688   1.295
 8387TIP3   OH225117   0.868   5.928   5.725
 8387TIP3    H125118   0.833   5.843   5.751
 8387TIP3    H225119   0.912   5.961   5.803
 8388TIP3   OH225120   1.333   5.187   1.333
 8388TIP3    H125121   1.413   5.139   1.311
 8388TIP3    H225122   1.303   5.224   1.250
 8389TIP3   OH225123   6.691   4.829   2.348
 8389TIP3    H125124   6.712   4.837   2.441
 8389TIP3    H225125   6.599   4.804   2.347
 8390TIP3   OH225126   0.192   6.075   6.535
 8390TIP3    H125127   0.240   6.154   6.512
 8390TIP3    H225128   0.164   6.038   6.452
 8391TIP3   OH225129   7.455   5.345   3.523
 8391TIP3    H125130   7.383   5.356   3.585
 8391TIP3    H225131   7.533   5.337   3.577
 8392TIP3   OH225132   4.638   3.281   0.330
 8392TIP3    H125133   4.548   3.250   0.319
 8392TIP3    H225134   4.692   3.203   0.316
 8393TIP3   OH225135   5.421   0.990   5.480
 8393TIP3    H125136   5.463   0.977   5.566
 8393TIP3    H225137   5.478   1.052   5.435
 8394TIP3   OH225138   6.141   0.908   5.121
 8394TIP3    H125139   6.120   1.001   5.116
 8394TIP3    H225140   6.181   0.887   5.037
 8395TIP3   OH225141   5.891   3.600   3.353
 8395TIP3    H125142   5.952   3.591   3.426
 8395TIP3    H225143   5.847   3.684   3.369
 8396TIP3   OH225144   1.798   2.139   6.465
 8396TIP3    H125145   1.717   2.169   6.507
 8396TIP3    H225146   1.848   2.219   6.450
 8397TIP3   OH225147   2.993   0.829   2.582
 8397TIP3    H125148   3.046   0.840   2.503
 8397TIP3    H225149   3.045   0.871   2.651
 8398TIP3   OH225150   3.930   5.702   3.794
 8398TIP3    H125151   3.933   5.738   3.705
 8398TIP3    H225152   3.999   5.750   3.840
 8399TIP3   OH225153   4.009   3.742   0.847
 8399TIP3    H125154   3.929   3.788   0.870
 8399TIP3    H225155   4.076   3.810   0.844
 8400TIP3   OH225156   5.347   5.977   5.486
 8400TIP3    H125157   5.332   5.995   5.393
 8400TIP3    H225158   5.376   6.061   5.522
 8401TIP3   OH225159   3.930   3.056   0.444
 8401TIP3    H125160   4.010   3.060   0.393
 8401TIP3    H225161   3.860   3.074   0.381
 8402TIP3   OH225162   8.046   7.548   1.568
 8402TIP3    H125163   7.954   7.524   1.578
 8402TIP3    H225164   8.068   7.520   1.478
 8403TIP3   OH225165   3.121   1.457   1.499
 8403TIP3    H125166   3.150   1.368   1.520
 8403TIP3    H225167   3.063   1.481   1.571
 8404TIP3   OH225168   6.747   1.824   5.061
 8404TIP3    H125169   6.717   1.858   4.977
 8404TIP3    H225170   6.822   1.878   5.084
 8405TIP3   OH225171   5.221   2.433   5.078
 8405TIP3    H125172   5.196   2.349   5.039
 8405TIP3    H225173   5.309   2.450   5.045
 8406TIP3   OH225174   5.252   0.793   1.985
 8406TIP3    H125175   5.254   0.755   1.896
 8406TIP3    H225176   5.262   0.717   2.043
 8407TIP3   OH225177   1.680   4.874   5.676
 8407TIP3    H125178   1.706   4.859   5.585
 8407TIP3    H225179   1.595   4.917   5.671
 8408TIP3   OH225180   0.644   2.700   6.240
 8408TIP3    H125181   0.622   2.609   6.220
 8408TIP3    H225182   0.737   2.708   6.218
 8409TIP3   OH225183   0.476   7.792   4.466
 8409TIP3    H125184   0.414   7.846   4.516
 8409TIP3    H225185   0.465   7.704   4.501
 8410TIP3   OH225186   3.067   7.158   2.135
 8410TIP3    H125187   3.102   7.236   2.178
 8410TIP3    H225188   2.987   7.188   2.091
 8411TIP3   OH225189   0.091   2.823   3.342
 8411TIP3    H125190   0.185   2.835   3.353
 8411TIP3    H225191   0.052   2.871   3.415
 8412TIP3   OH225192   0.060   4.038   1.769
 8412TIP3    H125193   0.036   3.969   1.708
 8412TIP3    H225194   0.030   4.005   1.854
 8413TIP3   OH225195   2.270   7.099   1.305
 8413TIP3    H125196   2.208   7.147   1.251
 8413TIP3    H225197   2.351   7.149   1.300
 8414TIP3   OH225198   7.381   2.069   4.975
 8414TIP3    H125199   7.367   2.140   4.912
 8414TIP3    H225200   7.475   2.051   4.970
 8415TIP3   OH225201   2.898   2.895   3.064
 8415TIP3    H125202   2.838   2.899   2.990
 8415TIP3    H225203   2.921   2.802   3.072
 8416TIP3   OH225204   7.687   6.809   3.714
 8416TIP3    H125205   7.629   6.742   3.750
 8416TIP3    H225206   7.773   6.769   3.712
 8417TIP3   OH225207   0.763   0.168   2.994
 8417TIP3    H125208   0.670   0.164   3.012
 8417TIP3    H225209   0.775   0.112   2.917
 8418TIP3   OH225210   3.472   4.373   5.892
 8418TIP3    H125211   3.514   4.296   5.853
 8418TIP3    H225212   3.489   4.364   5.986
 8419TIP3   OH225213   1.658   3.426   0.540
 8419TIP3    H125214   1.595   3.498   0.538
 8419TIP3    H225215   1.637   3.374   0.462
 8420TIP3   OH225216   0.794   1.221   1.930
 8420TIP3    H125217   0.750   1.169   1.863
 8420TIP3    H225218   0.812   1.305   1.886
 8421TIP3   OH225219   3.331   0.897   3.119
 8421TIP3    H125220   3.290   0.824   3.071
 8421TIP3    H225221   3.402   0.855   3.169
 8422TIP3   OH225222   6.195   4.070   4.433
 8422TIP3    H125223   6.183   4.099   4.523
 8422TIP3    H225224   6.106   4.049   4.403
 8423TIP3   OH225225   1.864   1.686   4.012
 8423TIP3    H125226   1.902   1.741   4.080
 8423TIP3    H225227   1.770   1.706   4.014
 8424TIP3   OH225228   1.207   7.186   4.336
 8424TIP3    H125229   1.170   7.168   4.422
 8424TIP3    H225230   1.224   7.100   4.298
 8425TIP3   OH225231   0.532   5.980   3.275
 8425TIP3    H125232   0.567   5.955   3.361
 8425TIP3    H225233   0.609   5.984   3.218
 8426TIP3   OH225234   0.561   7.782   1.673
 8426TIP3    H125235   0.643   7.788   1.623
 8426TIP3    H225236   0.589   7.767   1.763
 8427TIP3   OH225237   4.646   5.914   2.220
 8427TIP3    H125238   4.700   5.973   2.167
 8427TIP3    H225239   4.558   5.924   2.186
 8428TIP3   OH225240   6.316   4.023   6.237
 8428TIP3    H125241   6.357   4.109   6.240
 8428TIP3    H225242   6.276   4.018   6.150
 8429TIP3   OH225243   7.898   0.077   2.242
 8429TIP3    H125244   7.831   0.135   2.279
 8429TIP3    H225245   7.967   0.135   2.212
 8430TIP3   OH225246   7.890   4.741   3.935
 8430TIP3    H125247   7.893   4.835   3.952
 8430TIP3    H225248   7.976   4.709   3.962
 8431TIP3   OH225249   6.766   4.386   6.631
 8431TIP3    H125250   6.820   4.434   6.694
 8431TIP3    H225251   6.828   4.352   6.566
 8432TIP3   OH225252   3.428   1.031   6.525
 8432TIP3    H125253   3.463   1.078   6.449
 8432TIP3    H225254   3.468   0.944   6.519
 8433TIP3   OH225255   5.411   6.077   2.021
 8433TIP3    H125256   5.412   6.040   2.109
 8433TIP3    H225257   5.331   6.041   1.981
 8434TIP3   OH225258   1.126   0.232   4.900
 8434TIP3    H125259   1.084   0.267   4.821
 8434TIP3    H225260   1.220   0.240   4.883
 8435TIP3   OH225261   6.839   3.807   1.416
 8435TIP3    H125262   6.756   3.797   1.369
 8435TIP3    H225263   6.815   3.813   1.508
 8436TIP3   OH225264   5.159   0.597   4.757
 8436TIP3    H125265   5.065   0.618   4.758
 8436TIP3    H225266   5.202   0.679   4.781
 8437TIP3   OH225267   6.413   6.890   3.800
 8437TIP3    H125268   6.457   6.937   3.729
 8437TIP3    H225269   6.331   6.859   3.760
 8438TIP3   OH225270   2.944   7.183   4.190
 8438TIP3    H125271   2.979   7.206   4.276
 8438TIP3    H225272   2.855   7.152   4.209
 8439TIP3   OH225273   2.201   3.908   3.774
 8439TIP3    H125274   2.252   3.942   3.700
 8439TIP3    H225275   2.132   3.973   3.788
 8440TIP3   OH225276   5.757   5.930   5.211
 8440TIP3    H125277   5.754   5.995   5.281
 8440TIP3    H225278   5.675   5.943   5.163
 8441TIP3   OH225279   0.274   2.662   2.053
 8441TIP3    H125280   0.244   2.650   2.143
 8441TIP3    H225281   0.329   2.740   2.056
 8442TIP3   OH225282   1.233   6.781   1.177
 8442TIP3    H125283   1.204   6.794   1.268
 8442TIP3    H225284   1.180   6.841   1.126
 8443TIP3   OH225285   3.028   1.099   0.946
 8443TIP3    H125286   3.112   1.059   0.969
 8443TIP3    H225287   2.963   1.032   0.969
 8444TIP3   OH225288   7.306   6.922   1.813
 8444TIP3    H125289   7.302   6.902   1.720
 8444TIP3    H225290   7.399   6.924   1.833
 8445TIP3   OH225291   1.590   4.294   4.567
 8445TIP3    H125292   1.570   4.212   4.523
 8445TIP3    H225293   1.665   4.273   4.624
 8446TIP3   OH225294   5.140   4.384   6.158
 8446TIP3    H125295   5.096   4.302   6.181
 8446TIP3    H225296   5.167   4.371   6.067
 8447TIP3   OH225297   2.723   1.571   3.705
 8447TIP3    H125298   2.797   1.519   3.673
 8447TIP3    H225299   2.646   1.527   3.670
 8448TIP3   OH225300   5.305   7.118   0.628
 8448TIP3    H125301   5.215   7.148   0.620
 8448TIP3    H225302   5.323   7.121   0.722
 8449TIP3   OH225303   0.168   2.105   1.673
 8449TIP3    H125304   0.259   2.083   1.692
 8449TIP3    H225305   0.174   2.170   1.603
 8450TIP3   OH225306   7.693   6.384   2.018
 8450TIP3    H125307   7.764   6.434   1.978
 8450TIP3    H225308   7.738   6.318   2.072
 8451TIP3   OH225309   4.571   5.205   6.800
 8451TIP3    H125310   4.528   5.215   6.715
 8451TIP3    H225311   4.641   5.270   6.799
 8452TIP3   OH225312   1.884   3.503   2.765
 8452TIP3    H125313   1.799   3.473   2.736
 8452TIP3    H225314   1.865   3.565   2.836
 8453TIP3   OH225315   8.299   4.065   3.729
 8453TIP3    H125316   8.249   4.113   3.664
 8453TIP3    H225317   8.232   4.016   3.779
 8454TIP3   OH225318   4.117   5.555   1.878
 8454TIP3    H125319   4.150   5.642   1.900
 8454TIP3    H225320   4.184   5.519   1.820
 8455TIP3   OH225321   1.013   2.097   0.839
 8455TIP3    H125322   1.074   2.046   0.892
 8455TIP3    H225323   0.999   2.178   0.889
 8456TIP3   OH225324   7.516   2.696   2.744
 8456TIP3    H125325   7.552   2.775   2.786
 8456TIP3    H225326   7.422   2.711   2.742
 8457TIP3   OH225327   6.617   3.898   1.971
 8457TIP3    H125328   6.584   3.910   1.882
 8457TIP3    H225329   6.712   3.906   1.964
 8458TIP3   OH225330   0.815   5.197   6.752
 8458TIP3    H125331   0.799   5.107   6.780
 8458TIP3    H225332   0.739   5.219   6.698
 8459TIP3   OH225333   1.810   0.895   0.512
 8459TIP3    H125334   1.772   0.858   0.432
 8459TIP3    H225335   1.854   0.820   0.553
 8460TIP3   OH225336   7.826   1.067   1.779
 8460TIP3    H125337   7.776   1.003   1.728
 8460TIP3    H225338   7.798   1.151   1.744
 8461TIP3   OH225339   3.125   1.161   6.201
 8461TIP3    H125340   3.168   1.240   6.235
 8461TIP3    H225341   3.081   1.123   6.276
 8462TIP3   OH225342   2.315   2.821   0.273
 8462TIP3    H125343   2.272   2.779   0.198
 8462TIP3    H225344   2.383   2.876   0.235
 8463TIP3   OH225345   3.969   5.320   1.656
 8463TIP3    H125346   3.960   5.254   1.587
 8463TIP3    H225347   3.939   5.402   1.615
 8464TIP3   OH225348   0.736   3.048   6.745
 8464TIP3    H125349   0.744   3.142   6.763
 8464TIP3    H225350   0.654   3.023   6.787
 8465TIP3   OH225351   2.414   6.192   6.230
 8465TIP3    H125352   2.433   6.104   6.262
 8465TIP3    H225353   2.411   6.246   6.310
 8466TIP3   OH225354   7.910   2.821   5.585
 8466TIP3    H125355   7.983   2.761   5.595
 8466TIP3    H225356   7.840   2.768   5.546
 8467TIP3   OH225357   0.883   1.155   4.286
 8467TIP3    H125358   0.810   1.114   4.332
 8467TIP3    H225359   0.907   1.091   4.218
 8468TIP3   OH225360   5.894   5.691   1.585
 8468TIP3    H125361   5.847   5.772   1.607
 8468TIP3    H225362   5.877   5.678   1.492
 8469TIP3   OH225363   2.248   1.564   0.496
 8469TIP3    H125364   2.314   1.627   0.523
 8469TIP3    H225365   2.166   1.598   0.531
 8470TIP3   OH225366   0.094   7.671   5.741
 8470TIP3    H125367   0.134   7.748   5.700
 8470TIP3    H225368   0.051   7.706   5.819
 8471TIP3   OH225369   4.574   5.396   6.023
 8471TIP3    H125370   4.487   5.395   5.982
 8471TIP3    H225371   4.610   5.309   6.004
 8472TIP3   OH225372   8.223   6.094   2.042
 8472TIP3    H125373   8.226   6.186   2.066
 8472TIP3    H225374   8.222   6.047   2.126
 8473TIP3   OH225375   6.351   4.230   0.601
 8473TIP3    H125376   6.285   4.192   0.658
 8473TIP3    H225377   6.424   4.252   0.659
 8474TIP3   OH225378   3.268   4.511   4.620
 8474TIP3    H125379   3.252   4.454   4.545
 8474TIP3    H225380   3.340   4.567   4.592
 8475TIP3   OH225381   1.962   3.654   2.225
 8475TIP3    H125382   1.949   3.706   2.146
 8475TIP3    H225383   1.984   3.567   2.193
 8476TIP3   OH225384   7.339   3.964   0.096
 8476TIP3    H125385   7.379   4.001   0.175
 8476TIP3    H225386   7.277   3.899   0.129
 8477TIP3   OH225387   7.253   5.370   2.393
 8477TIP3    H125388   7.269   5.281   2.361
 8477TIP3    H225389   7.289   5.370   2.482
 8478TIP3   OH225390   5.736   6.642   0.190
 8478TIP3    H125391   5.779   6.725   0.207
 8478TIP3    H225392   5.806   6.582   0.166
 8479TIP3   OH225393   4.405   4.135   3.973
 8479TIP3    H125394   4.430   4.095   4.056
 8479TIP3    H225395   4.326   4.185   3.994
 8480TIP3   OH225396   2.064   1.484   3.975
 8480TIP3    H125397   2.024   1.426   3.909
 8480TIP3    H225398   1.999   1.553   3.987
 8481TIP3   OH225399   5.147   3.337   1.332
 8481TIP3    H125400   5.054   3.316   1.338
 8481TIP3    H225401   5.182   3.276   1.267
 8482TIP3   OH225402   1.781   5.763   2.328
 8482TIP3    H125403   1.864   5.734   2.290
 8482TIP3    H225404   1.714   5.733   2.267
 8483TIP3   OH225405   7.821   7.585   5.596
 8483TIP3    H125406   7.879   7.517   5.562
 8483TIP3    H225407   7.856   7.605   5.682
 8484TIP3   OH225408   8.066   1.324   4.701
 8484TIP3    H125409   8.001   1.282   4.644
 8484TIP3    H225410   8.150   1.307   4.658
 8485TIP3   OH225411   2.003   0.411   3.271
 8485TIP3    H125412   1.916   0.452   3.273
 8485TIP3    H225413   1.987   0.323   3.238
 8486TIP3   OH225414   4.650   1.875   3.607
 8486TIP3    H125415   4.638   1.893   3.514
 8486TIP3    H225416   4.637   1.960   3.649
 8487TIP3   OH225417   2.600   6.875   4.512
 8487TIP3    H125418   2.583   6.955   4.561
 8487TIP3    H225419   2.520   6.860   4.462
 8488TIP3   OH225420   5.663   0.122   4.662
 8488TIP3    H125421   5.683   0.065   4.736
 8488TIP3    H225422   5.716   0.200   4.678
 8489TIP3   OH225423   7.824   4.510   1.378
 8489TIP3    H125424   7.854   4.597   1.401
 8489TIP3    H225425   7.817   4.511   1.283
 8490TIP3   OH225426   2.130   7.230   2.289
 8490TIP3    H125427   2.220   7.249   2.265
 8490TIP3    H225428   2.106   7.153   2.238
 8491TIP3   OH225429   2.128   5.903   6.270
 8491TIP3    H125430   2.086   5.957   6.338
 8491TIP3    H225431   2.179   5.839   6.320
 8492TIP3   OH225432   1.724   0.482   5.339
 8492TIP3    H125433   1.646   0.437   5.307
 8492TIP3    H225434   1.795   0.420   5.326
 8493TIP3   OH225435   7.286   0.293   1.025
 8493TIP3    H125436   7.236   0.241   0.962
 8493TIP3    H225437   7.374   0.256   1.023
 8494TIP3   OH225438   0.133   6.482   5.524
 8494TIP3    H125439   0.121   6.536   5.602
 8494TIP3    H225440   0.151   6.544   5.454
 8495TIP3   OH225441   3.966   7.385   2.456
 8495TIP3    H125442   3.927   7.303   2.425
 8495TIP3    H225443   4.051   7.359   2.492
 8496TIP3   OH225444   6.543   5.427   3.770
 8496TIP3    H125445   6.521   5.496   3.708
 8496TIP3    H225446   6.629   5.396   3.741
 8497TIP3   OH225447   1.824   5.582   4.596
 8497TIP3    H125448   1.900   5.630   4.630
 8497TIP3    H225449   1.809   5.514   4.662
 8498TIP3   OH225450   5.193   4.843   5.306
 8498TIP3    H125451   5.148   4.927   5.314
 8498TIP3    H225452   5.161   4.791   5.380
 8499TIP3   OH225453   6.835   5.698   2.921
 8499TIP3    H125454   6.742   5.689   2.942
 8499TIP3    H225455   6.841   5.783   2.877
 8500TIP3   OH225456   7.346   6.318   2.924
 8500TIP3    H125457   7.421   6.377   2.929
 8500TIP3    H225458   7.270   6.375   2.935
 8501TIP3   OH225459   2.374   2.658   2.012
 8501TIP3    H125460   2.355   2.706   2.093
 8501TIP3    H225461   2.469   2.668   2.000
 8502TIP3   OH225462   3.560   7.739   2.129
 8502TIP3    H125463   3.608   7.822   2.132
 8502TIP3    H225464   3.473   7.760   2.163
 8503TIP3   OH225465   3.587   3.143   3.283
 8503TIP3    H125466   3.616   3.074   3.224
 8503TIP3    H225467   3.584   3.221   3.229
 8504TIP3   OH225468   1.920   6.253   4.708
 8504TIP3    H125469   1.966   6.185   4.657
 8504TIP3    H225470   1.834   6.260   4.666
 8505TIP3   OH225471   0.444   5.039   5.888
 8505TIP3    H125472   0.531   5.011   5.917
 8505TIP3    H225473   0.458   5.124   5.846
 8506TIP3   OH225474   6.895   1.744   0.502
 8506TIP3    H125475   6.895   1.830   0.545
 8506TIP3    H225476   6.922   1.762   0.412
 8507TIP3   OH225477   7.037   7.106   2.571
 8507TIP3    H125478   7.090   7.165   2.625
 8507TIP3    H225479   7.090   7.027   2.562
 8508TIP3   OH225480   1.800   5.115   0.927
 8508TIP3    H125481   1.827   5.054   0.995
 8508TIP3    H225482   1.843   5.084   0.848
 8509TIP3   OH225483   6.482   4.581   1.095
 8509TIP3    H125484   6.508   4.489   1.103
 8509TIP3    H225485   6.435   4.585   1.012
 8510TIP3   OH225486   1.032   0.584   6.645
 8510TIP3    H125487   0.968   0.514   6.629
 8510TIP3    H225488   1.012   0.615   6.733
 8511TIP3   OH225489   7.402   6.284   1.663
 8511TIP3    H125490   7.497   6.270   1.654
 8511TIP3    H225491   7.390   6.301   1.757
 8512TIP3   OH225492   7.361   3.088   6.478
 8512TIP3    H125493   7.420   3.059   6.547
 8512TIP3    H225494   7.273   3.071   6.513
 8513TIP3   OH225495   0.711   6.310   2.662
 8513TIP3    H125496   0.674   6.399   2.668
 8513TIP3    H225497   0.637   6.252   2.683
 8514TIP3   OH225498   5.787   1.086   1.793
 8514TIP3    H125499   5.847   1.077   1.867
 8514TIP3    H225500   5.730   1.159   1.818
 8515TIP3   OH225501   0.596   3.713   1.091
 8515TIP3    H125502   0.535   3.786   1.090
 8515TIP3    H225503   0.542   3.636   1.111
 8516TIP3   OH225504   2.724   1.759   0.753
 8516TIP3    H125505   2.721   1.664   0.749
 8516TIP3    H225506   2.726   1.780   0.847
 8517TIP3   OH225507   1.129   3.167   6.468
 8517TIP3    H125508   1.121   3.241   6.408
 8517TIP3    H225509   1.224   3.153   6.476
 8518TIP3   OH225510   3.585   4.085   6.661
 8518TIP3    H125511   3.613   4.007   6.710
 8518TIP3    H225512   3.506   4.056   6.615
 8519TIP3   OH225513   6.156   0.912   6.456
 8519TIP3    H125514   6.099   0.897   6.380
 8519TIP3    H225515   6.235   0.861   6.437
 8520TIP3   OH225516   4.254   7.136   2.144
 8520TIP3    H125517   4.228   7.163   2.056
 8520TIP3    H225518   4.277   7.043   2.136
 8521TIP3   OH225519   6.085   2.548   4.496
 8521TIP3    H125520   6.117   2.562   4.585
 8521TIP3    H225521   6.014   2.612   4.485
 8522TIP3   OH225522   2.122   6.563   2.528
 8522TIP3    H125523   2.140   6.472   2.505
 8522TIP3    H225524   2.063   6.557   2.604
 8523TIP3   OH225525   3.180   2.148   0.168
 8523TIP3    H125526   3.105   2.174   0.114
 8523TIP3    H225527   3.218   2.230   0.198
 8524TIP3   OH225528   3.417   1.291   0.902
 8524TIP3    H125529   3.339   1.319   0.854
 8524TIP3    H225530   3.411   1.195   0.903
 8525TIP3   OH225531   3.440   5.797   6.401
 8525TIP3    H125532   3.410   5.758   6.483
 8525TIP3    H225533   3.404   5.740   6.333
 8526TIP3   OH225534   6.675   3.760   3.159
 8526TIP3    H125535   6.756   3.746   3.110
 8526TIP3    H225536   6.615   3.799   3.095
 8527TIP3   OH225537   3.974   2.276   1.222
 8527TIP3    H125538   3.890   2.232   1.209
 8527TIP3    H225539   4.014   2.279   1.135
 8528TIP3   OH225540   8.090   3.197   5.943
 8528TIP3    H125541   8.147   3.274   5.949
 8528TIP3    H225542   8.145   3.125   5.975
 8529TIP3   OH225543   3.333   4.721   5.815
 8529TIP3    H125544   3.238   4.707   5.813
 8529TIP3    H225545   3.350   4.757   5.902
 8530TIP3   OH225546   6.663   0.494   0.828
 8530TIP3    H125547   6.690   0.490   0.920
 8530TIP3    H225548   6.594   0.561   0.826
 8531TIP3   OH225549   4.554   6.173   1.573
 8531TIP3    H125550   4.507   6.219   1.504
 8531TIP3    H225551   4.646   6.191   1.557
 8532TIP3   OH225552   7.299   3.929   1.922
 8532TIP3    H125553   7.212   3.969   1.929
 8532TIP3    H225554   7.356   3.987   1.972
 8533TIP3   OH225555   8.183   4.005   3.052
 8533TIP3    H125556   8.114   3.944   3.029
 8533TIP3    H225557   8.263   3.967   3.015
 8534TIP3   OH225558   5.938   2.534   3.998
 8534TIP3    H125559   5.846   2.516   3.980
 8534TIP3    H225560   5.958   2.482   4.076
 8535TIP3   OH225561   0.295   5.673   4.737
 8535TIP3    H125562   0.201   5.687   4.743
 8535TIP3    H225563   0.322   5.650   4.826
 8536TIP3   OH225564   8.161   0.584   3.327
 8536TIP3    H125565   8.107   0.653   3.365
 8536TIP3    H225566   8.102   0.511   3.313
 8537TIP3   OH225567   6.685   3.495   5.382
 8537TIP3    H125568   6.649   3.554   5.316
 8537TIP3    H225569   6.629   3.508   5.459
 8538TIP3   OH225570   0.915   2.643   4.007
 8538TIP3    H125571   1.011   2.639   4.010
 8538TIP3    H225572   0.892   2.708   4.072
 8539TIP3   OH225573   1.459   2.657   4.303
 8539TIP3    H125574   1.393   2.589   4.315
 8539TIP3    H225575   1.520   2.621   4.240
 8540TIP3   OH225576   1.956   2.675   3.389
 8540TIP3    H125577   1.920   2.622   3.317
 8540TIP3    H225578   1.934   2.765   3.366
 8541TIP3   OH225579   5.301   2.745   0.985
 8541TIP3    H125580   5.262   2.833   0.981
 8541TIP3    H225581   5.321   2.732   1.077
 8542TIP3   OH225582   0.121   6.965   3.054
 8542TIP3    H125583   0.210   6.979   3.021
 8542TIP3    H225584   0.064   7.006   2.988
 8543TIP3   OH225585   3.176   0.631   1.268
 8543TIP3    H125586   3.205   0.722   1.275
 8543TIP3    H225587   3.081   0.635   1.275
 8544TIP3   OH225588   1.339   3.135   6.279
 8544TIP3    H125589   1.337   3.040   6.269
 8544TIP3    H225590   1.430   3.159   6.262
 8545TIP3   OH225591   3.654   3.778   1.103
 8545TIP3    H125592   3.707   3.806   1.029
 8545TIP3    H225593   3.603   3.855   1.126
 8546TIP3   OH225594   0.136   0.767   4.197
 8546TIP3    H125595   0.214   0.740   4.245
 8546TIP3    H225596   0.143   0.863   4.190
 8547TIP3   OH225597   2.465   4.686   2.593
 8547TIP3    H125598   2.467   4.653   2.504
 8547TIP3    H225599   2.378   4.725   2.602
 8548TIP3   OH225600   2.627   3.675   0.370
 8548TIP3    H125601   2.609   3.619   0.446
 8548TIP3    H225602   2.567   3.642   0.303
 8549TIP3   OH225603   1.859   1.823   4.286
 8549TIP3    H125604   1.940   1.866   4.259
 8549TIP3    H225605   1.846   1.851   4.377
 8550TIP3   OH225606   4.262   3.542   5.272
 8550TIP3    H125607   4.331   3.595   5.231
 8550TIP3    H225608   4.225   3.491   5.200
 8551TIP3   OH225609   3.526   2.736   4.988
 8551TIP3    H125610   3.557   2.825   4.971
 8551TIP3    H225611   3.584   2.703   5.057
 8552TIP3   OH225612   4.399   3.016   4.328
 8552TIP3    H125613   4.463   3.068   4.279
 8552TIP3    H225614   4.334   2.992   4.263
 8553TIP3   OH225615   3.086   7.106   3.981
 8553TIP3    H125616   3.039   7.117   4.064
 8553TIP3    H225617   3.050   7.173   3.923
 8554TIP3   OH225618   1.557   2.335   1.048
 8554TIP3    H125619   1.472   2.305   1.016
 8554TIP3    H225620   1.536   2.384   1.127
 8555TIP3   OH225621   1.332   7.309   4.112
 8555TIP3    H125622   1.424   7.281   4.119
 8555TIP3    H225623   1.286   7.257   4.177
 8556TIP3   OH225624   1.550   2.030   1.500
 8556TIP3    H125625   1.471   2.064   1.459
 8556TIP3    H225626   1.620   2.053   1.439
 8557TIP3   OH225627   7.679   2.930   0.415
 8557TIP3    H125628   7.712   2.954   0.502
 8557TIP3    H225629   7.728   2.984   0.354
 8558TIP3   OH225630   4.364   4.824   5.420
 8558TIP3    H125631   4.281   4.859   5.387
 8558TIP3    H225632   4.401   4.776   5.346
 8559TIP3   OH225633   7.074   0.167   3.806
 8559TIP3    H125634   7.045   0.079   3.780
 8559TIP3    H225635   7.017   0.191   3.879
 8560TIP3   OH225636   0.058   2.559   4.454
 8560TIP3    H125637   0.040   2.621   4.524
 8560TIP3    H225638   0.152   2.565   4.440
 8561TIP3   OH225639   3.680   6.030   1.268
 8561TIP3    H125640   3.588   6.006   1.262
 8561TIP3    H225641   3.682   6.123   1.249
 8562TIP3   OH225642   1.104   4.408   4.369
 8562TIP3    H125643   1.149   4.460   4.302
 8562TIP3    H225644   1.135   4.319   4.355
 8563TIP3   OH225645   7.096   2.307   3.764
 8563TIP3    H125646   7.001   2.310   3.757
 8563TIP3    H225647   7.114   2.325   3.857
 8564TIP3   OH225648   3.148   0.389   0.961
 8564TIP3    H125649   3.128   0.359   1.050
 8564TIP3    H225650   3.210   0.324   0.928
 8565TIP3   OH225651   7.290   6.379   1.404
 8565TIP3    H125652   7.373   6.368   1.356
 8565TIP3    H225653   7.304   6.332   1.486
 8566TIP3   OH225654   1.595   4.899   4.704
 8566TIP3    H125655   1.545   4.818   4.718
 8566TIP3    H225656   1.528   4.966   4.688
 8567TIP3   OH225657   4.961   4.034   2.410
 8567TIP3    H125658   4.878   3.992   2.386
 8567TIP3    H225659   4.973   4.103   2.345
 8568TIP3   OH225660   3.486   5.652   0.741
 8568TIP3    H125661   3.419   5.693   0.686
 8568TIP3    H225662   3.445   5.572   0.773
 8569TIP3   OH225663   1.296   5.790   6.254
 8569TIP3    H125664   1.285   5.885   6.256
 8569TIP3    H225665   1.266   5.760   6.340
 8570TIP3   OH225666   2.263   5.977   2.492
 8570TIP3    H125667   2.265   5.977   2.397
 8570TIP3    H225668   2.175   5.947   2.515
 8571TIP3   OH225669   5.835   4.992   2.257
 8571TIP3    H125670   5.890   4.964   2.184
 8571TIP3    H225671   5.747   4.995   2.221
 8572TIP3   OH225672   4.408   1.463   5.960
 8572TIP3    H125673   4.438   1.372   5.972
 8572TIP3    H225674   4.385   1.492   6.048
 8573TIP3   OH225675   4.299   6.334   5.752
 8573TIP3    H125676   4.262   6.330   5.841
 8573TIP3    H225677   4.282   6.423   5.724
 8574TIP3   OH225678   7.534   5.145   4.664
 8574TIP3    H125679   7.517   5.186   4.748
 8574TIP3    H225680   7.452   5.102   4.640
 8575TIP3   OH225681   3.692   1.865   4.498
 8575TIP3    H125682   3.628   1.875   4.428
 8575TIP3    H225683   3.713   1.955   4.525
 8576TIP3   OH225684   1.126   2.096   2.052
 8576TIP3    H125685   1.113   2.191   2.049
 8576TIP3    H225686   1.196   2.083   2.115
 8577TIP3   OH225687   0.983   7.174   1.930
 8577TIP3    H125688   1.053   7.153   1.991
 8577TIP3    H225689   0.940   7.250   1.970
 8578TIP3   OH225690   4.349   1.057   2.798
 8578TIP3    H125691   4.335   1.005   2.877
 8578TIP3    H225692   4.438   1.091   2.807
 8579TIP3   OH225693   7.908   5.654   0.268
 8579TIP3    H125694   7.994   5.693   0.285
 8579TIP3    H225695   7.854   5.684   0.341
 8580TIP3   OH225696   5.539   2.880   0.150
 8580TIP3    H125697   5.577   2.923   0.227
 8580TIP3    H225698   5.594   2.804   0.135
 8581TIP3   OH225699   7.781   4.707   1.733
 8581TIP3    H125700   7.714   4.736   1.795
 8581TIP3    H225701   7.792   4.614   1.752
 8582TIP3   OH225702   8.182   4.810   2.998
 8582TIP3    H125703   8.178   4.724   2.955
 8582TIP3    H225704   8.213   4.870   2.930
 8583TIP3   OH225705   0.798   3.074   5.273
 8583TIP3    H125706   0.828   3.147   5.327
 8583TIP3    H225707   0.703   3.072   5.287
 8584TIP3   OH225708   8.258   3.189   6.402
 8584TIP3    H125709   8.184   3.173   6.343
 8584TIP3    H225710   8.243   3.131   6.476
 8585TIP3   OH225711   3.169   6.262   1.564
 8585TIP3    H125712   3.188   6.215   1.645
 8585TIP3    H225713   3.253   6.266   1.519
 8586TIP3   OH225714   7.377   4.906   4.542
 8586TIP3    H125715   7.297   4.859   4.518
 8586TIP3    H225716   7.447   4.841   4.535
 8587TIP3   OH225717   2.249   0.667   0.015
 8587TIP3    H125718   2.338   0.632   0.021
 8587TIP3    H225719   2.192   0.590   0.017
 8588TIP3   OH225720   5.676   3.814   2.816
 8588TIP3    H125721   5.674   3.869   2.738
 8588TIP3    H225722   5.659   3.726   2.784
 8589TIP3   OH225723   2.305   3.806   6.350
 8589TIP3    H125724   2.333   3.799   6.259
 8589TIP3    H225725   2.250   3.730   6.365
 8590TIP3   OH225726   2.868   0.666   2.390
 8590TIP3    H125727   2.955   0.649   2.353
 8590TIP3    H225728   2.884   0.732   2.457
 8591TIP3   OH225729   7.809   0.561   4.077
 8591TIP3    H125730   7.722   0.595   4.059
 8591TIP3    H225731   7.858   0.635   4.113
 8592TIP3   OH225732   7.576   6.732   0.430
 8592TIP3    H125733   7.648   6.671   0.413
 8592TIP3    H225734   7.604   6.782   0.506
 8593TIP3   OH225735   2.958   6.288   0.992
 8593TIP3    H125736   2.993   6.362   0.942
 8593TIP3    H225737   2.869   6.314   1.015
 8594TIP3   OH225738   4.809   2.618   3.991
 8594TIP3    H125739   4.864   2.697   3.996
 8594TIP3    H225740   4.748   2.627   4.064
 8595TIP3   OH225741   6.757   6.576   4.587
 8595TIP3    H125742   6.677   6.622   4.562
 8595TIP3    H225743   6.784   6.531   4.507
 8596TIP3   OH225744   7.588   2.258   2.787
 8596TIP3    H125745   7.619   2.215   2.867
 8596TIP3    H225746   7.515   2.313   2.816
 8597TIP3   OH225747   4.992   5.239   1.899
 8597TIP3    H125748   4.972   5.165   1.956
 8597TIP3    H225749   4.949   5.314   1.940
 8598TIP3   OH225750   0.326   7.460   0.938
 8598TIP3    H125751   0.341   7.553   0.921
 8598TIP3    H225752   0.275   7.430   0.863
 8599TIP3   OH225753   2.422   3.252   1.509
 8599TIP3    H125754   2.327   3.256   1.496
 8599TIP3    H225755   2.433   3.235   1.602
 8600TIP3   OH225756   3.075   6.178   6.227
 8600TIP3    H125757   3.087   6.250   6.166
 8600TIP3    H225758   3.049   6.104   6.172
 8601TIP3   OH225759   5.075   4.313   1.909
 8601TIP3    H125760   5.041   4.225   1.927
 8601TIP3    H225761   5.170   4.301   1.902
 8602TIP3   OH225762   5.767   0.774   1.985
 8602TIP3    H125763   5.861   0.781   2.004
 8602TIP3    H225764   5.753   0.836   1.913
 8603TIP3   OH225765   1.342   6.570   5.190
 8603TIP3    H125766   1.380   6.657   5.176
 8603TIP3    H225767   1.274   6.584   5.255
 8604TIP3   OH225768   1.192   6.307   5.584
 8604TIP3    H125769   1.241   6.390   5.584
 8604TIP3    H225770   1.258   6.240   5.598
 8605TIP3   OH225771   5.233   3.305   6.551
 8605TIP3    H125772   5.191   3.353   6.479
 8605TIP3    H225773   5.186   3.222   6.556
 8606TIP3   OH225774   3.953   5.215   1.403
 8606TIP3    H125775   3.941   5.140   1.344
 8606TIP3    H225776   3.916   5.290   1.354
 8607TIP3   OH225777   3.916   2.433   3.843
 8607TIP3    H125778   3.881   2.437   3.754
 8607TIP3    H225779   3.993   2.375   3.835
 8608TIP3   OH225780   7.626   1.393   3.909
 8608TIP3    H125781   7.696   1.338   3.944
 8608TIP3    H225782   7.633   1.475   3.958
 8609TIP3   OH225783   8.079   7.778   3.138
 8609TIP3    H125784   8.056   7.761   3.230
 8609TIP3    H225785   8.033   7.709   3.090
 8610TIP3   OH225786   5.440   4.959   5.268
 8610TIP3    H125787   5.356   4.920   5.294
 8610TIP3    H225788   5.506   4.904   5.309
 8611TIP3   OH225789   4.627   0.376   4.918
 8611TIP3    H125790   4.583   0.311   4.973
 8611TIP3    H225791   4.577   0.457   4.932
 8612TIP3   OH225792   6.686   1.954   3.349
 8612TIP3    H125793   6.774   1.979   3.378
 8612TIP3    H225794   6.695   1.862   3.325
 8613TIP3   OH225795   5.757   3.714   5.286
 8613TIP3    H125796   5.708   3.642   5.247
 8613TIP3    H225797   5.846   3.679   5.297
 8614TIP3   OH225798   4.907   5.537   4.203
 8614TIP3    H125799   4.917   5.631   4.218
 8614TIP3    H225800   4.895   5.500   4.291
 8615TIP3   OH225801   3.869   0.707   3.656
 8615TIP3    H125802   3.949   0.749   3.688
 8615TIP3    H225803   3.899   0.624   3.619
 8616TIP3   OH225804   0.555   7.069   1.846
 8616TIP3    H125805   0.607   7.089   1.768
 8616TIP3    H225806   0.619   7.042   1.912
 8617TIP3   OH225807   2.718   7.667   1.867
 8617TIP3    H125808   2.635   7.665   1.820
 8617TIP3    H225809   2.697   7.632   1.954
 8618TIP3   OH225810   3.567   6.534   2.230
 8618TIP3    H125811   3.554   6.447   2.270
 8618TIP3    H225812   3.496   6.587   2.266
 8619TIP3   OH225813   6.447   7.612   2.536
 8619TIP3    H125814   6.532   7.573   2.558
 8619TIP3    H225815   6.385   7.539   2.541
 8620TIP3   OH225816   7.273   2.405   6.048
 8620TIP3    H125817   7.339   2.410   5.979
 8620TIP3    H225818   7.295   2.326   6.097
 8621TIP3   OH225819   5.635   6.380   2.263
 8621TIP3    H125820   5.709   6.325   2.293
 8621TIP3    H225821   5.560   6.346   2.311
 8622TIP3   OH225822   7.215   6.907   2.576
 8622TIP3    H125823   7.279   6.837   2.592
 8622TIP3    H225824   7.198   6.903   2.482
 8623TIP3   OH225825   7.817   5.760   2.886
 8623TIP3    H125826   7.816   5.746   2.791
 8623TIP3    H225827   7.883   5.827   2.901
 8624TIP3   OH225828   2.605   1.282   2.338
 8624TIP3    H125829   2.679   1.294   2.397
 8624TIP3    H225830   2.530   1.271   2.396
 8625TIP3   OH225831   7.786   5.095   6.221
 8625TIP3    H125832   7.815   5.104   6.130
 8625TIP3    H225833   7.849   5.035   6.261
 8626TIP3   OH225834   3.434   7.763   3.199
 8626TIP3    H125835   3.405   7.694   3.138
 8626TIP3    H225836   3.500   7.811   3.150
 8627TIP3   OH225837   4.968   7.127   2.073
 8627TIP3    H125838   5.024   7.076   2.016
 8627TIP3    H225839   4.891   7.148   2.019
 8628TIP3   OH225840   4.559   5.964   6.102
 8628TIP3    H125841   4.495   6.031   6.128
 8628TIP3    H225842   4.643   6.010   6.101
 8629TIP3   OH225843   0.843   3.360   1.621
 8629TIP3    H125844   0.823   3.345   1.714
 8629TIP3    H225845   0.901   3.436   1.621
 8630TIP3   OH225846   3.499   2.857   0.073
 8630TIP3    H125847   3.475   2.803  -0.003
 8630TIP3    H225848   3.423   2.853   0.130
 8631TIP3   OH225849   0.657   1.923   4.213
 8631TIP3    H125850   0.732   1.872   4.245
 8631TIP3    H225851   0.695   1.983   4.149
 8632TIP3   OH225852   6.792   1.133   6.583
 8632TIP3    H125853   6.787   1.204   6.648
 8632TIP3    H225854   6.884   1.133   6.556
 8633TIP3   OH225855   1.233   6.532   6.156
 8633TIP3    H125856   1.284   6.614   6.153
 8633TIP3    H225857   1.142   6.561   6.150
 8634TIP3   OH225858   5.820   1.916   1.170
 8634TIP3    H125859   5.799   1.863   1.093
 8634TIP3    H225860   5.899   1.875   1.206
 8635TIP3   OH225861   6.589   5.741   3.311
 8635TIP3    H125862   6.673   5.772   3.344
 8635TIP3    H225863   6.587   5.770   3.220
 8636TIP3   OH225864   5.203   3.817   3.594
 8636TIP3    H125865   5.175   3.727   3.574
 8636TIP3    H225866   5.289   3.824   3.552
 8637TIP3   OH225867   3.961   5.409   2.862
 8637TIP3    H125868   3.926   5.336   2.912
 8637TIP3    H225869   3.924   5.487   2.905
 8638TIP3   OH225870   7.665   2.648   0.720
 8638TIP3    H125871   7.733   2.694   0.769
 8638TIP3    H225872   7.645   2.705   0.646
 8639TIP3   OH225873   3.718   1.028   3.993
 8639TIP3    H125874   3.708   0.998   4.084
 8639TIP3    H225875   3.747   1.119   4.002
 8640TIP3   OH225876   3.741   5.652   5.148
 8640TIP3    H125877   3.785   5.585   5.097
 8640TIP3    H225878   3.648   5.630   5.142
 8641TIP3   OH225879   0.899   3.903   4.043
 8641TIP3    H125880   0.907   3.911   4.138
 8641TIP3    H225881   0.805   3.893   4.028
 8642TIP3   OH225882   5.286   7.697   0.270
 8642TIP3    H125883   5.327   7.703   0.184
 8642TIP3    H225884   5.359   7.682   0.331
 8643TIP3   OH225885   5.785   6.038   3.366
 8643TIP3    H125886   5.763   6.127   3.340
 8643TIP3    H225887   5.798   6.043   3.461
 8644TIP3   OH225888   4.747   7.137   2.939
 8644TIP3    H125889   4.762   7.199   2.868
 8644TIP3    H225890   4.657   7.108   2.927
 8645TIP3   OH225891   8.193   2.061   3.710
 8645TIP3    H125892   8.156   1.975   3.730
 8645TIP3    H225893   8.132   2.123   3.750
 8646TIP3   OH225894   0.470   3.598   3.999
 8646TIP3    H125895   0.403   3.544   3.959
 8646TIP3    H225896   0.545   3.539   4.010
 8647TIP3   OH225897   6.124   7.438   2.244
 8647TIP3    H125898   6.097   7.355   2.283
 8647TIP3    H225899   6.054   7.499   2.268
 8648TIP3   OH225900   1.234   6.822   5.306
 8648TIP3    H125901   1.326   6.811   5.330
 8648TIP3    H225902   1.209   6.906   5.346
 8649TIP3   OH225903   1.781   1.761   1.946
 8649TIP3    H125904   1.840   1.834   1.926
 8649TIP3    H225905   1.694   1.800   1.946
 8650TIP3   OH225906   6.116   3.709   3.563
 8650TIP3    H125907   6.108   3.795   3.603
 8650TIP3    H225908   6.094   3.648   3.633
 8651TIP3   OH225909   0.227   4.357   2.365
 8651TIP3    H125910   0.291   4.304   2.317
 8651TIP3    H225911   0.162   4.294   2.394
 8652TIP3   OH225912   1.662   5.869   3.120
 8652TIP3    H125913   1.706   5.856   3.035
 8652TIP3    H225914   1.690   5.956   3.148
 8653TIP3   OH225915   2.790   6.882   5.288
 8653TIP3    H125916   2.804   6.798   5.332
 8653TIP3    H225917   2.865   6.891   5.230
 8654TIP3   OH225918   1.036   0.827   2.331
 8654TIP3    H125919   1.053   0.756   2.269
 8654TIP3    H225920   1.094   0.808   2.406
 8655TIP3   OH225921   1.610   3.004   5.566
 8655TIP3    H125922   1.663   3.073   5.527
 8655TIP3    H225923   1.671   2.931   5.580
 8656TIP3   OH225924   6.626   6.548   2.540
 8656TIP3    H125925   6.593   6.503   2.463
 8656TIP3    H225926   6.553   6.600   2.571
 8657TIP3   OH225927   0.762   4.463   4.297
 8657TIP3    H125928   0.773   4.376   4.258
 8657TIP3    H225929   0.848   4.484   4.333
 8658TIP3   OH225930   7.627   3.658   4.199
 8658TIP3    H125931   7.672   3.677   4.117
 8658TIP3    H225932   7.558   3.596   4.174
 8659TIP3   OH225933   2.457   3.822   3.600
 8659TIP3    H125934   2.510   3.795   3.675
 8659TIP3    H225935   2.514   3.808   3.524
 8660TIP3   OH225936   4.811   6.237   3.042
 8660TIP3    H125937   4.833   6.326   3.014
 8660TIP3    H225938   4.846   6.231   3.131
 8661TIP3   OH225939   3.983   0.820   4.546
 8661TIP3    H125940   3.901   0.772   4.558
 8661TIP3    H225941   3.957   0.912   4.544
 8662TIP3   OH225942   0.737   5.941   6.297
 8662TIP3    H125943   0.657   5.919   6.344
 8662TIP3    H225944   0.737   5.882   6.221
 8663TIP3   OH225945   1.484   4.361   0.290
 8663TIP3    H125946   1.488   4.276   0.333
 8663TIP3    H225947   1.498   4.341   0.197
 8664TIP3   OH225948   1.694   1.474   5.791
 8664TIP3    H125949   1.750   1.545   5.759
 8664TIP3    H225950   1.736   1.394   5.760
 8665TIP3   OH225951   6.798   4.359   3.905
 8665TIP3    H125952   6.885   4.361   3.866
 8665TIP3    H225953   6.783   4.267   3.926
 8666TIP3   OH225954   6.119   4.687   3.323
 8666TIP3    H125955   6.091   4.600   3.353
 8666TIP3    H225956   6.148   4.672   3.233
 8667TIP3   OH225957   8.169   3.742   4.183
 8667TIP3    H125958   8.247   3.750   4.128
 8667TIP3    H225959   8.204   3.741   4.273
 8668TIP3   OH225960   4.638   1.018   1.047
 8668TIP3    H125961   4.636   1.075   1.123
 8668TIP3    H225962   4.719   0.967   1.057
 8669TIP3   OH225963   4.544   7.550   3.209
 8669TIP3    H125964   4.518   7.640   3.230
 8669TIP3    H225965   4.551   7.549   3.114
 8670TIP3   OH225966   8.270   5.704   5.315
 8670TIP3    H125967   8.206   5.637   5.288
 8670TIP3    H225968   8.313   5.667   5.392
 8671TIP3   OH225969   7.746   5.435   0.154
 8671TIP3    H125970   7.758   5.530   0.154
 8671TIP3    H225971   7.831   5.400   0.181
 8672TIP3   OH225972   2.683   5.816   2.738
 8672TIP3    H125973   2.632   5.863   2.672
 8672TIP3    H225974   2.764   5.791   2.693
 8673TIP3   OH225975   2.856   0.583   0.550
 8673TIP3    H125976   2.886   0.674   0.555
 8673TIP3    H225977   2.781   0.579   0.610
 8674TIP3   OH225978   6.844   1.263   2.945
 8674TIP3    H125979   6.769   1.208   2.967
 8674TIP3    H225980   6.844   1.266   2.850
 8675TIP3   OH225981   1.848   7.075   3.493
 8675TIP3    H125982   1.922   7.120   3.534
 8675TIP3    H225983   1.801   7.144   3.446
 8676TIP3   OH225984   0.427   6.096   0.218
 8676TIP3    H125985   0.395   6.141   0.139
 8676TIP3    H225986   0.405   6.154   0.290
 8677TIP3   OH225987   2.038   4.862   3.816
 8677TIP3    H125988   1.957   4.819   3.786
 8677TIP3    H225989   2.031   4.952   3.783
 8678TIP3   OH225990   3.731   6.013   1.545
 8678TIP3    H125991   3.711   5.991   1.454
 8678TIP3    H225992   3.827   6.012   1.550
 8679TIP3   OH225993   1.567   2.614   2.103
 8679TIP3    H125994   1.523   2.699   2.105
 8679TIP3    H225995   1.522   2.563   2.171
 8680TIP3   OH225996   1.040   3.483   6.515
 8680TIP3    H125997   1.045   3.570   6.554
 8680TIP3    H225998   0.952   3.452   6.537
 8681TIP3   OH225999   1.401   6.528   3.220
 8681TIP3    H126000   1.385   6.569   3.135
 8681TIP3    H226001   1.428   6.600   3.277
 8682TIP3   OH226002   6.102   1.684   0.529
 8682TIP3    H126003   6.196   1.688   0.547
 8682TIP3    H226004   6.070   1.772   0.551
 8683TIP3   OH226005   2.146   6.643   6.228
 8683TIP3    H126006   2.119   6.574   6.167
 8683TIP3    H226007   2.105   6.618   6.311
 8684TIP3   OH226008   6.732   4.765   6.769
 8684TIP3    H126009   6.736   4.732   6.679
 8684TIP3    H226010   6.822   4.761   6.800
 8685TIP3   OH226011   1.789   6.400   5.773
 8685TIP3    H126012   1.879   6.428   5.788
 8685TIP3    H226013   1.735   6.463   5.820
 8686TIP3   OH226014   4.756   2.353   0.925
 8686TIP3    H126015   4.754   2.442   0.891
 8686TIP3    H226016   4.844   2.321   0.903
 8687TIP3   OH226017   1.248   4.942   3.333
 8687TIP3    H126018   1.208   4.963   3.417
 8687TIP3    H226019   1.306   5.016   3.315
 8688TIP3   OH226020   6.612   4.820   1.052
 8688TIP3    H126021   6.561   4.742   1.072
 8688TIP3    H226022   6.551   4.893   1.063
 8689TIP3   OH226023   1.466   1.609   0.962
 8689TIP3    H126024   1.542   1.568   0.921
 8689TIP3    H226025   1.402   1.539   0.971
 8690TIP3   OH226026   4.072   0.398   4.455
 8690TIP3    H126027   4.022   0.434   4.382
 8690TIP3    H226028   4.106   0.315   4.423
 8691TIP3   OH226029   7.846   2.593   6.231
 8691TIP3    H126030   7.790   2.547   6.169
 8691TIP3    H226031   7.848   2.537   6.309
 8692TIP3   OH226032   1.722   7.795   1.436
 8692TIP3    H126033   1.644   7.763   1.482
 8692TIP3    H226034   1.767   7.849   1.501
 8693TIP3   OH226035   7.029   6.710   5.819
 8693TIP3    H126036   6.998   6.737   5.732
 8693TIP3    H226037   6.950   6.700   5.871
 8694TIP3   OH226038   2.754   6.969   1.100
 8694TIP3    H126039   2.684   6.906   1.116
 8694TIP3    H226040   2.823   6.943   1.161
 8695TIP3   OH226041   6.492   0.093   1.738
 8695TIP3    H126042   6.479   0.064   1.648
 8695TIP3    H226043   6.431   0.040   1.790
 8696TIP3   OH226044   1.166   6.482   1.186
 8696TIP3    H126045   1.201   6.453   1.270
 8696TIP3    H226046   1.184   6.576   1.183
 8697TIP3   OH226047   1.194   2.622   3.712
 8697TIP3    H126048   1.201   2.712   3.746
 8697TIP3    H226049   1.283   2.599   3.688
 8698TIP3   OH226050   8.262   3.149   2.406
 8698TIP3    H126051   8.253   3.152   2.310
 8698TIP3    H226052   8.332   3.086   2.421
 8699TIP3   OH226053   4.025   5.802   4.878
 8699TIP3    H126054   4.005   5.817   4.785
 8699TIP3    H226055   4.076   5.722   4.878
 8700TIP3   OH226056   3.602   6.217   4.626
 8700TIP3    H126057   3.616   6.245   4.536
 8700TIP3    H226058   3.545   6.140   4.619
 8701TIP3   OH226059   5.829   3.294   6.001
 8701TIP3    H126060   5.907   3.350   6.000
 8701TIP3    H226061   5.857   3.213   5.958
 8702TIP3   OH226062   3.376   6.877   2.933
 8702TIP3    H126063   3.355   6.905   3.022
 8702TIP3    H226064   3.325   6.937   2.877
 8703TIP3   OH226065   0.620   1.660   5.662
 8703TIP3    H126066   0.644   1.567   5.661
 8703TIP3    H226067   0.700   1.705   5.686
 8704TIP3   OH226068   1.891   3.453   6.548
 8704TIP3    H126069   1.981   3.426   6.561
 8704TIP3    H226070   1.897   3.533   6.496
 8705TIP3   OH226071   0.612   5.641   5.448
 8705TIP3    H126072   0.703   5.628   5.423
 8705TIP3    H226073   0.566   5.563   5.415
 8706TIP3   OH226074   5.512   2.957   5.132
 8706TIP3    H126075   5.428   2.913   5.115
 8706TIP3    H226076   5.563   2.942   5.053
 8707TIP3   OH226077   4.046   6.441   2.782
 8707TIP3    H126078   3.976   6.435   2.717
 8707TIP3    H226079   4.013   6.392   2.857
 8708TIP3   OH226080   1.443   6.637   6.504
 8708TIP3    H126081   1.373   6.576   6.529
 8708TIP3    H226082   1.405   6.724   6.519
 8709TIP3   OH226083   4.705   4.959   3.163
 8709TIP3    H126084   4.645   4.885   3.176
 8709TIP3    H226085   4.766   4.953   3.237
 8710TIP3   OH226086   2.129   7.195   4.277
 8710TIP3    H126087   2.109   7.123   4.218
 8710TIP3    H226088   2.066   7.186   4.349
 8711TIP3   OH226089   2.306   1.744   1.798
 8711TIP3    H126090   2.258   1.709   1.723
 8711TIP3    H226091   2.266   1.701   1.874
 8712TIP3   OH226092   4.272   7.538   4.952
 8712TIP3    H126093   4.254   7.447   4.930
 8712TIP3    H226094   4.274   7.583   4.867
 8713TIP3   OH226095   5.869   6.522   4.765
 8713TIP3    H126096   5.932   6.491   4.700
 8713TIP3    H226097   5.799   6.457   4.763
 8714TIP3   OH226098   0.962   5.777   5.021
 8714TIP3    H126099   1.019   5.811   5.090
 8714TIP3    H226100   0.945   5.687   5.047
 8715TIP3   OH226101   2.356   2.279   6.763
 8715TIP3    H126102   2.285   2.258   6.704
 8715TIP3    H226103   2.435   2.252   6.717
 8716TIP3   OH226104   2.965   2.868   5.160
 8716TIP3    H126105   2.911   2.922   5.103
 8716TIP3    H226106   2.963   2.781   5.119
 8717TIP3   OH226107   3.297   5.051   2.957
 8717TIP3    H126108   3.303   4.967   3.003
 8717TIP3    H226109   3.385   5.088   2.963
 8718TIP3   OH226110   3.458   2.241   0.683
 8718TIP3    H126111   3.550   2.233   0.658
 8718TIP3    H226112   3.460   2.281   0.769
 8719TIP3   OH226113   0.578   4.048   2.626
 8719TIP3    H126114   0.600   3.960   2.593
 8719TIP3    H226115   0.578   4.039   2.721
 8720TIP3   OH226116   3.100   0.573   2.274
 8720TIP3    H126117   3.139   0.486   2.272
 8720TIP3    H226118   3.083   0.594   2.182
 8721TIP3   OH226119   8.057   3.677   5.911
 8721TIP3    H126120   8.107   3.617   5.966
 8721TIP3    H226121   7.968   3.642   5.912
 8722TIP3   OH226122   1.665   0.967   1.534
 8722TIP3    H126123   1.684   1.057   1.507
 8722TIP3    H226124   1.710   0.912   1.469
 8723TIP3   OH226125   5.389   3.270   0.946
 8723TIP3    H126126   5.378   3.210   0.873
 8723TIP3    H226127   5.331   3.237   1.015
 8724TIP3   OH226128   6.802   5.116   4.773
 8724TIP3    H126129   6.887   5.113   4.729
 8724TIP3    H226130   6.754   5.042   4.737
 8725TIP3   OH226131   0.166   3.454   2.964
 8725TIP3    H126132   0.219   3.480   2.889
 8725TIP3    H226133   0.141   3.536   3.006
 8726TIP3   OH226134   4.267   2.067   1.623
 8726TIP3    H126135   4.289   1.994   1.566
 8726TIP3    H226136   4.204   2.119   1.573
 8727TIP3   OH226137   3.435   4.230   3.640
 8727TIP3    H126138   3.514   4.222   3.693
 8727TIP3    H226139   3.452   4.179   3.562
 8728TIP3   OH226140   7.094   1.616   5.386
 8728TIP3    H126141   7.057   1.654   5.466
 8728TIP3    H226142   7.019   1.580   5.340
 8729TIP3   OH226143   1.665   0.588   5.587
 8729TIP3    H126144   1.692   0.574   5.497
 8729TIP3    H226145   1.584   0.539   5.596
 8730TIP3   OH226146   3.398   2.866   5.641
 8730TIP3    H126147   3.439   2.943   5.600
 8730TIP3    H226148   3.403   2.883   5.735
 8731TIP3   OH226149   2.921   2.907   5.408
 8731TIP3    H126150   2.849   2.846   5.423
 8731TIP3    H226151   2.937   2.901   5.314
 8732TIP3   OH226152   3.812   5.184   5.779
 8732TIP3    H126153   3.736   5.148   5.732
 8732TIP3    H226154   3.848   5.248   5.719
 8733TIP3   OH226155   7.432   1.699   5.045
 8733TIP3    H126156   7.407   1.635   5.112
 8733TIP3    H226157   7.527   1.691   5.039
 8734TIP3   OH226158   5.989   7.373   4.096
 8734TIP3    H126159   6.048   7.331   4.033
 8734TIP3    H226160   6.044   7.387   4.174
 8735TIP3   OH226161   4.082   2.542   5.284
 8735TIP3    H126162   4.170   2.579   5.280
 8735TIP3    H226163   4.096   2.449   5.302
 8736TIP3   OH226164   2.047   1.813   6.737
 8736TIP3    H126165   2.085   1.726   6.723
 8736TIP3    H226166   2.003   1.833   6.655
 8737TIP3   OH226167   6.307   0.723   1.776
 8737TIP3    H126168   6.321   0.757   1.864
 8737TIP3    H226169   6.374   0.655   1.765
 8738TIP3   OH226170   7.395   4.765   5.186
 8738TIP3    H126171   7.395   4.780   5.280
 8738TIP3    H226172   7.303   4.765   5.161
 8739TIP3   OH226173   3.200   6.365   2.525
 8739TIP3    H126174   3.182   6.419   2.447
 8739TIP3    H226175   3.116   6.322   2.543
 8740TIP3   OH226176   8.191   1.111   4.972
 8740TIP3    H126177   8.223   1.200   4.963
 8740TIP3    H226178   8.101   1.121   5.004
 8741TIP3   OH226179   2.883   2.943   0.977
 8741TIP3    H126180   2.849   2.956   1.066
 8741TIP3    H226181   2.809   2.964   0.920
 8742TIP3   OH226182   3.651   1.525   0.438
 8742TIP3    H126183   3.625   1.583   0.510
 8742TIP3    H226184   3.576   1.466   0.427
 8743TIP3   OH226185   1.787   7.353   6.169
 8743TIP3    H126186   1.864   7.383   6.218
 8743TIP3    H226187   1.808   7.373   6.078
 8744TIP3   OH226188   5.362   0.259   6.612
 8744TIP3    H126189   5.277   0.249   6.570
 8744TIP3    H226190   5.350   0.224   6.701
 8745TIP3   OH226191   6.389   1.773   3.600
 8745TIP3    H126192   6.458   1.797   3.537
 8745TIP3    H226193   6.373   1.680   3.583
 8746TIP3   OH226194   1.626   2.590   5.363
 8746TIP3    H126195   1.585   2.614   5.447
 8746TIP3    H226196   1.678   2.512   5.384
 8747TIP3   OH226197   3.387   6.230   2.106
 8747TIP3    H126198   3.297   6.198   2.105
 8747TIP3    H226199   3.405   6.251   2.014
 8748TIP3   OH226200   5.183   7.234   6.714
 8748TIP3    H126201   5.261   7.238   6.659
 8748TIP3    H226202   5.110   7.229   6.652
 8749TIP3   OH226203   7.074   1.003   3.868
 8749TIP3    H126204   7.007   1.022   3.802
 8749TIP3    H226205   7.033   1.026   3.951
 8750TIP3   OH226206   2.330   4.649   6.188
 8750TIP3    H126207   2.370   4.634   6.274
 8750TIP3    H226208   2.243   4.684   6.208
 8751TIP3   OH226209   6.386   3.919   5.210
 8751TIP3    H126210   6.390   3.908   5.115
 8751TIP3    H226211   6.292   3.919   5.229
 8752TIP3   OH226212   4.884   3.005   3.297
 8752TIP3    H126213   4.882   2.957   3.380
 8752TIP3    H226214   4.861   2.941   3.231
 8753TIP3   OH226215   1.334   3.902   4.201
 8753TIP3    H126216   1.403   3.877   4.262
 8753TIP3    H226217   1.287   3.820   4.184
 8754TIP3   OH226218   6.066   0.758   2.517
 8754TIP3    H126219   6.106   0.678   2.551
 8754TIP3    H226220   6.032   0.734   2.431
 8755TIP3   OH226221   7.097   7.324   6.708
 8755TIP3    H126222   7.113   7.240   6.751
 8755TIP3    H226223   7.018   7.358   6.750
 8756TIP3   OH226224   5.900   2.286   0.172
 8756TIP3    H126225   5.870   2.223   0.107
 8756TIP3    H226226   5.963   2.237   0.225
 8757TIP3   OH226227   3.679   3.089   5.669
 8757TIP3    H126228   3.681   3.011   5.724
 8757TIP3    H226229   3.741   3.070   5.599
 8758TIP3   OH226230   0.743   3.650   1.434
 8758TIP3    H126231   0.802   3.610   1.498
 8758TIP3    H226232   0.798   3.665   1.357
 8759TIP3   OH226233   2.915   0.271   2.031
 8759TIP3    H126234   2.961   0.270   2.115
 8759TIP3    H226235   2.838   0.327   2.046
 8760TIP3   OH226236   2.066   2.922   1.884
 8760TIP3    H126237   2.130   2.885   1.823
 8760TIP3    H226238   2.118   2.945   1.961
 8761TIP3   OH226239   4.430   2.013   6.140
 8761TIP3    H126240   4.515   2.029   6.183
 8761TIP3    H226241   4.420   2.086   6.080
 8762TIP3   OH226242   1.254   6.459   6.588
 8762TIP3    H126243   1.179   6.501   6.630
 8762TIP3    H226244   1.219   6.423   6.506
 8763TIP3   OH226245   2.141   0.223   0.479
 8763TIP3    H126246   2.202   0.244   0.409
 8763TIP3    H226247   2.195   0.215   0.558
 8764TIP3   OH226248   5.255   0.270   1.372
 8764TIP3    H126249   5.184   0.298   1.429
 8764TIP3    H226250   5.262   0.175   1.387
 8765TIP3   OH226251   1.907   1.900   0.656
 8765TIP3    H126252   1.843   1.864   0.717
 8765TIP3    H226253   1.856   1.959   0.600
 8766TIP3   OH226254   7.272   2.558   1.404
 8766TIP3    H126255   7.211   2.509   1.459
 8766TIP3    H226256   7.222   2.583   1.327
 8767TIP3   OH226257   7.582   5.550   1.248
 8767TIP3    H126258   7.600   5.644   1.242
 8767TIP3    H226259   7.633   5.512   1.177
 8768TIP3   OH226260   4.749   3.945   3.097
 8768TIP3    H126261   4.812   4.005   3.138
 8768TIP3    H226262   4.804   3.882   3.049
 8769TIP3   OH226263   1.108   4.005   3.433
 8769TIP3    H126264   1.083   3.921   3.471
 8769TIP3    H226265   1.029   4.059   3.439
 8770TIP3   OH226266   2.667   6.808   6.586
 8770TIP3    H126267   2.706   6.842   6.666
 8770TIP3    H226268   2.683   6.714   6.589
 8771TIP3   OH226269   6.253   0.210   5.027
 8771TIP3    H126270   6.294   0.141   5.079
 8771TIP3    H226271   6.240   0.282   5.089
 8772TIP3   OH226272   3.372   0.659   6.419
 8772TIP3    H126273   3.346   0.571   6.391
 8772TIP3    H226274   3.427   0.691   6.347
 8773TIP3   OH226275   2.954   5.281   0.785
 8773TIP3    H126276   3.013   5.356   0.797
 8773TIP3    H226277   2.868   5.314   0.813
 8774TIP3   OH226278   1.061   3.885   3.182
 8774TIP3    H126279   1.089   3.919   3.267
 8774TIP3    H226280   1.143   3.866   3.136
 8775TIP3   OH226281   4.383   4.866   3.694
 8775TIP3    H126282   4.436   4.936   3.656
 8775TIP3    H226283   4.438   4.788   3.685
 8776TIP3   OH226284   3.548   2.425   1.537
 8776TIP3    H126285   3.472   2.465   1.496
 8776TIP3    H226286   3.617   2.430   1.470
 8777TIP3   OH226287   3.029   5.084   1.106
 8777TIP3    H126288   2.996   4.995   1.104
 8777TIP3    H226289   3.114   5.077   1.150
 8778TIP3   OH226290   6.289   1.647   6.394
 8778TIP3    H126291   6.246   1.563   6.384
 8778TIP3    H226292   6.342   1.638   6.473
 8779TIP3   OH226293   5.876   4.682   0.426
 8779TIP3    H126294   5.939   4.718   0.365
 8779TIP3    H226295   5.792   4.721   0.401
 8780TIP3   OH226296   3.721   0.711   0.440
 8780TIP3    H126297   3.747   0.757   0.360
 8780TIP3    H226298   3.724   0.618   0.416
 8781TIP3   OH226299   0.857   5.451   4.699
 8781TIP3    H126300   0.892   5.537   4.676
 8781TIP3    H226301   0.913   5.420   4.770
 8782TIP3   OH226302   1.994   1.273   3.780
 8782TIP3    H126303   1.962   1.219   3.853
 8782TIP3    H226304   2.087   1.251   3.774
 8783TIP3   OH226305   8.089   2.632   2.024
 8783TIP3    H126306   8.060   2.547   1.993
 8783TIP3    H226307   8.010   2.685   2.029
 8784TIP3   OH226308   7.758   7.232   5.062
 8784TIP3    H126309   7.843   7.274   5.048
 8784TIP3    H226310   7.698   7.280   5.005
 8785TIP3   OH226311   7.278   6.634   0.153
 8785TIP3    H126312   7.197   6.681   0.131
 8785TIP3    H226313   7.285   6.641   0.248
 8786TIP3   OH226314   7.386   5.346   2.625
 8786TIP3    H126315   7.452   5.414   2.615
 8786TIP3    H226316   7.368   5.344   2.719
 8787TIP3   OH226317   0.463   0.435   6.295
 8787TIP3    H126318   0.524   0.504   6.267
 8787TIP3    H226319   0.377   0.478   6.296
 8788TIP3   OH226320   6.565   2.270   5.928
 8788TIP3    H126321   6.477   2.282   5.892
 8788TIP3    H226322   6.605   2.356   5.925
 8789TIP3   OH226323   6.638   2.627   6.281
 8789TIP3    H126324   6.731   2.645   6.268
 8789TIP3    H226325   6.593   2.683   6.218
 8790TIP3   OH226326   6.112   1.335   3.145
 8790TIP3    H126327   6.021   1.311   3.124
 8790TIP3    H226328   6.164   1.291   3.077
 8791TIP3   OH226329   7.063   3.828   5.493
 8791TIP3    H126330   7.021   3.746   5.470
 8791TIP3    H226331   6.994   3.878   5.538
 8792TIP3   OH226332   2.061   6.074   4.570
 8792TIP3    H126333   2.127   6.045   4.633
 8792TIP3    H226334   2.014   5.994   4.546
 8793TIP3   OH226335   5.663   4.291   4.234
 8793TIP3    H126336   5.707   4.216   4.274
 8793TIP3    H226337   5.734   4.346   4.200
 8794TIP3   OH226338   1.664   7.004   2.451
 8794TIP3    H126339   1.626   7.091   2.439
 8794TIP3    H226340   1.635   6.977   2.538
 8795TIP3   OH226341   2.397   3.798   6.082
 8795TIP3    H126342   2.460   3.868   6.067
 8795TIP3    H226343   2.342   3.799   6.003
 8796TIP3   OH226344   7.125   0.350   3.368
 8796TIP3    H126345   7.211   0.372   3.405
 8796TIP3    H226346   7.073   0.324   3.443
 8797TIP3   OH226347   6.345   6.461   5.321
 8797TIP3    H126348   6.320   6.392   5.259
 8797TIP3    H226349   6.383   6.413   5.395
 8798TIP3   OH226350  -0.006   4.250   3.135
 8798TIP3    H126351  -0.030   4.166   3.097
 8798TIP3    H226352   0.082   4.268   3.099
 8799TIP3   OH226353   7.525   5.738   3.329
 8799TIP3    H126354   7.483   5.795   3.265
 8799TIP3    H226355   7.504   5.777   3.414
 8800TIP3   OH226356   6.061   0.567   5.449
 8800TIP3    H126357   6.120   0.639   5.471
 8800TIP3    H226358   6.009   0.600   5.375
 8801TIP3   OH226359   6.117   1.123   3.633
 8801TIP3    H126360   6.067   1.047   3.601
 8801TIP3    H226361   6.200   1.118   3.586
 8802TIP3   OH226362   4.448   1.227   6.656
 8802TIP3    H126363   4.480   1.297   6.713
 8802TIP3    H226364   4.359   1.252   6.634
 8803TIP3   OH226365   7.402   5.206   1.065
 8803TIP3    H126366   7.323   5.184   1.017
 8803TIP3    H226367   7.468   5.224   0.997
 8804TIP3   OH226368   1.684   5.863   6.600
 8804TIP3    H126369   1.709   5.943   6.555
 8804TIP3    H226370   1.766   5.813   6.608
 8805TIP3   OH226371   2.458   2.673   5.045
 8805TIP3    H126372   2.519   2.642   5.111
 8805TIP3    H226373   2.468   2.768   5.044
 8806TIP3   OH226374   1.725   0.607   1.890
 8806TIP3    H126375   1.747   0.514   1.900
 8806TIP3    H226376   1.765   0.649   1.966
 8807TIP3   OH226377   3.741   1.878   5.660
 8807TIP3    H126378   3.714   1.925   5.581
 8807TIP3    H226379   3.731   1.942   5.731
 8808TIP3   OH226380   0.289   4.057   5.982
 8808TIP3    H126381   0.209   4.109   5.988
 8808TIP3    H226382   0.323   4.074   5.895
 8809TIP3   OH226383   1.007   6.180   3.189
 8809TIP3    H126384   1.078   6.240   3.210
 8809TIP3    H226385   0.986   6.136   3.271
 8810TIP3   OH226386   3.365   0.962   5.327
 8810TIP3    H126387   3.385   0.953   5.420
 8810TIP3    H226388   3.340   1.053   5.316
 8811TIP3   OH226389   5.457   7.419   2.894
 8811TIP3    H126390   5.424   7.471   2.821
 8811TIP3    H226391   5.382   7.369   2.924
 8812TIP3   OH226392   6.639   5.575   5.773
 8812TIP3    H126393   6.723   5.546   5.808
 8812TIP3    H226394   6.633   5.536   5.686
 8813TIP3   OH226395   7.731   2.447   3.987
 8813TIP3    H126396   7.741   2.353   4.000
 8813TIP3    H226397   7.637   2.462   3.989
 8814TIP3   OH226398   6.598   4.002   3.628
 8814TIP3    H126399   6.584   4.092   3.599
 8814TIP3    H226400   6.634   3.958   3.551
 8815TIP3   OH226401   1.550   3.453   1.892
 8815TIP3    H126402   1.623   3.465   1.953
 8815TIP3    H226403   1.472   3.476   1.944
 8816TIP3   OH226404   2.047   6.279   2.475
 8816TIP3    H126405   1.987   6.303   2.545
 8816TIP3    H226406   2.003   6.206   2.430
 8817TIP3   OH226407   6.278   2.361   5.874
 8817TIP3    H126408   6.204   2.394   5.925
 8817TIP3    H226409   6.322   2.439   5.842
 8818TIP3   OH226410   2.942   5.701   6.702
 8818TIP3    H126411   2.954   5.760   6.777
 8818TIP3    H226412   2.944   5.613   6.741
 8819TIP3   OH226413   1.331   3.696   1.653
 8819TIP3    H126414   1.377   3.612   1.665
 8819TIP3    H226415   1.346   3.719   1.561
 8820TIP3   OH226416   5.657   2.094   4.950
 8820TIP3    H126417   5.659   2.131   5.038
 8820TIP3    H226418   5.641   2.168   4.892
 8821TIP3   OH226419   5.806   0.535   6.218
 8821TIP3    H126420   5.887   0.487   6.199
 8821TIP3    H226421   5.835   0.618   6.255
 8822TIP3   OH226422   0.999   2.091   5.082
 8822TIP3    H126423   0.953   2.164   5.123
 8822TIP3    H226424   0.932   2.024   5.068
 8823TIP3   OH226425   7.822   3.949   0.195
 8823TIP3    H126426   7.849   3.924   0.283
 8823TIP3    H226427   7.813   3.866   0.148
 8824TIP3   OH226428   5.190   5.022   2.942
 8824TIP3    H126429   5.216   5.073   2.866
 8824TIP3    H226430   5.104   4.986   2.918
 8825TIP3   OH226431   5.464   5.585   3.482
 8825TIP3    H126432   5.548   5.598   3.437
 8825TIP3    H226433   5.399   5.584   3.412
 8826TIP3   OH226434   0.194   7.322   3.218
 8826TIP3    H126435   0.112   7.328   3.168
 8826TIP3    H226436   0.250   7.265   3.166
 8827TIP3   OH226437   3.526   6.427   0.908
 8827TIP3    H126438   3.559   6.469   0.828
 8827TIP3    H226439   3.457   6.369   0.877
 8828TIP3   OH226440   2.916   5.990   2.649
 8828TIP3    H126441   2.991   6.004   2.707
 8828TIP3    H226442   2.842   6.028   2.697
 8829TIP3   OH226443   4.650   0.511   0.181
 8829TIP3    H126444   4.593   0.464   0.120
 8829TIP3    H226445   4.662   0.597   0.141
 8830TIP3   OH226446   2.515   2.770   4.499
 8830TIP3    H126447   2.565   2.718   4.563
 8830TIP3    H226448   2.426   2.770   4.532
 8831TIP3   OH226449   7.237   4.607   4.537
 8831TIP3    H126450   7.222   4.621   4.443
 8831TIP3    H226451   7.224   4.513   4.550
 8832TIP3   OH226452   0.263   5.412   1.764
 8832TIP3    H126453   0.169   5.409   1.746
 8832TIP3    H226454   0.301   5.346   1.706
 8833TIP3   OH226455   0.896   2.873   3.116
 8833TIP3    H126456   0.989   2.888   3.101
 8833TIP3    H226457   0.861   2.847   3.031
 8834TIP3   OH226458   8.037   3.325   3.595
 8834TIP3    H126459   8.128   3.355   3.597
 8834TIP3    H226460   8.020   3.308   3.502
 8835TIP3   OH226461   4.602   4.694   4.277
 8835TIP3    H126462   4.528   4.700   4.338
 8835TIP3    H226463   4.575   4.628   4.213
 8836TIP3   OH226464   6.267   4.589   1.419
 8836TIP3    H126465   6.260   4.552   1.507
 8836TIP3    H226466   6.361   4.599   1.404
 8837TIP3   OH226467   5.071   7.020   1.241
 8837TIP3    H126468   5.107   6.933   1.222
 8837TIP3    H226469   5.117   7.079   1.181
 8838TIP3   OH226470   7.133   5.358   3.585
 8838TIP3    H126471   7.079   5.400   3.652
 8838TIP3    H226472   7.088   5.276   3.565
 8839TIP3   OH226473   3.992   1.873   4.792
 8839TIP3    H126474   3.917   1.815   4.797
 8839TIP3    H226475   4.021   1.882   4.883
 8840TIP3   OH226476   0.107   6.606   5.801
 8840TIP3    H126477   0.184   6.604   5.858
 8840TIP3    H226478   0.111   6.692   5.759
 8841TIP3   OH226479   6.107   3.239   3.207
 8841TIP3    H126480   6.020   3.219   3.172
 8841TIP3    H226481   6.145   3.154   3.229
 8842TIP3   OH226482   3.871   7.409   1.511
 8842TIP3    H126483   3.840   7.325   1.478
 8842TIP3    H226484   3.962   7.392   1.538
 8843TIP3   OH226485   7.199   3.134   4.967
 8843TIP3    H126486   7.112   3.093   4.968
 8843TIP3    H226487   7.185   3.218   4.924
 8844TIP3   OH226488   8.059   7.042   5.768
 8844TIP3    H126489   8.066   6.970   5.830
 8844TIP3    H226490   8.131   7.101   5.791
 8845TIP3   OH226491   4.036   4.639   0.218
 8845TIP3    H126492   3.983   4.559   0.227
 8845TIP3    H226493   4.123   4.613   0.246
 8846TIP3   OH226494   4.232   5.902   4.575
 8846TIP3    H126495   4.225   5.942   4.662
 8846TIP3    H226496   4.153   5.848   4.567
 8847TIP3   OH226497   3.948   3.084   3.113
 8847TIP3    H126498   3.896   3.015   3.071
 8847TIP3    H226499   3.933   3.162   3.060
 8848TIP3   OH226500   0.636   0.939   3.848
 8848TIP3    H126501   0.717   0.928   3.798
 8848TIP3    H226502   0.619   1.033   3.846
 8849TIP3   OH226503   6.372   7.443   0.341
 8849TIP3    H126504   6.372   7.495   0.261
 8849TIP3    H226505   6.280   7.421   0.354
 8850TIP3   OH226506   0.982   4.950   2.414
 8850TIP3    H126507   0.988   4.862   2.450
 8850TIP3    H226508   1.066   4.991   2.437
 8851TIP3   OH226509   5.391   0.738   4.999
 8851TIP3    H126510   5.468   0.755   4.946
 8851TIP3    H226511   5.397   0.801   5.071
 8852TIP3   OH226512   3.912   4.369   0.223
 8852TIP3    H126513   3.947   4.309   0.157
 8852TIP3    H226514   3.817   4.359   0.215
 8853TIP3   OH226515   7.953   0.828   5.870
 8853TIP3    H126516   7.925   0.842   5.961
 8853TIP3    H226517   7.879   0.782   5.830
 8854TIP3   OH226518   3.581   4.876   2.937
 8854TIP3    H126519   3.578   4.972   2.937
 8854TIP3    H226520   3.629   4.854   3.017
 8855TIP3   OH226521   1.634   4.617   1.270
 8855TIP3    H126522   1.681   4.577   1.197
 8855TIP3    H226523   1.546   4.580   1.266
 8856TIP3   OH226524   2.212   2.920   5.999
 8856TIP3    H126525   2.276   2.911   5.929
 8856TIP3    H226526   2.224   2.842   6.052
 8857TIP3   OH226527   3.014   4.461   0.498
 8857TIP3    H126528   2.926   4.427   0.480
 8857TIP3    H226529   3.073   4.391   0.467
 8858TIP3   OH226530   3.976   5.762   3.515
 8858TIP3    H126531   4.007   5.696   3.453
 8858TIP3    H226532   3.909   5.811   3.468
 8859TIP3   OH226533   8.257   5.667   3.349
 8859TIP3    H126534   8.311   5.730   3.397
 8859TIP3    H226535   8.277   5.684   3.257
 8860TIP3   OH226536   4.130   1.465   5.241
 8860TIP3    H126537   4.197   1.396   5.247
 8860TIP3    H226538   4.180   1.545   5.226
 8861TIP3   OH226539   6.447   7.007   2.681
 8861TIP3    H126540   6.496   7.041   2.756
 8861TIP3    H226541   6.450   6.912   2.691
 8862TIP3   OH226542   0.150   7.356   4.234
 8862TIP3    H126543   0.167   7.445   4.263
 8862TIP3    H226544   0.226   7.333   4.181
 8863TIP3   OH226545   1.178   7.297   0.037
 8863TIP3    H126546   1.219   7.311  -0.048
 8863TIP3    H226547   1.251   7.299   0.099
 8864TIP3   OH226548   5.094   2.611   2.980
 8864TIP3    H126549   5.062   2.601   3.070
 8864TIP3    H226550   5.167   2.550   2.974
 8865TIP3   OH226551   3.634   5.284   3.420
 8865TIP3    H126552   3.729   5.289   3.426
 8865TIP3    H226553   3.608   5.230   3.495
 8866TIP3   OH226554   4.249   6.917   1.728
 8866TIP3    H126555   4.248   6.881   1.817
 8866TIP3    H226556   4.169   6.884   1.688
 8867TIP3   OH226557   4.091   1.094   3.041
 8867TIP3    H126558   4.034   1.043   2.983
 8867TIP3    H226559   4.096   1.042   3.121
 8868TIP3   OH226560   0.071   1.367   3.488
 8868TIP3    H126561   0.023   1.430   3.435
 8868TIP3    H226562   0.064   1.285   3.441
 8869TIP3   OH226563   4.392   1.967   3.387
 8869TIP3    H126564   4.467   2.024   3.370
 8869TIP3    H226565   4.316   2.019   3.364
 8870TIP3   OH226566   6.894   6.015   5.482
 8870TIP3    H126567   6.841   6.094   5.474
 8870TIP3    H226568   6.918   5.993   5.392
 8871TIP3   OH226569   2.388   7.527   3.911
 8871TIP3    H126570   2.479   7.512   3.884
 8871TIP3    H226571   2.374   7.621   3.898
 8872TIP3   OH226572   3.633   6.211   6.482
 8872TIP3    H126573   3.568   6.160   6.433
 8872TIP3    H226574   3.701   6.232   6.418
 8873TIP3   OH226575   0.054   0.404   3.473
 8873TIP3    H126576  -0.007   0.457   3.421
 8873TIP3    H226577   0.049   0.440   3.561
 8874TIP3   OH226578   6.111   1.374   2.146
 8874TIP3    H126579   6.116   1.457   2.192
 8874TIP3    H226580   6.153   1.391   2.061
 8875TIP3   OH226581   6.205   4.031   0.425
 8875TIP3    H126582   6.296   4.022   0.397
 8875TIP3    H226583   6.210   4.085   0.504
 8876TIP3   OH226584   7.477   5.574   3.907
 8876TIP3    H126585   7.562   5.563   3.950
 8876TIP3    H226586   7.497   5.608   3.820
 8877TIP3   OH226587   7.848   5.525   1.407
 8877TIP3    H126588   7.824   5.534   1.499
 8877TIP3    H226589   7.790   5.458   1.373
 8878TIP3   OH226590   1.652   5.796   1.146
 8878TIP3    H126591   1.615   5.723   1.096
 8878TIP3    H226592   1.747   5.784   1.140
 8879TIP3   OH226593   3.208   5.303   1.639
 8879TIP3    H126594   3.274   5.366   1.609
 8879TIP3    H226595   3.154   5.287   1.562
 8880TIP3   OH226596   8.208   4.792   2.645
 8880TIP3    H126597   8.270   4.727   2.678
 8880TIP3    H226598   8.232   4.873   2.690
 8881TIP3   OH226599   0.994   2.351   1.642
 8881TIP3    H126600   0.900   2.367   1.654
 8881TIP3    H226601   1.034   2.437   1.650
 8882TIP3   OH226602   6.445   6.687   1.433
 8882TIP3    H126603   6.425   6.601   1.471
 8882TIP3    H226604   6.483   6.667   1.348
 8883TIP3   OH226605   7.452   6.353   1.935
 8883TIP3    H126606   7.537   6.382   1.969
 8883TIP3    H226607   7.416   6.298   2.005
 8884TIP3   OH226608   5.963   2.217   3.944
 8884TIP3    H126609   5.877   2.253   3.920
 8884TIP3    H226610   5.992   2.272   4.017
 8885TIP3   OH226611   2.845   5.329   3.443
 8885TIP3    H126612   2.814   5.390   3.376
 8885TIP3    H226613   2.871   5.384   3.516
 8886TIP3   OH226614   3.665   3.301   2.386
 8886TIP3    H126615   3.722   3.251   2.327
 8886TIP3    H226616   3.715   3.381   2.405
 8887TIP3   OH226617   7.462   7.637   4.633
 8887TIP3    H126618   7.543   7.597   4.602
 8887TIP3    H226619   7.398   7.617   4.565
 8888TIP3   OH226620   3.612   6.255   4.323
 8888TIP3    H126621   3.528   6.209   4.318
 8888TIP3    H226622   3.626   6.288   4.234
 8889TIP3   OH226623   7.575   3.450   5.590
 8889TIP3    H126624   7.666   3.421   5.597
 8889TIP3    H226625   7.524   3.370   5.584
 8890TIP3   OH226626   3.346   3.451   5.457
 8890TIP3    H126627   3.251   3.447   5.467
 8890TIP3    H226628   3.380   3.394   5.526
 8891TIP3   OH226629   4.715   5.293   5.067
 8891TIP3    H126630   4.740   5.251   5.149
 8891TIP3    H226631   4.725   5.224   5.001
 8892TIP3   OH226632   6.914   6.815   3.700
 8892TIP3    H126633   6.959   6.899   3.712
 8892TIP3    H226634   6.881   6.819   3.610
 8893TIP3   OH226635   2.761   1.534   2.980
 8893TIP3    H126636   2.783   1.626   2.986
 8893TIP3    H226637   2.710   1.527   2.899
 8894TIP3   OH226638   6.710   6.194   4.365
 8894TIP3    H126639   6.784   6.136   4.382
 8894TIP3    H226640   6.735   6.243   4.287
 8895TIP3   OH226641   4.511   4.237   5.630
 8895TIP3    H126642   4.475   4.267   5.546
 8895TIP3    H226643   4.488   4.144   5.634
 8896TIP3   OH226644   2.902   3.590   5.713
 8896TIP3    H126645   2.813   3.563   5.694
 8896TIP3    H226646   2.892   3.677   5.754
 8897TIP3   OH226647   3.339   3.920   2.081
 8897TIP3    H126648   3.384   4.004   2.089
 8897TIP3    H226649   3.284   3.915   2.159
 8898TIP3   OH226650   4.574   6.724   5.222
 8898TIP3    H126651   4.602   6.806   5.180
 8898TIP3    H226652   4.478   6.730   5.222
 8899TIP3   OH226653   8.257   5.452   4.080
 8899TIP3    H126654   8.348   5.477   4.097
 8899TIP3    H226655   8.205   5.518   4.125
 8900TIP3   OH226656   1.439   5.023   0.501
 8900TIP3    H126657   1.476   4.947   0.544
 8900TIP3    H226658   1.512   5.062   0.453
 8901TIP3   OH226659   7.510   2.969   1.459
 8901TIP3    H126660   7.604   2.976   1.443
 8901TIP3    H226661   7.493   2.875   1.458
 8902TIP3   OH226662   6.581   6.595   3.560
 8902TIP3    H126663   6.589   6.500   3.550
 8902TIP3    H226664   6.510   6.605   3.624
 8903TIP3   OH226665   5.448   5.826   6.317
 8903TIP3    H126666   5.489   5.882   6.382
 8903TIP3    H226667   5.406   5.756   6.367
 8904TIP3   OH226668   6.115   7.587   1.924
 8904TIP3    H126669   6.104   7.505   1.876
 8904TIP3    H226670   6.209   7.594   1.940
 8905TIP3   OH226671   0.089   7.695   2.980
 8905TIP3    H126672   0.059   7.681   2.891
 8905TIP3    H226673   0.024   7.753   3.019
 8906TIP3   OH226674   6.864   0.046   2.739
 8906TIP3    H126675   6.873  -0.050   2.738
 8906TIP3    H226676   6.774   0.062   2.713
 8907TIP3   OH226677   1.152   7.522   4.141
 8907TIP3    H126678   1.234   7.485   4.108
 8907TIP3    H226679   1.176   7.563   4.224
 8908TIP3   OH226680   4.632   1.909   6.450
 8908TIP3    H126681   4.718   1.867   6.458
 8908TIP3    H226682   4.652   1.997   6.418
 8909TIP3   OH226683   7.955   4.789   6.734
 8909TIP3    H126684   7.877   4.751   6.774
 8909TIP3    H226685   8.001   4.715   6.695
 8910TIP3   OH226686   1.910   6.027   1.687
 8910TIP3    H126687   1.880   6.033   1.778
 8910TIP3    H226688   1.921   6.118   1.660
 8911TIP3   OH226689   1.112   6.848   1.418
 8911TIP3    H126690   1.023   6.877   1.401
 8911TIP3    H226691   1.151   6.918   1.472
 8912TIP3   OH226692   3.383   6.968   5.175
 8912TIP3    H126693   3.367   6.947   5.267
 8912TIP3    H226694   3.350   6.892   5.128
 8913TIP3   OH226695   6.307   3.633   2.896
 8913TIP3    H126696   6.211   3.640   2.891
 8913TIP3    H226697   6.331   3.690   2.969
 8914TIP3   OH226698   2.119   5.373   1.907
 8914TIP3    H126699   2.141   5.280   1.920
 8914TIP3    H226700   2.137   5.414   1.992
 8915TIP3   OH226701   2.664   0.543   0.262
 8915TIP3    H126702   2.727   0.572   0.328
 8915TIP3    H226703   2.579   0.549   0.306
 8916TIP3   OH226704   3.252   5.684   0.574
 8916TIP3    H126705   3.296   5.755   0.527
 8916TIP3    H226706   3.171   5.723   0.605
 8917TIP3   OH226707   2.102   3.534   5.902
 8917TIP3    H126708   2.054   3.468   5.953
 8917TIP3    H226709   2.037   3.601   5.883
 8918TIP3   OH226710   5.694   3.016   4.484
 8918TIP3    H126711   5.726   3.106   4.484
 8918TIP3    H226712   5.664   3.001   4.394
 8919TIP3   OH226713   3.941   4.653   2.735
 8919TIP3    H126714   3.881   4.726   2.751
 8919TIP3    H226715   3.911   4.615   2.652
 8920TIP3   OH226716   6.743   0.777   1.471
 8920TIP3    H126717   6.815   0.751   1.530
 8920TIP3    H226718   6.693   0.841   1.521
 8921TIP3   OH226719   1.465   6.077   4.601
 8921TIP3    H126720   1.489   6.056   4.691
 8921TIP3    H226721   1.374   6.107   4.606
 8922TIP3   OH226722   1.824   0.268   6.101
 8922TIP3    H126723   1.918   0.266   6.083
 8922TIP3    H226724   1.813   0.338   6.166
 8923TIP3   OH226725   0.846   4.155   0.368
 8923TIP3    H126726   0.816   4.216   0.301
 8923TIP3    H226727   0.780   4.161   0.437
 8924TIP3   OH226728   7.095   5.474   4.214
 8924TIP3    H126729   7.018   5.432   4.177
 8924TIP3    H226730   7.168   5.441   4.163
 8925TIP3   OH226731   1.370   0.478   2.712
 8925TIP3    H126732   1.428   0.402   2.718
 8925TIP3    H226733   1.428   0.553   2.712
 8926TIP3   OH226734   4.112   7.551   0.593
 8926TIP3    H126735   4.047   7.613   0.626
 8926TIP3    H226736   4.180   7.607   0.555
 8927TIP3   OH226737   2.239   2.431   4.396
 8927TIP3    H126738   2.280   2.365   4.340
 8927TIP3    H226739   2.256   2.401   4.485
 8928TIP3   OH226740   4.290   2.303   6.245
 8928TIP3    H126741   4.222   2.328   6.183
 8928TIP3    H226742   4.260   2.221   6.282
 8929TIP3   OH226743   2.893   2.348   6.367
 8929TIP3    H126744   2.818   2.394   6.329
 8929TIP3    H226745   2.866   2.256   6.368
 8930TIP3   OH226746   7.652   1.559   4.444
 8930TIP3    H126747   7.573   1.505   4.447
 8930TIP3    H226748   7.701   1.533   4.522
 8931TIP3   OH226749   7.394   1.133   1.947
 8931TIP3    H126750   7.411   1.171   2.034
 8931TIP3    H226751   7.413   1.040   1.958
 8932TIP3   OH226752   2.977   6.781   0.179
 8932TIP3    H126753   3.056   6.734   0.209
 8932TIP3    H226754   2.971   6.760   0.086
 8933TIP3   OH226755   5.987   5.024   4.274
 8933TIP3    H126756   6.000   5.084   4.200
 8933TIP3    H226757   6.049   4.952   4.259
 8934TIP3   OH226758   6.774   5.886   4.402
 8934TIP3    H126759   6.718   5.835   4.344
 8934TIP3    H226760   6.757   5.851   4.490
 8935TIP3   OH226761   5.865   7.212   3.831
 8935TIP3    H126762   5.952   7.245   3.855
 8935TIP3    H226763   5.804   7.269   3.877
 8936TIP3   OH226764   6.923   5.495   5.865
 8936TIP3    H126765   6.994   5.554   5.892
 8936TIP3    H226766   6.966   5.430   5.810
 8937TIP3   OH226767   7.856   2.634   2.817
 8937TIP3    H126768   7.784   2.680   2.861
 8937TIP3    H226769   7.884   2.569   2.881
 8938TIP3   OH226770   2.767  -0.034   0.263
 8938TIP3    H126771   2.765   0.004   0.351
 8938TIP3    H226772   2.776   0.042   0.205
 8939TIP3   OH226773   8.051   4.145   4.091
 8939TIP3    H126774   8.082   4.185   4.010
 8939TIP3    H226775   8.000   4.214   4.134
 8940TIP3   OH226776   0.771   0.152   5.753
 8940TIP3    H126777   0.706   0.142   5.684
 8940TIP3    H226778   0.723   0.136   5.834
 8941TIP3   OH226779   5.657   3.048   5.806
 8941TIP3    H126780   5.709   3.103   5.747
 8941TIP3    H226781   5.566   3.065   5.781
 8942TIP3   OH226782   3.696   4.468   3.923
 8942TIP3    H126783   3.759   4.463   3.995
 8942TIP3    H226784   3.750   4.477   3.845
 8943TIP3   OH226785   7.789   4.756   3.695
 8943TIP3    H126786   7.807   4.668   3.662
 8943TIP3    H226787   7.828   4.757   3.783
 8944TIP3   OH226788   1.139   7.689   1.223
 8944TIP3    H126789   1.121   7.728   1.138
 8944TIP3    H226790   1.199   7.617   1.204
 8945TIP3   OH226791   1.860   7.594   0.273
 8945TIP3    H126792   1.868   7.618   0.365
 8945TIP3    H226793   1.928   7.528   0.260
 8946TIP3   OH226794   7.147   3.980   4.708
 8946TIP3    H126795   7.111   3.990   4.620
 8946TIP3    H226796   7.152   3.886   4.722
 8947TIP3   OH226797   0.579   5.037   6.682
 8947TIP3    H126798   0.577   5.067   6.591
 8947TIP3    H226799   0.487   5.025   6.706
 8948TIP3   OH226800   6.026   1.548   4.299
 8948TIP3    H126801   5.965   1.622   4.298
 8948TIP3    H226802   5.977   1.476   4.338
 8949TIP3   OH226803   3.415   2.460   6.473
 8949TIP3    H126804   3.464   2.436   6.552
 8949TIP3    H226805   3.381   2.377   6.440
 8950TIP3   OH226806   6.145   7.562   4.241
 8950TIP3    H126807   6.070   7.619   4.224
 8950TIP3    H226808   6.151   7.558   4.337
 8951TIP3   OH226809   1.902   3.533   5.578
 8951TIP3    H126810   1.850   3.547   5.499
 8951TIP3    H226811   1.980   3.486   5.548
 8952TIP3   OH226812   7.814   6.162   6.316
 8952TIP3    H126813   7.881   6.127   6.375
 8952TIP3    H226814   7.864   6.213   6.251
 8953TIP3   OH226815   4.645   3.362   2.785
 8953TIP3    H126816   4.666   3.451   2.755
 8953TIP3    H226817   4.601   3.321   2.711
 8954TIP3   OH226818   5.905   1.813   0.210
 8954TIP3    H126819   5.886   1.800   0.117
 8954TIP3    H226820   5.952   1.733   0.236
 8955TIP3   OH226821   1.738   5.357   3.452
 8955TIP3    H126822   1.654   5.313   3.452
 8955TIP3    H226823   1.740   5.406   3.371
 8956TIP3   OH226824   3.579   3.711   2.485
 8956TIP3    H126825   3.560   3.715   2.579
 8956TIP3    H226826   3.596   3.802   2.460
 8957TIP3   OH226827   5.251   4.837   1.907
 8957TIP3    H126828   5.165   4.878   1.915
 8957TIP3    H226829   5.233   4.743   1.914
 8958TIP3   OH226830   1.739   7.671   6.242
 8958TIP3    H126831   1.775   7.758   6.226
 8958TIP3    H226832   1.801   7.611   6.199
 8959TIP3   OH226833   6.696   1.618   4.461
 8959TIP3    H126834   6.661   1.660   4.382
 8959TIP3    H226835   6.674   1.526   4.451
 8960TIP3   OH226836   6.497   1.058   3.752
 8960TIP3    H126837   6.483   0.969   3.786
 8960TIP3    H226838   6.590   1.062   3.731
 8961TIP3   OH226839   6.347   7.096   4.892
 8961TIP3    H126840   6.434   7.060   4.912
 8961TIP3    H226841   6.332   7.072   4.801
 8962TIP3   OH226842   4.099   1.209   4.007
 8962TIP3    H126843   4.053   1.149   3.948
 8962TIP3    H226844   4.095   1.294   3.963
 8963TIP3   OH226845   4.138   2.769   2.120
 8963TIP3    H126846   4.095   2.687   2.095
 8963TIP3    H226847   4.093   2.836   2.068
 8964TIP3   OH226848   7.487   3.412   6.365
 8964TIP3    H126849   7.554   3.380   6.425
 8964TIP3    H226850   7.526   3.402   6.278
 8965TIP3   OH226851   2.381   5.304   4.915
 8965TIP3    H126852   2.367   5.360   4.838
 8965TIP3    H226853   2.300   5.312   4.965
 8966TIP3   OH226854   6.204   2.975   3.017
 8966TIP3    H126855   6.281   3.022   2.985
 8966TIP3    H226856   6.144   2.974   2.943
 8967TIP3   OH226857   3.182   5.544   4.736
 8967TIP3    H126858   3.104   5.489   4.726
 8967TIP3    H226859   3.165   5.596   4.816
 8968TIP3   OH226860   4.802   3.313   0.097
 8968TIP3    H126861   4.716   3.320   0.140
 8968TIP3    H226862   4.820   3.219   0.096
 8969TIP3   OH226863   8.226   3.466   1.345
 8969TIP3    H126864   8.178   3.543   1.376
 8969TIP3    H226865   8.235   3.411   1.423
 8970TIP3   OH226866   4.394   2.522   4.911
 8970TIP3    H126867   4.483   2.512   4.878
 8970TIP3    H226868   4.345   2.559   4.836
 8971TIP3   OH226869   3.528   6.921   4.240
 8971TIP3    H126870   3.484   6.920   4.325
 8971TIP3    H226871   3.470   6.972   4.184
 8972TIP3   OH226872   4.780   4.033   6.734
 8972TIP3    H126873   4.707   3.983   6.698
 8972TIP3    H226874   4.801   3.990   6.817
 8973TIP3   OH226875   7.301   4.822   5.528
 8973TIP3    H126876   7.235   4.858   5.586
 8973TIP3    H226877   7.341   4.898   5.486
 8974TIP3   OH226878   4.915   3.354   6.643
 8974TIP3    H126879   5.009   3.361   6.657
 8974TIP3    H226880   4.885   3.293   6.711
 8975TIP3   OH226881   1.782   2.089   1.315
 8975TIP3    H126882   1.820   2.058   1.232
 8975TIP3    H226883   1.858   2.108   1.370
 8976TIP3   OH226884   1.991   2.467   5.333
 8976TIP3    H126885   2.037   2.531   5.387
 8976TIP3    H226886   2.016   2.489   5.243
 8977TIP3   OH226887   4.756   5.728   6.567
 8977TIP3    H126888   4.719   5.721   6.479
 8977TIP3    H226889   4.826   5.663   6.570
 8978TIP3   OH226890   2.762   2.046   4.638
 8978TIP3    H126891   2.811   1.970   4.608
 8978TIP3    H226892   2.827   2.116   4.644
 8979TIP3   OH226893   7.002   3.562   6.054
 8979TIP3    H126894   7.085   3.524   6.023
 8979TIP3    H226895   6.981   3.629   5.989
 8980TIP3   OH226896   4.028   4.885   4.709
 8980TIP3    H126897   4.011   4.979   4.716
 8980TIP3    H226898   3.946   4.844   4.736
 8981TIP3   OH226899   0.525   1.895   6.140
 8981TIP3    H126900   0.554   1.983   6.114
 8981TIP3    H226901   0.521   1.846   6.058
 8982TIP3   OH226902   4.560   6.663   4.444
 8982TIP3    H126903   4.644   6.624   4.416
 8982TIP3    H226904   4.507   6.587   4.469
 8983TIP3   OH226905   6.123   1.806   2.175
 8983TIP3    H126906   6.161   1.894   2.182
 8983TIP3    H226907   6.030   1.821   2.160
 8984TIP3   OH226908   7.289   0.388   2.811
 8984TIP3    H126909   7.373   0.363   2.773
 8984TIP3    H226910   7.224   0.339   2.760
 8985TIP3   OH226911   3.288   7.277   0.813
 8985TIP3    H126912   3.197   7.257   0.835
 8985TIP3    H226913   3.297   7.255   0.721
 8986TIP3   OH226914   8.256   7.261   3.561
 8986TIP3    H126915   8.194   7.188   3.560
 8986TIP3    H226916   8.225   7.318   3.632
 8987TIP3   OH226917   6.904   4.784   1.643
 8987TIP3    H126918   6.861   4.867   1.661
 8987TIP3    H226919   6.877   4.726   1.715
 8988TIP3   OH226920   3.846   1.704   6.009
 8988TIP3    H126921   3.802   1.767   5.952
 8988TIP3    H226922   3.910   1.661   5.953
 8989TIP3   OH226923   0.219   5.323   2.364
 8989TIP3    H126924   0.145   5.372   2.402
 8989TIP3    H226925   0.248   5.378   2.291
 8990TIP3   OH226926   2.962   0.074   3.923
 8990TIP3    H126927   2.987   0.068   3.831
 8990TIP3    H226928   3.026   0.020   3.969
 8991TIP3   OH226929   5.079   0.864   0.465
 8991TIP3    H126930   5.072   0.951   0.424
 8991TIP3    H226931   4.994   0.823   0.450
 8992TIP3   OH226932   6.151   3.619   1.979
 8992TIP3    H126933   6.180   3.690   2.036
 8992TIP3    H226934   6.168   3.539   2.030
 8993TIP3   OH226935   5.156   0.773   2.887
 8993TIP3    H126936   5.217   0.707   2.922
 8993TIP3    H226937   5.211   0.827   2.830
 8994TIP3   OH226938   7.793   0.391   5.218
 8994TIP3    H126939   7.809   0.390   5.123
 8994TIP3    H226940   7.851   0.323   5.253
 8995TIP3   OH226941   6.860   2.097   0.882
 8995TIP3    H126942   6.782   2.153   0.882
 8995TIP3    H226943   6.933   2.158   0.893
 8996TIP3   OH226944   6.445   5.018   2.257
 8996TIP3    H126945   6.393   4.939   2.238
 8996TIP3    H226946   6.460   5.015   2.351
 8997TIP3   OH226947   6.003   2.268   0.654
 8997TIP3    H126948   6.014   2.363   0.651
 8997TIP3    H226949   5.939   2.250   0.585
 8998TIP3   OH226950   5.142   0.691   1.716
 8998TIP3    H126951   5.110   0.603   1.697
 8998TIP3    H226952   5.093   0.748   1.657
 8999TIP3   OH226953   7.157   0.481   3.098
 8999TIP3    H126954   7.125   0.411   3.041
 8999TIP3    H226955   7.164   0.441   3.184
 9000TIP3   OH226956   2.994   2.642   3.166
 9000TIP3    H126957   2.914   2.653   3.217
 9000TIP3    H226958   2.969   2.582   3.095
 9001TIP3   OH226959   2.467   4.210   3.386
 9001TIP3    H126960   2.405   4.149   3.425
 9001TIP3    H226961   2.480   4.277   3.452
 9002TIP3   OH226962   2.582   7.709   3.697
 9002TIP3    H126963   2.606   7.644   3.763
 9002TIP3    H226964   2.559   7.787   3.748
 9003TIP3   OH226965   3.754   2.430   5.579
 9003TIP3    H126966   3.805   2.357   5.544
 9003TIP3    H226967   3.809   2.469   5.647
 9004TIP3   OH226968   5.065   2.404   4.110
 9004TIP3    H126969   4.980   2.385   4.071
 9004TIP3    H226970   5.068   2.499   4.119
 9005TIP3   OH226971   2.299   4.172   4.325
 9005TIP3    H126972   2.266   4.262   4.317
 9005TIP3    H226973   2.222   4.119   4.345
 9006TIP3   OH226974   8.044   0.491   2.231
 9006TIP3    H126975   8.094   0.420   2.271
 9006TIP3    H226976   7.988   0.523   2.302
 9007TIP3   OH226977   0.066   2.498   5.439
 9007TIP3    H126978   0.084   2.582   5.397
 9007TIP3    H226979   0.022   2.521   5.521
 9008TIP3   OH226980   6.746   5.322   1.734
 9008TIP3    H126981   6.711   5.404   1.769
 9008TIP3    H226982   6.715   5.255   1.795
 9009TIP3   OH226983   3.613   5.951   5.746
 9009TIP3    H126984   3.676   5.966   5.816
 9009TIP3    H226985   3.633   6.018   5.681
 9010TIP3   OH226986   1.715   7.752   3.671
 9010TIP3    H126987   1.809   7.736   3.668
 9010TIP3    H226988   1.700   7.795   3.755
 9011TIP3   OH226989   7.733   3.606   6.278
 9011TIP3    H126990   7.807   3.634   6.331
 9011TIP3    H226991   7.769   3.539   6.219
 9012TIP3   OH226992   5.955   2.073   0.851
 9012TIP3    H126993   5.986   2.110   0.934
 9012TIP3    H226994   5.990   2.132   0.784
 9013TIP3   OH226995   2.644   5.108   0.601
 9013TIP3    H126996   2.726   5.151   0.627
 9013TIP3    H226997   2.665   5.063   0.520
 9014TIP3   OH226998   8.245   6.909   0.712
 9014TIP3    H126999   8.262   6.918   0.806
 9014TIP3    H227000   8.172   6.968   0.694
 9015TIP3   OH227001   5.613   4.467   3.147
 9015TIP3    H127002   5.632   4.400   3.212
 9015TIP3    H227003   5.518   4.477   3.150
 9016TIP3   OH227004   3.725   5.663   1.428
 9016TIP3    H127005   3.681   5.676   1.511
 9016TIP3    H227006   3.689   5.582   1.393
 9017TIP3   OH227007   6.711   2.024   5.609
 9017TIP3    H127008   6.793   1.992   5.571
 9017TIP3    H227009   6.667   1.944   5.640
 9018TIP3   OH227010   0.898   0.609   1.535
 9018TIP3    H127011   0.843   0.684   1.517
 9018TIP3    H227012   0.837   0.538   1.554
 9019TIP3   OH227013   6.461   0.913   2.387
 9019TIP3    H127014   6.466   0.949   2.299
 9019TIP3    H227015   6.373   0.934   2.418
 9020TIP3   OH227016   8.168   3.623   0.504
 9020TIP3    H127017   8.167   3.685   0.431
 9020TIP3    H227018   8.102   3.656   0.565
 9021TIP3   OH227019   6.841   3.927   5.282
 9021TIP3    H127020   6.752   3.955   5.302
 9021TIP3    H227021   6.848   3.934   5.187
 9022TIP3   OH227022   1.666   3.538   4.645
 9022TIP3    H127023   1.571   3.533   4.635
 9022TIP3    H227024   1.689   3.460   4.696
 9023TIP3   OH227025   3.305   3.176   0.824
 9023TIP3    H127026   3.318   3.187   0.730
 9023TIP3    H227027   3.240   3.107   0.832
 9024TIP3   OH227028   0.310   3.232   2.757
 9024TIP3    H127029   0.389   3.195   2.716
 9024TIP3    H227030   0.282   3.301   2.698
 9025TIP3   OH227031   6.308   6.685   5.843
 9025TIP3    H127032   6.292   6.778   5.856
 9025TIP3    H227033   6.256   6.662   5.766
 9026TIP3   OH227034   3.403   2.539   5.922
 9026TIP3    H127035   3.352   2.528   5.842
 9026TIP3    H227036   3.380   2.464   5.976
 9027TIP3   OH227037   7.405   4.225   0.980
 9027TIP3    H127038   7.364   4.192   0.901
 9027TIP3    H227039   7.424   4.147   1.032
 9028TIP3   OH227040   0.236   7.653   2.418
 9028TIP3    H127041   0.155   7.634   2.465
 9028TIP3    H227042   0.264   7.569   2.382
 9029TIP3   OH227043   4.631   5.455   3.019
 9029TIP3    H127044   4.698   5.499   2.967
 9029TIP3    H227045   4.658   5.363   3.020
 9030TIP3   OH227046   2.070   0.877   1.076
 9030TIP3    H127047   2.074   0.787   1.107
 9030TIP3    H227048   1.977   0.900   1.082
 9031TIP3   OH227049   5.473   6.334   4.890
 9031TIP3    H127050   5.534   6.370   4.826
 9031TIP3    H227051   5.500   6.242   4.900
 9032TIP3   OH227052   4.037   4.368   0.477
 9032TIP3    H127053   3.990   4.381   0.395
 9032TIP3    H227054   3.985   4.303   0.524
 9033TIP3   OH227055   4.286   6.495   5.392
 9033TIP3    H127056   4.257   6.425   5.334
 9033TIP3    H227057   4.294   6.572   5.335
 9034TIP3   OH227058   2.069   7.541   6.595
 9034TIP3    H127059   2.022   7.625   6.598
 9034TIP3    H227060   2.017   7.482   6.649
 9035TIP3   OH227061   5.498   7.507   0.816
 9035TIP3    H127062   5.413   7.519   0.775
 9035TIP3    H227063   5.535   7.430   0.773
 9036TIP3   OH227064   6.697   2.581   1.463
 9036TIP3    H127065   6.688   2.516   1.533
 9036TIP3    H227066   6.776   2.630   1.487
 9037TIP3   OH227067   5.149   4.544   0.041
 9037TIP3    H127068   5.209   4.578  -0.026
 9037TIP3    H227069   5.099   4.476  -0.003
 9038TIP3   OH227070   0.378   3.443   0.510
 9038TIP3    H127071   0.353   3.512   0.449
 9038TIP3    H227072   0.440   3.389   0.460
 9039TIP3   OH227073   2.868   0.413   1.100
 9039TIP3    H127074   2.802   0.401   1.169
 9039TIP3    H227075   2.903   0.500   1.115
 9040TIP3   OH227076   1.930   7.240   4.927
 9040TIP3    H127077   1.888   7.169   4.879
 9040TIP3    H227078   1.858   7.295   4.957
 9041TIP3   OH227079   0.703   2.574   4.379
 9041TIP3    H127080   0.657   2.535   4.304
 9041TIP3    H227081   0.642   2.563   4.452
 9042TIP3   OH227082   1.786   3.232   1.883
 9042TIP3    H127083   1.826   3.278   1.956
 9042TIP3    H227084   1.709   3.190   1.922
 9043TIP3   OH227085   1.821   1.646   6.081
 9043TIP3    H127086   1.782   1.666   6.166
 9043TIP3    H227087   1.814   1.551   6.073
 9044TIP3   OH227088   1.778   4.704   6.460
 9044TIP3    H127089   1.848   4.687   6.523
 9044TIP3    H227090   1.697   4.685   6.507
 9045TIP3   OH227091   2.498   5.763   0.405
 9045TIP3    H127092   2.415   5.723   0.379
 9045TIP3    H227093   2.515   5.829   0.339
 9046TIP3   OH227094   3.634   1.930   6.013
 9046TIP3    H127095   3.621   2.022   5.990
 9046TIP3    H227096   3.710   1.929   6.070
 9047TIP3   OH227097   7.889   1.096   5.289
 9047TIP3    H127098   7.966   1.153   5.289
 9047TIP3    H227099   7.871   1.082   5.196
 9048TIP3   OH227100   7.087   7.068   4.928
 9048TIP3    H127101   7.060   7.152   4.967
 9048TIP3    H227102   7.175   7.085   4.896
 9049TIP3   OH227103   2.017   3.652   5.230
 9049TIP3    H127104   1.932   3.610   5.219
 9049TIP3    H227105   2.028   3.706   5.152
 9050TIP3   OH227106   4.924   5.920   3.254
 9050TIP3    H127107   4.985   5.916   3.327
 9050TIP3    H227108   4.843   5.953   3.291
 9051TIP3   OH227109   7.937   6.173   2.376
 9051TIP3    H127110   7.939   6.238   2.306
 9051TIP3    H227111   8.003   6.203   2.439
 9052TIP3   OH227112   4.012   3.893   4.229
 9052TIP3    H127113   4.080   3.955   4.256
 9052TIP3    H227114   4.046   3.807   4.254
 9053TIP3   OH227115   6.902   7.549   5.051
 9053TIP3    H127116   6.950   7.632   5.061
 9053TIP3    H227117   6.810   7.574   5.056
 9054TIP3   OH227118   5.502   6.354   2.023
 9054TIP3    H127119   5.483   6.260   2.026
 9054TIP3    H227120   5.566   6.368   2.093
 9055TIP3   OH227121   1.959   2.314   2.310
 9055TIP3    H127122   2.051   2.335   2.293
 9055TIP3    H227123   1.911   2.363   2.243
 9056TIP3   OH227124   2.549   4.486   3.433
 9056TIP3    H127125   2.640   4.510   3.415
 9056TIP3    H227126   2.497   4.542   3.376
 9057TIP3   OH227127   5.829   3.841   1.713
 9057TIP3    H127128   5.825   3.780   1.639
 9057TIP3    H227129   5.737   3.863   1.730
 9058TIP3   OH227130   8.062   3.519   4.986
 9058TIP3    H127131   7.978   3.538   4.945
 9058TIP3    H227132   8.078   3.595   5.042
 9059TIP3   OH227133   0.732   4.459   2.134
 9059TIP3    H127134   0.743   4.550   2.105
 9059TIP3    H227135   0.686   4.416   2.062
 9060TIP3   OH227136   0.354   2.765   4.700
 9060TIP3    H127137   0.328   2.754   4.791
 9060TIP3    H227138   0.275   2.742   4.649
 9061TIP3   OH227139   5.485   0.811   4.412
 9061TIP3    H127140   5.481   0.764   4.329
 9061TIP3    H227141   5.503   0.901   4.388
 9062TIP3   OH227142   3.674   2.074   5.349
 9062TIP3    H127143   3.671   2.139   5.280
 9062TIP3    H227144   3.737   2.109   5.412
 9063TIP3   OH227145   1.460   2.419   0.591
 9063TIP3    H127146   1.500   2.412   0.505
 9063TIP3    H227147   1.524   2.379   0.650
 9064TIP3   OH227148   2.638   4.733   1.084
 9064TIP3    H127149   2.611   4.822   1.064
 9064TIP3    H227150   2.618   4.722   1.177
 9065TIP3   OH227151   2.415   4.339   2.739
 9065TIP3    H127152   2.357   4.303   2.672
 9065TIP3    H227153   2.483   4.385   2.690
 9066TIP3   OH227154   5.395   6.070   1.599
 9066TIP3    H127155   5.389   6.131   1.673
 9066TIP3    H227156   5.398   6.126   1.522
 9067TIP3   OH227157   2.544   4.363   4.195
 9067TIP3    H127158   2.544   4.457   4.215
 9067TIP3    H227159   2.608   4.354   4.124
 9068TIP3   OH227160   6.847   6.295   5.668
 9068TIP3    H127161   6.828   6.387   5.686
 9068TIP3    H227162   6.806   6.277   5.584
 9069TIP3   OH227163   0.693   0.082   2.445
 9069TIP3    H127164   0.761   0.138   2.482
 9069TIP3    H227165   0.682   0.012   2.509
 9070TIP3   OH227166   5.510   3.941   5.836
 9070TIP3    H127167   5.529   4.025   5.877
 9070TIP3    H227168   5.574   3.880   5.872
 9071TIP3   OH227169   2.528   7.364   0.354
 9071TIP3    H127170   2.581   7.365   0.274
 9071TIP3    H227171   2.592   7.346   0.424
 9072TIP3   OH227172   6.323   4.491   0.842
 9072TIP3    H127173   6.308   4.460   0.753
 9072TIP3    H227174   6.391   4.558   0.833
 9073TIP3   OH227175   2.440   1.841   5.562
 9073TIP3    H127176   2.420   1.934   5.550
 9073TIP3    H227177   2.486   1.817   5.481
 9074TIP3   OH227178   1.794   0.439   2.146
 9074TIP3    H127179   1.829   0.513   2.196
 9074TIP3    H227180   1.740   0.391   2.209
 9075TIP3   OH227181   2.262   6.446   3.967
 9075TIP3    H127182   2.244   6.377   3.904
 9075TIP3    H227183   2.272   6.525   3.914
 9076TIP3   OH227184   0.895   5.977   1.996
 9076TIP3    H127185   0.990   5.979   2.009
 9076TIP3    H227186   0.866   6.064   2.021
 9077TIP3   OH227187   1.017   2.777   1.948
 9077TIP3    H127188   1.063   2.856   1.920
 9077TIP3    H227189   1.060   2.706   1.900
 9078TIP3   OH227190   6.169   0.831   2.989
 9078TIP3    H127191   6.149   0.914   2.946
 9078TIP3    H227192   6.261   0.814   2.966
 9079TIP3   OH227193   0.869   7.297   4.833
 9079TIP3    H127194   0.882   7.385   4.798
 9079TIP3    H227195   0.892   7.303   4.925
 9080TIP3   OH227196   6.495   2.513   2.194
 9080TIP3    H127197   6.558   2.446   2.169
 9080TIP3    H227198   6.412   2.484   2.157
 9081TIP3   OH227199   1.455   1.894   4.469
 9081TIP3    H127200   1.444   1.985   4.444
 9081TIP3    H227201   1.503   1.897   4.552
 9082TIP3   OH227202   2.301   4.870   2.259
 9082TIP3    H127203   2.396   4.880   2.268
 9082TIP3    H227204   2.264   4.943   2.310
 9083TIP3   OH227205   4.929   1.094   0.318
 9083TIP3    H127206   4.843   1.131   0.335
 9083TIP3    H227207   4.935   1.088   0.223
 9084TIP3   OH227208   8.126   4.824   1.477
 9084TIP3    H127209   8.170   4.752   1.433
 9084TIP3    H227210   8.033   4.811   1.460
 9085TIP3   OH227211   7.968   1.065   4.528
 9085TIP3    H127212   7.910   1.127   4.484
 9085TIP3    H227213   8.000   1.008   4.458
 9086TIP3   OH227214   7.316   1.493   0.301
 9086TIP3    H127215   7.229   1.455   0.317
 9086TIP3    H227216   7.297   1.575   0.254
 9087TIP3   OH227217   0.969   6.386   5.981
 9087TIP3    H127218   0.894   6.444   5.970
 9087TIP3    H227219   0.989   6.391   6.075
 9088TIP3   OH227220   4.442   4.440   3.486
 9088TIP3    H127221   4.393   4.433   3.404
 9088TIP3    H227222   4.403   4.374   3.544
 9089TIP3   OH227223   4.546   7.482   1.380
 9089TIP3    H127224   4.491   7.484   1.459
 9089TIP3    H227225   4.573   7.390   1.373
 9090TIP3   OH227226   7.037   4.685   3.969
 9090TIP3    H127227   7.073   4.748   3.908
 9090TIP3    H227228   7.048   4.725   4.055
 9091TIP3   OH227229   7.819   2.411   1.403
 9091TIP3    H127230   7.804   2.462   1.323
 9091TIP3    H227231   7.736   2.419   1.451
 9092TIP3   OH227232   2.494   3.278   5.741
 9092TIP3    H127233   2.446   3.202   5.710
 9092TIP3    H227234   2.559   3.243   5.801
 9093TIP3   OH227235   0.970   1.102   6.726
 9093TIP3    H127236   0.915   1.122   6.650
 9093TIP3    H227237   1.056   1.085   6.690
 9094TIP3   OH227238   7.829   1.413   2.237
 9094TIP3    H127239   7.774   1.448   2.167
 9094TIP3    H227240   7.889   1.353   2.193
 9095TIP3   OH227241   2.467   7.092   0.993
 9095TIP3    H127242   2.442   7.021   1.052
 9095TIP3    H227243   2.562   7.087   0.989
 9096TIP3   OH227244   3.723   1.293   0.907
 9096TIP3    H127245   3.634   1.260   0.919
 9096TIP3    H227246   3.750   1.321   0.995
 9097TIP3   OH227247   6.374   3.500   1.627
 9097TIP3    H127248   6.340   3.426   1.676
 9097TIP3    H227249   6.334   3.577   1.667
 9098TIP3   OH227250   4.727   7.049   4.392
 9098TIP3    H127251   4.655   7.021   4.336
 9098TIP3    H227252   4.783   6.972   4.399
 9099TIP3   OH227253   3.599   4.415   2.504
 9099TIP3    H127254   3.541   4.421   2.428
 9099TIP3    H227255   3.654   4.338   2.487
 9100TIP3   OH227256   6.689   7.346   4.174
 9100TIP3    H127257   6.750   7.411   4.138
 9100TIP3    H227258   6.617   7.398   4.210
 9101TIP3   OH227259   3.041   5.820   3.435
 9101TIP3    H127260   2.971   5.875   3.401
 9101TIP3    H227261   3.026   5.734   3.394
 9102TIP3   OH227262   3.330   7.696   1.082
 9102TIP3    H127263   3.304   7.673   0.993
 9102TIP3    H227264   3.362   7.613   1.119
 9103TIP3   OH227265   1.103   2.361   0.585
 9103TIP3    H127266   1.094   2.399   0.497
 9103TIP3    H227267   1.086   2.434   0.644
 9104TIP3   OH227268   6.584   4.671   1.807
 9104TIP3    H127269   6.562   4.696   1.717
 9104TIP3    H227270   6.508   4.620   1.836
 9105TIP3   OH227271   5.359   2.243   0.336
 9105TIP3    H127272   5.360   2.199   0.251
 9105TIP3    H227273   5.366   2.336   0.315
 9106TIP3   OH227274   4.630   6.398   4.917
 9106TIP3    H127275   4.661   6.489   4.918
 9106TIP3    H227276   4.611   6.378   5.008
 9107TIP3   OH227277   5.605   1.214   3.968
 9107TIP3    H127278   5.699   1.196   3.970
 9107TIP3    H227279   5.595   1.294   4.019
 9108TIP3   OH227280   1.125   3.764   4.462
 9108TIP3    H127281   1.116   3.695   4.527
 9108TIP3    H227282   1.112   3.845   4.512
 9109TIP3   OH227283   4.898   1.400   4.764
 9109TIP3    H127284   4.930   1.313   4.787
 9109TIP3    H227285   4.909   1.451   4.844
 9110TIP3   OH227286   6.434   7.487   3.932
 9110TIP3    H127287   6.372   7.417   3.911
 9110TIP3    H227288   6.399   7.564   3.887
 9111TIP3   OH227289   3.482   5.044   6.474
 9111TIP3    H127290   3.499   4.990   6.397
 9111TIP3    H227291   3.529   4.999   6.545
 9112TIP3   OH227292   3.390   4.299   2.780
 9112TIP3    H127293   3.343   4.367   2.732
 9112TIP3    H227294   3.437   4.249   2.712
 9113TIP3   OH227295   5.156   6.718   3.129
 9113TIP3    H127296   5.239   6.684   3.163
 9113TIP3    H227297   5.090   6.683   3.188
 9114TIP3   OH227298   3.348   4.046   6.550
 9114TIP3    H127299   3.288   3.971   6.548
 9114TIP3    H227300   3.325   4.098   6.474
 9115TIP3   OH227301   8.273   0.128   6.393
 9115TIP3    H127302   8.261   0.222   6.383
 9115TIP3    H227303   8.303   0.098   6.307
 9116TIP3   OH227304   6.953   4.971   6.230
 9116TIP3    H127305   6.943   5.056   6.274
 9116TIP3    H227306   6.942   4.991   6.137
 9117TIP3   OH227307   5.779   1.674   2.720
 9117TIP3    H127308   5.845   1.613   2.753
 9117TIP3    H227309   5.771   1.740   2.789
 9118TIP3   OH227310   3.119   7.822   2.549
 9118TIP3    H127311   3.173   7.803   2.626
 9118TIP3    H227312   3.029   7.812   2.580
 9119TIP3   OH227313   0.852   5.417   2.984
 9119TIP3    H127314   0.919   5.350   2.999
 9119TIP3    H227315   0.798   5.380   2.914
 9120TIP3   OH227316   1.227   4.236   6.498
 9120TIP3    H127317   1.267   4.321   6.513
 9120TIP3    H227318   1.164   4.226   6.569
 9121TIP3   OH227319   4.924   1.214   2.512
 9121TIP3    H127320   4.866   1.141   2.493
 9121TIP3    H227321   4.910   1.275   2.439
 9122TIP3   OH227322   0.452   3.851   6.404
 9122TIP3    H127323   0.498   3.857   6.320
 9122TIP3    H227324   0.506   3.793   6.457
 9123TIP3   OH227325   5.702   3.944   6.220
 9123TIP3    H127326   5.657   3.864   6.192
 9123TIP3    H227327   5.777   3.912   6.271
 9124TIP3   OH227328   3.727   6.470   2.026
 9124TIP3    H127329   3.694   6.465   2.115
 9124TIP3    H227330   3.734   6.563   2.007
 9125TIP3   OH227331   3.135   5.932   1.075
 9125TIP3    H127332   3.170   6.001   1.132
 9125TIP3    H227333   3.205   5.916   1.012
 9126TIP3   OH227334   5.022   4.510   2.581
 9126TIP3    H127335   5.028   4.575   2.650
 9126TIP3    H227336   4.938   4.467   2.596
 9127TIP3   OH227337   4.161   1.491   4.027
 9127TIP3    H127338   4.248   1.468   3.996
 9127TIP3    H227339   4.152   1.584   4.007
 9128TIP3   OH227340   1.065   6.268   4.225
 9128TIP3    H127341   1.098   6.204   4.163
 9128TIP3    H227342   1.143   6.301   4.270
 9129TIP3   OH227343   3.242   0.685   4.242
 9129TIP3    H127344   3.154   0.703   4.274
 9129TIP3    H227345   3.259   0.753   4.177
 9130TIP3   OH227346   2.083   3.854   4.904
 9130TIP3    H127347   1.991   3.869   4.883
 9130TIP3    H227348   2.124   3.836   4.820
 9131TIP3   OH227349   7.143   2.608   6.168
 9131TIP3    H127350   7.141   2.668   6.093
 9131TIP3    H227351   7.222   2.556   6.155
 9132TIP3   OH227352   3.278   6.882   3.626
 9132TIP3    H127353   3.358   6.850   3.584
 9132TIP3    H227354   3.223   6.804   3.634
 9133TIP3   OH227355   1.062   0.381   1.814
 9133TIP3    H127356   1.081   0.361   1.905
 9133TIP3    H227357   1.063   0.295   1.771
 9134TIP3   OH227358   3.291   5.648   5.434
 9134TIP3    H127359   3.276   5.618   5.524
 9134TIP3    H227360   3.375   5.608   5.410
 9135TIP3   OH227361   5.183   7.207   5.128
 9135TIP3    H127362   5.264   7.257   5.131
 9135TIP3    H227363   5.198   7.134   5.188
 9136TIP3   OH227364   6.453   6.716   4.693
 9136TIP3    H127365   6.535   6.737   4.737
 9136TIP3    H227366   6.418   6.642   4.742
 9137TIP3   OH227367   0.239   2.606   2.326
 9137TIP3    H127368   0.294   2.591   2.403
 9137TIP3    H227369   0.155   2.566   2.348
 9138TIP3   OH227370   0.274   3.071   1.779
 9138TIP3    H127371   0.216   3.027   1.717
 9138TIP3    H227372   0.218   3.089   1.855
 9139TIP3   OH227373   6.711   0.053   5.342
 9139TIP3    H127374   6.685  -0.034   5.313
 9139TIP3    H227375   6.801   0.063   5.313
 9140TIP3   OH227376   2.228   7.404   5.684
 9140TIP3    H127377   2.216   7.310   5.672
 9140TIP3    H227378   2.313   7.422   5.644
 9141TIP3   OH227379   2.635   0.423   1.895
 9141TIP3    H127380   2.561   0.401   1.951
 9141TIP3    H227381   2.625   0.517   1.879
 9142TIP3   OH227382   0.519   6.840   6.568
 9142TIP3    H127383   0.431   6.869   6.545
 9142TIP3    H227384   0.533   6.871   6.657
 9143TIP3   OH227385   2.570   1.899   0.112
 9143TIP3    H127386   2.518   1.900   0.032
 9143TIP3    H227387   2.647   1.953   0.092
 9144TIP3   OH227388   1.917   0.640   2.950
 9144TIP3    H127389   1.919   0.545   2.950
 9144TIP3    H227390   1.998   0.666   2.994
 9145TIP3   OH227391   1.205   3.645   3.845
 9145TIP3    H127392   1.235   3.683   3.927
 9145TIP3    H227393   1.122   3.602   3.867
 9146TIP3   OH227394   5.798   4.728   2.730
 9146TIP3    H127395   5.713   4.738   2.774
 9146TIP3    H227396   5.800   4.799   2.666
 9147TIP3   OH227397   3.198   1.233   0.683
 9147TIP3    H127398   3.138   1.166   0.715
 9147TIP3    H227399   3.175   1.312   0.731
 9148TIP3   OH227400   3.754   3.409   2.010
 9148TIP3    H127401   3.769   3.503   2.002
 9148TIP3    H227402   3.669   3.394   1.969
 9149TIP3   OH227403   5.790   6.963   6.685
 9149TIP3    H127404   5.868   6.992   6.732
 9149TIP3    H227405   5.759   7.040   6.639
 9150TIP3   OH227406   2.322   7.375   5.391
 9150TIP3    H127407   2.410   7.358   5.425
 9150TIP3    H227408   2.278   7.290   5.396
 9151TIP3   OH227409   2.744   4.672   0.522
 9151TIP3    H127410   2.726   4.702   0.611
 9151TIP3    H227411   2.708   4.583   0.519
 9152TIP3   OH227412   7.522   0.448   0.481
 9152TIP3    H127413   7.470   0.479   0.406
 9152TIP3    H227414   7.487   0.496   0.556
 9153TIP3   OH227415   4.639   0.700   2.500
 9153TIP3    H127416   4.564   0.739   2.545
 9153TIP3    H227417   4.712   0.759   2.518
 9154TIP3   OH227418   1.235   1.388   3.155
 9154TIP3    H127419   1.323   1.366   3.124
 9154TIP3    H227420   1.178   1.329   3.107
 9155TIP3   OH227421   5.655   7.650   5.267
 9155TIP3    H127422   5.611   7.643   5.352
 9155TIP3    H227423   5.712   7.573   5.263
 9156TIP3   OH227424   1.244   2.290   1.749
 9156TIP3    H127425   1.162   2.301   1.701
 9156TIP3    H227426   1.301   2.360   1.717
 9157TIP3   OH227427   7.525   4.256   2.630
 9157TIP3    H127428   7.573   4.271   2.711
 9157TIP3    H227429   7.460   4.326   2.628
 9158TIP3   OH227430   1.709   0.046   5.185
 9158TIP3    H127431   1.771   0.047   5.113
 9158TIP3    H227432   1.741  -0.023   5.243
 9159TIP3   OH227433   7.793   1.938   1.404
 9159TIP3    H127434   7.712   1.968   1.364
 9159TIP3    H227435   7.834   1.884   1.337
 9160TIP3   OH227436   1.328   2.409   1.466
 9160TIP3    H127437   1.359   2.467   1.536
 9160TIP3    H227438   1.244   2.446   1.441
 9161TIP3   OH227439   7.971   7.633   6.101
 9161TIP3    H127440   8.033   7.651   6.172
 9161TIP3    H227441   7.886   7.662   6.136
 9162TIP3   OH227442   5.838   3.676   2.340
 9162TIP3    H127443   5.908   3.718   2.391
 9162TIP3    H227444   5.758   3.721   2.366
 9163TIP3   OH227445   6.666   0.122   6.330
 9163TIP3    H127446   6.713   0.190   6.379
 9163TIP3    H227447   6.682   0.142   6.238
 9164TIP3   OH227448   0.137   4.499   5.699
 9164TIP3    H127449   0.168   4.494   5.609
 9164TIP3    H227450   0.043   4.480   5.693
 9165TIP3   OH227451   7.494   0.121   0.162
 9165TIP3    H127452   7.441   0.135   0.084
 9165TIP3    H227453   7.466   0.036   0.195
 9166TIP3   OH227454   4.787   5.787   5.003
 9166TIP3    H127455   4.763   5.724   4.934
 9166TIP3    H227456   4.715   5.850   5.005
 9167TIP3   OH227457   1.054   2.529   5.141
 9167TIP3    H127458   1.099   2.565   5.218
 9167TIP3    H227459   1.091   2.441   5.131
 9168TIP3   OH227460   3.892   6.211   6.310
 9168TIP3    H127461   3.873   6.271   6.238
 9168TIP3    H227462   3.986   6.194   6.304
 9169TIP3   OH227463   1.362   2.466   4.092
 9169TIP3    H127464   1.409   2.443   4.012
 9169TIP3    H227465   1.419   2.437   4.163
 9170TIP3   OH227466   0.875   5.712   0.700
 9170TIP3    H127467   0.871   5.721   0.796
 9170TIP3    H227468   0.811   5.643   0.681
 9171TIP3   OH227469   4.869   2.060   5.449
 9171TIP3    H127470   4.926   1.986   5.469
 9171TIP3    H227471   4.925   2.137   5.458
 9172TIP3   OH227472   7.622   6.452   5.035
 9172TIP3    H127473   7.674   6.379   5.071
 9172TIP3    H227474   7.653   6.529   5.084
 9173TIP3   OH227475   2.092   2.779   2.515
 9173TIP3    H127476   2.026   2.847   2.503
 9173TIP3    H227477   2.155   2.816   2.575
 9174TIP3   OH227478   0.173   4.457   0.338
 9174TIP3    H127479   0.120   4.533   0.312
 9174TIP3    H227480   0.255   4.495   0.370
 9175TIP3   OH227481   1.261   5.093   0.187
 9175TIP3    H127482   1.302   5.073   0.271
 9175TIP3    H227483   1.332   5.127   0.133
 9176TIP3   OH227484   8.147   1.306   3.844
 9176TIP3    H127485   8.079   1.255   3.800
 9176TIP3    H227486   8.109   1.329   3.929
 9177TIP3   OH227487   1.110   4.795   0.680
 9177TIP3    H127488   1.152   4.829   0.759
 9177TIP3    H227489   1.099   4.871   0.623
 9178TIP3   OH227490   0.867   7.414   0.462
 9178TIP3    H127491   0.926   7.339   0.471
 9178TIP3    H227492   0.787   7.377   0.426
 9179TIP3   OH227493   2.164   0.711   0.808
 9179TIP3    H127494   2.164   0.750   0.895
 9179TIP3    H227495   2.125   0.624   0.821
 9180TIP3   OH227496   1.766   3.913   4.600
 9180TIP3    H127497   1.688   3.918   4.656
 9180TIP3    H227498   1.776   4.002   4.564
 9181TIP3   OH227499   7.213   4.862   6.308
 9181TIP3    H127500   7.172   4.799   6.249
 9181TIP3    H227501   7.152   4.935   6.312
 9182TIP3   OH227502   5.950   7.461   5.842
 9182TIP3    H127503   5.923   7.469   5.751
 9182TIP3    H227504   5.937   7.548   5.879
 9183TIP3   OH227505   1.189   6.053   0.655
 9183TIP3    H127506   1.100   6.036   0.685
 9183TIP3    H227507   1.245   6.026   0.727
 9184TIP3   OH227508   0.557   3.416   0.196
 9184TIP3    H127509   0.508   3.486   0.238
 9184TIP3    H227510   0.593   3.365   0.268
 9185TIP3   OH227511   3.888   5.511   4.948
 9185TIP3    H127512   3.972   5.529   4.907
 9185TIP3    H227513   3.824   5.524   4.878
 9186TIP3   OH227514   3.427   5.824   4.183
 9186TIP3    H127515   3.339   5.841   4.150
 9186TIP3    H227516   3.484   5.877   4.128
 9187TIP3   OH227517   6.132   6.249   0.436
 9187TIP3    H127518   6.132   6.161   0.474
 9187TIP3    H227519   6.194   6.298   0.489
 9188TIP3   OH227520   3.648   7.528   1.975
 9188TIP3    H127521   3.739   7.535   2.003
 9188TIP3    H227522   3.603   7.598   2.022
 9189TIP3   OH227523   6.948   5.385   4.458
 9189TIP3    H127524   6.987   5.464   4.420
 9189TIP3    H227525   7.017   5.319   4.452
 9190TIP3   OH227526   1.332   3.385   3.610
 9190TIP3    H127527   1.263   3.441   3.645
 9190TIP3    H227528   1.323   3.303   3.659
 9191TIP3   OH227529   8.173   2.405   4.672
 9191TIP3    H127530   8.125   2.478   4.709
 9191TIP3    H227531   8.226   2.443   4.602
 9192TIP3   OH227532   4.741   3.637   6.447
 9192TIP3    H127533   4.802   3.656   6.518
 9192TIP3    H227534   4.763   3.700   6.378
 9193TIP3   OH227535   4.931   5.515   3.318
 9193TIP3    H127536   4.886   5.431   3.331
 9193TIP3    H227537   5.020   5.500   3.349
 9194TIP3   OH227538   5.985   3.684   2.618
 9194TIP3    H127539   5.966   3.656   2.708
 9194TIP3    H227540   5.960   3.776   2.616
 9195TIP3   OH227541   2.201   7.649   6.219
 9195TIP3    H127542   2.246   7.660   6.136
 9195TIP3    H227543   2.109   7.637   6.196
 9196TIP3   OH227544   1.446   6.927   3.206
 9196TIP3    H127545   1.441   6.930   3.111
 9196TIP3    H227546   1.521   6.870   3.224
 9197TIP3   OH227547   4.558   6.810   0.569
 9197TIP3    H127548   4.489   6.746   0.588
 9197TIP3    H227549   4.557   6.869   0.644
 9198TIP3   OH227550   4.272   6.491   0.594
 9198TIP3    H127551   4.365   6.489   0.573
 9198TIP3    H227552   4.251   6.401   0.620
 9199TIP3   OH227553   3.970   5.314   6.360
 9199TIP3    H127554   3.926   5.239   6.321
 9199TIP3    H227555   3.949   5.388   6.302
 9200TIP3   OH227556   2.217   5.700   0.744
 9200TIP3    H127557   2.133   5.661   0.718
 9200TIP3    H227558   2.216   5.698   0.839
 9201TIP3   OH227559   2.351   1.139   4.623
 9201TIP3    H127560   2.301   1.221   4.624
 9201TIP3    H227561   2.442   1.167   4.611
 9202TIP3   OH227562   3.743   2.673   0.720
 9202TIP3    H127563   3.757   2.718   0.803
 9202TIP3    H227564   3.821   2.692   0.668
 9203TIP3   OH227565   4.856   3.390   3.767
 9203TIP3    H127566   4.846   3.295   3.766
 9203TIP3    H227567   4.767   3.424   3.777
 9204TIP3   OH227568   6.800   6.288   6.130
 9204TIP3    H127569   6.794   6.214   6.069
 9204TIP3    H227570   6.826   6.249   6.213
 9205TIP3   OH227571   0.861   2.830   0.782
 9205TIP3    H127572   0.894   2.895   0.844
 9205TIP3    H227573   0.772   2.811   0.812
 9206TIP3   OH227574   7.058   5.319   1.554
 9206TIP3    H127575   7.115   5.284   1.486
 9206TIP3    H227576   7.095   5.404   1.576
 9207TIP3   OH227577   3.597   6.267   1.136
 9207TIP3    H127578   3.560   6.316   1.062
 9207TIP3    H227579   3.652   6.331   1.181
 9208TIP3   OH227580   7.310   3.073   2.602
 9208TIP3    H127581   7.285   2.982   2.587
 9208TIP3    H227582   7.385   3.068   2.661
 9209TIP3   OH227583   5.952   6.410   5.513
 9209TIP3    H127584   5.863   6.427   5.482
 9209TIP3    H227585   5.941   6.343   5.580
 9210TIP3   OH227586   0.953   3.520   6.210
 9210TIP3    H127587   0.961   3.427   6.187
 9210TIP3    H227588   1.044   3.551   6.213
 9211TIP3   OH227589   2.236   7.217   0.910
 9211TIP3    H127590   2.165   7.176   0.960
 9211TIP3    H227591   2.315   7.199   0.960
 9212TIP3   OH227592   7.394   0.178   4.915
 9212TIP3    H127593   7.432   0.121   4.981
 9212TIP3    H227594   7.300   0.172   4.929
 9213TIP3   OH227595   4.173   4.104   0.976
 9213TIP3    H127596   4.207   4.021   0.941
 9213TIP3    H227597   4.159   4.086   1.069
 9214TIP3   OH227598   6.909   0.124   2.477
 9214TIP3    H127599   6.899   0.117   2.572
 9214TIP3    H227600   6.827   0.163   2.447
 9215TIP3   OH227601   1.099   0.607   1.330
 9215TIP3    H127602   1.018   0.599   1.382
 9215TIP3    H227603   1.103   0.700   1.307
 9216TIP3   OH227604   4.896   5.483   2.039
 9216TIP3    H127605   4.972   5.498   2.096
 9216TIP3    H227606   4.824   5.529   2.083
 9217TIP3   OH227607   0.816   1.727   6.565
 9217TIP3    H127608   0.897   1.682   6.541
 9217TIP3    H227609   0.837   1.820   6.558
 9218TIP3   OH227610   3.292   0.582   5.543
 9218TIP3    H127611   3.360   0.552   5.482
 9218TIP3    H227612   3.222   0.517   5.534
 9219TIP3   OH227613   0.694   6.691   5.714
 9219TIP3    H127614   0.742   6.641   5.648
 9219TIP3    H227615   0.603   6.666   5.701
 9220TIP3   OH227616   2.886   2.595   6.584
 9220TIP3    H127617   2.848   2.667   6.534
 9220TIP3    H227618   2.977   2.589   6.554
 9221TIP3   OH227619   8.040   6.098   1.543
 9221TIP3    H127620   8.086   6.014   1.540
 9221TIP3    H227621   8.068   6.138   1.625
 9222TIP3   OH227622   0.885   4.915   0.099
 9222TIP3    H127623   0.920   4.965   0.174
 9222TIP3    H227624   0.957   4.860   0.071
 9223TIP3   OH227625   6.469   7.045   5.999
 9223TIP3    H127626   6.513   7.121   5.960
 9223TIP3    H227627   6.422   7.005   5.926
 9224TIP3   OH227628   6.023   3.519   3.117
 9224TIP3    H127629   5.990   3.545   3.203
 9224TIP3    H227630   6.073   3.439   3.135
 9225TIP3   OH227631   7.980   2.172   1.387
 9225TIP3    H127632   7.941   2.106   1.331
 9225TIP3    H227633   7.920   2.247   1.382
 9226TIP3   OH227634   2.027   0.824   1.393
 9226TIP3    H127635   2.038   0.918   1.374
 9226TIP3    H227636   2.010   0.821   1.487
 9227TIP3   OH227637   5.483   3.756   0.476
 9227TIP3    H127638   5.491   3.662   0.457
 9227TIP3    H227639   5.572   3.790   0.465
 9228TIP3   OH227640   7.890   4.817   3.115
 9228TIP3    H127641   7.834   4.748   3.078
 9228TIP3    H227642   7.828   4.880   3.151
 9229TIP3   OH227643   1.457   5.147   2.428
 9229TIP3    H127644   1.488   5.194   2.505
 9229TIP3    H227645   1.368   5.119   2.451
 9230TIP3   OH227646   3.990   2.926   6.515
 9230TIP3    H127647   4.044   2.855   6.479
 9230TIP3    H227648   3.980   2.904   6.607
 9231TIP3   OH227649   0.278   5.546   0.737
 9231TIP3    H127650   0.206   5.487   0.761
 9231TIP3    H227651   0.356   5.505   0.773
 9232TIP3   OH227652   3.771   2.658   6.558
 9232TIP3    H127653   3.787   2.577   6.509
 9232TIP3    H227654   3.813   2.642   6.643
 9233TIP3   OH227655   8.090   1.839   6.317
 9233TIP3    H127656   8.119   1.902   6.383
 9233TIP3    H227657   8.168   1.787   6.298
 9234TIP3   OH227658   7.488   1.971   0.203
 9234TIP3    H127659   7.491   2.041   0.137
 9234TIP3    H227660   7.548   1.905   0.170
 9235TIP3   OH227661   0.733   2.699   4.948
 9235TIP3    H127662   0.817   2.744   4.959
 9235TIP3    H227663   0.754   2.620   4.899
 9236TIP3   OH227664   1.219   0.819   6.659
 9236TIP3    H127665   1.308   0.795   6.686
 9236TIP3    H227666   1.172   0.735   6.655
 9237TIP3   OH227667   5.192   6.982   1.932
 9237TIP3    H127668   5.234   7.066   1.912
 9237TIP3    H227669   5.264   6.920   1.936
 9238TIP3   OH227670   0.828   5.788   2.945
 9238TIP3    H127671   0.841   5.879   2.971
 9238TIP3    H227672   0.780   5.748   3.018
 9239TIP3   OH227673   0.491   5.541   2.844
 9239TIP3    H127674   0.473   5.526   2.751
 9239TIP3    H227675   0.429   5.609   2.869
 9240TIP3   OH227676   4.225   0.645   1.062
 9240TIP3    H127677   4.146   0.698   1.054
 9240TIP3    H227678   4.195   0.555   1.043
 9241TIP3   OH227679   2.586   3.877   4.978
 9241TIP3    H127680   2.580   3.918   4.891
 9241TIP3    H227681   2.611   3.948   5.037
 9242TIP3   OH227682   1.849   7.555   1.123
 9242TIP3    H127683   1.820   7.492   1.188
 9242TIP3    H227684   1.794   7.539   1.046
 9243TIP3   OH227685   6.666   5.705   2.467
 9243TIP3    H127686   6.658   5.615   2.436
 9243TIP3    H227687   6.683   5.756   2.388
 9244TIP3   OH227688   0.347   0.251   4.799
 9244TIP3    H127689   0.260   0.228   4.834
 9244TIP3    H227690   0.371   0.176   4.744
 9245TIP3   OH227691   5.216   6.621   6.607
 9245TIP3    H127692   5.160   6.698   6.614
 9245TIP3    H227693   5.177   6.569   6.537
 9246TIP3   OH227694   2.724   5.089   2.797
 9246TIP3    H127695   2.797   5.029   2.812
 9246TIP3    H227696   2.695   5.069   2.708
 9247TIP3   OH227697   3.894   7.625   5.247
 9247TIP3    H127698   3.955   7.553   5.228
 9247TIP3    H227699   3.832   7.589   5.309
 9248TIP3   OH227700   0.894   6.838   3.684
 9248TIP3    H127701   0.828   6.839   3.615
 9248TIP3    H227702   0.878   6.918   3.734
 9249TIP3   OH227703   3.933   6.945   0.328
 9249TIP3    H127704   3.923   7.038   0.310
 9249TIP3    H227705   3.957   6.907   0.244
 9250TIP3   OH227706   2.998   1.106   4.470
 9250TIP3    H127707   2.927   1.108   4.533
 9250TIP3    H227708   3.034   1.017   4.476
 9251TIP3   OH227709   3.628   0.357   2.915
 9251TIP3    H127710   3.595   0.437   2.954
 9251TIP3    H227711   3.573   0.343   2.838
 9252TIP3   OH227712   6.405   2.414   1.793
 9252TIP3    H127713   6.409   2.338   1.851
 9252TIP3    H227714   6.343   2.473   1.835
 9253TIP3   OH227715   4.194   7.721   1.484
 9253TIP3    H127716   4.163   7.677   1.405
 9253TIP3    H227717   4.220   7.808   1.454
 9254TIP3   OH227718   6.067   0.753   4.774
 9254TIP3    H127719   6.049   0.824   4.713
 9254TIP3    H227720   6.106   0.684   4.720
 9255TIP3   OH227721   4.363   4.227   3.110
 9255TIP3    H127722   4.432   4.193   3.168
 9255TIP3    H227723   4.303   4.273   3.168
 9256TIP3   OH227724   7.588   2.395   1.202
 9256TIP3    H127725   7.656   2.447   1.159
 9256TIP3    H227726   7.510   2.410   1.149
 9257TIP3   OH227727   5.925   6.145   0.080
 9257TIP3    H127728   5.976   6.067   0.057
 9257TIP3    H227729   5.988   6.204   0.121
 9258TIP3   OH227730   2.616   6.460   2.901
 9258TIP3    H127731   2.637   6.400   2.973
 9258TIP3    H227732   2.521   6.473   2.908
 9259TIP3   OH227733   2.088   2.297   4.943
 9259TIP3    H127734   2.176   2.307   4.907
 9259TIP3    H227735   2.090   2.345   5.026
 9260TIP3   OH227736   3.504   3.009   6.289
 9260TIP3    H127737   3.475   3.054   6.210
 9260TIP3    H227738   3.454   3.050   6.360
 9261TIP3   OH227739   5.560   4.643   5.185
 9261TIP3    H127740   5.546   4.647   5.091
 9261TIP3    H227741   5.600   4.727   5.207
 9262TIP3   OH227742   6.077   3.312   5.225
 9262TIP3    H127743   6.131   3.277   5.296
 9262TIP3    H227744   6.128   3.384   5.189
 9263TIP3   OH227745   7.746   6.383   5.446
 9263TIP3    H127746   7.705   6.304   5.412
 9263TIP3    H227747   7.753   6.369   5.541
 9264TIP3   OH227748   6.917   2.402   2.767
 9264TIP3    H127749   6.933   2.327   2.710
 9264TIP3    H227750   6.851   2.453   2.721
 9265TIP3   OH227751   7.260   2.835   2.436
 9265TIP3    H127752   7.275   2.756   2.384
 9265TIP3    H227753   7.194   2.809   2.500
 9266TIP3   OH227754   6.410   0.416   3.141
 9266TIP3    H127755   6.496   0.450   3.165
 9266TIP3    H227756   6.349   0.483   3.172
 9267TIP3   OH227757   4.385   6.801   1.134
 9267TIP3    H127758   4.324   6.874   1.122
 9267TIP3    H227759   4.394   6.792   1.229
 9268TIP3   OH227760   3.614   1.031   2.473
 9268TIP3    H127761   3.607   0.943   2.512
 9268TIP3    H227762   3.704   1.036   2.441
 9269TIP3   OH227763   7.415   3.705   0.754
 9269TIP3    H127764   7.331   3.663   0.736
 9269TIP3    H227765   7.420   3.776   0.691
 9270TIP3   OH227766   2.766   4.623   1.667
 9270TIP3    H127767   2.685   4.674   1.665
 9270TIP3    H227768   2.745   4.542   1.621
 9271TIP3   OH227769   6.476   5.535   2.036
 9271TIP3    H127770   6.510   5.453   2.003
 9271TIP3    H227771   6.549   5.596   2.030
 9272TIP3   OH227772   0.533   1.023   6.460
 9272TIP3    H127773   0.447   1.020   6.501
 9272TIP3    H227774   0.526   0.965   6.385
 9273TIP3   OH227775   7.529   6.981   4.533
 9273TIP3    H127776   7.493   7.068   4.515
 9273TIP3    H227777   7.596   6.969   4.466
 9274TIP3   OH227778   7.339   0.577   4.569
 9274TIP3    H127779   7.287   0.542   4.497
 9274TIP3    H227780   7.306   0.666   4.581
 9275TIP3   OH227781   1.784   0.113   4.289
 9275TIP3    H127782   1.697   0.119   4.250
 9275TIP3    H227783   1.771   0.134   4.382
 9276TIP3   OH227784   6.059   7.743   3.720
 9276TIP3    H127785   6.023   7.827   3.690
 9276TIP3    H227786   6.153   7.760   3.732
 9277TIP3   OH227787   2.524   1.369   0.436
 9277TIP3    H127788   2.501   1.365   0.529
 9277TIP3    H227789   2.540   1.278   0.412
 9278TIP3   OH227790   7.965   4.744   0.732
 9278TIP3    H127791   7.966   4.708   0.644
 9278TIP3    H227792   7.957   4.668   0.789
 9279TIP3   OH227793   1.038   3.119   1.663
 9279TIP3    H127794   0.970   3.150   1.722
 9279TIP3    H227795   1.086   3.198   1.638
 9280TIP3   OH227796   5.920   3.843   0.137
 9280TIP3    H127797   5.984   3.914   0.147
 9280TIP3    H227798   5.835   3.888   0.136
 9281TIP3   OH227799   5.686   2.170   2.455
 9281TIP3    H127800   5.655   2.169   2.546
 9281TIP3    H227801   5.612   2.138   2.404
 9282TIP3   OH227802   3.073   6.518   0.324
 9282TIP3    H127803   3.074   6.453   0.394
 9282TIP3    H227804   2.981   6.528   0.302
 9283TIP3   OH227805   2.338   1.668   0.852
 9283TIP3    H127806   2.387   1.595   0.889
 9283TIP3    H227807   2.259   1.674   0.906
 9284TIP3   OH227808   5.274   5.056   4.756
 9284TIP3    H127809   5.293   5.148   4.735
 9284TIP3    H227810   5.294   5.009   4.676
 9285TIP3   OH227811   4.695   0.978   3.109
 9285TIP3    H127812   4.711   0.884   3.116
 9285TIP3    H227813   4.603   0.989   3.135
 9286TIP3   OH227814   5.384   1.375   5.204
 9286TIP3    H127815   5.302   1.422   5.194
 9286TIP3    H227816   5.452   1.441   5.189
 9287TIP3   OH227817   4.108   0.745   1.757
 9287TIP3    H127818   4.158   0.755   1.676
 9287TIP3    H227819   4.172   0.762   1.827
 9288TIP3   OH227820   6.984   2.798   3.396
 9288TIP3    H127821   7.059   2.783   3.338
 9288TIP3    H227822   6.924   2.853   3.345
 9289TIP3   OH227823   1.382   7.345   0.972
 9289TIP3    H127824   1.433   7.269   1.002
 9289TIP3    H227825   1.368   7.329   0.879
 9290TIP3   OH227826   5.683   4.967   4.624
 9290TIP3    H127827   5.715   4.886   4.662
 9290TIP3    H227828   5.602   4.943   4.578
 9291TIP3   OH227829   2.460   4.829   1.951
 9291TIP3    H127830   2.416   4.745   1.940
 9291TIP3    H227831   2.391   4.894   1.935
 9292TIP3   OH227832   6.631   2.291   6.607
 9292TIP3    H127833   6.631   2.228   6.679
 9292TIP3    H227834   6.649   2.375   6.649
 9293TIP3   OH227835   3.939   7.219   3.428
 9293TIP3    H127836   3.979   7.140   3.463
 9293TIP3    H227837   3.932   7.278   3.503
 9294TIP3   OH227838   0.858   1.557   0.390
 9294TIP3    H127839   0.832   1.475   0.349
 9294TIP3    H227840   0.776   1.596   0.421
 9295TIP3   OH227841   2.937   4.413   6.123
 9295TIP3    H127842   2.852   4.402   6.079
 9295TIP3    H227843   2.922   4.378   6.211
 9296TIP3   OH227844   0.426   2.143   3.744
 9296TIP3    H127845   0.350   2.090   3.717
 9296TIP3    H227846   0.497   2.079   3.753
 9297TIP3   OH227847   2.445   4.946   4.245
 9297TIP3    H127848   2.465   4.933   4.338
 9297TIP3    H227849   2.507   5.013   4.216
 9298TIP3   OH227850   8.106   6.884   5.040
 9298TIP3    H127851   8.177   6.848   4.988
 9298TIP3    H227852   8.149   6.927   5.114
 9299TIP3   OH227853   1.366   1.437   1.709
 9299TIP3    H127854   1.328   1.397   1.788
 9299TIP3    H227855   1.384   1.527   1.734
 9300TIP3   OH227856   0.105   0.723   3.510
 9300TIP3    H127857   0.138   0.669   3.582
 9300TIP3    H227858   0.036   0.670   3.470
 9301TIP3   OH227859   3.285   4.256   3.054
 9301TIP3    H127860   3.274   4.165   3.083
 9301TIP3    H227861   3.334   4.248   2.972
 9302TIP3   OH227862   0.449   6.467   4.881
 9302TIP3    H127863   0.391   6.519   4.825
 9302TIP3    H227864   0.397   6.391   4.905
 9303TIP3   OH227865   3.420   2.826   2.874
 9303TIP3    H127866   3.450   2.772   2.946
 9303TIP3    H227867   3.496   2.880   2.851
 9304TIP3   OH227868   6.267   2.971   2.226
 9304TIP3    H127869   6.283   2.993   2.317
 9304TIP3    H227870   6.214   3.043   2.192
 9305TIP3   OH227871   7.530   2.960   2.408
 9305TIP3    H127872   7.565   2.961   2.319
 9305TIP3    H227873   7.474   2.882   2.411
 9306TIP3   OH227874   1.305   3.904   0.528
 9306TIP3    H127875   1.391   3.920   0.489
 9306TIP3    H227876   1.244   3.952   0.472
 9307TIP3   OH227877   1.671   7.041   4.728
 9307TIP3    H127878   1.608   7.041   4.800
 9307TIP3    H227879   1.631   7.098   4.662
 9308TIP3   OH227880   7.199   5.398   1.985
 9308TIP3    H127881   7.236   5.486   1.980
 9308TIP3    H227882   7.119   5.403   1.933
 9309TIP3   OH227883   5.470  -0.005   0.854
 9309TIP3    H127884   5.503   0.079   0.821
 9309TIP3    H227885   5.546  -0.063   0.854
 9310TIP3   OH227886   6.213   7.469   1.240
 9310TIP3    H127887   6.298   7.508   1.262
 9310TIP3    H227888   6.149   7.524   1.284
 9311TIP3   OH227889   3.117   2.131   1.789
 9311TIP3    H127890   3.180   2.156   1.722
 9311TIP3    H227891   3.103   2.037   1.777
 9312TIP3   OH227892   1.113   0.373   6.225
 9312TIP3    H127893   1.200   0.413   6.219
 9312TIP3    H227894   1.080   0.375   6.135
 9313TIP3   OH227895   5.761   0.036   6.490
 9313TIP3    H127896   5.770   0.008   6.399
 9313TIP3    H227897   5.705   0.113   6.487
 9314TIP3   OH227898   3.117   2.490   0.674
 9314TIP3    H127899   3.168   2.520   0.749
 9314TIP3    H227900   3.031   2.530   0.685
 9315TIP3   OH227901   6.701   1.028   5.976
 9315TIP3    H127902   6.786   1.021   5.933
 9315TIP3    H227903   6.720   1.061   6.063
 9316TIP3   OH227904   5.812   1.122   1.303
 9316TIP3    H127905   5.777   1.207   1.275
 9316TIP3    H227906   5.766   1.104   1.385
 9317TIP3   OH227907   3.225   7.017   5.445
 9317TIP3    H127908   3.193   7.004   5.356
 9317TIP3    H227909   3.194   6.941   5.494
 9318TIP3   OH227910   0.365   0.602   4.095
 9318TIP3    H127911   0.400   0.513   4.101
 9318TIP3    H227912   0.359   0.631   4.187
 9319TIP3   OH227913   4.404   4.483   2.632
 9319TIP3    H127914   4.463   4.499   2.558
 9319TIP3    H227915   4.463   4.460   2.704
 9320TIP3   OH227916   5.330   6.916   2.209
 9320TIP3    H127917   5.257   6.949   2.156
 9320TIP3    H227918   5.297   6.917   2.299
 9321TIP3   OH227919   7.324   6.138   6.262
 9321TIP3    H127920   7.266   6.183   6.323
 9321TIP3    H227921   7.410   6.141   6.303
 9322TIP3   OH227922   3.329   6.582   6.475
 9322TIP3    H127923   3.300   6.668   6.504
 9322TIP3    H227924   3.401   6.559   6.534
 9323TIP3   OH227925   0.189   7.057   0.640
 9323TIP3    H127926   0.114   6.999   0.627
 9323TIP3    H227927   0.226   7.029   0.724
 9324TIP3   OH227928   3.979   0.589   4.221
 9324TIP3    H127929   4.073   0.599   4.231
 9324TIP3    H227930   3.951   0.668   4.175
 9325TIP3   OH227931   6.000   0.980   4.305
 9325TIP3    H127932   6.069   0.973   4.239
 9325TIP3    H227933   6.006   1.071   4.336
 9326TIP3   OH227934   1.174   3.478   5.011
 9326TIP3    H127935   1.168   3.399   5.064
 9326TIP3    H227936   1.178   3.447   4.921
 9327TIP3   OH227937   8.255   0.504   4.637
 9327TIP3    H127938   8.169   0.543   4.652
 9327TIP3    H227939   8.311   0.579   4.616
 9328TIP3   OH227940   4.985   0.827   5.843
 9328TIP3    H127941   4.965   0.910   5.886
 9328TIP3    H227942   5.078   0.832   5.823
 9329TIP3   OH227943   7.207   3.522   1.895
 9329TIP3    H127944   7.135   3.532   1.832
 9329TIP3    H227945   7.192   3.437   1.935
 9330TIP3   OH227946   4.076   5.230   1.138
 9330TIP3    H127947   4.088   5.317   1.100
 9330TIP3    H227948   3.991   5.201   1.104
 9331TIP3   OH227949   6.530   4.240   6.612
 9331TIP3    H127950   6.528   4.182   6.688
 9331TIP3    H227951   6.603   4.299   6.628
 9332TIP3   OH227952   2.730   1.631   4.800
 9332TIP3    H127953   2.709   1.724   4.806
 9332TIP3    H227954   2.826   1.628   4.797
 9333TIP3   OH227955   2.807   1.538   1.709
 9333TIP3    H127956   2.816   1.611   1.771
 9333TIP3    H227957   2.839   1.462   1.758
 9334TIP3   OH227958   6.861   1.891   3.697
 9334TIP3    H127959   6.931   1.951   3.671
 9334TIP3    H227960   6.867   1.818   3.636
 9335TIP3   OH227961   3.936   0.470   4.659
 9335TIP3    H127962   4.020   0.446   4.620
 9335TIP3    H227963   3.928   0.413   4.736
 9336TIP3   OH227964   8.137   7.807   3.443
 9336TIP3    H127965   8.137   7.716   3.472
 9336TIP3    H227966   8.228   7.833   3.445
 9337TIP3   OH227967   6.075   7.183   0.447
 9337TIP3    H127968   6.074   7.252   0.380
 9337TIP3    H227969   6.069   7.101   0.397
 9338TIP3   OH227970   0.342   1.459   1.791
 9338TIP3    H127971   0.397   1.486   1.717
 9338TIP3    H227972   0.404   1.434   1.859
 9339TIP3   OH227973   2.343   7.618   0.076
 9339TIP3    H127974   2.315   7.635   0.166
 9339TIP3    H227975   2.273   7.565   0.039
 9340TIP3   OH227976   0.166   1.380   2.671
 9340TIP3    H127977   0.134   1.334   2.748
 9340TIP3    H227978   0.115   1.462   2.670
 9341TIP3   OH227979   6.599   2.812   4.730
 9341TIP3    H127980   6.680   2.854   4.758
 9341TIP3    H227981   6.628   2.734   4.682
 9342TIP3   OH227982   0.391   6.416   1.256
 9342TIP3    H127983   0.379   6.382   1.167
 9342TIP3    H227984   0.466   6.367   1.290
 9343TIP3   OH227985   4.434   5.925   3.279
 9343TIP3    H127986   4.417   5.849   3.224
 9343TIP3    H227987   4.422   6.000   3.220
 9344TIP3   OH227988   2.879   7.707   4.155
 9344TIP3    H127989   2.886   7.613   4.175
 9344TIP3    H227990   2.808   7.738   4.211
 9345TIP3   OH227991   4.451   4.980   6.186
 9345TIP3    H127992   4.512   5.052   6.205
 9345TIP3    H227993   4.365   5.013   6.212
 9346TIP3   OH227994   6.282   4.344   2.086
 9346TIP3    H127995   6.192   4.376   2.075
 9346TIP3    H227996   6.272   4.259   2.127
 9347TIP3   OH227997   4.603   1.933   0.993
 9347TIP3    H127998   4.542   1.879   1.044
 9347TIP3    H227999   4.626   2.005   1.052
 9348TIP3   OH228000   7.567   2.468   1.538
 9348TIP3    H128001   7.505   2.400   1.512
 9348TIP3    H228002   7.520   2.521   1.602
 9349TIP3   OH228003   2.334   7.221   3.458
 9349TIP3    H128004   2.394   7.259   3.394
 9349TIP3    H228005   2.360   7.260   3.542
 9350TIP3   OH228006   6.354   6.740   4.022
 9350TIP3    H128007   6.363   6.808   3.955
 9350TIP3    H228008   6.442   6.706   4.033
 9351TIP3   OH228009   7.546   5.883   3.886
 9351TIP3    H128010   7.564   5.961   3.833
 9351TIP3    H228011   7.452   5.870   3.878
 9352TIP3   OH228012   5.143   0.138   2.425
 9352TIP3    H128013   5.057   0.180   2.429
 9352TIP3    H228014   5.205   0.210   2.439
 9353TIP3   OH228015   7.472   6.811   2.373
 9353TIP3    H128016   7.444   6.785   2.285
 9353TIP3    H228017   7.403   6.778   2.431
 9354TIP3   OH228018   0.419   2.813   3.762
 9354TIP3    H128019   0.400   2.901   3.795
 9354TIP3    H228020   0.337   2.784   3.724
 9355TIP3   OH228021   1.755   3.255   4.480
 9355TIP3    H128022   1.724   3.245   4.390
 9355TIP3    H228023   1.794   3.343   4.482
 9356TIP3   OH228024   5.391   4.543   2.884
 9356TIP3    H128025   5.334   4.618   2.866
 9356TIP3    H228026   5.367   4.516   2.973
 9357TIP3   OH228027   2.921   5.784   5.159
 9357TIP3    H128028   2.874   5.733   5.093
 9357TIP3    H228029   2.925   5.872   5.122
 9358TIP3   OH228030   3.068   5.615   2.972
 9358TIP3    H128031   3.072   5.632   2.878
 9358TIP3    H228032   3.111   5.530   2.983
 9359TIP3   OH228033   5.402   7.466   3.654
 9359TIP3    H128034   5.410   7.562   3.657
 9359TIP3    H228035   5.491   7.436   3.639
 9360TIP3   OH228036   2.881   4.049   6.034
 9360TIP3    H128037   2.800   4.059   6.084
 9360TIP3    H228038   2.913   3.962   6.058
 9361TIP3   OH228039   3.924   4.897   2.975
 9361TIP3    H128040   3.860   4.839   3.015
 9361TIP3    H228041   3.895   4.985   2.998
 9362TIP3   OH228042   2.134   5.146   0.467
 9362TIP3    H128043   2.204   5.117   0.525
 9362TIP3    H228044   2.115   5.070   0.412
 9363TIP3   OH228045   5.787   6.969   3.730
 9363TIP3    H128046   5.693   6.985   3.744
 9363TIP3    H228047   5.830   7.043   3.773
 9364TIP3   OH228048   3.198   2.437   5.111
 9364TIP3    H128049   3.156   2.466   5.030
 9364TIP3    H228050   3.287   2.413   5.085
 9365TIP3   OH228051   1.890   1.651   5.760
 9365TIP3    H128052   1.880   1.688   5.847
 9365TIP3    H228053   1.889   1.727   5.701
 9366TIP3   OH228054   1.475   7.660   1.744
 9366TIP3    H128055   1.569   7.639   1.741
 9366TIP3    H228056   1.462   7.694   1.833
 9367TIP3   OH228057   5.507   4.036   2.577
 9367TIP3    H128058   5.564   4.075   2.643
 9367TIP3    H228059   5.425   4.018   2.624
 9368TIP3   OH228060   5.491   3.374   2.040
 9368TIP3    H128061   5.551   3.446   2.060
 9368TIP3    H228062   5.549   3.300   2.024
 9369TIP3   OH228063   5.195   5.665   0.378
 9369TIP3    H128064   5.113   5.697   0.340
 9369TIP3    H228065   5.169   5.588   0.429
 9370TIP3   OH228066   4.955   4.815   5.888
 9370TIP3    H128067   4.869   4.811   5.930
 9370TIP3    H228068   4.943   4.877   5.816
 9371TIP3   OH228069   2.585   6.750   0.779
 9371TIP3    H128070   2.548   6.711   0.699
 9371TIP3    H228071   2.554   6.695   0.850
 9372TIP3   OH228072   4.465   2.974   2.714
 9372TIP3    H128073   4.555   2.952   2.694
 9372TIP3    H228074   4.441   2.917   2.787
 9373TIP3   OH228075   0.742   2.230   0.097
 9373TIP3    H128076   0.835   2.256   0.099
 9373TIP3    H228077   0.702   2.292   0.036
 9374TIP3   OH228078   6.897   7.414   5.409
 9374TIP3    H128079   6.895   7.490   5.467
 9374TIP3    H228080   6.834   7.434   5.340
 9375TIP3   OH228081   3.522   4.258   0.741
 9375TIP3    H128082   3.554   4.185   0.794
 9375TIP3    H228083   3.451   4.221   0.689
 9376TIP3   OH228084   1.522   6.517   1.943
 9376TIP3    H128085   1.524   6.425   1.915
 9376TIP3    H228086   1.430   6.542   1.937
 9377TIP3   OH228087   6.399   3.718   5.670
 9377TIP3    H128088   6.366   3.665   5.743
 9377TIP3    H228089   6.425   3.801   5.711
 9378TIP3   OH228090   2.935   2.247   5.981
 9378TIP3    H128091   2.892   2.161   5.987
 9378TIP3    H228092   2.993   2.239   5.905
 9379TIP3   OH228093   4.548   1.104   5.889
 9379TIP3    H128094   4.551   1.021   5.937
 9379TIP3    H228095   4.480   1.091   5.823
 9380TIP3   OH228096   3.771   1.350   5.735
 9380TIP3    H128097   3.691   1.358   5.683
 9380TIP3    H228098   3.741   1.357   5.826
 9381TIP3   OH228099   6.520   6.137   4.579
 9381TIP3    H128100   6.540   6.174   4.664
 9381TIP3    H228101   6.495   6.046   4.597
 9382TIP3   OH228102   2.399   1.834   5.865
 9382TIP3    H128103   2.413   1.842   5.771
 9382TIP3    H228104   2.487   1.824   5.902
 9383TIP3   OH228105   0.612   2.137   4.999
 9383TIP3    H128106   0.615   2.041   5.009
 9383TIP3    H228107   0.681   2.169   5.057
 9384TIP3   OH228108   7.594   3.836   0.938
 9384TIP3    H128109   7.650   3.761   0.955
 9384TIP3    H228110   7.536   3.808   0.867
 9385TIP3   OH228111   7.163   1.767   1.921
 9385TIP3    H128112   7.173   1.813   2.004
 9385TIP3    H228113   7.159   1.836   1.855
 9386TIP3   OH228114   0.877   2.425   3.365
 9386TIP3    H128115   0.897   2.366   3.437
 9386TIP3    H228116   0.892   2.513   3.400
 9387TIP3   OH228117   4.342   3.328   4.379
 9387TIP3    H128118   4.266   3.290   4.335
 9387TIP3    H228119   4.417   3.283   4.341
 9388TIP3   OH228120   5.075   0.167   4.704
 9388TIP3    H128121   5.053   0.250   4.747
 9388TIP3    H228122   4.989   0.129   4.682
 9389TIP3   OH228123   3.711   3.251   5.012
 9389TIP3    H128124   3.676   3.163   4.999
 9389TIP3    H228125   3.668   3.283   5.092
 9390TIP3   OH228126   5.077   1.741   4.772
 9390TIP3    H128127   5.047   1.819   4.820
 9390TIP3    H228128   5.043   1.754   4.683
 9391TIP3   OH228129   5.169   4.033   6.566
 9391TIP3    H128130   5.191   4.021   6.474
 9391TIP3    H228131   5.195   3.950   6.607
 9392TIP3   OH228132   2.014   7.703   2.414
 9392TIP3    H128133   1.937   7.651   2.394
 9392TIP3    H228134   2.005   7.782   2.361
 9393TIP3   OH228135   5.817   4.955   2.540
 9393TIP3    H128136   5.854   5.036   2.575
 9393TIP3    H228137   5.806   4.972   2.446
 9394TIP3   OH228138   3.030   1.687   1.356
 9394TIP3    H128139   3.103   1.725   1.308
 9394TIP3    H228140   3.066   1.606   1.394
 9395TIP3   OH228141   5.049   7.686   1.611
 9395TIP3    H128142   5.069   7.740   1.534
 9395TIP3    H228143   5.054   7.596   1.578
 9396TIP3   OH228144   0.545   5.877   4.995
 9396TIP3    H128145   0.581   5.804   4.944
 9396TIP3    H228146   0.482   5.918   4.936
 9397TIP3   OH228147   6.979   4.733   2.654
 9397TIP3    H128148   6.913   4.802   2.660
 9397TIP3    H228149   6.929   4.651   2.651
 9398TIP3   OH228150   6.701   3.112   6.625
 9398TIP3    H128151   6.758   3.164   6.680
 9398TIP3    H228152   6.756   3.086   6.551
 9399TIP3   OH228153   6.572   0.627   0.479
 9399TIP3    H128154   6.580   0.708   0.529
 9399TIP3    H228155   6.494   0.640   0.424
 9400TIP3   OH228156   4.254   4.768   3.942
 9400TIP3    H128157   4.293   4.812   3.867
 9400TIP3    H228158   4.250   4.835   4.010
 9401TIP3   OH228159   6.833   6.270   2.411
 9401TIP3    H128160   6.876   6.185   2.415
 9401TIP3    H228161   6.744   6.253   2.441
 9402TIP3   OH228162   4.420   1.887   1.463
 9402TIP3    H128163   4.496   1.934   1.430
 9402TIP3    H228164   4.362   1.877   1.388
 9403TIP3   OH228165   7.894   0.760   2.639
 9403TIP3    H128166   7.942   0.822   2.694
 9403TIP3    H228167   7.826   0.724   2.696
 9404TIP3   OH228168   2.053   0.619   6.218
 9404TIP3    H128169   2.044   0.526   6.238
 9404TIP3    H228170   2.138   0.644   6.255
 9405TIP3   OH228171   0.152   0.458   1.362
 9405TIP3    H128172   0.230   0.416   1.399
 9405TIP3    H228173   0.175   0.475   1.270
 9406TIP3   OH228174   4.018   4.889   3.429
 9406TIP3    H128175   4.029   4.824   3.359
 9406TIP3    H228176   3.933   4.870   3.467
 9407TIP3   OH228177   4.813   0.135   5.716
 9407TIP3    H128178   4.803   0.189   5.794
 9407TIP3    H228179   4.903   0.102   5.720
 9408TIP3   OH228180   5.217   0.601   5.432
 9408TIP3    H128181   5.187   0.689   5.458
 9408TIP3    H228182   5.159   0.542   5.479
 9409TIP3   OH228183   8.074   4.101   6.453
 9409TIP3    H128184   8.133   4.176   6.465
 9409TIP3    H228185   8.102   4.060   6.372
 9410TIP3   OH228186   3.615   1.606   4.288
 9410TIP3    H128187   3.617   1.691   4.332
 9410TIP3    H228188   3.523   1.580   4.291
 9411TIP3   OH228189   4.605   3.547   2.073
 9411TIP3    H128190   4.659   3.602   2.016
 9411TIP3    H228191   4.584   3.604   2.147
 9412TIP3   OH228192   7.831   4.457   1.827
 9412TIP3    H128193   7.911   4.443   1.776
 9412TIP3    H228194   7.853   4.427   1.915
 9413TIP3   OH228195   5.169   6.086   0.818
 9413TIP3    H128196   5.149   6.083   0.724
 9413TIP3    H228197   5.252   6.039   0.826
 9414TIP3   OH228198   8.210   2.043   4.440
 9414TIP3    H128199   8.278   2.015   4.379
 9414TIP3    H228200   8.210   2.139   4.433
 9415TIP3   OH228201   3.282   7.554   5.618
 9415TIP3    H128202   3.355   7.565   5.556
 9415TIP3    H228203   3.213   7.611   5.583
 9416TIP3   OH228204   2.446   6.822   5.875
 9416TIP3    H128205   2.535   6.848   5.900
 9416TIP3    H228206   2.411   6.781   5.954
 9417TIP3   OH228207   1.032   0.148   5.542
 9417TIP3    H128208   1.058   0.075   5.486
 9417TIP3    H228209   0.961   0.113   5.596
 9418TIP3   OH228210   4.191   5.627   4.274
 9418TIP3    H128211   4.180   5.532   4.267
 9418TIP3    H228212   4.102   5.661   4.280
 9419TIP3   OH228213   2.159   6.120   3.660
 9419TIP3    H128214   2.108   6.123   3.741
 9419TIP3    H228215   2.116   6.052   3.607
 9420TIP3   OH228216   7.609   2.826   6.259
 9420TIP3    H128217   7.556   2.800   6.334
 9420TIP3    H228218   7.587   2.918   6.244
 9421TIP3   OH228219   0.794   5.140   0.377
 9421TIP3    H128220   0.837   5.225   0.385
 9421TIP3    H228221   0.864   5.076   0.384
 9422TIP3   OH228222   0.056   2.214   5.540
 9422TIP3    H128223   0.105   2.221   5.623
 9422TIP3    H228224   0.063   2.301   5.501
 9423TIP3   OH228225   0.979   3.620   1.622
 9423TIP3    H128226   1.000   3.604   1.715
 9423TIP3    H228227   1.002   3.712   1.608
 9424TIP3   OH228228   7.410   7.081   4.806
 9424TIP3    H128229   7.395   7.073   4.712
 9424TIP3    H228230   7.422   6.991   4.837
 9425TIP3   OH228231   5.497   5.347   3.696
 9425TIP3    H128232   5.515   5.385   3.610
 9425TIP3    H228233   5.583   5.333   3.735
 9426TIP3   OH228234   5.160   7.704   0.510
 9426TIP3    H128235   5.191   7.709   0.419
 9426TIP3    H228236   5.181   7.615   0.538
 9427TIP3   OH228237   7.597   3.161   5.834
 9427TIP3    H128238   7.687   3.187   5.814
 9427TIP3    H228239   7.576   3.207   5.915
 9428TIP3   OH228240   3.402   2.332   2.307
 9428TIP3    H128241   3.485   2.369   2.338
 9428TIP3    H228242   3.368   2.397   2.246
 9429TIP3   OH228243   5.787   5.187   0.348
 9429TIP3    H128244   5.731   5.262   0.327
 9429TIP3    H228245   5.809   5.200   0.441
 9430TIP3   OH228246   5.418   0.450   4.702
 9430TIP3    H128247   5.361   0.391   4.651
 9430TIP3    H228248   5.360   0.488   4.768
 9431TIP3   OH228249   0.672   5.196   3.799
 9431TIP3    H128250   0.754   5.234   3.831
 9431TIP3    H228251   0.699   5.136   3.730
 9432TIP3   OH228252   6.989   0.328   2.074
 9432TIP3    H128253   7.083   0.347   2.071
 9432TIP3    H228254   6.983   0.240   2.110
 9433TIP3   OH228255   6.481   1.558   0.932
 9433TIP3    H128256   6.502   1.478   0.980
 9433TIP3    H228257   6.408   1.596   0.981
 9434TIP3   OH228258   1.618   5.731   3.844
 9434TIP3    H128259   1.585   5.697   3.760
 9434TIP3    H228260   1.543   5.722   3.904
 9435TIP3   OH228261   3.482   1.681   1.669
 9435TIP3    H128262   3.508   1.709   1.756
 9435TIP3    H228263   3.454   1.590   1.681
 9436TIP3   OH228264   7.047   2.099   1.143
 9436TIP3    H128265   7.004   2.152   1.076
 9436TIP3    H228266   6.975   2.063   1.196
 9437TIP3   OH228267   0.129   7.693   6.305
 9437TIP3    H128268   0.152   7.708   6.213
 9437TIP3    H228269   0.166   7.606   6.324
 9438TIP3   OH228270   3.138   2.252   5.774
 9438TIP3    H128271   3.183   2.334   5.752
 9438TIP3    H228272   3.131   2.205   5.691
 9439TIP3   OH228273   1.020   6.393   1.834
 9439TIP3    H128274   1.008   6.362   1.924
 9439TIP3    H228275   0.962   6.468   1.826
 9440TIP3   OH228276   2.462   2.943   5.036
 9440TIP3    H128277   2.529   3.011   5.037
 9440TIP3    H228278   2.396   2.977   4.975
 9441TIP3   OH228279   2.744   0.161   2.547
 9441TIP3    H128280   2.771   0.242   2.590
 9441TIP3    H228281   2.653   0.177   2.520
 9442TIP3   OH228282   5.245   4.734   2.292
 9442TIP3    H128283   5.155   4.767   2.285
 9442TIP3    H228284   5.236   4.648   2.331
 9443TIP3   OH228285   3.455   4.420   2.258
 9443TIP3    H128286   3.541   4.451   2.232
 9443TIP3    H228287   3.399   4.497   2.252
 9444TIP3   OH228288   4.258   0.748   0.583
 9444TIP3    H128289   4.224   0.802   0.512
 9444TIP3    H228290   4.300   0.674   0.539
 9445TIP3   OH228291   0.004   5.081   5.431
 9445TIP3    H128292   0.000   5.124   5.516
 9445TIP3    H228293   0.047   5.145   5.374
 9446TIP3   OH228294   0.669   3.825   0.506
 9446TIP3    H128295   0.660   3.796   0.415
 9446TIP3    H228296   0.692   3.918   0.499
 9447TIP3   OH228297   6.988   2.942   0.523
 9447TIP3    H128298   6.987   2.944   0.618
 9447TIP3    H228299   7.002   2.850   0.500
 9448TIP3   OH228300   6.195   2.776   5.467
 9448TIP3    H128301   6.157   2.848   5.417
 9448TIP3    H228302   6.176   2.698   5.417
 9449TIP3   OH228303   5.759   5.699   5.904
 9449TIP3    H128304   5.773   5.604   5.914
 9449TIP3    H228305   5.707   5.723   5.981
 9450TIP3   OH228306   5.980   4.026   5.399
 9450TIP3    H128307   5.954   4.118   5.393
 9450TIP3    H228308   5.899   3.980   5.424
 9451TIP3   OH228309   7.936   7.512   2.147
 9451TIP3    H128310   8.012   7.479   2.100
 9451TIP3    H228311   7.954   7.606   2.157
 9452TIP3   OH228312   2.892   5.087   4.649
 9452TIP3    H128313   2.836   5.148   4.600
 9452TIP3    H228314   2.883   5.004   4.603
 9453TIP3   OH228315   7.046   7.342   4.100
 9453TIP3    H128316   7.025   7.432   4.076
 9453TIP3    H228317   7.138   7.331   4.077
 9454TIP3   OH228318   2.961   1.843   6.020
 9454TIP3    H128319   3.016   1.784   5.968
 9454TIP3    H228320   2.930   1.788   6.092
 9455TIP3   OH228321   1.214   0.999   5.627
 9455TIP3    H128322   1.282   1.067   5.631
 9455TIP3    H228323   1.249   0.928   5.681
 9456TIP3   OH228324   4.418   1.695   3.097
 9456TIP3    H128325   4.399   1.608   3.061
 9456TIP3    H228326   4.363   1.701   3.175
 9457TIP3   OH228327   3.571   4.652   6.525
 9457TIP3    H128328   3.646   4.606   6.489
 9457TIP3    H228329   3.537   4.593   6.593
 9458TIP3   OH228330   5.527   7.371   6.121
 9458TIP3    H128331   5.620   7.395   6.119
 9458TIP3    H228332   5.496   7.389   6.032
 9459TIP3   OH228333   7.211   3.230   3.002
 9459TIP3    H128334   7.186   3.246   2.911
 9459TIP3    H228335   7.130   3.241   3.051
 9460TIP3   OH228336   3.989   4.309   3.886
 9460TIP3    H128337   3.942   4.340   3.964
 9460TIP3    H228338   3.964   4.370   3.817
 9461TIP3   OH228339   2.108   2.877   2.164
 9461TIP3    H128340   2.147   2.949   2.213
 9461TIP3    H228341   2.154   2.799   2.195
 9462TIP3   OH228342   1.978   5.736   2.111
 9462TIP3    H128343   2.056   5.683   2.099
 9462TIP3    H228344   1.922   5.715   2.036
 9463TIP3   OH228345   6.880   2.058   4.560
 9463TIP3    H128346   6.896   1.967   4.534
 9463TIP3    H228347   6.902   2.109   4.482
 9464TIP3   OH228348   1.100   4.006   5.177
 9464TIP3    H128349   1.136   3.929   5.133
 9464TIP3    H228350   1.032   3.971   5.234
 9465TIP3   OH228351   3.268   0.329   2.846
 9465TIP3    H128352   3.182   0.343   2.806
 9465TIP3    H228353   3.255   0.351   2.938
 9466TIP3   OH228354   4.505   6.013   0.466
 9466TIP3    H128355   4.556   5.978   0.393
 9466TIP3    H228356   4.416   5.982   0.449
 9467TIP3   OH228357   5.798   6.542   4.225
 9467TIP3    H128358   5.777   6.454   4.193
 9467TIP3    H228359   5.755   6.601   4.164
 9468TIP3   OH228360   8.012   0.933   6.659
 9468TIP3    H128361   7.962   1.015   6.651
 9468TIP3    H228362   7.953   0.873   6.704
 9469TIP3   OH228363   2.696   4.628   4.382
 9469TIP3    H128364   2.651   4.659   4.302
 9469TIP3    H228365   2.654   4.545   4.402
 9470TIP3   OH228366   6.219   6.928   0.234
 9470TIP3    H128367   6.245   6.868   0.164
 9470TIP3    H228368   6.227   7.015   0.195
 9471TIP3   OH228369   1.280   6.815   4.887
 9471TIP3    H128370   1.359   6.823   4.941
 9471TIP3    H228371   1.209   6.802   4.951
 9472TIP3   OH228372   1.908   7.681   1.689
 9472TIP3    H128373   1.896   7.772   1.662
 9472TIP3    H228374   1.947   7.639   1.611
 9473TIP3   OH228375   7.802   7.133   5.875
 9473TIP3    H128376   7.743   7.096   5.809
 9473TIP3    H228377   7.890   7.115   5.841
 9474TIP3   OH228378   1.001   6.903   1.813
 9474TIP3    H128379   1.067   6.913   1.744
 9474TIP3    H228380   0.995   6.991   1.852
 9475TIP3   OH228381   1.672   5.375   4.470
 9475TIP3    H128382   1.673   5.463   4.432
 9475TIP3    H228383   1.763   5.349   4.473
 9476TIP3   OH228384   5.430   2.103   4.215
 9476TIP3    H128385   5.472   2.030   4.259
 9476TIP3    H228386   5.498   2.170   4.208
 9477TIP3   OH228387   6.392   0.727   2.031
 9477TIP3    H128388   6.404   0.768   2.117
 9477TIP3    H228389   6.481   0.704   2.003
 9478TIP3   OH228390   6.238   0.982   4.166
 9478TIP3    H128391   6.232   0.958   4.074
 9478TIP3    H228392   6.325   0.952   4.193
 9479TIP3   OH228393   7.618   1.865   4.825
 9479TIP3    H128394   7.559   1.932   4.790
 9479TIP3    H228395   7.642   1.897   4.911
 9480TIP3   OH228396   7.049   6.140   5.818
 9480TIP3    H128397   6.962   6.174   5.796
 9480TIP3    H228398   7.072   6.184   5.900
 9481TIP3   OH228399   6.997   0.920   0.146
 9481TIP3    H128400   7.059   0.942   0.216
 9481TIP3    H228401   6.996   0.824   0.144
 9482TIP3   OH228402   7.126   0.904   0.379
 9482TIP3    H128403   7.141   0.986   0.427
 9482TIP3    H228404   7.036   0.879   0.401
 9483TIP3   OH228405   5.147   0.142   3.772
 9483TIP3    H128406   5.153   0.238   3.765
 9483TIP3    H228407   5.112   0.113   3.688
 9484TIP3   OH228408   2.314   4.662   4.398
 9484TIP3    H128409   2.269   4.591   4.352
 9484TIP3    H228410   2.397   4.623   4.426
 9485TIP3   OH228411   6.172   5.935   5.525
 9485TIP3    H128412   6.237   5.898   5.465
 9485TIP3    H228413   6.088   5.921   5.480
 9486TIP3   OH228414   1.289   4.829   3.078
 9486TIP3    H128415   1.354   4.899   3.072
 9486TIP3    H228416   1.235   4.853   3.154
 9487TIP3   OH228417   4.731   3.885   2.457
 9487TIP3    H128418   4.704   3.947   2.525
 9487TIP3    H228419   4.796   3.829   2.499
 9488TIP3   OH228420   7.822   3.956   4.660
 9488TIP3    H128421   7.886   3.904   4.611
 9488TIP3    H228422   7.794   3.899   4.732
 9489TIP3   OH228423   0.502   2.392   5.545
 9489TIP3    H128424   0.590   2.416   5.516
 9489TIP3    H228425   0.466   2.340   5.473
 9490TIP3   OH228426   5.446   7.134   6.703
 9490TIP3    H128427   5.455   7.145   6.608
 9490TIP3    H228428   5.518   7.185   6.740
 9491TIP3   OH228429   0.159   2.732   5.310
 9491TIP3    H128430   0.145   2.794   5.381
 9491TIP3    H228431   0.253   2.736   5.292
 9492TIP3   OH228432   6.056   3.833   6.426
 9492TIP3    H128433   6.123   3.818   6.359
 9492TIP3    H228434   6.105   3.829   6.509
 9493TIP3   OH228435   5.174   1.725   1.479
 9493TIP3    H128436   5.198   1.804   1.431
 9493TIP3    H228437   5.254   1.699   1.524
 9494TIP3   OH228438   4.606   2.952   5.163
 9494TIP3    H128439   4.580   2.885   5.100
 9494TIP3    H228440   4.563   2.927   5.244
 9495TIP3   OH228441   0.972   1.320   0.945
 9495TIP3    H128442   1.046   1.259   0.950
 9495TIP3    H228443   0.941   1.312   0.855
 9496TIP3   OH228444   6.585   0.962   6.498
 9496TIP3    H128445   6.504   1.013   6.505
 9496TIP3    H228446   6.653   1.022   6.529
 9497TIP3   OH228447   5.551   7.085   3.705
 9497TIP3    H128448   5.556   7.176   3.676
 9497TIP3    H228449   5.536   7.091   3.799
 9498TIP3   OH228450   1.247   2.621   4.794
 9498TIP3    H128451   1.179   2.611   4.860
 9498TIP3    H228452   1.205   2.597   4.712
 9499TIP3   OH228453   4.087   3.991   1.218
 9499TIP3    H128454   4.170   3.952   1.243
 9499TIP3    H228455   4.021   3.939   1.265
 9500TIP3   OH228456   8.191   3.494   6.593
 9500TIP3    H128457   8.235   3.441   6.527
 9500TIP3    H228458   8.232   3.580   6.587
 9501TIP3   OH228459   6.512   4.674  -0.028
 9501TIP3    H128460   6.520   4.762   0.009
 9501TIP3    H228461   6.546   4.616   0.040
 9502TIP3   OH228462   6.076   5.023   5.303
 9502TIP3    H128463   6.167   4.995   5.301
 9502TIP3    H228464   6.058   5.054   5.214
 9503TIP3   OH228465   5.051   2.302   1.747
 9503TIP3    H128466   4.971   2.341   1.784
 9503TIP3    H228467   5.069   2.354   1.669
 9504TIP3   OH228468   8.004   1.308   1.791
 9504TIP3    H128469   8.061   1.237   1.820
 9504TIP3    H228470   7.973   1.280   1.705
 9505TIP3   OH228471   7.758   1.766   1.042
 9505TIP3    H128472   7.735   1.754   0.950
 9505TIP3    H228473   7.732   1.856   1.063
 9506TIP3   OH228474   1.370   3.378   4.763
 9506TIP3    H128475   1.423   3.305   4.731
 9506TIP3    H228476   1.293   3.377   4.706
 9507TIP3   OH228477   1.029   6.731   6.170
 9507TIP3    H128478   1.057   6.791   6.101
 9507TIP3    H228479   1.028   6.785   6.249
 9508TIP3   OH228480   3.113   1.098   5.935
 9508TIP3    H128481   3.122   1.191   5.916
 9508TIP3    H228482   3.098   1.094   6.030
 9509TIP3   OH228483   2.984   2.452   2.884
 9509TIP3    H128484   2.946   2.381   2.936
 9509TIP3    H228485   2.945   2.441   2.797
 9510TIP3   OH228486   3.933   7.660   6.396
 9510TIP3    H128487   3.919   7.750   6.369
 9510TIP3    H228488   4.021   7.660   6.436
 9511TIP3   OH228489   4.161   7.119   1.255
 9511TIP3    H128490   4.092   7.141   1.318
 9511TIP3    H228491   4.241   7.151   1.295
 9512TIP3   OH228492   4.897   6.332   6.634
 9512TIP3    H128493   4.964   6.269   6.663
 9512TIP3    H228494   4.919   6.349   6.542
 9513TIP3   OH228495   2.462   0.107   6.659
 9513TIP3    H128496   2.459   0.041   6.590
 9513TIP3    H228497   2.409   0.071   6.729
 9514TIP3   OH228498   7.642   2.994   6.614
 9514TIP3    H128499   7.598   2.932   6.555
 9514TIP3    H228500   7.609   2.972   6.701
 9515TIP3   OH228501   0.716   0.157   4.252
 9515TIP3    H128502   0.710   0.096   4.325
 9515TIP3    H228503   0.754   0.106   4.181
 9516TIP3   OH228504   6.869   5.540   1.369
 9516TIP3    H128505   6.903   5.475   1.307
 9516TIP3    H228506   6.940   5.603   1.380
 9517TIP3   OH228507   8.201   3.725   5.127
 9517TIP3    H128508   8.160   3.753   5.209
 9517TIP3    H228509   8.173   3.791   5.062
 9518TIP3   OH228510   6.588   2.589   3.322
 9518TIP3    H128511   6.651   2.626   3.384
 9518TIP3    H228512   6.521   2.549   3.377
 9519TIP3   OH228513   0.008   2.948   0.049
 9519TIP3    H128514   0.001   3.001   0.128
 9519TIP3    H228515   0.041   2.864   0.079
 9520TIP3   OH228516   0.858   4.419   1.288
 9520TIP3    H128517   0.794   4.450   1.353
 9520TIP3    H228518   0.831   4.460   1.206
 9521TIP3   OH228519   3.310   5.118   0.315
 9521TIP3    H128520   3.238   5.113   0.378
 9521TIP3    H228521   3.295   5.044   0.256
 9522TIP3   OH228522   5.782   6.636   2.284
 9522TIP3    H128523   5.743   6.552   2.307
 9522TIP3    H228524   5.794   6.632   2.189
 9523TIP3   OH228525   1.989   1.770   2.717
 9523TIP3    H128526   1.981   1.823   2.638
 9523TIP3    H228527   1.984   1.680   2.686
 9524TIP3   OH228528   1.475   4.193   0.512
 9524TIP3    H128529   1.521   4.117   0.546
 9524TIP3    H228530   1.505   4.266   0.567
 9525TIP3   OH228531   4.199   2.236   0.501
 9525TIP3    H128532   4.259   2.176   0.545
 9525TIP3    H228533   4.255   2.293   0.449
 9526TIP3   OH228534   4.147   7.477   5.184
 9526TIP3    H128535   4.183   7.389   5.179
 9526TIP3    H228536   4.189   7.525   5.113
 9527TIP3   OH228537   1.202   2.651   5.705
 9527TIP3    H128538   1.271   2.639   5.769
 9527TIP3    H228539   1.139   2.581   5.723
 9528TIP3   OH228540   8.256   3.474   4.811
 9528TIP3    H128541   8.297   3.397   4.850
 9528TIP3    H228542   8.190   3.501   4.875
 9529TIP3   OH228543   4.044   2.668   5.604
 9529TIP3    H128544   4.087   2.738   5.555
 9529TIP3    H228545   3.951   2.688   5.597
 9530TIP3   OH228546   6.029   1.449   4.032
 9530TIP3    H128547   6.044   1.453   4.127
 9530TIP3    H228548   6.015   1.541   4.007
 9531TIP3   OH228549   6.442   3.525   3.630
 9531TIP3    H128550   6.434   3.494   3.721
 9531TIP3    H228551   6.536   3.529   3.614
 9532TIP3   OH228552   6.445   2.473   2.525
 9532TIP3    H128553   6.451   2.545   2.462
 9532TIP3    H228554   6.357   2.481   2.562
 9533TIP3   OH228555   3.770   5.103   1.061
 9533TIP3    H128556   3.676   5.092   1.051
 9533TIP3    H228557   3.802   5.121   0.972
 9534TIP3   OH228558   6.491   4.620   5.258
 9534TIP3    H128559   6.455   4.708   5.269
 9534TIP3    H228560   6.584   4.635   5.241
 9535TIP3   OH228561   0.631   6.369   5.704
 9535TIP3    H128562   0.697   6.351   5.637
 9535TIP3    H228563   0.552   6.389   5.654
 9536TIP3   OH228564   4.134   3.014   0.749
 9536TIP3    H128565   4.086   3.081   0.701
 9536TIP3    H228566   4.203   3.062   0.795
 9537TIP3   OH228567   4.924   5.667   3.709
 9537TIP3    H128568   4.856   5.671   3.641
 9537TIP3    H228569   4.942   5.574   3.720
 9538TIP3   OH228570   6.850   1.824   1.530
 9538TIP3    H128571   6.901   1.751   1.495
 9538TIP3    H228572   6.884   1.836   1.619
 9539TIP3   OH228573   0.626   0.271   2.733
 9539TIP3    H128574   0.600   0.312   2.651
 9539TIP3    H228575   0.553   0.212   2.754
 9540TIP3   OH228576   6.336   2.689   3.480
 9540TIP3    H128577   6.342   2.660   3.571
 9540TIP3    H228578   6.409   2.750   3.469
 9541TIP3   OH228579   7.225   5.412  -0.023
 9541TIP3    H128580   7.292   5.454   0.031
 9541TIP3    H228581   7.143   5.434   0.020
 9542TIP3   OH228582   7.775   0.169   5.790
 9542TIP3    H128583   7.724   0.223   5.849
 9542TIP3    H228584   7.854   0.220   5.773
 9543TIP3   OH228585   2.329   7.205   6.426
 9543TIP3    H128586   2.290   7.130   6.381
 9543TIP3    H228587   2.338   7.272   6.358
 9544TIP3   OH228588   7.803   1.391   1.231
 9544TIP3    H128589   7.812   1.377   1.137
 9544TIP3    H228590   7.737   1.327   1.259
 9545TIP3   OH228591   8.226   5.015   4.997
 9545TIP3    H128592   8.195   5.037   4.910
 9545TIP3    H228593   8.158   4.960   5.035
 9546TIP3   OH228594   5.285   5.479   2.055
 9546TIP3    H128595   5.279   5.394   2.011
 9546TIP3    H228596   5.377   5.503   2.049
 9547TIP3   OH228597   0.812   2.840   5.539
 9547TIP3    H128598   0.855   2.925   5.548
 9547TIP3    H228599   0.855   2.798   5.465
 9548TIP3   OH228600   4.149   0.259   4.825
 9548TIP3    H128601   4.213   0.321   4.791
 9548TIP3    H228602   4.120   0.209   4.749
 9549TIP3   OH228603   0.438   5.448   2.599
 9549TIP3    H128604   0.370   5.503   2.563
 9549TIP3    H228605   0.489   5.419   2.523
 9550TIP3   OH228606   7.539   3.705   5.268
 9550TIP3    H128607   7.455   3.716   5.223
 9550TIP3    H228608   7.516   3.671   5.354
 9551TIP3   OH228609   2.739   5.087   2.079
 9551TIP3    H128610   2.736   5.170   2.031
 9551TIP3    H228611   2.831   5.059   2.070
 9552TIP3   OH228612   7.167   2.357   4.038
 9552TIP3    H128613   7.149   2.345   4.131
 9552TIP3    H228614   7.186   2.451   4.030
 9553TIP3   OH228615   0.568   6.120   5.456
 9553TIP3    H128616   0.631   6.189   5.476
 9553TIP3    H228617   0.611   6.067   5.388
 9554TIP3   OH228618   0.523   3.953   5.851
 9554TIP3    H128619   0.608   3.911   5.838
 9554TIP3    H228620   0.503   3.939   5.943
 9555TIP3   OH228621   3.329   5.058   1.559
 9555TIP3    H128622   3.299   5.126   1.620
 9555TIP3    H228623   3.356   4.986   1.614
 9556TIP3   OH228624   5.997   2.977   4.368
 9556TIP3    H128625   5.973   2.919   4.295
 9556TIP3    H228626   5.951   2.941   4.443
 9557TIP3   OH228627   0.776   5.258   4.496
 9557TIP3    H128628   0.686   5.279   4.470
 9557TIP3    H228629   0.799   5.325   4.560
 9558TIP3   OH228630   0.258   3.446   1.372
 9558TIP3    H128631   0.177   3.396   1.373
 9558TIP3    H228632   0.231   3.536   1.357
 9559TIP3   OH228633   3.864   4.518   2.511
 9559TIP3    H128634   3.781   4.488   2.473
 9559TIP3    H228635   3.931   4.481   2.453
 9560TIP3   OH228636   2.945   0.329   3.959
 9560TIP3    H128637   2.884   0.371   3.899
 9560TIP3    H228638   2.924   0.236   3.953
 9561TIP3   OH228639   6.846   3.486   0.627
 9561TIP3    H128640   6.898   3.453   0.555
 9561TIP3    H228641   6.838   3.412   0.687
 9562TIP3   OH228642   6.702   7.230   3.220
 9562TIP3    H128643   6.707   7.312   3.171
 9562TIP3    H228644   6.743   7.165   3.162
 9563TIP3   OH228645   5.474   6.656   2.203
 9563TIP3    H128646   5.473   6.733   2.261
 9563TIP3    H228647   5.492   6.582   2.261
 9564TIP3   OH228648   7.464   0.853   1.998
 9564TIP3    H128649   7.546   0.805   1.983
 9564TIP3    H228650   7.397   0.785   2.005
 9565TIP3   OH228651   3.627   4.740   2.246
 9565TIP3    H128652   3.592   4.768   2.331
 9565TIP3    H228653   3.550   4.730   2.190
 9566TIP3   OH228654   3.891   4.736   2.201
 9566TIP3    H128655   3.798   4.746   2.223
 9566TIP3    H228656   3.909   4.806   2.139
 9567TIP3   OH228657   8.265   2.057   2.920
 9567TIP3    H128658   8.271   2.131   2.980
 9567TIP3    H228659   8.207   2.089   2.850
 9568TIP3   OH228660   0.177   1.249   4.414
 9568TIP3    H128661   0.131   1.309   4.354
 9568TIP3    H228662   0.263   1.238   4.375
 9569TIP3   OH228663   1.119   1.653   5.785
 9569TIP3    H128664   1.065   1.595   5.839
 9569TIP3    H228665   1.076   1.738   5.792
 9570TIP3   OH228666   5.091   7.038   0.817
 9570TIP3    H128667   5.012   7.076   0.856
 9570TIP3    H228668   5.060   6.997   0.736
 9571TIP3   OH228669   1.572   3.077   5.947
 9571TIP3    H128670   1.560   3.172   5.941
 9571TIP3    H228671   1.588   3.061   6.040
 9572TIP3   OH228672   2.489   5.588   0.923
 9572TIP3    H128673   2.412   5.611   0.974
 9572TIP3    H228674   2.504   5.664   0.866
 9573TIP3   OH228675   0.090   2.879   1.244
 9573TIP3    H128676   0.115   2.960   1.289
 9573TIP3    H228677   0.148   2.812   1.282
 9574TIP3   OH228678   7.180   1.400   2.178
 9574TIP3    H128679   7.275   1.398   2.163
 9574TIP3    H228680   7.166   1.479   2.230
 9575TIP3   OH228681   6.966   0.575   1.938
 9575TIP3    H128682   6.942   0.492   1.980
 9575TIP3    H228683   6.927   0.642   1.994
 9576TIP3   OH228684   1.368   1.467   5.896
 9576TIP3    H128685   1.305   1.505   5.957
 9576TIP3    H228686   1.318   1.403   5.846
 9577TIP3   OH228687   6.844   2.974   2.581
 9577TIP3    H128688   6.765   2.953   2.630
 9577TIP3    H228689   6.812   3.014   2.500
 9578TIP3   OH228690   2.672   5.660   6.287
 9578TIP3    H128691   2.689   5.704   6.370
 9578TIP3    H228692   2.753   5.612   6.267
 9579TIP3   OH228693   5.892   2.766   0.939
 9579TIP3    H128694   5.830   2.792   0.870
 9579TIP3    H228695   5.911   2.848   0.985
 9580TIP3   OH228696   6.176   0.986   1.921
 9580TIP3    H128697   6.144   0.896   1.914
 9580TIP3    H228698   6.105   1.033   1.964
 9581TIP3   OH228699   1.855   6.224   3.446
 9581TIP3    H128700   1.842   6.196   3.536
 9581TIP3    H228701   1.809   6.308   3.440
 9582TIP3   OH228702   4.266   5.170   3.452
 9582TIP3    H128703   4.258   5.075   3.457
 9582TIP3    H228704   4.245   5.201   3.540
 9583TIP3   OH228705   2.089   3.666   2.875
 9583TIP3    H128706   2.043   3.675   2.958
 9583TIP3    H228707   2.038   3.601   2.826
 9584TIP3   OH228708   5.856   4.065   0.697
 9584TIP3    H128709   5.770   4.023   0.701
 9584TIP3    H228710   5.845   4.147   0.745
 9585TIP3   OH228711   1.718   5.828   1.598
 9585TIP3    H128712   1.784   5.884   1.639
 9585TIP3    H228713   1.704   5.758   1.662
 9586TIP3   OH228714   3.396   1.806   1.028
 9586TIP3    H128715   3.372   1.831   1.118
 9586TIP3    H228716   3.329   1.847   0.973
 9587TIP3   OH228717   0.708   5.737   2.710
 9587TIP3    H128718   0.763   5.768   2.781
 9587TIP3    H228719   0.654   5.668   2.750
 9588TIP3   OH228720   6.687   5.120   2.772
 9588TIP3    H128721   6.642   5.177   2.709
 9588TIP3    H228722   6.776   5.153   2.776
 9589TIP3   OH228723   0.459   0.711   0.644
 9589TIP3    H128724   0.545   0.691   0.608
 9589TIP3    H228725   0.477   0.759   0.724
 9590TIP3   OH228726   4.463   3.410   5.820
 9590TIP3    H128727   4.434   3.437   5.733
 9590TIP3    H228728   4.385   3.414   5.874
 9591TIP3   OH228729   6.598   0.237   0.853
 9591TIP3    H128730   6.511   0.255   0.889
 9591TIP3    H228731   6.639   0.323   0.843
 9592TIP3   OH228732   3.205   2.448   0.099
 9592TIP3    H128733   3.117   2.435   0.134
 9592TIP3    H228734   3.253   2.490   0.171
 9593TIP3   OH228735   5.820   5.701   4.883
 9593TIP3    H128736   5.879   5.683   4.957
 9593TIP3    H228737   5.874   5.751   4.822
 9594TIP3   OH228738   1.433   1.371   3.671
 9594TIP3    H128739   1.500   1.422   3.716
 9594TIP3    H228740   1.362   1.362   3.735
 9595TIP3   OH228741   3.501   6.546   5.193
 9595TIP3    H128742   3.458   6.557   5.108
 9595TIP3    H228743   3.442   6.491   5.244
 9596TIP3   OH228744   2.738   0.715   5.414
 9596TIP3    H128745   2.699   0.766   5.486
 9596TIP3    H228746   2.827   0.748   5.408
 9597TIP3   OH228747   5.956   7.606   3.970
 9597TIP3    H128748   5.974   7.522   4.012
 9597TIP3    H228749   6.026   7.617   3.906
 9598TIP3   OH228750   8.277   0.933   0.181
 9598TIP3    H128751   8.232   0.851   0.202
 9598TIP3    H228752   8.218   0.979   0.122
 9599TIP3   OH228753   3.743   3.374   3.483
 9599TIP3    H128754   3.799   3.342   3.412
 9599TIP3    H228755   3.700   3.295   3.516
 9600TIP3   OH228756   1.169   5.812   3.800
 9600TIP3    H128757   1.094   5.832   3.857
 9600TIP3    H228758   1.189   5.720   3.819
 9601TIP3   OH228759   2.523   4.054   4.289
 9601TIP3    H128760   2.559   4.098   4.366
 9601TIP3    H228761   2.439   4.097   4.274
 9602TIP3   OH228762   0.349   1.121   6.709
 9602TIP3    H128763   0.414   1.189   6.695
 9602TIP3    H228764   0.269   1.156   6.670
 9603TIP3   OH228765   7.936   5.505   3.043
 9603TIP3    H128766   7.910   5.467   2.959
 9603TIP3    H228767   7.857   5.546   3.076
 9604TIP3   OH228768   6.007   4.287   1.731
 9604TIP3    H128769   5.927   4.313   1.686
 9604TIP3    H228770   6.008   4.192   1.726
 9605TIP3   OH228771   4.261   7.380   4.378
 9605TIP3    H128772   4.207   7.360   4.302
 9605TIP3    H228773   4.206   7.436   4.433
 9606TIP3   OH228774   5.031   3.441   0.220
 9606TIP3    H128775   4.946   3.406   0.197
 9606TIP3    H228776   5.014   3.500   0.294
 9607TIP3   OH228777   6.186   3.351   3.746
 9607TIP3    H128778   6.223   3.321   3.663
 9607TIP3    H228779   6.262   3.373   3.800
 9608TIP3   OH228780   6.568   2.022   6.023
 9608TIP3    H128781   6.554   2.108   5.984
 9608TIP3    H228782   6.663   2.016   6.035
 9609TIP3   OH228783   5.478   5.911   5.121
 9609TIP3    H128784   5.409   5.846   5.118
 9609TIP3    H228785   5.432   5.995   5.122
 9610TIP3   OH228786   0.840   1.467   1.794
 9610TIP3    H128787   0.770   1.524   1.760
 9610TIP3    H228788   0.889   1.521   1.855
 9611TIP3   OH228789   3.486   6.596   6.207
 9611TIP3    H128790   3.456   6.671   6.156
 9611TIP3    H228791   3.423   6.589   6.279
 9612TIP3   OH228792   5.009   5.410   0.273
 9612TIP3    H128793   4.955   5.483   0.243
 9612TIP3    H228794   5.006   5.417   0.369
 9613TIP3   OH228795   3.904   0.391   6.276
 9613TIP3    H128796   3.834   0.452   6.253
 9613TIP3    H228797   3.970   0.444   6.320
 9614TIP3   OH228798   8.124   6.548   6.644
 9614TIP3    H128799   8.217   6.538   6.666
 9614TIP3    H228800   8.107   6.641   6.653
 9615TIP3   OH228801   4.438   1.104   0.615
 9615TIP3    H128802   4.425   1.065   0.528
 9615TIP3    H228803   4.532   1.098   0.630
 9616TIP3   OH228804   0.834   3.096   2.419
 9616TIP3    H128805   0.786   3.080   2.338
 9616TIP3    H228806   0.773   3.145   2.475
 9617TIP3   OH228807   6.544   7.606   3.586
 9617TIP3    H128808   6.571   7.527   3.537
 9617TIP3    H228809   6.626   7.646   3.613
 9618TIP3   OH228810   1.199   4.832   1.746
 9618TIP3    H128811   1.218   4.866   1.658
 9618TIP3    H228812   1.283   4.834   1.791
 9619TIP3   OH228813   7.596   0.038   5.049
 9619TIP3    H128814   7.679   0.031   5.001
 9619TIP3    H228815   7.574  -0.052   5.072
 9620TIP3   OH228816   0.189   4.877   5.367
 9620TIP3    H128817   0.111   4.932   5.378
 9620TIP3    H228818   0.237   4.887   5.449
 9621TIP3   OH228819   7.085   2.497   0.759
 9621TIP3    H128820   7.044   2.563   0.814
 9621TIP3    H228821   7.179   2.515   0.766
 9622TIP3   OH228822   7.226   0.878   3.342
 9622TIP3    H128823   7.300   0.924   3.304
 9622TIP3    H228824   7.152   0.901   3.285
 9623TIP3   OH228825   1.939   7.004   2.683
 9623TIP3    H128826   2.007   6.974   2.744
 9623TIP3    H228827   1.983   7.069   2.628
 9624TIP3   OH228828   3.574   0.854   0.659
 9624TIP3    H128829   3.660   0.828   0.627
 9624TIP3    H228830   3.513   0.799   0.610
 9625TIP3   OH228831   0.315   4.354   1.687
 9625TIP3    H128832   0.388   4.349   1.749
 9625TIP3    H228833   0.346   4.305   1.610
 9626TIP3   OH228834   3.277   3.640   3.928
 9626TIP3    H128835   3.257   3.606   3.841
 9626TIP3    H228836   3.197   3.686   3.955
 9627TIP3   OH228837   1.749   1.636   3.343
 9627TIP3    H128838   1.694   1.706   3.379
 9627TIP3    H228839   1.722   1.629   3.251
 9628TIP3   OH228840   7.507   4.207   0.620
 9628TIP3    H128841   7.570   4.168   0.681
 9628TIP3    H228842   7.422   4.182   0.654
 9629TIP3   OH228843   7.201   1.868   3.167
 9629TIP3    H128844   7.247   1.853   3.084
 9629TIP3    H228845   7.170   1.958   3.162
 9630TIP3   OH228846   5.261   7.278   4.315
 9630TIP3    H128847   5.245   7.364   4.277
 9630TIP3    H228848   5.176   7.235   4.312
 9631TIP3   OH228849   7.707   4.046   5.717
 9631TIP3    H128850   7.737   3.976   5.775
 9631TIP3    H228851   7.767   4.042   5.642
 9632TIP3   OH228852   2.052   2.905   4.437
 9632TIP3    H128853   1.982   2.922   4.499
 9632TIP3    H228854   2.042   2.971   4.369
 9633TIP3   OH228855   1.703   5.024   5.328
 9633TIP3    H128856   1.785   5.015   5.280
 9633TIP3    H228857   1.677   4.934   5.349
 9634TIP3   OH228858   1.845   1.244   3.102
 9634TIP3    H128859   1.902   1.300   3.154
 9634TIP3    H228860   1.825   1.296   3.024
 9635TIP3   OH228861   6.481   0.882   1.624
 9635TIP3    H128862   6.455   0.939   1.552
 9635TIP3    H228863   6.411   0.817   1.630
 9636TIP3   OH228864   3.829   5.159   2.988
 9636TIP3    H128865   3.824   5.222   3.060
 9636TIP3    H228866   3.738   5.139   2.967
 9637TIP3   OH228867   2.907   5.160   6.355
 9637TIP3    H128868   3.002   5.156   6.359
 9637TIP3    H228869   2.881   5.208   6.434
 9638TIP3   OH228870   6.008   1.180   2.628
 9638TIP3    H128871   6.047   1.256   2.671
 9638TIP3    H228872   6.025   1.195   2.535
 9639TIP3   OH228873   4.716   0.284   6.697
 9639TIP3    H128874   4.761   0.310   6.617
 9639TIP3    H228875   4.730   0.190   6.703
 9640TIP3   OH228876   7.072   7.494   1.444
 9640TIP3    H128877   7.026   7.418   1.408
 9640TIP3    H228878   7.005   7.563   1.448
 9641TIP3   OH228879   6.686   3.080   0.961
 9641TIP3    H128880   6.779   3.099   0.975
 9641TIP3    H228881   6.675   2.990   0.991
 9642TIP3   OH228882   5.789   4.339   0.495
 9642TIP3    H128883   5.836   4.417   0.524
 9642TIP3    H228884   5.778   4.287   0.575
 9643TIP3   OH228885   1.100   7.200   3.649
 9643TIP3    H128886   1.065   7.246   3.726
 9643TIP3    H228887   1.076   7.108   3.664
 9644TIP3   OH228888   2.829   6.022   0.966
 9644TIP3    H128889   2.902   6.064   1.012
 9644TIP3    H228890   2.798   5.954   1.025
 9645TIP3   OH228891   6.221   2.614   1.486
 9645TIP3    H128892   6.305   2.656   1.503
 9645TIP3    H228893   6.231   2.526   1.524
 9646TIP3   OH228894   3.615   1.564   2.109
 9646TIP3    H128895   3.598   1.622   2.184
 9646TIP3    H228896   3.674   1.615   2.053
 9647TIP3   OH228897   3.118   7.590   4.429
 9647TIP3    H128898   3.181   7.590   4.357
 9647TIP3    H228899   3.117   7.680   4.461
 9648TIP3   OH228900   7.603   5.193   0.844
 9648TIP3    H128901   7.643   5.186   0.757
 9648TIP3    H228902   7.676   5.188   0.905
 9649TIP3   OH228903   2.523   1.225   4.904
 9649TIP3    H128904   2.547   1.292   4.840
 9649TIP3    H228905   2.503   1.274   4.984
 9650TIP3   OH228906   7.691   4.676   5.848
 9650TIP3    H128907   7.649   4.641   5.769
 9650TIP3    H228908   7.627   4.663   5.918
 9651TIP3   OH228909   7.030   1.067   1.896
 9651TIP3    H128910   7.066   1.028   1.976
 9651TIP3    H228911   7.071   1.153   1.891
 9652TIP3   OH228912   5.702   7.729   6.520
 9652TIP3    H128913   5.746   7.680   6.450
 9652TIP3    H228914   5.642   7.787   6.473
 9653TIP3   OH228915   7.212   6.745   4.818
 9653TIP3    H128916   7.184   6.677   4.880
 9653TIP3    H228917   7.305   6.758   4.836
 9654TIP3   OH228918   1.843   2.808   2.260
 9654TIP3    H128919   1.901   2.856   2.201
 9654TIP3    H228920   1.765   2.789   2.207
 9655TIP3   OH228921   6.650   2.097   4.687
 9655TIP3    H128922   6.741   2.079   4.663
 9655TIP3    H228923   6.651   2.188   4.718
 9656TIP3   OH228924   5.707   6.347   3.727
 9656TIP3    H128925   5.629   6.367   3.676
 9656TIP3    H228926   5.687   6.264   3.771
 9657TIP3   OH228927   3.543   4.334   4.984
 9657TIP3    H128928   3.484   4.270   5.025
 9657TIP3    H228929   3.622   4.331   5.037
 9658TIP3   OH228930   0.814   1.069   2.950
 9658TIP3    H128931   0.828   1.034   2.862
 9658TIP3    H228932   0.722   1.096   2.951
 9659TIP3   OH228933   2.841   0.346   6.252
 9659TIP3    H128934   2.865   0.410   6.319
 9659TIP3    H228935   2.919   0.337   6.198
 9660TIP3   OH228936   7.236   3.602   5.258
 9660TIP3    H128937   7.206   3.608   5.349
 9660TIP3    H228938   7.241   3.508   5.242
 9661TIP3   OH228939   0.623   7.185   4.353
 9661TIP3    H128940   0.657   7.163   4.440
 9661TIP3    H228941   0.585   7.103   4.321
 9662TIP3   OH228942   5.193   0.475   2.031
 9662TIP3    H128943   5.235   0.470   2.117
 9662TIP3    H228944   5.108   0.432   2.043
 9663TIP3   OH228945   0.243   5.050   1.481
 9663TIP3    H128946   0.295   5.130   1.487
 9663TIP3    H228947   0.204   5.053   1.394
 9664TIP3   OH228948   3.220   1.168   5.029
 9664TIP3    H128949   3.288   1.133   4.972
 9664TIP3    H228950   3.259   1.170   5.116
 9665TIP3   OH228951   7.874   3.129   0.332
 9665TIP3    H128952   7.909   3.154   0.246
 9665TIP3    H228953   7.853   3.211   0.375
 9666TIP3   OH228954   5.503   3.239   6.417
 9666TIP3    H128955   5.515   3.332   6.399
 9666TIP3    H228956   5.418   3.233   6.461
 9667TIP3   OH228957   3.154   3.186   3.352
 9667TIP3    H128958   3.243   3.174   3.384
 9667TIP3    H228959   3.107   3.108   3.383
 9668TIP3   OH228960   8.108   1.450   5.362
 9668TIP3    H128961   8.032   1.502   5.391
 9668TIP3    H228962   8.170   1.515   5.328
 9669TIP3   OH228963   7.692   5.003   3.264
 9669TIP3    H128964   7.774   5.042   3.295
 9669TIP3    H228965   7.661   4.950   3.337
 9670TIP3   OH228966   6.926   6.049   6.341
 9670TIP3    H128967   6.847   6.097   6.369
 9670TIP3    H228968   6.994   6.078   6.401
 9671TIP3   OH228969   7.435   7.204   5.530
 9671TIP3    H128970   7.344   7.233   5.529
 9671TIP3    H228971   7.485   7.285   5.540
 9672TIP3   OH228972   5.774   5.756   0.535
 9672TIP3    H128973   5.804   5.847   0.526
 9672TIP3    H228974   5.839   5.704   0.488
 9673TIP3   OH228975   4.562   1.933   4.777
 9673TIP3    H128976   4.603   1.870   4.836
 9673TIP3    H228977   4.515   1.993   4.834
 9674TIP3   OH228978   6.280   7.480   5.740
 9674TIP3    H128979   6.253   7.399   5.783
 9674TIP3    H228980   6.226   7.485   5.661
 9675TIP3   OH228981   5.367   1.124   3.315
 9675TIP3    H128982   5.334   1.155   3.231
 9675TIP3    H228983   5.429   1.054   3.291
 9676TIP3   OH228984   1.411   2.710   0.630
 9676TIP3    H128985   1.439   2.621   0.606
 9676TIP3    H228986   1.379   2.701   0.720
 9677TIP3   OH228987   7.054   6.312   1.995
 9677TIP3    H128988   7.043   6.217   1.999
 9677TIP3    H228989   7.133   6.329   2.046
 9678TIP3   OH228990   8.106   4.585   4.536
 9678TIP3    H128991   8.178   4.614   4.479
 9678TIP3    H228992   8.027   4.612   4.489
 9679TIP3   OH228993   7.578   5.718   5.304
 9679TIP3    H128994   7.648   5.675   5.254
 9679TIP3    H228995   7.624   5.763   5.375
 9680TIP3   OH228996   5.242   3.232   2.186
 9680TIP3    H128997   5.181   3.226   2.113
 9680TIP3    H228998   5.309   3.294   2.156
 9681TIP3   OH228999   7.536   6.280   0.518
 9681TIP3    H129000   7.628   6.260   0.501
 9681TIP3    H229001   7.537   6.371   0.547
 9682TIP3   OH229002   8.070   0.851   1.307
 9682TIP3    H129003   8.053   0.865   1.214
 9682TIP3    H229004   8.015   0.915   1.351
 9683TIP3   OH229005   1.717   2.264   0.835
 9683TIP3    H129006   1.701   2.280   0.928
 9683TIP3    H229007   1.657   2.192   0.813
 9684TIP3   OH229008   4.396   2.759   4.115
 9684TIP3    H129009   4.410   2.697   4.186
 9684TIP3    H229010   4.303   2.781   4.121
 9685TIP3   OH229011   0.398   4.174   4.799
 9685TIP3    H129012   0.365   4.088   4.825
 9685TIP3    H229013   0.476   4.156   4.747
 9686TIP3   OH229014   5.529   7.045   1.381
 9686TIP3    H129015   5.601   7.057   1.442
 9686TIP3    H229016   5.558   7.090   1.301
 9687TIP3   OH229017   4.782   2.321   3.212
 9687TIP3    H129018   4.863   2.327   3.161
 9687TIP3    H229019   4.809   2.345   3.301
 9688TIP3   OH229020   4.602   3.712   0.178
 9688TIP3    H129021   4.639   3.751   0.098
 9688TIP3    H229022   4.613   3.618   0.167
 9689TIP3   OH229023   8.239   0.342   2.532
 9689TIP3    H129024   8.278   0.418   2.576
 9689TIP3    H229025   8.300   0.271   2.550
 9690TIP3   OH229026   2.048   2.376   0.994
 9690TIP3    H129027   2.110   2.324   1.045
 9690TIP3    H229028   1.992   2.311   0.952
 9691TIP3   OH229029   7.398   5.723   1.394
 9691TIP3    H129030   7.488   5.747   1.375
 9691TIP3    H229031   7.367   5.792   1.454
 9692TIP3   OH229032   1.030   7.387   2.770
 9692TIP3    H129033   1.004   7.361   2.858
 9692TIP3    H229034   1.118   7.422   2.780
 9693TIP3   OH229035   6.403   1.770   0.545
 9693TIP3    H129036   6.438   1.684   0.522
 9693TIP3    H229037   6.479   1.828   0.542
 9694TIP3   OH229038   5.102   5.605   1.624
 9694TIP3    H129039   5.083   5.621   1.532
 9694TIP3    H229040   5.016   5.600   1.666
 9695TIP3   OH229041   2.145   2.267   3.131
 9695TIP3    H129042   2.119   2.313   3.051
 9695TIP3    H229043   2.067   2.272   3.187
 9696TIP3   OH229044   1.652   4.054   6.282
 9696TIP3    H129045   1.615   4.016   6.203
 9696TIP3    H229046   1.707   4.126   6.251
 9697TIP3   OH229047   4.665   5.838   3.757
 9697TIP3    H129048   4.666   5.784   3.677
 9697TIP3    H229049   4.572   5.858   3.770
 9698TIP3   OH229050   3.649   0.942   1.572
 9698TIP3    H129051   3.661   0.904   1.659
 9698TIP3    H229052   3.692   1.027   1.576
 9699TIP3   OH229053   6.365   3.786   4.628
 9699TIP3    H129054   6.389   3.869   4.670
 9699TIP3    H229055   6.271   3.778   4.643
 9700TIP3   OH229056   7.351   0.731   0.475
 9700TIP3    H129057   7.288   0.792   0.438
 9700TIP3    H229058   7.349   0.748   0.569
 9701TIP3   OH229059   2.990   1.014   2.170
 9701TIP3    H129060   3.026   1.076   2.106
 9701TIP3    H229061   2.917   0.972   2.125
 9702TIP3   OH229062   7.078   2.816   2.191
 9702TIP3    H129063   7.041   2.754   2.129
 9702TIP3    H229064   7.082   2.768   2.274
 9703TIP3   OH229065   3.323   4.766   3.105
 9703TIP3    H129066   3.408   4.736   3.076
 9703TIP3    H229067   3.260   4.710   3.059
 9704TIP3   OH229068   7.496   2.781   0.255
 9704TIP3    H129069   7.518   2.838   0.182
 9704TIP3    H229070   7.563   2.800   0.321
 9705TIP3   OH229071   1.278   1.771   5.596
 9705TIP3    H129072   1.236   1.714   5.660
 9705TIP3    H229073   1.358   1.724   5.571
 9706TIP3   OH229074   3.075   0.665   6.726
 9706TIP3    H129075   3.030   0.583   6.708
 9706TIP3    H229076   3.144   0.642   6.789
 9707TIP3   OH229077   7.372   3.122   0.444
 9707TIP3    H129078   7.415   3.143   0.361
 9707TIP3    H229079   7.326   3.039   0.428
 9708TIP3   OH229080   7.715   2.229   6.496
 9708TIP3    H129081   7.658   2.171   6.446
 9708TIP3    H229082   7.804   2.199   6.476
 9709TIP3   OH229083   1.352   2.321   0.856
 9709TIP3    H129084   1.342   2.353   0.766
 9709TIP3    H229085   1.307   2.236   0.856
 9710TIP3   OH229086   0.504   5.680   1.033
 9710TIP3    H129087   0.426   5.631   1.007
 9710TIP3    H229088   0.481   5.717   1.119
 9711TIP3   OH229089   3.556   1.910   4.823
 9711TIP3    H129090   3.488   1.932   4.759
 9711TIP3    H229091   3.511   1.912   4.907
 9712TIP3   OH229092   5.963   3.918   4.325
 9712TIP3    H129093   5.964   3.970   4.244
 9712TIP3    H229094   5.878   3.937   4.365
 9713TIP3   OH229095   7.121   2.085   0.301
 9713TIP3    H129096   7.188   2.050   0.360
 9713TIP3    H229097   7.078   2.154   0.352
 9714TIP3   OH229098   5.887   2.313   1.056
 9714TIP3    H129099   5.976   2.316   1.021
 9714TIP3    H229100   5.841   2.385   1.012
 9715TIP3   OH229101   4.868   3.125   2.548
 9715TIP3    H129102   4.775   3.130   2.568
 9715TIP3    H229103   4.912   3.133   2.632
 9716TIP3   OH229104   0.153   1.905   1.248
 9716TIP3    H129105   0.126   1.816   1.223
 9716TIP3    H229106   0.083   1.936   1.305
 9717TIP3   OH229107   5.487   7.705   2.194
 9717TIP3    H129108   5.537   7.655   2.130
 9717TIP3    H229109   5.461   7.785   2.148
 9718TIP3   OH229110   1.030   6.145   6.327
 9718TIP3    H129111   1.087   6.113   6.257
 9718TIP3    H229112   1.061   6.233   6.345
 9719TIP3   OH229113   7.941   4.063   5.504
 9719TIP3    H129114   7.964   4.049   5.412
 9719TIP3    H229115   7.991   4.140   5.530
 9720TIP3   OH229116   3.635   5.794   2.361
 9720TIP3    H129117   3.610   5.823   2.274
 9720TIP3    H229118   3.664   5.704   2.349
 9721TIP3   OH229119   7.297   4.975   0.625
 9721TIP3    H129120   7.362   4.948   0.690
 9721TIP3    H229121   7.349   5.005   0.551
 9722TIP3   OH229122   3.603   1.134   0.544
 9722TIP3    H129123   3.571   1.045   0.561
 9722TIP3    H229124   3.572   1.184   0.620
 9723TIP3   OH229125   1.255   1.502   5.416
 9723TIP3    H129126   1.193   1.431   5.400
 9723TIP3    H229127   1.261   1.548   5.332
 9724TIP3   OH229128   0.341   5.934   5.368
 9724TIP3    H129129   0.420   5.982   5.391
 9724TIP3    H229130   0.330   5.949   5.274
 9725TIP3   OH229131   2.143   5.555   5.006
 9725TIP3    H129132   2.200   5.591   4.938
 9725TIP3    H229133   2.078   5.503   4.957
 9726TIP3   OH229134   6.322   3.949   1.880
 9726TIP3    H129135   6.405   3.969   1.923
 9726TIP3    H229136   6.255   3.976   1.943
 9727TIP3   OH229137   2.202   6.084   5.027
 9727TIP3    H129138   2.235   6.090   4.938
 9727TIP3    H229139   2.142   6.158   5.036
 9728TIP3   OH229140   7.435   0.237   1.577
 9728TIP3    H129141   7.394   0.290   1.509
 9728TIP3    H229142   7.496   0.180   1.530
 9729TIP3   OH229143   1.526   2.149   3.449
 9729TIP3    H129144   1.567   2.234   3.466
 9729TIP3    H229145   1.440   2.170   3.413
 9730TIP3   OH229146   3.165   4.084   0.855
 9730TIP3    H129147   3.178   4.109   0.764
 9730TIP3    H229148   3.070   4.074   0.864
 9731TIP3   OH229149   3.466   6.376   1.812
 9731TIP3    H129150   3.547   6.426   1.825
 9731TIP3    H229151   3.490   6.307   1.751
 9732TIP3   OH229152   2.175   3.634   3.857
 9732TIP3    H129153   2.174   3.633   3.953
 9732TIP3    H229154   2.196   3.725   3.835
 9733TIP3   OH229155   1.298   2.253   3.655
 9733TIP3    H129156   1.231   2.259   3.723
 9733TIP3    H229157   1.253   2.277   3.574
 9734TIP3   OH229158   6.401   1.499   1.648
 9734TIP3    H129159   6.414   1.447   1.569
 9734TIP3    H229160   6.489   1.515   1.681
 9735TIP3   OH229161   1.704   2.926   4.226
 9735TIP3    H129162   1.711   2.849   4.169
 9735TIP3    H229163   1.642   2.899   4.294
 9736TIP3   OH229164   1.588   2.769   3.264
 9736TIP3    H129165   1.611   2.845   3.210
 9736TIP3    H229166   1.562   2.807   3.348
 9737TIP3   OH229167   7.507   4.486   6.449
 9737TIP3    H129168   7.543   4.496   6.361
 9737TIP3    H229169   7.481   4.574   6.475
 9738TIP3   OH229170   7.065   2.508   5.238
 9738TIP3    H129171   7.029   2.595   5.222
 9738TIP3    H229172   7.135   2.498   5.173
 9739TIP3   OH229173   1.280   6.436   4.965
 9739TIP3    H129174   1.235   6.478   4.891
 9739TIP3    H229175   1.286   6.505   5.031
 9740TIP3   OH229176   1.195   5.614   5.177
 9740TIP3    H129177   1.289   5.630   5.164
 9740TIP3    H229178   1.161   5.695   5.214
 9741TIP3   OH229179   1.849   7.231   0.215
 9741TIP3    H129180   1.943   7.234   0.200
 9741TIP3    H229181   1.838   7.171   0.290
 9742TIP3   OH229182   1.031   5.695   3.183
 9742TIP3    H129183   1.085   5.667   3.110
 9742TIP3    H229184   1.092   5.735   3.245
 9743TIP3   OH229185   3.769   0.218   3.646
 9743TIP3    H129186   3.770   0.301   3.598
 9743TIP3    H229187   3.708   0.163   3.598
 9744TIP3   OH229188   5.344   4.441   3.776
 9744TIP3    H129189   5.353   4.446   3.680
 9744TIP3    H229190   5.432   4.458   3.809
 9745TIP3   OH229191   0.651   7.788   6.413
 9745TIP3    H129192   0.559   7.796   6.439
 9745TIP3    H229193   0.685   7.716   6.466
 9746TIP3   OH229194   4.187   1.044   2.592
 9746TIP3    H129195   4.149   0.970   2.639
 9746TIP3    H229196   4.268   1.064   2.638
 9747TIP3   OH229197   2.656   0.821   1.271
 9747TIP3    H129198   2.569   0.795   1.242
 9747TIP3    H229199   2.701   0.849   1.191
 9748TIP3   OH229200   0.579   1.181   2.767
 9748TIP3    H129201   0.559   1.197   2.860
 9748TIP3    H229202   0.493   1.181   2.725
 9749TIP3   OH229203   5.939   1.378   0.853
 9749TIP3    H129204   5.962   1.471   0.851
 9749TIP3    H229205   5.993   1.341   0.923
 9750TIP3   OH229206   0.544   1.506   1.989
 9750TIP3    H129207   0.473   1.510   2.053
 9750TIP3    H229208   0.562   1.598   1.968
 9751TIP3   OH229209   2.889   1.408   6.551
 9751TIP3    H129210   2.840   1.488   6.572
 9751TIP3    H229211   2.878   1.398   6.456
 9752TIP3   OH229212   2.433   3.419   2.078
 9752TIP3    H129213   2.400   3.409   1.989
 9752TIP3    H229214   2.355   3.426   2.133
 9753TIP3   OH229215   1.182   2.014   5.969
 9753TIP3    H129216   1.108   2.014   6.029
 9753TIP3    H229217   1.143   2.009   5.882
 9754TIP3   OH229218   4.477   7.034   2.985
 9754TIP3    H129219   4.465   7.093   3.059
 9754TIP3    H229220   4.428   7.076   2.913
 9755TIP3   OH229221   8.112   0.135   0.836
 9755TIP3    H129222   8.098   0.208   0.897
 9755TIP3    H229223   8.101   0.175   0.749
 9756TIP3   OH229224   3.159   7.569   6.012
 9756TIP3    H129225   3.107   7.544   6.089
 9756TIP3    H229226   3.152   7.495   5.953
 9757TIP3   OH229227   0.140   6.288   0.875
 9757TIP3    H129228   0.196   6.230   0.824
 9757TIP3    H229229   0.097   6.230   0.938
 9758TIP3   OH229230   8.080   4.328   5.445
 9758TIP3    H129231   8.124   4.408   5.415
 9758TIP3    H229232   8.049   4.286   5.364
 9759TIP3   OH229233   7.008   4.961   5.927
 9759TIP3    H129234   6.936   5.022   5.943
 9759TIP3    H229235   6.991   4.927   5.839
 9760TIP3   OH229236   6.043   5.022   2.043
 9760TIP3    H129237   6.090   4.948   2.079
 9760TIP3    H229238   6.100   5.097   2.058
 9761TIP3   OH229239   7.315   7.383   4.015
 9761TIP3    H129240   7.336   7.371   3.923
 9761TIP3    H229241   7.397   7.366   4.061
 9762TIP3   OH229242   0.820   5.265   3.377
 9762TIP3    H129243   0.842   5.307   3.460
 9762TIP3    H229244   0.799   5.338   3.318
 9763TIP3   OH229245   7.275   4.391   2.555
 9763TIP3    H129246   7.193   4.434   2.579
 9763TIP3    H229247   7.248   4.305   2.521
 9764TIP3   OH229248   5.447   0.127   5.736
 9764TIP3    H129249   5.452   0.177   5.655
 9764TIP3    H229250   5.472   0.038   5.712
 9765TIP3   OH229251   4.569   4.350   1.250
 9765TIP3    H129252   4.525   4.289   1.190
 9765TIP3    H229253   4.657   4.313   1.260
 9766TIP3   OH229254   2.900   5.499   4.249
 9766TIP3    H129255   2.949   5.507   4.168
 9766TIP3    H229256   2.882   5.589   4.275
 9767TIP3   OH229257   4.745   5.863   1.190
 9767TIP3    H129258   4.719   5.801   1.258
 9767TIP3    H229259   4.806   5.922   1.235
 9768TIP3   OH229260   0.805   7.705   5.776
 9768TIP3    H129261   0.832   7.763   5.848
 9768TIP3    H229262   0.850   7.739   5.699
 9769TIP3   OH229263   6.345   6.221   0.674
 9769TIP3    H129264   6.420   6.279   0.684
 9769TIP3    H229265   6.379   6.145   0.627
 9770TIP3   OH229266   7.762   3.893   4.913
 9770TIP3    H129267   7.728   3.980   4.934
 9770TIP3    H229268   7.706   3.833   4.963
 9771TIP3   OH229269   4.266   1.263   4.968
 9771TIP3    H129270   4.196   1.323   4.998
 9771TIP3    H229271   4.329   1.263   5.040
 9772TIP3   OH229272   1.710   5.454   3.888
 9772TIP3    H129273   1.771   5.470   3.959
 9772TIP3    H229274   1.682   5.541   3.861
 9773TIP3   OH229275   4.230   4.668   2.752
 9773TIP3    H129276   4.258   4.612   2.680
 9773TIP3    H229277   4.137   4.684   2.735
 9774TIP3   OH229278   7.663   2.001   5.048
 9774TIP3    H129279   7.670   2.095   5.065
 9774TIP3    H229280   7.678   1.959   5.133
 9775TIP3   OH229281   6.109   2.663   6.392
 9775TIP3    H129282   6.073   2.701   6.312
 9775TIP3    H229283   6.186   2.615   6.364
 9776TIP3   OH229284   4.253   0.861   3.965
 9776TIP3    H129285   4.303   0.922   4.021
 9776TIP3    H229286   4.315   0.837   3.896
 9777TIP3   OH229287   7.381   0.196   5.959
 9777TIP3    H129288   7.292   0.207   5.991
 9777TIP3    H229289   7.371   0.170   5.867
 9778TIP3   OH229290   3.170   4.591   2.076
 9778TIP3    H129291   3.100   4.655   2.095
 9778TIP3    H229292   3.245   4.623   2.126
 9779TIP3   OH229293   0.731   6.452   2.984
 9779TIP3    H129294   0.674   6.387   2.944
 9779TIP3    H229295   0.740   6.520   2.917
 9780TIP3   OH229296   0.458   7.446   6.115
 9780TIP3    H129297   0.500   7.362   6.131
 9780TIP3    H229298   0.435   7.479   6.202
 9781TIP3   OH229299   3.414   2.773   0.946
 9781TIP3    H129300   3.496   2.744   0.986
 9781TIP3    H229301   3.378   2.837   1.008
 9782TIP3   OH229302   1.696   6.103   1.425
 9782TIP3    H129303   1.711   6.032   1.486
 9782TIP3    H229304   1.632   6.159   1.468
 9783TIP3   OH229305   3.605   0.289   5.229
 9783TIP3    H129306   3.579   0.290   5.137
 9783TIP3    H229307   3.548   0.222   5.268
 9784TIP3   OH229308   8.211   3.443   2.288
 9784TIP3    H129309   8.214   3.471   2.196
 9784TIP3    H229310   8.132   3.389   2.294
 9785TIP3   OH229311   6.070   3.379   2.796
 9785TIP3    H129312   6.032   3.447   2.852
 9785TIP3    H229313   6.035   3.297   2.830
 9786TIP3   OH229314   6.711   6.708   3.831
 9786TIP3    H129315   6.669   6.787   3.864
 9786TIP3    H229316   6.787   6.739   3.782
 9787TIP3   OH229317   7.251   2.876   1.956
 9787TIP3    H129318   7.185   2.936   1.921
 9787TIP3    H229319   7.213   2.843   2.038
 9788TIP3   OH229320   4.437   6.265   5.489
 9788TIP3    H129321   4.434   6.328   5.417
 9788TIP3    H229322   4.370   6.296   5.550
 9789TIP3   OH229323   5.484   1.223   4.816
 9789TIP3    H129324   5.425   1.210   4.889
 9789TIP3    H229325   5.450   1.300   4.770
 9790TIP3   OH229326   5.221   3.972   2.412
 9790TIP3    H129327   5.249   3.982   2.503
 9790TIP3    H229328   5.125   3.982   2.416
 9791TIP3   OH229329   7.659   2.207   2.266
 9791TIP3    H129330   7.616   2.124   2.285
 9791TIP3    H229331   7.592   2.260   2.223
 9792TIP3   OH229332   1.065   3.757   2.609
 9792TIP3    H129333   0.988   3.721   2.654
 9792TIP3    H229334   1.039   3.846   2.584
 9793TIP3   OH229335   7.249   3.263   2.076
 9793TIP3    H129336   7.213   3.338   2.124
 9793TIP3    H229337   7.288   3.207   2.144
 9794TIP3   OH229338   0.841   5.528   5.392
 9794TIP3    H129339   0.932   5.540   5.417
 9794TIP3    H229340   0.821   5.438   5.417
 9795TIP3   OH229341   2.353   0.453   0.660
 9795TIP3    H129342   2.377   0.361   0.672
 9795TIP3    H229343   2.267   0.460   0.703
 9796TIP3   OH229344   1.428   6.404   6.003
 9796TIP3    H129345   1.458   6.486   5.964
 9796TIP3    H229346   1.361   6.430   6.066
 9797TIP3   OH229347   4.948   0.162   5.180
 9797TIP3    H129348   4.855   0.183   5.192
 9797TIP3    H229349   4.994   0.240   5.212
 9798TIP3   OH229350   1.557   4.906   1.259
 9798TIP3    H129351   1.605   4.824   1.254
 9798TIP3    H229352   1.465   4.881   1.244
 9799TIP3   OH229353   5.347   7.109   0.140
 9799TIP3    H129354   5.374   7.018   0.151
 9799TIP3    H229355   5.376   7.152   0.220
 9800TIP3   OH229356   2.517   3.394   0.312
 9800TIP3    H129357   2.430   3.391   0.352
 9800TIP3    H229358   2.506   3.449   0.235
 9801TIP3   OH229359   7.378   3.633   5.488
 9801TIP3    H129360   7.412   3.544   5.484
 9801TIP3    H229361   7.363   3.649   5.581
 9802TIP3   OH229362   0.771   6.372   3.261
 9802TIP3    H129363   0.738   6.440   3.321
 9802TIP3    H229364   0.791   6.419   3.180
 9803TIP3   OH229365   5.679   2.116   0.778
 9803TIP3    H129366   5.774   2.116   0.790
 9803TIP3    H229367   5.654   2.208   0.783
 9804TIP3   OH229368   1.619   7.837   0.379
 9804TIP3    H129369   1.571   7.781   0.318
 9804TIP3    H229370   1.678   7.778   0.425
 9805TIP3   OH229371   5.480   2.891   2.683
 9805TIP3    H129372   5.402   2.877   2.736
 9805TIP3    H229373   5.469   2.832   2.608
 9806TIP3   OH229374   3.664   3.037   3.647
 9806TIP3    H129375   3.599   2.978   3.608
 9806TIP3    H229376   3.728   3.051   3.577
 9807TIP3   OH229377   2.031   6.196   1.958
 9807TIP3    H129378   1.994   6.137   2.023
 9807TIP3    H229379   2.083   6.259   2.009
 9808TIP3   OH229380   8.109   6.635   5.947
 9808TIP3    H129381   8.184   6.679   5.987
 9808TIP3    H229382   8.147   6.586   5.874
 9809TIP3   OH229383   0.692   0.486   1.696
 9809TIP3    H129384   0.667   0.394   1.695
 9809TIP3    H229385   0.609   0.533   1.694
 9810TIP3   OH229386   5.560   2.134   6.742
 9810TIP3    H129387   5.476   2.173   6.719
 9810TIP3    H229388   5.583   2.080   6.666
 9811TIP3   OH229389   1.629   3.022   1.938
 9811TIP3    H129390   1.619   2.977   2.023
 9811TIP3    H229391   1.544   3.064   1.923
 9812TIP3   OH229392   8.284   2.526   6.046
 9812TIP3    H129393   8.204   2.485   6.012
 9812TIP3    H229394   8.344   2.453   6.061
 9813TIP3   OH229395   0.089   1.874   5.716
 9813TIP3    H129396   0.103   1.806   5.781
 9813TIP3    H229397   0.168   1.928   5.720
 9814TIP3   OH229398   1.556   2.117   1.772
 9814TIP3    H129399   1.561   2.113   1.676
 9814TIP3    H229400   1.462   2.116   1.791
 9815TIP3   OH229401   1.379   5.318   2.658
 9815TIP3    H129402   1.353   5.364   2.738
 9815TIP3    H229403   1.385   5.387   2.592
 9816TIP3   OH229404   1.977   6.633   0.557
 9816TIP3    H129405   2.053   6.641   0.499
 9816TIP3    H229406   2.007   6.671   0.640
 9817TIP3   OH229407   5.872   3.123   5.359
 9817TIP3    H129408   5.929   3.198   5.339
 9817TIP3    H229409   5.913   3.049   5.314
 9818TIP3   OH229410   0.292   0.219   6.248
 9818TIP3    H129411   0.217   0.279   6.250
 9818TIP3    H229412   0.367   0.273   6.272
 9819TIP3   OH229413   4.957   5.009   6.582
 9819TIP3    H129414   4.912   4.952   6.518
 9819TIP3    H229415   4.906   5.000   6.662
 9820TIP3   OH229416   6.851   6.488   1.328
 9820TIP3    H129417   6.774   6.473   1.274
 9820TIP3    H229418   6.820   6.479   1.418
 9821TIP3   OH229419   3.409   3.210   0.557
 9821TIP3    H129420   3.501   3.197   0.535
 9821TIP3    H229421   3.362   3.147   0.503
 9822TIP3   OH229422   7.688   4.663   2.288
 9822TIP3    H129423   7.624   4.605   2.330
 9822TIP3    H229424   7.635   4.728   2.243
 9823TIP3   OH229425   3.097   4.278   1.516
 9823TIP3    H129426   3.138   4.364   1.523
 9823TIP3    H229427   3.136   4.227   1.587
 9824TIP3   OH229428   7.152   0.033   3.265
 9824TIP3    H129429   7.058   0.015   3.252
 9824TIP3    H229430   7.186   0.050   3.178
 9825TIP3   OH229431   3.142   1.621   5.399
 9825TIP3    H129432   3.164   1.705   5.439
 9825TIP3    H229433   3.204   1.613   5.326
 9826TIP3   OH229434   0.851   5.501   1.507
 9826TIP3    H129435   0.796   5.488   1.584
 9826TIP3    H229436   0.938   5.517   1.541
 9827TIP3   OH229437   2.615   3.201   5.040
 9827TIP3    H129438   2.537   3.251   5.061
 9827TIP3    H229439   2.682   3.267   5.022
 9828TIP3   OH229440   0.295   6.722   3.957
 9828TIP3    H129441   0.265   6.763   3.876
 9828TIP3    H229442   0.288   6.628   3.940
 9829TIP3   OH229443   5.542   7.455   2.566
 9829TIP3    H129444   5.549   7.371   2.611
 9829TIP3    H229445   5.565   7.520   2.631
 9830TIP3   OH229446   6.867   7.081   1.498
 9830TIP3    H129447   6.917   7.113   1.423
 9830TIP3    H229448   6.840   7.161   1.545
 9831TIP3   OH229449   1.253   1.207   0.081
 9831TIP3    H129450   1.290   1.292   0.056
 9831TIP3    H229451   1.185   1.191   0.017
 9832TIP3   OH229452   4.421   0.873   4.524
 9832TIP3    H129453   4.352   0.855   4.588
 9832TIP3    H229454   4.499   0.833   4.562
 9833TIP3   OH229455   6.139   1.046   2.826
 9833TIP3    H129456   6.153   1.034   2.732
 9833TIP3    H229457   6.126   1.140   2.836
 9834TIP3   OH229458   7.862   2.189   4.693
 9834TIP3    H129459   7.814   2.106   4.690
 9834TIP3    H229460   7.945   2.168   4.735
 9835TIP3   OH229461   4.316   5.651   0.120
 9835TIP3    H129462   4.390   5.675   0.065
 9835TIP3    H229463   4.332   5.560   0.143
 9836TIP3   OH229464   1.245   4.210   1.050
 9836TIP3    H129465   1.151   4.225   1.037
 9836TIP3    H229466   1.249   4.157   1.130
 9837TIP3   OH229467   0.229   6.084   0.700
 9837TIP3    H129468   0.176   6.019   0.747
 9837TIP3    H229469   0.283   6.032   0.641
 9838TIP3   OH229470   6.161   4.344   4.012
 9838TIP3    H129471   6.185   4.256   4.041
 9838TIP3    H229472   6.245   4.385   3.991
 9839TIP3   OH229473   4.628   0.269   4.063
 9839TIP3    H129474   4.653   0.254   4.154
 9839TIP3    H229475   4.537   0.299   4.068
 9840TIP3   OH229476   7.966   3.536   4.060
 9840TIP3    H129477   7.909   3.591   4.008
 9840TIP3    H229478   8.050   3.583   4.063
 9841TIP3   OH229479   4.067   6.063   5.177
 9841TIP3    H129480   4.028   6.114   5.107
 9841TIP3    H229481   4.007   6.073   5.250
 9842TIP3   OH229482   5.225   4.998   1.184
 9842TIP3    H129483   5.234   5.063   1.254
 9842TIP3    H229484   5.174   4.927   1.223
 9843TIP3   OH229485   0.682   5.902   0.646
 9843TIP3    H129486   0.755   5.840   0.655
 9843TIP3    H229487   0.703   5.952   0.567
 9844TIP3   OH229488   0.273   5.644   0.182
 9844TIP3    H129489   0.313   5.719   0.138
 9844TIP3    H229490   0.318   5.640   0.266
 9845TIP3   OH229491   1.895   7.682   3.308
 9845TIP3    H129492   1.850   7.598   3.302
 9845TIP3    H229493   1.844   7.732   3.372
 9846TIP3   OH229494   1.211   5.270   6.249
 9846TIP3    H129495   1.274   5.296   6.316
 9846TIP3    H229496   1.255   5.200   6.201
 9847TIP3   OH229497   1.118   0.908   4.902
 9847TIP3    H129498   1.077   0.823   4.918
 9847TIP3    H229499   1.162   0.930   4.984
 9848TIP3   OH229500   2.638   2.797   5.421
 9848TIP3    H129501   2.582   2.873   5.404
 9848TIP3    H229502   2.583   2.738   5.473
 9849TIP3   OH229503   2.302   1.282   3.261
 9849TIP3    H129504   2.245   1.357   3.280
 9849TIP3    H229505   2.328   1.249   3.347
 9850TIP3   OH229506   7.702   1.607   4.908
 9850TIP3    H129507   7.656   1.673   4.856
 9850TIP3    H229508   7.785   1.649   4.932
 9851TIP3   OH229509   0.797   3.122   4.365
 9851TIP3    H129510   0.874   3.116   4.309
 9851TIP3    H229511   0.782   3.032   4.395
 9852TIP3   OH229512   6.107   6.148   1.094
 9852TIP3    H129513   6.100   6.134   0.999
 9852TIP3    H229514   6.196   6.119   1.116
 9853TIP3   OH229515   1.753   3.181   5.444
 9853TIP3    H129516   1.848   3.196   5.440
 9853TIP3    H229517   1.733   3.140   5.360
 9854TIP3   OH229518   3.003   6.668   4.130
 9854TIP3    H129519   3.092   6.701   4.119
 9854TIP3    H229520   2.986   6.616   4.052
 9855TIP3   OH229521   0.729   4.185   3.892
 9855TIP3    H129522   0.752   4.276   3.912
 9855TIP3    H229523   0.764   4.170   3.804
 9856TIP3   OH229524   1.026   3.027   0.090
 9856TIP3    H129525   1.052   2.986   0.172
 9856TIP3    H229526   1.108   3.040   0.042
 9857TIP3   OH229527   5.878   1.201   4.014
 9857TIP3    H129528   5.944   1.270   4.020
 9857TIP3    H229529   5.919   1.132   3.963
 9858TIP3   OH229530   5.229   7.560   3.038
 9858TIP3    H129531   5.202   7.484   2.986
 9858TIP3    H229532   5.185   7.634   2.997
 9859TIP3   OH229533   3.206   1.082   0.257
 9859TIP3    H129534   3.274   1.015   0.272
 9859TIP3    H229535   3.246   1.163   0.289
 9860TIP3   OH229536   1.972   5.255   5.077
 9860TIP3    H129537   1.924   5.176   5.102
 9860TIP3    H229538   2.046   5.258   5.137
 9861TIP3   OH229539   4.430   4.750   6.562
 9861TIP3    H129540   4.408   4.835   6.600
 9861TIP3    H229541   4.485   4.771   6.487
 9862TIP3   OH229542   5.512   6.280   0.443
 9862TIP3    H129543   5.540   6.371   0.445
 9862TIP3    H229544   5.543   6.247   0.358
 9863TIP3   OH229545   0.437   5.790   3.580
 9863TIP3    H129546   0.528   5.760   3.583
 9863TIP3    H229547   0.436   5.867   3.638
 9864TIP3   OH229548   5.866   5.469   5.589
 9864TIP3    H129549   5.926   5.399   5.614
 9864TIP3    H229550   5.909   5.511   5.515
 9865TIP3   OH229551   3.650   2.142   4.586
 9865TIP3    H129552   3.572   2.111   4.540
 9865TIP3    H229553   3.661   2.081   4.658
 9866TIP3   OH229554   3.490   2.249   1.730
 9866TIP3    H129555   3.511   2.320   1.669
 9866TIP3    H229556   3.449   2.182   1.676
 9867TIP3   OH229557   6.445   7.404   4.690
 9867TIP3    H129558   6.470   7.485   4.733
 9867TIP3    H229559   6.499   7.400   4.611
 9868TIP3   OH229560   7.331   0.667   3.558
 9868TIP3    H129561   7.401   0.724   3.524
 9868TIP3    H229562   7.358   0.647   3.647
 9869TIP3   OH229563   0.878   7.620   5.340
 9869TIP3    H129564   0.853   7.712   5.334
 9869TIP3    H229565   0.964   7.621   5.382
 9870TIP3   OH229566   6.254   0.043   5.912
 9870TIP3    H129567   6.267   0.042   6.007
 9870TIP3    H229568   6.268  -0.048   5.885
 9871TIP3   OH229569   1.991   1.026   2.968
 9871TIP3    H129570   1.997   1.104   3.023
 9871TIP3    H229571   2.059   0.968   3.001
 9872TIP3   OH229572   6.120   6.018   4.625
 9872TIP3    H129573   6.042   6.074   4.625
 9872TIP3    H229574   6.186   6.068   4.674
 9873TIP3   OH229575   2.988   1.294   4.034
 9873TIP3    H129576   3.035   1.302   3.952
 9873TIP3    H229577   2.970   1.200   4.043
 9874TIP3   OH229578   1.905   3.751   5.864
 9874TIP3    H129579   1.825   3.761   5.812
 9874TIP3    H229580   1.891   3.806   5.941
 9875TIP3   OH229581   3.022   5.770   0.269
 9875TIP3    H129582   3.045   5.677   0.276
 9875TIP3    H229583   3.029   5.789   0.175
 9876TIP3   OH229584   7.004   3.808   4.110
 9876TIP3    H129585   7.042   3.730   4.069
 9876TIP3    H229586   7.063   3.828   4.182
 9877TIP3   OH229587   5.668   4.218   1.812
 9877TIP3    H129588   5.646   4.125   1.809
 9877TIP3    H229589   5.585   4.263   1.802
 9878TIP3   OH229590   0.388   7.103   6.295
 9878TIP3    H129591   0.349   7.023   6.261
 9878TIP3    H229592   0.314   7.164   6.304
 9879TIP3   OH229593   7.525   0.937   0.421
 9879TIP3    H129594   7.486   0.999   0.482
 9879TIP3    H229595   7.495   0.851   0.450
 9880TIP3   OH229596   4.012   4.127   3.211
 9880TIP3    H129597   3.957   4.050   3.193
 9880TIP3    H229598   4.020   4.129   3.306
 9881TIP3   OH229599   6.326   2.543   6.141
 9881TIP3    H129600   6.401   2.490   6.169
 9881TIP3    H229601   6.263   2.479   6.108
 9882TIP3   OH229602   1.413   6.113   5.110
 9882TIP3    H129603   1.483   6.176   5.126
 9882TIP3    H229604   1.334   6.167   5.100
 9883TIP3   OH229605   0.844   0.613   2.201
 9883TIP3    H129606   0.906   0.562   2.149
 9883TIP3    H229607   0.811   0.679   2.140
 9884TIP3   OH229608   7.150   2.147   1.823
 9884TIP3    H129609   7.206   2.217   1.789
 9884TIP3    H229610   7.173   2.141   1.916
 9885TIP3   OH229611   7.953   7.708   2.363
 9885TIP3    H129612   8.026   7.760   2.329
 9885TIP3    H229613   7.884   7.773   2.380
 9886TIP3   OH229614   3.771   1.310   4.028
 9886TIP3    H129615   3.814   1.330   4.111
 9886TIP3    H229616   3.686   1.352   4.034
 9887TIP3   OH229617   5.305   1.782   4.153
 9887TIP3    H129618   5.353   1.824   4.224
 9887TIP3    H229619   5.244   1.723   4.197
 9888TIP3   OH229620   7.270   7.666   4.454
 9888TIP3    H129621   7.314   7.658   4.369
 9888TIP3    H229622   7.253   7.760   4.462
 9889TIP3   OH229623   3.458   1.727   0.111
 9889TIP3    H129624   3.384   1.713   0.170
 9889TIP3    H229625   3.473   1.822   0.112
 9890TIP3   OH229626   0.806   6.580   4.481
 9890TIP3    H129627   0.849   6.541   4.404
 9890TIP3    H229628   0.789   6.505   4.539
 9891TIP3   OH229629   6.557   7.512   6.386
 9891TIP3    H129630   6.544   7.524   6.480
 9891TIP3    H229631   6.615   7.436   6.379
 9892TIP3   OH229632   7.399   1.943   3.885
 9892TIP3    H129633   7.330   1.883   3.857
 9892TIP3    H229634   7.393   1.943   3.981
 9893TIP3   OH229635   6.060   1.609   4.757
 9893TIP3    H129636   6.018   1.638   4.676
 9893TIP3    H229637   6.151   1.637   4.749
 9894TIP3   OH229638   7.643   6.305   0.794
 9894TIP3    H129639   7.572   6.242   0.796
 9894TIP3    H229640   7.617   6.374   0.855
 9895TIP3   OH229641   1.495   6.350   0.625
 9895TIP3    H129642   1.434   6.425   0.629
 9895TIP3    H229643   1.505   6.323   0.716
 9896TIP3   OH229644   6.657   4.686   4.943
 9896TIP3    H129645   6.727   4.672   4.879
 9896TIP3    H229646   6.593   4.740   4.897
 9897TIP3   OH229647   0.358   0.259   1.442
 9897TIP3    H129648   0.394   0.297   1.362
 9897TIP3    H229649   0.330   0.171   1.417
 9898TIP3   OH229650   5.414   4.070   5.065
 9898TIP3    H129651   5.494   4.025   5.090
 9898TIP3    H229652   5.421   4.080   4.970
 9899TIP3   OH229653   0.903   2.443   2.057
 9899TIP3    H129654   0.887   2.535   2.079
 9899TIP3    H229655   0.994   2.441   2.030
 9900TIP3   OH229656   2.680   2.016   4.353
 9900TIP3    H129657   2.733   1.937   4.343
 9900TIP3    H229658   2.680   2.033   4.447
 9901TIP3   OH229659   2.375   4.193   4.022
 9901TIP3    H129660   2.410   4.233   4.102
 9901TIP3    H229661   2.317   4.260   3.986
 9902TIP3   OH229662   7.997   0.729   4.914
 9902TIP3    H129663   7.976   0.681   4.834
 9902TIP3    H229664   8.021   0.817   4.883
 9903TIP3   OH229665   5.796   2.648   4.891
 9903TIP3    H129666   5.712   2.654   4.845
 9903TIP3    H229667   5.777   2.598   4.970
 9904TIP3   OH229668   1.920   1.097   6.325
 9904TIP3    H129669   1.868   1.093   6.405
 9904TIP3    H229670   1.879   1.166   6.273
 9905TIP3   OH229671   6.544   6.330   4.064
 9905TIP3    H129672   6.620   6.273   4.065
 9905TIP3    H229673   6.471   6.273   4.039
 9906TIP3   OH229674   5.279   6.372   0.140
 9906TIP3    H129675   5.228   6.349   0.063
 9906TIP3    H229676   5.358   6.412   0.105
 9907TIP3   OH229677   2.872   2.539   0.806
 9907TIP3    H129678   2.904   2.591   0.880
 9907TIP3    H229679   2.805   2.594   0.765
 9908TIP3   OH229680   6.515   7.707   2.293
 9908TIP3    H129681   6.546   7.626   2.252
 9908TIP3    H229682   6.462   7.677   2.366
 9909TIP3   OH229683   4.580   1.807   0.730
 9909TIP3    H129684   4.595   1.878   0.792
 9909TIP3    H229685   4.484   1.802   0.721
 9910TIP3   OH229686   6.048   2.920   2.785
 9910TIP3    H129687   6.118   2.886   2.728
 9910TIP3    H229688   5.968   2.882   2.750
 9911TIP3   OH229689   6.645   6.101   0.178
 9911TIP3    H129690   6.728   6.098   0.131
 9911TIP3    H229691   6.656   6.172   0.242
 9912TIP3   OH229692   8.247   5.673   3.042
 9912TIP3    H129693   8.275   5.753   2.998
 9912TIP3    H229694   8.158   5.657   3.010
 9913TIP3   OH229695   4.639   1.245   4.835
 9913TIP3    H129696   4.717   1.300   4.833
 9913TIP3    H229697   4.647   1.195   4.916
 9914TIP3   OH229698   2.205   3.186   5.915
 9914TIP3    H129699   2.185   3.106   5.965
 9914TIP3    H229700   2.122   3.212   5.877
 9915TIP3   OH229701   4.698   5.596   4.832
 9915TIP3    H129702   4.756   5.530   4.793
 9915TIP3    H229703   4.616   5.550   4.848
 9916TIP3   OH229704   3.362   0.263   2.029
 9916TIP3    H129705   3.404   0.181   2.005
 9916TIP3    H229706   3.432   0.316   2.066
 9917TIP3   OH229707   1.645   1.592   3.010
 9917TIP3    H129708   1.633   1.600   2.915
 9917TIP3    H229709   1.740   1.586   3.021
 9918TIP3   OH229710   6.149   4.077   0.713
 9918TIP3    H129711   6.170   4.050   0.803
 9918TIP3    H229712   6.060   4.047   0.699
 9919TIP3   OH229713   7.829   5.615   0.739
 9919TIP3    H129714   7.904   5.629   0.681
 9919TIP3    H229715   7.820   5.697   0.788
 9920TIP3   OH229716   1.595   4.529   0.485
 9920TIP3    H129717   1.540   4.519   0.563
 9920TIP3    H229718   1.554   4.471   0.420
 9921TIP3   OH229719   0.469   2.937   2.417
 9921TIP3    H129720   0.506   3.020   2.448
 9921TIP3    H229721   0.513   2.921   2.334
 9922TIP3   OH229722   2.954   5.530   6.441
 9922TIP3    H129723   3.031   5.486   6.477
 9922TIP3    H229724   2.919   5.581   6.514
 9923TIP3   OH229725   3.546   5.881   5.380
 9923TIP3    H129726   3.551   5.807   5.319
 9923TIP3    H229727   3.553   5.841   5.467
 9924TIP3   OH229728   2.614   5.529   0.497
 9924TIP3    H129729   2.566   5.599   0.452
 9924TIP3    H229730   2.702   5.565   0.510
 9925TIP3   OH229731   7.068   1.741   6.081
 9925TIP3    H129732   7.119   1.661   6.095
 9925TIP3    H229733   7.114   1.808   6.131
 9926TIP3   OH229734   1.841   3.823   3.336
 9926TIP3    H129735   1.777   3.810   3.266
 9926TIP3    H229736   1.788   3.839   3.414
 9927TIP3   OH229737   5.268   6.575   0.341
 9927TIP3    H129738   5.353   6.562   0.383
 9927TIP3    H229739   5.267   6.513   0.269
 9928TIP3   OH229740   7.223   0.357   0.550
 9928TIP3    H129741   7.177   0.280   0.516
 9928TIP3    H229742   7.286   0.321   0.612
 9929TIP3   OH229743   7.767   3.639   0.922
 9929TIP3    H129744   7.785   3.601   0.836
 9929TIP3    H229745   7.763   3.565   0.981
 9930TIP3   OH229746   3.790   5.325   0.084
 9930TIP3    H129747   3.695   5.321   0.094
 9930TIP3    H229748   3.824   5.278   0.160
 9931TIP3   OH229749   3.171   5.389   3.067
 9931TIP3    H129750   3.132   5.301   3.066
 9931TIP3    H229751   3.228   5.389   3.144
 9932TIP3   OH229752   8.150   5.983   2.525
 9932TIP3    H129753   8.057   5.985   2.547
 9932TIP3    H229754   8.177   5.893   2.545
 9933TIP3   OH229755   0.738   0.489   4.948
 9933TIP3    H129756   0.690   0.437   5.012
 9933TIP3    H229757   0.671   0.541   4.903
 9934TIP3   OH229758   5.539   2.904   3.110
 9934TIP3    H129759   5.607   2.933   3.050
 9934TIP3    H229760   5.462   2.957   3.087
 9935TIP3   OH229761   1.713   4.068   1.765
 9935TIP3    H129762   1.682   4.119   1.840
 9935TIP3    H229763   1.808   4.078   1.765
 9936TIP3   OH229764   1.595   5.355   6.108
 9936TIP3    H129765   1.574   5.335   6.199
 9936TIP3    H229766   1.512   5.387   6.071
 9937TIP3   OH229767   7.372   3.163   2.321
 9937TIP3    H129768   7.408   3.075   2.309
 9937TIP3    H229769   7.350   3.169   2.414
 9938TIP3   OH229770   7.908   5.422   4.361
 9938TIP3    H129771   7.956   5.482   4.303
 9938TIP3    H229772   7.836   5.474   4.395
 9939TIP3   OH229773   6.986   4.464   0.443
 9939TIP3    H129774   7.040   4.387   0.460
 9939TIP3    H229775   7.049   4.533   0.421
 9940TIP3   OH229776   1.321   2.931   1.362
 9940TIP3    H129777   1.267   2.860   1.328
 9940TIP3    H229778   1.384   2.949   1.291
 9941TIP3   OH229779   1.874  -0.022   1.035
 9941TIP3    H129780   1.827   0.041   0.981
 9941TIP3    H229781   1.963   0.012   1.041
 9942TIP3   OH229782   4.293   0.364   5.348
 9942TIP3    H129783   4.212   0.316   5.333
 9942TIP3    H229784   4.266   0.442   5.397
 9943TIP3   OH229785   4.683   2.606   5.646
 9943TIP3    H129786   4.614   2.652   5.599
 9943TIP3    H229787   4.645   2.588   5.732
 9944TIP3   OH229788   3.711   6.254   0.655
 9944TIP3    H129789   3.727   6.324   0.593
 9944TIP3    H229790   3.792   6.247   0.706
 9945TIP3   OH229791   3.500   4.681   4.539
 9945TIP3    H129792   3.551   4.679   4.621
 9945TIP3    H229793   3.563   4.655   4.472
 9946TIP3   OH229794   1.989   5.272   2.618
 9946TIP3    H129795   1.930   5.233   2.682
 9946TIP3    H229796   1.964   5.364   2.615
 9947TIP3   OH229797   7.580   4.020   3.100
 9947TIP3    H129798   7.589   3.940   3.048
 9947TIP3    H229799   7.555   4.088   3.036
 9948TIP3   OH229800   7.931   6.298   2.816
 9948TIP3    H129801   7.843   6.301   2.778
 9948TIP3    H229802   7.968   6.383   2.798
 9949TIP3   OH229803   3.260   0.489   5.200
 9949TIP3    H129804   3.270   0.402   5.238
 9949TIP3    H229805   3.165   0.505   5.204
 9950TIP3   OH229806   7.933   7.165   3.187
 9950TIP3    H129807   7.921   7.142   3.095
 9950TIP3    H229808   7.968   7.085   3.227
 9951TIP3   OH229809   3.803   0.628   0.045
 9951TIP3    H129810   3.806   0.723   0.042
 9951TIP3    H229811   3.854   0.600  -0.031
 9952TIP3   OH229812   1.380   7.779   3.519
 9952TIP3    H129813   1.396   7.794   3.612
 9952TIP3    H229814   1.305   7.720   3.516
 9953TIP3   OH229815   4.094   1.127   1.244
 9953TIP3    H129816   4.151   1.079   1.184
 9953TIP3    H229817   4.043   1.185   1.187
 9954TIP3   OH229818   7.606   6.714   5.396
 9954TIP3    H129819   7.558   6.794   5.418
 9954TIP3    H229820   7.687   6.719   5.448
 9955TIP3   OH229821   7.238   0.697   1.958
 9955TIP3    H129822   7.245   0.696   1.862
 9955TIP3    H229823   7.160   0.645   1.976
 9956TIP3   OH229824   3.272   3.119   4.021
 9956TIP3    H129825   3.336   3.048   4.024
 9956TIP3    H229826   3.324   3.198   4.031
 9957TIP3   OH229827   4.081   4.438   1.107
 9957TIP3    H129828   4.115   4.415   1.020
 9957TIP3    H229829   4.138   4.391   1.168
 9958TIP3   OH229830   4.328   5.636   2.491
 9958TIP3    H129831   4.331   5.731   2.490
 9958TIP3    H229832   4.330   5.613   2.584
 9959TIP3   OH229833   7.360   2.345   0.991
 9959TIP3    H129834   7.357   2.416   0.927
 9959TIP3    H229835   7.344   2.266   0.940
 9960TIP3   OH229836   7.523   0.526   5.776
 9960TIP3    H129837   7.551   0.485   5.694
 9960TIP3    H229838   7.441   0.570   5.753
 9961TIP3   OH229839   7.398   7.277   5.811
 9961TIP3    H129840   7.384   7.182   5.811
 9961TIP3    H229841   7.484   7.288   5.771
 9962TIP3   OH229842   2.952   6.830   3.501
 9962TIP3    H129843   3.027   6.817   3.558
 9962TIP3    H229844   2.945   6.925   3.492
 9963TIP3   OH229845   8.230   0.580   6.162
 9963TIP3    H129846   8.323   0.599   6.173
 9963TIP3    H229847   8.195   0.657   6.116
 9964TIP3   OH229848   2.747   2.757   0.691
 9964TIP3    H129849   2.823   2.814   0.679
 9964TIP3    H229850   2.713   2.744   0.603
 9965TIP3   OH229851   7.827   1.963   2.719
 9965TIP3    H129852   7.878   2.044   2.723
 9965TIP3    H229853   7.831   1.928   2.808
 9966TIP3   OH229854   5.725   2.819   1.868
 9966TIP3    H129855   5.795   2.781   1.921
 9966TIP3    H229856   5.754   2.909   1.852
 9967TIP3   OH229857   4.969   6.552   6.000
 9967TIP3    H129858   4.984   6.634   6.049
 9967TIP3    H229859   4.882   6.564   5.960
 9968TIP3   OH229860   3.628   2.525   3.175
 9968TIP3    H129861   3.595   2.437   3.193
 9968TIP3    H229862   3.692   2.513   3.105
 9969TIP3   OH229863   3.248   1.143   1.755
 9969TIP3    H129864   3.198   1.218   1.784
 9969TIP3    H229865   3.298   1.175   1.679
 9970TIP3   OH229866   3.033   3.846   6.179
 9970TIP3    H129867   3.124   3.850   6.149
 9970TIP3    H229868   3.017   3.752   6.193
 9971TIP3   OH229869   5.148   3.423   6.321
 9971TIP3    H129870   5.117   3.480   6.251
 9971TIP3    H229871   5.242   3.413   6.304
 9972TIP3   OH229872   7.379   4.132   6.074
 9972TIP3    H129873   7.294   4.115   6.115
 9972TIP3    H229874   7.359   4.140   5.980
 9973TIP3   OH229875   0.792   4.396   0.240
 9973TIP3    H129876   0.810   4.470   0.182
 9973TIP3    H229877   0.715   4.422   0.290
 9974TIP3   OH229878   5.440   2.488   1.435
 9974TIP3    H129879   5.365   2.479   1.493
 9974TIP3    H229880   5.515   2.498   1.494
 9975TIP3   OH229881   6.072   3.573   1.203
 9975TIP3    H129882   6.029   3.609   1.280
 9975TIP3    H229883   6.150   3.529   1.237
 9976TIP3   OH229884   6.577   2.002   1.196
 9976TIP3    H129885   6.560   2.053   1.117
 9976TIP3    H229886   6.544   2.056   1.268
 9977TIP3   OH229887   3.368   4.977   3.905
 9977TIP3    H129888   3.426   4.976   3.981
 9977TIP3    H229889   3.421   4.941   3.833
 9978TIP3   OH229890   7.959   4.117   6.708
 9978TIP3    H129891   7.988   4.091   6.621
 9978TIP3    H229892   8.018   4.189   6.733
 9979TIP3   OH229893   1.101   3.422   4.207
 9979TIP3    H129894   1.073   3.509   4.236
 9979TIP3    H229895   1.138   3.437   4.120
 9980TIP3   OH229896   2.490   5.756   5.636
 9980TIP3    H129897   2.449   5.759   5.550
 9980TIP3    H229898   2.419   5.735   5.696
 9981TIP3   OH229899   6.243   3.259   5.794
 9981TIP3    H129900   6.338   3.252   5.791
 9981TIP3    H229901   6.212   3.183   5.746
 9982TIP3   OH229902   7.726   6.724   1.542
 9982TIP3    H129903   7.765   6.794   1.594
 9982TIP3    H229904   7.801   6.675   1.508
 9983TIP3   OH229905   0.256   7.171   2.451
 9983TIP3    H129906   0.337   7.145   2.495
 9983TIP3    H229907   0.235   7.099   2.392
 9984TIP3   OH229908   5.761   4.121   4.439
 9984TIP3    H129909   5.840   4.138   4.491
 9984TIP3    H229910   5.693   4.175   4.480
 9985TIP3   OH229911   3.847   1.363   1.159
 9985TIP3    H129912   3.848   1.450   1.200
 9985TIP3    H229913   3.814   1.305   1.228
 9986TIP3   OH229914   7.795   7.455   1.595
 9986TIP3    H129915   7.737   7.496   1.659
 9986TIP3    H229916   7.738   7.438   1.519
 9987TIP3   OH229917   7.117   5.693   5.955
 9987TIP3    H129918   7.180   5.750   5.910
 9987TIP3    H229919   7.067   5.752   6.011
 9988TIP3   OH229920   5.401   1.928   4.951
 9988TIP3    H129921   5.373   1.836   4.948
 9988TIP3    H229922   5.462   1.936   4.878
 9989TIP3   OH229923   6.789   7.162   5.334
 9989TIP3    H129924   6.808   7.248   5.372
 9989TIP3    H229925   6.719   7.127   5.389
 9990TIP3   OH229926   7.635   0.344   5.947
 9990TIP3    H129927   7.563   0.281   5.952
 9990TIP3    H229928   7.604   0.410   5.885
 9991TIP3   OH229929   2.141   5.323   4.075
 9991TIP3    H129930   2.147   5.233   4.108
 9991TIP3    H229931   2.185   5.375   4.141
 9992TIP3   OH229932   2.744   4.337   3.631
 9992TIP3    H129933   2.663   4.298   3.664
 9992TIP3    H229934   2.785   4.375   3.709
 9993TIP3   OH229935   4.829   0.912   1.826
 9993TIP3    H129936   4.792   0.856   1.758
 9993TIP3    H229937   4.877   0.980   1.779
 9994TIP3   OH229938   1.672   1.455   1.626
 9994TIP3    H129939   1.698   1.427   1.714
 9994TIP3    H229940   1.586   1.494   1.638
 9995TIP3   OH229941   4.901   3.124   3.765
 9995TIP3    H129942   4.960   3.112   3.691
 9995TIP3    H229943   4.838   3.053   3.757
 9996TIP3   OH229944   7.266   1.759   4.424
 9996TIP3    H129945   7.292   1.686   4.368
 9996TIP3    H229946   7.186   1.793   4.383
 9997TIP3   OH229947   7.651   0.176   3.235
 9997TIP3    H129948   7.643   0.113   3.163
 9997TIP3    H229949   7.568   0.169   3.282
 9998TIP3   OH229950   2.744   5.237   2.454
 9998TIP3    H129951   2.696   5.319   2.447
 9998TIP3    H229952   2.828   5.261   2.493
 9999TIP3   OH229953   6.851   3.921   3.735
 9999TIP3    H129954   6.877   3.848   3.680
 9999TIP3    H229955   6.757   3.930   3.721
10000TIP3   OH229956   0.969   3.876   2.336
10000TIP3    H129957   0.990   3.923   2.417
10000TIP3    H229958   0.922   3.798   2.366
10001TIP3   OH229959   3.585   6.629   1.692
10001TIP3    H129960   3.579   6.671   1.778
10001TIP3    H229961   3.563   6.698   1.630
10002TIP3   OH229962   5.638   7.089   0.097
10002TIP3    H129963   5.571   7.135   0.148
10002TIP3    H229964   5.605   7.089   0.008
10003TIP3   OH229965   6.457   5.037   1.122
10003TIP3    H129966   6.468   5.131   1.132
10003TIP3    H229967   6.388   5.028   1.056
10004TIP3   OH229968   7.900   0.041   4.612
10004TIP3    H129969   7.878   0.134   4.616
10004TIP3    H229970   7.821  -0.002   4.582
10005TIP3   OH229971   6.051   4.283   5.179
10005TIP3    H129972   6.133   4.271   5.130
10005TIP3    H229973   6.076   4.334   5.256
10006TIP3   OH229974   5.983   1.376   1.809
10006TIP3    H129975   6.003   1.423   1.728
10006TIP3    H229976   6.066   1.371   1.856
10007TIP3   OH229977   1.812   1.484   4.920
10007TIP3    H129978   1.853   1.403   4.891
10007TIP3    H229979   1.885   1.542   4.940
10008TIP3   OH229980   2.478   1.248   0.762
10008TIP3    H129981   2.495   1.158   0.790
10008TIP3    H229982   2.391   1.268   0.796
10009TIP3   OH229983   5.636   3.371   3.387
10009TIP3    H129984   5.606   3.440   3.446
10009TIP3    H229985   5.575   3.375   3.313
10010TIP3   OH229986   5.857   7.222   2.260
10010TIP3    H129987   5.932   7.179   2.217
10010TIP3    H229988   5.816   7.152   2.311
10011TIP3   OH229989   8.255   5.090   3.795
10011TIP3    H129990   8.232   5.182   3.810
10011TIP3    H229991   8.339   5.079   3.840
10012TIP3   OH229992   4.642   6.627   3.599
10012TIP3    H129993   4.644   6.537   3.568
10012TIP3    H229994   4.733   6.657   3.592
10013TIP3   OH229995   5.303   7.788   1.599
10013TIP3    H129996   5.367   7.738   1.549
10013TIP3    H229997   5.318   7.762   1.690
10014TIP3   OH229998   5.856   4.513   2.544
10014TIP3    H129999   5.872   4.580   2.611
10014TIP3    H230000   5.903   4.544   2.467
10015TIP3   OH230001   1.373   4.610   0.681
10015TIP3    H130002   1.308   4.582   0.745
10015TIP3    H230003   1.323   4.624   0.600
10016TIP3   OH230004   5.909   2.067   6.314
10016TIP3    H130005   5.853   1.990   6.304
10016TIP3    H230006   5.937   2.065   6.405
10017TIP3   OH230007   2.496   4.464   4.496
10017TIP3    H130008   2.417   4.420   4.528
10017TIP3    H230009   2.540   4.494   4.575
10018TIP3   OH230010   0.610   2.342   4.786
10018TIP3    H130011   0.648   2.261   4.821
10018TIP3    H230012   0.536   2.361   4.843
10019TIP3   OH230013   5.711   3.746   5.926
10019TIP3    H130014   5.795   3.739   5.972
10019TIP3    H230015   5.665   3.665   5.949
10020TIP3   OH230016   2.052   4.656   6.189
10020TIP3    H130017   2.077   4.626   6.101
10020TIP3    H230018   1.958   4.640   6.193
10021TIP3   OH230019   1.922   7.765   6.600
10021TIP3    H130020   1.890   7.795   6.686
10021TIP3    H230021   1.842   7.748   6.550
10022TIP3   OH230022   5.122   7.510   2.492
10022TIP3    H130023   5.202   7.493   2.442
10022TIP3    H230024   5.117   7.606   2.496
10023TIP3   OH230025   5.086   2.367   2.521
10023TIP3    H130026   5.023   2.417   2.468
10023TIP3    H230027   5.033   2.326   2.589
10024TIP3   OH230028   6.213   6.743   3.398
10024TIP3    H130029   6.236   6.774   3.486
10024TIP3    H230030   6.153   6.670   3.414
10025TIP3   OH230031   1.869   0.594   4.522
10025TIP3    H130032   1.809   0.545   4.579
10025TIP3    H230033   1.908   0.527   4.466
10026TIP3   OH230034   0.187   3.126   5.422
10026TIP3    H130035   0.261   3.104   5.479
10026TIP3    H230036   0.214   3.207   5.378
10027TIP3   OH230037   7.954   4.404   5.691
10027TIP3    H130038   8.018   4.470   5.715
10027TIP3    H230039   7.983   4.371   5.606
10028TIP3   OH230040   0.737   0.496   3.488
10028TIP3    H130041   0.748   0.542   3.570
10028TIP3    H230042   0.780   0.551   3.423
10029TIP3   OH230043   7.637   7.780   1.307
10029TIP3    H130044   7.615   7.856   1.252
10029TIP3    H230045   7.585   7.708   1.270
10030TIP3   OH230046   5.952   0.504   0.408
10030TIP3    H130047   5.981   0.520   0.498
10030TIP3    H230048   5.924   0.590   0.377
10031TIP3   OH230049   1.916   2.691   1.830
10031TIP3    H130050   1.940   2.617   1.885
10031TIP3    H230051   1.972   2.762   1.859
10032TIP3   OH230052   4.192   1.871   6.749
10032TIP3    H130053   4.252   1.928   6.797
10032TIP3    H230054   4.197   1.902   6.658
10033TIP3   OH230055   1.139   1.131   4.388
10033TIP3    H130056   1.056   1.164   4.354
10033TIP3    H230057   1.114   1.074   4.461
10034TIP3   OH230058   3.989   1.333   5.558
10034TIP3    H130059   4.046   1.263   5.588
10034TIP3    H230060   3.921   1.340   5.626
10035TIP3   OH230061   0.593   6.005   2.849
10035TIP3    H130062   0.672   6.030   2.896
10035TIP3    H230063   0.548   5.944   2.908
10036TIP3   OH230064   3.425   5.151   6.022
10036TIP3    H130065   3.363   5.167   6.094
10036TIP3    H230066   3.391   5.204   5.950
10037TIP3   OH230067   4.407   6.409   4.467
10037TIP3    H130068   4.349   6.380   4.537
10037TIP3    H230069   4.397   6.343   4.398
10038TIP3   OH230070   5.622   4.422   3.957
10038TIP3    H130071   5.607   4.329   3.972
10038TIP3    H230072   5.686   4.447   4.023
10039TIP3   OH230073   7.071   0.822   3.583
10039TIP3    H130074   7.137   0.769   3.537
10039TIP3    H230075   7.088   0.911   3.553
10040TIP3   OH230076   4.799   5.179   1.462
10040TIP3    H130077   4.787   5.257   1.516
10040TIP3    H230078   4.711   5.156   1.433
10041TIP3   OH230079   6.334   1.981   6.592
10041TIP3    H130080   6.424   2.010   6.609
10041TIP3    H230081   6.317   1.916   6.660
10042TIP3   OH230082   6.371   3.414   4.456
10042TIP3    H130083   6.287   3.460   4.457
10042TIP3    H230084   6.361   3.349   4.387
10043TIP3   OH230085   1.738   0.194   0.538
10043TIP3    H130086   1.793   0.267   0.513
10043TIP3    H230087   1.659   0.234   0.576
10044TIP3   OH230088   4.599   1.641   4.051
10044TIP3    H130089   4.578   1.712   4.112
10044TIP3    H230090   4.515   1.601   4.030
10045TIP3   OH230091   2.666   2.837   4.806
10045TIP3    H130092   2.671   2.742   4.796
10045TIP3    H230093   2.574   2.853   4.827
10046TIP3   OH230094   1.705   4.332   6.654
10046TIP3    H130095   1.616   4.297   6.653
10046TIP3    H230096   1.698   4.414   6.703
10047TIP3   OH230097   0.306   4.911   5.676
10047TIP3    H130098   0.211   4.901   5.687
10047TIP3    H230099   0.334   4.962   5.751
10048TIP3   OH230100   4.771   1.764   4.828
10048TIP3    H130101   4.801   1.727   4.745
10048TIP3    H230102   4.817   1.847   4.836
10049TIP3   OH230103   7.973   6.341   5.811
10049TIP3    H130104   7.963   6.258   5.858
10049TIP3    H230105   8.067   6.352   5.800
10050TIP3   OH230106   5.325   5.609   3.259
10050TIP3    H130107   5.340   5.547   3.188
10050TIP3    H230108   5.243   5.653   3.237
10051TIP3   OH230109   5.139   4.606   6.528
10051TIP3    H130110   5.076   4.598   6.600
10051TIP3    H230111   5.224   4.611   6.571
10052TIP3   OH230112   0.996   3.052   0.923
10052TIP3    H130113   0.965   3.135   0.886
10052TIP3    H230114   1.091   3.061   0.925
10053TIP3   OH230115   1.535   2.064   0.771
10053TIP3    H130116   1.447   2.044   0.739
10053TIP3    H230117   1.533   2.037   0.863
10054TIP3   OH230118   7.879   4.473   3.987
10054TIP3    H130119   7.801   4.420   4.003
10054TIP3    H230120   7.845   4.562   3.974
10055TIP3   OH230121   8.061   1.746   3.136
10055TIP3    H130122   8.131   1.810   3.129
10055TIP3    H230123   8.070   1.693   3.056
10056TIP3   OH230124   6.904   7.751   3.794
10056TIP3    H130125   6.861   7.703   3.865
10056TIP3    H230126   6.945   7.826   3.836
10057TIP3   OH230127   0.138   6.999   2.610
10057TIP3    H130128   0.055   6.952   2.618
10057TIP3    H230129   0.117   7.079   2.561
10058TIP3   OH230130   7.687   1.534   3.257
10058TIP3    H130131   7.633   1.486   3.195
10058TIP3    H230132   7.700   1.472   3.329
10059TIP3   OH230133   5.477   5.995   2.288
10059TIP3    H130134   5.571   5.991   2.306
10059TIP3    H230135   5.436   5.995   2.374
10060TIP3   OH230136   0.195   6.521   6.292
10060TIP3    H130137   0.116   6.576   6.291
10060TIP3    H230138   0.205   6.492   6.201
10061TIP3   OH230139   7.812   4.228   5.884
10061TIP3    H130140   7.836   4.301   5.827
10061TIP3    H230141   7.794   4.156   5.824
10062TIP3   OH230142   6.088   3.975   2.438
10062TIP3    H130143   6.150   3.937   2.501
10062TIP3    H230144   6.136   4.048   2.399
10063TIP3   OH230145   8.081   5.512   5.261
10063TIP3    H130146   7.998   5.544   5.297
10063TIP3    H230147   8.063   5.421   5.237
10064TIP3   OH230148   5.772   4.379   6.644
10064TIP3    H130149   5.764   4.461   6.692
10064TIP3    H230150   5.860   4.382   6.606
10065TIP3   OH230151   0.631   1.987   3.142
10065TIP3    H130152   0.604   1.911   3.091
10065TIP3    H230153   0.564   2.052   3.126
10066TIP3   OH230154   4.155   4.869   1.088
10066TIP3    H130155   4.184   4.882   0.998
10066TIP3    H230156   4.184   4.781   1.110
10067TIP3   OH230157   0.585   7.422   4.211
10067TIP3    H130158   0.645   7.362   4.256
10067TIP3    H230159   0.523   7.365   4.166
10068TIP3   OH230160   7.690   7.552   6.314
10068TIP3    H130161   7.633   7.583   6.384
10068TIP3    H230162   7.641   7.571   6.234
10069TIP3   OH230163   4.253   2.961   0.336
10069TIP3    H130164   4.338   2.924   0.362
10069TIP3    H230165   4.205   2.887   0.299
10070TIP3   OH230166   5.128   1.834   2.839
10070TIP3    H130167   5.155   1.840   2.747
10070TIP3    H230168   5.067   1.908   2.850
10071TIP3   OH230169   1.789   5.872   3.549
10071TIP3    H130170   1.756   5.782   3.552
10071TIP3    H230171   1.730   5.918   3.490
10072TIP3   OH230172   3.003   6.569   1.802
10072TIP3    H130173   3.025   6.621   1.880
10072TIP3    H230174   3.054   6.608   1.732
10073TIP3   OH230175   7.412   0.877   5.963
10073TIP3    H130176   7.369   0.934   6.027
10073TIP3    H230177   7.356   0.800   5.957
10074TIP3   OH230178   0.997   3.152   4.186
10074TIP3    H130179   1.057   3.227   4.190
10074TIP3    H230180   1.054   3.076   4.182
10075TIP3   OH230181   7.327   2.653   4.916
10075TIP3    H130182   7.348   2.611   4.999
10075TIP3    H230183   7.233   2.671   4.921
10076TIP3   OH230184   0.267   4.348   1.027
10076TIP3    H130185   0.194   4.298   1.063
10076TIP3    H230186   0.320   4.283   0.981
10077TIP3   OH230187   3.565   7.739   4.171
10077TIP3    H130188   3.504   7.686   4.120
10077TIP3    H230189   3.536   7.727   4.262
10078TIP3   OH230190   7.674   7.175   1.216
10078TIP3    H130191   7.698   7.237   1.147
10078TIP3    H230192   7.592   7.136   1.186
10079TIP3   OH230193   1.517   4.778   0.324
10079TIP3    H130194   1.427   4.794   0.296
10079TIP3    H230195   1.510   4.716   0.396
10080TIP3   OH230196   1.723   5.378   5.112
10080TIP3    H130197   1.810   5.340   5.118
10080TIP3    H230198   1.673   5.316   5.058
10081TIP3   OH230199   3.066   7.411   2.789
10081TIP3    H130200   3.054   7.318   2.807
10081TIP3    H230201   2.995   7.454   2.837
10082TIP3   OH230202   1.309   7.357   6.571
10082TIP3    H130203   1.217   7.382   6.586
10082TIP3    H230204   1.359   7.419   6.624
10083TIP3   OH230205   5.263   3.160   2.788
10083TIP3    H130206   5.170   3.177   2.771
10083TIP3    H230207   5.308   3.236   2.751
10084TIP3   OH230208   7.473   1.345   6.330
10084TIP3    H130209   7.539   1.414   6.325
10084TIP3    H230210   7.475   1.317   6.422
10085TIP3   OH230211   5.037   2.810   6.675
10085TIP3    H130212   5.098   2.740   6.651
10085TIP3    H230213   4.979   2.770   6.740
10086TIP3   OH230214   6.311   4.011   2.834
10086TIP3    H130215   6.349   4.090   2.795
10086TIP3    H230216   6.275   3.962   2.760
10087TIP3   OH230217   7.848   0.779   4.496
10087TIP3    H130218   7.813   0.828   4.421
10087TIP3    H230219   7.778   0.720   4.521
10088TIP3   OH230220   3.014   1.780   2.707
10088TIP3    H130221   3.107   1.790   2.726
10088TIP3    H230222   2.998   1.837   2.632
10089TIP3   OH230223   1.966   5.014   0.727
10089TIP3    H130224   2.008   4.936   0.764
10089TIP3    H230225   1.953   4.993   0.635
10090TIP3   OH230226   7.309   2.011   6.027
10090TIP3    H130227   7.400   2.034   6.047
10090TIP3    H230228   7.258   2.049   6.099
10091TIP3   OH230229   2.352   3.624   5.332
10091TIP3    H130230   2.350   3.685   5.258
10091TIP3    H230231   2.345   3.681   5.409
10092TIP3   OH230232   0.543   5.438   2.070
10092TIP3    H130233   0.458   5.449   2.112
10092TIP3    H230234   0.558   5.520   2.023
10093TIP3   OH230235   2.968   1.703   5.036
10093TIP3    H130236   3.003   1.790   5.051
10093TIP3    H230237   3.005   1.676   4.952
10094TIP3   OH230238   1.129   1.808   1.663
10094TIP3    H130239   1.043   1.798   1.704
10094TIP3    H230240   1.169   1.882   1.709
10095TIP3   OH230241   2.469   2.857   1.793
10095TIP3    H130242   2.379   2.859   1.761
10095TIP3    H230243   2.504   2.774   1.761
10096TIP3   OH230244   4.124   5.752   1.618
10096TIP3    H130245   4.093   5.839   1.597
10096TIP3    H230246   4.185   5.765   1.691
10097TIP3   OH230247   4.103   2.401   2.168
10097TIP3    H130248   4.081   2.440   2.253
10097TIP3    H230249   4.050   2.451   2.105
10098TIP3   OH230250   2.468   0.795   3.648
10098TIP3    H130251   2.416   0.728   3.603
10098TIP3    H230252   2.491   0.755   3.732
10099TIP3   OH230253   0.859   1.962   3.427
10099TIP3    H130254   0.908   2.029   3.473
10099TIP3    H230255   0.891   1.879   3.464
10100TIP3   OH230256   7.863   6.006   1.099
10100TIP3    H130257   7.880   5.925   1.147
10100TIP3    H230258   7.818   6.063   1.161
10101TIP3   OH230259   0.512   5.255   3.232
10101TIP3    H130260   0.565   5.177   3.249
10101TIP3    H230261   0.510   5.263   3.137
10102TIP3   OH230262   3.432   3.431   0.241
10102TIP3    H130263   3.337   3.423   0.256
10102TIP3    H230264   3.443   3.419   0.147
10103TIP3   OH230265   3.754   3.384   5.785
10103TIP3    H130266   3.716   3.309   5.740
10103TIP3    H230267   3.847   3.363   5.794
10104TIP3   OH230268   2.981   7.348   2.501
10104TIP3    H130269   3.022   7.373   2.418
10104TIP3    H230270   2.900   7.399   2.504
10105TIP3   OH230271   1.586   2.027   1.032
10105TIP3    H130272   1.619   2.103   1.079
10105TIP3    H230273   1.521   1.989   1.091
10106TIP3   OH230274   1.710   3.423   5.745
10106TIP3    H130275   1.657   3.386   5.675
10106TIP3    H230276   1.791   3.450   5.702
10107TIP3   OH230277   7.106   4.054   6.717
10107TIP3    H130278   7.163   3.994   6.767
10107TIP3    H230279   7.021   4.047   6.760
10108TIP3   OH230280   6.947   2.706   1.496
10108TIP3    H130281   7.022   2.713   1.555
10108TIP3    H230282   6.972   2.758   1.420
10109TIP3   OH230283   0.079   0.966   5.329
10109TIP3    H130284   0.054   1.059   5.330
10109TIP3    H230285   0.040   0.932   5.249
10110TIP3   OH230286   2.082   1.011   0.286
10110TIP3    H130287   2.087   0.960   0.367
10110TIP3    H230288   2.045   0.951   0.221
10111TIP3   OH230289   3.823   4.231   0.597
10111TIP3    H130290   3.746   4.215   0.543
10111TIP3    H230291   3.788   4.256   0.682
10112TIP3   OH230292   5.853   3.213   0.535
10112TIP3    H130293   5.916   3.155   0.490
10112TIP3    H230294   5.783   3.154   0.563
10113TIP3   OH230295   5.834   7.246   1.523
10113TIP3    H130296   5.797   7.167   1.483
10113TIP3    H230297   5.853   7.221   1.613
10114TIP3   OH230298   3.703   2.418   0.730
10114TIP3    H130299   3.728   2.413   0.822
10114TIP3    H230300   3.709   2.511   0.709
10115TIP3   OH230301   7.671   6.172   3.441
10115TIP3    H130302   7.602   6.160   3.375
10115TIP3    H230303   7.722   6.246   3.408
10116TIP3   OH230304   2.191   6.098   6.046
10116TIP3    H130305   2.286   6.082   6.044
10116TIP3    H230306   2.155   6.021   6.090
10117TIP3   OH230307   3.486   3.768   5.053
10117TIP3    H130308   3.522   3.857   5.048
10117TIP3    H230309   3.403   3.779   5.099
10118TIP3   OH230310   2.492   4.836   3.497
10118TIP3    H130311   2.451   4.831   3.583
10118TIP3    H230312   2.432   4.791   3.438
10119TIP3   OH230313   0.765   0.826   2.425
10119TIP3    H130314   0.705   0.785   2.364
10119TIP3    H230315   0.852   0.811   2.388
10120TIP3   OH230316   5.451   4.401   2.388
10120TIP3    H130317   5.490   4.316   2.367
10120TIP3    H230318   5.487   4.424   2.474
10121TIP3   OH230319   5.907   1.928   6.639
10121TIP3    H130320   5.903   1.918   6.734
10121TIP3    H230321   5.951   2.012   6.626
10122TIP3   OH230322   3.903   0.493   2.819
10122TIP3    H130323   3.898   0.497   2.915
10122TIP3    H230324   3.976   0.434   2.802
10123TIP3   OH230325   5.157   0.124   5.767
10123TIP3    H130326   5.245   0.087   5.761
10123TIP3    H230327   5.131   0.110   5.858
10124TIP3   OH230328   6.537   4.998   6.581
10124TIP3    H130329   6.627   4.967   6.592
10124TIP3    H230330   6.485   4.918   6.572
10125TIP3   OH230331   4.040   4.634   0.576
10125TIP3    H130332   3.962   4.659   0.527
10125TIP3    H230333   4.072   4.556   0.531
10126TIP3   OH230334   4.807   1.092   4.363
10126TIP3    H130335   4.778   1.177   4.397
10126TIP3    H230336   4.901   1.103   4.349
10127TIP3   OH230337   3.913   4.154   2.700
10127TIP3    H130338   3.957   4.076   2.733
10127TIP3    H230339   3.965   4.227   2.733
10128TIP3   OH230340   0.706   5.007   2.241
10128TIP3    H130341   0.639   4.949   2.279
10128TIP3    H230342   0.782   4.995   2.296
10129TIP3   OH230343   6.508   6.022   0.822
10129TIP3    H130344   6.481   6.113   0.817
10129TIP3    H230345   6.571   6.011   0.751
10130TIP3   OH230346   1.986   2.892   1.537
10130TIP3    H130347   2.003   2.820   1.476
10130TIP3    H230348   1.898   2.875   1.571
10131TIP3   OH230349   1.389   5.405   5.904
10131TIP3    H130350   1.327   5.424   5.834
10131TIP3    H230351   1.375   5.473   5.969
10132TIP3   OH230352   5.020   1.839   0.252
10132TIP3    H130353   5.000   1.871   0.165
10132TIP3    H230354   5.114   1.854   0.263
10133TIP3   OH230355   0.209   2.099   0.805
10133TIP3    H130356   0.250   2.014   0.818
10133TIP3    H230357   0.261   2.160   0.858
10134TIP3   OH230358   8.159   1.146   0.734
10134TIP3    H130359   8.107   1.222   0.705
10134TIP3    H230360   8.247   1.164   0.700
10135TIP3   OH230361   4.933   4.036   4.463
10135TIP3    H130362   4.951   4.038   4.369
10135TIP3    H230363   5.018   4.015   4.503
10136TIP3   OH230364   7.486   0.764   1.502
10136TIP3    H130365   7.451   0.846   1.468
10136TIP3    H230366   7.449   0.696   1.445
10137TIP3   OH230367   6.062   3.326   3.991
10137TIP3    H130368   6.121   3.314   3.917
10137TIP3    H230369   6.103   3.276   4.062
10138TIP3   OH230370   5.103   1.447   3.585
10138TIP3    H130371   5.086   1.541   3.587
10138TIP3    H230372   5.147   1.429   3.668
10139TIP3   OH230373   7.710   3.263   1.972
10139TIP3    H130374   7.674   3.239   2.057
10139TIP3    H230375   7.660   3.341   1.946
10140TIP3   OH230376   1.207   3.311   6.110
10140TIP3    H130377   1.215   3.371   6.184
10140TIP3    H230378   1.240   3.228   6.143
10141TIP3   OH230379   5.319   0.373   3.969
10141TIP3    H130380   5.296   0.389   3.878
10141TIP3    H230381   5.389   0.308   3.965
10142TIP3   OH230382   0.225   0.579   6.229
10142TIP3    H130383   0.196   0.604   6.316
10142TIP3    H230384   0.272   0.655   6.196
10143TIP3   OH230385   2.678   4.110   6.597
10143TIP3    H130386   2.739   4.114   6.524
10143TIP3    H230387   2.629   4.192   6.592
10144TIP3   OH230388   5.572   5.547   4.895
10144TIP3    H130389   5.597   5.488   4.967
10144TIP3    H230390   5.640   5.615   4.896
10145TIP3   OH230391   3.910   1.185   3.776
10145TIP3    H130392   3.850   1.217   3.709
10145TIP3    H230393   3.854   1.163   3.850
10146TIP3   OH230394   5.008   5.951   5.861
10146TIP3    H130395   5.082   6.011   5.861
10146TIP3    H230396   4.937   6.001   5.901
10147TIP3   OH230397   1.620   4.093   2.857
10147TIP3    H130398   1.579   4.008   2.838
10147TIP3    H230399   1.674   4.110   2.780
10148TIP3   OH230400   0.155   0.592   5.529
10148TIP3    H130401   0.099   0.616   5.455
10148TIP3    H230402   0.157   0.671   5.584
10149TIP3   OH230403   0.813   5.137   2.028
10149TIP3    H130404   0.758   5.209   1.995
10149TIP3    H230405   0.762   5.098   2.099
10150TIP3   OH230406   7.631   2.327   5.594
10150TIP3    H130407   7.614   2.233   5.590
10150TIP3    H230408   7.544   2.367   5.598
10151TIP3   OH230409   2.205   4.801   2.604
10151TIP3    H130410   2.161   4.842   2.530
10151TIP3    H230411   2.178   4.853   2.680
10152TIP3   OH230412   1.512   6.298   1.475
10152TIP3    H130413   1.507   6.342   1.391
10152TIP3    H230414   1.422   6.303   1.510
10153TIP3   OH230415   0.942   4.671   4.112
10153TIP3    H130416   0.907   4.604   4.053
10153TIP3    H230417   0.874   4.737   4.118
10154TIP3   OH230418   6.098   7.723   2.627
10154TIP3    H130419   6.006   7.708   2.650
10154TIP3    H230420   6.147   7.695   2.705
10155TIP3   OH230421   1.180   0.592   0.068
10155TIP3    H130422   1.190   0.683   0.096
10155TIP3    H230423   1.086   0.582   0.051
10156TIP3   OH230424   3.660   6.478   3.461
10156TIP3    H130425   3.654   6.455   3.368
10156TIP3    H230426   3.753   6.499   3.474
10157TIP3   OH230427   7.744   3.246   0.075
10157TIP3    H130428   7.760   3.331   0.032
10157TIP3    H230429   7.830   3.205   0.079
10158TIP3   OH230430   4.519   5.840   2.465
10158TIP3    H130431   4.592   5.867   2.409
10158TIP3    H230432   4.441   5.866   2.416
10159TIP3   OH230433   6.431   7.765   4.156
10159TIP3    H130434   6.430   7.733   4.066
10159TIP3    H230435   6.497   7.712   4.200
10160TIP3   OH230436   5.468   6.047   0.656
10160TIP3    H130437   5.424   5.978   0.606
10160TIP3    H230438   5.538   6.077   0.598
10161TIP3   OH230439   5.969   5.789   4.526
10161TIP3    H130440   5.917   5.844   4.585
10161TIP3    H230441   6.060   5.812   4.547
10162TIP3   OH230442   0.320   2.030   5.744
10162TIP3    H130443   0.314   2.126   5.741
10162TIP3    H230444   0.365   2.006   5.663
10163TIP3   OH230445   6.624   0.760   5.907
10163TIP3    H130446   6.650   0.842   5.949
10163TIP3    H230447   6.686   0.750   5.835
10164TIP3   OH230448   1.339   0.648   0.662
10164TIP3    H130449   1.315   0.571   0.714
10164TIP3    H230450   1.284   0.718   0.697
10165TIP3   OH230451   2.251   3.829   1.610
10165TIP3    H130452   2.226   3.907   1.559
10165TIP3    H230453   2.330   3.797   1.565
10166TIP3   OH230454   7.660   2.583   2.537
10166TIP3    H130455   7.736   2.591   2.593
10166TIP3    H230456   7.585   2.596   2.595
10167TIP3   OH230457   6.856   4.250   2.406
10167TIP3    H130458   6.834   4.160   2.379
10167TIP3    H230459   6.772   4.288   2.431
10168TIP3   OH230460   5.074   1.363   6.008
10168TIP3    H130461   5.098   1.451   5.978
10168TIP3    H230462   4.989   1.374   6.049
10169TIP3   OH230463   7.023   2.646   2.853
10169TIP3    H130464   6.983   2.671   2.936
10169TIP3    H230465   6.992   2.557   2.837
10170TIP3   OH230466   7.227   3.341   2.552
10170TIP3    H130467   7.216   3.367   2.461
10170TIP3    H230468   7.242   3.246   2.549
10171TIP3   OH230469   3.920   2.550   2.012
10171TIP3    H130470   3.937   2.552   1.918
10171TIP3    H230471   3.827   2.526   2.019
10172TIP3   OH230472   5.815   3.428   1.795
10172TIP3    H130473   5.789   3.458   1.882
10172TIP3    H230474   5.734   3.424   1.745
10173TIP3   OH230475   3.875   6.666   5.362
10173TIP3    H130476   3.848   6.602   5.429
10173TIP3    H230477   3.794   6.710   5.338
10174TIP3   OH230478   0.679   7.444   5.512
10174TIP3    H130479   0.693   7.535   5.484
10174TIP3    H230480   0.692   7.445   5.606
10175TIP3   OH230481   7.929   2.516   6.779
10175TIP3    H130482   7.840   2.520   6.745
10175TIP3    H230483   7.968   2.441   6.734
10176TIP3   OH230484   3.587   5.139   2.647
10176TIP3    H130485   3.668   5.105   2.608
10176TIP3    H230486   3.552   5.199   2.582
10177TIP3   OH230487   5.575   1.958   6.538
10177TIP3    H130488   5.659   1.915   6.524
10177TIP3    H230489   5.511   1.886   6.531
10178TIP3   OH230490   8.004   1.450   3.545
10178TIP3    H130491   7.928   1.471   3.598
10178TIP3    H230492   8.039   1.369   3.583
10179TIP3   OH230493   2.614   7.551   0.935
10179TIP3    H130494   2.545   7.611   0.906
10179TIP3    H230495   2.621   7.487   0.864
10180TIP3   OH230496   4.194   5.791   2.997
10180TIP3    H130497   4.208   5.880   2.965
10180TIP3    H230498   4.279   5.762   3.028
10181TIP3   OH230499   2.855   4.273   6.401
10181TIP3    H130500   2.868   4.351   6.456
10181TIP3    H230501   2.767   4.284   6.364
10182TIP3   OH230502   4.432   5.372   3.405
10182TIP3    H130503   4.376   5.431   3.454
10182TIP3    H230504   4.382   5.291   3.396
10183TIP3   OH230505   2.210   1.603   4.357
10183TIP3    H130506   2.201   1.612   4.262
10183TIP3    H230507   2.280   1.665   4.381
10184TIP3   OH230508   4.437   1.628   5.769
10184TIP3    H130509   4.428   1.546   5.818
10184TIP3    H230510   4.425   1.697   5.835
10185TIP3   OH230511   5.171   1.557   3.119
10185TIP3    H130512   5.229   1.623   3.157
10185TIP3    H230513   5.172   1.485   3.182
10186TIP3   OH230514   1.130   7.562   5.779
10186TIP3    H130515   1.056   7.506   5.757
10186TIP3    H230516   1.171   7.582   5.694
10187TIP3   OH230517   1.149   5.074   0.558
10187TIP3    H130518   1.236   5.033   0.554
10187TIP3    H230519   1.157   5.139   0.628
10188TIP3   OH230520   1.073   1.092   2.437
10188TIP3    H130521   1.154   1.112   2.390
10188TIP3    H230522   1.042   1.010   2.399
10189TIP3   OH230523   2.501   7.583   0.509
10189TIP3    H130524   2.411   7.576   0.476
10189TIP3    H230525   2.555   7.585   0.430
10190TIP3   OH230526   1.606   4.630   2.023
10190TIP3    H130527   1.650   4.573   2.087
10190TIP3    H230528   1.535   4.671   2.072
10191TIP3   OH230529   2.023   2.340   6.101
10191TIP3    H130530   2.006   2.407   6.035
10191TIP3    H230531   1.997   2.258   6.059
10192TIP3   OH230532   8.232   1.132   4.165
10192TIP3    H130533   8.224   1.140   4.070
10192TIP3    H230534   8.320   1.095   4.178
10193TIP3   OH230535   3.859   2.177   0.626
10193TIP3    H130536   3.863   2.117   0.701
10193TIP3    H230537   3.873   2.264   0.664
10194TIP3   OH230538   0.353   4.713   3.742
10194TIP3    H130539   0.390   4.791   3.782
10194TIP3    H230540   0.273   4.696   3.790
10195TIP3   OH230541   2.932   4.163   5.793
10195TIP3    H130542   2.897   4.124   5.873
10195TIP3    H230543   2.886   4.247   5.786
10196TIP3   OH230544   5.934   4.794   5.263
10196TIP3    H130545   5.989   4.724   5.228
10196TIP3    H230546   5.996   4.855   5.304
10197TIP3   OH230547   0.963   2.711   1.502
10197TIP3    H130548   0.872   2.740   1.496
10197TIP3    H230549   1.015   2.788   1.477
10198TIP3   OH230550   5.721   3.152   6.627
10198TIP3    H130551   5.755   3.062   6.627
10198TIP3    H230552   5.626   3.141   6.635
10199TIP3   OH230553   0.135   5.087   1.740
10199TIP3    H130554   0.220   5.082   1.784
10199TIP3    H230555   0.156   5.089   1.647
10200TIP3   OH230556   1.117   3.858   6.717
10200TIP3    H130557   1.094   3.847   6.809
10200TIP3    H230558   1.039   3.831   6.669
10201TIP3   OH230559   4.491   6.692   1.944
10201TIP3    H130560   4.473   6.771   1.994
10201TIP3    H230561   4.527   6.631   2.009
10202TIP3   OH230562   4.903   4.617   1.248
10202TIP3    H130563   4.857   4.681   1.302
10202TIP3    H230564   4.993   4.649   1.244
10203TIP3   OH230565   4.828   2.710   0.685
10203TIP3    H130566   4.778   2.681   0.609
10203TIP3    H230567   4.765   2.708   0.757
10204TIP3   OH230568   3.808   1.404   3.465
10204TIP3    H130569   3.821   1.436   3.376
10204TIP3    H230570   3.713   1.405   3.477
10205TIP3   OH230571   3.057   3.437   3.082
10205TIP3    H130572   2.981   3.461   3.029
10205TIP3    H230573   3.128   3.425   3.018
10206TIP3   OH230574   6.815   0.882   4.265
10206TIP3    H130575   6.762   0.851   4.192
10206TIP3    H230576   6.777   0.841   4.342
10207TIP3   OH230577   4.720   0.876   3.802
10207TIP3    H130578   4.720   0.928   3.722
10207TIP3    H230579   4.813   0.859   3.820
10208TIP3   OH230580   5.519   3.120   1.928
10208TIP3    H130581   5.497   3.032   1.959
10208TIP3    H230582   5.436   3.155   1.895
10209TIP3   OH230583   3.334   1.526   3.098
10209TIP3    H130584   3.353   1.564   3.012
10209TIP3    H230585   3.401   1.459   3.110
10210TIP3   OH230586   0.582   3.117   4.025
10210TIP3    H130587   0.522   3.079   4.089
10210TIP3    H230588   0.664   3.070   4.037
10211TIP3   OH230589   5.175   2.065   1.758
10211TIP3    H130590   5.137   2.153   1.764
10211TIP3    H230591   5.107   2.013   1.715
10212TIP3   OH230592   1.951   3.032   6.050
10212TIP3    H130593   2.015   2.962   6.054
10212TIP3    H230594   1.979   3.094   6.118
10213TIP3   OH230595   1.411   5.675   5.777
10213TIP3    H130596   1.394   5.593   5.731
10213TIP3    H230597   1.325   5.715   5.787
10214TIP3   OH230598   6.848   5.811   0.865
10214TIP3    H130599   6.918   5.746   0.876
10214TIP3    H230600   6.889   5.894   0.892
10215TIP3   OH230601   6.037   4.372   1.987
10215TIP3    H130602   5.963   4.320   2.019
10215TIP3    H230603   6.038   4.357   1.893
10216TIP3   OH230604   3.611   6.889   1.545
10216TIP3    H130605   3.621   6.904   1.639
10216TIP3    H230606   3.520   6.911   1.527
10217TIP3   OH230607   2.111   6.969   1.867
10217TIP3    H130608   2.150   6.888   1.834
10217TIP3    H230609   2.089   6.950   1.958
10218TIP3   OH230610   6.881   2.716   5.457
10218TIP3    H130611   6.848   2.629   5.432
10218TIP3    H230612   6.803   2.771   5.460
10219TIP3   OH230613   0.676   3.473   5.112
10219TIP3    H130614   0.714   3.423   5.040
10219TIP3    H230615   0.749   3.524   5.147
10220TIP3   OH230616   7.963   2.660   2.567
10220TIP3    H130617   7.943   2.753   2.559
10220TIP3    H230618   7.914   2.632   2.645
10221TIP3   OH230619   6.527   5.305   3.192
10221TIP3    H130620   6.567   5.218   3.192
10221TIP3    H230621   6.470   5.305   3.115
10222TIP3   OH230622   7.621   7.347   3.513
10222TIP3    H130623   7.715   7.331   3.515
10222TIP3    H230624   7.587   7.285   3.448
10223TIP3   OH230625   1.474   0.961   0.893
10223TIP3    H130626   1.549   1.020   0.883
10223TIP3    H230627   1.501   0.900   0.961
10224TIP3   OH230628   4.115   6.831   1.304
10224TIP3    H130629   4.185   6.800   1.361
10224TIP3    H230630   4.125   6.926   1.303
10225TIP3   OH230631   6.794   1.112   0.113
10225TIP3    H130632   6.869   1.054   0.118
10225TIP3    H230633   6.722   1.062   0.153
10226TIP3   OH230634   3.314   0.928   4.730
10226TIP3    H130635   3.246   0.989   4.759
10226TIP3    H230636   3.266   0.847   4.710
10227TIP3   OH230637   5.140   0.747   2.507
10227TIP3    H130638   5.216   0.806   2.513
10227TIP3    H230639   5.168   0.668   2.552
10228TIP3   OH230640   6.610   5.315   0.838
10228TIP3    H130641   6.642   5.312   0.748
10228TIP3    H230642   6.530   5.262   0.837
10229TIP3   OH230643   6.668   2.908   5.451
10229TIP3    H130644   6.610   2.975   5.488
10229TIP3    H230645   6.686   2.939   5.362
10230TIP3   OH230646   8.246   4.328   4.378
10230TIP3    H130647   8.163   4.279   4.381
10230TIP3    H230648   8.302   4.284   4.441
10231TIP3   OH230649   6.476   6.308   0.100
10231TIP3    H130650   6.503   6.217   0.115
10231TIP3    H230651   6.413   6.303   0.028
10232TIP3   OH230652   6.673   7.113   4.350
10232TIP3    H130653   6.587   7.137   4.385
10232TIP3    H230654   6.689   7.175   4.279
10233TIP3   OH230655   1.591   5.599   2.975
10233TIP3    H130656   1.565   5.687   3.000
10233TIP3    H230657   1.657   5.611   2.906
10234TIP3   OH230658   0.879   5.369   2.530
10234TIP3    H130659   0.927   5.362   2.612
10234TIP3    H230660   0.947   5.370   2.462
10235TIP3   OH230661   7.477   6.391   1.040
10235TIP3    H130662   7.418   6.466   1.029
10235TIP3    H230663   7.540   6.419   1.107
10236TIP3   OH230664   6.389   2.850   4.920
10236TIP3    H130665   6.468   2.823   4.873
10236TIP3    H230666   6.357   2.770   4.962
10237TIP3   OH230667   4.168   1.498   0.390
10237TIP3    H130668   4.193   1.436   0.458
10237TIP3    H230669   4.073   1.504   0.395
10238TIP3   OH230670   1.244   0.933   4.115
10238TIP3    H130671   1.181   0.973   4.055
10238TIP3    H230672   1.281   1.007   4.164
10239TIP3   OH230673   2.244   5.583   4.150
10239TIP3    H130674   2.205   5.628   4.075
10239TIP3    H230675   2.333   5.617   4.155
10240TIP3   OH230676   2.756   2.439   1.198
10240TIP3    H130677   2.776   2.530   1.216
10240TIP3    H230678   2.751   2.397   1.284
10241TIP3   OH230679   5.823   0.108   1.013
10241TIP3    H130680   5.834   0.062   1.096
10241TIP3    H230681   5.895   0.076   0.958
10242TIP3   OH230682   5.621   6.337   1.266
10242TIP3    H130683   5.693   6.371   1.319
10242TIP3    H230684   5.559   6.410   1.259
10243TIP3   OH230685   7.396   7.563   0.335
10243TIP3    H130686   7.461   7.611   0.285
10243TIP3    H230687   7.354   7.630   0.390
10244TIP3   OH230688   3.384   3.446   6.600
10244TIP3    H130689   3.367   3.352   6.605
10244TIP3    H230690   3.330   3.476   6.526
10245TIP3   OH230691   7.940   1.665   5.067
10245TIP3    H130692   7.979   1.613   4.997
10245TIP3    H230693   8.015   1.694   5.119
10246TIP3   OH230694   2.119   4.867   2.055
10246TIP3    H130695   2.199   4.886   2.105
10246TIP3    H230696   2.062   4.823   2.118
10247TIP3   OH230697   0.069   0.402   0.116
10247TIP3    H130698  -0.023   0.430   0.123
10247TIP3    H230699   0.064   0.307   0.109
10248TIP3   OH230700   6.545   7.322   1.168
10248TIP3    H130701   6.454   7.319   1.141
10248TIP3    H230702   6.588   7.254   1.116
10249TIP3   OH230703   5.759   2.112   3.531
10249TIP3    H130704   5.722   2.093   3.445
10249TIP3    H230705   5.848   2.142   3.513
10250TIP3   OH230706   1.898   7.489   0.679
10250TIP3    H130707   1.850   7.412   0.647
10250TIP3    H230708   1.969   7.452   0.732
10251TIP3   OH230709   4.428   2.715   5.598
10251TIP3    H130710   4.411   2.638   5.544
10251TIP3    H230711   4.378   2.699   5.678
10252TIP3   OH230712   1.039   1.722   0.667
10252TIP3    H130713   1.063   1.749   0.756
10252TIP3    H230714   0.957   1.675   0.678
10253TIP3   OH230715   4.682   0.838   6.222
10253TIP3    H130716   4.655   0.818   6.132
10253TIP3    H230717   4.700   0.932   6.221
10254TIP3   OH230718   2.718   6.382   5.553
10254TIP3    H130719   2.681   6.311   5.501
10254TIP3    H230720   2.657   6.392   5.627
10255TIP3   OH230721   2.719   6.637   3.933
10255TIP3    H130722   2.669   6.695   3.876
10255TIP3    H230723   2.658   6.612   4.002
10256TIP3   OH230724   3.385   2.471   0.320
10256TIP3    H130725   3.326   2.512   0.383
10256TIP3    H230726   3.420   2.394   0.366
10257TIP3   OH230727   2.884   0.199   0.083
10257TIP3    H130728   2.902   0.256   0.158
10257TIP3    H230729   2.970   0.166   0.058
10258TIP3   OH230730   0.077   5.758   4.286
10258TIP3    H130731   0.068   5.668   4.319
10258TIP3    H230732   0.158   5.790   4.326
10259TIP3   OH230733   6.380   7.135   3.549
10259TIP3    H130734   6.307   7.127   3.610
10259TIP3    H230735   6.360   7.214   3.499
10260TIP3   OH230736   5.460   1.107   1.068
10260TIP3    H130737   5.421   1.120   0.982
10260TIP3    H230738   5.451   1.191   1.112
10261TIP3   OH230739   3.207   6.850   5.004
10261TIP3    H130740   3.239   6.888   4.922
10261TIP3    H230741   3.172   6.764   4.979
10262TIP3   OH230742   1.782   6.580   0.156
10262TIP3    H130743   1.792   6.493   0.117
10262TIP3    H230744   1.809   6.569   0.247
10263TIP3   OH230745   1.825   4.955   4.886
10263TIP3    H130746   1.893   5.001   4.837
10263TIP3    H230747   1.754   4.943   4.823
10264TIP3   OH230748   0.261   2.825   4.167
10264TIP3    H130749   0.312   2.753   4.130
10264TIP3    H230750   0.179   2.824   4.117
10265TIP3   OH230751   2.348   7.644   4.640
10265TIP3    H130752   2.378   7.553   4.646
10265TIP3    H230753   2.394   7.690   4.710
10266TIP3   OH230754   5.458   6.419   3.588
10266TIP3    H130755   5.453   6.342   3.531
10266TIP3    H230756   5.520   6.477   3.544
10267TIP3   OH230757   2.206   1.532   3.331
10267TIP3    H130758   2.281   1.542   3.389
10267TIP3    H230759   2.220   1.597   3.262
10268TIP3   OH230760   4.695   1.248   1.881
10268TIP3    H130761   4.784   1.215   1.865
10268TIP3    H230762   4.646   1.171   1.911
10269TIP3   OH230763   4.865   4.320   1.276
10269TIP3    H130764   4.944   4.275   1.305
10269TIP3    H230765   4.897   4.387   1.215
10270TIP3   OH230766   7.864   1.155   0.895
10270TIP3    H130767   7.938   1.179   0.840
10270TIP3    H230768   7.810   1.234   0.899
10271TIP3   OH230769   5.268   4.728   3.252
10271TIP3    H130770   5.244   4.764   3.337
10271TIP3    H230771   5.328   4.793   3.215
10272TIP3   OH230772   4.516   0.256   5.143
10272TIP3    H130773   4.449   0.307   5.189
10272TIP3    H230774   4.574   0.225   5.212
10273TIP3   OH230775   2.796   6.523   2.128
10273TIP3    H130776   2.834   6.455   2.072
10273TIP3    H230777   2.793   6.601   2.072
10274TIP3   OH230778   5.912   4.054   6.344
10274TIP3    H130779   5.985   4.020   6.396
10274TIP3    H230780   5.951   4.124   6.291
10275TIP3   OH230781   4.217   1.164   4.242
10275TIP3    H130782   4.168   1.187   4.163
10275TIP3    H230783   4.258   1.080   4.220
10276TIP3   OH230784   6.563   2.437   4.310
10276TIP3    H130785   6.474   2.448   4.343
10276TIP3    H230786   6.556   2.368   4.244
10277TIP3   OH230787   1.620   1.784   1.621
10277TIP3    H130788   1.610   1.873   1.587
10277TIP3    H230789   1.708   1.782   1.659
10278TIP3   OH230790   4.405   3.372   2.140
10278TIP3    H130791   4.459   3.436   2.093
10278TIP3    H230792   4.380   3.308   2.073
10279TIP3   OH230793   0.178   3.790   0.066
10279TIP3    H130794   0.190   3.706   0.110
10279TIP3    H230795   0.105   3.775   0.005
10280TIP3   OH230796   1.463   6.903   4.462
10280TIP3    H130797   1.422   6.905   4.375
10280TIP3    H230798   1.399   6.943   4.520
10281TIP3   OH230799   3.637   3.960   2.399
10281TIP3    H130800   3.611   4.051   2.418
10281TIP3    H230801   3.723   3.968   2.357
10282TIP3   OH230802   3.207   1.126   2.583
10282TIP3    H130803   3.299   1.140   2.604
10282TIP3    H230804   3.185   1.196   2.522
10283TIP3   OH230805   6.427   6.682   0.368
10283TIP3    H130806   6.346   6.647   0.406
10283TIP3    H230807   6.446   6.760   0.421
10284TIP3   OH230808   3.240   5.950   0.289
10284TIP3    H130809   3.294   5.911   0.357
10284TIP3    H230810   3.156   5.905   0.296
10285TIP3   OH230811   8.011   5.192   0.590
10285TIP3    H130812   7.977   5.278   0.615
10285TIP3    H230813   8.103   5.194   0.616
10286TIP3   OH230814   4.369   2.648   3.346
10286TIP3    H130815   4.368   2.716   3.414
10286TIP3    H230816   4.291   2.595   3.363
10287TIP3   OH230817   4.330   6.897   4.069
10287TIP3    H130818   4.385   6.911   3.992
10287TIP3    H230819   4.285   6.981   4.082
10288TIP3   OH230820   5.570   4.777   6.430
10288TIP3    H130821   5.584   4.690   6.393
10288TIP3    H230822   5.651   4.825   6.411
10289TIP3   OH230823   7.395   5.609   6.204
10289TIP3    H130824   7.328   5.562   6.254
10289TIP3    H230825   7.352   5.691   6.177
10290TIP3   OH230826   3.436   5.871   1.302
10290TIP3    H130827   3.467   5.838   1.386
10290TIP3    H230828   3.351   5.829   1.289
10291TIP3   OH230829   4.552   4.662   3.589
10291TIP3    H130830   4.628   4.626   3.635
10291TIP3    H230831   4.506   4.585   3.555
10292TIP3   OH230832   3.100   5.196   5.501
10292TIP3    H130833   3.020   5.212   5.552
10292TIP3    H230834   3.086   5.111   5.460
10293TIP3   OH230835   7.733   5.737   4.100
10293TIP3    H130836   7.665   5.784   4.050
10293TIP3    H230837   7.744   5.655   4.053
10294TIP3   OH230838   0.531   6.828   6.098
10294TIP3    H130839   0.484   6.879   6.031
10294TIP3    H230840   0.617   6.813   6.060
10295TIP3   OH230841   0.818   3.056   5.848
10295TIP3    H130842   0.818   3.009   5.764
10295TIP3    H230843   0.911   3.059   5.873
10296TIP3   OH230844   0.977   6.333   0.873
10296TIP3    H130845   0.951   6.420   0.842
10296TIP3    H230846   0.936   6.325   0.959
10297TIP3   OH230847   4.994   0.614   1.401
10297TIP3    H130848   5.024   0.536   1.447
10297TIP3    H230849   4.945   0.580   1.326
10298TIP3   OH230850   0.470   3.168   4.844
10298TIP3    H130851   0.428   3.082   4.850
10298TIP3    H230852   0.409   3.220   4.791
10299TIP3   OH230853   2.982   5.620   2.361
10299TIP3    H130854   2.980   5.582   2.273
10299TIP3    H230855   2.892   5.612   2.393
10300TIP3   OH230856   6.306   6.933   4.656
10300TIP3    H130857   6.225   6.885   4.676
10300TIP3    H230858   6.376   6.870   4.674
10301TIP3   OH230859   1.497   2.786   3.571
10301TIP3    H130860   1.590   2.804   3.579
10301TIP3    H230861   1.489   2.691   3.582
10302TIP3   OH230862   2.242   4.373   0.318
10302TIP3    H130863   2.252   4.388   0.412
10302TIP3    H230864   2.308   4.308   0.297
10303TIP3   OH230865   4.337   3.374   1.607
10303TIP3    H130866   4.418   3.381   1.658
10303TIP3    H230867   4.360   3.318   1.533
10304TIP3   OH230868   2.529   6.665   3.297
10304TIP3    H130869   2.576   6.582   3.300
10304TIP3    H230870   2.539   6.701   3.385
10305TIP3   OH230871   2.005   1.056   5.217
10305TIP3    H130872   2.065   1.038   5.290
10305TIP3    H230873   1.930   1.097   5.258
10306TIP3   OH230874   2.778   7.136   3.064
10306TIP3    H130875   2.719   7.132   2.988
10306TIP3    H230876   2.736   7.080   3.129
10307TIP3   OH230877   0.846   0.876   3.130
10307TIP3    H130878   0.821   0.950   3.076
10307TIP3    H230879   0.923   0.840   3.087
10308TIP3   OH230880   5.755   4.667   3.803
10308TIP3    H130881   5.727   4.581   3.835
10308TIP3    H230882   5.705   4.680   3.722
10309TIP3   OH230883   3.532   7.387   6.541
10309TIP3    H130884   3.624   7.360   6.533
10309TIP3    H230885   3.526   7.468   6.491
10310TIP3   OH230886   2.215   2.506   6.272
10310TIP3    H130887   2.162   2.460   6.207
10310TIP3    H230888   2.155   2.569   6.312
10311TIP3   OH230889   2.076   6.673   4.716
10311TIP3    H130890   2.034   6.753   4.686
10311TIP3    H230891   2.004   6.619   4.750
10312TIP3   OH230892   7.546   0.926   2.643
10312TIP3    H130893   7.473   0.908   2.702
10312TIP3    H230894   7.606   0.980   2.696
10313TIP3   OH230895   0.799   7.023   5.358
10313TIP3    H130896   0.780   7.055   5.446
10313TIP3    H230897   0.724   6.966   5.337
10314TIP3   OH230898   0.902   7.451   5.121
10314TIP3    H130899   0.897   7.498   5.204
10314TIP3    H230900   0.882   7.360   5.145
10315TIP3   OH230901   4.256   1.673   5.142
10315TIP3    H130902   4.322   1.691   5.076
10315TIP3    H230903   4.206   1.754   5.149
10316TIP3   OH230904   4.652   4.291   3.938
10316TIP3    H130905   4.586   4.222   3.944
10316TIP3    H230906   4.709   4.276   4.014
10317TIP3   OH230907   7.690   5.327   2.547
10317TIP3    H130908   7.781   5.303   2.529
10317TIP3    H230909   7.638   5.265   2.496
10318TIP3   OH230910   7.875   2.410   5.576
10318TIP3    H130911   7.786   2.379   5.595
10318TIP3    H230912   7.919   2.336   5.536
10319TIP3   OH230913   4.218   5.827   5.385
10319TIP3    H130914   4.298   5.783   5.413
10319TIP3    H230915   4.206   5.798   5.294
10320TIP3   OH230916   2.830   4.973   2.407
10320TIP3    H130917   2.813   5.065   2.424
10320TIP3    H230918   2.922   4.969   2.383
10321TIP3   OH230919   8.212   5.963   3.097
10321TIP3    H130920   8.290   5.993   3.050
10321TIP3    H230921   8.139   5.993   3.043
10322TIP3   OH230922   8.285   2.183   3.458
10322TIP3    H130923   8.228   2.257   3.480
10322TIP3    H230924   8.248   2.109   3.507
10323TIP3   OH230925   3.304   6.179   3.503
10323TIP3    H130926   3.323   6.229   3.424
10323TIP3    H230927   3.340   6.232   3.575
10324TIP3   OH230928   8.140   1.642   3.876
10324TIP3    H130929   8.157   1.652   3.970
10324TIP3    H230930   8.112   1.552   3.866
10325TIP3   OH230931   2.594   7.332   2.715
10325TIP3    H130932   2.546   7.307   2.636
10325TIP3    H230933   2.634   7.251   2.745
10326TIP3   OH230934   2.657   6.014   6.572
10326TIP3    H130935   2.684   6.083   6.633
10326TIP3    H230936   2.566   5.996   6.595
10327TIP3   OH230937   5.929   0.482   3.600
10327TIP3    H130938   6.019   0.513   3.603
10327TIP3    H230939   5.879   0.555   3.564
10328TIP3   OH230940   3.618   6.994   6.217
10328TIP3    H130941   3.700   6.957   6.185
10328TIP3    H230942   3.628   7.089   6.206
10329TIP3   OH230943   0.299   7.256   5.910
10329TIP3    H130944   0.317   7.335   5.960
10329TIP3    H230945   0.307   7.283   5.818
10330TIP3   OH230946   0.178   6.512   4.789
10330TIP3    H130947   0.139   6.505   4.876
10330TIP3    H230948   0.106   6.542   4.733
10331TIP3   OH230949   7.276   5.831   5.508
10331TIP3    H130950   7.274   5.912   5.456
10331TIP3    H230951   7.196   5.835   5.561
10332TIP3   OH230952   3.379   2.524   3.462
10332TIP3    H130953   3.430   2.444   3.466
10332TIP3    H230954   3.315   2.508   3.392
10333TIP3   OH230955   1.526   6.434   1.247
10333TIP3    H130956   1.473   6.511   1.268
10333TIP3    H230957   1.573   6.458   1.167
10334TIP3   OH230958   4.074   6.530   3.821
10334TIP3    H130959   4.165   6.560   3.821
10334TIP3    H230960   4.023   6.608   3.844
10335TIP3   OH230961   1.102   2.129   2.405
10335TIP3    H130962   1.172   2.183   2.442
10335TIP3    H230963   1.071   2.075   2.477
10336TIP3   OH230964   7.485   7.331   3.750
10336TIP3    H130965   7.517   7.242   3.764
10336TIP3    H230966   7.523   7.358   3.667
10337TIP3   OH230967   1.677   7.291   3.413
10337TIP3    H130968   1.587   7.260   3.401
10337TIP3    H230969   1.667   7.384   3.434
10338TIP3   OH230970   3.284   3.166   6.631
10338TIP3    H130971   3.234   3.228   6.684
10338TIP3    H230972   3.278   3.084   6.680
10339TIP3   OH230973   0.786   0.621   1.224
10339TIP3    H130974   0.749   0.592   1.307
10339TIP3    H230975   0.811   0.540   1.179
10340TIP3   OH230976   7.184   0.256   4.106
10340TIP3    H130977   7.193   0.163   4.126
10340TIP3    H230978   7.262   0.278   4.055
10341TIP3   OH230979   1.483   2.373   4.331
10341TIP3    H130980   1.509   2.362   4.422
10341TIP3    H230981   1.559   2.344   4.280
10342TIP3   OH230982   4.223   4.427   3.294
10342TIP3    H130983   4.190   4.511   3.260
10342TIP3    H230984   4.148   4.368   3.288
10343TIP3   OH230985   4.174   5.862   1.117
10343TIP3    H130986   4.132   5.868   1.203
10343TIP3    H230987   4.119   5.915   1.060
10344TIP3   OH230988   4.255   3.738   6.048
10344TIP3    H130989   4.278   3.646   6.040
10344TIP3    H230990   4.264   3.757   6.142
10345TIP3   OH230991   4.970   5.183   4.137
10345TIP3    H130992   5.025   5.159   4.063
10345TIP3    H230993   4.885   5.202   4.099
10346TIP3   OH230994   7.312   0.964   5.546
10346TIP3    H130995   7.279   0.919   5.468
10346TIP3    H230996   7.367   1.034   5.512
10347TIP3   OH230997   5.960   4.060   4.081
10347TIP3    H130998   6.055   4.066   4.090
10347TIP3    H230999   5.935   4.141   4.038
10348TIP3   OH231000   3.602   7.043   5.527
10348TIP3    H131001   3.623   6.956   5.561
10348TIP3    H231002   3.512   7.060   5.556
10349TIP3   OH231003   2.094   3.768   6.144
10349TIP3    H131004   2.006   3.791   6.117
10349TIP3    H231005   2.151   3.802   6.075
10350TIP3   OH231006   4.855   4.600   0.353
10350TIP3    H131007   4.896   4.513   0.355
10350TIP3    H231008   4.907   4.652   0.414
10351TIP3   OH231009   5.766   1.767   1.760
10351TIP3    H131010   5.819   1.844   1.782
10351TIP3    H231011   5.723   1.791   1.678
10352TIP3   OH231012   8.142   1.817   0.712
10352TIP3    H131013   8.194   1.737   0.709
10352TIP3    H231014   8.074   1.804   0.646
10353TIP3   OH231015   5.168   3.267   4.782
10353TIP3    H131016   5.228   3.342   4.777
10353TIP3    H231017   5.083   3.303   4.757
10354TIP3   OH231018   3.166   1.274   2.071
10354TIP3    H131019   3.178   1.367   2.091
10354TIP3    H231020   3.141   1.272   1.979
10355TIP3   OH231021   7.857   0.326   4.664
10355TIP3    H131022   7.829   0.354   4.577
10355TIP3    H231023   7.846   0.404   4.719
10356TIP3   OH231024   7.651   7.643   2.763
10356TIP3    H131025   7.714   7.657   2.834
10356TIP3    H231026   7.625   7.551   2.772
10357TIP3   OH231027   2.827   7.071   0.014
10357TIP3    H131028   2.861   7.000   0.068
10357TIP3    H231029   2.783   7.028  -0.059
10358TIP3   OH231030   3.039   3.399   2.424
10358TIP3    H131031   2.956   3.354   2.410
10358TIP3    H231032   3.097   3.362   2.357
10359TIP3   OH231033   4.994   5.900   6.544
10359TIP3    H131034   5.004   5.810   6.513
10359TIP3    H231035   4.906   5.925   6.516
10360TIP3   OH231036   7.724   7.342   2.106
10360TIP3    H131037   7.752   7.279   2.039
10360TIP3    H231038   7.796   7.403   2.113
10361TIP3   OH231039   6.864   4.931   2.161
10361TIP3    H131040   6.858   4.870   2.088
10361TIP3    H231041   6.799   4.900   2.224
10362TIP3   OH231042   4.007   0.767   1.246
10362TIP3    H131043   3.981   0.840   1.301
10362TIP3    H231044   4.032   0.807   1.163
10363TIP3   OH231045   2.185   5.997   0.405
10363TIP3    H131046   2.140   6.002   0.320
10363TIP3    H231047   2.210   5.905   0.414
10364TIP3   OH231048   6.122   1.311   0.314
10364TIP3    H131049   6.161   1.308   0.402
10364TIP3    H231050   6.168   1.243   0.266
10365TIP3   OH231051   5.468   0.423   5.105
10365TIP3    H131052   5.430   0.498   5.061
10365TIP3    H231053   5.487   0.454   5.194
10366TIP3   OH231054   1.500   7.701   2.723
10366TIP3    H131055   1.507   7.767   2.792
10366TIP3    H231056   1.582   7.651   2.729
10367TIP3   OH231057   3.823   5.123   6.195
10367TIP3    H131058   3.752   5.094   6.137
10367TIP3    H231059   3.821   5.061   6.268
10368TIP3   OH231060   4.153   3.851   3.528
10368TIP3    H131061   4.171   3.889   3.614
10368TIP3    H231062   4.057   3.847   3.524
10369TIP3   OH231063   3.594   4.046   3.026
10369TIP3    H131064   3.591   4.070   3.118
10369TIP3    H231065   3.611   4.128   2.980
10370TIP3   OH231066   5.179   0.085   4.198
10370TIP3    H131067   5.268   0.057   4.222
10370TIP3    H231068   5.123   0.013   4.227
10371TIP3   OH231069   2.250   3.694   1.017
10371TIP3    H131070   2.174   3.747   1.044
10371TIP3    H231071   2.239   3.611   1.064
10372TIP3   OH231072   6.622   3.478   0.247
10372TIP3    H131073   6.584   3.552   0.200
10372TIP3    H231074   6.617   3.503   0.339
10373TIP3   OH231075   1.878   2.104   5.267
10373TIP3    H131076   1.839   2.022   5.240
10373TIP3    H231077   1.874   2.102   5.363
10374TIP3   OH231078   3.850   0.296   2.266
10374TIP3    H131079   3.863   0.385   2.234
10374TIP3    H231080   3.825   0.307   2.357
10375TIP3   OH231081   0.325   6.663   0.556
10375TIP3    H131082   0.230   6.673   0.550
10375TIP3    H231083   0.358   6.752   0.544
10376TIP3   OH231084   4.924   2.518   4.730
10376TIP3    H131085   4.841   2.562   4.712
10376TIP3    H231086   4.956   2.559   4.811
10377TIP3   OH231087   3.817   2.016   2.908
10377TIP3    H131088   3.777   1.932   2.929
10377TIP3    H231089   3.743   2.074   2.891
10378TIP3   OH231090   1.641   2.023   4.842
10378TIP3    H131091   1.586   1.971   4.901
10378TIP3    H231092   1.709   2.058   4.899
10379TIP3   OH231093   7.091   0.940   0.781
10379TIP3    H131094   7.163   0.884   0.811
10379TIP3    H231095   7.117   0.968   0.693
10380TIP3   OH231096   6.727   2.665   3.537
10380TIP3    H131097   6.657   2.731   3.538
10380TIP3    H231098   6.798   2.706   3.586
10381TIP3   OH231099   2.000   2.224   4.318
10381TIP3    H131100   2.012   2.130   4.303
10381TIP3    H231101   1.990   2.232   4.413
10382TIP3   OH231102   0.786   4.327   5.513
10382TIP3    H131103   0.815   4.407   5.468
10382TIP3    H231104   0.866   4.292   5.553
10383TIP3   OH231105   0.511   6.870   3.060
10383TIP3    H131106   0.555   6.841   3.140
10383TIP3    H231107   0.582   6.884   2.997
10384TIP3   OH231108   6.457   0.687   0.889
10384TIP3    H131109   6.439   0.634   0.967
10384TIP3    H231110   6.423   0.774   0.910
10385TIP3   OH231111   7.769   6.126   2.127
10385TIP3    H131112   7.784   6.032   2.117
10385TIP3    H231113   7.826   6.166   2.062
10386TIP3   OH231114   4.902   3.282   5.162
10386TIP3    H131115   4.835   3.350   5.155
10386TIP3    H231116   4.879   3.233   5.240
10387TIP3   OH231117   3.996   7.358   0.955
10387TIP3    H131118   3.988   7.301   0.879
10387TIP3    H231119   4.088   7.385   0.955
10388TIP3   OH231120   0.793   3.115   0.260
10388TIP3    H131121   0.870   3.132   0.314
10388TIP3    H231122   0.721   3.108   0.323
10389TIP3   OH231123   0.210   0.758   3.268
10389TIP3    H131124   0.164   0.769   3.351
10389TIP3    H231125   0.229   0.664   3.263
10390TIP3   OH231126   2.444   1.483   1.041
10390TIP3    H131127   2.410   1.509   1.127
10390TIP3    H231128   2.416   1.392   1.031
10391TIP3   OH231129   2.717   1.620   6.558
10391TIP3    H131130   2.648   1.555   6.569
10391TIP3    H231131   2.681   1.700   6.596
10392TIP3   OH231132   3.845   0.559   3.073
10392TIP3    H131133   3.854   0.654   3.087
10392TIP3    H231134   3.763   0.537   3.117
10393TIP3   OH231135   3.881   6.043   6.533
10393TIP3    H131136   3.882   6.083   6.445
10393TIP3    H231137   3.801   6.077   6.573
10394TIP3   OH231138   7.963   0.238   3.028
10394TIP3    H131139   8.055   0.264   3.028
10394TIP3    H231140   7.931   0.265   3.114
10395TIP3   OH231141   7.268   5.861   3.849
10395TIP3    H131142   7.211   5.879   3.924
10395TIP3    H231143   7.248   5.931   3.787
10396TIP3   OH231144   6.139   7.272   5.820
10396TIP3    H131145   6.099   7.187   5.839
10396TIP3    H231146   6.068   7.335   5.834
10397TIP3   OH231147   2.763   5.350   6.582
10397TIP3    H131148   2.704   5.287   6.541
10397TIP3    H231149   2.713   5.432   6.583
10398TIP3   OH231150   0.117   1.319   6.642
10398TIP3    H131151   0.118   1.393   6.703
10398TIP3    H231152   0.080   1.247   6.693
10399TIP3   OH231153   7.282   3.557   6.133
10399TIP3    H131154   7.267   3.479   6.187
10399TIP3    H231155   7.262   3.630   6.191
10400TIP3   OH231156   6.970   7.247   2.338
10400TIP3    H131157   6.974   7.189   2.414
10400TIP3    H231158   6.931   7.328   2.371
10401TIP3   OH231159   3.111   3.024   1.321
10401TIP3    H131160   3.169   2.998   1.393
10401TIP3    H231161   3.038   3.068   1.364
10402TIP3   OH231162   6.389   0.938   0.977
10402TIP3    H131163   6.344   0.903   1.054
10402TIP3    H231164   6.320   0.983   0.928
10403TIP3   OH231165   6.601   6.593   4.047
10403TIP3    H131166   6.654   6.610   3.969
10403TIP3    H231167   6.581   6.500   4.043
10404TIP3   OH231168   4.177   2.310   5.792
10404TIP3    H131169   4.154   2.343   5.704
10404TIP3    H231170   4.146   2.378   5.851
10405TIP3   OH231171   6.345   5.239   1.788
10405TIP3    H131172   6.366   5.146   1.786
10405TIP3    H231173   6.356   5.269   1.698
10406TIP3   OH231174   6.393   7.682   0.179
10406TIP3    H131175   6.323   7.644   0.127
10406TIP3    H231176   6.366   7.773   0.193
10407TIP3   OH231177   5.097   7.447   5.908
10407TIP3    H131178   5.018   7.400   5.936
10407TIP3    H231179   5.161   7.379   5.892
10408TIP3   OH231180   7.403   3.621   5.757
10408TIP3    H131181   7.487   3.596   5.719
10408TIP3    H231182   7.421   3.703   5.804
10409TIP3   OH231183   7.250   3.217   3.970
10409TIP3    H131184   7.155   3.205   3.981
10409TIP3    H231185   7.282   3.234   4.058
10410TIP3   OH231186   1.226   0.296   1.490
10410TIP3    H131187   1.141   0.257   1.510
10410TIP3    H231188   1.214   0.389   1.508
10411TIP3   OH231189   2.829   4.127   4.334
10411TIP3    H131190   2.753   4.089   4.378
10411TIP3    H231191   2.815   4.221   4.340
10412TIP3   OH231192   6.165   1.132   4.944
10412TIP3    H131193   6.106   1.180   4.886
10412TIP3    H231194   6.234   1.195   4.965
10413TIP3   OH231195   1.813   6.912   1.526
10413TIP3    H131196   1.897   6.943   1.491
10413TIP3    H231197   1.837   6.854   1.598
10414TIP3   OH231198   3.035   3.430   1.400
10414TIP3    H131199   2.954   3.473   1.375
10414TIP3    H231200   3.100   3.501   1.403
10415TIP3   OH231201   0.923   1.218   0.508
10415TIP3    H131202   0.952   1.260   0.427
10415TIP3    H231203   0.996   1.227   0.568
10416TIP3   OH231204   6.575   5.039   3.560
10416TIP3    H131205   6.523   5.119   3.570
10416TIP3    H231206   6.511   4.969   3.560
10417TIP3   OH231207   2.506   6.475   0.238
10417TIP3    H131208   2.553   6.558   0.228
10417TIP3    H231209   2.455   6.466   0.157
10418TIP3   OH231210   3.471   4.590   5.276
10418TIP3    H131211   3.411   4.551   5.212
10418TIP3    H231212   3.418   4.602   5.355
10419TIP3   OH231213   3.681   3.131   0.335
10419TIP3    H131214   3.666   3.124   0.241
10419TIP3    H231215   3.613   3.076   0.375
10420TIP3   OH231216   4.594   7.486   0.985
10420TIP3    H131217   4.584   7.393   1.004
10420TIP3    H231218   4.519   7.527   1.030
10421TIP3   OH231219   3.596   5.102   1.536
10421TIP3    H131220   3.545   5.043   1.481
10421TIP3    H231221   3.669   5.048   1.567
10422TIP3   OH231222   7.779   7.357   5.321
10422TIP3    H131223   7.760   7.274   5.276
10422TIP3    H231224   7.782   7.421   5.250
10423TIP3   OH231225   6.270   4.485   0.492
10423TIP3    H131226   6.348   4.524   0.452
10423TIP3    H231227   6.293   4.392   0.502
10424TIP3   OH231228   5.588   4.557   4.357
10424TIP3    H131229   5.532   4.551   4.435
10424TIP3    H231230   5.603   4.466   4.331
10425TIP3   OH231231   7.016   4.124   0.062
10425TIP3    H131232   6.960   4.183   0.012
10425TIP3    H231233   7.105   4.144   0.033
10426TIP3   OH231234   8.207   7.282   0.489
10426TIP3    H131235   8.170   7.259   0.574
10426TIP3    H231236   8.189   7.376   0.480
10427TIP3   OH231237   2.838   6.897   0.802
10427TIP3    H131238   2.857   6.891   0.895
10427TIP3    H231239   2.770   6.830   0.787
10428TIP3   OH231240   5.129   3.626   5.350
10428TIP3    H131241   5.192   3.571   5.304
10428TIP3    H231242   5.089   3.569   5.415
10429TIP3   OH231243   2.682   6.060   3.011
10429TIP3    H131244   2.676   6.155   3.005
10429TIP3    H231245   2.776   6.041   3.013
10430TIP3   OH231246   1.286   0.383   2.315
10430TIP3    H131247   1.280   0.300   2.363
10430TIP3    H231248   1.231   0.444   2.364
10431TIP3   OH231249   0.000   2.246   0.737
10431TIP3    H131250   0.078   2.192   0.747
10431TIP3    H231251  -0.056   2.221   0.810
10432TIP3   OH231252   2.735   4.542   0.892
10432TIP3    H131253   2.664   4.562   0.831
10432TIP3    H231254   2.719   4.600   0.967
10433TIP3   OH231255   5.346   0.799   4.680
10433TIP3    H131256   5.371   0.745   4.605
10433TIP3    H231257   5.415   0.783   4.745
10434TIP3   OH231258   1.148   3.176   5.442
10434TIP3    H131259   1.223   3.144   5.492
10434TIP3    H231260   1.171   3.161   5.351
10435TIP3   OH231261   6.119   2.252   2.290
10435TIP3    H131262   6.151   2.331   2.333
10435TIP3    H231263   6.030   2.241   2.323
10436TIP3   OH231264   3.774   2.137   5.768
10436TIP3    H131265   3.813   2.157   5.683
10436TIP3    H231266   3.800   2.211   5.824
10437TIP3   OH231267   3.854   5.064   6.640
10437TIP3    H131268   3.777   5.016   6.671
10437TIP3    H231269   3.869   5.030   6.551
10438TIP3   OH231270   7.258   5.877   4.512
10438TIP3    H131271   7.169   5.854   4.539
10438TIP3    H231272   7.307   5.883   4.594
10439TIP3   OH231273   1.411   4.473   3.660
10439TIP3    H131274   1.389   4.563   3.637
10439TIP3    H231275   1.330   4.439   3.700
10440TIP3   OH231276   7.423   3.881   4.763
10440TIP3    H131277   7.452   3.804   4.714
10440TIP3    H231278   7.336   3.857   4.796
10441TIP3   OH231279   7.793   2.825   5.832
10441TIP3    H131280   7.822   2.832   5.741
10441TIP3    H231281   7.770   2.733   5.842
10442TIP3   OH231282   0.393   7.150   3.142
10442TIP3    H131283   0.429   7.066   3.112
10442TIP3    H231284   0.369   7.134   3.233
10443TIP3   OH231285   7.335   3.308   4.672
10443TIP3    H131286   7.366   3.378   4.730
10443TIP3    H231287   7.409   3.249   4.663
10444TIP3   OH231288   2.828   1.143   5.420
10444TIP3    H131289   2.818   1.087   5.496
10444TIP3    H231290   2.922   1.160   5.413
10445TIP3   OH231291   1.466   7.067   4.903
10445TIP3    H131292   1.473   7.112   4.987
10445TIP3    H231293   1.401   7.118   4.854
10446TIP3   OH231294   6.331   0.921   4.904
10446TIP3    H131295   6.275   0.999   4.900
10446TIP3    H231296   6.352   0.902   4.813
10447TIP3   OH231297   0.092   1.434   4.248
10447TIP3    H131298   0.090   1.524   4.281
10447TIP3    H231299   0.107   1.443   4.154
10448TIP3   OH231300   7.396   2.940   0.789
10448TIP3    H131301   7.489   2.923   0.802
10448TIP3    H231302   7.392   3.033   0.767
10449TIP3   OH231303   6.400   0.119   3.752
10449TIP3    H131304   6.413   0.147   3.842
10449TIP3    H231305   6.482   0.077   3.727
10450TIP3   OH231306   2.778   1.594   4.414
10450TIP3    H131307   2.760   1.504   4.440
10450TIP3    H231308   2.830   1.586   4.334
10451TIP3   OH231309   3.319   6.418   2.776
10451TIP3    H131310   3.275   6.407   2.692
10451TIP3    H231311   3.278   6.352   2.833
10452TIP3   OH231312   3.741   4.542   1.326
10452TIP3    H131313   3.801   4.511   1.394
10452TIP3    H231314   3.656   4.505   1.351
10453TIP3   OH231315   6.032   7.614   3.195
10453TIP3    H131316   6.013   7.634   3.103
10453TIP3    H231317   5.974   7.541   3.216
10454TIP3   OH231318   7.881   7.472   0.266
10454TIP3    H131319   7.840   7.557   0.253
10454TIP3    H231320   7.833   7.434   0.340
10455TIP3   OH231321   1.164   5.036   6.603
10455TIP3    H131322   1.225   5.041   6.677
10455TIP3    H231323   1.221   5.028   6.526
10456TIP3   OH231324   0.311   6.319   6.486
10456TIP3    H131325   0.338   6.293   6.398
10456TIP3    H231326   0.273   6.406   6.474
10457TIP3   OH231327   1.053   0.808   0.653
10457TIP3    H131328   1.135   0.856   0.657
10457TIP3    H231329   1.038   0.794   0.560
10458TIP3   OH231330   3.048   2.198   3.826
10458TIP3    H131331   3.052   2.133   3.896
10458TIP3    H231332   2.962   2.239   3.836
10459TIP3   OH231333   6.586   7.148   0.083
10459TIP3    H131334   6.519   7.091   0.047
10459TIP3    H231335   6.665   7.126   0.034
10460TIP3   OH231336   7.602   0.658   3.365
10460TIP3    H131337   7.600   0.735   3.421
10460TIP3    H231338   7.550   0.683   3.288
10461TIP3   OH231339   1.347   4.284   5.506
10461TIP3    H131340   1.439   4.306   5.489
10461TIP3    H231341   1.330   4.208   5.452
10462TIP3   OH231342   2.786   6.093   2.006
10462TIP3    H131343   2.762   6.033   1.935
10462TIP3    H231344   2.765   6.180   1.972
10463TIP3   OH231345   1.610   3.023   0.480
10463TIP3    H131346   1.621   3.083   0.554
10463TIP3    H231347   1.599   3.080   0.404
10464TIP3   OH231348   7.992   7.020   4.813
10464TIP3    H131349   8.057   7.041   4.745
10464TIP3    H231350   8.034   6.953   4.866
10465TIP3   OH231351   4.603   0.352   3.072
10465TIP3    H131352   4.653   0.390   3.145
10465TIP3    H231353   4.563   0.273   3.110
10466TIP3   OH231354   0.146   5.009   0.142
10466TIP3    H131355   0.052   4.989   0.144
10466TIP3    H231356   0.157   5.065   0.065
10467TIP3   OH231357   4.287   2.726   2.584
10467TIP3    H131358   4.355   2.741   2.650
10467TIP3    H231359   4.335   2.689   2.509
10468TIP3   OH231360   6.152   5.976   0.552
10468TIP3    H131361   6.198   5.893   0.550
10468TIP3    H231362   6.163   6.008   0.641
10469TIP3   OH231363   1.219   1.935   5.074
10469TIP3    H131364   1.152   1.995   5.106
10469TIP3    H231365   1.254   1.894   5.153
10470TIP3   OH231366   0.411   2.269   0.962
10470TIP3    H131367   0.366   2.220   1.031
10470TIP3    H231368   0.495   2.223   0.952
10471TIP3   OH231369   8.240   4.886   4.526
10471TIP3    H131370   8.316   4.944   4.528
10471TIP3    H231371   8.277   4.798   4.516
10472TIP3   OH231372   5.123   0.512   2.307
10472TIP3    H131373   5.193   0.465   2.354
10472TIP3    H231374   5.108   0.591   2.360
10473TIP3   OH231375   7.886   0.039   6.383
10473TIP3    H131376   7.815   0.008   6.326
10473TIP3    H231377   7.941   0.093   6.326
10474TIP3   OH231378   4.148   2.324   3.063
10474TIP3    H131379   4.053   2.315   3.071
10474TIP3    H231380   4.170   2.273   2.985
10475TIP3   OH231381   1.748   5.983   6.090
10475TIP3    H131382   1.662   5.942   6.082
10475TIP3    H231383   1.740   6.067   6.047
10476TIP3   OH231384   3.511   6.165   3.114
10476TIP3    H131385   3.553   6.099   3.059
10476TIP3    H231386   3.562   6.165   3.195
10477TIP3   OH231387   1.683   6.410   3.337
10477TIP3    H131388   1.655   6.361   3.260
10477TIP3    H231389   1.621   6.384   3.405
10478TIP3   OH231390   4.959   7.801   4.067
10478TIP3    H131391   4.868   7.800   4.097
10478TIP3    H231392   4.955   7.842   3.980
10479TIP3   OH231393   6.236   0.388   2.327
10479TIP3    H131394   6.162   0.362   2.382
10479TIP3    H231395   6.224   0.481   2.313
10480TIP3   OH231396   2.608   4.078   0.430
10480TIP3    H131397   2.673   4.038   0.372
10480TIP3    H231398   2.535   4.098   0.372
10481TIP3   OH231399   7.967   4.886   6.250
10481TIP3    H131400   8.031   4.818   6.273
10481TIP3    H231401   7.949   4.930   6.333
10482TIP3   OH231402   0.500   3.334   0.975
10482TIP3    H131403   0.513   3.396   1.047
10482TIP3    H231404   0.410   3.350   0.946
10483TIP3   OH231405   1.563   7.731   0.717
10483TIP3    H131406   1.487   7.783   0.741
10483TIP3    H231407   1.528   7.662   0.660
10484TIP3   OH231408   1.531   0.826   1.155
10484TIP3    H131409   1.611   0.800   1.200
10484TIP3    H231410   1.470   0.754   1.171
10485TIP3   OH231411   5.845   3.117   3.765
10485TIP3    H131412   5.871   3.196   3.812
10485TIP3    H231413   5.855   3.141   3.672
10486TIP3   OH231414   6.492   6.344   5.507
10486TIP3    H131415   6.462   6.288   5.578
10486TIP3    H231416   6.565   6.297   5.467
10487TIP3   OH231417   5.895   5.597   3.533
10487TIP3    H131418   5.928   5.686   3.524
10487TIP3    H231419   5.946   5.560   3.605
10488TIP3   OH231420   7.030   6.519   4.635
10488TIP3    H131421   6.937   6.537   4.620
10488TIP3    H231422   7.065   6.602   4.669
10489TIP3   OH231423   7.469   2.464   6.441
10489TIP3    H131424   7.498   2.372   6.444
10489TIP3    H231425   7.378   2.460   6.469
10490TIP3   OH231426   1.543   5.027   2.045
10490TIP3    H131427   1.457   5.066   2.059
10490TIP3    H231428   1.576   5.009   2.133
10491TIP3   OH231429   2.917   3.188   1.467
10491TIP3    H131430   2.969   3.263   1.438
10491TIP3    H231431   2.830   3.224   1.483
10492TIP3   OH231432   3.511   0.612   1.314
10492TIP3    H131433   3.545   0.629   1.226
10492TIP3    H231434   3.576   0.652   1.373
10493TIP3   OH231435   3.520   7.232   5.164
10493TIP3    H131436   3.515   7.139   5.184
10493TIP3    H231437   3.461   7.273   5.227
10494TIP3   OH231438   1.193   0.279   6.519
10494TIP3    H131439   1.272   0.258   6.468
10494TIP3    H231440   1.149   0.348   6.469
10495TIP3   OH231441   5.501   5.661   0.591
10495TIP3    H131442   5.441   5.735   0.595
10495TIP3    H231443   5.581   5.696   0.551
10496TIP3   OH231444   3.550   1.936   6.606
10496TIP3    H131445   3.508   1.940   6.692
10496TIP3    H231446   3.637   1.974   6.620
10497TIP3   OH231447   1.061   5.013   4.163
10497TIP3    H131448   1.100   5.086   4.115
10497TIP3    H231449   0.981   5.050   4.200
10498TIP3   OH231450   7.209   5.998   2.723
10498TIP3    H131451   7.275   6.068   2.719
10498TIP3    H231452   7.192   5.976   2.632
10499TIP3   OH231453   3.666   4.318   1.678
10499TIP3    H131454   3.627   4.399   1.648
10499TIP3    H231455   3.596   4.253   1.671
10500TIP3   OH231456   4.330   0.500   4.440
10500TIP3    H131457   4.246   0.475   4.478
10500TIP3    H231458   4.314   0.587   4.403
10501TIP3   OH231459   3.043   0.711   0.243
10501TIP3    H131460   2.958   0.737   0.209
10501TIP3    H231461   3.105   0.739   0.175
10502TIP3   OH231462   3.155   7.766   4.997
10502TIP3    H131463   3.084   7.740   5.055
10502TIP3    H231464   3.157   7.861   5.001
10503TIP3   OH231465   7.379   6.550   6.666
10503TIP3    H131466   7.402   6.493   6.593
10503TIP3    H231467   7.461   6.562   6.714
10504TIP3   OH231468   1.959   3.384   6.082
10504TIP3    H131469   1.894   3.451   6.103
10504TIP3    H231470   1.939   3.312   6.142
10505TIP3   OH231471   0.168   5.251   3.912
10505TIP3    H131472   0.206   5.274   3.828
10505TIP3    H231473   0.078   5.285   3.908
10506TIP3   OH231474   6.227   0.400   1.649
10506TIP3    H131475   6.144   0.375   1.690
10506TIP3    H231476   6.216   0.492   1.625
10507TIP3   OH231477   0.630   3.477   2.773
10507TIP3    H131478   0.568   3.435   2.831
10507TIP3    H231479   0.666   3.406   2.720
10508TIP3   OH231480   6.007   1.905   0.635
10508TIP3    H131481   5.935   1.925   0.575
10508TIP3    H231482   5.967   1.907   0.722
10509TIP3   OH231483   0.902   5.701   6.401
10509TIP3    H131484   0.809   5.683   6.417
10509TIP3    H231485   0.922   5.654   6.320
10510TIP3   OH231486   5.007   4.791   3.922
10510TIP3    H131487   4.952   4.738   3.980
10510TIP3    H231488   5.095   4.781   3.958
10511TIP3   OH231489   5.382   2.641   2.124
10511TIP3    H131490   5.293   2.670   2.105
10511TIP3    H231491   5.398   2.569   2.062
10512TIP3   OH231492   7.162   0.373   0.230
10512TIP3    H131493   7.142   0.459   0.193
10512TIP3    H231494   7.257   0.373   0.240
10513TIP3   OH231495   4.287   2.351   1.788
10513TIP3    H131496   4.239   2.421   1.744
10513TIP3    H231497   4.243   2.270   1.760
10514TIP3   OH231498   0.795   4.214   4.155
10514TIP3    H131499   0.765   4.151   4.220
10514TIP3    H231500   0.798   4.164   4.073
10515TIP3   OH231501   1.225   7.366   6.282
10515TIP3    H131502   1.184   7.376   6.368
10515TIP3    H231503   1.191   7.282   6.249
10516TIP3   OH231504   3.079   1.209   6.586
10516TIP3    H131505   3.008   1.274   6.588
10516TIP3    H231506   3.148   1.250   6.534
10517TIP3   OH231507   7.618   0.502   6.437
10517TIP3    H131508   7.695   0.454   6.410
10517TIP3    H231509   7.652   0.585   6.471
10518TIP3   OH231510   6.989   5.930   6.082
10518TIP3    H131511   6.987   5.976   6.166
10518TIP3    H231512   6.902   5.943   6.045
10519TIP3   OH231513   5.482   7.164   3.957
10519TIP3    H131514   5.447   7.112   4.030
10519TIP3    H231515   5.425   7.241   3.954
10520TIP3   OH231516   0.626   2.071   1.501
10520TIP3    H131517   0.607   2.131   1.429
10520TIP3    H231518   0.557   2.005   1.495
10521TIP3   OH231519   4.610   6.276   3.262
10521TIP3    H131520   4.619   6.318   3.348
10521TIP3    H231521   4.684   6.216   3.257
10522TIP3   OH231522   2.299   5.700   6.404
10522TIP3    H131523   2.271   5.650   6.481
10522TIP3    H231524   2.331   5.634   6.343
10523TIP3   OH231525   0.915   5.945   0.257
10523TIP3    H131526   0.965   5.876   0.301
10523TIP3    H231527   0.960   6.026   0.282
10524TIP3   OH231528   6.635   2.154   3.030
10524TIP3    H131529   6.620   2.177   2.939
10524TIP3    H231530   6.721   2.192   3.050
10525TIP3   OH231531   4.962   1.530   6.578
10525TIP3    H131532   4.872   1.527   6.611
10525TIP3    H231533   5.013   1.566   6.650
10526TIP3   OH231534   3.116   4.359   2.435
10526TIP3    H131535   3.079   4.375   2.348
10526TIP3    H231536   3.136   4.266   2.436
10527TIP3   OH231537   7.920   0.412   3.240
10527TIP3    H131538   7.859   0.439   3.171
10527TIP3    H231539   7.864   0.397   3.317
10528TIP3   OH231540   0.256   0.982   1.171
10528TIP3    H131541   0.173   0.977   1.218
10528TIP3    H231542   0.256   0.905   1.114
10529TIP3   OH231543   5.861   4.594   4.516
10529TIP3    H131544   5.919   4.633   4.451
10529TIP3    H231545   5.791   4.554   4.464
10530TIP3   OH231546   3.848   7.715   1.139
10530TIP3    H131547   3.833   7.624   1.112
10530TIP3    H231548   3.777   7.764   1.099
10531TIP3   OH231549   4.200   1.018   0.704
10531TIP3    H131550   4.234   0.931   0.725
10531TIP3    H231551   4.267   1.057   0.649
10532TIP3   OH231552   1.222   4.560   3.060
10532TIP3    H131553   1.241   4.654   3.070
10532TIP3    H231554   1.225   4.545   2.966
10533TIP3   OH231555   3.077   0.920   1.872
10533TIP3    H131556   3.128   0.998   1.851
10533TIP3    H231557   3.069   0.873   1.789
10534TIP3   OH231558   2.492   0.689   5.703
10534TIP3    H131559   2.553   0.626   5.741
10534TIP3    H231560   2.548   0.754   5.661
10535TIP3   OH231561   2.832   2.979   3.962
10535TIP3    H131562   2.745   2.957   3.994
10535TIP3    H231563   2.889   2.967   4.038
10536TIP3   OH231564   7.855   4.853   2.624
10536TIP3    H131565   7.918   4.924   2.640
10536TIP3    H231566   7.775   4.898   2.599
10537TIP3   OH231567   1.705   1.436   3.776
10537TIP3    H131568   1.767   1.381   3.728
10537TIP3    H231569   1.725   1.418   3.868
10538TIP3   OH231570   3.423   7.477   0.299
10538TIP3    H131571   3.437   7.479   0.204
10538TIP3    H231572   3.442   7.387   0.324
10539TIP3   OH231573   3.071   3.585   6.324
10539TIP3    H131574   3.049   3.532   6.247
10539TIP3    H231575   3.165   3.572   6.336
10540TIP3   OH231576   2.295   3.717   0.230
10540TIP3    H131577   2.274   3.771   0.153
10540TIP3    H231578   2.363   3.658   0.199
10541TIP3   OH231579   0.796   3.679   2.400
10541TIP3    H131580   0.778   3.590   2.431
10541TIP3    H231581   0.724   3.731   2.436
10542TIP3   OH231582   7.304   7.472   5.975
10542TIP3    H131583   7.339   7.394   5.931
10542TIP3    H231584   7.209   7.457   5.979
10543TIP3   OH231585   2.617   1.987   0.657
10543TIP3    H131586   2.646   1.908   0.703
10543TIP3    H231587   2.672   2.057   0.692
10544TIP3   OH231588   1.700   1.097   0.921
10544TIP3    H131589   1.742   1.082   1.006
10544TIP3    H231590   1.774   1.108   0.860
10545TIP3   OH231591   6.728   4.298   5.788
10545TIP3    H131592   6.638   4.293   5.756
10545TIP3    H231593   6.746   4.392   5.794
10546TIP3   OH231594   7.196   6.315   6.468
10546TIP3    H131595   7.107   6.304   6.502
10546TIP3    H231596   7.194   6.401   6.425
10547TIP3   OH231597   4.723   7.156   3.988
10547TIP3    H131598   4.751   7.201   3.908
10547TIP3    H231599   4.761   7.207   4.059
10548TIP3   OH231600   2.202   6.374   2.075
10548TIP3    H131601   2.296   6.384   2.059
10548TIP3    H231602   2.164   6.457   2.046
10549TIP3   OH231603   3.833   7.802   2.716
10549TIP3    H131604   3.824   7.743   2.641
10549TIP3    H231605   3.809   7.748   2.792
10550TIP3   OH231606   8.082   0.372   6.034
10550TIP3    H131607   8.110   0.381   5.943
10550TIP3    H231608   8.130   0.440   6.081
10551TIP3   OH231609   0.855   4.376   3.086
10551TIP3    H131610   0.778   4.388   3.142
10551TIP3    H231611   0.925   4.353   3.147
10552TIP3   OH231612   4.522   4.524   4.073
10552TIP3    H131613   4.446   4.540   4.018
10552TIP3    H231614   4.552   4.437   4.048
10553TIP3   OH231615   6.171   4.635   5.307
10553TIP3    H131616   6.186   4.579   5.230
10553TIP3    H231617   6.217   4.716   5.286
10554TIP3   OH231618   6.616   4.012   6.109
10554TIP3    H131619   6.579   3.931   6.145
10554TIP3    H231620   6.540   4.069   6.095
10555TIP3   OH231621   1.276   2.151   2.892
10555TIP3    H131622   1.280   2.079   2.956
10555TIP3    H231623   1.330   2.220   2.930
10556TIP3   OH231624   1.001   7.048   4.777
10556TIP3    H131625   0.971   7.007   4.858
10556TIP3    H231626   0.964   7.136   4.778
10557TIP3   OH231627   1.628   0.065   2.154
10557TIP3    H131628   1.553   0.038   2.207
10557TIP3    H231629   1.593   0.131   2.095
10558TIP3   OH231630   6.656   2.819   1.815
10558TIP3    H131631   6.614   2.852   1.894
10558TIP3    H231632   6.678   2.898   1.765
10559TIP3   OH231633   5.098   6.436   1.319
10559TIP3    H131634   5.165   6.450   1.386
10559TIP3    H231635   5.118   6.350   1.281
10560TIP3   OH231636   3.321   6.369   0.209
10560TIP3    H131637   3.376   6.431   0.161
10560TIP3    H231638   3.234   6.409   0.210
10561TIP3   OH231639   5.185   6.794   5.909
10561TIP3    H131640   5.119   6.794   5.978
10561TIP3    H231641   5.251   6.857   5.939
10562TIP3   OH231642   1.386   3.694   4.499
10562TIP3    H131643   1.380   3.599   4.488
10562TIP3    H231644   1.303   3.727   4.465
10563TIP3   OH231645   4.348   3.566   4.509
10563TIP3    H131646   4.327   3.486   4.460
10563TIP3    H231647   4.328   3.544   4.600
10564TIP3   OH231648   6.670   1.218   1.755
10564TIP3    H131649   6.691   1.202   1.847
10564TIP3    H231650   6.716   1.298   1.733
10565TIP3   OH231651   2.035   6.740   5.116
10565TIP3    H131652   1.959   6.752   5.173
10565TIP3    H231653   2.110   6.764   5.170
10566TIP3   OH231654   5.261   6.240   0.538
10566TIP3    H131655   5.350   6.255   0.506
10566TIP3    H231656   5.265   6.260   0.631
10567TIP3   OH231657   1.115   3.250   3.421
10567TIP3    H131658   1.037   3.266   3.368
10567TIP3    H231659   1.084   3.252   3.511
10568TIP3   OH231660   2.628   7.634   4.847
10568TIP3    H131661   2.682   7.692   4.900
10568TIP3    H231662   2.538   7.650   4.877
10569TIP3   OH231663   1.506   1.342   2.085
10569TIP3    H131664   1.540   1.276   2.145
10569TIP3    H231665   1.459   1.293   2.018
10570TIP3   OH231666   2.719   4.234   1.764
10570TIP3    H131667   2.745   4.292   1.692
10570TIP3    H231668   2.766   4.153   1.748
10571TIP3   OH231669   1.551   6.877   0.527
10571TIP3    H131670   1.630   6.913   0.567
10571TIP3    H231671   1.567   6.782   0.522
10572TIP3   OH231672   3.066   0.098   2.886
10572TIP3    H131673   3.079   0.183   2.845
10572TIP3    H231674   2.973   0.079   2.875
10573TIP3   OH231675   5.943   4.603   6.451
10573TIP3    H131676   6.030   4.567   6.464
10573TIP3    H231677   5.923   4.585   6.359
10574TIP3   OH231678   3.814   0.904   0.231
10574TIP3    H131679   3.752   0.976   0.241
10574TIP3    H231680   3.855   0.919   0.146
10575TIP3   OH231681   6.126   0.043   4.835
10575TIP3    H131682   6.207   0.051   4.785
10575TIP3    H231683   6.120   0.126   4.884
10576TIP3   OH231684   5.146   5.818   5.600
10576TIP3    H131685   5.201   5.879   5.552
10576TIP3    H231686   5.198   5.792   5.676
10577TIP3   OH231687   3.757   0.669   1.133
10577TIP3    H131688   3.848   0.697   1.133
10577TIP3    H231689   3.757   0.585   1.180
10578TIP3   OH231690   6.563   3.618   4.870
10578TIP3    H131691   6.553   3.613   4.775
10578TIP3    H231692   6.598   3.706   4.885
10579TIP3   OH231693   7.551   7.048   3.836
10579TIP3    H131694   7.573   6.964   3.798
10579TIP3    H231695   7.635   7.084   3.865
10580TIP3   OH231696   5.908   5.401   4.749
10580TIP3    H131697   5.826   5.450   4.756
10580TIP3    H231698   5.960   5.430   4.824
10581TIP3   OH231699   6.132   2.420   5.542
10581TIP3    H131700   6.124   2.334   5.584
10581TIP3    H231701   6.126   2.482   5.614
10582TIP3   OH231702   7.747   5.514   4.780
10582TIP3    H131703   7.771   5.438   4.834
10582TIP3    H231704   7.685   5.563   4.833
10583TIP3   OH231705   4.268   6.587   1.775
10583TIP3    H131706   4.185   6.590   1.823
10583TIP3    H231707   4.334   6.609   1.840
10584TIP3   OH231708   0.895   4.680   4.687
10584TIP3    H131709   0.870   4.723   4.606
10584TIP3    H231710   0.842   4.722   4.755
10585TIP3   OH231711   5.385   4.728   4.749
10585TIP3    H131712   5.301   4.694   4.780
10585TIP3    H231713   5.425   4.768   4.827
10586TIP3   OH231714   1.333   0.565   4.303
10586TIP3    H131715   1.280   0.486   4.295
10586TIP3    H231716   1.269   0.636   4.298
10587TIP3   OH231717   5.874   2.058   1.699
10587TIP3    H131718   5.791   2.039   1.655
10587TIP3    H231719   5.851   2.068   1.791
10588TIP3   OH231720   1.053   3.042   6.050
10588TIP3    H131721   1.139   3.032   6.009
10588TIP3    H231722   1.062   3.000   6.136
10589TIP3   OH231723   3.775   2.518   4.247
10589TIP3    H131724   3.720   2.526   4.170
10589TIP3    H231725   3.798   2.608   4.271
10590TIP3   OH231726   3.723   0.582   6.260
10590TIP3    H131727   3.645   0.547   6.217
10590TIP3    H231728   3.713   0.557   6.352
10591TIP3   OH231729   1.684   1.950   3.920
10591TIP3    H131730   1.751   1.942   3.852
10591TIP3    H231731   1.613   1.997   3.877
10592TIP3   OH231732   6.077   0.847   5.509
10592TIP3    H131733   6.123   0.815   5.587
10592TIP3    H231734   6.142   0.900   5.463
10593TIP3   OH231735   0.242   4.552   4.664
10593TIP3    H131736   0.267   4.472   4.618
10593TIP3    H231737   0.294   4.621   4.621
10594TIP3   OH231738   7.040   1.730   3.551
10594TIP3    H131739   7.116   1.755   3.498
10594TIP3    H231740   7.020   1.641   3.523
10595TIP3   OH231741   4.126   5.790   3.984
10595TIP3    H131742   4.124   5.814   4.076
10595TIP3    H231743   4.151   5.870   3.938
10596TIP3   OH231744   2.652   1.088   2.573
10596TIP3    H131745   2.626   1.050   2.489
10596TIP3    H231746   2.742   1.118   2.559
10597TIP3   OH231747   7.962   7.089   4.476
10597TIP3    H131748   8.041   7.068   4.426
10597TIP3    H231749   7.955   7.017   4.539
10598TIP3   OH231750   2.827   1.034   1.917
10598TIP3    H131751   2.901   0.984   1.882
10598TIP3    H231752   2.823   1.113   1.862
10599TIP3   OH231753   0.794   1.880   1.316
10599TIP3    H131754   0.792   1.894   1.411
10599TIP3    H231755   0.786   1.785   1.307
10600TIP3   OH231756   1.205   4.663   5.277
10600TIP3    H131757   1.161   4.747   5.267
10600TIP3    H231758   1.272   4.678   5.344
10601TIP3   OH231759   2.310   1.742   2.514
10601TIP3    H131760   2.288   1.834   2.501
10601TIP3    H231761   2.231   1.695   2.489
10602TIP3   OH231762   0.189   4.434   1.358
10602TIP3    H131763   0.196   4.414   1.264
10602TIP3    H231764   0.276   4.416   1.393
10603TIP3   OH231765   7.435   1.883   6.286
10603TIP3    H131766   7.420   1.818   6.217
10603TIP3    H231767   7.519   1.858   6.324
10604TIP3   OH231768   6.053   6.894   0.928
10604TIP3    H131769   5.969   6.899   0.974
10604TIP3    H231770   6.059   6.978   0.882
10605TIP3   OH231771   1.362   3.787   5.489
10605TIP3    H131772   1.286   3.779   5.432
10605TIP3    H231773   1.356   3.711   5.548
10606TIP3   OH231774   1.264   4.040   5.401
10606TIP3    H131775   1.336   3.976   5.409
10606TIP3    H231776   1.226   4.022   5.315
10607TIP3   OH231777   3.510   3.364   5.189
10607TIP3    H131778   3.421   3.343   5.161
10607TIP3    H231779   3.502   3.380   5.283
10608TIP3   OH231780   5.481   0.642   1.186
10608TIP3    H131781   5.389   0.663   1.173
10608TIP3    H231782   5.483   0.580   1.258
10609TIP3   OH231783   4.750   2.217   1.848
10609TIP3    H131784   4.674   2.195   1.793
10609TIP3    H231785   4.768   2.309   1.828
10610TIP3   OH231786   4.144   3.535   3.280
10610TIP3    H131787   4.122   3.508   3.369
10610TIP3    H231788   4.236   3.509   3.269
10611TIP3   OH231789   6.397   6.127   6.486
10611TIP3    H131790   6.414   6.210   6.532
10611TIP3    H231791   6.395   6.062   6.556
10612TIP3   OH231792   4.617   2.147   3.678
10612TIP3    H131793   4.616   2.236   3.715
10612TIP3    H231794   4.587   2.157   3.588
10613TIP3   OH231795   5.109   6.264   1.715
10613TIP3    H131796   5.158   6.184   1.696
10613TIP3    H231797   5.159   6.308   1.783
10614TIP3   OH231798   0.745   3.754   5.896
10614TIP3    H131799   0.807   3.737   5.825
10614TIP3    H231800   0.800   3.768   5.973
10615TIP3   OH231801   4.575   0.042   2.093
10615TIP3    H131802   4.495   0.044   2.145
10615TIP3    H231803   4.644   0.074   2.152
10616TIP3   OH231804   7.310   2.303   3.169
10616TIP3    H131805   7.220   2.272   3.184
10616TIP3    H231806   7.361   2.263   3.240
10617TIP3   OH231807   5.138   4.470   3.445
10617TIP3    H131808   5.067   4.519   3.403
10617TIP3    H231809   5.140   4.387   3.398
10618TIP3   OH231810   3.676   3.981   1.476
10618TIP3    H131811   3.678   3.890   1.446
10618TIP3    H231812   3.696   4.033   1.398
10619TIP3   OH231813   0.158   0.906   6.201
10619TIP3    H131814   0.236   0.896   6.146
10619TIP3    H231815   0.184   0.872   6.286
10620TIP3   OH231816   6.203   5.968   0.830
10620TIP3    H131817   6.296   5.985   0.846
10620TIP3    H231818   6.183   5.891   0.883
10621TIP3   OH231819   8.120   6.771   5.426
10621TIP3    H131820   8.182   6.843   5.418
10621TIP3    H231821   8.057   6.802   5.492
10622TIP3   OH231822   2.145   0.791   0.502
10622TIP3    H131823   2.156   0.709   0.453
10622TIP3    H231824   2.108   0.763   0.586
10623TIP3   OH231825   4.177   1.871   2.843
10623TIP3    H131826   4.200   1.857   2.751
10623TIP3    H231827   4.149   1.962   2.847
10624TIP3   OH231828   3.402   1.579   5.820
10624TIP3    H131829   3.375   1.655   5.873
10624TIP3    H231830   3.322   1.548   5.779
10625TIP3   OH231831   2.019   4.361   5.837
10625TIP3    H131832   2.102   4.354   5.791
10625TIP3    H231833   1.983   4.272   5.836
10626TIP3   OH231834   5.974   1.126   2.014
10626TIP3    H131835   5.916   1.082   2.077
10626TIP3    H231836   5.992   1.211   2.054
10627TIP3   OH231837   2.661   7.129   4.690
10627TIP3    H131838   2.743   7.153   4.646
10627TIP3    H231839   2.682   7.049   4.737
10628TIP3   OH231840   2.343   5.009   0.861
10628TIP3    H131841   2.336   5.042   0.771
10628TIP3    H231842   2.268   5.048   0.906
10629TIP3   OH231843   2.304   5.462   5.473
10629TIP3    H131844   2.399   5.458   5.481
10629TIP3    H231845   2.272   5.400   5.540
10630TIP3   OH231846   0.369   5.162   6.252
10630TIP3    H131847   0.306   5.100   6.289
10630TIP3    H231848   0.316   5.218   6.194
10631TIP3   OH231849   7.508   1.964   4.191
10631TIP3    H131850   7.478   2.055   4.187
10631TIP3    H231851   7.500   1.940   4.283
10632TIP3   OH231852   3.266   3.721   2.582
10632TIP3    H131853   3.260   3.730   2.487
10632TIP3    H231854   3.311   3.801   2.611
10633TIP3   OH231855   0.674   7.142   3.558
10633TIP3    H131856   0.747   7.189   3.517
10633TIP3    H231857   0.636   7.205   3.619
10634TIP3   OH231858   1.950   3.044   2.591
10634TIP3    H131859   1.953   3.103   2.516
10634TIP3    H231860   1.861   3.053   2.626
10635TIP3   OH231861   2.026   5.432   3.121
10635TIP3    H131862   1.959   5.460   3.183
10635TIP3    H231863   2.107   5.430   3.173
10636TIP3   OH231864   6.178   6.536   4.634
10636TIP3    H131865   6.161   6.614   4.688
10636TIP3    H231866   6.249   6.490   4.680
10637TIP3   OH231867   6.610   1.435   3.679
10637TIP3    H131868   6.626   1.341   3.673
10637TIP3    H231869   6.593   1.450   3.772
10638TIP3   OH231870   5.847   2.898   6.570
10638TIP3    H131871   5.796   2.833   6.620
10638TIP3    H231872   5.938   2.882   6.596
10639TIP3   OH231873   2.225   0.073   2.478
10639TIP3    H131874   2.188  -0.014   2.491
10639TIP3    H231875   2.177   0.129   2.540
10640TIP3   OH231876   6.651   0.920   0.855
10640TIP3    H131877   6.707   0.847   0.878
10640TIP3    H231878   6.566   0.898   0.892
10641TIP3   OH231879   3.393   6.919   4.485
10641TIP3    H131880   3.332   6.880   4.423
10641TIP3    H231881   3.344   6.922   4.568
10642TIP3   OH231882   3.585   5.358   6.107
10642TIP3    H131883   3.595   5.415   6.031
10642TIP3    H231884   3.562   5.272   6.071
10643TIP3   OH231885   7.468   4.607   0.725
10643TIP3    H131886   7.409   4.559   0.667
10643TIP3    H231887   7.458   4.564   0.810
10644TIP3   OH231888   1.211   7.570   5.219
10644TIP3    H131889   1.304   7.589   5.215
10644TIP3    H231890   1.194   7.511   5.145
10645TIP3   OH231891   8.240   5.354   0.331
10645TIP3    H131892   8.309   5.288   0.341
10645TIP3    H231893   8.268   5.406   0.256
10646TIP3   OH231894   0.656   2.299   3.070
10646TIP3    H131895   0.638   2.239   2.997
10646TIP3    H231896   0.640   2.247   3.149
10647TIP3   OH231897   7.877   0.299   3.591
10647TIP3    H131898   7.825   0.331   3.518
10647TIP3    H231899   7.904   0.211   3.564
10648TIP3   OH231900   0.373   0.984   1.458
10648TIP3    H131901   0.315   0.943   1.394
10648TIP3    H231902   0.355   1.078   1.450
10649TIP3   OH231903   4.228   6.575   5.648
10649TIP3    H131904   4.175   6.652   5.633
10649TIP3    H231905   4.249   6.542   5.561
10650TIP3   OH231906   2.394   6.724   2.081
10650TIP3    H131907   2.450   6.773   2.021
10650TIP3    H231908   2.451   6.655   2.116
10651TIP3   OH231909   5.316   4.463   5.773
10651TIP3    H131910   5.249   4.514   5.727
10651TIP3    H231911   5.268   4.392   5.814
10652TIP3   OH231912   7.127   5.746   5.243
10652TIP3    H131913   7.049   5.794   5.213
10652TIP3    H231914   7.200   5.804   5.223
10653TIP3   OH231915   4.823   3.501   1.672
10653TIP3    H131916   4.890   3.454   1.721
10653TIP3    H231917   4.855   3.591   1.668
10654TIP3   OH231918   4.880   3.574   6.105
10654TIP3    H131919   4.915   3.545   6.021
10654TIP3    H231920   4.787   3.554   6.100
10655TIP3   OH231921   3.043   6.334   4.755
10655TIP3    H131922   3.084   6.267   4.810
10655TIP3    H231923   3.084   6.322   4.669
10656TIP3   OH231924   5.147   5.454   3.973
10656TIP3    H131925   5.145   5.363   3.943
10656TIP3    H231926   5.055   5.479   3.978
10657TIP3   OH231927   7.443   3.758   2.610
10657TIP3    H131928   7.380   3.715   2.669
10657TIP3    H231929   7.415   3.849   2.608
10658TIP3   OH231930   1.947   5.714   5.094
10658TIP3    H131931   2.034   5.677   5.077
10658TIP3    H231932   1.894   5.687   5.018
10659TIP3   OH231933   5.372   0.883   1.681
10659TIP3    H131934   5.340   0.962   1.724
10659TIP3    H231935   5.297   0.824   1.680
10660TIP3   OH231936   3.699   3.091   3.939
10660TIP3    H131937   3.773   3.152   3.936
10660TIP3    H231938   3.672   3.081   3.848
10661TIP3   OH231939   6.540   2.689   1.278
10661TIP3    H131940   6.597   2.655   1.346
10661TIP3    H231941   6.597   2.742   1.223
10662TIP3   OH231942   4.395   5.193   1.842
10662TIP3    H131943   4.343   5.117   1.816
10662TIP3    H231944   4.485   5.169   1.820
10663TIP3   OH231945   5.684   2.121   5.239
10663TIP3    H131946   5.621   2.131   5.311
10663TIP3    H231947   5.769   2.132   5.281
10664TIP3   OH231948   2.082   1.282   1.694
10664TIP3    H131949   2.042   1.360   1.732
10664TIP3    H231950   2.174   1.306   1.680
10665TIP3   OH231951   4.707   2.663   2.911
10665TIP3    H131952   4.636   2.600   2.925
10665TIP3    H231953   4.723   2.659   2.816
10666TIP3   OH231954   4.600   4.614   1.159
10666TIP3    H131955   4.573   4.526   1.186
10666TIP3    H231956   4.690   4.603   1.129
10667TIP3   OH231957   1.592   0.117   6.133
10667TIP3    H131958   1.678   0.158   6.126
10667TIP3    H231959   1.531   0.183   6.101
10668TIP3   OH231960   1.818   2.403   4.241
10668TIP3    H131961   1.773   2.351   4.174
10668TIP3    H231962   1.888   2.346   4.273
10669TIP3   OH231963   4.682   3.866   5.711
10669TIP3    H131964   4.617   3.925   5.674
10669TIP3    H231965   4.669   3.783   5.665
10670TIP3   OH231966   1.249   0.841   0.178
10670TIP3    H131967   1.331   0.888   0.162
10670TIP3    H231968   1.208   0.889   0.250
10671TIP3   OH231969   0.380   1.714   4.848
10671TIP3    H131970   0.320   1.640   4.862
10671TIP3    H231971   0.410   1.703   4.758
10672TIP3   OH231972   1.394   7.171   6.387
10672TIP3    H131973   1.427   7.227   6.316
10672TIP3    H231974   1.353   7.233   6.448
10673TIP3   OH231975   2.047   1.490  -0.003
10673TIP3    H131976   2.104   1.421  -0.038
10673TIP3    H231977   2.051   1.479   0.092
10674TIP3   OH231978   4.951   7.623   0.872
10674TIP3    H131979   4.934   7.560   0.941
10674TIP3    H231980   4.996   7.695   0.916
10675TIP3   OH231981   3.355   1.400   0.259
10675TIP3    H131982   3.339   1.494   0.255
10675TIP3    H231983   3.386   1.376   0.172
10676TIP3   OH231984   0.052   5.508   0.122
10676TIP3    H131985   0.142   5.532   0.144
10676TIP3    H231986   0.013   5.588   0.086
10677TIP3   OH231987   0.015   6.936   1.289
10677TIP3    H131988  -0.055   6.920   1.226
10677TIP3    H231989   0.096   6.921   1.240
10678TIP3   OH231990   6.379   2.726   3.178
10678TIP3    H131991   6.293   2.745   3.215
10678TIP3    H231992   6.428   2.685   3.249
10679TIP3   OH231993   3.199   2.849   6.524
10679TIP3    H131994   3.278   2.799   6.508
10679TIP3    H231995   3.203   2.873   6.616
10680TIP3   OH231996   4.685   2.638   6.145
10680TIP3    H131997   4.662   2.546   6.130
10680TIP3    H231998   4.627   2.686   6.085
10681TIP3   OH231999   1.795   2.886   0.787
10681TIP3    H132000   1.709   2.904   0.826
10681TIP3    H232001   1.775   2.852   0.700
10682TIP3   OH232002   3.036   6.728   6.766
10682TIP3    H132003   2.983   6.699   6.840
10682TIP3    H232004   2.975   6.731   6.693
10683TIP3   OH232005   7.029   7.544   2.616
10683TIP3    H132006   6.954   7.603   2.611
10683TIP3    H232007   7.044   7.517   2.525
10684TIP3   OH232008   1.999   6.701   1.393
10684TIP3    H132009   1.907   6.700   1.364
10684TIP3    H232010   2.038   6.775   1.346
10685TIP3   OH232011   8.252   5.367   3.791
10685TIP3    H132012   8.283   5.447   3.834
10685TIP3    H232013   8.220   5.397   3.706
10686TIP3   OH232014   0.695   0.530   2.708
10686TIP3    H132015   0.708   0.441   2.739
10686TIP3    H232016   0.692   0.523   2.613
10687TIP3   OH232017   5.236   3.984   5.348
10687TIP3    H132018   5.281   4.034   5.416
10687TIP3    H232019   5.263   4.027   5.266
10688TIP3   OH232020   6.716   3.231   6.213
10688TIP3    H132021   6.709   3.147   6.259
10688TIP3    H232022   6.792   3.221   6.157
10689TIP3   OH232023   5.293   0.978   3.579
10689TIP3    H132024   5.372   0.934   3.611
10689TIP3    H232025   5.324   1.034   3.508
10690TIP3   OH232026   3.584   5.065   2.301
10690TIP3    H132027   3.644   5.020   2.241
10690TIP3    H232028   3.641   5.107   2.365
10691TIP3   OH232029   7.100   5.062   5.541
10691TIP3    H132030   7.176   5.109   5.506
10691TIP3    H232031   7.062   5.122   5.605
10692TIP3   OH232032   7.613   1.258   1.720
10692TIP3    H132033   7.536   1.234   1.772
10692TIP3    H232034   7.599   1.350   1.697
10693TIP3   OH232035   0.091   5.493   6.317
10693TIP3    H132036   0.001   5.501   6.285
10693TIP3    H232037   0.121   5.409   6.281
10694TIP3   OH232038   1.032   7.389   6.556
10694TIP3    H132039   1.010   7.297   6.540
10694TIP3    H232040   0.948   7.431   6.574
10695TIP3   OH232041   4.241   7.789   3.554
10695TIP3    H132042   4.205   7.743   3.629
10695TIP3    H232043   4.335   7.769   3.556
10696TIP3   OH232044   2.476   0.410   6.372
10696TIP3    H132045   2.569   0.398   6.352
10696TIP3    H232046   2.434   0.424   6.287
10697TIP3   OH232047   5.919   7.809   4.648
10697TIP3    H132048   6.011   7.792   4.625
10697TIP3    H232049   5.877   7.830   4.565
10698TIP3   OH232050   3.653   3.087   5.972
10698TIP3    H132051   3.726   3.080   6.033
10698TIP3    H232052   3.631   3.180   5.971
10699TIP3   OH232053   6.476   4.325   5.689
10699TIP3    H132054   6.492   4.392   5.623
10699TIP3    H232055   6.411   4.363   5.747
10700TIP3   OH232056   6.606   2.960   0.680
10700TIP3    H132057   6.525   2.933   0.724
10700TIP3    H232058   6.640   3.031   0.735
10701TIP3   OH232059   3.417   4.510   2.980
10701TIP3    H132060   3.503   4.529   2.942
10701TIP3    H232061   3.404   4.416   2.966
10702TIP3   OH232062   0.396   3.129   4.498
10702TIP3    H132063   0.326   3.063   4.498
10702TIP3    H232064   0.464   3.091   4.553
10703TIP3   OH232065   0.312   7.018   1.547
10703TIP3    H132066   0.278   7.084   1.606
10703TIP3    H232067   0.281   7.044   1.461
10704TIP3   OH232068   4.497   4.625   6.007
10704TIP3    H132069   4.514   4.598   5.917
10704TIP3    H232070   4.411   4.588   6.028
10705TIP3   OH232071   3.947   5.638   6.549
10705TIP3    H132072   3.859   5.673   6.533
10705TIP3    H232073   3.937   5.544   6.536
10706TIP3   OH232074   1.680   3.159   0.934
10706TIP3    H132075   1.775   3.154   0.942
10706TIP3    H232076   1.653   3.214   1.008
10707TIP3   OH232077   0.713   4.811   6.743
10707TIP3    H132078   0.795   4.838   6.702
10707TIP3    H232079   0.655   4.887   6.731
10708TIP3   OH232080   4.946   4.554   2.196
10708TIP3    H132081   5.023   4.523   2.243
10708TIP3    H232082   4.929   4.641   2.233
10709TIP3   OH232083   6.533   7.560   6.670
10709TIP3    H132084   6.477   7.584   6.743
10709TIP3    H232085   6.594   7.633   6.662
10710TIP3   OH232086   3.751  -0.003   5.589
10710TIP3    H132087   3.831   0.001   5.642
10710TIP3    H232088   3.781   0.006   5.499
10711TIP3   OH232089   4.077   5.140   3.252
10711TIP3    H132090   4.030   5.062   3.281
10711TIP3    H232091   4.156   5.142   3.307
10712TIP3   OH232092   6.539   0.851   3.128
10712TIP3    H132093   6.510   0.816   3.044
10712TIP3    H232094   6.564   0.775   3.179
10713TIP3   OH232095   6.295   4.943   4.592
10713TIP3    H132096   6.228   5.004   4.560
10713TIP3    H232097   6.351   4.997   4.648
10714TIP3   OH232098   1.831   6.982   6.682
10714TIP3    H132099   1.861   6.949   6.598
10714TIP3    H232100   1.759   7.042   6.660
10715TIP3   OH232101   6.741   3.002   5.197
10715TIP3    H132102   6.770   3.076   5.251
10715TIP3    H232103   6.742   3.036   5.108
10716TIP3   OH232104   4.698   0.246   0.682
10716TIP3    H132105   4.701   0.335   0.716
10716TIP3    H232106   4.663   0.256   0.593
10717TIP3   OH232107   5.162   6.708   0.557
10717TIP3    H132108   5.161   6.641   0.489
10717TIP3    H232109   5.155   6.790   0.509
10718TIP3   OH232110   8.094   5.608   4.245
10718TIP3    H132111   8.067   5.668   4.176
10718TIP3    H232112   8.078   5.656   4.326
10719TIP3   OH232113   0.749   2.958   3.344
10719TIP3    H132114   0.793   2.946   3.260
10719TIP3    H232115   0.660   2.925   3.329
10720TIP3   OH232116   8.188   4.136   2.759
10720TIP3    H132117   8.171   4.176   2.844
10720TIP3    H232118   8.260   4.188   2.722
10721TIP3   OH232119   4.788   5.624   2.881
10721TIP3    H132120   4.726   5.642   2.810
10721TIP3    H232121   4.812   5.710   2.914
10722TIP3   OH232122   0.811   6.279   5.497
10722TIP3    H132123   0.792   6.352   5.437
10722TIP3    H232124   0.902   6.256   5.480
10723TIP3   OH232125   0.419   4.314   2.821
10723TIP3    H132126   0.514   4.313   2.807
10723TIP3    H232127   0.390   4.397   2.784
10724TIP3   OH232128   1.793   0.885   2.833
10724TIP3    H132129   1.828   0.797   2.839
10724TIP3    H232130   1.862   0.941   2.870
10725TIP3   OH232131   4.498   6.688   6.216
10725TIP3    H132132   4.427   6.658   6.158
10725TIP3    H232133   4.537   6.607   6.249
10726TIP3   OH232134   2.992   5.055   4.989
10726TIP3    H132135   3.005   4.965   4.959
10726TIP3    H232136   3.022   5.054   5.080
10727TIP3   OH232137   4.952   7.086   4.884
10727TIP3    H132138   4.906   7.003   4.872
10727TIP3    H232139   4.913   7.145   4.820
10728TIP3   OH232140   1.494   2.706   0.016
10728TIP3    H132141   1.526   2.739  -0.068
10728TIP3    H232142   1.484   2.785   0.071
10729TIP3   OH232143   0.878   3.192   1.871
10729TIP3    H132144   0.880   3.273   1.922
10729TIP3    H232145   0.792   3.154   1.890
10730TIP3   OH232146   1.905   1.585   3.080
10730TIP3    H132147   1.981   1.643   3.081
10730TIP3    H232148   1.895   1.557   3.171
10731TIP3   OH232149   3.375   1.381   0.539
10731TIP3    H132150   3.319   1.310   0.572
10731TIP3    H232151   3.358   1.384   0.445
10732TIP3   OH232152   2.016   1.121   2.351
10732TIP3    H132153   2.049   1.062   2.418
10732TIP3    H232154   1.946   1.170   2.394
10733TIP3   OH232155   6.837   7.607   3.573
10733TIP3    H132156   6.869   7.522   3.604
10733TIP3    H232157   6.888   7.670   3.623
10734TIP3   OH232158   2.280   2.406   1.867
10734TIP3    H132159   2.323   2.484   1.903
10734TIP3    H232160   2.352   2.356   1.828
10735TIP3   OH232161   1.831   6.137   5.184
10735TIP3    H132162   1.882   6.218   5.187
10735TIP3    H232163   1.853   6.097   5.100
10736TIP3   OH232164   2.705   7.644   5.992
10736TIP3    H132165   2.784   7.601   5.958
10736TIP3    H232166   2.718   7.737   5.973
10737TIP3   OH232167   4.877   6.252   3.322
10737TIP3    H132168   4.832   6.235   3.406
10737TIP3    H232169   4.966   6.221   3.336
10738TIP3   OH232170   3.274   0.163   0.863
10738TIP3    H132171   3.361   0.203   0.858
10738TIP3    H232172   3.291   0.069   0.873
10739TIP3   OH232173   1.296   4.978   6.342
10739TIP3    H132174   1.240   4.900   6.342
10739TIP3    H232175   1.383   4.945   6.364
10740TIP3   OH232176   6.061   6.317   6.115
10740TIP3    H132177   6.147   6.301   6.153
10740TIP3    H232178   6.005   6.250   6.155
10741TIP3   OH232179   5.321   0.583   3.052
10741TIP3    H132180   5.265   0.505   3.047
10741TIP3    H232181   5.332   0.598   3.146
10742TIP3   OH232182   8.142   5.116   0.938
10742TIP3    H132183   8.163   5.203   0.972
10742TIP3    H232184   8.110   5.068   1.015
10743TIP3   OH232185   0.336   1.482   1.066
10743TIP3    H132186   0.399   1.511   1.132
10743TIP3    H232187   0.339   1.386   1.070
10744TIP3   OH232188   5.555   6.315   0.784
10744TIP3    H132189   5.514   6.401   0.790
10744TIP3    H232190   5.483   6.253   0.802
10745TIP3   OH232191   2.685   0.556   6.111
10745TIP3    H132192   2.729   0.479   6.148
10745TIP3    H232193   2.726   0.567   6.025
10746TIP3   OH232194   0.503   2.816   4.473
10746TIP3    H132195   0.596   2.795   4.469
10746TIP3    H232196   0.475   2.788   4.560
10747TIP3   OH232197   7.437   3.724   3.583
10747TIP3    H132198   7.424   3.724   3.678
10747TIP3    H232199   7.531   3.738   3.572
10748TIP3   OH232200   4.110   6.819   0.475
10748TIP3    H132201   4.060   6.741   0.500
10748TIP3    H232202   4.047   6.872   0.426
10749TIP3   OH232203   0.055   7.524   0.742
10749TIP3    H132204   0.005   7.530   0.661
10749TIP3    H232205   0.130   7.581   0.728
10750TIP3   OH232206   2.055   6.265   3.025
10750TIP3    H132207   2.050   6.197   3.092
10750TIP3    H232208   2.124   6.324   3.056
10751TIP3   OH232209   2.778   3.783   2.441
10751TIP3    H132210   2.706   3.790   2.504
10751TIP3    H232211   2.842   3.846   2.471
10752TIP3   OH232212   6.333   7.672   0.829
10752TIP3    H132213   6.326   7.716   0.914
10752TIP3    H232214   6.243   7.658   0.802
10753TIP3   OH232215   0.824   7.800   1.607
10753TIP3    H132216   0.889   7.812   1.538
10753TIP3    H232217   0.876   7.782   1.685
10754TIP3   OH232218   0.454   6.462   2.223
10754TIP3    H132219   0.420   6.452   2.312
10754TIP3    H232220   0.462   6.557   2.211
10755TIP3   OH232221   5.661   2.928   6.360
10755TIP3    H132222   5.731   2.910   6.423
10755TIP3    H232223   5.683   3.014   6.324
10756TIP3   OH232224   5.161   3.914   3.860
10756TIP3    H132225   5.167   3.860   3.781
10756TIP3    H232226   5.183   4.002   3.830
10757TIP3   OH232227   6.686   7.150   0.986
10757TIP3    H132228   6.637   7.116   0.911
10757TIP3    H232229   6.751   7.083   1.005
10758TIP3   OH232230   6.411   5.400   0.466
10758TIP3    H132231   6.330   5.404   0.517
10758TIP3    H232232   6.437   5.492   0.454
10759TIP3   OH232233   0.562   7.309   1.020
10759TIP3    H132234   0.510   7.253   1.079
10759TIP3    H232235   0.499   7.373   0.988
10760TIP3   OH232236   4.147   1.130   0.182
10760TIP3    H132237   4.091   1.083   0.244
10760TIP3    H232238   4.087   1.187   0.134
10761TIP3   OH232239   1.481   6.182   5.845
10761TIP3    H132240   1.452   6.243   5.913
10761TIP3    H232241   1.419   6.109   5.850
10762TIP3   OH232242   2.009   3.614   3.299
10762TIP3    H132243   2.085   3.672   3.303
10762TIP3    H232244   1.934   3.672   3.308
10763TIP3   OH232245   4.968   7.561   5.698
10763TIP3    H132246   5.037   7.547   5.763
10763TIP3    H232247   4.979   7.490   5.635
10764TIP3   OH232248   0.342   3.090   4.169
10764TIP3    H132249   0.388   3.104   4.252
10764TIP3    H232250   0.316   2.998   4.171
10765TIP3   OH232251   5.185   5.352   1.639
10765TIP3    H132252   5.258   5.339   1.578
10765TIP3    H232253   5.176   5.447   1.645
10766TIP3   OH232254   0.422   4.038   0.634
10766TIP3    H132255   0.423   3.950   0.596
10766TIP3    H232256   0.387   4.025   0.722
10767TIP3   OH232257   4.895   7.255   0.960
10767TIP3    H132258   4.856   7.283   0.877
10767TIP3    H232259   4.863   7.319   1.024
10768TIP3   OH232260   2.833   4.348   1.546
10768TIP3    H132261   2.919   4.306   1.548
10768TIP3    H232262   2.836   4.406   1.470
10769TIP3   OH232263   1.726   1.780   0.839
10769TIP3    H132264   1.679   1.840   0.897
10769TIP3    H232265   1.661   1.751   0.776
10770TIP3   OH232266   1.138   7.658   3.534
10770TIP3    H132267   1.077   7.691   3.468
10770TIP3    H232268   1.082   7.620   3.601
10771TIP3   OH232269   4.984   3.643   0.418
10771TIP3    H132270   5.014   3.696   0.492
10771TIP3    H232271   4.892   3.624   0.438
10772TIP3   OH232272   7.949   4.005   3.755
10772TIP3    H132273   7.868   3.961   3.727
10772TIP3    H232274   8.017   3.938   3.745
10773TIP3   OH232275   6.875   3.382   0.188
10773TIP3    H132276   6.921   3.379   0.272
10773TIP3    H232277   6.785   3.407   0.211
10774TIP3   OH232278   5.431   3.823   3.416
10774TIP3    H132279   5.414   3.751   3.356
10774TIP3    H232280   5.425   3.902   3.362
10775TIP3   OH232281   4.502   0.063   3.415
10775TIP3    H132282   4.460   0.029   3.495
10775TIP3    H232283   4.571   0.121   3.447
10776TIP3   OH232284   3.560   0.326   2.224
10776TIP3    H132285   3.653   0.306   2.223
10776TIP3    H232286   3.530   0.300   2.311
10777TIP3   OH232287   7.724   3.719   2.558
10777TIP3    H132288   7.629   3.711   2.572
10777TIP3    H232289   7.735   3.700   2.465
10778TIP3   OH232290   4.542   0.573   6.350
10778TIP3    H132291   4.581   0.655   6.380
10778TIP3    H232292   4.464   0.600   6.301
10779TIP3   OH232293   7.811   2.316   0.358
10779TIP3    H132294   7.875   2.270   0.411
10779TIP3    H232295   7.830   2.409   0.373
10780TIP3   OH232296   2.064   5.869   3.543
10780TIP3    H132297   2.076   5.778   3.570
10780TIP3    H232298   1.969   5.880   3.536
10781TIP3   OH232299   4.754   0.709   1.624
10781TIP3    H132300   4.662   0.730   1.605
10781TIP3    H232301   4.772   0.632   1.569
10782TIP3   OH232302   7.268   4.547   5.550
10782TIP3    H132303   7.342   4.503   5.507
10782TIP3    H232304   7.290   4.640   5.545
10783TIP3   OH232305   6.495   6.371   6.145
10783TIP3    H132306   6.431   6.302   6.164
10783TIP3    H232307   6.579   6.325   6.139
10784TIP3   OH232308   5.362   5.779   6.059
10784TIP3    H132309   5.403   5.695   6.039
10784TIP3    H232310   5.384   5.795   6.151
10785TIP3   OH232311   4.307   4.241   5.837
10785TIP3    H132312   4.370   4.232   5.766
10785TIP3    H232313   4.222   4.248   5.793
10786TIP3   OH232314   5.588   7.312   0.634
10786TIP3    H132315   5.520   7.323   0.568
10786TIP3    H232316   5.580   7.221   0.662
10787TIP3   OH232317   4.240   0.602   2.319
10787TIP3    H132318   4.283   0.528   2.362
10787TIP3    H232319   4.310   0.664   2.300
10788TIP3   OH232320   4.174   4.491   3.642
10788TIP3    H132321   4.095   4.447   3.609
10788TIP3    H232322   4.182   4.569   3.587
10789TIP3   OH232323   4.283   0.846   6.618
10789TIP3    H132324   4.224   0.910   6.657
10789TIP3    H232325   4.226   0.778   6.583
10790TIP3   OH232326   5.714   5.301   1.320
10790TIP3    H132327   5.719   5.209   1.294
10790TIP3    H232328   5.787   5.313   1.381
10791TIP3   OH232329   1.561   2.407   3.907
10791TIP3    H132330   1.600   2.478   3.959
10791TIP3    H232331   1.572   2.436   3.816
10792TIP3   OH232332   7.255   6.990   5.243
10792TIP3    H132333   7.298   7.075   5.236
10792TIP3    H232334   7.162   7.010   5.254
10793TIP3   OH232335   0.220   7.129   4.975
10793TIP3    H132336   0.218   7.174   4.891
10793TIP3    H232337   0.211   7.036   4.954
10794TIP3   OH232338   6.562   1.387   4.306
10794TIP3    H132339   6.523   1.321   4.249
10794TIP3    H232340   6.489   1.446   4.326
10795TIP3   OH232341   1.262   7.766   1.583
10795TIP3    H132342   1.312   7.771   1.501
10795TIP3    H232343   1.319   7.717   1.643
10796TIP3   OH232344   7.380   5.568   5.454
10796TIP3    H132345   7.369   5.655   5.491
10796TIP3    H232346   7.443   5.579   5.383
10797TIP3   OH232347   2.270   1.345   4.351
10797TIP3    H132348   2.225   1.428   4.334
10797TIP3    H232349   2.301   1.353   4.441
10798TIP3   OH232350   8.126   2.332   2.824
10798TIP3    H132351   8.034   2.331   2.850
10798TIP3    H232352   8.129   2.392   2.749
10799TIP3   OH232353   4.428   2.419   4.331
10799TIP3    H132354   4.334   2.402   4.332
10799TIP3    H232355   4.453   2.411   4.239
10800TIP3   OH232356   3.672   2.286   0.467
10800TIP3    H132357   3.683   2.379   0.488
10800TIP3    H232358   3.732   2.241   0.527
10801TIP3   OH232359   7.675   1.878   6.416
10801TIP3    H132360   7.640   1.901   6.502
10801TIP3    H232361   7.769   1.869   6.430
10802TIP3   OH232362   1.134   7.500   5.470
10802TIP3    H132363   1.173   7.498   5.383
10802TIP3    H232364   1.072   7.427   5.471
10803TIP3   OH232365   3.290   5.205   3.525
10803TIP3    H132366   3.262   5.273   3.586
10803TIP3    H232367   3.209   5.171   3.487
10804TIP3   OH232368   2.286   0.988   3.703
10804TIP3    H132369   2.364   0.934   3.709
10804TIP3    H232370   2.213   0.929   3.722
10805TIP3   OH232371   2.081   2.931   2.812
10805TIP3    H132372   2.154   2.986   2.842
10805TIP3    H232373   2.025   2.991   2.763
10806TIP3   OH232374   0.421   5.108   3.008
10806TIP3    H132375   0.351   5.173   3.004
10806TIP3    H232376   0.375   5.025   3.027
10807TIP3   OH232377   4.357   3.741   2.893
10807TIP3    H132378   4.327   3.682   2.962
10807TIP3    H232379   4.343   3.829   2.927
10808TIP3   OH232380   6.253   5.900   6.339
10808TIP3    H132381   6.348   5.905   6.331
10808TIP3    H232382   6.235   5.806   6.340
10809TIP3   OH232383   1.412   3.218   3.356
10809TIP3    H132384   1.499   3.199   3.390
10809TIP3    H232385   1.410   3.313   3.345
10810TIP3   OH232386   2.273   7.242   0.330
10810TIP3    H132387   2.352   7.293   0.351
10810TIP3    H232388   2.306   7.155   0.308
10811TIP3   OH232389   1.668   5.840   0.094
10811TIP3    H132390   1.634   5.791   0.019
10811TIP3    H232391   1.756   5.805   0.107
10812TIP3   OH232392   7.646   5.544   2.942
10812TIP3    H132393   7.557   5.577   2.955
10812TIP3    H232394   7.696   5.620   2.912
10813TIP3   OH232395   7.222   3.527   0.274
10813TIP3    H132396   7.191   3.558   0.189
10813TIP3    H232397   7.318   3.527   0.266
10814TIP3   OH232398   1.641   5.900   0.720
10814TIP3    H132399   1.565   5.877   0.774
10814TIP3    H232400   1.610   5.972   0.665
10815TIP3   OH232401   5.577   0.718   1.723
10815TIP3    H132402   5.528   0.653   1.773
10815TIP3    H232403   5.516   0.790   1.711
10816TIP3   OH232404   5.491   1.085   4.264
10816TIP3    H132405   5.419   1.148   4.260
10816TIP3    H232406   5.570   1.138   4.258
10817TIP3   OH232407   2.075   5.960   0.708
10817TIP3    H132408   1.996   5.918   0.742
10817TIP3    H232409   2.074   5.943   0.614
10818TIP3   OH232410   6.763   0.440   0.586
10818TIP3    H132411   6.723   0.473   0.667
10818TIP3    H232412   6.718   0.489   0.516
10819TIP3   OH232413   3.368   7.182   4.777
10819TIP3    H132414   3.322   7.253   4.733
10819TIP3    H232415   3.423   7.226   4.842
10820TIP3   OH232416   6.643   0.767   4.096
10820TIP3    H132417   6.674   0.776   4.007
10820TIP3    H232418   6.564   0.712   4.089
10821TIP3   OH232419   5.914   0.702   3.405
10821TIP3    H132420   5.917   0.763   3.331
10821TIP3    H232421   5.969   0.628   3.378
10822TIP3   OH232422   0.785   4.713   1.624
10822TIP3    H132423   0.722   4.739   1.556
10822TIP3    H232424   0.775   4.779   1.693
10823TIP3   OH232425   1.117   0.931   2.966
10823TIP3    H132426   1.111   0.971   2.880
10823TIP3    H232427   1.191   0.871   2.960
10824TIP3   OH232428   3.410   4.741   4.135
10824TIP3    H132429   3.401   4.696   4.051
10824TIP3    H232430   3.432   4.831   4.113
10825TIP3   OH232431   7.022   3.025   0.785
10825TIP3    H132432   7.047   3.085   0.715
10825TIP3    H232433   7.025   3.079   0.864
10826TIP3   OH232434   2.151   6.424   3.355
10826TIP3    H132435   2.076   6.366   3.345
10826TIP3    H232436   2.112   6.511   3.365
10827TIP3   OH232437   4.005   2.798   5.171
10827TIP3    H132438   4.015   2.704   5.188
10827TIP3    H232439   4.076   2.820   5.111
10828TIP3   OH232440   7.396   2.249   6.693
10828TIP3    H132441   7.408   2.298   6.774
10828TIP3    H232442   7.475   2.196   6.684
10829TIP3   OH232443   5.692   7.757   3.052
10829TIP3    H132444   5.626   7.826   3.037
10829TIP3    H232445   5.757   7.798   3.109
10830TIP3   OH232446   5.197   0.293   5.286
10830TIP3    H132447   5.166   0.373   5.245
10830TIP3    H232448   5.245   0.246   5.217
10831TIP3   OH232449   3.141   6.644   2.039
10831TIP3    H132450   3.121   6.715   2.100
10831TIP3    H232451   3.237   6.644   2.034
10832TIP3   OH232452   6.631   1.865   2.094
10832TIP3    H132453   6.557   1.812   2.122
10832TIP3    H232454   6.708   1.815   2.121
10833TIP3   OH232455   2.391   0.494   2.425
10833TIP3    H132456   2.445   0.538   2.359
10833TIP3    H232457   2.331   0.563   2.456
10834TIP3   OH232458   6.348   7.394   3.426
10834TIP3    H132459   6.439   7.414   3.451
10834TIP3    H232460   6.347   7.403   3.331
10835TIP3   OH232461   3.732   1.843   0.039
10835TIP3    H132462   3.813   1.846   0.090
10835TIP3    H232463   3.700   1.754   0.050
10836TIP3   OH232464   2.754   5.071   0.351
10836TIP3    H132465   2.743   4.977   0.343
10836TIP3    H232466   2.846   5.086   0.329
10837TIP3   OH232467   5.235   3.242   3.134
10837TIP3    H132468   5.183   3.217   3.210
10837TIP3    H232469   5.270   3.160   3.100
10838TIP3   OH232470   0.356   1.498   3.601
10838TIP3    H132471   0.272   1.484   3.556
10838TIP3    H232472   0.420   1.505   3.530
10839TIP3   OH232473   5.886   7.208   0.030
10839TIP3    H132474   5.805   7.173   0.065
10839TIP3    H232475   5.858   7.266  -0.041
10840TIP3   OH232476   3.572   6.066   2.211
10840TIP3    H132477   3.571   5.983   2.164
10840TIP3    H232478   3.482   6.098   2.206
10841TIP3   OH232479   4.485   2.813   6.006
10841TIP3    H132480   4.465   2.897   6.048
10841TIP3    H232481   4.407   2.760   6.018
10842TIP3   OH232482   4.634   3.416   5.222
10842TIP3    H132483   4.600   3.502   5.200
10842TIP3    H232484   4.614   3.362   5.146
10843TIP3   OH232485   6.757   2.192   4.955
10843TIP3    H132486   6.821   2.248   4.911
10843TIP3    H232487   6.806   2.113   4.977
10844TIP3   OH232488   2.110   4.309   3.899
10844TIP3    H132489   2.076   4.259   3.973
10844TIP3    H232490   2.061   4.277   3.824
10845TIP3   OH232491   6.187   3.699   4.034
10845TIP3    H132492   6.265   3.647   4.057
10845TIP3    H232493   6.183   3.768   4.100
10846TIP3   OH232494   6.031   3.663   2.885
10846TIP3    H132495   6.016   3.633   2.975
10846TIP3    H232496   6.053   3.755   2.894
10847TIP3   OH232497   7.570   5.775   1.955
10847TIP3    H132498   7.553   5.688   1.990
10847TIP3    H232499   7.484   5.812   1.940
10848TIP3   OH232500   4.363   7.073   2.417
10848TIP3    H132501   4.299   7.074   2.346
10848TIP3    H232502   4.435   7.020   2.384
10849TIP3   OH232503   8.030   4.939   3.762
10849TIP3    H132504   7.971   4.999   3.807
10849TIP3    H232505   8.118   4.973   3.781
10850TIP3   OH232506   2.551   5.994   3.261
10850TIP3    H132507   2.460   6.025   3.259
10850TIP3    H232508   2.593   6.037   3.187
10851TIP3   OH232509   1.057   4.220   2.129
10851TIP3    H132510   1.051   4.220   2.225
10851TIP3    H232511   1.033   4.131   2.104
10852TIP3   OH232512   2.616   1.194   1.752
10852TIP3    H132513   2.641   1.232   1.668
10852TIP3    H232514   2.569   1.114   1.730
10853TIP3   OH232515   7.803   5.337   5.595
10853TIP3    H132516   7.850   5.392   5.658
10853TIP3    H232517   7.826   5.248   5.619
10854TIP3   OH232518   1.772   1.293   4.481
10854TIP3    H132519   1.853   1.337   4.456
10854TIP3    H232520   1.752   1.234   4.408
10855TIP3   OH232521   5.786   5.297   3.683
10855TIP3    H132522   5.770   5.286   3.589
10855TIP3    H232523   5.869   5.345   3.687
10856TIP3   OH232524   5.366   4.830   6.010
10856TIP3    H132525   5.325   4.897   5.955
10856TIP3    H232526   5.299   4.806   6.074
10857TIP3   OH232527   0.158   5.937   3.845
10857TIP3    H132528   0.220   5.885   3.895
10857TIP3    H232529   0.072   5.918   3.884
10858TIP3   OH232530   6.476   1.527   0.453
10858TIP3    H132531   6.454   1.470   0.380
10858TIP3    H232532   6.572   1.531   0.454
10859TIP3   OH232533   2.339   3.209   4.878
10859TIP3    H132534   2.391   3.289   4.880
10859TIP3    H232535   2.355   3.172   4.791
10860TIP3   OH232536   5.294   7.472   0.059
10860TIP3    H132537   5.323   7.557   0.028
10860TIP3    H232538   5.363   7.411   0.031
10861TIP3   OH232539   1.239   5.637   1.121
10861TIP3    H132540   1.193   5.705   1.170
10861TIP3    H232541   1.285   5.587   1.188
10862TIP3   OH232542   8.133   0.400   0.687
10862TIP3    H132543   8.180   0.480   0.665
10862TIP3    H232544   8.161   0.337   0.620
10863TIP3   OH232545   4.936   3.749   2.604
10863TIP3    H132546   5.024   3.720   2.581
10863TIP3    H232547   4.933   3.746   2.700
10864TIP3   OH232548   3.984   1.588   6.233
10864TIP3    H132549   3.932   1.624   6.161
10864TIP3    H232550   4.042   1.525   6.190
10865TIP3   OH232551   2.804   6.338   5.206
10865TIP3    H132552   2.843   6.369   5.124
10865TIP3    H232553   2.718   6.306   5.180
10866TIP3   OH232554   1.169   1.256   3.729
10866TIP3    H132555   1.075   1.241   3.733
10866TIP3    H232556   1.179   1.350   3.748
10867TIP3   OH232557   7.852   5.322   6.368
10867TIP3    H132558   7.774   5.372   6.392
10867TIP3    H232559   7.820   5.252   6.312
10868TIP3   OH232560   6.034   5.453   2.538
10868TIP3    H132561   5.980   5.494   2.606
10868TIP3    H232562   6.063   5.526   2.483
10869TIP3   OH232563   6.464   6.978   1.965
10869TIP3    H132564   6.559   6.964   1.966
10869TIP3    H232565   6.440   6.991   2.057
10870TIP3   OH232566   1.538   5.159   1.698
10870TIP3    H132567   1.470   5.197   1.753
10870TIP3    H232568   1.550   5.222   1.627
10871TIP3   OH232569   3.201   1.946   3.435
10871TIP3    H132570   3.256   1.954   3.357
10871TIP3    H232571   3.111   1.951   3.402
10872TIP3   OH232572   7.267   0.390   2.126
10872TIP3    H132573   7.345   0.438   2.096
10872TIP3    H232574   7.300   0.331   2.194
10873TIP3   OH232575   3.327   5.944   0.006
10873TIP3    H132576   3.264   5.951   0.078
10873TIP3    H232577   3.338   6.034  -0.025
10874TIP3   OH232578   1.407   3.618   0.468
10874TIP3    H132579   1.365   3.689   0.518
10874TIP3    H232580   1.370   3.625   0.380
10875TIP3   OH232581   2.791   2.243   3.877
10875TIP3    H132582   2.705   2.254   3.837
10875TIP3    H232583   2.772   2.220   3.968
10876TIP3   OH232584   3.069   3.850   1.107
10876TIP3    H132585   3.149   3.808   1.139
10876TIP3    H232586   3.038   3.792   1.037
10877TIP3   OH232587   4.031   2.254   4.356
10877TIP3    H132588   4.058   2.198   4.429
10877TIP3    H232589   3.947   2.290   4.384
10878TIP3   OH232590   6.200   4.669   4.513
10878TIP3    H132591   6.228   4.601   4.575
10878TIP3    H232592   6.213   4.751   4.560
10879TIP3   OH232593   7.198   4.859   2.514
10879TIP3    H132594   7.121   4.835   2.566
10879TIP3    H232595   7.236   4.776   2.486
10880TIP3   OH232596   0.234   5.591   2.520
10880TIP3    H132597   0.148   5.557   2.496
10880TIP3    H232598   0.220   5.685   2.531
10881TIP3   OH232599   6.862   0.207   5.795
10881TIP3    H132600   6.866   0.291   5.748
10881TIP3    H232601   6.848   0.142   5.726
10882TIP3   OH232602   8.012   6.617   1.044
10882TIP3    H132603   7.980   6.700   1.009
10882TIP3    H232604   8.073   6.585   0.978
10883TIP3   OH232605   6.693   2.642   2.368
10883TIP3    H132606   6.658   2.565   2.323
10883TIP3    H232607   6.777   2.659   2.326
10884TIP3   OH232608   5.849   1.462   0.476
10884TIP3    H132609   5.869   1.374   0.508
10884TIP3    H232610   5.934   1.501   0.458
10885TIP3   OH232611   1.099   2.482   1.381
10885TIP3    H132612   1.031   2.433   1.334
10885TIP3    H232613   1.060   2.567   1.399
10886TIP3   OH232614   4.870   2.937   4.295
10886TIP3    H132615   4.845   2.906   4.382
10886TIP3    H232616   4.919   3.018   4.312
10887TIP3   OH232617   8.231   3.501   2.661
10887TIP3    H132618   8.143   3.499   2.623
10887TIP3    H232619   8.234   3.582   2.712
10888TIP3   OH232620   6.505   4.728   3.773
10888TIP3    H132621   6.449   4.690   3.841
10888TIP3    H232622   6.445   4.779   3.718
10889TIP3   OH232623   2.548   5.536   6.625
10889TIP3    H132624   2.561   5.614   6.571
10889TIP3    H232625   2.573   5.563   6.713
10890TIP3   OH232626   4.525   2.123   1.721
10890TIP3    H132627   4.435   2.109   1.692
10890TIP3    H232628   4.578   2.104   1.643
10891TIP3   OH232629   5.181   0.854   3.354
10891TIP3    H132630   5.159   0.905   3.275
10891TIP3    H232631   5.182   0.919   3.424
10892TIP3   OH232632   2.547   2.037   3.073
10892TIP3    H132633   2.476   2.008   3.015
10892TIP3    H232634   2.528   2.129   3.091
10893TIP3   OH232635   0.103   3.065   2.671
10893TIP3    H132636   0.185   3.023   2.697
10893TIP3    H232637   0.121   3.158   2.678
10894TIP3   OH232638   5.179   3.251   5.244
10894TIP3    H132639   5.194   3.168   5.198
10894TIP3    H232640   5.101   3.288   5.203
10895TIP3   OH232641   6.071   3.364   0.953
10895TIP3    H132642   6.069   3.419   0.874
10895TIP3    H232643   6.005   3.403   1.011
10896TIP3   OH232644   0.905   5.133   1.583
10896TIP3    H132645   0.907   5.223   1.619
10896TIP3    H232646   0.995   5.116   1.557
10897TIP3   OH232647   5.505   3.691   4.880
10897TIP3    H132648   5.537   3.656   4.963
10897TIP3    H232649   5.574   3.751   4.851
10898TIP3   OH232650   3.698   0.752   5.630
10898TIP3    H132651   3.769   0.716   5.577
10898TIP3    H232652   3.743   0.805   5.697
10899TIP3   OH232653   1.826   5.453   1.339
10899TIP3    H132654   1.850   5.370   1.380
10899TIP3    H232655   1.855   5.520   1.402
10900TIP3   OH232656   3.449   7.713   4.424
10900TIP3    H132657   3.510   7.761   4.480
10900TIP3    H232658   3.376   7.774   4.410
10901TIP3   OH232659   7.195   1.455   3.616
10901TIP3    H132660   7.289   1.469   3.618
10901TIP3    H232661   7.174   1.441   3.524
10902TIP3   OH232662   2.418   4.928   6.239
10902TIP3    H132663   2.434   4.836   6.216
10902TIP3    H232664   2.501   4.972   6.218
10903TIP3   OH232665   7.918   1.645   4.580
10903TIP3    H132666   7.980   1.594   4.631
10903TIP3    H232667   7.971   1.707   4.531
10904TIP3   OH232668   3.888   1.423   3.126
10904TIP3    H132669   3.975   1.420   3.166
10904TIP3    H232670   3.875   1.515   3.104
10905TIP3   OH232671   0.838   2.374   2.653
10905TIP3    H132672   0.916   2.340   2.697
10905TIP3    H232673   0.793   2.425   2.720
10906TIP3   OH232674   6.450   4.795   4.791
10906TIP3    H132675   6.398   4.834   4.862
10906TIP3    H232676   6.389   4.790   4.718
10907TIP3   OH232677   4.691   2.524   4.972
10907TIP3    H132678   4.672   2.459   4.905
10907TIP3    H232679   4.787   2.527   4.974
10908TIP3   OH232680   0.948   0.306   3.663
10908TIP3    H132681   0.860   0.320   3.628
10908TIP3    H232682   0.970   0.216   3.637
10909TIP3   OH232683   2.577   1.879   1.597
10909TIP3    H132684   2.647   1.942   1.580
10909TIP3    H232685   2.534   1.912   1.676
10910TIP3   OH232686   2.224   4.239   6.084
10910TIP3    H132687   2.145   4.293   6.090
10910TIP3    H232688   2.238   4.208   6.173
10911TIP3   OH232689   5.110   4.233   6.771
10911TIP3    H132690   5.105   4.155   6.714
10911TIP3    H232691   5.198   4.230   6.808
10912TIP3   OH232692   7.350   0.981   1.397
10912TIP3    H132693   7.345   1.040   1.321
10912TIP3    H232694   7.337   1.039   1.472
10913TIP3   OH232695   0.628   4.788   6.465
10913TIP3    H132696   0.683   4.732   6.520
10913TIP3    H232697   0.689   4.847   6.422
10914TIP3   OH232698   1.814   3.211   6.432
10914TIP3    H132699   1.736   3.175   6.475
10914TIP3    H232700   1.829   3.295   6.476
10915TIP3   OH232701   6.142   5.501   5.446
10915TIP3    H132702   6.203   5.476   5.377
10915TIP3    H232703   6.198   5.515   5.523
10916TIP3   OH232704   2.398   0.387   6.628
10916TIP3    H132705   2.402   0.291   6.624
10916TIP3    H232706   2.441   0.416   6.548
10917TIP3   OH232707   0.426   1.250   0.081
10917TIP3    H132708   0.509   1.212   0.112
10917TIP3    H232709   0.399   1.193   0.009
10918TIP3   OH232710   8.054   0.255   4.848
10918TIP3    H132711   8.091   0.167   4.839
10918TIP3    H232712   7.975   0.253   4.794
10919TIP3   OH232713   1.082   2.868   2.723
10919TIP3    H132714   0.992   2.848   2.748
10919TIP3    H232715   1.077   2.951   2.676
10920TIP3   OH232716   2.586   2.491   2.833
10920TIP3    H132717   2.592   2.526   2.744
10920TIP3    H232718   2.497   2.513   2.861
10921TIP3   OH232719   3.045   6.169   0.355
10921TIP3    H132720   3.057   6.239   0.419
10921TIP3    H232721   3.134   6.136   0.338
10922TIP3   OH232722   6.808   7.690   2.272
10922TIP3    H132723   6.828   7.613   2.326
10922TIP3    H232724   6.730   7.665   2.224
10923TIP3   OH232725   7.516   2.094   5.740
10923TIP3    H132726   7.421   2.104   5.746
10923TIP3    H232727   7.529   2.017   5.685
10924TIP3   OH232728   4.392   4.701   1.815
10924TIP3    H132729   4.455   4.629   1.807
10924TIP3    H232730   4.315   4.661   1.855
10925TIP3   OH232731   4.447   1.580   0.215
10925TIP3    H132732   4.509   1.625   0.158
10925TIP3    H232733   4.469   1.611   0.303
10926TIP3   OH232734   4.417   3.187   1.425
10926TIP3    H132735   4.471   3.113   1.454
10926TIP3    H232736   4.479   3.248   1.386
10927TIP3   OH232737   3.258   0.410   6.367
10927TIP3    H132738   3.181   0.380   6.320
10927TIP3    H232739   3.269   0.347   6.439
10928TIP3   OH232740   0.593   2.820   5.131
10928TIP3    H132741   0.598   2.849   5.039
10928TIP3    H232742   0.672   2.766   5.142
10929TIP3   OH232743   7.853   0.428   1.701
10929TIP3    H132744   7.920   0.360   1.712
10929TIP3    H232745   7.800   0.398   1.627
10930TIP3   OH232746   1.385   7.468   2.636
10930TIP3    H132747   1.426   7.549   2.666
10930TIP3    H232748   1.309   7.498   2.585
10931TIP3   OH232749   0.619   1.251   3.354
10931TIP3    H132750   0.578   1.337   3.346
10931TIP3    H232751   0.551   1.195   3.391
10932TIP3   OH232752   5.400   6.607   3.273
10932TIP3    H132753   5.448   6.619   3.355
10932TIP3    H232754   5.453   6.545   3.223
10933TIP3   OH232755   2.319   3.135   4.598
10933TIP3    H132756   2.234   3.167   4.569
10933TIP3    H232757   2.366   3.114   4.517
10934TIP3   OH232758   5.923   3.166   2.841
10934TIP3    H132759   5.913   3.152   2.935
10934TIP3    H232760   5.962   3.085   2.808
10935TIP3   OH232761   3.993   0.002   2.321
10935TIP3    H132762   4.074  -0.014   2.370
10935TIP3    H232763   4.010   0.083   2.273
10936TIP3   OH232764   6.893   3.956   1.896
10936TIP3    H132765   6.877   3.938   1.803
10936TIP3    H232766   6.962   3.894   1.921
10937TIP3   OH232767   6.952   0.805   5.906
10937TIP3    H132768   7.036   0.818   5.862
10937TIP3    H232769   6.891   0.782   5.836
10938TIP3   OH232770   3.145   4.702   6.396
10938TIP3    H132771   3.226   4.700   6.447
10938TIP3    H232772   3.126   4.610   6.378
10939TIP3   OH232773   0.555   1.929   2.124
10939TIP3    H132774   0.609   2.007   2.139
10939TIP3    H232775   0.495   1.926   2.198
10940TIP3   OH232776   1.835   7.321   1.632
10940TIP3    H132777   1.789   7.246   1.669
10940TIP3    H232778   1.922   7.318   1.671
10941TIP3   OH232779   8.248   4.654   1.664
10941TIP3    H132780   8.285   4.700   1.739
10941TIP3    H232781   8.206   4.723   1.612
10942TIP3   OH232782   7.981   6.812   4.539
10942TIP3    H132783   8.073   6.790   4.530
10942TIP3    H232784   7.956   6.778   4.625
10943TIP3   OH232785   0.396   2.130   1.973
10943TIP3    H132786   0.418   2.062   2.037
10943TIP3    H232787   0.301   2.124   1.963
10944TIP3   OH232788   1.924   7.588   6.060
10944TIP3    H132789   1.870   7.655   6.017
10944TIP3    H232790   2.004   7.585   6.008
10945TIP3   OH232791   5.900   4.779   1.954
10945TIP3    H132792   5.911   4.765   1.860
10945TIP3    H232793   5.871   4.870   1.961
10946TIP3   OH232794   5.943   1.186   4.635
10946TIP3    H132795   5.851   1.197   4.659
10946TIP3    H232796   5.955   1.091   4.627
10947TIP3   OH232797   0.809   5.847   2.495
10947TIP3    H132798   0.779   5.780   2.433
10947TIP3    H232799   0.800   5.807   2.581
10948TIP3   OH232800   8.191   5.749   2.306
10948TIP3    H132801   8.100   5.775   2.319
10948TIP3    H232802   8.237   5.832   2.293
10949TIP3   OH232803   3.401   6.623   0.373
10949TIP3    H132804   3.404   6.614   0.278
10949TIP3    H232805   3.318   6.583   0.398
10950TIP3   OH232806   8.011   4.675   0.014
10950TIP3    H132807   8.066   4.742  -0.025
10950TIP3    H232808   8.069   4.628   0.074
10951TIP3   OH232809   4.776   7.606   6.641
10951TIP3    H132810   4.761   7.659   6.563
10951TIP3    H232811   4.871   7.608   6.654
10952TIP3   OH232812   5.400   2.375   6.602
10952TIP3    H132813   5.425   2.348   6.514
10952TIP3    H232814   5.483   2.393   6.646
10953TIP3   OH232815   5.463   2.424   1.162
10953TIP3    H132816   5.518   2.347   1.160
10953TIP3    H232817   5.474   2.460   1.250
10954TIP3   OH232818   6.942   7.053   3.444
10954TIP3    H132819   6.975   7.129   3.397
10954TIP3    H232820   6.884   7.089   3.511
10955TIP3   OH232821   3.162   3.558   3.686
10955TIP3    H132822   3.098   3.621   3.718
10955TIP3    H232823   3.121   3.472   3.701
10956TIP3   OH232824   1.345   3.431   4.422
10956TIP3    H132825   1.273   3.417   4.359
10956TIP3    H232826   1.391   3.348   4.424
10957TIP3   OH232827   5.557   1.448   0.329
10957TIP3    H132828   5.630   1.466   0.388
10957TIP3    H232829   5.598   1.412   0.250
10958TIP3   OH232830   4.041   6.789   1.599
10958TIP3    H132831   4.007   6.700   1.614
10958TIP3    H232832   4.020   6.808   1.508
10959TIP3   OH232833   3.673   4.253   1.050
10959TIP3    H132834   3.755   4.292   1.021
10959TIP3    H232835   3.699   4.177   1.102
10960TIP3   OH232836   6.181   0.362   3.802
10960TIP3    H132837   6.135   0.278   3.805
10960TIP3    H232838   6.205   0.379   3.893
10961TIP3   OH232839   6.744   1.128   3.366
10961TIP3    H132840   6.807   1.188   3.405
10961TIP3    H232841   6.793   1.046   3.357
10962TIP3   OH232842   0.691   1.457   2.950
10962TIP3    H132843   0.645   1.381   2.986
10962TIP3    H232844   0.666   1.459   2.858
10963TIP3   OH232845   2.739   2.122   1.882
10963TIP3    H132846   2.778   2.188   1.824
10963TIP3    H232847   2.729   2.045   1.826
10964TIP3   OH232848   3.091   6.784   4.616
10964TIP3    H132849   3.015   6.833   4.584
10964TIP3    H232850   3.144   6.849   4.662
10965TIP3   OH232851   6.345   5.457   5.858
10965TIP3    H132852   6.403   5.432   5.931
10965TIP3    H232853   6.258   5.428   5.886
10966TIP3   OH232854   0.750   4.800   2.863
10966TIP3    H132855   0.838   4.770   2.886
10966TIP3    H232856   0.760   4.894   2.849
10967TIP3   OH232857   7.546   4.481   2.851
10967TIP3    H132858   7.627   4.530   2.834
10967TIP3    H232859   7.487   4.546   2.889
10968TIP3   OH232860   1.423   2.926   6.566
10968TIP3    H132861   1.337   2.929   6.607
10968TIP3    H232862   1.453   2.836   6.579
10969TIP3   OH232863   5.713   3.800   1.016
10969TIP3    H132864   5.713   3.876   0.958
10969TIP3    H232865   5.697   3.836   1.103
10970TIP3   OH232866   5.559   7.117   5.863
10970TIP3    H132867   5.629   7.172   5.828
10970TIP3    H232868   5.601   7.033   5.881
10971TIP3   OH232869   3.589   7.456   3.391
10971TIP3    H132870   3.674   7.500   3.385
10971TIP3    H232871   3.543   7.503   3.460
10972TIP3   OH232872   6.361   0.563   5.549
10972TIP3    H132873   6.348   0.565   5.454
10972TIP3    H232874   6.450   0.529   5.560
10973TIP3   OH232875   4.705   3.580   3.579
10973TIP3    H132876   4.699   3.504   3.522
10973TIP3    H232877   4.661   3.552   3.660
10974TIP3   OH232878   7.485   3.236   0.141
10974TIP3    H132879   7.572   3.223   0.102
10974TIP3    H232880   7.425   3.191   0.081
10975TIP3   OH232881   5.804   6.408   6.297
10975TIP3    H132882   5.715   6.412   6.330
10975TIP3    H232883   5.796   6.409   6.202
10976TIP3   OH232884   2.870   5.579   2.659
10976TIP3    H132885   2.927   5.503   2.648
10976TIP3    H232886   2.797   5.547   2.712
10977TIP3   OH232887   0.197   5.261   3.630
10977TIP3    H132888   0.128   5.215   3.583
10977TIP3    H232889   0.206   5.345   3.584
10978TIP3   OH232890   3.208   0.993   6.718
10978TIP3    H132891   3.148   1.063   6.695
10978TIP3    H232892   3.280   1.000   6.654
10979TIP3   OH232893   6.686   0.371   2.510
10979TIP3    H132894   6.639   0.397   2.430
10979TIP3    H232895   6.639   0.416   2.581
10980TIP3   OH232896   4.886   1.318   3.470
10980TIP3    H132897   4.974   1.340   3.502
10980TIP3    H232898   4.876   1.370   3.390
10981TIP3   OH232899   3.716   0.168   0.468
10981TIP3    H132900   3.647   0.147   0.406
10981TIP3    H232901   3.703   0.108   0.541
10982TIP3   OH232902   7.085   7.061   0.190
10982TIP3    H132903   7.154   7.022   0.135
10982TIP3    H232904   7.038   7.119   0.130
10983TIP3   OH232905   7.843   0.038   5.553
10983TIP3    H132906   7.781  -0.007   5.496
10983TIP3    H232907   7.800   0.041   5.638
10984TIP3   OH232908   3.468   3.813   6.283
10984TIP3    H132909   3.485   3.905   6.263
10984TIP3    H232910   3.546   3.784   6.329
10985TIP3   OH232911   4.260   4.536   6.481
10985TIP3    H132912   4.313   4.614   6.500
10985TIP3    H232913   4.314   4.485   6.420
10986TIP3   OH232914   3.412   6.076   6.394
10986TIP3    H132915   3.340   6.103   6.337
10986TIP3    H232916   3.413   5.980   6.388
10987TIP3   OH232917   1.045   2.461   0.331
10987TIP3    H132918   1.086   2.542   0.300
10987TIP3    H232919   1.086   2.392   0.280
10988TIP3   OH232920   3.027   6.490   1.511
10988TIP3    H132921   3.084   6.562   1.537
10988TIP3    H232922   3.077   6.411   1.533
10989TIP3   OH232923   5.677   5.945   4.857
10989TIP3    H132924   5.582   5.944   4.847
10989TIP3    H232925   5.702   5.853   4.860
10990TIP3   OH232926   1.286   4.112   0.133
10990TIP3    H132927   1.244   4.141   0.052
10990TIP3    H232928   1.253   4.024   0.146
10991TIP3   OH232929   5.771   4.923   6.310
10991TIP3    H132930   5.753   4.900   6.219
10991TIP3    H232931   5.700   4.982   6.334
10992TIP3   OH232932   6.242   2.475   2.699
10992TIP3    H132933   6.175   2.407   2.688
10992TIP3    H232934   6.219   2.517   2.782
10993TIP3   OH232935   5.616   0.041   0.087
10993TIP3    H132936   5.665   0.006   0.161
10993TIP3    H232937   5.624   0.136   0.094
10994TIP3   OH232938   7.267   3.338   5.241
10994TIP3    H132939   7.202   3.269   5.227
10994TIP3    H232940   7.351   3.296   5.226
10995TIP3   OH232941   0.426   0.757   3.556
10995TIP3    H132942   0.362   0.703   3.509
10995TIP3    H232943   0.383   0.778   3.639
10996TIP3   OH232944   6.698   1.173   4.447
10996TIP3    H132945   6.640   1.229   4.396
10996TIP3    H232946   6.771   1.154   4.388
10997TIP3   OH232947   5.075   4.580   5.731
10997TIP3    H132948   4.999   4.524   5.747
10997TIP3    H232949   5.042   4.669   5.745
10998TIP3   OH232950   0.227   5.196   3.244
10998TIP3    H132951   0.210   5.283   3.207
10998TIP3    H232952   0.320   5.198   3.268
10999TIP3   OH232953   4.049   7.455   6.680
10999TIP3    H132954   4.106   7.378   6.676
10999TIP3    H232955   4.054   7.485   6.771
11000TIP3   OH232956   3.859   1.888   0.419
11000TIP3    H132957   3.869   1.951   0.348
11000TIP3    H232958   3.892   1.806   0.384
11001TIP3   OH232959   1.370   4.130   4.458
11001TIP3    H132960   1.449   4.087   4.426
11001TIP3    H232961   1.308   4.125   4.385
11002TIP3   OH232962   4.111   7.328   1.622
11002TIP3    H132963   4.141   7.257   1.566
11002TIP3    H232964   4.125   7.296   1.711
11003TIP3   OH232965   1.968   4.415   5.413
11003TIP3    H132966   1.935   4.326   5.404
11003TIP3    H232967   1.935   4.444   5.498
11004TIP3   OH232968   5.448   4.788   1.260
11004TIP3    H132969   5.410   4.855   1.203
11004TIP3    H232970   5.537   4.819   1.278
11005TIP3   OH232971   0.432   6.983   4.831
11005TIP3    H132972   0.523   6.959   4.813
11005TIP3    H232973   0.438   7.072   4.867
11006TIP3   OH232974   1.010   2.387   4.552
11006TIP3    H132975   1.038   2.421   4.466
11006TIP3    H232976   0.970   2.303   4.532
11007TIP3   OH232977   3.107   0.105   4.683
11007TIP3    H132978   3.079   0.149   4.763
11007TIP3    H232979   3.199   0.083   4.697
11008TIP3   OH232980   7.057   7.033   5.481
11008TIP3    H132981   7.103   7.117   5.474
11008TIP3    H232982   6.966   7.054   5.460
11009TIP3   OH232983   2.469   2.415   6.035
11009TIP3    H132984   2.480   2.334   5.985
11009TIP3    H232985   2.435   2.478   5.971
11010TIP3   OH232986   6.098   3.583   0.754
11010TIP3    H132987   6.041   3.632   0.813
11010TIP3    H232988   6.069   3.607   0.666
11011TIP3   OH232989   6.501   4.324   4.062
11011TIP3    H132990   6.571   4.269   4.027
11011TIP3    H232991   6.474   4.281   4.143
11012TIP3   OH232992   4.542   7.038   5.819
11012TIP3    H132993   4.623   6.989   5.804
11012TIP3    H232994   4.506   7.052   5.732
11013TIP3   OH232995   4.648   0.537   3.834
11013TIP3    H132996   4.663   0.445   3.858
11013TIP3    H232997   4.593   0.571   3.904
11014TIP3   OH232998   2.226   6.472   1.798
11014TIP3    H132999   2.198   6.380   1.793
11014TIP3    H233000   2.194   6.510   1.716
11015TIP3   OH233001   1.536   3.880   3.190
11015TIP3    H133002   1.582   3.957   3.155
11015TIP3    H233003   1.478   3.916   3.257
11016TIP3   OH233004   0.623   7.302   0.379
11016TIP3    H133005   0.650   7.253   0.301
11016TIP3    H233006   0.529   7.313   0.369
11017TIP3   OH233007   4.258   3.310   2.358
11017TIP3    H133008   4.272   3.341   2.268
11017TIP3    H233009   4.321   3.358   2.410
11018TIP3   OH233010   0.242   6.647   5.253
11018TIP3    H133011   0.271   6.556   5.245
11018TIP3    H233012   0.244   6.681   5.164
11019TIP3   OH233013   0.881   1.291   6.211
11019TIP3    H133014   0.803   1.298   6.157
11019TIP3    H233015   0.889   1.197   6.231
11020TIP3   OH233016   7.933   3.530   1.312
11020TIP3    H133017   7.984   3.610   1.320
11020TIP3    H233018   7.938   3.489   1.399
11021TIP3   OH233019   4.340   2.416   0.350
11021TIP3    H133020   4.366   2.505   0.372
11021TIP3    H233021   4.273   2.427   0.283
11022TIP3   OH233022   6.639   0.877   0.573
11022TIP3    H133023   6.654   0.887   0.667
11022TIP3    H233024   6.721   0.904   0.532
11023TIP3   OH233025   8.181   4.736   6.262
11023TIP3    H133026   8.157   4.649   6.294
11023TIP3    H233027   8.250   4.765   6.322
11024TIP3   OH233028   6.825   4.985   3.209
11024TIP3    H133029   6.803   4.944   3.126
11024TIP3    H233030   6.752   5.044   3.227
11025TIP3   OH233031   1.877   3.744   0.438
11025TIP3    H133032   1.858   3.673   0.500
11025TIP3    H233033   1.972   3.754   0.442
11026TIP3   OH233034   5.475   0.056   2.397
11026TIP3    H133035   5.525   0.123   2.351
11026TIP3    H233036   5.540   0.011   2.451
11027TIP3   OH233037   5.425   2.528   0.495
11027TIP3    H133038   5.403   2.561   0.408
11027TIP3    H233039   5.512   2.563   0.513
11028TIP3   OH233040   1.046   5.926  -0.024
11028TIP3    H133041   0.997   5.961   0.051
11028TIP3    H233042   1.114   5.871   0.015
11029TIP3   OH233043   2.637   7.065   2.808
11029TIP3    H133044   2.568   6.999   2.803
11029TIP3    H233045   2.718   7.016   2.798
11030TIP3   OH233046   4.945   0.985   2.296
11030TIP3    H133047   4.876   0.990   2.230
11030TIP3    H233048   5.016   1.038   2.260
11031TIP3   OH233049   7.494   5.163   6.330
11031TIP3    H133050   7.587   5.141   6.320
11031TIP3    H233051   7.457   5.153   6.242
11032TIP3   OH233052   5.856   6.114   3.626
11032TIP3    H133053   5.858   6.056   3.702
11032TIP3    H233054   5.839   6.201   3.662
11033TIP3   OH233055   2.251   1.648   5.645
11033TIP3    H133056   2.320   1.706   5.613
11033TIP3    H233057   2.206   1.619   5.565
11034TIP3   OH233058   7.297   2.298   1.639
11034TIP3    H133059   7.236   2.273   1.570
11034TIP3    H233060   7.358   2.225   1.644
11035TIP3   OH233061   2.982   4.500   0.766
11035TIP3    H133062   2.979   4.502   0.670
11035TIP3    H233063   2.890   4.497   0.792
11036TIP3   OH233064   4.317   6.830   4.437
11036TIP3    H133065   4.400   6.782   4.434
11036TIP3    H233066   4.340   6.918   4.407
11037TIP3   OH233067   6.851   0.873   3.421
11037TIP3    H133068   6.765   0.858   3.460
11037TIP3    H233069   6.912   0.866   3.494
11038TIP3   OH233070   6.552   2.956   3.153
11038TIP3    H133071   6.493   2.887   3.121
11038TIP3    H233072   6.550   3.023   3.085
11039TIP3   OH233073   1.454   1.304   5.221
11039TIP3    H133074   1.464   1.397   5.243
11039TIP3    H233075   1.459   1.301   5.126
11040TIP3   OH233076   3.212   4.533   1.527
11040TIP3    H133077   3.191   4.585   1.449
11040TIP3    H233078   3.157   4.569   1.596
11041TIP3   OH233079   2.968   0.658   1.686
11041TIP3    H133080   2.885   0.668   1.638
11041TIP3    H233081   2.955   0.579   1.739
11042TIP3   OH233082   7.267   0.641   5.932
11042TIP3    H133083   7.231   0.556   5.960
11042TIP3    H233084   7.271   0.634   5.836
11043TIP3   OH233085   7.033   7.241   1.345
11043TIP3    H133086   7.114   7.241   1.396
11043TIP3    H233087   7.056   7.197   1.264
11044TIP3   OH233088   5.828   4.244   5.763
11044TIP3    H133089   5.793   4.313   5.820
11044TIP3    H233090   5.803   4.162   5.805
11045TIP3   OH233091   5.981   2.361   5.140
11045TIP3    H133092   6.070   2.336   5.166
11045TIP3    H233093   5.989   2.386   5.048
11046TIP3   OH233094   0.317   2.550   5.083
11046TIP3    H133095   0.316   2.506   5.168
11046TIP3    H233096   0.380   2.501   5.030
11047TIP3   OH233097   3.525   5.858   3.560
11047TIP3    H133098   3.556   5.839   3.648
11047TIP3    H233099   3.430   5.852   3.566
11048TIP3   OH233100   0.117   6.807   4.225
11048TIP3    H133101   0.161   6.729   4.258
11048TIP3    H233102   0.170   6.881   4.255
11049TIP3   OH233103   4.937   4.630   5.135
11049TIP3    H133104   4.856   4.598   5.174
11049TIP3    H233105   5.000   4.559   5.147
11050TIP3   OH233106   7.848   6.075   5.307
11050TIP3    H133107   7.872   5.983   5.295
11050TIP3    H233108   7.888   6.099   5.390
11051TIP3   OH233109   6.929   2.537   3.324
11051TIP3    H133110   6.899   2.614   3.371
11051TIP3    H233111   7.011   2.512   3.368
11052TIP3   OH233112   1.883   4.640   2.406
11052TIP3    H133113   1.853   4.706   2.469
11052TIP3    H233114   1.945   4.586   2.455
11053TIP3   OH233115   5.454   2.850   3.374
11053TIP3    H133116   5.468   2.942   3.394
11053TIP3    H233117   5.469   2.842   3.280
11054TIP3   OH233118   2.130   0.375   6.355
11054TIP3    H133119   2.153   0.283   6.367
11054TIP3    H233120   2.140   0.414   6.442
11055TIP3   OH233121   3.859   3.141   0.908
11055TIP3    H133122   3.868   3.046   0.901
11055TIP3    H233123   3.767   3.157   0.886
11056TIP3   OH233124   4.863   3.034   6.416
11056TIP3    H133125   4.791   2.983   6.379
11056TIP3    H233126   4.884   3.098   6.348
11057TIP3   OH233127   5.176   1.566   0.738
11057TIP3    H133128   5.151   1.629   0.806
11057TIP3    H233129   5.109   1.498   0.743
11058TIP3   OH233130   1.007   6.754   4.772
11058TIP3    H133131   1.033   6.795   4.854
11058TIP3    H233132   1.088   6.750   4.721
11059TIP3   OH233133   0.939   2.687   6.242
11059TIP3    H133134   0.930   2.647   6.328
11059TIP3    H233135   0.957   2.779   6.259
11060TIP3   OH233136   6.853   2.263   5.632
11060TIP3    H133137   6.902   2.249   5.713
11060TIP3    H233138   6.788   2.193   5.631
11061TIP3   OH233139   2.760   0.329   1.353
11061TIP3    H133140   2.852   0.308   1.367
11061TIP3    H233141   2.730   0.364   1.437
11062TIP3   OH233142   5.675   2.710   6.644
11062TIP3    H133143   5.679   2.621   6.610
11062TIP3    H233144   5.601   2.750   6.600
11063TIP3   OH233145   7.521   5.279   5.635
11063TIP3    H133146   7.575   5.358   5.638
11063TIP3    H233147   7.559   5.222   5.702
11064TIP3   OH233148   4.663   5.279   3.531
11064TIP3    H133149   4.582   5.313   3.495
11064TIP3    H233150   4.708   5.239   3.455
11065TIP3   OH233151   4.900   4.680   1.797
11065TIP3    H133152   4.982   4.679   1.846
11065TIP3    H233153   4.834   4.655   1.861
11066TIP3   OH233154   1.102   1.944   0.193
11066TIP3    H133155   1.032   1.960   0.129
11066TIP3    H233156   1.055   1.921   0.274
11067TIP3   OH233157   4.593   2.346   4.800
11067TIP3    H133158   4.564   2.258   4.823
11067TIP3    H233159   4.568   2.356   4.708
11068TIP3   OH233160   7.559   6.679   3.179
11068TIP3    H133161   7.501   6.751   3.204
11068TIP3    H233162   7.646   6.717   3.181
11069TIP3   OH233163   4.674   5.057   6.485
11069TIP3    H133164   4.710   4.988   6.429
11069TIP3    H233165   4.685   5.024   6.574
11070TIP3   OH233166   6.621   3.033   0.401
11070TIP3    H133167   6.621   3.003   0.491
11070TIP3    H233168   6.625   3.129   0.407
11071TIP3   OH233169   0.632   2.774   2.995
11071TIP3    H133170   0.537   2.789   2.987
11071TIP3    H233171   0.639   2.696   3.050
11072TIP3   OH233172   6.478   0.105   4.023
11072TIP3    H133173   6.400   0.060   4.058
11072TIP3    H233174   6.497   0.173   4.086
11073TIP3   OH233175   2.142   0.256   5.070
11073TIP3    H133176   2.104   0.342   5.085
11073TIP3    H233177   2.166   0.224   5.157
11074TIP3   OH233178   6.659   1.462   6.492
11074TIP3    H133179   6.601   1.466   6.568
11074TIP3    H233180   6.606   1.421   6.424
11075TIP3   OH233181   2.682   1.208   0.096
11075TIP3    H133182   2.632   1.290   0.102
11075TIP3    H233183   2.666   1.164   0.179
11076TIP3   OH233184   2.828   4.906   4.013
11076TIP3    H133185   2.791   4.850   3.945
11076TIP3    H233186   2.799   4.995   3.990
11077TIP3   OH233187   6.385   6.162   2.640
11077TIP3    H133188   6.480   6.168   2.647
11077TIP3    H233189   6.351   6.225   2.703
11078TIP3   OH233190   1.798   0.899   6.091
11078TIP3    H133191   1.844   0.946   6.021
11078TIP3    H233192   1.807   0.955   6.168
11079TIP3   OH233193   8.075   5.477   2.573
11079TIP3    H133194   7.997   5.439   2.531
11079TIP3    H233195   8.073   5.442   2.662
11080TIP3   OH233196   7.533   4.286   3.305
11080TIP3    H133197   7.571   4.274   3.218
11080TIP3    H233198   7.440   4.265   3.294
11081TIP3   OH233199   8.097   5.964   0.772
11081TIP3    H133200   8.188   5.939   0.788
11081TIP3    H233201   8.081   6.038   0.831
11082TIP3   OH233202   5.281   1.197   3.066
11082TIP3    H133203   5.190   1.169   3.066
11082TIP3    H233204   5.298   1.222   2.975
11083TIP3   OH233205   3.597   6.532   5.523
11083TIP3    H133206   3.534   6.461   5.510
11083TIP3    H233207   3.682   6.490   5.509
11084TIP3   OH233208   8.290   1.887   1.753
11084TIP3    H133209   8.229   1.855   1.820
11084TIP3    H233210   8.338   1.809   1.725
11085TIP3   OH233211   6.538   6.087   3.401
11085TIP3    H133212   6.508   6.102   3.312
11085TIP3    H233213   6.620   6.039   3.391
11086TIP3   OH233214   7.568   2.059   1.275
11086TIP3    H133215   7.491   2.113   1.290
11086TIP3    H233216   7.618   2.106   1.208
11087TIP3   OH233217   5.908   6.083   4.946
11087TIP3    H133218   5.842   6.020   4.917
11087TIP3    H233219   5.859   6.164   4.958
11088TIP3   OH233220   0.712   5.083   3.219
11088TIP3    H133221   0.780   5.052   3.159
11088TIP3    H233222   0.752   5.157   3.265
11089TIP3   OH233223   6.914   1.945   1.820
11089TIP3    H133224   6.925   1.931   1.914
11089TIP3    H233225   6.821   1.961   1.809
11090TIP3   OH233226   4.057   1.239   1.714
11090TIP3    H133227   4.088   1.254   1.625
11090TIP3    H233228   3.965   1.214   1.704
11091TIP3   OH233229   6.393   4.214   3.136
11091TIP3    H133230   6.459   4.236   3.071
11091TIP3    H233231   6.441   4.167   3.204
11092TIP3   OH233232   2.273   1.583   5.088
11092TIP3    H133233   2.287   1.547   5.175
11092TIP3    H233234   2.292   1.677   5.097
11093TIP3   OH233235   7.612   0.406   0.868
11093TIP3    H133236   7.697   0.416   0.824
11093TIP3    H233237   7.614   0.316   0.901
11094TIP3   OH233238   4.326   4.313   5.428
11094TIP3    H133239   4.259   4.278   5.487
11094TIP3    H233240   4.277   4.363   5.363
11095TIP3   OH233241   2.153   4.641   4.925
11095TIP3    H133242   2.085   4.578   4.949
11095TIP3    H233243   2.122   4.725   4.960
11096TIP3   OH233244   7.422   6.918   3.284
11096TIP3    H133245   7.432   6.857   3.357
11096TIP3    H233246   7.330   6.944   3.287
11097TIP3   OH233247   2.116   1.084   1.464
11097TIP3    H133248   2.121   1.142   1.388
11097TIP3    H233249   2.124   1.143   1.540
11098TIP3   OH233250   7.474   6.819   4.864
11098TIP3    H133251   7.537   6.861   4.805
11098TIP3    H233252   7.527   6.788   4.937
11099TIP3   OH233253   7.877   1.475   0.989
11099TIP3    H133254   7.863   1.472   0.894
11099TIP3    H233255   7.876   1.568   1.010
11100TIP3   OH233256   3.380   0.935   1.896
11100TIP3    H133257   3.382   0.870   1.825
11100TIP3    H233258   3.372   1.019   1.850
11101TIP3   OH233259   8.255   2.669   1.812
11101TIP3    H133260   8.171   2.664   1.766
11101TIP3    H233261   8.233   2.649   1.903
11102TIP3   OH233262   1.067   0.974   3.248
11102TIP3    H133263   1.089   0.957   3.156
11102TIP3    H233264   0.976   0.945   3.257
11103TIP3   OH233265   6.870   1.444   3.153
11103TIP3    H133266   6.933   1.504   3.113
11103TIP3    H233267   6.840   1.389   3.081
11104TIP3   OH233268   3.438   6.289   5.417
11104TIP3    H133269   3.374   6.309   5.485
11104TIP3    H233270   3.393   6.226   5.360
11105TIP3   OH233271   6.146   7.291   3.890
11105TIP3    H133272   6.147   7.323   3.800
11105TIP3    H233273   6.229   7.244   3.900
11106TIP3   OH233274   5.616   5.149   6.367
11106TIP3    H133275   5.706   5.181   6.376
11106TIP3    H233276   5.565   5.200   6.430
11107TIP3   OH233277   5.732   1.829   4.962
11107TIP3    H133278   5.791   1.847   5.035
11107TIP3    H233279   5.703   1.915   4.932
11108TIP3   OH233280   5.303   1.780   5.371
11108TIP3    H133281   5.262   1.866   5.383
11108TIP3    H233282   5.396   1.799   5.361
11109TIP3   OH233283   7.469   7.232   5.248
11109TIP3    H133284   7.463   7.218   5.342
11109TIP3    H233285   7.550   7.188   5.222
11110TIP3   OH233286   5.674   6.310   2.584
11110TIP3    H133287   5.673   6.221   2.549
11110TIP3    H233288   5.582   6.333   2.595
11111TIP3   OH233289   7.977   0.854   3.370
11111TIP3    H133290   7.903   0.902   3.408
11111TIP3    H233291   7.982   0.885   3.279
11112TIP3   OH233292   1.653   2.088   2.938
11112TIP3    H133293   1.722   2.029   2.907
11112TIP3    H233294   1.584   2.030   2.970
11113TIP3   OH233295   4.625   3.519   6.022
11113TIP3    H133296   4.568   3.482   5.955
11113TIP3    H233297   4.620   3.614   6.009
11114TIP3   OH233298   5.964   1.650   0.798
11114TIP3    H133299   6.014   1.702   0.861
11114TIP3    H233300   5.998   1.678   0.713
11115TIP3   OH233301   1.945   2.568   0.248
11115TIP3    H133302   1.858   2.606   0.262
11115TIP3    H233303   1.947   2.490   0.303
11116TIP3   OH233304   7.435   0.399   2.381
11116TIP3    H133305   7.400   0.326   2.431
11116TIP3    H233306   7.495   0.443   2.440
11117TIP3   OH233307   1.273   0.192   5.672
11117TIP3    H133308   1.194   0.174   5.621
11117TIP3    H233309   1.344   0.154   5.621
11118TIP3   OH233310   3.954   6.181   0.128
11118TIP3    H133311   3.971   6.182   0.222
11118TIP3    H233312   3.990   6.098   0.098
11119TIP3   OH233313   7.883   1.990   1.815
11119TIP3    H133314   7.848   2.008   1.902
11119TIP3    H233315   7.838   2.053   1.757
11120TIP3   OH233316   3.195   3.768   3.378
11120TIP3    H133317   3.288   3.781   3.400
11120TIP3    H233318   3.148   3.821   3.442
11121TIP3   OH233319   5.366   0.660   6.109
11121TIP3    H133320   5.275   0.645   6.135
11121TIP3    H233321   5.360   0.714   6.031
11122TIP3   OH233322   4.809   4.457   5.642
11122TIP3    H133323   4.827   4.418   5.557
11122TIP3    H233324   4.761   4.537   5.621
11123TIP3   OH233325   7.087   1.604   3.090
11123TIP3    H133326   7.119   1.544   3.023
11123TIP3    H233327   7.141   1.683   3.079
11124TIP3   OH233328   3.611   6.769   5.301
11124TIP3    H133329   3.572   6.681   5.293
11124TIP3    H233330   3.609   6.804   5.213
11125TIP3   OH233331   7.068   0.667   6.566
11125TIP3    H133332   7.089   0.578   6.595
11125TIP3    H233333   7.016   0.704   6.637
11126TIP3   OH233334   7.471   4.818   3.129
11126TIP3    H133335   7.556   4.783   3.155
11126TIP3    H233336   7.421   4.824   3.210
11127TIP3   OH233337   2.970   7.156   0.847
11127TIP3    H133338   2.901   7.095   0.818
11127TIP3    H233339   2.959   7.233   0.791
11128TIP3   OH233340   0.116   4.334   6.207
11128TIP3    H133341   0.128   4.362   6.117
11128TIP3    H233342   0.066   4.405   6.248
11129TIP3   OH233343   2.660   7.587   3.909
11129TIP3    H133344   2.625   7.651   3.971
11129TIP3    H233345   2.729   7.542   3.958
11130TIP3   OH233346   2.484   2.636   1.655
11130TIP3    H133347   2.392   2.631   1.629
11130TIP3    H233348   2.531   2.654   1.573
11131TIP3   OH233349   3.986   1.111   0.872
11131TIP3    H133350   4.069   1.084   0.833
11131TIP3    H233351   4.010   1.182   0.932
11132TIP3   OH233352   6.446   3.664   0.097
11132TIP3    H133353   6.424   3.662   0.004
11132TIP3    H233354   6.377   3.613   0.139
11133TIP3   OH233355   2.990   5.107   0.208
11133TIP3    H133356   3.049   5.073   0.275
11133TIP3    H233357   3.047   5.151   0.146
11134TIP3   OH233358   1.770   3.903   3.592
11134TIP3    H133359   1.766   3.997   3.578
11134TIP3    H233360   1.784   3.893   3.686
11135TIP3   OH233361   4.238   3.939   5.439
11135TIP3    H133362   4.148   3.938   5.472
11135TIP3    H233363   4.247   3.857   5.391
11136TIP3   OH233364   3.037   4.444   2.885
11136TIP3    H133365   3.114   4.402   2.921
11136TIP3    H233366   3.066   4.532   2.861
11137TIP3   OH233367   1.466   3.856   3.848
11137TIP3    H133368   1.504   3.769   3.842
11137TIP3    H233369   1.463   3.874   3.942
11138TIP3   OH233370   7.907   7.739   3.957
11138TIP3    H133371   7.820   7.713   3.925
11138TIP3    H233372   7.950   7.780   3.882
11139TIP3   OH233373   6.315   3.907   4.926
11139TIP3    H133374   6.255   3.964   4.878
11139TIP3    H233375   6.263   3.829   4.946
11140TIP3   OH233376   2.546   4.513   3.945
11140TIP3    H133377   2.520   4.528   3.854
11140TIP3    H233378   2.567   4.600   3.978
11141TIP3   OH233379   3.862   6.429   0.445
11141TIP3    H133380   3.902   6.484   0.377
11141TIP3    H233381   3.768   6.433   0.427
11142TIP3   OH233382   5.788   0.378   1.363
11142TIP3    H133383   5.784   0.300   1.418
11142TIP3    H233384   5.705   0.423   1.380
11143TIP3   OH233385   6.762   3.536   6.203
11143TIP3    H133386   6.813   3.481   6.262
11143TIP3    H233387   6.827   3.582   6.151
11144TIP3   OH233388   7.996   7.167   1.006
11144TIP3    H133389   8.036   7.130   1.084
11144TIP3    H233390   7.902   7.172   1.027
11145TIP3   OH233391   6.892   0.785   0.530
11145TIP3    H133392   6.953   0.715   0.553
11145TIP3    H233393   6.858   0.817   0.613
11146TIP3   OH233394   5.299   2.553   2.493
11146TIP3    H133395   5.235   2.489   2.462
11146TIP3    H233396   5.323   2.522   2.580
11147TIP3   OH233397   3.836   6.256   4.777
11147TIP3    H133398   3.884   6.333   4.745
11147TIP3    H233399   3.764   6.244   4.715
11148TIP3   OH233400   5.018   7.271   4.486
11148TIP3    H133401   5.083   7.333   4.519
11148TIP3    H233402   5.044   7.186   4.524
11149TIP3   OH233403   3.771   2.413   1.723
11149TIP3    H133404   3.700   2.472   1.747
11149TIP3    H233405   3.851   2.465   1.736
11150TIP3   OH233406   2.864   6.074   4.751
11150TIP3    H133407   2.867   6.124   4.669
11150TIP3    H233408   2.951   6.033   4.757
11151TIP3   OH233409   4.197   4.315   4.079
11151TIP3    H133410   4.242   4.396   4.055
11151TIP3    H233411   4.135   4.300   4.008
11152TIP3   OH233412   8.268   0.116   1.438
11152TIP3    H133413   8.325   0.124   1.361
11152TIP3    H233414   8.218   0.197   1.439
11153TIP3   OH233415   2.626   3.275   4.161
11153TIP3    H133416   2.620   3.230   4.245
11153TIP3    H233417   2.544   3.325   4.155
11154TIP3   OH233418   1.927   0.683   0.643
11154TIP3    H133419   1.853   0.674   0.703
11154TIP3    H233420   1.949   0.593   0.618
11155TIP3   OH233421   6.533   6.592   5.669
11155TIP3    H133422   6.508   6.516   5.617
11155TIP3    H233423   6.449   6.626   5.702
11156TIP3   OH233424   5.511   7.484   3.155
11156TIP3    H133425   5.469   7.460   3.072
11156TIP3    H233426   5.449   7.544   3.196
11157TIP3   OH233427   0.885   6.512   1.413
11157TIP3    H133428   0.921   6.446   1.473
11157TIP3    H233429   0.852   6.581   1.470
11158TIP3   OH233430   5.400   4.239   4.158
11158TIP3    H133431   5.472   4.292   4.191
11158TIP3    H233432   5.441   4.176   4.098
11159TIP3   OH233433   3.117   5.525   0.236
11159TIP3    H133434   3.100   5.461   0.306
11159TIP3    H233435   3.178   5.480   0.177
11160TIP3   OH233436   8.218   5.760   0.064
11160TIP3    H133437   8.199   5.851   0.044
11160TIP3    H233438   8.156   5.710   0.010
11161TIP3   OH233439   6.957   6.137   2.817
11161TIP3    H133440   6.961   6.232   2.828
11161TIP3    H233441   7.045   6.106   2.841
11162TIP3   OH233442   3.965   5.113   0.528
11162TIP3    H133443   4.047   5.077   0.494
11162TIP3    H233444   3.993   5.172   0.598
11163TIP3   OH233445   2.187   3.286   1.940
11163TIP3    H133446   2.156   3.244   1.861
11163TIP3    H233447   2.226   3.368   1.910
11164TIP3   OH233448   3.542   4.720   2.511
11164TIP3    H133449   3.561   4.627   2.505
11164TIP3    H233450   3.609   4.754   2.571
11165TIP3   OH233451   7.513   7.733   1.942
11165TIP3    H133452   7.465   7.674   2.001
11165TIP3    H233453   7.448   7.761   1.878
11166TIP3   OH233454   1.665   5.851   5.671
11166TIP3    H133455   1.646   5.875   5.580
11166TIP3    H233456   1.708   5.927   5.708
11167TIP3   OH233457   7.055   1.192   3.280
11167TIP3    H133458   7.034   1.162   3.192
11167TIP3    H233459   7.070   1.286   3.272
11168TIP3   OH233460   5.940   0.946   6.224
11168TIP3    H133461   5.926   0.911   6.136
11168TIP3    H233462   5.917   0.873   6.282
11169TIP3   OH233463   7.207   0.108   2.221
11169TIP3    H133464   7.124   0.086   2.179
11169TIP3    H233465   7.258   0.027   2.217
11170TIP3   OH233466   4.630   5.732   4.315
11170TIP3    H133467   4.546   5.773   4.332
11170TIP3    H233468   4.641   5.738   4.220
11171TIP3   OH233469   5.579   0.003   1.415
11171TIP3    H133470   5.533   0.046   1.488
11171TIP3    H233471   5.607   0.075   1.359
11172TIP3   OH233472   7.917   5.294   5.206
11172TIP3    H133473   7.829   5.288   5.243
11172TIP3    H233474   7.952   5.205   5.211
11173TIP3   OH233475   6.110   6.805   4.792
11173TIP3    H133476   6.102   6.798   4.887
11173TIP3    H233477   6.022   6.824   4.761
11174TIP3   OH233478   1.702   6.290   1.904
11174TIP3    H133479   1.680   6.349   1.975
11174TIP3    H233480   1.781   6.244   1.934
11175TIP3   OH233481   0.781   7.448   1.059
11175TIP3    H133482   0.718   7.380   1.038
11175TIP3    H233483   0.776   7.457   1.154
11176TIP3   OH233484   1.850   3.157   2.337
11176TIP3    H133485   1.816   3.135   2.250
11176TIP3    H233486   1.777   3.202   2.380
11177TIP3   OH233487   2.319   0.106   5.799
11177TIP3    H133488   2.348   0.093   5.889
11177TIP3    H233489   2.232   0.065   5.795
11178TIP3   OH233490   3.886   4.941   1.551
11178TIP3    H133491   3.936   4.886   1.491
11178TIP3    H233492   3.902   5.030   1.520
11179TIP3   OH233493   5.138   7.065   6.010
11179TIP3    H133494   5.084   6.992   6.040
11179TIP3    H233495   5.075   7.130   5.979
11180TIP3   OH233496   5.399   1.667   0.583
11180TIP3    H133497   5.307   1.649   0.601
11180TIP3    H233498   5.403   1.678   0.488
11181TIP3   OH233499   4.122   2.505   2.446
11181TIP3    H133500   4.205   2.508   2.398
11181TIP3    H233501   4.128   2.576   2.509
11182TIP3   OH233502   1.761   4.656   4.380
11182TIP3    H133503   1.839   4.665   4.435
11182TIP3    H233504   1.733   4.746   4.364
11183TIP3   OH233505   6.943   6.743   0.241
11183TIP3    H133506   6.852   6.748   0.270
11183TIP3    H233507   6.980   6.829   0.262
11184TIP3   OH233508   0.445   1.712   2.745
11184TIP3    H133509   0.492   1.652   2.688
11184TIP3    H233510   0.439   1.794   2.695
11185TIP3   OH233511   4.900   4.840   2.133
11185TIP3    H133512   4.819   4.827   2.085
11185TIP3    H233513   4.875   4.834   2.225
11186TIP3   OH233514   3.958   0.039   3.727
11186TIP3    H133515   3.939  -0.011   3.648
11186TIP3    H233516   3.899   0.114   3.724
11187TIP3   OH233517   5.696   0.353   4.927
11187TIP3    H133518   5.630   0.401   4.977
11187TIP3    H233519   5.705   0.402   4.845
11188TIP3   OH233520   8.191   0.333   5.222
11188TIP3    H133521   8.135   0.327   5.299
11188TIP3    H233522   8.135   0.371   5.155
11189TIP3   OH233523   0.551   5.953   4.567
11189TIP3    H133524   0.568   5.986   4.479
11189TIP3    H233525   0.586   5.865   4.567
11190TIP3   OH233526   0.209   7.326   2.811
11190TIP3    H133527   0.116   7.347   2.813
11190TIP3    H233528   0.252   7.407   2.782
11191TIP3   OH233529   6.902   4.152   2.722
11191TIP3    H133530   6.949   4.095   2.661
11191TIP3    H233531   6.833   4.191   2.668
11192TIP3   OH233532   3.875   3.484   3.209
11192TIP3    H133533   3.959   3.483   3.256
11192TIP3    H233534   3.890   3.428   3.133
11193TIP3   OH233535   3.637   4.878   6.661
11193TIP3    H133536   3.648   4.815   6.590
11193TIP3    H233537   3.599   4.828   6.733
11194TIP3   OH233538   6.661   4.137   0.063
11194TIP3    H133539   6.687   4.210   0.008
11194TIP3    H233540   6.742   4.088   0.077
11195TIP3   OH233541   3.370   4.962   5.617
11195TIP3    H133542   3.364   4.886   5.675
11195TIP3    H233543   3.290   4.959   5.564
11196TIP3   OH233544   2.087   1.503   6.620
11196TIP3    H133545   2.074   1.539   6.532
11196TIP3    H233546   2.000   1.474   6.647
11197TIP3   OH233547   3.233   1.499   2.318
11197TIP3    H133548   3.294   1.426   2.310
11197TIP3    H233549   3.236   1.522   2.411
11198TIP3   OH233550   2.492   4.971   1.084
11198TIP3    H133551   2.447   4.978   1.000
11198TIP3    H233552   2.495   5.060   1.117
11199TIP3   OH233553   5.271   7.613   4.984
11199TIP3    H133554   5.341   7.669   5.017
11199TIP3    H233555   5.312   7.562   4.914
11200TIP3   OH233556   6.634   4.140   1.566
11200TIP3    H133557   6.712   4.156   1.618
11200TIP3    H233558   6.575   4.212   1.588
11201TIP3   OH233559   0.321   3.527   4.876
11201TIP3    H133560   0.416   3.533   4.882
11201TIP3    H233561   0.305   3.460   4.809
11202TIP3   OH233562   0.222   5.094   5.088
11202TIP3    H133563   0.183   5.169   5.042
11202TIP3    H233564   0.147   5.039   5.112
11203TIP3   OH233565   6.224   2.227   5.251
11203TIP3    H133566   6.286   2.284   5.295
11203TIP3    H233567   6.278   2.167   5.200
11204TIP3   OH233568   3.022   7.340   4.435
11204TIP3    H133569   3.041   7.433   4.436
11204TIP3    H233570   3.107   7.298   4.450
11205TIP3   OH233571   1.805   0.456   0.994
11205TIP3    H133572   1.733   0.394   0.988
11205TIP3    H233573   1.788   0.521   0.926
11206TIP3   OH233574   1.112   1.829   2.063
11206TIP3    H133575   1.099   1.918   2.032
11206TIP3    H233576   1.130   1.839   2.157
11207TIP3   OH233577   1.787   1.347   5.385
11207TIP3    H133578   1.806   1.440   5.367
11207TIP3    H233579   1.874   1.307   5.390
11208TIP3   OH233580   7.283   7.512   5.637
11208TIP3    H133581   7.374   7.483   5.634
11208TIP3    H233582   7.269   7.538   5.728
11209TIP3   OH233583   6.964   1.798   4.494
11209TIP3    H133584   6.887   1.742   4.504
11209TIP3    H233585   6.981   1.797   4.399
11210TIP3   OH233586   5.289   0.145   3.203
11210TIP3    H133587   5.355   0.111   3.264
11210TIP3    H233588   5.219   0.080   3.204
11211TIP3   OH233589   4.447   2.432   0.795
11211TIP3    H133590   4.451   2.340   0.822
11211TIP3    H233591   4.378   2.470   0.850
11212TIP3   OH233592   0.501   1.174   3.831
11212TIP3    H133593   0.428   1.156   3.771
11212TIP3    H233594   0.464   1.234   3.896
11213TIP3   OH233595   3.958   2.914   1.972
11213TIP3    H133596   3.998   2.999   1.992
11213TIP3    H233597   3.910   2.929   1.890
11214TIP3   OH233598   2.806   3.235   2.400
11214TIP3    H133599   2.711   3.239   2.393
11214TIP3    H233600   2.823   3.157   2.454
11215TIP3   OH233601   3.577   2.238   0.188
11215TIP3    H133602   3.506   2.173   0.191
11215TIP3    H233603   3.612   2.240   0.277
11216TIP3   OH233604   4.352   7.689   0.575
11216TIP3    H133605   4.371   7.780   0.595
11216TIP3    H233606   4.430   7.641   0.603
11217TIP3   OH233607   1.570   3.793   2.062
11217TIP3    H133608   1.543   3.773   2.152
11217TIP3    H233609   1.528   3.877   2.042
11218TIP3   OH233610   6.589   5.926   2.815
11218TIP3    H133611   6.647   5.890   2.747
11218TIP3    H233612   6.566   6.013   2.782
11219TIP3   OH233613   5.050   6.531   4.178
11219TIP3    H133614   4.978   6.546   4.241
11219TIP3    H233615   5.115   6.482   4.228
11220TIP3   OH233616   3.488   6.880   0.314
11220TIP3    H133617   3.567   6.880   0.367
11220TIP3    H233618   3.438   6.805   0.345
11221TIP3   OH233619   6.647   7.437   0.416
11221TIP3    H133620   6.682   7.503   0.356
11221TIP3    H233621   6.553   7.454   0.417
11222TIP3   OH233622   6.992   1.614   1.458
11222TIP3    H133623   7.085   1.632   1.472
11222TIP3    H233624   6.989   1.520   1.439
11223TIP3   OH233625   6.393   5.164   2.973
11223TIP3    H133626   6.314   5.203   2.937
11223TIP3    H233627   6.461   5.183   2.908
11224TIP3   OH233628   2.778   1.301   1.529
11224TIP3    H133629   2.837   1.375   1.545
11224TIP3    H233630   2.832   1.223   1.546
11225TIP3   OH233631   2.798   0.704   2.746
11225TIP3    H133632   2.864   0.743   2.689
11225TIP3    H233633   2.826   0.727   2.835
11226TIP3   OH233634   4.336   1.014   0.373
11226TIP3    H133635   4.252   0.969   0.377
11226TIP3    H233636   4.319   1.092   0.320
11227TIP3   OH233637   1.049   2.601   0.697
11227TIP3    H133638   0.990   2.671   0.727
11227TIP3    H233639   1.135   2.628   0.729
11228TIP3   OH233640   7.063   3.796   0.774
11228TIP3    H133641   6.991   3.736   0.753
11228TIP3    H233642   7.061   3.861   0.704
11229TIP3   OH233643   1.399   0.517   4.603
11229TIP3    H133644   1.389   0.528   4.508
11229TIP3    H233645   1.316   0.549   4.639
11230TIP3   OH233646   8.278   5.025   1.370
11230TIP3    H133647   8.263   5.005   1.277
11230TIP3    H233648   8.220   4.966   1.417
11231TIP3   OH233649   3.764   5.675   2.923
11231TIP3    H133650   3.834   5.685   2.988
11231TIP3    H233651   3.689   5.719   2.963
11232TIP3   OH233652   5.500   4.838   2.266
11232TIP3    H133653   5.413   4.801   2.282
11232TIP3    H233654   5.539   4.782   2.199
11233TIP3   OH233655   5.105   6.311   2.553
11233TIP3    H133656   5.067   6.269   2.476
11233TIP3    H233657   5.170   6.372   2.517
11234TIP3   OH233658   7.621   3.039   3.180
11234TIP3    H133659   7.714   3.055   3.160
11234TIP3    H233660   7.602   3.100   3.251
11235TIP3   OH233661   1.635   2.699   1.421
11235TIP3    H133662   1.611   2.621   1.371
11235TIP3    H233663   1.670   2.665   1.503
11236TIP3   OH233664   7.647   7.758   5.488
11236TIP3    H133665   7.702   7.701   5.541
11236TIP3    H233666   7.606   7.699   5.425
11237TIP3   OH233667   7.667   6.484   4.754
11237TIP3    H133668   7.736   6.549   4.768
11237TIP3    H233669   7.644   6.454   4.842
11238TIP3   OH233670   2.368   6.262   3.560
11238TIP3    H133671   2.287   6.225   3.596
11238TIP3    H233672   2.352   6.357   3.558
11239TIP3   OH233673   6.984   0.994   1.091
11239TIP3    H133674   6.984   0.976   1.185
11239TIP3    H233675   6.944   0.917   1.051
11240TIP3   OH233676   2.081   2.063   0.414
11240TIP3    H133677   2.022   2.053   0.339
11240TIP3    H233678   2.023   2.083   0.487
11241TIP3   OH233679   0.086   6.969   3.350
11241TIP3    H133680   0.102   6.982   3.256
11241TIP3    H233681   0.162   6.921   3.381
11242TIP3   OH233682   7.952   2.106   6.413
11242TIP3    H133683   8.037   2.070   6.439
11242TIP3    H233684   7.954   2.106   6.318
11243TIP3   OH233685   4.313   0.864   2.988
11243TIP3    H133686   4.339   0.871   3.079
11243TIP3    H233687   4.238   0.805   2.988
11244TIP3   OH233688   2.548   4.461   0.389
11244TIP3    H133689   2.542   4.429   0.299
11244TIP3    H233690   2.459   4.486   0.412
11245TIP3   OH233691   6.166   1.350   2.764
11245TIP3    H133692   6.211   1.401   2.696
11245TIP3    H233693   6.213   1.372   2.844
11246TIP3   OH233694   6.296   5.721   0.616
11246TIP3    H133695   6.305   5.696   0.709
11246TIP3    H233696   6.385   5.718   0.582
11247TIP3   OH233697   2.186   7.782   1.324
11247TIP3    H133698   2.232   7.785   1.408
11247TIP3    H233699   2.256   7.788   1.258
11248TIP3   OH233700   5.398   1.703   1.684
11248TIP3    H133701   5.390   1.625   1.739
11248TIP3    H233702   5.393   1.776   1.745
11249TIP3   OH233703   4.716   4.654   2.635
11249TIP3    H133704   4.790   4.659   2.696
11249TIP3    H233705   4.655   4.720   2.667
11250TIP3   OH233706   1.168   3.345   0.151
11250TIP3    H133707   1.206   3.303   0.073
11250TIP3    H233708   1.172   3.277   0.218
11251TIP3   OH233709   2.650   4.204   4.542
11251TIP3    H133710   2.613   4.279   4.497
11251TIP3    H233711   2.735   4.234   4.574
11252TIP3   OH233712   4.347   6.373   3.702
11252TIP3    H133713   4.394   6.438   3.755
11252TIP3    H233714   4.390   6.290   3.723
11253TIP3   OH233715   6.009   4.023   1.821
11253TIP3    H133716   5.974   4.038   1.909
11253TIP3    H233717   5.941   3.972   1.777
11254TIP3   OH233718   5.549   2.018   0.296
11254TIP3    H133719   5.459   1.990   0.314
11254TIP3    H233720   5.557   2.013   0.201
11255TIP3   OH233721   6.419   0.436   5.936
11255TIP3    H133722   6.381   0.370   5.878
11255TIP3    H233723   6.506   0.453   5.899
11256TIP3   OH233724   2.544   2.008   4.123
11256TIP3    H133725   2.625   2.041   4.082
11256TIP3    H233726   2.573   1.969   4.205
11257TIP3   OH233727   2.669   3.977   5.372
11257TIP3    H133728   2.737   3.994   5.307
11257TIP3    H233729   2.663   3.881   5.375
11258TIP3   OH233730   3.533   2.784   3.169
11258TIP3    H133731   3.590   2.708   3.187
11258TIP3    H233732   3.462   2.776   3.232
11259TIP3   OH233733   1.310   1.775   3.683
11259TIP3    H133734   1.313   1.856   3.633
11259TIP3    H233735   1.402   1.748   3.691
11260TIP3   OH233736   7.914   4.482   3.712
11260TIP3    H133737   7.892   4.392   3.687
11260TIP3    H233738   7.923   4.479   3.807
11261TIP3   OH233739   3.083   5.846   1.796
11261TIP3    H133740   3.021   5.917   1.779
11261TIP3    H233741   3.163   5.889   1.822
11262TIP3   OH233742   0.326   3.817   0.464
11262TIP3    H133743   0.278   3.882   0.414
11262TIP3    H233744   0.338   3.743   0.404
11263TIP3   OH233745   1.217   2.328   5.952
11263TIP3    H133746   1.165   2.353   5.876
11263TIP3    H233747   1.231   2.234   5.942
11264TIP3   OH233748   7.043   6.253   0.734
11264TIP3    H133749   7.080   6.172   0.699
11264TIP3    H233750   7.030   6.309   0.657
11265TIP3   OH233751   6.553   0.352   2.041
11265TIP3    H133752   6.646   0.370   2.058
11265TIP3    H233753   6.542   0.368   1.947
11266TIP3   OH233754   4.542   1.395   0.880
11266TIP3    H133755   4.513   1.304   0.873
11266TIP3    H233756   4.463   1.443   0.906
11267TIP3   OH233757   0.945   0.281   1.298
11267TIP3    H133758   0.901   0.317   1.221
11267TIP3    H233759   1.036   0.268   1.270
11268TIP3   OH233760   3.103   3.066   6.401
11268TIP3    H133761   3.133   2.989   6.448
11268TIP3    H233762   3.158   3.137   6.433
11269TIP3   OH233763   2.390   5.002   6.694
11269TIP3    H133764   2.355   4.940   6.630
11269TIP3    H233765   2.447   5.060   6.642
11270TIP3   OH233766   2.867   4.387   4.389
11270TIP3    H133767   2.893   4.448   4.319
11270TIP3    H233768   2.942   4.385   4.448
11271TIP3   OH233769   4.359   2.633   5.197
11271TIP3    H133770   4.338   2.726   5.203
11271TIP3    H233771   4.399   2.623   5.110
11272TIP3   OH233772   5.645   4.674   2.041
11272TIP3    H133773   5.641   4.685   1.946
11272TIP3    H233774   5.717   4.731   2.069
11273TIP3   OH233775   7.198   2.622   3.945
11273TIP3    H133776   7.217   2.714   3.928
11273TIP3    H233777   7.192   2.582   3.858
11274TIP3   OH233778   7.295   5.363   3.854
11274TIP3    H133779   7.374   5.309   3.863
11274TIP3    H233780   7.321   5.449   3.885
11275TIP3   OH233781   7.148   5.041   4.897
11275TIP3    H133782   7.202   4.963   4.890
11275TIP3    H233783   7.103   5.047   4.812
11276TIP3   OH233784   3.787   4.278   1.932
11276TIP3    H133785   3.761   4.290   1.841
11276TIP3    H233786   3.878   4.247   1.928
11277TIP3   OH233787   1.240   1.323   1.489
11277TIP3    H133788   1.159   1.366   1.514
11277TIP3    H233789   1.304   1.353   1.553
11278TIP3   OH233790   7.034   4.911   1.903
11278TIP3    H133791   6.945   4.875   1.899
11278TIP3    H233792   7.025   4.999   1.868
11279TIP3   OH233793   2.464   7.541   5.658
11279TIP3    H133794   2.474   7.522   5.751
11279TIP3    H233795   2.552   7.566   5.629
11280TIP3   OH233796   0.412   6.621   5.648
11280TIP3    H133797   0.454   6.611   5.563
11280TIP3    H233798   0.390   6.531   5.675
11281TIP3   OH233799   7.572   4.827   2.825
11281TIP3    H133800   7.525   4.911   2.821
11281TIP3    H233801   7.645   4.845   2.885
11282TIP3   OH233802   3.538   5.415   4.908
11282TIP3    H133803   3.491   5.423   4.991
11282TIP3    H233804   3.476   5.372   4.849
11283TIP3   OH233805   5.159   6.423   3.294
11283TIP3    H133806   5.146   6.425   3.199
11283TIP3    H233807   5.146   6.331   3.317
11284TIP3   OH233808   4.565   5.161   5.866
11284TIP3    H133809   4.481   5.194   5.898
11284TIP3    H233810   4.568   5.071   5.898
11285TIP3   OH233811   5.157   1.464   2.061
11285TIP3    H133812   5.245   1.483   2.093
11285TIP3    H233813   5.118   1.550   2.047
11286TIP3   OH233814   3.123   7.307   0.139
11286TIP3    H133815   3.153   7.392   0.171
11286TIP3    H233816   3.047   7.327   0.084
11287TIP3   OH233817   2.570   1.417   4.715
11287TIP3    H133818   2.621   1.492   4.743
11287TIP3    H233819   2.482   1.451   4.702
11288TIP3   OH233820   5.829   3.592   4.954
11288TIP3    H133821   5.796   3.676   4.921
11288TIP3    H233822   5.751   3.545   4.984
11289TIP3   OH233823   0.844   3.544   1.061
11289TIP3    H133824   0.759   3.586   1.044
11289TIP3    H233825   0.821   3.458   1.095
11290TIP3   OH233826   3.232   0.686   3.527
11290TIP3    H133827   3.195   0.670   3.614
11290TIP3    H233828   3.231   0.781   3.517
11291TIP3   OH233829   3.779   6.737   2.009
11291TIP3    H133830   3.781   6.743   2.104
11291TIP3    H233831   3.791   6.828   1.979
11292TIP3   OH233832   4.246   2.954   5.688
11292TIP3    H133833   4.296   2.873   5.698
11292TIP3    H233834   4.311   3.022   5.672
11293TIP3   OH233835   7.531   1.254   6.626
11293TIP3    H133836   7.619   1.247   6.664
11293TIP3    H233837   7.472   1.225   6.696
11294TIP3   OH233838   7.793   0.351   2.819
11294TIP3    H133839   7.863   0.333   2.755
11294TIP3    H233840   7.833   0.330   2.903
11295TIP3   OH233841   4.015   1.525   6.490
11295TIP3    H133842   4.006   1.544   6.397
11295TIP3    H233843   4.108   1.538   6.510
11296TIP3   OH233844   4.159   4.003   6.402
11296TIP3    H133845   4.127   3.913   6.400
11296TIP3    H233846   4.142   4.032   6.492
11297TIP3   OH233847   6.619   2.402   4.678
11297TIP3    H133848   6.530   2.426   4.654
11297TIP3    H233849   6.672   2.431   4.604
11298TIP3   OH233850   3.306   3.716   1.139
11298TIP3    H133851   3.329   3.649   1.204
11298TIP3    H233852   3.318   3.674   1.055
11299TIP3   OH233853   5.622   0.414   3.249
11299TIP3    H133854   5.610   0.342   3.311
11299TIP3    H233855   5.689   0.382   3.188
11300TIP3   OH233856   1.429   0.258   0.149
11300TIP3    H133857   1.477   0.339   0.166
11300TIP3    H233858   1.362   0.255   0.217
11301TIP3   OH233859   3.098   7.304   6.197
11301TIP3    H133860   3.086   7.254   6.117
11301TIP3    H233861   3.016   7.352   6.209
11302TIP3   OH233862   7.271   0.311   1.345
11302TIP3    H133863   7.273   0.218   1.322
11302TIP3    H233864   7.209   0.349   1.283
11303TIP3   OH233865   2.113   4.400   1.630
11303TIP3    H133866   2.059   4.324   1.606
11303TIP3    H233867   2.050   4.464   1.662
11304TIP3   OH233868   0.964   5.591   2.027
11304TIP3    H133869   0.897   5.649   1.990
11304TIP3    H233870   1.032   5.651   2.059
11305TIP3   OH233871   6.099   3.385   1.707
11305TIP3    H133872   6.033   3.432   1.758
11305TIP3    H233873   6.051   3.353   1.630
11306TIP3   OH233874   0.660   0.021   4.936
11306TIP3    H133875   0.695   0.094   4.885
11306TIP3    H233876   0.617  -0.035   4.871
11307TIP3   OH233877   1.901   1.041   3.274
11307TIP3    H133878   1.881   1.120   3.223
11307TIP3    H233879   1.861   0.970   3.224
11308TIP3   OH233880   1.920   6.965   3.798
11308TIP3    H133881   1.950   7.008   3.718
11308TIP3    H233882   1.836   7.006   3.818
11309TIP3   OH233883   3.918   7.456   6.187
11309TIP3    H133884   3.976   7.511   6.133
11309TIP3    H233885   3.938   7.481   6.277
11310TIP3   OH233886   1.935   6.790   5.417
11310TIP3    H133887   1.907   6.833   5.498
11310TIP3    H233888   2.027   6.768   5.432
11311TIP3   OH233889   4.148   1.755   0.320
11311TIP3    H133890   4.181   1.674   0.358
11311TIP3    H233891   4.202   1.769   0.242
11312TIP3   OH233892   3.046   4.957   6.046
11312TIP3    H133893   2.980   4.891   6.026
11312TIP3    H233894   2.997   5.039   6.049
11313TIP3   OH233895   0.555   3.462   4.784
11313TIP3    H133896   0.639   3.423   4.809
11313TIP3    H233897   0.545   3.438   4.691
11314TIP3   OH233898   2.381   4.917   4.865
11314TIP3    H133899   2.349   4.961   4.785
11314TIP3    H233900   2.475   4.930   4.863
11315TIP3   OH233901   1.146   3.923   5.815
11315TIP3    H133902   1.215   3.966   5.765
11315TIP3    H233903   1.168   3.940   5.907
11316TIP3   OH233904   0.267   7.402   2.293
11316TIP3    H133905   0.266   7.340   2.365
11316TIP3    H233906   0.351   7.388   2.249
11317TIP3   OH233907   6.492   3.343   5.817
11317TIP3    H133908   6.504   3.402   5.743
11317TIP3    H233909   6.474   3.401   5.891
11318TIP3   OH233910   7.206   1.360   5.850
11318TIP3    H133911   7.294   1.355   5.886
11318TIP3    H233912   7.150   1.318   5.916
11319TIP3   OH233913   5.047   2.873   0.047
11319TIP3    H133914   5.096   2.869   0.129
11319TIP3    H233915   5.090   2.808  -0.009
11320TIP3   OH233916   3.791   6.576   0.738
11320TIP3    H133917   3.880   6.603   0.713
11320TIP3    H233918   3.805   6.506   0.801
11321TIP3   OH233919   2.781   2.980   0.404
11321TIP3    H133920   2.707   3.016   0.356
11321TIP3    H233921   2.844   2.955   0.337
11322TIP3   OH233922   6.717   5.346   0.151
11322TIP3    H133923   6.657   5.366   0.079
11322TIP3    H233924   6.668   5.366   0.230
11323TIP3   OH233925   1.004   0.444   5.595
11323TIP3    H133926   0.929   0.461   5.652
11323TIP3    H233927   1.003   0.349   5.583
11324TIP3   OH233928   2.286   1.880   4.072
11324TIP3    H133929   2.379   1.904   4.076
11324TIP3    H233930   2.286   1.787   4.049
11325TIP3   OH233931   7.964   4.274   2.922
11325TIP3    H133932   7.970   4.315   2.836
11325TIP3    H233933   7.901   4.203   2.910
11326TIP3   OH233934   1.032   0.515   0.672
11326TIP3    H133935   1.108   0.546   0.623
11326TIP3    H233936   1.012   0.587   0.733
11327TIP3   OH233937   5.246   5.333   6.139
11327TIP3    H133938   5.154   5.334   6.168
11327TIP3    H233939   5.277   5.245   6.162
11328TIP3   OH233940   6.690   1.884   0.247
11328TIP3    H133941   6.666   1.885   0.340
11328TIP3    H233942   6.607   1.868   0.201
11329TIP3   OH233943   5.749   5.235   3.174
11329TIP3    H133944   5.752   5.163   3.110
11329TIP3    H233945   5.701   5.304   3.129
11330TIP3   OH233946   8.273   1.432   1.767
11330TIP3    H133947   8.180   1.455   1.773
11330TIP3    H233948   8.278   1.373   1.692
11331TIP3   OH233949   7.301   1.237   3.097
11331TIP3    H133950   7.250   1.171   3.144
11331TIP3    H233951   7.240   1.272   3.032
11332TIP3   OH233952   0.594   2.313   6.723
11332TIP3    H133953   0.686   2.338   6.717
11332TIP3    H233954   0.565   2.346   6.808
11333TIP3   OH233955   7.459   6.766   3.508
11333TIP3    H133956   7.522   6.787   3.578
11333TIP3    H233957   7.373   6.783   3.547
11334TIP3   OH233958   1.663   1.555   5.126
11334TIP3    H133959   1.585   1.606   5.101
11334TIP3    H233960   1.707   1.537   5.043
11335TIP3   OH233961   4.545   0.798   6.532
11335TIP3    H133962   4.453   0.804   6.558
11335TIP3    H233963   4.585   0.877   6.568
11336TIP3   OH233964   3.308   2.928   0.638
11336TIP3    H133965   3.245   2.963   0.701
11336TIP3    H233966   3.269   2.947   0.553
11337TIP3   OH233967   2.978   0.518   5.195
11337TIP3    H133968   3.011   0.451   5.135
11337TIP3    H233969   2.893   0.485   5.224
11338TIP3   OH233970   3.812   6.838   6.126
11338TIP3    H133971   3.907   6.851   6.125
11338TIP3    H233972   3.801   6.744   6.143
11339TIP3   OH233973   1.351   5.083   0.804
11339TIP3    H133974   1.307   5.014   0.854
11339TIP3    H233975   1.406   5.036   0.741
11340TIP3   OH233976   8.142   1.413   0.950
11340TIP3    H133977   8.174   1.452   1.031
11340TIP3    H233978   8.048   1.432   0.949
11341TIP3   OH233979   5.768   3.456   3.832
11341TIP3    H133980   5.698   3.396   3.806
11341TIP3    H233981   5.724   3.538   3.851
11342TIP3   OH233982   0.933   3.612   5.167
11342TIP3    H133983   1.002   3.562   5.122
11342TIP3    H233984   0.980   3.679   5.216
11343TIP3   OH233985   7.206   7.843   3.605
11343TIP3    H133986   7.242   7.774   3.550
11343TIP3    H233987   7.207   7.806   3.694
11344TIP3   OH233988   4.200   2.146   4.893
11344TIP3    H133989   4.234   2.211   4.954
11344TIP3    H233990   4.156   2.082   4.949
11345TIP3   OH233991   0.979   0.969   3.997
11345TIP3    H133992   0.961   0.878   4.021
11345TIP3    H233993   0.955   0.975   3.904
11346TIP3   OH233994   6.658   4.393   6.329
11346TIP3    H133995   6.684   4.353   6.245
11346TIP3    H233996   6.727   4.367   6.390
11347TIP3   OH233997   6.780   7.355   6.356
11347TIP3    H133998   6.860   7.394   6.391
11347TIP3    H233999   6.781   7.265   6.387
11348TIP3   OH234000   6.651   3.611   0.483
11348TIP3    H134001   6.578   3.628   0.543
11348TIP3    H234002   6.726   3.595   0.540
11349TIP3   OH234003   6.849   4.068   5.040
11349TIP3    H134004   6.939   4.100   5.036
11349TIP3    H234005   6.798   4.144   5.069
11350TIP3   OH234006   0.550   0.602   1.026
11350TIP3    H134007   0.541   0.523   0.972
11350TIP3    H234008   0.616   0.578   1.091
11351TIP3   OH234009   5.057   0.373   4.421
11351TIP3    H134010   5.125   0.314   4.454
11351TIP3    H234011   5.079   0.385   4.329
11352TIP3   OH234012   0.351   1.160   3.229
11352TIP3    H134013   0.382   1.250   3.227
11352TIP3    H234014   0.380   1.126   3.314
11353TIP3   OH234015   6.459   2.799   4.214
11353TIP3    H134016   6.409   2.835   4.287
11353TIP3    H234017   6.505   2.724   4.251
11354TIP3   OH234018   1.745   4.844   2.561
11354TIP3    H134019   1.789   4.868   2.643
11354TIP3    H234020   1.713   4.927   2.525
11355TIP3   OH234021   8.210   0.380   1.426
11355TIP3    H134022   8.292   0.411   1.388
11355TIP3    H234023   8.145   0.444   1.397
11356TIP3   OH234024   7.474   1.812   1.357
11356TIP3    H134025   7.513   1.752   1.294
11356TIP3    H234026   7.513   1.897   1.337
11357TIP3   OH234027   7.896   4.658   2.845
11357TIP3    H134028   7.986   4.678   2.873
11357TIP3    H234029   7.876   4.726   2.780
11358TIP3   OH234030   0.780   3.346   5.814
11358TIP3    H134031   0.778   3.251   5.802
11358TIP3    H234032   0.868   3.365   5.846
11359TIP3   OH234033   6.470   0.348   6.171
11359TIP3    H134034   6.522   0.284   6.122
11359TIP3    H234035   6.429   0.402   6.103
11360TIP3   OH234036   1.315   6.588   0.547
11360TIP3    H134037   1.226   6.553   0.544
11360TIP3    H234038   1.314   6.663   0.488
11361TIP3   OH234039   6.585   1.826   1.565
11361TIP3    H134040   6.677   1.838   1.543
11361TIP3    H234041   6.585   1.801   1.657
11362TIP3   OH234042   7.610   3.669   5.002
11362TIP3    H134043   7.542   3.729   5.032
11362TIP3    H234044   7.666   3.655   5.079
11363TIP3   OH234045   7.730   6.430   0.051
11363TIP3    H134046   7.812   6.441   0.099
11363TIP3    H234047   7.754   6.442  -0.041
11364TIP3   OH234048   4.729   2.535   1.547
11364TIP3    H134049   4.719   2.584   1.466
11364TIP3    H234050   4.644   2.492   1.560
11365TIP3   OH234051   7.307   7.086   3.700
11365TIP3    H134052   7.379   7.124   3.650
11365TIP3    H234053   7.343   7.070   3.787
11366TIP3   OH234054   0.489   3.399   3.037
11366TIP3    H134055   0.435   3.322   3.014
11366TIP3    H234056   0.460   3.423   3.125
11367TIP3   OH234057   0.162   6.301   2.840
11367TIP3    H134058   0.086   6.255   2.804
11367TIP3    H234059   0.216   6.231   2.878
11368TIP3   OH234060   2.889   1.830   4.503
11368TIP3    H134061   2.978   1.807   4.478
11368TIP3    H234062   2.837   1.753   4.482
11369TIP3   OH234063   5.013   4.839   0.813
11369TIP3    H134064   5.010   4.931   0.788
11369TIP3    H234065   4.952   4.832   0.887
11370TIP3   OH234066   0.078   4.589   2.742
11370TIP3    H134067   0.173   4.578   2.739
11370TIP3    H234068   0.043   4.512   2.696
11371TIP3   OH234069   5.067   5.877   0.657
11371TIP3    H134070   5.049   5.794   0.701
11371TIP3    H234071   4.989   5.893   0.603
11372TIP3   OH234072   5.294   4.752   4.051
11372TIP3    H134073   5.311   4.658   4.047
11372TIP3    H234074   5.278   4.769   4.144
11373TIP3   OH234075   0.974   3.694   4.239
11373TIP3    H134076   0.898   3.708   4.296
11373TIP3    H234077   1.047   3.735   4.286
11374TIP3   OH234078   6.939   3.992   1.629
11374TIP3    H134079   7.032   3.973   1.612
11374TIP3    H234080   6.934   4.087   1.630
11375TIP3   OH234081   4.427   0.312   5.723
11375TIP3    H134082   4.392   0.231   5.759
11375TIP3    H234083   4.448   0.365   5.800
11376TIP3   OH234084   0.548   0.647   5.687
11376TIP3    H134085   0.492   0.724   5.688
11376TIP3    H234086   0.542   0.614   5.597
11377TIP3   OH234087   2.690   5.273   1.768
11377TIP3    H134088   2.661   5.316   1.848
11377TIP3    H234089   2.631   5.199   1.758
11378TIP3   OH234090   1.070   5.857   1.164
11378TIP3    H134091   1.034   5.920   1.226
11378TIP3    H234092   1.135   5.907   1.114
11379TIP3   OH234093   4.058   7.323   0.434
11379TIP3    H134094   4.069   7.417   0.450
11379TIP3    H234095   4.136   7.283   0.471
11380TIP3   OH234096   1.417   0.128   1.033
11380TIP3    H134097   1.401   0.036   1.011
11380TIP3    H234098   1.512   0.139   1.023
11381TIP3   OH234099   6.495   4.306   4.683
11381TIP3    H134100   6.473   4.216   4.707
11381TIP3    H234101   6.554   4.297   4.608
11382TIP3   OH234102   2.934   3.363   2.676
11382TIP3    H134103   2.972   3.290   2.725
11382TIP3    H234104   2.992   3.374   2.600
11383TIP3   OH234105   0.141   6.142   5.348
11383TIP3    H134106   0.075   6.073   5.341
11383TIP3    H234107   0.217   6.098   5.385
11384TIP3   OH234108   1.368   5.880   4.305
11384TIP3    H134109   1.276   5.864   4.326
11384TIP3    H234110   1.416   5.825   4.367
11385TIP3   OH234111   4.121   7.011   2.982
11385TIP3    H134112   4.130   6.932   3.036
11385TIP3    H234113   4.157   6.986   2.897
11386TIP3   OH234114   0.983   0.846   0.921
11386TIP3    H134115   1.069   0.836   0.961
11386TIP3    H234116   0.998   0.831   0.827
11387TIP3   OH234117   7.692   0.754   5.792
11387TIP3    H134118   7.663   0.802   5.869
11387TIP3    H234119   7.630   0.682   5.784
11388TIP3   OH234120   8.224   7.541   0.495
11388TIP3    H134121   8.168   7.603   0.541
11388TIP3    H234122   8.246   7.585   0.413
11389TIP3   OH234123   7.596   2.802   1.161
11389TIP3    H134124   7.662   2.734   1.153
11389TIP3    H234125   7.548   2.782   1.241
11390TIP3   OH234126   5.425   3.005   6.705
11390TIP3    H134127   5.338   3.038   6.721
11390TIP3    H234128   5.465   2.996   6.792
11391TIP3   OH234129   2.144   2.206   5.385
11391TIP3    H134130   2.064   2.216   5.332
11391TIP3    H234131   2.132   2.122   5.430
11392TIP3   OH234132   7.123   1.040   2.368
11392TIP3    H134133   7.030   1.042   2.390
11392TIP3    H234134   7.127   1.001   2.281
11393TIP3   OH234135   2.472   5.027   5.510
11393TIP3    H134136   2.383   5.021   5.476
11393TIP3    H234137   2.510   5.102   5.464
11394TIP3   OH234138   7.739   3.728   3.932
11394TIP3    H134139   7.799   3.794   3.967
11394TIP3    H234140   7.712   3.764   3.847
11395TIP3   OH234141   8.107   4.506   6.347
11395TIP3    H134142   8.159   4.442   6.395
11395TIP3    H234143   8.024   4.461   6.330
11396TIP3   OH234144   5.542   2.394   0.742
11396TIP3    H134145   5.502   2.316   0.704
11396TIP3    H234146   5.470   2.454   0.757
11397TIP3   OH234147   1.331   3.537   2.039
11397TIP3    H134148   1.240   3.528   2.066
11397TIP3    H234149   1.346   3.631   2.037
11398TIP3   OH234150   4.623   7.477   5.793
11398TIP3    H134151   4.539   7.491   5.749
11398TIP3    H234152   4.667   7.410   5.740
11399TIP3   OH234153   0.104   3.505   0.463
11399TIP3    H134154   0.024   3.555   0.481
11399TIP3    H234155   0.165   3.532   0.531
11400TIP3   OH234156   0.459   6.312   4.156
11400TIP3    H134157   0.377   6.352   4.188
11400TIP3    H234158   0.438   6.219   4.146
11401TIP3   OH234159   5.398   7.443   0.450
11401TIP3    H134160   5.394   7.384   0.374
11401TIP3    H234161   5.315   7.428   0.496
11402TIP3   OH234162   4.274   3.139   3.616
11402TIP3    H134163   4.246   3.138   3.707
11402TIP3    H234164   4.211   3.196   3.572
11403TIP3   OH234165   1.973   2.643   6.342
11403TIP3    H134166   1.942   2.682   6.424
11403TIP3    H234167   1.956   2.710   6.276
11404TIP3   OH234168   0.746   2.571   5.697
11404TIP3    H134169   0.769   2.602   5.609
11404TIP3    H234170   0.766   2.644   5.755
11405TIP3   OH234171   3.991   0.228   0.516
11405TIP3    H134172   3.951   0.156   0.469
11405TIP3    H234173   3.991   0.200   0.608
11406TIP3   OH234174   6.558   6.177   2.392
11406TIP3    H134175   6.503   6.254   2.377
11406TIP3    H234176   6.519   6.109   2.338
11407TIP3   OH234177   5.799   1.801   5.262
11407TIP3    H134178   5.847   1.719   5.268
11407TIP3    H234179   5.864   1.866   5.234
11408TIP3   OH234180   7.348   2.121   3.558
11408TIP3    H134181   7.385   2.156   3.476
11408TIP3    H234182   7.422   2.119   3.619
11409TIP3   OH234183   3.715   4.565   5.159
11409TIP3    H134184   3.627   4.585   5.193
11409TIP3    H234185   3.774   4.586   5.231
11410TIP3   OH234186   0.365   6.629   2.934
11410TIP3    H134187   0.382   6.721   2.955
11410TIP3    H234188   0.290   6.631   2.875
11411TIP3   OH234189   5.171   5.145   0.971
11411TIP3    H134190   5.162   5.088   1.047
11411TIP3    H234191   5.263   5.137   0.946
11412TIP3   OH234192   6.022   5.351   5.244
11412TIP3    H134193   5.996   5.378   5.332
11412TIP3    H234194   5.946   5.371   5.189
11413TIP3   OH234195   4.411   0.413   2.065
11413TIP3    H134196   4.488   0.471   2.062
11413TIP3    H234197   4.372   0.422   1.978
11414TIP3   OH234198   0.516   7.692   3.879
11414TIP3    H134199   0.597   7.642   3.893
11414TIP3    H234200   0.454   7.656   3.942
11415TIP3   OH234201   3.000   0.927   5.094
11415TIP3    H134202   3.039   0.983   5.026
11415TIP3    H234203   2.956   0.989   5.153
11416TIP3   OH234204   8.070   2.670   4.765
11416TIP3    H134205   7.984   2.711   4.767
11416TIP3    H234206   8.100   2.674   4.856
11417TIP3   OH234207   3.735   6.026   2.480
11417TIP3    H134208   3.720   5.944   2.433
11417TIP3    H234209   3.691   6.093   2.426
11418TIP3   OH234210   5.619   2.786   1.315
11418TIP3    H134211   5.695   2.733   1.292
11418TIP3    H234212   5.633   2.807   1.408
11419TIP3   OH234213   6.502   7.046   3.319
11419TIP3    H134214   6.568   7.110   3.293
11419TIP3    H234215   6.470   7.078   3.404
11420TIP3   OH234216   3.576   7.521   0.931
11420TIP3    H134217   3.635   7.593   0.912
11420TIP3    H234218   3.614   7.477   1.007
11421TIP3   OH234219   1.951   5.511   4.009
11421TIP3    H134220   2.029   5.457   3.999
11421TIP3    H234221   1.950   5.536   4.101
11422TIP3   OH234222   2.961   7.659   5.154
11422TIP3    H134223   2.955   7.571   5.192
11422TIP3    H234224   2.871   7.692   5.155
11423TIP3   OH234225   4.696   3.831   0.409
11423TIP3    H134226   4.691   3.775   0.331
11423TIP3    H234227   4.685   3.771   0.483
11424TIP3   OH234228   2.919   7.368   0.689
11424TIP3    H134229   2.960   7.372   0.603
11424TIP3    H234230   2.828   7.395   0.674
11425TIP3   OH234231   6.797   2.338   3.485
11425TIP3    H134232   6.831   2.405   3.426
11425TIP3    H234233   6.704   2.333   3.465
11426TIP3   OH234234   6.606   6.888   3.557
11426TIP3    H134235   6.640   6.886   3.468
11426TIP3    H234236   6.605   6.796   3.585
11427TIP3   OH234237   7.560   3.282   0.608
11427TIP3    H134238   7.562   3.207   0.549
11427TIP3    H234239   7.505   3.254   0.681
11428TIP3   OH234240   5.538   2.264   2.943
11428TIP3    H134241   5.524   2.330   3.011
11428TIP3    H234242   5.628   2.235   2.955
11429TIP3   OH234243   0.250   7.464   4.932
11429TIP3    H134244   0.203   7.448   4.850
11429TIP3    H234245   0.233   7.556   4.951
11430TIP3   OH234246   6.421   4.263   6.236
11430TIP3    H134247   6.466   4.314   6.303
11430TIP3    H234248   6.371   4.328   6.186
11431TIP3   OH234249   0.455   5.332   0.329
11431TIP3    H134250   0.432   5.261   0.270
11431TIP3    H234251   0.451   5.293   0.417
11432TIP3   OH234252   2.173   5.256   1.274
11432TIP3    H134253   2.126   5.310   1.211
11432TIP3    H234254   2.110   5.239   1.343
11433TIP3   OH234255   7.439   7.472   0.893
11433TIP3    H134256   7.381   7.415   0.944
11433TIP3    H234257   7.381   7.512   0.828
11434TIP3   OH234258   5.490   2.616   5.229
11434TIP3    H134259   5.434   2.691   5.211
11434TIP3    H234260   5.516   2.584   5.142
11435TIP3   OH234261   2.769   5.038   0.024
11435TIP3    H134262   2.832   5.049   0.095
11435TIP3    H234263   2.801   4.964  -0.026
11436TIP3   OH234264   4.208   5.343   2.470
11436TIP3    H134265   4.234   5.435   2.470
11436TIP3    H234266   4.222   5.314   2.561
11437TIP3   OH234267   1.027   5.158   4.835
11437TIP3    H134268   1.102   5.127   4.886
11437TIP3    H234269   1.035   5.253   4.836
11438TIP3   OH234270   7.758   4.855   0.848
11438TIP3    H134271   7.785   4.765   0.829
11438TIP3    H234272   7.771   4.902   0.765
11439TIP3   OH234273   1.402   2.890   2.937
11439TIP3    H134274   1.453   2.899   3.017
11439TIP3    H234275   1.330   2.832   2.961
11440TIP3   OH234276   0.392   1.531   2.964
11440TIP3    H134277   0.478   1.565   2.987
11440TIP3    H234278   0.370   1.576   2.882
11441TIP3   OH234279   8.006   2.989   0.713
11441TIP3    H134280   8.060   3.037   0.775
11441TIP3    H234281   7.920   2.983   0.755
11442TIP3   OH234282   4.620   5.065   0.083
11442TIP3    H134283   4.536   5.019   0.091
11442TIP3    H234284   4.686   4.997   0.094
11443TIP3   OH234285   3.854   7.007   2.945
11443TIP3    H134286   3.949   7.008   2.934
11443TIP3    H234287   3.837   7.064   3.020
11444TIP3   OH234288   5.174   1.596   5.879
11444TIP3    H134289   5.213   1.590   5.792
11444TIP3    H234290   5.084   1.626   5.863
11445TIP3   OH234291   6.870   4.718   1.044
11445TIP3    H134292   6.915   4.759   1.118
11445TIP3    H234293   6.782   4.755   1.046
11446TIP3   OH234294   8.076   7.702   0.651
11446TIP3    H134295   8.016   7.774   0.672
11446TIP3    H234296   8.021   7.624   0.652
11447TIP3   OH234297   5.392   5.285   2.749
11447TIP3    H134298   5.328   5.356   2.760
11447TIP3    H234299   5.341   5.212   2.714
11448TIP3   OH234300   8.213   3.797   0.868
11448TIP3    H134301   8.240   3.769   0.955
11448TIP3    H234302   8.291   3.837   0.830
11449TIP3   OH234303   1.679   0.650   6.249
11449TIP3    H134304   1.611   0.683   6.308
11449TIP3    H234305   1.703   0.725   6.195
11450TIP3   OH234306   6.311   6.539   2.007
11450TIP3    H134307   6.252   6.477   1.964
11450TIP3    H234308   6.254   6.610   2.035
11451TIP3   OH234309   7.793   1.781   6.728
11451TIP3    H134310   7.831   1.730   6.657
11451TIP3    H234311   7.776   1.718   6.798
11452TIP3   OH234312   3.357   0.937   3.783
11452TIP3    H134313   3.314   0.859   3.816
11452TIP3    H234314   3.444   0.907   3.755
11453TIP3   OH234315   6.681   5.486   6.400
11453TIP3    H134316   6.709   5.565   6.445
11453TIP3    H234317   6.643   5.517   6.318
11454TIP3   OH234318   0.797   5.636   5.776
11454TIP3    H134319   0.773   5.616   5.866
11454TIP3    H234320   0.862   5.570   5.753
11455TIP3   OH234321   1.118   0.156   4.122
11455TIP3    H134322   1.188   0.092   4.107
11455TIP3    H234323   1.038   0.103   4.126
11456TIP3   OH234324   6.992   6.868   3.122
11456TIP3    H134325   6.952   6.785   3.148
11456TIP3    H234326   7.077   6.868   3.165
11457TIP3   OH234327   6.137   3.783   5.546
11457TIP3    H134328   6.218   3.790   5.596
11457TIP3    H234329   6.108   3.874   5.535
11458TIP3   OH234330   3.139   3.953   3.580
11458TIP3    H134331   3.082   4.019   3.620
11458TIP3    H234332   3.198   3.927   3.651
11459TIP3   OH234333   6.988   4.307   5.244
11459TIP3    H134334   6.924   4.352   5.188
11459TIP3    H234335   7.029   4.377   5.294
11460TIP3   OH234336   1.125   2.681   3.338
11460TIP3    H134337   1.188   2.629   3.288
11460TIP3    H234338   1.179   2.741   3.389
11461TIP3   OH234339   1.665   1.184   0.222
11461TIP3    H134340   1.622   1.266   0.244
11461TIP3    H234341   1.712   1.203   0.141
11462TIP3   OH234342   7.627   1.612   1.220
11462TIP3    H134343   7.684   1.663   1.163
11462TIP3    H234344   7.680   1.537   1.246
11463TIP3   OH234345   2.917   1.439   0.639
11463TIP3    H134346   2.878   1.376   0.578
11463TIP3    H234347   2.913   1.522   0.591
11464TIP3   OH234348   4.207   1.832   6.465
11464TIP3    H134349   4.213   1.740   6.488
11464TIP3    H234350   4.156   1.834   6.385
11465TIP3   OH234351   2.453   6.162   0.619
11465TIP3    H134352   2.423   6.127   0.703
11465TIP3    H234353   2.514   6.096   0.586
11466TIP3   OH234354   4.406   4.672   2.950
11466TIP3    H134355   4.353   4.681   2.871
11466TIP3    H234356   4.407   4.760   2.988
11467TIP3   OH234357   5.572   4.019   2.115
11467TIP3    H134358   5.556   3.926   2.133
11467TIP3    H234359   5.502   4.044   2.055
11468TIP3   OH234360   0.324   2.821   4.965
11468TIP3    H134361   0.327   2.741   5.019
11468TIP3    H234362   0.270   2.882   5.016
11469TIP3   OH234363   4.246   0.890   0.043
11469TIP3    H134364   4.290   0.903  -0.041
11469TIP3    H234365   4.243   0.977   0.082
11470TIP3   OH234366   2.898   4.025   1.700
11470TIP3    H134367   2.911   3.933   1.725
11470TIP3    H234368   2.964   4.073   1.750
11471TIP3   OH234369   6.655   0.717   5.013
11471TIP3    H134370   6.605   0.695   4.934
11471TIP3    H234371   6.744   0.686   4.994
11472TIP3   OH234372   0.779   0.670   0.586
11472TIP3    H134373   0.873   0.653   0.578
11472TIP3    H234374   0.747   0.663   0.496
11473TIP3   OH234375   6.231   2.934   1.140
11473TIP3    H134376   6.243   2.864   1.076
11473TIP3    H234377   6.174   2.896   1.207
11474TIP3   OH234378   2.287   2.057   4.919
11474TIP3    H134379   2.330   1.997   4.981
11474TIP3    H234380   2.247   2.124   4.974
11475TIP3   OH234381   4.089   4.126   6.635
11475TIP3    H134382   4.014   4.111   6.692
11475TIP3    H234383   4.104   4.221   6.640
11476TIP3   OH234384   0.762   1.291   0.715
11476TIP3    H134385   0.727   1.213   0.759
11476TIP3    H234386   0.807   1.256   0.638
11477TIP3   OH234387   2.823   5.865   1.381
11477TIP3    H134388   2.797   5.773   1.377
11477TIP3    H234389   2.918   5.863   1.387
11478TIP3   OH234390   6.553   0.610   4.511
11478TIP3    H134391   6.547   0.577   4.421
11478TIP3    H234392   6.633   0.662   4.512
11479TIP3   OH234393   4.089   7.326   5.826
11479TIP3    H134394   4.020   7.367   5.774
11479TIP3    H234395   4.096   7.380   5.904
11480TIP3   OH234396   5.936   7.629   0.105
11480TIP3    H134397   5.841   7.619   0.102
11480TIP3    H234398   5.950   7.722   0.122
11481TIP3   OH234399   3.322   4.243   1.770
11481TIP3    H134400   3.390   4.221   1.706
11481TIP3    H234401   3.357   4.319   1.817
11482TIP3   OH234402   5.151   5.423   3.464
11482TIP3    H134403   5.194   5.421   3.550
11482TIP3    H234404   5.111   5.336   3.456
11483TIP3   OH234405   5.141   6.363   5.505
11483TIP3    H134406   5.047   6.376   5.515
11483TIP3    H234407   5.161   6.398   5.418
11484TIP3   OH234408   3.864   6.141   3.250
11484TIP3    H134409   3.878   6.052   3.218
11484TIP3    H234410   3.886   6.137   3.343
11485TIP3   OH234411   4.117   2.934   2.541
11485TIP3    H134412   4.178   2.862   2.553
11485TIP3    H234413   4.045   2.897   2.492
11486TIP3   OH234414   5.736   4.188   2.652
11486TIP3    H134415   5.723   4.270   2.606
11486TIP3    H234416   5.764   4.214   2.740
11487TIP3   OH234417   6.814   7.455   2.444
11487TIP3    H134418   6.801   7.454   2.539
11487TIP3    H234419   6.730   7.425   2.409
11488TIP3   OH234420   5.555   3.911   4.365
11488TIP3    H134421   5.589   3.921   4.276
11488TIP3    H234422   5.609   3.969   4.418
11489TIP3   OH234423   0.873   6.988   2.859
11489TIP3    H134424   0.871   7.006   2.953
11489TIP3    H234425   0.967   6.978   2.839
11490TIP3   OH234426   0.414   1.684   4.476
11490TIP3    H134427   0.399   1.689   4.382
11490TIP3    H234428   0.422   1.775   4.505
11491TIP3   OH234429   1.399   2.822   6.179
11491TIP3    H134430   1.340   2.748   6.192
11491TIP3    H234431   1.486   2.784   6.184
11492TIP3   OH234432   3.517   2.242   3.165
11492TIP3    H134433   3.422   2.259   3.169
11492TIP3    H234434   3.538   2.206   3.251
11493TIP3   OH234435   5.300   3.340   4.240
11493TIP3    H134436   5.332   3.339   4.330
11493TIP3    H234437   5.291   3.248   4.216
11494TIP3   OH234438   4.072   2.223   3.939
11494TIP3    H134439   4.139   2.164   3.973
11494TIP3    H234440   4.012   2.236   4.012
11495TIP3   OH234441   1.960   1.483   1.827
11495TIP3    H134442   1.988   1.545   1.894
11495TIP3    H234443   1.869   1.462   1.849
11496TIP3   OH234444   2.598   4.875   4.454
11496TIP3    H134445   2.589   4.780   4.465
11496TIP3    H234446   2.686   4.886   4.417
11497TIP3   OH234447   6.746   0.160   3.805
11497TIP3    H134448   6.696   0.078   3.799
11497TIP3    H234449   6.785   0.158   3.892
11498TIP3   OH234450   0.065   7.371   1.535
11498TIP3    H134451   0.078   7.465   1.523
11498TIP3    H234452   0.123   7.347   1.608
11499TIP3   OH234453   5.498   6.567   5.058
11499TIP3    H134454   5.462   6.494   5.008
11499TIP3    H234455   5.584   6.583   5.019
11500TIP3   OH234456   3.333   5.425   2.719
11500TIP3    H134457   3.308   5.334   2.706
11500TIP3    H234458   3.311   5.443   2.811
11501TIP3   OH234459   7.906   4.374   6.528
11501TIP3    H134460   7.880   4.377   6.435
11501TIP3    H234461   7.872   4.291   6.559
11502TIP3   OH234462   4.112   3.917   4.784
11502TIP3    H134463   4.127   4.001   4.827
11502TIP3    H234464   4.121   3.935   4.690
11503TIP3   OH234465   5.420   4.006   0.969
11503TIP3    H134466   5.405   4.099   0.984
11503TIP3    H234467   5.441   3.971   1.055
11504TIP3   OH234468   1.971   3.193   3.526
11504TIP3    H134469   2.046   3.136   3.540
11504TIP3    H234470   2.007   3.282   3.533
11505TIP3   OH234471   2.945   2.790   2.050
11505TIP3    H134472   3.004   2.825   2.117
11505TIP3    H234473   2.994   2.798   1.968
11506TIP3   OH234474   0.599   6.308   0.503
11506TIP3    H134475   0.596   6.312   0.599
11506TIP3    H234476   0.507   6.304   0.477
11507TIP3   OH234477   3.395   4.408   0.945
11507TIP3    H134478   3.341   4.349   0.997
11507TIP3    H234479   3.410   4.361   0.863
11508TIP3   OH234480   1.617   0.581   2.808
11508TIP3    H134481   1.616   0.535   2.892
11508TIP3    H234482   1.623   0.673   2.831
11509TIP3   OH234483   6.635   5.417   5.551
11509TIP3    H134484   6.701   5.472   5.507
11509TIP3    H234485   6.645   5.331   5.510
11510TIP3   OH234486   7.100   6.591   2.389
11510TIP3    H134487   7.161   6.663   2.377
11510TIP3    H234488   7.059   6.579   2.303
11511TIP3   OH234489   4.354   5.804   4.899
11511TIP3    H134490   4.259   5.794   4.905
11511TIP3    H234491   4.388   5.717   4.923
11512TIP3   OH234492   6.269   6.244   5.160
11512TIP3    H134493   6.223   6.231   5.243
11512TIP3    H234494   6.198   6.258   5.096
11513TIP3   OH234495   2.450   0.422   5.604
11513TIP3    H134496   2.436   0.389   5.515
11513TIP3    H234497   2.367   0.464   5.627
11514TIP3   OH234498   4.778   5.153   5.309
11514TIP3    H134499   4.773   5.220   5.378
11514TIP3    H234500   4.733   5.077   5.346
11515TIP3   OH234501   3.688   1.718   2.702
11515TIP3    H134502   3.599   1.703   2.733
11515TIP3    H234503   3.688   1.684   2.612
11516TIP3   OH234504   5.010   3.582  -0.019
11516TIP3    H134505   5.082   3.645  -0.010
11516TIP3    H234506   5.028   3.516   0.048
11517TIP3   OH234507   2.994   2.945   0.237
11517TIP3    H134508   3.033   3.018   0.188
11517TIP3    H234509   3.020   2.867   0.187
11518TIP3   OH234510   7.784   4.198   3.930
11518TIP3    H134511   7.861   4.143   3.919
11518TIP3    H234512   7.749   4.174   4.016
11519TIP3   OH234513   5.578   1.504   4.148
11519TIP3    H134514   5.631   1.452   4.208
11519TIP3    H234515   5.491   1.507   4.189
11520TIP3   OH234516   4.665   1.142   0.375
11520TIP3    H134517   4.677   1.049   0.396
11520TIP3    H234518   4.575   1.149   0.343
11521TIP3   OH234519   0.241   5.895   4.464
11521TIP3    H134520   0.237   5.987   4.438
11521TIP3    H234521   0.334   5.880   4.484
11522TIP3   OH234522   3.467   7.232   1.376
11522TIP3    H134523   3.403   7.189   1.318
11522TIP3    H234524   3.414   7.269   1.446
11523TIP3   OH234525   7.498   6.551   1.564
11523TIP3    H134526   7.575   6.605   1.582
11523TIP3    H234527   7.528   6.461   1.581
11524TIP3   OH234528   6.861   4.991   5.364
11524TIP3    H134529   6.812   4.943   5.431
11524TIP3    H234530   6.922   5.045   5.413
11525TIP3   OH234531   4.937   3.369   4.657
11525TIP3    H134532   4.859   3.320   4.631
11525TIP3    H234533   4.905   3.456   4.680
11526TIP3   OH234534   5.286   2.017   3.961
11526TIP3    H134535   5.192   2.036   3.957
11526TIP3    H234536   5.307   2.020   4.054
11527TIP3   OH234537   0.271   7.793   1.641
11527TIP3    H134538   0.240   7.824   1.727
11527TIP3    H234539   0.365   7.777   1.654
11528TIP3   OH234540   3.340   1.271   1.511
11528TIP3    H134541   3.344   1.343   1.575
11528TIP3    H234542   3.379   1.308   1.432
11529TIP3   OH234543   4.740   2.791   1.694
11529TIP3    H134544   4.715   2.702   1.670
11529TIP3    H234545   4.713   2.844   1.619
11530TIP3   OH234546   6.334   1.671   4.733
11530TIP3    H134547   6.423   1.664   4.766
11530TIP3    H234548   6.340   1.732   4.660
11531TIP3   OH234549   5.679   2.381   0.011
11531TIP3    H134550   5.736   2.347   0.080
11531TIP3    H234551   5.677   2.311  -0.055
11532TIP3   OH234552   2.145   6.902   2.845
11532TIP3    H134553   2.155   6.915   2.939
11532TIP3    H234554   2.133   6.807   2.835
11533TIP3   OH234555   3.495   6.124   6.057
11533TIP3    H134556   3.457   6.139   5.970
11533TIP3    H234557   3.516   6.211   6.089
11534TIP3   OH234558   5.114   2.806   4.493
11534TIP3    H134559   5.176   2.876   4.512
11534TIP3    H234560   5.029   2.841   4.520
11535TIP3   OH234561   1.439   0.479   5.052
11535TIP3    H134562   1.375   0.513   5.114
11535TIP3    H234563   1.468   0.556   5.002
11536TIP3   OH234564   4.967   0.765   0.096
11536TIP3    H134565   4.880   0.760   0.137
11536TIP3    H234566   4.960   0.709   0.019
11537TIP3   OH234567   0.288   0.088   3.260
11537TIP3    H134568   0.241   0.170   3.252
11537TIP3    H234569   0.244   0.042   3.332
11538TIP3   OH234570   6.131   0.836   1.476
11538TIP3    H134571   6.093   0.877   1.399
11538TIP3    H234572   6.177   0.907   1.521
11539TIP3   OH234573   3.846   4.155   1.273
11539TIP3    H134574   3.929   4.181   1.234
11539TIP3    H234575   3.823   4.227   1.332
11540TIP3   OH234576   8.039   2.187   5.529
11540TIP3    H134577   8.012   2.106   5.573
11540TIP3    H234578   8.117   2.215   5.577
11541TIP3   OH234579   5.983   0.338   6.157
11541TIP3    H134580   6.025   0.275   6.216
11541TIP3    H234581   6.054   0.378   6.109
11542TIP3   OH234582   1.916   5.147   2.383
11542TIP3    H134583   1.966   5.189   2.313
11542TIP3    H234584   1.936   5.199   2.461
11543TIP3   OH234585   2.799   7.030   0.539
11543TIP3    H134586   2.801   7.020   0.634
11543TIP3    H234587   2.775   7.121   0.524
11544TIP3   OH234588   4.646   7.759   1.101
11544TIP3    H134589   4.707   7.727   1.167
11544TIP3    H234590   4.654   7.696   1.029
11545TIP3   OH234591   0.070   2.529   3.485
11545TIP3    H134592  -0.011   2.527   3.536
11545TIP3    H234593   0.126   2.463   3.526
11546TIP3   OH234594   6.627   4.564   0.844
11546TIP3    H134595   6.656   4.580   0.934
11546TIP3    H234596   6.654   4.643   0.796
11547TIP3   OH234597   1.790   6.861   0.692
11547TIP3    H134598   1.778   6.769   0.716
11547TIP3    H234599   1.883   6.869   0.673
11548TIP3   OH234600   7.372   1.764   5.907
11548TIP3    H134601   7.357   1.695   5.973
11548TIP3    H234602   7.357   1.846   5.955
11549TIP3   OH234603   2.389   6.265   3.244
11549TIP3    H134604   2.389   6.213   3.325
11549TIP3    H234605   2.327   6.336   3.262
11550TIP3   OH234606   0.903   2.130   4.495
11550TIP3    H134607   0.819   2.101   4.530
11550TIP3    H234608   0.966   2.067   4.528
11551TIP3   OH234609   4.039   4.549   4.736
11551TIP3    H134610   4.092   4.488   4.786
11551TIP3    H234611   4.102   4.596   4.681
11552TIP3   OH234612   7.406   4.711   1.524
11552TIP3    H134613   7.327   4.709   1.469
11552TIP3    H234614   7.465   4.648   1.484
11553TIP3   OH234615   1.304   2.479   1.149
11553TIP3    H134616   1.218   2.451   1.117
11553TIP3    H234617   1.312   2.436   1.234
11554TIP3   OH234618   4.376   3.164   1.967
11554TIP3    H134619   4.385   3.098   1.898
11554TIP3    H234620   4.352   3.113   2.045
11555TIP3   OH234621   5.007   1.424   4.408
11555TIP3    H134622   4.928   1.410   4.356
11555TIP3    H234623   5.036   1.335   4.432
11556TIP3   OH234624   5.369   5.960   3.404
11556TIP3    H134625   5.340   5.906   3.477
11556TIP3    H234626   5.429   5.903   3.355
11557TIP3   OH234627   7.624   5.260   5.073
11557TIP3    H134628   7.596   5.294   5.158
11557TIP3    H234629   7.543   5.256   5.021
11558TIP3   OH234630   7.044   3.128   2.695
11558TIP3    H134631   7.133   3.093   2.693
11558TIP3    H234632   6.989   3.056   2.668
11559TIP3   OH234633   7.730   1.628   0.276
11559TIP3    H134634   7.816   1.586   0.285
11559TIP3    H234635   7.674   1.558   0.242
11560TIP3   OH234636   5.551   2.752   3.776
11560TIP3    H134637   5.577   2.837   3.742
11560TIP3    H234638   5.627   2.721   3.825
11561TIP3   OH234639   5.617   3.794   2.466
11561TIP3    H134640   5.534   3.838   2.485
11561TIP3    H234641   5.684   3.857   2.493
11562TIP3   OH234642   5.672   3.449   6.753
11562TIP3    H134643   5.736   3.505   6.797
11562TIP3    H234644   5.714   3.422   6.672
11563TIP3   OH234645   6.714   0.894   1.141
11563TIP3    H134646   6.784   0.941   1.186
11563TIP3    H234647   6.755   0.855   1.064
11564TIP3   OH234648   1.846   7.121   3.074
11564TIP3    H134649   1.883   7.202   3.109
11564TIP3    H234650   1.755   7.121   3.104
11565TIP3   OH234651   4.347   0.669   6.149
11565TIP3    H134652   4.351   0.727   6.073
11565TIP3    H234653   4.253   0.653   6.162
11566TIP3   OH234654   1.773   4.284   0.174
11566TIP3    H134655   1.750   4.260   0.263
11566TIP3    H234656   1.868   4.272   0.170
11567TIP3   OH234657   4.227   3.650   6.323
11567TIP3    H134658   4.147   3.694   6.351
11567TIP3    H234659   4.284   3.652   6.401
11568TIP3   OH234660   0.667   2.033   4.581
11568TIP3    H134661   0.572   2.048   4.580
11568TIP3    H234662   0.679   1.965   4.648
11569TIP3   OH234663   6.708   5.731   4.648
11569TIP3    H134664   6.718   5.713   4.741
11569TIP3    H234665   6.676   5.649   4.610
11570TIP3   OH234666   3.783   2.573   2.629
11570TIP3    H134667   3.692   2.598   2.615
11570TIP3    H234668   3.779   2.482   2.658
11571TIP3   OH234669   2.835   3.390   0.423
11571TIP3    H134670   2.782   3.469   0.420
11571TIP3    H234671   2.875   3.384   0.336
11572TIP3   OH234672   5.187   5.126   2.678
11572TIP3    H134673   5.143   5.072   2.613
11572TIP3    H234674   5.161   5.216   2.657
11573TIP3   OH234675   7.704   3.171   4.013
11573TIP3    H134676   7.678   3.260   3.988
11573TIP3    H234677   7.793   3.162   3.978
11574TIP3   OH234678   7.714   7.641   4.796
11574TIP3    H134679   7.752   7.558   4.825
11574TIP3    H234680   7.623   7.619   4.776
11575TIP3   OH234681   6.913   6.409   5.365
11575TIP3    H134682   6.984   6.463   5.399
11575TIP3    H234683   6.931   6.402   5.272
11576TIP3   OH234684   6.458   6.068   0.493
11576TIP3    H134685   6.532   6.020   0.530
11576TIP3    H234686   6.438   6.022   0.412
11577TIP3   OH234687   1.307   5.369   4.824
11577TIP3    H134688   1.307   5.341   4.733
11577TIP3    H234689   1.375   5.436   4.829
11578TIP3   OH234690   0.553   5.084   2.551
11578TIP3    H134691   0.534   4.990   2.551
11578TIP3    H234692   0.644   5.090   2.582
11579TIP3   OH234693   7.141   6.875   0.566
11579TIP3    H134694   7.135   6.962   0.526
11579TIP3    H234695   7.190   6.823   0.502
11580TIP3   OH234696   2.260   6.591   6.512
11580TIP3    H134697   2.298   6.679   6.509
11580TIP3    H234698   2.166   6.607   6.503
11581TIP3   OH234699   2.643   3.519   0.591
11581TIP3    H134700   2.566   3.538   0.645
11581TIP3    H234701   2.624   3.434   0.552
11582TIP3   OH234702   4.801   2.648   6.520
11582TIP3    H134703   4.890   2.612   6.525
11582TIP3    H234704   4.773   2.654   6.612
11583TIP3   OH234705   6.994   5.791   3.461
11583TIP3    H134706   6.956   5.730   3.525
11583TIP3    H234707   6.941   5.870   3.470
11584TIP3   OH234708   1.551   1.960   4.164
11584TIP3    H134709   1.582   1.907   4.238
11584TIP3    H234710   1.606   1.932   4.090
11585TIP3   OH234711   2.089   3.040   1.217
11585TIP3    H134712   2.105   3.062   1.125
11585TIP3    H234713   2.083   2.944   1.218
11586TIP3   OH234714   6.624   7.353   3.483
11586TIP3    H134715   6.684   7.338   3.410
11586TIP3    H234716   6.643   7.284   3.545
11587TIP3   OH234717   8.145   7.253   0.024
11587TIP3    H134718   8.099   7.224  -0.055
11587TIP3    H234719   8.082   7.239   0.095
11588TIP3   OH234720   7.469   2.488   4.163
11588TIP3    H134721   7.495   2.579   4.177
11588TIP3    H234722   7.442   2.485   4.071
11589TIP3   OH234723   8.124   6.793   2.888
11589TIP3    H134724   8.129   6.742   2.969
11589TIP3    H234725   8.127   6.884   2.916
11590TIP3   OH234726   2.932   5.313   5.957
11590TIP3    H134727   2.975   5.253   5.897
11590TIP3    H234728   2.943   5.400   5.917
11591TIP3   OH234729   2.787   1.482   5.079
11591TIP3    H134730   2.828   1.541   5.016
11591TIP3    H234731   2.858   1.425   5.107
11592TIP3   OH234732   3.229   4.236   1.080
11592TIP3    H134733   3.219   4.206   0.989
11592TIP3    H234734   3.172   4.178   1.130
11593TIP3   OH234735   7.126   0.734   3.906
11593TIP3    H134736   7.118   0.826   3.881
11593TIP3    H234737   7.073   0.687   3.840
11594TIP3   OH234738   3.464   0.275   4.990
11594TIP3    H134739   3.373   0.246   4.992
11594TIP3    H234740   3.496   0.245   4.905
11595TIP3   OH234741   2.139   5.595   3.519
11595TIP3    H134742   2.130   5.564   3.429
11595TIP3    H234743   2.232   5.587   3.538
11596TIP3   OH234744   6.932   1.489   2.498
11596TIP3    H134745   6.933   1.539   2.580
11596TIP3    H234746   6.957   1.553   2.431
11597TIP3   OH234747   1.981   3.386   3.082
11597TIP3    H134748   1.923   3.447   3.127
11597TIP3    H234749   2.063   3.390   3.133
11598TIP3   OH234750   3.490   3.430   5.933
11598TIP3    H134751   3.534   3.510   5.905
11598TIP3    H234752   3.467   3.386   5.851
11599TIP3   OH234753   5.537   6.327   6.668
11599TIP3    H134754   5.494   6.400   6.714
11599TIP3    H234755   5.563   6.363   6.584
11600TIP3   OH234756   4.938   0.188   0.805
11600TIP3    H134757   4.852   0.225   0.785
11600TIP3    H234758   4.919   0.099   0.835
11601TIP3   OH234759   0.754   4.011   5.563
11601TIP3    H134760   0.698   4.064   5.508
11601TIP3    H234761   0.707   3.928   5.572
11602TIP3   OH234762   0.952   5.249   5.992
11602TIP3    H134763   0.873   5.271   5.944
11602TIP3    H234764   0.924   5.248   6.084
11603TIP3   OH234765   5.866   6.477   6.625
11603TIP3    H134766   5.881   6.403   6.566
11603TIP3    H234767   5.915   6.456   6.704
11604TIP3   OH234768   6.688   5.226   5.336
11604TIP3    H134769   6.783   5.231   5.351
11604TIP3    H234770   6.676   5.147   5.284
11605TIP3   OH234771   0.231   2.184   4.509
11605TIP3    H134772   0.156   2.197   4.451
11605TIP3    H234773   0.303   2.160   4.452
11606TIP3   OH234774   5.024   4.802   1.573
11606TIP3    H134775   4.986   4.790   1.487
11606TIP3    H234776   4.977   4.741   1.630
11607TIP3   OH234777   4.254   1.865   2.530
11607TIP3    H134778   4.323   1.831   2.473
11607TIP3    H234779   4.195   1.791   2.542
11608TIP3   OH234780   3.848   4.781   0.910
11608TIP3    H134781   3.907   4.832   0.964
11608TIP3    H234782   3.844   4.695   0.952
11609TIP3   OH234783   3.287   0.396   4.711
11609TIP3    H134784   3.244   0.383   4.627
11609TIP3    H234785   3.220   0.378   4.776
11610TIP3   OH234786   1.608   4.763   5.416
11610TIP3    H134787   1.648   4.687   5.457
11610TIP3    H234788   1.516   4.758   5.441
11611TIP3   OH234789   4.398   2.080   2.585
11611TIP3    H134790   4.340   2.007   2.606
11611TIP3    H234791   4.368   2.152   2.640
11612TIP3   OH234792   7.885   6.561   2.330
11612TIP3    H134793   7.957   6.620   2.307
11612TIP3    H234794   7.812   6.619   2.353
11613TIP3   OH234795   1.613   7.689   1.022
11613TIP3    H134796   1.677   7.749   1.060
11613TIP3    H234797   1.598   7.723   0.933
11614TIP3   OH234798   0.964   6.250   2.073
11614TIP3    H134799   0.961   6.336   2.115
11614TIP3    H234800   1.009   6.194   2.136
11615TIP3   OH234801   6.008   5.455   1.716
11615TIP3    H134802   6.037   5.545   1.699
11615TIP3    H234803   6.000   5.416   1.629
11616TIP3   OH234804   3.907   3.195   1.896
11616TIP3    H134805   3.864   3.268   1.940
11616TIP3    H234806   4.000   3.219   1.896
11617TIP3   OH234807   2.214   1.837   0.377
11617TIP3    H134808   2.249   1.827   0.465
11617TIP3    H234809   2.156   1.913   0.383
11618TIP3   OH234810   6.928   3.367   3.591
11618TIP3    H134811   7.003   3.345   3.536
11618TIP3    H234812   6.889   3.443   3.548
11619TIP3   OH234813   3.183   5.587   1.863
11619TIP3    H134814   3.144   5.672   1.846
11619TIP3    H234815   3.205   5.553   1.777
11620TIP3   OH234816   2.226   6.318   0.287
11620TIP3    H134817   2.250   6.301   0.378
11620TIP3    H234818   2.297   6.279   0.236
11621TIP3   OH234819   4.990   2.512   3.820
11621TIP3    H134820   5.013   2.567   3.746
11621TIP3    H234821   4.929   2.565   3.872
11622TIP3   OH234822   4.778   7.304   2.701
11622TIP3    H134823   4.822   7.308   2.617
11622TIP3    H234824   4.746   7.393   2.716
11623TIP3   OH234825   3.754   6.371   5.232
11623TIP3    H134826   3.819   6.426   5.190
11623TIP3    H234827   3.671   6.418   5.221
11624TIP3   OH234828   6.220   2.870   1.878
11624TIP3    H134829   6.144   2.912   1.837
11624TIP3    H234830   6.219   2.904   1.968
11625TIP3   OH234831   1.947   3.556   1.872
11625TIP3    H134832   1.891   3.592   1.803
11625TIP3    H234833   2.036   3.562   1.837
11626TIP3   OH234834   2.674   5.085   6.208
11626TIP3    H134835   2.710   5.093   6.120
11626TIP3    H234836   2.748   5.103   6.266
11627TIP3   OH234837   5.298   5.568   0.112
11627TIP3    H134838   5.275   5.598   0.200
11627TIP3    H234839   5.222   5.516   0.084
11628TIP3   OH234840   0.648   2.015   3.854
11628TIP3    H134841   0.694   2.041   3.934
11628TIP3    H234842   0.702   1.944   3.818
11629TIP3   OH234843   5.851   1.303   3.060
11629TIP3    H134844   5.804   1.362   3.119
11629TIP3    H234845   5.783   1.264   3.006
11630TIP3   OH234846   0.987   6.552   5.333
11630TIP3    H134847   1.015   6.603   5.409
11630TIP3    H234848   0.939   6.615   5.279
11631TIP3   OH234849   2.571   3.890   2.289
11631TIP3    H134850   2.656   3.849   2.280
11631TIP3    H234851   2.510   3.817   2.304
11632TIP3   OH234852   8.225   5.494   0.580
11632TIP3    H134853   8.202   5.428   0.514
11632TIP3    H234854   8.279   5.447   0.643
11633TIP3   OH234855   6.269   6.740   1.007
11633TIP3    H134856   6.199   6.786   0.961
11633TIP3    H234857   6.232   6.653   1.024
11634TIP3   OH234858   2.251   6.869   6.717
11634TIP3    H134859   2.288   6.860   6.629
11634TIP3    H234860   2.287   6.951   6.750
11635TIP3   OH234861   1.651   5.823   5.396
11635TIP3    H134862   1.747   5.819   5.392
11635TIP3    H234863   1.622   5.741   5.355
11636TIP3   OH234864   3.270   0.949   0.987
11636TIP3    H134865   3.346   0.946   0.929
11636TIP3    H234866   3.302   0.991   1.067
11637TIP3   OH234867   3.055   2.776   0.682
11637TIP3    H134868   3.143   2.737   0.678
11637TIP3    H234869   3.056   2.829   0.762
11638TIP3   OH234870   2.397   2.040   3.657
11638TIP3    H134871   2.407   1.976   3.727
11638TIP3    H234872   2.331   2.002   3.599
11639TIP3   OH234873   5.699   0.309   0.147
11639TIP3    H134874   5.631   0.347   0.203
11639TIP3    H234875   5.716   0.376   0.081
11640TIP3   OH234876   3.570   5.820   2.093
11640TIP3    H134877   3.499   5.759   2.074
11640TIP3    H234878   3.631   5.809   2.020
11641TIP3   OH234879   4.471   0.464   1.424
11641TIP3    H134880   4.437   0.502   1.505
11641TIP3    H234881   4.464   0.534   1.360
11642TIP3   OH234882   6.977   7.080   4.040
11642TIP3    H134883   6.988   7.153   4.100
11642TIP3    H234884   6.966   7.004   4.096
11643TIP3   OH234885   5.924   2.534   3.703
11643TIP3    H134886   5.884   2.611   3.663
11643TIP3    H234887   5.959   2.566   3.786
11644TIP3   OH234888   7.814   2.413   4.855
11644TIP3    H134889   7.802   2.346   4.788
11644TIP3    H234890   7.909   2.423   4.862
11645TIP3   OH234891   5.137   7.351   0.250
11645TIP3    H134892   5.096   7.311   0.173
11645TIP3    H234893   5.192   7.421   0.214
11646TIP3   OH234894   5.477   3.672   0.168
11646TIP3    H134895   5.548   3.608   0.167
11646TIP3    H234896   5.512   3.746   0.219
11647TIP3   OH234897   5.671   4.836   5.382
11647TIP3    H134898   5.757   4.804   5.353
11647TIP3    H234899   5.656   4.792   5.465
11648TIP3   OH234900   6.604   2.717   3.936
11648TIP3    H134901   6.638   2.727   4.025
11648TIP3    H234902   6.660   2.651   3.895
11649TIP3   OH234903   1.000   3.685   5.748
11649TIP3    H134904   1.038   3.651   5.829
11649TIP3    H234905   1.031   3.776   5.744
11650TIP3   OH234906  -0.011   3.482   5.479
11650TIP3    H134907   0.020   3.524   5.399
11650TIP3    H234908   0.050   3.510   5.547
11651TIP3   OH234909   1.575   2.155   5.521
11651TIP3    H134910   1.585   2.116   5.608
11651TIP3    H234911   1.656   2.205   5.508
11652TIP3   OH234912   0.981   4.287   6.663
11652TIP3    H134913   0.923   4.254   6.595
11652TIP3    H234914   0.962   4.232   6.739
11653TIP3   OH234915   5.819   6.445   0.787
11653TIP3    H134916   5.738   6.397   0.804
11653TIP3    H234917   5.862   6.449   0.872
11654TIP3   OH234918   5.308   3.400   0.164
11654TIP3    H134919   5.358   3.481   0.152
11654TIP3    H234920   5.223   3.430   0.196
11655TIP3   OH234921   6.599   3.527   5.626
11655TIP3    H134922   6.528   3.590   5.635
11655TIP3    H234923   6.670   3.563   5.680
11656TIP3   OH234924   5.138   0.750   5.076
11656TIP3    H134925   5.155   0.809   5.149
11656TIP3    H234926   5.224   0.734   5.037
11657TIP3   OH234927   5.118   3.355   3.714
11657TIP3    H134928   5.133   3.431   3.770
11657TIP3    H234929   5.027   3.330   3.731
11658TIP3   OH234930   5.730   7.290   4.560
11658TIP3    H134931   5.814   7.287   4.606
11658TIP3    H234932   5.740   7.228   4.488
11659TIP3   OH234933   1.215   4.211   1.444
11659TIP3    H134934   1.121   4.202   1.431
11659TIP3    H234935   1.224   4.280   1.510
11660TIP3   OH234936   1.311   3.814   6.520
11660TIP3    H134937   1.373   3.759   6.567
11660TIP3    H234938   1.239   3.827   6.581
11661TIP3   OH234939   5.639   2.799   1.617
11661TIP3    H134940   5.566   2.858   1.600
11661TIP3    H234941   5.653   2.805   1.712
11662TIP3   OH234942   0.878   0.280   6.399
11662TIP3    H134943   0.913   0.332   6.327
11662TIP3    H234944   0.889   0.189   6.371
11663TIP3   OH234945   6.919   6.907   5.134
11663TIP3    H134946   6.944   6.972   5.067
11663TIP3    H234947   6.900   6.960   5.211
11664TIP3   OH234948   2.335   7.103   4.539
11664TIP3    H134949   2.263   7.051   4.503
11664TIP3    H234950   2.322   7.191   4.503
11665TIP3   OH234951   1.219   7.046   1.580
11665TIP3    H134952   1.214   7.134   1.615
11665TIP3    H234953   1.275   6.998   1.641
11666TIP3   OH234954   6.724   5.753   6.542
11666TIP3    H134955   6.790   5.743   6.611
11666TIP3    H234956   6.679   5.835   6.563
11667TIP3   OH234957   3.398   2.134   3.933
11667TIP3    H134958   3.378   2.092   3.850
11667TIP3    H234959   3.440   2.216   3.909
11668TIP3   OH234960   0.490   5.410   0.857
11668TIP3    H134961   0.569   5.454   0.888
11668TIP3    H234962   0.454   5.366   0.934
11669TIP3   OH234963   1.398   1.520   3.424
11669TIP3    H134964   1.394   1.471   3.506
11669TIP3    H234965   1.418   1.454   3.358
11670TIP3   OH234966   6.856   0.113   4.051
11670TIP3    H134967   6.899   0.029   4.067
11670TIP3    H234968   6.776   0.109   4.102
11671TIP3   OH234969   3.528   1.180   6.282
11671TIP3    H134970   3.577   1.113   6.234
11671TIP3    H234971   3.591   1.251   6.296
11672TIP3   OH234972   4.785   1.513   3.893
11672TIP3    H134973   4.774   1.535   3.801
11672TIP3    H234974   4.718   1.564   3.939
11673TIP3   OH234975   4.827   6.870   4.818
11673TIP3    H134976   4.754   6.884   4.758
11673TIP3    H234977   4.864   6.786   4.791
11674TIP3   OH234978   3.951   3.131   6.324
11674TIP3    H134979   3.948   3.087   6.239
11674TIP3    H234980   3.965   3.061   6.387
11675TIP3   OH234981   0.559   5.694   1.889
11675TIP3    H134982   0.577   5.752   1.963
11675TIP3    H234983   0.468   5.712   1.866
11676TIP3   OH234984   2.896   3.184   5.677
11676TIP3    H134985   2.938   3.208   5.760
11676TIP3    H234986   2.945   3.108   5.646
11677TIP3   OH234987   1.764   1.230   1.490
11677TIP3    H134988   1.739   1.308   1.539
11677TIP3    H234989   1.772   1.260   1.399
11678TIP3   OH234990   3.088   3.687   2.336
11678TIP3    H134991   3.065   3.631   2.410
11678TIP3    H234992   3.037   3.767   2.349
11679TIP3   OH234993   0.532   4.100   5.410
11679TIP3    H134994   0.469   4.156   5.455
11679TIP3    H234995   0.523   4.124   5.318
11680TIP3   OH234996   7.374   4.432   5.891
11680TIP3    H134997   7.370   4.355   5.834
11680TIP3    H234998   7.302   4.488   5.860
11681TIP3   OH234999   1.382   4.730   3.581
11681TIP3    H135000   1.468   4.759   3.550
11681TIP3    H235001   1.321   4.760   3.514
11682TIP3   OH235002   7.052   3.926   2.545
11682TIP3    H135003   7.136   3.967   2.522
11682TIP3    H235004   7.022   3.885   2.465
11683TIP3   OH235005   2.791   6.925   1.711
11683TIP3    H135006   2.792   6.830   1.705
11683TIP3    H235007   2.765   6.955   1.624
11684TIP3   OH235008   7.116   5.144   1.778
11684TIP3    H135009   7.198   5.180   1.813
11684TIP3    H235010   7.110   5.180   1.689
11685TIP3   OH235011   1.337   3.305   0.984
11685TIP3    H135012   1.281   3.376   1.014
11685TIP3    H235013   1.352   3.251   1.061
11686TIP3   OH235014   8.248   2.832   2.555
11686TIP3    H135015   8.323   2.817   2.498
11686TIP3    H235016   8.283   2.881   2.629
11687TIP3   OH235017   4.244   3.087   6.680
11687TIP3    H135018   4.163   3.109   6.634
11687TIP3    H235019   4.229   2.998   6.713
11688TIP3   OH235020   8.187   0.968   3.194
11688TIP3    H135021   8.105   1.008   3.166
11688TIP3    H235022   8.191   0.885   3.146
11689TIP3   OH235023   0.921   3.754   6.551
11689TIP3    H135024   0.918   3.814   6.477
11689TIP3    H235025   0.836   3.764   6.594
11690TIP3   OH235026   3.151   7.681   4.159
11690TIP3    H135027   3.175   7.765   4.119
11690TIP3    H235028   3.062   7.664   4.127
11691TIP3   OH235029   6.066   6.493   3.477
11691TIP3    H135030   5.991   6.463   3.426
11691TIP3    H235031   6.043   6.471   3.568
11692TIP3   OH235032   6.469   5.298   4.003
11692TIP3    H135033   6.513   5.338   3.927
11692TIP3    H235034   6.513   5.213   4.014
11693TIP3   OH235035   0.099   1.748   0.244
11693TIP3    H135036   0.116   1.841   0.262
11693TIP3    H235037   0.166   1.702   0.294
11694TIP3   OH235038   2.740   4.848   5.475
11694TIP3    H135039   2.745   4.934   5.434
11694TIP3    H235040   2.736   4.786   5.402
11695TIP3   OH235041   0.020   6.669   0.625
11695TIP3    H135042   0.001   6.679   0.532
11695TIP3    H235043   0.014   6.758   0.661
11696TIP3   OH235044   0.723   4.152   0.959
11696TIP3    H135045   0.817   4.171   0.947
11696TIP3    H235046   0.717   4.057   0.958
11697TIP3   OH235047   3.545   0.388   6.504
11697TIP3    H135048   3.459   0.346   6.503
11697TIP3    H235049   3.606   0.318   6.527
11698TIP3   OH235050   2.790   2.771   3.766
11698TIP3    H135051   2.792   2.812   3.853
11698TIP3    H235052   2.729   2.698   3.776
11699TIP3   OH235053   0.734   0.396   5.417
11699TIP3    H135054   0.644   0.428   5.418
11699TIP3    H235055   0.773   0.431   5.498
11700TIP3   OH235056   6.007   1.665   3.044
11700TIP3    H135057   5.954   1.634   3.117
11700TIP3    H235058   5.966   1.627   2.967
11701TIP3   OH235059   4.902   7.759   5.351
11701TIP3    H135060   4.950   7.676   5.363
11701TIP3    H235061   4.893   7.767   5.256
11702TIP3   OH235062   7.381   2.403   2.898
11702TIP3    H135063   7.458   2.450   2.929
11702TIP3    H235064   7.320   2.407   2.972
11703TIP3   OH235065   7.265   7.762   2.479
11703TIP3    H135066   7.327   7.797   2.415
11703TIP3    H235067   7.280   7.667   2.476
11704TIP3   OH235068   4.298   2.105   1.017
11704TIP3    H135069   4.250   2.061   0.947
11704TIP3    H235070   4.377   2.138   0.975
11705TIP3   OH235071   2.274   4.100   5.471
11705TIP3    H135072   2.348   4.040   5.463
11705TIP3    H235073   2.198   4.048   5.447
11706TIP3   OH235074   2.416   4.634   5.027
11706TIP3    H135075   2.474   4.699   4.987
11706TIP3    H235076   2.330   4.654   4.992
11707TIP3   OH235077   7.323   5.044   2.351
11707TIP3    H135078   7.273   5.002   2.420
11707TIP3    H235079   7.350   4.972   2.294
11708TIP3   OH235080   0.831   7.145   6.516
11708TIP3    H135081   0.736   7.150   6.506
11708TIP3    H235082   0.848   7.180   6.604
11709TIP3   OH235083   6.376   0.069   6.164
11709TIP3    H135084   6.430   0.135   6.209
11709TIP3    H235085   6.438   0.003   6.134
11710TIP3   OH235086   0.812   0.940   6.011
11710TIP3    H135087   0.811   0.863   5.955
11710TIP3    H235088   0.896   0.935   6.057
11711TIP3   OH235089   0.366   0.321   0.189
11711TIP3    H135090   0.394   0.256   0.253
11711TIP3    H235091   0.279   0.349   0.220
11712TIP3   OH235092   1.669   5.877   4.711
11712TIP3    H135093   1.591   5.898   4.660
11712TIP3    H235094   1.736   5.862   4.644
11713TIP3   OH235095   2.901   6.485   6.123
11713TIP3    H135096   2.842   6.551   6.161
11713TIP3    H235097   2.976   6.536   6.091
11714TIP3   OH235098   5.472   2.255   4.562
11714TIP3    H135099   5.481   2.282   4.470
11714TIP3    H235100   5.378   2.262   4.580
11715TIP3   OH235101   1.930   1.106   3.994
11715TIP3    H135102   1.862   1.051   4.033
11715TIP3    H235103   1.959   1.162   4.067
11716TIP3   OH235104   2.314   1.418   1.610
11716TIP3    H135105   2.328   1.341   1.556
11716TIP3    H235106   2.371   1.485   1.572
11717TIP3   OH235107   6.635   3.836   0.066
11717TIP3    H135108   6.553   3.789   0.080
11717TIP3    H235109   6.609   3.922   0.034
11718TIP3   OH235110   0.771   6.944   2.001
11718TIP3    H135111   0.841   6.878   1.999
11718TIP3    H235112   0.797   7.003   2.072
11719TIP3   OH235113   5.745   7.314   4.941
11719TIP3    H135114   5.791   7.241   4.900
11719TIP3    H235115   5.652   7.297   4.924
11720TIP3   OH235116   1.481   2.088   3.826
11720TIP3    H135117   1.430   2.080   3.906
11720TIP3    H235118   1.425   2.137   3.766
11721TIP3   OH235119   6.921   6.380   3.919
11721TIP3    H135120   6.900   6.330   3.998
11721TIP3    H235121   7.017   6.380   3.915
11722TIP3   OH235122   5.854   6.712   6.774
11722TIP3    H135123   5.828   6.635   6.723
11722TIP3    H235124   5.815   6.786   6.727
11723TIP3   OH235125   0.534   7.488   4.874
11723TIP3    H135126   0.447   7.501   4.912
11723TIP3    H235127   0.588   7.555   4.917
11724TIP3   OH235128   7.336   4.397   1.398
11724TIP3    H135129   7.430   4.411   1.409
11724TIP3    H235130   7.329   4.329   1.332
11725TIP3   OH235131   3.171   5.163   6.470
11725TIP3    H135132   3.154   5.104   6.543
11725TIP3    H235133   3.202   5.106   6.399
11726TIP3   OH235134   1.316   5.031   6.069
11726TIP3    H135135   1.409   5.021   6.049
11726TIP3    H235136   1.308   5.007   6.162
11727TIP3   OH235137   3.287   6.064   1.748
11727TIP3    H135138   3.369   6.076   1.700
11727TIP3    H235139   3.312   6.013   1.825
11728TIP3   OH235140   1.550   3.203   4.677
11728TIP3    H135141   1.616   3.228   4.612
11728TIP3    H235142   1.546   3.107   4.671
11729TIP3   OH235143   7.860   3.435   2.749
11729TIP3    H135144   7.799   3.407   2.680
11729TIP3    H235145   7.933   3.474   2.701
11730TIP3   OH235146   3.228   0.210   5.696
11730TIP3    H135147   3.297   0.276   5.695
11730TIP3    H235148   3.184   0.221   5.611
11731TIP3   OH235149   6.128   6.668   6.601
11731TIP3    H135150   6.054   6.620   6.637
11731TIP3    H235151   6.165   6.611   6.534
11732TIP3   OH235152   4.692   4.518   5.197
11732TIP3    H135153   4.641   4.599   5.190
11732TIP3    H235154   4.643   4.454   5.146
11733TIP3   OH235155   7.445   3.408   2.962
11733TIP3    H135156   7.438   3.404   3.058
11733TIP3    H235157   7.360   3.378   2.931
11734TIP3   OH235158   4.594   7.661   4.392
11734TIP3    H135159   4.650   7.620   4.459
11734TIP3    H235160   4.536   7.591   4.363
11735TIP3   OH235161   1.559   4.768   6.666
11735TIP3    H135162   1.538   4.676   6.683
11735TIP3    H235163   1.522   4.816   6.741
11736TIP3   OH235164   1.565   4.618   3.283
11736TIP3    H135165   1.486   4.583   3.243
11736TIP3    H235166   1.637   4.573   3.239
11737TIP3   OH235167   3.430   6.881   0.680
11737TIP3    H135168   3.503   6.819   0.671
11737TIP3    H235169   3.393   6.887   0.592
11738TIP3   OH235170   0.463   7.309   2.065
11738TIP3    H135171   0.540   7.316   2.008
11738TIP3    H235172   0.500   7.296   2.152
11739TIP3   OH235173   2.094   4.440   6.768
11739TIP3    H135174   2.099   4.523   6.816
11739TIP3    H235175   2.096   4.466   6.676
11740TIP3   OH235176   7.780   0.059   0.952
11740TIP3    H135177   7.787   0.091   0.862
11740TIP3    H235178   7.851   0.101   0.999
11741TIP3   OH235179   1.018   7.125   6.291
11741TIP3    H135180   0.955   7.118   6.362
11741TIP3    H235181   0.987   7.198   6.238
11742TIP3   OH235182   1.118   2.622  -0.023
11742TIP3    H135183   1.111   2.667   0.062
11742TIP3    H235184   1.185   2.555  -0.009
11743TIP3   OH235185   5.387   3.995   1.306
11743TIP3    H135186   5.338   4.059   1.358
11743TIP3    H235187   5.325   3.924   1.290
11744TIP3   OH235188   6.646   7.003   1.346
11744TIP3    H135189   6.713   7.032   1.407
11744TIP3    H235190   6.695   6.979   1.267
11745TIP3   OH235191   2.442   5.108   1.984
11745TIP3    H135192   2.460   5.184   2.039
11745TIP3    H235193   2.502   5.040   2.016
11746TIP3   OH235194   5.236   0.015   1.504
11746TIP3    H135195   5.279  -0.063   1.470
11746TIP3    H235196   5.298   0.050   1.569
11747TIP3   OH235197   7.122   6.976   5.784
11747TIP3    H135198   7.081   6.925   5.715
11747TIP3    H235199   7.102   6.928   5.865
11748TIP3   OH235200   1.608   3.288   0.283
11748TIP3    H135201   1.700   3.280   0.258
11748TIP3    H235202   1.570   3.343   0.214
11749TIP3   OH235203   4.718   4.228   5.822
11749TIP3    H135204   4.778   4.292   5.783
11749TIP3    H235205   4.640   4.232   5.767
11750TIP3   OH235206   2.764   3.570   1.205
11750TIP3    H135207   2.749   3.629   1.132
11750TIP3    H235208   2.761   3.482   1.166
11751TIP3   OH235209   6.334   4.894   1.392
11751TIP3    H135210   6.413   4.944   1.413
11751TIP3    H235211   6.316   4.917   1.300
11752TIP3   OH235212   0.112   5.222   6.530
11752TIP3    H135213   0.065   5.150   6.571
11752TIP3    H235214   0.070   5.301   6.565
11753TIP3   OH235215   0.217   6.165   4.392
11753TIP3    H135216   0.244   6.242   4.342
11753TIP3    H235217   0.134   6.190   4.433
11754TIP3   OH235218   3.792   7.036   6.566
11754TIP3    H135219   3.854   6.963   6.563
11754TIP3    H235220   3.706   6.994   6.563
11755TIP3   OH235221   4.213   7.202   4.888
11755TIP3    H135222   4.150   7.235   4.824
11755TIP3    H235223   4.196   7.108   4.891
11756TIP3   OH235224   4.955   2.969   0.663
11756TIP3    H135225   4.886   2.902   0.667
11756TIP3    H235226   4.982   2.980   0.754
11757TIP3   OH235227   1.867   2.180   3.954
11757TIP3    H135228   1.810   2.104   3.964
11757TIP3    H235229   1.954   2.143   3.943
11758TIP3   OH235230   0.074   0.910   5.042
11758TIP3    H135231   0.059   1.004   5.047
11758TIP3    H235232  -0.011   0.871   5.060
11759TIP3   OH235233   2.310   5.932   0.103
11759TIP3    H135234   2.296   5.850   0.056
11759TIP3    H235235   2.401   5.956   0.083
11760TIP3   OH235236   7.983   3.787   2.338
11760TIP3    H135237   7.959   3.850   2.406
11760TIP3    H235238   7.900   3.754   2.304
11761TIP3   OH235239   4.946   1.160   1.730
11761TIP3    H135240   5.026   1.201   1.762
11761TIP3    H235241   4.931   1.200   1.644
11762TIP3   OH235242   4.097   6.815   5.373
11762TIP3    H135243   4.033   6.753   5.338
11762TIP3    H235244   4.057   6.849   5.453
11763TIP3   OH235245   0.688   2.675   1.603
11763TIP3    H135246   0.752   2.660   1.672
11763TIP3    H235247   0.644   2.756   1.628
11764TIP3   OH235248   7.077   3.839   2.819
11764TIP3    H135249   7.018   3.853   2.745
11764TIP3    H235250   7.130   3.919   2.822
11765TIP3   OH235251   3.768   3.300   0.513
11765TIP3    H135252   3.711   3.253   0.453
11765TIP3    H235253   3.852   3.307   0.467
11766TIP3   OH235254   4.480   3.281   0.906
11766TIP3    H135255   4.481   3.273   0.810
11766TIP3    H235256   4.560   3.329   0.926
11767TIP3   OH235257   3.041   4.613   1.753
11767TIP3    H135258   3.014   4.544   1.813
11767TIP3    H235259   2.959   4.643   1.713
11768TIP3   OH235260   7.106   3.610   2.532
11768TIP3    H135261   7.112   3.528   2.581
11768TIP3    H235262   7.019   3.644   2.555
11769TIP3   OH235263   7.841   6.376   4.183
11769TIP3    H135264   7.781   6.304   4.204
11769TIP3    H235265   7.828   6.391   4.089
11770TIP3   OH235266   5.988   3.186   6.784
11770TIP3    H135267   5.947   3.109   6.822
11770TIP3    H235268   5.973   3.178   6.690
11771TIP3   OH235269   2.299   1.116   0.148
11771TIP3    H135270   2.236   1.084   0.212
11771TIP3    H235271   2.351   1.039   0.125
11772TIP3   OH235272   4.883   0.484   1.173
11772TIP3    H135273   4.895   0.389   1.169
11772TIP3    H235274   4.793   0.497   1.143
11773TIP3   OH235275   5.164   4.305   4.278
11773TIP3    H135276   5.233   4.371   4.271
11773TIP3    H235277   5.202   4.227   4.238
11774TIP3   OH235278   6.186   1.878   3.002
11774TIP3    H135279   6.133   1.800   3.015
11774TIP3    H235280   6.223   1.898   3.088
11775TIP3   OH235281   5.181   7.758   2.502
11775TIP3    H135282   5.164   7.802   2.419
11775TIP3    H235283   5.134   7.811   2.567
11776TIP3   OH235284   7.081   3.479   0.975
11776TIP3    H135285   7.127   3.476   1.059
11776TIP3    H235286   6.991   3.455   0.997
11777TIP3   OH235287   4.922   1.063   0.836
11777TIP3    H135288   4.993   1.015   0.793
11777TIP3    H235289   4.913   1.022   0.922
11778TIP3   OH235290   6.220   1.008   2.480
11778TIP3    H135291   6.152   1.064   2.442
11778TIP3    H235292   6.173   0.928   2.506
11779TIP3   OH235293   2.666   3.583   4.382
11779TIP3    H135294   2.637   3.506   4.432
11779TIP3    H235295   2.678   3.550   4.292
11780TIP3   OH235296   5.892   7.277   1.854
11780TIP3    H135297   5.851   7.307   1.936
11780TIP3    H235298   5.901   7.183   1.865
11781TIP3   OH235299   1.924   0.255   1.602
11781TIP3    H135300   2.009   0.218   1.580
11781TIP3    H235301   1.941   0.311   1.678
11782TIP3   OH235302   0.945   2.238   1.068
11782TIP3    H135303   0.937   2.286   1.150
11782TIP3    H235304   0.857   2.241   1.030
11783TIP3   OH235305   3.819   0.425   2.488
11783TIP3    H135306   3.732   0.463   2.502
11783TIP3    H235307   3.843   0.387   2.573
11784TIP3   OH235308   2.043   7.206   1.157
11784TIP3    H135309   1.991   7.254   1.222
11784TIP3    H235310   1.986   7.200   1.080
11785TIP3   OH235311   7.415   7.392   1.310
11785TIP3    H135312   7.359   7.336   1.364
11785TIP3    H235313   7.374   7.390   1.223
11786TIP3   OH235314   2.249   1.272   2.282
11786TIP3    H135315   2.229   1.297   2.192
11786TIP3    H235316   2.186   1.204   2.304
11787TIP3   OH235317   4.265   6.725   3.758
11787TIP3    H135318   4.224   6.808   3.783
11787TIP3    H235319   4.327   6.748   3.690
11788TIP3   OH235320   4.312   1.818   0.761
11788TIP3    H135321   4.236   1.840   0.707
11788TIP3    H235322   4.275   1.777   0.839
11789TIP3   OH235323   4.385   3.080   4.893
11789TIP3    H135324   4.408   3.099   4.802
11789TIP3    H235325   4.292   3.058   4.890
11790TIP3   OH235326   4.505   6.418   1.132
11790TIP3    H135327   4.593   6.422   1.171
11790TIP3    H235328   4.448   6.391   1.204
11791TIP3   OH235329   5.841   1.769   5.782
11791TIP3    H135330   5.917   1.786   5.838
11791TIP3    H235331   5.844   1.838   5.716
11792TIP3   OH235332   2.953   1.945   3.292
11792TIP3    H135333   2.954   1.974   3.201
11792TIP3    H235334   2.863   1.918   3.308
11793TIP3   OH235335   6.232   2.805   2.593
11793TIP3    H135336   6.236   2.880   2.533
11793TIP3    H235337   6.312   2.812   2.645
11794TIP3   OH235338   3.547   1.817   1.306
11794TIP3    H135339   3.534   1.909   1.284
11794TIP3    H235340   3.615   1.787   1.246
11795TIP3   OH235341   7.564   5.701   5.762
11795TIP3    H135342   7.475   5.680   5.788
11795TIP3    H235343   7.615   5.697   5.843
11796TIP3   OH235344   4.152   1.328   6.660
11796TIP3    H135345   4.134   1.388   6.733
11796TIP3    H235346   4.084   1.348   6.596
11797TIP3   OH235347   3.593   1.761   3.578
11797TIP3    H135348   3.565   1.694   3.515
11797TIP3    H235349   3.606   1.713   3.660
11798TIP3   OH235350   2.973   4.744   2.220
11798TIP3    H135351   3.021   4.783   2.293
11798TIP3    H235352   2.959   4.816   2.159
11799TIP3   OH235353   4.495   7.494   4.159
11799TIP3    H135354   4.579   7.448   4.163
11799TIP3    H235355   4.430   7.423   4.161
11800TIP3   OH235356   6.675   6.155   6.388
11800TIP3    H135357   6.643   6.107   6.312
11800TIP3    H235358   6.622   6.123   6.461
11801TIP3   OH235359   8.057   2.361   0.561
11801TIP3    H135360   8.064   2.457   0.559
11801TIP3    H235361   8.123   2.334   0.624
11802TIP3   OH235362   3.076   0.172   3.646
11802TIP3    H135363   3.079   0.262   3.611
11802TIP3    H235364   3.154   0.166   3.701
11803TIP3   OH235365   5.569   1.646   5.564
11803TIP3    H135366   5.528   1.721   5.520
11803TIP3    H235367   5.514   1.571   5.542
11804TIP3   OH235368   2.486   6.541   0.927
11804TIP3    H135369   2.400   6.509   0.901
11804TIP3    H235370   2.544   6.511   0.857
11805TIP3   OH235371   3.765   0.143   6.554
11805TIP3    H135372   3.809   0.165   6.636
11805TIP3    H235373   3.834   0.109   6.498
11806TIP3   OH235374   7.497   1.781   2.498
11806TIP3    H135375   7.555   1.738   2.436
11806TIP3    H235376   7.542   1.861   2.523
11807TIP3   OH235377   7.557   0.745   2.290
11807TIP3    H135378   7.595   0.729   2.204
11807TIP3    H235379   7.613   0.812   2.329
11808TIP3   OH235380   1.567   0.310   4.682
11808TIP3    H135381   1.491   0.362   4.658
11808TIP3    H235382   1.632   0.375   4.711
11809TIP3   OH235383   1.186   2.678   0.234
11809TIP3    H135384   1.153   2.766   0.252
11809TIP3    H235385   1.279   2.683   0.256
11810TIP3   OH235386   6.130   3.049   1.454
11810TIP3    H135387   6.225   3.040   1.446
11810TIP3    H235388   6.096   2.966   1.420
11811TIP3   OH235389   4.810   4.357   6.777
11811TIP3    H135390   4.860   4.276   6.765
11811TIP3    H235391   4.740   4.352   6.713
11812TIP3   OH235392   0.029   0.107   6.699
11812TIP3    H135393   0.083   0.045   6.649
11812TIP3    H235394  -0.017   0.158   6.632
11813TIP3   OH235395   4.831   7.238   3.719
11813TIP3    H135396   4.817   7.167   3.657
11813TIP3    H235397   4.925   7.234   3.739
11814TIP3   OH235398   7.043   1.029   3.064
11814TIP3    H135399   7.058   0.962   2.998
11814TIP3    H235400   6.950   1.023   3.086
11815TIP3   OH235401   7.766   2.574   3.529
11815TIP3    H135402   7.696   2.528   3.482
11815TIP3    H235403   7.738   2.665   3.528
11816TIP3   OH235404   4.218   1.012   1.045
11816TIP3    H135405   4.216   0.928   1.000
11816TIP3    H235406   4.278   1.066   0.992
11817TIP3   OH235407   3.657   0.843   3.789
11817TIP3    H135408   3.707   0.797   3.722
11817TIP3    H235409   3.703   0.925   3.802
11818TIP3   OH235410   6.574   5.948   4.996
11818TIP3    H135411   6.528   5.879   5.043
11818TIP3    H235412   6.651   5.905   4.960
11819TIP3   OH235413   4.713   7.207   4.674
11819TIP3    H135414   4.631   7.176   4.713
11819TIP3    H235415   4.707   7.181   4.582
11820TIP3   OH235416   2.835   0.196   1.628
11820TIP3    H135417   2.764   0.255   1.649
11820TIP3    H235418   2.846   0.142   1.706
11821TIP3   OH235419   5.749   7.396   2.069
11821TIP3    H135420   5.781   7.353   2.147
11821TIP3    H235421   5.656   7.413   2.087
11822TIP3   OH235422   5.482   7.084   3.055
11822TIP3    H135423   5.435   7.029   2.992
11822TIP3    H235424   5.413   7.131   3.102
11823TIP3   OH235425   0.593   6.997   0.265
11823TIP3    H135426   0.659   6.968   0.328
11823TIP3    H235427   0.637   7.065   0.214
11824TIP3   OH235428   1.385   3.239   5.219
11824TIP3    H135429   1.416   3.280   5.299
11824TIP3    H235430   1.462   3.236   5.162
11825TIP3   OH235431   6.732   6.795   2.921
11825TIP3    H135432   6.674   6.861   2.883
11825TIP3    H235433   6.715   6.799   3.015
11826TIP3   OH235434   7.580   3.350   1.686
11826TIP3    H135435   7.560   3.399   1.765
11826TIP3    H235436   7.510   3.285   1.679
11827TIP3   OH235437   4.846   6.086   0.109
11827TIP3    H135438   4.920   6.083   0.169
11827TIP3    H235439   4.870   6.027   0.038
11828TIP3   OH235440   4.504   7.567   5.212
11828TIP3    H135441   4.445   7.532   5.145
11828TIP3    H235442   4.588   7.579   5.166
11829TIP3   OH235443   6.834   0.942   1.794
11829TIP3    H135444   6.915   0.981   1.826
11829TIP3    H235445   6.781   1.017   1.766
11830TIP3   OH235446   6.759   6.704   5.929
11830TIP3    H135447   6.689   6.724   5.992
11830TIP3    H235448   6.715   6.653   5.861
11831TIP3   OH235449   5.183   3.870   0.945
11831TIP3    H135450   5.255   3.919   0.904
11831TIP3    H235451   5.225   3.819   1.014
11832TIP3   OH235452   4.810   3.176   5.409
11832TIP3    H135453   4.717   3.178   5.432
11832TIP3    H235454   4.848   3.111   5.469
11833TIP3   OH235455   7.735   5.029   5.607
11833TIP3    H135456   7.694   4.952   5.569
11833TIP3    H235457   7.682   5.050   5.683
11834TIP3   OH235458   5.084   7.380   6.374
11834TIP3    H135459   5.032   7.308   6.409
11834TIP3    H235460   5.141   7.407   6.447
11835TIP3   OH235461   7.143   6.995   2.846
11835TIP3    H135462   7.148   7.008   2.751
11835TIP3    H235463   7.110   6.906   2.857
11836TIP3   OH235464   1.424   5.584   6.099
11836TIP3    H135465   1.413   5.671   6.137
11836TIP3    H235466   1.407   5.524   6.171
11837TIP3   OH235467   5.279   3.244   3.473
11837TIP3    H135468   5.202   3.228   3.419
11837TIP3    H235469   5.245   3.275   3.557
11838TIP3   OH235470   7.398   3.689   1.969
11838TIP3    H135471   7.381   3.777   1.936
11838TIP3    H235472   7.330   3.635   1.928
11839TIP3   OH235473   6.762   1.426   1.598
11839TIP3    H135474   6.837   1.383   1.557
11839TIP3    H235475   6.753   1.508   1.550
11840TIP3   OH235476   6.737   6.930   0.227
11840TIP3    H135477   6.774   7.016   0.249
11840TIP3    H235478   6.660   6.923   0.284
11841TIP3   OH235479   3.337   6.341   3.230
11841TIP3    H135480   3.395   6.285   3.179
11841TIP3    H235481   3.378   6.427   3.228
11842TIP3   OH235482   2.437   0.596   0.421
11842TIP3    H135483   2.350   0.577   0.386
11842TIP3    H235484   2.437   0.559   0.509
11843TIP3   OH235485   0.290   6.004   6.769
11843TIP3    H135486   0.321   5.914   6.757
11843TIP3    H235487   0.266   6.033   6.681
11844TIP3   OH235488   2.482   3.711   1.530
11844TIP3    H135489   2.570   3.702   1.495
11844TIP3    H235490   2.441   3.626   1.514
11845TIP3   OH235491   1.933   3.389   4.101
11845TIP3    H135492   2.025   3.399   4.080
11845TIP3    H235493   1.910   3.302   4.068
11846TIP3   OH235494   7.773   6.788   6.139
11846TIP3    H135495   7.702   6.804   6.077
11846TIP3    H235496   7.784   6.871   6.185
11847TIP3   OH235497   0.943   4.140   3.653
11847TIP3    H135498   0.959   4.231   3.629
11847TIP3    H235499   1.008   4.121   3.721
11848TIP3   OH235500   3.857   0.982   0.671
11848TIP3    H135501   3.881   1.032   0.749
11848TIP3    H235502   3.798   1.039   0.622
11849TIP3   OH235503   7.411   4.141   4.563
11849TIP3    H135504   7.378   4.072   4.620
11849TIP3    H235505   7.361   4.219   4.589
11850TIP3   OH235506   4.427   0.709   5.340
11850TIP3    H135507   4.472   0.672   5.416
11850TIP3    H235508   4.488   0.775   5.306
11851TIP3   OH235509   6.495   4.226   1.880
11851TIP3    H135510   6.482   4.233   1.975
11851TIP3    H235511   6.590   4.229   1.869
11852TIP3   OH235512   3.779   1.312   2.829
11852TIP3    H135513   3.699   1.354   2.797
11852TIP3    H235514   3.805   1.365   2.905
11853TIP3   OH235515   7.900   4.552   0.924
11853TIP3    H135516   7.975   4.578   0.976
11853TIP3    H235517   7.827   4.547   0.986
11854TIP3   OH235518   8.131   2.730   3.335
11854TIP3    H135519   8.219   2.760   3.313
11854TIP3    H235520   8.144   2.664   3.403
11855TIP3   OH235521   4.444   4.723   0.640
11855TIP3    H135522   4.489   4.729   0.555
11855TIP3    H235523   4.497   4.662   0.691
11856TIP3   OH235524   6.952   7.812   5.530
11856TIP3    H135525   7.037   7.804   5.488
11856TIP3    H235526   6.890   7.812   5.457
11857TIP3   OH235527   4.120   3.290   1.007
11857TIP3    H135528   4.193   3.228   1.002
11857TIP3    H235529   4.044   3.240   0.979
11858TIP3   OH235530   3.017   5.414   0.469
11858TIP3    H135531   2.951   5.388   0.404
11858TIP3    H235532   2.981   5.493   0.509
11859TIP3   OH235533   3.269   7.329   6.685
11859TIP3    H135534   3.182   7.289   6.683
11859TIP3    H235535   3.281   7.354   6.776
11860TIP3   OH235536   2.682   0.649   1.482
11860TIP3    H135537   2.640   0.669   1.399
11860TIP3    H235538   2.718   0.733   1.511
11861TIP3   OH235539   1.745   3.853   5.063
11861TIP3    H135540   1.751   3.779   5.123
11861TIP3    H235541   1.748   3.814   4.976
11862TIP3   OH235542   3.779   0.440   3.461
11862TIP3    H135543   3.871   0.465   3.463
11862TIP3    H235544   3.765   0.406   3.373
11863TIP3   OH235545   2.914   0.200   3.184
11863TIP3    H135546   2.870   0.181   3.101
11863TIP3    H235547   2.843   0.221   3.244
11864TIP3   OH235548   2.588   0.828   0.550
11864TIP3    H135549   2.522   0.841   0.482
11864TIP3    H235550   2.545   0.773   0.615
11865TIP3   OH235551   7.077   0.719   2.585
11865TIP3    H135552   7.054   0.631   2.555
11865TIP3    H235553   7.143   0.749   2.523
11866TIP3   OH235554   7.118   6.291   2.280
11866TIP3    H135555   7.035   6.340   2.279
11866TIP3    H235556   7.096   6.206   2.318
11867TIP3   OH235557   3.502  -0.005   2.968
11867TIP3    H135558   3.410   0.013   2.986
11867TIP3    H235559   3.516   0.027   2.879
11868TIP3   OH235560   0.690   3.331   3.717
11868TIP3    H135561   0.670   3.320   3.811
11868TIP3    H235562   0.784   3.318   3.711
11869TIP3   OH235563   7.130   1.221   4.684
11869TIP3    H135564   7.069   1.182   4.748
11869TIP3    H235565   7.201   1.257   4.738
11870TIP3   OH235566   4.634   5.445   0.245
11870TIP3    H135567   4.565   5.399   0.294
11870TIP3    H235568   4.666   5.511   0.306
11871TIP3   OH235569   6.766   4.902   2.614
11871TIP3    H135570   6.717   4.959   2.672
11871TIP3    H235571   6.832   4.960   2.574
11872TIP3   OH235572   3.624   4.164   3.960
11872TIP3    H135573   3.702   4.119   3.992
11872TIP3    H235574   3.655   4.253   3.940
11873TIP3   OH235575   1.202   2.000   6.788
11873TIP3    H135576   1.268   1.931   6.787
11873TIP3    H235577   1.150   1.985   6.709
11874TIP3   OH235578   1.491   4.665   6.191
11874TIP3    H135579   1.414   4.611   6.173
11874TIP3    H235580   1.504   4.716   6.111
11875TIP3   OH235581   0.729   3.377   6.517
11875TIP3    H135582   0.696   3.405   6.432
11875TIP3    H235583   0.652   3.369   6.572
11876TIP3   OH235584   2.727   1.341   4.491
11876TIP3    H135585   2.652   1.342   4.551
11876TIP3    H235586   2.803   1.337   4.549
11877TIP3   OH235587   6.496   4.044   5.601
11877TIP3    H135588   6.527   4.031   5.511
11877TIP3    H235589   6.485   4.138   5.609
11878TIP3   OH235590   6.222   5.852   5.780
11878TIP3    H135591   6.212   5.902   5.699
11878TIP3    H235592   6.150   5.789   5.779
11879TIP3   OH235593   7.835   5.231   1.030
11879TIP3    H135594   7.865   5.142   1.050
11879TIP3    H235595   7.816   5.270   1.115
11880TIP3   OH235596   2.300   2.323   1.210
11880TIP3    H135597   2.303   2.268   1.288
11880TIP3    H235598   2.274   2.264   1.139
11881TIP3   OH235599   0.184   3.199   2.006
11881TIP3    H135600   0.174   3.274   1.948
11881TIP3    H235601   0.108   3.204   2.065
11882TIP3   OH235602   1.347   1.079   1.425
11882TIP3    H135603   1.392   1.093   1.341
11882TIP3    H235604   1.301   1.162   1.441
11883TIP3   OH235605   7.622   5.280   3.098
11883TIP3    H135606   7.627   5.373   3.118
11883TIP3    H235607   7.559   5.245   3.160
11884TIP3   OH235608   2.181   2.720   5.728
11884TIP3    H135609   2.171   2.814   5.743
11884TIP3    H235610   2.148   2.706   5.640
11885TIP3   OH235611   6.159   2.655   5.707
11885TIP3    H135612   6.174   2.695   5.621
11885TIP3    H235613   6.242   2.666   5.753
11886TIP3   OH235614   1.085   6.613   3.399
11886TIP3    H135615   1.059   6.559   3.324
11886TIP3    H235616   1.181   6.609   3.399
11887TIP3   OH235617   4.355   1.235   3.222
11887TIP3    H135618   4.344   1.273   3.135
11887TIP3    H235619   4.266   1.221   3.254
11888TIP3   OH235620   1.933   0.310   5.303
11888TIP3    H135621   1.907   0.235   5.356
11888TIP3    H235622   2.025   0.325   5.326
11889TIP3   OH235623   7.653   1.336   2.605
11889TIP3    H135624   7.596   1.306   2.675
11889TIP3    H235625   7.611   1.306   2.525
11890TIP3   OH235626   6.711   1.530   4.906
11890TIP3    H135627   6.696   1.475   4.829
11890TIP3    H235628   6.804   1.518   4.926
11891TIP3   OH235629   0.736   4.989   4.994
11891TIP3    H135630   0.791   5.062   5.024
11891TIP3    H235631   0.648   5.027   4.988
11892TIP3   OH235632   7.085   1.110   0.545
11892TIP3    H135633   7.114   1.190   0.502
11892TIP3    H235634   6.993   1.126   0.567
11893TIP3   OH235635   3.403   4.183   5.165
11893TIP3    H135636   3.470   4.115   5.177
11893TIP3    H235637   3.322   4.141   5.194
11894TIP3   OH235638   8.091   3.158   4.768
11894TIP3    H135639   8.180   3.162   4.802
11894TIP3    H235640   8.036   3.194   4.838
11895TIP3   OH235641   8.194   3.869   0.353
11895TIP3    H135642   8.158   3.957   0.357
11895TIP3    H235643   8.288   3.881   0.343
11896TIP3   OH235644   1.793   4.323   1.871
11896TIP3    H135645   1.869   4.264   1.871
11896TIP3    H235646   1.830   4.410   1.852
11897TIP3   OH235647   2.310   3.031   1.962
11897TIP3    H135648   2.370   2.965   1.927
11897TIP3    H235649   2.336   3.112   1.919
11898TIP3   OH235650   6.761   7.152   6.772
11898TIP3    H135651   6.796   7.240   6.757
11898TIP3    H235652   6.764   7.110   6.685
11899TIP3   OH235653   0.374   3.615   5.313
11899TIP3    H135654   0.385   3.668   5.392
11899TIP3    H235655   0.348   3.529   5.345
11900TIP3   OH235656   0.393   1.443   0.537
11900TIP3    H135657   0.405   1.360   0.491
11900TIP3    H235658   0.380   1.419   0.629
11901TIP3   OH235659   4.958   2.044   6.087
11901TIP3    H135660   4.949   2.139   6.075
11901TIP3    H235661   5.038   2.035   6.140
11902TIP3   OH235662   6.216   5.851   4.408
11902TIP3    H135663   6.160   5.929   4.414
11902TIP3    H235664   6.274   5.858   4.484
11903TIP3   OH235665   7.821   2.787   4.725
11903TIP3    H135666   7.750   2.836   4.767
11903TIP3    H235667   7.796   2.783   4.633
11904TIP3   OH235668   7.475   6.558  -0.005
11904TIP3    H135669   7.530   6.509   0.057
11904TIP3    H235670   7.406   6.596   0.049
11905TIP3   OH235671   5.259   7.227   1.841
11905TIP3    H135672   5.355   7.232   1.836
11905TIP3    H235673   5.230   7.314   1.816
11906TIP3   OH235674   1.453   0.918   5.324
11906TIP3    H135675   1.455   0.915   5.420
11906TIP3    H235676   1.386   0.854   5.300
11907TIP3   OH235677   1.135   1.667   6.241
11907TIP3    H135678   1.152   1.575   6.225
11907TIP3    H235679   1.053   1.685   6.194
11908TIP3   OH235680   7.344   2.586   3.179
11908TIP3    H135681   7.356   2.492   3.188
11908TIP3    H235682   7.432   2.623   3.192
11909TIP3   OH235683   5.827   0.931   0.507
11909TIP3    H135684   5.743   0.893   0.480
11909TIP3    H235685   5.819   0.945   0.601
11910TIP3   OH235686   7.185   2.563   1.034
11910TIP3    H135687   7.272   2.602   1.019
11910TIP3    H235688   7.134   2.634   1.074
11911TIP3   OH235689   6.418   1.162   4.745
11911TIP3    H135690   6.409   1.208   4.829
11911TIP3    H235691   6.512   1.147   4.736
11912TIP3   OH235692   0.149   5.331   4.930
11912TIP3    H135693   0.236   5.372   4.926
11912TIP3    H235694   0.088   5.400   4.903
11913TIP3   OH235695   4.661   2.609   0.879
11913TIP3    H135696   4.623   2.676   0.936
11913TIP3    H235697   4.586   2.554   0.854
11914TIP3   OH235698   4.192   3.331   6.793
11914TIP3    H135699   4.232   3.269   6.732
11914TIP3    H235700   4.118   3.369   6.744
11915TIP3   OH235701   1.285   0.940   0.682
11915TIP3    H135702   1.349   0.978   0.741
11915TIP3    H235703   1.334   0.922   0.601
11916TIP3   OH235704   6.763   3.804   4.709
11916TIP3    H135705   6.820   3.755   4.649
11916TIP3    H235706   6.811   3.885   4.725
11917TIP3   OH235707   2.924   4.857   6.363
11917TIP3    H135708   3.018   4.842   6.372
11917TIP3    H235709   2.915   4.952   6.369
11918TIP3   OH235710   5.819   5.064   1.116
11918TIP3    H135711   5.808   4.995   1.181
11918TIP3    H235712   5.912   5.060   1.093
11919TIP3   OH235713   7.494   4.226   6.551
11919TIP3    H135714   7.498   4.305   6.498
11919TIP3    H235715   7.449   4.162   6.495
11920TIP3   OH235716   0.286   4.430   3.667
11920TIP3    H135717   0.233   4.493   3.618
11920TIP3    H235718   0.279   4.459   3.758
11921TIP3   OH235719   0.565   7.711   0.925
11921TIP3    H135720   0.539   7.730   1.016
11921TIP3    H235721   0.640   7.652   0.934
11922TIP3   OH235722   3.075   0.774   0.537
11922TIP3    H135723   3.050   0.708   0.472
11922TIP3    H235724   3.168   0.760   0.550
11923TIP3   OH235725   5.981   0.492   4.612
11923TIP3    H135726   6.031   0.473   4.691
11923TIP3    H235727   5.889   0.482   4.639
11924TIP3   OH235728   3.750   4.888   0.191
11924TIP3    H135729   3.714   4.964   0.236
11924TIP3    H235730   3.756   4.914   0.099
11925TIP3   OH235731   4.030   6.938   3.371
11925TIP3    H135732   3.974   6.883   3.316
11925TIP3    H235733   4.117   6.900   3.363
11926TIP3   OH235734   5.289   1.288   2.812
11926TIP3    H135735   5.310   1.202   2.773
11926TIP3    H235736   5.222   1.325   2.755
11927TIP3   OH235737   5.005   5.662   5.147
11927TIP3    H135738   5.002   5.671   5.242
11927TIP3    H235739   4.934   5.717   5.115
11928TIP3   OH235740   3.705   7.478   5.373
11928TIP3    H135741   3.710   7.430   5.455
11928TIP3    H235742   3.614   7.471   5.345
11929TIP3   OH235743   6.687   2.460   1.085
11929TIP3    H135744   6.768   2.454   1.136
11929TIP3    H235745   6.687   2.549   1.050
11930TIP3   OH235746   6.944   5.070   2.488
11930TIP3    H135747   7.008   5.064   2.417
11930TIP3    H235748   6.932   5.164   2.502
11931TIP3   OH235749   7.090   5.747   2.463
11931TIP3    H135750   7.108   5.698   2.382
11931TIP3    H235751   7.070   5.680   2.527
11932TIP3   OH235752   4.128   3.649   5.675
11932TIP3    H135753   4.186   3.726   5.677
11932TIP3    H235754   4.050   3.677   5.723
11933TIP3   OH235755   1.389   4.626   0.022
11933TIP3    H135756   1.321   4.566   0.051
11933TIP3    H235757   1.360   4.712   0.053
11934TIP3   OH235758   6.038   5.967   3.063
11934TIP3    H135759   5.999   6.051   3.038
11934TIP3    H235760   6.133   5.982   3.058
11935TIP3   OH235761   2.107   7.167   2.557
11935TIP3    H135762   2.109   7.190   2.464
11935TIP3    H235763   2.198   7.151   2.580
11936TIP3   OH235764   7.729   4.681  -0.020
11936TIP3    H135765   7.687   4.748   0.034
11936TIP3    H235766   7.818   4.675   0.014
11937TIP3   OH235767   4.722   6.807   1.417
11937TIP3    H135768   4.736   6.749   1.342
11937TIP3    H235769   4.810   6.824   1.451
11938TIP3   OH235770   4.153   2.102   2.400
11938TIP3    H135771   4.205   2.051   2.462
11938TIP3    H235772   4.218   2.147   2.346
11939TIP3   OH235773   7.354   2.805   1.024
11939TIP3    H135774   7.331   2.854   0.945
11939TIP3    H235775   7.442   2.835   1.047
11940TIP3   OH235776   2.081   6.437   5.751
11940TIP3    H135777   2.093   6.460   5.659
11940TIP3    H235778   2.126   6.353   5.761
11941TIP3   OH235779   2.319   4.385   1.037
11941TIP3    H135780   2.412   4.404   1.050
11941TIP3    H235781   2.278   4.407   1.121
11942TIP3   OH235782   5.963   2.188   5.650
11942TIP3    H135783   6.035   2.144   5.696
11942TIP3    H235784   5.886   2.173   5.704
11943TIP3   OH235785   8.100   2.304   1.014
11943TIP3    H135786   8.177   2.286   1.068
11943TIP3    H235787   8.054   2.375   1.060
11944TIP3   OH235788   1.105   4.442   4.929
11944TIP3    H135789   1.199   4.453   4.913
11944TIP3    H235790   1.063   4.466   4.846
11945TIP3   OH235791   0.365   0.185   0.465
11945TIP3    H135792   0.305   0.115   0.439
11945TIP3    H235793   0.312   0.242   0.521
11946TIP3   OH235794   1.740   2.170   5.750
11946TIP3    H135795   1.681   2.212   5.813
11946TIP3    H235796   1.812   2.136   5.804
11947TIP3   OH235797   5.465   4.186   6.555
11947TIP3    H135798   5.404   4.253   6.523
11947TIP3    H235799   5.477   4.127   6.480
11948TIP3   OH235800   3.998   2.408   4.666
11948TIP3    H135801   4.061   2.339   4.644
11948TIP3    H235802   3.930   2.401   4.598
11949TIP3   OH235803   0.463   1.233   2.215
11949TIP3    H135804   0.534   1.298   2.210
11949TIP3    H235805   0.392   1.279   2.259
11950TIP3   OH235806   0.038   3.088   3.191
11950TIP3    H135807   0.064   3.004   3.229
11950TIP3    H235808   0.112   3.112   3.134
11951TIP3   OH235809   0.478   0.098   5.145
11951TIP3    H135810   0.388   0.078   5.120
11951TIP3    H235811   0.531   0.071   5.070
11952TIP3   OH235812   3.830   6.968   2.521
11952TIP3    H135813   3.770   6.897   2.543
11952TIP3    H235814   3.903   6.924   2.478
11953TIP3   OH235815   6.738   3.106   2.370
11953TIP3    H135816   6.691   3.113   2.287
11953TIP3    H235817   6.817   3.157   2.357
11954TIP3   OH235818   5.636   7.035   4.372
11954TIP3    H135819   5.685   7.088   4.309
11954TIP3    H235820   5.654   6.945   4.346
11955TIP3   OH235821   1.503   4.257   3.507
11955TIP3    H135822   1.496   4.350   3.530
11955TIP3    H235823   1.451   4.212   3.574
11956TIP3   OH235824   0.641   2.559   3.149
11956TIP3    H135825   0.629   2.468   3.121
11956TIP3    H235826   0.727   2.560   3.191
11957TIP3   OH235827   5.270   1.047   1.462
11957TIP3    H135828   5.286   1.141   1.469
11957TIP3    H235829   5.243   1.021   1.550
11958TIP3   OH235830   3.478   4.324   6.468
11958TIP3    H135831   3.514   4.394   6.523
11958TIP3    H235832   3.489   4.244   6.519
11959TIP3   OH235833   3.393   7.445   1.163
11959TIP3    H135834   3.435   7.430   1.078
11959TIP3    H235835   3.438   7.385   1.223
11960TIP3   OH235836   0.097   7.487   1.806
11960TIP3    H135837   0.090   7.560   1.746
11960TIP3    H235838   0.007   7.471   1.834
11961TIP3   OH235839   3.080   6.800   5.558
11961TIP3    H135840   3.120   6.716   5.582
11961TIP3    H235841   2.986   6.784   5.561
11962TIP3   OH235842   7.865   2.292   2.728
11962TIP3    H135843   7.773   2.288   2.752
11962TIP3    H235844   7.866   2.292   2.632
11963TIP3   OH235845   7.252   2.759   2.802
11963TIP3    H135846   7.273   2.808   2.882
11963TIP3    H235847   7.169   2.716   2.821
11964TIP3   OH235848   7.573   1.968   5.422
11964TIP3    H135849   7.504   2.034   5.432
11964TIP3    H235850   7.543   1.914   5.349
11965TIP3   OH235851   7.160   5.783   6.620
11965TIP3    H135852   7.139   5.757   6.530
11965TIP3    H235853   7.227   5.850   6.610
11966TIP3   OH235854   1.623   7.134   6.605
11966TIP3    H135855   1.558   7.120   6.674
11966TIP3    H235856   1.598   7.216   6.563
11967TIP3   OH235857   1.936   4.591   4.629
11967TIP3    H135858   1.855   4.609   4.678
11967TIP3    H235859   1.968   4.508   4.665
11968TIP3   OH235860   5.836   6.746   4.393
11968TIP3    H135861   5.910   6.797   4.360
11968TIP3    H235862   5.836   6.666   4.340
11969TIP3   OH235863   6.550   6.094   3.130
11969TIP3    H135864   6.638   6.089   3.091
11969TIP3    H235865   6.497   6.036   3.076
11970TIP3   OH235866   2.553   4.504   0.701
11970TIP3    H135867   2.546   4.408   0.708
11970TIP3    H235868   2.479   4.529   0.646
11971TIP3   OH235869   0.040   2.469   0.521
11971TIP3    H135870   0.074   2.452   0.433
11971TIP3    H235871   0.058   2.389   0.570
11972TIP3   OH235872   4.351   4.145   6.272
11972TIP3    H135873   4.273   4.115   6.320
11972TIP3    H235874   4.359   4.237   6.295
11973TIP3   OH235875   6.961   4.859   5.681
11973TIP3    H135876   6.894   4.824   5.622
11973TIP3    H235877   7.001   4.930   5.631
11974TIP3   OH235878   4.299   3.879   0.894
11974TIP3    H135879   4.343   3.820   0.954
11974TIP3    H235880   4.333   3.855   0.807
11975TIP3   OH235881   8.250   7.307   2.189
11975TIP3    H135882   8.327   7.256   2.162
11975TIP3    H235883   8.286   7.393   2.213
11976TIP3   OH235884   5.848   0.753   0.251
11976TIP3    H135885   5.787   0.767   0.323
11976TIP3    H235886   5.800   0.780   0.172
11977TIP3   OH235887   8.015   5.544  -0.027
11977TIP3    H135888   7.941   5.567   0.029
11977TIP3    H235889   8.079   5.504   0.031
11978TIP3   OH235890   3.753   1.170   1.606
11978TIP3    H135891   3.699   1.203   1.678
11978TIP3    H235892   3.741   1.234   1.536
11979TIP3   OH235893   5.742   7.153   0.368
11979TIP3    H135894   5.778   7.193   0.447
11979TIP3    H235895   5.732   7.226   0.307
11980TIP3   OH235896   0.275   6.476   1.953
11980TIP3    H135897   0.331   6.425   1.894
11980TIP3    H235898   0.258   6.416   2.026
11981TIP3   OH235899   0.625   3.876   4.015
11981TIP3    H135900   0.593   3.896   3.927
11981TIP3    H235901   0.587   3.791   4.036
11982TIP3   OH235902   6.263   7.646   1.644
11982TIP3    H135903   6.235   7.712   1.582
11982TIP3    H235904   6.187   7.588   1.655
11983TIP3   OH235905   7.869   5.123   3.421
11983TIP3    H135906   7.954   5.086   3.446
11983TIP3    H235907   7.831   5.153   3.503
11984TIP3   OH235908   6.994   5.089   4.364
11984TIP3    H135909   7.001   5.009   4.313
11984TIP3    H235910   6.903   5.118   4.350
11985TIP3   OH235911   2.869   0.904   6.211
11985TIP3    H135912   2.924   0.963   6.263
11985TIP3    H235913   2.795   0.883   6.268
11986TIP3   OH235914   4.150   4.403   2.466
11986TIP3    H135915   4.096   4.419   2.388
11986TIP3    H235916   4.210   4.333   2.439
11987TIP3   OH235917   2.262   5.074   6.081
11987TIP3    H135918   2.317   5.021   6.139
11987TIP3    H235919   2.232   5.146   6.136
11988TIP3   OH235920   7.767   0.074   3.783
11988TIP3    H135921   7.721   0.083   3.700
11988TIP3    H235922   7.828   0.002   3.769
11989TIP3   OH235923   7.500   4.490   2.403
11989TIP3    H135924   7.407   4.476   2.418
11989TIP3    H235925   7.533   4.527   2.485
11990TIP3   OH235926   7.674   3.824   1.447
11990TIP3    H135927   7.612   3.766   1.402
11990TIP3    H235928   7.620   3.872   1.510
11991TIP3   OH235929   5.482   7.326   1.701
11991TIP3    H135930   5.568   7.366   1.712
11991TIP3    H235931   5.500   7.241   1.660
11992TIP3   OH235932   4.673   5.588   3.246
11992TIP3    H135933   4.765   5.577   3.271
11992TIP3    H235934   4.654   5.511   3.191
11993TIP3   OH235935   1.262   7.008   5.619
11993TIP3    H135936   1.283   7.092   5.660
11993TIP3    H235937   1.230   7.031   5.532
11994TIP3   OH235938   5.720   5.008   2.951
11994TIP3    H135939   5.648   4.968   2.902
11994TIP3    H235940   5.746   5.083   2.898
11995TIP3   OH235941   4.914   4.984   5.667
11995TIP3    H135942   4.929   4.973   5.573
11995TIP3    H235943   4.859   5.061   5.673
11996TIP3   OH235944   7.899   4.210   3.583
11996TIP3    H135945   7.804   4.200   3.588
11996TIP3    H235946   7.933   4.156   3.653
11997TIP3   OH235947   6.818   6.483   0.710
11997TIP3    H135948   6.794   6.565   0.666
11997TIP3    H235949   6.910   6.496   0.736
11998TIP3   OH235950   0.922   4.936   6.634
11998TIP3    H135951   0.878   4.941   6.549
11998TIP3    H235952   1.001   4.990   6.623
11999TIP3   OH235953   4.867   3.223   2.223
11999TIP3    H135954   4.822   3.259   2.146
11999TIP3    H235955   4.828   3.269   2.297
12000TIP3   OH235956   6.080   2.450   6.058
12000TIP3    H135957   6.030   2.459   6.139
12000TIP3    H235958   6.030   2.388   6.005
12001TIP3   OH235959   3.285   7.749   2.770
12001TIP3    H135960   3.291   7.725   2.862
12001TIP3    H235961   3.309   7.669   2.723
12002TIP3   OH235962   7.511   7.601   5.323
12002TIP3    H135963   7.521   7.517   5.278
12002TIP3    H235964   7.495   7.664   5.252
12003TIP3   OH235965   1.094   4.399   5.404
12003TIP3    H135966   1.179   4.376   5.441
12003TIP3    H235967   1.091   4.355   5.319
12004TIP3   OH235968   0.144   2.930   2.348
12004TIP3    H135969   0.227   2.904   2.388
12004TIP3    H235970   0.164   2.938   2.255
12005TIP3   OH235971   2.777   6.777   5.601
12005TIP3    H135972   2.701   6.833   5.583
12005TIP3    H235973   2.768   6.705   5.539
12006TIP3   OH235974   4.323   7.380   3.077
12006TIP3    H135975   4.357   7.452   3.131
12006TIP3    H235976   4.335   7.302   3.131
12007TIP3   OH235977   3.598   7.215   1.071
12007TIP3    H135978   3.656   7.141   1.087
12007TIP3    H235979   3.559   7.197   0.985
12008TIP3   OH235980   7.771   6.309   3.923
12008TIP3    H135981   7.782   6.325   3.829
12008TIP3    H235982   7.681   6.279   3.932
12009TIP3   OH235983   3.659   5.994   2.766
12009TIP3    H135984   3.632   6.085   2.764
12009TIP3    H235985   3.621   5.955   2.687
12010TIP3   OH235986   2.895   6.431   2.381
12010TIP3    H135987   2.843   6.453   2.303
12010TIP3    H235988   2.844   6.363   2.425
12011TIP3   OH235989   5.896   3.623   6.325
12011TIP3    H135990   5.858   3.569   6.394
12011TIP3    H235991   5.951   3.687   6.370
12012TIP3   OH235992   2.767   7.409   6.716
12012TIP3    H135993   2.679   7.378   6.736
12012TIP3    H235994   2.754   7.475   6.648
12013TIP3   OH235995   4.368   5.459   1.811
12013TIP3    H135996   4.406   5.475   1.724
12013TIP3    H235997   4.356   5.364   1.814
12014TIP3   OH235998   6.583   2.619  -0.010
12014TIP3    H135999   6.643   2.693   0.002
12014TIP3    H236000   6.498   2.653   0.015
12015TIP3   OH236001   6.096   7.764   1.041
12015TIP3    H136002   6.088   7.702   0.969
12015TIP3    H236003   6.187   7.755   1.070
12016TIP3   OH236004   4.728   6.912   5.094
12016TIP3    H136005   4.779   6.899   5.014
12016TIP3    H236006   4.737   7.006   5.112
12017TIP3   OH236007   2.111   7.473   1.035
12017TIP3    H136008   2.117   7.380   1.017
12017TIP3    H236009   2.034   7.482   1.092
12018TIP3   OH236010   1.912   6.308   5.550
12018TIP3    H136011   1.900   6.217   5.521
12018TIP3    H236012   1.845   6.321   5.617
12019TIP3   OH236013   0.532   6.735   2.152
12019TIP3    H136014   0.524   6.717   2.059
12019TIP3    H236015   0.486   6.818   2.165
12020TIP3   OH236016   0.196   3.938   4.590
12020TIP3    H136017   0.180   4.032   4.588
12020TIP3    H236018   0.148   3.904   4.514
12021TIP3   OH236019   4.094   3.495   3.779
12021TIP3    H136020   4.167   3.555   3.762
12021TIP3    H236021   4.025   3.552   3.813
12022TIP3   OH236022   0.663   6.757   4.846
12022TIP3    H136023   0.748   6.754   4.802
12022TIP3    H236024   0.667   6.687   4.912
12023TIP3   OH236025   3.047   5.137   3.382
12023TIP3    H136026   3.011   5.048   3.378
12023TIP3    H236027   2.972   5.194   3.396
12024TIP3   OH236028   4.787   7.169   1.893
12024TIP3    H136029   4.777   7.083   1.853
12024TIP3    H236030   4.775   7.230   1.820
12025TIP3   OH236031   4.241   3.558   1.273
12025TIP3    H136032   4.158   3.563   1.226
12025TIP3    H236033   4.219   3.579   1.364
12026TIP3   OH236034   3.759   6.930   4.659
12026TIP3    H136035   3.752   7.014   4.704
12026TIP3    H236036   3.684   6.930   4.599
12027TIP3   OH236037   7.512   1.799   1.964
12027TIP3    H136038   7.510   1.821   1.871
12027TIP3    H236039   7.438   1.847   2.001
12028TIP3   OH236040   1.286   1.917   6.299
12028TIP3    H136041   1.231   1.839   6.291
12028TIP3    H236042   1.373   1.889   6.272
12029TIP3   OH236043   3.394   5.895   0.953
12029TIP3    H136044   3.438   5.949   0.887
12029TIP3    H236045   3.459   5.830   0.978
12030TIP3   OH236046   3.404   7.099   6.468
12030TIP3    H136047   3.338   7.054   6.415
12030TIP3    H236048   3.472   7.034   6.482
12031TIP3   OH236049   6.678   1.484   1.255
12031TIP3    H136050   6.657   1.575   1.234
12031TIP3    H236051   6.760   1.467   1.209
12032TIP3   OH236052   1.168   3.660   6.002
12032TIP3    H136053   1.258   3.632   6.015
12032TIP3    H236054   1.172   3.756   6.004
12033TIP3   OH236055   2.742   0.863   0.306
12033TIP3    H136056   2.822   0.906   0.336
12033TIP3    H236057   2.703   0.826   0.385
12034TIP3   OH236058   6.787   5.116   0.285
12034TIP3    H136059   6.864   5.144   0.334
12034TIP3    H236060   6.760   5.194   0.237
12035TIP3   OH236061   7.002   0.045   5.339
12035TIP3    H136062   7.059   0.117   5.366
12035TIP3    H236063   7.059  -0.015   5.290
12036TIP3   OH236064   3.228   5.014   4.795
12036TIP3    H136065   3.140   5.033   4.826
12036TIP3    H236066   3.226   5.034   4.701
12037TIP3   OH236067   5.651   0.601   3.730
12037TIP3    H136068   5.743   0.578   3.741
12037TIP3    H236069   5.642   0.623   3.637
12038TIP3   OH236070   1.624   0.562   2.528
12038TIP3    H136071   1.618   0.554   2.623
12038TIP3    H236072   1.685   0.634   2.514
12039TIP3   OH236073   2.379   2.554   5.813
12039TIP3    H136074   2.430   2.538   5.734
12039TIP3    H236075   2.306   2.610   5.784
12040TIP3   OH236076   1.269   3.602   0.225
12040TIP3    H136077   1.190   3.656   0.222
12040TIP3    H236078   1.238   3.514   0.205
12041TIP3   OH236079   0.793   0.123   0.218
12041TIP3    H136080   0.885   0.149   0.217
12041TIP3    H236081   0.744   0.205   0.217
12042TIP3   OH236082   2.880   3.347   0.677
12042TIP3    H136083   2.853   3.386   0.594
12042TIP3    H236084   2.804   3.298   0.707
12043TIP3   OH236085   6.594   4.319   1.179
12043TIP3    H136086   6.524   4.287   1.236
12043TIP3    H236087   6.633   4.239   1.142
12044TIP3   OH236088   6.448   4.616   2.691
12044TIP3    H136089   6.482   4.642   2.777
12044TIP3    H236090   6.360   4.583   2.708
12045TIP3   OH236091   4.778   6.611   3.346
12045TIP3    H136092   4.868   6.626   3.317
12045TIP3    H236093   4.781   6.529   3.394
12046TIP3   OH236094   4.940   3.508   5.840
12046TIP3    H136095   5.002   3.443   5.808
12046TIP3    H236096   4.855   3.476   5.813
12047TIP3   OH236097   1.806   5.548   6.417
12047TIP3    H136098   1.763   5.475   6.373
12047TIP3    H236099   1.739   5.583   6.477
12048TIP3   OH236100   1.773   4.513   3.070
12048TIP3    H136101   1.851   4.563   3.093
12048TIP3    H236102   1.803   4.422   3.065
12049TIP3   OH236103   1.073   1.240   3.390
12049TIP3    H136104   1.061   1.146   3.378
12049TIP3    H236105   1.002   1.280   3.340
12050TIP3   OH236106   1.010   4.399   3.514
12050TIP3    H136107   1.033   4.388   3.422
12050TIP3    H236108   0.978   4.489   3.521
12051TIP3   OH236109   7.453   0.851   5.000
12051TIP3    H136110   7.489   0.764   5.019
12051TIP3    H236111   7.483   0.906   5.073
12052TIP3   OH236112   8.235   6.226   6.580
12052TIP3    H136113   8.218   6.316   6.608
12052TIP3    H236114   8.330   6.221   6.571
12053TIP3   OH236115   1.141   4.799   5.680
12053TIP3    H136116   1.146   4.748   5.761
12053TIP3    H236117   1.109   4.885   5.708
12054TIP3   OH236118   6.574   6.626   1.169
12054TIP3    H136119   6.582   6.696   1.104
12054TIP3    H236120   6.620   6.551   1.130
12055TIP3   OH236121   2.551   3.114   0.293
12055TIP3    H136122   2.569   3.207   0.279
12055TIP3    H236123   2.527   3.081   0.206
12056TIP3   OH236124   0.848   0.237   4.886
12056TIP3    H136125   0.806   0.313   4.926
12056TIP3    H236126   0.929   0.226   4.935
12057TIP3   OH236127   5.224   3.804   5.132
12057TIP3    H136128   5.244   3.817   5.225
12057TIP3    H236129   5.244   3.712   5.116
12058TIP3   OH236130   5.527   2.773   4.527
12058TIP3    H136131   5.441   2.803   4.498
12058TIP3    H236132   5.577   2.853   4.540
12059TIP3   OH236133   7.877   5.203   5.892
12059TIP3    H136134   7.939   5.241   5.830
12059TIP3    H236135   7.888   5.108   5.882
12060TIP3   OH236136   1.901   0.244   2.474
12060TIP3    H136137   1.949   0.178   2.423
12060TIP3    H236138   1.821   0.259   2.425
12061TIP3   OH236139   7.911   4.608   2.484
12061TIP3    H136140   7.919   4.687   2.538
12061TIP3    H236141   7.842   4.628   2.421
12062TIP3   OH236142   4.057   4.535   2.252
12062TIP3    H136143   4.012   4.617   2.235
12062TIP3    H236144   4.023   4.474   2.186
12063TIP3   OH236145   4.101   7.675   2.487
12063TIP3    H136146   4.086   7.769   2.481
12063TIP3    H236147   4.057   7.649   2.567
12064TIP3   OH236148   0.409   2.125   3.073
12064TIP3    H136149   0.418   2.219   3.063
12064TIP3    H236150   0.367   2.096   2.992
12065TIP3   OH236151   5.620   6.601   3.457
12065TIP3    H136152   5.697   6.639   3.499
12065TIP3    H236153   5.641   6.601   3.363
12066TIP3   OH236154   6.713   0.405   3.708
12066TIP3    H136155   6.709   0.313   3.733
12066TIP3    H236156   6.667   0.451   3.779
12067TIP3   OH236157   6.087   4.107   4.843
12067TIP3    H136158   6.099   4.194   4.882
12067TIP3    H236159   6.025   4.064   4.901
12068TIP3   OH236160   3.722   0.429   0.793
12068TIP3    H136161   3.676   0.499   0.840
12068TIP3    H236162   3.770   0.474   0.724
12069TIP3   OH236163   0.298   6.629   4.336
12069TIP3    H136164   0.319   6.581   4.415
12069TIP3    H236165   0.380   6.670   4.310
12070TIP3   OH236166   7.162   3.432   2.275
12070TIP3    H136167   7.070   3.437   2.249
12070TIP3    H236168   7.179   3.517   2.316
12071TIP3   OH236169   4.905   2.716   6.253
12071TIP3    H136170   4.819   2.709   6.212
12071TIP3    H236171   4.886   2.725   6.347
12072TIP3   OH236172   4.411   0.306   0.258
12072TIP3    H136173   4.485   0.312   0.199
12072TIP3    H236174   4.435   0.237   0.320
12073TIP3   OH236175   1.982   1.713   0.265
12073TIP3    H136176   2.054   1.752   0.313
12073TIP3    H236177   1.928   1.671   0.332
12074TIP3   OH236178   1.123   6.405   2.491
12074TIP3    H136179   1.140   6.318   2.528
12074TIP3    H236180   1.060   6.444   2.551
12075TIP3   OH236181   2.167   6.814   5.941
12075TIP3    H136182   2.166   6.722   5.970
12075TIP3    H236183   2.254   6.826   5.903
12076TIP3   OH236184   6.511   4.587   0.373
12076TIP3    H136185   6.584   4.625   0.423
12076TIP3    H236186   6.553   4.534   0.305
12077TIP3   OH236187   7.584   4.678   2.601
12077TIP3    H136188   7.590   4.714   2.690
12077TIP3    H236189   7.596   4.754   2.544
12078TIP3   OH236190   7.687   5.590   1.642
12078TIP3    H136191   7.616   5.552   1.590
12078TIP3    H236192   7.688   5.682   1.618
12079TIP3   OH236193   2.756   5.331   1.388
12079TIP3    H136194   2.752   5.262   1.322
12079TIP3    H236195   2.676   5.320   1.439
12080TIP3   OH236196   1.356   4.265   2.990
12080TIP3    H136197   1.433   4.321   2.990
12080TIP3    H236198   1.311   4.286   3.072
12081TIP3   OH236199   3.962   6.580   0.252
12081TIP3    H136200   3.968   6.673   0.232
12081TIP3    H236201   4.015   6.538   0.184
12082TIP3   OH236202   3.569   5.721   5.594
12082TIP3    H136203   3.594   5.788   5.658
12082TIP3    H236204   3.541   5.646   5.648
12083TIP3   OH236205   7.724   7.299   2.972
12083TIP3    H136206   7.715   7.343   2.887
12083TIP3    H236207   7.691   7.210   2.956
12084TIP3   OH236208   3.187   2.380   1.592
12084TIP3    H136209   3.166   2.301   1.543
12084TIP3    H236210   3.256   2.422   1.541
12085TIP3   OH236211   1.036   2.360   5.410
12085TIP3    H136212   1.097   2.398   5.473
12085TIP3    H236213   1.089   2.297   5.361
12086TIP3   OH236214   0.667   6.084   0.848
12086TIP3    H136215   0.638   6.066   0.937
12086TIP3    H236216   0.614   6.026   0.793
12087TIP3   OH236217   7.822   2.168   3.697
12087TIP3    H136218   7.911   2.201   3.706
12087TIP3    H236219   7.780   2.188   3.781
12088TIP3   OH236220   6.054   3.149   6.493
12088TIP3    H136221   6.037   3.143   6.399
12088TIP3    H236222   6.050   3.058   6.523
12089TIP3   OH236223   1.032   3.541   2.221
12089TIP3    H136224   0.965   3.473   2.210
12089TIP3    H236225   0.998   3.617   2.174
12090TIP3   OH236226   8.120   3.186   3.351
12090TIP3    H136227   8.205   3.150   3.325
12090TIP3    H236228   8.107   3.261   3.294
12091TIP3   OH236229   7.799   5.344   2.838
12091TIP3    H136230   7.737   5.406   2.877
12091TIP3    H236231   7.755   5.315   2.758
12092TIP3   OH236232   5.854   5.780   6.313
12092TIP3    H136233   5.811   5.696   6.297
12092TIP3    H236234   5.886   5.774   6.403
12093TIP3   OH236235   5.710   7.266   6.798
12093TIP3    H136236   5.722   7.361   6.798
12093TIP3    H236237   5.743   7.238   6.713
12094TIP3   OH236238   7.335   0.804   0.788
12094TIP3    H136239   7.427   0.831   0.790
12094TIP3    H236240   7.332   0.726   0.843
12095TIP3   OH236241   3.940   6.629   2.334
12095TIP3    H136242   4.013   6.569   2.316
12095TIP3    H236243   3.869   6.572   2.362
12096TIP3   OH236244   1.778   4.188   5.319
12096TIP3    H136245   1.796   4.186   5.225
12096TIP3    H236246   1.718   4.116   5.334
12097TIP3   OH236247   3.967   3.905   1.456
12097TIP3    H136248   3.995   3.828   1.505
12097TIP3    H236249   3.872   3.905   1.462
12098TIP3   OH236250   4.593   2.845   2.174
12098TIP3    H136251   4.512   2.803   2.145
12098TIP3    H236252   4.628   2.887   2.096
12099TIP3   OH236253   2.836   7.399   3.106
12099TIP3    H136254   2.817   7.310   3.076
12099TIP3    H236255   2.753   7.430   3.143
12100TIP3   OH236256   2.207   4.112   6.561
12100TIP3    H136257   2.125   4.146   6.597
12100TIP3    H236258   2.252   4.072   6.635
12101TIP3   OH236259   2.717   7.027   3.380
12101TIP3    H136260   2.698   6.956   3.441
12101TIP3    H236261   2.663   7.008   3.304
12102TIP3   OH236262   0.071   2.937   4.831
12102TIP3    H136263   0.079   3.032   4.835
12102TIP3    H236264   0.145   2.905   4.883
12103TIP3   OH236265   1.919   2.664   4.899
12103TIP3    H136266   1.830   2.641   4.925
12103TIP3    H236267   1.966   2.676   4.982
12104TIP3   OH236268   4.395   3.449   3.524
12104TIP3    H136269   4.375   3.542   3.511
12104TIP3    H236270   4.441   3.446   3.608
12105TIP3   OH236271   5.951   6.213   2.976
12105TIP3    H136272   5.861   6.239   2.958
12105TIP3    H236273   5.979   6.272   3.046
12106TIP3   OH236274   1.967   5.722   6.540
12106TIP3    H136275   1.908   5.662   6.493
12106TIP3    H236276   2.023   5.666   6.593
12107TIP3   OH236277   0.660   6.272   2.395
12107TIP3    H136278   0.631   6.355   2.357
12107TIP3    H236279   0.699   6.297   2.479
12108TIP3   OH236280   0.069   0.137   2.700
12108TIP3    H136281   0.076   0.119   2.793
12108TIP3    H236282   0.159   0.143   2.669
12109TIP3   OH236283   2.323   3.092   5.616
12109TIP3    H136284   2.335   3.034   5.692
12109TIP3    H236285   2.230   3.082   5.593
12110TIP3   OH236286   6.464   5.718   6.456
12110TIP3    H136287   6.410   5.665   6.514
12110TIP3    H236288   6.552   5.713   6.494
12111TIP3   OH236289   0.530   6.637   1.867
12111TIP3    H136290   0.538   6.678   1.781
12111TIP3    H236291   0.451   6.582   1.861
12112TIP3   OH236292   8.173   4.599   5.752
12112TIP3    H136293   8.189   4.640   5.836
12112TIP3    H236294   8.205   4.662   5.687
12113TIP3   OH236295   5.457   6.159   4.610
12113TIP3    H136296   5.382   6.105   4.584
12113TIP3    H236297   5.491   6.194   4.528
12114TIP3   OH236298   3.444   4.000   4.043
12114TIP3    H136299   3.493   3.971   4.120
12114TIP3    H236300   3.499   4.068   4.004
12115TIP3   OH236301   1.925   6.618   2.219
12115TIP3    H136302   1.948   6.648   2.307
12115TIP3    H236303   1.995   6.653   2.163
12116TIP3   OH236304   5.343   2.711   1.255
12116TIP3    H136305   5.437   2.720   1.273
12116TIP3    H236306   5.308   2.664   1.331
12117TIP3   OH236307   1.146   0.470   2.557
12117TIP3    H136308   1.227   0.460   2.607
12117TIP3    H236309   1.078   0.484   2.623
12118TIP3   OH236310   5.641   5.569   0.814
12118TIP3    H136311   5.618   5.611   0.730
12118TIP3    H236312   5.729   5.600   0.833
12119TIP3   OH236313   7.499   5.543   2.081
12119TIP3    H136314   7.458   5.606   2.139
12119TIP3    H236315   7.567   5.501   2.134
12120TIP3   OH236316   6.037   4.350   6.544
12120TIP3    H136317   6.125   4.372   6.575
12120TIP3    H236318   6.049   4.320   6.454
12121TIP3   OH236319   0.493   0.129   3.084
12121TIP3    H136320   0.426   0.097   3.144
12121TIP3    H236321   0.519   0.213   3.120
12122TIP3   OH236322   1.972   0.826   6.425
12122TIP3    H136323   1.995   0.911   6.387
12122TIP3    H236324   1.972   0.765   6.351
12123TIP3   OH236325   2.425   6.134   0.286
12123TIP3    H136326   2.341   6.088   0.278
12123TIP3    H236327   2.489   6.064   0.304
12124TIP3   OH236328   3.358   2.328   2.753
12124TIP3    H136329   3.335   2.420   2.768
12124TIP3    H236330   3.282   2.291   2.708
12125TIP3   OH236331   0.905   1.625   5.171
12125TIP3    H136332   0.895   1.592   5.261
12125TIP3    H236333   0.859   1.561   5.117
12126TIP3   OH236334   6.439   1.458   2.874
12126TIP3    H136335   6.400   1.545   2.860
12126TIP3    H236336   6.472   1.462   2.964
12127TIP3   OH236337   7.899   7.472   0.697
12127TIP3    H136338   7.811   7.459   0.661
12127TIP3    H236339   7.885   7.486   0.791
12128TIP3   OH236340   3.025   6.092   5.919
12128TIP3    H136341   2.960   6.145   5.872
12128TIP3    H236342   2.974   6.021   5.958
12129TIP3   OH236343   5.069   6.270   2.827
12129TIP3    H136344   5.061   6.294   2.735
12129TIP3    H236345   5.048   6.176   2.829
12130TIP3   OH236346   5.498   3.456   0.442
12130TIP3    H136347   5.459   3.443   0.528
12130TIP3    H236348   5.462   3.386   0.388
12131TIP3   OH236349   3.537   0.236   0.798
12131TIP3    H136350   3.561   0.319   0.757
12131TIP3    H236351   3.564   0.170   0.734
12132TIP3   OH236352   0.582   6.758   4.441
12132TIP3    H136353   0.660   6.704   4.442
12132TIP3    H236354   0.562   6.771   4.348
12133TIP3   OH236355   4.652   0.601   4.346
12133TIP3    H136356   4.727   0.542   4.351
12133TIP3    H236357   4.685   0.684   4.381
12134TIP3   OH236358   1.823   4.619   5.249
12134TIP3    H136359   1.889   4.561   5.288
12134TIP3    H236360   1.841   4.704   5.288
12135TIP3   OH236361   3.452   3.408   0.868
12135TIP3    H136362   3.379   3.352   0.892
12135TIP3    H236363   3.526   3.348   0.855
12136TIP3   OH236364   0.104   3.069   6.141
12136TIP3    H136365   0.058   3.060   6.224
12136TIP3    H236366   0.065   3.002   6.084
12137TIP3   OH236367   2.074   0.911   2.543
12137TIP3    H136368   2.088   0.840   2.606
12137TIP3    H236369   2.132   0.890   2.470
12138TIP3   OH236370   4.434   2.124   0.593
12138TIP3    H136371   4.471   2.167   0.671
12138TIP3    H236372   4.487   2.157   0.521
12139TIP3   OH236373   1.181   0.592   6.404
12139TIP3    H136374   1.116   0.586   6.474
12139TIP3    H236375   1.134   0.564   6.325
12140TIP3   OH236376   4.881   1.850   3.813
12140TIP3    H136377   4.811   1.871   3.751
12140TIP3    H236378   4.951   1.814   3.758
12141TIP3   OH236379   2.593   2.604   2.588
12141TIP3    H136380   2.631   2.560   2.512
12141TIP3    H236381   2.601   2.698   2.567
12142TIP3   OH236382   6.625   2.140   1.553
12142TIP3    H136383   6.644   2.115   1.644
12142TIP3    H236384   6.547   2.089   1.530
12143TIP3   OH236385   0.550   0.993   2.421
12143TIP3    H136386   0.577   1.072   2.375
12143TIP3    H236387   0.625   0.935   2.415
12144TIP3   OH236388   7.530   0.168   1.011
12144TIP3    H136389   7.611   0.122   0.988
12144TIP3    H236390   7.470   0.099   1.038
12145TIP3   OH236391   1.414   0.179   6.364
12145TIP3    H136392   1.454   0.136   6.289
12145TIP3    H236393   1.418   0.272   6.343
12146TIP3   OH236394   6.165   7.303   3.076
12146TIP3    H136395   6.146   7.304   2.982
12146TIP3    H236396   6.087   7.340   3.117
12147TIP3   OH236397   2.727   7.516   2.536
12147TIP3    H136398   2.697   7.449   2.597
12147TIP3    H236399   2.650   7.572   2.523
12148TIP3   OH236400   5.631   4.329   2.910
12148TIP3    H136401   5.633   4.378   2.992
12148TIP3    H236402   5.625   4.238   2.937
12149TIP3   OH236403   0.564   6.894   1.496
12149TIP3    H136404   0.484   6.922   1.539
12149TIP3    H236405   0.567   6.944   1.414
12150TIP3   OH236406   0.681   0.982   4.852
12150TIP3    H136407   0.675   0.930   4.932
12150TIP3    H236408   0.602   1.037   4.853
12151TIP3   OH236409   1.736   0.479   3.467
12151TIP3    H136410   1.731   0.564   3.423
12151TIP3    H236411   1.740   0.501   3.560
12152TIP3   OH236412   3.066   0.712   2.027
12152TIP3    H136413   3.048   0.641   1.965
12152TIP3    H236414   3.058   0.792   1.974
12153TIP3   OH236415   3.140   1.472   0.820
12153TIP3    H136416   3.077   1.480   0.748
12153TIP3    H236417   3.179   1.559   0.826
12154TIP3   OH236418   8.033   5.058   5.311
12154TIP3    H136419   8.125   5.079   5.326
12154TIP3    H236420   7.998   5.041   5.399
12155TIP3   OH236421   6.097   0.298   5.557
12155TIP3    H136422   6.105   0.392   5.537
12155TIP3    H236423   6.005   0.278   5.542
12156TIP3   OH236424   3.778   4.257   6.596
12156TIP3    H136425   3.818   4.300   6.671
12156TIP3    H236426   3.728   4.184   6.633
12157TIP3   OH236427   8.284   4.413   4.659
12157TIP3    H136428   8.230   4.451   4.591
12157TIP3    H236429   8.357   4.474   4.669
12158TIP3   OH236430   4.889   0.494   2.142
12158TIP3    H136431   4.973   0.499   2.188
12158TIP3    H236432   4.825   0.475   2.211
12159TIP3   OH236433   6.114   6.937   2.895
12159TIP3    H136434   6.064   6.948   2.976
12159TIP3    H236435   6.187   6.881   2.920
12160TIP3   OH236436   0.624   4.499   1.419
12160TIP3    H136437   0.621   4.523   1.326
12160TIP3    H236438   0.567   4.563   1.462
12161TIP3   OH236439   8.118   4.255   6.027
12161TIP3    H136440   8.057   4.315   5.983
12161TIP3    H236441   8.186   4.240   5.962
12162TIP3   OH236442   5.866   3.643   4.583
12162TIP3    H136443   5.775   3.671   4.593
12162TIP3    H236444   5.870   3.605   4.495
12163TIP3   OH236445   5.724   0.903   5.857
12163TIP3    H136446   5.758   0.821   5.822
12163TIP3    H236447   5.728   0.892   5.952
12164TIP3   OH236448   7.882   1.624   4.278
12164TIP3    H136449   7.963   1.585   4.311
12164TIP3    H236450   7.837   1.655   4.356
12165TIP3   OH236451   5.216   2.303   0.776
12165TIP3    H136452   5.274   2.363   0.823
12165TIP3    H236453   5.266   2.276   0.699
12166TIP3   OH236454   0.176   5.066   4.637
12166TIP3    H136455   0.265   5.045   4.666
12166TIP3    H236456   0.156   5.149   4.682
12167TIP3   OH236457   6.691   2.175   3.941
12167TIP3    H136458   6.725   2.193   3.853
12167TIP3    H236459   6.645   2.091   3.932
12168TIP3   OH236460   2.425   4.644   3.261
12168TIP3    H136461   2.385   4.581   3.201
12168TIP3    H236462   2.452   4.717   3.205
12169TIP3   OH236463   0.800   3.678   3.062
12169TIP3    H136464   0.767   3.763   3.091
12169TIP3    H236465   0.722   3.625   3.050
12170TIP3   OH236466   0.503   7.751   5.692
12170TIP3    H136467   0.497   7.847   5.693
12170TIP3    H236468   0.518   7.727   5.783
12171TIP3   OH236469   4.723   3.403   5.662
12171TIP3    H136470   4.689   3.392   5.574
12171TIP3    H236471   4.800   3.346   5.666
12172TIP3   OH236472   1.065   5.419   2.350
12172TIP3    H136473   1.079   5.328   2.322
12172TIP3    H236474   1.044   5.466   2.269
12173TIP3   OH236475   6.180   0.162   1.148
12173TIP3    H136476   6.160   0.071   1.173
12173TIP3    H236477   6.105   0.189   1.095
12174TIP3   OH236478   1.280   2.889   4.819
12174TIP3    H136479   1.372   2.900   4.797
12174TIP3    H236480   1.266   2.794   4.820
12175TIP3   OH236481   7.566   6.261   2.531
12175TIP3    H136482   7.511   6.324   2.484
12175TIP3    H236483   7.655   6.296   2.524
12176TIP3   OH236484   1.889   3.221   1.336
12176TIP3    H136485   1.899   3.126   1.332
12176TIP3    H236486   1.847   3.238   1.420
12177TIP3   OH236487   0.287   2.490   1.854
12177TIP3    H136488   0.294   2.539   1.773
12177TIP3    H236489   0.281   2.556   1.922
12178TIP3   OH236490   4.299   4.986   4.113
12178TIP3    H136491   4.247   5.065   4.098
12178TIP3    H236492   4.277   4.959   4.202
12179TIP3   OH236493   4.345   1.703   3.420
12179TIP3    H136494   4.341   1.797   3.401
12179TIP3    H236495   4.351   1.699   3.516
12180TIP3   OH236496   6.311   2.641   3.780
12180TIP3    H136497   6.259   2.722   3.782
12180TIP3    H236498   6.375   2.653   3.850
12181TIP3   OH236499   8.053   6.910   6.059
12181TIP3    H136500   8.112   6.834   6.062
12181TIP3    H236501   7.968   6.877   6.087
12182TIP3   OH236502   0.243   6.269   2.106
12182TIP3    H136503   0.320   6.251   2.159
12182TIP3    H236504   0.227   6.188   2.058
12183TIP3   OH236505   6.632   6.835   3.197
12183TIP3    H136506   6.582   6.912   3.223
12183TIP3    H236507   6.575   6.761   3.222
12184TIP3   OH236508   1.022   5.288   6.592
12184TIP3    H136509   1.068   5.206   6.576
12184TIP3    H236510   0.953   5.265   6.655
12185TIP3   OH236511   5.354   0.878   5.243
12185TIP3    H136512   5.360   0.888   5.338
12185TIP3    H236513   5.442   0.900   5.211
12186TIP3   OH236514   1.396   5.840   5.184
12186TIP3    H136515   1.478   5.804   5.152
12186TIP3    H236516   1.396   5.931   5.154
12187TIP3   OH236517   2.044   6.196   1.476
12187TIP3    H136518   2.107   6.265   1.459
12187TIP3    H236519   1.963   6.242   1.500
12188TIP3   OH236520   2.483   4.161   5.313
12188TIP3    H136521   2.424   4.193   5.381
12188TIP3    H236522   2.551   4.114   5.360
12189TIP3   OH236523   0.281   7.695   0.726
12189TIP3    H136524   0.337   7.718   0.800
12189TIP3    H236525   0.224   7.771   0.715
12190TIP3   OH236526   7.003   0.611   2.252
12190TIP3    H136527   7.039   0.527   2.224
12190TIP3    H236528   7.002   0.607   2.347
12191TIP3   OH236529   4.597   3.279   6.497
12191TIP3    H136530   4.642   3.221   6.559
12191TIP3    H236531   4.666   3.312   6.440
12192TIP3   OH236532   5.155   5.855   2.649
12192TIP3    H136533   5.154   5.791   2.720
12192TIP3    H236534   5.076   5.907   2.662
12193TIP3   OH236535   6.009   1.760   1.290
12193TIP3    H136536   6.066   1.787   1.362
12193TIP3    H236537   6.036   1.671   1.270
12194TIP3   OH236538   3.695   0.481   4.510
12194TIP3    H136539   3.637   0.490   4.586
12194TIP3    H236540   3.783   0.485   4.547
12195TIP3   OH236541   6.316   1.329   5.343
12195TIP3    H136542   6.362   1.251   5.311
12195TIP3    H236543   6.325   1.393   5.272
12196TIP3   OH236544   6.286   0.233   4.688
12196TIP3    H136545   6.377   0.261   4.698
12196TIP3    H236546   6.269   0.239   4.594
12197TIP3   OH236547   2.165   4.369   1.276
12197TIP3    H136548   2.083   4.320   1.274
12197TIP3    H236549   2.138   4.461   1.285
12198TIP3   OH236550   4.822   5.463   1.084
12198TIP3    H136551   4.736   5.470   1.125
12198TIP3    H236552   4.839   5.369   1.079
12199TIP3   OH236553   2.826   4.297   0.952
12199TIP3    H136554   2.791   4.384   0.931
12199TIP3    H236555   2.749   4.241   0.956
12200TIP3   OH236556   1.142   0.019   6.589
12200TIP3    H136557   1.143   0.109   6.557
12200TIP3    H236558   1.232  -0.012   6.577
12201TIP3   OH236559   3.204   6.399   5.239
12201TIP3    H136560   3.167   6.318   5.203
12201TIP3    H236561   3.284   6.372   5.284
12202TIP3   OH236562   2.628   2.725   0.446
12202TIP3    H136563   2.570   2.664   0.401
12202TIP3    H236564   2.708   2.725   0.393
12203TIP3   OH236565   2.359   5.576   0.253
12203TIP3    H136566   2.297   5.515   0.295
12203TIP3    H236567   2.397   5.525   0.182
12204TIP3   OH236568   0.922   3.258   1.158
12204TIP3    H136569   0.907   3.178   1.107
12204TIP3    H236570   1.011   3.247   1.193
12205TIP3   OH236571   6.541   5.179   6.134
12205TIP3    H136572   6.543   5.271   6.108
12205TIP3    H236573   6.505   5.134   6.058
12206TIP3   OH236574   0.391   2.296   3.302
12206TIP3    H136575   0.381   2.363   3.369
12206TIP3    H236576   0.483   2.271   3.306
12207TIP3   OH236577   5.615   1.738   1.117
12207TIP3    H136578   5.644   1.696   1.198
12207TIP3    H236579   5.605   1.666   1.054
12208TIP3   OH236580   3.324   4.107   0.624
12208TIP3    H136581   3.339   4.083   0.533
12208TIP3    H236582   3.336   4.025   0.673
12209TIP3   OH236583   3.865   0.030   2.627
12209TIP3    H136584   3.782  -0.015   2.642
12209TIP3    H236585   3.883   0.016   2.534
12210TIP3   OH236586   3.155   0.860   2.339
12210TIP3    H136587   3.190   0.800   2.273
12210TIP3    H236588   3.107   0.926   2.288
12211TIP3   OH236589   1.982   4.238   2.526
12211TIP3    H136590   2.032   4.156   2.532
12211TIP3    H236591   2.049   4.307   2.531
12212TIP3   OH236592   1.619   3.121   6.585
12212TIP3    H136593   1.650   3.103   6.674
12212TIP3    H236594   1.556   3.052   6.567
12213TIP3   OH236595   4.308   0.112   1.640
12213TIP3    H136596   4.336   0.183   1.698
12213TIP3    H236597   4.279   0.043   1.699
12214TIP3   OH236598   6.957   1.927   2.112
12214TIP3    H136599   6.910   1.973   2.182
12214TIP3    H236600   7.048   1.929   2.138
12215TIP3   OH236601   2.920   4.005   4.618
12215TIP3    H136602   2.992   3.959   4.661
12215TIP3    H236603   2.886   3.941   4.555
12216TIP3   OH236604   0.818   2.958   6.502
12216TIP3    H136605   0.766   2.973   6.423
12216TIP3    H236606   0.771   3.004   6.571
12217TIP3   OH236607   0.041   0.535   4.305
12217TIP3    H136608   0.046   0.622   4.266
12217TIP3    H236609  -0.051   0.512   4.301
12218TIP3   OH236610   2.918   0.626   4.048
12218TIP3    H136611   2.852   0.576   4.095
12218TIP3    H236612   2.946   0.568   3.977
12219TIP3   OH236613   0.371   7.276   0.225
12219TIP3    H136614   0.339   7.195   0.267
12219TIP3    H236615   0.393   7.250   0.136
12220TIP3   OH236616   3.723   4.860   3.398
12220TIP3    H136617   3.689   4.931   3.452
12220TIP3    H236618   3.665   4.786   3.416
12221TIP3   OH236619   1.693   1.618   6.585
12221TIP3    H136620   1.598   1.610   6.591
12221TIP3    H236621   1.726   1.541   6.631
12222TIP3   OH236622   8.137   7.671   6.336
12222TIP3    H136623   8.230   7.697   6.330
12222TIP3    H236624   8.137   7.597   6.397
12223TIP3   OH236625   5.560   0.442   2.509
12223TIP3    H136626   5.648   0.453   2.472
12223TIP3    H236627   5.534   0.530   2.536
12224TIP3   OH236628   1.295   1.393   2.551
12224TIP3    H136629   1.266   1.347   2.630
12224TIP3    H236630   1.285   1.329   2.481
12225TIP3   OH236631   4.809   2.145   4.199
12225TIP3    H136632   4.798   2.238   4.215
12225TIP3    H236633   4.723   2.107   4.213
12226TIP3   OH236634   3.522   2.100   1.215
12226TIP3    H136635   3.432   2.070   1.201
12226TIP3    H236636   3.513   2.192   1.238
12227TIP3   OH236637   5.459   6.400   5.802
12227TIP3    H136638   5.525   6.379   5.868
12227TIP3    H236639   5.388   6.441   5.852
12228TIP3   OH236640   0.492   2.301   1.295
12228TIP3    H136641   0.557   2.243   1.254
12228TIP3    H236642   0.457   2.353   1.222
12229TIP3   OH236643   4.544   4.743   5.213
12229TIP3    H136644   4.483   4.792   5.157
12229TIP3    H236645   4.620   4.802   5.222
12230TIP3   OH236646   4.498   3.394   1.270
12230TIP3    H136647   4.408   3.407   1.302
12230TIP3    H236648   4.506   3.454   1.196
12231TIP3   OH236649   0.911   5.869   3.960
12231TIP3    H136650   0.841   5.935   3.962
12231TIP3    H236651   0.888   5.811   3.887
12232TIP3   OH236652   0.084   2.757   6.469
12232TIP3    H136653   0.155   2.720   6.415
12232TIP3    H236654   0.004   2.725   6.428
12233TIP3   OH236655   8.098   4.809   0.326
12233TIP3    H136656   8.037   4.744   0.291
12233TIP3    H236657   8.046   4.857   0.391
12234TIP3   OH236658   0.723   2.158   2.527
12234TIP3    H136659   0.765   2.156   2.441
12234TIP3    H236660   0.770   2.227   2.575
12235TIP3   OH236661   4.383   5.957   2.143
12235TIP3    H136662   4.288   5.956   2.157
12235TIP3    H236663   4.394   5.917   2.056
12236TIP3   OH236664   3.707   7.015   0.704
12236TIP3    H136665   3.745   7.026   0.792
12236TIP3    H236666   3.613   7.020   0.718
12237TIP3   OH236667   6.366   7.074   1.035
12237TIP3    H136668   6.397   7.058   0.945
12237TIP3    H236669   6.291   7.131   1.025
12238TIP3   OH236670   5.325   7.463   1.064
12238TIP3    H136671   5.355   7.422   1.145
12238TIP3    H236672   5.244   7.508   1.089
12239TIP3   OH236673   3.950   0.979   1.424
12239TIP3    H136674   3.994   1.056   1.388
12239TIP3    H236675   3.938   0.998   1.517
12240TIP3   OH236676   6.844   3.295   4.469
12240TIP3    H136677   6.756   3.271   4.498
12240TIP3    H236678   6.884   3.337   4.545
12241TIP3   OH236679   8.203   3.545   3.899
12241TIP3    H136680   8.275   3.606   3.917
12241TIP3    H236681   8.222   3.469   3.953
12242TIP3   OH236682   4.206   4.427   6.725
12242TIP3    H136683   4.232   4.471   6.643
12242TIP3    H236684   4.120   4.464   6.746
12243TIP3   OH236685   1.707   0.680   5.102
12243TIP3    H136686   1.700   0.776   5.104
12243TIP3    H236687   1.665   0.652   5.183
12244TIP3   OH236688   4.452   3.846   4.788
12244TIP3    H136689   4.394   3.781   4.827
12244TIP3    H236690   4.467   3.910   4.858
12245TIP3   OH236691   2.647   7.689   4.309
12245TIP3    H136692   2.644   7.663   4.401
12245TIP3    H236693   2.585   7.630   4.266
12246TIP3   OH236694   2.021   4.774   3.472
12246TIP3    H136695   2.065   4.732   3.398
12246TIP3    H236696   2.002   4.701   3.532
12247TIP3   OH236697   2.379   7.457   6.297
12247TIP3    H136698   2.454   7.511   6.273
12247TIP3    H236699   2.304   7.499   6.255
12248TIP3   OH236700   7.876   4.893   4.761
12248TIP3    H136701   7.782   4.906   4.757
12248TIP3    H236702   7.890   4.838   4.838
12249TIP3   OH236703   1.090   4.380   3.238
12249TIP3    H136704   1.172   4.332   3.230
12249TIP3    H236705   1.108   4.464   3.195
12250TIP3   OH236706   6.005   4.926   5.849
12250TIP3    H136707   5.955   5.007   5.859
12250TIP3    H236708   6.038   4.929   5.759
12251TIP3   OH236709   3.908   0.078   4.344
12251TIP3    H136710   3.887   0.063   4.252
12251TIP3    H236711   3.851   0.150   4.370
12252TIP3   OH236712   4.696   6.062   6.697
12252TIP3    H136713   4.715   6.006   6.773
12252TIP3    H236714   4.624   6.118   6.727
12253TIP3   OH236715   4.549   2.130   4.985
12253TIP3    H136716   4.478   2.172   5.035
12253TIP3    H236717   4.628   2.150   5.035
12254TIP3   OH236718   2.743   1.881   5.691
12254TIP3    H136719   2.736   1.799   5.741
12254TIP3    H236720   2.680   1.870   5.620
12255TIP3   OH236721   0.220   4.551   6.385
12255TIP3    H136722   0.294   4.501   6.349
12255TIP3    H236723   0.260   4.619   6.438
12256TIP3   OH236724   0.524   1.291   6.354
12256TIP3    H136725   0.431   1.279   6.371
12256TIP3    H236726   0.563   1.206   6.371
12257TIP3   OH236727   4.246   0.386   3.760
12257TIP3    H136728   4.279   0.346   3.841
12257TIP3    H236729   4.197   0.463   3.790
12258TIP3   OH236730   1.329   4.276   3.293
12258TIP3    H136731   1.336   4.184   3.320
12258TIP3    H236732   1.371   4.325   3.363
12259TIP3   OH236733   0.546   0.437   3.050
12259TIP3    H136734   0.597   0.425   3.130
12259TIP3    H236735   0.596   0.391   2.983
12260TIP3   OH236736   3.070   6.123   0.792
12260TIP3    H136737   3.164   6.134   0.805
12260TIP3    H236738   3.030   6.157   0.872
12261TIP3   OH236739   4.326   2.457   2.704
12261TIP3    H136740   4.272   2.519   2.755
12261TIP3    H236741   4.317   2.374   2.751
12262TIP3   OH236742   1.884   2.055   5.538
12262TIP3    H136743   1.843   1.983   5.586
12262TIP3    H236744   1.857   2.134   5.585
12263TIP3   OH236745   4.508   7.007   3.894
12263TIP3    H136746   4.443   7.076   3.884
12263TIP3    H236747   4.580   7.049   3.942
12264TIP3   OH236748   0.962   3.053   5.592
12264TIP3    H136749   1.013   2.990   5.644
12264TIP3    H236750   1.028   3.108   5.550
12265TIP3   OH236751   6.112   1.830   0.931
12265TIP3    H136752   6.203   1.825   0.901
12265TIP3    H236753   6.082   1.916   0.902
12266TIP3   OH236754   3.057   3.314   2.049
12266TIP3    H136755   2.986   3.255   2.023
12266TIP3    H236756   3.033   3.398   2.009
12267TIP3   OH236757   1.561   2.259   5.942
12267TIP3    H136758   1.628   2.309   5.988
12267TIP3    H236759   1.483   2.315   5.946
12268TIP3   OH236760   3.732   7.300   5.604
12268TIP3    H136761   3.687   7.216   5.592
12268TIP3    H236762   3.677   7.349   5.665
12269TIP3   OH236763   7.454   5.894   4.701
12269TIP3    H136764   7.524   5.881   4.637
12269TIP3    H236765   7.472   5.829   4.769
12270TIP3   OH236766   8.287   3.934   2.397
12270TIP3    H136767   8.350   3.862   2.392
12270TIP3    H236768   8.222   3.905   2.461
12271TIP3   OH236769   1.584   4.288   4.850
12271TIP3    H136770   1.528   4.335   4.913
12271TIP3    H236771   1.523   4.243   4.792
12272TIP3   OH236772   2.099   7.287   0.620
12272TIP3    H136773   2.158   7.265   0.548
12272TIP3    H236774   2.142   7.251   0.698
12273TIP3   OH236775   6.945   3.133   6.482
12273TIP3    H136776   6.986   3.214   6.510
12273TIP3    H236777   6.963   3.128   6.388
12274TIP3   OH236778   2.864   3.180   5.398
12274TIP3    H136779   2.889   3.220   5.482
12274TIP3    H236780   2.848   3.088   5.419
12275TIP3   OH236781   4.560   0.834   0.722
12275TIP3    H136782   4.467   0.841   0.745
12275TIP3    H236783   4.601   0.796   0.800
12276TIP3   OH236784   2.971   2.362   4.964
12276TIP3    H136785   2.924   2.409   4.894
12276TIP3    H236786   3.041   2.315   4.918
12277TIP3   OH236787   2.429   7.728   3.304
12277TIP3    H136788   2.335   7.718   3.315
12277TIP3    H236789   2.468   7.689   3.382
12278TIP3   OH236790   6.392   7.005   2.255
12278TIP3    H136791   6.374   7.079   2.196
12278TIP3    H236792   6.436   7.045   2.330
12279TIP3   OH236793   7.541   7.309   6.599
12279TIP3    H136794   7.565   7.297   6.691
12279TIP3    H236795   7.452   7.344   6.602
12280TIP3   OH236796   2.445   3.427   4.726
12280TIP3    H136797   2.476   3.478   4.801
12280TIP3    H236798   2.379   3.483   4.684
12281TIP3   OH236799   8.272   0.591   6.676
12281TIP3    H136800   8.264   0.662   6.739
12281TIP3    H236801   8.182   0.566   6.657
12282TIP3   OH236802   3.706   1.299   4.577
12282TIP3    H136803   3.738   1.389   4.581
12282TIP3    H236804   3.703   1.270   4.668
12283TIP3   OH236805   7.853   4.649   4.453
12283TIP3    H136806   7.817   4.680   4.536
12283TIP3    H236807   7.793   4.580   4.425
12284TIP3   OH236808   3.209   1.822   2.077
12284TIP3    H136809   3.121   1.788   2.093
12284TIP3    H236810   3.216   1.898   2.136
12285TIP3   OH236811   1.100   4.307   6.215
12285TIP3    H136812   1.125   4.268   6.131
12285TIP3    H236813   1.168   4.279   6.275
12286TIP3   OH236814   5.752   4.989   3.341
12286TIP3    H136815   5.772   5.048   3.268
12286TIP3    H236816   5.834   4.984   3.390
12287TIP3   OH236817   4.431   3.975   5.648
12287TIP3    H136818   4.373   3.932   5.711
12287TIP3    H236819   4.382   3.973   5.566
12288TIP3   OH236820   0.969   1.419   1.544
12288TIP3    H136821   0.924   1.382   1.468
12288TIP3    H236822   0.903   1.420   1.613
12289TIP3   OH236823   2.632   1.516   0.840
12289TIP3    H136824   2.670   1.433   0.814
12289TIP3    H236825   2.587   1.497   0.922
12290TIP3   OH236826   5.740   4.842   0.183
12290TIP3    H136827   5.681   4.784   0.136
12290TIP3    H236828   5.824   4.797   0.181
12291TIP3   OH236829   2.231   2.295   2.310
12291TIP3    H136830   2.294   2.327   2.246
12291TIP3    H236831   2.284   2.273   2.387
12292TIP3   OH236832   2.964   4.827   0.402
12292TIP3    H136833   3.052   4.789   0.405
12292TIP3    H236834   2.906   4.754   0.428
12293TIP3   OH236835   3.477   6.922   1.284
12293TIP3    H136836   3.545   6.972   1.329
12293TIP3    H236837   3.418   6.988   1.248
12294TIP3   OH236838   0.655   5.613   6.447
12294TIP3    H136839   0.611   5.541   6.493
12294TIP3    H236840   0.621   5.692   6.487
12295TIP3   OH236841   5.454   0.746   0.155
12295TIP3    H136842   5.515   0.691   0.204
12295TIP3    H236843   5.414   0.687   0.092
12296TIP3   OH236844   0.032   5.030   2.758
12296TIP3    H136845   0.014   5.062   2.669
12296TIP3    H236846   0.007   5.103   2.815
12297TIP3   OH236847   5.333   6.791   5.101
12297TIP3    H136848   5.290   6.725   5.156
12297TIP3    H236849   5.411   6.748   5.068
12298TIP3   OH236850   5.009   0.833   4.649
12298TIP3    H136851   5.070   0.819   4.576
12298TIP3    H236852   5.041   0.912   4.692
12299TIP3   OH236853   8.017   7.017   6.429
12299TIP3    H136854   7.986   7.061   6.507
12299TIP3    H236855   7.938   7.000   6.378
12300TIP3   OH236856   5.962   3.574   4.067
12300TIP3    H136857   6.032   3.637   4.052
12300TIP3    H236858   5.991   3.495   4.022
12301TIP3   OH236859   7.045   2.934   6.259
12301TIP3    H136860   7.011   2.886   6.184
12301TIP3    H236861   7.062   3.022   6.225
12302TIP3   OH236862   7.464   1.311   4.665
12302TIP3    H136863   7.408   1.337   4.738
12302TIP3    H236864   7.406   1.310   4.589
12303TIP3   OH236865   5.156   5.682   1.924
12303TIP3    H136866   5.182   5.615   1.987
12303TIP3    H236867   5.197   5.656   1.842
12304TIP3   OH236868   5.315   0.745   5.793
12304TIP3    H136869   5.380   0.676   5.785
12304TIP3    H236870   5.267   0.743   5.711
12305TIP3   OH236871   7.240   7.617   3.775
12305TIP3    H136872   7.250   7.535   3.726
12305TIP3    H236873   7.214   7.589   3.863
12306TIP3   OH236874   0.305   7.394   5.212
12306TIP3    H136875   0.282   7.383   5.120
12306TIP3    H236876   0.239   7.344   5.259
12307TIP3   OH236877   6.408   0.121   6.503
12307TIP3    H136878   6.419   0.173   6.583
12307TIP3    H236879   6.478   0.056   6.508
12308TIP3   OH236880   5.304   3.051   4.125
12308TIP3    H136881   5.384   3.030   4.076
12308TIP3    H236882   5.233   3.021   4.067
12309TIP3   OH236883   4.498   0.294   1.128
12309TIP3    H136884   4.522   0.201   1.124
12309TIP3    H236885   4.444   0.301   1.207
12310TIP3   OH236886   2.162   7.629   2.190
12310TIP3    H136887   2.100   7.627   2.263
12310TIP3    H236888   2.222   7.556   2.208
12311TIP3   OH236889   5.901   2.466   6.312
12311TIP3    H136890   5.945   2.477   6.396
12311TIP3    H236891   5.843   2.542   6.306
12312TIP3   OH236892   7.386   5.099   5.444
12312TIP3    H136893   7.374   5.167   5.378
12312TIP3    H236894   7.434   5.143   5.515
12313TIP3   OH236895   1.618   2.675   6.219
12313TIP3    H136896   1.582   2.587   6.226
12313TIP3    H236897   1.690   2.668   6.157
12314TIP3   OH236898   3.367   4.591   0.183
12314TIP3    H136899   3.363   4.685   0.165
12314TIP3    H236900   3.299   4.553   0.127
12315TIP3   OH236901   0.742   7.662   5.027
12315TIP3    H136902   0.753   7.572   5.058
12315TIP3    H236903   0.831   7.695   5.015
12316TIP3   OH236904   2.269   1.619   4.054
12316TIP3    H136905   2.336   1.598   3.989
12316TIP3    H236906   2.196   1.561   4.031
12317TIP3   OH236907   7.623   3.469   3.959
12317TIP3    H136908   7.537   3.460   3.917
12317TIP3    H236909   7.653   3.556   3.933
12318TIP3   OH236910   0.138   0.717   6.447
12318TIP3    H136911   0.139   0.682   6.536
12318TIP3    H236912   0.048   0.749   6.435
12319TIP3   OH236913   0.130   3.357   2.522
12319TIP3    H136914   0.056   3.321   2.473
12319TIP3    H236915   0.098   3.441   2.553
12320TIP3   OH236916   0.594   0.840   0.848
12320TIP3    H136917   0.648   0.894   0.791
12320TIP3    H236918   0.650   0.819   0.922
12321TIP3   OH236919   6.223   6.640   4.274
12321TIP3    H136920   6.309   6.625   4.314
12321TIP3    H236921   6.243   6.664   4.183
12322TIP3   OH236922   5.795   4.652   4.989
12322TIP3    H136923   5.875   4.704   4.986
12322TIP3    H236924   5.819   4.574   5.038
12323TIP3   OH236925   6.269   5.988   3.341
12323TIP3    H136926   6.326   5.946   3.276
12323TIP3    H236927   6.288   5.941   3.422
12324TIP3   OH236928   1.982   0.381   5.811
12324TIP3    H136929   1.929   0.302   5.821
12324TIP3    H236930   1.937   0.448   5.863
12325TIP3   OH236931   6.935   6.705   1.208
12325TIP3    H136932   6.998   6.634   1.198
12325TIP3    H236933   6.878   6.677   1.279
12326TIP3   OH236934   7.000   6.334   1.023
12326TIP3    H136935   7.028   6.398   1.088
12326TIP3    H236936   7.027   6.371   0.939
12327TIP3   OH236937   4.556   4.684   0.071
12327TIP3    H136938   4.559   4.703  -0.023
12327TIP3    H236939   4.618   4.612   0.083
12328TIP3   OH236940   0.184   2.302   0.042
12328TIP3    H136941   0.169   2.337  -0.046
12328TIP3    H236942   0.198   2.209   0.029
12329TIP3   OH236943   6.786   5.532   2.059
12329TIP3    H136944   6.855   5.468   2.079
12329TIP3    H236945   6.790   5.542   1.963
12330TIP3   OH236946   6.605   3.163   3.521
12330TIP3    H136947   6.645   3.169   3.434
12330TIP3    H236948   6.677   3.143   3.580
12331TIP3   OH236949   5.582   0.312   2.791
12331TIP3    H136950   5.600   0.320   2.697
12331TIP3    H236951   5.578   0.402   2.822
12332TIP3   OH236952   4.762   0.950   2.799
12332TIP3    H136953   4.857   0.945   2.805
12332TIP3    H236954   4.730   0.913   2.881
12333TIP3   OH236955   7.366   6.169   0.926
12333TIP3    H136956   7.346   6.108   0.997
12333TIP3    H236957   7.396   6.248   0.970
12334TIP3   OH236958   0.293   4.447   0.054
12334TIP3    H136959   0.216   4.469   0.001
12334TIP3    H236960   0.351   4.522   0.044
12335TIP3   OH236961   6.508   4.557   6.119
12335TIP3    H136962   6.534   4.644   6.089
12335TIP3    H236963   6.579   4.530   6.177
12336TIP3   OH236964   5.757   7.617   0.833
12336TIP3    H136965   5.782   7.615   0.741
12336TIP3    H236966   5.672   7.573   0.836
12337TIP3   OH236967   6.742   1.620   4.071
12337TIP3    H136968   6.671   1.583   4.019
12337TIP3    H236969   6.727   1.588   4.159
12338TIP3   OH236970   7.761   3.121   1.732
12338TIP3    H136971   7.725   3.133   1.820
12338TIP3    H236972   7.735   3.199   1.684
12339TIP3   OH236973   4.916   1.710   5.819
12339TIP3    H136974   4.926   1.803   5.801
12339TIP3    H236975   4.851   1.706   5.889
12340TIP3   OH236976   7.452   5.781   2.256
12340TIP3    H136977   7.444   5.784   2.351
12340TIP3    H236978   7.542   5.810   2.239
12341TIP3   OH236979   6.322   1.914   5.891
12341TIP3    H136980   6.333   1.820   5.879
12341TIP3    H236981   6.404   1.943   5.931
12342TIP3   OH236982   1.203   6.056   0.961
12342TIP3    H136983   1.111   6.080   0.960
12342TIP3    H236984   1.251   6.139   0.967
12343TIP3   OH236985   4.312   1.763   4.174
12343TIP3    H136986   4.400   1.772   4.211
12343TIP3    H236987   4.322   1.786   4.082
12344TIP3   OH236988   0.705   4.941   1.092
12344TIP3    H136989   0.749   4.953   1.176
12344TIP3    H236990   0.776   4.937   1.028
12345TIP3   OH236991   6.569   3.813   6.277
12345TIP3    H136992   6.601   3.736   6.325
12345TIP3    H236993   6.548   3.876   6.346
12346TIP3   OH236994   8.204   6.499   5.348
12346TIP3    H136995   8.157   6.582   5.357
12346TIP3    H236996   8.277   6.505   5.410
12347TIP3   OH236997   8.077   2.255   2.271
12347TIP3    H136998   8.162   2.250   2.228
12347TIP3    H236999   8.077   2.339   2.316
12348TIP3   OH237000   7.136   3.833   6.026
12348TIP3    H137001   7.166   3.810   6.114
12348TIP3    H237002   7.115   3.926   6.031
12349TIP3   OH237003   5.965   4.999   5.555
12349TIP3    H137004   6.012   5.009   5.472
12349TIP3    H237005   5.876   5.026   5.535
12350TIP3   OH237006   6.354   5.317   5.013
12350TIP3    H137007   6.340   5.330   5.107
12350TIP3    H237008   6.424   5.252   5.008
12351TIP3   OH237009   1.430   4.054   1.495
12351TIP3    H137010   1.362   4.117   1.473
12351TIP3    H237011   1.385   3.988   1.548
12352TIP3   OH237012   5.664   7.523   3.389
12352TIP3    H137013   5.697   7.612   3.371
12352TIP3    H237014   5.613   7.501   3.311
12353TIP3   OH237015   4.087   0.735   3.109
12353TIP3    H137016   4.111   0.653   3.066
12353TIP3    H237017   4.105   0.720   3.202
12354TIP3   OH237018   7.115   7.070   1.116
12354TIP3    H137019   7.069   7.026   1.044
12354TIP3    H237020   7.108   7.008   1.189
12355TIP3   OH237021   6.552   1.731   2.949
12355TIP3    H137022   6.600   1.703   3.026
12355TIP3    H237023   6.616   1.727   2.878
12356TIP3   OH237024   6.694   2.105   6.425
12356TIP3    H137025   6.662   2.171   6.487
12356TIP3    H237026   6.708   2.155   6.344
12357TIP3   OH237027   3.005   0.818   1.021
12357TIP3    H137028   3.101   0.827   1.021
12357TIP3    H237029   2.983   0.811   1.114
12358TIP3   OH237030   3.777   1.898   1.609
12358TIP3    H137031   3.689   1.918   1.641
12358TIP3    H237032   3.770   1.812   1.569
12359TIP3   OH237033   1.638   5.142   4.983
12359TIP3    H137034   1.563   5.083   4.986
12359TIP3    H237035   1.709   5.090   4.946
12360TIP3   OH237036   1.724   4.566   4.781
12360TIP3    H137037   1.686   4.479   4.771
12360TIP3    H237038   1.648   4.625   4.781
12361TIP3   OH237039   7.124   2.229   1.437
12361TIP3    H137040   7.039   2.257   1.403
12361TIP3    H237041   7.181   2.226   1.360
12362TIP3   OH237042   0.765   7.314   2.747
12362TIP3    H137043   0.741   7.378   2.814
12362TIP3    H237044   0.861   7.314   2.748
12363TIP3   OH237045   6.300   1.144   1.203
12363TIP3    H137046   6.238   1.172   1.270
12363TIP3    H237047   6.370   1.100   1.252
12364TIP3   OH237048   6.774   0.786   4.574
12364TIP3    H137049   6.848   0.816   4.626
12364TIP3    H237050   6.804   0.704   4.534
12365TIP3   OH237051   7.031   0.200   1.469
12365TIP3    H137052   6.988   0.276   1.429
12365TIP3    H237053   7.047   0.227   1.559
12366TIP3   OH237054   0.127   3.440   6.749
12366TIP3    H137055   0.107   3.348   6.765
12366TIP3    H237056   0.047   3.475   6.709
12367TIP3   OH237057   7.665   6.282   5.713
12367TIP3    H137058   7.573   6.278   5.740
12367TIP3    H237059   7.714   6.269   5.794
12368TIP3   OH237060   4.127   3.327   0.441
12368TIP3    H137061   4.043   3.370   0.428
12368TIP3    H237062   4.130   3.306   0.534
12369TIP3   OH237063   5.602   4.744   0.573
12369TIP3    H137064   5.510   4.751   0.546
12369TIP3    H237065   5.604   4.671   0.634
12370TIP3   OH237066   0.784   0.951   5.434
12370TIP3    H137067   0.706   0.930   5.486
12370TIP3    H237068   0.771   1.043   5.408
12371TIP3   OH237069   3.305   0.962   3.384
12371TIP3    H137070   3.304   0.935   3.292
12371TIP3    H237071   3.388   1.009   3.394
12372TIP3   OH237072   2.227   5.678   1.036
12372TIP3    H137073   2.276   5.760   1.038
12372TIP3    H237074   2.195   5.667   1.126
12373TIP3   OH237075   0.301   2.255   6.712
12373TIP3    H137076   0.393   2.280   6.719
12373TIP3    H237077   0.253   2.337   6.719
12374TIP3   OH237078   0.865   3.938   4.607
12374TIP3    H137079   0.839   3.889   4.685
12374TIP3    H237080   0.869   4.029   4.636
12375TIP3   OH237081   5.675   2.672   5.754
12375TIP3    H137082   5.651   2.585   5.720
12375TIP3    H237083   5.680   2.727   5.675
12376TIP3   OH237084   7.495   5.205   1.337
12376TIP3    H137085   7.494   5.200   1.241
12376TIP3    H237086   7.499   5.114   1.365
12377TIP3   OH237087   1.665   7.019   1.257
12377TIP3    H137088   1.695   6.966   1.331
12377TIP3    H237089   1.741   7.070   1.232
12378TIP3   OH237090   0.341   4.794   0.186
12378TIP3    H137091   0.433   4.815   0.168
12378TIP3    H237092   0.297   4.879   0.184
12379TIP3   OH237093   1.278   6.633   1.830
12379TIP3    H137094   1.214   6.633   1.901
12379TIP3    H237095   1.226   6.621   1.751
12380TIP3   OH237096   3.594   7.551   2.743
12380TIP3    H137097   3.639   7.540   2.660
12380TIP3    H237098   3.512   7.501   2.733
12381TIP3   OH237099   4.453   2.908   1.805
12381TIP3    H137100   4.534   2.900   1.755
12381TIP3    H237101   4.436   2.820   1.838
12382TIP3   OH237102   2.077   3.998   0.805
12382TIP3    H137103   2.056   3.909   0.775
12382TIP3    H237104   2.160   4.019   0.763
12383TIP3   OH237105   7.760   6.037   5.605
12383TIP3    H137106   7.854   6.042   5.622
12383TIP3    H237107   7.720   6.089   5.675
12384TIP3   OH237108   6.137   2.980   5.269
12384TIP3    H137109   6.221   2.999   5.226
12384TIP3    H237110   6.081   2.948   5.198
12385TIP3   OH237111   1.646   2.527   0.183
12385TIP3    H137112   1.610   2.569   0.261
12385TIP3    H237113   1.652   2.598   0.118
12386TIP3   OH237114   6.090   5.649   0.453
12386TIP3    H137115   6.070   5.559   0.481
12386TIP3    H237116   6.176   5.667   0.491
12387TIP3   OH237117   7.064   0.604   4.151
12387TIP3    H137118   7.107   0.675   4.103
12387TIP3    H237119   7.011   0.559   4.085
12388TIP3   OH237120   1.785   0.738   4.287
12388TIP3    H137121   1.844   0.708   4.219
12388TIP3    H237122   1.699   0.702   4.262
12389TIP3   OH237123   4.201  -0.012   1.975
12389TIP3    H137124   4.264  -0.018   2.048
12389TIP3    H237125   4.136   0.052   2.004
12390TIP3   OH237126   3.450   7.267   6.130
12390TIP3    H137127   3.404   7.210   6.192
12390TIP3    H237128   3.449   7.220   6.048
12391TIP3   OH237129   4.570   4.506   0.750
12391TIP3    H137130   4.611   4.455   0.819
12391TIP3    H237131   4.618   4.483   0.671
12392TIP3   OH237132   7.510   4.789   3.826
12392TIP3    H137133   7.597   4.793   3.786
12392TIP3    H237134   7.461   4.728   3.772
12393TIP3   OH237135   6.305   6.457   2.563
12393TIP3    H137136   6.300   6.475   2.657
12393TIP3    H237137   6.255   6.528   2.523
12394TIP3   OH237138   1.601   5.665   2.133
12394TIP3    H137139   1.532   5.598   2.129
12394TIP3    H237140   1.555   5.747   2.116
12395TIP3   OH237141   4.531   4.718   6.263
12395TIP3    H137142   4.507   4.663   6.188
12395TIP3    H237143   4.485   4.800   6.249
12396TIP3   OH237144   2.044   4.459   6.427
12396TIP3    H137145   2.010   4.534   6.477
12396TIP3    H237146   2.139   4.468   6.433
12397TIP3   OH237147   6.650   5.141   5.733
12397TIP3    H137148   6.583   5.096   5.785
12397TIP3    H237149   6.605   5.216   5.696
12398TIP3   OH237150   3.321   0.926   4.127
12398TIP3    H137151   3.348   0.902   4.038
12398TIP3    H237152   3.375   1.002   4.149
12399TIP3   OH237153   7.931   6.460   1.592
12399TIP3    H137154   7.932   6.545   1.636
12399TIP3    H237155   8.023   6.443   1.572
12400TIP3   OH237156   4.988   5.107   0.739
12400TIP3    H137157   5.040   5.139   0.666
12400TIP3    H237158   5.031   5.141   0.817
12401TIP3   OH237159   8.215   5.365   6.060
12401TIP3    H137160   8.196   5.425   5.988
12401TIP3    H237161   8.164   5.398   6.133
12402TIP3   OH237162   3.747   2.190   1.073
12402TIP3    H137163   3.744   2.285   1.078
12402TIP3    H237164   3.662   2.161   1.108
12403TIP3   OH237165   3.947   2.822   0.586
12403TIP3    H137166   3.920   2.891   0.526
12403TIP3    H237167   4.035   2.798   0.557
12404TIP3   OH237168   4.203   3.011   1.323
12404TIP3    H137169   4.204   3.084   1.385
12404TIP3    H237170   4.289   3.014   1.281
12405TIP3   OH237171   5.026   5.030   2.443
12405TIP3    H137172   4.968   5.096   2.405
12405TIP3    H237173   5.095   5.018   2.378
12406TIP3   OH237174   2.354   1.020   1.984
12406TIP3    H137175   2.285   0.970   1.940
12406TIP3    H237176   2.427   0.958   1.990
12407TIP3   OH237177   0.480   5.381   4.496
12407TIP3    H137178   0.466   5.458   4.441
12407TIP3    H237179   0.395   5.367   4.540
12408TIP3   OH237180   0.666   2.222   3.335
12408TIP3    H137181   0.741   2.276   3.361
12408TIP3    H237182   0.700   2.132   3.337
12409TIP3   OH237183   6.253   1.948   6.284
12409TIP3    H137184   6.282   1.984   6.368
12409TIP3    H237185   6.260   2.021   6.223
12410TIP3   OH237186   5.712   7.736   2.389
12410TIP3    H137187   5.681   7.732   2.298
12410TIP3    H237188   5.636   7.768   2.438
12411TIP3   OH237189   3.221   6.094   6.712
12411TIP3    H137190   3.190   6.032   6.647
12411TIP3    H237191   3.261   6.039   6.780
12412TIP3   OH237192   4.396   6.172   3.143
12412TIP3    H137193   4.470   6.224   3.174
12412TIP3    H237194   4.319   6.227   3.161
12413TIP3   OH237195   5.982   4.593   1.683
12413TIP3    H137196   6.046   4.524   1.667
12413TIP3    H237197   5.913   4.550   1.734
12414TIP3   OH237198   4.204   4.575   1.975
12414TIP3    H137199   4.185   4.481   1.971
12414TIP3    H237200   4.123   4.615   2.006
12415TIP3   OH237201   0.574   2.801   5.990
12415TIP3    H137202   0.599   2.783   6.081
12415TIP3    H237203   0.507   2.869   5.997
12416TIP3   OH237204   6.022   1.015   3.858
12416TIP3    H137205   6.063   1.074   3.794
12416TIP3    H237206   5.977   0.949   3.805
12417TIP3   OH237207   3.051   7.162   6.421
12417TIP3    H137208   3.015   7.082   6.383
12417TIP3    H237209   3.092   7.207   6.346
12418TIP3   OH237210   3.738   6.775   3.369
12418TIP3    H137211   3.762   6.781   3.276
12418TIP3    H237212   3.734   6.681   3.387
12419TIP3   OH237213   1.809   7.568   4.452
12419TIP3    H137214   1.836   7.660   4.447
12419TIP3    H237215   1.888   7.521   4.480
12420TIP3   OH237216   8.033   0.180   6.199
12420TIP3    H137217   8.114   0.131   6.186
12420TIP3    H237218   8.042   0.257   6.142
12421TIP3   OH237219   1.858   4.295   4.670
12421TIP3    H137220   1.851   4.247   4.587
12421TIP3    H237221   1.852   4.227   4.737
12422TIP3   OH237222   0.698   1.088   0.422
12422TIP3    H137223   0.672   1.021   0.486
12422TIP3    H237224   0.785   1.115   0.450
12423TIP3   OH237225   0.888   4.649   0.724
12423TIP3    H137226   0.953   4.709   0.686
12423TIP3    H237227   0.809   4.701   0.733
12424TIP3   OH237228   3.225   6.289   5.615
12424TIP3    H137229   3.238   6.221   5.682
12424TIP3    H237230   3.157   6.253   5.558
12425TIP3   OH237231   2.889   5.281   5.641
12425TIP3    H137232   2.803   5.265   5.680
12425TIP3    H237233   2.886   5.373   5.612
12426TIP3   OH237234   0.095   1.995   0.350
12426TIP3    H137235   0.027   1.980   0.416
12426TIP3    H237236   0.129   2.082   0.370
12427TIP3   OH237237   6.242   1.440   1.912
12427TIP3    H137238   6.220   1.467   1.823
12427TIP3    H237239   6.302   1.367   1.900
12428TIP3   OH237240   0.587   5.465   3.383
12428TIP3    H137241   0.663   5.489   3.329
12428TIP3    H237242   0.547   5.391   3.338
12429TIP3   OH237243   4.016   5.667   0.203
12429TIP3    H137244   4.103   5.704   0.220
12429TIP3    H237245   3.956   5.728   0.246
12430TIP3   OH237246   7.044   6.190   4.472
12430TIP3    H137247   7.001   6.234   4.545
12430TIP3    H237248   7.083   6.111   4.511
12431TIP3   OH237249   0.236   0.668   1.820
12431TIP3    H137250   0.183   0.661   1.741
12431TIP3    H237251   0.188   0.618   1.886
12432TIP3   OH237252   1.391   1.837   6.686
12432TIP3    H137253   1.453   1.814   6.756
12432TIP3    H237254   1.381   1.756   6.636
12433TIP3   OH237255   6.727   2.337   0.580
12433TIP3    H137256   6.709   2.318   0.672
12433TIP3    H237257   6.672   2.412   0.559
12434TIP3   OH237258   3.787   0.254   5.898
12434TIP3    H137259   3.696   0.225   5.887
12434TIP3    H237260   3.780   0.346   5.926
12435TIP3   OH237261   7.547   0.857   3.534
12435TIP3    H137262   7.605   0.923   3.496
12435TIP3    H237263   7.479   0.907   3.578
12436TIP3   OH237264   3.099   4.933   2.387
12436TIP3    H137265   3.152   4.992   2.333
12436TIP3    H237266   3.159   4.900   2.454
12437TIP3   OH237267   7.423   7.795   4.872
12437TIP3    H137268   7.385   7.743   4.801
12437TIP3    H237269   7.448   7.878   4.831
12438TIP3   OH237270   5.980   4.720   0.155
12438TIP3    H137271   6.003   4.631   0.130
12438TIP3    H237272   6.002   4.774   0.079
12439TIP3   OH237273   7.086   3.736   0.116
12439TIP3    H137274   7.054   3.778   0.196
12439TIP3    H237275   7.009   3.695   0.077
12440TIP3   OH237276   6.224   5.002   2.705
12440TIP3    H137277   6.193   5.087   2.675
12440TIP3    H237278   6.169   4.939   2.658
12441TIP3   OH237279   7.310   4.465   0.921
12441TIP3    H137280   7.245   4.479   0.990
12441TIP3    H237281   7.346   4.378   0.939
12442TIP3   OH237282   8.212   7.175   2.534
12442TIP3    H137283   8.211   7.252   2.590
12442TIP3    H237284   8.222   7.209   2.445
12443TIP3   OH237285   0.544   6.634   0.726
12443TIP3    H137286   0.486   6.667   0.657
12443TIP3    H237287   0.537   6.539   0.721
12444TIP3   OH237288   1.354   3.840   2.824
12444TIP3    H137289   1.291   3.831   2.895
12444TIP3    H237290   1.312   3.897   2.761
12445TIP3   OH237291   0.726   4.761   3.955
12445TIP3    H137292   0.802   4.807   3.920
12445TIP3    H237293   0.680   4.728   3.878
12446TIP3   OH237294   6.225   4.710   4.087
12446TIP3    H137295   6.318   4.691   4.074
12446TIP3    H237296   6.219   4.806   4.083
12447TIP3   OH237297   8.222   3.597   3.325
12447TIP3    H137298   8.282   3.534   3.365
12447TIP3    H237299   8.218   3.669   3.388
12448TIP3   OH237300   1.936   2.357   6.385
12448TIP3    H137301   1.944   2.452   6.398
12448TIP3    H237302   2.011   2.334   6.331
12449TIP3   OH237303   6.026   7.712   0.450
12449TIP3    H137304   6.064   7.631   0.485
12449TIP3    H237305   6.099   7.773   0.447
12450TIP3   OH237306   2.790   5.192   3.063
12450TIP3    H137307   2.788   5.173   2.969
12450TIP3    H237308   2.881   5.178   3.089
12451TIP3   OH237309   1.336   0.576   5.494
12451TIP3    H137310   1.390   0.498   5.480
12451TIP3    H237311   1.292   0.560   5.577
12452TIP3   OH237312   5.604   0.676   3.166
12452TIP3    H137313   5.515   0.687   3.201
12452TIP3    H237314   5.630   0.589   3.195
12453TIP3   OH237315   5.728   3.269   2.703
12453TIP3    H137316   5.769   3.313   2.630
12453TIP3    H237317   5.801   3.237   2.756
12454TIP3   OH237318   5.663   1.307   4.586
12454TIP3    H137319   5.639   1.217   4.610
12454TIP3    H237320   5.594   1.361   4.624
12455TIP3   OH237321   4.682   3.352   4.857
12455TIP3    H137322   4.730   3.322   4.934
12455TIP3    H237323   4.590   3.334   4.878
12456TIP3   OH237324   6.791   3.230   1.241
12456TIP3    H137325   6.716   3.172   1.241
12456TIP3    H237326   6.824   3.227   1.331
12457TIP3   OH237327   0.490   3.626   6.110
12457TIP3    H137328   0.519   3.599   6.023
12457TIP3    H237329   0.488   3.721   6.106
12458TIP3   OH237330   0.326   0.173   2.507
12458TIP3    H137331   0.307   0.091   2.462
12458TIP3    H237332   0.409   0.202   2.469
12459TIP3   OH237333   6.077   3.681   6.745
12459TIP3    H137334   6.044   3.705   6.832
12459TIP3    H237335   6.137   3.751   6.722
12460TIP3   OH237336   3.858   4.536   3.703
12460TIP3    H137337   3.881   4.628   3.717
12460TIP3    H237338   3.911   4.510   3.628
12461TIP3   OH237339   1.208   2.744   4.064
12461TIP3    H137340   1.247   2.656   4.063
12461TIP3    H237341   1.254   2.791   3.994
12462TIP3   OH237342   3.347   7.171   0.552
12462TIP3    H137343   3.388   7.189   0.467
12462TIP3    H237344   3.280   7.105   0.533
12463TIP3   OH237345   8.093   7.480   1.838
12463TIP3    H137346   8.094   7.491   1.743
12463TIP3    H237347   8.108   7.568   1.872
12464TIP3   OH237348   0.410   6.564   3.252
12464TIP3    H137349   0.408   6.559   3.156
12464TIP3    H237350   0.486   6.619   3.271
12465TIP3   OH237351   7.026   7.637   4.119
12465TIP3    H137352   6.938   7.641   4.082
12465TIP3    H237353   7.052   7.729   4.131
12466TIP3   OH237354   3.772   2.089   6.200
12466TIP3    H137355   3.839   2.104   6.133
12466TIP3    H237356   3.754   2.176   6.236
12467TIP3   OH237357   3.505   4.802   6.276
12467TIP3    H137358   3.478   4.767   6.191
12467TIP3    H237359   3.542   4.726   6.322
12468TIP3   OH237360   6.805   7.526   4.698
12468TIP3    H137361   6.873   7.483   4.749
12468TIP3    H237362   6.849   7.555   4.618
12469TIP3   OH237363   8.028   1.458   1.384
12469TIP3    H137364   7.949   1.446   1.331
12469TIP3    H237365   8.097   1.475   1.321
12470TIP3   OH237366   2.851   6.931   6.409
12470TIP3    H137367   2.802   6.905   6.487
12470TIP3    H237368   2.790   6.985   6.359
12471TIP3   OH237369   4.346   7.455   5.758
12471TIP3    H137370   4.321   7.539   5.720
12471TIP3    H237371   4.294   7.390   5.711
12472TIP3   OH237372   7.321   4.214   6.779
12472TIP3    H137373   7.406   4.226   6.736
12472TIP3    H237374   7.273   4.154   6.722
12473TIP3   OH237375   7.660   1.204   3.611
12473TIP3    H137376   7.722   1.135   3.633
12473TIP3    H237377   7.696   1.243   3.531
12474TIP3   OH237378   5.583   3.484   4.148
12474TIP3    H137379   5.596   3.395   4.115
12474TIP3    H237380   5.555   3.472   4.239
12475TIP3   OH237381   5.063   6.504   5.103
12475TIP3    H137382   5.011   6.437   5.148
12475TIP3    H237383   5.111   6.456   5.036
12476TIP3   OH237384   3.021   1.654   4.775
12476TIP3    H137385   3.104   1.620   4.742
12476TIP3    H237386   3.010   1.737   4.730
12477TIP3   OH237387   3.344   5.882   5.811
12477TIP3    H137388   3.427   5.898   5.766
12477TIP3    H237389   3.368   5.826   5.885
12478TIP3   OH237390   1.236   0.009   5.354
12478TIP3    H137391   1.156  -0.044   5.347
12478TIP3    H237392   1.235   0.063   5.275
12479TIP3   OH237393   7.095   4.609   6.237
12479TIP3    H137394   7.115   4.619   6.330
12479TIP3    H237395   7.151   4.537   6.209
12480TIP3   OH237396   5.975   0.074   4.454
12480TIP3    H137397   5.942   0.018   4.524
12480TIP3    H237398   5.901   0.129   4.430
12481TIP3   OH237399   6.901   5.374   4.913
12481TIP3    H137400   6.823   5.417   4.879
12481TIP3    H237401   6.896   5.285   4.878
12482TIP3   OH237402   3.968   3.010   6.042
12482TIP3    H137403   3.987   3.043   5.954
12482TIP3    H237404   3.968   2.915   6.033
12483TIP3   OH237405   6.383   5.518   5.571
12483TIP3    H137406   6.380   5.531   5.666
12483TIP3    H237407   6.467   5.473   5.556
12484TIP3   OH237408   2.353   0.168   4.136
12484TIP3    H137409   2.358   0.093   4.077
12484TIP3    H237410   2.265   0.164   4.173
12485TIP3   OH237411   6.859   4.641  -0.006
12485TIP3    H137412   6.943   4.598   0.007
12485TIP3    H237413   6.847   4.696   0.072
12486TIP3   OH237414   0.893   0.423   3.034
12486TIP3    H137415   0.877   0.333   3.005
12486TIP3    H237416   0.822   0.441   3.096
12487TIP3   OH237417   7.447   6.932   5.465
12487TIP3    H137418   7.377   6.950   5.402
12487TIP3    H237419   7.443   7.005   5.526
12488TIP3   OH237420   7.053   1.023   6.601
12488TIP3    H137421   6.997   0.956   6.562
12488TIP3    H237422   7.112   1.050   6.531
12489TIP3   OH237423   2.290   5.877   2.214
12489TIP3    H137424   2.259   5.787   2.224
12489TIP3    H237425   2.277   5.896   2.121
12490TIP3   OH237426   3.786   4.178   4.818
12490TIP3    H137427   3.802   4.241   4.888
12490TIP3    H237428   3.800   4.229   4.737
12491TIP3   OH237429   4.107   4.909   0.128
12491TIP3    H137430   4.028   4.930   0.078
12491TIP3    H237431   4.099   4.816   0.148
12492TIP3   OH237432   5.502   1.399   2.961
12492TIP3    H137433   5.432   1.372   2.902
12492TIP3    H237434   5.515   1.492   2.941
12493TIP3   OH237435   3.201   1.259   1.224
12493TIP3    H137436   3.134   1.296   1.166
12493TIP3    H237437   3.168   1.275   1.312
12494TIP3   OH237438   8.041   6.003   5.859
12494TIP3    H137439   8.004   5.932   5.807
12494TIP3    H237440   8.132   5.978   5.873
12495TIP3   OH237441   3.692   7.646   5.661
12495TIP3    H137442   3.769   7.664   5.607
12495TIP3    H237443   3.638   7.724   5.653
12496TIP3   OH237444   0.364   4.806   3.040
12496TIP3    H137445   0.394   4.832   3.127
12496TIP3    H237446   0.384   4.712   3.035
12497TIP3   OH237447   1.536   2.068   6.587
12497TIP3    H137448   1.572   2.110   6.665
12497TIP3    H237449   1.493   1.989   6.619
12498TIP3   OH237450   2.690   2.717   4.317
12498TIP3    H137451   2.601   2.721   4.352
12498TIP3    H237452   2.727   2.804   4.335
12499TIP3   OH237453   5.667   1.266   6.690
12499TIP3    H137454   5.734   1.243   6.626
12499TIP3    H237455   5.609   1.327   6.644
12500TIP3   OH237456   5.125   1.009   1.221
12500TIP3    H137457   5.191   1.041   1.284
12500TIP3    H237458   5.095   1.088   1.176
12501TIP3   OH237459   8.089   4.765   3.328
12501TIP3    H137460   8.064   4.805   3.411
12501TIP3    H237461   8.117   4.677   3.351
12502TIP3   OH237462   4.857   2.739   5.809
12502TIP3    H137463   4.787   2.796   5.842
12502TIP3    H237464   4.815   2.684   5.743
12503TIP3   OH237465   6.217   4.822   2.235
12503TIP3    H137466   6.219   4.727   2.239
12503TIP3    H237467   6.184   4.849   2.321
12504TIP3   OH237468   8.128   4.522   1.104
12504TIP3    H137469   8.106   4.438   1.064
12504TIP3    H237470   8.206   4.551   1.057
12505TIP3   OH237471   7.269   6.785   6.750
12505TIP3    H137472   7.309   6.700   6.733
12505TIP3    H237473   7.231   6.810   6.665
12506TIP3   OH237474   1.882   0.393   2.710
12506TIP3    H137475   1.968   0.382   2.751
12506TIP3    H237476   1.883   0.334   2.635
12507TIP3   OH237477   5.087   4.427   5.277
12507TIP3    H137478   5.114   4.372   5.203
12507TIP3    H237479   5.168   4.457   5.316
12508TIP3   OH237480   4.771   3.739   1.928
12508TIP3    H137481   4.759   3.815   1.986
12508TIP3    H237482   4.842   3.766   1.870
12509TIP3   OH237483   0.675   5.736  -0.002
12509TIP3    H137484   0.664   5.678   0.073
12509TIP3    H237485   0.630   5.817   0.023
12510TIP3   OH237486   4.733   1.611   2.648
12510TIP3    H137487   4.758   1.564   2.728
12510TIP3    H237488   4.813   1.614   2.595
12511TIP3   OH237489   3.666   6.189   1.980
12511TIP3    H137490   3.683   6.283   1.979
12511TIP3    H237491   3.607   6.176   2.054
12512TIP3   OH237492   2.509   0.385   4.515
12512TIP3    H137493   2.420   0.353   4.505
12512TIP3    H237494   2.500   0.470   4.558
12513TIP3   OH237495   0.893   1.712   6.109
12513TIP3    H137496   0.884   1.770   6.034
12513TIP3    H237497   0.803   1.696   6.139
12514TIP3   OH237498   2.830   3.304   3.457
12514TIP3    H137499   2.774   3.318   3.380
12514TIP3    H237500   2.819   3.212   3.479
12515TIP3   OH237501   5.195   3.398   5.868
12515TIP3    H137502   5.264   3.354   5.820
12515TIP3    H237503   5.210   3.373   5.960
12516TIP3   OH237504   6.809   7.383   1.836
12516TIP3    H137505   6.867   7.459   1.839
12516TIP3    H237506   6.792   7.362   1.928
12517TIP3   OH237507   0.838   6.866   1.418
12517TIP3    H137508   0.749   6.843   1.444
12517TIP3    H237509   0.841   6.961   1.424
12518TIP3   OH237510   2.141   1.926   5.464
12518TIP3    H137511   2.127   1.833   5.448
12518TIP3    H237512   2.060   1.955   5.506
12519TIP3   OH237513   5.314   1.002   2.742
12519TIP3    H137514   5.406   0.975   2.748
12519TIP3    H237515   5.296   1.004   2.649
12520TIP3   OH237516   0.583   2.891   4.848
12520TIP3    H137517   0.501   2.854   4.814
12520TIP3    H237518   0.635   2.815   4.871
12521TIP3   OH237519   0.189   0.956   3.913
12521TIP3    H137520   0.113   0.941   3.857
12521TIP3    H237521   0.259   0.904   3.873
12522TIP3   OH237522   0.072   7.636   1.554
12522TIP3    H137523   0.007   7.679   1.498
12522TIP3    H237524   0.146   7.697   1.556
12523TIP3   OH237525   6.328   0.879   4.617
12523TIP3    H137526   6.418   0.883   4.583
12523TIP3    H237527   6.293   0.966   4.602
12524TIP3   OH237528   2.648   6.501   2.634
12524TIP3    H137529   2.617   6.416   2.601
12524TIP3    H237530   2.656   6.489   2.728
12525TIP3   OH237531   6.584   4.649   1.328
12525TIP3    H137532   6.675   4.675   1.316
12525TIP3    H237533   6.555   4.621   1.241
12526TIP3   OH237534   0.587   0.265   6.467
12526TIP3    H137535   0.555   0.338   6.412
12526TIP3    H237536   0.682   0.273   6.463
12527TIP3   OH237537   3.728   0.729   2.720
12527TIP3    H137538   3.782   0.651   2.735
12527TIP3    H237539   3.642   0.706   2.757
12528TIP3   OH237540   4.967   1.950   2.417
12528TIP3    H137541   4.896   1.899   2.456
12528TIP3    H237542   4.923   2.027   2.379
12529TIP3   OH237543   8.296   4.047   4.140
12529TIP3    H137544   8.207   4.080   4.135
12529TIP3    H237545   8.342   4.089   4.067
12530TIP3   OH237546   2.887   4.100   0.287
12530TIP3    H137547   2.937   4.123   0.209
12530TIP3    H237548   2.939   4.032   0.331
12531TIP3   OH237549   5.319   1.144   0.820
12531TIP3    H137550   5.316   1.235   0.789
12531TIP3    H237551   5.323   1.091   0.741
12532TIP3   OH237552   0.609   2.694   1.937
12532TIP3    H137553   0.686   2.747   1.960
12532TIP3    H237554   0.547   2.757   1.900
12533TIP3   OH237555   0.850   0.439   2.433
12533TIP3    H137556   0.848   0.394   2.349
12533TIP3    H237557   0.895   0.522   2.415
12534TIP3   OH237558   0.582   1.358   5.680
12534TIP3    H137559   0.666   1.314   5.666
12534TIP3    H237560   0.554   1.327   5.767
12535TIP3   OH237561   0.963   3.521   4.553
12535TIP3    H137562   0.923   3.601   4.519
12535TIP3    H237563   0.890   3.462   4.568
12536TIP3   OH237564   5.690   0.888   0.027
12536TIP3    H137565   5.640   0.958   0.069
12536TIP3    H237566   5.624   0.833  -0.015
12537TIP3   OH237567   6.136   0.097   6.779
12537TIP3    H137568   6.093   0.011   6.776
12537TIP3    H237569   6.082   0.153   6.724
12538TIP3   OH237570   1.681   1.350   4.045
12538TIP3    H137571   1.695   1.279   4.108
12538TIP3    H237572   1.608   1.320   3.991
12539TIP3   OH237573   1.535   3.569   6.400
12539TIP3    H137574   1.559   3.638   6.461
12539TIP3    H237575   1.522   3.491   6.455
12540TIP3   OH237576   1.349   2.825   2.654
12540TIP3    H137577   1.377   2.859   2.739
12540TIP3    H237578   1.254   2.837   2.655
12541TIP3   OH237579   0.151   3.908   3.021
12541TIP3    H137580   0.149   3.819   3.057
12541TIP3    H237581   0.237   3.941   3.043
12542TIP3   OH237582   1.720   2.832   2.523
12542TIP3    H137583   1.773   2.847   2.444
12542TIP3    H237584   1.638   2.878   2.505
12543TIP3   OH237585   7.319   5.974   1.126
12543TIP3    H137586   7.333   5.975   1.221
12543TIP3    H237587   7.257   5.903   1.112
12544TIP3   OH237588   2.994   7.787   3.010
12544TIP3    H137589   3.037   7.857   2.961
12544TIP3    H237590   2.901   7.808   3.007
12545TIP3   OH237591   3.533   0.168   5.498
12545TIP3    H137592   3.585   0.091   5.520
12545TIP3    H237593   3.522   0.214   5.581
12546TIP3   OH237594   0.173   3.846   2.759
12546TIP3    H137595   0.223   3.912   2.712
12546TIP3    H237596   0.169   3.878   2.849
12547TIP3   OH237597   5.203   0.523   2.702
12547TIP3    H137598   5.122   0.511   2.752
12547TIP3    H237599   5.236   0.434   2.690
12548TIP3   OH237600   0.742   1.112   5.696
12548TIP3    H137601   0.668   1.098   5.755
12548TIP3    H237602   0.810   1.054   5.729
12549TIP3   OH237603   7.307   1.056   1.672
12549TIP3    H137604   7.353   1.136   1.643
12549TIP3    H237605   7.251   1.086   1.744
12550TIP3   OH237606   4.971   2.453   4.469
12550TIP3    H137607   5.057   2.411   4.463
12550TIP3    H237608   4.950   2.452   4.563
12551TIP3   OH237609   3.817   4.277   2.374
12551TIP3    H137610   3.890   4.249   2.429
12551TIP3    H237611   3.842   4.251   2.286
12552TIP3   OH237612   4.016   3.466   5.484
12552TIP3    H137613   4.039   3.522   5.558
12552TIP3    H237614   3.987   3.526   5.416
12553TIP3   OH237615   7.551   1.958   2.278
12553TIP3    H137616   7.462   1.981   2.250
12553TIP3    H237617   7.552   1.862   2.280
12554TIP3   OH237618   7.757   7.189   6.496
12554TIP3    H137619   7.695   7.257   6.523
12554TIP3    H237620   7.823   7.188   6.565
12555TIP3   OH237621   5.596   4.276   0.927
12555TIP3    H137622   5.655   4.213   0.968
12555TIP3    H237623   5.584   4.244   0.838
12556TIP3   OH237624   7.956   3.592   3.273
12556TIP3    H137625   8.046   3.579   3.302
12556TIP3    H237626   7.943   3.527   3.204
12557TIP3   OH237627   3.915   2.734   2.452
12557TIP3    H137628   3.960   2.669   2.399
12557TIP3    H237629   3.875   2.684   2.523
12558TIP3   OH237630   0.690   5.107   2.906
12558TIP3    H137631   0.682   5.157   2.825
12558TIP3    H237632   0.604   5.113   2.947
12559TIP3   OH237633   0.332   2.794   1.371
12559TIP3    H137634   0.313   2.717   1.425
12559TIP3    H237635   0.411   2.831   1.409
12560TIP3   OH237636   8.144   1.690   5.699
12560TIP3    H137637   8.177   1.601   5.697
12560TIP3    H237638   8.213   1.742   5.657
12561TIP3   OH237639   5.626   5.045   3.882
12561TIP3    H137640   5.600   5.076   3.796
12561TIP3    H237641   5.721   5.054   3.883
12562TIP3   OH237642   7.145   3.570   4.990
12562TIP3    H137643   7.130   3.475   4.997
12562TIP3    H237644   7.154   3.599   5.080
12563TIP3   OH237645   4.429   4.233   4.481
12563TIP3    H137646   4.456   4.146   4.510
12563TIP3    H237647   4.503   4.289   4.502
12564TIP3   OH237648   3.509   0.515   5.915
12564TIP3    H137649   3.572   0.586   5.926
12564TIP3    H237650   3.483   0.491   6.004
12565TIP3   OH237651   5.925   1.446   1.424
12565TIP3    H137652   5.951   1.490   1.505
12565TIP3    H237653   5.854   1.500   1.388
12566TIP3   OH237654   7.779   6.238   5.118
12566TIP3    H137655   7.722   6.172   5.078
12566TIP3    H237656   7.822   6.192   5.190
12567TIP3   OH237657   2.154   6.798   0.180
12567TIP3    H137658   2.229   6.740   0.189
12567TIP3    H237659   2.095   6.751   0.120
12568TIP3   OH237660   1.510   3.383   3.095
12568TIP3    H137661   1.435   3.406   3.150
12568TIP3    H237662   1.532   3.294   3.122
12569TIP3   OH237663   6.314   2.978   5.908
12569TIP3    H137664   6.301   2.897   5.958
12569TIP3    H237665   6.354   3.038   5.971
12570TIP3   OH237666   3.211   3.655   1.437
12570TIP3    H137667   3.293   3.620   1.402
12570TIP3    H237668   3.226   3.662   1.531
12571TIP3   OH237669   6.579   4.301   4.417
12571TIP3    H137670   6.535   4.386   4.409
12571TIP3    H237671   6.661   4.311   4.369
12572TIP3   OH237672   2.830   1.812   3.690
12572TIP3    H137673   2.912   1.789   3.734
12572TIP3    H237674   2.785   1.728   3.680
12573TIP3   OH237675   6.274   6.674   2.990
12573TIP3    H137676   6.181   6.653   3.001
12573TIP3    H237677   6.291   6.744   3.053
12574TIP3   OH237678   0.900   4.435   6.329
12574TIP3    H137679   0.861   4.455   6.243
12574TIP3    H237680   0.974   4.378   6.308
12575TIP3   OH237681   7.070   3.202   5.916
12575TIP3    H137682   7.113   3.146   5.852
12575TIP3    H237683   7.101   3.290   5.896
12576TIP3   OH237684   7.754   3.162   6.199
12576TIP3    H137685   7.658   3.158   6.208
12576TIP3    H237686   7.776   3.082   6.151
12577TIP3   OH237687   3.961   5.370   6.650
12577TIP3    H137688   3.924   5.302   6.594
12577TIP3    H237689   3.885   5.411   6.691
12578TIP3   OH237690   4.540   3.123   3.671
12578TIP3    H137691   4.449   3.093   3.667
12578TIP3    H237692   4.576   3.102   3.585
12579TIP3   OH237693   6.444   5.173   5.484
12579TIP3    H137694   6.521   5.208   5.438
12579TIP3    H237695   6.428   5.088   5.444
12580TIP3   OH237696   4.169   1.012   3.368
12580TIP3    H137697   4.203   1.034   3.455
12580TIP3    H237698   4.156   0.917   3.372
12581TIP3   OH237699   8.149   0.747   5.127
12581TIP3    H137700   8.079   0.758   5.062
12581TIP3    H237701   8.200   0.673   5.094
12582TIP3   OH237702   6.148   6.859   6.179
12582TIP3    H137703   6.148   6.800   6.255
12582TIP3    H237704   6.209   6.928   6.204
12583TIP3   OH237705   3.481   4.162   1.556
12583TIP3    H137706   3.515   4.072   1.550
12583TIP3    H237707   3.462   4.186   1.466
12584TIP3   OH237708   7.362   7.375   3.380
12584TIP3    H137709   7.439   7.372   3.437
12584TIP3    H237710   7.288   7.357   3.439
12585TIP3   OH237711   5.964   1.266   5.089
12585TIP3    H137712   5.890   1.295   5.034
12585TIP3    H237713   6.042   1.289   5.038
12586TIP3   OH237714   3.873   3.042   2.778
12586TIP3    H137715   3.962   3.031   2.811
12586TIP3    H237716   3.884   3.086   2.694
12587TIP3   OH237717   6.903   2.236   2.548
12587TIP3    H137718   6.913   2.150   2.508
12587TIP3    H237719   6.837   2.281   2.495
12588TIP3   OH237720   0.075   6.444   1.263
12588TIP3    H137721   0.126   6.364   1.251
12588TIP3    H237722   0.106   6.480   1.346
12589TIP3   OH237723   2.975   6.315   5.462
12589TIP3    H137724   2.998   6.256   5.390
12589TIP3    H237725   2.895   6.358   5.433
12590TIP3   OH237726   8.289   3.933   2.010
12590TIP3    H137727   8.331   3.992   2.072
12590TIP3    H237728   8.259   3.859   2.063
12591TIP3   OH237729   6.592   3.487   3.207
12591TIP3    H137730   6.503   3.467   3.237
12591TIP3    H237731   6.605   3.579   3.231
12592TIP3   OH237732   2.525   0.955   1.649
12592TIP3    H137733   2.586   0.931   1.579
12592TIP3    H237734   2.439   0.935   1.613
12593TIP3   OH237735   6.504   6.623   6.037
12593TIP3    H137736   6.498   6.538   6.079
12593TIP3    H237737   6.428   6.628   5.979
12594TIP3   OH237738   0.682   6.028   0.393
12594TIP3    H137739   0.640   6.076   0.322
12594TIP3    H237740   0.764   5.997   0.356
12595TIP3   OH237741   1.589   1.354   0.885
12595TIP3    H137742   1.638   1.358   0.803
12595TIP3    H237743   1.598   1.263   0.914
12596TIP3   OH237744   3.503   5.854   6.077
12596TIP3    H137745   3.514   5.948   6.064
12596TIP3    H237746   3.583   5.826   6.123
12597TIP3   OH237747   7.517   5.053   3.566
12597TIP3    H137748   7.560   4.972   3.541
12597TIP3    H237749   7.585   5.106   3.607
12598TIP3   OH237750   6.205   7.580   5.482
12598TIP3    H137751   6.231   7.629   5.404
12598TIP3    H237752   6.178   7.647   5.544
12599TIP3   OH237753   7.671   0.278   2.221
12599TIP3    H137754   7.723   0.269   2.141
12599TIP3    H237755   7.601   0.338   2.197
12600TIP3   OH237756   4.839   7.447   3.077
12600TIP3    H137757   4.758   7.451   3.025
12600TIP3    H237758   4.905   7.489   3.023
12601TIP3   OH237759   7.953   0.550   3.741
12601TIP3    H137760   7.944   0.483   3.673
12601TIP3    H237761   7.876   0.605   3.732
12602TIP3   OH237762   1.509   3.335   4.008
12602TIP3    H137763   1.573   3.316   3.939
12602TIP3    H237764   1.558   3.322   4.090
12603TIP3   OH237765   1.039   6.522   0.549
12603TIP3    H137766   1.009   6.436   0.519
12603TIP3    H237767   0.959   6.566   0.577
12604TIP3   OH237768   1.509   1.303   4.946
12604TIP3    H137769   1.592   1.305   4.898
12604TIP3    H237770   1.444   1.335   4.882
12605TIP3   OH237771   4.595   5.558   5.705
12605TIP3    H137772   4.510   5.526   5.735
12605TIP3    H237773   4.630   5.487   5.651
12606TIP3   OH237774   0.845   0.092   3.504
12606TIP3    H137775   0.828  -0.001   3.522
12606TIP3    H237776   0.763   0.136   3.527
12607TIP3   OH237777   2.197   6.227   1.712
12607TIP3    H137778   2.155   6.183   1.638
12607TIP3    H237779   2.143   6.202   1.787
12608TIP3   OH237780   7.999   4.974   5.577
12608TIP3    H137781   8.040   4.960   5.662
12608TIP3    H237782   7.906   4.981   5.596
12609TIP3   OH237783   2.721   4.189   1.287
12609TIP3    H137784   2.683   4.265   1.245
12609TIP3    H237785   2.647   4.131   1.304
12610TIP3   OH237786   3.295   6.881   0.132
12610TIP3    H137787   3.228   6.928   0.181
12610TIP3    H237788   3.374   6.889   0.186
12611TIP3   OH237789   6.916   6.416   2.912
12611TIP3    H137790   6.882   6.407   2.823
12611TIP3    H237791   6.838   6.420   2.967
12612TIP3   OH237792   3.473   6.364   3.624
12612TIP3    H137793   3.436   6.449   3.647
12612TIP3    H237794   3.538   6.383   3.557
12613TIP3   OH237795   0.495   4.467   5.326
12613TIP3    H137796   0.535   4.554   5.338
12613TIP3    H237797   0.492   4.455   5.231
12614TIP3   OH237798   4.282   2.637   5.818
12614TIP3    H137799   4.248   2.552   5.791
12614TIP3    H237800   4.217   2.670   5.881
12615TIP3   OH237801   1.613   7.577   3.423
12615TIP3    H137802   1.597   7.659   3.470
12615TIP3    H237803   1.545   7.576   3.355
12616TIP3   OH237804   3.156   6.802   0.749
12616TIP3    H137805   3.084   6.800   0.686
12616TIP3    H237806   3.226   6.850   0.704
12617TIP3   OH237807   5.976   6.759   1.583
12617TIP3    H137808   6.050   6.812   1.555
12617TIP3    H237809   6.014   6.673   1.603
12618TIP3   OH237810   5.551   5.276   5.136
12618TIP3    H137811   5.520   5.213   5.071
12618TIP3    H237812   5.475   5.332   5.153
12619TIP3   OH237813   5.581   3.000   3.696
12619TIP3    H137814   5.659   3.041   3.734
12619TIP3    H237815   5.577   3.034   3.606
12620TIP3   OH237816   4.663   1.815   2.333
12620TIP3    H137817   4.643   1.905   2.307
12620TIP3    H237818   4.703   1.824   2.420
12621TIP3   OH237819   4.815   3.619   6.760
12621TIP3    H137820   4.842   3.527   6.766
12621TIP3    H237821   4.895   3.667   6.742
12622TIP3   OH237822   1.264   3.212   4.066
12622TIP3    H137823   1.332   3.274   4.039
12622TIP3    H237824   1.299   3.173   4.146
12623TIP3   OH237825   3.449   7.432   4.447
12623TIP3    H137826   3.414   7.417   4.360
12623TIP3    H237827   3.442   7.527   4.459
12624TIP3   OH237828   1.827   6.181   2.337
12624TIP3    H137829   1.827   6.255   2.276
12624TIP3    H237830   1.739   6.145   2.330
12625TIP3   OH237831   7.038   5.242   5.755
12625TIP3    H137832   7.113   5.290   5.721
12625TIP3    H237833   7.077   5.167   5.800
12626TIP3   OH237834   5.211   2.217   5.329
12626TIP3    H137835   5.212   2.184   5.239
12626TIP3    H237836   5.278   2.286   5.330
12627TIP3   OH237837   3.718   7.602   0.136
12627TIP3    H137838   3.804   7.617   0.176
12627TIP3    H237839   3.663   7.672   0.171
12628TIP3   OH237840   7.178   0.785   4.634
12628TIP3    H137841   7.172   0.868   4.586
12628TIP3    H237842   7.095   0.778   4.681
12629TIP3   OH237843   3.385   1.790   3.983
12629TIP3    H137844   3.458   1.742   3.945
12629TIP3    H237845   3.388   1.876   3.942
12630TIP3   OH237846   8.003   6.308   2.140
12630TIP3    H137847   7.961   6.338   2.059
12630TIP3    H237848   8.095   6.331   2.129
12631TIP3   OH237849   4.934   3.233   5.712
12631TIP3    H137850   4.971   3.214   5.798
12631TIP3    H237851   4.862   3.170   5.702
12632TIP3   OH237852   2.470   7.171   3.017
12632TIP3    H137853   2.523   7.181   2.937
12632TIP3    H237854   2.385   7.211   2.994
12633TIP3   OH237855   1.717   7.524   1.780
12633TIP3    H137856   1.794   7.579   1.771
12633TIP3    H237857   1.731   7.453   1.718
12634TIP3   OH237858   2.011   7.219   6.529
12634TIP3    H137859   1.987   7.267   6.608
12634TIP3    H237860   2.019   7.128   6.558
12635TIP3   OH237861   8.260   7.332   3.071
12635TIP3    H137862   8.256   7.240   3.047
12635TIP3    H237863   8.230   7.335   3.162
12636TIP3   OH237864   5.039   1.615   3.941
12636TIP3    H137865   4.978   1.545   3.918
12636TIP3    H237866   4.987   1.695   3.933
12637TIP3   OH237867   3.966   5.497  -0.008
12637TIP3    H137868   3.961   5.541   0.077
12637TIP3    H237869   3.897   5.430  -0.004
12638TIP3   OH237870   2.192   5.738   0.471
12638TIP3    H137871   2.205   5.703   0.559
12638TIP3    H237872   2.185   5.661   0.415
12639TIP3   OH237873   3.791   1.675   4.030
12639TIP3    H137874   3.718   1.639   3.980
12639TIP3    H237875   3.835   1.734   3.969
12640TIP3   OH237876   4.521   6.469   0.547
12640TIP3    H137877   4.536   6.389   0.497
12640TIP3    H237878   4.578   6.461   0.623
12641TIP3   OH237879   6.102   3.682   1.452
12641TIP3    H137880   6.179   3.730   1.423
12641TIP3    H237881   6.117   3.667   1.546
12642TIP3   OH237882   7.577   0.219   1.331
12642TIP3    H137883   7.535   0.264   1.257
12642TIP3    H237884   7.622   0.144   1.292
12643TIP3   OH237885   0.580   3.917   2.361
12643TIP3    H137886   0.554   3.994   2.412
12643TIP3    H237887   0.648   3.949   2.302
12644TIP3   OH237888   4.148   4.122   0.272
12644TIP3    H137889   4.124   4.205   0.312
12644TIP3    H237890   4.135   4.057   0.342
12645TIP3   OH237891   7.175   5.428   3.108
12645TIP3    H137892   7.084   5.444   3.133
12645TIP3    H237893   7.189   5.335   3.124
12646TIP3   OH237894   7.764   7.035   6.263
12646TIP3    H137895   7.695   7.072   6.208
12646TIP3    H237896   7.771   7.094   6.337
12647TIP3   OH237897   4.687   6.984   6.763
12647TIP3    H137898   4.670   7.060   6.707
12647TIP3    H237899   4.782   6.982   6.772
12648TIP3   OH237900   1.446   7.086   5.284
12648TIP3    H137901   1.471   7.164   5.334
12648TIP3    H237902   1.528   7.054   5.246
12649TIP3   OH237903   7.422   6.126   5.985
12649TIP3    H137904   7.394   6.177   5.909
12649TIP3    H237905   7.356   6.145   6.052
12650TIP3   OH237906   2.493   1.535   3.320
12650TIP3    H137907   2.508   1.458   3.265
12650TIP3    H237908   2.512   1.610   3.263
12651TIP3   OH237909   0.138   0.679   5.265
12651TIP3    H137910   0.142   0.769   5.295
12651TIP3    H237911   0.145   0.685   5.170
12652TIP3   OH237912   4.419   5.909   3.867
12652TIP3    H137913   4.423   5.962   3.947
12652TIP3    H237914   4.336   5.933   3.827
12653TIP3   OH237915   4.283   0.258   2.602
12653TIP3    H137916   4.337   0.205   2.661
12653TIP3    H237917   4.341   0.328   2.573
12654TIP3   OH237918   3.710   2.061   3.698
12654TIP3    H137919   3.723   2.059   3.793
12654TIP3    H237920   3.636   2.003   3.682
12655TIP3   OH237921   4.712   7.323   1.661
12655TIP3    H137922   4.657   7.399   1.644
12655TIP3    H237923   4.776   7.324   1.590
12656TIP3   OH237924   6.357   3.623   2.489
12656TIP3    H137925   6.409   3.642   2.410
12656TIP3    H237926   6.422   3.600   2.555
12657TIP3   OH237927   4.079   5.545   3.331
12657TIP3    H137928   4.141   5.512   3.266
12657TIP3    H237929   3.996   5.502   3.309
12658TIP3   OH237930   6.192   2.772   6.042
12658TIP3    H137931   6.217   2.697   6.096
12658TIP3    H237932   6.097   2.779   6.052
12659TIP3   OH237933   5.165   2.053   3.273
12659TIP3    H137934   5.130   2.062   3.362
12659TIP3    H237935   5.101   2.100   3.218
12660TIP3   OH237936   0.028   1.683   6.253
12660TIP3    H137937   0.109   1.721   6.218
12660TIP3    H237938   0.017   1.602   6.204
12661TIP3   OH237939   7.438   4.751   1.814
12661TIP3    H137940   7.433   4.731   1.721
12661TIP3    H237941   7.362   4.707   1.852
12662TIP3   OH237942   5.762   6.365   1.885
12662TIP3    H137943   5.743   6.395   1.796
12662TIP3    H237944   5.744   6.441   1.940
12663TIP3   OH237945   4.839   2.135   2.241
12663TIP3    H137946   4.816   2.223   2.212
12663TIP3    H237947   4.819   2.080   2.165
12664TIP3   OH237948   4.890   4.285   0.830
12664TIP3    H137949   4.909   4.371   0.867
12664TIP3    H237950   4.934   4.285   0.745
12665TIP3   OH237951   4.680   5.199   3.032
12665TIP3    H137952   4.704   5.113   3.066
12665TIP3    H237953   4.594   5.186   2.992
12666TIP3   OH237954   0.915  -0.006   5.063
12666TIP3    H137955   0.833   0.024   5.024
12666TIP3    H237956   0.948   0.070   5.111
12667TIP3   OH237957   3.990   6.893   2.304
12667TIP3    H137958   3.985   6.945   2.224
12667TIP3    H237959   3.953   6.808   2.280
12668TIP3   OH237960   7.499   7.086   0.806
12668TIP3    H137961   7.427   7.024   0.795
12668TIP3    H237962   7.469   7.165   0.761
12669TIP3   OH237963   6.796   5.095   1.022
12669TIP3    H137964   6.716   5.045   1.034
12669TIP3    H237965   6.808   5.100   0.927
12670TIP3   OH237966   7.910   0.596   6.036
12670TIP3    H137967   7.932   0.504   6.054
12670TIP3    H237968   7.815   0.595   6.021
12671TIP3   OH237969   6.383   6.132   5.643
12671TIP3    H137970   6.335   6.065   5.593
12671TIP3    H237971   6.466   6.090   5.666
12672TIP3   OH237972   5.424   1.427   6.560
12672TIP3    H137973   5.449   1.517   6.542
12672TIP3    H237974   5.393   1.428   6.651
12673TIP3   OH237975   0.848   3.313   2.204
12673TIP3    H137976   0.795   3.250   2.155
12673TIP3    H237977   0.901   3.259   2.263
12674TIP3   OH237978   1.194   7.286   1.701
12674TIP3    H137979   1.153   7.327   1.777
12674TIP3    H237980   1.182   7.350   1.630
12675TIP3   OH237981   1.167   0.884   1.298
12675TIP3    H137982   1.193   0.863   1.208
12675TIP3    H237983   1.244   0.929   1.335
12676TIP3   OH237984   3.838   4.641   1.884
12676TIP3    H137985   3.898   4.613   1.815
12676TIP3    H237986   3.769   4.689   1.837
12677TIP3   OH237987   6.163   2.660   1.095
12677TIP3    H137988   6.133   2.603   1.024
12677TIP3    H237989   6.243   2.618   1.127
12678TIP3   OH237990   2.846   0.764   3.008
12678TIP3    H137991   2.883   0.837   3.058
12678TIP3    H237992   2.821   0.700   3.074
12679TIP3   OH237993   3.263   7.672   0.428
12679TIP3    H137994   3.300   7.594   0.386
12679TIP3    H237995   3.328   7.740   0.412
12680TIP3   OH237996   6.095   2.049   1.951
12680TIP3    H137997   6.030   2.030   2.019
12680TIP3    H237998   6.086   2.143   1.936
12681TIP3   OH237999   2.866   0.383   0.811
12681TIP3    H138000   2.817   0.458   0.777
12681TIP3    H238001   2.883   0.406   0.902
12682TIP3   OH238002   7.681   4.442   5.029
12682TIP3    H138003   7.767   4.406   5.049
12682TIP3    H238004   7.683   4.531   5.064
12683TIP3   OH238005   2.951   7.224   1.156
12683TIP3    H138006   2.976   7.207   1.066
12683TIP3    H238007   2.867   7.179   1.167
12684TIP3   OH238008   3.813   7.207   0.487
12684TIP3    H138009   3.895   7.254   0.471
12684TIP3    H238010   3.825   7.169   0.574
12685TIP3   OH238011   4.120   1.908   4.535
12685TIP3    H138012   4.063   1.903   4.612
12685TIP3    H238013   4.071   1.863   4.466
12686TIP3   OH238014   7.667   4.902   1.263
12686TIP3    H138015   7.629   4.920   1.349
12686TIP3    H238016   7.601   4.849   1.219
12687TIP3   OH238017   2.597   6.960   4.916
12687TIP3    H138018   2.655   6.897   4.874
12687TIP3    H238019   2.518   6.960   4.863
12688TIP3   OH238020   2.442   2.090   4.721
12688TIP3    H138021   2.385   2.074   4.796
12688TIP3    H238022   2.530   2.073   4.753
12689TIP3   OH238023   0.963   2.574   5.997
12689TIP3    H138024   0.973   2.614   6.083
12689TIP3    H238025   0.910   2.636   5.947
12690TIP3   OH238026   3.151   6.967   1.041
12690TIP3    H138027   3.123   7.014   0.962
12690TIP3    H238028   3.203   6.894   1.009
12691TIP3   OH238029   1.007   2.658   6.525
12691TIP3    H138030   1.006   2.731   6.586
12691TIP3    H238031   1.091   2.615   6.538
12692TIP3   OH238032   1.331   3.072   5.609
12692TIP3    H138033   1.321   3.141   5.675
12692TIP3    H238034   1.424   3.050   5.612
12693TIP3   OH238035   2.495   6.605   1.698
12693TIP3    H138036   2.580   6.605   1.741
12693TIP3    H238037   2.444   6.539   1.746
12694TIP3   OH238038   2.041   1.271   5.468
12694TIP3    H138039   2.087   1.195   5.503
12694TIP3    H238040   2.069   1.344   5.524
12695TIP3   OH238041   5.243   4.211   1.381
12695TIP3    H138042   5.187   4.175   1.312
12695TIP3    H238043   5.183   4.260   1.438
12696TIP3   OH238044   8.293   5.285   5.199
12696TIP3    H138045   8.289   5.284   5.104
12696TIP3    H238046   8.245   5.364   5.224
12697TIP3   OH238047   6.888   6.740   2.131
12697TIP3    H138048   6.875   6.646   2.148
12697TIP3    H238049   6.951   6.743   2.060
12698TIP3   OH238050   0.542   3.070   2.890
12698TIP3    H138051   0.551   2.984   2.848
12698TIP3    H238052   0.541   3.132   2.818
12699TIP3   OH238053   3.174   1.822   3.048
12699TIP3    H138054   3.229   1.896   3.025
12699TIP3    H238055   3.212   1.748   3.001
12700TIP3   OH238056   1.126   4.636   3.854
12700TIP3    H138057   1.185   4.705   3.885
12700TIP3    H238058   1.069   4.679   3.791
12701TIP3   OH238059   2.682   2.785   2.894
12701TIP3    H138060   2.699   2.699   2.856
12701TIP3    H238061   2.589   2.781   2.920
12702TIP3   OH238062   2.121   2.224   2.573
12702TIP3    H138063   2.215   2.232   2.556
12702TIP3    H238064   2.080   2.237   2.487
12703TIP3   OH238065   5.950   4.626   0.947
12703TIP3    H138066   5.915   4.628   0.858
12703TIP3    H238067   5.896   4.561   0.992
12704TIP3   OH238068   0.791   2.514   6.485
12704TIP3    H138069   0.877   2.546   6.515
12704TIP3    H238070   0.742   2.593   6.463
12705TIP3   OH238071   3.220   3.560   4.419
12705TIP3    H138072   3.254   3.649   4.425
12705TIP3    H238073   3.257   3.515   4.495
12706TIP3   OH238074   3.838   4.452   4.939
12706TIP3    H138075   3.790   4.499   5.007
12706TIP3    H238076   3.912   4.412   4.984
12707TIP3   OH238077   3.214   7.559   3.843
12707TIP3    H138078   3.122   7.574   3.822
12707TIP3    H238079   3.238   7.482   3.790
12708TIP3   OH238080   6.869   4.097   4.322
12708TIP3    H138081   6.787   4.059   4.353
12708TIP3    H238082   6.913   4.025   4.278
12709TIP3   OH238083   3.939   4.021   5.784
12709TIP3    H138084   3.889   3.981   5.855
12709TIP3    H238085   3.915   3.971   5.706
12710TIP3   OH238086   4.904   6.720   0.901
12710TIP3    H138087   4.943   6.736   0.987
12710TIP3    H238088   4.810   6.737   0.913
12711TIP3   OH238089   6.139   7.581   4.802
12711TIP3    H138090   6.052   7.550   4.826
12711TIP3    H238091   6.196   7.545   4.870
12712TIP3   OH238092   4.576   4.689   3.198
12712TIP3    H138093   4.509   4.643   3.147
12712TIP3    H238094   4.546   4.681   3.289
12713TIP3   OH238095   3.475   0.267   1.612
12713TIP3    H138096   3.502   0.278   1.521
12713TIP3    H238097   3.479   0.173   1.627
12714TIP3   OH238098   1.334   5.071   5.512
12714TIP3    H138099   1.386   5.082   5.432
12714TIP3    H238100   1.373   5.133   5.574
12715TIP3   OH238101   7.896   5.093   0.167
12715TIP3    H138102   7.811   5.092   0.123
12715TIP3    H238103   7.892   5.170   0.223
12716TIP3   OH238104   7.070   5.230   0.366
12716TIP3    H138105   7.131   5.294   0.404
12716TIP3    H238106   7.114   5.199   0.287
12717TIP3   OH238107   5.650   3.152   1.596
12717TIP3    H138108   5.577   3.212   1.613
12717TIP3    H238109   5.685   3.130   1.682
12718TIP3   OH238110   6.942   7.565   6.487
12718TIP3    H138111   6.928   7.632   6.553
12718TIP3    H238112   6.946   7.613   6.404
12719TIP3   OH238113   8.237   7.067   4.059
12719TIP3    H138114   8.277   7.124   3.992
12719TIP3    H238115   8.277   6.981   4.044
12720TIP3   OH238116   6.862   4.088   4.702
12720TIP3    H138117   6.845   4.166   4.649
12720TIP3    H238118   6.931   4.116   4.763
12721TIP3   OH238119   2.756   6.436   4.253
12721TIP3    H138120   2.677   6.446   4.200
12721TIP3    H238121   2.805   6.366   4.211
12722TIP3   OH238122   7.177   6.229   5.592
12722TIP3    H138123   7.129   6.196   5.668
12722TIP3    H238124   7.118   6.292   5.552
12723TIP3   OH238125   4.008   1.366   5.026
12723TIP3    H138126   4.021   1.334   5.115
12723TIP3    H238127   3.939   1.433   5.034
12724TIP3   OH238128   6.141   1.582   2.333
12724TIP3    H138129   6.062   1.588   2.386
12724TIP3    H238130   6.137   1.658   2.275
12725TIP3   OH238131   7.150   7.377   6.274
12725TIP3    H138132   7.106   7.383   6.189
12725TIP3    H238133   7.141   7.286   6.300
12726TIP3   OH238134   3.437   1.368   1.282
12726TIP3    H138135   3.451   1.440   1.221
12726TIP3    H238136   3.379   1.308   1.236
12727TIP3   OH238137   2.581   5.746   5.209
12727TIP3    H138138   2.626   5.798   5.276
12727TIP3    H238139   2.529   5.809   5.161
12728TIP3   OH238140   3.994   6.018   1.532
12728TIP3    H138141   4.030   5.957   1.468
12728TIP3    H238142   4.055   6.092   1.533
12729TIP3   OH238143   0.257   0.898   2.039
12729TIP3    H138144   0.331   0.959   2.046
12729TIP3    H238145   0.253   0.877   1.946
12730TIP3   OH238146   2.655   3.795   6.758
12730TIP3    H138147   2.592   3.850   6.711
12730TIP3    H238148   2.705   3.752   6.688
12731TIP3   OH238149   4.741   6.012   6.433
12731TIP3    H138150   4.706   6.041   6.517
12731TIP3    H238151   4.698   5.928   6.416
12732TIP3   OH238152   1.799   7.039   0.005
12732TIP3    H138153   1.821   7.066   0.094
12732TIP3    H238154   1.790   7.121  -0.044
12733TIP3   OH238155   1.464   6.178   1.843
12733TIP3    H138156   1.463   6.107   1.908
12733TIP3    H238157   1.548   6.221   1.856
12734TIP3   OH238158   4.966   3.605   4.465
12734TIP3    H138159   5.038   3.659   4.433
12734TIP3    H238160   4.988   3.586   4.556
12735TIP3   OH238161   6.029   6.569   3.058
12735TIP3    H138162   5.952   6.553   3.003
12735TIP3    H238163   6.043   6.488   3.105
12736TIP3   OH238164   5.580   5.149   1.028
12736TIP3    H138165   5.540   5.205   1.094
12736TIP3    H238166   5.662   5.120   1.067
12737TIP3   OH238167   0.922   7.322   6.125
12737TIP3    H138168   0.938   7.415   6.143
12737TIP3    H238169   0.827   7.313   6.129
12738TIP3   OH238170   1.775   7.523   3.041
12738TIP3    H138171   1.846   7.481   3.089
12738TIP3    H238172   1.805   7.527   2.951
12739TIP3   OH238173   7.343   6.613   0.992
12739TIP3    H138174   7.387   6.678   1.047
12739TIP3    H238175   7.251   6.642   0.990
12740TIP3   OH238176   4.980   5.404   3.714
12740TIP3    H138177   4.949   5.349   3.642
12740TIP3    H238178   5.075   5.390   3.716
12741TIP3   OH238179   7.415   4.078   1.410
12741TIP3    H138180   7.432   4.035   1.326
12741TIP3    H238181   7.498   4.117   1.435
12742TIP3   OH238182   5.910   5.096   4.522
12742TIP3    H138183   5.827   5.049   4.536
12742TIP3    H238184   5.949   5.054   4.446
12743TIP3   OH238185   0.653   5.703   4.650
12743TIP3    H138186   0.615   5.650   4.721
12743TIP3    H238187   0.741   5.723   4.681
12744TIP3   OH238188   1.951   5.606   1.565
12744TIP3    H138189   1.897   5.585   1.641
12744TIP3    H238190   2.025   5.545   1.570
12745TIP3   OH238191   5.962   3.586   0.165
12745TIP3    H138192   5.880   3.537   0.170
12745TIP3    H238193   5.934   3.678   0.160
12746TIP3   OH238194   7.939   6.136   4.236
12746TIP3    H138195   7.951   6.211   4.177
12746TIP3    H238196   8.023   6.091   4.235
12747TIP3   OH238197   0.022   6.132   1.086
12747TIP3    H138198   0.109   6.152   1.119
12747TIP3    H238199  -0.037   6.154   1.159
12748TIP3   OH238200   3.956   6.664   1.141
12748TIP3    H138201   4.014   6.634   1.070
12748TIP3    H238202   4.008   6.730   1.187
12749TIP3   OH238203   3.053   5.307   4.743
12749TIP3    H138204   3.029   5.216   4.726
12749TIP3    H238205   3.080   5.308   4.835
12750TIP3   OH238206   4.729   7.267   5.560
12750TIP3    H138207   4.699   7.203   5.625
12750TIP3    H238208   4.661   7.266   5.492
12751TIP3   OH238209   7.583   7.776   1.597
12751TIP3    H138210   7.609   7.783   1.505
12751TIP3    H238211   7.634   7.844   1.642
12752TIP3   OH238212   1.434   1.765   2.002
12752TIP3    H138213   1.422   1.733   1.912
12752TIP3    H238214   1.350   1.805   2.024
12753TIP3   OH238215   5.825   5.538   3.075
12753TIP3    H138216   5.732   5.560   3.080
12753TIP3    H238217   5.869   5.610   3.121
12754TIP3   OH238218   1.110   5.707   5.833
12754TIP3    H138219   1.068   5.626   5.805
12754TIP3    H238220   1.087   5.715   5.926
12755TIP3   OH238221   4.971   0.493   6.617
12755TIP3    H138222   4.980   0.415   6.563
12755TIP3    H238223   5.038   0.483   6.685
12756TIP3   OH238224   5.782   4.050   3.539
12756TIP3    H138225   5.864   4.042   3.586
12756TIP3    H238226   5.721   4.088   3.603
12757TIP3   OH238227   2.204   1.324   0.660
12757TIP3    H138228   2.148   1.383   0.711
12757TIP3    H238229   2.237   1.378   0.588
12758TIP3   OH238230   0.057   5.274   1.415
12758TIP3    H138231  -0.022   5.321   1.441
12758TIP3    H238232   0.043   5.184   1.446
12759TIP3   OH238233   5.615   3.158   5.344
12759TIP3    H138234   5.701   3.126   5.371
12759TIP3    H238235   5.624   3.175   5.251
12760TIP3   OH238236   3.900   3.499   0.809
12760TIP3    H138237   3.827   3.501   0.747
12760TIP3    H238238   3.942   3.585   0.800
12761TIP3   OH238239   4.230   7.649   0.329
12761TIP3    H138240   4.278   7.636   0.247
12761TIP3    H238241   4.284   7.711   0.378
12762TIP3   OH238242   2.352   3.827   3.045
12762TIP3    H138243   2.342   3.889   2.974
12762TIP3    H238244   2.425   3.860   3.097
12763TIP3   OH238245   0.482   0.344   4.017
12763TIP3    H138246   0.543   0.275   3.989
12763TIP3    H238247   0.398   0.299   4.023
12764TIP3   OH238248   5.922   5.518   2.156
12764TIP3    H138249   5.874   5.502   2.238
12764TIP3    H238250   5.893   5.448   2.098
12765TIP3   OH238251   7.395   0.126   3.331
12765TIP3    H138252   7.380   0.195   3.396
12765TIP3    H238253   7.309   0.111   3.292
12766TIP3   OH238254   3.078   5.821   5.750
12766TIP3    H138255   3.049   5.881   5.681
12766TIP3    H238256   3.172   5.834   5.756
12767TIP3   OH238257   6.184   4.183   2.294
12767TIP3    H138258   6.184   4.262   2.350
12767TIP3    H238259   6.091   4.167   2.277
12768TIP3   OH238260   0.357   7.811   6.412
12768TIP3    H138261   0.292   7.769   6.356
12768TIP3    H238262   0.370   7.750   6.484
12769TIP3   OH238263   7.357   4.662   0.130
12769TIP3    H138264   7.306   4.743   0.133
12769TIP3    H238265   7.294   4.593   0.153
12770TIP3   OH238266   2.980   6.000   3.072
12770TIP3    H138267   3.043   6.002   3.144
12770TIP3    H238268   3.032   5.975   2.996
12771TIP3   OH238269   6.017   5.896   2.776
12771TIP3    H138270   5.998   5.912   2.869
12771TIP3    H238271   6.112   5.891   2.772
12772TIP3   OH238272   3.620   5.569   4.571
12772TIP3    H138273   3.637   5.493   4.625
12772TIP3    H238274   3.525   5.571   4.560
12773TIP3   OH238275   7.476   3.099   6.238
12773TIP3    H138276   7.409   3.121   6.173
12773TIP3    H238277   7.430   3.101   6.322
12774TIP3   OH238278   0.746   4.975   5.692
12774TIP3    H138279   0.758   5.008   5.781
12774TIP3    H238280   0.732   4.881   5.703
12775TIP3   OH238281   1.665   7.070   3.889
12775TIP3    H138282   1.592   7.103   3.836
12775TIP3    H238283   1.635   7.079   3.980
12776TIP3   OH238284   7.768   6.861   6.537
12776TIP3    H138285   7.801   6.874   6.626
12776TIP3    H238286   7.784   6.768   6.519
12777TIP3   OH238287   3.235   5.172   4.528
12777TIP3    H138288   3.258   5.088   4.490
12777TIP3    H238289   3.218   5.229   4.453
12778TIP3   OH238290   4.437   6.153   6.359
12778TIP3    H138291   4.502   6.221   6.340
12778TIP3    H238292   4.417   6.163   6.452
12779TIP3   OH238293   2.141   7.648   3.248
12779TIP3    H138294   2.055   7.625   3.284
12779TIP3    H238295   2.136   7.625   3.156
12780TIP3   OH238296   5.443   4.587   6.601
12780TIP3    H138297   5.412   4.621   6.517
12780TIP3    H238298   5.480   4.664   6.645
12781TIP3   OH238299   5.807   4.670   6.670
12781TIP3    H138300   5.747   4.704   6.604
12781TIP3    H238301   5.876   4.627   6.619
12782TIP3   OH238302   5.486   1.767   6.195
12782TIP3    H138303   5.417   1.709   6.165
12782TIP3    H238304   5.479   1.844   6.139
12783TIP3   OH238305   1.519   1.588   2.218
12783TIP3    H138306   1.499   1.502   2.180
12783TIP3    H238307   1.495   1.650   2.149
12784TIP3   OH238308   2.123   2.471   3.664
12784TIP3    H138309   2.038   2.427   3.671
12784TIP3    H238310   2.160   2.438   3.582
12785TIP3   OH238311   2.419   0.867   0.108
12785TIP3    H138312   2.494   0.824   0.068
12785TIP3    H238313   2.345   0.809   0.090
12786TIP3   OH238314   5.254   6.540   5.918
12786TIP3    H138315   5.256   6.636   5.908
12786TIP3    H238316   5.173   6.523   5.967
12787TIP3   OH238317   3.665   6.558   4.374
12787TIP3    H138318   3.664   6.462   4.378
12787TIP3    H238319   3.575   6.581   4.348
12788TIP3   OH238320   4.978   1.237   3.001
12788TIP3    H138321   4.999   1.327   2.977
12788TIP3    H238322   4.993   1.187   2.921
12789TIP3   OH238323   5.870   6.769   3.572
12789TIP3    H138324   5.882   6.699   3.637
12789TIP3    H238325   5.845   6.845   3.624
12790TIP3   OH238326   4.080   4.895   6.580
12790TIP3    H138327   4.035   4.844   6.647
12790TIP3    H238328   4.138   4.953   6.629
12791TIP3   OH238329   5.008   0.862   3.778
12791TIP3    H138330   5.017   0.934   3.716
12791TIP3    H238331   5.039   0.785   3.731
12792TIP3   OH238332   1.422   6.771   0.031
12792TIP3    H138333   1.421   6.682   0.067
12792TIP3    H238334   1.331   6.799   0.033
12793TIP3   OH238335   3.051   6.629   5.270
12793TIP3    H138336   3.106   6.553   5.248
12793TIP3    H238337   2.973   6.591   5.311
12794TIP3   OH238338   5.399   4.299   1.734
12794TIP3    H138339   5.321   4.266   1.690
12794TIP3    H238340   5.393   4.264   1.823
12795TIP3   OH238341   0.620   1.069   6.165
12795TIP3    H138342   0.543   1.011   6.164
12795TIP3    H238343   0.692   1.013   6.137
12796TIP3   OH238344   5.747   2.495   0.941
12796TIP3    H138345   5.794   2.558   0.886
12796TIP3    H238346   5.665   2.480   0.895
12797TIP3   OH238347   6.182   1.170   6.237
12797TIP3    H138348   6.269   1.154   6.274
12797TIP3    H238349   6.165   1.094   6.181
12798TIP3   OH238350   6.335   4.166   3.758
12798TIP3    H138351   6.416   4.156   3.708
12798TIP3    H238352   6.300   4.250   3.728
12799TIP3   OH238353   4.795   3.989   1.092
12799TIP3    H138354   4.809   3.960   1.182
12799TIP3    H238355   4.700   3.982   1.078
12800TIP3   OH238356   5.832   4.196   3.091
12800TIP3    H138357   5.919   4.157   3.089
12800TIP3    H238358   5.774   4.127   3.059
12801TIP3   OH238359   3.359   3.887   1.593
12801TIP3    H138360   3.294   3.903   1.525
12801TIP3    H238361   3.409   3.812   1.562
12802TIP3   OH238362   4.676   0.695   3.232
12802TIP3    H138363   4.733   0.622   3.211
12802TIP3    H238364   4.718   0.739   3.305
12803TIP3   OH238365   6.036   4.977   3.410
12803TIP3    H138366   6.080   5.018   3.336
12803TIP3    H238367   6.055   4.884   3.401
12804TIP3   OH238368   5.876   0.525   0.756
12804TIP3    H138369   5.938   0.579   0.707
12804TIP3    H238370   5.791   0.566   0.742
12805TIP3   OH238371   0.145   0.352   0.950
12805TIP3    H138372   0.196   0.272   0.955
12805TIP3    H238373   0.060   0.329   0.987
12806TIP3   OH238374   4.424   1.774   1.152
12806TIP3    H138375   4.345   1.783   1.099
12806TIP3    H238376   4.406   1.702   1.211
12807TIP3   OH238377   2.285   7.559   0.817
12807TIP3    H138378   2.317   7.648   0.803
12807TIP3    H238379   2.266   7.554   0.910
12808TIP3   OH238380   7.471   3.914   4.094
12808TIP3    H138381   7.528   3.991   4.098
12808TIP3    H238382   7.490   3.865   4.174
12809TIP3   OH238383   6.429   4.471   3.307
12809TIP3    H138384   6.507   4.419   3.325
12809TIP3    H238385   6.362   4.407   3.283
12810TIP3   OH238386   7.187   4.147   5.142
12810TIP3    H138387   7.146   4.229   5.169
12810TIP3    H238388   7.280   4.168   5.135
12811TIP3   OH238389   5.696   7.191   5.642
12811TIP3    H138390   5.689   7.208   5.548
12811TIP3    H238391   5.704   7.278   5.682
12812TIP3   OH238392   4.669   1.015   4.093
12812TIP3    H138393   4.731   1.041   4.161
12812TIP3    H238394   4.710   0.939   4.051
12813TIP3   OH238395   6.694   2.971   6.337
12813TIP3    H138396   6.778   2.928   6.353
12813TIP3    H238397   6.654   2.919   6.267
12814TIP3   OH238398   8.164   4.452   1.983
12814TIP3    H138399   8.228   4.516   1.952
12814TIP3    H238400   8.147   4.396   1.907
12815TIP3   OH238401   8.019   0.638   4.652
12815TIP3    H138402   8.022   0.719   4.601
12815TIP3    H238403   7.936   0.597   4.628
12816TIP3   OH238404   1.705   6.227   4.152
12816TIP3    H138405   1.689   6.145   4.105
12816TIP3    H238406   1.664   6.215   4.237
12817TIP3   OH238407   6.127   7.182   4.339
12817TIP3    H138408   6.154   7.228   4.418
12817TIP3    H238409   6.189   7.109   4.331
12818TIP3   OH238410   2.382   6.530   1.452
12818TIP3    H138411   2.428   6.586   1.389
12818TIP3    H238412   2.429   6.543   1.534
12819TIP3   OH238413   6.299   5.879   2.668
12819TIP3    H138414   6.325   5.814   2.603
12819TIP3    H238415   6.323   5.963   2.629
12820TIP3   OH238416   5.042   2.247   3.760
12820TIP3    H138417   5.023   2.337   3.787
12820TIP3    H238418   5.036   2.196   3.841
12821TIP3   OH238419   6.562   7.654   4.775
12821TIP3    H138420   6.636   7.601   4.744
12821TIP3    H238421   6.599   7.741   4.786
12822TIP3   OH238422   6.349   1.406   5.965
12822TIP3    H138423   6.267   1.366   5.937
12822TIP3    H238424   6.417   1.351   5.927
12823TIP3   OH238425   3.642   2.334   3.638
12823TIP3    H138426   3.696   2.275   3.691
12823TIP3    H238427   3.705   2.385   3.587
12824TIP3   OH238428   4.739   2.004   4.571
12824TIP3    H138429   4.680   2.073   4.542
12824TIP3    H238430   4.689   1.958   4.640
12825TIP3   OH238431   3.419   6.356   2.372
12825TIP3    H138432   3.366   6.376   2.449
12825TIP3    H238433   3.356   6.332   2.304
12826TIP3   OH238434   3.110   4.253   6.480
12826TIP3    H138435   3.140   4.295   6.560
12826TIP3    H238436   3.016   4.268   6.478
12827TIP3   OH238437   1.436   2.041   6.060
12827TIP3    H138438   1.345   2.038   6.029
12827TIP3    H238439   1.479   2.105   6.002
12828TIP3   OH238440   2.234   0.004   2.030
12828TIP3    H138441   2.163  -0.040   1.983
12828TIP3    H238442   2.190   0.051   2.101
12829TIP3   OH238443   1.318   4.270   4.738
12829TIP3    H138444   1.278   4.349   4.774
12829TIP3    H238445   1.332   4.290   4.645
12830TIP3   OH238446   2.436   3.019   4.376
12830TIP3    H138447   2.420   2.952   4.310
12830TIP3    H238448   2.497   2.978   4.438
12831TIP3   OH238449   0.395   4.275   4.287
12831TIP3    H138450   0.388   4.181   4.300
12831TIP3    H238451   0.464   4.286   4.222
12832TIP3   OH238452   5.932   4.423   2.947
12832TIP3    H138453   5.844   4.447   2.918
12832TIP3    H238454   5.917   4.352   3.010
12833TIP3   OH238455   2.285   4.176   3.013
12833TIP3    H138456   2.226   4.126   2.957
12833TIP3    H238457   2.370   4.135   3.001
12834TIP3   OH238458   3.677   1.257   0.011
12834TIP3    H138459   3.669   1.233   0.103
12834TIP3    H238460   3.696   1.175  -0.034
12835TIP3   OH238461   0.665   1.034   4.421
12835TIP3    H138462   0.660   1.095   4.494
12835TIP3    H238463   0.575   1.007   4.406
12836TIP3   OH238464   4.200   1.972   5.312
12836TIP3    H138465   4.290   1.950   5.288
12836TIP3    H238466   4.200   1.973   5.407
12837TIP3   OH238467   6.343   0.722   5.968
12837TIP3    H138468   6.428   0.752   5.999
12837TIP3    H238469   6.360   0.638   5.927
12838TIP3   OH238470   7.247   2.746   0.644
12838TIP3    H138471   7.254   2.805   0.719
12838TIP3    H238472   7.316   2.681   0.658
12839TIP3   OH238473   2.275   6.632   5.182
12839TIP3    H138474   2.257   6.667   5.095
12839TIP3    H238475   2.340   6.564   5.168
12840TIP3   OH238476   0.439   0.377   1.214
12840TIP3    H138477   0.402   0.461   1.186
12840TIP3    H238478   0.421   0.317   1.141
12841TIP3   OH238479   3.715   7.571   4.864
12841TIP3    H138480   3.655   7.498   4.882
12841TIP3    H238481   3.750   7.553   4.777
12842TIP3   OH238482   5.081   3.672   6.704
12842TIP3    H138483   5.153   3.661   6.641
12842TIP3    H238484   5.114   3.738   6.766
12843TIP3   OH238485   5.539   6.429   6.285
12843TIP3    H138486   5.484   6.351   6.292
12843TIP3    H238487   5.476   6.502   6.282
12844TIP3   OH238488   1.274   6.511   3.756
12844TIP3    H138489   1.247   6.598   3.726
12844TIP3    H238490   1.289   6.522   3.850
12845TIP3   OH238491   6.723   0.271   1.760
12845TIP3    H138492   6.640   0.227   1.741
12845TIP3    H238493   6.773   0.208   1.811
12846TIP3   OH238494   2.394   1.326   3.011
12846TIP3    H138495   2.376   1.418   3.025
12846TIP3    H238496   2.354   1.281   3.085
12847TIP3   OH238497   5.763   5.429   5.844
12847TIP3    H138498   5.821   5.402   5.773
12847TIP3    H238499   5.779   5.366   5.914
12848TIP3   OH238500   4.999   2.110   4.540
12848TIP3    H138501   4.994   2.098   4.445
12848TIP3    H238502   4.914   2.082   4.573
12849TIP3   OH238503   1.232   6.068   6.160
12849TIP3    H138504   1.236   6.070   6.064
12849TIP3    H238505   1.319   6.094   6.188
12850TIP3   OH238506   2.089   5.136   3.822
12850TIP3    H138507   2.166   5.092   3.859
12850TIP3    H238508   2.122   5.220   3.791
12851TIP3   OH238509   4.239   5.284   6.317
12851TIP3    H138510   4.293   5.338   6.375
12851TIP3    H238511   4.150   5.296   6.349
12852TIP3   OH238512   7.668   7.564   4.008
12852TIP3    H138513   7.652   7.471   4.020
12852TIP3    H238514   7.710   7.592   4.090
12853TIP3   OH238515   3.238   7.422   1.387
12853TIP3    H138516   3.177   7.349   1.398
12853TIP3    H238517   3.246   7.432   1.292
12854TIP3   OH238518   7.744   6.810   2.822
12854TIP3    H138519   7.689   6.753   2.769
12854TIP3    H238520   7.828   6.766   2.827
12855TIP3   OH238521   4.552   6.031   5.353
12855TIP3    H138522   4.522   6.046   5.442
12855TIP3    H238523   4.474   6.038   5.299
12856TIP3   OH238524   0.508   7.014   2.380
12856TIP3    H138525   0.466   6.994   2.297
12856TIP3    H238526   0.507   6.931   2.428
12857TIP3   OH238527   6.100   6.468   4.987
12857TIP3    H138528   6.151   6.525   5.045
12857TIP3    H238529   6.151   6.464   4.907
12858TIP3   OH238530   3.609   3.028   1.389
12858TIP3    H138531   3.581   3.075   1.310
12858TIP3    H238532   3.697   3.060   1.406
12859TIP3   OH238533   1.298   3.997   3.067
12859TIP3    H138534   1.325   4.087   3.049
12859TIP3    H238535   1.379   3.951   3.088
12860TIP3   OH238536   8.038   0.948   1.041
12860TIP3    H138537   7.979   1.017   1.011
12860TIP3    H238538   8.097   0.934   0.967
12861TIP3   OH238539   1.648   4.829   3.504
12861TIP3    H138540   1.637   4.785   3.419
12861TIP3    H238541   1.716   4.894   3.488
12862TIP3   OH238542   1.444   2.731   0.337
12862TIP3    H138543   1.443   2.823   0.309
12862TIP3    H238544   1.450   2.736   0.433
12863TIP3   OH238545   4.975   3.209   1.945
12863TIP3    H138546   4.885   3.219   1.915
12863TIP3    H238547   4.972   3.135   2.007
12864TIP3   OH238548   7.361   1.906   5.214
12864TIP3    H138549   7.402   1.820   5.204
12864TIP3    H238550   7.374   1.948   5.129
12865TIP3   OH238551   6.111   6.116   6.513
12865TIP3    H138552   6.175   6.051   6.485
12865TIP3    H238553   6.143   6.146   6.599
12866TIP3   OH238554   4.878   7.725   1.852
12866TIP3    H138555   4.968   7.729   1.886
12866TIP3    H238556   4.888   7.729   1.757
12867TIP3   OH238557   4.565   3.480   3.787
12867TIP3    H138558   4.538   3.404   3.838
12867TIP3    H238559   4.484   3.523   3.761
12868TIP3   OH238560   1.709   3.305   3.815
12868TIP3    H138561   1.727   3.227   3.761
12868TIP3    H238562   1.791   3.353   3.815
12869TIP3   OH238563   3.308   6.902   2.551
12869TIP3    H138564   3.309   6.951   2.633
12869TIP3    H238565   3.310   6.970   2.483
12870TIP3   OH238566   4.589   2.139   3.373
12870TIP3    H138567   4.666   2.097   3.334
12870TIP3    H238568   4.590   2.228   3.339
12871TIP3   OH238569   4.718   1.513   1.955
12871TIP3    H138570   4.730   1.420   1.939
12871TIP3    H238571   4.635   1.534   1.913
12872TIP3   OH238572   2.916   2.366   4.460
12872TIP3    H138573   2.965   2.345   4.380
12872TIP3    H238574   2.824   2.359   4.433
12873TIP3   OH238575   6.964   3.194   0.014
12873TIP3    H138576   6.946   3.269   0.071
12873TIP3    H238577   6.879   3.170  -0.023
12874TIP3   OH238578   6.567   5.814   1.261
12874TIP3    H138579   6.609   5.809   1.176
12874TIP3    H238580   6.636   5.843   1.321
12875TIP3   OH238581   5.549   4.993   0.301
12875TIP3    H138582   5.465   4.948   0.290
12875TIP3    H238583   5.612   4.937   0.255
12876TIP3   OH238584   1.970   0.142   4.522
12876TIP3    H138585   1.916   0.128   4.600
12876TIP3    H238586   2.057   0.114   4.549
12877TIP3   OH238587   5.652   0.016   3.915
12877TIP3    H138588   5.637  -0.007   4.007
12877TIP3    H238589   5.723   0.081   3.918
12878TIP3   OH238590   5.852   2.781   5.461
12878TIP3    H138591   5.761   2.767   5.486
12878TIP3    H238592   5.888   2.837   5.529
12879TIP3   OH238593   1.207   4.440   0.855
12879TIP3    H138594   1.159   4.425   0.773
12879TIP3    H238595   1.223   4.352   0.890
12880TIP3   OH238596   3.162   2.569   4.825
12880TIP3    H138597   3.255   2.555   4.841
12880TIP3    H238598   3.152   2.563   4.730
12881TIP3   OH238599   4.065   1.459   3.579
12881TIP3    H138600   3.985   1.433   3.533
12881TIP3    H238601   4.042   1.454   3.671
12882TIP3   OH238602   3.873   2.457   3.529
12882TIP3    H138603   3.960   2.428   3.502
12882TIP3    H238604   3.846   2.517   3.460
12883TIP3   OH238605   6.970   1.352   1.421
12883TIP3    H138606   7.038   1.290   1.447
12883TIP3    H238607   6.932   1.315   1.342
12884TIP3   OH238608   1.862   1.526   2.168
12884TIP3    H138609   1.874   1.438   2.133
12884TIP3    H238610   1.782   1.558   2.126
12885TIP3   OH238611   4.876   2.480   5.271
12885TIP3    H138612   4.966   2.494   5.302
12885TIP3    H238613   4.850   2.564   5.234
12886TIP3   OH238614   0.507   5.099   4.015
12886TIP3    H138615   0.461   5.182   4.028
12886TIP3    H238616   0.559   5.112   3.936
12887TIP3   OH238617   2.256   3.303   6.297
12887TIP3    H138618   2.315   3.341   6.233
12887TIP3    H238619   2.312   3.250   6.353
12888TIP3   OH238620   0.538   6.666   1.159
12888TIP3    H138621   0.534   6.667   1.255
12888TIP3    H238622   0.467   6.607   1.133
12889TIP3   OH238623   0.823   2.760   5.870
12889TIP3    H138624   0.903   2.806   5.895
12889TIP3    H238625   0.752   2.809   5.911
12890TIP3   OH238626   4.278   1.456   3.013
12890TIP3    H138627   4.191   1.486   2.989
12890TIP3    H238628   4.327   1.453   2.930
12891TIP3   OH238629   0.422   0.897   5.710
12891TIP3    H138630   0.475   0.948   5.771
12891TIP3    H238631   0.332   0.906   5.743
12892TIP3   OH238632   2.698   4.666   5.248
12892TIP3    H138633   2.626   4.722   5.219
12892TIP3    H238634   2.661   4.578   5.253
12893TIP3   OH238635   6.556   3.105   4.933
12893TIP3    H138636   6.530   3.197   4.935
12893TIP3    H238637   6.490   3.062   4.879
12894TIP3   OH238638   2.817   3.025   4.959
12894TIP3    H138639   2.733   3.071   4.967
12894TIP3    H238640   2.804   2.966   4.884
12895TIP3   OH238641   6.795   4.570   5.810
12895TIP3    H138642   6.852   4.619   5.869
12895TIP3    H238643   6.709   4.609   5.822
12896TIP3   OH238644   8.193   4.493   3.219
12896TIP3    H138645   8.218   4.553   3.149
12896TIP3    H238646   8.234   4.409   3.195
12897TIP3   OH238647   8.242   5.097   2.501
12897TIP3    H138648   8.223   5.155   2.427
12897TIP3    H238649   8.286   5.022   2.462
12898TIP3   OH238650   2.710   5.357   0.296
12898TIP3    H138651   2.722   5.266   0.323
12898TIP3    H238652   2.646   5.393   0.358
12899TIP3   OH238653   7.317   7.199   1.754
12899TIP3    H138654   7.323   7.105   1.772
12899TIP3    H238655   7.395   7.236   1.794
12900TIP3   OH238656   5.506   5.324   1.870
12900TIP3    H138657   5.512   5.419   1.856
12900TIP3    H238658   5.586   5.289   1.831
12901TIP3   OH238659   6.810   2.977   3.282
12901TIP3    H138660   6.742   2.966   3.216
12901TIP3    H238661   6.804   3.068   3.309
12902TIP3   OH238662   3.832   5.024   2.540
12902TIP3    H138663   3.912   4.996   2.495
12902TIP3    H238664   3.852   5.112   2.572
12903TIP3   OH238665   5.956   3.484   3.630
12903TIP3    H138666   6.017   3.440   3.689
12903TIP3    H238667   5.872   3.484   3.677
12904TIP3   OH238668   0.576   7.045   0.841
12904TIP3    H138669   0.599   7.138   0.843
12904TIP3    H238670   0.587   7.016   0.932
12905TIP3   OH238671   5.017   4.674   2.803
12905TIP3    H138672   4.979   4.758   2.776
12905TIP3    H238673   5.084   4.698   2.868
12906TIP3   OH238674   6.037   1.241   5.647
12906TIP3    H138675   5.951   1.214   5.678
12906TIP3    H238676   6.040   1.210   5.556
12907TIP3   OH238677   3.213   6.985   4.729
12907TIP3    H138678   3.134   7.026   4.692
12907TIP3    H238679   3.271   7.059   4.747
12908TIP3   OH238680   1.929   3.215   5.084
12908TIP3    H138681   1.924   3.310   5.082
12908TIP3    H238682   2.021   3.195   5.098
12909TIP3   OH238683  -0.009   4.615   1.349
12909TIP3    H138684  -0.048   4.556   1.285
12909TIP3    H238685   0.076   4.575   1.369
12910TIP3   OH238686   7.178   7.373   3.587
12910TIP3    H138687   7.093   7.381   3.630
12910TIP3    H238688   7.218   7.295   3.626
12911TIP3   OH238689   4.784   2.923   2.961
12911TIP3    H138690   4.711   2.953   3.017
12911TIP3    H238691   4.762   2.832   2.941
12912TIP3   OH238692   5.418   2.198   0.592
12912TIP3    H138693   5.370   2.115   0.587
12912TIP3    H238694   5.428   2.225   0.501
12913TIP3   OH238695   6.282   4.182   0.986
12913TIP3    H138696   6.374   4.156   0.989
12913TIP3    H238697   6.255   4.183   1.078
12914TIP3   OH238698   7.402   5.622   3.050
12914TIP3    H138699   7.331   5.558   3.049
12914TIP3    H238700   7.455   5.598   3.126
12915TIP3   OH238701   4.045   2.633   4.050
12915TIP3    H138702   3.970   2.601   4.001
12915TIP3    H238703   4.050   2.726   4.030
12916TIP3   OH238704   3.565   3.005   4.947
12916TIP3    H138705   3.586   3.040   4.860
12916TIP3    H238706   3.478   3.040   4.966
12917TIP3   OH238707   2.502   6.302   2.019
12917TIP3    H138708   2.535   6.287   1.930
12917TIP3    H238709   2.514   6.219   2.064
12918TIP3   OH238710   5.446   3.541   2.450
12918TIP3    H138711   5.496   3.474   2.404
12918TIP3    H238712   5.512   3.600   2.487
12919TIP3   OH238713   0.189   7.608   4.357
12919TIP3    H138714   0.262   7.567   4.403
12919TIP3    H238715   0.140   7.654   4.424
12920TIP3   OH238716   4.372   6.312   4.941
12920TIP3    H138717   4.463   6.330   4.918
12920TIP3    H238718   4.361   6.218   4.927
12921TIP3   OH238719   2.108   0.064   4.206
12921TIP3    H138720   2.036   0.081   4.266
12921TIP3    H238721   2.067   0.024   4.130
12922TIP3   OH238722   6.154   5.266   2.838
12922TIP3    H138723   6.147   5.359   2.816
12922TIP3    H238724   6.064   5.235   2.842
12923TIP3   OH238725   6.037   4.125   3.421
12923TIP3    H138726   6.086   4.083   3.492
12923TIP3    H238727   5.946   4.100   3.438
12924TIP3   OH238728   3.538   0.298   3.746
12924TIP3    H138729   3.563   0.384   3.780
12924TIP3    H238730   3.620   0.249   3.742
12925TIP3   OH238731   6.016   5.254   5.674
12925TIP3    H138732   6.105   5.240   5.708
12925TIP3    H238733   5.988   5.167   5.646
12926TIP3   OH238734   3.347   0.846   2.581
12926TIP3    H138735   3.306   0.868   2.497
12926TIP3    H238736   3.387   0.929   2.609
12927TIP3   OH238737   8.280   3.249   0.525
12927TIP3    H138738   8.207   3.295   0.567
12927TIP3    H238739   8.334   3.318   0.487
12928TIP3   OH238740   6.973   2.673   0.545
12928TIP3    H138741   6.916   2.635   0.612
12928TIP3    H238742   7.062   2.664   0.581
12929TIP3   OH238743   3.304   3.990   0.115
12929TIP3    H138744   3.291   3.900   0.144
12929TIP3    H238745   3.257   3.996   0.032
12930TIP3   OH238746   3.269   1.676   0.300
12930TIP3    H138747   3.191   1.707   0.253
12930TIP3    H238748   3.240   1.664   0.390
12931TIP3   OH238749   1.940   5.968   1.362
12931TIP3    H138750   1.961   6.042   1.419
12931TIP3    H238751   1.850   5.984   1.334
12932TIP3   OH238752   7.749   3.862   5.333
12932TIP3    H138753   7.669   3.815   5.308
12932TIP3    H238754   7.718   3.943   5.373
12933TIP3   OH238755   3.658   7.263   1.930
12933TIP3    H138756   3.651   7.358   1.934
12933TIP3    H238757   3.734   7.241   1.984
12934TIP3   OH238758   5.927   4.823   2.951
12934TIP3    H138759   5.882   4.777   2.880
12934TIP3    H238760   5.875   4.901   2.967
12935TIP3   OH238761   0.523   1.993   2.618
12935TIP3    H138762   0.616   2.014   2.611
12935TIP3    H238763   0.489   2.008   2.529
12936TIP3   OH238764   0.568   7.279   2.307
12936TIP3    H138765   0.569   7.326   2.390
12936TIP3    H238766   0.550   7.188   2.331
12937TIP3   OH238767   1.650   0.814   0.217
12937TIP3    H138768   1.611   0.892   0.177
12937TIP3    H238769   1.707   0.779   0.149
12938TIP3   OH238770   7.965   3.879   4.018
12938TIP3    H138771   8.019   3.824   4.075
12938TIP3    H238772   8.014   3.961   4.011
12939TIP3   OH238773   7.830   3.164   3.103
12939TIP3    H138774   7.807   3.258   3.100
12939TIP3    H238775   7.859   3.144   3.014
12940TIP3   OH238776   1.656   0.088   4.530
12940TIP3    H138777   1.627   0.172   4.566
12940TIP3    H238778   1.668   0.032   4.608
12941TIP3   OH238779   7.281   7.740   2.753
12941TIP3    H138780   7.188   7.761   2.765
12941TIP3    H238781   7.290   7.726   2.659
12942TIP3   OH238782   7.467   1.233   5.116
12942TIP3    H138783   7.523   1.172   5.164
12942TIP3    H238784   7.505   1.319   5.134
12943TIP3   OH238785   1.372   7.352   0.700
12943TIP3    H138786   1.361   7.291   0.627
12943TIP3    H238787   1.408   7.431   0.660
12944TIP3   OH238788   7.999   3.806   6.608
12944TIP3    H138789   7.954   3.741   6.661
12944TIP3    H238790   8.089   3.806   6.639
12945TIP3   OH238791   4.496   7.313   0.737
12945TIP3    H138792   4.475   7.331   0.645
12945TIP3    H238793   4.417   7.340   0.785
12946TIP3   OH238794   3.270   3.290   1.135
12946TIP3    H138795   3.175   3.299   1.125
12946TIP3    H238796   3.292   3.348   1.208
12947TIP3   OH238797   3.649   1.229   5.216
12947TIP3    H138798   3.646   1.275   5.132
12947TIP3    H238799   3.710   1.279   5.269
12948TIP3   OH238800   0.248   3.289   4.675
12948TIP3    H138801   0.279   3.229   4.607
12948TIP3    H238802   0.176   3.337   4.634
12949TIP3   OH238803   1.075   4.486   2.199
12949TIP3    H138804   1.065   4.408   2.143
12949TIP3    H238805   1.039   4.558   2.146
12950TIP3   OH238806   1.214   0.236   1.174
12950TIP3    H138807   1.224   0.225   1.268
12950TIP3    H238808   1.300   0.213   1.138
12951TIP3   OH238809   1.863   2.750   4.641
12951TIP3    H138810   1.852   2.844   4.627
12951TIP3    H238811   1.924   2.744   4.714
12952TIP3   OH238812   6.533   0.401   4.998
12952TIP3    H138813   6.506   0.483   4.956
12952TIP3    H238814   6.502   0.333   4.938
12953TIP3   OH238815   0.870   3.289   3.289
12953TIP3    H138816   0.827   3.260   3.209
12953TIP3    H238817   0.885   3.383   3.276
12954TIP3   OH238818   4.297   0.504   3.087
12954TIP3    H138819   4.300   0.412   3.113
12954TIP3    H238820   4.333   0.551   3.162
12955TIP3   OH238821   7.444   3.102   4.400
12955TIP3    H138822   7.481   3.127   4.485
12955TIP3    H238823   7.520   3.079   4.347
12956TIP3   OH238824   0.298   6.422   4.534
12956TIP3    H138825   0.300   6.465   4.619
12956TIP3    H238826   0.359   6.349   4.543
12957TIP3   OH238827   1.898   4.759   5.515
12957TIP3    H138828   1.952   4.685   5.487
12957TIP3    H238829   1.947   4.799   5.586
12958TIP3   OH238830   1.727   2.951   1.660
12958TIP3    H138831   1.648   2.898   1.655
12958TIP3    H238832   1.742   2.963   1.754
12959TIP3   OH238833   7.070   6.548   0.827
12959TIP3    H138834   7.154   6.554   0.782
12959TIP3    H238835   7.064   6.628   0.879
12960TIP3   OH238836   5.756   1.022   3.655
12960TIP3    H138837   5.674   0.983   3.625
12960TIP3    H238838   5.742   1.116   3.647
12961TIP3   OH238839   2.030   6.243   6.528
12961TIP3    H138840   2.010   6.157   6.566
12961TIP3    H238841   1.981   6.305   6.581
12962TIP3   OH238842   2.463   1.407   6.191
12962TIP3    H138843   2.444   1.313   6.185
12962TIP3    H238844   2.423   1.434   6.273
12963TIP3   OH238845   2.891   0.883   3.980
12963TIP3    H138846   2.934   0.927   4.053
12963TIP3    H238847   2.902   0.789   3.998
12964TIP3   OH238848   0.740   5.515   0.947
12964TIP3    H138849   0.704   5.602   0.964
12964TIP3    H238850   0.820   5.511   0.999
12965TIP3   OH238851   1.969   1.011   3.598
12965TIP3    H138852   1.941   1.009   3.690
12965TIP3    H238853   2.011   0.927   3.584
12966TIP3   OH238854   4.256   3.986   2.996
12966TIP3    H138855   4.197   3.958   3.067
12966TIP3    H238856   4.298   4.065   3.029
12967TIP3   OH238857   8.228   2.821   4.340
12967TIP3    H138858   8.218   2.726   4.334
12967TIP3    H238859   8.161   2.849   4.402
12968TIP3   OH238860   5.028   2.249   1.001
12968TIP3    H138861   5.066   2.264   0.914
12968TIP3    H238862   5.104   2.244   1.059
12969TIP3   OH238863   3.213   1.300   4.661
12969TIP3    H138864   3.261   1.288   4.579
12969TIP3    H238865   3.278   1.335   4.722
12970TIP3   OH238866   1.807   4.465   5.664
12970TIP3    H138867   1.781   4.540   5.718
12970TIP3    H238868   1.884   4.429   5.708
12971TIP3   OH238869   1.797   5.099   3.049
12971TIP3    H138870   1.889   5.082   3.029
12971TIP3    H238871   1.799   5.155   3.127
12972TIP3   OH238872   8.046   0.116   6.577
12972TIP3    H138873   7.959   0.083   6.553
12972TIP3    H238874   8.098   0.106   6.497
12973TIP3   OH238875   0.627   6.421   0.229
12973TIP3    H138876   0.630   6.367   0.309
12973TIP3    H238877   0.535   6.421   0.203
12974TIP3   OH238878   4.579   7.119   1.037
12974TIP3    H138879   4.579   7.154   1.126
12974TIP3    H238880   4.497   7.070   1.031
12975TIP3   OH238881   5.536   0.457   4.389
12975TIP3    H138882   5.496   0.519   4.329
12975TIP3    H238883   5.463   0.425   4.443
12976TIP3   OH238884   1.584   0.833   1.853
12976TIP3    H138885   1.626   0.748   1.864
12976TIP3    H238886   1.558   0.835   1.760
12977TIP3   OH238887   1.139   4.703   6.415
12977TIP3    H138888   1.069   4.675   6.357
12977TIP3    H238889   1.111   4.677   6.502
12978TIP3   OH238890   1.247   6.014   5.886
12978TIP3    H138891   1.152   6.022   5.894
12978TIP3    H238892   1.263   6.019   5.792
12979TIP3   OH238893   1.018   1.774   3.547
12979TIP3    H138894   1.083   1.760   3.616
12979TIP3    H238895   1.037   1.705   3.483
12980TIP3   OH238896   5.708   4.103   6.532
12980TIP3    H138897   5.658   4.027   6.501
12980TIP3    H238898   5.791   4.097   6.485
12981TIP3   OH238899   6.301   7.148   5.171
12981TIP3    H138900   6.270   7.097   5.096
12981TIP3    H238901   6.372   7.095   5.207
12982TIP3   OH238902   6.270   1.634   2.701
12982TIP3    H138903   6.298   1.580   2.627
12982TIP3    H238904   6.208   1.696   2.663
12983TIP3   OH238905   1.802   2.575   2.538
12983TIP3    H138906   1.869   2.584   2.470
12983TIP3    H238907   1.778   2.665   2.561
12984TIP3   OH238908   4.890   4.014   5.595
12984TIP3    H138909   4.825   3.967   5.649
12984TIP3    H238910   4.948   3.945   5.562
12985TIP3   OH238911   4.790   1.380   6.026
12985TIP3    H138912   4.761   1.333   6.103
12985TIP3    H238913   4.735   1.459   6.024
12986TIP3   OH238914   1.830   4.122   0.757
12986TIP3    H138915   1.806   4.169   0.837
12986TIP3    H238916   1.923   4.103   0.767
12987TIP3   OH238917   1.347   4.698   5.520
12987TIP3    H138918   1.281   4.761   5.549
12987TIP3    H238919   1.349   4.632   5.589
12988TIP3   OH238920   1.833   3.850   5.438
12988TIP3    H138921   1.826   3.757   5.455
12988TIP3    H238922   1.755   3.871   5.386
12989TIP3   OH238923   8.065   5.427   3.570
12989TIP3    H138924   8.057   5.515   3.533
12989TIP3    H238925   8.111   5.376   3.502
12990TIP3   OH238926   3.951   1.482   4.195
12990TIP3    H138927   4.031   1.470   4.144
12990TIP3    H238928   3.911   1.562   4.158
12991TIP3   OH238929   2.187   2.398   4.080
12991TIP3    H138930   2.210   2.332   4.015
12991TIP3    H238931   2.171   2.349   4.160
12992TIP3   OH238932   1.699   0.696   3.288
12992TIP3    H138933   1.683   0.710   3.195
12992TIP3    H238934   1.712   0.784   3.323
12993TIP3   OH238935   4.600   4.183   1.809
12993TIP3    H138936   4.667   4.127   1.849
12993TIP3    H238937   4.632   4.199   1.721
12994TIP3   OH238938   3.778   7.701   6.078
12994TIP3    H138939   3.843   7.684   6.009
12994TIP3    H238940   3.765   7.615   6.119
12995TIP3   OH238941   0.734   2.202   5.225
12995TIP3    H138942   0.762   2.166   5.310
12995TIP3    H238943   0.767   2.292   5.226
12996TIP3   OH238944   5.971   6.942   5.145
12996TIP3    H138945   5.920   6.865   5.171
12996TIP3    H238946   6.060   6.908   5.131
12997TIP3   OH238947   7.195   3.708   4.785
12997TIP3    H138948   7.219   3.646   4.716
12997TIP3    H238949   7.155   3.654   4.853
12998TIP3   OH238950   0.005   5.955   6.769
12998TIP3    H138951  -0.034   5.878   6.727
12998TIP3    H238952   0.087   5.969   6.721
12999TIP3   OH238953   6.781   7.343   2.092
12999TIP3    H138954   6.706   7.359   2.149
12999TIP3    H238955   6.810   7.254   2.115
13000TIP3   OH238956   0.068   4.855   6.482
13000TIP3    H138957   0.131   4.821   6.546
13000TIP3    H238958   0.015   4.917   6.532
13001TIP3   OH238959   2.702   2.317   1.448
13001TIP3    H138960   2.728   2.237   1.403
13001TIP3    H238961   2.724   2.301   1.540
13002TIP3   OH238962   8.178   0.110   3.279
13002TIP3    H138963   8.100   0.163   3.295
13002TIP3    H238964   8.173   0.039   3.342
13003TIP3   OH238965   5.872   0.766   4.184
13003TIP3    H138966   5.900   0.827   4.253
13003TIP3    H238967   5.784   0.796   4.160
13004TIP3   OH238968   3.783   4.524   6.395
13004TIP3    H138969   3.791   4.440   6.440
13004TIP3    H238970   3.856   4.524   6.332
13005TIP3   OH238971   4.818   2.741   3.190
13005TIP3    H138972   4.886   2.681   3.222
13005TIP3    H238973   4.795   2.707   3.103
13006TIP3   OH238974   4.700   1.128   2.259
13006TIP3    H138975   4.692   1.104   2.351
13006TIP3    H238976   4.757   1.205   2.259
13007TIP3   OH238977   5.754   2.881   2.937
13007TIP3    H138978   5.767   2.900   2.844
13007TIP3    H238979   5.841   2.858   2.969
13008TIP3   OH238980   0.583   5.361   1.139
13008TIP3    H138981   0.633   5.314   1.206
13008TIP3    H238982   0.649   5.409   1.090
13009TIP3   OH238983   1.259   2.859   3.843
13009TIP3    H138984   1.352   2.875   3.828
13009TIP3    H238985   1.215   2.934   3.803
13010TIP3   OH238986   3.594   1.607   6.604
13010TIP3    H138987   3.682   1.638   6.621
13010TIP3    H238988   3.548   1.682   6.567
13011TIP3   OH238989   8.216   0.754   5.929
13011TIP3    H138990   8.205   0.680   5.869
13011TIP3    H238991   8.151   0.818   5.901
13012TIP3   OH238992   1.361   0.857   2.009
13012TIP3    H138993   1.294   0.849   1.940
13012TIP3    H238994   1.437   0.895   1.964
13013TIP3   OH238995   7.518   3.849   0.541
13013TIP3    H138996   7.434   3.858   0.496
13013TIP3    H238997   7.571   3.921   0.508
13014TIP3   OH238998   4.777   1.092   6.171
13014TIP3    H138999   4.774   1.176   6.217
13014TIP3    H239000   4.846   1.104   6.106
13015TIP3   OH239001   1.452   2.441   2.280
13015TIP3    H139002   1.420   2.362   2.323
13015TIP3    H239003   1.424   2.513   2.336
13016TIP3   OH239004   7.211   3.643   3.448
13016TIP3    H139005   7.220   3.711   3.380
13016TIP3    H239006   7.287   3.657   3.505
13017TIP3   OH239007   5.361   5.562   2.779
13017TIP3    H139008   5.273   5.527   2.796
13017TIP3    H239009   5.356   5.594   2.689
13018TIP3   OH239010   4.585   5.712   0.124
13018TIP3    H139011   4.662   5.748   0.079
13018TIP3    H239012   4.618   5.639   0.175
13019TIP3   OH239013   4.505   5.083   2.130
13019TIP3    H139014   4.448   5.009   2.150
13019TIP3    H239015   4.445   5.152   2.100
13020TIP3   OH239016   7.117   4.390   6.691
13020TIP3    H139017   7.107   4.352   6.604
13020TIP3    H239018   7.179   4.332   6.736
13021TIP3   OH239019   2.227   2.103   0.996
13021TIP3    H139020   2.162   2.074   0.931
13021TIP3    H239021   2.304   2.049   0.978
13022TIP3   OH239022   5.788   1.996   5.553
13022TIP3    H139023   5.797   1.910   5.512
13022TIP3    H239024   5.870   2.040   5.532
13023TIP3   OH239025   3.453   6.021   4.992
13023TIP3    H139026   3.520   5.978   4.940
13023TIP3    H239027   3.494   6.103   5.021
13024TIP3   OH239028   7.645   0.930   1.624
13024TIP3    H139029   7.590   0.861   1.585
13024TIP3    H239030   7.584   0.985   1.673
13025TIP3   OH239031   5.303   2.418   3.824
13025TIP3    H139032   5.315   2.339   3.773
13025TIP3    H239033   5.208   2.429   3.831
13026TIP3   OH239034   5.427   4.249   3.448
13026TIP3    H139035   5.499   4.256   3.385
13026TIP3    H239036   5.402   4.339   3.466
13027TIP3   OH239037   4.302   5.662   6.127
13027TIP3    H139038   4.232   5.606   6.094
13027TIP3    H239039   4.379   5.635   6.077
13028TIP3   OH239040   0.937   2.758   2.439
13028TIP3    H139041   0.985   2.701   2.498
13028TIP3    H239042   0.859   2.783   2.487
13029TIP3   OH239043   3.080   2.590   4.541
13029TIP3    H139044   3.040   2.505   4.521
13029TIP3    H239045   3.006   2.650   4.549
13030TIP3   OH239046   3.434   4.661   6.055
13030TIP3    H139047   3.501   4.593   6.064
13030TIP3    H239048   3.351   4.615   6.061
13031TIP3   OH239049   0.825   4.904   6.345
13031TIP3    H139050   0.896   4.852   6.305
13031TIP3    H239051   0.818   4.981   6.288
13032TIP3   OH239052   4.168   1.679   1.340
13032TIP3    H139053   4.167   1.711   1.430
13032TIP3    H239054   4.096   1.726   1.298
13033TIP3   OH239055   7.041   2.169   2.220
13033TIP3    H139056   7.112   2.111   2.247
13033TIP3    H239057   7.053   2.248   2.272
13034TIP3   OH239058   0.083   0.104   0.681
13034TIP3    H139059   0.008   0.108   0.622
13034TIP3    H239060   0.049   0.066   0.762
13035TIP3   OH239061   1.637   0.331   2.334
13035TIP3    H139062   1.590   0.255   2.369
13035TIP3    H239063   1.629   0.397   2.402
13036TIP3   OH239064   0.307   6.778   4.973
13036TIP3    H139065   0.354   6.840   4.917
13036TIP3    H239066   0.376   6.736   5.025
13037TIP3   OH239067   7.929   7.203   1.631
13037TIP3    H139068   7.878   7.273   1.589
13037TIP3    H239069   8.010   7.198   1.579
13038TIP3   OH239070   5.597   0.861   3.871
13038TIP3    H139071   5.601   0.780   3.821
13038TIP3    H239072   5.667   0.915   3.836
13039TIP3   OH239073   7.249   0.048   4.509
13039TIP3    H139074   7.289   0.000   4.437
13039TIP3    H239075   7.321   0.067   4.569
13040TIP3   OH239076   3.950   1.877   1.375
13040TIP3    H139077   3.969   1.809   1.439
13040TIP3    H239078   3.897   1.942   1.423
13041TIP3   OH239079   5.551   7.155   1.961
13041TIP3    H139080   5.536   7.152   2.055
13041TIP3    H239081   5.575   7.246   1.944
13042TIP3   OH239082   7.689   7.003   5.213
13042TIP3    H139083   7.727   7.086   5.184
13042TIP3    H239084   7.759   6.960   5.262
13043TIP3   OH239085   5.400   1.661   2.278
13043TIP3    H139086   5.315   1.692   2.308
13043TIP3    H239087   5.445   1.739   2.246
13044TIP3   OH239088   6.435   2.120   0.842
13044TIP3    H139089   6.365   2.130   0.906
13044TIP3    H239090   6.391   2.116   0.757
13045TIP3   OH239091   2.364   1.774   6.483
13045TIP3    H139092   2.301   1.845   6.494
13045TIP3    H239093   2.443   1.804   6.528
13046TIP3   OH239094   3.044   3.302   3.952
13046TIP3    H139095   3.110   3.262   3.895
13046TIP3    H239096   3.073   3.393   3.961
13047TIP3   OH239097   2.858   6.568   4.686
13047TIP3    H139098   2.915   6.494   4.664
13047TIP3    H239099   2.838   6.608   4.602
13048TIP3   OH239100   2.801   3.798   6.514
13048TIP3    H139101   2.806   3.886   6.475
13048TIP3    H239102   2.842   3.741   6.449
13049TIP3   OH239103   1.414   0.251   4.922
13049TIP3    H139104   1.410   0.333   4.971
13049TIP3    H239105   1.480   0.266   4.855
13050TIP3   OH239106   6.128   7.245   1.385
13050TIP3    H139107   6.166   7.315   1.332
13050TIP3    H239108   6.089   7.290   1.460
13051TIP3   OH239109   0.052   4.669   4.390
13051TIP3    H139110   0.098   4.607   4.333
13051TIP3    H239111   0.115   4.740   4.404
13052TIP3   OH239112   8.023   7.387   5.061
13052TIP3    H139113   8.059   7.463   5.107
13052TIP3    H239114   8.090   7.361   4.999
13053TIP3   OH239115   0.680   0.376   0.210
13053TIP3    H139116   0.614   0.385   0.142
13053TIP3    H239117   0.657   0.443   0.275
13054TIP3   OH239118   1.974   4.821   6.625
13054TIP3    H139119   2.001   4.849   6.538
13054TIP3    H239120   1.895   4.872   6.644
13055TIP3   OH239121   4.116   1.632   2.597
13055TIP3    H139122   4.107   1.553   2.650
13055TIP3    H239123   4.031   1.643   2.556
13056TIP3   OH239124   2.695   1.870   0.999
13056TIP3    H139125   2.765   1.926   0.966
13056TIP3    H239126   2.707   1.868   1.094
13057TIP3   OH239127   5.050   1.669   0.497
13057TIP3    H139128   4.994   1.744   0.475
13057TIP3    H239129   5.034   1.654   0.590
13058TIP3   OH239130  -0.001   3.340   5.869
13058TIP3    H139131   0.004   3.280   5.795
13058TIP3    H239132   0.031   3.423   5.833
13059TIP3   OH239133   6.402   2.793   6.698
13059TIP3    H139134   6.412   2.889   6.696
13059TIP3    H239135   6.471   2.762   6.638
13060TIP3   OH239136   1.623   5.402   1.578
13060TIP3    H139137   1.600   5.476   1.521
13060TIP3    H239138   1.674   5.441   1.649
13061TIP3   OH239139   6.447   3.056   6.457
13061TIP3    H139140   6.459   3.067   6.551
13061TIP3    H239141   6.518   2.997   6.430
13062TIP3   OH239142   3.806   1.726   2.956
13062TIP3    H139143   3.756   1.725   2.875
13062TIP3    H239144   3.884   1.673   2.937
13063TIP3   OH239145   7.772   0.081   2.635
13063TIP3    H139146   7.693   0.089   2.689
13063TIP3    H239147   7.739   0.083   2.545
13064TIP3   OH239148   0.328   1.390   0.790
13064TIP3    H139149   0.272   1.323   0.828
13064TIP3    H239150   0.347   1.449   0.863
13065TIP3   OH239151   7.296   6.690   0.412
13065TIP3    H139152   7.392   6.697   0.418
13065TIP3    H239153   7.273   6.623   0.477
13066TIP3   OH239154   2.694   5.517   5.864
13066TIP3    H139155   2.748   5.454   5.912
13066TIP3    H239156   2.745   5.536   5.785
13067TIP3   OH239157   3.070   5.121   5.827
13067TIP3    H139158   3.080   5.043   5.882
13067TIP3    H239159   3.014   5.092   5.755
13068TIP3   OH239160   5.966   6.133   0.841
13068TIP3    H139161   5.902   6.077   0.885
13068TIP3    H239162   6.038   6.074   0.819
13069TIP3   OH239163   0.675   2.159   2.025
13069TIP3    H139164   0.686   2.251   2.001
13069TIP3    H239165   0.584   2.139   2.002
13070TIP3   OH239166   6.563   7.270   0.642
13070TIP3    H139167   6.601   7.280   0.554
13070TIP3    H239168   6.482   7.321   0.638
13071TIP3   OH239169   4.818   0.816   4.451
13071TIP3    H139170   4.803   0.910   4.465
13071TIP3    H239171   4.868   0.788   4.528
13072TIP3   OH239172   1.231   0.372   3.001
13072TIP3    H139173   1.235   0.421   2.919
13072TIP3    H239174   1.194   0.287   2.976
13073TIP3   OH239175   1.268   0.432   3.986
13073TIP3    H139176   1.263   0.480   4.069
13073TIP3    H239177   1.197   0.469   3.933
13074TIP3   OH239178   7.614   4.296   6.129
13074TIP3    H139179   7.670   4.296   6.051
13074TIP3    H239180   7.541   4.237   6.106
13075TIP3   OH239181   0.559   5.231   1.878
13075TIP3    H139182   0.550   5.312   1.928
13075TIP3    H239183   0.497   5.170   1.918
13076TIP3   OH239184   6.175   5.383   3.456
13076TIP3    H139185   6.095   5.383   3.403
13076TIP3    H239186   6.230   5.451   3.417
13077TIP3   OH239187   2.578   0.254   0.110
13077TIP3    H139188   2.619   0.286   0.190
13077TIP3    H239189   2.652   0.223   0.057
13078TIP3   OH239190   3.080   2.200   5.503
13078TIP3    H139191   3.042   2.113   5.507
13078TIP3    H239192   3.152   2.193   5.442
13079TIP3   OH239193   1.659   4.610   0.132
13079TIP3    H139194   1.620   4.555   0.063
13079TIP3    H239195   1.585   4.646   0.179
13080TIP3   OH239196   2.732   0.456   5.288
13080TIP3    H139197   2.656   0.428   5.237
13080TIP3    H239198   2.700   0.527   5.343
13081TIP3   OH239199   6.679   0.977   2.845
13081TIP3    H139200   6.750   0.913   2.845
13081TIP3    H239201   6.669   1.002   2.937
13082TIP3   OH239202   8.063   4.860   4.309
13082TIP3    H139203   7.990   4.846   4.370
13082TIP3    H239204   8.123   4.917   4.357
13083TIP3   OH239205   2.200   0.179   1.624
13083TIP3    H139206   2.279   0.150   1.579
13083TIP3    H239207   2.232   0.224   1.702
13084TIP3   OH239208   0.723   7.554   4.472
13084TIP3    H139209   0.786   7.621   4.499
13084TIP3    H239210   0.775   7.491   4.422
13085TIP3   OH239211   6.260   3.334   6.520
13085TIP3    H139212   6.337   3.291   6.483
13085TIP3    H239213   6.193   3.265   6.525
13086TIP3   OH239214   2.602   0.193   2.086
13086TIP3    H139215   2.553   0.167   2.009
13086TIP3    H239216   2.560   0.274   2.115
13087TIP3   OH239217   6.795   5.957   3.320
13087TIP3    H139218   6.859   6.026   3.337
13087TIP3    H239219   6.811   5.930   3.230
13088TIP3   OH239220   4.764   5.232   2.093
13088TIP3    H139221   4.695   5.168   2.112
13088TIP3    H239222   4.723   5.295   2.034
13089TIP3   OH239223   6.011   4.053   6.612
13089TIP3    H139224   5.952   4.036   6.685
13089TIP3    H239225   6.029   4.147   6.617
13090TIP3   OH239226   7.521   6.417   6.426
13090TIP3    H139227   7.578   6.471   6.371
13090TIP3    H239228   7.532   6.329   6.392
13091TIP3   OH239229   2.872   4.007   6.346
13091TIP3    H139230   2.922   3.974   6.271
13091TIP3    H239231   2.900   4.098   6.355
13092TIP3   OH239232   5.303   3.607   1.399
13092TIP3    H139233   5.245   3.533   1.418
13092TIP3    H239234   5.385   3.566   1.373
13093TIP3   OH239235   4.832   0.533   5.010
13093TIP3    H139236   4.767   0.463   5.003
13093TIP3    H239237   4.818   0.586   4.932
13094TIP3   OH239238   2.112   6.290   5.377
13094TIP3    H139239   2.046   6.305   5.445
13094TIP3    H239240   2.079   6.336   5.300
13095TIP3   OH239241   3.222   2.207   4.829
13095TIP3    H139242   3.281   2.222   4.903
13095TIP3    H239243   3.280   2.200   4.754
13096TIP3   OH239244   7.333   5.593   6.681
13096TIP3    H139245   7.317   5.540   6.603
13096TIP3    H239246   7.263   5.659   6.679
13097TIP3   OH239247   7.187   7.492   5.236
13097TIP3    H139248   7.232   7.414   5.205
13097TIP3    H239249   7.094   7.471   5.228
13098TIP3   OH239250   3.497   3.651   1.549
13098TIP3    H139251   3.534   3.577   1.595
13098TIP3    H239252   3.549   3.658   1.469
13099TIP3   OH239253   6.552   3.627   5.938
13099TIP3    H139254   6.541   3.722   5.926
13099TIP3    H239255   6.647   3.615   5.941
13100TIP3   OH239256   2.418   5.503   6.281
13100TIP3    H139257   2.501   5.548   6.297
13100TIP3    H239258   2.443   5.414   6.256
13101TIP3   OH239259   2.364   7.034   4.814
13101TIP3    H139260   2.364   7.072   4.726
13101TIP3    H239261   2.306   7.090   4.864
13102TIP3   OH239262   1.403   0.174   3.921
13102TIP3    H139263   1.339   0.242   3.942
13102TIP3    H239264   1.447   0.205   3.842
13103TIP3   OH239265   3.817   1.100   5.904
13103TIP3    H139266   3.727   1.122   5.930
13103TIP3    H239267   3.829   1.145   5.820
13104TIP3   OH239268   4.661   6.290   0.059
13104TIP3    H139269   4.729   6.224   0.066
13104TIP3    H239270   4.638   6.310   0.149
13105TIP3   OH239271   3.779   0.295   4.067
13105TIP3    H139272   3.735   0.332   4.144
13105TIP3    H239273   3.772   0.363   4.000
13106TIP3   OH239274   1.475   6.770   5.076
13106TIP3    H139275   1.518   6.839   5.128
13106TIP3    H239276   1.545   6.706   5.059
13107TIP3   OH239277   1.225   1.001   1.781
13107TIP3    H139278   1.305   1.054   1.781
13107TIP3    H239279   1.155   1.063   1.762
13108TIP3   OH239280   7.894   7.787   0.380
13108TIP3    H139281   7.890   7.833   0.464
13108TIP3    H239282   7.986   7.790   0.355
13109TIP3   OH239283   0.638   5.160   1.607
13109TIP3    H139284   0.733   5.157   1.622
13109TIP3    H239285   0.602   5.190   1.690
13110TIP3   OH239286   2.780   4.620   3.298
13110TIP3    H139287   2.838   4.555   3.258
13110TIP3    H239288   2.775   4.690   3.233
13111TIP3   OH239289   0.495   0.340   5.025
13111TIP3    H139290   0.514   0.260   5.074
13111TIP3    H239291   0.442   0.312   4.951
13112TIP3   OH239292   6.075   2.126   6.116
13112TIP3    H139293   6.041   2.117   6.205
13112TIP3    H239294   6.166   2.155   6.127
13113TIP3   OH239295   0.026   4.847   5.772
13113TIP3    H139296  -0.043   4.895   5.818
13113TIP3    H239297   0.045   4.772   5.829
13114TIP3   OH239298   5.591   0.955   3.207
13114TIP3    H139299   5.624   0.868   3.184
13114TIP3    H239300   5.595   1.004   3.124
13115TIP3   OH239301   2.140   0.005   0.804
13115TIP3    H139302   2.180  -0.047   0.873
13115TIP3    H239303   2.213   0.051   0.763
13116TIP3   OH239304   7.870   4.196   0.064
13116TIP3    H139305   7.858   4.260   0.134
13116TIP3    H239306   7.818   4.121   0.091
13117TIP3   OH239307   6.526   1.322   1.075
13117TIP3    H139308   6.456   1.257   1.074
13117TIP3    H239309   6.574   1.304   1.156
13118TIP3   OH239310   5.036   6.695   3.919
13118TIP3    H139311   5.043   6.635   3.993
13118TIP3    H239312   5.004   6.777   3.957
13119TIP3   OH239313   1.432   3.188   1.843
13119TIP3    H139314   1.485   3.268   1.852
13119TIP3    H239315   1.431   3.171   1.749
13120TIP3   OH239316   2.200   6.835   1.643
13120TIP3    H139317   2.136   6.774   1.680
13120TIP3    H239318   2.146   6.900   1.597
13121TIP3   OH239319   4.860   1.351   2.273
13121TIP3    H139320   4.891   1.333   2.185
13121TIP3    H239321   4.866   1.446   2.283
13122TIP3   OH239322   0.323   2.010   2.836
13122TIP3    H139323   0.379   2.013   2.758
13122TIP3    H239324   0.237   1.984   2.803
13123TIP3   OH239325   5.899   6.995   1.734
13123TIP3    H139326   5.984   6.994   1.777
13123TIP3    H239327   5.901   6.920   1.674
13124TIP3   OH239328   4.057   1.034   5.664
13124TIP3    H139329   4.122   1.045   5.594
13124TIP3    H239330   3.973   1.041   5.621
13125TIP3   OH239331   6.739   2.571   2.671
13125TIP3    H139332   6.701   2.644   2.721
13125TIP3    H239333   6.689   2.571   2.589
13126TIP3   OH239334   0.379   4.005   3.132
13126TIP3    H139335   0.439   3.995   3.206
13126TIP3    H239336   0.370   4.099   3.120
13127TIP3   OH239337   5.481   4.001   3.637
13127TIP3    H139338   5.420   4.056   3.687
13127TIP3    H239339   5.451   4.008   3.547
13128TIP3   OH239340   1.087   4.067   2.903
13128TIP3    H139341   1.152   4.016   2.952
13128TIP3    H239342   1.137   4.112   2.836
13129TIP3   OH239343   5.467   7.144   0.385
13129TIP3    H139344   5.419   7.099   0.454
13129TIP3    H239345   5.559   7.120   0.398
13130TIP3   OH239346   7.123   2.611   5.575
13130TIP3    H139347   7.050   2.670   5.553
13130TIP3    H239348   7.095   2.567   5.655
13131TIP3   OH239349   6.068   7.435   0.268
13131TIP3    H139350   6.035   7.446   0.357
13131TIP3    H239351   6.026   7.504   0.217
13132TIP3   OH239352   2.653   6.410   3.774
13132TIP3    H139353   2.575   6.455   3.739
13132TIP3    H239354   2.635   6.317   3.761
13133TIP3   OH239355   8.200   1.586   1.163
13133TIP3    H139356   8.204   1.668   1.114
13133TIP3    H239357   8.269   1.593   1.229
13134TIP3   OH239358   6.919   7.703   6.267
13134TIP3    H139359   6.960   7.671   6.187
13134TIP3    H239360   6.834   7.736   6.239
13135TIP3   OH239361   4.315   4.219   2.616
13135TIP3    H139362   4.293   4.312   2.611
13135TIP3    H239363   4.367   4.210   2.696
13136TIP3   OH239364   6.968   4.129   5.457
13136TIP3    H139365   6.974   4.187   5.381
13136TIP3    H239366   6.926   4.050   5.423
13137TIP3   OH239367   7.388   3.432   1.459
13137TIP3    H139368   7.389   3.527   1.472
13137TIP3    H239369   7.401   3.420   1.365
13138TIP3   OH239370   4.211   1.474   1.187
13138TIP3    H139371   4.294   1.441   1.221
13138TIP3    H239372   4.192   1.551   1.240
13139TIP3   OH239373   7.076   7.172   2.097
13139TIP3    H139374   7.033   7.212   2.172
13139TIP3    H239375   7.156   7.223   2.085
13140TIP3   OH239376   8.188   4.289   2.202
13140TIP3    H139377   8.130   4.305   2.277
13140TIP3    H239378   8.147   4.338   2.131
13141TIP3   OH239379   5.685   7.735   4.381
13141TIP3    H139380   5.725   7.700   4.301
13141TIP3    H239381   5.747   7.800   4.412
13142TIP3   OH239382   4.197   5.013   0.413
13142TIP3    H139383   4.251   4.935   0.407
13142TIP3    H239384   4.237   5.075   0.351
13143TIP3   OH239385   1.739   2.798   0.538
13143TIP3    H139386   1.675   2.865   0.560
13143TIP3    H239387   1.778   2.828   0.456
13144TIP3   OH239388   6.187   2.083   1.300
13144TIP3    H139389   6.176   1.998   1.343
13144TIP3    H239390   6.179   2.147   1.370
13145TIP3   OH239391   5.087   1.926   2.034
13145TIP3    H139392   4.992   1.940   2.035
13145TIP3    H239393   5.112   1.938   1.942
13146TIP3   OH239394   5.540   5.201   0.080
13146TIP3    H139395   5.593   5.269   0.120
13146TIP3    H239396   5.561   5.121   0.128
13147TIP3   OH239397   7.228   3.939   0.432
13147TIP3    H139398   7.206   3.857   0.477
13147TIP3    H239399   7.152   3.957   0.377
13148TIP3   OH239400   7.021   6.729   2.832
13148TIP3    H139401   6.971   6.695   2.758
13148TIP3    H239402   6.955   6.761   2.893
13149TIP3   OH239403   5.495   5.588   5.232
13149TIP3    H139404   5.413   5.593   5.183
13149TIP3    H239405   5.474   5.624   5.318
13150TIP3   OH239406   7.544   7.324   4.821
13150TIP3    H139407   7.554   7.345   4.728
13150TIP3    H239408   7.504   7.237   4.822
13151TIP3   OH239409   2.222   2.850   1.680
13151TIP3    H139410   2.132   2.870   1.654
13151TIP3    H239411   2.266   2.829   1.598
13152TIP3   OH239412   5.407   0.315   5.529
13152TIP3    H139413   5.438   0.398   5.492
13152TIP3    H239414   5.315   0.310   5.504
13153TIP3   OH239415   8.239   7.804   4.066
13153TIP3    H139416   8.327   7.809   4.028
13153TIP3    H239417   8.254   7.782   4.158
13154TIP3   OH239418   6.996   3.997   0.300
13154TIP3    H139419   6.996   4.056   0.225
13154TIP3    H239420   6.921   3.938   0.284
13155TIP3   OH239421   1.297   3.488   5.543
13155TIP3    H139422   1.378   3.454   5.506
13155TIP3    H239423   1.257   3.412   5.587
13156TIP3   OH239424   0.366   4.692   4.116
13156TIP3    H139425   0.402   4.766   4.067
13156TIP3    H239426   0.278   4.680   4.079
13157TIP3   OH239427   6.195   0.706   5.736
13157TIP3    H139428   6.246   0.644   5.683
13157TIP3    H239429   6.258   0.745   5.796
13158TIP3   OH239430   3.437   0.741   6.168
13158TIP3    H139431   3.372   0.808   6.190
13158TIP3    H239432   3.487   0.780   6.097
13159TIP3   OH239433   1.864   6.282   3.711
13159TIP3    H139434   1.921   6.221   3.758
13159TIP3    H239435   1.903   6.368   3.727
13160TIP3   OH239436   0.314   2.087   6.258
13160TIP3    H139437   0.406   2.060   6.261
13160TIP3    H239438   0.287   2.071   6.168
13161TIP3   OH239439   8.306   3.188   4.365
13161TIP3    H139440   8.291   3.278   4.396
13161TIP3    H239441   8.274   3.133   4.436
13162TIP3   OH239442   8.096   5.463   2.115
13162TIP3    H139443   8.074   5.495   2.203
13162TIP3    H239444   8.075   5.369   2.119
13163TIP3   OH239445   1.579   6.608   0.445
13163TIP3    H139446   1.646   6.539   0.439
13163TIP3    H239447   1.498   6.562   0.462
13164TIP3   OH239448   2.165   6.643   1.118
13164TIP3    H139449   2.192   6.562   1.160
13164TIP3    H239450   2.090   6.673   1.170
13165TIP3   OH239451   2.544   1.326   5.156
13165TIP3    H139452   2.504   1.322   5.243
13165TIP3    H239453   2.616   1.389   5.166
13166TIP3   OH239454   4.497   5.519   6.582
13166TIP3    H139455   4.407   5.512   6.550
13166TIP3    H239456   4.513   5.613   6.588
13167TIP3   OH239457   3.050   7.445   2.260
13167TIP3    H139458   3.027   7.412   2.173
13167TIP3    H239459   3.050   7.540   2.250
13168TIP3   OH239460   4.680   0.801   0.168
13168TIP3    H139461   4.701   0.810   0.261
13168TIP3    H239462   4.585   0.795   0.164
13169TIP3   OH239463   6.243   3.554   5.198
13169TIP3    H139464   6.217   3.635   5.153
13169TIP3    H239465   6.332   3.537   5.166
13170TIP3   OH239466   7.596   0.664   0.979
13170TIP3    H139467   7.582   0.571   0.966
13170TIP3    H239468   7.627   0.696   0.893
13171TIP3   OH239469   0.882   7.138   0.531
13171TIP3    H139470   0.971   7.125   0.562
13171TIP3    H239471   0.836   7.058   0.555
13172TIP3   OH239472   3.055   4.202   0.099
13172TIP3    H139473   3.006   4.239   0.025
13172TIP3    H239474   3.147   4.207   0.071
13173TIP3   OH239475   2.092   5.394   1.622
13173TIP3    H139476   2.183   5.377   1.600
13173TIP3    H239477   2.075   5.337   1.698
13174TIP3   OH239478   1.398   1.936   5.305
13174TIP3    H139479   1.413   2.030   5.300
13174TIP3    H239480   1.399   1.917   5.399
13175TIP3   OH239481   2.552   6.910   1.907
13175TIP3    H139482   2.482   6.930   1.845
13175TIP3    H239483   2.615   6.982   1.897
13176TIP3   OH239484   6.071   0.651   0.603
13176TIP3    H139485   6.164   0.636   0.619
13176TIP3    H239486   6.068   0.730   0.550
13177TIP3   OH239487   4.039   4.650   5.569
13177TIP3    H139488   4.095   4.651   5.646
13177TIP3    H239489   4.022   4.742   5.551
13178TIP3   OH239490   0.298   2.432   6.360
13178TIP3    H139491   0.366   2.390   6.413
13178TIP3    H239492   0.341   2.507   6.319
13179TIP3   OH239493   2.364   7.080   2.586
13179TIP3    H139494   2.439   7.115   2.537
13179TIP3    H239495   2.402   7.020   2.650
13180TIP3   OH239496   4.488   4.215   5.249
13180TIP3    H139497   4.550   4.165   5.301
13180TIP3    H239498   4.422   4.245   5.312
13181TIP3   OH239499   0.573   4.067   0.266
13181TIP3    H139500   0.516   4.144   0.262
13181TIP3    H239501   0.585   4.041   0.175
13182TIP3   OH239502   8.041   6.116   5.064
13182TIP3    H139503   7.949   6.103   5.042
13182TIP3    H239504   8.040   6.136   5.158
13183TIP3   OH239505   0.308   4.119   5.698
13183TIP3    H139506   0.395   4.127   5.659
13183TIP3    H239507   0.247   4.141   5.628
13184TIP3   OH239508   1.839   2.682   1.022
13184TIP3    H139509   1.861   2.725   0.940
13184TIP3    H239510   1.766   2.625   1.000
13185TIP3   OH239511   0.360   1.294   1.348
13185TIP3    H139512   0.408   1.265   1.271
13185TIP3    H239513   0.428   1.328   1.407
13186TIP3   OH239514   5.348   4.949   3.883
13186TIP3    H139515   5.440   4.957   3.905
13186TIP3    H239516   5.318   4.872   3.932
13187TIP3   OH239517   1.885   0.104   5.856
13187TIP3    H139518   1.970   0.088   5.897
13187TIP3    H239519   1.833   0.027   5.877
13188TIP3   OH239520   4.237   5.950   1.377
13188TIP3    H139521   4.298   5.903   1.320
13188TIP3    H239522   4.262   6.042   1.368
13189TIP3   OH239523   6.073   3.813   4.646
13189TIP3    H139524   6.022   3.761   4.583
13189TIP3    H239525   6.012   3.831   4.717
13190TIP3   OH239526   5.189   1.511   0.298
13190TIP3    H139527   5.145   1.430   0.326
13190TIP3    H239528   5.156   1.577   0.359
13191TIP3   OH239529   0.020   4.194   1.198
13191TIP3    H139530   0.029   4.103   1.169
13191TIP3    H239531   0.004   4.187   1.292
13192TIP3   OH239532   6.168   5.747   1.006
13192TIP3    H139533   6.157   5.777   1.097
13192TIP3    H239534   6.261   5.727   0.999
13193TIP3   OH239535   1.970   3.803   2.002
13193TIP3    H139536   1.903   3.777   1.939
13193TIP3    H239537   2.048   3.819   1.949
13194TIP3   OH239538   6.980   1.100   6.344
13194TIP3    H139539   7.033   1.170   6.307
13194TIP3    H239540   6.989   1.028   6.281
13195TIP3   OH239541   5.975   2.581   0.100
13195TIP3    H139542   5.985   2.486   0.101
13195TIP3    H239543   5.954   2.602   0.009
13196TIP3   OH239544   3.544   0.481   5.440
13196TIP3    H139545   3.554   0.422   5.366
13196TIP3    H239546   3.574   0.566   5.408
13197TIP3   OH239547   8.261   3.281   2.831
13197TIP3    H139548   8.354   3.287   2.851
13197TIP3    H239549   8.243   3.356   2.775
13198TIP3   OH239550   4.851   2.264   4.849
13198TIP3    H139551   4.891   2.336   4.800
13198TIP3    H239552   4.759   2.263   4.821
13199TIP3   OH239553   0.480   3.953   4.501
13199TIP3    H139554   0.463   3.880   4.561
13199TIP3    H239555   0.402   3.957   4.446
13200TIP3   OH239556   2.534   6.543   2.227
13200TIP3    H139557   2.625   6.542   2.197
13200TIP3    H239558   2.511   6.451   2.239
13201TIP3   OH239559   2.581   3.763   3.379
13201TIP3    H139560   2.562   3.825   3.308
13201TIP3    H239561   2.667   3.727   3.357
13202TIP3   OH239562   2.972   3.168   5.963
13202TIP3    H139563   2.953   3.103   6.030
13202TIP3    H239564   3.066   3.159   5.947
13203TIP3   OH239565   0.769   6.221   6.456
13203TIP3    H139566   0.787   6.251   6.545
13203TIP3    H239567   0.696   6.275   6.427
13204TIP3   OH239568   1.890   0.169   0.787
13204TIP3    H139569   1.967   0.113   0.775
13204TIP3    H239570   1.867   0.198   0.699
13205TIP3   OH239571   2.520   1.438   3.590
13205TIP3    H139572   2.501   1.450   3.497
13205TIP3    H239573   2.532   1.343   3.599
13206TIP3   OH239574   7.893   5.757   1.225
13206TIP3    H139575   7.886   5.722   1.314
13206TIP3    H239576   7.944   5.692   1.176
13207TIP3   OH239577   3.076   2.266   2.024
13207TIP3    H139578   3.067   2.214   1.944
13207TIP3    H239579   3.144   2.330   2.004
13208TIP3   OH239580   0.047   2.896   5.913
13208TIP3    H139581  -0.038   2.890   5.869
13208TIP3    H239582   0.111   2.903   5.841
13209TIP3   OH239583   1.151   5.369   3.226
13209TIP3    H139584   1.162   5.320   3.308
13209TIP3    H239585   1.127   5.303   3.161
13210TIP3   OH239586   3.535   3.186   2.072
13210TIP3    H139587   3.623   3.223   2.070
13210TIP3    H239588   3.480   3.254   2.112
13211TIP3   OH239589   7.353   1.562   6.149
13211TIP3    H139590   7.393   1.502   6.087
13211TIP3    H239591   7.359   1.518   6.234
13212TIP3   OH239592   7.307   2.476   5.116
13212TIP3    H139593   7.269   2.415   5.052
13212TIP3    H239594   7.388   2.433   5.144
13213TIP3   OH239595   0.632   4.915   4.540
13213TIP3    H139596   0.604   4.968   4.465
13213TIP3    H239597   0.696   4.854   4.503
13214TIP3   OH239598   6.685   1.676   3.539
13214TIP3    H139599   6.654   1.622   3.612
13214TIP3    H239600   6.613   1.674   3.476
13215TIP3   OH239601   8.222   2.050   0.130
13215TIP3    H139602   8.209   2.144   0.115
13215TIP3    H239603   8.307   2.044   0.174
13216TIP3   OH239604   6.157   1.882   4.846
13216TIP3    H139605   6.151   1.788   4.860
13216TIP3    H239606   6.220   1.891   4.774
13217TIP3   OH239607   2.685   5.379   2.801
13217TIP3    H139608   2.686   5.396   2.895
13217TIP3    H239609   2.682   5.284   2.793
13218TIP3   OH239610   6.376   0.603   5.270
13218TIP3    H139611   6.461   0.646   5.284
13218TIP3    H239612   6.347   0.633   5.184
13219TIP3   OH239613   8.134   0.598   2.492
13219TIP3    H139614   8.123   0.601   2.587
13219TIP3    H239615   8.117   0.506   2.469
13220TIP3   OH239616   6.387   0.781   6.406
13220TIP3    H139617   6.458   0.843   6.392
13220TIP3    H239618   6.401   0.713   6.340
13221TIP3   OH239619   6.672   7.405   2.677
13221TIP3    H139620   6.598   7.370   2.726
13221TIP3    H239621   6.749   7.368   2.721
13222TIP3   OH239622   2.439   4.905   5.261
13222TIP3    H139623   2.393   4.986   5.280
13222TIP3    H239624   2.400   4.841   5.320
13223TIP3   OH239625   3.953   2.157   0.356
13223TIP3    H139626   4.037   2.201   0.373
13223TIP3    H239627   3.909   2.155   0.441
13224TIP3   OH239628   2.980   0.423   0.247
13224TIP3    H139629   3.052   0.415   0.309
13224TIP3    H239630   2.981   0.515   0.220
13225TIP3   OH239631   0.418   2.991   3.160
13225TIP3    H139632   0.369   3.058   3.112
13225TIP3    H239633   0.447   2.930   3.092
13226TIP3   OH239634   0.692   3.579   6.303
13226TIP3    H139635   0.777   3.553   6.267
13226TIP3    H239636   0.640   3.602   6.226
13227TIP3   OH239637   6.271   4.781   0.736
13227TIP3    H139638   6.184   4.779   0.696
13227TIP3    H239639   6.332   4.786   0.663
13228TIP3   OH239640   7.680   2.150   3.943
13228TIP3    H139641   7.601   2.154   3.996
13228TIP3    H239642   7.741   2.097   3.994
13229TIP3   OH239643   3.568   4.851   5.064
13229TIP3    H139644   3.645   4.795   5.053
13229TIP3    H239645   3.499   4.808   5.013
13230TIP3   OH239646   1.897   4.277   3.071
13230TIP3    H139647   1.961   4.339   3.035
13230TIP3    H239648   1.923   4.192   3.036
13231TIP3   OH239649   7.957   2.887   2.209
13231TIP3    H139650   7.908   2.903   2.290
13231TIP3    H239651   7.952   2.970   2.162
13232TIP3   OH239652   0.229   3.193   3.030
13232TIP3    H139653   0.239   3.169   2.938
13232TIP3    H239654   0.180   3.275   3.028
13233TIP3   OH239655   5.289   3.504   5.185
13233TIP3    H139656   5.249   3.418   5.193
13233TIP3    H239657   5.364   3.491   5.128
13234TIP3   OH239658   0.360   1.141   5.551
13234TIP3    H139659   0.446   1.101   5.537
13234TIP3    H239660   0.373   1.234   5.535
13235TIP3   OH239661   4.295   2.620   6.215
13235TIP3    H139662   4.366   2.566   6.178
13235TIP3    H239663   4.215   2.576   6.187
13236TIP3   OH239664   2.235   5.362   2.742
13236TIP3    H139665   2.150   5.333   2.709
13236TIP3    H239666   2.290   5.284   2.741
13237TIP3   OH239667   7.641   1.003   1.252
13237TIP3    H139668   7.572   0.938   1.234
13237TIP3    H239669   7.720   0.966   1.214
13238TIP3   OH239670   1.715   1.262   4.748
13238TIP3    H139671   1.782   1.202   4.781
13238TIP3    H239672   1.747   1.288   4.661
13239TIP3   OH239673   1.466   2.219   5.273
13239TIP3    H139674   1.500   2.203   5.361
13239TIP3    H239675   1.543   2.248   5.223
13240TIP3   OH239676   5.953   7.525   5.537
13240TIP3    H139677   6.043   7.523   5.503
13240TIP3    H239678   5.916   7.606   5.501
13241TIP3   OH239679   5.595   5.867   6.782
13241TIP3    H139680   5.583   5.814   6.703
13241TIP3    H239681   5.647   5.942   6.752
13242TIP3   OH239682   4.890   5.824   4.387
13242TIP3    H139683   4.892   5.886   4.460
13242TIP3    H239684   4.811   5.771   4.403
13243TIP3   OH239685   3.031   4.282   4.623
13243TIP3    H139686   2.998   4.195   4.600
13243TIP3    H239687   2.952   4.334   4.639
13244TIP3   OH239688   3.213   2.778   6.013
13244TIP3    H139689   3.274   2.704   6.008
13244TIP3    H239690   3.263   2.854   5.984
13245TIP3   OH239691   8.122   1.785   5.966
13245TIP3    H139692   8.107   1.770   5.873
13245TIP3    H239693   8.119   1.698   6.005
13246TIP3   OH239694   5.456   6.738   2.798
13246TIP3    H139695   5.405   6.794   2.856
13246TIP3    H239696   5.399   6.723   2.723
13247TIP3   OH239697   0.214   0.767   0.766
13247TIP3    H139698   0.248   0.775   0.855
13247TIP3    H239699   0.293   0.757   0.712
13248TIP3   OH239700   6.862   6.462   2.210
13248TIP3    H139701   6.806   6.420   2.145
13248TIP3    H239702   6.844   6.415   2.291
13249TIP3   OH239703   0.816   1.339   0.022
13249TIP3    H139704   0.770   1.263   0.056
13249TIP3    H239705   0.795   1.340  -0.071
13250TIP3   OH239706   4.479   5.198   0.308
13250TIP3    H139707   4.544   5.165   0.246
13250TIP3    H239708   4.486   5.140   0.383
13251TIP3   OH239709   5.032   4.066   2.890
13251TIP3    H139710   5.081   4.002   2.941
13251TIP3    H239711   4.991   4.123   2.955
13252TIP3   OH239712   6.788   1.640   2.141
13252TIP3    H139713   6.787   1.544   2.140
13252TIP3    H239714   6.808   1.664   2.051
13253TIP3   OH239715   8.293   0.166   5.688
13253TIP3    H139716   8.210   0.120   5.700
13253TIP3    H239717   8.298   0.183   5.594
13254TIP3   OH239718   2.690   3.042   1.597
13254TIP3    H139719   2.662   3.004   1.514
13254TIP3    H239720   2.625   3.111   1.614
13255TIP3   OH239721   4.155   7.648   1.925
13255TIP3    H139722   4.138   7.725   1.872
13255TIP3    H239723   4.250   7.636   1.921
13256TIP3   OH239724   5.624   1.031   4.610
13256TIP3    H139725   5.531   1.051   4.621
13256TIP3    H239726   5.645   0.971   4.682
13257TIP3   OH239727   2.142   7.712   5.132
13257TIP3    H139728   2.171   7.800   5.155
13257TIP3    H239729   2.053   7.723   5.101
13258TIP3   OH239730   2.618   6.739   1.154
13258TIP3    H139731   2.640   6.715   1.244
13258TIP3    H239732   2.529   6.773   1.159
13259TIP3   OH239733   4.721   4.395   3.227
13259TIP3    H139734   4.783   4.431   3.164
13259TIP3    H239735   4.699   4.469   3.284
13260TIP3   OH239736   1.937   1.889   6.084
13260TIP3    H139737   1.886   1.952   6.134
13260TIP3    H239738   1.891   1.806   6.095
13261TIP3   OH239739   4.542   7.348   4.998
13261TIP3    H139740   4.576   7.291   5.067
13261TIP3    H239741   4.524   7.289   4.924
13262TIP3   OH239742   1.233   4.885   4.872
13262TIP3    H139743   1.143   4.876   4.904
13262TIP3    H239744   1.269   4.958   4.923
13263TIP3   OH239745   3.949   0.817   4.081
13263TIP3    H139746   3.888   0.887   4.059
13263TIP3    H239747   4.035   0.854   4.061
13264TIP3   OH239748   1.219   4.180   0.409
13264TIP3    H139749   1.242   4.148   0.321
13264TIP3    H239750   1.304   4.195   0.451
13265TIP3   OH239751   0.145   4.818   0.801
13265TIP3    H139752   0.055   4.832   0.771
13265TIP3    H239753   0.185   4.905   0.799
13266TIP3   OH239754   4.114   5.883   0.785
13266TIP3    H139755   4.037   5.875   0.730
13266TIP3    H239756   4.080   5.883   0.875
13267TIP3   OH239757   6.866   2.675   6.161
13267TIP3    H139758   6.859   2.707   6.070
13267TIP3    H239759   6.959   2.660   6.174
13268TIP3   OH239760   2.610   5.746   6.031
13268TIP3    H139761   2.612   5.710   6.120
13268TIP3    H239762   2.627   5.671   5.974
13269TIP3   OH239763   3.353   7.633   1.591
13269TIP3    H139764   3.305   7.560   1.553
13269TIP3    H239765   3.317   7.642   1.680
13270TIP3   OH239766   5.298   2.028   5.519
13270TIP3    H139767   5.226   2.026   5.582
13270TIP3    H239768   5.287   2.111   5.472
13271TIP3   OH239769   3.115   3.463   3.371
13271TIP3    H139770   3.087   3.501   3.454
13271TIP3    H239771   3.209   3.483   3.366
13272TIP3   OH239772   0.077   1.407   2.010
13272TIP3    H139773   0.105   1.381   1.923
13272TIP3    H239774  -0.019   1.409   2.005
13273TIP3   OH239775   6.316   5.918   1.891
13273TIP3    H139776   6.222   5.914   1.910
13273TIP3    H239777   6.326   5.991   1.830
13274TIP3   OH239778   3.383   2.794   1.820
13274TIP3    H139779   3.370   2.884   1.790
13274TIP3    H239780   3.295   2.763   1.841
13275TIP3   OH239781   3.676   5.834   3.807
13275TIP3    H139782   3.699   5.750   3.769
13275TIP3    H239783   3.650   5.813   3.897
13276TIP3   OH239784   1.333   1.692   4.095
13276TIP3    H139785   1.355   1.693   4.188
13276TIP3    H239786   1.283   1.773   4.081
13277TIP3   OH239787   7.142   1.971   1.597
13277TIP3    H139788   7.119   2.050   1.547
13277TIP3    H239789   7.120   1.992   1.687
13278TIP3   OH239790   1.311   0.855   3.236
13278TIP3    H139791   1.230   0.872   3.284
13278TIP3    H239792   1.355   0.940   3.232
13279TIP3   OH239793   1.356   1.993   1.177
13279TIP3    H139794   1.296   1.967   1.107
13279TIP3    H239795   1.300   2.034   1.243
13280TIP3   OH239796   2.222   4.449   2.500
13280TIP3    H139797   2.297   4.413   2.453
13280TIP3    H239798   2.209   4.535   2.460
13281TIP3   OH239799   6.330   3.242   5.410
13281TIP3    H139800   6.326   3.331   5.446
13281TIP3    H239801   6.372   3.253   5.325
13282TIP3   OH239802   3.597   3.106   0.850
13282TIP3    H139803   3.517   3.053   0.846
13282TIP3    H239804   3.638   3.094   0.764
13283TIP3   OH239805   5.189   1.827   6.511
13283TIP3    H139806   5.223   1.752   6.560
13283TIP3    H239807   5.238   1.902   6.545
13284TIP3   OH239808   2.115   5.856   1.563
13284TIP3    H139809   2.056   5.926   1.594
13284TIP3    H239810   2.063   5.806   1.501
13285TIP3   OH239811   7.882   7.440   4.819
13285TIP3    H139812   7.945   7.420   4.888
13285TIP3    H239813   7.932   7.436   4.738
13286TIP3   OH239814   5.035   7.668   0.163
13286TIP3    H139815   4.989   7.699   0.240
13286TIP3    H239816   5.125   7.653   0.192
13287TIP3   OH239817   4.104   3.232   4.262
13287TIP3    H139818   4.079   3.267   4.177
13287TIP3    H239819   4.024   3.239   4.315
13288TIP3   OH239820   8.209   0.051   4.462
13288TIP3    H139821   8.251   0.136   4.472
13288TIP3    H239822   8.277  -0.006   4.428
13289TIP3   OH239823   6.736   5.456   3.327
13289TIP3    H139824   6.749   5.396   3.254
13289TIP3    H239825   6.641   5.464   3.336
13290TIP3   OH239826   4.862   4.844   6.394
13290TIP3    H139827   4.792   4.783   6.418
13290TIP3    H239828   4.929   4.788   6.354
13291TIP3   OH239829   6.928   4.161   3.635
13291TIP3    H139830   6.996   4.191   3.695
13291TIP3    H239831   6.886   4.089   3.681
13292TIP3   OH239832   7.738   2.030   2.046
13292TIP3    H139833   7.653   2.003   2.081
13292TIP3    H239834   7.800   2.012   2.116
13293TIP3   OH239835   7.061   5.096   2.239
13293TIP3    H139836   6.995   5.038   2.202
13293TIP3    H239837   7.145   5.059   2.212
13294TIP3   OH239838   5.716   4.424   5.929
13294TIP3    H139839   5.717   4.409   6.023
13294TIP3    H239840   5.670   4.508   5.918
13295TIP3   OH239841   4.912   4.219   3.802
13295TIP3    H139842   4.825   4.257   3.798
13295TIP3    H239843   4.970   4.287   3.768
13296TIP3   OH239844   3.088   0.320   4.481
13296TIP3    H139845   3.060   0.237   4.519
13296TIP3    H239846   3.121   0.296   4.394
13297TIP3   OH239847   5.363   4.360   6.350
13297TIP3    H139848   5.278   4.379   6.311
13297TIP3    H239849   5.387   4.273   6.316
13298TIP3   OH239850   2.744   5.309   3.993
13298TIP3    H139851   2.815   5.315   4.056
13298TIP3    H239852   2.769   5.238   3.934
13299TIP3   OH239853   2.168   6.624   5.464
13299TIP3    H139854   2.206   6.643   5.378
13299TIP3    H239855   2.191   6.532   5.480
13300TIP3   OH239856   0.305   0.070   2.008
13300TIP3    H139857   0.395   0.101   2.005
13300TIP3    H239858   0.307  -0.016   1.967
13301TIP3   OH239859   5.988   1.289   4.387
13301TIP3    H139860   5.959   1.255   4.471
13301TIP3    H239861   6.084   1.280   4.389
13302TIP3   OH239862   5.827   7.564   3.653
13302TIP3    H139863   5.911   7.609   3.663
13302TIP3    H239864   5.796   7.591   3.566
13303TIP3   OH239865   4.629   0.832   5.158
13303TIP3    H139866   4.688   0.847   5.231
13303TIP3    H239867   4.685   0.804   5.086
13304TIP3   OH239868   0.812   0.892   4.612
13304TIP3    H139869   0.766   0.914   4.531
13304TIP3    H239870   0.749   0.913   4.681
13305TIP3   OH239871   5.194   7.757   5.878
13305TIP3    H139872   5.230   7.740   5.965
13305TIP3    H239873   5.109   7.713   5.879
13306TIP3   OH239874   2.601   2.907   2.664
13306TIP3    H139875   2.637   2.868   2.744
13306TIP3    H239876   2.561   2.989   2.694
13307TIP3   OH239877   6.301   1.645   5.840
13307TIP3    H139878   6.243   1.596   5.783
13307TIP3    H239879   6.336   1.581   5.902
13308TIP3   OH239880   7.442   5.042   6.597
13308TIP3    H139881   7.498   4.964   6.599
13308TIP3    H239882   7.455   5.080   6.510
13309TIP3   OH239883   4.073   0.116   4.613
13309TIP3    H139884   4.106   0.131   4.524
13309TIP3    H239885   3.978   0.126   4.605
13310TIP3   OH239886   0.415   0.615   2.348
13310TIP3    H139887   0.320   0.606   2.335
13310TIP3    H239888   0.440   0.689   2.293
13311TIP3   OH239889   2.224   7.766   2.568
13311TIP3    H139890   2.185   7.829   2.628
13311TIP3    H239891   2.152   7.741   2.510
13312TIP3   OH239892   0.748   1.138   5.066
13312TIP3    H139893   0.835   1.175   5.052
13312TIP3    H239894   0.732   1.083   4.990
13313TIP3   OH239895   3.820   2.030   0.861
13313TIP3    H139896   3.802   2.087   0.936
13313TIP3    H239897   3.756   1.959   0.869
13314TIP3   OH239898   3.986   0.894   5.349
13314TIP3    H139899   4.014   0.861   5.264
13314TIP3    H239900   3.900   0.933   5.332
13315TIP3   OH239901   8.124   5.021   3.508
13315TIP3    H139902   8.219   5.034   3.502
13315TIP3    H239903   8.108   5.008   3.601
13316TIP3   OH239904   5.862   6.326   0.399
13316TIP3    H139905   5.953   6.298   0.398
13316TIP3    H239906   5.828   6.295   0.483
13317TIP3   OH239907   7.593   4.696   4.601
13317TIP3    H139908   7.594   4.762   4.671
13317TIP3    H239909   7.587   4.612   4.646
13318TIP3   OH239910   3.528   5.300   5.356
13318TIP3    H139911   3.616   5.285   5.390
13318TIP3    H239912   3.529   5.260   5.269
13319TIP3   OH239913   0.510   0.322   5.684
13319TIP3    H139914   0.465   0.318   5.768
13319TIP3    H239915   0.444   0.356   5.623
13320TIP3   OH239916   2.027   0.801   0.127
13320TIP3    H139917   1.941   0.770   0.097
13320TIP3    H239918   2.090   0.749   0.078
13321TIP3   OH239919   5.154   5.430   0.852
13321TIP3    H139920   5.246   5.451   0.865
13321TIP3    H239921   5.140   5.351   0.905
13322TIP3   OH239922   0.982   1.579   5.459
13322TIP3    H139923   0.973   1.673   5.446
13322TIP3    H239924   1.077   1.563   5.458
13323TIP3   OH239925   7.300   1.368   2.540
13323TIP3    H139926   7.387   1.343   2.511
13323TIP3    H239927   7.241   1.328   2.476
13324TIP3   OH239928   0.802   4.674   1.169
13324TIP3    H139929   0.831   4.751   1.219
13324TIP3    H239930   0.718   4.701   1.131
13325TIP3   OH239931   7.962   5.741   4.875
13325TIP3    H139932   7.951   5.819   4.820
13325TIP3    H239933   7.974   5.670   4.813
13326TIP3   OH239934   3.239   1.559   2.603
13326TIP3    H139935   3.291   1.578   2.681
13326TIP3    H239936   3.158   1.521   2.637
13327TIP3   OH239937   3.113   4.100   4.358
13327TIP3    H139938   3.110   4.110   4.263
13327TIP3    H239939   3.026   4.070   4.382
13328TIP3   OH239940   2.524   5.512   4.350
13328TIP3    H139941   2.448   5.455   4.355
13328TIP3    H239942   2.556   5.517   4.440
13329TIP3   OH239943   0.874   0.913   3.713
13329TIP3    H139944   0.885   1.007   3.702
13329TIP3    H239945   0.955   0.875   3.678
13330TIP3   OH239946   2.499   0.679   4.518
13330TIP3    H139947   2.417   0.711   4.557
13330TIP3    H239948   2.495   0.710   4.428
13331TIP3   OH239949   5.128   5.388   2.838
13331TIP3    H139950   5.182   5.359   2.912
13331TIP3    H239951   5.043   5.347   2.853
13332TIP3   OH239952   1.533   4.761   2.853
13332TIP3    H139953   1.588   4.829   2.891
13332TIP3    H239954   1.520   4.788   2.763
13333TIP3   OH239955   0.740   7.002   4.175
13333TIP3    H139956   0.785   6.948   4.111
13333TIP3    H239957   0.800   7.075   4.191
13334TIP3   OH239958   7.684   4.627   3.182
13334TIP3    H139959   7.725   4.612   3.268
13334TIP3    H239960   7.705   4.549   3.132
13335TIP3   OH239961   3.619   4.596   4.289
13335TIP3    H139962   3.609   4.501   4.282
13335TIP3    H239963   3.576   4.631   4.211
13336TIP3   OH239964   4.398   6.118   0.043
13336TIP3    H139965   4.427   6.196   0.090
13336TIP3    H239966   4.392   6.050   0.110
13337TIP3   OH239967   5.601   5.333   2.950
13337TIP3    H139968   5.553   5.316   2.869
13337TIP3    H239969   5.580   5.424   2.971
13338TIP3   OH239970   3.614   2.383   4.772
13338TIP3    H139971   3.701   2.421   4.783
13338TIP3    H239972   3.622   2.327   4.695
13339TIP3   OH239973   6.689   5.135   2.186
13339TIP3    H139974   6.773   5.089   2.185
13339TIP3    H239975   6.630   5.077   2.233
13340TIP3   OH239976   8.216   7.042   4.327
13340TIP3    H139977   8.254   6.965   4.368
13340TIP3    H239978   8.235   7.032   4.234
13341TIP3   OH239979   5.959   6.207   3.972
13341TIP3    H139980   5.982   6.205   4.065
13341TIP3    H239981   5.941   6.116   3.950
13342TIP3   OH239982   3.608   5.590   1.705
13342TIP3    H139983   3.532   5.565   1.653
13342TIP3    H239984   3.642   5.507   1.739
13343TIP3   OH239985   5.160   7.573   4.008
13343TIP3    H139986   5.117   7.575   4.094
13343TIP3    H239987   5.154   7.663   3.977
13344TIP3   OH239988   5.732   4.719   4.740
13344TIP3    H139989   5.796   4.662   4.697
13344TIP3    H239990   5.755   4.715   4.833
13345TIP3   OH239991   4.716   4.609   4.848
13345TIP3    H139992   4.663   4.684   4.820
13345TIP3    H239993   4.655   4.535   4.848
13346TIP3   OH239994   7.904   5.966   4.725
13346TIP3    H139995   7.906   6.031   4.795
13346TIP3    H239996   7.854   6.009   4.655
13347TIP3   OH239997   2.629   2.382   4.407
13347TIP3    H139998   2.552   2.334   4.376
13347TIP3    H239999   2.635   2.458   4.350
13348TIP3   OH240000   4.230   0.068   4.073
13348TIP3    H140001   4.148   0.080   4.024
13348TIP3    H240002   4.232  -0.025   4.094
13349TIP3   OH240003   3.164   3.989   3.122
13349TIP3    H140004   3.177   4.013   3.214
13349TIP3    H240005   3.207   3.904   3.114
13350TIP3   OH240006   3.785   6.303   2.757
13350TIP3    H140007   3.703   6.257   2.739
13350TIP3    H240008   3.763   6.365   2.826
13351TIP3   OH240009   6.589   7.747   1.531
13351TIP3    H140010   6.568   7.709   1.616
13351TIP3    H240011   6.547   7.833   1.533
13352TIP3   OH240012   4.600   1.857   4.228
13352TIP3    H140013   4.559   1.857   4.314
13352TIP3    H240014   4.594   1.948   4.198
13353TIP3   OH240015   3.717   4.820   2.709
13353TIP3    H140016   3.694   4.871   2.786
13353TIP3    H240017   3.752   4.884   2.647
13354TIP3   OH240018   4.702   1.681   6.296
13354TIP3    H140019   4.643   1.738   6.344
13354TIP3    H240020   4.739   1.622   6.362
13355TIP3   OH240021   3.270   3.717   0.472
13355TIP3    H140022   3.277   3.772   0.550
13355TIP3    H240023   3.307   3.633   0.499
13356TIP3   OH240024   5.642   6.201   0.211
13356TIP3    H140025   5.595   6.225   0.131
13356TIP3    H240026   5.734   6.204   0.186
13357TIP3   OH240027   4.722   3.364   3.410
13357TIP3    H140028   4.733   3.389   3.319
13357TIP3    H240029   4.676   3.280   3.407
13358TIP3   OH240030   2.171   4.641   2.309
13358TIP3    H140031   2.102   4.702   2.338
13358TIP3    H240032   2.244   4.698   2.285
13359TIP3   OH240033   4.577   6.929   4.183
13359TIP3    H140034   4.633   6.854   4.165
13359TIP3    H240035   4.489   6.899   4.162
13360TIP3   OH240036   6.170   4.659   3.035
13360TIP3    H140037   6.103   4.720   3.003
13360TIP3    H240038   6.176   4.592   2.967
13361TIP3   OH240039   7.075   1.910   6.535
13361TIP3    H140040   6.981   1.913   6.554
13361TIP3    H240041   7.112   1.984   6.584
13362TIP3   OH240042   7.044   4.949   1.130
13362TIP3    H140043   7.070   4.922   1.042
13362TIP3    H240044   7.005   5.036   1.119
13363TIP3   OH240045   4.704   2.219   6.129
13363TIP3    H140046   4.714   2.124   6.139
13363TIP3    H240047   4.780   2.246   6.078
13364TIP3   OH240048   5.488   1.483   2.483
13364TIP3    H140049   5.474   1.533   2.402
13364TIP3    H240050   5.476   1.547   2.553
13365TIP3   OH240051   5.437   7.414   5.868
13365TIP3    H140052   5.370   7.357   5.831
13365TIP3    H240053   5.481   7.451   5.792
13366TIP3   OH240054   7.105   4.981   3.190
13366TIP3    H140055   7.011   4.996   3.203
13366TIP3    H240056   7.114   4.886   3.196
13367TIP3   OH240057   1.203   4.607   0.492
13367TIP3    H140058   1.134   4.665   0.523
13367TIP3    H240059   1.157   4.530   0.457
13368TIP3   OH240060   4.437   3.483   2.525
13368TIP3    H140061   4.513   3.529   2.560
13368TIP3    H240062   4.388   3.549   2.476
13369TIP3   OH240063   8.307   2.784   4.073
13369TIP3    H140064   8.293   2.818   4.161
13369TIP3    H240065   8.231   2.729   4.056
13370TIP3   OH240066   5.089   2.101   3.535
13370TIP3    H140067   5.065   2.010   3.554
13370TIP3    H240068   5.100   2.141   3.622
13371TIP3   OH240069   5.526   1.878   4.343
13371TIP3    H140070   5.592   1.810   4.360
13371TIP3    H240071   5.494   1.902   4.430
13372TIP3   OH240072   6.245   2.027   5.437
13372TIP3    H140073   6.250   2.066   5.524
13372TIP3    H240074   6.213   2.098   5.381
13373TIP3   OH240075   1.551   0.162   6.603
13373TIP3    H140076   1.646   0.156   6.594
13373TIP3    H240077   1.517   0.142   6.516
13374TIP3   OH240078   7.526   5.831   6.411
13374TIP3    H140079   7.466   5.767   6.373
13374TIP3    H240080   7.474   5.877   6.476
13375TIP3   OH240081   5.394   5.162   3.296
13375TIP3    H140082   5.438   5.083   3.265
13375TIP3    H240083   5.372   5.143   3.388
13376TIP3   OH240084   0.779   4.670   6.012
13376TIP3    H140085   0.800   4.615   5.937
13376TIP3    H240086   0.737   4.611   6.074
13377TIP3   OH240087   2.381   1.803   0.618
13377TIP3    H140088   2.377   1.746   0.695
13377TIP3    H240089   2.446   1.870   0.641
13378TIP3   OH240090   2.154   1.737   6.251
13378TIP3    H140091   2.130   1.785   6.172
13378TIP3    H240092   2.244   1.763   6.269
13379TIP3   OH240093   6.315   6.974   4.383
13379TIP3    H140094   6.402   6.969   4.342
13379TIP3    H240095   6.333   6.976   4.477
13380TIP3   OH240096   1.540   2.687   6.576
13380TIP3    H140097   1.579   2.624   6.516
13380TIP3    H240098   1.596   2.685   6.653
13381TIP3   OH240099   7.255   1.710   1.523
13381TIP3    H140100   7.316   1.741   1.457
13381TIP3    H240101   7.218   1.789   1.562
13382TIP3   OH240102   2.759   6.095   6.321
13382TIP3    H140103   2.707   6.055   6.390
13382TIP3    H240104   2.843   6.049   6.323
13383TIP3   OH240105   4.093   0.593   5.851
13383TIP3    H140106   4.051   0.659   5.796
13383TIP3    H240107   4.164   0.639   5.895
13384TIP3   OH240108   0.652   2.621   1.343
13384TIP3    H140109   0.569   2.612   1.295
13384TIP3    H240110   0.626   2.622   1.435
13385TIP3   OH240111   6.861   0.861   6.471
13385TIP3    H140112   6.817   0.935   6.514
13385TIP3    H240113   6.807   0.785   6.493
13386TIP3   OH240114   2.775   5.282   4.347
13386TIP3    H140115   2.809   5.366   4.315
13386TIP3    H240116   2.838   5.217   4.316
13387TIP3   OH240117   2.109   7.449   0.231
13387TIP3    H140118   2.132   7.494   0.312
13387TIP3    H240119   2.156   7.366   0.235
13388TIP3   OH240120   0.265   2.855   5.692
13388TIP3    H140121   0.349   2.815   5.669
13388TIP3    H240122   0.280   2.949   5.680
13389TIP3   OH240123   6.979   4.392   5.909
13389TIP3    H140124   6.963   4.485   5.925
13389TIP3    H240125   6.959   4.379   5.816
13390TIP3   OH240126   6.503   2.653   5.499
13390TIP3    H140127   6.481   2.696   5.417
13390TIP3    H240128   6.515   2.724   5.562
13391TIP3   OH240129   8.058   7.098   3.637
13391TIP3    H140130   8.061   7.016   3.589
13391TIP3    H240131   8.051   7.072   3.729
13392TIP3   OH240132   0.752   4.155   4.984
13392TIP3    H140133   0.759   4.060   4.990
13392TIP3    H240134   0.739   4.184   5.074
13393TIP3   OH240135   1.978   4.031   0.414
13393TIP3    H140136   2.046   4.003   0.474
13393TIP3    H240137   1.922   3.954   0.404
13394TIP3   OH240138   7.657   0.346   5.566
13394TIP3    H140139   7.697   0.419   5.519
13394TIP3    H240140   7.728   0.283   5.578
13395TIP3   OH240141   7.515   3.727   6.440
13395TIP3    H140142   7.530   3.646   6.391
13395TIP3    H240143   7.594   3.780   6.424
13396TIP3   OH240144   5.462   0.898   6.607
13396TIP3    H140145   5.514   0.883   6.686
13396TIP3    H240146   5.526   0.928   6.542
13397TIP3   OH240147   1.935   7.357   6.749
13397TIP3    H140148   1.855   7.410   6.750
13397TIP3    H240149   1.919   7.289   6.815
13398TIP3   OH240150   4.403   3.065   6.143
13398TIP3    H140151   4.465   3.124   6.186
13398TIP3    H240152   4.320   3.112   6.144
13399TIP3   OH240153   0.618   1.578   2.575
13399TIP3    H140154   0.643   1.486   2.571
13399TIP3    H240155   0.699   1.625   2.594
13400TIP3   OH240156   4.094   1.138   1.958
13400TIP3    H140157   4.132   1.054   1.932
13400TIP3    H240158   4.101   1.193   1.880
13401TIP3   OH240159   0.609   7.694   4.180
13401TIP3    H140160   0.618   7.608   4.222
13401TIP3    H240161   0.541   7.738   4.230
13402TIP3   OH240162   1.906   0.616   4.945
13402TIP3    H140163   1.831   0.653   4.992
13402TIP3    H240164   1.979   0.622   5.007
13403TIP3   OH240165   5.252   1.889   4.542
13403TIP3    H140166   5.219   1.804   4.573
13403TIP3    H240167   5.181   1.924   4.488
13404TIP3   OH240168   5.508   7.242   4.861
13404TIP3    H140169   5.481   7.239   4.769
13404TIP3    H240170   5.477   7.159   4.898
13405TIP3   OH240171   8.085   2.578   5.580
13405TIP3    H140172   7.996   2.544   5.589
13405TIP3    H240173   8.138   2.518   5.633
13406TIP3   OH240174   3.839   5.373   5.581
13406TIP3    H140175   3.846   5.463   5.549
13406TIP3    H240176   3.893   5.322   5.520
13407TIP3   OH240177   4.698   7.685   5.557
13407TIP3    H140178   4.761   7.615   5.577
13407TIP3    H240179   4.732   7.726   5.478
13408TIP3   OH240180   6.058   0.099   0.868
13408TIP3    H140181   6.051   0.019   0.817
13408TIP3    H240182   6.047   0.169   0.804
13409TIP3   OH240183   5.762   1.452   4.991
13409TIP3    H140184   5.693   1.515   5.010
13409TIP3    H240185   5.841   1.504   4.984
13410TIP3   OH240186   2.916   0.470   4.840
13410TIP3    H140187   2.913   0.496   4.748
13410TIP3    H240188   2.935   0.551   4.887
13411TIP3   OH240189   2.641   7.157   4.269
13411TIP3    H140190   2.586   7.090   4.228
13411TIP3    H240191   2.603   7.240   4.241
13412TIP3   OH240192   5.408   6.150   1.254
13412TIP3    H140193   5.372   6.180   1.171
13412TIP3    H240194   5.488   6.202   1.266
13413TIP3   OH240195   7.070   4.684   2.928
13413TIP3    H140196   7.049   4.766   2.884
13413TIP3    H240197   7.162   4.669   2.909
13414TIP3   OH240198   8.082   6.441   1.246
13414TIP3    H140199   8.177   6.438   1.244
13414TIP3    H240200   8.058   6.497   1.171
13415TIP3   OH240201   0.383   4.560   2.719
13415TIP3    H140202   0.392   4.655   2.706
13415TIP3    H240203   0.372   4.525   2.631
13416TIP3   OH240204   6.672   7.209   5.080
13416TIP3    H140205   6.667   7.303   5.097
13416TIP3    H240206   6.707   7.172   5.161
13417TIP3   OH240207   5.971   6.131   2.557
13417TIP3    H140208   5.918   6.078   2.617
13417TIP3    H240209   6.018   6.191   2.613
13418TIP3   OH240210   3.368   6.012   2.622
13418TIP3    H140211   3.379   5.917   2.619
13418TIP3    H240212   3.274   6.026   2.628
13419TIP3   OH240213   0.847   1.560   0.719
13419TIP3    H140214   0.847   1.465   0.730
13419TIP3    H240215   0.789   1.575   0.644
13420TIP3   OH240216   6.456   3.097   6.112
13420TIP3    H140217   6.529   3.157   6.127
13420TIP3    H240218   6.406   3.100   6.193
13421TIP3   OH240219   4.576   1.033   1.408
13421TIP3    H140220   4.564   1.082   1.490
13421TIP3    H240221   4.665   1.053   1.381
13422TIP3   OH240222   6.565   4.323   0.737
13422TIP3    H140223   6.559   4.404   0.787
13422TIP3    H240224   6.649   4.329   0.692
13423TIP3   OH240225   1.469   0.410   1.066
13423TIP3    H140226   1.483   0.325   1.109
13423TIP3    H240227   1.422   0.389   0.986
13424TIP3   OH240228   2.287   3.808   2.778
13424TIP3    H140229   2.247   3.749   2.843
13424TIP3    H240230   2.238   3.792   2.698
13425TIP3   OH240231   7.096   3.340   4.849
13425TIP3    H140232   7.013   3.376   4.816
13425TIP3    H240233   7.150   3.330   4.771
13426TIP3   OH240234   7.822   6.230   4.836
13426TIP3    H140235   7.727   6.217   4.846
13426TIP3    H240236   7.851   6.261   4.921
13427TIP3   OH240237   6.096   1.865   5.635
13427TIP3    H140238   6.097   1.777   5.671
13427TIP3    H240239   6.133   1.855   5.547
13428TIP3   OH240240   3.651   4.088   5.534
13428TIP3    H140241   3.683   4.166   5.489
13428TIP3    H240242   3.601   4.122   5.608
13429TIP3   OH240243   3.254   7.688   6.577
13429TIP3    H140244   3.212   7.735   6.506
13429TIP3    H240245   3.324   7.638   6.536
13430TIP3   OH240246   6.552   2.844   6.126
13430TIP3    H140247   6.623   2.856   6.064
13430TIP3    H240248   6.503   2.926   6.122
13431TIP3   OH240249   1.640   7.252   5.400
13431TIP3    H140250   1.712   7.304   5.364
13431TIP3    H240251   1.595   7.311   5.459
13432TIP3   OH240252   6.435   4.967   1.815
13432TIP3    H140253   6.407   4.877   1.836
13432TIP3    H240254   6.460   4.963   1.723
13433TIP3   OH240255   8.222   1.594   0.397
13433TIP3    H140256   8.274   1.536   0.452
13433TIP3    H240257   8.279   1.612   0.322
13434TIP3   OH240258   0.965   6.049   2.697
13434TIP3    H140259   0.898   6.033   2.763
13434TIP3    H240260   1.015   5.967   2.693
13435TIP3   OH240261   0.868   0.313   5.156
13435TIP3    H140262   0.841   0.340   5.244
13435TIP3    H240263   0.964   0.315   5.159
13436TIP3   OH240264   0.084   4.004   0.987
13436TIP3    H140265   0.114   4.001   0.896
13436TIP3    H240266  -0.003   3.964   0.985
13437TIP3   OH240267   7.866   4.090   3.164
13437TIP3    H140268   7.779   4.051   3.177
13437TIP3    H240269   7.901   4.044   3.088
13438TIP3   OH240270   6.063   1.361   4.839
13438TIP3    H140271   6.005   1.309   4.784
13438TIP3    H240272   6.048   1.451   4.810
13439TIP3   OH240273   4.712   4.386   4.473
13439TIP3    H140274   4.665   4.457   4.518
13439TIP3    H240275   4.740   4.327   4.543
13440TIP3   OH240276   7.054   2.263   5.434
13440TIP3    H140277   7.054   2.332   5.368
13440TIP3    H240278   6.975   2.279   5.486
13441TIP3   OH240279   6.379   0.578   1.121
13441TIP3    H140280   6.315   0.643   1.148
13441TIP3    H240281   6.430   0.559   1.200
13442TIP3   OH240282   5.081   4.839   6.122
13442TIP3    H140283   5.043   4.852   6.035
13442TIP3    H240284   5.051   4.751   6.147
13443TIP3   OH240285   5.628   4.725   1.747
13443TIP3    H140286   5.587   4.659   1.691
13443TIP3    H240287   5.721   4.702   1.746
13444TIP3   OH240288   3.966   4.445   0.764
13444TIP3    H140289   3.872   4.447   0.748
13444TIP3    H240290   4.000   4.521   0.716
13445TIP3   OH240291   7.665   4.152   1.488
13445TIP3    H140292   7.734   4.106   1.440
13445TIP3    H240293   7.712   4.205   1.553
13446TIP3   OH240294   2.719   2.969  -0.001
13446TIP3    H140295   2.629   2.989   0.022
13446TIP3    H240296   2.761   3.054  -0.010
13447TIP3   OH240297   2.781   6.769   1.995
13447TIP3    H140298   2.842   6.826   2.041
13447TIP3    H240299   2.713   6.827   1.963
13448TIP3   OH240300   5.267   1.126   4.971
13448TIP3    H140301   5.326   1.096   5.040
13448TIP3    H240302   5.194   1.167   5.018
13449TIP3   OH240303   1.451   4.113   5.162
13449TIP3    H140304   1.417   4.068   5.085
13449TIP3    H240305   1.474   4.200   5.130
13450TIP3   OH240306   5.180   0.403   3.740
13450TIP3    H140307   5.216   0.443   3.660
13450TIP3    H240308   5.120   0.469   3.774
13451TIP3   OH240309   0.732   2.400   1.671
13451TIP3    H140310   0.697   2.455   1.601
13451TIP3    H240311   0.658   2.345   1.698
13452TIP3   OH240312   2.360   4.250   1.451
13452TIP3    H140313   2.403   4.303   1.518
13452TIP3    H240314   2.301   4.311   1.406
13453TIP3   OH240315   0.262   4.917   6.312
13453TIP3    H140316   0.222   4.936   6.228
13453TIP3    H240317   0.194   4.869   6.360
13454TIP3   OH240318   5.305   3.637   5.654
13454TIP3    H140319   5.316   3.614   5.746
13454TIP3    H240320   5.278   3.555   5.612
13455TIP3   OH240321   1.938   5.267   0.580
13455TIP3    H140322   1.925   5.206   0.652
13455TIP3    H240323   2.010   5.229   0.529
13456TIP3   OH240324   4.189   5.245   2.725
13456TIP3    H140325   4.212   5.156   2.698
13456TIP3    H240326   4.179   5.240   2.820
13457TIP3   OH240327   4.535   3.875   5.343
13457TIP3    H140328   4.536   3.826   5.425
13457TIP3    H240329   4.616   3.926   5.344
13458TIP3   OH240330   3.610   3.982   0.532
13458TIP3    H140331   3.584   3.979   0.624
13458TIP3    H240332   3.589   4.070   0.503
13459TIP3   OH240333   4.361   5.995   5.161
13459TIP3    H140334   4.286   5.989   5.220
13459TIP3    H240335   4.323   6.024   5.077
13460TIP3   OH240336   3.733   1.022   1.073
13460TIP3    H140337   3.779   0.951   1.027
13460TIP3    H240338   3.660   0.979   1.116
13461TIP3   OH240339   7.434   7.255   4.520
13461TIP3    H140340   7.351   7.300   4.533
13461TIP3    H240341   7.501   7.322   4.534
13462TIP3   OH240342   7.301   3.297   5.529
13462TIP3    H140343   7.287   3.278   5.436
13462TIP3    H240344   7.321   3.212   5.568
13463TIP3   OH240345   3.885   3.858   4.941
13463TIP3    H140346   3.817   3.922   4.921
13463TIP3    H240347   3.964   3.892   4.900
13464TIP3   OH240348   0.094   1.643   1.366
13464TIP3    H140349   0.162   1.577   1.374
13464TIP3    H240350   0.091   1.685   1.452
13465TIP3   OH240351   5.984   0.257   2.487
13465TIP3    H140352   5.939   0.173   2.481
13465TIP3    H240353   5.970   0.286   2.577
13466TIP3   OH240354   4.578   2.100   6.714
13466TIP3    H140355   4.503   2.085   6.656
13466TIP3    H240356   4.636   2.026   6.697
13467TIP3   OH240357   7.515   4.043   1.148
13467TIP3    H140358   7.502   3.952   1.121
13467TIP3    H240359   7.609   4.058   1.142
13468TIP3   OH240360   2.432   5.404   0.697
13468TIP3    H140361   2.457   5.476   0.640
13468TIP3    H240362   2.394   5.446   0.774
13469TIP3   OH240363   3.923   4.203   0.893
13469TIP3    H140364   3.945   4.278   0.837
13469TIP3    H240365   4.006   4.178   0.933
13470TIP3   OH240366   0.350   0.959   5.252
13470TIP3    H140367   0.350   1.043   5.205
13470TIP3    H240368   0.262   0.952   5.289
13471TIP3   OH240369   6.597   0.914   0.199
13471TIP3    H140370   6.567   0.880   0.115
13471TIP3    H240371   6.519   0.915   0.254
13472TIP3   OH240372   1.565   5.645   5.096
13472TIP3    H140373   1.634   5.660   5.031
13472TIP3    H240374   1.586   5.560   5.134
13473TIP3   OH240375   0.328   0.844   6.685
13473TIP3    H140376   0.282   0.811   6.762
13473TIP3    H240377   0.329   0.939   6.697
13474TIP3   OH240378   4.646   3.755   2.863
13474TIP3    H140379   4.651   3.846   2.836
13474TIP3    H240380   4.555   3.730   2.846
13475TIP3   OH240381   3.362   1.792   2.459
13475TIP3    H140382   3.305   1.726   2.497
13475TIP3    H240383   3.371   1.859   2.527
13476TIP3   OH240384   2.529   2.961   3.569
13476TIP3    H140385   2.521   2.870   3.538
13476TIP3    H240386   2.502   3.014   3.494
13477TIP3   OH240387   4.472   2.729   1.541
13477TIP3    H140388   4.418   2.721   1.463
13477TIP3    H240389   4.523   2.808   1.527
13478TIP3   OH240390   5.978   7.645   2.938
13478TIP3    H140391   5.901   7.598   2.906
13478TIP3    H240392   6.052   7.602   2.896
13479TIP3   OH240393   4.132   4.138   4.292
13479TIP3    H140394   4.147   4.201   4.362
13479TIP3    H240395   4.120   4.191   4.213
13480TIP3   OH240396   6.568   7.775   0.724
13480TIP3    H140397   6.482   7.741   0.748
13480TIP3    H240398   6.567   7.778   0.629
13481TIP3   OH240399   4.767   5.217   0.607
13481TIP3    H140400   4.767   5.156   0.533
13481TIP3    H240401   4.838   5.187   0.663
13482TIP3   OH240402   4.544   5.162   1.072
13482TIP3    H140403   4.483   5.092   1.096
13482TIP3    H240404   4.507   5.200   0.993
13483TIP3   OH240405   1.606   3.947   5.329
13483TIP3    H140406   1.581   3.995   5.250
13483TIP3    H240407   1.524   3.906   5.359
13484TIP3   OH240408   6.793   1.311   5.924
13484TIP3    H140409   6.704   1.298   5.892
13484TIP3    H240410   6.781   1.339   6.015
13485TIP3   OH240411   6.141   3.022   0.039
13485TIP3    H140412   6.081   3.089   0.072
13485TIP3    H240413   6.214   3.022   0.102
13486TIP3   OH240414   3.960   7.425   4.963
13486TIP3    H140415   4.024   7.449   5.031
13486TIP3    H240416   3.890   7.381   5.011
13487TIP3   OH240417   3.186   0.013   2.628
13487TIP3    H140418   3.171   0.022   2.534
13487TIP3    H240419   3.102   0.032   2.668
13488TIP3   OH240420   4.537   2.908   5.433
13488TIP3    H140421   4.528   2.991   5.480
13488TIP3    H240422   4.491   2.844   5.489
13489TIP3   OH240423   7.200   6.020   0.542
13489TIP3    H140424   7.270   6.052   0.484
13489TIP3    H240425   7.181   5.932   0.510
13490TIP3   OH240426   0.517   4.871   6.218
13490TIP3    H140427   0.426   4.882   6.247
13490TIP3    H240428   0.566   4.857   6.299
13491TIP3   OH240429   7.294   3.279   4.226
13491TIP3    H140430   7.369   3.233   4.262
13491TIP3    H240431   7.224   3.264   4.290
13492TIP3   OH240432   1.752   0.793   1.327
13492TIP3    H140433   1.712   0.707   1.313
13492TIP3    H240434   1.843   0.783   1.299
13493TIP3   OH240435   6.366   1.840   2.449
13493TIP3    H140436   6.422   1.777   2.403
13493TIP3    H240437   6.424   1.885   2.509
13494TIP3   OH240438   6.405   5.207   6.432
13494TIP3    H140439   6.457   5.142   6.479
13494TIP3    H240440   6.438   5.203   6.342
13495TIP3   OH240441   2.415   4.548   3.651
13495TIP3    H140442   2.443   4.527   3.562
13495TIP3    H240443   2.400   4.463   3.692
13496TIP3   OH240444   6.404   1.018   2.148
13496TIP3    H140445   6.317   0.995   2.114
13496TIP3    H240446   6.457   1.030   2.070
13497TIP3   OH240447   1.142   2.023   1.805
13497TIP3    H140448   1.101   2.041   1.890
13497TIP3    H240449   1.200   2.097   1.790
13498TIP3   OH240450   4.922   6.630   5.565
13498TIP3    H140451   4.889   6.619   5.476
13498TIP3    H240452   4.907   6.546   5.607
13499TIP3   OH240453   0.467   5.479   4.045
13499TIP3    H140454   0.528   5.543   4.009
13499TIP3    H240455   0.385   5.495   4.000
13500TIP3   OH240456   7.112   3.895   5.107
13500TIP3    H140457   7.039   3.873   5.165
13500TIP3    H240458   7.124   3.989   5.118
13501TIP3   OH240459   4.012   5.602   0.751
13501TIP3    H140460   3.985   5.639   0.667
13501TIP3    H240461   3.936   5.611   0.808
13502TIP3   OH240462   7.224   4.361   2.852
13502TIP3    H140463   7.135   4.391   2.871
13502TIP3    H240464   7.280   4.436   2.869
13503TIP3   OH240465   3.287   1.710   1.324
13503TIP3    H140466   3.381   1.727   1.326
13503TIP3    H240467   3.275   1.635   1.382
13504TIP3   OH240468   8.100   2.182   4.836
13504TIP3    H140469   8.144   2.247   4.781
13504TIP3    H240470   8.083   2.229   4.918
13505TIP3   OH240471   3.389   6.822   6.104
13505TIP3    H140472   3.430   6.844   6.020
13505TIP3    H240473   3.375   6.906   6.147
13506TIP3   OH240474   3.078   5.500   2.137
13506TIP3    H140475   3.119   5.435   2.079
13506TIP3    H240476   3.059   5.574   2.080
13507TIP3   OH240477   3.993   4.131   3.477
13507TIP3    H140478   3.918   4.085   3.514
13507TIP3    H240479   4.061   4.126   3.544
13508TIP3   OH240480   2.181   0.304   1.364
13508TIP3    H140481   2.096   0.309   1.320
13508TIP3    H240482   2.174   0.227   1.420
13509TIP3   OH240483   1.745   4.667   5.843
13509TIP3    H140484   1.750   4.731   5.773
13509TIP3    H240485   1.682   4.703   5.905
13510TIP3   OH240486   2.633   5.397   4.965
13510TIP3    H140487   2.677   5.313   4.978
13510TIP3    H240488   2.544   5.374   4.940
13511TIP3   OH240489   7.425   2.799   5.647
13511TIP3    H140490   7.485   2.741   5.599
13511TIP3    H240491   7.338   2.767   5.624
13512TIP3   OH240492   2.116   0.547   4.274
13512TIP3    H140493   2.068   0.479   4.322
13512TIP3    H240494   2.053   0.580   4.210
13513TIP3   OH240495   4.832   7.455   4.460
13513TIP3    H140496   4.893   7.382   4.473
13513TIP3    H240497   4.747   7.421   4.487
13514TIP3   OH240498   0.869   7.812   3.559
13514TIP3    H140499   0.871   7.717   3.569
13514TIP3    H240500   0.797   7.828   3.498
13515TIP3   OH240501   3.630   4.773   1.185
13515TIP3    H140502   3.684   4.703   1.222
13515TIP3    H240503   3.687   4.850   1.186
13516TIP3   OH240504   7.564   1.822   5.691
13516TIP3    H140505   7.497   1.813   5.760
13516TIP3    H240506   7.640   1.775   5.726
13517TIP3   OH240507   3.114   0.042   0.090
13517TIP3    H140508   3.210   0.038   0.094
13517TIP3    H240509   3.085  -0.019   0.158
13518TIP3   OH240510   5.676   5.875   6.120
13518TIP3    H140511   5.743   5.881   6.188
13518TIP3    H240512   5.601   5.835   6.164
13519TIP3   OH240513   1.557   1.690   3.688
13519TIP3    H140514   1.618   1.617   3.698
13519TIP3    H240515   1.592   1.740   3.615
13520TIP3   OH240516   5.788   3.457   0.646
13520TIP3    H140517   5.825   3.381   0.602
13520TIP3    H240518   5.732   3.420   0.715
13521TIP3   OH240519   2.192   3.627   4.145
13521TIP3    H140520   2.214   3.583   4.227
13521TIP3    H240521   2.150   3.708   4.171
13522TIP3   OH240522   1.165   3.236   1.298
13522TIP3    H140523   1.256   3.214   1.275
13522TIP3    H240524   1.171   3.320   1.343
13523TIP3   OH240525   5.769   2.793   3.269
13523TIP3    H140526   5.807   2.875   3.300
13523TIP3    H240527   5.690   2.820   3.223
13524TIP3   OH240528   0.672   6.537   4.995
13524TIP3    H140529   0.706   6.457   5.036
13524TIP3    H240530   0.603   6.507   4.936
13525TIP3   OH240531   7.714   7.429   5.878
13525TIP3    H140532   7.784   7.494   5.883
13525TIP3    H240533   7.755   7.350   5.845
13526TIP3   OH240534   4.666   7.745   3.920
13526TIP3    H140535   4.692   7.710   3.835
13526TIP3    H240536   4.649   7.838   3.904
13527TIP3   OH240537   4.045   6.333   3.619
13527TIP3    H140538   4.134   6.297   3.617
13527TIP3    H240539   4.044   6.387   3.698
13528TIP3   OH240540   7.726   0.624   2.798
13528TIP3    H140541   7.764   0.539   2.775
13528TIP3    H240542   7.633   0.615   2.780
13529TIP3   OH240543   5.728   0.656   2.895
13529TIP3    H140544   5.646   0.635   2.851
13529TIP3    H240545   5.703   0.679   2.984
13530TIP3   OH240546   4.373   2.850   3.571
13530TIP3    H140547   4.357   2.944   3.579
13530TIP3    H240548   4.381   2.819   3.661
13531TIP3   OH240549   2.517   3.063   1.029
13531TIP3    H140550   2.585   3.069   1.096
13531TIP3    H240551   2.506   3.153   0.998
13532TIP3   OH240552   0.639   2.135   6.084
13532TIP3    H140553   0.576   2.184   6.030
13532TIP3    H240554   0.693   2.203   6.124
13533TIP3   OH240555   7.567   0.688   4.042
13533TIP3    H140556   7.491   0.689   4.101
13533TIP3    H240557   7.534   0.647   3.962
13534TIP3   OH240558   5.797   3.767   6.570
13534TIP3    H140559   5.797   3.761   6.665
13534TIP3    H240560   5.842   3.850   6.551
13535TIP3   OH240561   4.155   2.880   5.439
13535TIP3    H140562   4.064   2.905   5.452
13535TIP3    H240563   4.202   2.920   5.513
13536TIP3   OH240564   6.895   3.134   4.018
13536TIP3    H140565   6.963   3.113   3.954
13536TIP3    H240566   6.817   3.088   3.987
13537TIP3   OH240567   3.344   0.681   1.051
13537TIP3    H140568   3.284   0.738   1.002
13537TIP3    H240569   3.287   0.636   1.113
13538TIP3   OH240570   7.690   2.588   5.057
13538TIP3    H140571   7.710   2.527   4.986
13538TIP3    H240572   7.702   2.537   5.137
13539TIP3   OH240573   5.573   2.778   5.476
13539TIP3    H140574   5.513   2.853   5.469
13539TIP3    H240575   5.610   2.769   5.389
13540TIP3   OH240576   7.975   4.430   2.697
13540TIP3    H140577   7.945   4.465   2.613
13540TIP3    H240578   7.949   4.496   2.761
13541TIP3   OH240579   7.360   5.750   2.509
13541TIP3    H140580   7.272   5.761   2.544
13541TIP3    H240581   7.394   5.671   2.550
13542TIP3   OH240582   3.094   0.559   2.660
13542TIP3    H140583   3.160   0.543   2.593
13542TIP3    H240584   3.051   0.640   2.633
13543TIP3   OH240585   1.139   7.545   0.382
13543TIP3    H140586   1.046   7.561   0.370
13543TIP3    H240587   1.151   7.453   0.358
13544TIP3   OH240588   0.754   3.306   4.574
13544TIP3    H140589   0.751   3.263   4.660
13544TIP3    H240590   0.770   3.234   4.512
13545TIP3   OH240591   0.236   7.520   0.206
13545TIP3    H140592   0.263   7.581   0.275
13545TIP3    H240593   0.270   7.435   0.235
13546TIP3   OH240594   1.795   0.149   6.518
13546TIP3    H140595   1.825   0.240   6.526
13546TIP3    H240596   1.807   0.129   6.425
13547TIP3   OH240597   6.724   0.005   0.730
13547TIP3    H140598   6.676   0.077   0.772
13547TIP3    H240599   6.674  -0.074   0.753
13548TIP3   OH240600   4.538   3.961   4.553
13548TIP3    H140601   4.509   3.933   4.640
13548TIP3    H240602   4.626   3.925   4.544
13549TIP3   OH240603   0.647   1.541   4.056
13549TIP3    H140604   0.623   1.574   3.969
13549TIP3    H240605   0.711   1.604   4.088
13550TIP3   OH240606   4.662   6.046   2.657
13550TIP3    H140607   4.585   6.097   2.679
13550TIP3    H240608   4.628   5.968   2.614
13551TIP3   OH240609   7.465   6.686   3.837
13551TIP3    H140610   7.451   6.619   3.903
13551TIP3    H240611   7.389   6.744   3.844
13552TIP3   OH240612   6.414   2.720   0.921
13552TIP3    H140613   6.502   2.726   0.959
13552TIP3    H240614   6.397   2.808   0.886
13553TIP3   OH240615   8.095   0.885   5.642
13553TIP3    H140616   8.048   0.866   5.723
13553TIP3    H240617   8.030   0.875   5.573
13554TIP3   OH240618   5.223   1.318   1.476
13554TIP3    H140619   5.156   1.364   1.426
13554TIP3    H240620   5.227   1.363   1.560
13555TIP3   OH240621   5.865   7.120   6.120
13555TIP3    H140622   5.771   7.113   6.140
13555TIP3    H240623   5.906   7.138   6.205
13556TIP3   OH240624   7.328   2.128   0.807
13556TIP3    H140625   7.256   2.150   0.748
13556TIP3    H240626   7.407   2.146   0.756
13557TIP3   OH240627   5.847   6.322   3.420
13557TIP3    H140628   5.759   6.297   3.394
13557TIP3    H240629   5.875   6.252   3.480
13558TIP3   OH240630   7.303   0.640   5.559
13558TIP3    H140631   7.315   0.586   5.481
13558TIP3    H240632   7.323   0.729   5.530
13559TIP3   OH240633   3.705   6.721   3.740
13559TIP3    H140634   3.790   6.719   3.695
13559TIP3    H240635   3.703   6.805   3.785
13560TIP3   OH240636   0.880   6.859   4.547
13560TIP3    H140637   0.944   6.835   4.614
13560TIP3    H240638   0.840   6.776   4.522
13561TIP3   OH240639   4.537   0.035   4.302
13561TIP3    H140640   4.520   0.129   4.309
13561TIP3    H240641   4.550   0.006   4.393
13562TIP3   OH240642   1.515   5.659   2.628
13562TIP3    H140643   1.455   5.654   2.702
13562TIP3    H240644   1.602   5.648   2.667
13563TIP3   OH240645   2.751   1.429   4.050
13563TIP3    H140646   2.749   1.444   3.955
13563TIP3    H240647   2.841   1.406   4.069
13564TIP3   OH240648   1.743   0.830   6.570
13564TIP3    H140649   1.826   0.828   6.524
13564TIP3    H240650   1.720   0.922   6.576
13565TIP3   OH240651   7.794   7.187   3.883
13565TIP3    H140652   7.840   7.266   3.854
13565TIP3    H240653   7.861   7.119   3.883
13566TIP3   OH240654   3.286   1.922   4.876
13566TIP3    H140655   3.285   1.855   4.807
13566TIP3    H240656   3.233   1.994   4.840
13567TIP3   OH240657   3.690   1.953   3.394
13567TIP3    H140658   3.753   1.900   3.344
13567TIP3    H240659   3.644   1.889   3.449
13568TIP3   OH240660   4.527   2.795   0.679
13568TIP3    H140661   4.539   2.713   0.631
13568TIP3    H240662   4.442   2.787   0.721
13569TIP3   OH240663   0.216   2.549   5.876
13569TIP3    H140664   0.151   2.566   5.944
13569TIP3    H240665   0.300   2.575   5.916
13570TIP3   OH240666   7.183   4.042   5.635
13570TIP3    H140667   7.231   3.991   5.570
13570TIP3    H240668   7.114   4.085   5.584
13571TIP3   OH240669   7.793   0.991   0.591
13571TIP3    H140670   7.699   0.973   0.593
13571TIP3    H240671   7.803   1.073   0.640
13572TIP3   OH240672   3.246   0.568   6.058
13572TIP3    H140673   3.163   0.592   6.101
13572TIP3    H240674   3.313   0.617   6.107
13573TIP3   OH240675   1.526   0.120   2.481
13573TIP3    H140676   1.442   0.073   2.482
13573TIP3    H240677   1.591   0.052   2.501
13574TIP3   OH240678   2.689   7.364   4.872
13574TIP3    H140679   2.689   7.460   4.874
13574TIP3    H240680   2.650   7.341   4.788
13575TIP3   OH240681   4.607   5.327  -0.027
13575TIP3    H140682   4.637   5.373   0.051
13575TIP3    H240683   4.621   5.235  -0.008
13576TIP3   OH240684   7.322   1.390   4.437
13576TIP3    H140685   7.304   1.467   4.383
13576TIP3    H240686   7.252   1.329   4.415
13577TIP3   OH240687   5.551   3.690   4.531
13577TIP3    H140688   5.467   3.688   4.577
13577TIP3    H240689   5.545   3.765   4.472
13578TIP3   OH240690   0.161   3.231   1.244
13578TIP3    H140691   0.227   3.163   1.232
13578TIP3    H240692   0.176   3.292   1.172
13579TIP3   OH240693   6.558   1.294   5.150
13579TIP3    H140694   6.610   1.372   5.136
13579TIP3    H240695   6.605   1.225   5.104
13580TIP3   OH240696   7.562   7.438   5.571
13580TIP3    H140697   7.530   7.492   5.499
13580TIP3    H240698   7.645   7.477   5.596
13581TIP3   OH240699   4.833   2.974   5.606
13581TIP3    H140700   4.770   2.942   5.671
13581TIP3    H240701   4.866   2.895   5.563
13582TIP3   OH240702   1.025   6.865   6.433
13582TIP3    H140703   1.117   6.892   6.422
13582TIP3    H240704   0.998   6.907   6.515
13583TIP3   OH240705   6.231   4.881   0.108
13583TIP3    H140706   6.200   4.952   0.052
13583TIP3    H240707   6.241   4.806   0.049
13584TIP3   OH240708   2.018   2.998   0.717
13584TIP3    H140709   2.034   2.930   0.652
13584TIP3    H240710   1.931   2.979   0.750
13585TIP3   OH240711   3.849   2.550   6.278
13585TIP3    H140712   3.904   2.521   6.205
13585TIP3    H240713   3.826   2.640   6.257
13586TIP3   OH240714   6.001   6.840   0.020
13586TIP3    H140715   6.069   6.778   0.046
13586TIP3    H240716   5.963   6.870   0.103
13587TIP3   OH240717   6.542   5.037   3.234
13587TIP3    H140718   6.543   4.969   3.167
13587TIP3    H240719   6.508   4.993   3.312
13588TIP3   OH240720   2.528   2.447   2.184
13588TIP3    H140721   2.459   2.467   2.121
13588TIP3    H240722   2.555   2.357   2.162
13589TIP3   OH240723   4.309   3.229   6.425
13589TIP3    H140724   4.297   3.180   6.507
13589TIP3    H240725   4.394   3.272   6.436
13590TIP3   OH240726   5.964   0.223   3.415
13590TIP3    H140727   5.917   0.181   3.343
13590TIP3    H240728   5.898   0.275   3.460
13591TIP3   OH240729   2.020   1.136   2.701
13591TIP3    H140730   2.035   1.048   2.667
13591TIP3    H240731   2.016   1.125   2.795
13592TIP3   OH240732   0.030   3.469   0.812
13592TIP3    H140733   0.081   3.546   0.786
13592TIP3    H240734  -0.061   3.500   0.815
13593TIP3   OH240735   4.453   4.313   6.787
13593TIP3    H140736   4.481   4.241   6.730
13593TIP3    H240737   4.362   4.329   6.762
13594TIP3   OH240738   7.436   6.047   1.434
13594TIP3    H140739   7.490   5.986   1.384
13594TIP3    H240740   7.473   6.133   1.415
13595TIP3   OH240741   2.765   2.071   1.605
13595TIP3    H140742   2.782   2.160   1.634
13595TIP3    H240743   2.852   2.036   1.584
13596TIP3   OH240744   6.948   0.909   1.326
13596TIP3    H140745   6.866   0.874   1.361
13596TIP3    H240746   6.988   0.956   1.399
13597TIP3   OH240747   5.636   1.376   5.667
13597TIP3    H140748   5.702   1.321   5.710
13597TIP3    H240749   5.634   1.456   5.720
13598TIP3   OH240750   3.866   0.035   0.991
13598TIP3    H140751   3.931  -0.016   0.942
13598TIP3    H240752   3.781   0.003   0.958
13599TIP3   OH240753   4.301   6.983   4.723
13599TIP3    H140754   4.308   7.021   4.636
13599TIP3    H240755   4.248   6.904   4.711
13600TIP3   OH240756   6.111   7.172   2.780
13600TIP3    H140757   6.134   7.134   2.695
13600TIP3    H240758   6.148   7.111   2.844
13601TIP3   OH240759   2.216   4.483   5.277
13601TIP3    H140760   2.217   4.403   5.225
13601TIP3    H240761   2.136   4.476   5.329
13602TIP3   OH240762   0.185   7.179   2.104
13602TIP3    H140763   0.267   7.188   2.054
13602TIP3    H240764   0.186   7.088   2.135
13603TIP3   OH240765   4.704   0.949   3.522
13603TIP3    H140766   4.786   0.997   3.511
13603TIP3    H240767   4.636   1.011   3.498
13604TIP3   OH240768   6.809   2.595   6.609
13604TIP3    H140769   6.857   2.570   6.687
13604TIP3    H240770   6.831   2.686   6.594
13605TIP3   OH240771   3.049   7.559   3.152
13605TIP3    H140772   3.044   7.632   3.091
13605TIP3    H240773   2.966   7.513   3.141
13606TIP3   OH240774   5.566   4.228   1.517
13606TIP3    H140775   5.530   4.238   1.605
13606TIP3    H240776   5.615   4.146   1.521
13607TIP3   OH240777   6.201   5.735   6.056
13607TIP3    H140778   6.139   5.663   6.068
13607TIP3    H240779   6.192   5.760   5.964
13608TIP3   OH240780   2.968   0.991   0.376
13608TIP3    H140781   2.994   0.915   0.428
13608TIP3    H240782   3.039   1.005   0.315
13609TIP3   OH240783   0.899   3.178   5.056
13609TIP3    H140784   0.860   3.120   5.121
13609TIP3    H240785   0.993   3.174   5.073
13610TIP3   OH240786   3.655   5.507   2.324
13610TIP3    H140787   3.748   5.483   2.327
13610TIP3    H240788   3.611   5.438   2.374
13611TIP3   OH240789   1.977   5.494   0.039
13611TIP3    H140790   1.989   5.548   0.117
13611TIP3    H240791   1.892   5.453   0.051
13612TIP3   OH240792   5.112   7.008   0.004
13612TIP3    H140793   5.186   7.049   0.048
13612TIP3    H240794   5.091   6.932   0.057
13613TIP3   OH240795   2.681   1.884   3.435
13613TIP3    H140796   2.604   1.936   3.455
13613TIP3    H240797   2.724   1.869   3.519
13614TIP3   OH240798   6.089   7.675   6.645
13614TIP3    H140799   6.027   7.746   6.660
13614TIP3    H240800   6.112   7.682   6.552
13615TIP3   OH240801   7.892   4.983   4.079
13615TIP3    H140802   7.966   4.961   4.136
13615TIP3    H240803   7.815   4.952   4.127
13616TIP3   OH240804   7.143   4.671   0.407
13616TIP3    H140805   7.146   4.723   0.326
13616TIP3    H240806   7.204   4.715   0.466
13617TIP3   OH240807   2.667   0.353   5.739
13617TIP3    H140808   2.680   0.263   5.710
13617TIP3    H240809   2.595   0.385   5.685
13618TIP3   OH240810   3.143   1.518   6.571
13618TIP3    H140811   3.208   1.540   6.505
13618TIP3    H240812   3.059   1.519   6.524
13619TIP3   OH240813   7.119   4.962   2.854
13619TIP3    H140814   7.209   4.972   2.821
13619TIP3    H240815   7.122   4.999   2.942
13620TIP3   OH240816   2.304   1.217   6.479
13620TIP3    H140817   2.221   1.234   6.435
13620TIP3    H240818   2.365   1.280   6.439
13621TIP3   OH240819   1.906   7.505   3.796
13621TIP3    H140820   1.940   7.579   3.746
13621TIP3    H240821   1.983   7.467   3.839
13622TIP3   OH240822   6.731   0.963   2.064
13622TIP3    H140823   6.749   1.057   2.059
13622TIP3    H240824   6.787   0.924   1.997
13623TIP3   OH240825   3.808   7.774   0.473
13623TIP3    H140826   3.735   7.712   0.478
13623TIP3    H240827   3.777   7.851   0.522
13624TIP3   OH240828   1.750   1.354   2.856
13624TIP3    H140829   1.766   1.281   2.796
13624TIP3    H240830   1.724   1.426   2.799
13625TIP3   OH240831   4.196   4.861   4.431
13625TIP3    H140832   4.106   4.856   4.463
13625TIP3    H240833   4.217   4.954   4.436
13626TIP3   OH240834   2.071   0.979   5.513
13626TIP3    H140835   2.150   0.977   5.568
13626TIP3    H240836   2.004   0.937   5.567
13627TIP3   OH240837   2.371   1.880   6.205
13627TIP3    H140838   2.458   1.916   6.189
13627TIP3    H240839   2.322   1.953   6.244
13628TIP3   OH240840   4.082   2.190   1.449
13628TIP3    H140841   3.991   2.184   1.477
13628TIP3    H240842   4.077   2.199   1.354
13629TIP3   OH240843   2.363   7.084   1.776
13629TIP3    H140844   2.271   7.057   1.785
13629TIP3    H240845   2.363   7.145   1.702
13630TIP3   OH240846   6.021   4.405   4.634
13630TIP3    H140847   6.000   4.408   4.727
13630TIP3    H240848   5.979   4.481   4.596
13631TIP3   OH240849   6.377   6.046   1.165
13631TIP3    H140850   6.400   5.966   1.211
13631TIP3    H240851   6.461   6.086   1.142
13632TIP3   OH240852   0.496   7.296   4.670
13632TIP3    H140853   0.494   7.364   4.738
13632TIP3    H240854   0.569   7.239   4.696
13633TIP3   OH240855   3.356   0.366   3.502
13633TIP3    H140856   3.373   0.355   3.595
13633TIP3    H240857   3.369   0.279   3.464
13634TIP3   OH240858   2.333   5.320   6.475
13634TIP3    H140859   2.353   5.398   6.423
13634TIP3    H240860   2.269   5.271   6.423
13635TIP3   OH240861   3.266   4.346   4.397
13635TIP3    H140862   3.196   4.283   4.413
13635TIP3    H240863   3.293   4.331   4.307
13636TIP3   OH240864   4.173   6.046   3.850
13636TIP3    H140865   4.188   6.133   3.886
13636TIP3    H240866   4.088   6.052   3.807
13637TIP3   OH240867   6.700   5.136   4.185
13637TIP3    H140868   6.681   5.076   4.113
13637TIP3    H240869   6.673   5.088   4.263
13638TIP3   OH240870   1.302   2.699   0.886
13638TIP3    H140871   1.300   2.746   0.970
13638TIP3    H240872   1.320   2.608   0.911
13639TIP3   OH240873   7.686   7.409   1.348
13639TIP3    H140874   7.700   7.315   1.335
13639TIP3    H240875   7.592   7.422   1.331
13640TIP3   OH240876   7.460   1.186   2.761
13640TIP3    H140877   7.471   1.137   2.679
13640TIP3    H240878   7.399   1.133   2.812
13641TIP3   OH240879   5.814   0.555   1.642
13641TIP3    H140880   5.832   0.481   1.701
13641TIP3    H240881   5.888   0.555   1.581
13642TIP3   OH240882   3.690   6.816   2.278
13642TIP3    H140883   3.637   6.755   2.329
13642TIP3    H240884   3.755   6.849   2.339
13643TIP3   OH240885   4.488   0.615   5.626
13643TIP3    H140886   4.564   0.640   5.679
13643TIP3    H240887   4.491   0.519   5.624
13644TIP3   OH240888   0.995   6.294   1.581
13644TIP3    H140889   1.072   6.245   1.552
13644TIP3    H240890   1.005   6.302   1.676
13645TIP3   OH240891   6.338   0.348   0.940
13645TIP3    H140892   6.350   0.434   0.981
13645TIP3    H240893   6.249   0.322   0.962
13646TIP3   OH240894   7.040   7.355   0.787
13646TIP3    H140895   7.046   7.397   0.873
13646TIP3    H240896   6.947   7.348   0.770
13647TIP3   OH240897   8.028   1.234   2.826
13647TIP3    H140898   8.110   1.203   2.865
13647TIP3    H240899   8.055   1.300   2.762
13648TIP3   OH240900   3.778   0.166   4.947
13648TIP3    H140901   3.735   0.100   5.001
13648TIP3    H240902   3.798   0.121   4.865
13649TIP3   OH240903   2.600   0.104   5.702
13649TIP3    H140904   2.605   0.048   5.779
13649TIP3    H240905   2.508   0.127   5.695
13650TIP3   OH240906   4.842   2.488   1.821
13650TIP3    H140907   4.780   2.530   1.882
13650TIP3    H240908   4.877   2.560   1.769
13651TIP3   OH240909   0.180   1.838   2.448
13651TIP3    H140910   0.153   1.746   2.450
13651TIP3    H240911   0.162   1.869   2.537
13652TIP3   OH240912   1.887   7.332   3.234
13652TIP3    H140913   1.804   7.353   3.277
13652TIP3    H240914   1.954   7.344   3.302
13653TIP3   OH240915   6.836   4.358   4.265
13653TIP3    H140916   6.857   4.265   4.275
13653TIP3    H240917   6.884   4.385   4.187
13654TIP3   OH240918   1.421   1.742   5.906
13654TIP3    H140919   1.461   1.667   5.861
13654TIP3    H240920   1.369   1.702   5.977
13655TIP3   OH240921   5.778   0.254   5.261
13655TIP3    H140922   5.752   0.344   5.244
13655TIP3    H240923   5.835   0.231   5.188
13656TIP3   OH240924   7.981   3.624   2.590
13656TIP3    H140925   7.892   3.658   2.604
13656TIP3    H240926   8.006   3.657   2.504
13657TIP3   OH240927   3.865   5.015   0.806
13657TIP3    H140928   3.785   5.018   0.754
13657TIP3    H240929   3.876   4.923   0.830
13658TIP3   OH240930   8.276   5.409   1.736
13658TIP3    H140931   8.288   5.504   1.735
13658TIP3    H240932   8.229   5.390   1.655
13659TIP3   OH240933   6.323   7.358   6.339
13659TIP3    H140934   6.398   7.417   6.337
13659TIP3    H240935   6.288   7.361   6.250
13660TIP3   OH240936   0.638   2.547   0.921
13660TIP3    H140937   0.721   2.567   0.877
13660TIP3    H240938   0.614   2.628   0.965
13661TIP3   OH240939   0.217   3.875   3.801
13661TIP3    H140940   0.137   3.927   3.796
13661TIP3    H240941   0.280   3.932   3.846
13662TIP3   OH240942   1.579   0.047   3.319
13662TIP3    H140943   1.545   0.011   3.401
13662TIP3    H240944   1.649  -0.014   3.294
13663TIP3   OH240945   4.289   3.669   2.412
13663TIP3    H140946   4.287   3.758   2.447
13663TIP3    H240947   4.197   3.644   2.403
13664TIP3   OH240948   0.423   4.743   4.594
13664TIP3    H140949   0.489   4.698   4.541
13664TIP3    H240950   0.465   4.824   4.622
13665TIP3   OH240951   6.075   7.227   2.441
13665TIP3    H140952   5.980   7.223   2.450
13665TIP3    H240953   6.106   7.143   2.473
13666TIP3   OH240954   1.506   2.975   2.442
13666TIP3    H140955   1.473   3.064   2.430
13666TIP3    H240956   1.435   2.929   2.487
13667TIP3   OH240957   7.589   6.141   5.367
13667TIP3    H140958   7.561   6.086   5.440
13667TIP3    H240959   7.667   6.098   5.333
13668TIP3   OH240960   4.325   7.500   1.559
13668TIP3    H140961   4.250   7.442   1.576
13668TIP3    H240962   4.286   7.586   1.549
13669TIP3   OH240963   0.348   6.732   0.934
13669TIP3    H140964   0.317   6.642   0.937
13669TIP3    H240965   0.412   6.733   0.862
13670TIP3   OH240966   2.282   2.631   3.345
13670TIP3    H140967   2.242   2.566   3.403
13670TIP3    H240968   2.212   2.658   3.286
13671TIP3   OH240969   0.269   6.351   5.236
13671TIP3    H140970   0.218   6.280   5.275
13671TIP3    H240971   0.358   6.318   5.232
13672TIP3   OH240972   1.153   4.471   6.793
13672TIP3    H140973   1.115   4.410   6.730
13672TIP3    H240974   1.118   4.556   6.769
13673TIP3   OH240975   5.301   6.403   5.248
13673TIP3    H140976   5.327   6.485   5.290
13673TIP3    H240977   5.238   6.430   5.181
13674TIP3   OH240978   1.368   4.472   6.505
13674TIP3    H140979   1.329   4.558   6.495
13674TIP3    H240980   1.419   4.477   6.585
13675TIP3   OH240981   6.754   4.040   2.271
13675TIP3    H140982   6.690   4.008   2.335
13675TIP3    H240983   6.709   4.112   2.227
13676TIP3   OH240984   0.299   1.844   3.469
13676TIP3    H140985   0.285   1.756   3.435
13676TIP3    H240986   0.264   1.902   3.401
13677TIP3   OH240987   5.494   0.530   5.770
13677TIP3    H140988   5.465   0.445   5.736
13677TIP3    H240989   5.588   0.519   5.783
13678TIP3   OH240990   5.175   1.564   5.172
13678TIP3    H140991   5.197   1.624   5.244
13678TIP3    H240992   5.081   1.573   5.161
13679TIP3   OH240993   8.222   1.586   6.506
13679TIP3    H140994   8.264   1.613   6.424
13679TIP3    H240995   8.276   1.626   6.574
13680TIP3   OH240996   0.573   4.210   6.671
13680TIP3    H140997   0.581   4.258   6.753
13680TIP3    H240998   0.597   4.120   6.693
13681TIP3   OH240999   5.440   3.351   2.712
13681TIP3    H141000   5.459   3.359   2.619
13681TIP3    H241001   5.525   3.360   2.755
13682TIP3   OH241002   6.733   1.681   2.758
13682TIP3    H141003   6.823   1.655   2.777
13682TIP3    H241004   6.741   1.751   2.693
13683TIP3   OH241005   4.566   2.375   6.723
13683TIP3    H141006   4.554   2.438   6.651
13683TIP3    H241007   4.513   2.300   6.698
13684TIP3   OH241008   2.161   5.509   6.644
13684TIP3    H141009   2.142   5.439   6.707
13684TIP3    H241010   2.219   5.468   6.580
13685TIP3   OH241011   5.046   0.986   2.028
13685TIP3    H141012   5.120   0.926   2.015
13685TIP3    H241013   4.998   0.983   1.945
13686TIP3   OH241014   0.813   2.466   5.163
13686TIP3    H141015   0.801   2.535   5.097
13686TIP3    H241016   0.908   2.457   5.170
13687TIP3   OH241017   1.448   0.543   1.985
13687TIP3    H141018   1.528   0.527   1.935
13687TIP3    H241019   1.425   0.634   1.966
13688TIP3   OH241020   7.600   3.878   3.339
13688TIP3    H141021   7.694   3.868   3.325
13688TIP3    H241022   7.571   3.935   3.267
13689TIP3   OH241023   3.271   6.165   5.850
13689TIP3    H141024   3.186   6.172   5.893
13689TIP3    H241025   3.289   6.071   5.849
13690TIP3   OH241026   4.232   3.962   4.508
13690TIP3    H141027   4.327   3.956   4.516
13690TIP3    H241028   4.218   4.027   4.440
13691TIP3   OH241029   3.323   1.849   5.330
13691TIP3    H141030   3.407   1.804   5.341
13691TIP3    H241031   3.329   1.925   5.388
13692TIP3   OH241032   6.102   1.349   3.433
13692TIP3    H141033   6.097   1.326   3.340
13692TIP3    H241034   6.145   1.273   3.474
13693TIP3   OH241035   1.706   6.822   3.269
13693TIP3    H141036   1.799   6.843   3.268
13693TIP3    H241037   1.683   6.821   3.362
13694TIP3   OH241038   6.561   1.796   5.652
13694TIP3    H141039   6.550   1.724   5.590
13694TIP3    H241040   6.472   1.830   5.665
13695TIP3   OH241041   1.520   4.337   2.729
13695TIP3    H141042   1.528   4.244   2.752
13695TIP3    H241043   1.546   4.383   2.809
13696TIP3   OH241044   2.101   7.443   2.710
13696TIP3    H141045   2.072   7.440   2.618
13696TIP3    H241046   2.049   7.376   2.754
13697TIP3   OH241047   0.150   0.514   5.935
13697TIP3    H141048   0.166   0.517   6.029
13697TIP3    H241049   0.236   0.528   5.896
13698TIP3   OH241050   7.717   0.881   2.909
13698TIP3    H141051   7.804   0.915   2.887
13698TIP3    H241052   7.713   0.796   2.865
13699TIP3   OH241053   1.855   4.522   0.332
13699TIP3    H141054   1.776   4.556   0.290
13699TIP3    H241055   1.823   4.460   0.398
13700TIP3   OH241056   4.839   2.284   2.687
13700TIP3    H141057   4.772   2.219   2.664
13700TIP3    H241058   4.819   2.359   2.632
13701TIP3   OH241059   3.383   6.085   5.248
13701TIP3    H141060   3.373   6.064   5.155
13701TIP3    H241061   3.419   6.006   5.287
13702TIP3   OH241062   3.118   5.865   4.133
13702TIP3    H141063   3.027   5.888   4.151
13702TIP3    H241064   3.125   5.867   4.037
13703TIP3   OH241065   2.814   6.452   4.957
13703TIP3    H141066   2.858   6.415   4.881
13703TIP3    H241067   2.734   6.491   4.921
13704TIP3   OH241068   5.255   4.021   2.681
13704TIP3    H141069   5.209   3.975   2.751
13704TIP3    H241070   5.273   4.108   2.717
13705TIP3   OH241071   7.261   5.715   0.781
13705TIP3    H141072   7.200   5.778   0.819
13705TIP3    H241073   7.206   5.653   0.733
13706TIP3   OH241074   1.649   0.569   1.248
13706TIP3    H141075   1.640   0.491   1.195
13706TIP3    H241076   1.639   0.539   1.338
13707TIP3   OH241077   1.742   3.746   1.846
13707TIP3    H141078   1.679   3.725   1.915
13707TIP3    H241079   1.720   3.836   1.820
13708TIP3   OH241080   1.508   0.729   6.644
13708TIP3    H141081   1.591   0.764   6.612
13708TIP3    H241082   1.527   0.638   6.666
13709TIP3   OH241083   1.543   6.661   2.803
13709TIP3    H141084   1.532   6.576   2.761
13709TIP3    H241085   1.581   6.640   2.889
13710TIP3   OH241086   7.362   0.645   3.845
13710TIP3    H141087   7.280   0.668   3.887
13710TIP3    H241088   7.401   0.729   3.820
13711TIP3   OH241089   2.502   6.596   6.316
13711TIP3    H141090   2.529   6.504   6.321
13711TIP3    H241091   2.426   6.602   6.373
13712TIP3   OH241092   6.773   6.750   0.611
13712TIP3    H141093   6.755   6.710   0.527
13712TIP3    H241094   6.775   6.844   0.593
13713TIP3   OH241095   2.120   6.466   1.497
13713TIP3    H141096   2.212   6.490   1.491
13713TIP3    H241097   2.073   6.544   1.468
13714TIP3   OH241098   6.672   0.065   1.375
13714TIP3    H141099   6.659   0.026   1.289
13714TIP3    H241100   6.626   0.149   1.371
13715TIP3   OH241101   3.186   0.452   4.105
13715TIP3    H141102   3.129   0.481   4.034
13715TIP3    H241103   3.213   0.532   4.149
13716TIP3   OH241104   3.067   7.050   5.725
13716TIP3    H141105   3.056   6.956   5.708
13716TIP3    H241106   3.017   7.093   5.655
13717TIP3   OH241107   0.322   7.762   4.141
13717TIP3    H141108   0.328   7.846   4.186
13717TIP3    H241109   0.284   7.702   4.206
13718TIP3   OH241110   0.044   5.696   1.820
13718TIP3    H141111   0.136   5.714   1.800
13718TIP3    H241112   0.043   5.677   1.914
13719TIP3   OH241113   8.232   2.566   2.311
13719TIP3    H141114   8.141   2.544   2.331
13719TIP3    H241115   8.228   2.657   2.279
13720TIP3   OH241116  -0.006   6.023   2.292
13720TIP3    H141117  -0.055   6.033   2.373
13720TIP3    H241118   0.083   6.052   2.315
13721TIP3   OH241119   7.171   2.312   4.906
13721TIP3    H141120   7.110   2.248   4.869
13721TIP3    H241121   7.247   2.310   4.848
13722TIP3   OH241122   5.519   4.182   5.969
13722TIP3    H141123   5.594   4.210   6.021
13722TIP3    H241124   5.500   4.256   5.912
13723TIP3   OH241125   4.920   3.152   5.967
13723TIP3    H141126   4.897   3.217   6.033
13723TIP3    H241127   4.974   3.089   6.013
13724TIP3   OH241128   4.562   0.662   4.096
13724TIP3    H141129   4.467   0.650   4.100
13724TIP3    H241130   4.592   0.643   4.185
13725TIP3   OH241131   1.475   2.515   4.785
13725TIP3    H141132   1.399   2.565   4.813
13725TIP3    H241133   1.451   2.424   4.803
13726TIP3   OH241134   5.184   3.738   4.301
13726TIP3    H141135   5.189   3.677   4.227
13726TIP3    H241136   5.166   3.823   4.261
13727TIP3   OH241137   1.672   2.575   4.989
13727TIP3    H141138   1.614   2.600   4.917
13727TIP3    H241139   1.644   2.486   5.012
13728TIP3   OH241140   2.509   5.861   3.526
13728TIP3    H141141   2.530   5.926   3.459
13728TIP3    H241142   2.590   5.814   3.540
13729TIP3   OH241143   5.054   0.630   3.440
13729TIP3    H141144   4.968   0.665   3.464
13729TIP3    H241145   5.098   0.703   3.397
13730TIP3   OH241146   1.773   7.161   1.979
13730TIP3    H141147   1.733   7.102   2.043
13730TIP3    H241148   1.742   7.129   1.894
13731TIP3   OH241149   1.164   1.051   2.714
13731TIP3    H141150   1.255   1.025   2.708
13731TIP3    H241151   1.122   1.007   2.640
13732TIP3   OH241152   3.404   6.651   4.318
13732TIP3    H141153   3.323   6.640   4.367
13732TIP3    H241154   3.377   6.694   4.236
13733TIP3   OH241155   4.046   4.519   6.316
13733TIP3    H141156   4.080   4.591   6.263
13733TIP3    H241157   4.113   4.504   6.383
13734TIP3   OH241158   5.694   5.082   5.537
13734TIP3    H141159   5.631   5.153   5.550
13734TIP3    H241160   5.674   5.049   5.449
13735TIP3   OH241161   5.264   4.473   4.054
13735TIP3    H141162   5.318   4.444   3.980
13735TIP3    H241163   5.204   4.400   4.070
13736TIP3   OH241164   3.933   0.107   6.303
13736TIP3    H141165   3.892   0.058   6.232
13736TIP3    H241166   3.905   0.198   6.290
13737TIP3   OH241167   0.150   4.206   3.937
13737TIP3    H141168   0.164   4.132   3.878
13737TIP3    H241169   0.218   4.269   3.913
13738TIP3   OH241170   1.428   7.655   4.564
13738TIP3    H141171   1.492   7.726   4.574
13738TIP3    H241172   1.373   7.660   4.643
13739TIP3   OH241173   3.698   2.972   3.094
13739TIP3    H141174   3.660   3.005   3.013
13739TIP3    H241175   3.632   2.912   3.129
13740TIP3   OH241176   0.283   4.134   3.635
13740TIP3    H141177   0.232   4.105   3.559
13740TIP3    H241178   0.263   4.227   3.644
13741TIP3   OH241179   0.777   0.950   0.669
13741TIP3    H141180   0.790   0.859   0.644
13741TIP3    H241181   0.862   0.991   0.656
13742TIP3   OH241182   8.136   3.195   1.823
13742TIP3    H141183   8.141   3.100   1.824
13742TIP3    H241184   8.197   3.223   1.892
13743TIP3   OH241185   0.592   6.684   6.322
13743TIP3    H141186   0.522   6.718   6.378
13743TIP3    H241187   0.590   6.741   6.245
13744TIP3   OH241188   2.080   5.546   5.320
13744TIP3    H141189   2.112   5.491   5.392
13744TIP3    H241190   2.160   5.578   5.278
13745TIP3   OH241191   0.302   6.812   3.459
13745TIP3    H141192   0.357   6.890   3.462
13745TIP3    H241193   0.350   6.750   3.404
13746TIP3   OH241194   7.003   6.665   3.898
13746TIP3    H141195   6.968   6.577   3.906
13746TIP3    H241196   6.942   6.711   3.841
13747TIP3   OH241197   7.988   6.014   2.956
13747TIP3    H141198   8.006   6.098   2.915
13747TIP3    H241199   7.893   6.014   2.970
13748TIP3   OH241200   8.158   4.082   0.097
13748TIP3    H141201   8.243   4.121   0.116
13748TIP3    H241202   8.101   4.113   0.167
13749TIP3   OH241203   0.769   3.424   2.482
13749TIP3    H141204   0.793   3.392   2.395
13749TIP3    H241205   0.696   3.367   2.509
13750TIP3   OH241206   7.613   5.374   6.450
13750TIP3    H141207   7.554   5.306   6.418
13750TIP3    H241208   7.642   5.343   6.536
13751TIP3   OH241209   3.887   1.658   1.831
13751TIP3    H141210   3.816   1.718   1.855
13751TIP3    H241211   3.912   1.617   1.914
13752TIP3   OH241212   6.115   5.045   1.080
13752TIP3    H141213   6.117   5.096   0.999
13752TIP3    H241214   6.143   4.957   1.054
13753TIP3   OH241215   2.364   1.182   6.752
13753TIP3    H141216   2.415   1.261   6.738
13753TIP3    H241217   2.300   1.182   6.681
13754TIP3   OH241218   1.172   2.775   5.195
13754TIP3    H141219   1.233   2.702   5.184
13754TIP3    H241220   1.211   2.828   5.264
13755TIP3   OH241221   0.260   1.968   0.121
13755TIP3    H141222   0.355   1.969   0.106
13755TIP3    H241223   0.251   1.959   0.216
13756TIP3   OH241224   5.941   0.913   4.560
13756TIP3    H141225   5.865   0.857   4.575
13756TIP3    H241226   5.949   0.916   4.464
13757TIP3   OH241227   5.339   3.140   0.108
13757TIP3    H141228   5.339   3.110   0.199
13757TIP3    H241229   5.320   3.234   0.115
13758TIP3   OH241230   3.815   3.291   2.966
13758TIP3    H141231   3.753   3.362   2.949
13758TIP3    H241232   3.803   3.231   2.892
13759TIP3   OH241233   4.332   4.628   4.444
13759TIP3    H141234   4.312   4.592   4.357
13759TIP3    H241235   4.284   4.711   4.447
13760TIP3   OH241236   3.434   6.204   1.493
13760TIP3    H141237   3.464   6.291   1.466
13760TIP3    H241238   3.497   6.176   1.560
13761TIP3   OH241239   2.807   2.988   2.504
13761TIP3    H141240   2.775   2.968   2.592
13761TIP3    H241241   2.748   2.942   2.445
13762TIP3   OH241242   3.507   3.260   3.654
13762TIP3    H141243   3.573   3.193   3.670
13762TIP3    H241244   3.440   3.216   3.602
13763TIP3   OH241245   3.304   1.646   0.582
13763TIP3    H141246   3.326   1.554   0.569
13763TIP3    H241247   3.383   1.686   0.618
13764TIP3   OH241248   7.054   7.174   6.439
13764TIP3    H141249   7.077   7.226   6.516
13764TIP3    H241250   6.971   7.132   6.464
13765TIP3   OH241251   1.743   5.074   1.859
13765TIP3    H141252   1.691   5.109   1.786
13765TIP3    H241253   1.685   5.080   1.935
13766TIP3   OH241254   2.160   5.079   1.901
13766TIP3    H141255   2.132   4.998   1.943
13766TIP3    H241256   2.253   5.086   1.922
13767TIP3   OH241257   0.174   7.259   6.251
13767TIP3    H141258   0.150   7.243   6.160
13767TIP3    H241259   0.092   7.252   6.299
13768TIP3   OH241260   6.955   0.394   6.172
13768TIP3    H141261   7.038   0.384   6.126
13768TIP3    H241262   6.906   0.457   6.119
13769TIP3   OH241263   3.489   5.372   0.128
13769TIP3    H141264   3.519   5.375   0.219
13769TIP3    H241265   3.499   5.462   0.096
13770TIP3   OH241266   7.689   7.488   4.289
13770TIP3    H141267   7.779   7.509   4.266
13770TIP3    H241268   7.693   7.399   4.324
13771TIP3   OH241269   0.164   0.311   5.185
13771TIP3    H141270   0.179   0.224   5.148
13771TIP3    H241271   0.069   0.323   5.181
13772TIP3   OH241272   1.217   1.272   0.462
13772TIP3    H141273   1.182   1.352   0.500
13772TIP3    H241274   1.204   1.282   0.367
13773TIP3   OH241275   4.400   4.085   2.397
13773TIP3    H141276   4.424   4.015   2.457
13773TIP3    H241277   4.352   4.148   2.451
13774TIP3   OH241278   4.096   1.629   2.263
13774TIP3    H141279   4.035   1.626   2.336
13774TIP3    H241280   4.095   1.721   2.235
13775TIP3   OH241281   5.587   0.484   3.982
13775TIP3    H141282   5.585   0.524   3.895
13775TIP3    H241283   5.516   0.527   4.030
13776TIP3   OH241284   2.418   3.401   5.131
13776TIP3    H141285   2.348   3.446   5.085
13776TIP3    H241286   2.439   3.458   5.205
13777TIP3   OH241287   8.067   2.951   4.566
13777TIP3    H141288   8.031   2.876   4.613
13777TIP3    H241289   8.096   3.011   4.635
13778TIP3   OH241290   5.207   5.038   6.504
13778TIP3    H141291   5.125   5.021   6.551
13778TIP3    H241292   5.271   4.982   6.547
13779TIP3   OH241293   2.520   3.093   3.802
13779TIP3    H141294   2.594   3.153   3.802
13779TIP3    H241295   2.530   3.042   3.721
13780TIP3   OH241296   8.286   2.784   5.512
13780TIP3    H141297   8.308   2.798   5.604
13780TIP3    H241298   8.232   2.706   5.511
13781TIP3   OH241299   7.745   1.963   0.733
13781TIP3    H141300   7.831   1.955   0.691
13781TIP3    H241301   7.696   2.021   0.675
13782TIP3   OH241302   1.962   6.504   3.829
13782TIP3    H141303   1.918   6.589   3.818
13782TIP3    H241304   1.939   6.477   3.918
13783TIP3   OH241305   6.431   3.390   0.716
13783TIP3    H141306   6.443   3.476   0.676
13783TIP3    H241307   6.403   3.409   0.806
13784TIP3   OH241308   0.278   4.110   2.660
13784TIP3    H141309   0.318   4.100   2.574
13784TIP3    H241310   0.351   4.131   2.718
13785TIP3   OH241311   2.689   1.767   5.057
13785TIP3    H141312   2.668   1.674   5.066
13785TIP3    H241313   2.783   1.769   5.039
13786TIP3   OH241314   3.396   3.902   2.900
13786TIP3    H141315   3.349   3.854   2.969
13786TIP3    H241316   3.470   3.943   2.945
13787TIP3   OH241317   3.288   3.712   0.160
13787TIP3    H141318   3.316   3.646   0.097
13787TIP3    H241319   3.302   3.672   0.246
13788TIP3   OH241320   0.121   0.802   3.002
13788TIP3    H141321   0.142   0.716   2.965
13788TIP3    H241322   0.124   0.789   3.096
13789TIP3   OH241323   1.062   5.245   0.343
13789TIP3    H141324   1.053   5.196   0.260
13789TIP3    H241325   1.093   5.179   0.406
13790TIP3   OH241326   1.300   7.787   0.367
13790TIP3    H141327   1.237   7.717   0.386
13790TIP3    H241328   1.336   7.765   0.281
13791TIP3   OH241329   1.165   4.764   4.617
13791TIP3    H141330   1.082   4.715   4.615
13791TIP3    H241331   1.173   4.794   4.708
13792TIP3   OH241332   6.936   3.502   3.823
13792TIP3    H141333   6.908   3.589   3.797
13792TIP3    H241334   6.906   3.445   3.752
13793TIP3   OH241335   7.038   2.772   4.969
13793TIP3    H141336   7.005   2.795   5.056
13793TIP3    H241337   6.963   2.734   4.924
13794TIP3   OH241338   1.052   3.404   2.993
13794TIP3    H141339   1.124   3.340   3.000
13794TIP3    H241340   0.989   3.362   2.934
13795TIP3   OH241341   1.481   1.090   3.141
13795TIP3    H141342   1.512   1.171   3.101
13795TIP3    H241343   1.458   1.115   3.230
13796TIP3   OH241344   1.757   6.950   5.723
13796TIP3    H141345   1.705   6.872   5.743
13796TIP3    H241346   1.848   6.921   5.728
13797TIP3   OH241347   8.197   0.183   0.247
13797TIP3    H141348   8.129   0.236   0.205
13797TIP3    H241349   8.239   0.136   0.175
13798TIP3   OH241350   1.331   6.347   4.253
13798TIP3    H141351   1.358   6.426   4.207
13798TIP3    H241352   1.361   6.360   4.343
13799TIP3   OH241353   4.621   6.060   2.986
13799TIP3    H141354   4.678   6.137   2.993
13799TIP3    H241355   4.542   6.084   3.034
13800TIP3   OH241356   5.584   2.575   6.021
13800TIP3    H141357   5.489   2.564   6.021
13800TIP3    H241358   5.607   2.583   5.929
13801TIP3   OH241359   0.216   1.623   5.775
13801TIP3    H141360   0.152   1.555   5.756
13801TIP3    H241361   0.252   1.600   5.860
13802TIP3   OH241362   7.669   1.440   5.896
13802TIP3    H141363   7.689   1.436   5.990
13802TIP3    H241364   7.720   1.369   5.857
13803TIP3   OH241365   3.937   5.807   3.114
13803TIP3    H141366   4.023   5.790   3.078
13803TIP3    H241367   3.947   5.792   3.208
13804TIP3   OH241368   3.367   2.157   0.422
13804TIP3    H141369   3.444   2.138   0.476
13804TIP3    H241370   3.305   2.196   0.483
13805TIP3   OH241371   2.195   6.189   5.779
13805TIP3    H141372   2.222   6.162   5.867
13805TIP3    H241373   2.117   6.136   5.762
13806TIP3   OH241374   6.894   4.286   6.418
13806TIP3    H141375   6.987   4.309   6.413
13806TIP3    H241376   6.875   4.245   6.334
13807TIP3   OH241377   0.096   3.370   3.263
13807TIP3    H141378   0.113   3.279   3.289
13807TIP3    H241379   0.181   3.413   3.271
13808TIP3   OH241380   7.445   5.687   4.320
13808TIP3    H141381   7.411   5.761   4.370
13808TIP3    H241382   7.514   5.650   4.375
13809TIP3   OH241383   5.285   4.767   1.628
13809TIP3    H141384   5.191   4.761   1.611
13809TIP3    H241385   5.291   4.796   1.719
13810TIP3   OH241386   6.841   1.463   5.371
13810TIP3    H141387   6.777   1.493   5.307
13810TIP3    H241388   6.800   1.387   5.413
13811TIP3   OH241389   0.542   6.255   4.520
13811TIP3    H141390   0.576   6.179   4.568
13811TIP3    H241391   0.502   6.218   4.441
13812TIP3   OH241392   4.292   2.797   6.639
13812TIP3    H141393   4.271   2.773   6.549
13812TIP3    H241394   4.372   2.848   6.633
13813TIP3   OH241395   6.638   3.861   5.033
13813TIP3    H141396   6.647   3.956   5.041
13813TIP3    H241397   6.729   3.829   5.029
13814TIP3   OH241398   7.731   2.248   5.073
13814TIP3    H141399   7.787   2.272   5.146
13814TIP3    H241400   7.751   2.312   5.005
13815TIP3   OH241401   1.344   6.699   5.778
13815TIP3    H141402   1.274   6.637   5.756
13815TIP3    H241403   1.322   6.778   5.730
13816TIP3   OH241404   0.687   1.269   1.532
13816TIP3    H141405   0.697   1.257   1.437
13816TIP3    H241406   0.685   1.180   1.568
13817TIP3   OH241407   2.242   1.144   4.888
13817TIP3    H141408   2.322   1.157   4.938
13817TIP3    H241409   2.271   1.137   4.797
13818TIP3   OH241410   6.716   5.735   0.078
13818TIP3    H141411   6.688   5.692  -0.003
13818TIP3    H241412   6.803   5.768   0.059
13819TIP3   OH241413   4.964   1.139   0.041
13819TIP3    H141414   4.980   1.225   0.003
13819TIP3    H241415   4.936   1.085  -0.032
13820TIP3   OH241416   0.714   0.755   5.251
13820TIP3    H141417   0.741   0.833   5.299
13820TIP3    H241418   0.794   0.705   5.238
13821TIP3   OH241419   3.504   0.631   5.002
13821TIP3    H141420   3.565   0.557   5.005
13821TIP3    H241421   3.561   0.708   4.993
13822TIP3   OH241422   7.663   2.522   4.520
13822TIP3    H141423   7.635   2.534   4.610
13822TIP3    H241424   7.641   2.605   4.477
13823TIP3   OH241425   4.867   0.460   4.162
13823TIP3    H141426   4.950   0.419   4.186
13823TIP3    H241427   4.821   0.395   4.109
13824TIP3   OH241428   0.250   6.086   2.423
13824TIP3    H141429   0.207   6.166   2.454
13824TIP3    H241430   0.341   6.096   2.450
13825TIP3   OH241431   0.966   7.412   2.226
13825TIP3    H141432   1.060   7.410   2.207
13825TIP3    H241433   0.946   7.504   2.242
13826TIP3   OH241434   4.060   6.790   0.094
13826TIP3    H141435   4.155   6.799   0.098
13826TIP3    H241436   4.037   6.816   0.005
13827TIP3   OH241437   7.638   2.381   6.190
13827TIP3    H141438   7.575   2.448   6.166
13827TIP3    H241439   7.585   2.307   6.218
13828TIP3   OH241440   1.528   7.494   4.900
13828TIP3    H141441   1.447   7.492   4.849
13828TIP3    H241442   1.592   7.535   4.842
13829TIP3   OH241443   1.832   6.449   0.440
13829TIP3    H141444   1.878   6.366   0.449
13829TIP3    H241445   1.875   6.508   0.501
13830TIP3   OH241446   6.713   1.130   6.213
13830TIP3    H141447   6.797   1.154   6.253
13830TIP3    H241448   6.647   1.167   6.271
13831TIP3   OH241449   0.254   4.707   4.897
13831TIP3    H141450   0.269   4.654   4.819
13831TIP3    H241451   0.187   4.659   4.946
13832TIP3   OH241452   3.076   5.043   5.264
13832TIP3    H141453   3.169   5.022   5.260
13832TIP3    H241454   3.033   4.960   5.241
13833TIP3   OH241455   7.715   7.005   4.100
13833TIP3    H141456   7.772   6.953   4.043
13833TIP3    H241457   7.708   6.954   4.181
13834TIP3   OH241458   3.308   2.671   4.405
13834TIP3    H141459   3.257   2.686   4.325
13834TIP3    H241460   3.243   2.641   4.469
13835TIP3   OH241461   1.160   6.781   2.501
13835TIP3    H141462   1.103   6.842   2.454
13835TIP3    H241463   1.249   6.814   2.485
13836TIP3   OH241464   4.732   6.905   1.774
13836TIP3    H141465   4.710   6.812   1.771
13836TIP3    H241466   4.816   6.912   1.730
13837TIP3   OH241467   5.581   1.382   5.979
13837TIP3    H141468   5.502   1.362   5.929
13837TIP3    H241469   5.610   1.467   5.946
13838TIP3   OH241470   2.989   5.906   6.160
13838TIP3    H141471   3.074   5.877   6.127
13838TIP3    H241472   2.949   5.827   6.196
13839TIP3   OH241473   5.479   6.975   2.598
13839TIP3    H141474   5.546   6.906   2.593
13839TIP3    H241475   5.529   7.055   2.614
13840TIP3   OH241476   0.806   3.379   4.897
13840TIP3    H141477   0.843   3.319   4.962
13840TIP3    H241478   0.881   3.432   4.869
13841TIP3   OH241479   7.610   1.504   1.592
13841TIP3    H141480   7.669   1.576   1.568
13841TIP3    H241481   7.524   1.532   1.563
13842TIP3   OH241482   3.855   4.033   4.051
13842TIP3    H141483   3.919   3.968   4.080
13842TIP3    H241484   3.859   4.102   4.117
13843TIP3   OH241485   2.580   6.634   5.231
13843TIP3    H141486   2.553   6.605   5.144
13843TIP3    H241487   2.544   6.723   5.239
13844TIP3   OH241488   8.252   6.008   3.368
13844TIP3    H141489   8.232   5.971   3.281
13844TIP3    H241490   8.334   5.966   3.393
13845TIP3   OH241491   2.772   2.713   3.309
13845TIP3    H141492   2.685   2.709   3.348
13845TIP3    H241493   2.832   2.719   3.384
13846TIP3   OH241494   8.254   4.566   2.248
13846TIP3    H141495   8.263   4.473   2.268
13846TIP3    H241496   8.327   4.584   2.189
13847TIP3   OH241497   0.515   6.023   2.572
13847TIP3    H141498   0.539   5.977   2.653
13847TIP3    H241499   0.596   6.062   2.541
13848TIP3   OH241500   1.987   1.058   5.908
13848TIP3    H141501   1.996   1.123   5.978
13848TIP3    H241502   2.054   0.992   5.928
13849TIP3   OH241503   6.397   2.491   0.314
13849TIP3    H141504   6.334   2.560   0.294
13849TIP3    H241505   6.474   2.537   0.347
13850TIP3   OH241506   0.889   3.950   6.353
13850TIP3    H141507   0.983   3.971   6.356
13850TIP3    H241508   0.846   4.029   6.385
13851TIP3   OH241509   1.429   3.668   5.207
13851TIP3    H141510   1.467   3.648   5.121
13851TIP3    H241511   1.504   3.674   5.266
13852TIP3   OH241512   7.864   1.225   3.413
13852TIP3    H141513   7.878   1.272   3.331
13852TIP3    H241514   7.907   1.278   3.479
13853TIP3   OH241515   0.644   5.625   4.913
13853TIP3    H141516   0.722   5.626   4.969
13853TIP3    H241517   0.622   5.532   4.904
13854TIP3   OH241518   6.010   3.011   1.737
13854TIP3    H141519   5.920   3.043   1.750
13854TIP3    H241520   6.024   3.018   1.642
13855TIP3   OH241521   4.471   0.591   4.991
13855TIP3    H141522   4.510   0.678   4.985
13855TIP3    H241523   4.414   0.595   5.068
13856TIP3   OH241524   7.368   4.021   2.562
13856TIP3    H141525   7.322   4.034   2.645
13856TIP3    H241526   7.443   4.080   2.567
13857TIP3   OH241527   3.870   3.270   4.414
13857TIP3    H141528   3.788   3.243   4.373
13857TIP3    H241529   3.850   3.271   4.508
13858TIP3   OH241530   0.441   4.189   0.903
13858TIP3    H141531   0.525   4.173   0.946
13858TIP3    H241532   0.464   4.224   0.817
13859TIP3   OH241533   7.606   3.020   2.692
13859TIP3    H141534   7.622   3.049   2.602
13859TIP3    H241535   7.646   3.087   2.747
13860TIP3   OH241536   4.692   2.835   1.069
13860TIP3    H141537   4.770   2.858   1.119
13860TIP3    H241538   4.706   2.874   0.982
13861TIP3   OH241539   7.404   0.007   2.865
13861TIP3    H141540   7.312  -0.019   2.863
13861TIP3    H241541   7.428   0.015   2.773
13862TIP3   OH241542   2.985   1.927   5.582
13862TIP3    H141543   2.922   1.885   5.640
13862TIP3    H241544   2.942   1.926   5.496
13863TIP3   OH241545   0.604   3.906   2.881
13863TIP3    H141546   0.683   3.955   2.906
13863TIP3    H241547   0.576   3.864   2.963
13864TIP3   OH241548   1.053   5.161   2.252
13864TIP3    H141549   1.013   5.090   2.301
13864TIP3    H241550   1.009   5.160   2.167
13865TIP3   OH241551   3.450   3.809   3.427
13865TIP3    H141552   3.448   3.898   3.392
13865TIP3    H241553   3.540   3.779   3.411
13866TIP3   OH241554   2.002   5.218   3.487
13866TIP3    H141555   1.933   5.284   3.477
13866TIP3    H241556   2.052   5.247   3.564
13867TIP3   OH241557   5.837   0.109   6.768
13867TIP3    H141558   5.788   0.027   6.777
13867TIP3    H241559   5.853   0.118   6.674
13868TIP3   OH241560   1.532   6.053   2.286
13868TIP3    H141561   1.531   6.000   2.206
13868TIP3    H241562   1.476   6.005   2.347
13869TIP3   OH241563   1.389   1.090   3.693
13869TIP3    H141564   1.306   1.136   3.686
13869TIP3    H241565   1.368   0.998   3.677
13870TIP3   OH241566   6.214   1.158   4.579
13870TIP3    H141567   6.133   1.192   4.618
13870TIP3    H241568   6.280   1.166   4.648
13871TIP3   OH241569   4.020   2.342   0.918
13871TIP3    H141570   4.112   2.327   0.939
13871TIP3    H241571   4.020   2.371   0.827
13872TIP3   OH241572   7.220   3.971   1.634
13872TIP3    H141573   7.267   3.964   1.717
13872TIP3    H241574   7.282   4.014   1.575
13873TIP3   OH241575   2.158   5.100   1.046
13873TIP3    H141576   2.156   5.172   0.983
13873TIP3    H241577   2.180   5.141   1.130
13874TIP3   OH241578   1.596   2.270   0.378
13874TIP3    H141579   1.601   2.178   0.405
13874TIP3    H241580   1.548   2.268   0.295
13875TIP3   OH241581   3.509   0.498   4.122
13875TIP3    H141582   3.511   0.481   4.028
13875TIP3    H241583   3.553   0.582   4.133
13876TIP3   OH241584   4.287   5.476   3.164
13876TIP3    H141585   4.337   5.550   3.130
13876TIP3    H241586   4.347   5.433   3.226
13877TIP3   OH241587   1.213   7.305   3.443
13877TIP3    H141588   1.270   7.368   3.488
13877TIP3    H241589   1.176   7.252   3.514
13878TIP3   OH241590   6.951   3.125   1.441
13878TIP3    H141591   6.985   3.053   1.388
13878TIP3    H241592   7.029   3.172   1.470
13879TIP3   OH241593   6.957   0.461   2.492
13879TIP3    H141594   6.866   0.434   2.502
13879TIP3    H241595   7.005   0.414   2.560
13880TIP3   OH241596   0.839   7.844   3.889
13880TIP3    H141597   0.872   7.823   3.976
13880TIP3    H241598   0.884   7.783   3.831
13881TIP3   OH241599   6.712   4.113   0.435
13881TIP3    H141600   6.734   4.200   0.467
13881TIP3    H241601   6.760   4.105   0.352
13882TIP3   OH241602   5.242   6.243   6.351
13882TIP3    H141603   5.214   6.178   6.415
13882TIP3    H241604   5.268   6.193   6.275
13883TIP3   OH241605   7.705   4.965   2.411
13883TIP3    H141606   7.650   4.895   2.377
13883TIP3    H241607   7.793   4.943   2.381
13884TIP3   OH241608   3.347   5.305   5.572
13884TIP3    H141609   3.377   5.334   5.486
13884TIP3    H241610   3.283   5.237   5.553
13885TIP3   OH241611   8.032   1.502   5.975
13885TIP3    H141612   7.958   1.499   6.035
13885TIP3    H241613   8.000   1.461   5.894
13886TIP3   OH241614   2.365   2.002   2.877
13886TIP3    H141615   2.271   1.985   2.885
13886TIP3    H241616   2.403   1.917   2.855
13887TIP3   OH241617   5.844   2.438   1.830
13887TIP3    H141618   5.911   2.483   1.778
13887TIP3    H241619   5.772   2.500   1.836
13888TIP3   OH241620   5.680   6.931   5.561
13888TIP3    H141621   5.670   7.025   5.573
13888TIP3    H241622   5.609   6.892   5.612
13889TIP3   OH241623   0.185   2.021   3.670
13889TIP3    H141624   0.185   1.984   3.582
13889TIP3    H241625   0.111   1.980   3.714
13890TIP3   OH241626   5.163   4.584   4.856
13890TIP3    H141627   5.091   4.536   4.897
13890TIP3    H241628   5.233   4.519   4.848
13891TIP3   OH241629   2.808   1.756   1.876
13891TIP3    H141630   2.903   1.762   1.882
13891TIP3    H241631   2.779   1.730   1.964
13892TIP3   OH241632   0.270   3.958   5.324
13892TIP3    H141633   0.269   4.013   5.403
13892TIP3    H241634   0.363   3.945   5.306
13893TIP3   OH241635   0.847   5.007   2.692
13893TIP3    H141636   0.916   4.974   2.634
13893TIP3    H241637   0.865   5.101   2.698
13894TIP3   OH241638   6.253   1.427   2.521
13894TIP3    H141639   6.301   1.358   2.476
13894TIP3    H241640   6.226   1.486   2.451
13895TIP3   OH241641   7.161   5.352   6.644
13895TIP3    H141642   7.227   5.319   6.705
13895TIP3    H241643   7.091   5.385   6.700
13896TIP3   OH241644   4.701   1.072   0.685
13896TIP3    H141645   4.679   0.979   0.687
13896TIP3    H241646   4.772   1.081   0.749
13897TIP3   OH241647   2.120   6.732   0.796
13897TIP3    H141648   2.075   6.681   0.863
13897TIP3    H241649   2.211   6.705   0.802
13898TIP3   OH241650   6.409   7.382   2.830
13898TIP3    H141651   6.336   7.349   2.776
13898TIP3    H241652   6.412   7.323   2.905
13899TIP3   OH241653   7.843   6.706   4.786
13899TIP3    H141654   7.812   6.770   4.850
13899TIP3    H241655   7.932   6.684   4.814
13900TIP3   OH241656   0.091   1.975   2.652
13900TIP3    H141657   0.056   1.958   2.740
13900TIP3    H241658   0.071   2.067   2.635
13901TIP3   OH241659   6.548   7.731   0.445
13901TIP3    H141660   6.636   7.704   0.418
13901TIP3    H241661   6.490   7.697   0.376
13902TIP3   OH241662   3.063   7.682   5.497
13902TIP3    H141663   2.994   7.618   5.516
13902TIP3    H241664   3.032   7.730   5.421
13903TIP3   OH241665   1.178   5.721   2.159
13903TIP3    H141666   1.210   5.795   2.107
13903TIP3    H241667   1.144   5.761   2.239
13904TIP3   OH241668   3.259   3.408   2.902
13904TIP3    H141669   3.307   3.336   2.941
13904TIP3    H241670   3.258   3.388   2.808
13905TIP3   OH241671   7.814   7.672   2.962
13905TIP3    H141672   7.796   7.760   2.994
13905TIP3    H241673   7.772   7.614   3.026
13906TIP3   OH241674   2.753   7.097   5.476
13906TIP3    H141675   2.682   7.047   5.516
13906TIP3    H241676   2.788   7.040   5.408
13907TIP3   OH241677   0.654   7.777   6.132
13907TIP3    H141678   0.703   7.852   6.098
13907TIP3    H241679   0.638   7.799   6.224
13908TIP3   OH241680   2.987   0.746   4.316
13908TIP3    H141681   2.917   0.730   4.379
13908TIP3    H241682   2.953   0.709   4.234
13909TIP3   OH241683   4.649   3.853   0.835
13909TIP3    H141684   4.647   3.948   0.834
13909TIP3    H241685   4.741   3.830   0.846
13910TIP3   OH241686   0.637   4.393   1.113
13910TIP3    H141687   0.698   4.343   1.060
13910TIP3    H241688   0.572   4.425   1.050
13911TIP3   OH241689   2.578   4.063   0.950
13911TIP3    H141690   2.656   4.034   0.998
13911TIP3    H241691   2.506   4.053   1.012
13912TIP3   OH241692   4.183   0.748   5.196
13912TIP3    H141693   4.136   0.671   5.163
13912TIP3    H241694   4.262   0.712   5.237
13913TIP3   OH241695   0.565   4.684   1.936
13913TIP3    H141696   0.475   4.713   1.917
13913TIP3    H241697   0.620   4.749   1.890
13914TIP3   OH241698   1.455   2.840   1.603
13914TIP3    H141699   1.490   2.790   1.529
13914TIP3    H241700   1.393   2.902   1.564
13915TIP3   OH241701   8.283   1.390   5.022
13915TIP3    H141702   8.281   1.398   5.117
13915TIP3    H241703   8.204   1.434   4.992
13916TIP3   OH241704   5.509   0.076   3.008
13916TIP3    H141705   5.506   0.153   2.952
13916TIP3    H241706   5.451   0.098   3.082
13917TIP3   OH241707   2.691   5.572   2.393
13917TIP3    H141708   2.700   5.653   2.443
13917TIP3    H241709   2.631   5.518   2.444
13918TIP3   OH241710   1.480   7.453   5.511
13918TIP3    H141711   1.465   7.543   5.484
13918TIP3    H241712   1.560   7.456   5.564
13919TIP3   OH241713   0.780   7.511   4.023
13919TIP3    H141714   0.737   7.451   4.084
13919TIP3    H241715   0.762   7.598   4.059
13920TIP3   OH241716   7.480   5.059   0.429
13920TIP3    H141717   7.513   5.000   0.360
13920TIP3    H241718   7.522   5.143   0.410
13921TIP3   OH241719   5.766   2.537   5.142
13921TIP3    H141720   5.831   2.468   5.157
13921TIP3    H241721   5.709   2.534   5.219
13922TIP3   OH241722   0.500   1.835   3.659
13922TIP3    H141723   0.580   1.846   3.608
13922TIP3    H241724   0.432   1.816   3.595
13923TIP3   OH241725   2.744   7.097   1.904
13923TIP3    H141726   2.795   7.042   1.846
13923TIP3    H241727   2.721   7.173   1.851
13924TIP3   OH241728   1.970   3.509   3.761
13924TIP3    H141729   2.023   3.576   3.803
13924TIP3    H241730   2.015   3.492   3.678
13925TIP3   OH241731   5.343   0.082   1.984
13925TIP3    H141732   5.430   0.047   2.005
13925TIP3    H241733   5.292   0.004   1.962
13926TIP3   OH241734   2.284   2.252   1.484
13926TIP3    H141735   2.275   2.161   1.515
13926TIP3    H241736   2.337   2.295   1.550
13927TIP3   OH241737   6.753   4.702   5.211
13927TIP3    H141738   6.739   4.664   5.125
13927TIP3    H241739   6.846   4.726   5.212
13928TIP3   OH241740   5.477   3.526   1.012
13928TIP3    H141741   5.513   3.505   1.098
13928TIP3    H241742   5.429   3.447   0.987
13929TIP3   OH241743   1.226   7.137   5.901
13929TIP3    H141744   1.275   7.218   5.888
13929TIP3    H241745   1.293   7.070   5.909
13930TIP3   OH241746   0.971   6.968   3.320
13930TIP3    H141747   1.043   6.924   3.367
13930TIP3    H241748   1.010   7.048   3.286
13931TIP3   OH241749   4.477   0.062   3.925
13931TIP3    H141750   4.389   0.065   3.963
13931TIP3    H241751   4.535   0.091   3.996
13932TIP3   OH241752   7.438   2.284   4.820
13932TIP3    H141753   7.410   2.315   4.733
13932TIP3    H241754   7.464   2.363   4.866
13933TIP3   OH241755   0.973   3.910   0.851
13933TIP3    H141756   0.986   3.956   0.769
13933TIP3    H241757   1.042   3.844   0.853
13934TIP3   OH241758   1.964   7.656   1.407
13934TIP3    H141759   2.037   7.707   1.371
13934TIP3    H241760   1.887   7.710   1.391
13935TIP3   OH241761   0.559   3.567   3.344
13935TIP3    H141762   0.545   3.481   3.383
13935TIP3    H241763   0.608   3.616   3.409
13936TIP3   OH241764   2.410   5.892   1.797
13936TIP3    H141765   2.395   5.798   1.800
13936TIP3    H241766   2.331   5.931   1.833
13937TIP3   OH241767   0.218   2.003   6.020
13937TIP3    H141768   0.273   1.977   5.946
13937TIP3    H241769   0.131   1.971   5.997
13938TIP3   OH241770   4.238   4.721   3.503
13938TIP3    H141771   4.181   4.774   3.447
13938TIP3    H241772   4.283   4.785   3.558
13939TIP3   OH241773   3.532   0.147   4.759
13939TIP3    H141774   3.506   0.178   4.673
13939TIP3    H241775   3.472   0.076   4.779
13940TIP3   OH241776   5.421   7.565   5.475
13940TIP3    H141777   5.375   7.641   5.511
13940TIP3    H241778   5.372   7.543   5.395
13941TIP3   OH241779   1.618   6.722   5.763
13941TIP3    H141780   1.522   6.726   5.756
13941TIP3    H241781   1.634   6.671   5.842
13942TIP3   OH241782   4.458   4.043   6.011
13942TIP3    H141783   4.395   4.072   5.945
13942TIP3    H241784   4.432   4.089   6.091
13943TIP3   OH241785   2.650   7.167   2.162
13943TIP3    H141786   2.688   7.086   2.197
13943TIP3    H241787   2.679   7.169   2.071
13944TIP3   OH241788   2.386   6.747   6.129
13944TIP3    H141789   2.443   6.695   6.186
13944TIP3    H241790   2.300   6.705   6.135
13945TIP3   OH241791   2.876   2.863   1.722
13945TIP3    H141792   2.883   2.923   1.796
13945TIP3    H241793   2.820   2.909   1.659
13946TIP3   OH241794   4.794   0.629   2.759
13946TIP3    H141795   4.830   0.684   2.689
13946TIP3    H241796   4.752   0.691   2.818
13947TIP3   OH241797   3.425   1.827   1.903
13947TIP3    H141798   3.362   1.824   1.975
13947TIP3    H241799   3.374   1.850   1.826
13948TIP3   OH241800   2.703   1.773   2.149
13948TIP3    H141801   2.666   1.811   2.229
13948TIP3    H241802   2.703   1.679   2.164
13949TIP3   OH241803   3.195   2.676   2.534
13949TIP3    H141804   3.209   2.762   2.495
13949TIP3    H241805   3.110   2.647   2.500
13950TIP3   OH241806   5.426   2.035   3.139
13950TIP3    H141807   5.377   2.069   3.214
13950TIP3    H241808   5.452   2.113   3.090
13951TIP3   OH241809   4.072   3.331   4.000
13951TIP3    H141810   4.099   3.416   3.966
13951TIP3    H241811   3.976   3.335   4.001
13952TIP3   OH241812   7.810   4.608   5.330
13952TIP3    H141813   7.749   4.644   5.265
13952TIP3    H241814   7.787   4.515   5.335
13953TIP3   OH241815   0.516   7.553   3.141
13953TIP3    H141816   0.495   7.646   3.140
13953TIP3    H241817   0.434   7.509   3.121
13954TIP3   OH241818   3.275   3.201   4.448
13954TIP3    H141819   3.188   3.173   4.475
13954TIP3    H241820   3.295   3.275   4.506
13955TIP3   OH241821   5.843   5.823   0.198
13955TIP3    H141822   5.842   5.879   0.275
13955TIP3    H241823   5.760   5.775   0.203
13956TIP3   OH241824   6.579   0.977   5.029
13956TIP3    H141825   6.493   0.978   4.986
13956TIP3    H241826   6.621   0.897   4.996
13957TIP3   OH241827   5.525   0.390   1.347
13957TIP3    H141828   5.429   0.385   1.343
13957TIP3    H241829   5.555   0.316   1.294
13958TIP3   OH241830   0.044   6.384   6.105
13958TIP3    H141831   0.025   6.386   6.011
13958TIP3    H241832  -0.037   6.355   6.146
13959TIP3   OH241833   7.409   7.489   2.860
13959TIP3    H141834   7.380   7.487   2.952
13959TIP3    H241835   7.385   7.575   2.829
13960TIP3   OH241836   0.450   0.094   0.714
13960TIP3    H141837   0.539   0.061   0.716
13960TIP3    H241838   0.435   0.118   0.622
13961TIP3   OH241839   0.044   0.719   1.163
13961TIP3    H141840  -0.044   0.687   1.143
13961TIP3    H241841   0.030   0.804   1.205
13962TIP3   OH241842   0.094   3.724   5.340
13962TIP3    H141843   0.102   3.689   5.252
13962TIP3    H241844   0.155   3.798   5.342
13963TIP3   OH241845   0.444   4.700   1.097
13963TIP3    H141846   0.463   4.626   1.038
13963TIP3    H241847   0.349   4.698   1.107
13964TIP3   OH241848   7.402   6.750   4.494
13964TIP3    H141849   7.464   6.816   4.525
13964TIP3    H241850   7.319   6.796   4.486
13965TIP3   OH241851   3.994   4.947   5.651
13965TIP3    H141852   4.027   4.965   5.563
13965TIP3    H241853   3.948   5.028   5.676
13966TIP3   OH241854   7.487   5.702   4.904
13966TIP3    H141855   7.562   5.704   4.963
13966TIP3    H241856   7.430   5.635   4.940
13967TIP3   OH241857   3.897   6.018   3.762
13967TIP3    H141858   3.842   5.953   3.806
13967TIP3    H241859   3.873   6.101   3.804
13968TIP3   OH241860   5.139   6.872   4.847
13968TIP3    H141861   5.219   6.860   4.898
13968TIP3    H241862   5.084   6.928   4.902
13969TIP3   OH241863   7.979   3.947   5.176
13969TIP3    H141864   7.992   3.903   5.092
13969TIP3    H241865   7.924   3.887   5.227
13970TIP3   OH241866   5.506   2.886   2.034
13970TIP3    H141867   5.577   2.854   1.979
13970TIP3    H241868   5.468   2.807   2.072
13971TIP3   OH241869   1.012   1.624   0.020
13971TIP3    H141870   0.951   1.626   0.094
13971TIP3    H241871   0.967   1.671  -0.050
13972TIP3   OH241872   3.233   2.633   0.479
13972TIP3    H141873   3.304   2.667   0.533
13972TIP3    H241874   3.177   2.585   0.541
13973TIP3   OH241875   1.998   0.532   2.476
13973TIP3    H141876   1.945   0.454   2.496
13973TIP3    H241877   2.015   0.571   2.561
13974TIP3   OH241878   3.225   4.360   0.707
13974TIP3    H141879   3.221   4.293   0.639
13974TIP3    H241880   3.134   4.386   0.720
13975TIP3   OH241881   1.174   5.397   2.001
13975TIP3    H141882   1.233   5.414   2.075
13975TIP3    H241883   1.106   5.463   2.008
13976TIP3   OH241884   0.794   6.998   6.185
13976TIP3    H141885   0.787   6.950   6.268
13976TIP3    H241886   0.811   6.930   6.120
13977TIP3   OH241887   7.385   0.393   3.966
13977TIP3    H141888   7.433   0.334   3.909
13977TIP3    H241889   7.397   0.480   3.927
13978TIP3   OH241890   4.129   2.687   1.432
13978TIP3    H141891   4.201   2.691   1.370
13978TIP3    H241892   4.073   2.761   1.409
13979TIP3   OH241893   4.784   3.048   0.386
13979TIP3    H141894   4.863   3.096   0.410
13979TIP3    H241895   4.811   2.956   0.385
13980TIP3   OH241896   4.604   6.146   1.275
13980TIP3    H141897   4.594   6.094   1.195
13980TIP3    H241898   4.521   6.192   1.284
13981TIP3   OH241899   5.245   2.770   2.776
13981TIP3    H141900   5.191   2.693   2.793
13981TIP3    H241901   5.182   2.840   2.760
13982TIP3   OH241902   3.280   6.729   1.001
13982TIP3    H141903   3.374   6.713   1.011
13982TIP3    H241904   3.267   6.739   0.907
13983TIP3   OH241905   1.474   3.735   4.787
13983TIP3    H141906   1.379   3.745   4.789
13983TIP3    H241907   1.495   3.718   4.695
13984TIP3   OH241908   6.447   4.137   0.366
13984TIP3    H141909   6.543   4.135   0.369
13984TIP3    H241910   6.422   4.178   0.449
13985TIP3   OH241911   2.013   0.088   2.753
13985TIP3    H141912   2.060   0.006   2.739
13985TIP3    H241913   1.922   0.069   2.731
13986TIP3   OH241914   0.525   4.539   5.814
13986TIP3    H141915   0.452   4.556   5.755
13986TIP3    H241916   0.526   4.615   5.873
13987TIP3   OH241917   2.468   7.212   5.775
13987TIP3    H141918   2.402   7.206   5.844
13987TIP3    H241919   2.521   7.288   5.799
13988TIP3   OH241920   0.340   1.217   1.059
13988TIP3    H141921   0.420   1.165   1.055
13988TIP3    H241922   0.278   1.162   1.107
13989TIP3   OH241923   1.600   4.471   5.207
13989TIP3    H141924   1.672   4.532   5.223
13989TIP3    H241925   1.564   4.453   5.293
13990TIP3   OH241926   1.781   4.337   3.981
13990TIP3    H141927   1.691   4.367   3.965
13990TIP3    H241928   1.823   4.338   3.895
13991TIP3   OH241929   4.310   7.090   1.026
13991TIP3    H141930   4.278   7.083   0.936
13991TIP3    H241931   4.232   7.105   1.079
13992TIP3   OH241932   0.982   0.659   4.865
13992TIP3    H141933   0.895   0.620   4.869
13992TIP3    H241934   1.000   0.668   4.771
13993TIP3   OH241935   4.124   2.539   6.683
13993TIP3    H141936   4.183   2.493   6.623
13993TIP3    H241937   4.176   2.613   6.715
13994TIP3   OH241938   6.743   0.200   1.100
13994TIP3    H141939   6.695   0.187   1.018
13994TIP3    H241940   6.675   0.223   1.164
13995TIP3   OH241941   0.581   3.531   5.867
13995TIP3    H141942   0.645   3.594   5.835
13995TIP3    H241943   0.628   3.448   5.871
13996TIP3   OH241944   3.412   6.613   1.976
13996TIP3    H141945   3.404   6.566   1.893
13996TIP3    H241946   3.459   6.553   2.033
13997TIP3   OH241947   4.407   1.355   5.522
13997TIP3    H141948   4.386   1.449   5.522
13997TIP3    H241949   4.501   1.352   5.539
13998TIP3   OH241950   2.031   5.035   3.284
13998TIP3    H141951   2.018   5.107   3.346
13998TIP3    H241952   2.013   4.956   3.336
13999TIP3   OH241953   3.515   7.792   1.843
13999TIP3    H141954   3.536   7.783   1.936
13999TIP3    H241955   3.434   7.743   1.832
14000TIP3   OH241956   3.184   2.046   2.232
14000TIP3    H141957   3.126   2.091   2.170
14000TIP3    H241958   3.182   2.100   2.311
14001TIP3   OH241959   3.116   7.734   1.231
14001TIP3    H141960   3.196   7.712   1.183
14001TIP3    H241961   3.145   7.797   1.297
14002TIP3   OH241962   2.048   4.015   3.360
14002TIP3    H141963   2.012   4.100   3.334
14002TIP3    H241964   1.972   3.959   3.372
14003TIP3   OH241965   1.239   0.114   2.345
14003TIP3    H141966   1.266   0.027   2.313
14003TIP3    H241967   1.186   0.095   2.423
14004TIP3   OH241968   7.849   6.534   5.226
14004TIP3    H141969   7.800   6.502   5.301
14004TIP3    H241970   7.859   6.628   5.242
14005TIP3   OH241971   4.871   4.683   3.186
14005TIP3    H141972   4.818   4.648   3.257
14005TIP3    H241973   4.926   4.750   3.227
14006TIP3   OH241974   3.656   7.281   4.569
14006TIP3    H141975   3.570   7.323   4.567
14006TIP3    H241976   3.669   7.257   4.661
14007TIP3   OH241977   7.165   4.313   6.417
14007TIP3    H141978   7.196   4.385   6.361
14007TIP3    H241979   7.147   4.242   6.356
14008TIP3   OH241980   2.838   5.267   1.124
14008TIP3    H141981   2.889   5.189   1.103
14008TIP3    H241982   2.758   5.259   1.072
14009TIP3   OH241983   7.170   4.219   2.130
14009TIP3    H141984   7.262   4.205   2.109
14009TIP3    H241985   7.149   4.304   2.090
14010TIP3   OH241986   6.558   6.863   6.201
14010TIP3    H141987   6.552   6.776   6.162
14010TIP3    H241988   6.527   6.922   6.132
14011TIP3   OH241989   0.252   5.467   3.173
14011TIP3    H141990   0.277   5.447   3.082
14011TIP3    H241991   0.305   5.543   3.196
14012TIP3   OH241992   5.412   5.209   5.590
14012TIP3    H141993   5.410   5.280   5.526
14012TIP3    H241994   5.425   5.253   5.675
14013TIP3   OH241995   0.685   4.363   2.814
14013TIP3    H141996   0.721   4.385   2.900
14013TIP3    H241997   0.762   4.343   2.760
14014TIP3   OH241998   1.894   5.983   0.979
14014TIP3    H141999   1.823   6.036   0.943
14014TIP3    H242000   1.938   6.042   1.041
14015TIP3   OH242001   5.836   4.492   4.180
14015TIP3    H142002   5.907   4.538   4.225
14015TIP3    H242003   5.874   4.463   4.098
14016TIP3   OH242004   2.538   7.007   5.610
14016TIP3    H142005   2.479   6.938   5.640
14016TIP3    H242006   2.550   7.063   5.686
14017TIP3   OH242007   8.084   3.475   0.974
14017TIP3    H142008   7.989   3.468   0.977
14017TIP3    H242009   8.113   3.401   0.921
14018TIP3   OH242010   2.353   7.113   2.114
14018TIP3    H142011   2.371   7.037   2.059
14018TIP3    H242012   2.439   7.154   2.127
14019TIP3   OH242013   0.149   3.138   0.880
14019TIP3    H142014   0.236   3.110   0.909
14019TIP3    H242015   0.166   3.215   0.826
14020TIP3   OH242016   2.694   6.275   4.511
14020TIP3    H142017   2.703   6.337   4.439
14020TIP3    H242018   2.756   6.205   4.491
14021TIP3   OH242019   6.530   4.738   3.305
14021TIP3    H142020   6.499   4.788   3.230
14021TIP3    H242021   6.505   4.648   3.287
14022TIP3   OH242022   2.532   1.781   2.878
14022TIP3    H142023   2.623   1.783   2.908
14022TIP3    H242024   2.528   1.708   2.817
14023TIP3   OH242025   4.292   7.599   4.674
14023TIP3    H142026   4.297   7.685   4.632
14023TIP3    H242027   4.220   7.554   4.629
14024TIP3   OH242028   2.453   0.167   6.155
14024TIP3    H142029   2.429   0.250   6.113
14024TIP3    H242030   2.548   0.162   6.148
14025TIP3   OH242031   1.739   1.749   6.349
14025TIP3    H142032   1.653   1.782   6.320
14025TIP3    H242033   1.730   1.741   6.444
14026TIP3   OH242034   6.338   7.284   2.149
14026TIP3    H142035   6.308   7.284   2.058
14026TIP3    H242036   6.269   7.331   2.196
14027TIP3   OH242037   7.873   3.240   5.791
14027TIP3    H142038   7.941   3.239   5.858
14027TIP3    H242039   7.902   3.175   5.727
14028TIP3   OH242040   3.239   0.015   3.060
14028TIP3    H142041   3.259   0.098   3.102
14028TIP3    H242042   3.163   0.033   3.004
14029TIP3   OH242043   3.283   3.924   3.829
14029TIP3    H142044   3.356   3.941   3.889
14029TIP3    H242045   3.207   3.910   3.887
14030TIP3   OH242046   5.693   5.998   6.387
14030TIP3    H142047   5.749   5.926   6.416
14030TIP3    H242048   5.733   6.076   6.426
14031TIP3   OH242049   5.291   2.415   3.022
14031TIP3    H142050   5.322   2.367   2.945
14031TIP3    H242051   5.365   2.472   3.045
14032TIP3   OH242052   3.607   5.358   0.405
14032TIP3    H142053   3.645   5.444   0.423
14032TIP3    H242054   3.589   5.321   0.491
14033TIP3   OH242055   4.744   6.874   6.213
14033TIP3    H142056   4.699   6.793   6.237
14033TIP3    H242057   4.675   6.935   6.189
14034TIP3   OH242058   4.609   1.426   2.489
14034TIP3    H142059   4.639   1.505   2.533
14034TIP3    H242060   4.682   1.401   2.432
14035TIP3   OH242061   3.237   2.566   3.232
14035TIP3    H142062   3.278   2.526   3.155
14035TIP3    H242063   3.151   2.594   3.201
14036TIP3   OH242064   2.102   0.143   1.103
14036TIP3    H142065   2.062   0.224   1.135
14036TIP3    H242066   2.161   0.172   1.034
14037TIP3   OH242067   4.242   3.166   5.206
14037TIP3    H142068   4.166   3.207   5.246
14037TIP3    H242069   4.252   3.212   5.122
14038TIP3   OH242070   2.092   1.916   2.912
14038TIP3    H142071   2.069   1.838   2.862
14038TIP3    H242072   2.032   1.984   2.879
14039TIP3   OH242073   1.863   2.769   6.076
14039TIP3    H142074   1.826   2.746   5.991
14039TIP3    H242075   1.877   2.863   6.071
14040TIP3   OH242076   2.321   4.717   5.401
14040TIP3    H142077   2.306   4.645   5.339
14040TIP3    H242078   2.263   4.698   5.475
14041TIP3   OH242079   1.006   4.677   6.673
14041TIP3    H142080   0.934   4.623   6.641
14041TIP3    H242081   0.989   4.764   6.638
14042TIP3   OH242082   5.301   2.774   5.124
14042TIP3    H142083   5.268   2.791   5.036
14042TIP3    H242084   5.223   2.758   5.177
14043TIP3   OH242085   1.983   1.926   2.491
14043TIP3    H142086   2.065   1.974   2.480
14043TIP3    H242087   1.915   1.991   2.473
14044TIP3   OH242088   4.929   1.978   5.156
14044TIP3    H142089   4.906   2.042   5.223
14044TIP3    H242090   4.949   1.898   5.205
14045TIP3   OH242091   6.393   4.803   3.064
14045TIP3    H142092   6.339   4.877   3.034
14045TIP3    H242093   6.331   4.730   3.071
14046TIP3   OH242094   0.597   6.864   5.178
14046TIP3    H142095   0.557   6.945   5.146
14046TIP3    H242096   0.563   6.853   5.267
14047TIP3   OH242097   5.953   6.821   3.893
14047TIP3    H142098   5.913   6.869   3.820
14047TIP3    H242099   5.948   6.882   3.967
14048TIP3   OH242100   5.561   6.302   2.921
14048TIP3    H142101   5.498   6.307   2.993
14048TIP3    H242102   5.507   6.300   2.842
14049TIP3   OH242103   5.838   1.351   3.539
14049TIP3    H142104   5.929   1.381   3.536
14049TIP3    H242105   5.831   1.287   3.469
14050TIP3   OH242106   1.239   5.235   1.777
14050TIP3    H142107   1.208   5.161   1.830
14050TIP3    H242108   1.231   5.311   1.835
14051TIP3   OH242109   6.820   3.116   3.677
14051TIP3    H142110   6.852   3.029   3.701
14051TIP3    H242111   6.899   3.166   3.657
14052TIP3   OH242112   7.783   5.529   3.511
14052TIP3    H142113   7.867   5.571   3.528
14052TIP3    H242114   7.793   5.490   3.424
14053TIP3   OH242115   7.695   7.240   0.950
14053TIP3    H142116   7.659   7.307   0.892
14053TIP3    H242117   7.670   7.157   0.909
14054TIP3   OH242118   2.117   7.141   5.635
14054TIP3    H142119   2.180   7.113   5.569
14054TIP3    H242120   2.074   7.059   5.663
14055TIP3   OH242121   4.362   2.749   3.831
14055TIP3    H142122   4.393   2.760   3.921
14055TIP3    H242123   4.293   2.683   3.838
14056TIP3   OH242124   2.703   0.538   4.170
14056TIP3    H142125   2.642   0.483   4.219
14056TIP3    H242126   2.654   0.618   4.150
14057TIP3   OH242127   7.003   4.543   3.614
14057TIP3    H142128   6.964   4.533   3.527
14057TIP3    H242129   7.097   4.552   3.597
14058TIP3   OH242130   4.803   5.031   3.937
14058TIP3    H142131   4.739   4.980   3.986
14058TIP3    H242132   4.881   4.976   3.935
14059TIP3   OH242133   1.559   4.491   4.112
14059TIP3    H142134   1.566   4.404   4.151
14059TIP3    H242135   1.496   4.537   4.167
14060TIP3   OH242136   6.097   3.497   5.828
14060TIP3    H142137   6.135   3.410   5.831
14060TIP3    H242138   6.051   3.507   5.911
14061TIP3   OH242139   3.249   4.425   5.763
14061TIP3    H142140   3.340   4.410   5.790
14061TIP3    H242141   3.217   4.491   5.825
14062TIP3   OH242142   6.706   4.748   4.225
14062TIP3    H142143   6.735   4.714   4.310
14062TIP3    H242144   6.729   4.678   4.163
14063TIP3   OH242145   0.423   4.447   2.100
14063TIP3    H142146   0.514   4.476   2.093
14063TIP3    H242147   0.417   4.373   2.039
14064TIP3   OH242148   6.768   1.522   0.534
14064TIP3    H142149   6.789   1.615   0.527
14064TIP3    H242150   6.822   1.490   0.606
14065TIP3   OH242151   2.676   6.031   0.545
14065TIP3    H142152   2.715   6.102   0.596
14065TIP3    H242153   2.751   5.980   0.514
14066TIP3   OH242154   5.210   2.526   1.566
14066TIP3    H142155   5.202   2.588   1.638
14066TIP3    H242156   5.128   2.536   1.517
14067TIP3   OH242157   7.909   0.854   2.154
14067TIP3    H142158   7.938   0.945   2.148
14067TIP3    H242159   7.967   0.815   2.220
14068TIP3   OH242160   2.169   7.600   5.918
14068TIP3    H142161   2.184   7.588   5.824
14068TIP3    H242162   2.221   7.532   5.960
14069TIP3   OH242163   2.295   3.543   2.531
14069TIP3    H142164   2.348   3.524   2.609
14069TIP3    H242165   2.238   3.614   2.558
14070TIP3   OH242166   0.788   1.187   2.359
14070TIP3    H142167   0.757   1.262   2.307
14070TIP3    H242168   0.810   1.121   2.293
14071TIP3   OH242169   2.436   6.582   3.762
14071TIP3    H142170   2.348   6.566   3.729
14071TIP3    H242171   2.467   6.658   3.712
14072TIP3   OH242172   2.912   4.179   0.714
14072TIP3    H142173   2.890   4.247   0.651
14072TIP3    H242174   2.882   4.213   0.798
14073TIP3   OH242175   7.901   2.746   1.386
14073TIP3    H142176   7.871   2.710   1.302
14073TIP3    H242177   7.971   2.687   1.414
14074TIP3   OH242178   5.498   5.123   6.117
14074TIP3    H142179   5.409   5.090   6.125
14074TIP3    H242180   5.535   5.116   6.205
14075TIP3   OH242181   8.071   0.708   3.084
14075TIP3    H142182   8.109   0.663   3.159
14075TIP3    H242183   7.989   0.661   3.068
14076TIP3   OH242184   2.419   6.308   4.431
14076TIP3    H142185   2.474   6.232   4.449
14076TIP3    H242186   2.479   6.383   4.438
14077TIP3   OH242187   4.307   6.402   0.229
14077TIP3    H142188   4.298   6.497   0.240
14077TIP3    H242189   4.270   6.366   0.310
14078TIP3   OH242190   3.116   1.610   4.441
14078TIP3    H142191   3.083   1.541   4.383
14078TIP3    H242192   3.184   1.654   4.389
14079TIP3   OH242193   4.543   4.003   1.436
14079TIP3    H142194   4.498   4.025   1.518
14079TIP3    H242195   4.627   3.967   1.463
14080TIP3   OH242196   7.948   3.139   2.055
14080TIP3    H142197   7.913   3.225   2.075
14080TIP3    H242198   7.956   3.137   1.960
14081TIP3   OH242199   2.920   2.850   6.395
14081TIP3    H142200   2.908   2.942   6.370
14081TIP3    H242201   2.988   2.852   6.462
14082TIP3   OH242202   7.876   4.265   0.916
14082TIP3    H142203   7.942   4.220   0.863
14082TIP3    H242204   7.888   4.358   0.896
14083TIP3   OH242205   4.102   6.727   2.921
14083TIP3    H142206   4.059   6.644   2.942
14083TIP3    H242207   4.127   6.718   2.829
14084TIP3   OH242208   4.401   1.618   5.395
14084TIP3    H142209   4.358   1.615   5.309
14084TIP3    H242210   4.425   1.710   5.406
14085TIP3   OH242211   3.997   7.265   2.754
14085TIP3    H142212   3.908   7.234   2.741
14085TIP3    H242213   4.000   7.293   2.846
14086TIP3   OH242214   3.520   1.002   0.871
14086TIP3    H142215   3.521   0.941   0.797
14086TIP3    H242216   3.610   1.003   0.904
14087TIP3   OH242217   1.926   3.468   4.390
14087TIP3    H142218   1.919   3.561   4.412
14087TIP3    H242219   1.928   3.466   4.294
14088TIP3   OH242220   2.095   2.569   5.930
14088TIP3    H142221   2.143   2.592   6.010
14088TIP3    H242222   2.126   2.632   5.865
14089TIP3   OH242223   0.111   1.001   6.556
14089TIP3    H142224   0.183   0.939   6.568
14089TIP3    H242225   0.039   0.948   6.523
14090TIP3   OH242226   3.796   7.421   1.124
14090TIP3    H142227   3.870   7.384   1.076
14090TIP3    H242228   3.735   7.348   1.133
14091TIP3   OH242229   2.806   4.656   5.677
14091TIP3    H142230   2.799   4.726   5.612
14091TIP3    H242231   2.760   4.582   5.637
14092TIP3   OH242232   1.247   3.115   2.943
14092TIP3    H142233   1.300   3.040   2.915
14092TIP3    H242234   1.261   3.181   2.875
14093TIP3   OH242235   7.020   1.405   1.973
14093TIP3    H142236   7.054   1.388   2.061
14093TIP3    H242237   6.997   1.498   1.973
14094TIP3   OH242238   0.678   5.287   5.167
14094TIP3    H142239   0.619   5.346   5.215
14094TIP3    H242240   0.620   5.222   5.128
14095TIP3   OH242241   1.646   0.223   2.985
14095TIP3    H142242   1.620   0.310   3.015
14095TIP3    H242243   1.644   0.229   2.889
14096TIP3   OH242244   6.864   6.289   4.176
14096TIP3    H142245   6.931   6.327   4.233
14096TIP3    H242246   6.873   6.195   4.188
14097TIP3   OH242247   7.835   1.845   2.995
14097TIP3    H142248   7.881   1.841   3.079
14097TIP3    H242249   7.769   1.776   3.001
14098TIP3   OH242250   4.349   0.135   2.880
14098TIP3    H142251   4.291   0.205   2.908
14098TIP3    H242252   4.383   0.097   2.961
14099TIP3   OH242253   4.859   3.318   2.940
14099TIP3    H142254   4.780   3.327   2.888
14099TIP3    H242255   4.828   3.299   3.029
14100TIP3   OH242256   0.731   3.393   4.271
14100TIP3    H142257   0.695   3.437   4.348
14100TIP3    H242258   0.761   3.308   4.304
14101TIP3   OH242259   8.138   7.531   1.278
14101TIP3    H142260   8.056   7.575   1.255
14101TIP3    H242261   8.200   7.601   1.293
14102TIP3   OH242262   3.432   5.659   2.920
14102TIP3    H142263   3.394   5.743   2.945
14102TIP3    H242264   3.458   5.671   2.828
14103TIP3   OH242265   1.211   5.346   5.271
14103TIP3    H142266   1.293   5.344   5.321
14103TIP3    H242267   1.211   5.432   5.230
14104TIP3   OH242268   5.706   3.410   3.109
14104TIP3    H142269   5.749   3.463   3.176
14104TIP3    H242270   5.612   3.420   3.127
14105TIP3   OH242271   5.753   0.136   0.527
14105TIP3    H142272   5.789   0.173   0.446
14105TIP3    H242273   5.786   0.194   0.596
14106TIP3   OH242274   4.918   2.362   2.941
14106TIP3    H142275   4.926   2.457   2.935
14106TIP3    H242276   4.890   2.335   2.853
14107TIP3   OH242277   7.780   0.274   4.245
14107TIP3    H142278   7.801   0.304   4.157
14107TIP3    H242279   7.813   0.184   4.249
14108TIP3   OH242280   0.281   6.989   4.356
14108TIP3    H142281   0.351   6.971   4.418
14108TIP3    H242282   0.258   7.081   4.371
14109TIP3   OH242283   3.524   0.557   3.396
14109TIP3    H142284   3.464   0.494   3.436
14109TIP3    H242285   3.605   0.549   3.446
14110TIP3   OH242286   0.273   6.744   1.646
14110TIP3    H142287   0.253   6.827   1.602
14110TIP3    H242288   0.317   6.770   1.727
14111TIP3   OH242289   2.829   7.176   3.602
14111TIP3    H142290   2.777   7.123   3.542
14111TIP3    H242291   2.920   7.155   3.580
14112TIP3   OH242292   4.691   6.562   1.271
14112TIP3    H142293   4.612   6.600   1.233
14112TIP3    H242294   4.763   6.604   1.225
14113TIP3   OH242295   0.382   1.729   5.563
14113TIP3    H142296   0.313   1.691   5.617
14113TIP3    H242297   0.463   1.714   5.612
14114TIP3   OH242298   3.472   7.766   0.700
14114TIP3    H142299   3.507   7.723   0.622
14114TIP3    H242300   3.516   7.851   0.702
14115TIP3   OH242301   4.237   5.385   1.423
14115TIP3    H142302   4.220   5.293   1.443
14115TIP3    H242303   4.154   5.429   1.441
14116TIP3   OH242304   1.137   0.130   0.048
14116TIP3    H142305   1.069   0.141   0.114
14116TIP3    H242306   1.212   0.096   0.097
14117TIP3   OH242307   2.869   1.257   0.442
14117TIP3    H142308   2.910   1.307   0.372
14117TIP3    H242309   2.904   1.169   0.433
14118TIP3   OH242310   6.959   0.566   3.735
14118TIP3    H142311   6.915   0.558   3.651
14118TIP3    H242312   6.908   0.510   3.794
14119TIP3   OH242313   5.613   0.863   5.211
14119TIP3    H142314   5.653   0.859   5.298
14119TIP3    H242315   5.679   0.906   5.156
14120TIP3   OH242316   6.992   4.122   1.109
14120TIP3    H142317   6.997   4.204   1.158
14120TIP3    H242318   6.925   4.071   1.156
14121TIP3   OH242319   1.775   5.461   0.525
14121TIP3    H142320   1.823   5.384   0.554
14121TIP3    H242321   1.683   5.438   0.536
14122TIP3   OH242322   7.789   1.269   4.098
14122TIP3    H142323   7.794   1.174   4.097
14122TIP3    H242324   7.727   1.289   4.168
14123TIP3   OH242325   8.269   2.306   5.249
14123TIP3    H142326   8.235   2.264   5.329
14123TIP3    H242327   8.282   2.398   5.273
14124TIP3   OH242328   7.398   0.430   6.590
14124TIP3    H142329   7.420   0.467   6.676
14124TIP3    H242330   7.470   0.457   6.533
14125TIP3   OH242331   2.382   5.140   2.775
14125TIP3    H142332   2.366   5.176   2.862
14125TIP3    H242333   2.412   5.051   2.791
14126TIP3   OH242334   3.204   1.832   1.676
14126TIP3    H142335   3.273   1.770   1.653
14126TIP3    H242336   3.143   1.781   1.729
14127TIP3   OH242337   7.345   0.557   4.868
14127TIP3    H142338   7.360   0.542   4.775
14127TIP3    H242339   7.256   0.526   4.884
14128TIP3   OH242340   0.792   2.298   5.712
14128TIP3    H142341   0.727   2.259   5.770
14128TIP3    H242342   0.759   2.386   5.695
14129TIP3   OH242343   5.669   6.403   6.032
14129TIP3    H142344   5.695   6.317   6.000
14129TIP3    H242345   5.620   6.385   6.113
14130TIP3   OH242346   5.217   0.851   6.460
14130TIP3    H142347   5.307   0.855   6.493
14130TIP3    H242348   5.165   0.895   6.527
14131TIP3   OH242349   2.258   0.681   1.314
14131TIP3    H142350   2.273   0.618   1.384
14131TIP3    H242351   2.171   0.716   1.333
14132TIP3   OH242352   1.568   0.877   3.798
14132TIP3    H142353   1.590   0.966   3.768
14132TIP3    H242354   1.505   0.845   3.733
14133TIP3   OH242355   3.369   4.724   2.771
14133TIP3    H142356   3.397   4.636   2.795
14133TIP3    H242357   3.448   4.778   2.779
14134TIP3   OH242358   4.410   7.281   3.824
14134TIP3    H142359   4.326   7.315   3.791
14134TIP3    H242360   4.476   7.320   3.767
14135TIP3   OH242361   7.673   3.269   6.517
14135TIP3    H142362   7.765   3.293   6.511
14135TIP3    H242363   7.674   3.178   6.547
14136TIP3   OH242364   7.717   4.489   1.122
14136TIP3    H142365   7.630   4.530   1.120
14136TIP3    H242366   7.700   4.397   1.143
14137TIP3   OH242367   1.353   5.566   2.829
14137TIP3    H142368   1.261   5.586   2.816
14137TIP3    H242369   1.366   5.572   2.924
14138TIP3   OH242370   1.242   5.360   3.664
14138TIP3    H142371   1.222   5.434   3.722
14138TIP3    H242372   1.178   5.293   3.689
14139TIP3   OH242373   7.312   5.821   1.854
14139TIP3    H142374   7.314   5.868   1.771
14139TIP3    H242375   7.220   5.798   1.867
14140TIP3   OH242376   4.898   1.572   0.185
14140TIP3    H142377   4.929   1.654   0.224
14140TIP3    H242378   4.850   1.528   0.256
14141TIP3   OH242379   2.196   3.790   1.856
14141TIP3    H142380   2.207   3.795   1.761
14141TIP3    H242381   2.283   3.808   1.891
14142TIP3   OH242382   2.570   6.922   3.158
14142TIP3    H142383   2.514   6.924   3.080
14142TIP3    H242384   2.548   6.839   3.201
14143TIP3   OH242385   6.983   4.155   2.997
14143TIP3    H142386   6.981   4.159   2.902
14143TIP3    H242387   6.900   4.193   3.025
14144TIP3   OH242388   5.171   2.515   5.339
14144TIP3    H142389   5.257   2.502   5.381
14144TIP3    H242390   5.187   2.495   5.247
14145TIP3   OH242391   6.432   1.930   0.154
14145TIP3    H142392   6.402   1.958   0.240
14145TIP3    H242393   6.388   1.989   0.092
14146TIP3   OH242394   4.477   3.683   6.523
14146TIP3    H142395   4.496   3.756   6.464
14146TIP3    H242396   4.539   3.615   6.496
14147TIP3   OH242397   5.042   3.745   2.881
14147TIP3    H142398   5.084   3.676   2.829
14147TIP3    H242399   5.041   3.710   2.970
14148TIP3   OH242400   0.120   4.138   2.161
14148TIP3    H142401   0.047   4.201   2.160
14148TIP3    H242402   0.103   4.083   2.238
14149TIP3   OH242403   0.579   2.763   1.065
14149TIP3    H142404   0.648   2.790   1.125
14149TIP3    H242405   0.551   2.844   1.022
14150TIP3   OH242406   0.224   5.391   4.645
14150TIP3    H142407   0.129   5.387   4.658
14150TIP3    H242408   0.255   5.450   4.714
14151TIP3   OH242409   1.284   4.101   2.698
14151TIP3    H142410   1.319   4.186   2.725
14151TIP3    H242411   1.260   4.112   2.606
14152TIP3   OH242412   6.828   0.575   5.991
14152TIP3    H142413   6.877   0.658   5.989
14152TIP3    H242414   6.736   0.602   5.984
14153TIP3   OH242415   2.739   6.184   4.086
14153TIP3    H142416   2.653   6.220   4.060
14153TIP3    H242417   2.788   6.178   4.004
14154TIP3   OH242418   6.643   7.735   6.230
14154TIP3    H142419   6.586   7.770   6.299
14154TIP3    H242420   6.633   7.640   6.236
14155TIP3   OH242421   5.640   3.743   3.102
14155TIP3    H142422   5.698   3.716   3.031
14155TIP3    H242423   5.582   3.808   3.061
14156TIP3   OH242424   5.142   6.125   1.293
14156TIP3    H142425   5.235   6.109   1.309
14156TIP3    H242426   5.100   6.101   1.376
14157TIP3   OH242427   7.447   6.635   0.753
14157TIP3    H142428   7.423   6.606   0.841
14157TIP3    H242429   7.538   6.664   0.761
14158TIP3   OH242430   5.944   0.485   4.152
14158TIP3    H142431   5.928   0.469   4.059
14158TIP3    H242432   5.899   0.567   4.171
14159TIP3   OH242433   2.157   3.244   0.434
14159TIP3    H142434   2.199   3.330   0.427
14159TIP3    H242435   2.177   3.214   0.522
14160TIP3   OH242436   6.209   0.351   0.569
14160TIP3    H142437   6.260   0.381   0.493
14160TIP3    H242438   6.245   0.400   0.642
14161TIP3   OH242439   1.261   2.960   0.577
14161TIP3    H142440   1.276   2.997   0.664
14161TIP3    H242441   1.300   2.873   0.582
14162TIP3   OH242442   3.414   5.798   4.452
14162TIP3    H142443   3.363   5.716   4.455
14162TIP3    H242444   3.417   5.820   4.359
14163TIP3   OH242445   7.358   3.751   5.087
14163TIP3    H142446   7.306   3.694   5.143
14163TIP3    H242447   7.296   3.815   5.054
14164TIP3   OH242448   6.527   2.874   3.432
14164TIP3    H142449   6.517   2.965   3.459
14164TIP3    H242450   6.543   2.879   3.338
14165TIP3   OH242451   1.974   7.227   2.825
14165TIP3    H142452   1.926   7.182   2.756
14165TIP3    H242453   1.946   7.183   2.906
14166TIP3   OH242454   0.406   2.044   0.499
14166TIP3    H142455   0.317   2.077   0.488
14166TIP3    H242456   0.455   2.084   0.428
14167TIP3   OH242457   0.464   3.295   6.086
14167TIP3    H142458   0.466   3.317   6.179
14167TIP3    H242459   0.386   3.340   6.052
14168TIP3   OH242460   2.014   3.211   5.386
14168TIP3    H142461   2.057   3.297   5.393
14168TIP3    H242462   2.056   3.169   5.311
14169TIP3   OH242463   0.750   7.436   2.052
14169TIP3    H142464   0.793   7.389   2.124
14169TIP3    H242465   0.764   7.529   2.073
14170TIP3   OH242466   5.890   1.589   2.416
14170TIP3    H142467   5.861   1.500   2.437
14170TIP3    H242468   5.812   1.643   2.429
14171TIP3   OH242469   0.342   0.103   1.654
14171TIP3    H142470   0.338   0.176   1.593
14171TIP3    H242471   0.293   0.032   1.611
14172TIP3   OH242472   2.175   1.635   1.511
14172TIP3    H142473   2.201   1.543   1.496
14172TIP3    H242474   2.082   1.631   1.530
14173TIP3   OH242475   7.017   1.690   2.297
14173TIP3    H142476   6.937   1.703   2.245
14173TIP3    H242477   7.069   1.769   2.279
14174TIP3   OH242478   0.832   6.698   5.165
14174TIP3    H142479   0.775   6.774   5.165
14174TIP3    H242480   0.786   6.633   5.112
14175TIP3   OH242481   6.046   0.465   1.292
14175TIP3    H142482   6.060   0.458   1.198
14175TIP3    H242483   5.976   0.403   1.312
14176TIP3   OH242484   5.722   2.213   4.138
14176TIP3    H142485   5.769   2.136   4.170
14176TIP3    H242486   5.759   2.286   4.188
14177TIP3   OH242487   6.942   4.443   2.902
14177TIP3    H142488   6.872   4.436   2.966
14177TIP3    H242489   6.976   4.532   2.914
14178TIP3   OH242490   7.196   3.628   6.547
14178TIP3    H142491   7.231   3.691   6.484
14178TIP3    H242492   7.237   3.653   6.631
14179TIP3   OH242493   7.252   2.524   6.692
14179TIP3    H142494   7.194   2.552   6.622
14179TIP3    H242495   7.301   2.451   6.655
14180TIP3   OH242496   1.409   2.039   2.662
14180TIP3    H142497   1.496   2.078   2.661
14180TIP3    H242498   1.368   2.073   2.741
14181TIP3   OH242499   4.179   6.278   3.324
14181TIP3    H142500   4.192   6.197   3.374
14181TIP3    H242501   4.224   6.345   3.375
14182TIP3   OH242502   0.826   1.845   3.730
14182TIP3    H142503   0.880   1.791   3.673
14182TIP3    H242504   0.885   1.913   3.762
14183TIP3   OH242505   4.339   1.115   3.643
14183TIP3    H142506   4.391   1.125   3.722
14183TIP3    H242507   4.335   1.202   3.604
14184TIP3   OH242508   5.256   2.018   6.720
14184TIP3    H142509   5.235   1.997   6.811
14184TIP3    H242510   5.174   2.051   6.683
14185TIP3   OH242511   0.682   1.258   1.009
14185TIP3    H142512   0.764   1.270   0.961
14185TIP3    H242513   0.628   1.203   0.951
14186TIP3   OH242514   2.059   6.028   0.146
14186TIP3    H142515   2.070   6.123   0.157
14186TIP3    H242516   2.142   5.999   0.108
14187TIP3   OH242517   1.329   6.560   2.469
14187TIP3    H142518   1.279   6.479   2.456
14187TIP3    H242519   1.263   6.629   2.465
14188TIP3   OH242520   4.061   3.477   2.932
14188TIP3    H142521   4.120   3.449   2.862
14188TIP3    H242522   4.119   3.500   3.004
14189TIP3   OH242523   3.104   0.966   2.793
14189TIP3    H142524   3.170   1.021   2.751
14189TIP3    H242525   3.085   1.009   2.876
14190TIP3   OH242526   0.954   0.194   3.275
14190TIP3    H142527   0.922   0.156   3.357
14190TIP3    H242528   0.898   0.155   3.207
14191TIP3   OH242529   2.348   1.784   3.493
14191TIP3    H142530   2.377   1.864   3.450
14191TIP3    H242531   2.256   1.800   3.515
14192TIP3   OH242532   5.301   6.000   3.123
14192TIP3    H142533   5.270   5.947   3.196
14192TIP3    H242534   5.221   6.033   3.082
14193TIP3   OH242535   4.613   4.849   5.936
14193TIP3    H142536   4.584   4.781   5.997
14193TIP3    H242537   4.554   4.841   5.861
14194TIP3   OH242538   1.060   1.203   1.759
14194TIP3    H142539   1.036   1.287   1.720
14194TIP3    H242540   1.096   1.226   1.845
14195TIP3   OH242541   3.567   5.102   5.685
14195TIP3    H142542   3.504   5.032   5.669
14195TIP3    H242543   3.514   5.182   5.684
14196TIP3   OH242544   0.616   1.788   3.390
14196TIP3    H142545   0.543   1.781   3.329
14196TIP3    H242546   0.662   1.868   3.363
14197TIP3   OH242547   0.716   1.325   2.586
14197TIP3    H142548   0.728   1.266   2.511
14197TIP3    H242549   0.692   1.267   2.658
14198TIP3   OH242550   6.753   6.939   1.988
14198TIP3    H142551   6.816   7.005   1.960
14198TIP3    H242552   6.806   6.869   2.027
14199TIP3   OH242553   3.564   1.398   3.553
14199TIP3    H142554   3.581   1.448   3.633
14199TIP3    H242555   3.479   1.430   3.522
14200TIP3   OH242556   8.246   5.128   5.940
14200TIP3    H142557   8.218   5.203   5.993
14200TIP3    H242558   8.170   5.069   5.940
14201TIP3   OH242559   5.286   4.487   0.783
14201TIP3    H142560   5.239   4.450   0.709
14201TIP3    H242561   5.379   4.475   0.760
14202TIP3   OH242562   0.857   2.700   2.164
14202TIP3    H142563   0.859   2.736   2.253
14202TIP3    H242564   0.924   2.750   2.117
14203TIP3   OH242565   6.227   4.081   4.075
14203TIP3    H142566   6.296   4.125   4.125
14203TIP3    H242567   6.272   4.041   4.001
14204TIP3   OH242568   0.454   2.534   1.152
14204TIP3    H142569   0.369   2.528   1.108
14204TIP3    H242570   0.501   2.602   1.103
14205TIP3   OH242571   6.276   0.607   4.583
14205TIP3    H142572   6.294   0.701   4.577
14205TIP3    H242573   6.350   0.567   4.537
14206TIP3   OH242574   4.146   7.009   5.157
14206TIP3    H142575   4.065   7.003   5.106
14206TIP3    H242576   4.132   6.950   5.231
14207TIP3   OH242577   1.018   4.349   4.041
14207TIP3    H142578   0.969   4.322   4.119
14207TIP3    H242579   0.952   4.381   3.980
14208TIP3   OH242580   7.252   4.074   2.805
14208TIP3    H142581   7.235   4.073   2.899
14208TIP3    H242582   7.232   4.164   2.779
14209TIP3   OH242583   0.551   5.083   4.305
14209TIP3    H142584   0.565   5.097   4.212
14209TIP3    H242585   0.461   5.112   4.320
14210TIP3   OH242586   3.931   6.948   4.298
14210TIP3    H142587   3.958   6.871   4.348
14210TIP3    H242588   3.869   6.914   4.233
14211TIP3   OH242589   1.913   2.273   3.297
14211TIP3    H142590   1.839   2.234   3.250
14211TIP3    H242591   1.884   2.361   3.318
14212TIP3   OH242592   1.443   7.204   4.527
14212TIP3    H142593   1.471   7.143   4.458
14212TIP3    H242594   1.426   7.286   4.480
14213TIP3   OH242595   2.293   1.176   3.900
14213TIP3    H142596   2.378   1.219   3.912
14213TIP3    H242597   2.303   1.124   3.820
14214TIP3   OH242598   4.688   6.501   2.151
14214TIP3    H142599   4.723   6.471   2.067
14214TIP3    H242600   4.635   6.428   2.183
14215TIP3   OH242601   0.065   4.183   2.494
14215TIP3    H142602   0.133   4.146   2.550
14215TIP3    H242603   0.019   4.107   2.459
14216TIP3   OH242604   6.503   7.167   0.337
14216TIP3    H142605   6.535   7.173   0.247
14216TIP3    H242606   6.499   7.257   0.368
14217TIP3   OH242607   3.274   2.943   1.102
14217TIP3    H142608   3.327   3.018   1.128
14217TIP3    H242609   3.203   2.941   1.166
14218TIP3   OH242610   5.351   1.331   0.494
14218TIP3    H142611   5.396   1.376   0.422
14218TIP3    H242612   5.260   1.326   0.465
14219TIP3   OH242613   7.087   3.842   1.056
14219TIP3    H142614   7.074   3.937   1.065
14219TIP3    H242615   7.075   3.824   0.963
14220TIP3   OH242616   2.108   1.355   6.281
14220TIP3    H142617   2.042   1.343   6.213
14220TIP3    H242618   2.084   1.438   6.323
14221TIP3   OH242619   1.799   2.336   5.467
14221TIP3    H142620   1.846   2.352   5.549
14221TIP3    H242621   1.858   2.368   5.399
14222TIP3   OH242622   5.005   6.963   1.731
14222TIP3    H142623   5.081   6.957   1.789
14222TIP3    H242624   5.041   6.997   1.648
14223TIP3   OH242625   7.764   5.807   5.951
14223TIP3    H142626   7.750   5.876   6.016
14223TIP3    H242627   7.729   5.728   5.991
14224TIP3   OH242628   5.632   0.787   0.434
14224TIP3    H142629   5.609   0.699   0.464
14224TIP3    H242630   5.547   0.827   0.414
14225TIP3   OH242631   3.061   4.673   5.894
14225TIP3    H142632   2.985   4.728   5.912
14225TIP3    H242633   3.061   4.609   5.965
14226TIP3   OH242634   5.054   3.561   3.122
14226TIP3    H142635   5.077   3.468   3.114
14226TIP3    H242636   4.966   3.568   3.086
14227TIP3   OH242637   4.870   2.932   1.246
14227TIP3    H142638   4.819   2.952   1.324
14227TIP3    H242639   4.920   2.853   1.269
14228TIP3   OH242640   8.216   3.822   3.486
14228TIP3    H142641   8.161   3.891   3.447
14228TIP3    H242642   8.209   3.836   3.580
14229TIP3   OH242643   1.438   3.993   1.817
14229TIP3    H142644   1.445   4.052   1.892
14229TIP3    H242645   1.523   3.999   1.774
14230TIP3   OH242646   2.827   0.143   4.333
14230TIP3    H142647   2.905   0.192   4.307
14230TIP3    H242648   2.755   0.188   4.290
14231TIP3   OH242649   1.891   3.521   0.641
14231TIP3    H142650   1.820   3.493   0.583
14231TIP3    H242651   1.914   3.443   0.691
14232TIP3   OH242652   3.000   3.557   0.780
14232TIP3    H142653   2.965   3.474   0.747
14232TIP3    H242654   2.946   3.577   0.856
14233TIP3   OH242655   4.195   4.118   4.940
14233TIP3    H142656   4.200   4.109   5.036
14233TIP3    H242657   4.197   4.212   4.925
14234TIP3   OH242658   3.770   4.315   3.350
14234TIP3    H142659   3.699   4.251   3.356
14234TIP3    H242660   3.850   4.263   3.359
14235TIP3   OH242661   6.503   0.967   1.878
14235TIP3    H142662   6.497   0.932   1.789
14235TIP3    H242663   6.572   0.915   1.920
14236TIP3   OH242664   7.467   2.509   3.893
14236TIP3    H142665   7.431   2.460   3.819
14236TIP3    H242666   7.449   2.601   3.873
14237TIP3   OH242667   3.364   1.408   6.722
14237TIP3    H142668   3.405   1.479   6.672
14237TIP3    H242669   3.271   1.430   6.723
14238TIP3   OH242670   6.677   5.794   5.474
14238TIP3    H142671   6.707   5.711   5.436
14238TIP3    H242672   6.745   5.857   5.449
14239TIP3   OH242673   5.776   6.488   2.952
14239TIP3    H142674   5.774   6.571   2.903
14239TIP3    H242675   5.701   6.439   2.919
14240TIP3   OH242676   6.666   0.762   2.236
14240TIP3    H142677   6.665   0.837   2.176
14240TIP3    H242678   6.612   0.789   2.310
14241TIP3   OH242679   2.381   5.405   0.043
14241TIP3    H142680   2.305   5.352   0.066
14241TIP3    H242681   2.443   5.344   0.004
14242TIP3   OH242682   6.341   2.927   0.760
14242TIP3    H142683   6.313   2.851   0.708
14242TIP3    H242684   6.298   3.002   0.718
14243TIP3   OH242685   8.271   5.858   4.824
14243TIP3    H142686   8.344   5.920   4.815
14243TIP3    H242687   8.209   5.902   4.882
14244TIP3   OH242688   3.180   7.346   3.668
14244TIP3    H142689   3.158   7.396   3.589
14244TIP3    H242690   3.174   7.254   3.640
14245TIP3   OH242691   4.400   3.468   3.130
14245TIP3    H142692   4.476   3.522   3.155
14245TIP3    H242693   4.436   3.405   3.068
14246TIP3   OH242694   2.250   0.194   5.350
14246TIP3    H142695   2.238   0.267   5.411
14246TIP3    H242696   2.226   0.116   5.399
14247TIP3   OH242697   4.409   6.789   1.406
14247TIP3    H142698   4.415   6.701   1.443
14247TIP3    H242699   4.458   6.845   1.466
14248TIP3   OH242700   6.249   5.312   3.856
14248TIP3    H142701   6.312   5.321   3.927
14248TIP3    H242702   6.295   5.263   3.788
14249TIP3   OH242703   6.155   3.198   4.564
14249TIP3    H142704   6.138   3.291   4.557
14249TIP3    H242705   6.122   3.161   4.482
14250TIP3   OH242706   3.293   7.432   1.982
14250TIP3    H142707   3.264   7.505   1.928
14250TIP3    H242708   3.337   7.372   1.922
14251TIP3   OH242709   7.028   1.179   5.974
14251TIP3    H142710   7.048   1.139   5.889
14251TIP3    H242711   6.949   1.231   5.957
14252TIP3   OH242712   2.787   0.404   3.534
14252TIP3    H142713   2.771   0.376   3.444
14252TIP3    H242714   2.712   0.371   3.583
14253TIP3   OH242715   4.167   4.499   5.292
14253TIP3    H142716   4.114   4.552   5.352
14253TIP3    H242717   4.207   4.563   5.233
14254TIP3   OH242718   1.277   1.607   2.825
14254TIP3    H142719   1.276   1.631   2.918
14254TIP3    H242720   1.257   1.513   2.824
14255TIP3   OH242721   7.516   1.593   6.541
14255TIP3    H142722   7.516   1.563   6.632
14255TIP3    H242723   7.505   1.688   6.548
14256TIP3   OH242724   5.746   1.404   2.147
14256TIP3    H142725   5.729   1.481   2.201
14256TIP3    H242726   5.788   1.341   2.205
14257TIP3   OH242727   5.316   3.222   3.815
14257TIP3    H142728   5.241   3.278   3.792
14257TIP3    H242729   5.279   3.135   3.828
14258TIP3   OH242730   2.842   3.746   0.531
14258TIP3    H142731   2.770   3.743   0.467
14258TIP3    H242732   2.835   3.664   0.579
14259TIP3   OH242733   2.165  -0.006   0.200
14259TIP3    H142734   2.083   0.015   0.243
14259TIP3    H242735   2.231  -0.001   0.270
14260TIP3   OH242736   4.275   4.519   0.867
14260TIP3    H142737   4.358   4.527   0.820
14260TIP3    H242738   4.210   4.557   0.807
14261TIP3   OH242739   4.062   7.184   6.262
14261TIP3    H142740   4.054   7.205   6.169
14261TIP3    H242741   4.071   7.089   6.264
14262TIP3   OH242742   4.762   4.293   0.275
14262TIP3    H142743   4.753   4.214   0.221
14262TIP3    H242744   4.765   4.365   0.212
14263TIP3   OH242745   4.331   6.941   0.416
14263TIP3    H142746   4.257   6.905   0.466
14263TIP3    H242747   4.404   6.884   0.438
14264TIP3   OH242748   7.279   1.034   6.142
14264TIP3    H142749   7.319   1.039   6.229
14264TIP3    H242750   7.193   0.996   6.157
14265TIP3   OH242751   1.128   4.773   4.280
14265TIP3    H142752   1.135   4.858   4.236
14265TIP3    H242753   1.049   4.733   4.244
14266TIP3   OH242754   5.706   6.470   5.254
14266TIP3    H142755   5.623   6.503   5.218
14266TIP3    H242756   5.684   6.443   5.344
14267TIP3   OH242757   6.230   1.328   0.548
14267TIP3    H142758   6.291   1.355   0.617
14267TIP3    H242759   6.144   1.331   0.590
14268TIP3   OH242760   1.228   2.169   3.968
14268TIP3    H142761   1.200   2.256   3.937
14268TIP3    H242762   1.258   2.184   4.058
14269TIP3   OH242763   0.362   3.372   5.820
14269TIP3    H142764   0.435   3.434   5.825
14269TIP3    H242765   0.401   3.292   5.786
14270TIP3   OH242766   2.436   5.836   4.087
14270TIP3    H142767   2.507   5.773   4.081
14270TIP3    H242768   2.395   5.834   4.000
14271TIP3   OH242769   5.885   3.548   4.333
14271TIP3    H142770   5.846   3.461   4.341
14271TIP3    H242771   5.904   3.557   4.240
14272TIP3   OH242772   4.729   7.083   3.216
14272TIP3    H142773   4.714   7.110   3.125
14272TIP3    H242774   4.692   6.995   3.221
14273TIP3   OH242775   2.408   5.261   2.419
14273TIP3    H142776   2.457   5.191   2.461
14273TIP3    H242777   2.425   5.338   2.473
14274TIP3   OH242778   2.070   2.708   5.452
14274TIP3    H142779   2.156   2.740   5.425
14274TIP3    H242780   2.008   2.761   5.404
14275TIP3   OH242781   3.365   3.732   5.428
14275TIP3    H142782   3.352   3.640   5.451
14275TIP3    H242783   3.330   3.739   5.339
14276TIP3   OH242784   8.199   5.731   2.611
14276TIP3    H142785   8.245   5.678   2.676
14276TIP3    H242786   8.140   5.670   2.566
14277TIP3   OH242787   0.952   5.944   6.533
14277TIP3    H142788   0.973   5.858   6.496
14277TIP3    H242789   1.034   5.974   6.570
14278TIP3   OH242790   6.403   3.383   3.920
14278TIP3    H142791   6.474   3.323   3.899
14278TIP3    H242792   6.440   3.442   3.986
14279TIP3   OH242793   6.187   3.020   5.618
14279TIP3    H142794   6.256   2.961   5.648
14279TIP3    H242795   6.206   3.033   5.525
14280TIP3   OH242796   7.919   6.519   0.250
14280TIP3    H142797   7.960   6.453   0.306
14280TIP3    H242798   7.846   6.552   0.303
14281TIP3   OH242799   6.483   4.900   0.585
14281TIP3    H142800   6.538   4.849   0.644
14281TIP3    H242801   6.531   4.981   0.571
14282TIP3   OH242802   6.148   1.715   6.107
14282TIP3    H142803   6.102   1.774   6.047
14282TIP3    H242804   6.132   1.628   6.072
14283TIP3   OH242805   6.743   3.940   2.737
14283TIP3    H142806   6.663   3.959   2.689
14283TIP3    H242807   6.787   4.025   2.745
14284TIP3   OH242808   6.105   7.812   3.410
14284TIP3    H142809   6.018   7.851   3.411
14284TIP3    H242810   6.107   7.759   3.330
14285TIP3   OH242811   2.754   0.453   2.610
14285TIP3    H142812   2.766   0.522   2.675
14285TIP3    H242813   2.787   0.490   2.529
14286TIP3   OH242814   6.310   3.269   3.515
14286TIP3    H142815   6.399   3.238   3.527
14286TIP3    H242816   6.315   3.332   3.444
14287TIP3   OH242817   6.439   0.900   5.576
14287TIP3    H142818   6.367   0.954   5.609
14287TIP3    H242819   6.413   0.878   5.487
14288TIP3   OH242820   2.807   2.650   4.558
14288TIP3    H142821   2.784   2.735   4.596
14288TIP3    H242822   2.749   2.641   4.482
14289TIP3   OH242823   6.385   2.327   0.559
14289TIP3    H142824   6.377   2.391   0.489
14289TIP3    H242825   6.445   2.261   0.525
14290TIP3   OH242826   0.155   2.447   1.260
14290TIP3    H142827   0.190   2.479   1.177
14290TIP3    H242828   0.061   2.462   1.254
14291TIP3   OH242829   4.323   4.926   2.530
14291TIP3    H142830   4.235   4.889   2.529
14291TIP3    H242831   4.336   4.960   2.442
14292TIP3   OH242832   0.987   6.925   5.700
14292TIP3    H142833   1.074   6.955   5.674
14292TIP3    H242834   0.984   6.940   5.794
14293TIP3   OH242835   4.418   2.744   0.361
14293TIP3    H142836   4.511   2.746   0.383
14293TIP3    H242837   4.415   2.736   0.266
14294TIP3   OH242838   3.280   3.368   4.867
14294TIP3    H142839   3.275   3.343   4.960
14294TIP3    H242840   3.364   3.414   4.860
14295TIP3   OH242841   1.216   2.955   1.811
14295TIP3    H142842   1.303   2.954   1.772
14295TIP3    H242843   1.179   3.039   1.785
14296TIP3   OH242844   3.462   0.669   2.748
14296TIP3    H142845   3.404   0.655   2.823
14296TIP3    H242846   3.413   0.728   2.690
14297TIP3   OH242847   5.777   1.338   5.278
14297TIP3    H142848   5.754   1.424   5.244
14297TIP3    H242849   5.849   1.308   5.223
14298TIP3   OH242850   6.632   0.330   3.463
14298TIP3    H142851   6.541   0.343   3.490
14298TIP3    H242852   6.684   0.353   3.540
14299TIP3   OH242853   6.907   2.491   1.246
14299TIP3    H142854   6.962   2.550   1.297
14299TIP3    H242855   6.896   2.414   1.302
14300TIP3   OH242856   4.127   7.562   5.446
14300TIP3    H142857   4.194   7.629   5.450
14300TIP3    H242858   4.112   7.548   5.352
14301TIP3   OH242859   1.316   1.337   6.411
14301TIP3    H142860   1.255   1.379   6.471
14301TIP3    H242861   1.277   1.348   6.324
14302TIP3   OH242862   0.898   7.183   5.107
14302TIP3    H142863   0.841   7.134   5.166
14302TIP3    H242864   0.980   7.134   5.106
14303TIP3   OH242865   0.141   0.268   2.141
14303TIP3    H142866   0.188   0.352   2.136
14303TIP3    H242867   0.198   0.206   2.095
14304TIP3   OH242868   2.236   0.119   3.080
14304TIP3    H142869   2.249   0.212   3.060
14304TIP3    H242870   2.154   0.116   3.129
14305TIP3   OH242871   7.573   4.496   1.781
14305TIP3    H142872   7.545   4.574   1.829
14305TIP3    H242873   7.664   4.482   1.808
14306TIP3   OH242874   7.262   1.035   1.131
14306TIP3    H142875   7.167   1.032   1.120
14306TIP3    H242876   7.287   0.946   1.155
14307TIP3   OH242877   8.016   0.638   5.331
14307TIP3    H142878   8.089   0.678   5.286
14307TIP3    H242879   7.984   0.571   5.270
14308TIP3   OH242880   4.927   1.850   1.476
14308TIP3    H142881   4.945   1.927   1.422
14308TIP3    H242882   5.012   1.807   1.485
14309TIP3   OH242883   0.055   4.309   1.754
14309TIP3    H142884   0.079   4.218   1.771
14309TIP3    H242885   0.138   4.351   1.730
14310TIP3   OH242886   3.145   4.082   4.084
14310TIP3    H142887   3.231   4.125   4.085
14310TIP3    H242888   3.166   3.989   4.076
14311TIP3   OH242889   5.258   2.324   3.549
14311TIP3    H142890   5.175   2.292   3.513
14311TIP3    H242891   5.322   2.259   3.522
14312TIP3   OH242892   2.563   1.424   5.686
14312TIP3    H142893   2.612   1.417   5.604
14312TIP3    H242894   2.579   1.514   5.715
14313TIP3   OH242895   6.850   7.606   0.600
14313TIP3    H142896   6.818   7.573   0.516
14313TIP3    H242897   6.831   7.535   0.662
14314TIP3   OH242898   2.065   2.798   5.137
14314TIP3    H142899   2.110   2.881   5.122
14314TIP3    H242900   2.021   2.810   5.221
14315TIP3   OH242901   5.228   1.082   0.158
14315TIP3    H142902   5.227   1.033   0.076
14315TIP3    H242903   5.138   1.112   0.169
14316TIP3   OH242904   3.465   1.208   2.624
14316TIP3    H142905   3.437   1.197   2.715
14316TIP3    H242906   3.537   1.145   2.613
14317TIP3   OH242907   5.155   2.238   6.442
14317TIP3    H142908   5.238   2.200   6.470
14317TIP3    H242909   5.157   2.232   6.346
14318TIP3   OH242910   7.687   2.481   6.650
14318TIP3    H142911   7.715   2.401   6.605
14318TIP3    H242912   7.610   2.510   6.601
14319TIP3   OH242913   0.548   6.982   3.752
14319TIP3    H142914   0.497   7.054   3.788
14319TIP3    H242915   0.585   7.017   3.671
14320TIP3   OH242916   6.485   5.168   4.697
14320TIP3    H142917   6.550   5.197   4.633
14320TIP3    H242918   6.536   5.149   4.776
14321TIP3   OH242919   4.004   5.841   5.561
14321TIP3    H142920   3.930   5.788   5.530
14321TIP3    H242921   4.078   5.812   5.507
14322TIP3   OH242922   7.326   4.056   3.557
14322TIP3    H142923   7.295   3.972   3.590
14322TIP3    H242924   7.343   4.108   3.636
14323TIP3   OH242925   4.223   4.736   5.091
14323TIP3    H142926   4.285   4.796   5.049
14323TIP3    H242927   4.139   4.783   5.090
14324TIP3   OH242928   7.666   3.007   4.247
14324TIP3    H142929   7.671   3.074   4.179
14324TIP3    H242930   7.748   3.017   4.296
14325TIP3   OH242931   8.063   6.274   3.883
14325TIP3    H142932   8.112   6.247   3.961
14325TIP3    H242933   8.006   6.344   3.913
14326TIP3   OH242934   2.633   4.992   1.768
14326TIP3    H142935   2.623   4.982   1.674
14326TIP3    H242936   2.563   4.939   1.806
14327TIP3   OH242937   1.367   6.220   6.651
14327TIP3    H142938   1.338   6.309   6.632
14327TIP3    H242939   1.431   6.229   6.722
14328TIP3   OH242940   0.294   6.196   6.197
14328TIP3    H142941   0.260   6.277   6.158
14328TIP3    H242942   0.247   6.126   6.151
14329TIP3   OH242943   3.026   5.989   6.444
14329TIP3    H142944   3.063   6.026   6.364
14329TIP3    H242945   3.087   5.920   6.470
14330TIP3   OH242946   1.963   5.499   6.080
14330TIP3    H142947   1.906   5.499   6.003
14330TIP3    H242948   1.943   5.582   6.124
14331TIP3   OH242949   3.769   2.961   2.439
14331TIP3    H142950   3.819   2.880   2.429
14331TIP3    H242951   3.770   3.000   2.351
14332TIP3   OH242952   7.046   7.503   1.045
14332TIP3    H142953   6.953   7.512   1.068
14332TIP3    H242954   7.089   7.577   1.087
14333TIP3   OH242955   1.715   7.518   2.497
14333TIP3    H142956   1.627   7.552   2.513
14333TIP3    H242957   1.729   7.530   2.403
14334TIP3   OH242958   4.197   1.659   5.568
14334TIP3    H142959   4.281   1.665   5.523
14334TIP3    H242960   4.204   1.580   5.622
14335TIP3   OH242961   3.620   1.842   0.886
14335TIP3    H142962   3.537   1.840   0.934
14335TIP3    H242963   3.650   1.751   0.888
14336TIP3   OH242964   1.082   4.105   3.885
14336TIP3    H142965   1.051   4.046   3.954
14336TIP3    H242966   1.084   4.192   3.927
14337TIP3   OH242967   7.071   0.160   5.978
14337TIP3    H142968   7.014   0.177   5.904
14337TIP3    H242969   7.027   0.091   6.028
14338TIP3   OH242970   3.509   2.727   0.575
14338TIP3    H142971   3.477   2.813   0.603
14338TIP3    H242972   3.576   2.704   0.640
14339TIP3   OH242973   1.005   0.124   1.021
14339TIP3    H142974   1.016   0.149   0.930
14339TIP3    H242975   1.083   0.158   1.065
14340TIP3   OH242976   4.643   1.680   3.290
14340TIP3    H142977   4.609   1.611   3.348
14340TIP3    H242978   4.588   1.675   3.212
14341TIP3   OH242979   6.373   6.466   3.708
14341TIP3    H142980   6.400   6.474   3.799
14341TIP3    H242981   6.315   6.389   3.706
14342TIP3   OH242982   3.619   4.515   2.785
14342TIP3    H142983   3.613   4.461   2.706
14342TIP3    H242984   3.698   4.568   2.772
14343TIP3   OH242985   3.744   3.032   0.651
14343TIP3    H142986   3.791   3.095   0.596
14343TIP3    H242987   3.786   2.948   0.633
14344TIP3   OH242988   4.897   5.997   1.774
14344TIP3    H142989   4.921   5.962   1.860
14344TIP3    H242990   4.828   6.061   1.793
14345TIP3   OH242991   0.636   1.060   1.774
14345TIP3    H142992   0.562   1.000   1.785
14345TIP3    H242993   0.711   1.002   1.758
14346TIP3   OH242994   5.657   6.638   0.621
14346TIP3    H142995   5.601   6.666   0.694
14346TIP3    H242996   5.716   6.573   0.660
14347TIP3   OH242997   6.954   6.161   3.231
14347TIP3    H142998   6.984   6.232   3.287
14347TIP3    H242999   7.013   6.162   3.156
14348TIP3   OH243000   3.559   6.891   6.466
14348TIP3    H143001   3.604   6.808   6.484
14348TIP3    H243002   3.566   6.903   6.372
14349TIP3   OH243003   6.173   3.754   5.891
14349TIP3    H143004   6.121   3.806   5.831
14349TIP3    H243005   6.155   3.663   5.866
14350TIP3   OH243006   0.526   6.574   5.420
14350TIP3    H143007   0.547   6.511   5.351
14350TIP3    H243008   0.518   6.657   5.374
14351TIP3   OH243009   8.313   2.474   3.835
14351TIP3    H143010   8.258   2.530   3.890
14351TIP3    H243011   8.251   2.432   3.775
14352TIP3   OH243012   2.289   4.856   1.390
14352TIP3    H143013   2.281   4.841   1.296
14352TIP3    H243014   2.201   4.841   1.424
14353TIP3   OH243015   1.925   6.456   6.676
14353TIP3    H143016   1.999   6.458   6.737
14353TIP3    H243017   1.848   6.462   6.732
14354TIP3   OH243018   7.876   3.830   3.384
14354TIP3    H143019   7.923   3.751   3.358
14354TIP3    H243020   7.938   3.901   3.368
14355TIP3   OH243021   4.218   4.993   6.347
14355TIP3    H143022   4.216   4.976   6.441
14355TIP3    H243023   4.215   5.089   6.340
14356TIP3   OH243024   6.727   6.121   5.907
14356TIP3    H143025   6.706   6.054   5.842
14356TIP3    H243026   6.731   6.203   5.858
14357TIP3   OH243027   7.255   6.513   0.627
14357TIP3    H143028   7.264   6.419   0.642
14357TIP3    H243029   7.331   6.551   0.671
14358TIP3   OH243030   4.115   2.291   3.583
14358TIP3    H143031   4.071   2.207   3.598
14358TIP3    H243032   4.149   2.284   3.494
14359TIP3   OH243033   8.132   0.130   0.543
14359TIP3    H143034   8.111   0.123   0.449
14359TIP3    H243035   8.079   0.062   0.584
14360TIP3   OH243036   3.697   0.920   6.436
14360TIP3    H143037   3.681   0.929   6.342
14360TIP3    H243038   3.791   0.902   6.442
14361TIP3   OH243039   6.003   7.800   4.181
14361TIP3    H143040   5.976   7.743   4.110
14361TIP3    H243041   6.068   7.858   4.142
14362TIP3   OH243042   1.408   4.939   5.778
14362TIP3    H143043   1.420   5.033   5.763
14362TIP3    H243044   1.323   4.919   5.739
14363TIP3   OH243045   1.869   2.378   3.722
14363TIP3    H143046   1.892   2.467   3.748
14363TIP3    H243047   1.843   2.335   3.803
14364TIP3   OH243048   6.987   5.638   5.584
14364TIP3    H143049   6.981   5.733   5.596
14364TIP3    H243050   7.024   5.606   5.667
14365TIP3   OH243051   2.445   3.341   3.566
14365TIP3    H143052   2.444   3.364   3.659
14365TIP3    H243053   2.437   3.424   3.521
14366TIP3   OH243054   4.359   0.210   0.577
14366TIP3    H143055   4.330   0.143   0.516
14366TIP3    H243056   4.436   0.171   0.620
14367TIP3   OH243057   3.610   3.548   3.927
14367TIP3    H143058   3.623   3.636   3.961
14367TIP3    H243059   3.519   3.545   3.900
14368TIP3   OH243060   3.139   6.222   2.869
14368TIP3    H143061   3.044   6.231   2.876
14368TIP3    H243062   3.155   6.127   2.871
14369TIP3   OH243063   1.834   4.396   3.724
14369TIP3    H143064   1.762   4.457   3.744
14369TIP3    H243065   1.907   4.453   3.699
14370TIP3   OH243066   4.815   4.809   1.010
14370TIP3    H143067   4.736   4.840   0.966
14370TIP3    H243068   4.849   4.884   1.057
14371TIP3   OH243069   4.353   7.331   3.445
14371TIP3    H143070   4.294   7.402   3.421
14371TIP3    H243071   4.426   7.374   3.490
14372TIP3   OH243072   6.055   6.452   4.406
14372TIP3    H143073   6.121   6.490   4.348
14372TIP3    H243074   6.087   6.471   4.494
14373TIP3   OH243075   3.109   2.944   2.196
14373TIP3    H143076   3.105   2.948   2.291
14373TIP3    H243077   3.199   2.967   2.174
14374TIP3   OH243078   1.056   7.766   2.994
14374TIP3    H143079   1.108   7.844   2.978
14374TIP3    H243080   0.966   7.793   2.979
14375TIP3   OH243081   0.156   3.657   2.327
14375TIP3    H143082   0.246   3.649   2.359
14375TIP3    H243083   0.141   3.576   2.279
14376TIP3   OH243084   2.656   4.391   6.081
14376TIP3    H143085   2.605   4.468   6.056
14376TIP3    H243086   2.635   4.379   6.174
14377TIP3   OH243087   0.543   5.784   5.705
14377TIP3    H143088   0.618   5.726   5.720
14377TIP3    H243089   0.557   5.819   5.617
14378TIP3   OH243090   4.354   1.441   2.364
14378TIP3    H143091   4.312   1.521   2.332
14378TIP3    H243092   4.443   1.469   2.386
14379TIP3   OH243093   5.431   4.562   1.076
14379TIP3    H143094   5.458   4.620   1.147
14379TIP3    H243095   5.350   4.600   1.043
14380TIP3   OH243096   3.385   1.433   4.847
14380TIP3    H143097   3.480   1.427   4.840
14380TIP3    H243098   3.364   1.388   4.929
14381TIP3   OH243099   6.711   1.112   1.483
14381TIP3    H143100   6.706   1.141   1.574
14381TIP3    H243101   6.741   1.189   1.435
14382TIP3   OH243102   4.265   6.453   2.602
14382TIP3    H143103   4.296   6.379   2.656
14382TIP3    H243104   4.180   6.475   2.639
14383TIP3   OH243105   4.313   3.700   0.673
14383TIP3    H143106   4.310   3.648   0.593
14383TIP3    H243107   4.278   3.643   0.740
14384TIP3   OH243108   1.015   2.941   2.228
14384TIP3    H143109   0.940   2.988   2.264
14384TIP3    H243110   1.032   2.871   2.291
14385TIP3   OH243111   3.565   5.571   5.912
14385TIP3    H143112   3.545   5.634   5.981
14385TIP3    H243113   3.480   5.537   5.885
14386TIP3   OH243114   0.233   5.360   4.205
14386TIP3    H143115   0.322   5.381   4.178
14386TIP3    H243116   0.200   5.302   4.137
14387TIP3   OH243117   7.970   5.596   0.994
14387TIP3    H143118   8.038   5.586   0.928
14387TIP3    H243119   7.891   5.617   0.945
14388TIP3   OH243120   1.910   5.733   1.078
14388TIP3    H143121   1.993   5.687   1.067
14388TIP3    H243122   1.920   5.815   1.030
14389TIP3   OH243123   6.814   1.230   2.015
14389TIP3    H143124   6.803   1.273   2.100
14389TIP3    H243125   6.891   1.271   1.977
14390TIP3   OH243126   0.830   6.067   5.205
14390TIP3    H143127   0.918   6.074   5.242
14390TIP3    H243128   0.801   5.980   5.231
14391TIP3   OH243129   6.337   7.733   3.764
14391TIP3    H143130   6.407   7.778   3.811
14391TIP3    H243131   6.380   7.698   3.686
14392TIP3   OH243132   3.045   5.577   0.869
14392TIP3    H143133   2.962   5.624   0.864
14392TIP3    H243134   3.074   5.587   0.960
14393TIP3   OH243135   1.227   5.683   4.597
14393TIP3    H143136   1.221   5.699   4.692
14393TIP3    H243137   1.317   5.654   4.584
14394TIP3   OH243138   4.008   4.589   4.337
14394TIP3    H143139   4.017   4.642   4.258
14394TIP3    H243140   3.930   4.624   4.381
14395TIP3   OH243141   4.654   6.425   5.812
14395TIP3    H143142   4.677   6.383   5.895
14395TIP3    H243143   4.632   6.515   5.836
14396TIP3   OH243144   4.571   7.186   0.298
14396TIP3    H143145   4.590   7.094   0.316
14396TIP3    H243146   4.655   7.223   0.272
14397TIP3   OH243147   5.423   3.022   0.806
14397TIP3    H143148   5.498   3.042   0.862
14397TIP3    H243149   5.449   2.942   0.760
14398TIP3   OH243150   0.647   1.231   6.749
14398TIP3    H143151   0.708   1.170   6.709
14398TIP3    H243152   0.700   1.281   6.811
14399TIP3   OH243153   7.463   4.116   2.070
14399TIP3    H143154   7.455   4.051   2.140
14399TIP3    H243155   7.531   4.081   2.012
14400TIP3   OH243156   1.647   2.307   5.099
14400TIP3    H143157   1.576   2.300   5.035
14400TIP3    H243158   1.724   2.276   5.052
14401TIP3   OH243159   4.632   7.233   1.280
14401TIP3    H143160   4.717   7.265   1.310
14401TIP3    H243161   4.613   7.159   1.337
14402TIP3   OH243162   6.282   1.957   0.417
14402TIP3    H143163   6.308   1.869   0.445
14402TIP3    H243164   6.274   2.007   0.498
14403TIP3   OH243165   1.091   1.979   1.108
14403TIP3    H143166   1.024   2.047   1.121
14403TIP3    H243167   1.044   1.897   1.123
14404TIP3   OH243168   3.345   4.255   0.130
14404TIP3    H143169   3.374   4.168   0.104
14404TIP3    H243170   3.386   4.270   0.216
14405TIP3   OH243171   7.307   3.155   3.518
14405TIP3    H143172   7.264   3.174   3.435
14405TIP3    H243173   7.347   3.238   3.544
14406TIP3   OH243174   7.588   7.060   2.410
14406TIP3    H143175   7.542   7.117   2.349
14406TIP3    H243176   7.545   6.975   2.402
14407TIP3   OH243177   7.207   6.297   6.731
14407TIP3    H143178   7.223   6.316   6.638
14407TIP3    H243179   7.156   6.372   6.762
14408TIP3   OH243180   4.483   6.612   0.026
14408TIP3    H143181   4.516   6.631   0.114
14408TIP3    H243182   4.556   6.568  -0.018
14409TIP3   OH243183   8.004   2.390   1.905
14409TIP3    H143184   7.949   2.356   1.975
14409TIP3    H243185   7.954   2.373   1.825
14410TIP3   OH243186   2.438   5.142   4.695
14410TIP3    H143187   2.513   5.192   4.664
14410TIP3    H243188   2.437   5.157   4.790
14411TIP3   OH243189   3.633   4.800   0.730
14411TIP3    H143190   3.692   4.833   0.663
14411TIP3    H243191   3.690   4.759   0.795
14412TIP3   OH243192   1.221   6.961   0.156
14412TIP3    H143193   1.137   7.002   0.177
14412TIP3    H243194   1.277   7.034   0.130
14413TIP3   OH243195   6.164   6.994   2.558
14413TIP3    H143196   6.109   6.915   2.564
14413TIP3    H243197   6.252   6.964   2.581
14414TIP3   OH243198   5.861   1.154   3.345
14414TIP3    H143199   5.835   1.176   3.255
14414TIP3    H243200   5.867   1.058   3.344
14415TIP3   OH243201   6.456   4.764   2.460
14415TIP3    H143202   6.446   4.852   2.497
14415TIP3    H243203   6.462   4.706   2.535
14416TIP3   OH243204   3.898   6.965   4.987
14416TIP3    H143205   3.855   7.033   4.935
14416TIP3    H243206   3.838   6.948   5.059
14417TIP3   OH243207   2.640   0.041   2.300
14417TIP3    H143208   2.678   0.101   2.365
14417TIP3    H243209   2.641   0.091   2.218
14418TIP3   OH243210   0.353   0.360   2.742
14418TIP3    H143211   0.336   0.338   2.650
14418TIP3    H243212   0.351   0.275   2.787
14419TIP3   OH243213   0.810   7.615   0.254
14419TIP3    H143214   0.819   7.521   0.267
14419TIP3    H243215   0.871   7.635   0.183
14420TIP3   OH243216   3.511   6.074   0.762
14420TIP3    H143217   3.567   6.147   0.736
14420TIP3    H243218   3.422   6.105   0.744
14421TIP3   OH243219   6.607   5.976   5.689
14421TIP3    H143220   6.582   5.898   5.738
14421TIP3    H243221   6.687   5.951   5.644
14422TIP3   OH243222   1.117   1.620   1.435
14422TIP3    H143223   1.073   1.548   1.480
14422TIP3    H243224   1.125   1.689   1.501
14423TIP3   OH243225   1.501   4.101   4.114
14423TIP3    H143226   1.440   4.031   4.135
14423TIP3    H243227   1.446   4.179   4.101
14424TIP3   OH243228   4.740   3.728   4.555
14424TIP3    H143229   4.819   3.678   4.535
14424TIP3    H243230   4.688   3.668   4.609
14425TIP3   OH243231   0.224   2.550   1.006
14425TIP3    H143232   0.236   2.509   0.920
14425TIP3    H243233   0.164   2.623   0.990
14426TIP3   OH243234   3.270   1.228   5.323
14426TIP3    H143235   3.348   1.282   5.329
14426TIP3    H243236   3.234   1.226   5.411
14427TIP3   OH243237   1.465   1.762   2.735
14427TIP3    H143238   1.380   1.723   2.755
14427TIP3    H243239   1.444   1.850   2.702
14428TIP3   OH243240   5.304   2.008   0.879
14428TIP3    H143241   5.362   2.076   0.912
14428TIP3    H243242   5.216   2.042   0.895
14429TIP3   OH243243   1.856   5.757   0.721
14429TIP3    H143244   1.780   5.814   0.732
14429TIP3    H243245   1.827   5.671   0.752
14430TIP3   OH243246   8.195   7.585   5.141
14430TIP3    H143247   8.129   7.648   5.171
14430TIP3    H243248   8.278   7.620   5.175
14431TIP3   OH243249   7.942   3.925   5.840
14431TIP3    H143250   8.018   3.982   5.829
14431TIP3    H243251   7.979   3.841   5.868
14432TIP3   OH243252   4.159   0.622   0.035
14432TIP3    H143253   4.217   0.562  -0.013
14432TIP3    H243254   4.208   0.704   0.041
14433TIP3   OH243255   3.935   1.093   4.566
14433TIP3    H143256   3.966   1.131   4.648
14433TIP3    H243257   3.934   1.168   4.505
14434TIP3   OH243258   3.380   6.668   2.366
14434TIP3    H143259   3.297   6.625   2.342
14434TIP3    H243260   3.354   6.744   2.418
14435TIP3   OH243261   3.614   1.421   5.982
14435TIP3    H143262   3.653   1.471   6.055
14435TIP3    H243263   3.540   1.475   5.954
14436TIP3   OH243264   2.768   3.398   4.957
14436TIP3    H143265   2.806   3.375   4.872
14436TIP3    H243266   2.748   3.492   4.949
14437TIP3   OH243267   2.428   0.037   3.707
14437TIP3    H143268   2.399  -0.039   3.658
14437TIP3    H243269   2.473   0.092   3.643
14438TIP3   OH243270   2.184   5.455   0.434
14438TIP3    H143271   2.221   5.367   0.433
14438TIP3    H243272   2.130   5.457   0.513
14439TIP3   OH243273   1.051   5.847   2.372
14439TIP3    H143274   1.091   5.933   2.383
14439TIP3    H243275   0.978   5.846   2.434
14440TIP3   OH243276   0.521   0.894   5.459
14440TIP3    H143277   0.474   0.874   5.540
14440TIP3    H243278   0.455   0.883   5.390
14441TIP3   OH243279   7.729   6.990   1.397
14441TIP3    H143280   7.798   6.924   1.388
14441TIP3    H243281   7.728   7.036   1.313
14442TIP3   OH243282   3.673   3.510   0.653
14442TIP3    H143283   3.714   3.448   0.593
14442TIP3    H243284   3.579   3.490   0.649
14443TIP3   OH243285   5.600   2.155   2.712
14443TIP3    H143286   5.533   2.181   2.775
14443TIP3    H243287   5.635   2.238   2.680
14444TIP3   OH243288   4.021   0.908   6.347
14444TIP3    H143289   4.098   0.940   6.394
14444TIP3    H243290   3.998   0.980   6.288
14445TIP3   OH243291   4.794   2.762   5.233
14445TIP3    H143292   4.749   2.843   5.258
14445TIP3    H243293   4.769   2.747   5.142
14446TIP3   OH243294   8.272   2.456   5.724
14446TIP3    H143295   8.226   2.405   5.790
14446TIP3    H243296   8.353   2.483   5.767
14447TIP3   OH243297   1.456   6.308   3.490
14447TIP3    H143298   1.490   6.311   3.579
14447TIP3    H243299   1.374   6.358   3.494
14448TIP3   OH243300   6.250   3.737   6.197
14448TIP3    H143301   6.311   3.810   6.207
14448TIP3    H243302   6.255   3.714   6.104
14449TIP3   OH243303   4.026   1.739   1.597
14449TIP3    H143304   4.029   1.821   1.645
14449TIP3    H243305   4.000   1.674   1.662
14450TIP3   OH243306   5.178   2.932   0.491
14450TIP3    H143307   5.235   2.924   0.568
14450TIP3    H243308   5.090   2.935   0.527
14451TIP3   OH243309   3.721   6.727   2.559
14451TIP3    H143310   3.685   6.722   2.648
14451TIP3    H243311   3.738   6.635   2.535
14452TIP3   OH243312   0.089   3.738   4.003
14452TIP3    H143313   0.132   3.780   3.928
14452TIP3    H243314   0.157   3.736   4.071
14453TIP3   OH243315   1.301   5.181   4.145
14453TIP3    H143316   1.336   5.123   4.077
14453TIP3    H243317   1.326   5.269   4.116
14454TIP3   OH243318   3.710   6.661   6.571
14454TIP3    H143319   3.791   6.637   6.616
14454TIP3    H243320   3.641   6.617   6.620
14455TIP3   OH243321   2.509   5.685   1.268
14455TIP3    H143322   2.470   5.725   1.346
14455TIP3    H243323   2.458   5.605   1.255
14456TIP3   OH243324   7.413   5.242   1.893
14456TIP3    H143325   7.470   5.183   1.943
14456TIP3    H243326   7.351   5.277   1.957
14457TIP3   OH243327   2.288   0.673   3.886
14457TIP3    H143328   2.277   0.612   3.959
14457TIP3    H243329   2.201   0.713   3.875
14458TIP3   OH243330   4.575   5.341   4.218
14458TIP3    H143331   4.613   5.419   4.260
14458TIP3    H243332   4.629   5.268   4.249
14459TIP3   OH243333   6.405   7.183   3.071
14459TIP3    H143334   6.329   7.239   3.086
14459TIP3    H243335   6.418   7.138   3.155
14460TIP3   OH243336   2.921   4.793   1.135
14460TIP3    H143337   2.964   4.767   1.053
14460TIP3    H243338   2.829   4.770   1.122
14461TIP3   OH243339   5.498   1.279   3.731
14461TIP3    H143340   5.537   1.262   3.817
14461TIP3    H243341   5.415   1.323   3.752
14462TIP3   OH243342   4.439   5.802   0.934
14462TIP3    H143343   4.401   5.797   0.846
14462TIP3    H243344   4.533   5.813   0.919
14463TIP3   OH243345   2.533   4.699   5.574
14463TIP3    H143346   2.457   4.710   5.517
14463TIP3    H243347   2.558   4.788   5.599
14464TIP3   OH243348   6.144   6.346   0.808
14464TIP3    H143349   6.087   6.269   0.800
14464TIP3    H243350   6.225   6.320   0.765
14465TIP3   OH243351   0.425   3.490   2.160
14465TIP3    H143352   0.413   3.408   2.207
14465TIP3    H243353   0.413   3.558   2.226
14466TIP3   OH243354   8.222   1.954   4.047
14466TIP3    H143355   8.225   2.025   3.983
14466TIP3    H243356   8.311   1.952   4.084
14467TIP3   OH243357   4.662   4.231   2.392
14467TIP3    H143358   4.700   4.216   2.305
14467TIP3    H243359   4.581   4.180   2.392
14468TIP3   OH243360   2.186   0.276   3.404
14468TIP3    H143361   2.109   0.325   3.376
14468TIP3    H243362   2.219   0.323   3.481
14469TIP3   OH243363   0.418   3.652   0.852
14469TIP3    H143364   0.513   3.657   0.858
14469TIP3    H243365   0.387   3.720   0.912
14470TIP3   OH243366   7.723   5.656   5.061
14470TIP3    H143367   7.775   5.737   5.059
14470TIP3    H243368   7.789   5.587   5.064
14471TIP3   OH243369   5.611   0.667   2.180
14471TIP3    H143370   5.660   0.713   2.111
14471TIP3    H243371   5.621   0.575   2.158
14472TIP3   OH243372   4.766   0.288   6.335
14472TIP3    H143373   4.861   0.298   6.339
14472TIP3    H243374   4.747   0.280   6.242
14473TIP3   OH243375   6.210   2.103   1.018
14473TIP3    H143376   6.189   2.073   1.106
14473TIP3    H243377   6.215   2.198   1.026
14474TIP3   OH243378   4.536   5.238   4.518
14474TIP3    H143379   4.599   5.180   4.475
14474TIP3    H243380   4.561   5.326   4.488
14475TIP3   OH243381   1.445   2.591   2.521
14475TIP3    H143382   1.515   2.559   2.579
14475TIP3    H243383   1.416   2.673   2.561
14476TIP3   OH243384   8.094   2.353   6.006
14476TIP3    H143385   8.098   2.263   6.039
14476TIP3    H243386   8.002   2.378   6.014
14477TIP3   OH243387   7.785   0.537   6.767
14477TIP3    H143388   7.792   0.586   6.686
14477TIP3    H243389   7.728   0.589   6.823
14478TIP3   OH243390   4.631   5.254   6.306
14478TIP3    H143391   4.666   5.173   6.344
14478TIP3    H243392   4.665   5.324   6.361
14479TIP3   OH243393   0.489   3.668   1.549
14479TIP3    H143394   0.474   3.574   1.547
14479TIP3    H243395   0.561   3.682   1.486
14480TIP3   OH243396   6.079   7.589   0.838
14480TIP3    H143397   6.069   7.494   0.843
14480TIP3    H243398   5.989   7.623   0.841
14481TIP3   OH243399   1.557   5.650   1.449
14481TIP3    H143400   1.600   5.733   1.471
14481TIP3    H243401   1.569   5.641   1.355
14482TIP3   OH243402   6.606   0.767   5.278
14482TIP3    H143403   6.606   0.744   5.185
14482TIP3    H243404   6.657   0.848   5.282
14483TIP3   OH243405   8.074   4.474   0.434
14483TIP3    H143406   8.004   4.538   0.446
14483TIP3    H243407   8.114   4.464   0.520
14484TIP3   OH243408   2.124   2.707   0.051
14484TIP3    H143409   2.118   2.629  -0.004
14484TIP3    H243410   2.056   2.695   0.118
14485TIP3   OH243411   5.100   7.724   3.240
14485TIP3    H143412   5.016   7.763   3.215
14485TIP3    H243413   5.113   7.653   3.178
14486TIP3   OH243414   0.657   7.532   3.606
14486TIP3    H143415   0.593   7.604   3.607
14486TIP3    H243416   0.676   7.519   3.513
14487TIP3   OH243417   1.372   3.982   3.372
14487TIP3    H143418   1.423   4.024   3.441
14487TIP3    H243419   1.281   3.988   3.403
14488TIP3   OH243420   5.498   4.048   4.012
14488TIP3    H143421   5.433   3.978   4.008
14488TIP3    H243422   5.578   4.005   4.043
14489TIP3   OH243423   0.950   5.213   0.066
14489TIP3    H143424   0.861   5.242   0.088
14489TIP3    H243425   0.940   5.122   0.038
14490TIP3   OH243426   1.166   5.377   4.313
14490TIP3    H143427   1.199   5.288   4.310
14490TIP3    H243428   1.113   5.387   4.234
14491TIP3   OH243429   7.576   0.606   5.155
14491TIP3    H143430   7.657   0.645   5.122
14491TIP3    H243431   7.565   0.526   5.104
14492TIP3   OH243432   7.612   3.140   5.519
14492TIP3    H143433   7.562   3.135   5.600
14492TIP3    H243434   7.703   3.147   5.547
14493TIP3   OH243435   2.609   1.733   4.182
14493TIP3    H143436   2.695   1.692   4.190
14493TIP3    H243437   2.584   1.719   4.090
14494TIP3   OH243438   0.684   4.587   3.043
14494TIP3    H143439   0.716   4.658   2.987
14494TIP3    H243440   0.758   4.527   3.050
14495TIP3   OH243441   3.346   1.495   2.020
14495TIP3    H143442   3.440   1.515   2.023
14495TIP3    H243443   3.308   1.552   2.088
14496TIP3   OH243444   8.131   5.827   1.593
14496TIP3    H143445   8.195   5.778   1.644
14496TIP3    H243446   8.048   5.780   1.607
14497TIP3   OH243447   1.771   3.795   4.247
14497TIP3    H143448   1.794   3.732   4.179
14497TIP3    H243449   1.799   3.753   4.328
14498TIP3   OH243450   6.629   0.661   1.915
14498TIP3    H143451   6.667   0.627   1.995
14498TIP3    H243452   6.599   0.584   1.867
14499TIP3   OH243453   3.118   0.886   1.609
14499TIP3    H143454   3.212   0.874   1.617
14499TIP3    H243455   3.082   0.798   1.609
14500TIP3   OH243456   7.475   2.752   6.484
14500TIP3    H143457   7.389   2.787   6.462
14500TIP3    H243458   7.462   2.657   6.489
14501TIP3   OH243459   6.447   2.560   4.857
14501TIP3    H143460   6.440   2.471   4.892
14501TIP3    H243461   6.532   2.591   4.890
14502TIP3   OH243462   4.010   0.154   2.059
14502TIP3    H143463   4.050   0.213   2.123
14502TIP3    H243464   3.923   0.191   2.043
14503TIP3   OH243465   6.409   0.833   3.595
14503TIP3    H143466   6.326   0.813   3.553
14503TIP3    H243467   6.412   0.928   3.600
14504TIP3   OH243468   7.111   3.798   1.345
14504TIP3    H143469   7.102   3.792   1.250
14504TIP3    H243470   7.021   3.796   1.377
14505TIP3   OH243471   4.004   2.739   4.864
14505TIP3    H143472   3.954   2.820   4.858
14505TIP3    H243473   4.025   2.717   4.773
14506TIP3   OH243474   2.001   6.352   0.117
14506TIP3    H143475   2.057   6.354   0.195
14506TIP3    H243476   2.048   6.406   0.053
14507TIP3   OH243477   4.025   6.145   0.384
14507TIP3    H143478   3.937   6.169   0.413
14507TIP3    H243479   4.080   6.162   0.460
14508TIP3   OH243480   2.606   1.072   4.122
14508TIP3    H143481   2.563   1.005   4.176
14508TIP3    H243482   2.686   1.094   4.170
14509TIP3   OH243483   7.083   4.530   5.359
14509TIP3    H143484   7.118   4.583   5.287
14509TIP3    H243485   7.140   4.551   5.433
14510TIP3   OH243486   1.897   0.050   0.321
14510TIP3    H143487   1.815   0.077   0.280
14510TIP3    H243488   1.894   0.089   0.409
14511TIP3   OH243489   2.956   4.118   3.714
14511TIP3    H143490   2.977   4.154   3.800
14511TIP3    H243491   2.897   4.183   3.675
14512TIP3   OH243492   4.083   1.833   0.594
14512TIP3    H143493   4.110   1.807   0.506
14512TIP3    H243494   4.008   1.890   0.581
14513TIP3   OH243495   1.073   5.586   2.848
14513TIP3    H143496   1.061   5.671   2.807
14513TIP3    H243497   0.986   5.562   2.879
14514TIP3   OH243498   3.518   6.717   1.107
14514TIP3    H143499   3.581   6.659   1.151
14514TIP3    H243500   3.519   6.797   1.158
14515TIP3   OH243501   5.850   6.938   2.788
14515TIP3    H143502   5.821   7.027   2.807
14515TIP3    H243503   5.940   6.934   2.822
14516TIP3   OH243504   3.369   5.287   4.731
14516TIP3    H143505   3.326   5.260   4.650
14516TIP3    H243506   3.299   5.326   4.784
14517TIP3   OH243507   4.945   0.353   3.492
14517TIP3    H143508   4.997   0.359   3.412
14517TIP3    H243509   4.968   0.433   3.541
14518TIP3   OH243510   1.741   5.300   6.693
14518TIP3    H143511   1.787   5.378   6.725
14518TIP3    H243512   1.727   5.247   6.772
14519TIP3   OH243513   4.476   4.842   1.291
14519TIP3    H143514   4.538   4.776   1.261
14519TIP3    H243515   4.396   4.822   1.242
14520TIP3   OH243516   2.264   0.980   5.701
14520TIP3    H143517   2.317   0.945   5.773
14520TIP3    H243518   2.279   1.075   5.705
14521TIP3   OH243519   7.358   2.804   3.810
14521TIP3    H143520   7.338   2.808   3.717
14521TIP3    H243521   7.417   2.877   3.826
14522TIP3   OH243522   5.862   6.894   0.254
14522TIP3    H143523   5.827   6.871   0.340
14522TIP3    H243524   5.834   6.985   0.240
14523TIP3   OH243525   0.813   1.882   5.084
14523TIP3    H143526   0.860   1.810   5.126
14523TIP3    H243527   0.720   1.858   5.095
14524TIP3   OH243528   8.286   7.204   5.681
14524TIP3    H143529   8.212   7.177   5.627
14524TIP3    H243530   8.363   7.174   5.633
14525TIP3   OH243531   0.898   6.688   1.187
14525TIP3    H143532   0.871   6.773   1.221
14525TIP3    H243533   0.894   6.629   1.262
14526TIP3   OH243534   4.882   2.716   5.487
14526TIP3    H143535   4.855   2.706   5.395
14526TIP3    H243536   4.820   2.663   5.536
14527TIP3   OH243537   3.714   5.344   1.820
14527TIP3    H143538   3.793   5.289   1.812
14527TIP3    H243539   3.714   5.373   1.911
14528TIP3   OH243540   6.480   6.283   2.082
14528TIP3    H143541   6.479   6.334   2.163
14528TIP3    H243542   6.394   6.300   2.042
14529TIP3   OH243543   3.827   5.627   6.001
14529TIP3    H143544   3.762   5.594   5.939
14529TIP3    H243545   3.775   5.676   6.065
14530TIP3   OH243546   5.258   2.210   1.139
14530TIP3    H143547   5.313   2.287   1.126
14530TIP3    H243548   5.285   2.174   1.223
14531TIP3   OH243549   2.119   6.161   1.138
14531TIP3    H143550   2.199   6.213   1.130
14531TIP3    H243551   2.138   6.098   1.208
14532TIP3   OH243552   7.996   1.918   0.209
14532TIP3    H143553   7.939   1.982   0.253
14532TIP3    H243554   8.081   1.961   0.203
14533TIP3   OH243555   1.698   7.399   0.879
14533TIP3    H143556   1.607   7.378   0.896
14533TIP3    H243557   1.699   7.437   0.791
14534TIP3   OH243558   3.858   2.783   4.369
14534TIP3    H143559   3.803   2.851   4.408
14534TIP3    H243560   3.864   2.807   4.277
14535TIP3   OH243561   3.883   7.261   2.067
14535TIP3    H143562   3.829   7.270   2.145
14535TIP3    H243563   3.949   7.330   2.076
14536TIP3   OH243564   2.250   3.118   3.211
14536TIP3    H143565   2.212   3.206   3.218
14536TIP3    H243566   2.332   3.124   3.261
14537TIP3   OH243567   4.772   7.057   3.514
14537TIP3    H143568   4.739   7.097   3.433
14537TIP3    H243569   4.854   7.014   3.488
14538TIP3   OH243570   8.236   2.863   2.084
14538TIP3    H143571   8.200   2.861   2.173
14538TIP3    H243572   8.199   2.785   2.042
14539TIP3   OH243573   5.499   0.941   1.339
14539TIP3    H143574   5.486   0.931   1.245
14539TIP3    H243575   5.413   0.969   1.372
14540TIP3   OH243576   3.840   7.011   1.952
14540TIP3    H143577   3.782   7.042   1.883
14540TIP3    H243578   3.870   7.090   1.996
14541TIP3   OH243579   0.841   5.769   0.997
14541TIP3    H143580   0.767   5.830   1.001
14541TIP3    H243581   0.899   5.797   1.068
14542TIP3   OH243582   6.780   7.400   0.783
14542TIP3    H143583   6.768   7.440   0.869
14542TIP3    H243584   6.691   7.383   0.752
14543TIP3   OH243585   6.847   3.625   0.011
14543TIP3    H143586   6.759   3.661   0.023
14543TIP3    H243587   6.843   3.538   0.051
14544TIP3   OH243588   5.426   7.772   1.027
14544TIP3    H143589   5.397   7.828   0.954
14544TIP3    H243590   5.409   7.683   0.998
14545TIP3   OH243591   1.353   5.481   5.571
14545TIP3    H143592   1.285   5.419   5.597
14545TIP3    H243593   1.407   5.432   5.508
14546TIP3   OH243594   1.598   3.653   3.057
14546TIP3    H143595   1.594   3.584   3.122
14546TIP3    H243596   1.568   3.731   3.103
14547TIP3   OH243597   3.980   4.816   3.753
14547TIP3    H143598   4.066   4.780   3.732
14547TIP3    H243599   3.995   4.911   3.760
14548TIP3   OH243600   5.260   3.696   4.557
14548TIP3    H143601   5.206   3.761   4.602
14548TIP3    H243602   5.239   3.706   4.464
14549TIP3   OH243603   2.495   5.384   3.432
14549TIP3    H143604   2.475   5.298   3.395
14549TIP3    H243605   2.534   5.365   3.517
14550TIP3   OH243606   4.778   1.446   2.844
14550TIP3    H143607   4.721   1.398   2.904
14550TIP3    H243608   4.841   1.490   2.901
14551TIP3   OH243609   1.432   2.377   2.926
14551TIP3    H143610   1.352   2.410   2.887
14551TIP3    H243611   1.499   2.389   2.859
14552TIP3   OH243612   4.134   4.975   5.333
14552TIP3    H143613   4.191   5.050   5.351
14552TIP3    H243614   4.097   4.993   5.246
14553TIP3   OH243615   7.246   0.770   6.344
14553TIP3    H143616   7.180   0.782   6.276
14553TIP3    H243617   7.200   0.725   6.415
14554TIP3   OH243618   0.459   1.206   0.429
14554TIP3    H143619   0.404   1.129   0.418
14554TIP3    H243620   0.548   1.175   0.409
14555TIP3   OH243621   5.612   5.801   4.486
14555TIP3    H143622   5.526   5.824   4.452
14555TIP3    H243623   5.612   5.705   4.490
14556TIP3   OH243624   7.496   1.415   3.065
14556TIP3    H143625   7.453   1.488   3.021
14556TIP3    H243626   7.427   1.349   3.076
14557TIP3   OH243627   0.560   3.139   5.877
14557TIP3    H143628   0.578   3.198   5.950
14557TIP3    H243629   0.646   3.112   5.846
14558TIP3   OH243630   5.736   5.671   5.307
14558TIP3    H143631   5.738   5.755   5.262
14558TIP3    H243632   5.648   5.637   5.292
14559TIP3   OH243633   0.678   5.837   6.596
14559TIP3    H143634   0.772   5.830   6.581
14559TIP3    H243635   0.667   5.919   6.644
14560TIP3   OH243636   3.291   6.604   2.968
14560TIP3    H143637   3.333   6.682   2.930
14560TIP3    H243638   3.301   6.537   2.901
14561TIP3   OH243639   0.868   2.252   6.582
14561TIP3    H143640   0.922   2.218   6.511
14561TIP3    H243641   0.836   2.336   6.550
14562TIP3   OH243642   7.909   4.928   0.476
14562TIP3    H143643   7.944   5.006   0.433
14562TIP3    H243644   7.859   4.961   0.550
14563TIP3   OH243645   0.327   5.664   1.738
14563TIP3    H143646   0.347   5.674   1.645
14563TIP3    H243647   0.338   5.571   1.755
14564TIP3   OH243648   4.487   5.717   5.417
14564TIP3    H143649   4.551   5.722   5.346
14564TIP3    H243650   4.526   5.769   5.487
14565TIP3   OH243651   0.332   2.356   2.118
14565TIP3    H143652   0.383   2.282   2.086
14565TIP3    H243653   0.330   2.418   2.046
14566TIP3   OH243654   6.719   3.226   3.278
14566TIP3    H143655   6.651   3.293   3.267
14566TIP3    H243656   6.801   3.275   3.272
14567TIP3   OH243657   3.567   6.032   4.067
14567TIP3    H143658   3.657   6.033   4.034
14567TIP3    H243659   3.521   6.094   4.009
14568TIP3   OH243660   2.076   2.195   1.767
14568TIP3    H143661   2.008   2.253   1.736
14568TIP3    H243662   2.138   2.252   1.813
14569TIP3   OH243663   6.546   2.175   0.400
14569TIP3    H143664   6.617   2.217   0.447
14569TIP3    H243665   6.559   2.081   0.415
14570TIP3   OH243666   5.035   2.678   1.736
14570TIP3    H143667   5.034   2.737   1.660
14570TIP3    H243668   5.009   2.734   1.810
14571TIP3   OH243669   4.787   2.870   2.406
14571TIP3    H143670   4.700   2.860   2.368
14571TIP3    H243671   4.780   2.948   2.461
14572TIP3   OH243672   4.927   3.911   0.858
14572TIP3    H143673   5.015   3.916   0.895
14572TIP3    H243674   4.869   3.937   0.930
14573TIP3   OH243675   1.580   5.555   0.926
14573TIP3    H143676   1.587   5.523   1.016
14573TIP3    H243677   1.493   5.529   0.897
14574TIP3   OH243678   7.113   4.893   0.867
14574TIP3    H143679   7.093   4.802   0.844
14574TIP3    H243680   7.109   4.940   0.784
14575TIP3   OH243681   7.000   2.598   2.341
14575TIP3    H143682   7.048   2.515   2.337
14575TIP3    H243683   7.015   2.630   2.430
14576TIP3   OH243684   1.801   2.677   4.387
14576TIP3    H143685   1.824   2.718   4.471
14576TIP3    H243686   1.746   2.602   4.412
14577TIP3   OH243687   2.599   6.250   1.765
14577TIP3    H143688   2.537   6.229   1.695
14577TIP3    H243689   2.669   6.298   1.721
14578TIP3   OH243690   2.680   7.784   1.131
14578TIP3    H143691   2.685   7.800   1.037
14578TIP3    H243692   2.747   7.718   1.148
14579TIP3   OH243693   4.690   0.238   3.549
14579TIP3    H143694   4.689   0.207   3.639
14579TIP3    H243695   4.770   0.290   3.542
14580TIP3   OH243696   1.259   3.795   0.968
14580TIP3    H143697   1.324   3.843   0.916
14580TIP3    H243698   1.255   3.708   0.927
14581TIP3   OH243699   4.268   5.702   5.828
14581TIP3    H143700   4.240   5.673   5.741
14581TIP3    H243701   4.273   5.621   5.879
14582TIP3   OH243702   0.466   7.663   5.960
14582TIP3    H143703   0.472   7.576   6.000
14582TIP3    H243704   0.534   7.714   6.004
14583TIP3   OH243705   5.535   6.144   3.559
14583TIP3    H143706   5.449   6.113   3.533
14583TIP3    H243707   5.575   6.070   3.604
14584TIP3   OH243708   4.793   6.231   2.483
14584TIP3    H143709   4.771   6.156   2.539
14584TIP3    H243710   4.710   6.278   2.473
14585TIP3   OH243711   5.049   6.152   0.291
14585TIP3    H143712   5.117   6.189   0.347
14585TIP3    H243713   5.081   6.165   0.202
14586TIP3   OH243714   6.540   4.094   0.911
14586TIP3    H143715   6.562   4.183   0.883
14586TIP3    H243716   6.572   4.038   0.840
14587TIP3   OH243717   6.050   7.106   2.035
14587TIP3    H143718   6.025   7.020   2.070
14587TIP3    H243719   6.122   7.087   1.975
14588TIP3   OH243720   0.760   5.929   3.488
14588TIP3    H143721   0.819   5.885   3.549
14588TIP3    H243722   0.790   6.020   3.487
14589TIP3   OH243723   5.285   6.058   6.145
14589TIP3    H143724   5.295   5.963   6.159
14589TIP3    H243725   5.235   6.064   6.064
14590TIP3   OH243726   5.128   7.438   4.679
14590TIP3    H143727   5.150   7.357   4.726
14590TIP3    H243728   5.038   7.457   4.704
14591TIP3   OH243729   2.481   5.290   1.476
14591TIP3    H143730   2.475   5.199   1.446
14591TIP3    H243731   2.472   5.284   1.571
14592TIP3   OH243732   3.359   1.264   2.347
14592TIP3    H143733   3.394   1.221   2.426
14592TIP3    H243734   3.391   1.212   2.274
14593TIP3   OH243735   5.678   2.857   0.695
14593TIP3    H143736   5.675   2.784   0.633
14593TIP3    H243737   5.770   2.884   0.695
14594TIP3   OH243738   0.100   4.257   0.135
14594TIP3    H143739   0.165   4.302   0.190
14594TIP3    H243740   0.128   4.276   0.046
14595TIP3   OH243741   6.813   5.569   5.377
14595TIP3    H143742   6.879   5.595   5.442
14595TIP3    H243743   6.858   5.507   5.320
14596TIP3   OH243744   4.272   3.452   6.034
14596TIP3    H143745   4.181   3.423   6.033
14596TIP3    H243746   4.315   3.395   6.098
14597TIP3   OH243747   6.390   5.883   4.645
14597TIP3    H143748   6.422   5.798   4.674
14597TIP3    H243749   6.352   5.923   4.723
14598TIP3   OH243750   2.133   5.217   6.319
14598TIP3    H143751   2.108   5.126   6.332
14598TIP3    H243752   2.055   5.267   6.340
14599TIP3   OH243753   2.016   4.773   0.816
14599TIP3    H143754   2.099   4.746   0.856
14599TIP3    H243755   1.949   4.745   0.879
14600TIP3   OH243756   6.412   2.928   1.440
14600TIP3    H143757   6.409   2.864   1.369
14600TIP3    H243758   6.424   2.876   1.519
14601TIP3   OH243759   5.328   1.244   5.639
14601TIP3    H143760   5.331   1.234   5.734
14601TIP3    H243761   5.379   1.169   5.606
14602TIP3   OH243762   7.780   0.715   6.552
14602TIP3    H143763   7.731   0.790   6.586
14602TIP3    H243764   7.811   0.745   6.466
14603TIP3   OH243765   7.391   1.291   3.865
14603TIP3    H143766   7.458   1.353   3.894
14603TIP3    H243767   7.365   1.322   3.779
14604TIP3   OH243768   4.926   6.354   6.355
14604TIP3    H143769   4.967   6.271   6.329
14604TIP3    H243770   4.986   6.422   6.323
14605TIP3   OH243771   2.558   4.147   5.036
14605TIP3    H143772   2.489   4.161   4.972
14605TIP3    H243773   2.517   4.170   5.120
14606TIP3   OH243774   0.996   4.212   2.404
14606TIP3    H143775   1.049   4.283   2.438
14606TIP3    H243776   0.918   4.212   2.459
14607TIP3   OH243777   5.540   6.156   6.226
14607TIP3    H143778   5.450   6.137   6.200
14607TIP3    H243779   5.568   6.078   6.274
14608TIP3   OH243780   7.794   6.379   1.221
14608TIP3    H143781   7.890   6.377   1.215
14608TIP3    H243782   7.771   6.471   1.209
14609TIP3   OH243783   0.409   6.205   2.876
14609TIP3    H143784   0.483   6.153   2.843
14609TIP3    H243785   0.387   6.165   2.960
14610TIP3   OH243786   7.341   3.677   4.435
14610TIP3    H143787   7.378   3.628   4.362
14610TIP3    H243788   7.405   3.667   4.506
14611TIP3   OH243789   1.396   0.116   1.566
14611TIP3    H143790   1.397   0.117   1.661
14611TIP3    H243791   1.322   0.172   1.541
14612TIP3   OH243792   0.239   6.828   5.690
14612TIP3    H143793   0.222   6.853   5.599
14612TIP3    H243794   0.310   6.763   5.684
14613TIP3   OH243795   0.175   5.525   1.311
14613TIP3    H143796   0.102   5.586   1.318
14613TIP3    H243797   0.139   5.441   1.338
14614TIP3   OH243798   2.281   6.378   2.406
14614TIP3    H143799   2.209   6.317   2.423
14614TIP3    H243800   2.288   6.381   2.311
14615TIP3   OH243801   6.354   4.831   5.621
14615TIP3    H143802   6.352   4.874   5.536
14615TIP3    H243803   6.316   4.745   5.606
14616TIP3   OH243804   5.246   5.789   3.632
14616TIP3    H143805   5.200   5.754   3.708
14616TIP3    H243806   5.326   5.738   3.626
14617TIP3   OH243807   4.507   6.837   6.579
14617TIP3    H143808   4.513   6.741   6.572
14617TIP3    H243809   4.593   6.864   6.611
14618TIP3   OH243810   3.346   3.570   6.359
14618TIP3    H143811   3.405   3.506   6.319
14618TIP3    H243812   3.380   3.655   6.330
14619TIP3   OH243813   4.521   5.609   1.967
14619TIP3    H143814   4.479   5.558   1.898
14619TIP3    H243815   4.452   5.621   2.033
14620TIP3   OH243816   5.866   3.176   3.110
14620TIP3    H143817   5.810   3.127   3.171
14620TIP3    H243818   5.819   3.258   3.095
14621TIP3   OH243819   3.324   0.149   3.779
14621TIP3    H143820   3.308   0.056   3.762
14621TIP3    H243821   3.419   0.156   3.786
14622TIP3   OH243822   6.400   7.168   3.871
14622TIP3    H143823   6.422   7.080   3.843
14622TIP3    H243824   6.479   7.200   3.916
14623TIP3   OH243825   8.064   6.628   1.923
14623TIP3    H143826   8.159   6.642   1.923
14623TIP3    H243827   8.027   6.714   1.941
14624TIP3   OH243828   1.920   7.309   4.063
14624TIP3    H143829   1.962   7.228   4.092
14624TIP3    H243830   1.860   7.282   3.994
14625TIP3   OH243831   6.219   4.654   3.816
14625TIP3    H143832   6.191   4.645   3.907
14625TIP3    H243833   6.138   4.665   3.767
14626TIP3   OH243834   2.384   1.411   2.496
14626TIP3    H143835   2.323   1.413   2.569
14626TIP3    H243836   2.335   1.367   2.426
14627TIP3   OH243837   0.705   0.280   0.892
14627TIP3    H143838   0.732   0.313   0.807
14627TIP3    H243839   0.617   0.243   0.877
14628TIP3   OH243840   4.216   3.422   2.703
14628TIP3    H143841   4.281   3.457   2.642
14628TIP3    H243842   4.217   3.327   2.688
14629TIP3   OH243843   7.354   2.142   5.363
14629TIP3    H143844   7.285   2.197   5.324
14629TIP3    H243845   7.325   2.053   5.346
14630TIP3   OH243846   4.713   5.564   0.848
14630TIP3    H143847   4.730   5.657   0.835
14630TIP3    H243848   4.742   5.547   0.937
14631TIP3   OH243849   6.388   3.146   1.143
14631TIP3    H143850   6.454   3.088   1.106
14631TIP3    H243851   6.309   3.091   1.151
14632TIP3   OH243852   4.924   3.672   3.734
14632TIP3    H143853   4.935   3.578   3.742
14632TIP3    H243854   4.845   3.683   3.682
14633TIP3   OH243855   5.416   1.473   1.818
14633TIP3    H143856   5.439   1.392   1.773
14633TIP3    H243857   5.448   1.460   1.907
14634TIP3   OH243858   5.778   0.160   1.540
14634TIP3    H143859   5.709   0.096   1.560
14634TIP3    H243860   5.857   0.107   1.529
14635TIP3   OH243861   1.439   4.508   1.013
14635TIP3    H143862   1.529   4.519   0.981
14635TIP3    H243863   1.387   4.497   0.933
14636TIP3   OH243864   5.492   2.426   2.335
14636TIP3    H143865   5.564   2.472   2.379
14636TIP3    H243866   5.419   2.487   2.338
14637TIP3   OH243867   8.099   4.414   1.696
14637TIP3    H143868   8.177   4.359   1.694
14637TIP3    H243869   8.131   4.502   1.673
14638TIP3   OH243870   0.296   7.642   5.317
14638TIP3    H143871   0.211   7.685   5.320
14638TIP3    H243872   0.276   7.550   5.299
14639TIP3   OH243873   6.818   7.451   6.720
14639TIP3    H143874   6.851   7.482   6.636
14639TIP3    H243875   6.724   7.470   6.718
14640TIP3   OH243876   2.438   4.869   2.810
14640TIP3    H143877   2.497   4.854   2.735
14640TIP3    H243878   2.432   4.783   2.852
14641TIP3   OH243879   0.316   6.815   6.335
14641TIP3    H143880   0.272   6.733   6.312
14641TIP3    H243881   0.400   6.810   6.289
14642TIP3   OH243882   0.684   6.509   3.494
14642TIP3    H143883   0.642   6.592   3.513
14642TIP3    H243884   0.760   6.506   3.552
14643TIP3   OH243885   7.874   7.532   3.267
14643TIP3    H143886   7.920   7.449   3.278
14643TIP3    H243887   7.792   7.508   3.223
14644TIP3   OH243888   4.917   2.461   1.167
14644TIP3    H143889   4.826   2.472   1.142
14644TIP3    H243890   4.956   2.410   1.095
14645TIP3   OH243891   6.771   5.089   5.977
14645TIP3    H143892   6.745   5.109   5.887
14645TIP3    H243893   6.712   5.143   6.031
14646TIP3   OH243894   4.185   2.782   1.680
14646TIP3    H143895   4.160   2.767   1.589
14646TIP3    H243896   4.276   2.813   1.675
14647TIP3   OH243897   4.337   1.785   3.909
14647TIP3    H143898   4.322   1.861   3.852
14647TIP3    H243899   4.256   1.735   3.902
14648TIP3   OH243900   5.166   0.015   1.169
14648TIP3    H143901   5.170   0.083   1.102
14648TIP3    H243902   5.254  -0.020   1.173
14649TIP3   OH243903   8.098   0.963   4.315
14649TIP3    H143904   8.161   0.947   4.385
14649TIP3    H243905   8.136   1.034   4.263
14650TIP3   OH243906   6.096   3.532   2.435
14650TIP3    H143907   6.045   3.568   2.508
14650TIP3    H243908   6.181   3.578   2.441
14651TIP3   OH243909   4.812   0.822   2.072
14651TIP3    H143910   4.799   0.840   1.978
14651TIP3    H243911   4.903   0.845   2.088
14652TIP3   OH243912   3.293   2.591   2.760
14652TIP3    H143913   3.259   2.632   2.680
14652TIP3    H243914   3.323   2.665   2.814
14653TIP3   OH243915   2.443   3.783   4.353
14653TIP3    H143916   2.487   3.868   4.344
14653TIP3    H243917   2.510   3.725   4.389
14654TIP3   OH243918   1.212   5.970   6.646
14654TIP3    H143919   1.272   6.044   6.648
14654TIP3    H243920   1.268   5.893   6.656
14655TIP3   OH243921   4.623   3.679   1.072
14655TIP3    H143922   4.539   3.665   1.028
14655TIP3    H243923   4.620   3.771   1.097
14656TIP3   OH243924   6.128   5.946   5.032
14656TIP3    H143925   6.087   5.915   5.112
14656TIP3    H243926   6.069   6.014   4.999
14657TIP3   OH243927   4.541   1.278   4.145
14657TIP3    H143928   4.514   1.280   4.054
14657TIP3    H243929   4.585   1.193   4.155
14658TIP3   OH243930   4.269   3.466   0.848
14658TIP3    H143931   4.209   3.393   0.863
14658TIP3    H243932   4.355   3.424   0.841
14659TIP3   OH243933   1.708   5.922   2.557
14659TIP3    H143934   1.639   5.877   2.606
14659TIP3    H243935   1.703   5.884   2.469
14660TIP3   OH243936   8.235   6.227   4.120
14660TIP3    H143937   8.233   6.306   4.174
14660TIP3    H243938   8.248   6.156   4.182
14661TIP3   OH243939   3.828   2.202   1.552
14661TIP3    H143940   3.774   2.133   1.591
14661TIP3    H243941   3.813   2.279   1.607
14662TIP3   OH243942   7.363   6.893   2.096
14662TIP3    H143943   7.348   6.962   2.032
14662TIP3    H243944   7.350   6.812   2.048
14663TIP3   OH243945   2.155   4.027   5.140
14663TIP3    H143946   2.139   3.986   5.225
14663TIP3    H243947   2.082   3.997   5.085
14664TIP3   OH243948   1.891   3.891   2.766
14664TIP3    H143949   1.802   3.869   2.795
14664TIP3    H243950   1.915   3.820   2.707
14665TIP3   OH243951   2.806   1.431   5.472
14665TIP3    H143952   2.893   1.433   5.511
14665TIP3    H243953   2.797   1.343   5.437
14666TIP3   OH243954   7.495   5.826   0.590
14666TIP3    H143955   7.532   5.898   0.641
14666TIP3    H243956   7.433   5.783   0.649
14667TIP3   OH243957   2.185   1.375   0.256
14667TIP3    H143958   2.247   1.415   0.316
14667TIP3    H243959   2.218   1.286   0.244
14668TIP3   OH243960   2.537   3.993   1.332
14668TIP3    H143961   2.520   3.901   1.312
14668TIP3    H243962   2.467   4.041   1.288
14669TIP3   OH243963   4.377   3.436   4.754
14669TIP3    H143964   4.358   3.511   4.811
14669TIP3    H243965   4.292   3.394   4.741
14670TIP3   OH243966   1.292   7.470   1.959
14670TIP3    H143967   1.380   7.506   1.969
14670TIP3    H243968   1.233   7.541   1.985
14671TIP3   OH243969   0.001   6.821   4.519
14671TIP3    H143970  -0.030   6.730   4.516
14671TIP3    H243971   0.094   6.814   4.539
14672TIP3   OH243972   4.712   5.311   1.688
14672TIP3    H143973   4.703   5.220   1.718
14672TIP3    H243974   4.625   5.333   1.655
14673TIP3   OH243975   2.937   3.159   1.765
14673TIP3    H143976   2.920   3.156   1.671
14673TIP3    H243977   2.862   3.115   1.804
14674TIP3   OH243978   2.265   6.356   0.573
14674TIP3    H143979   2.259   6.392   0.662
14674TIP3    H243980   2.328   6.285   0.580
14675TIP3   OH243981   0.708   2.937   0.026
14675TIP3    H143982   0.642   2.962  -0.038
14675TIP3    H243983   0.706   2.842   0.027
14676TIP3   OH243984   2.956   4.039   5.103
14676TIP3    H143985   2.909   3.956   5.100
14676TIP3    H243986   2.940   4.079   5.017
14677TIP3   OH243987   0.332   6.065   3.113
14677TIP3    H143988   0.395   5.999   3.140
14677TIP3    H243989   0.307   6.110   3.194
14678TIP3   OH243990   2.240   1.995   2.359
14678TIP3    H143991   2.269   2.084   2.339
14678TIP3    H243992   2.289   1.940   2.297
14679TIP3   OH243993   1.732   2.540   0.637
14679TIP3    H143994   1.713   2.630   0.610
14679TIP3    H243995   1.811   2.548   0.691
14680TIP3   OH243996   7.098   1.574   0.950
14680TIP3    H143997   7.039   1.603   1.019
14680TIP3    H243998   7.185   1.598   0.982
14681TIP3   OH243999   4.222   3.990   3.743
14681TIP3    H144000   4.130   3.990   3.770
14681TIP3    H244001   4.270   3.996   3.826
14682TIP3   OH244002   4.238   5.916   2.467
14682TIP3    H144003   4.248   6.010   2.450
14682TIP3    H244004   4.166   5.910   2.529
14683TIP3   OH244005   7.658   7.456   4.567
14683TIP3    H144006   7.655   7.477   4.474
14683TIP3    H244007   7.752   7.447   4.587
14684TIP3   OH244008   6.498   4.557   4.356
14684TIP3    H144009   6.446   4.615   4.412
14684TIP3    H244010   6.521   4.611   4.281
14685TIP3   OH244011   2.810   4.831   3.079
14685TIP3    H144012   2.905   4.823   3.073
14685TIP3    H244013   2.776   4.759   3.027
14686TIP3   OH244014   2.256   3.008   0.964
14686TIP3    H144015   2.222   3.087   0.921
14686TIP3    H244016   2.348   3.028   0.982
14687TIP3   OH244017   2.439   5.906   5.052
14687TIP3    H144018   2.458   5.877   4.963
14687TIP3    H244019   2.354   5.950   5.046
14688TIP3   OH244020   4.377   5.547   4.504
14688TIP3    H144021   4.299   5.492   4.508
14688TIP3    H244022   4.353   5.619   4.446
14689TIP3   OH244023   0.430   1.997   5.464
14689TIP3    H144024   0.445   1.904   5.446
14689TIP3    H244025   0.504   2.023   5.519
14690TIP3   OH244026   4.604   2.219   3.000
14690TIP3    H144027   4.545   2.280   2.955
14690TIP3    H244028   4.673   2.274   3.037
14691TIP3   OH244029   2.206   5.357   0.883
14691TIP3    H144030   2.163   5.389   0.803
14691TIP3    H244031   2.163   5.404   0.954
14692TIP3   OH244032   4.635   5.491   4.470
14692TIP3    H144033   4.542   5.503   4.487
14692TIP3    H244034   4.665   5.576   4.437
14693TIP3   OH244035   4.050   2.175   6.350
14693TIP3    H144036   4.004   2.258   6.337
14693TIP3    H244037   4.061   2.168   6.445
14694TIP3   OH244038   5.098   2.721   3.645
14694TIP3    H144039   5.162   2.749   3.711
14694TIP3    H244040   5.151   2.675   3.579
14695TIP3   OH244041   5.095   6.996   0.374
14695TIP3    H144042   5.148   7.054   0.319
14695TIP3    H244043   5.060   6.931   0.313
14696TIP3   OH244044  -0.014   0.859   2.786
14696TIP3    H144045   0.025   0.889   2.868
14696TIP3    H244046   0.056   0.811   2.742
14697TIP3   OH244047   4.954   3.754   1.650
14697TIP3    H144048   5.047   3.777   1.652
14697TIP3    H244049   4.914   3.819   1.593
14698TIP3   OH244050   5.820   2.458   0.367
14698TIP3    H144051   5.846   2.428   0.280
14698TIP3    H244052   5.829   2.381   0.423
14699TIP3   OH244053   3.690   7.759   3.533
14699TIP3    H144054   3.620   7.801   3.584
14699TIP3    H244055   3.690   7.806   3.450
14700TIP3   OH244056   7.259   2.851   5.378
14700TIP3    H144057   7.180   2.797   5.371
14700TIP3    H244058   7.227   2.941   5.375
14701TIP3   OH244059   5.310   1.436   4.227
14701TIP3    H144060   5.270   1.397   4.150
14701TIP3    H244061   5.236   1.457   4.284
14702TIP3   OH244062   2.697   0.025   1.432
14702TIP3    H144063   2.730   0.094   1.490
14702TIP3    H244064   2.722   0.054   1.344
14703TIP3   OH244065   5.149   1.136   3.758
14703TIP3    H144066   5.209   1.104   3.691
14703TIP3    H244067   5.204   1.158   3.833
14704TIP3   OH244068   2.770   3.257   3.894
14704TIP3    H144069   2.731   3.258   3.981
14704TIP3    H244070   2.865   3.258   3.911
14705TIP3   OH244071   6.006   2.772   4.150
14705TIP3    H144072   6.067   2.698   4.156
14705TIP3    H244073   5.921   2.731   4.133
14706TIP3   OH244074   7.468   7.539   1.710
14706TIP3    H144075   7.401   7.557   1.644
14706TIP3    H244076   7.536   7.604   1.694
14707TIP3   OH244077   6.885   6.627   5.048
14707TIP3    H144078   6.909   6.717   5.072
14707TIP3    H244079   6.966   6.577   5.058
14708TIP3   OH244080   7.362   1.627   1.057
14708TIP3    H144081   7.412   1.633   1.138
14708TIP3    H244082   7.383   1.707   1.009
14709TIP3   OH244083   1.793   6.392   2.954
14709TIP3    H144084   1.865   6.355   3.006
14709TIP3    H244085   1.762   6.466   3.005
14710TIP3   OH244086   0.423   0.350   5.935
14710TIP3    H144087   0.407   0.441   5.909
14710TIP3    H244088   0.504   0.353   5.986
14711TIP3   OH244089   4.954   4.917   2.994
14711TIP3    H144090   4.920   4.926   3.084
14711TIP3    H244091   4.901   4.847   2.956
14712TIP3   OH244092   5.009   1.028   3.198
14712TIP3    H144093   4.961   1.098   3.155
14712TIP3    H244094   5.007   0.955   3.136
14713TIP3   OH244095   0.055   5.140   2.192
14713TIP3    H144096   0.130   5.170   2.243
14713TIP3    H244097   0.060   5.190   2.111
14714TIP3   OH244098   5.551   5.494   6.720
14714TIP3    H144099   5.575   5.499   6.813
14714TIP3    H244100   5.555   5.584   6.689
14715TIP3   OH244101   4.455   5.114   4.784
14715TIP3    H144102   4.540   5.089   4.819
14715TIP3    H244103   4.475   5.171   4.710
14716TIP3   OH244104   0.110   2.238   1.922
14716TIP3    H144105   0.096   2.243   2.017
14716TIP3    H244106   0.131   2.328   1.897
14717TIP3   OH244107   1.622   6.105   5.377
14717TIP3    H144108   1.627   6.010   5.377
14717TIP3    H244109   1.702   6.134   5.333
14718TIP3   OH244110   1.436   3.670   6.124
14718TIP3    H144111   1.443   3.645   6.216
14718TIP3    H244112   1.490   3.749   6.116
14719TIP3   OH244113   2.819   3.717   5.327
14719TIP3    H144114   2.887   3.746   5.388
14719TIP3    H244115   2.828   3.622   5.324
14720TIP3   OH244116   4.084   6.082   4.742
14720TIP3    H144117   4.105   6.162   4.694
14720TIP3    H244118   3.994   6.094   4.772
14721TIP3   OH244119   7.108   5.564   2.256
14721TIP3    H144120   7.025   5.517   2.241
14721TIP3    H244121   7.166   5.498   2.292
14722TIP3   OH244122   3.494   2.937   2.493
14722TIP3    H144123   3.589   2.946   2.501
14722TIP3    H244124   3.466   3.013   2.443
14723TIP3   OH244125   7.216   2.980   1.435
14723TIP3    H144126   7.309   2.980   1.414
14723TIP3    H244127   7.207   2.915   1.506
14724TIP3   OH244128   4.071   6.476   5.974
14724TIP3    H144129   4.014   6.416   6.023
14724TIP3    H244130   4.021   6.496   5.895
14725TIP3   OH244131   8.006   6.990   1.258
14725TIP3    H144132   7.996   6.900   1.289
14725TIP3    H244133   8.042   7.037   1.333
14726TIP3   OH244134   1.854   0.604   6.024
14726TIP3    H144135   1.928   0.606   6.085
14726TIP3    H244136   1.777   0.617   6.079
14727TIP3   OH244137   4.432   1.143   4.473
14727TIP3    H144138   4.427   1.048   4.471
14727TIP3    H244139   4.499   1.162   4.539
14728TIP3   OH244140   7.355   3.080   5.694
14728TIP3    H144141   7.415   3.101   5.766
14728TIP3    H244142   7.385   2.994   5.663
14729TIP3   OH244143   4.143   3.954   2.539
14729TIP3    H144144   4.111   3.945   2.629
14729TIP3    H244145   4.232   3.988   2.548
14730TIP3   OH244146   0.921   1.213   3.646
14730TIP3    H144147   0.952   1.251   3.563
14730TIP3    H244148   0.846   1.267   3.670
14731TIP3   OH244149   4.863   4.892   5.414
14731TIP3    H144150   4.909   4.808   5.412
14731TIP3    H244151   4.836   4.906   5.323
14732TIP3   OH244152   2.258   0.897   4.125
14732TIP3    H144153   2.283   0.984   4.155
14732TIP3    H244154   2.272   0.900   4.030
14733TIP3   OH244155   3.641   1.465   2.489
14733TIP3    H144156   3.602   1.404   2.427
14733TIP3    H244157   3.592   1.452   2.570
14734TIP3   OH244158   5.276   3.366   1.632
14734TIP3    H144159   5.265   3.315   1.552
14734TIP3    H244160   5.187   3.382   1.664
14735TIP3   OH244161   7.968   4.933   5.056
14735TIP3    H144162   7.995   4.991   5.128
14735TIP3    H244163   7.876   4.954   5.042
14736TIP3   OH244164   0.767   4.473   3.935
14736TIP3    H144165   0.769   4.499   3.843
14736TIP3    H244166   0.682   4.502   3.966
14737TIP3   OH244167   7.329   3.648   1.044
14737TIP3    H144168   7.243   3.685   1.023
14737TIP3    H244169   7.385   3.677   0.972
14738TIP3   OH244170   3.238   2.155   5.260
14738TIP3    H144171   3.332   2.149   5.273
14738TIP3    H244172   3.229   2.178   5.167
14739TIP3   OH244173   0.070   3.225   1.548
14739TIP3    H144174   0.163   3.234   1.532
14739TIP3    H244175   0.052   3.131   1.535
14740TIP3   OH244176  -0.017   0.223   4.211
14740TIP3    H144177   0.003   0.229   4.305
14740TIP3    H244178   0.044   0.156   4.179
14741TIP3   OH244179   3.233   2.232   3.611
14741TIP3    H144180   3.175   2.210   3.684
14741TIP3    H244181   3.174   2.243   3.536
14742TIP3   OH244182   8.160   0.184   2.232
14742TIP3    H144183   8.191   0.146   2.314
14742TIP3    H244184   8.239   0.216   2.188
14743TIP3   OH244185   6.016   4.447   4.902
14743TIP3    H144186   5.968   4.430   4.983
14743TIP3    H244187   6.098   4.487   4.931
14744TIP3   OH244188   1.595   3.115   6.244
14744TIP3    H144189   1.664   3.179   6.255
14744TIP3    H244190   1.618   3.044   6.304
14745TIP3   OH244191   2.474   1.039   3.341
14745TIP3    H144192   2.386   1.059   3.373
14745TIP3    H244193   2.470   1.052   3.247
14746TIP3   OH244194   7.948   5.987   0.538
14746TIP3    H144195   8.006   5.950   0.605
14746TIP3    H244196   7.991   5.966   0.455
14747TIP3   OH244197   4.543   5.785   5.909
14747TIP3    H144198   4.454   5.804   5.881
14747TIP3    H244199   4.556   5.840   5.987
14748TIP3   OH244200   3.100   4.105   1.867
14748TIP3    H144201   3.127   4.013   1.874
14748TIP3    H244202   3.176   4.150   1.833
14749TIP3   OH244203   5.941   1.655   5.011
14749TIP3    H144204   5.990   1.633   4.932
14749TIP3    H244205   5.884   1.727   4.984
14750TIP3   OH244206   2.563   3.130   3.054
14750TIP3    H144207   2.505   3.147   2.980
14750TIP3    H244208   2.651   3.147   3.021
14751TIP3   OH244209   4.398   6.738   5.900
14751TIP3    H144210   4.354   6.822   5.916
14751TIP3    H244211   4.397   6.729   5.804
14752TIP3   OH244212   8.241   0.215   1.163
14752TIP3    H144213   8.174   0.249   1.223
14752TIP3    H244214   8.230   0.120   1.166
14753TIP3   OH244215   2.348   5.775   5.386
14753TIP3    H144216   2.258   5.784   5.355
14753TIP3    H244217   2.400   5.761   5.306
14754TIP3   OH244218   5.468   2.552   3.610
14754TIP3    H144219   5.502   2.620   3.668
14754TIP3    H244220   5.420   2.493   3.667
14755TIP3   OH244221   4.735   7.021   2.404
14755TIP3    H144222   4.797   6.966   2.356
14755TIP3    H244223   4.685   7.066   2.336
14756TIP3   OH244224   6.704   7.441   3.822
14756TIP3    H144225   6.608   7.449   3.820
14756TIP3    H244226   6.731   7.495   3.897
14757TIP3   OH244227   3.872   0.212   2.900
14757TIP3    H144228   3.895   0.226   2.808
14757TIP3    H244229   3.779   0.235   2.905
14758TIP3   OH244230   5.912   7.372   3.233
14758TIP3    H144231   5.857   7.332   3.165
14758TIP3    H244232   5.856   7.371   3.312
14759TIP3   OH244233   5.254   5.461   3.713
14759TIP3    H144234   5.220   5.472   3.802
14759TIP3    H244235   5.349   5.451   3.724
14760TIP3   OH244236   7.798   4.880   5.979
14760TIP3    H144237   7.774   4.812   5.916
14760TIP3    H244238   7.720   4.891   6.034
14761TIP3   OH244239   1.582   3.179   4.270
14761TIP3    H144240   1.499   3.154   4.310
14761TIP3    H244241   1.626   3.095   4.252
14762TIP3   OH244242   0.931   4.740   2.551
14762TIP3    H144243   0.840   4.710   2.551
14762TIP3    H244244   0.983   4.659   2.556
14763TIP3   OH244245   8.274   4.507   4.046
14763TIP3    H144246   8.324   4.465   4.115
14763TIP3    H244247   8.218   4.438   4.011
14764TIP3   OH244248   6.143   2.607   2.937
14764TIP3    H144249   6.178   2.673   2.996
14764TIP3    H244250   6.057   2.586   2.972
14765TIP3   OH244251   3.686   7.145   3.724
14765TIP3    H144252   3.690   7.105   3.638
14765TIP3    H244253   3.625   7.219   3.714
14766TIP3   OH244254   6.971   4.679   5.969
14766TIP3    H144255   7.018   4.646   6.046
14766TIP3    H244256   6.987   4.774   5.971
14767TIP3   OH244257   4.350   4.214   3.622
14767TIP3    H144258   4.315   4.225   3.711
14767TIP3    H244259   4.327   4.125   3.598
14768TIP3   OH244260   7.350   6.385   3.729
14768TIP3    H144261   7.404   6.437   3.669
14768TIP3    H244262   7.386   6.402   3.816
14769TIP3   OH244263   7.569   6.670   2.680
14769TIP3    H144264   7.490   6.664   2.626
14769TIP3    H244265   7.551   6.614   2.756
14770TIP3   OH244266   1.414   0.736   6.368
14770TIP3    H144267   1.326   0.701   6.383
14770TIP3    H244268   1.448   0.755   6.455
14771TIP3   OH244269   4.216   4.280   1.316
14771TIP3    H144270   4.302   4.299   1.353
14771TIP3    H244271   4.177   4.217   1.377
14772TIP3   OH244272   6.946   2.778   1.786
14772TIP3    H144273   6.960   2.692   1.746
14772TIP3    H244274   6.864   2.810   1.747
14773TIP3   OH244275   1.734   6.512   1.109
14773TIP3    H144276   1.740   6.547   1.020
14773TIP3    H244277   1.819   6.473   1.125
14774TIP3   OH244278   4.982   5.407   5.032
14774TIP3    H144279   4.992   5.500   5.050
14774TIP3    H244280   4.890   5.387   5.051
14775TIP3   OH244281   5.593   5.843   3.288
14775TIP3    H144282   5.657   5.904   3.326
14775TIP3    H244283   5.633   5.757   3.301
14776TIP3   OH244284   6.560   7.412   4.447
14776TIP3    H144285   6.490   7.434   4.386
14776TIP3    H244286   6.632   7.469   4.423
14777TIP3   OH244287   1.682   6.960   5.200
14777TIP3    H144288   1.698   6.931   5.290
14777TIP3    H244289   1.759   7.012   5.178
14778TIP3   OH244290   6.018   4.597   1.223
14778TIP3    H144291   6.006   4.670   1.162
14778TIP3    H244292   6.100   4.616   1.267
14779TIP3   OH244293   6.403   2.626   5.835
14779TIP3    H144294   6.460   2.688   5.789
14779TIP3    H244295   6.400   2.659   5.925
14780TIP3   OH244296   1.841   5.792   4.247
14780TIP3    H144297   1.872   5.703   4.268
14780TIP3    H244298   1.902   5.824   4.182
14781TIP3   OH244299   6.579   2.590   0.524
14781TIP3    H144300   6.627   2.627   0.598
14781TIP3    H244301   6.639   2.599   0.449
14782TIP3   OH244302   5.667   7.672   0.155
14782TIP3    H144303   5.641   7.732   0.224
14782TIP3    H244304   5.621   7.703   0.077
14783TIP3   OH244305   0.265   7.442   5.698
14783TIP3    H144306   0.194   7.505   5.706
14783TIP3    H244307   0.343   7.490   5.727
14784TIP3   OH244308   1.104   1.132   0.702
14784TIP3    H144309   1.179   1.185   0.727
14784TIP3    H244310   1.140   1.045   0.684
14785TIP3   OH244311   6.147   0.115   0.380
14785TIP3    H144312   6.059   0.149   0.393
14785TIP3    H244313   6.200   0.161   0.445
14786TIP3   OH244314   0.273   6.631   3.670
14786TIP3    H144315   0.365   6.626   3.696
14786TIP3    H244316   0.273   6.685   3.591
14787TIP3   OH244317   7.523   5.009   1.734
14787TIP3    H144318   7.538   4.918   1.761
14787TIP3    H244319   7.473   5.047   1.806
14788TIP3   OH244320   5.029   5.651   1.136
14788TIP3    H144321   5.030   5.730   1.083
14788TIP3    H244322   4.964   5.594   1.094
14789TIP3   OH244323   3.194   6.396   6.085
14789TIP3    H144324   3.189   6.490   6.069
14789TIP3    H244325   3.267   6.366   6.030
14790TIP3   OH244326   5.165   2.808   4.909
14790TIP3    H144327   5.115   2.877   4.866
14790TIP3    H244328   5.191   2.749   4.838
14791TIP3   OH244329   3.796   4.499   5.758
14791TIP3    H144330   3.753   4.584   5.752
14791TIP3    H244331   3.733   4.438   5.718
14792TIP3   OH244332   1.002   2.915   3.454
14792TIP3    H144333   1.023   2.841   3.396
14792TIP3    H244334   0.922   2.952   3.416
14793TIP3   OH244335   0.642   4.363   2.360
14793TIP3    H144336   0.676   4.391   2.275
14793TIP3    H244337   0.564   4.313   2.340
14794TIP3   OH244338   4.850   5.076   4.618
14794TIP3    H144339   4.943   5.055   4.633
14794TIP3    H244340   4.812   5.077   4.706
14795TIP3   OH244341   1.147   2.796   2.975
14795TIP3    H144342   1.112   2.839   2.897
14795TIP3    H244343   1.123   2.704   2.964
14796TIP3   OH244344   3.206   6.033   3.230
14796TIP3    H144345   3.207   6.126   3.207
14796TIP3    H244346   3.207   6.031   3.325
14797TIP3   OH244347   2.484   1.737   4.425
14797TIP3    H144348   2.553   1.689   4.472
14797TIP3    H244349   2.507   1.727   4.333
14798TIP3   OH244350   1.530   2.991   0.154
14798TIP3    H144351   1.564   3.080   0.145
14798TIP3    H244352   1.606   2.934   0.141
14799TIP3   OH244353   1.715   7.440   5.609
14799TIP3    H144354   1.719   7.366   5.670
14799TIP3    H244355   1.804   7.476   5.610
14800TIP3   OH244356   1.988   5.072   1.689
14800TIP3    H144357   1.902   5.070   1.731
14800TIP3    H244358   2.049   5.088   1.761
14801TIP3   OH244359   4.002   4.815   5.910
14801TIP3    H144360   4.094   4.837   5.924
14801TIP3    H244361   3.985   4.842   5.819
14802TIP3   OH244362   7.536   0.451   2.022
14802TIP3    H144363   7.605   0.515   2.039
14802TIP3    H244364   7.530   0.447   1.927
14803TIP3   OH244365   4.460   5.422   5.280
14803TIP3    H144366   4.548   5.439   5.313
14803TIP3    H244367   4.423   5.509   5.263
14804TIP3   OH244368   5.293   1.131   1.768
14804TIP3    H144369   5.388   1.132   1.777
14804TIP3    H244370   5.267   1.222   1.781
14805TIP3   OH244371   4.142   3.298   4.790
14805TIP3    H144372   4.136   3.205   4.810
14805TIP3    H244373   4.054   3.332   4.803
14806TIP3   OH244374   2.819   5.978   3.372
14806TIP3    H144375   2.830   6.073   3.381
14806TIP3    H244376   2.739   5.968   3.322
14807TIP3   OH244377   8.286   1.453   5.727
14807TIP3    H144378   8.271   1.369   5.770
14807TIP3    H244379   8.278   1.434   5.633
14808TIP3   OH244380   0.046   7.499   5.989
14808TIP3    H144381   0.029   7.500   5.895
14808TIP3    H244382   0.018   7.412   6.017
14809TIP3   OH244383   1.081   6.660   2.027
14809TIP3    H144384   0.994   6.650   1.988
14809TIP3    H244385   1.083   6.595   2.098
14810TIP3   OH244386   0.055   3.740   4.403
14810TIP3    H144387   0.144   3.708   4.388
14810TIP3    H244388   0.049   3.751   4.498
14811TIP3   OH244389   5.127   1.779   3.650
14811TIP3    H144390   5.145   1.733   3.732
14811TIP3    H244391   5.210   1.822   3.629
14812TIP3   OH244392   3.626   3.827   5.546
14812TIP3    H144393   3.631   3.919   5.570
14812TIP3    H244394   3.538   3.816   5.510
14813TIP3   OH244395   0.600   6.357   5.281
14813TIP3    H144396   0.592   6.267   5.311
14813TIP3    H244397   0.678   6.357   5.225
14814TIP3   OH244398   6.494   2.251   5.617
14814TIP3    H144399   6.420   2.209   5.660
14814TIP3    H244400   6.562   2.184   5.614
14815TIP3   OH244401   4.172   0.733   3.411
14815TIP3    H144402   4.178   0.764   3.502
14815TIP3    H244403   4.261   0.707   3.389
14816TIP3   OH244404   1.117   7.159   3.193
14816TIP3    H144405   1.124   7.233   3.254
14816TIP3    H244406   1.111   7.200   3.106
14817TIP3   OH244407   5.684   6.425   5.527
14817TIP3    H144408   5.633   6.495   5.567
14817TIP3    H244409   5.687   6.356   5.593
14818TIP3   OH244410   5.621   0.740   6.167
14818TIP3    H144411   5.532   0.711   6.150
14818TIP3    H244412   5.674   0.661   6.164
14819TIP3   OH244413   2.398   1.486   6.442
14819TIP3    H144414   2.455   1.466   6.516
14819TIP3    H244415   2.373   1.577   6.455
14820TIP3   OH244416   0.621   3.345   0.735
14820TIP3    H144417   0.596   3.311   0.821
14820TIP3    H244418   0.579   3.430   0.729
14821TIP3   OH244419   7.637   3.870   4.372
14821TIP3    H144420   7.641   3.794   4.314
14821TIP3    H244421   7.642   3.834   4.460
14822TIP3   OH244422   3.470   5.757   2.583
14822TIP3    H144423   3.391   5.709   2.557
14822TIP3    H244424   3.521   5.765   2.503
14823TIP3   OH244425   4.659   0.110   2.768
14823TIP3    H144426   4.606   0.171   2.818
14823TIP3    H244427   4.596   0.049   2.728
14824TIP3   OH244428   1.862   2.142   4.969
14824TIP3    H144429   1.880   2.099   5.053
14824TIP3    H244430   1.938   2.198   4.954
14825TIP3   OH244431   1.148   1.718   0.939
14825TIP3    H144432   1.228   1.665   0.936
14825TIP3    H244433   1.106   1.694   1.021
14826TIP3   OH244434   5.784   3.400   6.513
14826TIP3    H144435   5.751   3.311   6.512
14826TIP3    H244436   5.876   3.391   6.538
14827TIP3   OH244437   0.343   7.302   6.728
14827TIP3    H144438   0.403   7.331   6.796
14827TIP3    H244439   0.380   7.336   6.647
14828TIP3   OH244440   7.964   0.030   2.827
14828TIP3    H144441   7.949   0.099   2.891
14828TIP3    H244442   7.896   0.042   2.761
14829TIP3   OH244443   0.256   4.352   3.017
14829TIP3    H144444   0.307   4.312   2.946
14829TIP3    H244445   0.311   4.424   3.047
14830TIP3   OH244446   5.597   0.176   1.186
14830TIP3    H144447   5.530   0.120   1.146
14830TIP3    H244448   5.659   0.194   1.115
14831TIP3   OH244449   6.455   6.374   4.366
14831TIP3    H144450   6.456   6.382   4.271
14831TIP3    H244451   6.426   6.460   4.398
14832TIP3   OH244452   7.936   3.348   2.310
14832TIP3    H144453   7.843   3.374   2.312
14832TIP3    H244454   7.935   3.254   2.327
14833TIP3   OH244455   4.743   4.554   1.978
14833TIP3    H144456   4.813   4.537   2.040
14833TIP3    H244457   4.663   4.537   2.027
14834TIP3   OH244458   1.635   3.602   3.542
14834TIP3    H144459   1.540   3.612   3.547
14834TIP3    H244460   1.670   3.677   3.590
14835TIP3   OH244461   6.475   6.707   2.746
14835TIP3    H144462   6.398   6.660   2.778
14835TIP3    H244463   6.543   6.688   2.810
14836TIP3   OH244464   1.981   5.748   5.818
14836TIP3    H144465   1.983   5.836   5.780
14836TIP3    H244466   1.987   5.762   5.912
14837TIP3   OH244467   6.577   3.638   2.787
14837TIP3    H144468   6.507   3.623   2.851
14837TIP3    H244469   6.560   3.725   2.752
   8.29297   7.81868   6.77118   0.00000   0.00000  -2.76432   0.00000  -2.76432  -3.90934
