Title t= 272.00000 step= 136000
29212
    1ASP      N    1   2.028   0.985   2.670
    1ASP    HT1    2   1.939   0.953   2.627
    1ASP    HT2    3   2.011   0.985   2.772
    1ASP    HT3    4   2.110   0.929   2.638
    1ASP     CA    5   2.052   1.125   2.614
    1ASP     HA    6   2.149   1.150   2.655
    1ASP     CB    7   2.090   1.115   2.462
    1ASP    HB1    8   2.099   1.208   2.403
    1ASP    HB2    9   2.000   1.068   2.415
    1ASP     CG   10   2.215   1.036   2.443
    1ASP    OD1   11   2.267   0.977   2.541
    1ASP    OD2   12   2.265   1.032   2.329
    1ASP      C   13   1.946   1.226   2.638
    1ASP      O   14   1.831   1.186   2.662
    2GLY      N   15   1.976   1.359   2.634
    2GLY     HN   16   2.070   1.392   2.639
    2GLY     CA   17   1.878   1.464   2.644
    2GLY    HA1   18   1.933   1.556   2.639
    2GLY    HA2   19   1.824   1.434   2.733
    2GLY      C   20   1.777   1.476   2.536
    2GLY      O   21   1.779   1.409   2.435
    3ASP      N   22   1.681   1.566   2.557
    3ASP     HN   23   1.670   1.606   2.648
    3ASP     CA   24   1.562   1.575   2.472
    3ASP     HA   25   1.594   1.540   2.375
    3ASP     CB   26   1.440   1.496   2.527
    3ASP    HB1   27   1.353   1.517   2.461
    3ASP    HB2   28   1.409   1.534   2.627
    3ASP     CG   29   1.452   1.344   2.520
    3ASP    OD1   30   1.377   1.281   2.601
    3ASP    OD2   31   1.524   1.287   2.429
    3ASP      C   32   1.517   1.708   2.421
    3ASP      O   33   1.545   1.813   2.485
    4GLY      N   34   1.444   1.712   2.300
    4GLY     HN   35   1.431   1.622   2.260
    4GLY     CA   36   1.373   1.825   2.245
    4GLY    HA1   37   1.339   1.809   2.144
    4GLY    HA2   38   1.446   1.904   2.258
    4GLY      C   39   1.258   1.859   2.330
    4GLY      O   40   1.223   1.778   2.414
    5PRO      N   41   1.197   1.980   2.310
    5PRO     CD   42   1.217   2.059   2.183
    5PRO    HD1   43   1.195   1.987   2.103
    5PRO    HD2   44   1.323   2.093   2.174
    5PRO     CA   45   1.092   2.034   2.394
    5PRO     HA   46   1.123   2.033   2.498
    5PRO     CB   47   1.077   2.177   2.342
    5PRO    HB1   48   1.158   2.236   2.391
    5PRO    HB2   49   0.980   2.229   2.357
    5PRO     CG   50   1.119   2.174   2.190
    5PRO    HG1   51   1.037   2.160   2.116
    5PRO    HG2   52   1.169   2.269   2.160
    5PRO      C   53   0.956   1.962   2.384
    5PRO      O   54   0.857   2.020   2.336
    6GLY      N   55   0.947   1.835   2.419
    6GLY     HN   56   1.036   1.811   2.457
    6GLY     CA   57   0.818   1.766   2.434
    6GLY    HA1   58   0.843   1.661   2.439
    6GLY    HA2   59   0.745   1.786   2.357
    6GLY      C   60   0.734   1.802   2.560
    6GLY      O   61   0.754   1.908   2.621
    7ASP      N   62   0.636   1.726   2.594
    7ASP     HN   63   0.619   1.640   2.546
    7ASP     CA   64   0.534   1.760   2.693
    7ASP     HA   65   0.490   1.855   2.665
    7ASP     CB   66   0.412   1.661   2.678
    7ASP    HB1   67   0.344   1.675   2.764
    7ASP    HB2   68   0.454   1.559   2.667
    7ASP     CG   69   0.320   1.692   2.555
    7ASP    OD1   70   0.223   1.608   2.537
    7ASP    OD2   71   0.329   1.798   2.489
    7ASP      C   72   0.588   1.774   2.834
    7ASP      O   73   0.675   1.693   2.875
    8PRO      N   74   0.545   1.877   2.920
    8PRO     CD   75   0.448   1.980   2.892
    8PRO    HD1   76   0.350   1.934   2.867
    8PRO    HD2   77   0.483   2.041   2.806
    8PRO     CA   78   0.567   1.859   3.066
    8PRO     HA   79   0.667   1.824   3.086
    8PRO     CB   80   0.547   1.999   3.119
    8PRO    HB1   81   0.635   2.065   3.101
    8PRO    HB2   82   0.512   2.004   3.225
    8PRO     CG   83   0.434   2.048   3.024
    8PRO    HG1   84   0.340   2.003   3.062
    8PRO    HG2   85   0.424   2.158   3.013
    8PRO      C   86   0.480   1.751   3.122
    8PRO      O   87   0.364   1.735   3.081
    9GLY      N   88   0.537   1.668   3.217
    9GLY     HN   89   0.628   1.680   3.255
    9GLY     CA   90   0.466   1.556   3.272
    9GLY    HA1   91   0.488   1.465   3.219
    9GLY    HA2   92   0.361   1.580   3.260
    9GLY      C   93   0.502   1.535   3.419
    9GLY      O   94   0.558   1.614   3.487
   10ASP      N   95   0.470   1.416   3.480
   10ASP     HN   96   0.433   1.342   3.425
   10ASP     CA   97   0.458   1.387   3.619
   10ASP     HA   98   0.424   1.478   3.664
   10ASP     CB   99   0.345   1.275   3.640
   10ASP    HB1  100   0.348   1.216   3.734
   10ASP    HB2  101   0.365   1.203   3.557
   10ASP     CG  102   0.201   1.328   3.626
   10ASP    OD1  103   0.102   1.253   3.594
   10ASP    OD2  104   0.184   1.447   3.654
   10ASP      C  105   0.588   1.332   3.679
   10ASP      O  106   0.624   1.348   3.794
   11GLY      N  107   0.665   1.265   3.585
   11GLY     HN  108   0.650   1.265   3.487
   11GLY     CA  109   0.789   1.202   3.619
   11GLY    HA1  110   0.770   1.123   3.691
   11GLY    HA2  111   0.848   1.280   3.665
   11GLY      C  112   0.842   1.137   3.498
   11GLY    OT1  113   0.887   1.208   3.404
   11GLY    OT2  114   0.846   1.012   3.488
   12LIT    LIT  115   5.156   5.081   1.983
   13LIT    LIT  116   2.955   2.737   5.186
   14LIT    LIT  117   6.960   3.476   5.841
   15LIT    LIT  118   2.868   1.770   2.333
   16LIT    LIT  119   0.862   1.009   3.298
   17LIT    LIT  120   7.143   2.237   0.111
   18LIT    LIT  121   1.949   1.014   5.017
   19LIT    LIT  122   2.053   6.529   1.618
   20LIT    LIT  123   7.209   3.489   3.301
   21LIT    LIT  124   2.907   1.156   5.270
   22LIT    LIT  125   3.789   5.245   0.742
   23LIT    LIT  126   4.292   4.335   5.802
   24LIT    LIT  127   6.969   4.653   2.250
   25LIT    LIT  128   6.624   1.486   2.248
   26LIT    LIT  129   0.003   1.388   3.708
   27LIT    LIT  130   3.781   1.968   3.773
   28LIT    LIT  131   6.224   5.364   5.588
   29LIT    LIT  132   0.778   2.314   3.267
   30LIT    LIT  133   6.979   2.846   1.277
   31LIT    LIT  134   4.085   1.476   2.683
   32LIT    LIT  135   6.308   1.447   0.767
   33LIT    LIT  136   3.988   3.074   1.959
   34LIT    LIT  137   7.165   5.052   0.190
   35LIT    LIT  138   0.153   1.792   2.100
   36LIT    LIT  139   4.626   2.666   5.187
   37LIT    LIT  140   3.584   4.078   1.837
   38LIT    LIT  141   0.609   4.817   0.576
   39LIT    LIT  142   2.431   0.934   2.605
   40LIT    LIT  143   5.036   1.177   2.353
   41LIT    LIT  144   3.163   1.460   4.385
   42LIT    LIT  145   1.678   1.276   2.342
   43CLA    CLA  146   4.903   1.113   2.530
   44CLA    CLA  147   6.781   1.607   2.904
   45CLA    CLA  148   3.470   2.615   5.196
   46CLA    CLA  149   2.685   1.516   5.749
   47CLA    CLA  150   5.367   1.091   1.788
   48CLA    CLA  151   3.913   3.417   4.098
   49CLA    CLA  152   4.131   4.126   2.196
   50CLA    CLA  153   5.607   5.746   0.635
   51CLA    CLA  154   6.610   1.782   0.038
   52CLA    CLA  155   2.743   1.080   1.304
   53CLA    CLA  156   4.090   4.520   2.985
   54CLA    CLA  157   4.536   2.319   2.964
   55CLA    CLA  158   0.536   2.432   5.562
   56CLA    CLA  159   0.321   3.062   1.590
   57CLA    CLA  160   6.145   0.424   5.255
   58CLA    CLA  161   3.895   3.176   1.449
   59CLA    CLA  162   5.686   4.807   4.505
   60CLA    CLA  163   2.704   1.864   5.190
   61CLA    CLA  164   2.629   0.692   1.002
   62CLA    CLA  165   4.680   0.087   0.490
   63CLA    CLA  166   2.194   1.994   3.902
   64CLA    CLA  167   4.012   2.253   0.286
   65CLA    CLA  168   6.414   4.259   2.129
   66CLA    CLA  169   1.700   0.626   4.896
   67CLA    CLA  170   4.321   3.079   1.673
   68CLA    CLA  171   1.337   2.857   2.574
   69CLA    CLA  172   4.868   5.474   0.970
   70TIP3   OH2  173   6.029   3.326   0.357
   70TIP3    H1  174   6.074   3.405   0.328
   70TIP3    H2  175   6.071   3.303   0.440
   71TIP3   OH2  176   4.629   0.462   4.341
   71TIP3    H1  177   4.597   0.380   4.380
   71TIP3    H2  178   4.694   0.494   4.405
   72TIP3   OH2  179   2.927   3.645   4.971
   72TIP3    H1  180   3.010   3.684   4.997
   72TIP3    H2  181   2.939   3.551   4.988
   73TIP3   OH2  182   5.107   2.884   0.344
   73TIP3    H1  183   5.027   2.852   0.385
   73TIP3    H2  184   5.178   2.836   0.386
   74TIP3   OH2  185   4.832   4.078   2.493
   74TIP3    H1  186   4.873   3.992   2.484
   74TIP3    H2  187   4.746   4.060   2.532
   75TIP3   OH2  188   5.001   3.674   2.185
   75TIP3    H1  189   5.028   3.643   2.099
   75TIP3    H2  190   5.010   3.769   2.180
   76TIP3   OH2  191   5.086   6.196   5.637
   76TIP3    H1  192   5.175   6.230   5.640
   76TIP3    H2  193   5.037   6.260   5.585
   77TIP3   OH2  194   3.081   4.072   2.250
   77TIP3    H1  195   2.996   4.113   2.264
   77TIP3    H2  196   3.063   3.996   2.195
   78TIP3   OH2  197   6.498   1.107   5.024
   78TIP3    H1  198   6.570   1.049   5.050
   78TIP3    H2  199   6.432   1.048   4.987
   79TIP3   OH2  200   6.656   0.863   1.067
   79TIP3    H1  201   6.564   0.889   1.055
   79TIP3    H2  202   6.692   0.861   0.978
   80TIP3   OH2  203   3.937   2.661   0.896
   80TIP3    H1  204   4.014   2.610   0.925
   80TIP3    H2  205   3.940   2.657   0.801
   81TIP3   OH2  206   7.127   2.123   4.607
   81TIP3    H1  207   7.105   2.192   4.544
   81TIP3    H2  208   7.148   2.169   4.687
   82TIP3   OH2  209   4.243   4.930   2.525
   82TIP3    H1  210   4.263   4.857   2.583
   82TIP3    H2  211   4.328   4.969   2.505
   83TIP3   OH2  212   5.915   4.378   1.285
   83TIP3    H1  213   5.946   4.291   1.260
   83TIP3    H2  214   5.954   4.437   1.222
   84TIP3   OH2  215   5.858   5.340   1.682
   84TIP3    H1  216   5.890   5.429   1.667
   84TIP3    H2  217   5.790   5.350   1.748
   85TIP3   OH2  218   4.134   2.026   4.051
   85TIP3    H1  219   4.132   1.977   4.134
   85TIP3    H2  220   4.091   2.109   4.072
   86TIP3   OH2  221   5.792   0.440   4.623
   86TIP3    H1  222   5.870   0.385   4.627
   86TIP3    H2  223   5.803   0.502   4.696
   87TIP3   OH2  224   2.971   1.364   2.271
   87TIP3    H1  225   2.970   1.325   2.359
   87TIP3    H2  226   2.949   1.456   2.286
   88TIP3   OH2  227   0.411   3.784   5.127
   88TIP3    H1  228   0.381   3.701   5.092
   88TIP3    H2  229   0.404   3.774   5.222
   89TIP3   OH2  230   0.562   5.498   2.517
   89TIP3    H1  231   0.629   5.429   2.518
   89TIP3    H2  232   0.509   5.482   2.595
   90TIP3   OH2  233   5.410   0.836   3.754
   90TIP3    H1  234   5.450   0.784   3.684
   90TIP3    H2  235   5.350   0.895   3.708
   91TIP3   OH2  236   0.171   1.974   4.261
   91TIP3    H1  237   0.169   2.027   4.340
   91TIP3    H2  238   0.216   1.894   4.286
   92TIP3   OH2  239   1.827   5.491   2.871
   92TIP3    H1  240   1.798   5.438   2.797
   92TIP3    H2  241   1.900   5.441   2.909
   93TIP3   OH2  242   0.013   3.990   4.200
   93TIP3    H1  243   0.103   4.009   4.229
   93TIP3    H2  244  -0.023   4.077   4.179
   94TIP3   OH2  245   4.591   2.736   2.745
   94TIP3    H1  246   4.502   2.770   2.755
   94TIP3    H2  247   4.637   2.803   2.695
   95TIP3   OH2  248   2.682   4.929   5.738
   95TIP3    H1  249   2.765   4.936   5.690
   95TIP3    H2  250   2.615   4.953   5.674
   96TIP3   OH2  251   6.019   1.035   1.545
   96TIP3    H1  252   5.996   0.984   1.622
   96TIP3    H2  253   6.111   1.057   1.557
   97TIP3   OH2  254   0.917   4.496   1.126
   97TIP3    H1  255   0.947   4.557   1.058
   97TIP3    H2  256   0.844   4.541   1.168
   98TIP3   OH2  257   1.303   0.323   1.608
   98TIP3    H1  258   1.257   0.293   1.529
   98TIP3    H2  259   1.288   0.418   1.611
   99TIP3   OH2  260   1.160   4.388   1.231
   99TIP3    H1  261   1.086   4.440   1.197
   99TIP3    H2  262   1.144   4.300   1.198
  100TIP3   OH2  263   5.417   5.095   2.304
  100TIP3    H1  264   5.432   5.184   2.273
  100TIP3    H2  265   5.504   5.063   2.330
  101TIP3   OH2  266   3.351   4.684   3.168
  101TIP3    H1  267   3.303   4.670   3.249
  101TIP3    H2  268   3.443   4.694   3.196
  102TIP3   OH2  269   2.206   1.854   2.177
  102TIP3    H1  270   2.206   1.913   2.252
  102TIP3    H2  271   2.242   1.906   2.105
  103TIP3   OH2  272   5.202   4.914   2.057
  103TIP3    H1  273   5.261   4.892   2.129
  103TIP3    H2  274   5.179   4.830   2.019
  104TIP3   OH2  275   1.447   6.524   5.396
  104TIP3    H1  276   1.401   6.587   5.340
  104TIP3    H2  277   1.396   6.521   5.476
  105TIP3   OH2  278   5.870   4.923   0.794
  105TIP3    H1  279   5.915   5.007   0.785
  105TIP3    H2  280   5.793   4.931   0.739
  106TIP3   OH2  281   0.371   5.193   0.093
  106TIP3    H1  282   0.439   5.256   0.115
  106TIP3    H2  283   0.356   5.205  -0.001
  107TIP3   OH2  284   3.832   0.786   2.206
  107TIP3    H1  285   3.771   0.779   2.132
  107TIP3    H2  286   3.918   0.786   2.166
  108TIP3   OH2  287   2.197   0.389   1.557
  108TIP3    H1  288   2.205   0.336   1.637
  108TIP3    H2  289   2.280   0.376   1.512
  109TIP3   OH2  290   3.016   0.074   1.912
  109TIP3    H1  291   2.959   0.023   1.969
  109TIP3    H2  292   3.083   0.011   1.883
  110TIP3   OH2  293   0.526   6.527   1.887
  110TIP3    H1  294   0.534   6.560   1.976
  110TIP3    H2  295   0.550   6.435   1.894
  111TIP3   OH2  296   1.718   3.483   4.362
  111TIP3    H1  297   1.712   3.387   4.367
  111TIP3    H2  298   1.719   3.511   4.454
  112TIP3   OH2  299   0.460   1.177   4.776
  112TIP3    H1  300   0.522   1.129   4.832
  112TIP3    H2  301   0.508   1.256   4.750
  113TIP3   OH2  302   5.397   6.681   2.937
  113TIP3    H1  303   5.359   6.743   2.999
  113TIP3    H2  304   5.491   6.692   2.946
  114TIP3   OH2  305   1.126   5.722   5.439
  114TIP3    H1  306   1.097   5.657   5.375
  114TIP3    H2  307   1.127   5.804   5.390
  115TIP3   OH2  308   3.827   0.995   5.434
  115TIP3    H1  309   3.763   0.935   5.395
  115TIP3    H2  310   3.789   1.082   5.420
  116TIP3   OH2  311   2.959   4.593   2.862
  116TIP3    H1  312   3.046   4.583   2.822
  116TIP3    H2  313   2.918   4.664   2.812
  117TIP3   OH2  314   5.279   0.018   1.711
  117TIP3    H1  315   5.303   0.103   1.673
  117TIP3    H2  316   5.310  -0.046   1.646
  118TIP3   OH2  317   6.994   3.898   2.098
  118TIP3    H1  318   7.056   3.906   2.025
  118TIP3    H2  319   6.984   3.804   2.111
  119TIP3   OH2  320   3.065   0.125   0.094
  119TIP3    H1  321   3.130   0.063   0.127
  119TIP3    H2  322   3.109   0.169   0.022
  120TIP3   OH2  323   6.193   1.316   2.465
  120TIP3    H1  324   6.173   1.404   2.498
  120TIP3    H2  325   6.108   1.277   2.446
  121TIP3   OH2  326   2.029   0.039   1.729
  121TIP3    H1  327   1.952  -0.007   1.763
  121TIP3    H2  328   1.995   0.094   1.659
  122TIP3   OH2  329   3.036   1.565   3.647
  122TIP3    H1  330   3.004   1.652   3.668
  122TIP3    H2  331   3.131   1.575   3.642
  123TIP3   OH2  332   4.033   0.002   4.137
  123TIP3    H1  333   3.981  -0.002   4.218
  123TIP3    H2  334   4.085   0.082   4.146
  124TIP3   OH2  335   5.928   0.933   5.816
  124TIP3    H1  336   5.857   0.967   5.872
  124TIP3    H2  337   6.005   0.935   5.872
  125TIP3   OH2  338   5.762   2.128   2.659
  125TIP3    H1  339   5.677   2.128   2.615
  125TIP3    H2  340   5.791   2.219   2.655
  126TIP3   OH2  341   2.773   1.119   3.023
  126TIP3    H1  342   2.689   1.156   3.050
  126TIP3    H2  343   2.836   1.153   3.086
  127TIP3   OH2  344   1.796   3.194   0.013
  127TIP3    H1  345   1.865   3.194   0.079
  127TIP3    H2  346   1.760   3.105   0.015
  128TIP3   OH2  347   3.846   2.737   1.302
  128TIP3    H1  348   3.933   2.713   1.268
  128TIP3    H2  349   3.813   2.802   1.240
  129TIP3   OH2  350   1.994   0.953   3.212
  129TIP3    H1  351   2.014   0.899   3.288
  129TIP3    H2  352   1.936   1.021   3.246
  130TIP3   OH2  353   3.915   1.332   0.489
  130TIP3    H1  354   3.841   1.325   0.549
  130TIP3    H2  355   3.990   1.352   0.545
  131TIP3   OH2  356   0.634   6.126   4.440
  131TIP3    H1  357   0.633   6.167   4.526
  131TIP3    H2  358   0.542   6.127   4.412
  132TIP3   OH2  359   3.462   6.763   4.452
  132TIP3    H1  360   3.392   6.706   4.481
  132TIP3    H2  361   3.420   6.825   4.392
  133TIP3   OH2  362   5.475   2.265   3.920
  133TIP3    H1  363   5.420   2.187   3.932
  133TIP3    H2  364   5.414   2.338   3.931
  134TIP3   OH2  365   0.197   1.714   2.271
  134TIP3    H1  366   0.155   1.642   2.319
  134TIP3    H2  367   0.262   1.748   2.333
  135TIP3   OH2  368   4.515   5.298   2.656
  135TIP3    H1  369   4.589   5.349   2.624
  135TIP3    H2  370   4.441   5.359   2.655
  136TIP3   OH2  371   5.204   3.903   5.354
  136TIP3    H1  372   5.269   3.917   5.286
  136TIP3    H2  373   5.120   3.927   5.313
  137TIP3   OH2  374   2.903   1.026   0.540
  137TIP3    H1  375   2.871   1.113   0.562
  137TIP3    H2  376   2.827   0.969   0.554
  138TIP3   OH2  377   7.056   0.960   1.245
  138TIP3    H1  378   7.061   1.038   1.301
  138TIP3    H2  379   7.023   0.993   1.161
  139TIP3   OH2  380   6.629   1.982   5.513
  139TIP3    H1  381   6.592   2.019   5.593
  139TIP3    H2  382   6.584   2.028   5.442
  140TIP3   OH2  383   1.664   2.789   3.902
  140TIP3    H1  384   1.738   2.797   3.841
  140TIP3    H2  385   1.705   2.794   3.989
  141TIP3   OH2  386   6.578   6.669   2.358
  141TIP3    H1  387   6.484   6.658   2.373
  141TIP3    H2  388   6.616   6.666   2.445
  142TIP3   OH2  389   2.962   2.051   5.182
  142TIP3    H1  390   3.041   2.000   5.197
  142TIP3    H2  391   2.891   2.000   5.222
  143TIP3   OH2  392   6.905   5.966   2.105
  143TIP3    H1  393   6.948   5.881   2.092
  143TIP3    H2  394   6.943   6.022   2.038
  144TIP3   OH2  395   6.110   2.261   4.697
  144TIP3    H1  396   6.067   2.222   4.621
  144TIP3    H2  397   6.143   2.186   4.746
  145TIP3   OH2  398   1.144   3.834   0.160
  145TIP3    H1  399   1.169   3.809   0.249
  145TIP3    H2  400   1.109   3.754   0.121
  146TIP3   OH2  401   2.565   5.739   0.295
  146TIP3    H1  402   2.601   5.706   0.213
  146TIP3    H2  403   2.493   5.797   0.268
  147TIP3   OH2  404   3.940   0.868   2.862
  147TIP3    H1  405   3.990   0.794   2.898
  147TIP3    H2  406   3.980   0.884   2.776
  148TIP3   OH2  407   5.468   4.850   0.360
  148TIP3    H1  408   5.487   4.767   0.404
  148TIP3    H2  409   5.479   4.916   0.428
  149TIP3   OH2  410   5.054   6.032   3.470
  149TIP3    H1  411   4.982   6.096   3.474
  149TIP3    H2  412   5.015   5.955   3.429
  150TIP3   OH2  413   1.151   6.577   0.184
  150TIP3    H1  414   1.150   6.493   0.231
  150TIP3    H2  415   1.071   6.575   0.130
  151TIP3   OH2  416   1.297   6.095   2.636
  151TIP3    H1  417   1.391   6.083   2.627
  151TIP3    H2  418   1.281   6.186   2.613
  152TIP3   OH2  419   4.157   3.127   5.068
  152TIP3    H1  420   4.110   3.046   5.087
  152TIP3    H2  421   4.248   3.109   5.091
  153TIP3   OH2  422   1.664   1.955   3.671
  153TIP3    H1  423   1.616   1.993   3.745
  153TIP3    H2  424   1.609   1.883   3.642
  154TIP3   OH2  425   0.106   0.766   3.995
  154TIP3    H1  426   0.165   0.720   3.935
  154TIP3    H2  427   0.029   0.709   4.002
  155TIP3   OH2  428   2.242   2.728   0.271
  155TIP3    H1  429   2.232   2.821   0.293
  155TIP3    H2  430   2.335   2.710   0.288
  156TIP3   OH2  431   3.460   1.985   2.919
  156TIP3    H1  432   3.476   1.901   2.875
  156TIP3    H2  433   3.524   2.045   2.880
  157TIP3   OH2  434   7.168   6.140   2.161
  157TIP3    H1  435   7.253   6.115   2.126
  157TIP3    H2  436   7.144   6.070   2.221
  158TIP3   OH2  437   5.154   6.119   4.803
  158TIP3    H1  438   5.232   6.144   4.853
  158TIP3    H2  439   5.097   6.196   4.808
  159TIP3   OH2  440   4.652   1.556   2.358
  159TIP3    H1  441   4.748   1.552   2.356
  159TIP3    H2  442   4.632   1.634   2.409
  160TIP3   OH2  443   1.458   4.225   2.486
  160TIP3    H1  444   1.451   4.197   2.577
  160TIP3    H2  445   1.436   4.147   2.435
  161TIP3   OH2  446   3.244   3.103   1.419
  161TIP3    H1  447   3.235   3.010   1.440
  161TIP3    H2  448   3.226   3.148   1.502
  162TIP3   OH2  449   5.838   1.268   0.850
  162TIP3    H1  450   5.807   1.238   0.935
  162TIP3    H2  451   5.827   1.363   0.853
  163TIP3   OH2  452   3.260   1.344   2.647
  163TIP3    H1  453   3.271   1.435   2.620
  163TIP3    H2  454   3.166   1.332   2.656
  164TIP3   OH2  455   3.863   4.433   1.416
  164TIP3    H1  456   3.868   4.451   1.509
  164TIP3    H2  457   3.820   4.347   1.410
  165TIP3   OH2  458   5.147   2.553   3.180
  165TIP3    H1  459   5.094   2.513   3.248
  165TIP3    H2  460   5.221   2.591   3.227
  166TIP3   OH2  461   2.216   4.334   4.375
  166TIP3    H1  462   2.140   4.300   4.328
  166TIP3    H2  463   2.291   4.289   4.335
  167TIP3   OH2  464   6.848   1.451   3.790
  167TIP3    H1  465   6.839   1.531   3.739
  167TIP3    H2  466   6.885   1.479   3.874
  168TIP3   OH2  467   0.365   6.810   1.416
  168TIP3    H1  468   0.383   6.717   1.402
  168TIP3    H2  469   0.447   6.846   1.449
  169TIP3   OH2  470   0.067   4.350   2.985
  169TIP3    H1  471   0.130   4.278   2.982
  169TIP3    H2  472  -0.019   4.307   2.982
  170TIP3   OH2  473   4.777   3.542   4.944
  170TIP3    H1  474   4.850   3.535   5.006
  170TIP3    H2  475   4.816   3.580   4.865
  171TIP3   OH2  476   0.339   1.994   1.687
  171TIP3    H1  477   0.398   1.928   1.652
  171TIP3    H2  478   0.396   2.053   1.738
  172TIP3   OH2  479   5.507   0.469   2.383
  172TIP3    H1  480   5.589   0.520   2.387
  172TIP3    H2  481   5.497   0.447   2.291
  173TIP3   OH2  482   6.973   1.876   3.310
  173TIP3    H1  483   7.034   1.929   3.362
  173TIP3    H2  484   6.931   1.939   3.251
  174TIP3   OH2  485   1.003   5.239   0.553
  174TIP3    H1  486   1.089   5.273   0.529
  174TIP3    H2  487   0.946   5.261   0.479
  175TIP3   OH2  488   4.678   5.788   2.080
  175TIP3    H1  489   4.757   5.824   2.040
  175TIP3    H2  490   4.670   5.833   2.164
  176TIP3   OH2  491   2.000   4.015   0.527
  176TIP3    H1  492   1.962   4.054   0.448
  176TIP3    H2  493   1.948   3.936   0.542
  177TIP3   OH2  494   4.440   4.861   4.625
  177TIP3    H1  495   4.490   4.921   4.570
  177TIP3    H2  496   4.366   4.913   4.656
  178TIP3   OH2  497   4.358   4.303   2.032
  178TIP3    H1  498   4.365   4.289   1.938
  178TIP3    H2  499   4.281   4.252   2.058
  179TIP3   OH2  500   4.939   4.120   0.189
  179TIP3    H1  501   4.853   4.082   0.170
  179TIP3    H2  502   4.995   4.087   0.119
  180TIP3   OH2  503   3.977   3.184   4.303
  180TIP3    H1  504   3.958   3.130   4.226
  180TIP3    H2  505   3.989   3.272   4.268
  181TIP3   OH2  506   5.692   1.390   1.973
  181TIP3    H1  507   5.611   1.417   1.929
  181TIP3    H2  508   5.726   1.320   1.918
  182TIP3   OH2  509   2.639   0.757   4.361
  182TIP3    H1  510   2.728   0.736   4.334
  182TIP3    H2  511   2.583   0.699   4.310
  183TIP3   OH2  512   1.425   4.503   4.481
  183TIP3    H1  513   1.361   4.441   4.444
  183TIP3    H2  514   1.501   4.448   4.502
  184TIP3   OH2  515   6.622   4.668   4.267
  184TIP3    H1  516   6.703   4.643   4.222
  184TIP3    H2  517   6.553   4.631   4.212
  185TIP3   OH2  518   4.416   4.878   5.147
  185TIP3    H1  519   4.409   4.784   5.161
  185TIP3    H2  520   4.476   4.887   5.073
  186TIP3   OH2  521   4.219   2.546   4.013
  186TIP3    H1  522   4.187   2.492   3.941
  186TIP3    H2  523   4.141   2.564   4.066
  187TIP3   OH2  524   3.826   5.557   4.874
  187TIP3    H1  525   3.824   5.620   4.801
  187TIP3    H2  526   3.763   5.592   4.937
  188TIP3   OH2  527   6.808   5.966   0.368
  188TIP3    H1  528   6.715   5.985   0.366
  188TIP3    H2  529   6.838   5.980   0.278
  189TIP3   OH2  530   6.268   3.271   5.856
  189TIP3    H1  531   6.313   3.346   5.897
  189TIP3    H2  532   6.184   3.266   5.902
  190TIP3   OH2  533   5.875   3.478   0.734
  190TIP3    H1  534   5.824   3.481   0.652
  190TIP3    H2  535   5.848   3.396   0.775
  191TIP3   OH2  536   3.942   1.611   3.724
  191TIP3    H1  537   3.959   1.628   3.631
  191TIP3    H2  538   3.950   1.697   3.766
  192TIP3   OH2  539   4.066   5.420   1.081
  192TIP3    H1  540   4.144   5.370   1.104
  192TIP3    H2  541   4.083   5.508   1.114
  193TIP3   OH2  542   4.589   0.356   4.071
  193TIP3    H1  543   4.598   0.380   4.163
  193TIP3    H2  544   4.640   0.275   4.062
  194TIP3   OH2  545   1.242   2.874   3.400
  194TIP3    H1  546   1.164   2.898   3.450
  194TIP3    H2  547   1.288   2.956   3.386
  195TIP3   OH2  548   6.375   0.241   4.458
  195TIP3    H1  549   6.389   0.200   4.543
  195TIP3    H2  550   6.284   0.220   4.436
  196TIP3   OH2  551   2.147   1.368   4.063
  196TIP3    H1  552   2.094   1.439   4.026
  196TIP3    H2  553   2.086   1.322   4.121
  197TIP3   OH2  554   3.896   1.016   1.072
  197TIP3    H1  555   3.907   1.083   1.140
  197TIP3    H2  556   3.801   1.000   1.070
  198TIP3   OH2  557   1.794   6.759   1.464
  198TIP3    H1  558   1.794   6.846   1.505
  198TIP3    H2  559   1.702   6.742   1.444
  199TIP3   OH2  560   4.956   1.418   3.849
  199TIP3    H1  561   4.873   1.466   3.849
  199TIP3    H2  562   4.941   1.343   3.905
  200TIP3   OH2  563   3.668   3.809   1.473
  200TIP3    H1  564   3.749   3.853   1.446
  200TIP3    H2  565   3.692   3.764   1.555
  201TIP3   OH2  566   1.919   2.802   2.071
  201TIP3    H1  567   1.893   2.730   2.013
  201TIP3    H2  568   1.956   2.868   2.013
  202TIP3   OH2  569   7.141   3.949   2.921
  202TIP3    H1  570   7.048   3.927   2.917
  202TIP3    H2  571   7.157   3.969   3.013
  203TIP3   OH2  572   5.058   0.763   0.567
  203TIP3    H1  573   4.974   0.756   0.612
  203TIP3    H2  574   5.047   0.710   0.487
  204TIP3   OH2  575   0.616   2.590   2.464
  204TIP3    H1  576   0.561   2.555   2.534
  204TIP3    H2  577   0.705   2.588   2.499
  205TIP3   OH2  578   5.720   2.810   4.390
  205TIP3    H1  579   5.755   2.721   4.385
  205TIP3    H2  580   5.794   2.866   4.366
  206TIP3   OH2  581   3.101   2.956   1.161
  206TIP3    H1  582   3.183   2.926   1.122
  206TIP3    H2  583   3.059   3.008   1.093
  207TIP3   OH2  584   0.189   2.762   5.134
  207TIP3    H1  585   0.223   2.686   5.086
  207TIP3    H2  586   0.248   2.833   5.110
  208TIP3   OH2  587   0.637   0.482   4.762
  208TIP3    H1  588   0.700   0.554   4.770
  208TIP3    H2  589   0.684   0.406   4.796
  209TIP3   OH2  590   0.402   0.455   2.848
  209TIP3    H1  591   0.475   0.518   2.845
  209TIP3    H2  592   0.347   0.480   2.774
  210TIP3   OH2  593   6.148   5.306   2.776
  210TIP3    H1  594   6.184   5.304   2.865
  210TIP3    H2  595   6.069   5.252   2.782
  211TIP3   OH2  596   4.895   0.787   2.184
  211TIP3    H1  597   4.947   0.800   2.262
  211TIP3    H2  598   4.936   0.842   2.117
  212TIP3   OH2  599   4.393   4.074   1.107
  212TIP3    H1  600   4.299   4.082   1.120
  212TIP3    H2  601   4.424   4.026   1.185
  213TIP3   OH2  602   1.123   4.683   4.969
  213TIP3    H1  603   1.174   4.663   4.890
  213TIP3    H2  604   1.188   4.704   5.036
  214TIP3   OH2  605   6.202   2.494   3.538
  214TIP3    H1  606   6.196   2.587   3.518
  214TIP3    H2  607   6.112   2.462   3.534
  215TIP3   OH2  608   5.283   1.148   3.642
  215TIP3    H1  609   5.249   1.096   3.569
  215TIP3    H2  610   5.217   1.216   3.656
  216TIP3   OH2  611   6.339   1.893   3.955
  216TIP3    H1  612   6.367   1.853   4.038
  216TIP3    H2  613   6.250   1.858   3.941
  217TIP3   OH2  614   4.273   0.937   4.277
  217TIP3    H1  615   4.339   0.933   4.347
  217TIP3    H2  616   4.268   0.848   4.243
  218TIP3   OH2  617   0.029   1.613   5.657
  218TIP3    H1  618  -0.023   1.591   5.580
  218TIP3    H2  619   0.079   1.534   5.676
  219TIP3   OH2  620   6.826   4.672   5.833
  219TIP3    H1  621   6.896   4.699   5.773
  219TIP3    H2  622   6.820   4.577   5.821
  220TIP3   OH2  623   0.158   0.206   2.248
  220TIP3    H1  624   0.149   0.125   2.297
  220TIP3    H2  625   0.227   0.187   2.184
  221TIP3   OH2  626   6.800   3.055   3.486
  221TIP3    H1  627   6.825   3.078   3.397
  221TIP3    H2  628   6.719   3.005   3.476
  222TIP3   OH2  629   0.607   6.440   2.259
  222TIP3    H1  630   0.694   6.404   2.240
  222TIP3    H2  631   0.625   6.525   2.299
  223TIP3   OH2  632   1.593   1.631   2.862
  223TIP3    H1  633   1.619   1.710   2.910
  223TIP3    H2  634   1.500   1.620   2.882
  224TIP3   OH2  635   2.851   4.018   3.949
  224TIP3    H1  636   2.922   3.958   3.973
  224TIP3    H2  637   2.885   4.067   3.874
  225TIP3   OH2  638   4.583   6.378   5.051
  225TIP3    H1  639   4.574   6.450   4.988
  225TIP3    H2  640   4.652   6.323   5.014
  226TIP3   OH2  641   0.674   2.450   0.921
  226TIP3    H1  642   0.749   2.394   0.900
  226TIP3    H2  643   0.617   2.396   0.975
  227TIP3   OH2  644   4.428   3.573   4.679
  227TIP3    H1  645   4.452   3.663   4.700
  227TIP3    H2  646   4.460   3.559   4.590
  228TIP3   OH2  647   2.879   5.267   5.833
  228TIP3    H1  648   2.937   5.190   5.832
  228TIP3    H2  649   2.819   5.253   5.760
  229TIP3   OH2  650   4.579   0.196   3.690
  229TIP3    H1  651   4.528   0.115   3.689
  229TIP3    H2  652   4.662   0.174   3.646
  230TIP3   OH2  653   4.867   6.763   1.333
  230TIP3    H1  654   4.824   6.731   1.412
  230TIP3    H2  655   4.819   6.723   1.261
  231TIP3   OH2  656   3.771   1.028   1.604
  231TIP3    H1  657   3.711   1.089   1.645
  231TIP3    H2  658   3.720   0.988   1.533
  232TIP3   OH2  659   2.816   6.175   2.086
  232TIP3    H1  660   2.818   6.110   2.156
  232TIP3    H2  661   2.889   6.234   2.106
  233TIP3   OH2  662   6.404   3.625   4.271
  233TIP3    H1  663   6.398   3.553   4.335
  233TIP3    H2  664   6.315   3.658   4.264
  234TIP3   OH2  665   4.717   2.084   3.390
  234TIP3    H1  666   4.669   2.002   3.381
  234TIP3    H2  667   4.663   2.149   3.346
  235TIP3   OH2  668   4.948   3.070   5.006
  235TIP3    H1  669   5.027   3.017   5.015
  235TIP3    H2  670   4.960   3.116   4.922
  236TIP3   OH2  671   1.504   4.684   3.708
  236TIP3    H1  672   1.584   4.737   3.718
  236TIP3    H2  673   1.483   4.655   3.796
  237TIP3   OH2  674   5.996   0.229   0.553
  237TIP3    H1  675   6.016   0.150   0.503
  237TIP3    H2  676   6.074   0.245   0.606
  238TIP3   OH2  677   4.831   6.209   4.356
  238TIP3    H1  678   4.901   6.250   4.305
  238TIP3    H2  679   4.787   6.282   4.399
  239TIP3   OH2  680   5.840   5.384   2.181
  239TIP3    H1  681   5.900   5.336   2.238
  239TIP3    H2  682   5.849   5.475   2.207
  240TIP3   OH2  683   6.791   6.054   0.974
  240TIP3    H1  684   6.699   6.063   0.952
  240TIP3    H2  685   6.837   6.066   0.891
  241TIP3   OH2  686   2.455   5.508   1.829
  241TIP3    H1  687   2.370   5.498   1.872
  241TIP3    H2  688   2.516   5.529   1.900
  242TIP3   OH2  689   6.082   2.206   3.251
  242TIP3    H1  690   5.998   2.202   3.298
  242TIP3    H2  691   6.147   2.219   3.320
  243TIP3   OH2  692   3.803   4.149   5.189
  243TIP3    H1  693   3.778   4.193   5.270
  243TIP3    H2  694   3.889   4.111   5.207
  244TIP3   OH2  695   1.540   0.539   3.479
  244TIP3    H1  696   1.509   0.478   3.546
  244TIP3    H2  697   1.547   0.623   3.525
  245TIP3   OH2  698   1.514   3.274   4.038
  245TIP3    H1  699   1.535   3.288   3.946
  245TIP3    H2  700   1.513   3.361   4.077
  246TIP3   OH2  701   2.999   0.355   0.754
  246TIP3    H1  702   2.918   0.304   0.749
  246TIP3    H2  703   3.039   0.344   0.668
  247TIP3   OH2  704   6.318   2.811   1.868
  247TIP3    H1  705   6.370   2.731   1.860
  247TIP3    H2  706   6.257   2.808   1.795
  248TIP3   OH2  707   2.487   4.194   4.591
  248TIP3    H1  708   2.560   4.234   4.640
  248TIP3    H2  709   2.517   4.194   4.500
  249TIP3   OH2  710  -0.010   6.549   3.469
  249TIP3    H1  711  -0.066   6.487   3.516
  249TIP3    H2  712   0.078   6.513   3.479
  250TIP3   OH2  713   3.981   3.079   3.534
  250TIP3    H1  714   4.057   3.105   3.587
  250TIP3    H2  715   4.012   3.003   3.485
  251TIP3   OH2  716   1.034   3.151   1.201
  251TIP3    H1  717   0.989   3.096   1.265
  251TIP3    H2  718   1.055   3.093   1.128
  252TIP3   OH2  719   6.622   6.326   5.146
  252TIP3    H1  720   6.670   6.245   5.130
  252TIP3    H2  721   6.609   6.328   5.241
  253TIP3   OH2  722   4.163   4.115   1.516
  253TIP3    H1  723   4.167   4.188   1.454
  253TIP3    H2  724   4.139   4.155   1.600
  254TIP3   OH2  725   2.923   2.511   3.277
  254TIP3    H1  726   2.935   2.548   3.190
  254TIP3    H2  727   2.847   2.452   3.267
  255TIP3   OH2  728   3.436   3.128   1.167
  255TIP3    H1  729   3.373   3.200   1.169
  255TIP3    H2  730   3.486   3.139   1.248
  256TIP3   OH2  731   3.887   6.429   5.308
  256TIP3    H1  732   3.939   6.491   5.256
  256TIP3    H2  733   3.867   6.358   5.247
  257TIP3   OH2  734   4.839   5.165   0.081
  257TIP3    H1  735   4.786   5.226   0.132
  257TIP3    H2  736   4.872   5.218   0.008
  258TIP3   OH2  737   3.919   2.878   2.937
  258TIP3    H1  738   3.830   2.854   2.912
  258TIP3    H2  739   3.968   2.796   2.931
  259TIP3   OH2  740   3.938   3.367   3.687
  259TIP3    H1  741   3.961   3.352   3.778
  259TIP3    H2  742   3.908   3.281   3.656
  260TIP3   OH2  743   2.475   6.487   2.123
  260TIP3    H1  744   2.520   6.413   2.163
  260TIP3    H2  745   2.396   6.450   2.084
  261TIP3   OH2  746   1.476   1.785   3.250
  261TIP3    H1  747   1.456   1.840   3.173
  261TIP3    H2  748   1.558   1.820   3.283
  262TIP3   OH2  749   2.343   3.791   5.670
  262TIP3    H1  750   2.270   3.740   5.636
  262TIP3    H2  751   2.384   3.830   5.593
  263TIP3   OH2  752   1.666   4.091   0.051
  263TIP3    H1  753   1.631   4.004   0.033
  263TIP3    H2  754   1.590   4.149   0.042
  264TIP3   OH2  755   1.717   4.595   1.702
  264TIP3    H1  756   1.708   4.590   1.798
  264TIP3    H2  757   1.811   4.583   1.687
  265TIP3   OH2  758   1.205   6.102   5.839
  265TIP3    H1  759   1.115   6.079   5.815
  265TIP3    H2  760   1.258   6.029   5.808
  266TIP3   OH2  761   4.489   0.920   1.597
  266TIP3    H1  762   4.572   0.964   1.620
  266TIP3    H2  763   4.505   0.884   1.510
  267TIP3   OH2  764   2.114   2.230   0.533
  267TIP3    H1  765   2.201   2.206   0.501
  267TIP3    H2  766   2.098   2.317   0.496
  268TIP3   OH2  767   5.285   4.933   1.272
  268TIP3    H1  768   5.192   4.955   1.268
  268TIP3    H2  769   5.329   5.013   1.244
  269TIP3   OH2  770   2.957   6.207   4.526
  269TIP3    H1  771   2.883   6.260   4.496
  269TIP3    H2  772   2.966   6.138   4.461
  270TIP3   OH2  773   2.810   1.751   3.063
  270TIP3    H1  774   2.843   1.822   3.008
  270TIP3    H2  775   2.855   1.673   3.033
  271TIP3   OH2  776   5.111   1.451   2.692
  271TIP3    H1  777   5.172   1.405   2.635
  271TIP3    H2  778   5.161   1.470   2.772
  272TIP3   OH2  779   7.140   5.891   1.424
  272TIP3    H1  780   7.054   5.931   1.437
  272TIP3    H2  781   7.132   5.841   1.343
  273TIP3   OH2  782   2.249   3.070   2.787
  273TIP3    H1  783   2.260   3.000   2.723
  273TIP3    H2  784   2.235   3.025   2.870
  274TIP3   OH2  785   0.486   5.279   0.819
  274TIP3    H1  786   0.452   5.362   0.784
  274TIP3    H2  787   0.440   5.267   0.902
  275TIP3   OH2  788   2.104   2.705   4.888
  275TIP3    H1  789   2.017   2.714   4.849
  275TIP3    H2  790   2.128   2.614   4.871
  276TIP3   OH2  791   2.142   1.176   4.478
  276TIP3    H1  792   2.150   1.162   4.572
  276TIP3    H2  793   2.126   1.269   4.469
  277TIP3   OH2  794   6.455   1.419   5.558
  277TIP3    H1  795   6.524   1.359   5.531
  277TIP3    H2  796   6.415   1.378   5.635
  278TIP3   OH2  797   0.417   1.600   0.916
  278TIP3    H1  798   0.424   1.601   0.821
  278TIP3    H2  799   0.331   1.638   0.934
  279TIP3   OH2  800   7.124   1.831   1.077
  279TIP3    H1  801   7.132   1.741   1.047
  279TIP3    H2  802   7.115   1.882   0.996
  280TIP3   OH2  803   4.927   1.222   4.247
  280TIP3    H1  804   4.869   1.170   4.303
  280TIP3    H2  805   4.867   1.274   4.192
  281TIP3   OH2  806   2.601   0.314   3.295
  281TIP3    H1  807   2.531   0.262   3.255
  281TIP3    H2  808   2.609   0.391   3.238
  282TIP3   OH2  809   4.219   5.707   4.617
  282TIP3    H1  810   4.302   5.744   4.647
  282TIP3    H2  811   4.170   5.783   4.585
  283TIP3   OH2  812   0.663   0.993   2.299
  283TIP3    H1  813   0.698   0.904   2.304
  283TIP3    H2  814   0.657   1.012   2.206
  284TIP3   OH2  815   5.961   1.084   0.388
  284TIP3    H1  816   5.917   1.104   0.470
  284TIP3    H2  817   5.902   1.023   0.343
  285TIP3   OH2  818   2.650   1.401   3.827
  285TIP3    H1  819   2.602   1.331   3.870
  285TIP3    H2  820   2.740   1.369   3.823
  286TIP3   OH2  821   3.194   6.598   3.680
  286TIP3    H1  822   3.189   6.671   3.742
  286TIP3    H2  823   3.107   6.594   3.640
  287TIP3   OH2  824   6.619   0.325   3.512
  287TIP3    H1  825   6.530   0.357   3.502
  287TIP3    H2  826   6.647   0.306   3.422
  288TIP3   OH2  827   1.474   0.483   4.720
  288TIP3    H1  828   1.547   0.535   4.754
  288TIP3    H2  829   1.501   0.392   4.733
  289TIP3   OH2  830   3.645   3.594   5.345
  289TIP3    H1  831   3.627   3.519   5.289
  289TIP3    H2  832   3.595   3.577   5.425
  290TIP3   OH2  833   2.725   6.041   4.604
  290TIP3    H1  834   2.792   6.072   4.665
  290TIP3    H2  835   2.643   6.050   4.652
  291TIP3   OH2  836   1.033   5.541   5.261
  291TIP3    H1  837   1.081   5.462   5.286
  291TIP3    H2  838   0.953   5.537   5.313
  292TIP3   OH2  839   3.551   5.722   0.135
  292TIP3    H1  840   3.607   5.646   0.144
  292TIP3    H2  841   3.475   5.690   0.087
  293TIP3   OH2  842   5.222   1.624   3.557
  293TIP3    H1  843   5.192   1.638   3.468
  293TIP3    H2  844   5.218   1.711   3.598
  294TIP3   OH2  845   0.992   2.030   5.207
  294TIP3    H1  846   1.023   2.069   5.126
  294TIP3    H2  847   1.020   2.091   5.275
  295TIP3   OH2  848   0.131   6.757   2.094
  295TIP3    H1  849   0.114   6.679   2.041
  295TIP3    H2  850   0.122   6.830   2.032
  296TIP3   OH2  851   5.740   3.553   0.143
  296TIP3    H1  852   5.701   3.501   0.213
  296TIP3    H2  853   5.756   3.639   0.183
  297TIP3   OH2  854   4.098   1.981   2.830
  297TIP3    H1  855   4.096   1.889   2.857
  297TIP3    H2  856   4.191   2.004   2.830
  298TIP3   OH2  857   6.352   0.522   5.782
  298TIP3    H1  858   6.342   0.580   5.707
  298TIP3    H2  859   6.360   0.435   5.744
  299TIP3   OH2  860   3.953   4.472   2.534
  299TIP3    H1  861   3.982   4.398   2.480
  299TIP3    H2  862   4.000   4.460   2.616
  300TIP3   OH2  863   5.884   4.028   0.810
  300TIP3    H1  864   5.825   4.081   0.757
  300TIP3    H2  865   5.851   3.938   0.799
  301TIP3   OH2  866   4.342   6.090   5.773
  301TIP3    H1  867   4.379   6.115   5.857
  301TIP3    H2  868   4.258   6.135   5.769
  302TIP3   OH2  869   3.090   4.977   4.957
  302TIP3    H1  870   3.027   5.049   4.961
  302TIP3    H2  871   3.051   4.913   4.898
  303TIP3   OH2  872   0.012   5.355   4.273
  303TIP3    H1  873  -0.059   5.385   4.329
  303TIP3    H2  874   0.085   5.414   4.292
  304TIP3   OH2  875   0.058   3.911   5.033
  304TIP3    H1  876   0.124   3.971   5.067
  304TIP3    H2  877  -0.013   3.915   5.097
  305TIP3   OH2  878   5.536   5.242   4.981
  305TIP3    H1  879   5.556   5.149   4.993
  305TIP3    H2  880   5.577   5.284   5.057
  306TIP3   OH2  881   3.129   3.766   2.749
  306TIP3    H1  882   3.039   3.764   2.719
  306TIP3    H2  883   3.178   3.803   2.675
  307TIP3   OH2  884   3.996   4.855   0.780
  307TIP3    H1  885   4.039   4.777   0.745
  307TIP3    H2  886   3.946   4.824   0.855
  308TIP3   OH2  887   3.129   0.600   1.855
  308TIP3    H1  888   3.090   0.650   1.784
  308TIP3    H2  889   3.131   0.661   1.929
  309TIP3   OH2  890   5.530   6.452   1.100
  309TIP3    H1  891   5.522   6.543   1.130
  309TIP3    H2  892   5.450   6.410   1.131
  310TIP3   OH2  893   2.599   2.702   5.812
  310TIP3    H1  894   2.594   2.774   5.750
  310TIP3    H2  895   2.532   2.723   5.878
  311TIP3   OH2  896   6.063   6.155   2.108
  311TIP3    H1  897   5.970   6.147   2.087
  311TIP3    H2  898   6.065   6.212   2.185
  312TIP3   OH2  899   0.890   4.657   2.373
  312TIP3    H1  900   0.935   4.729   2.329
  312TIP3    H2  901   0.957   4.616   2.427
  313TIP3   OH2  902   2.472   1.195   1.389
  313TIP3    H1  903   2.427   1.138   1.327
  313TIP3    H2  904   2.563   1.165   1.387
  314TIP3   OH2  905   2.375   3.392   1.664
  314TIP3    H1  906   2.438   3.424   1.729
  314TIP3    H2  907   2.293   3.382   1.713
  315TIP3   OH2  908   5.087   3.854   2.975
  315TIP3    H1  909   5.051   3.789   3.036
  315TIP3    H2  910   5.126   3.920   3.032
  316TIP3   OH2  911   6.735   6.223   1.176
  316TIP3    H1  912   6.653   6.187   1.208
  316TIP3    H2  913   6.744   6.186   1.088
  317TIP3   OH2  914   2.034   3.283   4.226
  317TIP3    H1  915   2.103   3.327   4.178
  317TIP3    H2  916   2.069   3.270   4.314
  318TIP3   OH2  917   0.662   5.118   5.243
  318TIP3    H1  918   0.658   5.058   5.318
  318TIP3    H2  919   0.721   5.075   5.182
  319TIP3   OH2  920   2.642   1.904   1.162
  319TIP3    H1  921   2.713   1.967   1.147
  319TIP3    H2  922   2.669   1.857   1.241
  320TIP3   OH2  923   5.351   2.010   1.780
  320TIP3    H1  924   5.357   2.076   1.848
  320TIP3    H2  925   5.259   1.983   1.780
  321TIP3   OH2  926   4.971   4.322   0.372
  321TIP3    H1  927   4.943   4.247   0.320
  321TIP3    H2  928   4.908   4.327   0.444
  322TIP3   OH2  929   2.277   4.628   3.688
  322TIP3    H1  930   2.354   4.574   3.670
  322TIP3    H2  931   2.244   4.596   3.772
  323TIP3   OH2  932   3.014   2.750   0.058
  323TIP3    H1  933   2.924   2.775   0.079
  323TIP3    H2  934   3.010   2.719  -0.032
  324TIP3   OH2  935   1.049   3.551   3.712
  324TIP3    H1  936   1.142   3.554   3.691
  324TIP3    H2  937   1.022   3.462   3.691
  325TIP3   OH2  938   2.486   5.911   3.047
  325TIP3    H1  939   2.492   5.867   3.132
  325TIP3    H2  940   2.393   5.932   3.038
  326TIP3   OH2  941   0.560   2.819   2.008
  326TIP3    H1  942   0.515   2.776   2.080
  326TIP3    H2  943   0.542   2.912   2.020
  327TIP3   OH2  944   1.371   2.243   0.992
  327TIP3    H1  945   1.328   2.217   1.073
  327TIP3    H2  946   1.407   2.330   1.010
  328TIP3   OH2  947   3.671   3.306   3.943
  328TIP3    H1  948   3.728   3.369   3.985
  328TIP3    H2  949   3.730   3.245   3.900
  329TIP3   OH2  950   2.115   6.642   3.325
  329TIP3    H1  951   2.126   6.547   3.320
  329TIP3    H2  952   2.022   6.657   3.310
  330TIP3   OH2  953   4.076   0.217   1.318
  330TIP3    H1  954   4.030   0.261   1.389
  330TIP3    H2  955   4.165   0.251   1.320
  331TIP3   OH2  956   2.931   0.882   1.424
  331TIP3    H1  957   2.873   0.939   1.373
  331TIP3    H2  958   2.990   0.942   1.470
  332TIP3   OH2  959   4.873   0.971   3.288
  332TIP3    H1  960   4.936   1.033   3.252
  332TIP3    H2  961   4.795   0.982   3.234
  333TIP3   OH2  962   6.776   6.390   2.112
  333TIP3    H1  963   6.726   6.469   2.093
  333TIP3    H2  964   6.743   6.360   2.197
  334TIP3   OH2  965   3.726   0.470   2.016
  334TIP3    H1  966   3.751   0.509   1.932
  334TIP3    H2  967   3.757   0.380   2.010
  335TIP3   OH2  968   4.276   0.625   5.776
  335TIP3    H1  969   4.330   0.687   5.825
  335TIP3    H2  970   4.290   0.648   5.684
  336TIP3   OH2  971   1.757   4.839   3.773
  336TIP3    H1  972   1.789   4.924   3.803
  336TIP3    H2  973   1.829   4.778   3.790
  337TIP3   OH2  974   0.627   1.176   2.495
  337TIP3    H1  975   0.633   1.130   2.578
  337TIP3    H2  976   0.660   1.114   2.430
  338TIP3   OH2  977   6.131   6.764   2.580
  338TIP3    H1  978   6.188   6.837   2.558
  338TIP3    H2  979   6.168   6.727   2.660
  339TIP3   OH2  980   3.230   6.511   2.197
  339TIP3    H1  981   3.197   6.543   2.281
  339TIP3    H2  982   3.317   6.476   2.216
  340TIP3   OH2  983   1.151   2.127   1.789
  340TIP3    H1  984   1.167   2.037   1.762
  340TIP3    H2  985   1.062   2.126   1.824
  341TIP3   OH2  986   6.288   6.418   2.186
  341TIP3    H1  987   6.306   6.329   2.216
  341TIP3    H2  988   6.296   6.472   2.264
  342TIP3   OH2  989   4.657   3.297   2.892
  342TIP3    H1  990   4.641   3.389   2.868
  342TIP3    H2  991   4.584   3.274   2.950
  343TIP3   OH2  992   6.231   6.362   2.855
  343TIP3    H1  993   6.284   6.378   2.934
  343TIP3    H2  994   6.144   6.341   2.889
  344TIP3   OH2  995   1.138   5.673   2.229
  344TIP3    H1  996   1.088   5.607   2.278
  344TIP3    H2  997   1.210   5.623   2.190
  345TIP3   OH2  998   3.850   6.042   4.496
  345TIP3    H1  999   3.850   5.957   4.451
  345TIP3    H2 1000   3.775   6.089   4.460
  346TIP3   OH2 1001   6.857   2.134   3.957
  346TIP3    H1 1002   6.777   2.164   3.913
  346TIP3    H2 1003   6.924   2.197   3.932
  347TIP3   OH2 1004   1.339   4.389   1.859
  347TIP3    H1 1005   1.369   4.446   1.931
  347TIP3    H2 1006   1.418   4.365   1.812
  348TIP3   OH2 1007   2.832   2.369   5.867
  348TIP3    H1 1008   2.851   2.348   5.776
  348TIP3    H2 1009   2.761   2.310   5.892
  349TIP3   OH2 1010   5.819   4.460   2.845
  349TIP3    H1 1011   5.742   4.447   2.789
  349TIP3    H2 1012   5.886   4.404   2.807
  350TIP3   OH2 1013   4.512   5.124   2.088
  350TIP3    H1 1014   4.604   5.139   2.110
  350TIP3    H2 1015   4.504   5.153   1.997
  351TIP3   OH2 1016   0.701   3.381   0.674
  351TIP3    H1 1017   0.661   3.405   0.590
  351TIP3    H2 1018   0.658   3.438   0.738
  352TIP3   OH2 1019   4.505   5.782   3.657
  352TIP3    H1 1020   4.473   5.830   3.734
  352TIP3    H2 1021   4.534   5.851   3.597
  353TIP3   OH2 1022   6.890   5.307   1.804
  353TIP3    H1 1023   6.965   5.255   1.832
  353TIP3    H2 1024   6.922   5.397   1.802
  354TIP3   OH2 1025   6.575   4.764   4.785
  354TIP3    H1 1026   6.555   4.851   4.818
  354TIP3    H2 1027   6.501   4.741   4.728
  355TIP3   OH2 1028   0.086   3.095   3.155
  355TIP3    H1 1029   0.136   3.074   3.077
  355TIP3    H2 1030   0.095   3.018   3.211
  356TIP3   OH2 1031   6.199   5.011   5.216
  356TIP3    H1 1032   6.201   5.105   5.196
  356TIP3    H2 1033   6.127   4.977   5.163
  357TIP3   OH2 1034   0.391   2.635   3.627
  357TIP3    H1 1035   0.309   2.681   3.641
  357TIP3    H2 1036   0.374   2.578   3.552
  358TIP3   OH2 1037   0.771   1.837   5.726
  358TIP3    H1 1038   0.855   1.793   5.718
  358TIP3    H2 1039   0.767   1.895   5.650
  359TIP3   OH2 1040   5.276   3.719   4.728
  359TIP3    H1 1041   5.334   3.743   4.655
  359TIP3    H2 1042   5.236   3.637   4.700
  360TIP3   OH2 1043   1.082   6.384   4.176
  360TIP3    H1 1044   1.162   6.404   4.129
  360TIP3    H2 1045   1.022   6.351   4.109
  361TIP3   OH2 1046   2.053   4.770   3.074
  361TIP3    H1 1047   2.146   4.748   3.072
  361TIP3    H2 1048   2.051   4.866   3.065
  362TIP3   OH2 1049   4.568   2.011   4.831
  362TIP3    H1 1050   4.494   2.038   4.886
  362TIP3    H2 1051   4.621   2.090   4.821
  363TIP3   OH2 1052   4.146   4.267   3.942
  363TIP3    H1 1053   4.068   4.227   3.903
  363TIP3    H2 1054   4.157   4.222   4.026
  364TIP3   OH2 1055   6.948   6.034   3.311
  364TIP3    H1 1056   6.934   5.940   3.325
  364TIP3    H2 1057   6.974   6.041   3.219
  365TIP3   OH2 1058   1.977   2.643   0.798
  365TIP3    H1 1059   1.958   2.717   0.856
  365TIP3    H2 1060   2.045   2.676   0.739
  366TIP3   OH2 1061   4.413   2.749   4.816
  366TIP3    H1 1062   4.381   2.680   4.759
  366TIP3    H2 1063   4.338   2.807   4.829
  367TIP3   OH2 1064   3.141   6.111   3.042
  367TIP3    H1 1065   3.109   6.103   3.132
  367TIP3    H2 1066   3.234   6.130   3.052
  368TIP3   OH2 1067   0.698   0.408   0.666
  368TIP3    H1 1068   0.687   0.351   0.742
  368TIP3    H2 1069   0.714   0.495   0.705
  369TIP3   OH2 1070   3.859   0.497   1.222
  369TIP3    H1 1071   3.937   0.452   1.253
  369TIP3    H2 1072   3.810   0.430   1.174
  370TIP3   OH2 1073   6.441   1.632   0.273
  370TIP3    H1 1074   6.509   1.636   0.205
  370TIP3    H2 1075   6.383   1.561   0.244
  371TIP3   OH2 1076   5.951   4.267   2.684
  371TIP3    H1 1077   6.011   4.276   2.758
  371TIP3    H2 1078   5.961   4.176   2.656
  372TIP3   OH2 1079   2.163   2.347   0.018
  372TIP3    H1 1080   2.252   2.320   0.042
  372TIP3    H2 1081   2.135   2.282  -0.047
  373TIP3   OH2 1082   1.050   0.967   3.238
  373TIP3    H1 1083   1.061   0.873   3.222
  373TIP3    H2 1084   1.116   1.009   3.182
  374TIP3   OH2 1085   0.628   6.363   4.080
  374TIP3    H1 1086   0.666   6.359   4.167
  374TIP3    H2 1087   0.681   6.302   4.028
  375TIP3   OH2 1088   1.021   0.492   2.190
  375TIP3    H1 1089   1.002   0.533   2.106
  375TIP3    H2 1090   1.111   0.462   2.183
  376TIP3   OH2 1091   2.324   2.921   1.176
  376TIP3    H1 1092   2.352   2.833   1.150
  376TIP3    H2 1093   2.406   2.968   1.192
  377TIP3   OH2 1094   3.422   4.982   2.162
  377TIP3    H1 1095   3.424   4.988   2.257
  377TIP3    H2 1096   3.477   4.907   2.141
  378TIP3   OH2 1097   0.579   2.452   4.976
  378TIP3    H1 1098   0.516   2.433   4.907
  378TIP3    H2 1099   0.608   2.542   4.959
  379TIP3   OH2 1100   6.118   4.364   5.472
  379TIP3    H1 1101   6.095   4.447   5.430
  379TIP3    H2 1102   6.175   4.390   5.544
  380TIP3   OH2 1103   0.588   1.901   3.488
  380TIP3    H1 1104   0.597   1.858   3.403
  380TIP3    H2 1105   0.675   1.898   3.526
  381TIP3   OH2 1106   3.359   6.422   4.678
  381TIP3    H1 1107   3.328   6.375   4.756
  381TIP3    H2 1108   3.393   6.505   4.712
  382TIP3   OH2 1109   1.874   3.185   5.303
  382TIP3    H1 1110   1.876   3.110   5.244
  382TIP3    H2 1111   1.819   3.249   5.258
  383TIP3   OH2 1112   6.626   0.246   5.171
  383TIP3    H1 1113   6.633   0.327   5.122
  383TIP3    H2 1114   6.533   0.239   5.192
  384TIP3   OH2 1115   6.586   1.501   4.849
  384TIP3    H1 1116   6.602   1.413   4.814
  384TIP3    H2 1117   6.512   1.490   4.908
  385TIP3   OH2 1118   3.825   1.230   4.007
  385TIP3    H1 1119   3.857   1.311   3.968
  385TIP3    H2 1120   3.735   1.223   3.976
  386TIP3   OH2 1121   6.104   4.410   1.914
  386TIP3    H1 1122   6.083   4.477   1.848
  386TIP3    H2 1123   6.199   4.412   1.922
  387TIP3   OH2 1124   0.392   4.693   2.182
  387TIP3    H1 1125   0.486   4.706   2.194
  387TIP3    H2 1126   0.368   4.627   2.247
  388TIP3   OH2 1127   4.704   5.924   1.523
  388TIP3    H1 1128   4.645   5.998   1.534
  388TIP3    H2 1129   4.727   5.924   1.430
  389TIP3   OH2 1130   0.692   6.359   2.682
  389TIP3    H1 1131   0.702   6.265   2.666
  389TIP3    H2 1132   0.669   6.365   2.775
  390TIP3   OH2 1133   0.240   3.268   3.968
  390TIP3    H1 1134   0.173   3.331   3.940
  390TIP3    H2 1135   0.316   3.289   3.913
  391TIP3   OH2 1136   2.812   2.195   0.567
  391TIP3    H1 1137   2.798   2.194   0.662
  391TIP3    H2 1138   2.765   2.117   0.536
  392TIP3   OH2 1139   1.607   6.278   3.690
  392TIP3    H1 1140   1.541   6.308   3.628
  392TIP3    H2 1141   1.661   6.355   3.707
  393TIP3   OH2 1142   4.299   3.867   3.926
  393TIP3    H1 1143   4.217   3.849   3.880
  393TIP3    H2 1144   4.349   3.922   3.866
  394TIP3   OH2 1145   6.705   5.359   5.753
  394TIP3    H1 1146   6.679   5.361   5.846
  394TIP3    H2 1147   6.707   5.266   5.731
  395TIP3   OH2 1148   6.737   0.971   1.321
  395TIP3    H1 1149   6.832   0.967   1.310
  395TIP3    H2 1150   6.703   0.925   1.244
  396TIP3   OH2 1151   2.248   4.034   4.602
  396TIP3    H1 1152   2.312   3.964   4.588
  396TIP3    H2 1153   2.205   4.045   4.518
  397TIP3   OH2 1154   1.274   0.620   4.590
  397TIP3    H1 1155   1.305   0.540   4.634
  397TIP3    H2 1156   1.182   0.628   4.618
  398TIP3   OH2 1157   2.991   2.343   5.231
  398TIP3    H1 1158   3.069   2.327   5.179
  398TIP3    H2 1159   2.953   2.256   5.245
  399TIP3   OH2 1160   4.937   5.650   2.835
  399TIP3    H1 1161   5.030   5.628   2.840
  399TIP3    H2 1162   4.932   5.719   2.769
  400TIP3   OH2 1163   4.576   1.844   3.325
  400TIP3    H1 1164   4.645   1.782   3.351
  400TIP3    H2 1165   4.551   1.817   3.237
  401TIP3   OH2 1166   2.945   1.286   2.537
  401TIP3    H1 1167   2.942   1.234   2.617
  401TIP3    H2 1168   2.852   1.302   2.517
  402TIP3   OH2 1169   0.850   5.613   1.290
  402TIP3    H1 1170   0.931   5.652   1.256
  402TIP3    H2 1171   0.832   5.540   1.231
  403TIP3   OH2 1172   1.994   4.205   5.475
  403TIP3    H1 1173   2.047   4.282   5.495
  403TIP3    H2 1174   1.905   4.239   5.464
  404TIP3   OH2 1175   6.989   2.607   3.270
  404TIP3    H1 1176   6.910   2.645   3.232
  404TIP3    H2 1177   7.061   2.645   3.220
  405TIP3   OH2 1178   5.124   3.047   1.486
  405TIP3    H1 1179   5.187   3.100   1.535
  405TIP3    H2 1180   5.132   3.078   1.396
  406TIP3   OH2 1181   7.128   2.543   5.379
  406TIP3    H1 1182   7.211   2.520   5.338
  406TIP3    H2 1183   7.144   2.628   5.420
  407TIP3   OH2 1184   3.487   5.917   3.752
  407TIP3    H1 1185   3.459   6.009   3.745
  407TIP3    H2 1186   3.478   5.882   3.663
  408TIP3   OH2 1187   4.080   4.091   3.082
  408TIP3    H1 1188   4.017   4.084   3.010
  408TIP3    H2 1189   4.053   4.022   3.143
  409TIP3   OH2 1190   7.093   3.628   5.844
  409TIP3    H1 1191   7.174   3.619   5.894
  409TIP3    H2 1192   7.066   3.719   5.856
  410TIP3   OH2 1193   0.737   2.855   0.443
  410TIP3    H1 1194   0.748   2.777   0.496
  410TIP3    H2 1195   0.765   2.927   0.500
  411TIP3   OH2 1196   5.519   3.078   5.875
  411TIP3    H1 1197   5.489   2.992   5.845
  411TIP3    H2 1198   5.493   3.138   5.804
  412TIP3   OH2 1199   5.843   3.839   4.487
  412TIP3    H1 1200   5.786   3.881   4.422
  412TIP3    H2 1201   5.858   3.751   4.452
  413TIP3   OH2 1202   0.258   2.530   1.913
  413TIP3    H1 1203   0.190   2.535   1.846
  413TIP3    H2 1204   0.214   2.556   1.994
  414TIP3   OH2 1205   3.295   2.831   1.021
  414TIP3    H1 1206   3.360   2.764   1.040
  414TIP3    H2 1207   3.344   2.900   0.977
  415TIP3   OH2 1208   4.441   2.694   2.179
  415TIP3    H1 1209   4.433   2.788   2.161
  415TIP3    H2 1210   4.467   2.656   2.096
  416TIP3   OH2 1211   5.625   2.137   0.671
  416TIP3    H1 1212   5.694   2.155   0.607
  416TIP3    H2 1213   5.619   2.042   0.674
  417TIP3   OH2 1214   1.680   4.609   0.572
  417TIP3    H1 1215   1.673   4.600   0.477
  417TIP3    H2 1216   1.718   4.526   0.602
  418TIP3   OH2 1217   3.142   2.184   4.298
  418TIP3    H1 1218   3.088   2.222   4.229
  418TIP3    H2 1219   3.080   2.141   4.357
  419TIP3   OH2 1220   5.949   5.962   1.312
  419TIP3    H1 1221   6.019   6.026   1.325
  419TIP3    H2 1222   5.994   5.881   1.289
  420TIP3   OH2 1223   6.102   1.152   3.852
  420TIP3    H1 1224   6.024   1.102   3.876
  420TIP3    H2 1225   6.087   1.239   3.890
  421TIP3   OH2 1226   5.423   1.656   3.826
  421TIP3    H1 1227   5.348   1.699   3.786
  421TIP3    H2 1228   5.487   1.727   3.839
  422TIP3   OH2 1229   6.100   5.077   0.704
  422TIP3    H1 1230   6.118   5.153   0.648
  422TIP3    H2 1231   6.169   5.079   0.770
  423TIP3   OH2 1232   5.913   1.292   1.501
  423TIP3    H1 1233   5.828   1.300   1.457
  423TIP3    H2 1234   5.921   1.198   1.519
  424TIP3   OH2 1235   3.204   3.433   5.185
  424TIP3    H1 1236   3.282   3.431   5.129
  424TIP3    H2 1237   3.170   3.522   5.176
  425TIP3   OH2 1238   0.770   1.538   5.114
  425TIP3    H1 1239   0.825   1.603   5.159
  425TIP3    H2 1240   0.692   1.586   5.088
  426TIP3   OH2 1241   4.511   6.509   3.248
  426TIP3    H1 1242   4.497   6.571   3.320
  426TIP3    H2 1243   4.513   6.423   3.291
  427TIP3   OH2 1244   6.617   3.827   3.865
  427TIP3    H1 1245   6.599   3.837   3.959
  427TIP3    H2 1246   6.587   3.908   3.826
  428TIP3   OH2 1247   2.544   6.597   3.247
  428TIP3    H1 1248   2.555   6.664   3.180
  428TIP3    H2 1249   2.562   6.515   3.202
  429TIP3   OH2 1250   4.246   6.301   2.115
  429TIP3    H1 1251   4.193   6.290   2.194
  429TIP3    H2 1252   4.185   6.293   2.042
  430TIP3   OH2 1253   0.361   3.448   0.805
  430TIP3    H1 1254   0.362   3.387   0.879
  430TIP3    H2 1255   0.368   3.535   0.845
  431TIP3   OH2 1256   1.219   3.239   0.316
  431TIP3    H1 1257   1.134   3.198   0.331
  431TIP3    H2 1258   1.274   3.169   0.281
  432TIP3   OH2 1259   5.834   6.599   3.129
  432TIP3    H1 1260   5.909   6.598   3.070
  432TIP3    H2 1261   5.777   6.667   3.093
  433TIP3   OH2 1262   0.688   4.342   5.348
  433TIP3    H1 1263   0.650   4.294   5.274
  433TIP3    H2 1264   0.711   4.273   5.411
  434TIP3   OH2 1265   4.513   2.389   0.356
  434TIP3    H1 1266   4.437   2.354   0.403
  434TIP3    H2 1267   4.502   2.360   0.266
  435TIP3   OH2 1268   1.673   4.964   5.433
  435TIP3    H1 1269   1.738   5.027   5.402
  435TIP3    H2 1270   1.628   5.010   5.504
  436TIP3   OH2 1271   5.826   2.098   4.782
  436TIP3    H1 1272   5.801   2.141   4.701
  436TIP3    H2 1273   5.862   2.013   4.755
  437TIP3   OH2 1274   1.880   1.722   4.900
  437TIP3    H1 1275   1.876   1.739   4.994
  437TIP3    H2 1276   1.972   1.734   4.877
  438TIP3   OH2 1277   2.443   0.494   0.392
  438TIP3    H1 1278   2.480   0.482   0.304
  438TIP3    H2 1279   2.488   0.429   0.446
  439TIP3   OH2 1280   6.933   6.295   4.630
  439TIP3    H1 1281   6.962   6.373   4.581
  439TIP3    H2 1282   6.868   6.254   4.574
  440TIP3   OH2 1283   5.124   6.420   4.777
  440TIP3    H1 1284   5.213   6.453   4.789
  440TIP3    H2 1285   5.085   6.478   4.712
  441TIP3   OH2 1286   0.435   3.739   4.354
  441TIP3    H1 1287   0.411   3.647   4.357
  441TIP3    H2 1288   0.437   3.767   4.445
  442TIP3   OH2 1289   5.788   5.776   4.706
  442TIP3    H1 1290   5.712   5.782   4.764
  442TIP3    H2 1291   5.855   5.733   4.758
  443TIP3   OH2 1292   5.256   4.249   4.194
  443TIP3    H1 1293   5.267   4.286   4.106
  443TIP3    H2 1294   5.172   4.203   4.190
  444TIP3   OH2 1295   4.821   4.846   1.810
  444TIP3    H1 1296   4.766   4.913   1.770
  444TIP3    H2 1297   4.809   4.768   1.755
  445TIP3   OH2 1298   7.112   1.073   2.434
  445TIP3    H1 1299   7.179   1.069   2.367
  445TIP3    H2 1300   7.157   1.109   2.511
  446TIP3   OH2 1301   1.572   0.060   4.467
  446TIP3    H1 1302   1.505   0.024   4.409
  446TIP3    H2 1303   1.572   0.154   4.449
  447TIP3   OH2 1304   5.602   2.551   4.073
  447TIP3    H1 1305   5.587   2.457   4.075
  447TIP3    H2 1306   5.570   2.583   4.158
  448TIP3   OH2 1307   6.943   5.087   2.406
  448TIP3    H1 1308   6.912   5.075   2.496
  448TIP3    H2 1309   6.866   5.074   2.352
  449TIP3   OH2 1310   3.060   4.513   0.465
  449TIP3    H1 1311   3.116   4.583   0.497
  449TIP3    H2 1312   2.982   4.557   0.431
  450TIP3   OH2 1313   6.514   3.857   4.152
  450TIP3    H1 1314   6.487   3.781   4.203
  450TIP3    H2 1315   6.432   3.895   4.120
  451TIP3   OH2 1316   2.887   4.163   4.575
  451TIP3    H1 1317   2.914   4.137   4.663
  451TIP3    H2 1318   2.967   4.197   4.534
  452TIP3   OH2 1319   0.570   5.964   5.056
  452TIP3    H1 1320   0.517   5.886   5.037
  452TIP3    H2 1321   0.515   6.016   5.114
  453TIP3   OH2 1322   1.331   3.423   5.296
  453TIP3    H1 1323   1.344   3.382   5.382
  453TIP3    H2 1324   1.415   3.413   5.252
  454TIP3   OH2 1325   4.249   5.088   4.993
  454TIP3    H1 1326   4.276   5.180   4.984
  454TIP3    H2 1327   4.328   5.043   5.023
  455TIP3   OH2 1328   1.558   6.549   0.321
  455TIP3    H1 1329   1.625   6.545   0.390
  455TIP3    H2 1330   1.559   6.640   0.292
  456TIP3   OH2 1331   6.516   0.891   3.016
  456TIP3    H1 1332   6.607   0.861   3.015
  456TIP3    H2 1333   6.506   0.934   3.101
  457TIP3   OH2 1334   2.683   3.858   2.097
  457TIP3    H1 1335   2.621   3.785   2.091
  457TIP3    H2 1336   2.661   3.914   2.022
  458TIP3   OH2 1337   4.391   3.148   1.194
  458TIP3    H1 1338   4.297   3.148   1.176
  458TIP3    H2 1339   4.399   3.181   1.283
  459TIP3   OH2 1340   6.434   0.223   4.901
  459TIP3    H1 1341   6.414   0.306   4.858
  459TIP3    H2 1342   6.516   0.194   4.862
  460TIP3   OH2 1343   1.290   3.843   5.725
  460TIP3    H1 1344   1.335   3.770   5.768
  460TIP3    H2 1345   1.296   3.823   5.632
  461TIP3   OH2 1346   1.770   5.997   0.336
  461TIP3    H1 1347   1.791   5.963   0.424
  461TIP3    H2 1348   1.808   6.085   0.335
  462TIP3   OH2 1349   5.167   6.353   5.096
  462TIP3    H1 1350   5.157   6.356   5.001
  462TIP3    H2 1351   5.142   6.263   5.120
  463TIP3   OH2 1352   4.665   6.750   1.784
  463TIP3    H1 1353   4.687   6.803   1.707
  463TIP3    H2 1354   4.728   6.678   1.783
  464TIP3   OH2 1355   0.924   6.576   3.991
  464TIP3    H1 1356   0.891   6.599   4.078
  464TIP3    H2 1357   0.976   6.652   3.965
  465TIP3   OH2 1358   5.052   6.635   3.872
  465TIP3    H1 1359   5.015   6.709   3.824
  465TIP3    H2 1360   5.146   6.642   3.859
  466TIP3   OH2 1361   2.329   5.728   5.593
  466TIP3    H1 1362   2.262   5.739   5.526
  466TIP3    H2 1363   2.372   5.646   5.570
  467TIP3   OH2 1364   6.609   2.098   1.069
  467TIP3    H1 1365   6.686   2.043   1.083
  467TIP3    H2 1366   6.600   2.105   0.974
  468TIP3   OH2 1367   5.653   6.195   4.290
  468TIP3    H1 1368   5.703   6.152   4.360
  468TIP3    H2 1369   5.704   6.179   4.211
  469TIP3   OH2 1370   4.246   2.184   4.512
  469TIP3    H1 1371   4.271   2.092   4.501
  469TIP3    H2 1372   4.190   2.184   4.590
  470TIP3   OH2 1373   1.779   3.330   3.699
  470TIP3    H1 1374   1.855   3.385   3.684
  470TIP3    H2 1375   1.748   3.306   3.612
  471TIP3   OH2 1376   5.640   1.679   2.138
  471TIP3    H1 1377   5.706   1.717   2.196
  471TIP3    H2 1378   5.691   1.643   2.065
  472TIP3   OH2 1379   6.511   3.095   5.001
  472TIP3    H1 1380   6.502   3.002   5.021
  472TIP3    H2 1381   6.484   3.103   4.910
  473TIP3   OH2 1382   5.893   1.743   0.152
  473TIP3    H1 1383   5.879   1.710   0.063
  473TIP3    H2 1384   5.927   1.832   0.141
  474TIP3   OH2 1385   3.731   0.015   0.975
  474TIP3    H1 1386   3.790   0.052   1.041
  474TIP3    H2 1387   3.778  -0.061   0.941
  475TIP3   OH2 1388   3.501   2.889   0.387
  475TIP3    H1 1389   3.436   2.921   0.325
  475TIP3    H2 1390   3.537   2.969   0.426
  476TIP3   OH2 1391   4.264   6.762   2.677
  476TIP3    H1 1392   4.262   6.832   2.612
  476TIP3    H2 1393   4.282   6.683   2.626
  477TIP3   OH2 1394   6.829   3.494   2.227
  477TIP3    H1 1395   6.900   3.558   2.219
  477TIP3    H2 1396   6.818   3.459   2.139
  478TIP3   OH2 1397   1.902   6.547   3.053
  478TIP3    H1 1398   1.909   6.583   3.141
  478TIP3    H2 1399   1.810   6.559   3.029
  479TIP3   OH2 1400   0.392   2.103   0.284
  479TIP3    H1 1401   0.397   2.190   0.324
  479TIP3    H2 1402   0.449   2.109   0.207
  480TIP3   OH2 1403   0.581   4.842   0.385
  480TIP3    H1 1404   0.499   4.846   0.336
  480TIP3    H2 1405   0.641   4.899   0.336
  481TIP3   OH2 1406   4.102   1.454   3.462
  481TIP3    H1 1407   4.190   1.461   3.427
  481TIP3    H2 1408   4.101   1.372   3.510
  482TIP3   OH2 1409   5.041   2.149   2.492
  482TIP3    H1 1410   5.058   2.217   2.427
  482TIP3    H2 1411   5.128   2.126   2.526
  483TIP3   OH2 1412   6.973   4.001   2.370
  483TIP3    H1 1413   6.939   4.084   2.338
  483TIP3    H2 1414   6.980   3.946   2.292
  484TIP3   OH2 1415   6.130   3.312   4.737
  484TIP3    H1 1416   6.150   3.344   4.650
  484TIP3    H2 1417   6.165   3.223   4.739
  485TIP3   OH2 1418   4.048   0.994   5.267
  485TIP3    H1 1419   3.960   0.991   5.304
  485TIP3    H2 1420   4.102   1.031   5.336
  486TIP3   OH2 1421   6.230   5.835   4.878
  486TIP3    H1 1422   6.155   5.826   4.937
  486TIP3    H2 1423   6.271   5.918   4.903
  487TIP3   OH2 1424   3.923   5.215   2.938
  487TIP3    H1 1425   3.951   5.134   2.981
  487TIP3    H2 1426   3.829   5.220   2.954
  488TIP3   OH2 1427   2.528   2.439   3.489
  488TIP3    H1 1428   2.574   2.355   3.485
  488TIP3    H2 1429   2.542   2.479   3.403
  489TIP3   OH2 1430   4.537   2.604   4.559
  489TIP3    H1 1431   4.531   2.573   4.650
  489TIP3    H2 1432   4.517   2.527   4.506
  490TIP3   OH2 1433   4.399   0.633   1.500
  490TIP3    H1 1434   4.334   0.675   1.557
  490TIP3    H2 1435   4.411   0.695   1.428
  491TIP3   OH2 1436   5.371   0.136   1.942
  491TIP3    H1 1437   5.346   0.095   1.860
  491TIP3    H2 1438   5.465   0.155   1.933
  492TIP3   OH2 1439   1.328   4.547   5.503
  492TIP3    H1 1440   1.415   4.538   5.464
  492TIP3    H2 1441   1.331   4.628   5.553
  493TIP3   OH2 1442   2.922   2.934   5.177
  493TIP3    H1 1443   2.830   2.948   5.198
  493TIP3    H2 1444   2.963   3.020   5.190
  494TIP3   OH2 1445   5.303   5.614   5.464
  494TIP3    H1 1446   5.392   5.610   5.429
  494TIP3    H2 1447   5.315   5.635   5.557
  495TIP3   OH2 1448   2.073   2.182   0.821
  495TIP3    H1 1449   2.161   2.160   0.850
  495TIP3    H2 1450   2.078   2.182   0.725
  496TIP3   OH2 1451   6.037   6.088   2.494
  496TIP3    H1 1452   5.986   6.008   2.501
  496TIP3    H2 1453   6.110   6.076   2.555
  497TIP3   OH2 1454   0.532   5.144   1.987
  497TIP3    H1 1455   0.495   5.110   2.069
  497TIP3    H2 1456   0.530   5.069   1.927
  498TIP3   OH2 1457   1.087   6.212   3.125
  498TIP3    H1 1458   1.130   6.127   3.141
  498TIP3    H2 1459   1.009   6.209   3.180
  499TIP3   OH2 1460   1.691   3.562   1.368
  499TIP3    H1 1461   1.685   3.467   1.367
  499TIP3    H2 1462   1.746   3.583   1.292
  500TIP3   OH2 1463   1.683   1.392   5.389
  500TIP3    H1 1464   1.637   1.308   5.386
  500TIP3    H2 1465   1.765   1.372   5.434
  501TIP3   OH2 1466   3.332   1.019   2.980
  501TIP3    H1 1467   3.389   0.979   2.914
  501TIP3    H2 1468   3.377   1.002   3.063
  502TIP3   OH2 1469   1.234   3.854   1.102
  502TIP3    H1 1470   1.281   3.806   1.170
  502TIP3    H2 1471   1.164   3.795   1.075
  503TIP3   OH2 1472   1.634   2.759   2.527
  503TIP3    H1 1473   1.546   2.795   2.512
  503TIP3    H2 1474   1.692   2.836   2.523
  504TIP3   OH2 1475   5.886   2.780   1.932
  504TIP3    H1 1476   5.923   2.699   1.965
  504TIP3    H2 1477   5.802   2.755   1.895
  505TIP3   OH2 1478   2.922   2.124   1.961
  505TIP3    H1 1479   2.874   2.044   1.940
  505TIP3    H2 1480   2.884   2.153   2.045
  506TIP3   OH2 1481   4.989   1.324   0.718
  506TIP3    H1 1482   4.917   1.318   0.654
  506TIP3    H2 1483   4.955   1.381   0.787
  507TIP3   OH2 1484   2.384   2.993   2.505
  507TIP3    H1 1485   2.323   3.040   2.448
  507TIP3    H2 1486   2.471   3.018   2.473
  508TIP3   OH2 1487   1.925   0.518   5.082
  508TIP3    H1 1488   1.861   0.549   5.018
  508TIP3    H2 1489   1.983   0.592   5.096
  509TIP3   OH2 1490   1.662   5.970   0.066
  509TIP3    H1 1491   1.631   6.054   0.033
  509TIP3    H2 1492   1.711   5.992   0.145
  510TIP3   OH2 1493   5.556   6.668   0.177
  510TIP3    H1 1494   5.519   6.590   0.136
  510TIP3    H2 1495   5.614   6.705   0.111
  511TIP3   OH2 1496   3.636   4.728   3.233
  511TIP3    H1 1497   3.689   4.648   3.229
  511TIP3    H2 1498   3.602   4.730   3.322
  512TIP3   OH2 1499   3.065   3.446   3.253
  512TIP3    H1 1500   3.049   3.386   3.179
  512TIP3    H2 1501   3.077   3.531   3.212
  513TIP3   OH2 1502   0.488   5.054   4.625
  513TIP3    H1 1503   0.444   4.998   4.689
  513TIP3    H2 1504   0.553   4.998   4.583
  514TIP3   OH2 1505   3.815   2.863   3.409
  514TIP3    H1 1506   3.845   2.813   3.333
  514TIP3    H2 1507   3.896   2.894   3.450
  515TIP3   OH2 1508   5.713   4.394   4.191
  515TIP3    H1 1509   5.768   4.317   4.208
  515TIP3    H2 1510   5.671   4.376   4.108
  516TIP3   OH2 1511   5.623   0.523   1.011
  516TIP3    H1 1512   5.717   0.533   0.992
  516TIP3    H2 1513   5.592   0.613   1.026
  517TIP3   OH2 1514   0.692   4.561   1.262
  517TIP3    H1 1515   0.622   4.626   1.255
  517TIP3    H2 1516   0.649   4.482   1.293
  518TIP3   OH2 1517   3.322   0.415   1.822
  518TIP3    H1 1518   3.250   0.474   1.798
  518TIP3    H2 1519   3.399   0.471   1.824
  519TIP3   OH2 1520   5.852   0.577   4.370
  519TIP3    H1 1521   5.947   0.561   4.363
  519TIP3    H2 1522   5.824   0.525   4.444
  520TIP3   OH2 1523   1.545   0.998   2.480
  520TIP3    H1 1524   1.517   1.017   2.570
  520TIP3    H2 1525   1.532   1.080   2.433
  521TIP3   OH2 1526   0.486   3.997   0.729
  521TIP3    H1 1527   0.492   3.902   0.719
  521TIP3    H2 1528   0.393   4.016   0.716
  522TIP3   OH2 1529   5.531   2.455   1.578
  522TIP3    H1 1530   5.464   2.514   1.613
  522TIP3    H2 1531   5.561   2.404   1.653
  523TIP3   OH2 1532   5.545   2.107   5.067
  523TIP3    H1 1533   5.525   2.167   4.995
  523TIP3    H2 1534   5.639   2.117   5.081
  524TIP3   OH2 1535   3.391   6.294   1.080
  524TIP3    H1 1536   3.331   6.363   1.110
  524TIP3    H2 1537   3.408   6.241   1.158
  525TIP3   OH2 1538   1.653   4.270   1.467
  525TIP3    H1 1539   1.615   4.210   1.531
  525TIP3    H2 1540   1.744   4.279   1.493
  526TIP3   OH2 1541   3.612   6.554   1.041
  526TIP3    H1 1542   3.524   6.529   1.012
  526TIP3    H2 1543   3.668   6.537   0.966
  527TIP3   OH2 1544   2.918   5.066   2.226
  527TIP3    H1 1545   2.896   4.987   2.176
  527TIP3    H2 1546   2.910   5.039   2.317
  528TIP3   OH2 1547   0.720   1.776   0.188
  528TIP3    H1 1548   0.785   1.752   0.254
  528TIP3    H2 1549   0.753   1.857   0.150
  529TIP3   OH2 1550   3.222   4.619   3.398
  529TIP3    H1 1551   3.231   4.600   3.491
  529TIP3    H2 1552   3.140   4.578   3.372
  530TIP3   OH2 1553   3.729   6.519   5.538
  530TIP3    H1 1554   3.645   6.554   5.507
  530TIP3    H2 1555   3.764   6.472   5.462
  531TIP3   OH2 1556   0.592   0.256   5.886
  531TIP3    H1 1557   0.564   0.334   5.838
  531TIP3    H2 1558   0.511   0.217   5.918
  532TIP3   OH2 1559   5.797   3.310   5.539
  532TIP3    H1 1560   5.718   3.349   5.500
  532TIP3    H2 1561   5.773   3.219   5.556
  533TIP3   OH2 1562   3.925   2.760   3.963
  533TIP3    H1 1563   3.857   2.776   4.028
  533TIP3    H2 1564   3.907   2.822   3.893
  534TIP3   OH2 1565   3.883   5.544   3.741
  534TIP3    H1 1566   3.972   5.552   3.774
  534TIP3    H2 1567   3.828   5.576   3.812
  535TIP3   OH2 1568   2.908   2.849   4.449
  535TIP3    H1 1569   2.877   2.779   4.505
  535TIP3    H2 1570   2.829   2.897   4.423
  536TIP3   OH2 1571   0.568   0.109   0.643
  536TIP3    H1 1572   0.566   0.168   0.568
  536TIP3    H2 1573   0.569   0.167   0.719
  537TIP3   OH2 1574   6.944   4.703   0.410
  537TIP3    H1 1575   7.017   4.642   0.396
  537TIP3    H2 1576   6.865   4.648   0.400
  538TIP3   OH2 1577   5.986   5.718   4.112
  538TIP3    H1 1578   6.043   5.794   4.101
  538TIP3    H2 1579   6.005   5.686   4.200
  539TIP3   OH2 1580   2.428   3.206   3.493
  539TIP3    H1 1581   2.345   3.254   3.489
  539TIP3    H2 1582   2.405   3.116   3.469
  540TIP3   OH2 1583   2.055   6.067   3.147
  540TIP3    H1 1584   2.080   6.159   3.139
  540TIP3    H2 1585   2.040   6.054   3.241
  541TIP3   OH2 1586   4.050   0.466   5.561
  541TIP3    H1 1587   3.955   0.465   5.555
  541TIP3    H2 1588   4.071   0.415   5.639
  542TIP3   OH2 1589   3.134   1.662   5.250
  542TIP3    H1 1590   3.133   1.745   5.204
  542TIP3    H2 1591   3.044   1.650   5.281
  543TIP3   OH2 1592   0.774   0.570   5.373
  543TIP3    H1 1593   0.696   0.610   5.412
  543TIP3    H2 1594   0.807   0.512   5.441
  544TIP3   OH2 1595   0.964   4.456   4.986
  544TIP3    H1 1596   0.938   4.425   4.899
  544TIP3    H2 1597   1.046   4.504   4.971
  545TIP3   OH2 1598   2.542   2.668   2.523
  545TIP3    H1 1599   2.602   2.724   2.474
  545TIP3    H2 1600   2.511   2.604   2.459
  546TIP3   OH2 1601   4.532   6.760   2.856
  546TIP3    H1 1602   4.551   6.681   2.805
  546TIP3    H2 1603   4.441   6.780   2.835
  547TIP3   OH2 1604   1.849   5.862   1.080
  547TIP3    H1 1605   1.834   5.810   1.159
  547TIP3    H2 1606   1.836   5.800   1.008
  548TIP3   OH2 1607   3.607   3.669   5.630
  548TIP3    H1 1608   3.658   3.633   5.703
  548TIP3    H2 1609   3.519   3.632   5.641
  549TIP3   OH2 1610   4.975   6.556   4.553
  549TIP3    H1 1611   4.896   6.548   4.607
  549TIP3    H2 1612   4.942   6.581   4.466
  550TIP3   OH2 1613   0.644   2.471   1.693
  550TIP3    H1 1614   0.596   2.549   1.720
  550TIP3    H2 1615   0.664   2.485   1.601
  551TIP3   OH2 1616   0.837   5.074   3.246
  551TIP3    H1 1617   0.802   5.041   3.329
  551TIP3    H2 1618   0.836   4.997   3.189
  552TIP3   OH2 1619   2.357   2.806   2.691
  552TIP3    H1 1620   2.366   2.872   2.623
  552TIP3    H2 1621   2.420   2.738   2.666
  553TIP3   OH2 1622   0.664   4.732   1.530
  553TIP3    H1 1623   0.578   4.734   1.487
  553TIP3    H2 1624   0.664   4.650   1.580
  554TIP3   OH2 1625   0.771   4.657   0.259
  554TIP3    H1 1626   0.741   4.712   0.332
  554TIP3    H2 1627   0.707   4.674   0.189
  555TIP3   OH2 1628   6.364   0.617   3.185
  555TIP3    H1 1629   6.361   0.698   3.134
  555TIP3    H2 1630   6.454   0.585   3.174
  556TIP3   OH2 1631   1.765   1.160   3.259
  556TIP3    H1 1632   1.759   1.183   3.351
  556TIP3    H2 1633   1.674   1.151   3.230
  557TIP3   OH2 1634   4.167   5.442   4.525
  557TIP3    H1 1635   4.175   5.536   4.540
  557TIP3    H2 1636   4.221   5.425   4.448
  558TIP3   OH2 1637   3.929   6.266   2.488
  558TIP3    H1 1638   3.915   6.359   2.509
  558TIP3    H2 1639   3.851   6.242   2.437
  559TIP3   OH2 1640   0.856   4.882   5.848
  559TIP3    H1 1641   0.844   4.800   5.800
  559TIP3    H2 1642   0.788   4.882   5.915
  560TIP3   OH2 1643   3.745   2.096   5.290
  560TIP3    H1 1644   3.683   2.147   5.343
  560TIP3    H2 1645   3.696   2.017   5.267
  561TIP3   OH2 1646   2.319   3.962   4.071
  561TIP3    H1 1647   2.408   3.979   4.038
  561TIP3    H2 1648   2.276   3.915   4.000
  562TIP3   OH2 1649   0.012   0.353   0.519
  562TIP3    H1 1650   0.056   0.270   0.534
  562TIP3    H2 1651  -0.009   0.385   0.608
  563TIP3   OH2 1652   1.291   5.377   1.288
  563TIP3    H1 1653   1.386   5.383   1.304
  563TIP3    H2 1654   1.285   5.332   1.204
  564TIP3   OH2 1655   1.511   5.096   5.605
  564TIP3    H1 1656   1.446   5.059   5.664
  564TIP3    H2 1657   1.497   5.191   5.610
  565TIP3   OH2 1658   2.873   0.625   5.093
  565TIP3    H1 1659   2.838   0.581   5.016
  565TIP3    H2 1660   2.814   0.599   5.164
  566TIP3   OH2 1661   2.811   6.661   2.529
  566TIP3    H1 1662   2.778   6.602   2.596
  566TIP3    H2 1663   2.761   6.742   2.540
  567TIP3   OH2 1664   1.835   2.149   5.098
  567TIP3    H1 1665   1.900   2.153   5.168
  567TIP3    H2 1666   1.820   2.055   5.084
  568TIP3   OH2 1667   3.704   3.671   0.844
  568TIP3    H1 1668   3.654   3.729   0.901
  568TIP3    H2 1669   3.795   3.691   0.863
  569TIP3   OH2 1670   1.090   0.135   4.072
  569TIP3    H1 1671   1.011   0.149   4.021
  569TIP3    H2 1672   1.151   0.092   4.012
  570TIP3   OH2 1673   6.060   5.754   1.921
  570TIP3    H1 1674   6.147   5.793   1.912
  570TIP3    H2 1675   6.077   5.662   1.944
  571TIP3   OH2 1676   3.069   3.802   1.243
  571TIP3    H1 1677   3.119   3.736   1.195
  571TIP3    H2 1678   3.111   3.885   1.219
  572TIP3   OH2 1679   1.860   4.682   2.819
  572TIP3    H1 1680   1.929   4.702   2.882
  572TIP3    H2 1681   1.778   4.705   2.864
  573TIP3   OH2 1682   0.544   1.175   4.387
  573TIP3    H1 1683   0.492   1.102   4.422
  573TIP3    H2 1684   0.619   1.133   4.346
  574TIP3   OH2 1685   7.131   3.440   4.500
  574TIP3    H1 1686   7.218   3.404   4.479
  574TIP3    H2 1687   7.143   3.484   4.584
  575TIP3   OH2 1688   4.154   2.551   3.621
  575TIP3    H1 1689   4.185   2.641   3.630
  575TIP3    H2 1690   4.177   2.526   3.531
  576TIP3   OH2 1691   4.145   4.386   4.826
  576TIP3    H1 1692   4.100   4.312   4.866
  576TIP3    H2 1693   4.152   4.451   4.896
  577TIP3   OH2 1694   5.965   3.227   2.056
  577TIP3    H1 1695   5.936   3.254   1.969
  577TIP3    H2 1696   5.922   3.142   2.069
  578TIP3   OH2 1697   1.498   3.700   0.125
  578TIP3    H1 1698   1.465   3.615   0.152
  578TIP3    H2 1699   1.482   3.703   0.031
  579TIP3   OH2 1700   2.176   4.482   2.497
  579TIP3    H1 1701   2.163   4.562   2.548
  579TIP3    H2 1702   2.242   4.433   2.547
  580TIP3   OH2 1703   3.028  -0.009   4.283
  580TIP3    H1 1704   3.034   0.086   4.268
  580TIP3    H2 1705   3.112  -0.043   4.253
  581TIP3   OH2 1706   1.432   4.567   3.218
  581TIP3    H1 1707   1.505   4.626   3.197
  581TIP3    H2 1708   1.370   4.623   3.264
  582TIP3   OH2 1709   3.281   5.206   3.331
  582TIP3    H1 1710   3.215   5.269   3.301
  582TIP3    H2 1711   3.364   5.249   3.312
  583TIP3   OH2 1712   6.667   6.308   5.411
  583TIP3    H1 1713   6.758   6.327   5.432
  583TIP3    H2 1714   6.643   6.235   5.468
  584TIP3   OH2 1715   2.046   3.446   3.719
  584TIP3    H1 1716   2.086   3.449   3.633
  584TIP3    H2 1717   2.116   3.418   3.778
  585TIP3   OH2 1718   5.444   1.674   5.431
  585TIP3    H1 1719   5.457   1.713   5.345
  585TIP3    H2 1720   5.350   1.680   5.446
  586TIP3   OH2 1721   0.841   3.665   5.560
  586TIP3    H1 1722   0.812   3.575   5.550
  586TIP3    H2 1723   0.773   3.717   5.517
  587TIP3   OH2 1724   1.492   4.150   3.015
  587TIP3    H1 1725   1.578   4.133   3.054
  587TIP3    H2 1726   1.486   4.246   3.012
  588TIP3   OH2 1727   4.926   2.852   1.252
  588TIP3    H1 1728   5.017   2.825   1.266
  588TIP3    H2 1729   4.875   2.772   1.262
  589TIP3   OH2 1730   7.047   3.484   3.595
  589TIP3    H1 1731   7.063   3.578   3.605
  589TIP3    H2 1732   6.996   3.477   3.514
  590TIP3   OH2 1733   3.904   2.185   0.880
  590TIP3    H1 1734   3.830   2.152   0.931
  590TIP3    H2 1735   3.864   2.241   0.814
  591TIP3   OH2 1736   5.067   5.349   3.449
  591TIP3    H1 1737   5.006   5.415   3.481
  591TIP3    H2 1738   5.081   5.291   3.524
  592TIP3   OH2 1739   5.996   6.310   2.322
  592TIP3    H1 1740   5.950   6.371   2.380
  592TIP3    H2 1741   6.016   6.235   2.378
  593TIP3   OH2 1742   5.032   1.839   0.461
  593TIP3    H1 1743   5.006   1.759   0.414
  593TIP3    H2 1744   4.955   1.895   0.458
  594TIP3   OH2 1745   6.939   1.159   1.583
  594TIP3    H1 1746   6.979   1.101   1.647
  594TIP3    H2 1747   7.007   1.173   1.517
  595TIP3   OH2 1748   2.002   4.873   0.168
  595TIP3    H1 1749   2.032   4.893   0.079
  595TIP3    H2 1750   2.044   4.940   0.223
  596TIP3   OH2 1751   1.943   3.995   3.538
  596TIP3    H1 1752   2.001   3.970   3.466
  596TIP3    H2 1753   1.855   3.985   3.502
  597TIP3   OH2 1754   4.208   4.516   1.633
  597TIP3    H1 1755   4.200   4.566   1.714
  597TIP3    H2 1756   4.188   4.579   1.564
  598TIP3   OH2 1757   7.185   5.927   3.013
  598TIP3    H1 1758   7.247   5.912   2.942
  598TIP3    H2 1759   7.231   5.897   3.092
  599TIP3   OH2 1760   0.715   3.723   2.491
  599TIP3    H1 1761   0.683   3.796   2.543
  599TIP3    H2 1762   0.770   3.764   2.423
  600TIP3   OH2 1763   4.353   5.831   3.922
  600TIP3    H1 1764   4.264   5.846   3.888
  600TIP3    H2 1765   4.340   5.821   4.017
  601TIP3   OH2 1766   3.076   4.778   0.358
  601TIP3    H1 1767   2.995   4.822   0.381
  601TIP3    H2 1768   3.117   4.758   0.442
  602TIP3   OH2 1769   1.587   5.318   3.317
  602TIP3    H1 1770   1.682   5.315   3.326
  602TIP3    H2 1771   1.573   5.359   3.231
  603TIP3   OH2 1772   4.145   6.675   4.160
  603TIP3    H1 1773   4.051   6.691   4.151
  603TIP3    H2 1774   4.185   6.728   4.090
  604TIP3   OH2 1775   6.175   6.327   0.887
  604TIP3    H1 1776   6.167   6.361   0.798
  604TIP3    H2 1777   6.269   6.333   0.906
  605TIP3   OH2 1778   6.008   3.892   3.400
  605TIP3    H1 1779   5.975   3.895   3.310
  605TIP3    H2 1780   5.963   3.817   3.438
  606TIP3   OH2 1781   7.066   3.741   0.151
  606TIP3    H1 1782   7.024   3.727   0.236
  606TIP3    H2 1783   7.077   3.653   0.116
  607TIP3   OH2 1784   6.896   1.066   0.704
  607TIP3    H1 1785   6.907   1.045   0.611
  607TIP3    H2 1786   6.840   0.996   0.737
  608TIP3   OH2 1787   3.807   2.923   0.042
  608TIP3    H1 1788   3.798   2.852   0.106
  608TIP3    H2 1789   3.799   3.003   0.094
  609TIP3   OH2 1790   4.404   5.062   5.371
  609TIP3    H1 1791   4.388   5.153   5.347
  609TIP3    H2 1792   4.422   5.018   5.287
  610TIP3   OH2 1793   3.992   0.956   0.524
  610TIP3    H1 1794   3.938   1.018   0.572
  610TIP3    H2 1795   3.986   0.985   0.433
  611TIP3   OH2 1796   6.274   4.945   5.464
  611TIP3    H1 1797   6.199   4.901   5.503
  611TIP3    H2 1798   6.254   4.950   5.371
  612TIP3   OH2 1799   0.141   2.359   4.355
  612TIP3    H1 1800   0.053   2.340   4.389
  612TIP3    H2 1801   0.173   2.275   4.323
  613TIP3   OH2 1802   5.708   4.880   1.526
  613TIP3    H1 1803   5.653   4.842   1.458
  613TIP3    H2 1804   5.691   4.974   1.521
  614TIP3   OH2 1805   3.611   2.805   4.376
  614TIP3    H1 1806   3.540   2.745   4.355
  614TIP3    H2 1807   3.641   2.777   4.463
  615TIP3   OH2 1808   4.424   3.257   1.439
  615TIP3    H1 1809   4.430   3.230   1.530
  615TIP3    H2 1810   4.343   3.308   1.434
  616TIP3   OH2 1811   2.771   3.290   3.652
  616TIP3    H1 1812   2.762   3.216   3.592
  616TIP3    H2 1813   2.839   3.345   3.612
  617TIP3   OH2 1814   3.903   5.710   1.972
  617TIP3    H1 1815   3.911   5.652   2.047
  617TIP3    H2 1816   3.975   5.773   1.983
  618TIP3   OH2 1817   3.331   5.354   5.701
  618TIP3    H1 1818   3.238   5.371   5.719
  618TIP3    H2 1819   3.332   5.313   5.615
  619TIP3   OH2 1820   3.267   3.912   2.046
  619TIP3    H1 1821   3.249   3.855   2.120
  619TIP3    H2 1822   3.323   3.981   2.082
  620TIP3   OH2 1823   4.021   4.492   4.610
  620TIP3    H1 1824   4.054   4.446   4.687
  620TIP3    H2 1825   4.065   4.577   4.613
  621TIP3   OH2 1826   1.917   3.931   2.266
  621TIP3    H1 1827   1.954   3.921   2.354
  621TIP3    H2 1828   1.859   3.855   2.256
  622TIP3   OH2 1829   4.784   5.587   4.394
  622TIP3    H1 1830   4.864   5.564   4.346
  622TIP3    H2 1831   4.720   5.607   4.326
  623TIP3   OH2 1832   4.126   1.004   3.205
  623TIP3    H1 1833   4.127   1.044   3.292
  623TIP3    H2 1834   4.075   1.064   3.151
  624TIP3   OH2 1835   1.509   5.370   3.033
  624TIP3    H1 1836   1.518   5.454   2.987
  624TIP3    H2 1837   1.444   5.322   2.982
  625TIP3   OH2 1838   4.097   0.172   5.586
  625TIP3    H1 1839   4.174   0.228   5.596
  625TIP3    H2 1840   4.040   0.196   5.659
  626TIP3   OH2 1841   0.837   6.028   1.779
  626TIP3    H1 1842   0.923   6.068   1.764
  626TIP3    H2 1843   0.852   5.934   1.765
  627TIP3   OH2 1844   1.531   3.752   3.624
  627TIP3    H1 1845   1.541   3.814   3.552
  627TIP3    H2 1846   1.620   3.722   3.643
  628TIP3   OH2 1847   6.300   4.299   1.013
  628TIP3    H1 1848   6.394   4.305   0.997
  628TIP3    H2 1849   6.274   4.215   0.975
  629TIP3   OH2 1850   3.052   3.242   2.123
  629TIP3    H1 1851   2.993   3.267   2.052
  629TIP3    H2 1852   3.139   3.267   2.092
  630TIP3   OH2 1853   4.220   1.769   1.792
  630TIP3    H1 1854   4.198   1.763   1.699
  630TIP3    H2 1855   4.156   1.830   1.828
  631TIP3   OH2 1856   7.102   4.072   2.682
  631TIP3    H1 1857   7.127   4.050   2.772
  631TIP3    H2 1858   7.074   3.989   2.644
  632TIP3   OH2 1859   3.494   1.381   2.948
  632TIP3    H1 1860   3.500   1.469   2.984
  632TIP3    H2 1861   3.508   1.392   2.854
  633TIP3   OH2 1862   4.984   4.904   4.240
  633TIP3    H1 1863   4.928   4.981   4.229
  633TIP3    H2 1864   4.922   4.831   4.244
  634TIP3   OH2 1865   0.281   0.203   0.807
  634TIP3    H1 1866   0.299   0.293   0.781
  634TIP3    H2 1867   0.310   0.150   0.732
  635TIP3   OH2 1868   1.005   2.788   3.826
  635TIP3    H1 1869   0.940   2.761   3.890
  635TIP3    H2 1870   1.071   2.834   3.878
  636TIP3   OH2 1871   3.698   1.662   5.695
  636TIP3    H1 1872   3.632   1.600   5.727
  636TIP3    H2 1873   3.766   1.661   5.762
  637TIP3   OH2 1874   5.811   5.107   3.502
  637TIP3    H1 1875   5.809   5.015   3.528
  637TIP3    H2 1876   5.894   5.140   3.535
  638TIP3   OH2 1877   4.590   5.644   4.203
  638TIP3    H1 1878   4.495   5.660   4.203
  638TIP3    H2 1879   4.622   5.691   4.126
  639TIP3   OH2 1880   5.979   6.069   5.478
  639TIP3    H1 1881   5.891   6.085   5.511
  639TIP3    H2 1882   6.037   6.109   5.543
  640TIP3   OH2 1883   3.436   0.820   3.684
  640TIP3    H1 1884   3.479   0.880   3.622
  640TIP3    H2 1885   3.393   0.755   3.628
  641TIP3   OH2 1886   1.399   4.208   5.863
  641TIP3    H1 1887   1.323   4.149   5.861
  641TIP3    H2 1888   1.361   4.296   5.859
  642TIP3   OH2 1889   6.222   2.733   4.326
  642TIP3    H1 1890   6.255   2.685   4.403
  642TIP3    H2 1891   6.300   2.753   4.275
  643TIP3   OH2 1892   1.198   5.269   5.650
  643TIP3    H1 1893   1.193   5.363   5.665
  643TIP3    H2 1894   1.147   5.230   5.722
  644TIP3   OH2 1895   5.273   0.182   2.395
  644TIP3    H1 1896   5.262   0.128   2.317
  644TIP3    H2 1897   5.365   0.208   2.394
  645TIP3   OH2 1898   1.905   5.770   5.141
  645TIP3    H1 1899   1.930   5.853   5.101
  645TIP3    H2 1900   1.835   5.793   5.202
  646TIP3   OH2 1901   6.512   5.771   5.027
  646TIP3    H1 1902   6.507   5.866   5.029
  646TIP3    H2 1903   6.456   5.742   5.099
  647TIP3   OH2 1904   3.208   6.001   0.446
  647TIP3    H1 1905   3.201   5.923   0.501
  647TIP3    H2 1906   3.267   5.976   0.375
  648TIP3   OH2 1907   3.944   4.114   0.535
  648TIP3    H1 1908   3.944   4.113   0.439
  648TIP3    H2 1909   3.906   4.030   0.560
  649TIP3   OH2 1910   3.288   3.203   5.827
  649TIP3    H1 1911   3.279   3.111   5.849
  649TIP3    H2 1912   3.381   3.215   5.808
  650TIP3   OH2 1913   1.558   1.939   0.851
  650TIP3    H1 1914   1.641   1.986   0.842
  650TIP3    H2 1915   1.539   1.944   0.945
  651TIP3   OH2 1916   5.482   5.751   2.227
  651TIP3    H1 1917   5.475   5.843   2.255
  651TIP3    H2 1918   5.437   5.702   2.296
  652TIP3   OH2 1919   5.655   3.169   5.190
  652TIP3    H1 1920   5.634   3.261   5.209
  652TIP3    H2 1921   5.659   3.165   5.094
  653TIP3   OH2 1922   0.057   3.819   0.690
  653TIP3    H1 1923  -0.004   3.832   0.763
  653TIP3    H2 1924   0.013   3.857   0.614
  654TIP3   OH2 1925   0.205   5.212   3.978
  654TIP3    H1 1926   0.173   5.137   4.028
  654TIP3    H2 1927   0.240   5.174   3.898
  655TIP3   OH2 1928   1.110   6.438   1.725
  655TIP3    H1 1929   1.057   6.518   1.727
  655TIP3    H2 1930   1.199   6.468   1.746
  656TIP3   OH2 1931   0.156   2.721   2.095
  656TIP3    H1 1932   0.142   2.796   2.037
  656TIP3    H2 1933   0.219   2.751   2.160
  657TIP3   OH2 1934   4.429   4.063   1.512
  657TIP3    H1 1935   4.340   4.088   1.487
  657TIP3    H2 1936   4.418   4.015   1.594
  658TIP3   OH2 1937   4.955   4.275   4.537
  658TIP3    H1 1938   5.022   4.342   4.526
  658TIP3    H2 1939   4.909   4.272   4.453
  659TIP3   OH2 1940   0.831   0.042   3.701
  659TIP3    H1 1941   0.765   0.110   3.691
  659TIP3    H2 1942   0.805  -0.027   3.640
  660TIP3   OH2 1943   2.720   4.243   4.369
  660TIP3    H1 1944   2.771   4.241   4.450
  660TIP3    H2 1945   2.723   4.153   4.337
  661TIP3   OH2 1946   3.178   4.015   1.545
  661TIP3    H1 1947   3.101   3.971   1.509
  661TIP3    H2 1948   3.156   4.031   1.637
  662TIP3   OH2 1949   5.279   0.251   3.580
  662TIP3    H1 1950   5.287   0.229   3.487
  662TIP3    H2 1951   5.198   0.302   3.585
  663TIP3   OH2 1952   3.151   0.187   1.107
  663TIP3    H1 1953   3.199   0.105   1.094
  663TIP3    H2 1954   3.126   0.187   1.199
  664TIP3   OH2 1955   2.202   3.373   0.340
  664TIP3    H1 1956   2.234   3.381   0.430
  664TIP3    H2 1957   2.140   3.445   0.330
  665TIP3   OH2 1958   3.733   1.898   3.960
  665TIP3    H1 1959   3.659   1.915   4.019
  665TIP3    H2 1960   3.774   1.819   3.994
  666TIP3   OH2 1961   6.467   3.051   3.729
  666TIP3    H1 1962   6.379   3.044   3.767
  666TIP3    H2 1963   6.508   2.966   3.746
  667TIP3   OH2 1964   6.430   4.561   2.243
  667TIP3    H1 1965   6.384   4.626   2.191
  667TIP3    H2 1966   6.448   4.489   2.183
  668TIP3   OH2 1967   1.094   4.372   0.579
  668TIP3    H1 1968   1.083   4.412   0.493
  668TIP3    H2 1969   1.005   4.357   0.610
  669TIP3   OH2 1970   4.941   5.717   0.782
  669TIP3    H1 1971   4.919   5.661   0.856
  669TIP3    H2 1972   4.867   5.776   0.773
  670TIP3   OH2 1973   2.279   5.405   3.478
  670TIP3    H1 1974   2.190   5.413   3.515
  670TIP3    H2 1975   2.330   5.470   3.527
  671TIP3   OH2 1976   7.038   6.338   3.961
  671TIP3    H1 1977   7.104   6.365   3.897
  671TIP3    H2 1978   6.985   6.417   3.975
  672TIP3   OH2 1979   1.701   3.867   4.508
  672TIP3    H1 1980   1.629   3.929   4.512
  672TIP3    H2 1981   1.702   3.837   4.416
  673TIP3   OH2 1982   5.157   0.545   1.663
  673TIP3    H1 1983   5.063   0.525   1.663
  673TIP3    H2 1984   5.188   0.514   1.748
  674TIP3   OH2 1985   4.178   4.575   5.558
  674TIP3    H1 1986   4.138   4.636   5.621
  674TIP3    H2 1987   4.165   4.617   5.473
  675TIP3   OH2 1988   2.084   0.510   3.724
  675TIP3    H1 1989   2.169   0.466   3.735
  675TIP3    H2 1990   2.060   0.539   3.812
  676TIP3   OH2 1991   0.835   6.596   4.261
  676TIP3    H1 1992   0.811   6.503   4.269
  676TIP3    H2 1993   0.837   6.627   4.352
  677TIP3   OH2 1994   1.846   6.221   4.617
  677TIP3    H1 1995   1.898   6.287   4.573
  677TIP3    H2 1996   1.846   6.246   4.710
  678TIP3   OH2 1997   1.834   4.955   4.159
  678TIP3    H1 1998   1.775   4.884   4.133
  678TIP3    H2 1999   1.912   4.911   4.192
  679TIP3   OH2 2000   6.184   2.922   0.096
  679TIP3    H1 2001   6.229   2.991   0.047
  679TIP3    H2 2002   6.163   2.856   0.029
  680TIP3   OH2 2003   2.513   4.905   5.524
  680TIP3    H1 2004   2.587   4.907   5.463
  680TIP3    H2 2005   2.467   4.823   5.504
  681TIP3   OH2 2006   1.265   1.419   1.014
  681TIP3    H1 2007   1.318   1.358   1.066
  681TIP3    H2 2008   1.175   1.400   1.038
  682TIP3   OH2 2009   5.031   4.709   2.968
  682TIP3    H1 2010   5.027   4.801   2.940
  682TIP3    H2 2011   5.046   4.661   2.886
  683TIP3   OH2 2012   6.944   2.239   2.152
  683TIP3    H1 2013   6.963   2.271   2.240
  683TIP3    H2 2014   6.906   2.152   2.167
  684TIP3   OH2 2015   5.777   1.458   1.112
  684TIP3    H1 2016   5.688   1.467   1.077
  684TIP3    H2 2017   5.786   1.365   1.132
  685TIP3   OH2 2018   6.884   0.735   4.909
  685TIP3    H1 2019   6.925   0.793   4.845
  685TIP3    H2 2020   6.825   0.680   4.857
  686TIP3   OH2 2021   7.071   1.555   0.954
  686TIP3    H1 2022   7.106   1.467   0.969
  686TIP3    H2 2023   6.976   1.545   0.965
  687TIP3   OH2 2024   3.059   4.804   4.606
  687TIP3    H1 2025   3.100   4.846   4.531
  687TIP3    H2 2026   3.063   4.711   4.587
  688TIP3   OH2 2027   2.423   1.437   4.035
  688TIP3    H1 2028   2.330   1.419   4.023
  688TIP3    H2 2029   2.462   1.352   4.053
  689TIP3   OH2 2030   0.704   5.149   0.950
  689TIP3    H1 2031   0.775   5.142   0.886
  689TIP3    H2 2032   0.632   5.190   0.902
  690TIP3   OH2 2033   3.238   2.210   4.757
  690TIP3    H1 2034   3.328   2.192   4.783
  690TIP3    H2 2035   3.185   2.182   4.832
  691TIP3   OH2 2036   7.213   4.335   5.664
  691TIP3    H1 2037   7.141   4.274   5.674
  691TIP3    H2 2038   7.182   4.398   5.599
  692TIP3   OH2 2039   3.367   0.272   3.861
  692TIP3    H1 2040   3.432   0.279   3.791
  692TIP3    H2 2041   3.411   0.305   3.939
  693TIP3   OH2 2042   4.809   3.522   3.989
  693TIP3    H1 2043   4.815   3.471   3.909
  693TIP3    H2 2044   4.877   3.485   4.046
  694TIP3   OH2 2045   4.450   1.558   2.792
  694TIP3    H1 2046   4.410   1.537   2.707
  694TIP3    H2 2047   4.480   1.648   2.783
  695TIP3   OH2 2048   1.458   0.286   3.129
  695TIP3    H1 2049   1.413   0.334   3.060
  695TIP3    H2 2050   1.550   0.287   3.104
  696TIP3   OH2 2051   2.767   3.081   0.152
  696TIP3    H1 2052   2.809   3.132   0.222
  696TIP3    H2 2053   2.779   3.133   0.073
  697TIP3   OH2 2054   4.157   3.217   2.770
  697TIP3    H1 2055   4.222   3.286   2.785
  697TIP3    H2 2056   4.093   3.229   2.840
  698TIP3   OH2 2057   6.046   3.334   5.644
  698TIP3    H1 2058   5.970   3.364   5.594
  698TIP3    H2 2059   6.028   3.359   5.734
  699TIP3   OH2 2060   6.251   6.216   3.416
  699TIP3    H1 2061   6.190   6.275   3.372
  699TIP3    H2 2062   6.205   6.132   3.419
  700TIP3   OH2 2063   5.830   2.073   3.812
  700TIP3    H1 2064   5.831   2.048   3.720
  700TIP3    H2 2065   5.917   2.109   3.829
  701TIP3   OH2 2066   2.869   6.677   4.489
  701TIP3    H1 2067   2.917   6.730   4.552
  701TIP3    H2 2068   2.814   6.741   4.442
  702TIP3   OH2 2069   1.025   5.195   3.086
  702TIP3    H1 2070   0.983   5.257   3.027
  702TIP3    H2 2071   0.955   5.164   3.143
  703TIP3   OH2 2072   2.406   2.178   0.044
  703TIP3    H1 2073   2.484   2.178   0.100
  703TIP3    H2 2074   2.338   2.135   0.096
  704TIP3   OH2 2075   3.766   6.292   2.975
  704TIP3    H1 2076   3.842   6.349   2.968
  704TIP3    H2 2077   3.695   6.342   2.935
  705TIP3   OH2 2078   2.074   6.457   2.845
  705TIP3    H1 2079   2.022   6.384   2.810
  705TIP3    H2 2080   2.018   6.495   2.913
  706TIP3   OH2 2081   3.340   0.212   0.419
  706TIP3    H1 2082   3.434   0.224   0.406
  706TIP3    H2 2083   3.304   0.301   0.420
  707TIP3   OH2 2084   0.060   3.883   4.724
  707TIP3    H1 2085   0.098   3.866   4.810
  707TIP3    H2 2086   0.021   3.970   4.731
  708TIP3   OH2 2087   3.980   6.628   0.428
  708TIP3    H1 2088   4.050   6.653   0.490
  708TIP3    H2 2089   3.989   6.690   0.356
  709TIP3   OH2 2090   1.383   2.084   0.426
  709TIP3    H1 2091   1.452   2.132   0.473
  709TIP3    H2 2092   1.313   2.148   0.414
  710TIP3   OH2 2093   2.674   4.754   0.105
  710TIP3    H1 2094   2.635   4.764   0.018
  710TIP3    H2 2095   2.767   4.742   0.089
  711TIP3   OH2 2096   1.140   4.113   4.940
  711TIP3    H1 2097   1.164   4.180   4.876
  711TIP3    H2 2098   1.106   4.162   5.015
  712TIP3   OH2 2099   1.012   0.562   2.759
  712TIP3    H1 2100   1.052   0.475   2.759
  712TIP3    H2 2101   1.074   0.617   2.710
  713TIP3   OH2 2102   5.447   6.577   4.890
  713TIP3    H1 2103   5.461   6.574   4.985
  713TIP3    H2 2104   5.530   6.610   4.855
  714TIP3   OH2 2105   6.397   5.035   2.736
  714TIP3    H1 2106   6.477   5.087   2.735
  714TIP3    H2 2107   6.424   4.948   2.764
  715TIP3   OH2 2108   1.966   2.152   4.817
  715TIP3    H1 2109   1.893   2.105   4.776
  715TIP3    H2 2110   1.940   2.162   4.908
  716TIP3   OH2 2111   1.141   1.592   3.136
  716TIP3    H1 2112   1.062   1.611   3.085
  716TIP3    H2 2113   1.126   1.506   3.174
  717TIP3   OH2 2114   3.618   6.332   1.353
  717TIP3    H1 2115   3.669   6.281   1.291
  717TIP3    H2 2116   3.549   6.273   1.382
  718TIP3   OH2 2117   4.483   0.670   3.406
  718TIP3    H1 2118   4.521   0.609   3.343
  718TIP3    H2 2119   4.433   0.615   3.466
  719TIP3   OH2 2120   0.864   6.249   0.137
  719TIP3    H1 2121   0.887   6.296   0.217
  719TIP3    H2 2122   0.770   6.234   0.144
  720TIP3   OH2 2123   1.844   4.406   3.393
  720TIP3    H1 2124   1.876   4.427   3.481
  720TIP3    H2 2125   1.791   4.482   3.369
  721TIP3   OH2 2126   0.700   3.558   0.280
  721TIP3    H1 2127   0.649   3.488   0.239
  721TIP3    H2 2128   0.731   3.611   0.206
  722TIP3   OH2 2129   4.822   6.535   4.116
  722TIP3    H1 2130   4.734   6.520   4.150
  722TIP3    H2 2131   4.869   6.577   4.188
  723TIP3   OH2 2132   3.627   0.896   0.763
  723TIP3    H1 2133   3.660   0.830   0.702
  723TIP3    H2 2134   3.591   0.965   0.708
  724TIP3   OH2 2135   6.585   6.381   2.308
  724TIP3    H1 2136   6.548   6.470   2.307
  724TIP3    H2 2137   6.510   6.324   2.322
  725TIP3   OH2 2138   2.565   1.088   5.836
  725TIP3    H1 2139   2.652   1.057   5.813
  725TIP3    H2 2140   2.509   1.011   5.829
  726TIP3   OH2 2141   3.873   2.565   4.439
  726TIP3    H1 2142   3.790   2.584   4.482
  726TIP3    H2 2143   3.939   2.585   4.506
  727TIP3   OH2 2144   4.793   4.243   0.570
  727TIP3    H1 2145   4.728   4.215   0.506
  727TIP3    H2 2146   4.791   4.175   0.637
  728TIP3   OH2 2147   0.607   0.037   5.353
  728TIP3    H1 2148   0.616   0.084   5.436
  728TIP3    H2 2149   0.512   0.031   5.340
  729TIP3   OH2 2150   1.532   5.896   3.078
  729TIP3    H1 2151   1.585   5.969   3.110
  729TIP3    H2 2152   1.565   5.820   3.125
  730TIP3   OH2 2153   6.100   0.173   4.381
  730TIP3    H1 2154   6.062   0.190   4.295
  730TIP3    H2 2155   6.048   0.101   4.416
  731TIP3   OH2 2156   7.029   0.120   5.880
  731TIP3    H1 2157   6.988   0.206   5.888
  731TIP3    H2 2158   6.958   0.062   5.851
  732TIP3   OH2 2159   6.716   6.217   3.236
  732TIP3    H1 2160   6.794   6.165   3.255
  732TIP3    H2 2161   6.645   6.169   3.278
  733TIP3   OH2 2162   6.928   0.822   4.653
  733TIP3    H1 2163   6.955   0.909   4.681
  733TIP3    H2 2164   7.006   0.786   4.609
  734TIP3   OH2 2165   3.234   3.898   5.244
  734TIP3    H1 2166   3.154   3.937   5.207
  734TIP3    H2 2167   3.203   3.828   5.301
  735TIP3   OH2 2168   3.787   3.804   3.353
  735TIP3    H1 2169   3.841   3.882   3.359
  735TIP3    H2 2170   3.818   3.748   3.424
  736TIP3   OH2 2171   2.810   0.988   5.728
  736TIP3    H1 2172   2.874   0.945   5.671
  736TIP3    H2 2173   2.820   0.946   5.813
  737TIP3   OH2 2174   2.085   6.395   0.199
  737TIP3    H1 2175   2.176   6.406   0.172
  737TIP3    H2 2176   2.086   6.319   0.257
  738TIP3   OH2 2177   5.902   6.679   0.361
  738TIP3    H1 2178   5.846   6.627   0.418
  738TIP3    H2 2179   5.987   6.678   0.405
  739TIP3   OH2 2180   3.125   2.153   0.012
  739TIP3    H1 2181   3.199   2.214   0.007
  739TIP3    H2 2182   3.142   2.100   0.090
  740TIP3   OH2 2183   3.602   1.662   2.161
  740TIP3    H1 2184   3.586   1.667   2.067
  740TIP3    H2 2185   3.658   1.585   2.171
  741TIP3   OH2 2186   4.954   3.524   0.695
  741TIP3    H1 2187   4.898   3.595   0.664
  741TIP3    H2 2188   5.012   3.504   0.621
  742TIP3   OH2 2189   5.988   2.801   3.120
  742TIP3    H1 2190   5.925   2.773   3.053
  742TIP3    H2 2191   5.959   2.756   3.200
  743TIP3   OH2 2192   4.745   0.486   0.116
  743TIP3    H1 2193   4.713   0.416   0.174
  743TIP3    H2 2194   4.819   0.524   0.164
  744TIP3   OH2 2195   6.211   5.143   1.928
  744TIP3    H1 2196   6.226   5.233   1.960
  744TIP3    H2 2197   6.137   5.151   1.868
  745TIP3   OH2 2198   4.645   2.643   5.678
  745TIP3    H1 2199   4.665   2.735   5.697
  745TIP3    H2 2200   4.731   2.602   5.667
  746TIP3   OH2 2201   5.380   6.138   3.159
  746TIP3    H1 2202   5.334   6.121   3.242
  746TIP3    H2 2203   5.403   6.230   3.164
  747TIP3   OH2 2204   6.997   1.336   0.677
  747TIP3    H1 2205   6.969   1.250   0.709
  747TIP3    H2 2206   7.041   1.317   0.594
  748TIP3   OH2 2207   3.450   2.326   1.684
  748TIP3    H1 2208   3.402   2.409   1.676
  748TIP3    H2 2209   3.402   2.265   1.629
  749TIP3   OH2 2210   4.859   0.937   5.196
  749TIP3    H1 2211   4.835   1.009   5.253
  749TIP3    H2 2212   4.943   0.962   5.159
  750TIP3   OH2 2213   3.625   5.512   2.125
  750TIP3    H1 2214   3.719   5.502   2.141
  750TIP3    H2 2215   3.586   5.517   2.212
  751TIP3   OH2 2216   6.679   0.642   0.527
  751TIP3    H1 2217   6.616   0.701   0.570
  751TIP3    H2 2218   6.683   0.673   0.437
  752TIP3   OH2 2219   0.643   2.313   2.839
  752TIP3    H1 2220   0.599   2.345   2.761
  752TIP3    H2 2221   0.706   2.248   2.807
  753TIP3   OH2 2222   1.027   4.243   5.153
  753TIP3    H1 2223   1.072   4.288   5.225
  753TIP3    H2 2224   0.992   4.313   5.099
  754TIP3   OH2 2225   0.142   5.251   3.282
  754TIP3    H1 2226   0.138   5.302   3.202
  754TIP3    H2 2227   0.108   5.165   3.258
  755TIP3   OH2 2228   0.218   3.951   5.712
  755TIP3    H1 2229   0.160   4.013   5.757
  755TIP3    H2 2230   0.226   3.877   5.773
  756TIP3   OH2 2231   4.106   4.827   2.292
  756TIP3    H1 2232   4.089   4.868   2.207
  756TIP3    H2 2233   4.121   4.901   2.351
  757TIP3   OH2 2234   6.250   2.747   4.918
  757TIP3    H1 2235   6.341   2.726   4.899
  757TIP3    H2 2236   6.252   2.788   5.005
  758TIP3   OH2 2237   5.869   1.343   5.254
  758TIP3    H1 2238   5.915   1.381   5.329
  758TIP3    H2 2239   5.930   1.351   5.181
  759TIP3   OH2 2240   3.268   1.903   4.547
  759TIP3    H1 2241   3.198   1.865   4.495
  759TIP3    H2 2242   3.301   1.830   4.600
  760TIP3   OH2 2243   6.273   1.803   1.617
  760TIP3    H1 2244   6.212   1.759   1.559
  760TIP3    H2 2245   6.222   1.874   1.656
  761TIP3   OH2 2246   5.494   6.471   3.768
  761TIP3    H1 2247   5.525   6.502   3.853
  761TIP3    H2 2248   5.562   6.410   3.739
  762TIP3   OH2 2249   4.881   3.869   4.995
  762TIP3    H1 2250   4.966   3.828   4.979
  762TIP3    H2 2251   4.819   3.817   4.942
  763TIP3   OH2 2252   3.713   5.307   4.953
  763TIP3    H1 2253   3.637   5.291   4.897
  763TIP3    H2 2254   3.748   5.391   4.923
  764TIP3   OH2 2255   7.124   4.510   1.238
  764TIP3    H1 2256   7.181   4.443   1.276
  764TIP3    H2 2257   7.120   4.579   1.303
  765TIP3   OH2 2258   4.769   0.763   0.295
  765TIP3    H1 2259   4.712   0.802   0.361
  765TIP3    H2 2260   4.738   0.800   0.212
  766TIP3   OH2 2261   2.444   5.679   0.946
  766TIP3    H1 2262   2.384   5.657   1.018
  766TIP3    H2 2263   2.532   5.668   0.984
  767TIP3   OH2 2264   6.667   1.249   4.750
  767TIP3    H1 2265   6.663   1.238   4.655
  767TIP3    H2 2266   6.692   1.163   4.783
  768TIP3   OH2 2267   0.494   3.816   5.685
  768TIP3    H1 2268   0.466   3.904   5.661
  768TIP3    H2 2269   0.437   3.758   5.635
  769TIP3   OH2 2270   2.355   5.884   0.213
  769TIP3    H1 2271   2.370   5.926   0.128
  769TIP3    H2 2272   2.288   5.818   0.196
  770TIP3   OH2 2273   3.152   0.792   3.322
  770TIP3    H1 2274   3.235   0.837   3.340
  770TIP3    H2 2275   3.108   0.788   3.406
  771TIP3   OH2 2276   4.591   5.869   3.167
  771TIP3    H1 2277   4.650   5.794   3.180
  771TIP3    H2 2278   4.503   5.831   3.169
  772TIP3   OH2 2279   6.053   0.690   5.146
  772TIP3    H1 2280   6.045   0.599   5.173
  772TIP3    H2 2281   6.038   0.741   5.225
  773TIP3   OH2 2282   4.353   1.568   4.460
  773TIP3    H1 2283   4.429   1.561   4.403
  773TIP3    H2 2284   4.381   1.529   4.543
  774TIP3   OH2 2285   5.813   1.111   0.619
  774TIP3    H1 2286   5.850   1.043   0.675
  774TIP3    H2 2287   5.805   1.188   0.675
  775TIP3   OH2 2288   2.156   0.598   5.543
  775TIP3    H1 2289   2.122   0.532   5.604
  775TIP3    H2 2290   2.080   0.624   5.491
  776TIP3   OH2 2291   1.119   1.336   1.652
  776TIP3    H1 2292   1.182   1.284   1.704
  776TIP3    H2 2293   1.170   1.365   1.576
  777TIP3   OH2 2294   4.709   5.265   4.363
  777TIP3    H1 2295   4.800   5.253   4.387
  777TIP3    H2 2296   4.699   5.359   4.349
  778TIP3   OH2 2297   3.790   4.677   3.871
  778TIP3    H1 2298   3.782   4.590   3.833
  778TIP3    H2 2299   3.704   4.717   3.860
  779TIP3   OH2 2300   1.787   0.534   0.370
  779TIP3    H1 2301   1.820   0.624   0.359
  779TIP3    H2 2302   1.696   0.538   0.342
  780TIP3   OH2 2303   2.470   2.922   3.108
  780TIP3    H1 2304   2.536   2.907   3.040
  780TIP3    H2 2305   2.451   2.835   3.143
  781TIP3   OH2 2306   4.318   4.144   5.842
  781TIP3    H1 2307   4.255   4.076   5.863
  781TIP3    H2 2308   4.401   4.113   5.877
  782TIP3   OH2 2309   3.379   3.485   2.498
  782TIP3    H1 2310   3.442   3.418   2.524
  782TIP3    H2 2311   3.424   3.568   2.511
  783TIP3   OH2 2312   3.489   4.434   5.755
  783TIP3    H1 2313   3.445   4.442   5.840
  783TIP3    H2 2314   3.567   4.382   5.775
  784TIP3   OH2 2315   3.446   0.983   3.229
  784TIP3    H1 2316   3.496   0.909   3.264
  784TIP3    H2 2317   3.512   1.044   3.198
  785TIP3   OH2 2318   6.981   1.991   0.901
  785TIP3    H1 2319   6.990   2.084   0.920
  785TIP3    H2 2320   6.888   1.978   0.886
  786TIP3   OH2 2321   3.120   4.677   1.341
  786TIP3    H1 2322   3.184   4.656   1.409
  786TIP3    H2 2323   3.075   4.595   1.323
  787TIP3   OH2 2324   4.554   3.218   2.311
  787TIP3    H1 2325   4.621   3.281   2.287
  787TIP3    H2 2326   4.476   3.271   2.329
  788TIP3   OH2 2327   0.343   0.722   0.069
  788TIP3    H1 2328   0.406   0.791   0.091
  788TIP3    H2 2329   0.396   0.651   0.033
  789TIP3   OH2 2330   4.347   4.695   2.355
  789TIP3    H1 2331   4.257   4.725   2.369
  789TIP3    H2 2332   4.351   4.673   2.262
  790TIP3   OH2 2333   2.638   0.229   3.910
  790TIP3    H1 2334   2.690   0.154   3.939
  790TIP3    H2 2335   2.554   0.220   3.955
  791TIP3   OH2 2336   1.943   5.059   3.005
  791TIP3    H1 2337   1.847   5.059   3.004
  791TIP3    H2 2338   1.966   5.084   3.094
  792TIP3   OH2 2339   4.121   3.057   2.532
  792TIP3    H1 2340   4.119   3.113   2.609
  792TIP3    H2 2341   4.203   3.007   2.540
  793TIP3   OH2 2342   5.525   0.216   0.242
  793TIP3    H1 2343   5.554   0.256   0.160
  793TIP3    H2 2344   5.601   0.220   0.299
  794TIP3   OH2 2345   4.870   1.679   1.810
  794TIP3    H1 2346   4.911   1.663   1.895
  794TIP3    H2 2347   4.884   1.599   1.761
  795TIP3   OH2 2348   2.373   2.045   1.818
  795TIP3    H1 2349   2.287   2.079   1.840
  795TIP3    H2 2350   2.430   2.122   1.820
  796TIP3   OH2 2351   0.856   2.826   3.231
  796TIP3    H1 2352   0.795   2.754   3.212
  796TIP3    H2 2353   0.936   2.801   3.185
  797TIP3   OH2 2354   3.966   4.315   3.176
  797TIP3    H1 2355   4.006   4.238   3.134
  797TIP3    H2 2356   3.985   4.387   3.117
  798TIP3   OH2 2357   1.649   1.679   0.454
  798TIP3    H1 2358   1.631   1.605   0.396
  798TIP3    H2 2359   1.580   1.676   0.520
  799TIP3   OH2 2360   7.071   2.468   0.797
  799TIP3    H1 2361   7.127   2.498   0.725
  799TIP3    H2 2362   7.124   2.482   0.876
  800TIP3   OH2 2363   4.452   5.883   0.195
  800TIP3    H1 2364   4.544   5.858   0.205
  800TIP3    H2 2365   4.415   5.874   0.283
  801TIP3   OH2 2366   2.187   4.855   5.373
  801TIP3    H1 2367   2.097   4.822   5.371
  801TIP3    H2 2368   2.177   4.950   5.361
  802TIP3   OH2 2369   4.283   3.880   0.473
  802TIP3    H1 2370   4.315   3.814   0.411
  802TIP3    H2 2371   4.202   3.844   0.507
  803TIP3   OH2 2372   2.670   6.454   5.515
  803TIP3    H1 2373   2.764   6.441   5.503
  803TIP3    H2 2374   2.663   6.544   5.549
  804TIP3   OH2 2375   6.628   4.562   3.082
  804TIP3    H1 2376   6.591   4.645   3.112
  804TIP3    H2 2377   6.552   4.506   3.066
  805TIP3   OH2 2378   5.518   3.510   3.320
  805TIP3    H1 2379   5.509   3.543   3.410
  805TIP3    H2 2380   5.580   3.570   3.279
  806TIP3   OH2 2381   1.973   6.364   0.520
  806TIP3    H1 2382   2.054   6.400   0.556
  806TIP3    H2 2383   1.937   6.309   0.590
  807TIP3   OH2 2384   1.431   1.239   1.192
  807TIP3    H1 2385   1.367   1.169   1.181
  807TIP3    H2 2386   1.512   1.203   1.154
  808TIP3   OH2 2387   2.880   1.527   4.671
  808TIP3    H1 2388   2.883   1.534   4.766
  808TIP3    H2 2389   2.794   1.562   4.647
  809TIP3   OH2 2390   6.698   0.147   4.913
  809TIP3    H1 2391   6.658   0.159   4.999
  809TIP3    H2 2392   6.731   0.234   4.889
  810TIP3   OH2 2393   5.617   4.403   3.895
  810TIP3    H1 2394   5.640   4.339   3.828
  810TIP3    H2 2395   5.630   4.488   3.853
  811TIP3   OH2 2396   2.733   4.902   3.589
  811TIP3    H1 2397   2.773   4.912   3.676
  811TIP3    H2 2398   2.807   4.886   3.530
  812TIP3   OH2 2399   3.927   2.357   2.820
  812TIP3    H1 2400   3.905   2.366   2.727
  812TIP3    H2 2401   4.016   2.324   2.821
  813TIP3   OH2 2402   0.391   1.080   2.280
  813TIP3    H1 2403   0.355   1.007   2.330
  813TIP3    H2 2404   0.462   1.114   2.335
  814TIP3   OH2 2405   5.266   5.632   5.135
  814TIP3    H1 2406   5.190   5.575   5.142
  814TIP3    H2 2407   5.256   5.674   5.049
  815TIP3   OH2 2408   2.716   6.503   0.543
  815TIP3    H1 2409   2.751   6.419   0.574
  815TIP3    H2 2410   2.640   6.478   0.491
  816TIP3   OH2 2411   6.973   3.775   3.414
  816TIP3    H1 2412   6.893   3.754   3.462
  816TIP3    H2 2413   7.038   3.794   3.482
  817TIP3   OH2 2414   4.682   1.671   3.071
  817TIP3    H1 2415   4.618   1.603   3.050
  817TIP3    H2 2416   4.756   1.654   3.013
  818TIP3   OH2 2417   0.398   0.424   1.056
  818TIP3    H1 2418   0.436   0.486   0.993
  818TIP3    H2 2419   0.441   0.445   1.139
  819TIP3   OH2 2420   6.338   6.647   5.050
  819TIP3    H1 2421   6.247   6.626   5.074
  819TIP3    H2 2422   6.373   6.565   5.015
  820TIP3   OH2 2423   3.455   3.349   3.426
  820TIP3    H1 2424   3.549   3.350   3.442
  820TIP3    H2 2425   3.422   3.426   3.473
  821TIP3   OH2 2426   0.456   3.936   3.288
  821TIP3    H1 2427   0.471   3.876   3.215
  821TIP3    H2 2428   0.499   4.017   3.262
  822TIP3   OH2 2429   0.285   6.512   2.518
  822TIP3    H1 2430   0.361   6.533   2.572
  822TIP3    H2 2431   0.265   6.421   2.539
  823TIP3   OH2 2432   6.325   0.301   5.617
  823TIP3    H1 2433   6.247   0.250   5.598
  823TIP3    H2 2434   6.312   0.384   5.571
  824TIP3   OH2 2435   4.173   2.686   1.956
  824TIP3    H1 2436   4.247   2.748   1.955
  824TIP3    H2 2437   4.137   2.691   1.867
  825TIP3   OH2 2438   3.034   0.556   1.593
  825TIP3    H1 2439   3.050   0.463   1.610
  825TIP3    H2 2440   3.050   0.566   1.499
  826TIP3   OH2 2441   5.851   3.616   2.384
  826TIP3    H1 2442   5.786   3.549   2.362
  826TIP3    H2 2443   5.934   3.581   2.351
  827TIP3   OH2 2444   6.408   6.264   3.648
  827TIP3    H1 2445   6.364   6.275   3.563
  827TIP3    H2 2446   6.457   6.183   3.640
  828TIP3   OH2 2447   2.374   0.665   3.350
  828TIP3    H1 2448   2.378   0.717   3.270
  828TIP3    H2 2449   2.420   0.717   3.416
  829TIP3   OH2 2450   2.051   3.089   4.666
  829TIP3    H1 2451   2.073   3.153   4.600
  829TIP3    H2 2452   1.960   3.108   4.690
  830TIP3   OH2 2453   0.887   6.171   0.435
  830TIP3    H1 2454   0.830   6.097   0.412
  830TIP3    H2 2455   0.971   6.150   0.395
  831TIP3   OH2 2456   2.491   2.054   4.347
  831TIP3    H1 2457   2.560   1.988   4.337
  831TIP3    H2 2458   2.467   2.076   4.257
  832TIP3   OH2 2459   5.305   2.757   0.512
  832TIP3    H1 2460   5.315   2.763   0.607
  832TIP3    H2 2461   5.391   2.779   0.478
  833TIP3   OH2 2462   2.400   0.998   0.503
  833TIP3    H1 2463   2.309   0.970   0.497
  833TIP3    H2 2464   2.441   0.936   0.562
  834TIP3   OH2 2465   7.184   3.299   2.631
  834TIP3    H1 2466   7.153   3.323   2.718
  834TIP3    H2 2467   7.215   3.209   2.640
  835TIP3   OH2 2468   2.745   1.726   3.719
  835TIP3    H1 2469   2.764   1.796   3.780
  835TIP3    H2 2470   2.662   1.688   3.751
  836TIP3   OH2 2471   1.272   5.891   4.733
  836TIP3    H1 2472   1.179   5.903   4.750
  836TIP3    H2 2473   1.291   5.950   4.660
  837TIP3   OH2 2474   1.723   4.630   5.259
  837TIP3    H1 2475   1.637   4.659   5.290
  837TIP3    H2 2476   1.769   4.711   5.236
  838TIP3   OH2 2477   6.603   2.450   5.127
  838TIP3    H1 2478   6.569   2.425   5.213
  838TIP3    H2 2479   6.576   2.380   5.069
  839TIP3   OH2 2480   1.738   4.346   0.437
  839TIP3    H1 2481   1.831   4.368   0.435
  839TIP3    H2 2482   1.699   4.398   0.367
  840TIP3   OH2 2483   0.033   1.178   2.680
  840TIP3    H1 2484   0.031   1.273   2.695
  840TIP3    H2 2485   0.038   1.140   2.768
  841TIP3   OH2 2486   2.008   1.838   1.428
  841TIP3    H1 2487   1.953   1.914   1.447
  841TIP3    H2 2488   2.096   1.867   1.449
  842TIP3   OH2 2489   4.888   0.293   0.379
  842TIP3    H1 2490   4.966   0.262   0.425
  842TIP3    H2 2491   4.815   0.253   0.426
  843TIP3   OH2 2492   6.386   0.576   0.902
  843TIP3    H1 2493   6.307   0.565   0.849
  843TIP3    H2 2494   6.427   0.489   0.900
  844TIP3   OH2 2495   2.131   2.026   3.122
  844TIP3    H1 2496   2.108   2.068   3.039
  844TIP3    H2 2497   2.174   2.094   3.173
  845TIP3   OH2 2498   2.121   6.372   3.409
  845TIP3    H1 2499   2.039   6.348   3.450
  845TIP3    H2 2500   2.183   6.382   3.481
  846TIP3   OH2 2501   3.519   0.290   5.457
  846TIP3    H1 2502   3.565   0.251   5.531
  846TIP3    H2 2503   3.588   0.311   5.394
  847TIP3   OH2 2504   3.587   4.520   1.889
  847TIP3    H1 2505   3.558   4.611   1.877
  847TIP3    H2 2506   3.652   4.525   1.959
  848TIP3   OH2 2507   4.657   0.949   3.132
  848TIP3    H1 2508   4.656   1.032   3.084
  848TIP3    H2 2509   4.575   0.949   3.181
  849TIP3   OH2 2510   2.246   4.101   5.359
  849TIP3    H1 2511   2.164   4.119   5.405
  849TIP3    H2 2512   2.266   4.184   5.315
  850TIP3   OH2 2513   6.886   3.210   2.338
  850TIP3    H1 2514   6.854   3.296   2.309
  850TIP3    H2 2515   6.814   3.150   2.320
  851TIP3   OH2 2516   5.127   0.815   5.596
  851TIP3    H1 2517   5.155   0.800   5.506
  851TIP3    H2 2518   5.202   0.858   5.638
  852TIP3   OH2 2519   0.160   5.335   5.862
  852TIP3    H1 2520   0.191   5.418   5.898
  852TIP3    H2 2521   0.239   5.282   5.853
  853TIP3   OH2 2522   3.367   1.179   4.931
  853TIP3    H1 2523   3.437   1.149   4.873
  853TIP3    H2 2524   3.294   1.199   4.872
  854TIP3   OH2 2525   1.258   0.652   2.643
  854TIP3    H1 2526   1.284   0.689   2.559
  854TIP3    H2 2527   1.320   0.581   2.658
  855TIP3   OH2 2528   1.037   5.077   5.788
  855TIP3    H1 2529   0.984   4.998   5.799
  855TIP3    H2 2530   0.978   5.139   5.745
  856TIP3   OH2 2531   7.026   4.657   4.233
  856TIP3    H1 2532   7.009   4.594   4.163
  856TIP3    H2 2533   7.015   4.743   4.191
  857TIP3   OH2 2534   6.664   4.142   0.374
  857TIP3    H1 2535   6.690   4.066   0.322
  857TIP3    H2 2536   6.741   4.161   0.428
  858TIP3   OH2 2537   6.042   4.534   3.166
  858TIP3    H1 2538   6.089   4.590   3.105
  858TIP3    H2 2539   5.951   4.563   3.161
  859TIP3   OH2 2540   4.036   3.766   0.588
  859TIP3    H1 2541   4.017   3.683   0.632
  859TIP3    H2 2542   3.952   3.812   0.588
  860TIP3   OH2 2543   1.125   2.710   4.469
  860TIP3    H1 2544   1.174   2.642   4.515
  860TIP3    H2 2545   1.191   2.759   4.421
  861TIP3   OH2 2546   5.794   0.206   1.214
  861TIP3    H1 2547   5.825   0.146   1.282
  861TIP3    H2 2548   5.765   0.149   1.143
  862TIP3   OH2 2549   3.410   1.464   0.328
  862TIP3    H1 2550   3.394   1.477   0.421
  862TIP3    H2 2551   3.472   1.390   0.324
  863TIP3   OH2 2552   4.395   0.264   2.996
  863TIP3    H1 2553   4.406   0.179   3.039
  863TIP3    H2 2554   4.484   0.298   2.988
  864TIP3   OH2 2555   4.920   5.874   0.086
  864TIP3    H1 2556   4.982   5.802   0.102
  864TIP3    H2 2557   4.966   5.933   0.027
  865TIP3   OH2 2558   3.614   2.038   4.666
  865TIP3    H1 2559   3.709   2.037   4.650
  865TIP3    H2 2560   3.575   2.022   4.580
  866TIP3   OH2 2561   1.924   4.641   2.034
  866TIP3    H1 2562   1.917   4.707   2.103
  866TIP3    H2 2563   2.004   4.592   2.055
  867TIP3   OH2 2564   2.970   5.552   1.189
  867TIP3    H1 2565   2.953   5.616   1.119
  867TIP3    H2 2566   2.915   5.477   1.167
  868TIP3   OH2 2567   3.338   1.811   3.454
  868TIP3    H1 2568   3.256   1.830   3.500
  868TIP3    H2 2569   3.311   1.794   3.364
  869TIP3   OH2 2570   7.043   6.764   2.804
  869TIP3    H1 2571   7.084   6.695   2.857
  869TIP3    H2 2572   7.097   6.770   2.726
  870TIP3   OH2 2573   5.486   1.959   2.068
  870TIP3    H1 2574   5.395   1.959   2.097
  870TIP3    H2 2575   5.525   1.885   2.116
  871TIP3   OH2 2576   0.761   1.396   2.775
  871TIP3    H1 2577   0.754   1.349   2.692
  871TIP3    H2 2578   0.832   1.458   2.762
  872TIP3   OH2 2579   2.155   2.656   2.266
  872TIP3    H1 2580   2.090   2.588   2.282
  872TIP3    H2 2581   2.158   2.664   2.171
  873TIP3   OH2 2582   2.744   2.398   1.811
  873TIP3    H1 2583   2.754   2.492   1.796
  873TIP3    H2 2584   2.652   2.387   1.834
  874TIP3   OH2 2585   0.131   0.096   0.348
  874TIP3    H1 2586   0.223   0.070   0.348
  874TIP3    H2 2587   0.093   0.051   0.423
  875TIP3   OH2 2588   5.940   4.360   3.839
  875TIP3    H1 2589   5.850   4.343   3.813
  875TIP3    H2 2590   5.943   4.455   3.851
  876TIP3   OH2 2591   1.938   2.151   1.676
  876TIP3    H1 2592   2.002   2.139   1.747
  876TIP3    H2 2593   1.891   2.231   1.698
  877TIP3   OH2 2594   4.190   4.305   1.283
  877TIP3    H1 2595   4.156   4.393   1.301
  877TIP3    H2 2596   4.284   4.311   1.303
  878TIP3   OH2 2597   5.900   6.156   3.564
  878TIP3    H1 2598   5.928   6.244   3.537
  878TIP3    H2 2599   5.873   6.113   3.483
  879TIP3   OH2 2600   5.413   2.561   3.839
  879TIP3    H1 2601   5.333   2.527   3.878
  879TIP3    H2 2602   5.474   2.568   3.912
  880TIP3   OH2 2603   0.331   1.158   4.131
  880TIP3    H1 2604   0.423   1.147   4.107
  880TIP3    H2 2605   0.300   1.068   4.146
  881TIP3   OH2 2606   3.027   1.732   4.522
  881TIP3    H1 2607   3.054   1.687   4.603
  881TIP3    H2 2608   2.994   1.817   4.552
  882TIP3   OH2 2609   4.319   6.062   5.503
  882TIP3    H1 2610   4.240   6.012   5.521
  882TIP3    H2 2611   4.344   6.100   5.587
  883TIP3   OH2 2612   4.437   5.296   5.879
  883TIP3    H1 2613   4.485   5.224   5.838
  883TIP3    H2 2614   4.421   5.267   5.968
  884TIP3   OH2 2615   2.417   0.716   0.197
  884TIP3    H1 2616   2.449   0.715   0.287
  884TIP3    H2 2617   2.494   0.734   0.143
  885TIP3   OH2 2618   4.057   0.870   2.607
  885TIP3    H1 2619   4.070   0.808   2.536
  885TIP3    H2 2620   4.082   0.955   2.570
  886TIP3   OH2 2621   4.023   2.245   4.887
  886TIP3    H1 2622   4.061   2.162   4.859
  886TIP3    H2 2623   3.942   2.253   4.836
  887TIP3   OH2 2624   5.846   6.641   3.748
  887TIP3    H1 2625   5.778   6.703   3.722
  887TIP3    H2 2626   5.824   6.617   3.838
  888TIP3   OH2 2627   3.139   3.440   0.414
  888TIP3    H1 2628   3.193   3.474   0.485
  888TIP3    H2 2629   3.139   3.509   0.348
  889TIP3   OH2 2630   0.479   4.593   0.240
  889TIP3    H1 2631   0.421   4.573   0.314
  889TIP3    H2 2632   0.449   4.678   0.209
  890TIP3   OH2 2633   0.172   3.206   0.162
  890TIP3    H1 2634   0.243   3.270   0.172
  890TIP3    H2 2635   0.154   3.176   0.251
  891TIP3   OH2 2636   2.782   0.188   0.795
  891TIP3    H1 2637   2.721   0.116   0.811
  891TIP3    H2 2638   2.751   0.260   0.850
  892TIP3   OH2 2639   6.014   1.101   4.237
  892TIP3    H1 2640   5.944   1.039   4.221
  892TIP3    H2 2641   6.058   1.068   4.315
  893TIP3   OH2 2642   1.051   3.499   4.293
  893TIP3    H1 2643   1.142   3.471   4.292
  893TIP3    H2 2644   1.046   3.568   4.226
  894TIP3   OH2 2645   6.943   3.116   5.673
  894TIP3    H1 2646   6.986   3.074   5.747
  894TIP3    H2 2647   7.014   3.140   5.614
  895TIP3   OH2 2648   6.715   2.443   0.654
  895TIP3    H1 2649   6.666   2.513   0.611
  895TIP3    H2 2650   6.751   2.483   0.733
  896TIP3   OH2 2651   0.243   4.586   2.877
  896TIP3    H1 2652   0.183   4.646   2.833
  896TIP3    H2 2653   0.186   4.525   2.924
  897TIP3   OH2 2654   2.138   0.138   2.964
  897TIP3    H1 2655   2.161   0.074   2.898
  897TIP3    H2 2656   2.112   0.086   3.041
  898TIP3   OH2 2657   6.530   6.775   3.737
  898TIP3    H1 2658   6.517   6.840   3.668
  898TIP3    H2 2659   6.529   6.691   3.692
  899TIP3   OH2 2660   5.292   6.492   5.468
  899TIP3    H1 2661   5.211   6.468   5.423
  899TIP3    H2 2662   5.274   6.579   5.504
  900TIP3   OH2 2663   5.437   3.260   3.272
  900TIP3    H1 2664   5.482   3.340   3.299
  900TIP3    H2 2665   5.351   3.266   3.314
  901TIP3   OH2 2666   2.365   2.286   4.444
  901TIP3    H1 2667   2.398   2.207   4.401
  901TIP3    H2 2668   2.281   2.260   4.481
  902TIP3   OH2 2669   2.053   2.233   2.136
  902TIP3    H1 2670   2.055   2.238   2.231
  902TIP3    H2 2671   1.967   2.269   2.112
  903TIP3   OH2 2672   5.306   5.328   0.952
  903TIP3    H1 2673   5.221   5.333   0.996
  903TIP3    H2 2674   5.315   5.412   0.909
  904TIP3   OH2 2675   4.952   4.979   0.756
  904TIP3    H1 2676   4.888   5.046   0.730
  904TIP3    H2 2677   5.012   4.975   0.682
  905TIP3   OH2 2678   1.499   5.816   4.477
  905TIP3    H1 2679   1.558   5.745   4.450
  905TIP3    H2 2680   1.411   5.780   4.467
  906TIP3   OH2 2681   4.552   4.761   4.195
  906TIP3    H1 2682   4.559   4.829   4.263
  906TIP3    H2 2683   4.639   4.720   4.194
  907TIP3   OH2 2684   1.411   5.397   3.937
  907TIP3    H1 2685   1.431   5.486   3.908
  907TIP3    H2 2686   1.488   5.346   3.914
  908TIP3   OH2 2687   3.189   6.339   3.428
  908TIP3    H1 2688   3.268   6.321   3.479
  908TIP3    H2 2689   3.217   6.331   3.337
  909TIP3   OH2 2690   0.974   3.146   0.376
  909TIP3    H1 2691   0.914   3.091   0.325
  909TIP3    H2 2692   0.965   3.114   0.466
  910TIP3   OH2 2693   4.787   0.865   2.710
  910TIP3    H1 2694   4.729   0.813   2.655
  910TIP3    H2 2695   4.791   0.951   2.667
  911TIP3   OH2 2696   7.005   6.043   5.289
  911TIP3    H1 2697   7.092   6.029   5.253
  911TIP3    H2 2698   7.008   6.002   5.376
  912TIP3   OH2 2699   6.067   6.648   3.403
  912TIP3    H1 2700   6.011   6.723   3.424
  912TIP3    H2 2701   6.146   6.686   3.366
  913TIP3   OH2 2702   2.814   6.240   0.681
  913TIP3    H1 2703   2.753   6.222   0.609
  913TIP3    H2 2704   2.761   6.288   0.745
  914TIP3   OH2 2705   4.373   6.240   4.103
  914TIP3    H1 2706   4.286   6.225   4.065
  914TIP3    H2 2707   4.367   6.327   4.142
  915TIP3   OH2 2708   4.800   4.673   4.249
  915TIP3    H1 2709   4.793   4.635   4.336
  915TIP3    H2 2710   4.823   4.600   4.192
  916TIP3   OH2 2711   6.266   6.633   2.782
  916TIP3    H1 2712   6.361   6.619   2.780
  916TIP3    H2 2713   6.230   6.544   2.781
  917TIP3   OH2 2714   1.526   1.757   5.077
  917TIP3    H1 2715   1.469   1.681   5.064
  917TIP3    H2 2716   1.465   1.831   5.081
  918TIP3   OH2 2717   5.222   2.031   2.179
  918TIP3    H1 2718   5.199   2.109   2.129
  918TIP3    H2 2719   5.193   2.050   2.268
  919TIP3   OH2 2720   6.349   0.229   4.052
  919TIP3    H1 2721   6.394   0.313   4.052
  919TIP3    H2 2722   6.263   0.247   4.091
  920TIP3   OH2 2723   2.114   1.225   2.909
  920TIP3    H1 2724   2.180   1.159   2.929
  920TIP3    H2 2725   2.064   1.235   2.990
  921TIP3   OH2 2726   0.051   6.093   1.870
  921TIP3    H1 2727   0.059   6.043   1.789
  921TIP3    H2 2728  -0.044   6.102   1.883
  922TIP3   OH2 2729   7.129   2.568   2.622
  922TIP3    H1 2730   7.085   2.566   2.537
  922TIP3    H2 2731   7.176   2.651   2.623
  923TIP3   OH2 2732   0.860   2.299   2.616
  923TIP3    H1 2733   0.948   2.330   2.591
  923TIP3    H2 2734   0.820   2.375   2.658
  924TIP3   OH2 2735   6.188   0.764   1.569
  924TIP3    H1 2736   6.217   0.800   1.653
  924TIP3    H2 2737   6.251   0.799   1.505
  925TIP3   OH2 2738   2.571   0.648   4.799
  925TIP3    H1 2739   2.526   0.667   4.716
  925TIP3    H2 2740   2.644   0.710   4.801
  926TIP3   OH2 2741   5.225   1.680   1.188
  926TIP3    H1 2742   5.136   1.669   1.221
  926TIP3    H2 2743   5.242   1.774   1.196
  927TIP3   OH2 2744   0.843   4.619   3.169
  927TIP3    H1 2745   0.852   4.679   3.243
  927TIP3    H2 2746   0.855   4.532   3.207
  928TIP3   OH2 2747   2.445   4.520   4.642
  928TIP3    H1 2748   2.354   4.511   4.668
  928TIP3    H2 2749   2.452   4.609   4.608
  929TIP3   OH2 2750   3.940   4.754   1.055
  929TIP3    H1 2751   3.935   4.846   1.079
  929TIP3    H2 2752   3.870   4.712   1.105
  930TIP3   OH2 2753   1.585   5.206   3.875
  930TIP3    H1 2754   1.587   5.243   3.787
  930TIP3    H2 2755   1.538   5.123   3.866
  931TIP3   OH2 2756   3.645   1.440   3.532
  931TIP3    H1 2757   3.695   1.395   3.464
  931TIP3    H2 2758   3.554   1.428   3.506
  932TIP3   OH2 2759   7.147   6.572   3.777
  932TIP3    H1 2760   7.155   6.494   3.722
  932TIP3    H2 2761   7.063   6.610   3.753
  933TIP3   OH2 2762   3.944   5.133   0.103
  933TIP3    H1 2763   4.011   5.088   0.155
  933TIP3    H2 2764   3.958   5.226   0.122
  934TIP3   OH2 2765   0.564   0.390   2.454
  934TIP3    H1 2766   0.646   0.422   2.493
  934TIP3    H2 2767   0.498   0.413   2.519
  935TIP3   OH2 2768   4.497   3.322   5.522
  935TIP3    H1 2769   4.408   3.337   5.552
  935TIP3    H2 2770   4.552   3.376   5.579
  936TIP3   OH2 2771   4.163   5.018   3.305
  936TIP3    H1 2772   4.209   4.974   3.376
  936TIP3    H2 2773   4.231   5.040   3.242
  937TIP3   OH2 2774   6.681   2.089   2.250
  937TIP3    H1 2775   6.673   2.036   2.329
  937TIP3    H2 2776   6.732   2.035   2.189
  938TIP3   OH2 2777   1.235   0.499   3.099
  938TIP3    H1 2778   1.267   0.562   3.163
  938TIP3    H2 2779   1.163   0.454   3.142
  939TIP3   OH2 2780   5.633   2.530   1.947
  939TIP3    H1 2781   5.693   2.508   2.019
  939TIP3    H2 2782   5.601   2.617   1.969
  940TIP3   OH2 2783   0.241   5.654   2.128
  940TIP3    H1 2784   0.261   5.643   2.035
  940TIP3    H2 2785   0.306   5.600   2.173
  941TIP3   OH2 2786   7.207   6.272   4.939
  941TIP3    H1 2787   7.146   6.204   4.969
  941TIP3    H2 2788   7.217   6.255   4.846
  942TIP3   OH2 2789   2.371   3.068   5.206
  942TIP3    H1 2790   2.322   3.028   5.134
  942TIP3    H2 2791   2.305   3.080   5.275
  943TIP3   OH2 2792   3.889   5.905   0.683
  943TIP3    H1 2793   3.893   5.827   0.628
  943TIP3    H2 2794   3.974   5.948   0.668
  944TIP3   OH2 2795   4.946   1.355   3.483
  944TIP3    H1 2796   4.963   1.260   3.482
  944TIP3    H2 2797   4.993   1.386   3.561
  945TIP3   OH2 2798   0.276   2.898   2.288
  945TIP3    H1 2799   0.371   2.908   2.293
  945TIP3    H2 2800   0.241   2.976   2.331
  946TIP3   OH2 2801   0.169   2.573   4.691
  946TIP3    H1 2802   0.184   2.668   4.700
  946TIP3    H2 2803   0.108   2.565   4.618
  947TIP3   OH2 2804   6.308   4.870   2.406
  947TIP3    H1 2805   6.330   4.937   2.342
  947TIP3    H2 2806   6.383   4.868   2.465
  948TIP3   OH2 2807   4.392   6.772   1.856
  948TIP3    H1 2808   4.348   6.711   1.797
  948TIP3    H2 2809   4.485   6.756   1.842
  949TIP3   OH2 2810   3.485   5.099   5.259
  949TIP3    H1 2811   3.493   5.099   5.164
  949TIP3    H2 2812   3.457   5.010   5.280
  950TIP3   OH2 2813   0.933   0.829   5.073
  950TIP3    H1 2814   0.909   0.850   5.163
  950TIP3    H2 2815   1.018   0.786   5.081
  951TIP3   OH2 2816   4.192   1.476   3.174
  951TIP3    H1 2817   4.100   1.454   3.185
  951TIP3    H2 2818   4.239   1.394   3.188
  952TIP3   OH2 2819   0.436   4.798   0.007
  952TIP3    H1 2820   0.520   4.842   0.023
  952TIP3    H2 2821   0.372   4.850   0.055
  953TIP3   OH2 2822   6.608   1.894   3.770
  953TIP3    H1 2823   6.525   1.883   3.815
  953TIP3    H2 2824   6.622   1.988   3.768
  954TIP3   OH2 2825   2.127   1.565   2.460
  954TIP3    H1 2826   2.197   1.603   2.408
  954TIP3    H2 2827   2.048   1.576   2.407
  955TIP3   OH2 2828   2.673   0.903   3.829
  955TIP3    H1 2829   2.694   0.973   3.768
  955TIP3    H2 2830   2.752   0.849   3.832
  956TIP3   OH2 2831   5.554   3.952   2.504
  956TIP3    H1 2832   5.589   3.978   2.590
  956TIP3    H2 2833   5.533   4.035   2.461
  957TIP3   OH2 2834   6.153   4.078   1.249
  957TIP3    H1 2835   6.203   4.157   1.272
  957TIP3    H2 2836   6.082   4.110   1.194
  958TIP3   OH2 2837   1.885   5.807   3.193
  958TIP3    H1 2838   1.969   5.809   3.146
  958TIP3    H2 2839   1.873   5.715   3.216
  959TIP3   OH2 2840   2.414   0.181   1.066
  959TIP3    H1 2841   2.338   0.158   1.120
  959TIP3    H2 2842   2.490   0.153   1.118
  960TIP3   OH2 2843   5.733   6.319   1.229
  960TIP3    H1 2844   5.742   6.392   1.290
  960TIP3    H2 2845   5.641   6.321   1.202
  961TIP3   OH2 2846   2.020   3.046   1.647
  961TIP3    H1 2847   1.958   3.115   1.622
  961TIP3    H2 2848   2.105   3.089   1.648
  962TIP3   OH2 2849   3.381   4.727   5.066
  962TIP3    H1 2850   3.337   4.662   5.012
  962TIP3    H2 2851   3.466   4.740   5.024
  963TIP3   OH2 2852   6.704   0.925   1.800
  963TIP3    H1 2853   6.742   0.959   1.881
  963TIP3    H2 2854   6.733   0.986   1.732
  964TIP3   OH2 2855   1.146   4.266   5.567
  964TIP3    H1 2856   1.145   4.294   5.476
  964TIP3    H2 2857   1.238   4.270   5.593
  965TIP3   OH2 2858   1.171   6.194   0.903
  965TIP3    H1 2859   1.099   6.195   0.839
  965TIP3    H2 2860   1.130   6.221   0.985
  966TIP3   OH2 2861   0.190   5.001   3.771
  966TIP3    H1 2862   0.114   4.967   3.817
  966TIP3    H2 2863   0.175   4.978   3.679
  967TIP3   OH2 2864   5.278   2.679   4.596
  967TIP3    H1 2865   5.370   2.693   4.616
  967TIP3    H2 2866   5.274   2.677   4.500
  968TIP3   OH2 2867   4.808   6.394   0.284
  968TIP3    H1 2868   4.746   6.423   0.351
  968TIP3    H2 2869   4.887   6.445   0.301
  969TIP3   OH2 2870   5.128   6.271   3.771
  969TIP3    H1 2871   5.131   6.330   3.847
  969TIP3    H2 2872   5.063   6.205   3.794
  970TIP3   OH2 2873   4.503   1.485   3.497
  970TIP3    H1 2874   4.494   1.529   3.413
  970TIP3    H2 2875   4.448   1.535   3.556
  971TIP3   OH2 2876   3.773   3.121   0.733
  971TIP3    H1 2877   3.846   3.181   0.754
  971TIP3    H2 2878   3.720   3.119   0.813
  972TIP3   OH2 2879   0.383   2.368   1.729
  972TIP3    H1 2880   0.358   2.425   1.803
  972TIP3    H2 2881   0.478   2.376   1.725
  973TIP3   OH2 2882   2.276   2.069   5.587
  973TIP3    H1 2883   2.291   1.976   5.573
  973TIP3    H2 2884   2.222   2.073   5.666
  974TIP3   OH2 2885   6.107   3.525   3.314
  974TIP3    H1 2886   6.058   3.560   3.389
  974TIP3    H2 2887   6.096   3.590   3.245
  975TIP3   OH2 2888   6.018   4.599   3.509
  975TIP3    H1 2889   5.971   4.574   3.588
  975TIP3    H2 2890   6.074   4.523   3.489
  976TIP3   OH2 2891   2.516   1.363   5.022
  976TIP3    H1 2892   2.464   1.397   4.950
  976TIP3    H2 2893   2.522   1.436   5.084
  977TIP3   OH2 2894   1.030   0.474   1.890
  977TIP3    H1 2895   1.109   0.435   1.928
  977TIP3    H2 2896   0.976   0.399   1.864
  978TIP3   OH2 2897   1.912   5.775   2.810
  978TIP3    H1 2898   1.818   5.781   2.789
  978TIP3    H2 2899   1.933   5.682   2.800
  979TIP3   OH2 2900   1.083   2.561   2.126
  979TIP3    H1 2901   1.016   2.589   2.063
  979TIP3    H2 2902   1.035   2.547   2.207
  980TIP3   OH2 2903   1.903   3.632   3.422
  980TIP3    H1 2904   1.864   3.688   3.489
  980TIP3    H2 2905   1.996   3.629   3.445
  981TIP3   OH2 2906   6.705   1.018   5.441
  981TIP3    H1 2907   6.733   0.946   5.497
  981TIP3    H2 2908   6.774   1.023   5.374
  982TIP3   OH2 2909   6.542   6.023   5.198
  982TIP3    H1 2910   6.627   6.055   5.166
  982TIP3    H2 2911   6.480   6.050   5.131
  983TIP3   OH2 2912   1.123   4.977   1.264
  983TIP3    H1 2913   1.069   4.904   1.233
  983TIP3    H2 2914   1.080   5.005   1.345
  984TIP3   OH2 2915   1.262   1.898   4.793
  984TIP3    H1 2916   1.244   1.964   4.860
  984TIP3    H2 2917   1.242   1.942   4.711
  985TIP3   OH2 2918   3.106   4.745   1.055
  985TIP3    H1 2919   3.010   4.742   1.062
  985TIP3    H2 2920   3.137   4.726   1.143
  986TIP3   OH2 2921   3.207   0.748   4.437
  986TIP3    H1 2922   3.211   0.680   4.371
  986TIP3    H2 2923   3.126   0.731   4.485
  987TIP3   OH2 2924   1.892   6.066   5.030
  987TIP3    H1 2925   1.976   6.051   5.075
  987TIP3    H2 2926   1.896   6.157   5.001
  988TIP3   OH2 2927   1.993   0.023   5.545
  988TIP3    H1 2928   2.030  -0.020   5.467
  988TIP3    H2 2929   1.899   0.026   5.528
  989TIP3   OH2 2930   4.687   5.605   3.714
  989TIP3    H1 2931   4.726   5.667   3.775
  989TIP3    H2 2932   4.615   5.654   3.673
  990TIP3   OH2 2933   5.825   2.115   0.960
  990TIP3    H1 2934   5.735   2.112   0.993
  990TIP3    H2 2935   5.815   2.122   0.865
  991TIP3   OH2 2936   5.192   5.958   3.963
  991TIP3    H1 2937   5.171   5.923   3.876
  991TIP3    H2 2938   5.256   6.028   3.945
  992TIP3   OH2 2939   6.122   3.549   1.272
  992TIP3    H1 2940   6.055   3.519   1.334
  992TIP3    H2 2941   6.130   3.642   1.289
  993TIP3   OH2 2942   6.583   2.341   5.848
  993TIP3    H1 2943   6.569   2.435   5.863
  993TIP3    H2 2944   6.646   2.316   5.915
  994TIP3   OH2 2945   5.371   1.827   3.048
  994TIP3    H1 2946   5.294   1.856   2.999
  994TIP3    H2 2947   5.366   1.874   3.131
  995TIP3   OH2 2948   4.087   0.351   0.082
  995TIP3    H1 2949   4.090   0.366   0.177
  995TIP3    H2 2950   4.040   0.268   0.073
  996TIP3   OH2 2951   0.149   1.783   5.091
  996TIP3    H1 2952   0.130   1.693   5.064
  996TIP3    H2 2953   0.204   1.819   5.022
  997TIP3   OH2 2954   1.830   4.570   4.621
  997TIP3    H1 2955   1.787   4.609   4.697
  997TIP3    H2 2956   1.924   4.579   4.639
  998TIP3   OH2 2957   6.333   4.153   5.687
  998TIP3    H1 2958   6.360   4.095   5.616
  998TIP3    H2 2959   6.238   4.145   5.689
  999TIP3   OH2 2960   2.428   2.681   3.205
  999TIP3    H1 2961   2.412   2.649   3.116
  999TIP3    H2 2962   2.358   2.642   3.257
 1000TIP3   OH2 2963   6.611   2.081   3.552
 1000TIP3    H1 2964   6.610   2.115   3.462
 1000TIP3    H2 2965   6.589   1.988   3.542
 1001TIP3   OH2 2966   1.929   0.376   2.420
 1001TIP3    H1 2967   1.931   0.345   2.329
 1001TIP3    H2 2968   1.990   0.317   2.465
 1002TIP3   OH2 2969   4.716   5.746   5.597
 1002TIP3    H1 2970   4.621   5.745   5.590
 1002TIP3    H2 2971   4.741   5.837   5.581
 1003TIP3   OH2 2972   5.626   5.370   5.212
 1003TIP3    H1 2973   5.603   5.314   5.286
 1003TIP3    H2 2974   5.580   5.452   5.229
 1004TIP3   OH2 2975   3.021   3.926   4.731
 1004TIP3    H1 2976   3.070   3.881   4.663
 1004TIP3    H2 2977   2.940   3.876   4.741
 1005TIP3   OH2 2978   6.491  -0.013   0.195
 1005TIP3    H1 2979   6.567   0.027   0.236
 1005TIP3    H2 2980   6.431   0.060   0.179
 1006TIP3   OH2 2981   4.427   5.586   1.434
 1006TIP3    H1 2982   4.484   5.641   1.380
 1006TIP3    H2 2983   4.452   5.606   1.524
 1007TIP3   OH2 2984   2.226   1.564   1.873
 1007TIP3    H1 2985   2.156   1.566   1.807
 1007TIP3    H2 2986   2.194   1.505   1.941
 1008TIP3   OH2 2987   4.768   5.269   1.379
 1008TIP3    H1 2988   4.783   5.180   1.409
 1008TIP3    H2 2989   4.707   5.306   1.443
 1009TIP3   OH2 2990   1.915   1.750   0.559
 1009TIP3    H1 2991   1.941   1.665   0.523
 1009TIP3    H2 2992   1.821   1.756   0.540
 1010TIP3   OH2 2993   5.091   6.496   2.607
 1010TIP3    H1 2994   5.092   6.440   2.685
 1010TIP3    H2 2995   5.151   6.567   2.628
 1011TIP3   OH2 2996   0.171   3.592   3.689
 1011TIP3    H1 2997   0.256   3.551   3.708
 1011TIP3    H2 2998   0.160   3.656   3.759
 1012TIP3   OH2 2999   6.656   5.720   0.579
 1012TIP3    H1 3000   6.746   5.730   0.609
 1012TIP3    H2 3001   6.612   5.801   0.604
 1013TIP3   OH2 3002   5.090   0.384   0.023
 1013TIP3    H1 3003   5.126   0.330  -0.048
 1013TIP3    H2 3004   5.166   0.412   0.073
 1014TIP3   OH2 3005   5.369   2.000   3.964
 1014TIP3    H1 3006   5.328   1.976   4.048
 1014TIP3    H2 3007   5.449   1.948   3.960
 1015TIP3   OH2 3008   4.095   3.359   2.270
 1015TIP3    H1 3009   4.040   3.435   2.248
 1015TIP3    H2 3010   4.185   3.392   2.263
 1016TIP3   OH2 3011   3.469   1.961   0.921
 1016TIP3    H1 3012   3.387   1.976   0.969
 1016TIP3    H2 3013   3.491   1.870   0.938
 1017TIP3   OH2 3014   0.032   3.368   1.647
 1017TIP3    H1 3015   0.042   3.300   1.712
 1017TIP3    H2 3016  -0.020   3.436   1.691
 1018TIP3   OH2 3017   6.801   3.144   4.979
 1018TIP3    H1 3018   6.839   3.095   4.906
 1018TIP3    H2 3019   6.713   3.166   4.950
 1019TIP3   OH2 3020   4.121   3.371   1.665
 1019TIP3    H1 3021   4.145   3.278   1.667
 1019TIP3    H2 3022   4.038   3.372   1.617
 1020TIP3   OH2 3023   1.390   3.689   1.266
 1020TIP3    H1 3024   1.453   3.651   1.205
 1020TIP3    H2 3025   1.356   3.615   1.315
 1021TIP3   OH2 3026   5.555   3.517   2.284
 1021TIP3    H1 3027   5.554   3.613   2.282
 1021TIP3    H2 3028   5.531   3.494   2.374
 1022TIP3   OH2 3029   0.343   0.047   4.022
 1022TIP3    H1 3030   0.395   0.012   4.093
 1022TIP3    H2 3031   0.306  -0.030   3.978
 1023TIP3   OH2 3032   2.773   5.410   2.390
 1023TIP3    H1 3033   2.773   5.392   2.484
 1023TIP3    H2 3034   2.825   5.489   2.380
 1024TIP3   OH2 3035   3.755   6.174   2.069
 1024TIP3    H1 3036   3.781   6.093   2.023
 1024TIP3    H2 3037   3.664   6.188   2.042
 1025TIP3   OH2 3038   3.730   2.902   1.733
 1025TIP3    H1 3039   3.739   2.820   1.685
 1025TIP3    H2 3040   3.681   2.959   1.674
 1026TIP3   OH2 3041   4.347   6.130   1.110
 1026TIP3    H1 3042   4.289   6.202   1.135
 1026TIP3    H2 3043   4.294   6.074   1.054
 1027TIP3   OH2 3044   4.603   1.174   2.439
 1027TIP3    H1 3045   4.690   1.155   2.474
 1027TIP3    H2 3046   4.609   1.151   2.346
 1028TIP3   OH2 3047   3.548   0.775   5.676
 1028TIP3    H1 3048   3.573   0.705   5.615
 1028TIP3    H2 3049   3.626   0.829   5.684
 1029TIP3   OH2 3050   2.425   6.099   0.440
 1029TIP3    H1 3051   2.398   6.031   0.378
 1029TIP3    H2 3052   2.349   6.156   0.447
 1030TIP3   OH2 3053   7.153   3.251   2.282
 1030TIP3    H1 3054   7.143   3.228   2.190
 1030TIP3    H2 3055   7.071   3.225   2.323
 1031TIP3   OH2 3056   6.958   6.651   1.216
 1031TIP3    H1 3057   7.040   6.618   1.253
 1031TIP3    H2 3058   6.935   6.587   1.148
 1032TIP3   OH2 3059   2.346   4.516   2.247
 1032TIP3    H1 3060   2.349   4.438   2.304
 1032TIP3    H2 3061   2.257   4.517   2.212
 1033TIP3   OH2 3062   5.527   3.994   0.205
 1033TIP3    H1 3063   5.497   4.016   0.293
 1033TIP3    H2 3064   5.597   4.056   0.187
 1034TIP3   OH2 3065   4.391   2.234   2.608
 1034TIP3    H1 3066   4.385   2.163   2.671
 1034TIP3    H2 3067   4.444   2.301   2.652
 1035TIP3   OH2 3068   4.920   0.684   5.720
 1035TIP3    H1 3069   4.873   0.668   5.638
 1035TIP3    H2 3070   5.002   0.725   5.693
 1036TIP3   OH2 3071   5.149   6.756   1.193
 1036TIP3    H1 3072   5.235   6.791   1.214
 1036TIP3    H2 3073   5.089   6.829   1.212
 1037TIP3   OH2 3074   5.770   4.961   4.945
 1037TIP3    H1 3075   5.677   4.971   4.963
 1037TIP3    H2 3076   5.781   4.995   4.856
 1038TIP3   OH2 3077   3.261   4.968   1.086
 1038TIP3    H1 3078   3.194   4.900   1.100
 1038TIP3    H2 3079   3.211   5.044   1.057
 1039TIP3   OH2 3080   4.358   3.386   2.443
 1039TIP3    H1 3081   4.389   3.476   2.437
 1039TIP3    H2 3082   4.279   3.390   2.497
 1040TIP3   OH2 3083   0.624   6.212   3.677
 1040TIP3    H1 3084   0.574   6.246   3.603
 1040TIP3    H2 3085   0.643   6.289   3.730
 1041TIP3   OH2 3086   5.610   4.438   0.950
 1041TIP3    H1 3087   5.656   4.463   0.869
 1041TIP3    H2 3088   5.528   4.488   0.947
 1042TIP3   OH2 3089   1.158   5.208   2.089
 1042TIP3    H1 3090   1.125   5.240   2.005
 1042TIP3    H2 3091   1.252   5.197   2.074
 1043TIP3   OH2 3092   1.847   0.928   4.223
 1043TIP3    H1 3093   1.877   0.839   4.241
 1043TIP3    H2 3094   1.756   0.918   4.196
 1044TIP3   OH2 3095   5.413   4.035   4.689
 1044TIP3    H1 3096   5.401   3.969   4.757
 1044TIP3    H2 3097   5.351   4.010   4.620
 1045TIP3   OH2 3098   0.439   6.089   5.693
 1045TIP3    H1 3099   0.509   6.071   5.757
 1045TIP3    H2 3100   0.414   6.180   5.710
 1046TIP3   OH2 3101   1.695   1.933   3.300
 1046TIP3    H1 3102   1.772   1.918   3.355
 1046TIP3    H2 3103   1.674   2.026   3.314
 1047TIP3   OH2 3104   6.122   4.342   2.173
 1047TIP3    H1 3105   6.208   4.304   2.155
 1047TIP3    H2 3106   6.092   4.375   2.089
 1048TIP3   OH2 3107   1.304   6.751   4.832
 1048TIP3    H1 3108   1.359   6.780   4.904
 1048TIP3    H2 3109   1.234   6.816   4.828
 1049TIP3   OH2 3110   4.677   6.345   0.793
 1049TIP3    H1 3111   4.617   6.407   0.833
 1049TIP3    H2 3112   4.764   6.375   0.820
 1050TIP3   OH2 3113   1.128   2.386   3.508
 1050TIP3    H1 3114   1.220   2.359   3.509
 1050TIP3    H2 3115   1.120   2.448   3.580
 1051TIP3   OH2 3116   1.964   6.545   0.843
 1051TIP3    H1 3117   1.875   6.579   0.838
 1051TIP3    H2 3118   2.018   6.615   0.806
 1052TIP3   OH2 3119   0.353   1.419   4.222
 1052TIP3    H1 3120   0.342   1.329   4.190
 1052TIP3    H2 3121   0.412   1.460   4.157
 1053TIP3   OH2 3122   6.612   4.397   0.967
 1053TIP3    H1 3123   6.624   4.393   1.062
 1053TIP3    H2 3124   6.601   4.491   0.949
 1054TIP3   OH2 3125   0.438   0.599   4.909
 1054TIP3    H1 3126   0.493   0.652   4.967
 1054TIP3    H2 3127   0.500   0.557   4.850
 1055TIP3   OH2 3128   3.008   3.608   4.539
 1055TIP3    H1 3129   3.034   3.545   4.605
 1055TIP3    H2 3130   2.918   3.584   4.516
 1056TIP3   OH2 3131   7.000   3.971   3.222
 1056TIP3    H1 3132   7.019   3.893   3.274
 1056TIP3    H2 3133   6.905   3.970   3.211
 1057TIP3   OH2 3134   6.568   6.777   3.297
 1057TIP3    H1 3135   6.576   6.758   3.204
 1057TIP3    H2 3136   6.656   6.801   3.325
 1058TIP3   OH2 3137   1.050   5.245   2.561
 1058TIP3    H1 3138   1.054   5.190   2.639
 1058TIP3    H2 3139   1.125   5.218   2.509
 1059TIP3   OH2 3140   6.817   1.258   1.268
 1059TIP3    H1 3141   6.896   1.257   1.214
 1059TIP3    H2 3142   6.765   1.185   1.235
 1060TIP3   OH2 3143   6.256   1.854   5.533
 1060TIP3    H1 3144   6.179   1.797   5.534
 1060TIP3    H2 3145   6.328   1.797   5.559
 1061TIP3   OH2 3146   5.117   0.946   1.682
 1061TIP3    H1 3147   5.132   0.934   1.589
 1061TIP3    H2 3148   5.178   1.015   1.708
 1062TIP3   OH2 3149   1.722   1.422   0.986
 1062TIP3    H1 3150   1.719   1.446   0.893
 1062TIP3    H2 3151   1.793   1.473   1.022
 1063TIP3   OH2 3152   6.716   2.162   3.284
 1063TIP3    H1 3153   6.758   2.231   3.233
 1063TIP3    H2 3154   6.758   2.081   3.255
 1064TIP3   OH2 3155   1.804   5.606   0.419
 1064TIP3    H1 3156   1.736   5.669   0.395
 1064TIP3    H2 3157   1.762   5.520   0.408
 1065TIP3   OH2 3158   1.331   6.561   3.643
 1065TIP3    H1 3159   1.316   6.490   3.705
 1065TIP3    H2 3160   1.355   6.636   3.697
 1066TIP3   OH2 3161   2.361   5.610   4.885
 1066TIP3    H1 3162   2.351   5.515   4.893
 1066TIP3    H2 3163   2.439   5.621   4.832
 1067TIP3   OH2 3164   0.547   1.227   5.255
 1067TIP3    H1 3165   0.517   1.318   5.250
 1067TIP3    H2 3166   0.498   1.190   5.329
 1068TIP3   OH2 3167   5.789   5.249   1.362
 1068TIP3    H1 3168   5.730   5.211   1.428
 1068TIP3    H2 3169   5.816   5.174   1.309
 1069TIP3   OH2 3170   0.150   5.534   2.571
 1069TIP3    H1 3171   0.093   5.512   2.497
 1069TIP3    H2 3172   0.191   5.451   2.594
 1070TIP3   OH2 3173   5.818   3.916   0.093
 1070TIP3    H1 3174   5.768   3.974   0.035
 1070TIP3    H2 3175   5.791   3.942   0.182
 1071TIP3   OH2 3176   3.946   4.771   3.623
 1071TIP3    H1 3177   3.858   4.748   3.593
 1071TIP3    H2 3178   3.935   4.792   3.716
 1072TIP3   OH2 3179   5.789   1.195   1.754
 1072TIP3    H1 3180   5.733   1.246   1.695
 1072TIP3    H2 3181   5.762   1.104   1.740
 1073TIP3   OH2 3182   4.058   3.527   0.836
 1073TIP3    H1 3183   4.145   3.565   0.846
 1073TIP3    H2 3184   4.028   3.511   0.925
 1074TIP3   OH2 3185   3.551   2.336   5.361
 1074TIP3    H1 3186   3.519   2.376   5.442
 1074TIP3    H2 3187   3.565   2.409   5.302
 1075TIP3   OH2 3188   1.310   4.479   3.703
 1075TIP3    H1 3189   1.320   4.461   3.797
 1075TIP3    H2 3190   1.353   4.564   3.691
 1076TIP3   OH2 3191   0.230   6.581   0.700
 1076TIP3    H1 3192   0.189   6.614   0.621
 1076TIP3    H2 3193   0.214   6.649   0.766
 1077TIP3   OH2 3194   6.479   4.777   1.198
 1077TIP3    H1 3195   6.417   4.837   1.240
 1077TIP3    H2 3196   6.427   4.699   1.178
 1078TIP3   OH2 3197   4.862   1.776   2.848
 1078TIP3    H1 3198   4.888   1.833   2.775
 1078TIP3    H2 3199   4.928   1.791   2.915
 1079TIP3   OH2 3200   7.207   4.540   0.496
 1079TIP3    H1 3201   7.207   4.545   0.591
 1079TIP3    H2 3202   7.143   4.471   0.476
 1080TIP3   OH2 3203   0.005   1.748   2.569
 1080TIP3    H1 3204   0.075   1.687   2.544
 1080TIP3    H2 3205  -0.063   1.692   2.605
 1081TIP3   OH2 3206   5.061   6.417   5.366
 1081TIP3    H1 3207   4.986   6.468   5.398
 1081TIP3    H2 3208   5.034   6.388   5.279
 1082TIP3   OH2 3209   3.247   0.598   2.189
 1082TIP3    H1 3210   3.260   0.505   2.206
 1082TIP3    H2 3211   3.324   0.625   2.139
 1083TIP3   OH2 3212   2.054   2.447   2.466
 1083TIP3    H1 3213   1.969   2.418   2.499
 1083TIP3    H2 3214   2.074   2.525   2.517
 1084TIP3   OH2 3215   6.465   5.492   3.233
 1084TIP3    H1 3216   6.414   5.573   3.227
 1084TIP3    H2 3217   6.410   5.432   3.283
 1085TIP3   OH2 3218   3.251   4.787   3.824
 1085TIP3    H1 3219   3.321   4.784   3.889
 1085TIP3    H2 3220   3.294   4.820   3.745
 1086TIP3   OH2 3221   5.832   5.899   2.386
 1086TIP3    H1 3222   5.744   5.885   2.419
 1086TIP3    H2 3223   5.819   5.953   2.307
 1087TIP3   OH2 3224   7.047   3.682   5.341
 1087TIP3    H1 3225   7.002   3.600   5.320
 1087TIP3    H2 3226   6.986   3.729   5.398
 1088TIP3   OH2 3227   2.971   6.220   1.148
 1088TIP3    H1 3228   2.934   6.181   1.227
 1088TIP3    H2 3229   3.020   6.148   1.108
 1089TIP3   OH2 3230   1.149   1.240   2.463
 1089TIP3    H1 3231   1.236   1.244   2.503
 1089TIP3    H2 3232   1.094   1.200   2.530
 1090TIP3   OH2 3233   4.857   2.955   2.308
 1090TIP3    H1 3234   4.837   2.887   2.244
 1090TIP3    H2 3235   4.828   3.036   2.267
 1091TIP3   OH2 3236   6.807   0.146   1.145
 1091TIP3    H1 3237   6.826   0.075   1.084
 1091TIP3    H2 3238   6.814   0.105   1.232
 1092TIP3   OH2 3239   0.100   1.936   2.727
 1092TIP3    H1 3240   0.108   1.854   2.678
 1092TIP3    H2 3241   0.122   1.913   2.817
 1093TIP3   OH2 3242   0.924   1.246   2.937
 1093TIP3    H1 3243   0.953   1.168   2.889
 1093TIP3    H2 3244   0.858   1.286   2.880
 1094TIP3   OH2 3245   5.900   0.773   3.464
 1094TIP3    H1 3246   5.830   0.709   3.471
 1094TIP3    H2 3247   5.978   0.722   3.443
 1095TIP3   OH2 3248   3.795   5.962   0.068
 1095TIP3    H1 3249   3.756   6.032   0.120
 1095TIP3    H2 3250   3.778   5.882   0.118
 1096TIP3   OH2 3251   0.568   5.603   3.258
 1096TIP3    H1 3252   0.516   5.529   3.290
 1096TIP3    H2 3253   0.633   5.562   3.200
 1097TIP3   OH2 3254   3.266   2.045   0.516
 1097TIP3    H1 3255   3.337   2.028   0.578
 1097TIP3    H2 3256   3.186   2.030   0.567
 1098TIP3   OH2 3257   7.134   6.573   2.268
 1098TIP3    H1 3258   7.145   6.592   2.175
 1098TIP3    H2 3259   7.196   6.502   2.286
 1099TIP3   OH2 3260   4.644   0.484   4.711
 1099TIP3    H1 3261   4.619   0.393   4.723
 1099TIP3    H2 3262   4.725   0.480   4.661
 1100TIP3   OH2 3263   6.028   5.002   4.082
 1100TIP3    H1 3264   6.021   4.984   4.176
 1100TIP3    H2 3265   6.116   5.038   4.071
 1101TIP3   OH2 3266   3.080   2.459  -0.006
 1101TIP3    H1 3267   3.142   2.467   0.066
 1101TIP3    H2 3268   2.994   2.469   0.036
 1102TIP3   OH2 3269   2.976   0.614   3.114
 1102TIP3    H1 3270   3.043   0.679   3.095
 1102TIP3    H2 3271   2.949   0.632   3.204
 1103TIP3   OH2 3272   1.903   3.381   4.924
 1103TIP3    H1 3273   1.881   3.449   4.988
 1103TIP3    H2 3274   1.992   3.355   4.946
 1104TIP3   OH2 3275   1.163   2.483   4.903
 1104TIP3    H1 3276   1.194   2.560   4.950
 1104TIP3    H2 3277   1.194   2.409   4.955
 1105TIP3   OH2 3278   1.148   5.036   3.856
 1105TIP3    H1 3279   1.169   5.093   3.783
 1105TIP3    H2 3280   1.121   5.096   3.926
 1106TIP3   OH2 3281   1.315   0.607   4.929
 1106TIP3    H1 3282   1.377   0.612   4.857
 1106TIP3    H2 3283   1.281   0.517   4.925
 1107TIP3   OH2 3284   4.325   4.116   5.069
 1107TIP3    H1 3285   4.348   4.025   5.048
 1107TIP3    H2 3286   4.373   4.135   5.149
 1108TIP3   OH2 3287   4.791   4.641   3.296
 1108TIP3    H1 3288   4.794   4.578   3.224
 1108TIP3    H2 3289   4.699   4.643   3.323
 1109TIP3   OH2 3290   2.440   4.177   1.634
 1109TIP3    H1 3291   2.393   4.260   1.631
 1109TIP3    H2 3292   2.530   4.199   1.608
 1110TIP3   OH2 3293   2.969   4.878   1.412
 1110TIP3    H1 3294   2.892   4.830   1.382
 1110TIP3    H2 3295   3.041   4.816   1.404
 1111TIP3   OH2 3296   2.621   0.158   1.247
 1111TIP3    H1 3297   2.697   0.213   1.228
 1111TIP3    H2 3298   2.655   0.090   1.305
 1112TIP3   OH2 3299   0.616   5.189   4.258
 1112TIP3    H1 3300   0.560   5.125   4.215
 1112TIP3    H2 3301   0.614   5.164   4.350
 1113TIP3   OH2 3302   2.493   2.169   2.522
 1113TIP3    H1 3303   2.454   2.142   2.605
 1113TIP3    H2 3304   2.422   2.212   2.475
 1114TIP3   OH2 3305   0.706   6.468   5.020
 1114TIP3    H1 3306   0.800   6.452   5.028
 1114TIP3    H2 3307   0.692   6.553   5.062
 1115TIP3   OH2 3308   1.990   2.516   5.779
 1115TIP3    H1 3309   2.063   2.491   5.836
 1115TIP3    H2 3310   1.938   2.436   5.771
 1116TIP3   OH2 3311   1.012   4.502   0.326
 1116TIP3    H1 3312   0.966   4.530   0.246
 1116TIP3    H2 3313   1.041   4.413   0.306
 1117TIP3   OH2 3314   5.868   4.857   5.310
 1117TIP3    H1 3315   5.927   4.871   5.236
 1117TIP3    H2 3316   5.784   4.833   5.271
 1118TIP3   OH2 3317   3.441   2.662   4.125
 1118TIP3    H1 3318   3.451   2.720   4.049
 1118TIP3    H2 3319   3.527   2.624   4.138
 1119TIP3   OH2 3320   3.904   5.511   2.169
 1119TIP3    H1 3321   3.969   5.442   2.158
 1119TIP3    H2 3322   3.891   5.517   2.263
 1120TIP3   OH2 3323   4.326   0.968   5.238
 1120TIP3    H1 3324   4.316   0.973   5.333
 1120TIP3    H2 3325   4.282   1.047   5.206
 1121TIP3   OH2 3326   1.728   0.847   3.463
 1121TIP3    H1 3327   1.685   0.800   3.535
 1121TIP3    H2 3328   1.784   0.781   3.421
 1122TIP3   OH2 3329   6.277   4.725   5.687
 1122TIP3    H1 3330   6.332   4.653   5.655
 1122TIP3    H2 3331   6.208   4.733   5.622
 1123TIP3   OH2 3332   0.528   0.152   1.212
 1123TIP3    H1 3333   0.616   0.147   1.251
 1123TIP3    H2 3334   0.486   0.225   1.259
 1124TIP3   OH2 3335   0.124   2.587   1.655
 1124TIP3    H1 3336   0.204   2.630   1.624
 1124TIP3    H2 3337   0.097   2.531   1.582
 1125TIP3   OH2 3338   1.241   5.803   1.937
 1125TIP3    H1 3339   1.241   5.714   1.902
 1125TIP3    H2 3340   1.148   5.823   1.948
 1126TIP3   OH2 3341   0.749   5.310   1.754
 1126TIP3    H1 3342   0.762   5.278   1.665
 1126TIP3    H2 3343   0.654   5.309   1.767
 1127TIP3   OH2 3344   0.117   2.398   3.655
 1127TIP3    H1 3345   0.136   2.492   3.657
 1127TIP3    H2 3346   0.130   2.369   3.745
 1128TIP3   OH2 3347   6.208   6.053   2.709
 1128TIP3    H1 3348   6.303   6.059   2.700
 1128TIP3    H2 3349   6.195   6.013   2.795
 1129TIP3   OH2 3350   4.285   2.383   4.875
 1129TIP3    H1 3351   4.296   2.422   4.788
 1129TIP3    H2 3352   4.192   2.357   4.878
 1130TIP3   OH2 3353   0.020   3.203   4.283
 1130TIP3    H1 3354   0.065   3.230   4.363
 1130TIP3    H2 3355   0.007   3.284   4.234
 1131TIP3   OH2 3356   4.309   5.354   5.000
 1131TIP3    H1 3357   4.390   5.349   4.951
 1131TIP3    H2 3358   4.255   5.416   4.951
 1132TIP3   OH2 3359   5.978   3.867   1.587
 1132TIP3    H1 3360   6.019   3.820   1.659
 1132TIP3    H2 3361   6.015   3.956   1.593
 1133TIP3   OH2 3362   7.018   4.916   1.774
 1133TIP3    H1 3363   7.089   4.873   1.821
 1133TIP3    H2 3364   7.032   5.010   1.790
 1134TIP3   OH2 3365   4.284   1.917   3.849
 1134TIP3    H1 3366   4.233   1.976   3.793
 1134TIP3    H2 3367   4.265   1.946   3.938
 1135TIP3   OH2 3368   6.714   5.573   2.577
 1135TIP3    H1 3369   6.661   5.511   2.627
 1135TIP3    H2 3370   6.660   5.652   2.572
 1136TIP3   OH2 3371   1.822   0.427   4.694
 1136TIP3    H1 3372   1.786   0.463   4.775
 1136TIP3    H2 3373   1.823   0.332   4.709
 1137TIP3   OH2 3374   1.197   1.217   5.485
 1137TIP3    H1 3375   1.262   1.278   5.520
 1137TIP3    H2 3376   1.203   1.227   5.390
 1138TIP3   OH2 3377   3.498   2.074   2.528
 1138TIP3    H1 3378   3.566   2.141   2.537
 1138TIP3    H2 3379   3.530   2.000   2.579
 1139TIP3   OH2 3380   1.388   6.028   4.115
 1139TIP3    H1 3381   1.298   6.058   4.101
 1139TIP3    H2 3382   1.420   6.082   4.187
 1140TIP3   OH2 3383   0.945   4.042   0.211
 1140TIP3    H1 3384   1.001   3.974   0.174
 1140TIP3    H2 3385   0.888   4.068   0.138
 1141TIP3   OH2 3386   1.536   0.521   1.542
 1141TIP3    H1 3387   1.446   0.491   1.558
 1141TIP3    H2 3388   1.527   0.589   1.475
 1142TIP3   OH2 3389   4.231   0.665   4.031
 1142TIP3    H1 3390   4.284   0.712   3.967
 1142TIP3    H2 3391   4.289   0.651   4.105
 1143TIP3   OH2 3392   2.475   6.021   1.671
 1143TIP3    H1 3393   2.451   6.113   1.672
 1143TIP3    H2 3394   2.565   6.020   1.639
 1144TIP3   OH2 3395   4.566   0.526   0.556
 1144TIP3    H1 3396   4.549   0.620   0.568
 1144TIP3    H2 3397   4.655   0.514   0.589
 1145TIP3   OH2 3398   3.547   5.459   4.774
 1145TIP3    H1 3399   3.464   5.495   4.803
 1145TIP3    H2 3400   3.548   5.474   4.680
 1146TIP3   OH2 3401   0.357   0.530   4.055
 1146TIP3    H1 3402   0.450   0.542   4.036
 1146TIP3    H2 3403   0.314   0.536   3.969
 1147TIP3   OH2 3404   2.042   6.716   5.205
 1147TIP3    H1 3405   1.981   6.784   5.234
 1147TIP3    H2 3406   2.128   6.748   5.230
 1148TIP3   OH2 3407   3.783   4.480   3.302
 1148TIP3    H1 3408   3.833   4.401   3.278
 1148TIP3    H2 3409   3.752   4.462   3.391
 1149TIP3   OH2 3410   1.493   4.770   5.392
 1149TIP3    H1 3411   1.557   4.838   5.413
 1149TIP3    H2 3412   1.430   4.774   5.464
 1150TIP3   OH2 3413   3.598   6.310   5.221
 1150TIP3    H1 3414   3.686   6.274   5.213
 1150TIP3    H2 3415   3.577   6.303   5.314
 1151TIP3   OH2 3416   5.422   3.272   0.554
 1151TIP3    H1 3417   5.493   3.216   0.523
 1151TIP3    H2 3418   5.348   3.250   0.497
 1152TIP3   OH2 3419   6.689   0.413   1.793
 1152TIP3    H1 3420   6.767   0.358   1.792
 1152TIP3    H2 3421   6.720   0.499   1.764
 1153TIP3   OH2 3422   3.056   1.304   0.558
 1153TIP3    H1 3423   3.104   1.266   0.485
 1153TIP3    H2 3424   2.987   1.356   0.517
 1154TIP3   OH2 3425   1.861   3.599   5.126
 1154TIP3    H1 3426   1.802   3.662   5.167
 1154TIP3    H2 3427   1.948   3.622   5.158
 1155TIP3   OH2 3428   2.692   0.284   0.127
 1155TIP3    H1 3429   2.756   0.320   0.188
 1155TIP3    H2 3430   2.627   0.353   0.117
 1156TIP3   OH2 3431   3.409   1.385   2.152
 1156TIP3    H1 3432   3.465   1.396   2.075
 1156TIP3    H2 3433   3.376   1.295   2.145
 1157TIP3   OH2 3434   2.597   1.549   2.937
 1157TIP3    H1 3435   2.507   1.553   2.971
 1157TIP3    H2 3436   2.639   1.628   2.969
 1158TIP3   OH2 3437   2.580   3.371   5.235
 1158TIP3    H1 3438   2.571   3.375   5.140
 1158TIP3    H2 3439   2.495   3.399   5.268
 1159TIP3   OH2 3440   3.469   1.349   0.741
 1159TIP3    H1 3441   3.419   1.418   0.697
 1159TIP3    H2 3442   3.435   1.348   0.830
 1160TIP3   OH2 3443   0.914   5.901   1.422
 1160TIP3    H1 3444   0.835   5.866   1.465
 1160TIP3    H2 3445   0.987   5.865   1.472
 1161TIP3   OH2 3446   7.146   3.804   1.777
 1161TIP3    H1 3447   7.117   3.867   1.711
 1161TIP3    H2 3448   7.237   3.828   1.795
 1162TIP3   OH2 3449   5.370   2.490   0.843
 1162TIP3    H1 3450   5.377   2.497   0.938
 1162TIP3    H2 3451   5.281   2.520   0.824
 1163TIP3   OH2 3452   3.215   3.395   1.691
 1163TIP3    H1 3453   3.219   3.305   1.660
 1163TIP3    H2 3454   3.153   3.393   1.763
 1164TIP3   OH2 3455   5.364   0.292   1.607
 1164TIP3    H1 3456   5.447   0.333   1.584
 1164TIP3    H2 3457   5.299   0.337   1.552
 1165TIP3   OH2 3458   6.083   0.600   5.872
 1165TIP3    H1 3459   6.171   0.571   5.848
 1165TIP3    H2 3460   6.039   0.521   5.904
 1166TIP3   OH2 3461   3.469   4.008   5.296
 1166TIP3    H1 3462   3.473   4.100   5.272
 1166TIP3    H2 3463   3.390   3.975   5.253
 1167TIP3   OH2 3464   4.965   1.987   4.022
 1167TIP3    H1 3465   4.885   2.037   4.003
 1167TIP3    H2 3466   4.959   1.910   3.966
 1168TIP3   OH2 3467   7.092   0.374   3.646
 1168TIP3    H1 3468   7.061   0.415   3.565
 1168TIP3    H2 3469   7.060   0.284   3.641
 1169TIP3   OH2 3470   6.147   4.143   3.356
 1169TIP3    H1 3471   6.108   4.059   3.380
 1169TIP3    H2 3472   6.097   4.171   3.280
 1170TIP3   OH2 3473   3.093   3.733   1.633
 1170TIP3    H1 3474   3.029   3.696   1.572
 1170TIP3    H2 3475   3.041   3.771   1.703
 1171TIP3   OH2 3476   2.534   0.706   2.871
 1171TIP3    H1 3477   2.609   0.753   2.908
 1171TIP3    H2 3478   2.572   0.634   2.822
 1172TIP3   OH2 3479   5.059   5.399   2.549
 1172TIP3    H1 3480   5.040   5.316   2.593
 1172TIP3    H2 3481   5.136   5.381   2.496
 1173TIP3   OH2 3482   0.856   4.368   5.656
 1173TIP3    H1 3483   0.799   4.295   5.631
 1173TIP3    H2 3484   0.926   4.326   5.707
 1174TIP3   OH2 3485   3.948   1.107   0.748
 1174TIP3    H1 3486   3.870   1.160   0.758
 1174TIP3    H2 3487   3.954   1.057   0.830
 1175TIP3   OH2 3488   0.362   2.069   4.889
 1175TIP3    H1 3489   0.341   2.100   4.801
 1175TIP3    H2 3490   0.347   1.974   4.885
 1176TIP3   OH2 3491   2.169   2.994   0.333
 1176TIP3    H1 3492   2.124   3.010   0.416
 1176TIP3    H2 3493   2.129   3.056   0.272
 1177TIP3   OH2 3494   3.096   0.514   4.717
 1177TIP3    H1 3495   3.101   0.589   4.775
 1177TIP3    H2 3496   3.058   0.549   4.636
 1178TIP3   OH2 3497   7.179   2.598   4.513
 1178TIP3    H1 3498   7.120   2.673   4.522
 1178TIP3    H2 3499   7.121   2.523   4.504
 1179TIP3   OH2 3500   0.906   2.347   5.535
 1179TIP3    H1 3501   0.895   2.370   5.627
 1179TIP3    H2 3502   0.823   2.308   5.510
 1180TIP3   OH2 3503   5.962   3.336   5.300
 1180TIP3    H1 3504   5.889   3.316   5.359
 1180TIP3    H2 3505   5.976   3.430   5.311
 1181TIP3   OH2 3506   2.296   2.884   1.437
 1181TIP3    H1 3507   2.274   2.892   1.345
 1181TIP3    H2 3508   2.346   2.963   1.457
 1182TIP3   OH2 3509   5.030   6.173   1.837
 1182TIP3    H1 3510   4.986   6.182   1.921
 1182TIP3    H2 3511   5.119   6.204   1.853
 1183TIP3   OH2 3512   2.250   2.920   2.082
 1183TIP3    H1 3513   2.186   2.959   2.023
 1183TIP3    H2 3514   2.251   2.827   2.058
 1184TIP3   OH2 3515   1.205   3.100   2.176
 1184TIP3    H1 3516   1.194   3.012   2.214
 1184TIP3    H2 3517   1.293   3.099   2.139
 1185TIP3   OH2 3518   6.551   5.801   1.462
 1185TIP3    H1 3519   6.623   5.784   1.523
 1185TIP3    H2 3520   6.476   5.755   1.500
 1186TIP3   OH2 3521   0.060   3.117   5.112
 1186TIP3    H1 3522  -0.033   3.098   5.124
 1186TIP3    H2 3523   0.062   3.194   5.055
 1187TIP3   OH2 3524   7.234   3.723   4.491
 1187TIP3    H1 3525   7.145   3.691   4.505
 1187TIP3    H2 3526   7.256   3.772   4.571
 1188TIP3   OH2 3527   5.930   4.588   4.855
 1188TIP3    H1 3528   5.889   4.673   4.837
 1188TIP3    H2 3529   6.021   4.609   4.874
 1189TIP3   OH2 3530   1.844   6.119   1.708
 1189TIP3    H1 3531   1.909   6.055   1.678
 1189TIP3    H2 3532   1.805   6.077   1.785
 1190TIP3   OH2 3533   3.204   3.282   0.828
 1190TIP3    H1 3534   3.140   3.346   0.797
 1190TIP3    H2 3535   3.287   3.329   0.828
 1191TIP3   OH2 3536   4.551   6.626   0.515
 1191TIP3    H1 3537   4.569   6.586   0.430
 1191TIP3    H2 3538   4.634   6.620   0.562
 1192TIP3   OH2 3539   5.208   1.719   1.560
 1192TIP3    H1 3540   5.177   1.641   1.515
 1192TIP3    H2 3541   5.158   1.791   1.522
 1193TIP3   OH2 3542   3.494   1.502   5.774
 1193TIP3    H1 3543   3.528   1.448   5.702
 1193TIP3    H2 3544   3.407   1.529   5.745
 1194TIP3   OH2 3545   5.001   4.623   0.735
 1194TIP3    H1 3546   4.982   4.598   0.645
 1194TIP3    H2 3547   5.057   4.701   0.728
 1195TIP3   OH2 3548   7.042   3.051   1.840
 1195TIP3    H1 3549   7.002   3.079   1.757
 1195TIP3    H2 3550   7.076   2.963   1.821
 1196TIP3   OH2 3551   6.539   2.451   1.606
 1196TIP3    H1 3552   6.561   2.359   1.623
 1196TIP3    H2 3553   6.520   2.488   1.692
 1197TIP3   OH2 3554   2.989   1.735   2.513
 1197TIP3    H1 3555   2.941   1.667   2.560
 1197TIP3    H2 3556   3.043   1.777   2.579
 1198TIP3   OH2 3557   1.351   3.045   0.171
 1198TIP3    H1 3558   1.343   3.055   0.076
 1198TIP3    H2 3559   1.386   2.957   0.183
 1199TIP3   OH2 3560   3.898   5.713   0.897
 1199TIP3    H1 3561   3.894   5.761   0.814
 1199TIP3    H2 3562   3.961   5.763   0.949
 1200TIP3   OH2 3563   7.034   4.386   2.085
 1200TIP3    H1 3564   6.966   4.359   2.146
 1200TIP3    H2 3565   6.993   4.379   1.998
 1201TIP3   OH2 3566   2.326   4.635   5.843
 1201TIP3    H1 3567   2.386   4.704   5.872
 1201TIP3    H2 3568   2.321   4.575   5.917
 1202TIP3   OH2 3569   3.072   6.129   0.685
 1202TIP3    H1 3570   2.993   6.169   0.648
 1202TIP3    H2 3571   3.116   6.090   0.609
 1203TIP3   OH2 3572   0.546   4.538   4.654
 1203TIP3    H1 3573   0.522   4.568   4.566
 1203TIP3    H2 3574   0.498   4.456   4.665
 1204TIP3   OH2 3575   5.997   2.688   1.082
 1204TIP3    H1 3576   5.964   2.747   1.015
 1204TIP3    H2 3577   5.925   2.627   1.097
 1205TIP3   OH2 3578   5.337   4.660   2.542
 1205TIP3    H1 3579   5.346   4.726   2.611
 1205TIP3    H2 3580   5.317   4.579   2.589
 1206TIP3   OH2 3581   2.584   4.440   2.466
 1206TIP3    H1 3582   2.543   4.522   2.493
 1206TIP3    H2 3583   2.676   4.462   2.453
 1207TIP3   OH2 3584   4.382   4.663   4.423
 1207TIP3    H1 3585   4.302   4.687   4.376
 1207TIP3    H2 3586   4.384   4.722   4.499
 1208TIP3   OH2 3587   0.385   2.114   5.679
 1208TIP3    H1 3588   0.426   2.200   5.669
 1208TIP3    H2 3589   0.324   2.108   5.605
 1209TIP3   OH2 3590   0.234   3.062   0.815
 1209TIP3    H1 3591   0.310   3.100   0.770
 1209TIP3    H2 3592   0.208   3.129   0.879
 1210TIP3   OH2 3593   3.742   3.648   4.240
 1210TIP3    H1 3594   3.812   3.600   4.197
 1210TIP3    H2 3595   3.778   3.673   4.324
 1211TIP3   OH2 3596   0.910   5.467   1.885
 1211TIP3    H1 3597   1.003   5.444   1.885
 1211TIP3    H2 3598   0.870   5.407   1.822
 1212TIP3   OH2 3599   3.335   6.513   4.155
 1212TIP3    H1 3600   3.355   6.473   4.240
 1212TIP3    H2 3601   3.264   6.459   4.119
 1213TIP3   OH2 3602   5.975   6.666   2.372
 1213TIP3    H1 3603   6.057   6.676   2.421
 1213TIP3    H2 3604   6.003   6.639   2.284
 1214TIP3   OH2 3605   4.168   5.611   5.305
 1214TIP3    H1 3606   4.134   5.536   5.256
 1214TIP3    H2 3607   4.199   5.672   5.238
 1215TIP3   OH2 3608   6.661   2.528   1.113
 1215TIP3    H1 3609   6.599   2.542   1.041
 1215TIP3    H2 3610   6.606   2.520   1.191
 1216TIP3   OH2 3611   2.930   6.629   1.529
 1216TIP3    H1 3612   2.853   6.648   1.477
 1216TIP3    H2 3613   3.003   6.660   1.475
 1217TIP3   OH2 3614   3.700   0.664   0.629
 1217TIP3    H1 3615   3.682   0.589   0.686
 1217TIP3    H2 3616   3.712   0.625   0.542
 1218TIP3   OH2 3617   6.381   0.022   1.929
 1218TIP3    H1 3618   6.409   0.035   1.838
 1218TIP3    H2 3619   6.292   0.059   1.932
 1219TIP3   OH2 3620   6.942   6.228   2.511
 1219TIP3    H1 3621   6.999   6.257   2.583
 1219TIP3    H2 3622   6.905   6.308   2.476
 1220TIP3   OH2 3623   2.016   6.327   1.015
 1220TIP3    H1 3624   2.065   6.268   0.957
 1220TIP3    H2 3625   1.991   6.400   0.958
 1221TIP3   OH2 3626   0.307   3.348   3.261
 1221TIP3    H1 3627   0.380   3.408   3.277
 1221TIP3    H2 3628   0.264   3.338   3.346
 1222TIP3   OH2 3629   5.819   4.341   4.894
 1222TIP3    H1 3630   5.865   4.300   4.968
 1222TIP3    H2 3631   5.863   4.426   4.883
 1223TIP3   OH2 3632   4.326   3.418   2.821
 1223TIP3    H1 3633   4.405   3.469   2.842
 1223TIP3    H2 3634   4.269   3.481   2.776
 1224TIP3   OH2 3635   2.693   4.137   1.497
 1224TIP3    H1 3636   2.678   4.196   1.424
 1224TIP3    H2 3637   2.779   4.161   1.530
 1225TIP3   OH2 3638   6.991   2.137   4.199
 1225TIP3    H1 3639   6.947   2.131   4.114
 1225TIP3    H2 3640   7.058   2.069   4.197
 1226TIP3   OH2 3641   0.866   4.980   2.382
 1226TIP3    H1 3642   0.942   4.932   2.350
 1226TIP3    H2 3643   0.880   5.070   2.350
 1227TIP3   OH2 3644   5.923   4.693   1.353
 1227TIP3    H1 3645   5.921   4.749   1.276
 1227TIP3    H2 3646   5.856   4.729   1.411
 1228TIP3   OH2 3647   1.445   2.518   0.439
 1228TIP3    H1 3648   1.389   2.540   0.365
 1228TIP3    H2 3649   1.445   2.422   0.441
 1229TIP3   OH2 3650   0.627   4.856   2.873
 1229TIP3    H1 3651   0.688   4.846   2.947
 1229TIP3    H2 3652   0.674   4.909   2.810
 1230TIP3   OH2 3653   4.000   1.171   4.750
 1230TIP3    H1 3654   3.946   1.178   4.671
 1230TIP3    H2 3655   4.087   1.146   4.717
 1231TIP3   OH2 3656   0.013   2.328   4.829
 1231TIP3    H1 3657   0.012   2.403   4.888
 1231TIP3    H2 3658   0.004   2.366   4.741
 1232TIP3   OH2 3659   3.181   5.542   1.463
 1232TIP3    H1 3660   3.160   5.449   1.471
 1232TIP3    H2 3661   3.101   5.587   1.489
 1233TIP3   OH2 3662   0.220   3.698   2.985
 1233TIP3    H1 3663   0.313   3.682   2.969
 1233TIP3    H2 3664   0.181   3.704   2.898
 1234TIP3   OH2 3665   1.216   5.365   0.052
 1234TIP3    H1 3666   1.210   5.414   0.134
 1234TIP3    H2 3667   1.217   5.432  -0.016
 1235TIP3   OH2 3668   1.825   1.622   3.793
 1235TIP3    H1 3669   1.821   1.529   3.770
 1235TIP3    H2 3670   1.792   1.667   3.715
 1236TIP3   OH2 3671   3.018   2.482   1.087
 1236TIP3    H1 3672   3.085   2.422   1.056
 1236TIP3    H2 3673   2.997   2.536   1.010
 1237TIP3   OH2 3674   4.667   1.192   2.975
 1237TIP3    H1 3675   4.673   1.252   2.901
 1237TIP3    H2 3676   4.575   1.165   2.977
 1238TIP3   OH2 3677   2.359   4.305   2.674
 1238TIP3    H1 3678   2.355   4.214   2.646
 1238TIP3    H2 3679   2.310   4.307   2.756
 1239TIP3   OH2 3680   4.878   6.227   1.615
 1239TIP3    H1 3681   4.915   6.201   1.699
 1239TIP3    H2 3682   4.783   6.225   1.627
 1240TIP3   OH2 3683   5.287   2.857   0.067
 1240TIP3    H1 3684   5.205   2.833   0.111
 1240TIP3    H2 3685   5.281   2.951   0.054
 1241TIP3   OH2 3686   3.477   6.675   5.564
 1241TIP3    H1 3687   3.396   6.710   5.603
 1241TIP3    H2 3688   3.504   6.742   5.501
 1242TIP3   OH2 3689   2.648   0.921   2.066
 1242TIP3    H1 3690   2.698   0.869   2.003
 1242TIP3    H2 3691   2.599   0.984   2.013
 1243TIP3   OH2 3692   5.860   4.262   5.754
 1243TIP3    H1 3693   5.767   4.249   5.735
 1243TIP3    H2 3694   5.883   4.341   5.705
 1244TIP3   OH2 3695   6.102   1.913   0.373
 1244TIP3    H1 3696   6.070   1.930   0.285
 1244TIP3    H2 3697   6.197   1.922   0.366
 1245TIP3   OH2 3698   7.183   0.968   5.297
 1245TIP3    H1 3699   7.173   0.885   5.343
 1245TIP3    H2 3700   7.249   1.016   5.347
 1246TIP3   OH2 3701   3.163   2.851   2.364
 1246TIP3    H1 3702   3.156   2.757   2.384
 1246TIP3    H2 3703   3.114   2.893   2.434
 1247TIP3   OH2 3704   4.660   5.652   4.628
 1247TIP3    H1 3705   4.693   5.608   4.550
 1247TIP3    H2 3706   4.709   5.734   4.632
 1248TIP3   OH2 3707   4.968   3.831   0.848
 1248TIP3    H1 3708   5.060   3.819   0.874
 1248TIP3    H2 3709   4.971   3.840   0.753
 1249TIP3   OH2 3710   5.332   6.400   2.814
 1249TIP3    H1 3711   5.352   6.428   2.725
 1249TIP3    H2 3712   5.359   6.474   2.869
 1250TIP3   OH2 3713   0.835   0.315   4.886
 1250TIP3    H1 3714   0.861   0.342   4.974
 1250TIP3    H2 3715   0.894   0.242   4.865
 1251TIP3   OH2 3716   0.856   0.642   3.637
 1251TIP3    H1 3717   0.846   0.707   3.707
 1251TIP3    H2 3718   0.839   0.558   3.680
 1252TIP3   OH2 3719   5.226   5.255   0.682
 1252TIP3    H1 3720   5.132   5.262   0.700
 1252TIP3    H2 3721   5.268   5.282   0.764
 1253TIP3   OH2 3722   1.539   3.926   1.352
 1253TIP3    H1 3723   1.501   3.842   1.327
 1253TIP3    H2 3724   1.465   3.988   1.346
 1254TIP3   OH2 3725   4.718   5.152   0.952
 1254TIP3    H1 3726   4.678   5.235   0.978
 1254TIP3    H2 3727   4.721   5.156   0.857
 1255TIP3   OH2 3728   3.264   0.125   4.493
 1255TIP3    H1 3729   3.282   0.174   4.414
 1255TIP3    H2 3730   3.245   0.036   4.463
 1256TIP3   OH2 3731   3.406   0.565   0.688
 1256TIP3    H1 3732   3.433   0.648   0.727
 1256TIP3    H2 3733   3.380   0.511   0.762
 1257TIP3   OH2 3734   3.798   3.892   0.606
 1257TIP3    H1 3735   3.748   3.818   0.639
 1257TIP3    H2 3736   3.769   3.903   0.515
 1258TIP3   OH2 3737   6.103   5.646   4.361
 1258TIP3    H1 3738   6.089   5.696   4.441
 1258TIP3    H2 3739   6.108   5.555   4.390
 1259TIP3   OH2 3740   6.368   0.612   5.086
 1259TIP3    H1 3741   6.430   0.647   5.151
 1259TIP3    H2 3742   6.295   0.579   5.138
 1260TIP3   OH2 3743   4.623   6.485   3.915
 1260TIP3    H1 3744   4.580   6.404   3.888
 1260TIP3    H2 3745   4.688   6.457   3.980
 1261TIP3   OH2 3746   4.580   1.424   2.136
 1261TIP3    H1 3747   4.594   1.470   2.218
 1261TIP3    H2 3748   4.490   1.393   2.140
 1262TIP3   OH2 3749   4.108   6.043   0.714
 1262TIP3    H1 3750   4.182   6.032   0.774
 1262TIP3    H2 3751   4.143   6.097   0.643
 1263TIP3   OH2 3752   2.613   0.824   5.190
 1263TIP3    H1 3753   2.521   0.842   5.212
 1263TIP3    H2 3754   2.648   0.782   5.268
 1264TIP3   OH2 3755   1.747   0.517   0.013
 1264TIP3    H1 3756   1.670   0.463  -0.005
 1264TIP3    H2 3757   1.814   0.455   0.041
 1265TIP3   OH2 3758   0.633   4.296   1.368
 1265TIP3    H1 3759   0.562   4.279   1.306
 1265TIP3    H2 3760   0.700   4.231   1.345
 1266TIP3   OH2 3761   5.110   1.444   4.430
 1266TIP3    H1 3762   5.059   1.377   4.385
 1266TIP3    H2 3763   5.192   1.449   4.381
 1267TIP3   OH2 3764   6.964   4.421   0.835
 1267TIP3    H1 3765   6.946   4.337   0.876
 1267TIP3    H2 3766   6.931   4.486   0.897
 1268TIP3   OH2 3767   3.270   4.579   5.637
 1268TIP3    H1 3768   3.336   4.571   5.569
 1268TIP3    H2 3769   3.313   4.548   5.716
 1269TIP3   OH2 3770   7.054   0.538   5.038
 1269TIP3    H1 3771   7.016   0.619   5.003
 1269TIP3    H2 3772   6.998   0.515   5.112
 1270TIP3   OH2 3773   1.565   0.596   2.410
 1270TIP3    H1 3774   1.581   0.550   2.492
 1270TIP3    H2 3775   1.652   0.614   2.374
 1271TIP3   OH2 3776   2.071   3.467   0.899
 1271TIP3    H1 3777   2.068   3.536   0.965
 1271TIP3    H2 3778   2.160   3.472   0.864
 1272TIP3   OH2 3779   5.982   4.552   5.164
 1272TIP3    H1 3780   6.062   4.531   5.116
 1272TIP3    H2 3781   5.911   4.534   5.102
 1273TIP3   OH2 3782   1.049   2.935   4.201
 1273TIP3    H1 3783   1.080   2.961   4.288
 1273TIP3    H2 3784   1.121   2.884   4.164
 1274TIP3   OH2 3785   2.798   5.294   0.434
 1274TIP3    H1 3786   2.892   5.285   0.423
 1274TIP3    H2 3787   2.786   5.312   0.528
 1275TIP3   OH2 3788   5.248   1.902   4.179
 1275TIP3    H1 3789   5.293   1.864   4.255
 1275TIP3    H2 3790   5.163   1.931   4.213
 1276TIP3   OH2 3791   3.175   2.832   4.276
 1276TIP3    H1 3792   3.214   2.777   4.344
 1276TIP3    H2 3793   3.088   2.854   4.310
 1277TIP3   OH2 3794   5.238   4.633   0.413
 1277TIP3    H1 3795   5.196   4.691   0.476
 1277TIP3    H2 3796   5.173   4.621   0.343
 1278TIP3   OH2 3797   2.952   6.762   5.005
 1278TIP3    H1 3798   3.032   6.813   4.994
 1278TIP3    H2 3799   2.975   6.674   4.977
 1279TIP3   OH2 3800   6.699   1.256   4.477
 1279TIP3    H1 3801   6.690   1.287   4.387
 1279TIP3    H2 3802   6.707   1.161   4.469
 1280TIP3   OH2 3803   1.334   1.168   0.236
 1280TIP3    H1 3804   1.297   1.254   0.256
 1280TIP3    H2 3805   1.371   1.178   0.148
 1281TIP3   OH2 3806   6.157   1.692   5.239
 1281TIP3    H1 3807   6.215   1.762   5.209
 1281TIP3    H2 3808   6.093   1.682   5.168
 1282TIP3   OH2 3809   2.889   1.191   3.264
 1282TIP3    H1 3810   2.951   1.228   3.327
 1282TIP3    H2 3811   2.812   1.248   3.271
 1283TIP3   OH2 3812   7.133   4.800   0.071
 1283TIP3    H1 3813   7.140   4.709   0.100
 1283TIP3    H2 3814   7.110   4.793  -0.022
 1284TIP3   OH2 3815   0.277   3.704   2.417
 1284TIP3    H1 3816   0.311   3.656   2.342
 1284TIP3    H2 3817   0.349   3.760   2.444
 1285TIP3   OH2 3818   5.180   2.487   2.579
 1285TIP3    H1 3819   5.214   2.403   2.611
 1285TIP3    H2 3820   5.246   2.551   2.607
 1286TIP3   OH2 3821   2.367   3.749   1.720
 1286TIP3    H1 3822   2.339   3.834   1.685
 1286TIP3    H2 3823   2.415   3.708   1.649
 1287TIP3   OH2 3824   4.854   4.461   4.095
 1287TIP3    H1 3825   4.935   4.422   4.060
 1287TIP3    H2 3826   4.819   4.513   4.023
 1288TIP3   OH2 3827   6.847   3.927   0.622
 1288TIP3    H1 3828   6.858   3.902   0.714
 1288TIP3    H2 3829   6.758   3.900   0.600
 1289TIP3   OH2 3830   1.236   1.169   1.809
 1289TIP3    H1 3831   1.206   1.086   1.774
 1289TIP3    H2 3832   1.216   1.164   1.903
 1290TIP3   OH2 3833   5.983   2.043   4.091
 1290TIP3    H1 3834   6.045   2.036   4.018
 1290TIP3    H2 3835   6.035   2.021   4.169
 1291TIP3   OH2 3836   6.184   0.089   0.392
 1291TIP3    H1 3837   6.220   0.147   0.459
 1291TIP3    H2 3838   6.229   0.006   0.405
 1292TIP3   OH2 3839   0.238   1.207   5.305
 1292TIP3    H1 3840   0.301   1.212   5.377
 1292TIP3    H2 3841   0.232   1.296   5.272
 1293TIP3   OH2 3842   6.179   0.058   0.104
 1293TIP3    H1 3843   6.136   0.067   0.189
 1293TIP3    H2 3844   6.240   0.131   0.100
 1294TIP3   OH2 3845   4.865   6.259   5.079
 1294TIP3    H1 3846   4.810   6.226   5.008
 1294TIP3    H2 3847   4.822   6.230   5.159
 1295TIP3   OH2 3848   4.561   2.102   1.445
 1295TIP3    H1 3849   4.595   2.137   1.363
 1295TIP3    H2 3850   4.481   2.056   1.421
 1296TIP3   OH2 3851   6.847   5.416   0.346
 1296TIP3    H1 3852   6.780   5.484   0.352
 1296TIP3    H2 3853   6.870   5.414   0.253
 1297TIP3   OH2 3854   1.184   1.006   0.784
 1297TIP3    H1 3855   1.253   0.942   0.766
 1297TIP3    H2 3856   1.163   1.043   0.698
 1298TIP3   OH2 3857   6.026   2.262   5.525
 1298TIP3    H1 3858   5.942   2.232   5.490
 1298TIP3    H2 3859   6.023   2.357   5.516
 1299TIP3   OH2 3860   1.289   0.643   2.030
 1299TIP3    H1 3861   1.338   0.696   1.968
 1299TIP3    H2 3862   1.354   0.586   2.071
 1300TIP3   OH2 3863   3.686   0.280   1.309
 1300TIP3    H1 3864   3.760   0.240   1.263
 1300TIP3    H2 3865   3.723   0.315   1.389
 1301TIP3   OH2 3866   2.967   6.029   2.850
 1301TIP3    H1 3867   2.895   5.994   2.903
 1301TIP3    H2 3868   3.027   6.069   2.914
 1302TIP3   OH2 3869   5.519   4.852   5.435
 1302TIP3    H1 3870   5.562   4.782   5.387
 1302TIP3    H2 3871   5.426   4.829   5.434
 1303TIP3   OH2 3872   1.247   0.133   0.017
 1303TIP3    H1 3873   1.322   0.169  -0.031
 1303TIP3    H2 3874   1.283   0.059   0.066
 1304TIP3   OH2 3875   2.308   5.101   2.178
 1304TIP3    H1 3876   2.271   5.031   2.232
 1304TIP3    H2 3877   2.402   5.095   2.191
 1305TIP3   OH2 3878   0.285   1.242   3.272
 1305TIP3    H1 3879   0.245   1.168   3.227
 1305TIP3    H2 3880   0.226   1.315   3.256
 1306TIP3   OH2 3881   3.300   4.307   2.328
 1306TIP3    H1 3882   3.345   4.389   2.307
 1306TIP3    H2 3883   3.208   4.331   2.338
 1307TIP3   OH2 3884   0.010   2.199   0.537
 1307TIP3    H1 3885  -0.021   2.266   0.599
 1307TIP3    H2 3886   0.104   2.216   0.528
 1308TIP3   OH2 3887   3.491   1.502   1.435
 1308TIP3    H1 3888   3.510   1.556   1.512
 1308TIP3    H2 3889   3.577   1.482   1.398
 1309TIP3   OH2 3890   4.579   4.921   2.372
 1309TIP3    H1 3891   4.508   4.872   2.330
 1309TIP3    H2 3892   4.538   5.004   2.399
 1310TIP3   OH2 3893   6.690   3.487   2.516
 1310TIP3    H1 3894   6.701   3.562   2.458
 1310TIP3    H2 3895   6.768   3.434   2.503
 1311TIP3   OH2 3896   5.524   5.875   3.337
 1311TIP3    H1 3897   5.547   5.965   3.360
 1311TIP3    H2 3898   5.509   5.832   3.421
 1312TIP3   OH2 3899   6.183   1.027   4.888
 1312TIP3    H1 3900   6.120   0.960   4.861
 1312TIP3    H2 3901   6.151   1.056   4.973
 1313TIP3   OH2 3902   1.119   6.783   3.944
 1313TIP3    H1 3903   1.205   6.743   3.930
 1313TIP3    H2 3904   1.135   6.877   3.948
 1314TIP3   OH2 3905   4.768   0.704   2.917
 1314TIP3    H1 3906   4.774   0.780   2.860
 1314TIP3    H2 3907   4.858   0.671   2.924
 1315TIP3   OH2 3908   0.919   6.500   3.600
 1315TIP3    H1 3909   0.837   6.523   3.644
 1315TIP3    H2 3910   0.978   6.573   3.619
 1316TIP3   OH2 3911   1.259   4.061   0.444
 1316TIP3    H1 3912   1.286   3.989   0.387
 1316TIP3    H2 3913   1.232   4.018   0.525
 1317TIP3   OH2 3914   0.868   5.055   0.767
 1317TIP3    H1 3915   0.957   5.029   0.792
 1317TIP3    H2 3916   0.881   5.116   0.694
 1318TIP3   OH2 3917   2.345   4.270   0.009
 1318TIP3    H1 3918   2.302   4.217  -0.058
 1318TIP3    H2 3919   2.388   4.206   0.066
 1319TIP3   OH2 3920   7.208   3.258   1.384
 1319TIP3    H1 3921   7.197   3.194   1.455
 1319TIP3    H2 3922   7.227   3.340   1.430
 1320TIP3   OH2 3923   1.037   0.116   2.326
 1320TIP3    H1 3924   1.073   0.027   2.333
 1320TIP3    H2 3925   1.106   0.166   2.283
 1321TIP3   OH2 3926   4.485   2.348   4.433
 1321TIP3    H1 3927   4.547   2.275   4.434
 1321TIP3    H2 3928   4.402   2.309   4.461
 1322TIP3   OH2 3929   2.927   1.491   0.257
 1322TIP3    H1 3930   2.910   1.562   0.196
 1322TIP3    H2 3931   2.926   1.532   0.344
 1323TIP3   OH2 3932   6.712   3.196   2.077
 1323TIP3    H1 3933   6.771   3.121   2.091
 1323TIP3    H2 3934   6.629   3.156   2.051
 1324TIP3   OH2 3935   6.994   0.047   5.169
 1324TIP3    H1 3936   7.005  -0.048   5.174
 1324TIP3    H2 3937   6.997   0.065   5.075
 1325TIP3   OH2 3938   1.926   3.783   0.155
 1325TIP3    H1 3939   1.905   3.827   0.073
 1325TIP3    H2 3940   1.890   3.840   0.223
 1326TIP3   OH2 3941   6.316   4.703   3.601
 1326TIP3    H1 3942   6.237   4.663   3.566
 1326TIP3    H2 3943   6.323   4.668   3.690
 1327TIP3   OH2 3944   1.690   1.919   5.340
 1327TIP3    H1 3945   1.612   1.968   5.313
 1327TIP3    H2 3946   1.660   1.829   5.348
 1328TIP3   OH2 3947   0.940   0.583   2.428
 1328TIP3    H1 3948   0.960   0.566   2.336
 1328TIP3    H2 3949   0.947   0.497   2.470
 1329TIP3   OH2 3950   5.849   1.090   3.149
 1329TIP3    H1 3951   5.909   1.132   3.087
 1329TIP3    H2 3952   5.762   1.116   3.118
 1330TIP3   OH2 3953   6.862   5.251   2.935
 1330TIP3    H1 3954   6.837   5.301   3.013
 1330TIP3    H2 3955   6.896   5.169   2.970
 1331TIP3   OH2 3956   1.729   3.731   2.289
 1331TIP3    H1 3957   1.680   3.659   2.330
 1331TIP3    H2 3958   1.674   3.808   2.303
 1332TIP3   OH2 3959   5.413   6.089   2.086
 1332TIP3    H1 3960   5.449   6.148   2.019
 1332TIP3    H2 3961   5.350   6.036   2.039
 1333TIP3   OH2 3962   0.741   4.878   1.096
 1333TIP3    H1 3963   0.675   4.919   1.152
 1333TIP3    H2 3964   0.752   4.940   1.024
 1334TIP3   OH2 3965   1.984   1.701   5.204
 1334TIP3    H1 3966   1.898   1.692   5.245
 1334TIP3    H2 3967   2.011   1.611   5.186
 1335TIP3   OH2 3968   4.534   3.219   4.483
 1335TIP3    H1 3969   4.555   3.204   4.575
 1335TIP3    H2 3970   4.439   3.227   4.481
 1336TIP3   OH2 3971   5.083   2.842   3.806
 1336TIP3    H1 3972   5.041   2.925   3.832
 1336TIP3    H2 3973   5.164   2.869   3.763
 1337TIP3   OH2 3974   7.038   2.930   3.297
 1337TIP3    H1 3975   7.022   2.973   3.213
 1337TIP3    H2 3976   7.125   2.891   3.288
 1338TIP3   OH2 3977   0.692   2.959   3.954
 1338TIP3    H1 3978   0.777   2.998   3.976
 1338TIP3    H2 3979   0.703   2.866   3.970
 1339TIP3   OH2 3980   1.562   5.893   3.900
 1339TIP3    H1 3981   1.488   5.949   3.925
 1339TIP3    H2 3982   1.581   5.841   3.978
 1340TIP3   OH2 3983   1.265   6.614   1.926
 1340TIP3    H1 3984   1.178   6.588   1.958
 1340TIP3    H2 3985   1.324   6.594   1.999
 1341TIP3   OH2 3986   3.907   6.110   5.513
 1341TIP3    H1 3987   3.918   6.117   5.608
 1341TIP3    H2 3988   3.930   6.019   5.493
 1342TIP3   OH2 3989   2.375   0.542   5.364
 1342TIP3    H1 3990   2.335   0.484   5.300
 1342TIP3    H2 3991   2.302   0.570   5.420
 1343TIP3   OH2 3992   4.707   1.231   1.190
 1343TIP3    H1 3993   4.614   1.216   1.172
 1343TIP3    H2 3994   4.742   1.145   1.212
 1344TIP3   OH2 3995   5.075   1.980   1.727
 1344TIP3    H1 3996   5.068   1.982   1.632
 1344TIP3    H2 3997   5.013   1.912   1.754
 1345TIP3   OH2 3998   4.104   3.051   1.196
 1345TIP3    H1 3999   4.047   3.127   1.183
 1345TIP3    H2 4000   4.113   3.044   1.291
 1346TIP3   OH2 4001   0.418   1.756   4.616
 1346TIP3    H1 4002   0.442   1.842   4.583
 1346TIP3    H2 4003   0.446   1.696   4.547
 1347TIP3   OH2 4004   1.854   6.679   5.749
 1347TIP3    H1 4005   1.837   6.602   5.803
 1347TIP3    H2 4006   1.772   6.729   5.751
 1348TIP3   OH2 4007   2.014   3.074   3.552
 1348TIP3    H1 4008   1.963   3.137   3.602
 1348TIP3    H2 4009   2.015   3.108   3.463
 1349TIP3   OH2 4010   2.608   3.495   4.644
 1349TIP3    H1 4011   2.599   3.498   4.740
 1349TIP3    H2 4012   2.626   3.586   4.620
 1350TIP3   OH2 4013   2.710   4.644   3.719
 1350TIP3    H1 4014   2.672   4.662   3.805
 1350TIP3    H2 4015   2.701   4.726   3.672
 1351TIP3   OH2 4016   0.162   6.244   5.167
 1351TIP3    H1 4017   0.125   6.156   5.163
 1351TIP3    H2 4018   0.111   6.295   5.104
 1352TIP3   OH2 4019   5.283   0.756   1.165
 1352TIP3    H1 4020   5.282   0.665   1.134
 1352TIP3    H2 4021   5.272   0.749   1.260
 1353TIP3   OH2 4022   4.484   1.680   4.163
 1353TIP3    H1 4023   4.484   1.597   4.114
 1353TIP3    H2 4024   4.559   1.673   4.222
 1354TIP3   OH2 4025   2.761   4.932   5.041
 1354TIP3    H1 4026   2.715   4.986   4.977
 1354TIP3    H2 4027   2.830   4.889   4.990
 1355TIP3   OH2 4028   2.989   3.397   1.868
 1355TIP3    H1 4029   2.975   3.440   1.952
 1355TIP3    H2 4030   2.943   3.452   1.805
 1356TIP3   OH2 4031   1.318   3.914   3.750
 1356TIP3    H1 4032   1.393   3.879   3.701
 1356TIP3    H2 4033   1.316   4.007   3.727
 1357TIP3   OH2 4034   0.986   5.157   1.550
 1357TIP3    H1 4035   1.006   5.210   1.473
 1357TIP3    H2 4036   0.897   5.123   1.534
 1358TIP3   OH2 4037   3.159   5.030   3.516
 1358TIP3    H1 4038   3.218   5.087   3.468
 1358TIP3    H2 4039   3.103   5.089   3.566
 1359TIP3   OH2 4040   0.940   2.177   4.419
 1359TIP3    H1 4041   0.896   2.259   4.439
 1359TIP3    H2 4042   0.885   2.136   4.352
 1360TIP3   OH2 4043   5.770   0.484   1.899
 1360TIP3    H1 4044   5.724   0.553   1.852
 1360TIP3    H2 4045   5.848   0.526   1.935
 1361TIP3   OH2 4046   6.122   2.091   2.804
 1361TIP3    H1 4047   6.216   2.093   2.822
 1361TIP3    H2 4048   6.081   2.088   2.890
 1362TIP3   OH2 4049   1.397   5.953   5.726
 1362TIP3    H1 4050   1.470   5.894   5.747
 1362TIP3    H2 4051   1.431   6.010   5.657
 1363TIP3   OH2 4052   6.689   2.569   4.102
 1363TIP3    H1 4053   6.681   2.585   4.196
 1363TIP3    H2 4054   6.665   2.477   4.091
 1364TIP3   OH2 4055   2.169   6.559   1.094
 1364TIP3    H1 4056   2.153   6.622   1.024
 1364TIP3    H2 4057   2.132   6.477   1.062
 1365TIP3   OH2 4058   1.478   3.116   2.742
 1365TIP3    H1 4059   1.462   3.099   2.650
 1365TIP3    H2 4060   1.431   3.197   2.761
 1366TIP3   OH2 4061   1.946   2.534   1.941
 1366TIP3    H1 4062   1.949   2.513   1.848
 1366TIP3    H2 4063   1.871   2.485   1.974
 1367TIP3   OH2 4064   2.186   5.738   3.298
 1367TIP3    H1 4065   2.247   5.811   3.313
 1367TIP3    H2 4066   2.166   5.742   3.205
 1368TIP3   OH2 4067   5.357   2.524   5.569
 1368TIP3    H1 4068   5.370   2.541   5.663
 1368TIP3    H2 4069   5.440   2.486   5.539
 1369TIP3   OH2 4070   4.935   3.540   2.937
 1369TIP3    H1 4071   4.897   3.452   2.937
 1369TIP3    H2 4072   4.927   3.569   3.027
 1370TIP3   OH2 4073   7.000   0.410   3.408
 1370TIP3    H1 4074   6.929   0.350   3.385
 1370TIP3    H2 4075   7.032   0.443   3.323
 1371TIP3   OH2 4076   2.591   5.489   5.176
 1371TIP3    H1 4077   2.515   5.484   5.234
 1371TIP3    H2 4078   2.558   5.464   5.090
 1372TIP3   OH2 4079   3.748   1.184   2.143
 1372TIP3    H1 4080   3.786   1.111   2.093
 1372TIP3    H2 4081   3.706   1.142   2.217
 1373TIP3   OH2 4082   0.097   4.086   5.392
 1373TIP3    H1 4083   0.016   4.073   5.345
 1373TIP3    H2 4084   0.074   4.070   5.484
 1374TIP3   OH2 4085   5.564   4.055   3.544
 1374TIP3    H1 4086   5.653   4.059   3.580
 1374TIP3    H2 4087   5.514   4.117   3.596
 1375TIP3   OH2 4088   1.174   5.659   5.002
 1375TIP3    H1 4089   1.101   5.720   5.017
 1375TIP3    H2 4090   1.192   5.622   5.088
 1376TIP3   OH2 4091   3.543   5.873   3.457
 1376TIP3    H1 4092   3.615   5.812   3.470
 1376TIP3    H2 4093   3.581   5.943   3.403
 1377TIP3   OH2 4094   1.369   4.784   2.884
 1377TIP3    H1 4095   1.370   4.747   2.796
 1377TIP3    H2 4096   1.454   4.760   2.921
 1378TIP3   OH2 4097   6.490   5.985   3.048
 1378TIP3    H1 4098   6.536   6.019   2.971
 1378TIP3    H2 4099   6.451   6.062   3.089
 1379TIP3   OH2 4100   3.248   4.555   2.741
 1379TIP3    H1 4101   3.285   4.600   2.664
 1379TIP3    H2 4102   3.221   4.470   2.708
 1380TIP3   OH2 4103   6.146   6.777   1.988
 1380TIP3    H1 4104   6.139   6.703   2.048
 1380TIP3    H2 4105   6.236   6.807   1.997
 1381TIP3   OH2 4106   5.523   4.392   4.404
 1381TIP3    H1 4107   5.493   4.483   4.412
 1381TIP3    H2 4108   5.597   4.397   4.343
 1382TIP3   OH2 4109   4.533   1.604   1.435
 1382TIP3    H1 4110   4.467   1.591   1.504
 1382TIP3    H2 4111   4.612   1.563   1.469
 1383TIP3   OH2 4112   1.457   6.447   2.381
 1383TIP3    H1 4113   1.395   6.378   2.359
 1383TIP3    H2 4114   1.494   6.420   2.465
 1384TIP3   OH2 4115   2.025   1.393   1.243
 1384TIP3    H1 4116   1.967   1.454   1.197
 1384TIP3    H2 4117   1.967   1.323   1.271
 1385TIP3   OH2 4118   3.457   1.119   1.290
 1385TIP3    H1 4119   3.410   1.072   1.220
 1385TIP3    H2 4120   3.388   1.154   1.346
 1386TIP3   OH2 4121   0.915   0.222   5.850
 1386TIP3    H1 4122   0.926   0.260   5.937
 1386TIP3    H2 4123   0.847   0.155   5.862
 1387TIP3   OH2 4124   0.603   0.264   3.380
 1387TIP3    H1 4125   0.510   0.281   3.396
 1387TIP3    H2 4126   0.605   0.224   3.293
 1388TIP3   OH2 4127   2.778   0.304   5.557
 1388TIP3    H1 4128   2.831   0.237   5.601
 1388TIP3    H2 4129   2.770   0.273   5.467
 1389TIP3   OH2 4130   0.984   1.413   1.068
 1389TIP3    H1 4131   0.989   1.467   1.147
 1389TIP3    H2 4132   0.899   1.371   1.072
 1390TIP3   OH2 4133   3.461   4.261   5.205
 1390TIP3    H1 4134   3.478   4.349   5.238
 1390TIP3    H2 4135   3.442   4.274   5.112
 1391TIP3   OH2 4136   2.667   1.786   0.323
 1391TIP3    H1 4137   2.626   1.703   0.346
 1391TIP3    H2 4138   2.737   1.763   0.262
 1392TIP3   OH2 4139   5.557   2.382   4.297
 1392TIP3    H1 4140   5.612   2.312   4.261
 1392TIP3    H2 4141   5.468   2.349   4.287
 1393TIP3   OH2 4142   0.117   0.659   5.772
 1393TIP3    H1 4143   0.091   0.567   5.767
 1393TIP3    H2 4144   0.148   0.679   5.683
 1394TIP3   OH2 4145   2.553   5.252   2.403
 1394TIP3    H1 4146   2.598   5.168   2.413
 1394TIP3    H2 4147   2.624   5.315   2.385
 1395TIP3   OH2 4148   6.159   4.089   0.909
 1395TIP3    H1 4149   6.154   4.082   0.814
 1395TIP3    H2 4150   6.078   4.134   0.934
 1396TIP3   OH2 4151   1.232   2.495   4.611
 1396TIP3    H1 4152   1.309   2.439   4.616
 1396TIP3    H2 4153   1.188   2.484   4.695
 1397TIP3   OH2 4154   6.116   0.253   0.818
 1397TIP3    H1 4155   6.184   0.214   0.762
 1397TIP3    H2 4156   6.129   0.212   0.903
 1398TIP3   OH2 4157   0.900   0.823   0.634
 1398TIP3    H1 4158   0.858   0.867   0.560
 1398TIP3    H2 4159   0.846   0.848   0.710
 1399TIP3   OH2 4160   2.693   4.571   4.860
 1399TIP3    H1 4161   2.669   4.494   4.808
 1399TIP3    H2 4162   2.659   4.551   4.947
 1400TIP3   OH2 4163   3.502   4.085   3.636
 1400TIP3    H1 4164   3.425   4.049   3.681
 1400TIP3    H2 4165   3.501   4.041   3.551
 1401TIP3   OH2 4166   0.670   5.787   3.874
 1401TIP3    H1 4167   0.700   5.719   3.814
 1401TIP3    H2 4168   0.680   5.869   3.826
 1402TIP3   OH2 4169   3.098   0.293   3.793
 1402TIP3    H1 4170   3.099   0.207   3.750
 1402TIP3    H2 4171   3.184   0.300   3.834
 1403TIP3   OH2 4172   0.805   5.448   1.092
 1403TIP3    H1 4173   0.861   5.441   1.015
 1403TIP3    H2 4174   0.717   5.463   1.057
 1404TIP3   OH2 4175   4.201   5.955   2.516
 1404TIP3    H1 4176   4.133   6.010   2.554
 1404TIP3    H2 4177   4.283   5.992   2.549
 1405TIP3   OH2 4178   5.625   0.552   4.228
 1405TIP3    H1 4179   5.705   0.553   4.280
 1405TIP3    H2 4180   5.650   0.587   4.143
 1406TIP3   OH2 4181   6.335   0.309   2.953
 1406TIP3    H1 4182   6.370   0.317   3.041
 1406TIP3    H2 4183   6.333   0.399   2.920
 1407TIP3   OH2 4184   0.982   3.410   1.225
 1407TIP3    H1 4185   1.013   3.322   1.203
 1407TIP3    H2 4186   0.889   3.410   1.199
 1408TIP3   OH2 4187   3.751   0.089   0.259
 1408TIP3    H1 4188   3.682   0.051   0.314
 1408TIP3    H2 4189   3.781   0.165   0.309
 1409TIP3   OH2 4190   4.164   5.229   3.592
 1409TIP3    H1 4191   4.153   5.156   3.530
 1409TIP3    H2 4192   4.175   5.186   3.677
 1410TIP3   OH2 4193   6.191   1.992   4.644
 1410TIP3    H1 4194   6.205   1.998   4.738
 1410TIP3    H2 4195   6.144   1.910   4.632
 1411TIP3   OH2 4196   5.935   3.314   4.279
 1411TIP3    H1 4197   5.915   3.407   4.291
 1411TIP3    H2 4198   5.898   3.271   4.357
 1412TIP3   OH2 4199   5.299   0.039   5.266
 1412TIP3    H1 4200   5.231   0.106   5.264
 1412TIP3    H2 4201   5.307   0.010   5.175
 1413TIP3   OH2 4202   0.296   6.669   4.610
 1413TIP3    H1 4203   0.382   6.707   4.593
 1413TIP3    H2 4204   0.235   6.741   4.600
 1414TIP3   OH2 4205   0.301   3.623   5.617
 1414TIP3    H1 4206   0.211   3.629   5.586
 1414TIP3    H2 4207   0.311   3.532   5.644
 1415TIP3   OH2 4208   7.135   0.717   1.748
 1415TIP3    H1 4209   7.088   0.659   1.809
 1415TIP3    H2 4210   7.096   0.699   1.663
 1416TIP3   OH2 4211   5.689   3.315   4.092
 1416TIP3    H1 4212   5.777   3.322   4.055
 1416TIP3    H2 4213   5.672   3.401   4.130
 1417TIP3   OH2 4214   4.217   1.560   2.266
 1417TIP3    H1 4215   4.286   1.495   2.260
 1417TIP3    H2 4216   4.166   1.549   2.186
 1418TIP3   OH2 4217   4.334   6.478   4.233
 1418TIP3    H1 4218   4.290   6.435   4.307
 1418TIP3    H2 4219   4.272   6.545   4.204
 1419TIP3   OH2 4220   6.793   2.870   5.642
 1419TIP3    H1 4221   6.833   2.955   5.659
 1419TIP3    H2 4222   6.816   2.817   5.719
 1420TIP3   OH2 4223   4.109   6.210   5.766
 1420TIP3    H1 4224   4.074   6.261   5.838
 1420TIP3    H2 4225   4.106   6.269   5.690
 1421TIP3   OH2 4226   0.549   5.700   1.320
 1421TIP3    H1 4227   0.644   5.688   1.315
 1421TIP3    H2 4228   0.538   5.781   1.369
 1422TIP3   OH2 4229   1.224   5.939   2.863
 1422TIP3    H1 4230   1.224   5.843   2.867
 1422TIP3    H2 4231   1.303   5.961   2.814
 1423TIP3   OH2 4232   1.741   5.505   5.424
 1423TIP3    H1 4233   1.754   5.423   5.471
 1423TIP3    H2 4234   1.822   5.518   5.374
 1424TIP3   OH2 4235   5.853   2.588   0.765
 1424TIP3    H1 4236   5.880   2.577   0.674
 1424TIP3    H2 4237   5.792   2.516   0.780
 1425TIP3   OH2 4238   6.434   0.891   0.248
 1425TIP3    H1 4239   6.419   0.815   0.192
 1425TIP3    H2 4240   6.347   0.928   0.261
 1426TIP3   OH2 4241   6.787   5.201   3.299
 1426TIP3    H1 4242   6.752   5.267   3.241
 1426TIP3    H2 4243   6.874   5.233   3.322
 1427TIP3   OH2 4244   5.353   1.511   4.290
 1427TIP3    H1 4245   5.333   1.585   4.348
 1427TIP3    H2 4246   5.448   1.511   4.282
 1428TIP3   OH2 4247   4.926   5.857   3.269
 1428TIP3    H1 4248   4.915   5.784   3.209
 1428TIP3    H2 4249   4.972   5.924   3.217
 1429TIP3   OH2 4250   3.511   1.855   4.837
 1429TIP3    H1 4251   3.431   1.900   4.866
 1429TIP3    H2 4252   3.553   1.917   4.778
 1430TIP3   OH2 4253   2.533   5.513   5.562
 1430TIP3    H1 4254   2.475   5.469   5.500
 1430TIP3    H2 4255   2.596   5.559   5.507
 1431TIP3   OH2 4256   6.860   5.580   5.652
 1431TIP3    H1 4257   6.869   5.546   5.563
 1431TIP3    H2 4258   6.816   5.510   5.700
 1432TIP3   OH2 4259   3.197   5.982   2.169
 1432TIP3    H1 4260   3.130   5.936   2.218
 1432TIP3    H2 4261   3.270   5.921   2.163
 1433TIP3   OH2 4262   0.140   5.196   0.544
 1433TIP3    H1 4263   0.046   5.186   0.527
 1433TIP3    H2 4264   0.151   5.288   0.567
 1434TIP3   OH2 4265   0.409   2.503   5.830
 1434TIP3    H1 4266   0.473   2.510   5.901
 1434TIP3    H2 4267   0.461   2.478   5.753
 1435TIP3   OH2 4268   2.707   0.706   5.416
 1435TIP3    H1 4269   2.786   0.723   5.467
 1435TIP3    H2 4270   2.652   0.652   5.474
 1436TIP3   OH2 4271   1.432   4.257   0.407
 1436TIP3    H1 4272   1.362   4.193   0.416
 1436TIP3    H2 4273   1.513   4.207   0.418
 1437TIP3   OH2 4274   5.051   6.680   5.857
 1437TIP3    H1 4275   4.996   6.759   5.855
 1437TIP3    H2 4276   4.989   6.608   5.868
 1438TIP3   OH2 4277   0.374   6.200   4.949
 1438TIP3    H1 4278   0.405   6.166   5.032
 1438TIP3    H2 4279   0.389   6.129   4.886
 1439TIP3   OH2 4280   2.231   2.914   2.997
 1439TIP3    H1 4281   2.170   2.847   3.029
 1439TIP3    H2 4282   2.314   2.894   3.041
 1440TIP3   OH2 4283   0.280   3.671   4.713
 1440TIP3    H1 4284   0.281   3.755   4.759
 1440TIP3    H2 4285   0.328   3.611   4.770
 1441TIP3   OH2 4286   0.824   4.120   1.280
 1441TIP3    H1 4287   0.866   4.166   1.208
 1441TIP3    H2 4288   0.879   4.138   1.356
 1442TIP3   OH2 4289   4.542   2.364   5.478
 1442TIP3    H1 4290   4.555   2.295   5.412
 1442TIP3    H2 4291   4.463   2.409   5.449
 1443TIP3   OH2 4292   4.340   0.857   0.794
 1443TIP3    H1 4293   4.293   0.893   0.719
 1443TIP3    H2 4294   4.272   0.825   0.853
 1444TIP3   OH2 4295   1.350   6.534   2.831
 1444TIP3    H1 4296   1.296   6.483   2.890
 1444TIP3    H2 4297   1.384   6.605   2.886
 1445TIP3   OH2 4298   4.062   0.793   4.435
 1445TIP3    H1 4299   4.036   0.845   4.511
 1445TIP3    H2 4300   4.117   0.852   4.384
 1446TIP3   OH2 4301   6.754   3.804   2.299
 1446TIP3    H1 4302   6.665   3.773   2.316
 1446TIP3    H2 4303   6.742   3.892   2.264
 1447TIP3   OH2 4304   4.125   5.865   5.151
 1447TIP3    H1 4305   4.137   5.950   5.193
 1447TIP3    H2 4306   4.160   5.877   5.063
 1448TIP3   OH2 4307   5.142   2.583   0.361
 1448TIP3    H1 4308   5.216   2.639   0.387
 1448TIP3    H2 4309   5.067   2.619   0.408
 1449TIP3   OH2 4310   0.662   0.937   0.757
 1449TIP3    H1 4311   0.591   0.922   0.694
 1449TIP3    H2 4312   0.623   0.991   0.825
 1450TIP3   OH2 4313   5.172   6.362   1.655
 1450TIP3    H1 4314   5.212   6.353   1.741
 1450TIP3    H2 4315   5.081   6.386   1.673
 1451TIP3   OH2 4316   1.128   2.752   3.186
 1451TIP3    H1 4317   1.160   2.767   3.274
 1451TIP3    H2 4318   1.111   2.657   3.182
 1452TIP3   OH2 4319   5.691   5.732   3.808
 1452TIP3    H1 4320   5.669   5.731   3.714
 1452TIP3    H2 4321   5.606   5.738   3.852
 1453TIP3   OH2 4322   3.204   6.338   0.812
 1453TIP3    H1 4323   3.218   6.280   0.887
 1453TIP3    H2 4324   3.124   6.305   0.771
 1454TIP3   OH2 4325   5.635   4.101   5.169
 1454TIP3    H1 4326   5.697   4.160   5.212
 1454TIP3    H2 4327   5.641   4.123   5.076
 1455TIP3   OH2 4328   7.018   3.325   1.021
 1455TIP3    H1 4329   7.104   3.312   1.061
 1455TIP3    H2 4330   7.021   3.275   0.939
 1456TIP3   OH2 4331   2.291   4.696   3.389
 1456TIP3    H1 4332   2.287   4.662   3.299
 1456TIP3    H2 4333   2.384   4.714   3.403
 1457TIP3   OH2 4334   3.948   5.125   5.566
 1457TIP3    H1 4335   3.997   5.167   5.495
 1457TIP3    H2 4336   3.857   5.125   5.536
 1458TIP3   OH2 4337   0.455   6.052   4.743
 1458TIP3    H1 4338   0.483   5.962   4.723
 1458TIP3    H2 4339   0.506   6.106   4.683
 1459TIP3   OH2 4340   0.571   2.878   5.257
 1459TIP3    H1 4341   0.595   2.930   5.180
 1459TIP3    H2 4342   0.477   2.894   5.268
 1460TIP3   OH2 4343   6.821   4.552   1.312
 1460TIP3    H1 4344   6.897   4.555   1.370
 1460TIP3    H2 4345   6.772   4.632   1.333
 1461TIP3   OH2 4346   0.268   1.397   4.809
 1461TIP3    H1 4347   0.320   1.325   4.775
 1461TIP3    H2 4348   0.332   1.462   4.838
 1462TIP3   OH2 4349   6.123   4.552   4.344
 1462TIP3    H1 4350   6.035   4.589   4.355
 1462TIP3    H2 4351   6.169   4.572   4.425
 1463TIP3   OH2 4352   7.074   1.853   4.763
 1463TIP3    H1 4353   7.096   1.887   4.676
 1463TIP3    H2 4354   7.032   1.927   4.807
 1464TIP3   OH2 4355   7.086   6.614   0.624
 1464TIP3    H1 4356   7.019   6.654   0.569
 1464TIP3    H2 4357   7.167   6.622   0.574
 1465TIP3   OH2 4358   3.578   2.988   3.314
 1465TIP3    H1 4359   3.510   2.980   3.381
 1465TIP3    H2 4360   3.645   2.926   3.340
 1466TIP3   OH2 4361   1.872   2.220   2.973
 1466TIP3    H1 4362   1.817   2.286   2.931
 1466TIP3    H2 4363   1.869   2.145   2.913
 1467TIP3   OH2 4364   2.363   0.846   1.783
 1467TIP3    H1 4365   2.382   0.758   1.751
 1467TIP3    H2 4366   2.270   0.859   1.762
 1468TIP3   OH2 4367   6.338   0.178   0.645
 1468TIP3    H1 4368   6.408   0.129   0.601
 1468TIP3    H2 4369   6.383   0.233   0.709
 1469TIP3   OH2 4370   0.268   0.953   3.353
 1469TIP3    H1 4371   0.181   0.957   3.313
 1469TIP3    H2 4372   0.263   1.016   3.425
 1470TIP3   OH2 4373   6.815   1.010   0.118
 1470TIP3    H1 4374   6.810   1.103   0.096
 1470TIP3    H2 4375   6.838   0.966   0.036
 1471TIP3   OH2 4376   5.567   4.802   1.279
 1471TIP3    H1 4377   5.479   4.838   1.271
 1471TIP3    H2 4378   5.554   4.708   1.281
 1472TIP3   OH2 4379   0.399   6.105   5.210
 1472TIP3    H1 4380   0.446   6.148   5.282
 1472TIP3    H2 4381   0.319   6.157   5.200
 1473TIP3   OH2 4382   6.119   4.567   2.696
 1473TIP3    H1 4383   6.142   4.483   2.734
 1473TIP3    H2 4384   6.186   4.583   2.629
 1474TIP3   OH2 4385   1.683   2.372   0.855
 1474TIP3    H1 4386   1.713   2.447   0.804
 1474TIP3    H2 4387   1.607   2.339   0.808
 1475TIP3   OH2 4388   1.341   1.949   5.102
 1475TIP3    H1 4389   1.272   1.946   5.168
 1475TIP3    H2 4390   1.401   2.016   5.134
 1476TIP3   OH2 4391   3.124   4.297   4.491
 1476TIP3    H1 4392   3.116   4.274   4.399
 1476TIP3    H2 4393   3.206   4.257   4.519
 1477TIP3   OH2 4394   1.751   5.325   2.687
 1477TIP3    H1 4395   1.761   5.233   2.664
 1477TIP3    H2 4396   1.716   5.366   2.608
 1478TIP3   OH2 4397   5.679   6.411   3.269
 1478TIP3    H1 4398   5.705   6.484   3.214
 1478TIP3    H2 4399   5.757   6.389   3.319
 1479TIP3   OH2 4400   5.293   3.461   3.841
 1479TIP3    H1 4401   5.237   3.416   3.904
 1479TIP3    H2 4402   5.333   3.390   3.791
 1480TIP3   OH2 4403   6.553   0.062   0.501
 1480TIP3    H1 4404   6.569   0.155   0.516
 1480TIP3    H2 4405   6.640   0.022   0.505
 1481TIP3   OH2 4406   6.708   6.773   1.971
 1481TIP3    H1 4407   6.767   6.768   2.046
 1481TIP3    H2 4408   6.677   6.684   1.958
 1482TIP3   OH2 4409   2.838   3.508   1.646
 1482TIP3    H1 4410   2.885   3.578   1.600
 1482TIP3    H2 4411   2.841   3.434   1.585
 1483TIP3   OH2 4412   4.936   2.253   5.783
 1483TIP3    H1 4413   4.974   2.165   5.782
 1483TIP3    H2 4414   4.899   2.262   5.871
 1484TIP3   OH2 4415   4.772   4.170   3.367
 1484TIP3    H1 4416   4.853   4.206   3.331
 1484TIP3    H2 4417   4.709   4.178   3.295
 1485TIP3   OH2 4418   0.318   4.040   4.583
 1485TIP3    H1 4419   0.307   4.045   4.678
 1485TIP3    H2 4420   0.402   3.997   4.571
 1486TIP3   OH2 4421   6.707   5.420   3.914
 1486TIP3    H1 4422   6.740   5.338   3.875
 1486TIP3    H2 4423   6.676   5.394   4.000
 1487TIP3   OH2 4424   2.104   6.036   4.106
 1487TIP3    H1 4425   2.112   6.048   4.012
 1487TIP3    H2 4426   2.078   6.122   4.139
 1488TIP3   OH2 4427   4.490   6.373   2.217
 1488TIP3    H1 4428   4.405   6.372   2.174
 1488TIP3    H2 4429   4.496   6.289   2.262
 1489TIP3   OH2 4430   2.143   3.403   5.092
 1489TIP3    H1 4431   2.146   3.382   5.185
 1489TIP3    H2 4432   2.210   3.348   5.052
 1490TIP3   OH2 4433   0.795   4.976   0.205
 1490TIP3    H1 4434   0.834   5.056   0.241
 1490TIP3    H2 4435   0.866   4.936   0.155
 1491TIP3   OH2 4436   6.629   2.012   4.254
 1491TIP3    H1 4437   6.685   2.077   4.211
 1491TIP3    H2 4438   6.675   1.992   4.335
 1492TIP3   OH2 4439   0.570   2.554   4.183
 1492TIP3    H1 4440   0.568   2.598   4.098
 1492TIP3    H2 4441   0.498   2.491   4.180
 1493TIP3   OH2 4442   0.536   3.068   1.833
 1493TIP3    H1 4443   0.524   3.162   1.847
 1493TIP3    H2 4444   0.496   3.051   1.748
 1494TIP3   OH2 4445   0.664   3.011   3.271
 1494TIP3    H1 4446   0.614   2.948   3.323
 1494TIP3    H2 4447   0.742   2.962   3.244
 1495TIP3   OH2 4448   3.928   5.442   5.463
 1495TIP3    H1 4449   4.007   5.406   5.423
 1495TIP3    H2 4450   3.865   5.449   5.391
 1496TIP3   OH2 4451   5.615   3.790   0.404
 1496TIP3    H1 4452   5.585   3.844   0.331
 1496TIP3    H2 4453   5.628   3.852   0.476
 1497TIP3   OH2 4454   2.806   4.211   0.746
 1497TIP3    H1 4455   2.713   4.191   0.743
 1497TIP3    H2 4456   2.833   4.217   0.655
 1498TIP3   OH2 4457   0.508   2.184   4.182
 1498TIP3    H1 4458   0.459   2.142   4.111
 1498TIP3    H2 4459   0.567   2.116   4.214
 1499TIP3   OH2 4460   3.104   2.110   1.728
 1499TIP3    H1 4461   3.046   2.093   1.803
 1499TIP3    H2 4462   3.045   2.125   1.655
 1500TIP3   OH2 4463   3.974   4.058   0.263
 1500TIP3    H1 4464   4.046   4.061   0.201
 1500TIP3    H2 4465   3.903   4.105   0.220
 1501TIP3   OH2 4466   6.815   2.063   5.844
 1501TIP3    H1 4467   6.837   2.152   5.816
 1501TIP3    H2 4468   6.725   2.050   5.816
 1502TIP3   OH2 4469   2.736   3.707   1.069
 1502TIP3    H1 4470   2.725   3.649   1.144
 1502TIP3    H2 4471   2.772   3.787   1.106
 1503TIP3   OH2 4472   1.676   6.766   2.114
 1503TIP3    H1 4473   1.634   6.683   2.136
 1503TIP3    H2 4474   1.710   6.799   2.197
 1504TIP3   OH2 4475   6.627   2.794   3.652
 1504TIP3    H1 4476   6.635   2.719   3.712
 1504TIP3    H2 4477   6.682   2.771   3.578
 1505TIP3   OH2 4478   3.156   1.811   2.742
 1505TIP3    H1 4479   3.111   1.745   2.796
 1505TIP3    H2 4480   3.183   1.879   2.804
 1506TIP3   OH2 4481   0.063   0.448   5.148
 1506TIP3    H1 4482   0.015   0.514   5.098
 1506TIP3    H2 4483   0.134   0.421   5.090
 1507TIP3   OH2 4484   7.082   4.251   1.646
 1507TIP3    H1 4485   7.143   4.283   1.580
 1507TIP3    H2 4486   7.015   4.203   1.596
 1508TIP3   OH2 4487   5.470   5.574   2.889
 1508TIP3    H1 4488   5.403   5.532   2.943
 1508TIP3    H2 4489   5.512   5.637   2.947
 1509TIP3   OH2 4490   1.979   5.590   3.391
 1509TIP3    H1 4491   2.057   5.635   3.360
 1509TIP3    H2 4492   1.963   5.625   3.478
 1510TIP3   OH2 4493   1.046   5.475   4.735
 1510TIP3    H1 4494   1.116   5.539   4.720
 1510TIP3    H2 4495   1.035   5.474   4.830
 1511TIP3   OH2 4496   5.211   5.375   5.249
 1511TIP3    H1 4497   5.233   5.316   5.321
 1511TIP3    H2 4498   5.240   5.462   5.279
 1512TIP3   OH2 4499   4.486   3.908   1.297
 1512TIP3    H1 4500   4.580   3.896   1.280
 1512TIP3    H2 4501   4.482   3.970   1.369
 1513TIP3   OH2 4502   6.472   1.263   1.345
 1513TIP3    H1 4503   6.543   1.240   1.404
 1513TIP3    H2 4504   6.392   1.245   1.395
 1514TIP3   OH2 4505   4.598   4.452   0.341
 1514TIP3    H1 4506   4.515   4.424   0.378
 1514TIP3    H2 4507   4.600   4.411   0.254
 1515TIP3   OH2 4508   4.027   1.591   2.840
 1515TIP3    H1 4509   3.939   1.563   2.865
 1515TIP3    H2 4510   4.058   1.640   2.916
 1516TIP3   OH2 4511   4.184   3.391   1.366
 1516TIP3    H1 4512   4.177   3.469   1.420
 1516TIP3    H2 4513   4.098   3.350   1.371
 1517TIP3   OH2 4514   4.866   3.910   4.636
 1517TIP3    H1 4515   4.790   3.966   4.653
 1517TIP3    H2 4516   4.881   3.918   4.542
 1518TIP3   OH2 4517   3.939   4.099   3.896
 1518TIP3    H1 4518   3.932   4.053   3.980
 1518TIP3    H2 4519   3.849   4.116   3.870
 1519TIP3   OH2 4520   6.884   0.531   5.261
 1519TIP3    H1 4521   6.893   0.465   5.331
 1519TIP3    H2 4522   6.808   0.502   5.211
 1520TIP3   OH2 4523   6.697   0.072   4.055
 1520TIP3    H1 4524   6.779   0.114   4.027
 1520TIP3    H2 4525   6.671   0.121   4.134
 1521TIP3   OH2 4526   4.795   5.908   4.631
 1521TIP3    H1 4527   4.807   5.998   4.660
 1521TIP3    H2 4528   4.788   5.914   4.536
 1522TIP3   OH2 4529   2.561   4.348   0.325
 1522TIP3    H1 4530   2.618   4.293   0.272
 1522TIP3    H2 4531   2.482   4.360   0.272
 1523TIP3   OH2 4532   6.824   0.040   0.561
 1523TIP3    H1 4533   6.859  -0.049   0.571
 1523TIP3    H2 4534   6.887   0.083   0.503
 1524TIP3   OH2 4535   3.880   2.976   2.433
 1524TIP3    H1 4536   3.837   3.059   2.452
 1524TIP3    H2 4537   3.965   2.983   2.477
 1525TIP3   OH2 4538   2.809   5.645   1.836
 1525TIP3    H1 4539   2.863   5.705   1.887
 1525TIP3    H2 4540   2.749   5.606   1.900
 1526TIP3   OH2 4541   5.039   3.202   2.732
 1526TIP3    H1 4542   4.994   3.126   2.695
 1526TIP3    H2 4543   5.023   3.272   2.669
 1527TIP3   OH2 4544   2.002   5.534   5.712
 1527TIP3    H1 4545   1.939   5.462   5.721
 1527TIP3    H2 4546   1.949   5.609   5.683
 1528TIP3   OH2 4547   6.525   0.696   4.314
 1528TIP3    H1 4548   6.551   0.691   4.222
 1528TIP3    H2 4549   6.434   0.666   4.315
 1529TIP3   OH2 4550   0.408   1.214   5.497
 1529TIP3    H1 4551   0.419   1.127   5.535
 1529TIP3    H2 4552   0.441   1.273   5.565
 1530TIP3   OH2 4553   0.029   0.594   3.680
 1530TIP3    H1 4554  -0.013   0.509   3.672
 1530TIP3    H2 4555   0.002   0.642   3.602
 1531TIP3   OH2 4556   0.246   5.130   1.884
 1531TIP3    H1 4557   0.275   5.046   1.920
 1531TIP3    H2 4558   0.289   5.135   1.799
 1532TIP3   OH2 4559   3.458   4.926   4.548
 1532TIP3    H1 4560   3.543   4.881   4.539
 1532TIP3    H2 4561   3.395   4.854   4.557
 1533TIP3   OH2 4562   6.555   0.479   3.882
 1533TIP3    H1 4563   6.538   0.562   3.837
 1533TIP3    H2 4564   6.588   0.421   3.813
 1534TIP3   OH2 4565   3.426   6.254   2.989
 1534TIP3    H1 4566   3.386   6.266   2.903
 1534TIP3    H2 4567   3.478   6.332   3.003
 1535TIP3   OH2 4568   4.885   3.232   1.325
 1535TIP3    H1 4569   4.974   3.259   1.349
 1535TIP3    H2 4570   4.870   3.272   1.240
 1536TIP3   OH2 4571   2.265   3.920   3.623
 1536TIP3    H1 4572   2.270   3.890   3.714
 1536TIP3    H2 4573   2.247   4.014   3.629
 1537TIP3   OH2 4574   7.148   0.524   2.252
 1537TIP3    H1 4575   7.241   0.512   2.266
 1537TIP3    H2 4576   7.107   0.495   2.334
 1538TIP3   OH2 4577   0.321   0.147   2.848
 1538TIP3    H1 4578   0.361   0.231   2.825
 1538TIP3    H2 4579   0.245   0.141   2.791
 1539TIP3   OH2 4580   3.716   0.359   1.016
 1539TIP3    H1 4581   3.738   0.268   0.992
 1539TIP3    H2 4582   3.623   0.356   1.036
 1540TIP3   OH2 4583   0.781   6.138   1.350
 1540TIP3    H1 4584   0.855   6.182   1.392
 1540TIP3    H2 4585   0.783   6.049   1.385
 1541TIP3   OH2 4586   2.119   1.844   0.372
 1541TIP3    H1 4587   2.034   1.838   0.415
 1541TIP3    H2 4588   2.182   1.854   0.443
 1542TIP3   OH2 4589   3.573   5.603   0.533
 1542TIP3    H1 4590   3.538   5.571   0.449
 1542TIP3    H2 4591   3.555   5.532   0.595
 1543TIP3   OH2 4592   2.671   5.522   2.036
 1543TIP3    H1 4593   2.632   5.434   2.035
 1543TIP3    H2 4594   2.646   5.558   2.120
 1544TIP3   OH2 4595   6.793   6.449   3.088
 1544TIP3    H1 4596   6.809   6.515   3.155
 1544TIP3    H2 4597   6.769   6.371   3.137
 1545TIP3   OH2 4598   5.255   0.128   5.772
 1545TIP3    H1 4599   5.316   0.202   5.765
 1545TIP3    H2 4600   5.312   0.051   5.778
 1546TIP3   OH2 4601   5.211   1.241   4.121
 1546TIP3    H1 4602   5.125   1.237   4.161
 1546TIP3    H2 4603   5.217   1.330   4.086
 1547TIP3   OH2 4604   2.847   0.906   4.274
 1547TIP3    H1 4605   2.809   0.986   4.236
 1547TIP3    H2 4606   2.845   0.921   4.368
 1548TIP3   OH2 4607   4.392   6.669   2.189
 1548TIP3    H1 4608   4.463   6.719   2.147
 1548TIP3    H2 4609   4.312   6.705   2.152
 1549TIP3   OH2 4610   5.858   1.911   4.543
 1549TIP3    H1 4611   5.820   1.831   4.578
 1549TIP3    H2 4612   5.913   1.882   4.470
 1550TIP3   OH2 4613   3.772   0.989   4.736
 1550TIP3    H1 4614   3.766   0.898   4.705
 1550TIP3    H2 4615   3.836   1.030   4.678
 1551TIP3   OH2 4616   1.586   6.023   4.626
 1551TIP3    H1 4617   1.555   5.934   4.611
 1551TIP3    H2 4618   1.562   6.070   4.546
 1552TIP3   OH2 4619   4.823   0.396   1.082
 1552TIP3    H1 4620   4.813   0.301   1.092
 1552TIP3    H2 4621   4.766   0.433   1.150
 1553TIP3   OH2 4622   3.590   2.029   1.267
 1553TIP3    H1 4623   3.629   2.114   1.288
 1553TIP3    H2 4624   3.559   2.039   1.177
 1554TIP3   OH2 4625   4.074   1.220   3.608
 1554TIP3    H1 4626   4.135   1.167   3.556
 1554TIP3    H2 4627   3.992   1.171   3.606
 1555TIP3   OH2 4628   4.995   5.380   0.708
 1555TIP3    H1 4629   4.955   5.420   0.631
 1555TIP3    H2 4630   4.931   5.391   0.777
 1556TIP3   OH2 4631   4.124   2.868   3.469
 1556TIP3    H1 4632   4.188   2.852   3.400
 1556TIP3    H2 4633   4.176   2.876   3.549
 1557TIP3   OH2 4634   2.755   4.338   1.322
 1557TIP3    H1 4635   2.811   4.383   1.260
 1557TIP3    H2 4636   2.748   4.397   1.397
 1558TIP3   OH2 4637   4.922   1.621   2.387
 1558TIP3    H1 4638   4.906   1.594   2.478
 1558TIP3    H2 4639   4.949   1.713   2.394
 1559TIP3   OH2 4640   2.640   6.588   5.257
 1559TIP3    H1 4641   2.617   6.512   5.310
 1559TIP3    H2 4642   2.592   6.661   5.298
 1560TIP3   OH2 4643   5.628   2.607   3.390
 1560TIP3    H1 4644   5.575   2.531   3.416
 1560TIP3    H2 4645   5.568   2.663   3.340
 1561TIP3   OH2 4646   4.165   0.214   2.685
 1561TIP3    H1 4647   4.246   0.231   2.636
 1561TIP3    H2 4648   4.187   0.143   2.745
 1562TIP3   OH2 4649   4.882   2.074   2.167
 1562TIP3    H1 4650   4.914   2.150   2.118
 1562TIP3    H2 4651   4.799   2.052   2.126
 1563TIP3   OH2 4652   2.146   4.588   1.461
 1563TIP3    H1 4653   2.051   4.591   1.465
 1563TIP3    H2 4654   2.166   4.580   1.367
 1564TIP3   OH2 4655   3.622   0.098   5.631
 1564TIP3    H1 4656   3.700   0.118   5.682
 1564TIP3    H2 4657   3.557   0.073   5.696
 1565TIP3   OH2 4658   6.322   5.448   2.282
 1565TIP3    H1 4659   6.354   5.419   2.368
 1565TIP3    H2 4660   6.277   5.530   2.300
 1566TIP3   OH2 4661   6.446   5.048   1.834
 1566TIP3    H1 4662   6.477   5.107   1.765
 1566TIP3    H2 4663   6.371   5.094   1.872
 1567TIP3   OH2 4664   4.219   3.630   3.132
 1567TIP3    H1 4665   4.297   3.576   3.120
 1567TIP3    H2 4666   4.253   3.720   3.135
 1568TIP3   OH2 4667   2.539   3.298   4.236
 1568TIP3    H1 4668   2.553   3.381   4.189
 1568TIP3    H2 4669   2.505   3.239   4.169
 1569TIP3   OH2 4670   4.980   0.478   2.677
 1569TIP3    H1 4671   5.034   0.407   2.643
 1569TIP3    H2 4672   4.918   0.436   2.736
 1570TIP3   OH2 4673   4.633   0.223   3.354
 1570TIP3    H1 4674   4.628   0.158   3.284
 1570TIP3    H2 4675   4.587   0.300   3.320
 1571TIP3   OH2 4676   1.576   3.766   3.984
 1571TIP3    H1 4677   1.495   3.806   4.016
 1571TIP3    H2 4678   1.557   3.741   3.894
 1572TIP3   OH2 4679   5.668   6.827   3.256
 1572TIP3    H1 4680   5.707   6.792   3.337
 1572TIP3    H2 4681   5.576   6.803   3.262
 1573TIP3   OH2 4682   6.577   6.307   1.524
 1573TIP3    H1 4683   6.519   6.381   1.505
 1573TIP3    H2 4684   6.527   6.253   1.585
 1574TIP3   OH2 4685   0.617   5.613   0.304
 1574TIP3    H1 4686   0.649   5.690   0.256
 1574TIP3    H2 4687   0.692   5.555   0.308
 1575TIP3   OH2 4688   1.315   4.687   0.140
 1575TIP3    H1 4689   1.370   4.663   0.215
 1575TIP3    H2 4690   1.306   4.605   0.090
 1576TIP3   OH2 4691   1.584   0.530   5.782
 1576TIP3    H1 4692   1.492   0.531   5.810
 1576TIP3    H2 4693   1.633   0.557   5.860
 1577TIP3   OH2 4694   1.420   0.582   0.923
 1577TIP3    H1 4695   1.408   0.618   1.011
 1577TIP3    H2 4696   1.489   0.515   0.933
 1578TIP3   OH2 4697   1.190   6.528   0.702
 1578TIP3    H1 4698   1.217   6.479   0.779
 1578TIP3    H2 4699   1.095   6.516   0.698
 1579TIP3   OH2 4700   4.415   4.371   5.129
 1579TIP3    H1 4701   4.455   4.293   5.169
 1579TIP3    H2 4702   4.357   4.335   5.062
 1580TIP3   OH2 4703   6.020   4.354   0.072
 1580TIP3    H1 4704   6.113   4.370   0.052
 1580TIP3    H2 4705   6.014   4.258   0.079
 1581TIP3   OH2 4706   1.609   2.855   4.654
 1581TIP3    H1 4707   1.664   2.886   4.726
 1581TIP3    H2 4708   1.532   2.819   4.696
 1582TIP3   OH2 4709   3.983   4.963   3.075
 1582TIP3    H1 4710   4.071   4.973   3.113
 1582TIP3    H2 4711   3.934   4.914   3.141
 1583TIP3   OH2 4712   0.284   5.654   3.451
 1583TIP3    H1 4713   0.334   5.573   3.437
 1583TIP3    H2 4714   0.195   5.632   3.427
 1584TIP3   OH2 4715   0.129   2.886   3.357
 1584TIP3    H1 4716   0.150   2.893   3.451
 1584TIP3    H2 4717   0.204   2.840   3.320
 1585TIP3   OH2 4718   2.203   4.484   3.918
 1585TIP3    H1 4719   2.117   4.455   3.889
 1585TIP3    H2 4720   2.247   4.404   3.947
 1586TIP3   OH2 4721   6.627   4.700   0.957
 1586TIP3    H1 4722   6.599   4.717   1.047
 1586TIP3    H2 4723   6.722   4.694   0.962
 1587TIP3   OH2 4724   5.870   2.219   0.496
 1587TIP3    H1 4725   5.958   2.189   0.516
 1587TIP3    H2 4726   5.877   2.315   0.497
 1588TIP3   OH2 4727   0.200   6.214   3.138
 1588TIP3    H1 4728   0.235   6.217   3.049
 1588TIP3    H2 4729   0.186   6.306   3.161
 1589TIP3   OH2 4730   0.711   6.673   1.753
 1589TIP3    H1 4731   0.689   6.716   1.670
 1589TIP3    H2 4732   0.635   6.618   1.771
 1590TIP3   OH2 4733   6.188   4.813   1.815
 1590TIP3    H1 4734   6.095   4.808   1.793
 1590TIP3    H2 4735   6.191   4.814   1.911
 1591TIP3   OH2 4736   6.865   6.784   3.150
 1591TIP3    H1 4737   6.841   6.837   3.226
 1591TIP3    H2 4738   6.950   6.746   3.172
 1592TIP3   OH2 4739   1.473   3.988   2.328
 1592TIP3    H1 4740   1.438   3.916   2.275
 1592TIP3    H2 4741   1.538   4.030   2.271
 1593TIP3   OH2 4742   4.978   6.349   1.366
 1593TIP3    H1 4743   5.049   6.413   1.376
 1593TIP3    H2 4744   4.978   6.301   1.449
 1594TIP3   OH2 4745   1.145   5.901   4.297
 1594TIP3    H1 4746   1.099   5.857   4.226
 1594TIP3    H2 4747   1.196   5.831   4.339
 1595TIP3   OH2 4748   6.193   4.041   5.014
 1595TIP3    H1 4749   6.189   4.011   4.923
 1595TIP3    H2 4750   6.165   3.965   5.065
 1596TIP3   OH2 4751   1.154   6.353   0.334
 1596TIP3    H1 4752   1.172   6.294   0.408
 1596TIP3    H2 4753   1.206   6.317   0.262
 1597TIP3   OH2 4754   2.667   5.241   5.667
 1597TIP3    H1 4755   2.633   5.281   5.587
 1597TIP3    H2 4756   2.597   5.253   5.731
 1598TIP3   OH2 4757   3.014   6.069   4.753
 1598TIP3    H1 4758   3.103   6.089   4.782
 1598TIP3    H2 4759   3.003   6.121   4.674
 1599TIP3   OH2 4760   0.130   3.470   2.319
 1599TIP3    H1 4761   0.202   3.481   2.257
 1599TIP3    H2 4762   0.111   3.376   2.318
 1600TIP3   OH2 4763   3.791   4.822   1.717
 1600TIP3    H1 4764   3.744   4.902   1.695
 1600TIP3    H2 4765   3.882   4.840   1.695
 1601TIP3   OH2 4766   3.560   6.251   0.806
 1601TIP3    H1 4767   3.585   6.159   0.798
 1601TIP3    H2 4768   3.536   6.262   0.898
 1602TIP3   OH2 4769   3.350   4.922   1.429
 1602TIP3    H1 4770   3.361   4.863   1.354
 1602TIP3    H2 4771   3.308   4.867   1.496
 1603TIP3   OH2 4772   5.461   5.770   4.543
 1603TIP3    H1 4773   5.420   5.706   4.601
 1603TIP3    H2 4774   5.462   5.728   4.457
 1604TIP3   OH2 4775   3.279   6.613  -0.014
 1604TIP3    H1 4776   3.226   6.664   0.047
 1604TIP3    H2 4777   3.283   6.526   0.025
 1605TIP3   OH2 4778   3.480   2.531   1.125
 1605TIP3    H1 4779   3.466   2.618   1.164
 1605TIP3    H2 4780   3.569   2.535   1.091
 1606TIP3   OH2 4781   4.957   3.103   3.839
 1606TIP3    H1 4782   5.033   3.124   3.892
 1606TIP3    H2 4783   4.901   3.051   3.896
 1607TIP3   OH2 4784   2.537   5.742   2.189
 1607TIP3    H1 4785   2.524   5.809   2.256
 1607TIP3    H2 4786   2.529   5.790   2.106
 1608TIP3   OH2 4787   7.146   2.308   2.354
 1608TIP3    H1 4788   7.070   2.363   2.370
 1608TIP3    H2 4789   7.177   2.283   2.441
 1609TIP3   OH2 4790   0.051   0.377   3.070
 1609TIP3    H1 4791   0.041   0.332   2.986
 1609TIP3    H2 4792   0.042   0.308   3.136
 1610TIP3   OH2 4793   5.802   0.313   4.073
 1610TIP3    H1 4794   5.711   0.310   4.104
 1610TIP3    H2 4795   5.797   0.352   3.986
 1611TIP3   OH2 4796   4.721   1.984   3.100
 1611TIP3    H1 4797   4.753   1.977   3.190
 1611TIP3    H2 4798   4.730   1.895   3.065
 1612TIP3   OH2 4799   6.147   2.755   3.442
 1612TIP3    H1 4800   6.116   2.803   3.518
 1612TIP3    H2 4801   6.106   2.799   3.367
 1613TIP3   OH2 4802   0.146   0.085   1.783
 1613TIP3    H1 4803   0.146   0.066   1.877
 1613TIP3    H2 4804   0.160   0.000   1.741
 1614TIP3   OH2 4805   1.834   4.965   4.460
 1614TIP3    H1 4806   1.822   4.872   4.443
 1614TIP3    H2 4807   1.827   5.006   4.374
 1615TIP3   OH2 4808   0.737   6.755   0.742
 1615TIP3    H1 4809   0.713   6.697   0.814
 1615TIP3    H2 4810   0.828   6.780   0.760
 1616TIP3   OH2 4811   5.267   0.788   4.050
 1616TIP3    H1 4812   5.261   0.856   3.983
 1616TIP3    H2 4813   5.197   0.726   4.028
 1617TIP3   OH2 4814   1.823   5.294   5.648
 1617TIP3    H1 4815   1.777   5.247   5.717
 1617TIP3    H2 4816   1.900   5.240   5.628
 1618TIP3   OH2 4817   5.544   0.412   2.098
 1618TIP3    H1 4818   5.481   0.389   2.030
 1618TIP3    H2 4819   5.566   0.328   2.140
 1619TIP3   OH2 4820   3.538   1.523   1.717
 1619TIP3    H1 4821   3.486   1.600   1.695
 1619TIP3    H2 4822   3.530   1.514   1.812
 1620TIP3   OH2 4823   5.202   5.313   4.976
 1620TIP3    H1 4824   5.202   5.334   5.070
 1620TIP3    H2 4825   5.289   5.341   4.945
 1621TIP3   OH2 4826   4.039   0.585   4.640
 1621TIP3    H1 4827   3.959   0.615   4.598
 1621TIP3    H2 4828   4.023   0.594   4.733
 1622TIP3   OH2 4829   1.955   0.881   2.945
 1622TIP3    H1 4830   1.970   0.907   3.036
 1622TIP3    H2 4831   1.860   0.882   2.935
 1623TIP3   OH2 4832   6.533   6.620   2.807
 1623TIP3    H1 4833   6.601   6.553   2.811
 1623TIP3    H2 4834   6.568   6.688   2.751
 1624TIP3   OH2 4835   4.746   1.364   3.209
 1624TIP3    H1 4836   4.769   1.286   3.158
 1624TIP3    H2 4837   4.654   1.381   3.186
 1625TIP3   OH2 4838   0.209   0.094   4.907
 1625TIP3    H1 4839   0.249   0.020   4.952
 1625TIP3    H2 4840   0.215   0.166   4.970
 1626TIP3   OH2 4841   6.865   4.238   4.530
 1626TIP3    H1 4842   6.911   4.267   4.609
 1626TIP3    H2 4843   6.865   4.315   4.472
 1627TIP3   OH2 4844   4.213   4.983   0.642
 1627TIP3    H1 4845   4.158   4.940   0.707
 1627TIP3    H2 4846   4.247   4.912   0.588
 1628TIP3   OH2 4847   4.471   3.536   3.743
 1628TIP3    H1 4848   4.416   3.561   3.669
 1628TIP3    H2 4849   4.547   3.493   3.703
 1629TIP3   OH2 4850   0.705   2.254   5.723
 1629TIP3    H1 4851   0.654   2.233   5.802
 1629TIP3    H2 4852   0.648   2.312   5.673
 1630TIP3   OH2 4853   4.669   2.403   4.089
 1630TIP3    H1 4854   4.579   2.378   4.109
 1630TIP3    H2 4855   4.665   2.496   4.068
 1631TIP3   OH2 4856   5.159   3.755   2.713
 1631TIP3    H1 4857   5.236   3.700   2.728
 1631TIP3    H2 4858   5.125   3.773   2.801
 1632TIP3   OH2 4859   6.153   0.458   4.426
 1632TIP3    H1 4860   6.161   0.409   4.507
 1632TIP3    H2 4861   6.118   0.395   4.363
 1633TIP3   OH2 4862   2.143   1.763   4.849
 1633TIP3    H1 4863   2.180   1.840   4.893
 1633TIP3    H2 4864   2.156   1.780   4.756
 1634TIP3   OH2 4865   4.779   4.558   1.032
 1634TIP3    H1 4866   4.851   4.616   1.057
 1634TIP3    H2 4867   4.717   4.565   1.105
 1635TIP3   OH2 4868   1.885   5.831   2.474
 1635TIP3    H1 4869   1.866   5.842   2.381
 1635TIP3    H2 4870   1.980   5.825   2.479
 1636TIP3   OH2 4871   5.459   2.712   4.283
 1636TIP3    H1 4872   5.545   2.739   4.314
 1636TIP3    H2 4873   5.427   2.788   4.234
 1637TIP3   OH2 4874   2.675   1.957   3.555
 1637TIP3    H1 4875   2.747   1.926   3.610
 1637TIP3    H2 4876   2.596   1.921   3.595
 1638TIP3   OH2 4877   5.797   4.186   4.037
 1638TIP3    H1 4878   5.828   4.106   3.995
 1638TIP3    H2 4879   5.803   4.253   3.969
 1639TIP3   OH2 4880   2.421   1.430   2.443
 1639TIP3    H1 4881   2.394   1.499   2.383
 1639TIP3    H2 4882   2.416   1.349   2.392
 1640TIP3   OH2 4883   1.802   0.893   2.539
 1640TIP3    H1 4884   1.813   0.818   2.481
 1640TIP3    H2 4885   1.709   0.915   2.532
 1641TIP3   OH2 4886   2.684   4.181   2.537
 1641TIP3    H1 4887   2.738   4.242   2.586
 1641TIP3    H2 4888   2.613   4.235   2.501
 1642TIP3   OH2 4889   1.964   3.264   0.766
 1642TIP3    H1 4890   1.879   3.307   0.757
 1642TIP3    H2 4891   2.008   3.311   0.837
 1643TIP3   OH2 4892   5.512   2.833   5.653
 1643TIP3    H1 4893   5.434   2.855   5.704
 1643TIP3    H2 4894   5.485   2.843   5.562
 1644TIP3   OH2 4895   0.076   6.487   3.162
 1644TIP3    H1 4896   0.017   6.500   3.088
 1644TIP3    H2 4897   0.133   6.563   3.162
 1645TIP3   OH2 4898   3.491   3.535   1.658
 1645TIP3    H1 4899   3.405   3.494   1.659
 1645TIP3    H2 4900   3.522   3.530   1.748
 1646TIP3   OH2 4901   4.371   4.001   3.694
 1646TIP3    H1 4902   4.318   3.983   3.616
 1646TIP3    H2 4903   4.357   4.094   3.711
 1647TIP3   OH2 4904   1.552   0.271   2.195
 1647TIP3    H1 4905   1.647   0.258   2.188
 1647TIP3    H2 4906   1.516   0.222   2.121
 1648TIP3   OH2 4907   6.077   3.600   4.057
 1648TIP3    H1 4908   6.117   3.639   4.135
 1648TIP3    H2 4909   6.142   3.537   4.025
 1649TIP3   OH2 4910   0.143   3.933   3.132
 1649TIP3    H1 4911   0.210   3.986   3.087
 1649TIP3    H2 4912   0.149   3.847   3.091
 1650TIP3   OH2 4913   2.616   3.931   3.472
 1650TIP3    H1 4914   2.522   3.914   3.479
 1650TIP3    H2 4915   2.637   3.984   3.550
 1651TIP3   OH2 4916   5.542   0.652   1.450
 1651TIP3    H1 4917   5.542   0.584   1.383
 1651TIP3    H2 4918   5.633   0.681   1.455
 1652TIP3   OH2 4919   3.304   2.890   0.669
 1652TIP3    H1 4920   3.375   2.949   0.645
 1652TIP3    H2 4921   3.295   2.832   0.594
 1653TIP3   OH2 4922   4.833   5.403   3.253
 1653TIP3    H1 4923   4.804   5.425   3.342
 1653TIP3    H2 4924   4.782   5.461   3.196
 1654TIP3   OH2 4925   4.304   2.749   5.452
 1654TIP3    H1 4926   4.346   2.725   5.535
 1654TIP3    H2 4927   4.223   2.792   5.478
 1655TIP3   OH2 4928   3.422   3.139   2.326
 1655TIP3    H1 4929   3.345   3.161   2.378
 1655TIP3    H2 4930   3.457   3.060   2.368
 1656TIP3   OH2 4931   0.096   4.670   4.161
 1656TIP3    H1 4932   0.100   4.662   4.256
 1656TIP3    H2 4933   0.017   4.623   4.135
 1657TIP3   OH2 4934   5.809   2.012   3.534
 1657TIP3    H1 4935   5.889   1.964   3.516
 1657TIP3    H2 4936   5.800   2.074   3.461
 1658TIP3   OH2 4937   1.080   1.461   3.753
 1658TIP3    H1 4938   1.093   1.476   3.847
 1658TIP3    H2 4939   0.988   1.480   3.739
 1659TIP3   OH2 4940   2.334   1.324   2.676
 1659TIP3    H1 4941   2.370   1.382   2.609
 1659TIP3    H2 4942   2.410   1.279   2.713
 1660TIP3   OH2 4943   6.251   5.039   2.196
 1660TIP3    H1 4944   6.184   5.083   2.248
 1660TIP3    H2 4945   6.239   5.075   2.108
 1661TIP3   OH2 4946   6.145   0.780   4.094
 1661TIP3    H1 4947   6.199   0.859   4.087
 1661TIP3    H2 4948   6.156   0.752   4.185
 1662TIP3   OH2 4949   6.391   4.036   0.389
 1662TIP3    H1 4950   6.399   3.985   0.308
 1662TIP3    H2 4951   6.422   4.123   0.366
 1663TIP3   OH2 4952   3.653   4.113   0.252
 1663TIP3    H1 4953   3.564   4.105   0.218
 1663TIP3    H2 4954   3.665   4.036   0.307
 1664TIP3   OH2 4955   3.919   3.236   2.061
 1664TIP3    H1 4956   3.841   3.291   2.055
 1664TIP3    H2 4957   3.968   3.272   2.135
 1665TIP3   OH2 4958   5.467   2.690   2.492
 1665TIP3    H1 4959   5.515   2.664   2.571
 1665TIP3    H2 4960   5.418   2.768   2.518
 1666TIP3   OH2 4961   2.141   1.268   3.451
 1666TIP3    H1 4962   2.050   1.238   3.447
 1666TIP3    H2 4963   2.138   1.343   3.511
 1667TIP3   OH2 4964   4.052   0.700   5.307
 1667TIP3    H1 4965   4.105   0.776   5.286
 1667TIP3    H2 4966   4.047   0.699   5.402
 1668TIP3   OH2 4967   0.229   6.687   5.635
 1668TIP3    H1 4968   0.200   6.703   5.545
 1668TIP3    H2 4969   0.324   6.680   5.629
 1669TIP3   OH2 4970   2.775   1.092   0.999
 1669TIP3    H1 4971   2.865   1.076   0.971
 1669TIP3    H2 4972   2.768   1.049   1.084
 1670TIP3   OH2 4973   4.455   1.542   4.702
 1670TIP3    H1 4974   4.426   1.609   4.765
 1670TIP3    H2 4975   4.495   1.474   4.757
 1671TIP3   OH2 4976   0.589   3.191   3.592
 1671TIP3    H1 4977   0.641   3.245   3.651
 1671TIP3    H2 4978   0.621   3.212   3.505
 1672TIP3   OH2 4979   0.738   3.320   1.140
 1672TIP3    H1 4980   0.728   3.253   1.072
 1672TIP3    H2 4981   0.680   3.291   1.211
 1673TIP3   OH2 4982   2.799   6.298   3.109
 1673TIP3    H1 4983   2.725   6.351   3.078
 1673TIP3    H2 4984   2.787   6.213   3.065
 1674TIP3   OH2 4985   7.225   3.064   5.598
 1674TIP3    H1 4986   7.231   2.983   5.548
 1674TIP3    H2 4987   7.174   3.123   5.543
 1675TIP3   OH2 4988   1.753   2.272   0.331
 1675TIP3    H1 4989   1.713   2.233   0.254
 1675TIP3    H2 4990   1.700   2.240   0.404
 1676TIP3   OH2 4991   2.889   2.100   0.839
 1676TIP3    H1 4992   2.834   2.079   0.914
 1676TIP3    H2 4993   2.973   2.126   0.876
 1677TIP3   OH2 4994   2.979   1.137   5.440
 1677TIP3    H1 4995   3.054   1.078   5.446
 1677TIP3    H2 4996   2.976   1.179   5.526
 1678TIP3   OH2 4997   0.228   5.886   2.935
 1678TIP3    H1 4998   0.244   5.806   2.986
 1678TIP3    H2 4999   0.311   5.932   2.936
 1679TIP3   OH2 5000   4.773   3.796   5.672
 1679TIP3    H1 5001   4.797   3.817   5.581
 1679TIP3    H2 5002   4.836   3.729   5.698
 1680TIP3   OH2 5003   1.936   3.742   4.595
 1680TIP3    H1 5004   1.853   3.789   4.588
 1680TIP3    H2 5005   1.988   3.795   4.655
 1681TIP3   OH2 5006   1.261   0.383   3.607
 1681TIP3    H1 5007   1.207   0.426   3.542
 1681TIP3    H2 5008   1.276   0.449   3.674
 1682TIP3   OH2 5009   1.648   2.891   2.065
 1682TIP3    H1 5010   1.713   2.824   2.041
 1682TIP3    H2 5011   1.676   2.922   2.151
 1683TIP3   OH2 5012   5.487   1.468   5.042
 1683TIP3    H1 5013   5.410   1.412   5.037
 1683TIP3    H2 5014   5.561   1.407   5.041
 1684TIP3   OH2 5015   0.253   0.975   4.859
 1684TIP3    H1 5016   0.309   1.049   4.831
 1684TIP3    H2 5017   0.208   1.007   4.937
 1685TIP3   OH2 5018   6.346   0.040   3.057
 1685TIP3    H1 5019   6.437   0.047   3.028
 1685TIP3    H2 5020   6.307   0.123   3.030
 1686TIP3   OH2 5021   1.170   1.958   0.793
 1686TIP3    H1 5022   1.225   1.900   0.845
 1686TIP3    H2 5023   1.139   1.903   0.721
 1687TIP3   OH2 5024   2.843   6.449   3.357
 1687TIP3    H1 5025   2.869   6.371   3.308
 1687TIP3    H2 5026   2.821   6.514   3.291
 1688TIP3   OH2 5027   6.850   4.379   3.089
 1688TIP3    H1 5028   6.785   4.446   3.110
 1688TIP3    H2 5029   6.931   4.412   3.127
 1689TIP3   OH2 5030   2.215   1.163   0.067
 1689TIP3    H1 5031   2.257   1.184   0.151
 1689TIP3    H2 5032   2.255   1.081   0.039
 1690TIP3   OH2 5033   3.016   6.436   2.991
 1690TIP3    H1 5034   2.959   6.369   3.029
 1690TIP3    H2 5035   2.984   6.518   3.027
 1691TIP3   OH2 5036   0.931   3.103   4.029
 1691TIP3    H1 5037   0.900   3.181   4.076
 1691TIP3    H2 5038   0.947   3.039   4.098
 1692TIP3   OH2 5039   4.720   3.042   0.017
 1692TIP3    H1 5040   4.712   2.947   0.027
 1692TIP3    H2 5041   4.634   3.076   0.042
 1693TIP3   OH2 5042   6.572   0.731   1.988
 1693TIP3    H1 5043   6.516   0.729   2.065
 1693TIP3    H2 5044   6.654   0.769   2.019
 1694TIP3   OH2 5045   3.440   4.660   2.551
 1694TIP3    H1 5046   3.419   4.659   2.457
 1694TIP3    H2 5047   3.533   4.638   2.555
 1695TIP3   OH2 5048   3.360   4.844   5.330
 1695TIP3    H1 5049   3.404   4.782   5.271
 1695TIP3    H2 5050   3.273   4.855   5.294
 1696TIP3   OH2 5051   4.052   2.583   0.077
 1696TIP3    H1 5052   4.127   2.634   0.046
 1696TIP3    H2 5053   4.022   2.535   0.000
 1697TIP3   OH2 5054   3.304   6.056   5.704
 1697TIP3    H1 5055   3.369   5.991   5.676
 1697TIP3    H2 5056   3.351   6.139   5.702
 1698TIP3   OH2 5057   5.659   3.052   2.870
 1698TIP3    H1 5058   5.580   3.014   2.908
 1698TIP3    H2 5059   5.696   3.106   2.940
 1699TIP3   OH2 5060   6.729   0.286   3.760
 1699TIP3    H1 5061   6.705   0.296   3.668
 1699TIP3    H2 5062   6.708   0.194   3.780
 1700TIP3   OH2 5063   1.246   5.512   0.287
 1700TIP3    H1 5064   1.271   5.580   0.350
 1700TIP3    H2 5065   1.253   5.430   0.337
 1701TIP3   OH2 5066   1.922   2.046   1.064
 1701TIP3    H1 5067   1.941   2.136   1.093
 1701TIP3    H2 5068   1.903   2.055   0.971
 1702TIP3   OH2 5069   4.411   4.514   2.623
 1702TIP3    H1 5070   4.487   4.572   2.619
 1702TIP3    H2 5071   4.370   4.521   2.537
 1703TIP3   OH2 5072   6.424   4.507   0.460
 1703TIP3    H1 5073   6.392   4.506   0.550
 1703TIP3    H2 5074   6.408   4.597   0.430
 1704TIP3   OH2 5075   4.718   4.681   5.678
 1704TIP3    H1 5076   4.632   4.710   5.710
 1704TIP3    H2 5077   4.739   4.605   5.733
 1705TIP3   OH2 5078   4.798   3.686   1.016
 1705TIP3    H1 5079   4.834   3.737   1.089
 1705TIP3    H2 5080   4.847   3.716   0.939
 1706TIP3   OH2 5081   2.746   1.299   0.578
 1706TIP3    H1 5082   2.767   1.357   0.652
 1706TIP3    H2 5083   2.658   1.266   0.598
 1707TIP3   OH2 5084   1.339   3.864   4.106
 1707TIP3    H1 5085   1.291   3.803   4.051
 1707TIP3    H2 5086   1.349   3.818   4.190
 1708TIP3   OH2 5087   5.878   4.661   3.741
 1708TIP3    H1 5088   5.805   4.708   3.700
 1708TIP3    H2 5089   5.873   4.686   3.833
 1709TIP3   OH2 5090   6.434   3.890   0.828
 1709TIP3    H1 5091   6.458   3.801   0.854
 1709TIP3    H2 5092   6.340   3.896   0.849
 1710TIP3   OH2 5093   2.356   4.845   0.165
 1710TIP3    H1 5094   2.353   4.775   0.100
 1710TIP3    H2 5095   2.336   4.925   0.116
 1711TIP3   OH2 5096   5.177   6.133   0.133
 1711TIP3    H1 5097   5.119   6.166   0.064
 1711TIP3    H2 5098   5.123   6.070   0.181
 1712TIP3   OH2 5099   5.208   6.558   4.387
 1712TIP3    H1 5100   5.264   6.554   4.465
 1712TIP3    H2 5101   5.119   6.562   4.421
 1713TIP3   OH2 5102   3.171   5.285   1.541
 1713TIP3    H1 5103   3.160   5.237   1.459
 1713TIP3    H2 5104   3.247   5.244   1.582
 1714TIP3   OH2 5105   1.530   1.441   0.379
 1714TIP3    H1 5106   1.600   1.376   0.388
 1714TIP3    H2 5107   1.457   1.405   0.430
 1715TIP3   OH2 5108   2.695   2.432   2.326
 1715TIP3    H1 5109   2.715   2.409   2.235
 1715TIP3    H2 5110   2.656   2.353   2.363
 1716TIP3   OH2 5111   0.183   1.939   3.788
 1716TIP3    H1 5112   0.194   1.917   3.696
 1716TIP3    H2 5113   0.159   1.856   3.830
 1717TIP3   OH2 5114   3.286   3.568   5.838
 1717TIP3    H1 5115   3.334   3.520   5.771
 1717TIP3    H2 5116   3.316   3.531   5.921
 1718TIP3   OH2 5117   6.280   3.036   2.577
 1718TIP3    H1 5118   6.256   3.104   2.640
 1718TIP3    H2 5119   6.211   2.970   2.585
 1719TIP3   OH2 5120   5.831   5.216   0.406
 1719TIP3    H1 5121   5.782   5.159   0.347
 1719TIP3    H2 5122   5.771   5.289   0.424
 1720TIP3   OH2 5123   5.588   4.589   5.382
 1720TIP3    H1 5124   5.614   4.539   5.460
 1720TIP3    H2 5125   5.506   4.548   5.354
 1721TIP3   OH2 5126   1.677   4.610   2.339
 1721TIP3    H1 5127   1.587   4.582   2.355
 1721TIP3    H2 5128   1.722   4.531   2.312
 1722TIP3   OH2 5129   0.468   3.650   2.834
 1722TIP3    H1 5130   0.548   3.701   2.834
 1722TIP3    H2 5131   0.406   3.702   2.783
 1723TIP3   OH2 5132   3.544   2.465   2.724
 1723TIP3    H1 5133   3.450   2.475   2.708
 1723TIP3    H2 5134   3.578   2.555   2.726
 1724TIP3   OH2 5135   3.556   1.558   4.590
 1724TIP3    H1 5136   3.640   1.568   4.545
 1724TIP3    H2 5137   3.574   1.583   4.680
 1725TIP3   OH2 5138   3.675   2.647   0.559
 1725TIP3    H1 5139   3.689   2.741   0.573
 1725TIP3    H2 5140   3.637   2.617   0.641
 1726TIP3   OH2 5141   5.446   4.070   0.442
 1726TIP3    H1 5142   5.366   4.050   0.491
 1726TIP3    H2 5143   5.480   4.149   0.485
 1727TIP3   OH2 5144   2.560   5.911   1.969
 1727TIP3    H1 5145   2.553   6.002   1.997
 1727TIP3    H2 5146   2.514   5.907   1.886
 1728TIP3   OH2 5147   6.359   3.658   3.088
 1728TIP3    H1 5148   6.367   3.707   3.005
 1728TIP3    H2 5149   6.267   3.632   3.091
 1729TIP3   OH2 5150   5.986   2.496   2.300
 1729TIP3    H1 5151   6.005   2.519   2.209
 1729TIP3    H2 5152   5.923   2.424   2.294
 1730TIP3   OH2 5153   6.734   5.061   2.236
 1730TIP3    H1 5154   6.692   4.989   2.284
 1730TIP3    H2 5155   6.663   5.125   2.222
 1731TIP3   OH2 5156   5.574   5.204   5.505
 1731TIP3    H1 5157   5.481   5.194   5.482
 1731TIP3    H2 5158   5.576   5.278   5.566
 1732TIP3   OH2 5159   5.962   0.588   0.567
 1732TIP3    H1 5160   5.969   0.534   0.488
 1732TIP3    H2 5161   5.879   0.636   0.557
 1733TIP3   OH2 5162   1.670   0.553   0.654
 1733TIP3    H1 5163   1.619   0.611   0.597
 1733TIP3    H2 5164   1.683   0.603   0.734
 1734TIP3   OH2 5165   5.098   3.178   4.453
 1734TIP3    H1 5166   5.086   3.167   4.359
 1734TIP3    H2 5167   5.150   3.102   4.479
 1735TIP3   OH2 5168   0.959   3.271   3.817
 1735TIP3    H1 5169   0.949   3.215   3.895
 1735TIP3    H2 5170   1.024   3.225   3.763
 1736TIP3   OH2 5171   6.132   4.804   4.486
 1736TIP3    H1 5172   6.048   4.773   4.520
 1736TIP3    H2 5173   6.112   4.889   4.447
 1737TIP3   OH2 5174   5.742   0.308   3.789
 1737TIP3    H1 5175   5.650   0.316   3.812
 1737TIP3    H2 5176   5.742   0.267   3.702
 1738TIP3   OH2 5177   3.158   0.530   0.203
 1738TIP3    H1 5178   3.251   0.525   0.180
 1738TIP3    H2 5179   3.153   0.602   0.267
 1739TIP3   OH2 5180   6.422   0.901   1.738
 1739TIP3    H1 5181   6.503   0.876   1.782
 1739TIP3    H2 5182   6.451   0.953   1.663
 1740TIP3   OH2 5183   1.846   0.277   3.712
 1740TIP3    H1 5184   1.900   0.303   3.637
 1740TIP3    H2 5185   1.756   0.300   3.686
 1741TIP3   OH2 5186   7.173   0.318   4.092
 1741TIP3    H1 5187   7.238   0.307   4.022
 1741TIP3    H2 5188   7.225   0.322   4.172
 1742TIP3   OH2 5189   0.677   2.136   3.700
 1742TIP3    H1 5190   0.759   2.094   3.674
 1742TIP3    H2 5191   0.700   2.227   3.717
 1743TIP3   OH2 5192   0.385   5.717   2.674
 1743TIP3    H1 5193   0.307   5.669   2.648
 1743TIP3    H2 5194   0.403   5.775   2.600
 1744TIP3   OH2 5195   0.208   3.904   1.778
 1744TIP3    H1 5196   0.243   3.909   1.689
 1744TIP3    H2 5197   0.180   3.994   1.798
 1745TIP3   OH2 5198   6.204   4.700   0.849
 1745TIP3    H1 5199   6.195   4.691   0.943
 1745TIP3    H2 5200   6.264   4.774   0.837
 1746TIP3   OH2 5201   0.208   4.321   0.564
 1746TIP3    H1 5202   0.295   4.288   0.542
 1746TIP3    H2 5203   0.156   4.242   0.582
 1747TIP3   OH2 5204   2.374   5.451   4.248
 1747TIP3    H1 5205   2.297   5.504   4.228
 1747TIP3    H2 5206   2.419   5.500   4.317
 1748TIP3   OH2 5207   4.517   1.195   1.425
 1748TIP3    H1 5208   4.593   1.138   1.410
 1748TIP3    H2 5209   4.553   1.272   1.469
 1749TIP3   OH2 5210   6.875   2.143   2.824
 1749TIP3    H1 5211   6.942   2.206   2.799
 1749TIP3    H2 5212   6.889   2.068   2.766
 1750TIP3   OH2 5213   0.663   4.873   0.763
 1750TIP3    H1 5214   0.601   4.905   0.829
 1750TIP3    H2 5215   0.733   4.938   0.763
 1751TIP3   OH2 5216   3.326   4.267   5.536
 1751TIP3    H1 5217   3.287   4.181   5.553
 1751TIP3    H2 5218   3.320   4.313   5.620
 1752TIP3   OH2 5219   2.059   1.634   0.759
 1752TIP3    H1 5220   2.061   1.689   0.837
 1752TIP3    H2 5221   2.015   1.687   0.693
 1753TIP3   OH2 5222   0.859   1.068   5.884
 1753TIP3    H1 5223   0.877   1.124   5.960
 1753TIP3    H2 5224   0.868   1.127   5.809
 1754TIP3   OH2 5225   3.702   5.655   5.719
 1754TIP3    H1 5226   3.755   5.691   5.648
 1754TIP3    H2 5227   3.693   5.562   5.698
 1755TIP3   OH2 5228   3.940   0.773   0.158
 1755TIP3    H1 5229   3.965   0.826   0.082
 1755TIP3    H2 5230   3.992   0.810   0.230
 1756TIP3   OH2 5231   0.948   5.087   2.755
 1756TIP3    H1 5232   0.975   5.032   2.829
 1756TIP3    H2 5233   0.893   5.029   2.702
 1757TIP3   OH2 5234   6.847   5.336   1.528
 1757TIP3    H1 5235   6.891   5.330   1.613
 1757TIP3    H2 5236   6.818   5.246   1.510
 1758TIP3   OH2 5237   4.616   6.793   3.904
 1758TIP3    H1 5238   4.712   6.795   3.896
 1758TIP3    H2 5239   4.594   6.700   3.906
 1759TIP3   OH2 5240   5.409   5.929   0.809
 1759TIP3    H1 5241   5.335   5.921   0.749
 1759TIP3    H2 5242   5.483   5.890   0.762
 1760TIP3   OH2 5243   2.964   1.523   4.942
 1760TIP3    H1 5244   2.923   1.440   4.963
 1760TIP3    H2 5245   2.973   1.568   5.026
 1761TIP3   OH2 5246   5.585   5.443   0.945
 1761TIP3    H1 5247   5.552   5.519   0.993
 1761TIP3    H2 5248   5.533   5.441   0.865
 1762TIP3   OH2 5249   0.057   3.052   4.591
 1762TIP3    H1 5250  -0.030   3.047   4.552
 1762TIP3    H2 5251   0.052   3.128   4.649
 1763TIP3   OH2 5252   2.995   4.947   0.677
 1763TIP3    H1 5253   3.008   4.856   0.701
 1763TIP3    H2 5254   2.917   4.946   0.622
 1764TIP3   OH2 5255   1.293   5.744   4.046
 1764TIP3    H1 5256   1.198   5.740   4.061
 1764TIP3    H2 5257   1.314   5.837   4.053
 1765TIP3   OH2 5258   2.472   5.866   4.547
 1765TIP3    H1 5259   2.399   5.881   4.607
 1765TIP3    H2 5260   2.549   5.895   4.596
 1766TIP3   OH2 5261   0.466   1.443   4.477
 1766TIP3    H1 5262   0.475   1.348   4.471
 1766TIP3    H2 5263   0.382   1.462   4.435
 1767TIP3   OH2 5264   3.966   5.450   3.116
 1767TIP3    H1 5265   3.967   5.383   3.047
 1767TIP3    H2 5266   4.054   5.445   3.155
 1768TIP3   OH2 5267   0.805   6.163   0.954
 1768TIP3    H1 5268   0.873   6.161   1.022
 1768TIP3    H2 5269   0.854   6.158   0.872
 1769TIP3   OH2 5270   0.015   5.007   2.374
 1769TIP3    H1 5271  -0.066   5.050   2.402
 1769TIP3    H2 5272   0.080   5.032   2.440
 1770TIP3   OH2 5273   4.242   5.501   4.775
 1770TIP3    H1 5274   4.221   5.443   4.703
 1770TIP3    H2 5275   4.212   5.588   4.745
 1771TIP3   OH2 5276   4.782   4.307   5.645
 1771TIP3    H1 5277   4.813   4.367   5.712
 1771TIP3    H2 5278   4.736   4.238   5.693
 1772TIP3   OH2 5279   2.320   0.461   1.067
 1772TIP3    H1 5280   2.387   0.524   1.093
 1772TIP3    H2 5281   2.358   0.376   1.087
 1773TIP3   OH2 5282   4.053   2.329   3.396
 1773TIP3    H1 5283   4.011   2.408   3.363
 1773TIP3    H2 5284   3.982   2.280   3.438
 1774TIP3   OH2 5285   6.320   0.507   3.679
 1774TIP3    H1 5286   6.229   0.535   3.672
 1774TIP3    H2 5287   6.322   0.452   3.758
 1775TIP3   OH2 5288   6.142   5.766   1.082
 1775TIP3    H1 5289   6.163   5.743   0.991
 1775TIP3    H2 5290   6.048   5.753   1.089
 1776TIP3   OH2 5291   6.759   3.003   0.969
 1776TIP3    H1 5292   6.746   2.925   0.915
 1776TIP3    H2 5293   6.684   3.059   0.949
 1777TIP3   OH2 5294   5.487   2.464   0.576
 1777TIP3    H1 5295   5.456   2.483   0.665
 1777TIP3    H2 5296   5.575   2.501   0.572
 1778TIP3   OH2 5297   2.548   3.209   0.741
 1778TIP3    H1 5298   2.566   3.159   0.661
 1778TIP3    H2 5299   2.586   3.295   0.723
 1779TIP3   OH2 5300   5.968   5.415   3.188
 1779TIP3    H1 5301   5.942   5.339   3.239
 1779TIP3    H2 5302   5.891   5.435   3.134
 1780TIP3   OH2 5303   3.147   0.423   3.367
 1780TIP3    H1 5304   3.177   0.333   3.383
 1780TIP3    H2 5305   3.104   0.449   3.448
 1781TIP3   OH2 5306   5.983   2.552   2.025
 1781TIP3    H1 5307   5.949   2.492   1.959
 1781TIP3    H2 5308   6.077   2.533   2.028
 1782TIP3   OH2 5309   5.666   1.835   0.687
 1782TIP3    H1 5310   5.656   1.814   0.780
 1782TIP3    H2 5311   5.760   1.853   0.677
 1783TIP3   OH2 5312   3.293   1.709   3.197
 1783TIP3    H1 5313   3.370   1.673   3.153
 1783TIP3    H2 5314   3.252   1.634   3.238
 1784TIP3   OH2 5315   7.189   6.074   5.781
 1784TIP3    H1 5316   7.122   6.083   5.713
 1784TIP3    H2 5317   7.238   6.156   5.776
 1785TIP3   OH2 5318   5.248   6.531   0.711
 1785TIP3    H1 5319   5.274   6.503   0.799
 1785TIP3    H2 5320   5.271   6.456   0.655
 1786TIP3   OH2 5321   5.727   3.812   5.180
 1786TIP3    H1 5322   5.696   3.897   5.211
 1786TIP3    H2 5323   5.679   3.797   5.098
 1787TIP3   OH2 5324   3.842   5.692   0.522
 1787TIP3    H1 5325   3.763   5.642   0.542
 1787TIP3    H2 5326   3.816   5.750   0.450
 1788TIP3   OH2 5327   5.986   6.318   1.777
 1788TIP3    H1 5328   6.035   6.400   1.788
 1788TIP3    H2 5329   5.915   6.324   1.841
 1789TIP3   OH2 5330   6.515   6.535   3.623
 1789TIP3    H1 5331   6.518   6.460   3.683
 1789TIP3    H2 5332   6.569   6.508   3.549
 1790TIP3   OH2 5333   6.255   5.212   4.106
 1790TIP3    H1 5334   6.305   5.273   4.052
 1790TIP3    H2 5335   6.318   5.146   4.134
 1791TIP3   OH2 5336   1.390   4.185   3.712
 1791TIP3    H1 5337   1.418   4.167   3.623
 1791TIP3    H2 5338   1.468   4.222   3.755
 1792TIP3   OH2 5339   0.890   5.628   5.562
 1792TIP3    H1 5340   0.951   5.680   5.510
 1792TIP3    H2 5341   0.939   5.604   5.640
 1793TIP3   OH2 5342   3.576   1.244   0.253
 1793TIP3    H1 5343   3.571   1.182   0.180
 1793TIP3    H2 5344   3.663   1.284   0.245
 1794TIP3   OH2 5345   0.358   0.814   0.759
 1794TIP3    H1 5346   0.325   0.772   0.680
 1794TIP3    H2 5347   0.325   0.904   0.755
 1795TIP3   OH2 5348   0.430   6.738   2.060
 1795TIP3    H1 5349   0.423   6.795   2.137
 1795TIP3    H2 5350   0.354   6.680   2.068
 1796TIP3   OH2 5351   4.245   6.573   1.729
 1796TIP3    H1 5352   4.228   6.624   1.649
 1796TIP3    H2 5353   4.162   6.577   1.777
 1797TIP3   OH2 5354   6.418   6.726   0.826
 1797TIP3    H1 5355   6.452   6.755   0.911
 1797TIP3    H2 5356   6.325   6.747   0.830
 1798TIP3   OH2 5357   7.165   4.321   5.212
 1798TIP3    H1 5358   7.105   4.313   5.285
 1798TIP3    H2 5359   7.206   4.407   5.224
 1799TIP3   OH2 5360   6.934   0.576   4.217
 1799TIP3    H1 5361   6.873   0.517   4.171
 1799TIP3    H2 5362   6.903   0.577   4.307
 1800TIP3   OH2 5363   5.964   1.437   1.953
 1800TIP3    H1 5364   5.869   1.426   1.944
 1800TIP3    H2 5365   5.975   1.526   1.988
 1801TIP3   OH2 5366   3.105   4.342   5.207
 1801TIP3    H1 5367   3.135   4.432   5.194
 1801TIP3    H2 5368   3.167   4.305   5.270
 1802TIP3   OH2 5369   3.202   2.898   4.000
 1802TIP3    H1 5370   3.195   2.805   3.981
 1802TIP3    H2 5371   3.197   2.904   4.096
 1803TIP3   OH2 5372   3.623   5.197   2.686
 1803TIP3    H1 5373   3.653   5.242   2.607
 1803TIP3    H2 5374   3.528   5.207   2.685
 1804TIP3   OH2 5375   6.562   5.091   4.601
 1804TIP3    H1 5376   6.581   5.036   4.525
 1804TIP3    H2 5377   6.467   5.084   4.613
 1805TIP3   OH2 5378   5.361   5.275   1.553
 1805TIP3    H1 5379   5.329   5.193   1.590
 1805TIP3    H2 5380   5.287   5.336   1.561
 1806TIP3   OH2 5381   1.102   4.325   3.114
 1806TIP3    H1 5382   1.075   4.359   3.199
 1806TIP3    H2 5383   1.108   4.402   3.058
 1807TIP3   OH2 5384   2.125   6.116   1.837
 1807TIP3    H1 5385   2.115   6.153   1.749
 1807TIP3    H2 5386   2.215   6.136   1.861
 1808TIP3   OH2 5387   1.240   0.948   4.268
 1808TIP3    H1 5388   1.166   0.907   4.223
 1808TIP3    H2 5389   1.230   1.041   4.250
 1809TIP3   OH2 5390   6.369   4.099   2.384
 1809TIP3    H1 5391   6.324   4.171   2.341
 1809TIP3    H2 5392   6.428   4.063   2.317
 1810TIP3   OH2 5393   7.010   0.224   0.362
 1810TIP3    H1 5394   7.002   0.289   0.293
 1810TIP3    H2 5395   7.105   0.216   0.377
 1811TIP3   OH2 5396   2.276   3.752   5.292
 1811TIP3    H1 5397   2.202   3.810   5.275
 1811TIP3    H2 5398   2.337   3.805   5.343
 1812TIP3   OH2 5399   7.112   6.835   5.618
 1812TIP3    H1 5400   7.041   6.845   5.682
 1812TIP3    H2 5401   7.121   6.740   5.607
 1813TIP3   OH2 5402   2.049   0.547   4.652
 1813TIP3    H1 5403   2.094   0.486   4.710
 1813TIP3    H2 5404   1.956   0.529   4.666
 1814TIP3   OH2 5405   1.550   4.396   4.214
 1814TIP3    H1 5406   1.537   4.438   4.299
 1814TIP3    H2 5407   1.498   4.316   4.219
 1815TIP3   OH2 5408   5.185   3.554   5.436
 1815TIP3    H1 5409   5.192   3.649   5.440
 1815TIP3    H2 5410   5.124   3.537   5.364
 1816TIP3   OH2 5411   4.445   0.277   2.647
 1816TIP3    H1 5412   4.526   0.254   2.602
 1816TIP3    H2 5413   4.463   0.362   2.687
 1817TIP3   OH2 5414   3.504   1.858   0.543
 1817TIP3    H1 5415   3.554   1.843   0.462
 1817TIP3    H2 5416   3.570   1.876   0.609
 1818TIP3   OH2 5417   4.240   3.346   5.348
 1818TIP3    H1 5418   4.240   3.375   5.257
 1818TIP3    H2 5419   4.221   3.252   5.343
 1819TIP3   OH2 5420   4.964   0.173   1.704
 1819TIP3    H1 5421   5.042   0.227   1.690
 1819TIP3    H2 5422   4.992   0.103   1.762
 1820TIP3   OH2 5423   6.367   1.818   2.604
 1820TIP3    H1 5424   6.406   1.876   2.669
 1820TIP3    H2 5425   6.418   1.737   2.611
 1821TIP3   OH2 5426   0.099   1.088   2.224
 1821TIP3    H1 5427   0.181   1.134   2.240
 1821TIP3    H2 5428   0.103   1.063   2.132
 1822TIP3   OH2 5429   6.440   2.100   2.494
 1822TIP3    H1 5430   6.435   2.049   2.413
 1822TIP3    H2 5431   6.458   2.036   2.562
 1823TIP3   OH2 5432   3.602   6.471   4.080
 1823TIP3    H1 5433   3.518   6.504   4.112
 1823TIP3    H2 5434   3.580   6.386   4.041
 1824TIP3   OH2 5435   0.586   5.420   2.024
 1824TIP3    H1 5436   0.571   5.332   1.991
 1824TIP3    H2 5437   0.513   5.435   2.084
 1825TIP3   OH2 5438   3.858   5.273   3.282
 1825TIP3    H1 5439   3.892   5.339   3.222
 1825TIP3    H2 5440   3.912   5.282   3.361
 1826TIP3   OH2 5441   4.906   2.651   2.613
 1826TIP3    H1 5442   4.858   2.579   2.652
 1826TIP3    H2 5443   4.994   2.644   2.650
 1827TIP3   OH2 5444   5.089   1.493   0.529
 1827TIP3    H1 5445   5.030   1.491   0.454
 1827TIP3    H2 5446   5.048   1.434   0.593
 1828TIP3   OH2 5447   1.846   0.378   4.417
 1828TIP3    H1 5448   1.898   0.299   4.406
 1828TIP3    H2 5449   1.834   0.385   4.512
 1829TIP3   OH2 5450   7.229   1.971   1.465
 1829TIP3    H1 5451   7.139   1.951   1.441
 1829TIP3    H2 5452   7.222   2.031   1.539
 1830TIP3   OH2 5453   3.680   0.388   5.222
 1830TIP3    H1 5454   3.772   0.413   5.211
 1830TIP3    H2 5455   3.642   0.398   5.135
 1831TIP3   OH2 5456   5.314   6.346   3.603
 1831TIP3    H1 5457   5.234   6.326   3.651
 1831TIP3    H2 5458   5.377   6.369   3.672
 1832TIP3   OH2 5459   3.518   5.847   2.522
 1832TIP3    H1 5460   3.532   5.763   2.477
 1832TIP3    H2 5461   3.426   5.845   2.547
 1833TIP3   OH2 5462   5.456   3.291   4.693
 1833TIP3    H1 5463   5.450   3.196   4.707
 1833TIP3    H2 5464   5.368   3.324   4.709
 1834TIP3   OH2 5465   0.877   1.955   3.573
 1834TIP3    H1 5466   0.910   1.965   3.484
 1834TIP3    H2 5467   0.902   1.866   3.598
 1835TIP3   OH2 5468   4.243   4.200   4.369
 1835TIP3    H1 5469   4.195   4.180   4.288
 1835TIP3    H2 5470   4.311   4.261   4.343
 1836TIP3   OH2 5471   0.727   4.660   0.574
 1836TIP3    H1 5472   0.823   4.666   0.566
 1836TIP3    H2 5473   0.711   4.569   0.598
 1837TIP3   OH2 5474   6.389   0.339   2.090
 1837TIP3    H1 5475   6.476   0.308   2.117
 1837TIP3    H2 5476   6.403   0.380   2.005
 1838TIP3   OH2 5477   0.436   3.645   3.532
 1838TIP3    H1 5478   0.491   3.691   3.595
 1838TIP3    H2 5479   0.351   3.688   3.538
 1839TIP3   OH2 5480   6.679   4.026   2.872
 1839TIP3    H1 5481   6.713   4.048   2.785
 1839TIP3    H2 5482   6.686   3.931   2.877
 1840TIP3   OH2 5483   0.161   4.874   2.751
 1840TIP3    H1 5484   0.150   4.961   2.789
 1840TIP3    H2 5485   0.218   4.888   2.676
 1841TIP3   OH2 5486   4.692   3.101   4.186
 1841TIP3    H1 5487   4.653   3.045   4.253
 1841TIP3    H2 5488   4.648   3.185   4.197
 1842TIP3   OH2 5489   5.653   4.512   0.681
 1842TIP3    H1 5490   5.581   4.574   0.694
 1842TIP3    H2 5491   5.678   4.524   0.589
 1843TIP3   OH2 5492   0.042   3.606   3.442
 1843TIP3    H1 5493   0.103   3.674   3.415
 1843TIP3    H2 5494   0.072   3.579   3.529
 1844TIP3   OH2 5495   2.279   4.360   5.529
 1844TIP3    H1 5496   2.279   4.274   5.571
 1844TIP3    H2 5497   2.371   4.388   5.532
 1845TIP3   OH2 5498   0.405   3.344   5.226
 1845TIP3    H1 5499   0.326   3.343   5.280
 1845TIP3    H2 5500   0.471   3.386   5.281
 1846TIP3   OH2 5501   5.838   0.027   1.792
 1846TIP3    H1 5502   5.786   0.106   1.774
 1846TIP3    H2 5503   5.870   0.040   1.881
 1847TIP3   OH2 5504   4.251   2.572   4.653
 1847TIP3    H1 5505   4.269   2.604   4.565
 1847TIP3    H2 5506   4.160   2.599   4.670
 1848TIP3   OH2 5507   4.046   3.914   1.716
 1848TIP3    H1 5508   4.104   3.971   1.767
 1848TIP3    H2 5509   3.998   3.864   1.782
 1849TIP3   OH2 5510   1.529   3.495   5.120
 1849TIP3    H1 5511   1.554   3.579   5.159
 1849TIP3    H2 5512   1.490   3.518   5.036
 1850TIP3   OH2 5513   3.518   2.254   1.930
 1850TIP3    H1 5514   3.535   2.335   1.979
 1850TIP3    H2 5515   3.493   2.283   1.843
 1851TIP3   OH2 5516   2.698   3.232   2.922
 1851TIP3    H1 5517   2.628   3.253   2.860
 1851TIP3    H2 5518   2.739   3.153   2.888
 1852TIP3   OH2 5519   2.100   2.555   5.431
 1852TIP3    H1 5520   2.175   2.495   5.436
 1852TIP3    H2 5521   2.132   2.628   5.379
 1853TIP3   OH2 5522   2.677   5.082   4.842
 1853TIP3    H1 5523   2.588   5.060   4.867
 1853TIP3    H2 5524   2.670   5.168   4.801
 1854TIP3   OH2 5525   5.402   5.166   1.165
 1854TIP3    H1 5526   5.390   5.241   1.224
 1854TIP3    H2 5527   5.366   5.195   1.082
 1855TIP3   OH2 5528   1.479   1.012   2.027
 1855TIP3    H1 5529   1.410   1.026   2.092
 1855TIP3    H2 5530   1.438   0.958   1.960
 1856TIP3   OH2 5531   6.851   2.324   1.114
 1856TIP3    H1 5532   6.797   2.402   1.103
 1856TIP3    H2 5533   6.787   2.252   1.122
 1857TIP3   OH2 5534   1.465   4.309   0.929
 1857TIP3    H1 5535   1.461   4.214   0.941
 1857TIP3    H2 5536   1.393   4.329   0.869
 1858TIP3   OH2 5537   5.864   0.394   0.834
 1858TIP3    H1 5538   5.947   0.346   0.825
 1858TIP3    H2 5539   5.799   0.336   0.794
 1859TIP3   OH2 5540   4.452   1.156   5.690
 1859TIP3    H1 5541   4.468   1.214   5.765
 1859TIP3    H2 5542   4.534   1.155   5.642
 1860TIP3   OH2 5543   3.178   3.769   2.268
 1860TIP3    H1 5544   3.173   3.676   2.287
 1860TIP3    H2 5545   3.090   3.802   2.284
 1861TIP3   OH2 5546   0.914   4.461   0.045
 1861TIP3    H1 5547   0.839   4.403   0.059
 1861TIP3    H2 5548   0.878   4.549   0.054
 1862TIP3   OH2 5549   0.043   2.220   1.036
 1862TIP3    H1 5550   0.019   2.301   0.991
 1862TIP3    H2 5551  -0.024   2.211   1.104
 1863TIP3   OH2 5552   1.991   4.917   3.463
 1863TIP3    H1 5553   1.920   4.958   3.511
 1863TIP3    H2 5554   2.050   4.883   3.530
 1864TIP3   OH2 5555   0.731   6.355   4.326
 1864TIP3    H1 5556   0.737   6.265   4.360
 1864TIP3    H2 5557   0.667   6.398   4.383
 1865TIP3   OH2 5558   4.685   4.968   0.391
 1865TIP3    H1 5559   4.627   4.986   0.317
 1865TIP3    H2 5560   4.668   4.876   0.412
 1866TIP3   OH2 5561   0.563   0.321   2.190
 1866TIP3    H1 5562   0.659   0.315   2.188
 1866TIP3    H2 5563   0.545   0.374   2.268
 1867TIP3   OH2 5564   6.934   4.485   2.371
 1867TIP3    H1 5565   6.996   4.440   2.428
 1867TIP3    H2 5566   6.851   4.439   2.385
 1868TIP3   OH2 5567   2.390   2.951   4.441
 1868TIP3    H1 5568   2.337   2.955   4.362
 1868TIP3    H2 5569   2.480   2.952   4.410
 1869TIP3   OH2 5570   3.833   3.473   2.245
 1869TIP3    H1 5571   3.828   3.563   2.276
 1869TIP3    H2 5572   3.742   3.442   2.246
 1870TIP3   OH2 5573   3.029   0.812   0.159
 1870TIP3    H1 5574   2.957   0.838   0.101
 1870TIP3    H2 5575   3.086   0.758   0.105
 1871TIP3   OH2 5576   1.133   0.302   1.350
 1871TIP3    H1 5577   1.145   0.392   1.320
 1871TIP3    H2 5578   1.091   0.309   1.436
 1872TIP3   OH2 5579   1.277   5.155   3.634
 1872TIP3    H1 5580   1.349   5.160   3.571
 1872TIP3    H2 5581   1.198   5.174   3.584
 1873TIP3   OH2 5582   6.372   4.166   2.790
 1873TIP3    H1 5583   6.396   4.097   2.851
 1873TIP3    H2 5584   6.302   4.128   2.737
 1874TIP3   OH2 5585   2.487   2.315   1.855
 1874TIP3    H1 5586   2.419   2.316   1.923
 1874TIP3    H2 5587   2.442   2.345   1.776
 1875TIP3   OH2 5588   7.041   1.035   4.769
 1875TIP3    H1 5589   7.114   1.091   4.742
 1875TIP3    H2 5590   6.986   1.092   4.823
 1876TIP3   OH2 5591   5.701   1.657   5.037
 1876TIP3    H1 5592   5.629   1.594   5.047
 1876TIP3    H2 5593   5.661   1.732   4.993
 1877TIP3   OH2 5594   6.432   3.848   0.161
 1877TIP3    H1 5595   6.503   3.797   0.122
 1877TIP3    H2 5596   6.432   3.930   0.112
 1878TIP3   OH2 5597   3.621   5.358   2.435
 1878TIP3    H1 5598   3.663   5.434   2.473
 1878TIP3    H2 5599   3.687   5.319   2.378
 1879TIP3   OH2 5600  -0.025   5.337   3.952
 1879TIP3    H1 5601   0.003   5.427   3.967
 1879TIP3    H2 5602   0.054   5.285   3.964
 1880TIP3   OH2 5603   6.943   2.607   4.297
 1880TIP3    H1 5604   6.847   2.603   4.295
 1880TIP3    H2 5605   6.971   2.534   4.242
 1881TIP3   OH2 5606   3.622   3.863   4.019
 1881TIP3    H1 5607   3.705   3.833   4.055
 1881TIP3    H2 5608   3.633   3.958   4.011
 1882TIP3   OH2 5609   6.630   2.451   2.766
 1882TIP3    H1 5610   6.561   2.499   2.720
 1882TIP3    H2 5611   6.666   2.392   2.700
 1883TIP3   OH2 5612   3.949   3.038   1.786
 1883TIP3    H1 5613   3.871   2.983   1.785
 1883TIP3    H2 5614   3.963   3.062   1.694
 1884TIP3   OH2 5615   2.487   3.438   5.565
 1884TIP3    H1 5616   2.426   3.408   5.498
 1884TIP3    H2 5617   2.431   3.470   5.636
 1885TIP3   OH2 5618   6.753   4.477   3.783
 1885TIP3    H1 5619   6.763   4.453   3.875
 1885TIP3    H2 5620   6.672   4.434   3.755
 1886TIP3   OH2 5621   6.217   5.354   3.040
 1886TIP3    H1 5622   6.280   5.424   3.029
 1886TIP3    H2 5623   6.151   5.389   3.100
 1887TIP3   OH2 5624   1.683   3.328   5.805
 1887TIP3    H1 5625   1.675   3.351   5.898
 1887TIP3    H2 5626   1.721   3.240   5.805
 1888TIP3   OH2 5627   2.734   3.262   4.541
 1888TIP3    H1 5628   2.708   3.350   4.569
 1888TIP3    H2 5629   2.743   3.212   4.622
 1889TIP3   OH2 5630   5.405   1.782   5.168
 1889TIP3    H1 5631   5.397   1.834   5.088
 1889TIP3    H2 5632   5.314   1.765   5.195
 1890TIP3   OH2 5633   0.644   0.901   2.604
 1890TIP3    H1 5634   0.693   0.862   2.532
 1890TIP3    H2 5635   0.553   0.892   2.579
 1891TIP3   OH2 5636   4.236   6.484   1.031
 1891TIP3    H1 5637   4.155   6.535   1.041
 1891TIP3    H2 5638   4.230   6.417   1.099
 1892TIP3   OH2 5639   1.037   1.122   5.181
 1892TIP3    H1 5640   0.983   1.048   5.211
 1892TIP3    H2 5641   0.974   1.194   5.172
 1893TIP3   OH2 5642   4.023   1.792   0.317
 1893TIP3    H1 5643   4.077   1.714   0.313
 1893TIP3    H2 5644   3.964   1.785   0.242
 1894TIP3   OH2 5645   6.637   2.868   1.673
 1894TIP3    H1 5646   6.670   2.922   1.601
 1894TIP3    H2 5647   6.544   2.855   1.653
 1895TIP3   OH2 5648   1.853   3.553   5.466
 1895TIP3    H1 5649   1.792   3.494   5.511
 1895TIP3    H2 5650   1.798   3.601   5.405
 1896TIP3   OH2 5651   5.154   5.508   2.932
 1896TIP3    H1 5652   5.177   5.415   2.924
 1896TIP3    H2 5653   5.102   5.512   3.012
 1897TIP3   OH2 5654   4.035   2.809   5.481
 1897TIP3    H1 5655   3.966   2.836   5.420
 1897TIP3    H2 5656   4.040   2.881   5.544
 1898TIP3   OH2 5657   6.957   1.039   0.974
 1898TIP3    H1 5658   6.923   1.050   0.885
 1898TIP3    H2 5659   7.025   0.972   0.966
 1899TIP3   OH2 5660   2.147   5.957   5.116
 1899TIP3    H1 5661   2.193   5.874   5.110
 1899TIP3    H2 5662   2.216   6.022   5.129
 1900TIP3   OH2 5663   6.472   5.778   3.921
 1900TIP3    H1 5664   6.528   5.725   3.865
 1900TIP3    H2 5665   6.469   5.731   4.004
 1901TIP3   OH2 5666   0.820   1.698   3.307
 1901TIP3    H1 5667   0.851   1.641   3.378
 1901TIP3    H2 5668   0.882   1.771   3.307
 1902TIP3   OH2 5669   4.681   1.148   2.160
 1902TIP3    H1 5670   4.630   1.109   2.089
 1902TIP3    H2 5671   4.665   1.242   2.152
 1903TIP3   OH2 5672   6.994   2.915   1.456
 1903TIP3    H1 5673   6.923   2.956   1.506
 1903TIP3    H2 5674   7.072   2.929   1.510
 1904TIP3   OH2 5675   0.147   3.327   1.979
 1904TIP3    H1 5676   0.183   3.411   1.951
 1904TIP3    H2 5677   0.219   3.285   2.026
 1905TIP3   OH2 5678   5.094   4.666   3.247
 1905TIP3    H1 5679   5.032   4.684   3.317
 1905TIP3    H2 5680   5.045   4.681   3.166
 1906TIP3   OH2 5681   0.024   4.247   1.216
 1906TIP3    H1 5682   0.047   4.242   1.309
 1906TIP3    H2 5683  -0.025   4.167   1.199
 1907TIP3   OH2 5684   6.265   2.368   5.128
 1907TIP3    H1 5685   6.231   2.407   5.047
 1907TIP3    H2 5686   6.261   2.439   5.192
 1908TIP3   OH2 5687   5.928   2.199   1.629
 1908TIP3    H1 5688   6.023   2.202   1.638
 1908TIP3    H2 5689   5.906   2.275   1.574
 1909TIP3   OH2 5690   2.970   4.954   3.246
 1909TIP3    H1 5691   2.969   4.871   3.293
 1909TIP3    H2 5692   3.062   4.968   3.224
 1910TIP3   OH2 5693   6.326   0.863   2.132
 1910TIP3    H1 5694   6.236   0.866   2.163
 1910TIP3    H2 5695   6.338   0.945   2.084
 1911TIP3   OH2 5696   0.738   1.483   1.868
 1911TIP3    H1 5697   0.772   1.556   1.919
 1911TIP3    H2 5698   0.776   1.495   1.781
 1912TIP3   OH2 5699   0.466   4.407   5.803
 1912TIP3    H1 5700   0.440   4.315   5.801
 1912TIP3    H2 5701   0.561   4.406   5.811
 1913TIP3   OH2 5702   5.523   4.506   5.700
 1913TIP3    H1 5703   5.514   4.509   5.795
 1913TIP3    H2 5704   5.568   4.587   5.678
 1914TIP3   OH2 5705   2.433   1.335   5.794
 1914TIP3    H1 5706   2.486   1.264   5.831
 1914TIP3    H2 5707   2.496   1.405   5.778
 1915TIP3   OH2 5708   0.685   2.895   2.921
 1915TIP3    H1 5709   0.648   2.972   2.965
 1915TIP3    H2 5710   0.780   2.910   2.923
 1916TIP3   OH2 5711   3.569   3.786   1.073
 1916TIP3    H1 5712   3.653   3.757   1.108
 1916TIP3    H2 5713   3.556   3.873   1.110
 1917TIP3   OH2 5714   4.846   4.891   2.675
 1917TIP3    H1 5715   4.775   4.951   2.654
 1917TIP3    H2 5716   4.911   4.944   2.721
 1918TIP3   OH2 5717   4.303   1.614   3.645
 1918TIP3    H1 5718   4.297   1.699   3.601
 1918TIP3    H2 5719   4.212   1.590   3.662
 1919TIP3   OH2 5720   1.165   2.193   2.976
 1919TIP3    H1 5721   1.218   2.228   3.048
 1919TIP3    H2 5722   1.077   2.187   3.012
 1920TIP3   OH2 5723   1.044   3.688   4.089
 1920TIP3    H1 5724   0.965   3.719   4.046
 1920TIP3    H2 5725   1.110   3.685   4.020
 1921TIP3   OH2 5726   1.129   0.618   5.738
 1921TIP3    H1 5727   1.120   0.594   5.646
 1921TIP3    H2 5728   1.128   0.713   5.739
 1922TIP3   OH2 5729   4.278   5.857   1.393
 1922TIP3    H1 5730   4.360   5.901   1.370
 1922TIP3    H2 5731   4.286   5.838   1.487
 1923TIP3   OH2 5732   0.792   4.885   2.668
 1923TIP3    H1 5733   0.846   4.807   2.653
 1923TIP3    H2 5734   0.762   4.910   2.581
 1924TIP3   OH2 5735   0.537   4.670   2.699
 1924TIP3    H1 5736   0.577   4.718   2.771
 1924TIP3    H2 5737   0.586   4.588   2.694
 1925TIP3   OH2 5738   6.855   6.471   4.996
 1925TIP3    H1 5739   6.907   6.514   5.063
 1925TIP3    H2 5740   6.783   6.431   5.045
 1926TIP3   OH2 5741   6.100   3.216   3.103
 1926TIP3    H1 5742   6.077   3.223   3.196
 1926TIP3    H2 5743   6.195   3.220   3.101
 1927TIP3   OH2 5744   5.763   0.683   2.718
 1927TIP3    H1 5745   5.792   0.614   2.778
 1927TIP3    H2 5746   5.742   0.757   2.775
 1928TIP3   OH2 5747   2.621   5.997   4.036
 1928TIP3    H1 5748   2.559   5.929   4.008
 1928TIP3    H2 5749   2.707   5.958   4.022
 1929TIP3   OH2 5750   0.002   5.913   0.984
 1929TIP3    H1 5751   0.004   5.933   0.890
 1929TIP3    H2 5752   0.087   5.872   1.002
 1930TIP3   OH2 5753   4.531   2.860   4.208
 1930TIP3    H1 5754   4.566   2.776   4.239
 1930TIP3    H2 5755   4.450   2.872   4.258
 1931TIP3   OH2 5756   5.253   3.965   2.434
 1931TIP3    H1 5757   5.236   4.031   2.367
 1931TIP3    H2 5758   5.168   3.951   2.476
 1932TIP3   OH2 5759   5.813   4.668   1.987
 1932TIP3    H1 5760   5.789   4.581   1.954
 1932TIP3    H2 5761   5.860   4.709   1.914
 1933TIP3   OH2 5762   3.550   0.490   2.426
 1933TIP3    H1 5763   3.562   0.405   2.385
 1933TIP3    H2 5764   3.638   0.529   2.425
 1934TIP3   OH2 5765   3.239   3.587   1.091
 1934TIP3    H1 5766   3.211   3.620   1.005
 1934TIP3    H2 5767   3.183   3.511   1.107
 1935TIP3   OH2 5768   6.438   5.848   2.261
 1935TIP3    H1 5769   6.398   5.830   2.347
 1935TIP3    H2 5770   6.364   5.843   2.200
 1936TIP3   OH2 5771   7.108   5.741   1.165
 1936TIP3    H1 5772   7.155   5.812   1.123
 1936TIP3    H2 5773   7.019   5.746   1.130
 1937TIP3   OH2 5774   0.946   5.727   3.911
 1937TIP3    H1 5775   0.854   5.735   3.940
 1937TIP3    H2 5776   0.990   5.686   3.985
 1938TIP3   OH2 5777   4.501   6.501   0.940
 1938TIP3    H1 5778   4.407   6.496   0.956
 1938TIP3    H2 5779   4.518   6.595   0.927
 1939TIP3   OH2 5780   6.995   0.138   4.886
 1939TIP3    H1 5781   6.910   0.147   4.842
 1939TIP3    H2 5782   7.054   0.195   4.837
 1940TIP3   OH2 5783   5.151   3.158   2.973
 1940TIP3    H1 5784   5.189   3.238   3.012
 1940TIP3    H2 5785   5.121   3.186   2.886
 1941TIP3   OH2 5786   1.263   3.651   2.946
 1941TIP3    H1 5787   1.187   3.608   2.908
 1941TIP3    H2 5788   1.316   3.580   2.982
 1942TIP3   OH2 5789   2.914   1.329   5.667
 1942TIP3    H1 5790   2.824   1.342   5.697
 1942TIP3    H2 5791   2.940   1.413   5.628
 1943TIP3   OH2 5792   2.037   5.587   1.086
 1943TIP3    H1 5793   2.052   5.517   1.023
 1943TIP3    H2 5794   2.119   5.592   1.136
 1944TIP3   OH2 5795   6.809   1.479   0.893
 1944TIP3    H1 5796   6.728   1.524   0.869
 1944TIP3    H2 5797   6.819   1.411   0.827
 1945TIP3   OH2 5798   1.652   6.560   2.966
 1945TIP3    H1 5799   1.617   6.471   2.964
 1945TIP3    H2 5800   1.611   6.604   2.892
 1946TIP3   OH2 5801   0.783   3.139   0.071
 1946TIP3    H1 5802   0.739   3.082   0.133
 1946TIP3    H2 5803   0.751   3.227   0.092
 1947TIP3   OH2 5804   0.838   0.109   3.974
 1947TIP3    H1 5805   0.823   0.086   3.883
 1947TIP3    H2 5806   0.805   0.033   4.023
 1948TIP3   OH2 5807   5.537   2.596   2.756
 1948TIP3    H1 5808   5.472   2.549   2.807
 1948TIP3    H2 5809   5.605   2.531   2.739
 1949TIP3   OH2 5810   1.221   1.368   2.228
 1949TIP3    H1 5811   1.152   1.435   2.228
 1949TIP3    H2 5812   1.199   1.311   2.301
 1950TIP3   OH2 5813   2.575   5.450   3.159
 1950TIP3    H1 5814   2.639   5.385   3.189
 1950TIP3    H2 5815   2.491   5.405   3.162
 1951TIP3   OH2 5816   3.645   2.698   3.711
 1951TIP3    H1 5817   3.561   2.739   3.691
 1951TIP3    H2 5818   3.704   2.771   3.727
 1952TIP3   OH2 5819   6.231   2.008   3.625
 1952TIP3    H1 5820   6.155   1.965   3.584
 1952TIP3    H2 5821   6.272   2.057   3.554
 1953TIP3   OH2 5822   4.393   1.254   0.306
 1953TIP3    H1 5823   4.409   1.170   0.263
 1953TIP3    H2 5824   4.360   1.310   0.236
 1954TIP3   OH2 5825   6.429   4.493   4.881
 1954TIP3    H1 5826   6.424   4.529   4.793
 1954TIP3    H2 5827   6.517   4.516   4.912
 1955TIP3   OH2 5828   0.288   3.369   0.501
 1955TIP3    H1 5829   0.371   3.414   0.496
 1955TIP3    H2 5830   0.222   3.437   0.490
 1956TIP3   OH2 5831   4.451   2.983   2.173
 1956TIP3    H1 5832   4.528   3.030   2.205
 1956TIP3    H2 5833   4.377   3.033   2.204
 1957TIP3   OH2 5834   4.833   4.359   2.800
 1957TIP3    H1 5835   4.839   4.370   2.705
 1957TIP3    H2 5836   4.754   4.408   2.825
 1958TIP3   OH2 5837   0.069   4.146   5.869
 1958TIP3    H1 5838   0.065   4.213   5.800
 1958TIP3    H2 5839  -0.022   4.115   5.876
 1959TIP3   OH2 5840   0.902   0.395   5.579
 1959TIP3    H1 5841   0.947   0.344   5.646
 1959TIP3    H2 5842   0.972   0.439   5.530
 1960TIP3   OH2 5843   2.632   6.782   1.872
 1960TIP3    H1 5844   2.717   6.771   1.829
 1960TIP3    H2 5845   2.653   6.787   1.965
 1961TIP3   OH2 5846   5.211   1.810   5.707
 1961TIP3    H1 5847   5.198   1.747   5.637
 1961TIP3    H2 5848   5.306   1.814   5.720
 1962TIP3   OH2 5849   6.817   2.765   0.318
 1962TIP3    H1 5850   6.728   2.758   0.352
 1962TIP3    H2 5851   6.825   2.855   0.289
 1963TIP3   OH2 5852   4.536   2.182   0.796
 1963TIP3    H1 5853   4.596   2.150   0.863
 1963TIP3    H2 5854   4.490   2.103   0.766
 1964TIP3   OH2 5855   2.963   6.124   4.140
 1964TIP3    H1 5856   2.974   6.101   4.232
 1964TIP3    H2 5857   2.949   6.040   4.096
 1965TIP3   OH2 5858   6.166   3.747   4.254
 1965TIP3    H1 5859   6.223   3.810   4.210
 1965TIP3    H2 5860   6.146   3.786   4.338
 1966TIP3   OH2 5861   3.209   4.294   5.790
 1966TIP3    H1 5862   3.263   4.216   5.804
 1966TIP3    H2 5863   3.227   4.349   5.866
 1967TIP3   OH2 5864   3.418   0.799   1.865
 1967TIP3    H1 5865   3.329   0.826   1.843
 1967TIP3    H2 5866   3.444   0.742   1.794
 1968TIP3   OH2 5867   5.053   3.098   4.182
 1968TIP3    H1 5868   5.126   3.126   4.127
 1968TIP3    H2 5869   5.037   3.007   4.156
 1969TIP3   OH2 5870   2.622   3.803   4.071
 1969TIP3    H1 5871   2.710   3.774   4.095
 1969TIP3    H2 5872   2.606   3.881   4.124
 1970TIP3   OH2 5873   1.674   2.221   4.031
 1970TIP3    H1 5874   1.624   2.152   4.075
 1970TIP3    H2 5875   1.716   2.269   4.102
 1971TIP3   OH2 5876   2.551   4.227   0.576
 1971TIP3    H1 5877   2.548   4.269   0.490
 1971TIP3    H2 5878   2.482   4.160   0.572
 1972TIP3   OH2 5879   3.893   3.216   5.310
 1972TIP3    H1 5880   3.982   3.189   5.286
 1972TIP3    H2 5881   3.906   3.289   5.370
 1973TIP3   OH2 5882   2.285   0.025   2.310
 1973TIP3    H1 5883   2.354   0.051   2.249
 1973TIP3    H2 5884   2.260  -0.063   2.283
 1974TIP3   OH2 5885   6.994   1.661   4.960
 1974TIP3    H1 5886   7.040   1.734   4.918
 1974TIP3    H2 5887   6.954   1.613   4.888
 1975TIP3   OH2 5888   3.217   3.558   3.433
 1975TIP3    H1 5889   3.154   3.584   3.500
 1975TIP3    H2 5890   3.169   3.500   3.375
 1976TIP3   OH2 5891   1.234   2.198   2.724
 1976TIP3    H1 5892   1.278   2.115   2.705
 1976TIP3    H2 5893   1.209   2.192   2.816
 1977TIP3   OH2 5894   2.922   1.189   4.700
 1977TIP3    H1 5895   3.005   1.209   4.743
 1977TIP3    H2 5896   2.856   1.237   4.750
 1978TIP3   OH2 5897   0.473   1.531   1.182
 1978TIP3    H1 5898   0.450   1.546   1.091
 1978TIP3    H2 5899   0.431   1.604   1.230
 1979TIP3   OH2 5900   3.291   2.474   5.410
 1979TIP3    H1 5901   3.349   2.530   5.359
 1979TIP3    H2 5902   3.257   2.410   5.347
 1980TIP3   OH2 5903   2.386   1.270   0.273
 1980TIP3    H1 5904   2.462   1.214   0.257
 1980TIP3    H2 5905   2.387   1.286   0.368
 1981TIP3   OH2 5906   6.201   5.532   1.974
 1981TIP3    H1 5907   6.289   5.551   2.006
 1981TIP3    H2 5908   6.212   5.455   1.918
 1982TIP3   OH2 5909   6.089   6.604   4.420
 1982TIP3    H1 5910   6.100   6.515   4.387
 1982TIP3    H2 5911   6.135   6.659   4.357
 1983TIP3   OH2 5912   3.264   2.459   0.962
 1983TIP3    H1 5913   3.238   2.519   0.892
 1983TIP3    H2 5914   3.347   2.494   0.995
 1984TIP3   OH2 5915   3.901   5.310   2.595
 1984TIP3    H1 5916   3.975   5.260   2.563
 1984TIP3    H2 5917   3.884   5.275   2.683
 1985TIP3   OH2 5918   2.704   1.386   3.304
 1985TIP3    H1 5919   2.630   1.375   3.364
 1985TIP3    H2 5920   2.684   1.467   3.256
 1986TIP3   OH2 5921   1.025   3.823   5.380
 1986TIP3    H1 5922   0.970   3.759   5.426
 1986TIP3    H2 5923   1.100   3.771   5.351
 1987TIP3   OH2 5924   0.685   2.707   4.405
 1987TIP3    H1 5925   0.657   2.714   4.496
 1987TIP3    H2 5926   0.624   2.645   4.365
 1988TIP3   OH2 5927   0.072   4.336   1.477
 1988TIP3    H1 5928   0.092   4.422   1.514
 1988TIP3    H2 5929   0.122   4.274   1.530
 1989TIP3   OH2 5930   5.774   4.602   3.107
 1989TIP3    H1 5931   5.704   4.646   3.155
 1989TIP3    H2 5932   5.730   4.565   3.030
 1990TIP3   OH2 5933   6.214   1.015   4.427
 1990TIP3    H1 5934   6.182   1.068   4.500
 1990TIP3    H2 5935   6.288   1.064   4.392
 1991TIP3   OH2 5936   4.459   5.330   3.596
 1991TIP3    H1 5937   4.380   5.277   3.610
 1991TIP3    H2 5938   4.530   5.278   3.634
 1992TIP3   OH2 5939   4.997   2.197   1.841
 1992TIP3    H1 5940   4.911   2.158   1.823
 1992TIP3    H2 5941   5.060   2.131   1.812
 1993TIP3   OH2 5942   0.551   5.028   1.211
 1993TIP3    H1 5943   0.488   5.076   1.264
 1993TIP3    H2 5944   0.634   5.073   1.225
 1994TIP3   OH2 5945   5.545   5.623   4.309
 1994TIP3    H1 5946   5.592   5.619   4.226
 1994TIP3    H2 5947   5.614   5.621   4.375
 1995TIP3   OH2 5948   6.750   4.391   4.081
 1995TIP3    H1 5949   6.789   4.304   4.076
 1995TIP3    H2 5950   6.656   4.375   4.086
 1996TIP3   OH2 5951   2.856   0.067   3.999
 1996TIP3    H1 5952   2.896   0.142   3.954
 1996TIP3    H2 5953   2.925   0.002   4.003
 1997TIP3   OH2 5954   5.530   4.829   2.348
 1997TIP3    H1 5955   5.453   4.886   2.353
 1997TIP3    H2 5956   5.506   4.752   2.400
 1998TIP3   OH2 5957   4.597   4.776   2.093
 1998TIP3    H1 5958   4.558   4.862   2.084
 1998TIP3    H2 5959   4.529   4.715   2.064
 1999TIP3   OH2 5960   4.986   6.768   2.032
 1999TIP3    H1 5961   5.049   6.814   2.088
 1999TIP3    H2 5962   4.945   6.703   2.089
 2000TIP3   OH2 5963   4.481   2.225   1.683
 2000TIP3    H1 5964   4.462   2.309   1.643
 2000TIP3    H2 5965   4.536   2.180   1.618
 2001TIP3   OH2 5966   5.834   5.099   5.507
 2001TIP3    H1 5967   5.831   5.014   5.464
 2001TIP3    H2 5968   5.742   5.126   5.512
 2002TIP3   OH2 5969   4.416   1.914   0.714
 2002TIP3    H1 5970   4.357   1.885   0.784
 2002TIP3    H2 5971   4.499   1.869   0.732
 2003TIP3   OH2 5972   5.589   6.287   1.932
 2003TIP3    H1 5973   5.657   6.352   1.948
 2003TIP3    H2 5974   5.630   6.223   1.873
 2004TIP3   OH2 5975   1.590   2.561   3.443
 2004TIP3    H1 5976   1.569   2.482   3.492
 2004TIP3    H2 5977   1.516   2.620   3.458
 2005TIP3   OH2 5978   7.012   2.570   3.965
 2005TIP3    H1 5979   6.937   2.630   3.969
 2005TIP3    H2 5980   7.087   2.627   3.948
 2006TIP3   OH2 5981   4.989   5.642   3.501
 2006TIP3    H1 5982   4.899   5.615   3.521
 2006TIP3    H2 5983   4.981   5.693   3.420
 2007TIP3   OH2 5984   5.559   1.440   5.557
 2007TIP3    H1 5985   5.597   1.491   5.628
 2007TIP3    H2 5986   5.499   1.500   5.513
 2008TIP3   OH2 5987   4.739   6.708   2.421
 2008TIP3    H1 5988   4.820   6.759   2.416
 2008TIP3    H2 5989   4.743   6.650   2.344
 2009TIP3   OH2 5990   2.737   2.034   2.746
 2009TIP3    H1 5991   2.821   2.018   2.790
 2009TIP3    H2 5992   2.742   2.125   2.716
 2010TIP3   OH2 5993   1.648   6.240   2.841
 2010TIP3    H1 5994   1.725   6.201   2.881
 2010TIP3    H2 5995   1.585   6.168   2.834
 2011TIP3   OH2 5996   6.479   4.108   5.036
 2011TIP3    H1 5997   6.385   4.089   5.035
 2011TIP3    H2 5998   6.495   4.156   4.954
 2012TIP3   OH2 5999   3.706   5.080   5.074
 2012TIP3    H1 6000   3.671   5.014   5.014
 2012TIP3    H2 6001   3.702   5.162   5.024
 2013TIP3   OH2 6002   2.276   2.797   1.781
 2013TIP3    H1 6003   2.263   2.884   1.743
 2013TIP3    H2 6004   2.370   2.780   1.770
 2014TIP3   OH2 6005   4.869   5.043   4.931
 2014TIP3    H1 6006   4.918   5.027   5.011
 2014TIP3    H2 6007   4.918   5.111   4.885
 2015TIP3   OH2 6008   3.007   4.541   5.885
 2015TIP3    H1 6009   3.005   4.544   5.789
 2015TIP3    H2 6010   3.076   4.477   5.905
 2016TIP3   OH2 6011   2.913   6.656   3.517
 2016TIP3    H1 6012   2.892   6.574   3.474
 2016TIP3    H2 6013   2.839   6.672   3.576
 2017TIP3   OH2 6014   6.932   6.686   0.377
 2017TIP3    H1 6015   6.879   6.759   0.346
 2017TIP3    H2 6016   7.002   6.678   0.312
 2018TIP3   OH2 6017   3.968   4.397   3.697
 2018TIP3    H1 6018   4.056   4.397   3.733
 2018TIP3    H2 6019   3.981   4.395   3.602
 2019TIP3   OH2 6020   5.302   1.164   2.887
 2019TIP3    H1 6021   5.212   1.136   2.867
 2019TIP3    H2 6022   5.293   1.253   2.920
 2020TIP3   OH2 6023   2.755   0.845   2.989
 2020TIP3    H1 6024   2.764   0.801   3.073
 2020TIP3    H2 6025   2.770   0.938   3.008
 2021TIP3   OH2 6026   3.860   1.088   0.342
 2021TIP3    H1 6027   3.915   1.101   0.264
 2021TIP3    H2 6028   3.865   1.171   0.389
 2022TIP3   OH2 6029   6.464   5.966   3.706
 2022TIP3    H1 6030   6.428   5.921   3.629
 2022TIP3    H2 6031   6.442   5.908   3.779
 2023TIP3   OH2 6032   6.267   0.493   3.965
 2023TIP3    H1 6033   6.185   0.514   4.010
 2023TIP3    H2 6034   6.331   0.553   4.003
 2024TIP3   OH2 6035   1.798   5.635   1.222
 2024TIP3    H1 6036   1.786   5.617   1.316
 2024TIP3    H2 6037   1.875   5.583   1.198
 2025TIP3   OH2 6038   3.797   0.125   5.849
 2025TIP3    H1 6039   3.873   0.183   5.835
 2025TIP3    H2 6040   3.745   0.171   5.916
 2026TIP3   OH2 6041   6.683   2.799   0.821
 2026TIP3    H1 6042   6.597   2.773   0.786
 2026TIP3    H2 6043   6.730   2.717   0.833
 2027TIP3   OH2 6044   4.787   4.559   4.503
 2027TIP3    H1 6045   4.766   4.515   4.586
 2027TIP3    H2 6046   4.878   4.587   4.513
 2028TIP3   OH2 6047   5.269   3.629   3.223
 2028TIP3    H1 6048   5.326   3.573   3.276
 2028TIP3    H2 6049   5.328   3.691   3.180
 2029TIP3   OH2 6050   6.340   1.320   5.793
 2029TIP3    H1 6051   6.309   1.234   5.822
 2029TIP3    H2 6052   6.262   1.362   5.755
 2030TIP3   OH2 6053   6.416   0.574   1.180
 2030TIP3    H1 6054   6.388   0.483   1.175
 2030TIP3    H2 6055   6.400   0.610   1.093
 2031TIP3   OH2 6056   4.898   2.524   5.667
 2031TIP3    H1 6057   4.926   2.440   5.703
 2031TIP3    H2 6058   4.934   2.526   5.578
 2032TIP3   OH2 6059   5.982   2.003   0.145
 2032TIP3    H1 6060   5.918   2.064   0.183
 2032TIP3    H2 6061   6.053   2.059   0.114
 2033TIP3   OH2 6062   3.400   1.025   5.608
 2033TIP3    H1 6063   3.441   0.942   5.631
 2033TIP3    H2 6064   3.464   1.091   5.637
 2034TIP3   OH2 6065   3.882   1.960   4.600
 2034TIP3    H1 6066   3.855   1.925   4.515
 2034TIP3    H2 6067   3.932   1.889   4.640
 2035TIP3   OH2 6068   6.835   4.235   1.899
 2035TIP3    H1 6069   6.826   4.141   1.885
 2035TIP3    H2 6070   6.807   4.275   1.817
 2036TIP3   OH2 6071   6.437   6.452   4.693
 2036TIP3    H1 6072   6.465   6.537   4.726
 2036TIP3    H2 6073   6.517   6.401   4.686
 2037TIP3   OH2 6074   3.499   6.241   5.729
 2037TIP3    H1 6075   3.582   6.194   5.733
 2037TIP3    H2 6076   3.477   6.258   5.820
 2038TIP3   OH2 6077   5.975   3.829   2.069
 2038TIP3    H1 6078   5.911   3.886   2.111
 2038TIP3    H2 6079   6.050   3.887   2.051
 2039TIP3   OH2 6080   5.386   0.550   3.286
 2039TIP3    H1 6081   5.363   0.487   3.218
 2039TIP3    H2 6082   5.352   0.634   3.253
 2040TIP3   OH2 6083   1.057   6.319   2.889
 2040TIP3    H1 6084   1.041   6.409   2.918
 2040TIP3    H2 6085   1.088   6.274   2.968
 2041TIP3   OH2 6086   1.329   1.556   2.933
 2041TIP3    H1 6087   1.255   1.561   2.994
 2041TIP3    H2 6088   1.300   1.496   2.865
 2042TIP3   OH2 6089   1.307   5.016   1.079
 2042TIP3    H1 6090   1.371   4.946   1.068
 2042TIP3    H2 6091   1.237   4.978   1.131
 2043TIP3   OH2 6092   4.555   0.748   5.563
 2043TIP3    H1 6093   4.478   0.722   5.512
 2043TIP3    H2 6094   4.532   0.727   5.654
 2044TIP3   OH2 6095   5.453   6.277   4.657
 2044TIP3    H1 6096   5.437   6.183   4.663
 2044TIP3    H2 6097   5.391   6.307   4.591
 2045TIP3   OH2 6098   6.220   4.761   4.181
 2045TIP3    H1 6099   6.208   4.695   4.249
 2045TIP3    H2 6100   6.175   4.725   4.105
 2046TIP3   OH2 6101   3.615   2.894   4.688
 2046TIP3    H1 6102   3.632   2.815   4.738
 2046TIP3    H2 6103   3.692   2.948   4.702
 2047TIP3   OH2 6104   4.760   4.024   0.750
 2047TIP3    H1 6105   4.827   3.959   0.773
 2047TIP3    H2 6106   4.686   3.972   0.720
 2048TIP3   OH2 6107   2.867   2.237   1.583
 2048TIP3    H1 6108   2.932   2.306   1.573
 2048TIP3    H2 6109   2.797   2.276   1.635
 2049TIP3   OH2 6110   2.062   0.371   3.449
 2049TIP3    H1 6111   2.025   0.449   3.490
 2049TIP3    H2 6112   2.125   0.405   3.386
 2050TIP3   OH2 6113   6.080   1.128   3.294
 2050TIP3    H1 6114   6.086   1.041   3.333
 2050TIP3    H2 6115   5.989   1.134   3.264
 2051TIP3   OH2 6116   6.030   5.654   5.278
 2051TIP3    H1 6117   5.968   5.604   5.331
 2051TIP3    H2 6118   5.981   5.732   5.252
 2052TIP3   OH2 6119   5.683   4.137   2.902
 2052TIP3    H1 6120   5.736   4.096   2.835
 2052TIP3    H2 6121   5.604   4.082   2.908
 2053TIP3   OH2 6122   6.112   5.308   1.471
 2053TIP3    H1 6123   6.027   5.303   1.514
 2053TIP3    H2 6124   6.106   5.247   1.398
 2054TIP3   OH2 6125   4.831   2.420   2.744
 2054TIP3    H1 6126   4.776   2.408   2.821
 2054TIP3    H2 6127   4.775   2.397   2.670
 2055TIP3   OH2 6128   2.546   5.921   1.143
 2055TIP3    H1 6129   2.623   5.869   1.168
 2055TIP3    H2 6130   2.565   5.948   1.053
 2056TIP3   OH2 6131   5.915   4.421   0.757
 2056TIP3    H1 6132   5.909   4.509   0.720
 2056TIP3    H2 6133   5.905   4.434   0.851
 2057TIP3   OH2 6134   4.950   3.999   2.758
 2057TIP3    H1 6135   5.025   3.990   2.816
 2057TIP3    H2 6136   4.969   3.939   2.685
 2058TIP3   OH2 6137   4.442  -0.005   4.559
 2058TIP3    H1 6138   4.454   0.085   4.529
 2058TIP3    H2 6139   4.487  -0.058   4.492
 2059TIP3   OH2 6140   5.145   3.375   0.190
 2059TIP3    H1 6141   5.141   3.458   0.142
 2059TIP3    H2 6142   5.109   3.310   0.130
 2060TIP3   OH2 6143   6.801   0.654   1.711
 2060TIP3    H1 6144   6.847   0.655   1.627
 2060TIP3    H2 6145   6.759   0.739   1.717
 2061TIP3   OH2 6146   6.093   1.031   5.545
 2061TIP3    H1 6147   6.078   1.113   5.592
 2061TIP3    H2 6148   6.122   1.059   5.458
 2062TIP3   OH2 6149   1.489   0.589   5.131
 2062TIP3    H1 6150   1.415   0.611   5.074
 2062TIP3    H2 6151   1.566   0.606   5.077
 2063TIP3   OH2 6152   7.070   0.461   1.109
 2063TIP3    H1 6153   7.150   0.434   1.063
 2063TIP3    H2 6154   7.095   0.539   1.158
 2064TIP3   OH2 6155   2.367   2.299   0.687
 2064TIP3    H1 6156   2.274   2.321   0.679
 2064TIP3    H2 6157   2.395   2.281   0.598
 2065TIP3   OH2 6158   6.535   6.052   1.245
 2065TIP3    H1 6159   6.465   5.998   1.209
 2065TIP3    H2 6160   6.556   6.010   1.328
 2066TIP3   OH2 6161   5.731   3.114   3.290
 2066TIP3    H1 6162   5.642   3.086   3.267
 2066TIP3    H2 6163   5.780   3.105   3.208
 2067TIP3   OH2 6164   7.141   1.337   4.968
 2067TIP3    H1 6165   7.065   1.281   4.984
 2067TIP3    H2 6166   7.171   1.313   4.881
 2068TIP3   OH2 6167   5.218   1.107   2.415
 2068TIP3    H1 6168   5.252   1.045   2.479
 2068TIP3    H2 6169   5.267   1.088   2.335
 2069TIP3   OH2 6170   0.823   4.586   5.817
 2069TIP3    H1 6171   0.856   4.503   5.781
 2069TIP3    H2 6172   0.879   4.603   5.893
 2070TIP3   OH2 6173   0.506   2.368   2.615
 2070TIP3    H1 6174   0.413   2.384   2.602
 2070TIP3    H2 6175   0.534   2.322   2.536
 2071TIP3   OH2 6176   4.701   6.558   2.172
 2071TIP3    H1 6177   4.629   6.499   2.192
 2071TIP3    H2 6178   4.762   6.505   2.120
 2072TIP3   OH2 6179   6.278   6.763   3.269
 2072TIP3    H1 6180   6.374   6.770   3.272
 2072TIP3    H2 6181   6.256   6.777   3.177
 2073TIP3   OH2 6182   1.849   2.060   1.380
 2073TIP3    H1 6183   1.889   2.139   1.345
 2073TIP3    H2 6184   1.759   2.062   1.348
 2074TIP3   OH2 6185   6.463   1.680   5.584
 2074TIP3    H1 6186   6.454   1.590   5.551
 2074TIP3    H2 6187   6.547   1.681   5.629
 2075TIP3   OH2 6188   5.814   2.757   0.536
 2075TIP3    H1 6189   5.851   2.805   0.610
 2075TIP3    H2 6190   5.870   2.781   0.462
 2076TIP3   OH2 6191   6.332   4.432   4.501
 2076TIP3    H1 6192   6.359   4.340   4.507
 2076TIP3    H2 6193   6.414   4.480   4.489
 2077TIP3   OH2 6194   0.446   5.002   5.591
 2077TIP3    H1 6195   0.507   4.944   5.546
 2077TIP3    H2 6196   0.363   4.992   5.544
 2078TIP3   OH2 6197   0.851   0.777   0.197
 2078TIP3    H1 6198   0.893   0.709   0.143
 2078TIP3    H2 6199   0.922   0.811   0.252
 2079TIP3   OH2 6200   4.977   4.630   2.673
 2079TIP3    H1 6201   4.941   4.588   2.595
 2079TIP3    H2 6202   4.949   4.721   2.666
 2080TIP3   OH2 6203   0.989   0.182   3.074
 2080TIP3    H1 6204   0.933   0.114   3.113
 2080TIP3    H2 6205   1.075   0.167   3.113
 2081TIP3   OH2 6206   2.349   6.467   2.860
 2081TIP3    H1 6207   2.369   6.418   2.780
 2081TIP3    H2 6208   2.257   6.448   2.877
 2082TIP3   OH2 6209   3.012   4.021   3.181
 2082TIP3    H1 6210   2.920   4.001   3.164
 2082TIP3    H2 6211   3.010   4.079   3.257
 2083TIP3   OH2 6212   2.401   6.278   1.550
 2083TIP3    H1 6213   2.358   6.237   1.475
 2083TIP3    H2 6214   2.467   6.336   1.511
 2084TIP3   OH2 6215   4.202   1.215   4.256
 2084TIP3    H1 6216   4.178   1.244   4.343
 2084TIP3    H2 6217   4.205   1.119   4.263
 2085TIP3   OH2 6218   1.157   4.418   0.856
 2085TIP3    H1 6219   1.131   4.421   0.763
 2085TIP3    H2 6220   1.155   4.325   0.879
 2086TIP3   OH2 6221   3.875   4.896   0.422
 2086TIP3    H1 6222   3.924   4.975   0.400
 2086TIP3    H2 6223   3.783   4.921   0.411
 2087TIP3   OH2 6224   5.236   3.776   0.506
 2087TIP3    H1 6225   5.162   3.736   0.461
 2087TIP3    H2 6226   5.218   3.870   0.505
 2088TIP3   OH2 6227   2.383   2.935   3.415
 2088TIP3    H1 6228   2.340   2.918   3.331
 2088TIP3    H2 6229   2.470   2.897   3.405
 2089TIP3   OH2 6230   4.029   0.410   0.696
 2089TIP3    H1 6231   4.092   0.396   0.626
 2089TIP3    H2 6232   4.059   0.490   0.740
 2090TIP3   OH2 6233   2.640   6.059   0.900
 2090TIP3    H1 6234   2.666   6.123   0.834
 2090TIP3    H2 6235   2.627   5.978   0.851
 2091TIP3   OH2 6236   5.812   5.154   2.028
 2091TIP3    H1 6237   5.821   5.095   2.103
 2091TIP3    H2 6238   5.845   5.238   2.060
 2092TIP3   OH2 6239   3.495   0.476   0.435
 2092TIP3    H1 6240   3.579   0.518   0.416
 2092TIP3    H2 6241   3.464   0.520   0.515
 2093TIP3   OH2 6242   1.114   3.922   1.521
 2093TIP3    H1 6243   1.071   3.838   1.507
 2093TIP3    H2 6244   1.205   3.899   1.539
 2094TIP3   OH2 6245   7.179   1.199   1.395
 2094TIP3    H1 6246   7.193   1.269   1.458
 2094TIP3    H2 6247   7.229   1.125   1.430
 2095TIP3   OH2 6248   1.528   5.897   0.800
 2095TIP3    H1 6249   1.496   5.862   0.717
 2095TIP3    H2 6250   1.457   5.952   0.833
 2096TIP3   OH2 6251   6.240   2.995   0.928
 2096TIP3    H1 6252   6.223   2.949   0.845
 2096TIP3    H2 6253   6.243   3.087   0.905
 2097TIP3   OH2 6254   4.847   0.797   3.942
 2097TIP3    H1 6255   4.807   0.713   3.964
 2097TIP3    H2 6256   4.778   0.861   3.959
 2098TIP3   OH2 6257   1.263   2.952   3.018
 2098TIP3    H1 6258   1.319   2.912   2.951
 2098TIP3    H2 6259   1.236   2.878   3.073
 2099TIP3   OH2 6260   4.595   0.198   0.772
 2099TIP3    H1 6261   4.684   0.227   0.794
 2099TIP3    H2 6262   4.601   0.173   0.679
 2100TIP3   OH2 6263   2.895   2.032   0.112
 2100TIP3    H1 6264   2.946   2.050   0.191
 2100TIP3    H2 6265   2.926   2.097   0.049
 2101TIP3   OH2 6266   1.688   4.076   2.175
 2101TIP3    H1 6267   1.692   4.172   2.179
 2101TIP3    H2 6268   1.780   4.049   2.181
 2102TIP3   OH2 6269   0.509   0.076   1.840
 2102TIP3    H1 6270   0.511   0.061   1.746
 2102TIP3    H2 6271   0.546   0.163   1.851
 2103TIP3   OH2 6272   6.909   3.330   4.420
 2103TIP3    H1 6273   6.924   3.292   4.333
 2103TIP3    H2 6274   6.992   3.371   4.443
 2104TIP3   OH2 6275   5.811   0.875   1.099
 2104TIP3    H1 6276   5.839   0.797   1.050
 2104TIP3    H2 6277   5.865   0.874   1.178
 2105TIP3   OH2 6278   1.734   6.363   2.015
 2105TIP3    H1 6279   1.645   6.336   2.037
 2105TIP3    H2 6280   1.728   6.396   1.926
 2106TIP3   OH2 6281   0.640   2.025   4.435
 2106TIP3    H1 6282   0.673   2.079   4.507
 2106TIP3    H2 6283   0.713   2.020   4.373
 2107TIP3   OH2 6284   3.373   6.578   1.654
 2107TIP3    H1 6285   3.397   6.663   1.690
 2107TIP3    H2 6286   3.282   6.566   1.678
 2108TIP3   OH2 6287   3.289   3.669   0.235
 2108TIP3    H1 6288   3.311   3.760   0.217
 2108TIP3    H2 6289   3.367   3.633   0.277
 2109TIP3   OH2 6290   2.569   4.942   4.446
 2109TIP3    H1 6291   2.536   4.881   4.512
 2109TIP3    H2 6292   2.589   5.022   4.494
 2110TIP3   OH2 6293   5.357   5.692   0.410
 2110TIP3    H1 6294   5.409   5.681   0.330
 2110TIP3    H2 6295   5.421   5.720   0.476
 2111TIP3   OH2 6296   3.026   1.888   2.296
 2111TIP3    H1 6297   3.092   1.866   2.362
 2111TIP3    H2 6298   3.049   1.977   2.269
 2112TIP3   OH2 6299   3.660   4.768   4.961
 2112TIP3    H1 6300   3.727   4.705   4.984
 2112TIP3    H2 6301   3.688   4.804   4.876
 2113TIP3   OH2 6302   1.755   5.187   0.797
 2113TIP3    H1 6303   1.795   5.216   0.879
 2113TIP3    H2 6304   1.756   5.264   0.740
 2114TIP3   OH2 6305   5.145   2.650   1.316
 2114TIP3    H1 6306   5.237   2.669   1.333
 2114TIP3    H2 6307   5.097   2.695   1.385
 2115TIP3   OH2 6308   0.900   1.535   1.659
 2115TIP3    H1 6309   0.980   1.482   1.665
 2115TIP3    H2 6310   0.929   1.619   1.624
 2116TIP3   OH2 6311   0.782   2.296   4.047
 2116TIP3    H1 6312   0.820   2.383   4.037
 2116TIP3    H2 6313   0.739   2.278   3.964
 2117TIP3   OH2 6314   3.750   1.535   0.394
 2117TIP3    H1 6315   3.717   1.480   0.324
 2117TIP3    H2 6316   3.818   1.483   0.436
 2118TIP3   OH2 6317   3.964   4.777   2.873
 2118TIP3    H1 6318   3.959   4.840   2.945
 2118TIP3    H2 6319   4.013   4.703   2.909
 2119TIP3   OH2 6320   3.558   2.244   5.699
 2119TIP3    H1 6321   3.500   2.227   5.773
 2119TIP3    H2 6322   3.619   2.170   5.699
 2120TIP3   OH2 6323   2.811   3.033   3.519
 2120TIP3    H1 6324   2.898   3.065   3.546
 2120TIP3    H2 6325   2.827   2.944   3.489
 2121TIP3   OH2 6326   6.072   6.515   5.109
 2121TIP3    H1 6327   6.076   6.464   5.028
 2121TIP3    H2 6328   6.063   6.450   5.179
 2122TIP3   OH2 6329   2.854   4.435   0.242
 2122TIP3    H1 6330   2.885   4.366   0.184
 2122TIP3    H2 6331   2.759   4.427   0.241
 2123TIP3   OH2 6332   1.273   2.930   1.829
 2123TIP3    H1 6333   1.283   2.836   1.814
 2123TIP3    H2 6334   1.216   2.960   1.758
 2124TIP3   OH2 6335   4.643   1.779   1.269
 2124TIP3    H1 6336   4.614   1.703   1.320
 2124TIP3    H2 6337   4.659   1.847   1.335
 2125TIP3   OH2 6338   3.799   1.838   1.114
 2125TIP3    H1 6339   3.891   1.864   1.107
 2125TIP3    H2 6340   3.751   1.920   1.105
 2126TIP3   OH2 6341   2.685   5.099   0.735
 2126TIP3    H1 6342   2.655   5.035   0.800
 2126TIP3    H2 6343   2.640   5.074   0.655
 2127TIP3   OH2 6344   3.806   5.905   1.435
 2127TIP3    H1 6345   3.730   5.847   1.428
 2127TIP3    H2 6346   3.881   5.849   1.415
 2128TIP3   OH2 6347   2.076   6.282   5.279
 2128TIP3    H1 6348   2.119   6.208   5.324
 2128TIP3    H2 6349   2.126   6.293   5.198
 2129TIP3   OH2 6350   0.153   1.979   0.257
 2129TIP3    H1 6351   0.117   1.925   0.327
 2129TIP3    H2 6352   0.238   2.009   0.291
 2130TIP3   OH2 6353   5.518   0.847   0.282
 2130TIP3    H1 6354   5.437   0.879   0.322
 2130TIP3    H2 6355   5.489   0.775   0.226
 2131TIP3   OH2 6356   3.834   0.351   0.392
 2131TIP3    H1 6357   3.824   0.429   0.337
 2131TIP3    H2 6358   3.800   0.378   0.477
 2132TIP3   OH2 6359   6.703   0.929   5.050
 2132TIP3    H1 6360   6.773   0.863   5.046
 2132TIP3    H2 6361   6.661   0.924   4.964
 2133TIP3   OH2 6362   2.413   1.199   5.337
 2133TIP3    H1 6363   2.422   1.293   5.351
 2133TIP3    H2 6364   2.479   1.160   5.394
 2134TIP3   OH2 6365   0.966   0.176   0.478
 2134TIP3    H1 6366   0.935   0.146   0.563
 2134TIP3    H2 6367   0.918   0.123   0.414
 2135TIP3   OH2 6368   0.208   2.604   3.121
 2135TIP3    H1 6369   0.258   2.661   3.180
 2135TIP3    H2 6370   0.204   2.520   3.166
 2136TIP3   OH2 6371   1.894   0.873   4.911
 2136TIP3    H1 6372   1.806   0.837   4.907
 2136TIP3    H2 6373   1.936   0.842   4.831
 2137TIP3   OH2 6374   7.200   6.118   3.495
 2137TIP3    H1 6375   7.116   6.077   3.518
 2137TIP3    H2 6376   7.176   6.194   3.442
 2138TIP3   OH2 6377   7.085   5.156   0.538
 2138TIP3    H1 6378   7.053   5.098   0.468
 2138TIP3    H2 6379   7.006   5.177   0.589
 2139TIP3   OH2 6380   4.666   0.968   4.120
 2139TIP3    H1 6381   4.602   1.039   4.127
 2139TIP3    H2 6382   4.716   0.974   4.201
 2140TIP3   OH2 6383   3.022   2.621   3.035
 2140TIP3    H1 6384   3.075   2.693   3.071
 2140TIP3    H2 6385   2.977   2.659   2.960
 2141TIP3   OH2 6386   1.305   0.387   1.858
 2141TIP3    H1 6387   1.276   0.353   1.774
 2141TIP3    H2 6388   1.331   0.478   1.841
 2142TIP3   OH2 6389   3.055   6.241   2.201
 2142TIP3    H1 6390   3.115   6.169   2.184
 2142TIP3    H2 6391   3.112   6.314   2.226
 2143TIP3   OH2 6392   0.049   1.041   3.942
 2143TIP3    H1 6393   0.020   0.959   3.902
 2143TIP3    H2 6394   0.139   1.053   3.910
 2144TIP3   OH2 6395   0.240   2.291   5.020
 2144TIP3    H1 6396   0.299   2.221   4.990
 2144TIP3    H2 6397   0.159   2.276   4.971
 2145TIP3   OH2 6398   6.769   2.314   0.298
 2145TIP3    H1 6399   6.789   2.230   0.256
 2145TIP3    H2 6400   6.769   2.377   0.226
 2146TIP3   OH2 6401   6.328   3.931   1.680
 2146TIP3    H1 6402   6.369   3.942   1.766
 2146TIP3    H2 6403   6.300   3.840   1.678
 2147TIP3   OH2 6404   2.545   1.050   4.318
 2147TIP3    H1 6405   2.584   0.964   4.330
 2147TIP3    H2 6406   2.619   1.109   4.304
 2148TIP3   OH2 6407   6.627   0.034   2.073
 2148TIP3    H1 6408   6.544   0.039   2.027
 2148TIP3    H2 6409   6.693   0.020   2.005
 2149TIP3   OH2 6410   0.567   6.622   2.980
 2149TIP3    H1 6411   0.490   6.678   2.994
 2149TIP3    H2 6412   0.641   6.683   2.978
 2150TIP3   OH2 6413   1.024   5.896   0.497
 2150TIP3    H1 6414   1.060   5.839   0.565
 2150TIP3    H2 6415   1.008   5.838   0.423
 2151TIP3   OH2 6416   1.960   5.768   0.548
 2151TIP3    H1 6417   1.917   5.701   0.496
 2151TIP3    H2 6418   1.891   5.807   0.601
 2152TIP3   OH2 6419   0.497   2.693   2.240
 2152TIP3    H1 6420   0.551   2.662   2.313
 2152TIP3    H2 6421   0.408   2.695   2.275
 2153TIP3   OH2 6422   1.566   5.664   3.295
 2153TIP3    H1 6423   1.638   5.635   3.240
 2153TIP3    H2 6424   1.554   5.594   3.359
 2154TIP3   OH2 6425   0.359   4.009   2.274
 2154TIP3    H1 6426   0.334   4.098   2.248
 2154TIP3    H2 6427   0.275   3.965   2.292
 2155TIP3   OH2 6428   3.243   3.514   1.419
 2155TIP3    H1 6429   3.232   3.490   1.511
 2155TIP3    H2 6430   3.215   3.605   1.415
 2156TIP3   OH2 6431   3.628   2.440   3.482
 2156TIP3    H1 6432   3.597   2.460   3.394
 2156TIP3    H2 6433   3.674   2.519   3.509
 2157TIP3   OH2 6434   3.377   2.274   4.155
 2157TIP3    H1 6435   3.315   2.324   4.207
 2157TIP3    H2 6436   3.373   2.185   4.191
 2158TIP3   OH2 6437   0.678   1.448   0.296
 2158TIP3    H1 6438   0.616   1.488   0.358
 2158TIP3    H2 6439   0.749   1.511   0.289
 2159TIP3   OH2 6440   1.844   5.840   2.200
 2159TIP3    H1 6441   1.922   5.877   2.159
 2159TIP3    H2 6442   1.772   5.896   2.170
 2160TIP3   OH2 6443   2.305   2.003   2.368
 2160TIP3    H1 6444   2.353   2.048   2.438
 2160TIP3    H2 6445   2.347   2.031   2.287
 2161TIP3   OH2 6446   2.806   1.568   2.403
 2161TIP3    H1 6447   2.772   1.535   2.486
 2161TIP3    H2 6448   2.736   1.550   2.340
 2162TIP3   OH2 6449   1.744   4.252   0.966
 2162TIP3    H1 6450   1.714   4.222   1.052
 2162TIP3    H2 6451   1.663   4.273   0.919
 2163TIP3   OH2 6452   4.838   2.056   5.275
 2163TIP3    H1 6453   4.769   2.093   5.220
 2163TIP3    H2 6454   4.912   2.116   5.266
 2164TIP3   OH2 6455   5.966   6.283   1.511
 2164TIP3    H1 6456   6.030   6.239   1.455
 2164TIP3    H2 6457   6.001   6.275   1.599
 2165TIP3   OH2 6458   6.009   0.742   3.857
 2165TIP3    H1 6459   6.064   0.758   3.934
 2165TIP3    H2 6460   5.931   0.795   3.872
 2166TIP3   OH2 6461   3.822   5.058   0.703
 2166TIP3    H1 6462   3.895   5.000   0.682
 2166TIP3    H2 6463   3.759   5.001   0.748
 2167TIP3   OH2 6464   1.021   5.342   1.362
 2167TIP3    H1 6465   0.997   5.419   1.413
 2167TIP3    H2 6466   1.115   5.350   1.348
 2168TIP3   OH2 6467   4.653   4.248   0.881
 2168TIP3    H1 6468   4.663   4.326   0.826
 2168TIP3    H2 6469   4.728   4.193   0.858
 2169TIP3   OH2 6470   0.824   2.027   0.099
 2169TIP3    H1 6471   0.869   1.985   0.025
 2169TIP3    H2 6472   0.861   2.115   0.102
 2170TIP3   OH2 6473   5.927   1.946   0.590
 2170TIP3    H1 6474   5.968   1.903   0.514
 2170TIP3    H2 6475   5.991   1.934   0.660
 2171TIP3   OH2 6476   2.138   2.680   1.525
 2171TIP3    H1 6477   2.189   2.683   1.605
 2171TIP3    H2 6478   2.159   2.762   1.480
 2172TIP3   OH2 6479   6.654   4.187   3.088
 2172TIP3    H1 6480   6.663   4.143   3.004
 2172TIP3    H2 6481   6.729   4.247   3.091
 2173TIP3   OH2 6482   5.808   1.359   3.846
 2173TIP3    H1 6483   5.730   1.310   3.870
 2173TIP3    H2 6484   5.866   1.351   3.921
 2174TIP3   OH2 6485   4.494   2.501   2.704
 2174TIP3    H1 6486   4.509   2.456   2.788
 2174TIP3    H2 6487   4.530   2.589   2.717
 2175TIP3   OH2 6488   2.771   0.462   1.664
 2175TIP3    H1 6489   2.782   0.400   1.735
 2175TIP3    H2 6490   2.859   0.481   1.633
 2176TIP3   OH2 6491   4.950   4.815   3.521
 2176TIP3    H1 6492   4.862   4.792   3.494
 2176TIP3    H2 6493   4.959   4.777   3.609
 2177TIP3   OH2 6494   5.366   6.549   1.650
 2177TIP3    H1 6495   5.291   6.492   1.635
 2177TIP3    H2 6496   5.442   6.497   1.623
 2178TIP3   OH2 6497   4.283   3.393   0.594
 2178TIP3    H1 6498   4.280   3.327   0.525
 2178TIP3    H2 6499   4.291   3.343   0.675
 2179TIP3   OH2 6500   6.646   4.937   4.408
 2179TIP3    H1 6501   6.607   4.867   4.356
 2179TIP3    H2 6502   6.716   4.972   4.353
 2180TIP3   OH2 6503   4.955   0.685   1.271
 2180TIP3    H1 6504   4.914   0.692   1.184
 2180TIP3    H2 6505   5.040   0.643   1.254
 2181TIP3   OH2 6506   2.295   3.339   1.954
 2181TIP3    H1 6507   2.223   3.358   2.014
 2181TIP3    H2 6508   2.264   3.267   1.900
 2182TIP3   OH2 6509   0.947   6.094   5.490
 2182TIP3    H1 6510   0.958   6.184   5.460
 2182TIP3    H2 6511   0.969   6.040   5.414
 2183TIP3   OH2 6512   6.297   2.180   3.055
 2183TIP3    H1 6513   6.215   2.181   3.104
 2183TIP3    H2 6514   6.336   2.095   3.076
 2184TIP3   OH2 6515   6.585   3.435   4.980
 2184TIP3    H1 6516   6.663   3.488   4.965
 2184TIP3    H2 6517   6.560   3.453   5.071
 2185TIP3   OH2 6518   4.490   3.342   1.749
 2185TIP3    H1 6519   4.420   3.282   1.724
 2185TIP3    H2 6520   4.459   3.428   1.722
 2186TIP3   OH2 6521   5.284   1.140   2.137
 2186TIP3    H1 6522   5.361   1.194   2.157
 2186TIP3    H2 6523   5.282   1.136   2.042
 2187TIP3   OH2 6524   5.022   6.112   4.134
 2187TIP3    H1 6525   5.060   6.052   4.070
 2187TIP3    H2 6526   5.008   6.059   4.212
 2188TIP3   OH2 6527   1.355   6.716   0.595
 2188TIP3    H1 6528   1.313   6.641   0.636
 2188TIP3    H2 6529   1.325   6.714   0.504
 2189TIP3   OH2 6530   3.610   3.160   0.956
 2189TIP3    H1 6531   3.529   3.161   1.008
 2189TIP3    H2 6532   3.646   3.248   0.968
 2190TIP3   OH2 6533   3.281   1.602   2.593
 2190TIP3    H1 6534   3.299   1.614   2.500
 2190TIP3    H2 6535   3.222   1.674   2.616
 2191TIP3   OH2 6536   0.795   2.807   5.442
 2191TIP3    H1 6537   0.701   2.816   5.428
 2191TIP3    H2 6538   0.818   2.878   5.501
 2192TIP3   OH2 6539   4.565   6.035   0.628
 2192TIP3    H1 6540   4.593   6.095   0.559
 2192TIP3    H2 6541   4.515   6.089   0.689
 2193TIP3   OH2 6542   4.709   6.266   1.363
 2193TIP3    H1 6543   4.805   6.270   1.364
 2193TIP3    H2 6544   4.684   6.264   1.455
 2194TIP3   OH2 6545   1.529   0.187   4.741
 2194TIP3    H1 6546   1.588   0.164   4.669
 2194TIP3    H2 6547   1.566   0.142   4.818
 2195TIP3   OH2 6548   2.043   0.312   5.628
 2195TIP3    H1 6549   2.038   0.218   5.611
 2195TIP3    H2 6550   1.964   0.332   5.677
 2196TIP3   OH2 6551   0.753   2.663   3.599
 2196TIP3    H1 6552   0.699   2.628   3.669
 2196TIP3    H2 6553   0.740   2.757   3.603
 2197TIP3   OH2 6554   0.416   3.360   5.693
 2197TIP3    H1 6555   0.426   3.329   5.783
 2197TIP3    H2 6556   0.367   3.290   5.649
 2198TIP3   OH2 6557   1.657   3.176   4.361
 2198TIP3    H1 6558   1.565   3.168   4.387
 2198TIP3    H2 6559   1.705   3.118   4.420
 2199TIP3   OH2 6560   4.241   2.775   5.857
 2199TIP3    H1 6561   4.273   2.753   5.770
 2199TIP3    H2 6562   4.146   2.773   5.849
 2200TIP3   OH2 6563   0.706   2.199   4.638
 2200TIP3    H1 6564   0.672   2.174   4.724
 2200TIP3    H2 6565   0.773   2.264   4.657
 2201TIP3   OH2 6566   0.200   1.431   2.359
 2201TIP3    H1 6567   0.285   1.436   2.316
 2201TIP3    H2 6568   0.209   1.486   2.437
 2202TIP3   OH2 6569   3.418   5.635   1.570
 2202TIP3    H1 6570   3.431   5.549   1.609
 2202TIP3    H2 6571   3.340   5.626   1.516
 2203TIP3   OH2 6572   1.351   5.446   1.671
 2203TIP3    H1 6573   1.372   5.511   1.603
 2203TIP3    H2 6574   1.412   5.374   1.654
 2204TIP3   OH2 6575   2.985   4.147   5.584
 2204TIP3    H1 6576   2.935   4.069   5.608
 2204TIP3    H2 6577   3.045   4.161   5.658
 2205TIP3   OH2 6578   4.044   0.703   3.217
 2205TIP3    H1 6579   4.070   0.793   3.237
 2205TIP3    H2 6580   4.124   0.661   3.186
 2206TIP3   OH2 6581   6.955   4.998   2.899
 2206TIP3    H1 6582   7.032   4.952   2.933
 2206TIP3    H2 6583   6.884   4.935   2.908
 2207TIP3   OH2 6584   0.990   2.476   4.017
 2207TIP3    H1 6585   0.985   2.476   4.112
 2207TIP3    H2 6586   1.083   2.462   3.997
 2208TIP3   OH2 6587   5.443   6.157   1.245
 2208TIP3    H1 6588   5.489   6.140   1.163
 2208TIP3    H2 6589   5.420   6.070   1.278
 2209TIP3   OH2 6590   5.034   1.722   3.065
 2209TIP3    H1 6591   5.084   1.766   3.134
 2209TIP3    H2 6592   5.015   1.635   3.101
 2210TIP3   OH2 6593   2.521   3.704   4.901
 2210TIP3    H1 6594   2.565   3.684   4.984
 2210TIP3    H2 6595   2.496   3.795   4.909
 2211TIP3   OH2 6596   3.477   6.817   1.394
 2211TIP3    H1 6597   3.476   6.731   1.351
 2211TIP3    H2 6598   3.540   6.808   1.465
 2212TIP3   OH2 6599   2.526   0.306   4.945
 2212TIP3    H1 6600   2.486   0.318   4.860
 2212TIP3    H2 6601   2.482   0.230   4.983
 2213TIP3   OH2 6602   3.516   3.910   5.725
 2213TIP3    H1 6603   3.559   3.838   5.679
 2213TIP3    H2 6604   3.586   3.955   5.771
 2214TIP3   OH2 6605   5.207   5.600   2.637
 2214TIP3    H1 6606   5.246   5.551   2.710
 2214TIP3    H2 6607   5.143   5.539   2.599
 2215TIP3   OH2 6608   5.224   3.100   3.948
 2215TIP3    H1 6609   5.259   3.055   3.871
 2215TIP3    H2 6610   5.295   3.157   3.977
 2216TIP3   OH2 6611   4.990   3.463   2.638
 2216TIP3    H1 6612   4.983   3.504   2.725
 2216TIP3    H2 6613   5.083   3.470   2.615
 2217TIP3   OH2 6614   1.827   1.868   0.244
 2217TIP3    H1 6615   1.782   1.952   0.234
 2217TIP3    H2 6616   1.774   1.820   0.308
 2218TIP3   OH2 6617   6.573   3.514   5.268
 2218TIP3    H1 6618   6.566   3.422   5.293
 2218TIP3    H2 6619   6.538   3.563   5.342
 2219TIP3   OH2 6620   5.346   2.225   1.953
 2219TIP3    H1 6621   5.365   2.301   1.897
 2219TIP3    H2 6622   5.291   2.260   2.023
 2220TIP3   OH2 6623   4.901   6.520   1.738
 2220TIP3    H1 6624   4.910   6.486   1.827
 2220TIP3    H2 6625   4.816   6.488   1.708
 2221TIP3   OH2 6626   5.599   3.848   5.457
 2221TIP3    H1 6627   5.685   3.806   5.448
 2221TIP3    H2 6628   5.550   3.789   5.514
 2222TIP3   OH2 6629   6.422   1.787   4.215
 2222TIP3    H1 6630   6.440   1.707   4.264
 2222TIP3    H2 6631   6.485   1.850   4.249
 2223TIP3   OH2 6632   6.307   1.134   1.593
 2223TIP3    H1 6633   6.319   1.162   1.684
 2223TIP3    H2 6634   6.393   1.102   1.566
 2224TIP3   OH2 6635   0.593   0.511   1.248
 2224TIP3    H1 6636   0.559   0.599   1.230
 2224TIP3    H2 6637   0.657   0.523   1.317
 2225TIP3   OH2 6638   3.359   3.789   1.627
 2225TIP3    H1 6639   3.266   3.765   1.634
 2225TIP3    H2 6640   3.403   3.706   1.608
 2226TIP3   OH2 6641   3.358   2.945   4.608
 2226TIP3    H1 6642   3.379   2.963   4.517
 2226TIP3    H2 6643   3.436   2.971   4.657
 2227TIP3   OH2 6644   0.076   5.734   3.207
 2227TIP3    H1 6645   0.165   5.723   3.174
 2227TIP3    H2 6646   0.070   5.826   3.231
 2228TIP3   OH2 6647   6.506   5.375   4.755
 2228TIP3    H1 6648   6.533   5.283   4.761
 2228TIP3    H2 6649   6.487   5.388   4.662
 2229TIP3   OH2 6650   6.506   6.551   0.625
 2229TIP3    H1 6651   6.480   6.601   0.702
 2229TIP3    H2 6652   6.561   6.611   0.575
 2230TIP3   OH2 6653   1.457   3.470   3.067
 2230TIP3    H1 6654   1.476   3.477   3.160
 2230TIP3    H2 6655   1.423   3.381   3.055
 2231TIP3   OH2 6656   0.403   6.232   1.516
 2231TIP3    H1 6657   0.401   6.328   1.516
 2231TIP3    H2 6658   0.312   6.207   1.534
 2232TIP3   OH2 6659   2.199   0.686   3.974
 2232TIP3    H1 6660   2.202   0.720   4.063
 2232TIP3    H2 6661   2.147   0.606   3.981
 2233TIP3   OH2 6662   3.022   3.788   3.564
 2233TIP3    H1 6663   3.028   3.735   3.643
 2233TIP3    H2 6664   3.111   3.818   3.548
 2234TIP3   OH2 6665   5.567   0.152   5.562
 2234TIP3    H1 6666   5.628   0.181   5.495
 2234TIP3    H2 6667   5.516   0.082   5.520
 2235TIP3   OH2 6668   5.784   4.320   2.461
 2235TIP3    H1 6669   5.782   4.289   2.551
 2235TIP3    H2 6670   5.877   4.325   2.440
 2236TIP3   OH2 6671   3.852   0.204   1.574
 2236TIP3    H1 6672   3.764   0.198   1.611
 2236TIP3    H2 6673   3.900   0.261   1.634
 2237TIP3   OH2 6674   1.412   1.820   5.416
 2237TIP3    H1 6675   1.382   1.766   5.343
 2237TIP3    H2 6676   1.331   1.847   5.460
 2238TIP3   OH2 6677   0.104   5.911   3.921
 2238TIP3    H1 6678   0.179   5.891   3.977
 2238TIP3    H2 6679   0.103   5.841   3.856
 2239TIP3   OH2 6680   4.781   6.182   0.093
 2239TIP3    H1 6681   4.687   6.165   0.083
 2239TIP3    H2 6682   4.785   6.259   0.150
 2240TIP3   OH2 6683   6.059   1.872   3.459
 2240TIP3    H1 6684   6.118   1.853   3.386
 2240TIP3    H2 6685   6.033   1.785   3.491
 2241TIP3   OH2 6686   6.615   1.426   0.427
 2241TIP3    H1 6687   6.627   1.470   0.343
 2241TIP3    H2 6688   6.675   1.470   0.487
 2242TIP3   OH2 6689   3.800   1.857   4.333
 2242TIP3    H1 6690   3.782   1.938   4.284
 2242TIP3    H2 6691   3.767   1.787   4.277
 2243TIP3   OH2 6692   1.539   2.228   2.101
 2243TIP3    H1 6693   1.612   2.202   2.044
 2243TIP3    H2 6694   1.471   2.257   2.040
 2244TIP3   OH2 6695   2.575   6.769   2.615
 2244TIP3    H1 6696   2.530   6.728   2.540
 2244TIP3    H2 6697   2.573   6.702   2.683
 2245TIP3   OH2 6698   4.209   2.070   1.248
 2245TIP3    H1 6699   4.198   2.163   1.227
 2245TIP3    H2 6700   4.223   2.068   1.343
 2246TIP3   OH2 6701   2.184   0.589   0.321
 2246TIP3    H1 6702   2.182   0.590   0.417
 2246TIP3    H2 6703   2.277   0.594   0.299
 2247TIP3   OH2 6704   5.457   1.554   5.886
 2247TIP3    H1 6705   5.450   1.632   5.830
 2247TIP3    H2 6706   5.498   1.585   5.966
 2248TIP3   OH2 6707   0.465   5.967   3.049
 2248TIP3    H1 6708   0.525   5.937   2.981
 2248TIP3    H2 6709   0.521   5.994   3.121
 2249TIP3   OH2 6710   2.013   2.888   2.413
 2249TIP3    H1 6711   2.035   2.821   2.348
 2249TIP3    H2 6712   2.038   2.849   2.497
 2250TIP3   OH2 6713   4.869   0.239   0.834
 2250TIP3    H1 6714   4.952   0.219   0.790
 2250TIP3    H2 6715   4.894   0.292   0.910
 2251TIP3   OH2 6716   6.373   3.409   3.320
 2251TIP3    H1 6717   6.348   3.343   3.385
 2251TIP3    H2 6718   6.299   3.470   3.317
 2252TIP3   OH2 6719   6.179   6.171   4.537
 2252TIP3    H1 6720   6.243   6.106   4.509
 2252TIP3    H2 6721   6.189   6.244   4.476
 2253TIP3   OH2 6722   5.241   0.624   3.570
 2253TIP3    H1 6723   5.284   0.701   3.532
 2253TIP3    H2 6724   5.230   0.564   3.496
 2254TIP3   OH2 6725   2.781   1.912   4.719
 2254TIP3    H1 6726   2.702   1.859   4.728
 2254TIP3    H2 6727   2.749   2.002   4.708
 2255TIP3   OH2 6728   3.368   2.671   4.737
 2255TIP3    H1 6729   3.443   2.730   4.726
 2255TIP3    H2 6730   3.302   2.704   4.676
 2256TIP3   OH2 6731   1.382   4.858   4.223
 2256TIP3    H1 6732   1.459   4.871   4.168
 2256TIP3    H2 6733   1.418   4.824   4.306
 2257TIP3   OH2 6734   2.521   0.559   5.821
 2257TIP3    H1 6735   2.612   0.578   5.843
 2257TIP3    H2 6736   2.520   0.552   5.726
 2258TIP3   OH2 6737   2.863   5.743   4.282
 2258TIP3    H1 6738   2.781   5.781   4.251
 2258TIP3    H2 6739   2.923   5.751   4.208
 2259TIP3   OH2 6740   6.099   3.215   3.363
 2259TIP3    H1 6741   6.084   3.308   3.374
 2259TIP3    H2 6742   6.183   3.199   3.407
 2260TIP3   OH2 6743   2.226   4.949   3.259
 2260TIP3    H1 6744   2.255   4.877   3.315
 2260TIP3    H2 6745   2.140   4.973   3.294
 2261TIP3   OH2 6746   5.794   0.737   1.512
 2261TIP3    H1 6747   5.842   0.781   1.442
 2261TIP3    H2 6748   5.795   0.800   1.584
 2262TIP3   OH2 6749   2.353   4.157   3.293
 2262TIP3    H1 6750   2.279   4.215   3.276
 2262TIP3    H2 6751   2.398   4.151   3.208
 2263TIP3   OH2 6752   4.606   0.778   0.685
 2263TIP3    H1 6753   4.517   0.803   0.708
 2263TIP3    H2 6754   4.647   0.859   0.654
 2264TIP3   OH2 6755   1.919   5.793   4.059
 2264TIP3    H1 6756   1.843   5.823   4.008
 2264TIP3    H2 6757   1.926   5.856   4.131
 2265TIP3   OH2 6758   1.658   5.151   4.218
 2265TIP3    H1 6759   1.719   5.080   4.199
 2265TIP3    H2 6760   1.601   5.154   4.141
 2266TIP3   OH2 6761   2.311   5.549   0.739
 2266TIP3    H1 6762   2.249   5.620   0.724
 2266TIP3    H2 6763   2.378   5.588   0.796
 2267TIP3   OH2 6764   6.805   3.942   4.784
 2267TIP3    H1 6765   6.764   3.885   4.719
 2267TIP3    H2 6766   6.809   3.888   4.863
 2268TIP3   OH2 6767   2.442   6.175   3.451
 2268TIP3    H1 6768   2.383   6.240   3.412
 2268TIP3    H2 6769   2.512   6.228   3.489
 2269TIP3   OH2 6770   6.170   5.039   1.634
 2269TIP3    H1 6771   6.208   4.971   1.689
 2269TIP3    H2 6772   6.092   5.069   1.682
 2270TIP3   OH2 6773   0.359   3.909   4.858
 2270TIP3    H1 6774   0.380   3.855   4.934
 2270TIP3    H2 6775   0.320   3.989   4.895
 2271TIP3   OH2 6776   4.808   3.010   3.221
 2271TIP3    H1 6777   4.759   3.081   3.262
 2271TIP3    H2 6778   4.755   2.932   3.236
 2272TIP3   OH2 6779   4.250   2.924   0.124
 2272TIP3    H1 6780   4.275   2.831   0.121
 2272TIP3    H2 6781   4.168   2.925   0.173
 2273TIP3   OH2 6782   4.788   1.416   4.117
 2273TIP3    H1 6783   4.822   1.503   4.098
 2273TIP3    H2 6784   4.709   1.409   4.063
 2274TIP3   OH2 6785   5.717   4.762   5.751
 2274TIP3    H1 6786   5.745   4.778   5.841
 2274TIP3    H2 6787   5.658   4.834   5.730
 2275TIP3   OH2 6788   3.832   5.249   2.313
 2275TIP3    H1 6789   3.898   5.253   2.243
 2275TIP3    H2 6790   3.884   5.237   2.392
 2276TIP3   OH2 6791   0.009   3.379   2.914
 2276TIP3    H1 6792  -0.006   3.401   3.006
 2276TIP3    H2 6793   0.104   3.378   2.905
 2277TIP3   OH2 6794   4.108   0.439   4.076
 2277TIP3    H1 6795   4.141   0.517   4.030
 2277TIP3    H2 6796   4.071   0.473   4.157
 2278TIP3   OH2 6797   3.675   3.353   2.004
 2278TIP3    H1 6798   3.612   3.423   1.989
 2278TIP3    H2 6799   3.695   3.320   1.916
 2279TIP3   OH2 6800   2.721   5.739   1.592
 2279TIP3    H1 6801   2.736   5.833   1.597
 2279TIP3    H2 6802   2.756   5.704   1.674
 2280TIP3   OH2 6803   3.489   0.410   4.422
 2280TIP3    H1 6804   3.410   0.452   4.389
 2280TIP3    H2 6805   3.560   0.470   4.397
 2281TIP3   OH2 6806   1.986   4.535   1.721
 2281TIP3    H1 6807   2.016   4.523   1.811
 2281TIP3    H2 6808   2.047   4.599   1.683
 2282TIP3   OH2 6809   4.964   1.119   2.991
 2282TIP3    H1 6810   4.996   1.157   2.909
 2282TIP3    H2 6811   4.871   1.102   2.974
 2283TIP3   OH2 6812   5.545   3.401   5.420
 2283TIP3    H1 6813   5.496   3.402   5.339
 2283TIP3    H2 6814   5.587   3.487   5.425
 2284TIP3   OH2 6815   6.835   0.143   5.624
 2284TIP3    H1 6816   6.855   0.102   5.540
 2284TIP3    H2 6817   6.741   0.164   5.620
 2285TIP3   OH2 6818   4.599   3.256   3.345
 2285TIP3    H1 6819   4.552   3.332   3.311
 2285TIP3    H2 6820   4.554   3.181   3.307
 2286TIP3   OH2 6821   1.717   3.002   2.676
 2286TIP3    H1 6822   1.771   3.070   2.715
 2286TIP3    H2 6823   1.627   3.026   2.698
 2287TIP3   OH2 6824   6.830   1.551   0.564
 2287TIP3    H1 6825   6.881   1.470   0.563
 2287TIP3    H2 6826   6.825   1.575   0.656
 2288TIP3   OH2 6827   1.552   6.208   0.318
 2288TIP3    H1 6828   1.647   6.199   0.324
 2288TIP3    H2 6829   1.534   6.293   0.357
 2289TIP3   OH2 6830   0.449   0.003   4.758
 2289TIP3    H1 6831   0.411  -0.059   4.820
 2289TIP3    H2 6832   0.493   0.067   4.814
 2290TIP3   OH2 6833   0.738   4.028   1.556
 2290TIP3    H1 6834   0.699   3.946   1.584
 2290TIP3    H2 6835   0.814   4.002   1.503
 2291TIP3   OH2 6836   3.612   1.041   5.156
 2291TIP3    H1 6837   3.682   0.980   5.178
 2291TIP3    H2 6838   3.575   1.006   5.074
 2292TIP3   OH2 6839   4.988   2.028   3.339
 2292TIP3    H1 6840   4.897   2.056   3.341
 2292TIP3    H2 6841   5.003   1.989   3.425
 2293TIP3   OH2 6842   3.766   6.083   4.204
 2293TIP3    H1 6843   3.728   6.004   4.165
 2293TIP3    H2 6844   3.704   6.107   4.274
 2294TIP3   OH2 6845   4.227   2.131   2.208
 2294TIP3    H1 6846   4.204   2.217   2.244
 2294TIP3    H2 6847   4.252   2.149   2.117
 2295TIP3   OH2 6848   4.870   6.417   3.270
 2295TIP3    H1 6849   4.860   6.509   3.246
 2295TIP3    H2 6850   4.868   6.370   3.187
 2296TIP3   OH2 6851   3.044   0.653   1.340
 2296TIP3    H1 6852   3.041   0.742   1.375
 2296TIP3    H2 6853   3.103   0.658   1.265
 2297TIP3   OH2 6854   5.262   0.707   1.456
 2297TIP3    H1 6855   5.354   0.702   1.483
 2297TIP3    H2 6856   5.216   0.655   1.522
 2298TIP3   OH2 6857   0.686   6.508   1.353
 2298TIP3    H1 6858   0.768   6.466   1.377
 2298TIP3    H2 6859   0.667   6.476   1.265
 2299TIP3   OH2 6860   5.231   4.721   3.527
 2299TIP3    H1 6861   5.149   4.751   3.487
 2299TIP3    H2 6862   5.209   4.637   3.566
 2300TIP3   OH2 6863   4.034   0.261   3.427
 2300TIP3    H1 6864   4.114   0.306   3.402
 2300TIP3    H2 6865   4.006   0.215   3.348
 2301TIP3   OH2 6866   1.623   4.926   0.472
 2301TIP3    H1 6867   1.599   5.017   0.454
 2301TIP3    H2 6868   1.686   4.931   0.544
 2302TIP3   OH2 6869   3.388   5.987   5.414
 2302TIP3    H1 6870   3.462   6.010   5.357
 2302TIP3    H2 6871   3.426   5.925   5.477
 2303TIP3   OH2 6872   5.202   2.955   5.054
 2303TIP3    H1 6873   5.159   2.870   5.053
 2303TIP3    H2 6874   5.252   2.957   5.136
 2304TIP3   OH2 6875   3.645   4.957   2.859
 2304TIP3    H1 6876   3.654   5.024   2.791
 2304TIP3    H2 6877   3.667   4.875   2.815
 2305TIP3   OH2 6878   0.430   4.063   5.588
 2305TIP3    H1 6879   0.351   4.022   5.624
 2305TIP3    H2 6880   0.409   4.156   5.585
 2306TIP3   OH2 6881   7.202   5.402   2.413
 2306TIP3    H1 6882   7.126   5.365   2.457
 2306TIP3    H2 6883   7.177   5.406   2.321
 2307TIP3   OH2 6884   4.788   2.936   5.673
 2307TIP3    H1 6885   4.821   2.967   5.758
 2307TIP3    H2 6886   4.704   2.980   5.663
 2308TIP3   OH2 6887   5.997   5.584   1.663
 2308TIP3    H1 6888   6.019   5.622   1.748
 2308TIP3    H2 6889   5.971   5.658   1.609
 2309TIP3   OH2 6890   6.171   4.561   1.397
 2309TIP3    H1 6891   6.094   4.618   1.394
 2309TIP3    H2 6892   6.208   4.574   1.484
 2310TIP3   OH2 6893   5.153   4.839   0.149
 2310TIP3    H1 6894   5.115   4.855   0.063
 2310TIP3    H2 6895   5.222   4.774   0.134
 2311TIP3   OH2 6896   0.139   0.131   0.066
 2311TIP3    H1 6897   0.129   0.109   0.158
 2311TIP3    H2 6898   0.224   0.095   0.041
 2312TIP3   OH2 6899   2.263   3.936   5.006
 2312TIP3    H1 6900   2.240   3.988   5.083
 2312TIP3    H2 6901   2.233   3.848   5.027
 2313TIP3   OH2 6902   6.846   4.229   2.228
 2313TIP3    H1 6903   6.756   4.238   2.258
 2313TIP3    H2 6904   6.838   4.190   2.141
 2314TIP3   OH2 6905   1.351   3.806   1.710
 2314TIP3    H1 6906   1.354   3.795   1.805
 2314TIP3    H2 6907   1.291   3.737   1.680
 2315TIP3   OH2 6908   0.356   5.759   0.834
 2315TIP3    H1 6909   0.446   5.736   0.858
 2315TIP3    H2 6910   0.316   5.786   0.917
 2316TIP3   OH2 6911   4.221   4.036   1.920
 2316TIP3    H1 6912   4.247   3.943   1.926
 2316TIP3    H2 6913   4.198   4.060   2.009
 2317TIP3   OH2 6914   6.418   2.747   3.328
 2317TIP3    H1 6915   6.340   2.728   3.380
 2317TIP3    H2 6916   6.457   2.824   3.369
 2318TIP3   OH2 6917   3.972   0.548   2.898
 2318TIP3    H1 6918   3.932   0.545   2.812
 2318TIP3    H2 6919   4.008   0.460   2.912
 2319TIP3   OH2 6920   4.818   1.384   1.992
 2319TIP3    H1 6921   4.873   1.442   2.045
 2319TIP3    H2 6922   4.728   1.404   2.019
 2320TIP3   OH2 6923   1.081   0.838   1.462
 2320TIP3    H1 6924   1.096   0.869   1.373
 2320TIP3    H2 6925   0.987   0.846   1.476
 2321TIP3   OH2 6926   5.755   6.112   2.123
 2321TIP3    H1 6927   5.672   6.107   2.171
 2321TIP3    H2 6928   5.761   6.029   2.077
 2322TIP3   OH2 6929   6.716   2.411   3.665
 2322TIP3    H1 6930   6.679   2.472   3.729
 2322TIP3    H2 6931   6.701   2.452   3.580
 2323TIP3   OH2 6932   1.320   5.498   4.264
 2323TIP3    H1 6933   1.328   5.558   4.190
 2323TIP3    H2 6934   1.260   5.430   4.233
 2324TIP3   OH2 6935   0.081   1.481   2.724
 2324TIP3    H1 6936   0.136   1.538   2.670
 2324TIP3    H2 6937   0.141   1.443   2.788
 2325TIP3   OH2 6938   6.057   0.135   2.902
 2325TIP3    H1 6939   6.055   0.227   2.877
 2325TIP3    H2 6940   5.964   0.111   2.910
 2326TIP3   OH2 6941   4.401   0.780   2.422
 2326TIP3    H1 6942   4.491   0.766   2.394
 2326TIP3    H2 6943   4.404   0.775   2.518
 2327TIP3   OH2 6944   5.762   2.977   1.653
 2327TIP3    H1 6945   5.784   2.952   1.564
 2327TIP3    H2 6946   5.691   2.918   1.678
 2328TIP3   OH2 6947   5.861   6.692   4.282
 2328TIP3    H1 6948   5.935   6.654   4.330
 2328TIP3    H2 6949   5.898   6.769   4.238
 2329TIP3   OH2 6950   1.664   0.824   2.144
 2329TIP3    H1 6951   1.620   0.905   2.119
 2329TIP3    H2 6952   1.615   0.756   2.097
 2330TIP3   OH2 6953   7.026   5.444   3.070
 2330TIP3    H1 6954   7.063   5.362   3.039
 2330TIP3    H2 6955   7.054   5.509   3.004
 2331TIP3   OH2 6956   2.267   1.105   4.012
 2331TIP3    H1 6957   2.274   1.072   4.102
 2331TIP3    H2 6958   2.215   1.185   4.020
 2332TIP3   OH2 6959   4.433   5.169   2.442
 2332TIP3    H1 6960   4.445   5.211   2.527
 2332TIP3    H2 6961   4.363   5.220   2.400
 2333TIP3   OH2 6962   2.509   1.781   2.209
 2333TIP3    H1 6963   2.467   1.703   2.245
 2333TIP3    H2 6964   2.448   1.811   2.141
 2334TIP3   OH2 6965   1.455   2.312   4.820
 2334TIP3    H1 6966   1.491   2.224   4.831
 2334TIP3    H2 6967   1.404   2.327   4.899
 2335TIP3   OH2 6968   3.920   6.295   1.078
 2335TIP3    H1 6969   3.859   6.242   1.130
 2335TIP3    H2 6970   3.980   6.231   1.039
 2336TIP3   OH2 6971   4.807   4.768   1.412
 2336TIP3    H1 6972   4.737   4.754   1.349
 2336TIP3    H2 6973   4.783   4.714   1.487
 2337TIP3   OH2 6974   5.771   6.427   3.969
 2337TIP3    H1 6975   5.740   6.458   4.054
 2337TIP3    H2 6976   5.866   6.433   3.973
 2338TIP3   OH2 6977   1.717   6.029   3.243
 2338TIP3    H1 6978   1.743   6.084   3.170
 2338TIP3    H2 6979   1.775   5.953   3.239
 2339TIP3   OH2 6980   1.226   0.323   2.111
 2339TIP3    H1 6981   1.283   0.346   2.185
 2339TIP3    H2 6982   1.282   0.336   2.034
 2340TIP3   OH2 6983   4.169   2.220   1.872
 2340TIP3    H1 6984   4.150   2.279   1.945
 2340TIP3    H2 6985   4.225   2.272   1.813
 2341TIP3   OH2 6986   6.431   2.800   1.013
 2341TIP3    H1 6987   6.352   2.849   0.989
 2341TIP3    H2 6988   6.421   2.715   0.971
 2342TIP3   OH2 6989   6.994   6.250   4.327
 2342TIP3    H1 6990   6.927   6.318   4.336
 2342TIP3    H2 6991   6.958   6.191   4.260
 2343TIP3   OH2 6992   4.599   2.684   1.608
 2343TIP3    H1 6993   4.666   2.734   1.652
 2343TIP3    H2 6994   4.541   2.749   1.568
 2344TIP3   OH2 6995   2.590   3.073   1.228
 2344TIP3    H1 6996   2.622   3.088   1.139
 2344TIP3    H2 6997   2.651   3.122   1.284
 2345TIP3   OH2 6998   6.714   6.234   1.886
 2345TIP3    H1 6999   6.744   6.323   1.907
 2345TIP3    H2 7000   6.700   6.193   1.972
 2346TIP3   OH2 7001   6.182   4.652   2.968
 2346TIP3    H1 7002   6.160   4.733   3.015
 2346TIP3    H2 7003   6.146   4.665   2.880
 2347TIP3   OH2 7004   4.367   4.971   1.333
 2347TIP3    H1 7005   4.363   4.881   1.365
 2347TIP3    H2 7006   4.303   4.974   1.262
 2348TIP3   OH2 7007   4.243   5.667   0.904
 2348TIP3    H1 7008   4.300   5.691   0.831
 2348TIP3    H2 7009   4.303   5.643   0.974
 2349TIP3   OH2 7010   6.145   3.232   3.781
 2349TIP3    H1 7011   6.072   3.236   3.719
 2349TIP3    H2 7012   6.110   3.182   3.855
 2350TIP3   OH2 7013   1.297   4.093   1.734
 2350TIP3    H1 7014   1.301   4.117   1.827
 2350TIP3    H2 7015   1.291   3.998   1.734
 2351TIP3   OH2 7016   5.143   2.128   0.071
 2351TIP3    H1 7017   5.150   2.194   0.140
 2351TIP3    H2 7018   5.213   2.066   0.090
 2352TIP3   OH2 7019   5.863   0.988   4.530
 2352TIP3    H1 7020   5.918   1.046   4.477
 2352TIP3    H2 7021   5.795   0.959   4.469
 2353TIP3   OH2 7022   6.445   4.909   3.842
 2353TIP3    H1 7023   6.380   4.843   3.818
 2353TIP3    H2 7024   6.463   4.956   3.761
 2354TIP3   OH2 7025   6.327   3.289   1.859
 2354TIP3    H1 7026   6.262   3.351   1.889
 2354TIP3    H2 7027   6.312   3.282   1.764
 2355TIP3   OH2 7028   0.514   3.510   3.321
 2355TIP3    H1 7029   0.485   3.535   3.409
 2355TIP3    H2 7030   0.571   3.435   3.335
 2356TIP3   OH2 7031   5.603   4.382   1.606
 2356TIP3    H1 7032   5.602   4.288   1.588
 2356TIP3    H2 7033   5.533   4.418   1.551
 2357TIP3   OH2 7034   3.476   6.325   1.696
 2357TIP3    H1 7035   3.478   6.318   1.791
 2357TIP3    H2 7036   3.463   6.418   1.678
 2358TIP3   OH2 7037   2.965   4.649   0.046
 2358TIP3    H1 7038   2.956   4.595   0.124
 2358TIP3    H2 7039   2.943   4.591  -0.027
 2359TIP3   OH2 7040   1.420   6.614   4.381
 2359TIP3    H1 7041   1.379   6.701   4.370
 2359TIP3    H2 7042   1.410   6.595   4.474
 2360TIP3   OH2 7043   3.536   6.456   1.979
 2360TIP3    H1 7044   3.558   6.480   2.069
 2360TIP3    H2 7045   3.591   6.514   1.925
 2361TIP3   OH2 7046   6.020   3.714   3.110
 2361TIP3    H1 7047   5.968   3.794   3.106
 2361TIP3    H2 7048   6.025   3.685   3.019
 2362TIP3   OH2 7049   2.121   4.779   1.677
 2362TIP3    H1 7050   2.150   4.729   1.600
 2362TIP3    H2 7051   2.193   4.839   1.695
 2363TIP3   OH2 7052   1.702   3.442   2.869
 2363TIP3    H1 7053   1.693   3.509   2.937
 2363TIP3    H2 7054   1.617   3.440   2.825
 2364TIP3   OH2 7055   3.759   1.331   0.740
 2364TIP3    H1 7056   3.669   1.343   0.769
 2364TIP3    H2 7057   3.809   1.393   0.793
 2365TIP3   OH2 7058   3.556   0.083   5.096
 2365TIP3    H1 7059   3.565   0.012   5.031
 2365TIP3    H2 7060   3.602   0.051   5.173
 2366TIP3   OH2 7061   4.151   2.445   0.959
 2366TIP3    H1 7062   4.174   2.417   1.048
 2366TIP3    H2 7063   4.234   2.441   0.911
 2367TIP3   OH2 7064   1.981   3.873   5.655
 2367TIP3    H1 7065   2.040   3.926   5.709
 2367TIP3    H2 7066   1.915   3.839   5.716
 2368TIP3   OH2 7067   4.903   0.455   1.619
 2368TIP3    H1 7068   4.901   0.369   1.578
 2368TIP3    H2 7069   4.854   0.444   1.701
 2369TIP3   OH2 7070   0.229   5.791   1.063
 2369TIP3    H1 7071   0.268   5.710   1.097
 2369TIP3    H2 7072   0.252   5.858   1.128
 2370TIP3   OH2 7073   4.050   3.651   5.905
 2370TIP3    H1 7074   4.107   3.574   5.904
 2370TIP3    H2 7075   3.980   3.630   5.843
 2371TIP3   OH2 7076   3.412   2.652   5.794
 2371TIP3    H1 7077   3.381   2.629   5.882
 2371TIP3    H2 7078   3.465   2.577   5.767
 2372TIP3   OH2 7079   3.988   1.827   5.287
 2372TIP3    H1 7080   3.908   1.832   5.341
 2372TIP3    H2 7081   4.019   1.918   5.283
 2373TIP3   OH2 7082   3.667   2.824   0.906
 2373TIP3    H1 7083   3.739   2.769   0.937
 2373TIP3    H2 7084   3.604   2.763   0.868
 2374TIP3   OH2 7085   1.994   1.967   3.351
 2374TIP3    H1 7086   2.035   2.009   3.427
 2374TIP3    H2 7087   2.031   2.012   3.275
 2375TIP3   OH2 7088   1.742   3.786   4.216
 2375TIP3    H1 7089   1.703   3.824   4.137
 2375TIP3    H2 7090   1.795   3.714   4.184
 2376TIP3   OH2 7091   0.344   1.839   2.010
 2376TIP3    H1 7092   0.378   1.759   1.971
 2376TIP3    H2 7093   0.420   1.898   2.011
 2377TIP3   OH2 7094   3.700  -0.015   5.402
 2377TIP3    H1 7095   3.766   0.054   5.393
 2377TIP3    H2 7096   3.667  -0.005   5.492
 2378TIP3   OH2 7097   3.372   1.715   1.627
 2378TIP3    H1 7098   3.297   1.656   1.618
 2378TIP3    H2 7099   3.347   1.775   1.698
 2379TIP3   OH2 7100   4.470   1.224   3.438
 2379TIP3    H1 7101   4.548   1.170   3.451
 2379TIP3    H2 7102   4.490   1.306   3.484
 2380TIP3   OH2 7103   4.170   0.906   1.318
 2380TIP3    H1 7104   4.088   0.867   1.289
 2380TIP3    H2 7105   4.182   0.983   1.263
 2381TIP3   OH2 7106   0.291   4.669   5.865
 2381TIP3    H1 7107   0.361   4.733   5.854
 2381TIP3    H2 7108   0.275   4.635   5.777
 2382TIP3   OH2 7109   6.310   2.846   1.483
 2382TIP3    H1 7110   6.247   2.814   1.547
 2382TIP3    H2 7111   6.261   2.848   1.400
 2383TIP3   OH2 7112   5.995   2.202   4.459
 2383TIP3    H1 7113   5.994   2.108   4.441
 2383TIP3    H2 7114   6.067   2.235   4.406
 2384TIP3   OH2 7115   3.327   0.155   1.821
 2384TIP3    H1 7116   3.337   0.249   1.834
 2384TIP3    H2 7117   3.272   0.126   1.894
 2385TIP3   OH2 7118   2.905   6.488   1.881
 2385TIP3    H1 7119   2.865   6.491   1.968
 2385TIP3    H2 7120   2.834   6.514   1.821
 2386TIP3   OH2 7121   5.914   6.077   4.443
 2386TIP3    H1 7122   5.995   6.040   4.409
 2386TIP3    H2 7123   5.930   6.088   4.537
 2387TIP3   OH2 7124   2.929   5.958   0.182
 2387TIP3    H1 7125   3.013   5.993   0.212
 2387TIP3    H2 7126   2.880   5.941   0.263
 2388TIP3   OH2 7127   2.100   6.208   1.546
 2388TIP3    H1 7128   2.110   6.263   1.468
 2388TIP3    H2 7129   2.025   6.152   1.526
 2389TIP3   OH2 7130   3.263   6.745   2.494
 2389TIP3    H1 7131   3.307   6.683   2.552
 2389TIP3    H2 7132   3.171   6.738   2.517
 2390TIP3   OH2 7133   0.721   6.088   2.667
 2390TIP3    H1 7134   0.806   6.048   2.686
 2390TIP3    H2 7135   0.660   6.047   2.728
 2391TIP3   OH2 7136   1.181   2.331   0.082
 2391TIP3    H1 7137   1.122   2.266   0.122
 2391TIP3    H2 7138   1.238   2.279   0.026
 2392TIP3   OH2 7139   5.720   1.105   4.081
 2392TIP3    H1 7140   5.657   1.164   4.122
 2392TIP3    H2 7141   5.671   1.024   4.068
 2393TIP3   OH2 7142   2.000   0.188   1.392
 2393TIP3    H1 7143   2.009   0.283   1.391
 2393TIP3    H2 7144   1.926   0.171   1.449
 2394TIP3   OH2 7145   2.232   4.355   4.648
 2394TIP3    H1 7146   2.212   4.351   4.554
 2394TIP3    H2 7147   2.313   4.305   4.657
 2395TIP3   OH2 7148   2.065   1.554   1.640
 2395TIP3    H1 7149   2.010   1.630   1.660
 2395TIP3    H2 7150   2.121   1.583   1.568
 2396TIP3   OH2 7151   6.622   3.530   3.485
 2396TIP3    H1 7152   6.586   3.447   3.515
 2396TIP3    H2 7153   6.553   3.569   3.432
 2397TIP3   OH2 7154   5.204   4.380   0.543
 2397TIP3    H1 7155   5.217   4.463   0.496
 2397TIP3    H2 7156   5.119   4.348   0.512
 2398TIP3   OH2 7157   4.216   2.533   2.659
 2398TIP3    H1 7158   4.307   2.507   2.673
 2398TIP3    H2 7159   4.217   2.581   2.576
 2399TIP3   OH2 7160   1.672   4.981   2.740
 2399TIP3    H1 7161   1.739   5.034   2.697
 2399TIP3    H2 7162   1.671   5.012   2.830
 2400TIP3   OH2 7163   1.989   5.498   5.300
 2400TIP3    H1 7164   1.975   5.530   5.210
 2400TIP3    H2 7165   2.044   5.565   5.340
 2401TIP3   OH2 7166   5.565   4.879   3.635
 2401TIP3    H1 7167   5.515   4.798   3.649
 2401TIP3    H2 7168   5.577   4.883   3.540
 2402TIP3   OH2 7169   3.705   2.023   5.740
 2402TIP3    H1 7170   3.776   2.053   5.798
 2402TIP3    H2 7171   3.743   1.949   5.693
 2403TIP3   OH2 7172   1.613   1.871   5.603
 2403TIP3    H1 7173   1.537   1.874   5.546
 2403TIP3    H2 7174   1.688   1.876   5.544
 2404TIP3   OH2 7175   3.274   5.836   3.990
 2404TIP3    H1 7176   3.278   5.901   3.920
 2404TIP3    H2 7177   3.290   5.752   3.946
 2405TIP3   OH2 7178   5.964   3.039   4.700
 2405TIP3    H1 7179   6.009   3.071   4.778
 2405TIP3    H2 7180   5.998   2.951   4.687
 2406TIP3   OH2 7181   5.464   5.987   0.392
 2406TIP3    H1 7182   5.388   5.930   0.400
 2406TIP3    H2 7183   5.481   5.991   0.298
 2407TIP3   OH2 7184   0.983   3.834   5.744
 2407TIP3    H1 7185   0.970   3.917   5.698
 2407TIP3    H2 7186   0.952   3.767   5.682
 2408TIP3   OH2 7187   5.725   6.452   2.781
 2408TIP3    H1 7188   5.807   6.436   2.734
 2408TIP3    H2 7189   5.730   6.394   2.857
 2409TIP3   OH2 7190   0.662   6.771   5.073
 2409TIP3    H1 7191   0.682   6.820   4.993
 2409TIP3    H2 7192   0.740   6.779   5.127
 2410TIP3   OH2 7193   4.908   6.068   0.451
 2410TIP3    H1 7194   4.979   6.013   0.483
 2410TIP3    H2 7195   4.916   6.149   0.501
 2411TIP3   OH2 7196   4.741   5.857   0.298
 2411TIP3    H1 7197   4.765   5.914   0.371
 2411TIP3    H2 7198   4.814   5.862   0.237
 2412TIP3   OH2 7199   6.427   5.038   3.406
 2412TIP3    H1 7200   6.468   4.954   3.386
 2412TIP3    H2 7201   6.500   5.094   3.434
 2413TIP3   OH2 7202   3.870   3.276   2.466
 2413TIP3    H1 7203   3.874   3.342   2.397
 2413TIP3    H2 7204   3.946   3.220   2.451
 2414TIP3   OH2 7205   2.836   2.023   3.301
 2414TIP3    H1 7206   2.769   2.055   3.241
 2414TIP3    H2 7207   2.797   1.947   3.343
 2415TIP3   OH2 7208   6.842   2.601   1.672
 2415TIP3    H1 7209   6.862   2.520   1.718
 2415TIP3    H2 7210   6.784   2.649   1.731
 2416TIP3   OH2 7211   1.483   3.866   3.274
 2416TIP3    H1 7212   1.399   3.869   3.227
 2416TIP3    H2 7213   1.548   3.848   3.206
 2417TIP3   OH2 7214   3.748   4.014   1.743
 2417TIP3    H1 7215   3.769   3.923   1.724
 2417TIP3    H2 7216   3.802   4.064   1.682
 2418TIP3   OH2 7217   4.380   6.412   4.665
 2418TIP3    H1 7218   4.305   6.421   4.606
 2418TIP3    H2 7219   4.397   6.501   4.695
 2419TIP3   OH2 7220   0.804   3.679   0.515
 2419TIP3    H1 7221   0.780   3.607   0.457
 2419TIP3    H2 7222   0.793   3.758   0.462
 2420TIP3   OH2 7223   6.207   4.065   0.620
 2420TIP3    H1 7224   6.258   4.025   0.550
 2420TIP3    H2 7225   6.139   4.115   0.575
 2421TIP3   OH2 7226   2.863   5.498   4.491
 2421TIP3    H1 7227   2.856   5.408   4.523
 2421TIP3    H2 7228   2.946   5.500   4.443
 2422TIP3   OH2 7229   2.989   0.225   2.779
 2422TIP3    H1 7230   2.994   0.319   2.798
 2422TIP3    H2 7231   2.963   0.186   2.862
 2423TIP3   OH2 7232   0.062   2.135   0.046
 2423TIP3    H1 7233   0.097   2.078  -0.023
 2423TIP3    H2 7234   0.086   2.090   0.128
 2424TIP3   OH2 7235   5.773   1.701   2.384
 2424TIP3    H1 7236   5.724   1.663   2.457
 2424TIP3    H2 7237   5.782   1.794   2.407
 2425TIP3   OH2 7238   5.310   4.158   1.531
 2425TIP3    H1 7239   5.260   4.122   1.457
 2425TIP3    H2 7240   5.348   4.239   1.498
 2426TIP3   OH2 7241   3.418   0.084   2.123
 2426TIP3    H1 7242   3.346   0.142   2.097
 2426TIP3    H2 7243   3.460   0.129   2.196
 2427TIP3   OH2 7244   1.534   3.231   0.255
 2427TIP3    H1 7245   1.500   3.312   0.217
 2427TIP3    H2 7246   1.483   3.162   0.214
 2428TIP3   OH2 7247   6.173   4.675   4.942
 2428TIP3    H1 7248   6.242   4.686   5.008
 2428TIP3    H2 7249   6.219   4.667   4.859
 2429TIP3   OH2 7250   3.107   1.586   4.245
 2429TIP3    H1 7251   3.103   1.681   4.257
 2429TIP3    H2 7252   3.076   1.572   4.155
 2430TIP3   OH2 7253   3.051   5.977   4.374
 2430TIP3    H1 7254   3.048   5.955   4.467
 2430TIP3    H2 7255   2.976   5.931   4.335
 2431TIP3   OH2 7256   6.151   6.418   3.224
 2431TIP3    H1 7257   6.091   6.371   3.165
 2431TIP3    H2 7258   6.102   6.495   3.252
 2432TIP3   OH2 7259   2.615   3.746   4.379
 2432TIP3    H1 7260   2.546   3.767   4.441
 2432TIP3    H2 7261   2.694   3.785   4.416
 2433TIP3   OH2 7262   4.936   4.266   5.278
 2433TIP3    H1 7263   4.986   4.254   5.359
 2433TIP3    H2 7264   4.922   4.360   5.273
 2434TIP3   OH2 7265   0.656   6.543   3.254
 2434TIP3    H1 7266   0.588   6.579   3.197
 2434TIP3    H2 7267   0.651   6.448   3.240
 2435TIP3   OH2 7268   0.116   4.762   5.038
 2435TIP3    H1 7269   0.131   4.856   5.029
 2435TIP3    H2 7270   0.075   4.736   4.955
 2436TIP3   OH2 7271   0.655   3.255   4.805
 2436TIP3    H1 7272   0.617   3.278   4.720
 2436TIP3    H2 7273   0.745   3.288   4.800
 2437TIP3   OH2 7274   2.182   4.268   4.901
 2437TIP3    H1 7275   2.272   4.294   4.921
 2437TIP3    H2 7276   2.173   4.286   4.807
 2438TIP3   OH2 7277   2.427   5.119   1.849
 2438TIP3    H1 7278   2.345   5.167   1.838
 2438TIP3    H2 7279   2.440   5.075   1.765
 2439TIP3   OH2 7280   2.079   3.943   4.790
 2439TIP3    H1 7281   2.132   3.941   4.871
 2439TIP3    H2 7282   2.137   3.984   4.726
 2440TIP3   OH2 7283   6.553   5.971   0.639
 2440TIP3    H1 7284   6.532   5.936   0.726
 2440TIP3    H2 7285   6.469   5.973   0.593
 2441TIP3   OH2 7286   0.069   0.215   1.410
 2441TIP3    H1 7287   0.080   0.127   1.373
 2441TIP3    H2 7288  -0.009   0.250   1.367
 2442TIP3   OH2 7289   2.875   0.510   0.439
 2442TIP3    H1 7290   2.949   0.529   0.496
 2442TIP3    H2 7291   2.911   0.454   0.370
 2443TIP3   OH2 7292   1.924   0.565   3.245
 2443TIP3    H1 7293   1.990   0.564   3.176
 2443TIP3    H2 7294   1.933   0.652   3.285
 2444TIP3   OH2 7295   6.398   6.345   5.575
 2444TIP3    H1 7296   6.456   6.349   5.499
 2444TIP3    H2 7297   6.436   6.408   5.637
 2445TIP3   OH2 7298   5.692   4.037   4.627
 2445TIP3    H1 7299   5.736   3.971   4.574
 2445TIP3    H2 7300   5.600   4.032   4.601
 2446TIP3   OH2 7301   1.027   5.554   5.833
 2446TIP3    H1 7302   1.100   5.613   5.814
 2446TIP3    H2 7303   1.038   5.530   5.925
 2447TIP3   OH2 7304   5.863   3.881   1.306
 2447TIP3    H1 7305   5.910   3.959   1.276
 2447TIP3    H2 7306   5.923   3.839   1.368
 2448TIP3   OH2 7307   5.175   1.035   4.782
 2448TIP3    H1 7308   5.242   0.982   4.739
 2448TIP3    H2 7309   5.173   1.117   4.732
 2449TIP3   OH2 7310   5.809   3.573   4.378
 2449TIP3    H1 7311   5.764   3.521   4.445
 2449TIP3    H2 7312   5.757   3.559   4.299
 2450TIP3   OH2 7313   0.452   1.368   0.684
 2450TIP3    H1 7314   0.380   1.396   0.741
 2450TIP3    H2 7315   0.433   1.409   0.599
 2451TIP3   OH2 7316   3.777   5.832   4.752
 2451TIP3    H1 7317   3.825   5.865   4.675
 2451TIP3    H2 7318   3.686   5.855   4.735
 2452TIP3   OH2 7319   6.607   5.363   1.302
 2452TIP3    H1 7320   6.535   5.301   1.294
 2452TIP3    H2 7321   6.681   5.319   1.260
 2453TIP3   OH2 7322   0.916   1.010   0.386
 2453TIP3    H1 7323   0.845   1.062   0.424
 2453TIP3    H2 7324   0.993   1.032   0.440
 2454TIP3   OH2 7325   4.552   3.619   5.548
 2454TIP3    H1 7326   4.616   3.688   5.530
 2454TIP3    H2 7327   4.547   3.614   5.643
 2455TIP3   OH2 7328   3.233   2.630   3.918
 2455TIP3    H1 7329   3.245   2.578   3.997
 2455TIP3    H2 7330   3.305   2.604   3.860
 2456TIP3   OH2 7331   5.238   5.772   2.967
 2456TIP3    H1 7332   5.172   5.788   3.034
 2456TIP3    H2 7333   5.228   5.680   2.944
 2457TIP3   OH2 7334   0.054   3.415   4.995
 2457TIP3    H1 7335   0.054   3.495   5.048
 2457TIP3    H2 7336   0.022   3.443   4.910
 2458TIP3   OH2 7337   1.386   5.197   1.824
 2458TIP3    H1 7338   1.379   5.135   1.752
 2458TIP3    H2 7339   1.378   5.283   1.783
 2459TIP3   OH2 7340   0.921   1.874   1.811
 2459TIP3    H1 7341   0.860   1.850   1.741
 2459TIP3    H2 7342   0.910   1.969   1.821
 2460TIP3   OH2 7343   3.776   0.668   1.502
 2460TIP3    H1 7344   3.871   0.665   1.487
 2460TIP3    H2 7345   3.747   0.745   1.452
 2461TIP3   OH2 7346   5.746   2.800   4.800
 2461TIP3    H1 7347   5.831   2.834   4.827
 2461TIP3    H2 7348   5.685   2.870   4.821
 2462TIP3   OH2 7349   0.148   0.788   0.573
 2462TIP3    H1 7350   0.154   0.777   0.478
 2462TIP3    H2 7351   0.055   0.776   0.592
 2463TIP3   OH2 7352   7.018   5.008   3.402
 2463TIP3    H1 7353   7.105   5.048   3.406
 2463TIP3    H2 7354   6.961   5.069   3.448
 2464TIP3   OH2 7355   5.461   4.528   1.924
 2464TIP3    H1 7356   5.534   4.477   1.891
 2464TIP3    H2 7357   5.473   4.529   2.019
 2465TIP3   OH2 7358   0.155   2.398   3.922
 2465TIP3    H1 7359   0.238   2.363   3.952
 2465TIP3    H2 7360   0.157   2.491   3.946
 2466TIP3   OH2 7361   5.125   1.752   5.022
 2466TIP3    H1 7362   5.083   1.805   4.954
 2466TIP3    H2 7363   5.055   1.732   5.083
 2467TIP3   OH2 7364   5.683   6.322   0.442
 2467TIP3    H1 7365   5.727   6.243   0.474
 2467TIP3    H2 7366   5.693   6.385   0.513
 2468TIP3   OH2 7367   4.828   0.476   0.608
 2468TIP3    H1 7368   4.851   0.442   0.521
 2468TIP3    H2 7369   4.863   0.412   0.669
 2469TIP3   OH2 7370   6.707   4.392   5.445
 2469TIP3    H1 7371   6.675   4.480   5.424
 2469TIP3    H2 7372   6.668   4.336   5.378
 2470TIP3   OH2 7373   4.160   0.069   1.859
 2470TIP3    H1 7374   4.154   0.059   1.954
 2470TIP3    H2 7375   4.071   0.054   1.827
 2471TIP3   OH2 7376   6.391   3.928   2.912
 2471TIP3    H1 7377   6.440   3.869   2.854
 2471TIP3    H2 7378   6.435   3.919   2.997
 2472TIP3   OH2 7379   3.376   2.897   2.097
 2472TIP3    H1 7380   3.396   2.919   2.188
 2472TIP3    H2 7381   3.305   2.832   2.104
 2473TIP3   OH2 7382   3.992   5.234   5.836
 2473TIP3    H1 7383   3.973   5.326   5.818
 2473TIP3    H2 7384   3.980   5.190   5.752
 2474TIP3   OH2 7385   5.717   3.514   2.051
 2474TIP3    H1 7386   5.678   3.440   2.006
 2474TIP3    H2 7387   5.669   3.520   2.134
 2475TIP3   OH2 7388   3.554   4.483   2.933
 2475TIP3    H1 7389   3.549   4.543   3.008
 2475TIP3    H2 7390   3.467   4.443   2.930
 2476TIP3   OH2 7391   7.058   4.055   4.793
 2476TIP3    H1 7392   7.021   4.138   4.763
 2476TIP3    H2 7393   6.984   3.994   4.792
 2477TIP3   OH2 7394   4.740   4.626   5.290
 2477TIP3    H1 7395   4.678   4.623   5.363
 2477TIP3    H2 7396   4.778   4.713   5.294
 2478TIP3   OH2 7397   6.519   2.386   5.390
 2478TIP3    H1 7398   6.533   2.296   5.359
 2478TIP3    H2 7399   6.481   2.376   5.477
 2479TIP3   OH2 7400   2.452   2.524   1.208
 2479TIP3    H1 7401   2.378   2.472   1.177
 2479TIP3    H2 7402   2.515   2.459   1.239
 2480TIP3   OH2 7403   5.545   6.024   2.303
 2480TIP3    H1 7404   5.509   6.063   2.224
 2480TIP3    H2 7405   5.486   6.051   2.373
 2481TIP3   OH2 7406   5.719   3.693   2.743
 2481TIP3    H1 7407   5.729   3.630   2.671
 2481TIP3    H2 7408   5.728   3.640   2.822
 2482TIP3   OH2 7409   0.552   1.053   3.087
 2482TIP3    H1 7410   0.599   1.006   3.018
 2482TIP3    H2 7411   0.460   1.050   3.060
 2483TIP3   OH2 7412   4.265   5.555   5.575
 2483TIP3    H1 7413   4.346   5.526   5.533
 2483TIP3    H2 7414   4.221   5.607   5.508
 2484TIP3   OH2 7415   3.088   1.054   2.150
 2484TIP3    H1 7416   3.062   1.072   2.241
 2484TIP3    H2 7417   3.031   1.110   2.097
 2485TIP3   OH2 7418   4.948   5.854   2.269
 2485TIP3    H1 7419   4.918   5.812   2.189
 2485TIP3    H2 7420   5.044   5.858   2.259
 2486TIP3   OH2 7421   7.083   0.200   1.219
 2486TIP3    H1 7422   7.089   0.142   1.143
 2486TIP3    H2 7423   7.060   0.285   1.182
 2487TIP3   OH2 7424   2.883   2.893   4.845
 2487TIP3    H1 7425   2.926   2.929   4.923
 2487TIP3    H2 7426   2.948   2.902   4.776
 2488TIP3   OH2 7427   7.215   0.720   3.405
 2488TIP3    H1 7428   7.178   0.644   3.361
 2488TIP3    H2 7429   7.199   0.793   3.345
 2489TIP3   OH2 7430   0.483   5.710   4.387
 2489TIP3    H1 7431   0.474   5.713   4.292
 2489TIP3    H2 7432   0.443   5.627   4.412
 2490TIP3   OH2 7433   0.625   4.417   3.370
 2490TIP3    H1 7434   0.716   4.389   3.373
 2490TIP3    H2 7435   0.600   4.427   3.462
 2491TIP3   OH2 7436   2.194   1.806   5.513
 2491TIP3    H1 7437   2.112   1.759   5.497
 2491TIP3    H2 7438   2.256   1.738   5.539
 2492TIP3   OH2 7439   5.208   3.845   4.284
 2492TIP3    H1 7440   5.113   3.855   4.288
 2492TIP3    H2 7441   5.241   3.922   4.330
 2493TIP3   OH2 7442   6.386   4.476   0.749
 2493TIP3    H1 7443   6.437   4.400   0.776
 2493TIP3    H2 7444   6.312   4.479   0.811
 2494TIP3   OH2 7445   5.465   1.829   5.805
 2494TIP3    H1 7446   5.429   1.877   5.880
 2494TIP3    H2 7447   5.551   1.869   5.790
 2495TIP3   OH2 7448   1.916   0.469   1.837
 2495TIP3    H1 7449   1.828   0.437   1.855
 2495TIP3    H2 7450   1.932   0.535   1.904
 2496TIP3   OH2 7451   5.675   3.724   3.194
 2496TIP3    H1 7452   5.589   3.747   3.159
 2496TIP3    H2 7453   5.735   3.785   3.151
 2497TIP3   OH2 7454   7.117   0.559   3.212
 2497TIP3    H1 7455   7.057   0.606   3.155
 2497TIP3    H2 7456   7.179   0.517   3.152
 2498TIP3   OH2 7457   4.274   0.098   5.355
 2498TIP3    H1 7458   4.362   0.130   5.375
 2498TIP3    H2 7459   4.235   0.081   5.441
 2499TIP3   OH2 7460   5.977   0.859   1.328
 2499TIP3    H1 7461   6.018   0.915   1.394
 2499TIP3    H2 7462   6.048   0.801   1.299
 2500TIP3   OH2 7463   4.434   4.712   5.712
 2500TIP3    H1 7464   4.406   4.754   5.793
 2500TIP3    H2 7465   4.361   4.728   5.651
 2501TIP3   OH2 7466   4.200   3.848   4.646
 2501TIP3    H1 7467   4.248   3.836   4.564
 2501TIP3    H2 7468   4.184   3.942   4.650
 2502TIP3   OH2 7469   0.085   3.950   2.180
 2502TIP3    H1 7470   0.020   4.017   2.159
 2502TIP3    H2 7471   0.037   3.884   2.230
 2503TIP3   OH2 7472   5.807   0.189   4.881
 2503TIP3    H1 7473   5.852   0.107   4.899
 2503TIP3    H2 7474   5.842   0.251   4.945
 2504TIP3   OH2 7475   4.576   6.559   0.248
 2504TIP3    H1 7476   4.652   6.580   0.193
 2504TIP3    H2 7477   4.501   6.569   0.189
 2505TIP3   OH2 7478   7.147   4.629   2.193
 2505TIP3    H1 7479   7.230   4.667   2.220
 2505TIP3    H2 7480   7.168   4.539   2.169
 2506TIP3   OH2 7481   6.720   6.786   1.237
 2506TIP3    H1 7482   6.755   6.848   1.301
 2506TIP3    H2 7483   6.784   6.714   1.236
 2507TIP3   OH2 7484   6.583   2.791   1.270
 2507TIP3    H1 7485   6.529   2.799   1.190
 2507TIP3    H2 7486   6.576   2.699   1.294
 2508TIP3   OH2 7487   0.593   2.825   5.807
 2508TIP3    H1 7488   0.641   2.885   5.750
 2508TIP3    H2 7489   0.652   2.751   5.820
 2509TIP3   OH2 7490   6.187   1.179   5.344
 2509TIP3    H1 7491   6.147   1.266   5.345
 2509TIP3    H2 7492   6.280   1.196   5.332
 2510TIP3   OH2 7493   0.164   1.526   4.448
 2510TIP3    H1 7494   0.101   1.566   4.508
 2510TIP3    H2 7495   0.164   1.433   4.471
 2511TIP3   OH2 7496   3.149   4.792   1.631
 2511TIP3    H1 7497   3.123   4.884   1.637
 2511TIP3    H2 7498   3.160   4.765   1.723
 2512TIP3   OH2 7499   2.107   1.917   4.318
 2512TIP3    H1 7500   2.094   1.985   4.252
 2512TIP3    H2 7501   2.166   1.854   4.276
 2513TIP3   OH2 7502   1.993   5.300   0.216
 2513TIP3    H1 7503   2.020   5.392   0.212
 2513TIP3    H2 7504   2.074   5.251   0.211
 2514TIP3   OH2 7505   5.507   1.576   4.767
 2514TIP3    H1 7506   5.471   1.661   4.792
 2514TIP3    H2 7507   5.497   1.522   4.845
 2515TIP3   OH2 7508   6.059   6.109   0.995
 2515TIP3    H1 7509   6.081   6.186   0.943
 2515TIP3    H2 7510   6.144   6.079   1.029
 2516TIP3   OH2 7511   4.474   3.465   0.229
 2516TIP3    H1 7512   4.508   3.437   0.144
 2516TIP3    H2 7513   4.420   3.392   0.259
 2517TIP3   OH2 7514   2.936   4.281   0.053
 2517TIP3    H1 7515   2.892   4.198   0.072
 2517TIP3    H2 7516   3.018   4.256   0.010
 2518TIP3   OH2 7517   2.877   2.323   0.330
 2518TIP3    H1 7518   2.883   2.281   0.416
 2518TIP3    H2 7519   2.884   2.416   0.349
 2519TIP3   OH2 7520   4.908   1.133   5.434
 2519TIP3    H1 7521   4.890   1.054   5.485
 2519TIP3    H2 7522   4.913   1.203   5.499
 2520TIP3   OH2 7523   1.587   5.729   4.111
 2520TIP3    H1 7524   1.497   5.750   4.133
 2520TIP3    H2 7525   1.629   5.711   4.196
 2521TIP3   OH2 7526   2.373   5.948   3.299
 2521TIP3    H1 7527   2.414   6.011   3.359
 2521TIP3    H2 7528   2.417   5.865   3.317
 2522TIP3   OH2 7529   1.937   0.309   0.322
 2522TIP3    H1 7530   1.888   0.390   0.307
 2522TIP3    H2 7531   1.946   0.304   0.417
 2523TIP3   OH2 7532   6.916   0.201   3.159
 2523TIP3    H1 7533   6.924   0.105   3.163
 2523TIP3    H2 7534   6.850   0.217   3.092
 2524TIP3   OH2 7535   5.807   5.375   3.976
 2524TIP3    H1 7536   5.889   5.387   3.929
 2524TIP3    H2 7537   5.740   5.379   3.909
 2525TIP3   OH2 7538   3.331   4.569   1.500
 2525TIP3    H1 7539   3.342   4.477   1.527
 2525TIP3    H2 7540   3.374   4.574   1.414
 2526TIP3   OH2 7541   0.893   2.085   2.780
 2526TIP3    H1 7542   0.895   2.150   2.710
 2526TIP3    H2 7543   0.844   2.011   2.744
 2527TIP3   OH2 7544   1.711   2.926   5.564
 2527TIP3    H1 7545   1.625   2.886   5.571
 2527TIP3    H2 7546   1.771   2.862   5.603
 2528TIP3   OH2 7547   3.807   1.634   4.476
 2528TIP3    H1 7548   3.788   1.722   4.444
 2528TIP3    H2 7549   3.901   1.624   4.467
 2529TIP3   OH2 7550   6.027   0.602   1.902
 2529TIP3    H1 7551   6.093   0.555   1.850
 2529TIP3    H2 7552   6.058   0.693   1.903
 2530TIP3   OH2 7553   1.268   2.632   5.097
 2530TIP3    H1 7554   1.291   2.709   5.149
 2530TIP3    H2 7555   1.295   2.558   5.151
 2531TIP3   OH2 7556   4.238   0.856   0.513
 2531TIP3    H1 7557   4.229   0.767   0.477
 2531TIP3    H2 7558   4.151   0.894   0.503
 2532TIP3   OH2 7559   2.834   5.821   4.831
 2532TIP3    H1 7560   2.870   5.836   4.744
 2532TIP3    H2 7561   2.740   5.813   4.817
 2533TIP3   OH2 7562   4.393   6.773   5.823
 2533TIP3    H1 7563   4.381   6.840   5.756
 2533TIP3    H2 7564   4.310   6.725   5.823
 2534TIP3   OH2 7565   6.656   1.100   3.994
 2534TIP3    H1 7566   6.701   1.174   4.035
 2534TIP3    H2 7567   6.674   1.026   4.052
 2535TIP3   OH2 7568   3.289   5.818   3.363
 2535TIP3    H1 7569   3.283   5.742   3.304
 2535TIP3    H2 7570   3.382   5.833   3.374
 2536TIP3   OH2 7571   6.596   3.040   3.154
 2536TIP3    H1 7572   6.520   3.095   3.132
 2536TIP3    H2 7573   6.579   3.012   3.244
 2537TIP3   OH2 7574   6.513   4.185   4.099
 2537TIP3    H1 7575   6.429   4.143   4.080
 2537TIP3    H2 7576   6.546   4.138   4.175
 2538TIP3   OH2 7577   0.536   5.966   5.460
 2538TIP3    H1 7578   0.556   6.054   5.428
 2538TIP3    H2 7579   0.498   5.979   5.547
 2539TIP3   OH2 7580   3.066   3.702   3.159
 2539TIP3    H1 7581   3.089   3.789   3.127
 2539TIP3    H2 7582   3.027   3.717   3.245
 2540TIP3   OH2 7583   5.551   3.501   1.655
 2540TIP3    H1 7584   5.545   3.442   1.730
 2540TIP3    H2 7585   5.576   3.586   1.693
 2541TIP3   OH2 7586   2.389   3.108   4.072
 2541TIP3    H1 7587   2.303   3.127   4.108
 2541TIP3    H2 7588   2.375   3.101   3.978
 2542TIP3   OH2 7589   1.606   3.183   5.439
 2542TIP3    H1 7590   1.639   3.095   5.458
 2542TIP3    H2 7591   1.623   3.195   5.345
 2543TIP3   OH2 7592   2.361   6.158   5.179
 2543TIP3    H1 7593   2.331   6.220   5.113
 2543TIP3    H2 7594   2.455   6.149   5.163
 2544TIP3   OH2 7595   5.130   1.868   1.981
 2544TIP3    H1 7596   5.067   1.935   1.955
 2544TIP3    H2 7597   5.174   1.906   2.057
 2545TIP3   OH2 7598   1.014   2.859   3.561
 2545TIP3    H1 7599   0.918   2.869   3.558
 2545TIP3    H2 7600   1.033   2.843   3.653
 2546TIP3   OH2 7601   2.489   5.950   5.541
 2546TIP3    H1 7602   2.437   5.877   5.574
 2546TIP3    H2 7603   2.451   6.027   5.583
 2547TIP3   OH2 7604   1.088   6.153   1.755
 2547TIP3    H1 7605   1.144   6.118   1.686
 2547TIP3    H2 7606   1.100   6.248   1.749
 2548TIP3   OH2 7607   1.128   6.056   5.024
 2548TIP3    H1 7608   1.070   6.053   4.948
 2548TIP3    H2 7609   1.212   6.085   4.989
 2549TIP3   OH2 7610   5.871   0.694   5.676
 2549TIP3    H1 7611   5.919   0.621   5.715
 2549TIP3    H2 7612   5.888   0.768   5.735
 2550TIP3   OH2 7613   0.110   3.958   2.536
 2550TIP3    H1 7614   0.029   4.005   2.557
 2550TIP3    H2 7615   0.083   3.887   2.479
 2551TIP3   OH2 7616   1.739   0.461   2.602
 2551TIP3    H1 7617   1.788   0.484   2.680
 2551TIP3    H2 7618   1.805   0.439   2.537
 2552TIP3   OH2 7619   1.264   1.622   4.547
 2552TIP3    H1 7620   1.186   1.673   4.524
 2552TIP3    H2 7621   1.232   1.531   4.551
 2553TIP3   OH2 7622   5.348   3.651   2.463
 2553TIP3    H1 7623   5.275   3.601   2.426
 2553TIP3    H2 7624   5.332   3.741   2.435
 2554TIP3   OH2 7625   5.183   0.369   1.398
 2554TIP3    H1 7626   5.181   0.462   1.378
 2554TIP3    H2 7627   5.100   0.335   1.365
 2555TIP3   OH2 7628   0.288   3.304   1.051
 2555TIP3    H1 7629   0.206   3.262   1.077
 2555TIP3    H2 7630   0.300   3.375   1.114
 2556TIP3   OH2 7631   6.735   3.226   5.818
 2556TIP3    H1 7632   6.812   3.197   5.771
 2556TIP3    H2 7633   6.668   3.237   5.751
 2557TIP3   OH2 7634   5.429   6.129   2.525
 2557TIP3    H1 7635   5.436   6.122   2.620
 2557TIP3    H2 7636   5.460   6.218   2.506
 2558TIP3   OH2 7637   0.954   3.662   5.106
 2558TIP3    H1 7638   0.977   3.640   5.016
 2558TIP3    H2 7639   0.947   3.757   5.108
 2559TIP3   OH2 7640   7.037   6.645   1.787
 2559TIP3    H1 7641   6.967   6.696   1.745
 2559TIP3    H2 7642   6.991   6.583   1.843
 2560TIP3   OH2 7643   0.484   5.078   1.640
 2560TIP3    H1 7644   0.431   5.011   1.682
 2560TIP3    H2 7645   0.420   5.135   1.596
 2561TIP3   OH2 7646   4.903   5.146   0.541
 2561TIP3    H1 7647   4.890   5.231   0.585
 2561TIP3    H2 7648   4.936   5.169   0.455
 2562TIP3   OH2 7649   0.637   2.952   4.300
 2562TIP3    H1 7650   0.584   2.931   4.224
 2562TIP3    H2 7651   0.671   2.868   4.330
 2563TIP3   OH2 7652   1.238   4.630   3.407
 2563TIP3    H1 7653   1.252   4.723   3.428
 2563TIP3    H2 7654   1.192   4.595   3.483
 2564TIP3   OH2 7655   4.211   4.334   2.752
 2564TIP3    H1 7656   4.278   4.397   2.726
 2564TIP3    H2 7657   4.167   4.375   2.826
 2565TIP3   OH2 7658   4.196   5.249   0.560
 2565TIP3    H1 7659   4.281   5.269   0.521
 2565TIP3    H2 7660   4.205   5.159   0.591
 2566TIP3   OH2 7661   2.590   1.279   0.975
 2566TIP3    H1 7662   2.657   1.224   1.016
 2566TIP3    H2 7663   2.531   1.216   0.932
 2567TIP3   OH2 7664   3.851   6.138   4.891
 2567TIP3    H1 7665   3.767   6.153   4.848
 2567TIP3    H2 7666   3.916   6.170   4.828
 2568TIP3   OH2 7667   3.014   0.468   5.576
 2568TIP3    H1 7668   3.048   0.420   5.652
 2568TIP3    H2 7669   2.924   0.438   5.566
 2569TIP3   OH2 7670   6.433   1.363   0.636
 2569TIP3    H1 7671   6.491   1.402   0.571
 2569TIP3    H2 7672   6.384   1.296   0.589
 2570TIP3   OH2 7673   0.588   3.661   3.850
 2570TIP3    H1 7674   0.514   3.649   3.910
 2570TIP3    H2 7675   0.658   3.607   3.887
 2571TIP3   OH2 7676   3.181   3.812   4.506
 2571TIP3    H1 7677   3.121   3.738   4.517
 2571TIP3    H2 7678   3.142   3.864   4.436
 2572TIP3   OH2 7679   4.213   4.959   5.550
 2572TIP3    H1 7680   4.129   4.989   5.514
 2572TIP3    H2 7681   4.278   4.984   5.485
 2573TIP3   OH2 7682   4.686   0.010   5.275
 2573TIP3    H1 7683   4.775   0.011   5.310
 2573TIP3    H2 7684   4.690   0.062   5.195
 2574TIP3   OH2 7685   2.669   6.219   0.452
 2574TIP3    H1 7686   2.574   6.207   0.447
 2574TIP3    H2 7687   2.692   6.262   0.370
 2575TIP3   OH2 7688   4.474   3.136   5.083
 2575TIP3    H1 7689   4.550   3.085   5.053
 2575TIP3    H2 7690   4.495   3.226   5.059
 2576TIP3   OH2 7691   5.028   5.611   0.103
 2576TIP3    H1 7692   5.075   5.528   0.114
 2576TIP3    H2 7693   4.937   5.585   0.086
 2577TIP3   OH2 7694   5.638   0.781   3.210
 2577TIP3    H1 7695   5.671   0.862   3.249
 2577TIP3    H2 7696   5.552   0.805   3.174
 2578TIP3   OH2 7697   1.533   6.517   5.866
 2578TIP3    H1 7698   1.519   6.545   5.957
 2578TIP3    H2 7699   1.556   6.597   5.820
 2579TIP3   OH2 7700   3.768   4.390   3.917
 2579TIP3    H1 7701   3.851   4.394   3.868
 2579TIP3    H2 7702   3.795   4.382   4.009
 2580TIP3   OH2 7703   2.754   0.964   2.322
 2580TIP3    H1 7704   2.721   0.976   2.234
 2580TIP3    H2 7705   2.723   0.877   2.348
 2581TIP3   OH2 7706   0.074   1.632   1.962
 2581TIP3    H1 7707   0.036   1.657   1.877
 2581TIP3    H2 7708   0.134   1.560   1.941
 2582TIP3   OH2 7709   1.783   0.320   5.392
 2582TIP3    H1 7710   1.697   0.317   5.349
 2582TIP3    H2 7711   1.785   0.404   5.437
 2583TIP3   OH2 7712   3.194   5.397   1.124
 2583TIP3    H1 7713   3.162   5.445   1.200
 2583TIP3    H2 7714   3.118   5.351   1.090
 2584TIP3   OH2 7715   5.965   1.775   2.720
 2584TIP3    H1 7716   5.984   1.701   2.662
 2584TIP3    H2 7717   6.028   1.842   2.695
 2585TIP3   OH2 7718   0.402   4.362   2.933
 2585TIP3    H1 7719   0.446   4.424   2.991
 2585TIP3    H2 7720   0.349   4.417   2.876
 2586TIP3   OH2 7721   5.468   0.224   3.776
 2586TIP3    H1 7722   5.443   0.257   3.689
 2586TIP3    H2 7723   5.395   0.249   3.833
 2587TIP3   OH2 7724   0.260   1.079   0.019
 2587TIP3    H1 7725   0.337   1.108  -0.029
 2587TIP3    H2 7726   0.220   1.160   0.051
 2588TIP3   OH2 7727   5.029   5.583   4.777
 2588TIP3    H1 7728   4.994   5.525   4.844
 2588TIP3    H2 7729   5.012   5.671   4.811
 2589TIP3   OH2 7730   1.453   4.551   1.560
 2589TIP3    H1 7731   1.394   4.475   1.558
 2589TIP3    H2 7732   1.509   4.535   1.635
 2590TIP3   OH2 7733   0.640   1.630   5.905
 2590TIP3    H1 7734   0.661   1.637   5.812
 2590TIP3    H2 7735   0.558   1.679   5.914
 2591TIP3   OH2 7736   1.510   3.400   3.352
 2591TIP3    H1 7737   1.472   3.338   3.414
 2591TIP3    H2 7738   1.604   3.391   3.363
 2592TIP3   OH2 7739   6.704   4.697   3.654
 2592TIP3    H1 7740   6.683   4.664   3.566
 2592TIP3    H2 7741   6.715   4.619   3.707
 2593TIP3   OH2 7742   5.556   1.323   1.669
 2593TIP3    H1 7743   5.477   1.275   1.695
 2593TIP3    H2 7744   5.539   1.413   1.696
 2594TIP3   OH2 7745   6.515   5.256   1.642
 2594TIP3    H1 7746   6.484   5.232   1.555
 2594TIP3    H2 7747   6.564   5.337   1.628
 2595TIP3   OH2 7748   4.572   3.709   4.943
 2595TIP3    H1 7749   4.557   3.742   4.854
 2595TIP3    H2 7750   4.634   3.637   4.931
 2596TIP3   OH2 7751   0.709   0.650   0.386
 2596TIP3    H1 7752   0.747   0.693   0.309
 2596TIP3    H2 7753   0.663   0.574   0.350
 2597TIP3   OH2 7754   6.942   0.190   4.035
 2597TIP3    H1 7755   6.978   0.115   3.989
 2597TIP3    H2 7756   7.017   0.244   4.058
 2598TIP3   OH2 7757   3.638   2.241   4.306
 2598TIP3    H1 7758   3.640   2.312   4.242
 2598TIP3    H2 7759   3.560   2.259   4.359
 2599TIP3   OH2 7760   1.436   2.698   2.077
 2599TIP3    H1 7761   1.507   2.762   2.083
 2599TIP3    H2 7762   1.364   2.737   2.128
 2600TIP3   OH2 7763   4.064   1.351   1.108
 2600TIP3    H1 7764   4.095   1.261   1.100
 2600TIP3    H2 7765   3.993   1.347   1.172
 2601TIP3   OH2 7766   4.487   1.590   5.682
 2601TIP3    H1 7767   4.405   1.627   5.716
 2601TIP3    H2 7768   4.461   1.539   5.606
 2602TIP3   OH2 7769   1.103   2.440   2.603
 2602TIP3    H1 7770   1.116   2.468   2.694
 2602TIP3    H2 7771   1.175   2.379   2.586
 2603TIP3   OH2 7772   5.709   4.512   5.125
 2603TIP3    H1 7773   5.683   4.421   5.107
 2603TIP3    H2 7774   5.626   4.558   5.138
 2604TIP3   OH2 7775   5.668   5.091   2.428
 2604TIP3    H1 7776   5.758   5.121   2.438
 2604TIP3    H2 7777   5.668   5.002   2.463
 2605TIP3   OH2 7778   0.707   4.396   0.350
 2605TIP3    H1 7779   0.799   4.389   0.374
 2605TIP3    H2 7780   0.697   4.486   0.320
 2606TIP3   OH2 7781   4.038   5.346   1.845
 2606TIP3    H1 7782   4.009   5.293   1.770
 2606TIP3    H2 7783   4.055   5.432   1.807
 2607TIP3   OH2 7784   3.524   4.122   2.369
 2607TIP3    H1 7785   3.437   4.161   2.379
 2607TIP3    H2 7786   3.583   4.197   2.371
 2608TIP3   OH2 7787   5.138   6.684   4.999
 2608TIP3    H1 7788   5.204   6.698   5.067
 2608TIP3    H2 7789   5.082   6.615   5.034
 2609TIP3   OH2 7790   6.238   4.800   2.099
 2609TIP3    H1 7791   6.155   4.767   2.133
 2609TIP3    H2 7792   6.246   4.887   2.138
 2610TIP3   OH2 7793   2.846   1.982   3.820
 2610TIP3    H1 7794   2.795   2.061   3.802
 2610TIP3    H2 7795   2.837   1.969   3.914
 2611TIP3   OH2 7796   4.966   1.015   5.758
 2611TIP3    H1 7797   4.989   0.998   5.849
 2611TIP3    H2 7798   4.964   0.928   5.717
 2612TIP3   OH2 7799   5.411   4.228   3.700
 2612TIP3    H1 7800   5.323   4.190   3.699
 2612TIP3    H2 7801   5.404   4.302   3.760
 2613TIP3   OH2 7802   3.699   6.703   0.686
 2613TIP3    H1 7803   3.673   6.685   0.596
 2613TIP3    H2 7804   3.745   6.625   0.715
 2614TIP3   OH2 7805   0.706   1.368   1.207
 2614TIP3    H1 7806   0.633   1.418   1.242
 2614TIP3    H2 7807   0.702   1.382   1.113
 2615TIP3   OH2 7808   4.354   4.444   0.465
 2615TIP3    H1 7809   4.326   4.353   0.466
 2615TIP3    H2 7810   4.379   4.463   0.556
 2616TIP3   OH2 7811   3.575   6.468   2.935
 2616TIP3    H1 7812   3.507   6.495   2.873
 2616TIP3    H2 7813   3.629   6.546   2.946
 2617TIP3   OH2 7814   3.880   0.119   2.443
 2617TIP3    H1 7815   3.874   0.175   2.520
 2617TIP3    H2 7816   3.880   0.029   2.478
 2618TIP3   OH2 7817   4.319   2.448   3.203
 2618TIP3    H1 7818   4.338   2.441   3.297
 2618TIP3    H2 7819   4.405   2.440   3.161
 2619TIP3   OH2 7820   4.309   0.821   2.140
 2619TIP3    H1 7821   4.331   0.759   2.071
 2619TIP3    H2 7822   4.337   0.777   2.221
 2620TIP3   OH2 7823   7.050   0.964   1.786
 2620TIP3    H1 7824   7.073   0.876   1.755
 2620TIP3    H2 7825   7.051   0.957   1.881
 2621TIP3   OH2 7826   5.674   4.799   0.219
 2621TIP3    H1 7827   5.707   4.762   0.301
 2621TIP3    H2 7828   5.588   4.833   0.241
 2622TIP3   OH2 7829   6.634   4.363   1.243
 2622TIP3    H1 7830   6.693   4.420   1.292
 2622TIP3    H2 7831   6.552   4.366   1.293
 2623TIP3   OH2 7832   0.655   1.884   2.113
 2623TIP3    H1 7833   0.643   1.971   2.075
 2623TIP3    H2 7834   0.598   1.883   2.190
 2624TIP3   OH2 7835   1.768   0.900   5.406
 2624TIP3    H1 7836   1.681   0.862   5.398
 2624TIP3    H2 7837   1.760   0.966   5.475
 2625TIP3   OH2 7838   3.982   5.263   0.869
 2625TIP3    H1 7839   3.986   5.315   0.949
 2625TIP3    H2 7840   4.072   5.231   0.857
 2626TIP3   OH2 7841   0.825   4.191   4.674
 2626TIP3    H1 7842   0.765   4.141   4.729
 2626TIP3    H2 7843   0.897   4.130   4.655
 2627TIP3   OH2 7844   2.086   6.367   2.262
 2627TIP3    H1 7845   2.009   6.401   2.308
 2627TIP3    H2 7846   2.058   6.284   2.224
 2628TIP3   OH2 7847   2.460   1.214   2.277
 2628TIP3    H1 7848   2.457   1.226   2.182
 2628TIP3    H2 7849   2.420   1.128   2.292
 2629TIP3   OH2 7850   6.689   0.896   0.337
 2629TIP3    H1 7851   6.597   0.889   0.311
 2629TIP3    H2 7852   6.732   0.938   0.262
 2630TIP3   OH2 7853   0.173   5.883   1.534
 2630TIP3    H1 7854   0.167   5.978   1.550
 2630TIP3    H2 7855   0.083   5.853   1.534
 2631TIP3   OH2 7856   2.352   5.498   1.176
 2631TIP3    H1 7857   2.327   5.407   1.160
 2631TIP3    H2 7858   2.334   5.512   1.269
 2632TIP3   OH2 7859   7.045   3.037   4.402
 2632TIP3    H1 7860   7.052   2.960   4.345
 2632TIP3    H2 7861   7.097   3.104   4.359
 2633TIP3   OH2 7862   2.774   5.212   0.112
 2633TIP3    H1 7863   2.748   5.148   0.046
 2633TIP3    H2 7864   2.831   5.273   0.065
 2634TIP3   OH2 7865   1.677   3.445  -0.014
 2634TIP3    H1 7866   1.686   3.463   0.080
 2634TIP3    H2 7867   1.710   3.356  -0.024
 2635TIP3   OH2 7868   0.434   0.229   5.162
 2635TIP3    H1 7869   0.391   0.248   5.079
 2635TIP3    H2 7870   0.514   0.181   5.138
 2636TIP3   OH2 7871   5.343   0.788   5.064
 2636TIP3    H1 7872   5.258   0.833   5.066
 2636TIP3    H2 7873   5.396   0.839   5.004
 2637TIP3   OH2 7874   5.183   4.032   0.017
 2637TIP3    H1 7875   5.265   3.984   0.030
 2637TIP3    H2 7876   5.202   4.121   0.047
 2638TIP3   OH2 7877   2.639   5.836   0.725
 2638TIP3    H1 7878   2.645   5.757   0.671
 2638TIP3    H2 7879   2.556   5.875   0.702
 2639TIP3   OH2 7880   0.884   2.256   1.420
 2639TIP3    H1 7881   0.967   2.234   1.463
 2639TIP3    H2 7882   0.831   2.177   1.428
 2640TIP3   OH2 7883   4.525   1.249   3.798
 2640TIP3    H1 7884   4.464   1.183   3.828
 2640TIP3    H2 7885   4.565   1.212   3.719
 2641TIP3   OH2 7886   1.925   1.865   4.009
 2641TIP3    H1 7887   1.875   1.896   3.933
 2641TIP3    H2 7888   2.016   1.878   3.984
 2642TIP3   OH2 7889   5.176   3.216   5.847
 2642TIP3    H1 7890   5.164   3.282   5.915
 2642TIP3    H2 7891   5.252   3.247   5.797
 2643TIP3   OH2 7892   6.234   1.074   3.085
 2643TIP3    H1 7893   6.198   1.053   3.171
 2643TIP3    H2 7894   6.325   1.046   3.090
 2644TIP3   OH2 7895   5.691   6.141   1.465
 2644TIP3    H1 7896   5.787   6.148   1.461
 2644TIP3    H2 7897   5.665   6.130   1.373
 2645TIP3   OH2 7898   2.840   0.817   0.813
 2645TIP3    H1 7899   2.874   0.893   0.860
 2645TIP3    H2 7900   2.799   0.762   0.881
 2646TIP3   OH2 7901   4.394   3.176   0.416
 2646TIP3    H1 7902   4.383   3.081   0.424
 2646TIP3    H2 7903   4.482   3.193   0.449
 2647TIP3   OH2 7904   5.916   3.297   3.613
 2647TIP3    H1 7905   5.888   3.344   3.534
 2647TIP3    H2 7906   5.847   3.316   3.677
 2648TIP3   OH2 7907   5.837   1.761   4.789
 2648TIP3    H1 7908   5.771   1.806   4.841
 2648TIP3    H2 7909   5.815   1.668   4.796
 2649TIP3   OH2 7910   3.286   2.898   5.717
 2649TIP3    H1 7911   3.200   2.879   5.756
 2649TIP3    H2 7912   3.340   2.823   5.742
 2650TIP3   OH2 7913   5.426   2.778   0.931
 2650TIP3    H1 7914   5.372   2.831   0.873
 2650TIP3    H2 7915   5.404   2.688   0.909
 2651TIP3   OH2 7916   6.873   0.147   4.515
 2651TIP3    H1 7917   6.873   0.083   4.445
 2651TIP3    H2 7918   6.949   0.203   4.497
 2652TIP3   OH2 7919   5.055   4.331   2.937
 2652TIP3    H1 7920   4.977   4.329   2.881
 2652TIP3    H2 7921   5.120   4.280   2.889
 2653TIP3   OH2 7922   3.007   0.402   1.018
 2653TIP3    H1 7923   3.024   0.399   0.924
 2653TIP3    H2 7924   3.065   0.335   1.055
 2654TIP3   OH2 7925   6.134   5.582   2.697
 2654TIP3    H1 7926   6.148   5.503   2.750
 2654TIP3    H2 7927   6.045   5.572   2.663
 2655TIP3   OH2 7928   5.565   3.002   3.796
 2655TIP3    H1 7929   5.589   2.931   3.856
 2655TIP3    H2 7930   5.625   3.073   3.819
 2656TIP3   OH2 7931   6.801   5.786   1.037
 2656TIP3    H1 7932   6.776   5.878   1.025
 2656TIP3    H2 7933   6.736   5.751   1.097
 2657TIP3   OH2 7934   4.438   6.287   3.805
 2657TIP3    H1 7935   4.363   6.258   3.856
 2657TIP3    H2 7936   4.473   6.207   3.767
 2658TIP3   OH2 7937   4.112   3.803   2.237
 2658TIP3    H1 7938   4.129   3.897   2.230
 2658TIP3    H2 7939   4.058   3.794   2.316
 2659TIP3   OH2 7940   2.926   2.328   4.838
 2659TIP3    H1 7941   3.009   2.375   4.842
 2659TIP3    H2 7942   2.947   2.240   4.870
 2660TIP3   OH2 7943   4.709   1.808   3.590
 2660TIP3    H1 7944   4.783   1.760   3.554
 2660TIP3    H2 7945   4.635   1.785   3.534
 2661TIP3   OH2 7946   2.312   5.237   1.133
 2661TIP3    H1 7947   2.385   5.211   1.189
 2661TIP3    H2 7948   2.313   5.174   1.061
 2662TIP3   OH2 7949   4.980   1.481   1.657
 2662TIP3    H1 7950   5.022   1.417   1.714
 2662TIP3    H2 7951   5.038   1.487   1.581
 2663TIP3   OH2 7952   6.481   4.337   3.423
 2663TIP3    H1 7953   6.413   4.380   3.371
 2663TIP3    H2 7954   6.467   4.244   3.409
 2664TIP3   OH2 7955   1.196   0.619   4.224
 2664TIP3    H1 7956   1.202   0.674   4.302
 2664TIP3    H2 7957   1.116   0.646   4.181
 2665TIP3   OH2 7958   6.361   4.628   3.879
 2665TIP3    H1 7959   6.413   4.586   3.947
 2665TIP3    H2 7960   6.303   4.558   3.847
 2666TIP3   OH2 7961   2.272   6.171   5.435
 2666TIP3    H1 7962   2.336   6.235   5.467
 2666TIP3    H2 7963   2.309   6.140   5.352
 2667TIP3   OH2 7964   0.995   5.933   5.706
 2667TIP3    H1 7965   0.911   5.888   5.715
 2667TIP3    H2 7966   0.985   5.984   5.626
 2668TIP3   OH2 7967   6.454   4.311   0.288
 2668TIP3    H1 7968   6.525   4.251   0.313
 2668TIP3    H2 7969   6.451   4.376   0.358
 2669TIP3   OH2 7970   4.500   1.386   5.499
 2669TIP3    H1 7971   4.557   1.312   5.479
 2669TIP3    H2 7972   4.414   1.359   5.468
 2670TIP3   OH2 7973   0.954   1.547   2.647
 2670TIP3    H1 7974   0.966   1.511   2.559
 2670TIP3    H2 7975   1.002   1.629   2.647
 2671TIP3   OH2 7976   6.293   1.668   4.834
 2671TIP3    H1 7977   6.357   1.672   4.763
 2671TIP3    H2 7978   6.345   1.671   4.914
 2672TIP3   OH2 7979   6.510   5.692   0.908
 2672TIP3    H1 7980   6.485   5.642   0.985
 2672TIP3    H2 7981   6.590   5.650   0.877
 2673TIP3   OH2 7982   2.452   1.182   3.567
 2673TIP3    H1 7983   2.405   1.106   3.532
 2673TIP3    H2 7984   2.441   1.175   3.662
 2674TIP3   OH2 7985   4.415   0.902   3.278
 2674TIP3    H1 7986   4.332   0.927   3.319
 2674TIP3    H2 7987   4.437   0.817   3.316
 2675TIP3   OH2 7988   6.253   3.414   3.972
 2675TIP3    H1 7989   6.323   3.458   3.924
 2675TIP3    H2 7990   6.213   3.356   3.907
 2676TIP3   OH2 7991   2.150   1.135   2.108
 2676TIP3    H1 7992   2.194   1.092   2.181
 2676TIP3    H2 7993   2.166   1.077   2.033
 2677TIP3   OH2 7994   4.481   4.810   0.205
 2677TIP3    H1 7995   4.540   4.755   0.257
 2677TIP3    H2 7996   4.534   4.837   0.130
 2678TIP3   OH2 7997   3.264   0.835   4.093
 2678TIP3    H1 7998   3.272   0.748   4.133
 2678TIP3    H2 7999   3.286   0.896   4.163
 2679TIP3   OH2 8000   3.342   6.362   2.738
 2679TIP3    H1 8001   3.407   6.405   2.684
 2679TIP3    H2 8002   3.286   6.316   2.676
 2680TIP3   OH2 8003   5.999   0.106   4.076
 2680TIP3    H1 8004   5.912   0.075   4.100
 2680TIP3    H2 8005   5.983   0.179   4.016
 2681TIP3   OH2 8006   4.537   5.635   2.935
 2681TIP3    H1 8007   4.575   5.628   2.847
 2681TIP3    H2 8008   4.443   5.641   2.921
 2682TIP3   OH2 8009   3.002   0.484   2.522
 2682TIP3    H1 8010   2.955   0.408   2.488
 2682TIP3    H2 8011   3.084   0.448   2.556
 2683TIP3   OH2 8012   6.052   6.552   2.132
 2683TIP3    H1 8013   5.984   6.490   2.105
 2683TIP3    H2 8014   6.120   6.497   2.171
 2684TIP3   OH2 8015   5.636   4.383   3.508
 2684TIP3    H1 8016   5.669   4.465   3.472
 2684TIP3    H2 8017   5.542   4.386   3.494
 2685TIP3   OH2 8018   6.318   0.565   5.507
 2685TIP3    H1 8019   6.334   0.654   5.475
 2685TIP3    H2 8020   6.245   0.532   5.454
 2686TIP3   OH2 8021   0.024   6.273   5.517
 2686TIP3    H1 8022   0.088   6.279   5.588
 2686TIP3    H2 8023   0.054   6.199   5.464
 2687TIP3   OH2 8024   5.774   1.533   0.496
 2687TIP3    H1 8025   5.708   1.470   0.524
 2687TIP3    H2 8026   5.727   1.590   0.434
 2688TIP3   OH2 8027   7.033   2.562   2.932
 2688TIP3    H1 8028   7.064   2.536   2.845
 2688TIP3    H2 8029   6.944   2.526   2.938
 2689TIP3   OH2 8030   3.988   0.555   4.282
 2689TIP3    H1 8031   4.006   0.643   4.315
 2689TIP3    H2 8032   3.994   0.499   4.359
 2690TIP3   OH2 8033   5.667   4.390   1.858
 2690TIP3    H1 8034   5.701   4.305   1.887
 2690TIP3    H2 8035   5.653   4.379   1.764
 2691TIP3   OH2 8036   2.387   0.282   3.997
 2691TIP3    H1 8037   2.297   0.250   4.005
 2691TIP3    H2 8038   2.384   0.345   3.925
 2692TIP3   OH2 8039   2.219   5.416   2.784
 2692TIP3    H1 8040   2.239   5.475   2.711
 2692TIP3    H2 8041   2.165   5.348   2.745
 2693TIP3   OH2 8042   2.230   2.156   4.674
 2693TIP3    H1 8043   2.193   2.086   4.729
 2693TIP3    H2 8044   2.291   2.111   4.616
 2694TIP3   OH2 8045   3.257   3.864   3.470
 2694TIP3    H1 8046   3.352   3.852   3.478
 2694TIP3    H2 8047   3.247   3.930   3.401
 2695TIP3   OH2 8048   1.920   0.315   4.168
 2695TIP3    H1 8049   1.839   0.278   4.135
 2695TIP3    H2 8050   1.899   0.345   4.257
 2696TIP3   OH2 8051   2.910   6.705   0.654
 2696TIP3    H1 8052   2.950   6.727   0.570
 2696TIP3    H2 8053   2.838   6.645   0.631
 2697TIP3   OH2 8054   0.229   6.702   3.362
 2697TIP3    H1 8055   0.232   6.625   3.418
 2697TIP3    H2 8056   0.217   6.775   3.422
 2698TIP3   OH2 8057   3.660   3.994   5.020
 2698TIP3    H1 8058   3.698   3.929   5.079
 2698TIP3    H2 8059   3.700   4.077   5.047
 2699TIP3   OH2 8060   6.050   4.068   5.678
 2699TIP3    H1 8061   5.968   4.117   5.685
 2699TIP3    H2 8062   6.040   3.994   5.738
 2700TIP3   OH2 8063   4.665   1.172   0.848
 2700TIP3    H1 8064   4.721   1.248   0.867
 2700TIP3    H2 8065   4.692   1.106   0.912
 2701TIP3   OH2 8066   1.453   6.360   5.193
 2701TIP3    H1 8067   1.437   6.382   5.285
 2701TIP3    H2 8068   1.433   6.266   5.188
 2702TIP3   OH2 8069   4.393   4.213   0.166
 2702TIP3    H1 8070   4.412   4.279   0.098
 2702TIP3    H2 8071   4.466   4.152   0.162
 2703TIP3   OH2 8072   2.271   2.963   3.664
 2703TIP3    H1 8073   2.312   2.954   3.578
 2703TIP3    H2 8074   2.182   2.994   3.645
 2704TIP3   OH2 8075   4.651   4.438   2.108
 2704TIP3    H1 8076   4.580   4.375   2.115
 2704TIP3    H2 8077   4.627   4.494   2.034
 2705TIP3   OH2 8078   5.974   1.746   5.765
 2705TIP3    H1 8079   5.978   1.786   5.679
 2705TIP3    H2 8080   5.996   1.817   5.826
 2706TIP3   OH2 8081   1.582   2.499   4.662
 2706TIP3    H1 8082   1.676   2.490   4.648
 2706TIP3    H2 8083   1.560   2.431   4.725
 2707TIP3   OH2 8084   6.512   3.182   5.274
 2707TIP3    H1 8085   6.451   3.115   5.307
 2707TIP3    H2 8086   6.506   3.175   5.179
 2708TIP3   OH2 8087   4.400   0.510   1.111
 2708TIP3    H1 8088   4.323   0.524   1.166
 2708TIP3    H2 8089   4.365   0.470   1.031
 2709TIP3   OH2 8090   2.970   5.260   4.325
 2709TIP3    H1 8091   3.043   5.315   4.355
 2709TIP3    H2 8092   2.966   5.189   4.390
 2710TIP3   OH2 8093   3.311   4.645   1.795
 2710TIP3    H1 8094   3.310   4.604   1.708
 2710TIP3    H2 8095   3.386   4.705   1.792
 2711TIP3   OH2 8096   1.074   6.387   5.755
 2711TIP3    H1 8097   1.064   6.463   5.812
 2711TIP3    H2 8098   1.104   6.318   5.814
 2712TIP3   OH2 8099   4.166   1.948   3.260
 2712TIP3    H1 8100   4.256   1.973   3.239
 2712TIP3    H2 8101   4.115   2.026   3.239
 2713TIP3   OH2 8102   1.729   3.614   0.241
 2713TIP3    H1 8103   1.647   3.655   0.214
 2713TIP3    H2 8104   1.798   3.671   0.207
 2714TIP3   OH2 8105   0.428   1.125   2.795
 2714TIP3    H1 8106   0.449   1.214   2.822
 2714TIP3    H2 8107   0.383   1.087   2.870
 2715TIP3   OH2 8108   4.615   4.933   3.550
 2715TIP3    H1 8109   4.520   4.929   3.559
 2715TIP3    H2 8110   4.645   4.844   3.569
 2716TIP3   OH2 8111   2.813   5.954   0.457
 2716TIP3    H1 8112   2.742   5.926   0.516
 2716TIP3    H2 8113   2.792   6.044   0.435
 2717TIP3   OH2 8114   0.681   3.872   3.416
 2717TIP3    H1 8115   0.695   3.782   3.444
 2717TIP3    H2 8116   0.588   3.876   3.393
 2718TIP3   OH2 8117   6.944   2.363   1.784
 2718TIP3    H1 8118   6.998   2.301   1.734
 2718TIP3    H2 8119   7.005   2.408   1.841
 2719TIP3   OH2 8120   6.708   4.593   4.997
 2719TIP3    H1 8121   6.636   4.606   5.059
 2719TIP3    H2 8122   6.715   4.676   4.950
 2720TIP3   OH2 8123   3.933   2.261   4.409
 2720TIP3    H1 8124   3.891   2.340   4.376
 2720TIP3    H2 8125   3.921   2.196   4.339
 2721TIP3   OH2 8126   5.824  -0.006   2.872
 2721TIP3    H1 8127   5.781   0.069   2.829
 2721TIP3    H2 8128   5.780  -0.013   2.957
 2722TIP3   OH2 8129   5.365   2.534   2.152
 2722TIP3    H1 8130   5.421   2.492   2.216
 2722TIP3    H2 8131   5.337   2.616   2.193
 2723TIP3   OH2 8132   6.910   6.182   3.547
 2723TIP3    H1 8133   6.870   6.100   3.575
 2723TIP3    H2 8134   6.934   6.167   3.455
 2724TIP3   OH2 8135   4.496   2.731   0.669
 2724TIP3    H1 8136   4.408   2.760   0.644
 2724TIP3    H2 8137   4.526   2.797   0.731
 2725TIP3   OH2 8138   1.010   6.612   2.954
 2725TIP3    H1 8139   1.039   6.638   2.867
 2725TIP3    H2 8140   0.918   6.637   2.958
 2726TIP3   OH2 8141   4.499   0.992   1.998
 2726TIP3    H1 8142   4.464   0.931   2.063
 2726TIP3    H2 8143   4.452   0.971   1.917
 2727TIP3   OH2 8144   2.308   3.281   4.873
 2727TIP3    H1 8145   2.248   3.285   4.798
 2727TIP3    H2 8146   2.362   3.204   4.856
 2728TIP3   OH2 8147   3.107   5.187   3.039
 2728TIP3    H1 8148   3.127   5.106   2.993
 2728TIP3    H2 8149   3.186   5.240   3.031
 2729TIP3   OH2 8150   4.910   3.486   1.801
 2729TIP3    H1 8151   4.908   3.533   1.718
 2729TIP3    H2 8152   4.865   3.404   1.783
 2730TIP3   OH2 8153   2.409   2.066   2.134
 2730TIP3    H1 8154   2.377   2.155   2.119
 2730TIP3    H2 8155   2.502   2.070   2.115
 2731TIP3   OH2 8156   1.714   1.876   4.224
 2731TIP3    H1 8157   1.770   1.873   4.147
 2731TIP3    H2 8158   1.663   1.795   4.221
 2732TIP3   OH2 8159   4.200   4.442   0.162
 2732TIP3    H1 8160   4.257   4.368   0.183
 2732TIP3    H2 8161   4.139   4.446   0.236
 2733TIP3   OH2 8162   0.211   6.776   2.351
 2733TIP3    H1 8163   0.217   6.681   2.364
 2733TIP3    H2 8164   0.169   6.786   2.266
 2734TIP3   OH2 8165   4.312   1.870   3.515
 2734TIP3    H1 8166   4.236   1.927   3.501
 2734TIP3    H2 8167   4.361   1.875   3.433
 2735TIP3   OH2 8168   5.457   0.292   2.615
 2735TIP3    H1 8169   5.464   0.351   2.540
 2735TIP3    H2 8170   5.402   0.340   2.677
 2736TIP3   OH2 8171   5.125   3.129   1.983
 2736TIP3    H1 8172   5.053   3.082   2.025
 2736TIP3    H2 8173   5.091   3.150   1.895
 2737TIP3   OH2 8174   6.788   5.684   2.959
 2737TIP3    H1 8175   6.841   5.657   2.884
 2737TIP3    H2 8176   6.834   5.761   2.993
 2738TIP3   OH2 8177   6.338   5.632   0.444
 2738TIP3    H1 8178   6.270   5.669   0.501
 2738TIP3    H2 8179   6.335   5.686   0.365
 2739TIP3   OH2 8180   2.880   3.134   5.613
 2739TIP3    H1 8181   2.819   3.203   5.637
 2739TIP3    H2 8182   2.945   3.178   5.558
 2740TIP3   OH2 8183   4.653   6.436   1.636
 2740TIP3    H1 8184   4.598   6.402   1.706
 2740TIP3    H2 8185   4.600   6.504   1.594
 2741TIP3   OH2 8186   2.795   6.401   5.146
 2741TIP3    H1 8187   2.735   6.474   5.132
 2741TIP3    H2 8188   2.882   6.440   5.151
 2742TIP3   OH2 8189   3.995   4.928   2.638
 2742TIP3    H1 8190   3.998   4.884   2.723
 2742TIP3    H2 8191   4.087   4.934   2.611
 2743TIP3   OH2 8192   2.775   5.228   3.895
 2743TIP3    H1 8193   2.802   5.300   3.953
 2743TIP3    H2 8194   2.853   5.174   3.885
 2744TIP3   OH2 8195   4.864   0.168   3.715
 2744TIP3    H1 8196   4.885   0.262   3.716
 2744TIP3    H2 8197   4.912   0.134   3.639
 2745TIP3   OH2 8198   1.220   5.667   0.520
 2745TIP3    H1 8199   1.194   5.581   0.554
 2745TIP3    H2 8200   1.273   5.705   0.590
 2746TIP3   OH2 8201   7.144   5.230   5.420
 2746TIP3    H1 8202   7.218   5.253   5.476
 2746TIP3    H2 8203   7.104   5.155   5.464
 2747TIP3   OH2 8204   1.505   5.495   5.033
 2747TIP3    H1 8205   1.420   5.466   4.998
 2747TIP3    H2 8206   1.483   5.549   5.108
 2748TIP3   OH2 8207   0.978   3.907   2.614
 2748TIP3    H1 8208   0.930   3.988   2.627
 2748TIP3    H2 8209   1.043   3.905   2.684
 2749TIP3   OH2 8210   4.417   5.865   4.738
 2749TIP3    H1 8211   4.497   5.817   4.716
 2749TIP3    H2 8212   4.440   5.957   4.724
 2750TIP3   OH2 8213   6.420   4.069   3.422
 2750TIP3    H1 8214   6.406   3.977   3.447
 2750TIP3    H2 8215   6.334   4.101   3.397
 2751TIP3   OH2 8216   0.166   4.420   0.992
 2751TIP3    H1 8217   0.208   4.336   0.975
 2751TIP3    H2 8218   0.110   4.405   1.068
 2752TIP3   OH2 8219   0.640   4.879   5.429
 2752TIP3    H1 8220   0.672   4.849   5.344
 2752TIP3    H2 8221   0.667   4.810   5.490
 2753TIP3   OH2 8222   4.764   5.886   2.887
 2753TIP3    H1 8223   4.703   5.812   2.882
 2753TIP3    H2 8224   4.844   5.848   2.924
 2754TIP3   OH2 8225   5.943   4.758   1.741
 2754TIP3    H1 8226   5.921   4.840   1.696
 2754TIP3    H2 8227   5.905   4.689   1.686
 2755TIP3   OH2 8228   5.627   1.975   1.319
 2755TIP3    H1 8229   5.655   1.892   1.359
 2755TIP3    H2 8230   5.596   2.027   1.393
 2756TIP3   OH2 8231   6.466   4.725   1.954
 2756TIP3    H1 8232   6.390   4.750   2.007
 2756TIP3    H2 8233   6.530   4.795   1.968
 2757TIP3   OH2 8234   5.399   1.277   3.169
 2757TIP3    H1 8235   5.405   1.367   3.137
 2757TIP3    H2 8236   5.355   1.285   3.253
 2758TIP3   OH2 8237   0.165   0.724   1.612
 2758TIP3    H1 8238   0.088   0.748   1.663
 2758TIP3    H2 8239   0.239   0.744   1.669
 2759TIP3   OH2 8240   3.618   5.894   1.073
 2759TIP3    H1 8241   3.522   5.904   1.072
 2759TIP3    H2 8242   3.644   5.900   0.982
 2760TIP3   OH2 8243   1.597   2.075   1.325
 2760TIP3    H1 8244   1.568   2.163   1.349
 2760TIP3    H2 8245   1.517   2.030   1.297
 2761TIP3   OH2 8246   3.945   0.854   3.687
 2761TIP3    H1 8247   3.898   0.781   3.646
 2761TIP3    H2 8248   3.918   0.931   3.638
 2762TIP3   OH2 8249   3.504   6.658   3.282
 2762TIP3    H1 8250   3.526   6.742   3.240
 2762TIP3    H2 8251   3.412   6.644   3.261
 2763TIP3   OH2 8252   1.709   1.458   1.789
 2763TIP3    H1 8253   1.662   1.401   1.849
 2763TIP3    H2 8254   1.789   1.409   1.768
 2764TIP3   OH2 8255   7.096   6.417   0.375
 2764TIP3    H1 8256   7.169   6.366   0.410
 2764TIP3    H2 8257   7.018   6.374   0.409
 2765TIP3   OH2 8258   1.733   2.218   5.361
 2765TIP3    H1 8259   1.752   2.216   5.268
 2765TIP3    H2 8260   1.779   2.142   5.397
 2766TIP3   OH2 8261   4.130   0.754   0.953
 2766TIP3    H1 8262   4.064   0.731   0.887
 2766TIP3    H2 8263   4.097   0.714   1.033
 2767TIP3   OH2 8264   4.167   3.611   3.980
 2767TIP3    H1 8265   4.084   3.652   4.005
 2767TIP3    H2 8266   4.233   3.678   3.997
 2768TIP3   OH2 8267   2.203   3.415   3.422
 2768TIP3    H1 8268   2.223   3.445   3.333
 2768TIP3    H2 8269   2.282   3.436   3.472
 2769TIP3   OH2 8270   0.349   4.211   1.254
 2769TIP3    H1 8271   0.320   4.300   1.273
 2769TIP3    H2 8272   0.303   4.188   1.173
 2770TIP3   OH2 8273   4.160   5.314   2.807
 2770TIP3    H1 8274   4.077   5.274   2.833
 2770TIP3    H2 8275   4.226   5.273   2.863
 2771TIP3   OH2 8276   2.036   0.860   5.695
 2771TIP3    H1 8277   2.097   0.787   5.687
 2771TIP3    H2 8278   1.949   0.820   5.697
 2772TIP3   OH2 8279   0.034   0.417   0.800
 2772TIP3    H1 8280   0.067   0.352   0.861
 2772TIP3    H2 8281   0.054   0.501   0.841
 2773TIP3   OH2 8282   4.677   4.636   3.622
 2773TIP3    H1 8283   4.678   4.547   3.588
 2773TIP3    H2 8284   4.588   4.648   3.656
 2774TIP3   OH2 8285   2.237   0.528   0.791
 2774TIP3    H1 8286   2.142   0.529   0.781
 2774TIP3    H2 8287   2.251   0.528   0.886
 2775TIP3   OH2 8288   4.457   3.597   0.515
 2775TIP3    H1 8289   4.395   3.525   0.524
 2775TIP3    H2 8290   4.490   3.590   0.425
 2776TIP3   OH2 8291   2.526   5.376   0.679
 2776TIP3    H1 8292   2.590   5.397   0.747
 2776TIP3    H2 8293   2.441   5.393   0.721
 2777TIP3   OH2 8294   2.857   5.399   4.100
 2777TIP3    H1 8295   2.900   5.374   4.182
 2777TIP3    H2 8296   2.766   5.413   4.124
 2778TIP3   OH2 8297   4.305   5.224   1.220
 2778TIP3    H1 8298   4.372   5.263   1.164
 2778TIP3    H2 8299   4.349   5.150   1.262
 2779TIP3   OH2 8300   3.691   4.858   0.861
 2779TIP3    H1 8301   3.605   4.896   0.880
 2779TIP3    H2 8302   3.671   4.773   0.820
 2780TIP3   OH2 8303   3.065   1.885   1.290
 2780TIP3    H1 8304   3.012   1.867   1.368
 2780TIP3    H2 8305   3.156   1.876   1.320
 2781TIP3   OH2 8306   4.197   4.059   5.489
 2781TIP3    H1 8307   4.288   4.070   5.517
 2781TIP3    H2 8308   4.202   3.990   5.422
 2782TIP3   OH2 8309   5.084   6.734   0.623
 2782TIP3    H1 8310   5.120   6.756   0.537
 2782TIP3    H2 8311   5.139   6.662   0.654
 2783TIP3   OH2 8312   4.982   4.758   2.367
 2783TIP3    H1 8313   4.974   4.851   2.385
 2783TIP3    H2 8314   4.922   4.742   2.294
 2784TIP3   OH2 8315   0.050   1.207   4.750
 2784TIP3    H1 8316   0.113   1.278   4.739
 2784TIP3    H2 8317   0.093   1.131   4.711
 2785TIP3   OH2 8318   2.375   2.017   2.701
 2785TIP3    H1 8319   2.297   2.052   2.744
 2785TIP3    H2 8320   2.409   1.951   2.762
 2786TIP3   OH2 8321   4.170   6.773   5.422
 2786TIP3    H1 8322   4.219   6.693   5.402
 2786TIP3    H2 8323   4.226   6.844   5.392
 2787TIP3   OH2 8324   6.966   5.351   4.100
 2787TIP3    H1 8325   6.963   5.350   4.004
 2787TIP3    H2 8326   7.056   5.325   4.121
 2788TIP3   OH2 8327   4.140   1.579   2.003
 2788TIP3    H1 8328   4.061   1.605   1.956
 2788TIP3    H2 8329   4.201   1.652   1.990
 2789TIP3   OH2 8330   5.989   4.102   2.302
 2789TIP3    H1 8331   6.017   4.172   2.242
 2789TIP3    H2 8332   5.894   4.102   2.296
 2790TIP3   OH2 8333   3.474   0.900   2.711
 2790TIP3    H1 8334   3.389   0.859   2.728
 2790TIP3    H2 8335   3.452   0.986   2.675
 2791TIP3   OH2 8336   2.514   6.805   5.414
 2791TIP3    H1 8337   2.507   6.773   5.504
 2791TIP3    H2 8338   2.602   6.842   5.408
 2792TIP3   OH2 8339   0.638   4.794   3.713
 2792TIP3    H1 8340   0.700   4.815   3.783
 2792TIP3    H2 8341   0.631   4.699   3.716
 2793TIP3   OH2 8342   1.222   2.312   0.412
 2793TIP3    H1 8343   1.214   2.385   0.350
 2793TIP3    H2 8344   1.136   2.308   0.454
 2794TIP3   OH2 8345   5.870   3.070   3.075
 2794TIP3    H1 8346   5.896   2.979   3.062
 2794TIP3    H2 8347   5.947   3.121   3.051
 2795TIP3   OH2 8348   4.788   1.388   0.963
 2795TIP3    H1 8349   4.861   1.451   0.966
 2795TIP3    H2 8350   4.773   1.365   1.054
 2796TIP3   OH2 8351   2.832   2.326   1.219
 2796TIP3    H1 8352   2.895   2.394   1.195
 2796TIP3    H2 8353   2.807   2.347   1.309
 2797TIP3   OH2 8354   1.153   0.204   5.076
 2797TIP3    H1 8355   1.163   0.109   5.074
 2797TIP3    H2 8356   1.200   0.235   4.998
 2798TIP3   OH2 8357   4.576   4.501   2.929
 2798TIP3    H1 8358   4.507   4.524   2.992
 2798TIP3    H2 8359   4.581   4.577   2.871
 2799TIP3   OH2 8360   1.818   4.188   3.974
 2799TIP3    H1 8361   1.894   4.141   3.939
 2799TIP3    H2 8362   1.792   4.137   4.051
 2800TIP3   OH2 8363   5.683   6.659   3.466
 2800TIP3    H1 8364   5.597   6.618   3.475
 2800TIP3    H2 8365   5.744   6.585   3.459
 2801TIP3   OH2 8366   5.368   6.744   3.286
 2801TIP3    H1 8367   5.322   6.787   3.214
 2801TIP3    H2 8368   5.329   6.657   3.291
 2802TIP3   OH2 8369   0.833   1.517   3.786
 2802TIP3    H1 8370   0.792   1.603   3.779
 2802TIP3    H2 8371   0.766   1.462   3.827
 2803TIP3   OH2 8372   1.221   0.893   4.590
 2803TIP3    H1 8373   1.267   0.809   4.588
 2803TIP3    H2 8374   1.243   0.935   4.507
 2804TIP3   OH2 8375   0.511   5.655   0.557
 2804TIP3    H1 8376   0.535   5.747   0.567
 2804TIP3    H2 8377   0.543   5.632   0.470
 2805TIP3   OH2 8378   1.337   3.521   3.590
 2805TIP3    H1 8379   1.386   3.590   3.635
 2805TIP3    H2 8380   1.404   3.460   3.559
 2806TIP3   OH2 8381   4.221   0.262   4.265
 2806TIP3    H1 8382   4.147   0.244   4.321
 2806TIP3    H2 8383   4.199   0.345   4.222
 2807TIP3   OH2 8384   2.589   1.604   0.061
 2807TIP3    H1 8385   2.574   1.676   0.000
 2807TIP3    H2 8386   2.621   1.646   0.141
 2808TIP3   OH2 8387   3.242   6.701   5.683
 2808TIP3    H1 8388   3.159   6.713   5.729
 2808TIP3    H2 8389   3.237   6.611   5.649
 2809TIP3   OH2 8390   0.322   3.208   3.027
 2809TIP3    H1 8391   0.305   3.251   3.111
 2809TIP3    H2 8392   0.325   3.280   2.964
 2810TIP3   OH2 8393   2.496   1.511   1.126
 2810TIP3    H1 8394   2.407   1.520   1.158
 2810TIP3    H2 8395   2.489   1.447   1.054
 2811TIP3   OH2 8396   0.312   4.920   2.032
 2811TIP3    H1 8397   0.341   4.841   2.077
 2811TIP3    H2 8398   0.287   4.980   2.103
 2812TIP3   OH2 8399   5.849   5.369   1.051
 2812TIP3    H1 8400   5.791   5.293   1.053
 2812TIP3    H2 8401   5.818   5.420   0.977
 2813TIP3   OH2 8402   6.676   2.869   4.658
 2813TIP3    H1 8403   6.736   2.939   4.683
 2813TIP3    H2 8404   6.697   2.796   4.717
 2814TIP3   OH2 8405   0.955   5.906   3.391
 2814TIP3    H1 8406   1.018   5.942   3.453
 2814TIP3    H2 8407   0.873   5.903   3.440
 2815TIP3   OH2 8408   0.488   4.888   4.254
 2815TIP3    H1 8409   0.398   4.915   4.271
 2815TIP3    H2 8410   0.513   4.939   4.176
 2816TIP3   OH2 8411   0.699   5.525   3.534
 2816TIP3    H1 8412   0.777   5.478   3.564
 2816TIP3    H2 8413   0.703   5.521   3.438
 2817TIP3   OH2 8414   6.072   2.863   2.433
 2817TIP3    H1 8415   5.991   2.891   2.390
 2817TIP3    H2 8416   6.142   2.891   2.374
 2818TIP3   OH2 8417   1.330   6.119   3.788
 2818TIP3    H1 8418   1.266   6.185   3.761
 2818TIP3    H2 8419   1.411   6.168   3.799
 2819TIP3   OH2 8420   3.108   4.702   2.336
 2819TIP3    H1 8421   3.154   4.784   2.349
 2819TIP3    H2 8422   3.069   4.709   2.249
 2820TIP3   OH2 8423   1.550   1.511   0.091
 2820TIP3    H1 8424   1.610   1.584   0.082
 2820TIP3    H2 8425   1.543   1.496   0.186
 2821TIP3   OH2 8426   2.299   2.222   3.744
 2821TIP3    H1 8427   2.254   2.162   3.803
 2821TIP3    H2 8428   2.374   2.254   3.795
 2822TIP3   OH2 8429   3.144   4.654   2.053
 2822TIP3    H1 8430   3.063   4.690   2.016
 2822TIP3    H2 8431   3.204   4.650   1.978
 2823TIP3   OH2 8432   0.133   4.761   2.276
 2823TIP3    H1 8433   0.106   4.849   2.303
 2823TIP3    H2 8434   0.228   4.765   2.272
 2824TIP3   OH2 8435   2.024   0.934   0.275
 2824TIP3    H1 8436   2.005   0.870   0.344
 2824TIP3    H2 8437   1.947   0.932   0.219
 2825TIP3   OH2 8438   2.327   5.142   1.574
 2825TIP3    H1 8439   2.268   5.166   1.502
 2825TIP3    H2 8440   2.275   5.157   1.653
 2826TIP3   OH2 8441   6.327   0.532   2.297
 2826TIP3    H1 8442   6.368   0.611   2.332
 2826TIP3    H2 8443   6.389   0.499   2.232
 2827TIP3   OH2 8444   5.632   4.681   4.817
 2827TIP3    H1 8445   5.619   4.717   4.729
 2827TIP3    H2 8446   5.680   4.599   4.803
 2828TIP3   OH2 8447   4.807   4.900   5.291
 2828TIP3    H1 8448   4.761   4.979   5.263
 2828TIP3    H2 8449   4.832   4.918   5.382
 2829TIP3   OH2 8450   3.448   5.006   0.873
 2829TIP3    H1 8451   3.411   5.019   0.960
 2829TIP3    H2 8452   3.399   4.932   0.837
 2830TIP3   OH2 8453   5.098   2.532   0.844
 2830TIP3    H1 8454   5.026   2.519   0.783
 2830TIP3    H2 8455   5.067   2.498   0.928
 2831TIP3   OH2 8456   6.474   1.117   1.014
 2831TIP3    H1 8457   6.539   1.175   0.977
 2831TIP3    H2 8458   6.455   1.153   1.100
 2832TIP3   OH2 8459   5.677   2.636   3.703
 2832TIP3    H1 8460   5.684   2.545   3.732
 2832TIP3    H2 8461   5.617   2.633   3.628
 2833TIP3   OH2 8462   4.081   6.056   1.378
 2833TIP3    H1 8463   4.150   5.997   1.348
 2833TIP3    H2 8464   4.085   6.051   1.474
 2834TIP3   OH2 8465   0.727   2.412   2.229
 2834TIP3    H1 8466   0.650   2.392   2.283
 2834TIP3    H2 8467   0.785   2.461   2.287
 2835TIP3   OH2 8468   5.284   2.957   5.754
 2835TIP3    H1 8469   5.232   2.898   5.809
 2835TIP3    H2 8470   5.244   3.043   5.766
 2836TIP3   OH2 8471   2.321   3.405   0.579
 2836TIP3    H1 8472   2.415   3.420   0.566
 2836TIP3    H2 8473   2.307   3.425   0.671
 2837TIP3   OH2 8474   5.166   4.261   4.988
 2837TIP3    H1 8475   5.081   4.297   5.014
 2837TIP3    H2 8476   5.150   4.223   4.902
 2838TIP3   OH2 8477   3.539   3.208   4.919
 2838TIP3    H1 8478   3.511   3.291   4.958
 2838TIP3    H2 8479   3.564   3.230   4.829
 2839TIP3   OH2 8480   2.505   4.514   4.137
 2839TIP3    H1 8481   2.548   4.483   4.057
 2839TIP3    H2 8482   2.444   4.581   4.107
 2840TIP3   OH2 8483   0.678   3.464   2.237
 2840TIP3    H1 8484   0.687   3.553   2.272
 2840TIP3    H2 8485   0.762   3.423   2.255
 2841TIP3   OH2 8486   4.815   0.667   3.228
 2841TIP3    H1 8487   4.827   0.757   3.259
 2841TIP3    H2 8488   4.827   0.673   3.133
 2842TIP3   OH2 8489   1.368   1.233   4.966
 2842TIP3    H1 8490   1.327   1.236   5.052
 2842TIP3    H2 8491   1.308   1.181   4.913
 2843TIP3   OH2 8492   3.198   4.319   2.644
 2843TIP3    H1 8493   3.174   4.355   2.558
 2843TIP3    H2 8494   3.189   4.224   2.634
 2844TIP3   OH2 8495   5.504   6.427   2.585
 2844TIP3    H1 8496   5.512   6.522   2.571
 2844TIP3    H2 8497   5.570   6.408   2.652
 2845TIP3   OH2 8498   4.459   1.700   3.857
 2845TIP3    H1 8499   4.392   1.768   3.859
 2845TIP3    H2 8500   4.436   1.645   3.782
 2846TIP3   OH2 8501   1.573   5.121   0.179
 2846TIP3    H1 8502   1.510   5.053   0.154
 2846TIP3    H2 8503   1.657   5.089   0.145
 2847TIP3   OH2 8504   5.313   0.962   0.428
 2847TIP3    H1 8505   5.227   0.930   0.403
 2847TIP3    H2 8506   5.323   1.044   0.380
 2848TIP3   OH2 8507   5.864   0.539   4.854
 2848TIP3    H1 8508   5.860   0.461   4.908
 2848TIP3    H2 8509   5.950   0.578   4.873
 2849TIP3   OH2 8510   6.319   3.296   4.287
 2849TIP3    H1 8511   6.301   3.309   4.193
 2849TIP3    H2 8512   6.402   3.250   4.289
 2850TIP3   OH2 8513   2.798   3.687   3.069
 2850TIP3    H1 8514   2.848   3.682   3.150
 2850TIP3    H2 8515   2.856   3.651   3.003
 2851TIP3   OH2 8516   4.670   3.021   4.691
 2851TIP3    H1 8517   4.641   3.017   4.782
 2851TIP3    H2 8518   4.607   2.967   4.643
 2852TIP3   OH2 8519   4.167   3.049   5.365
 2852TIP3    H1 8520   4.147   2.966   5.320
 2852TIP3    H2 8521   4.262   3.048   5.376
 2853TIP3   OH2 8522   0.746   0.830   3.851
 2853TIP3    H1 8523   0.674   0.887   3.877
 2853TIP3    H2 8524   0.818   0.889   3.831
 2854TIP3   OH2 8525   0.826   2.614   2.014
 2854TIP3    H1 8526   0.774   2.581   2.087
 2854TIP3    H2 8527   0.769   2.678   1.971
 2855TIP3   OH2 8528   5.152   1.455   1.444
 2855TIP3    H1 8529   5.091   1.453   1.370
 2855TIP3    H2 8530   5.209   1.380   1.430
 2856TIP3   OH2 8531   2.412   2.583   2.281
 2856TIP3    H1 8532   2.322   2.611   2.265
 2856TIP3    H2 8533   2.466   2.660   2.262
 2857TIP3   OH2 8534   1.467   4.055   5.396
 2857TIP3    H1 8535   1.429   4.090   5.316
 2857TIP3    H2 8536   1.453   4.123   5.461
 2858TIP3   OH2 8537   3.917   2.096   2.508
 2858TIP3    H1 8538   3.836   2.138   2.536
 2858TIP3    H2 8539   3.916   2.101   2.412
 2859TIP3   OH2 8540   6.782   1.249   1.829
 2859TIP3    H1 8541   6.830   1.326   1.860
 2859TIP3    H2 8542   6.782   1.189   1.903
 2860TIP3   OH2 8543   2.061   4.818   4.195
 2860TIP3    H1 8544   2.120   4.881   4.236
 2860TIP3    H2 8545   2.081   4.735   4.239
 2861TIP3   OH2 8546   6.214   6.370   4.317
 2861TIP3    H1 8547   6.201   6.283   4.280
 2861TIP3    H2 8548   6.286   6.408   4.267
 2862TIP3   OH2 8549   3.561   4.593   0.018
 2862TIP3    H1 8550   3.557   4.617   0.111
 2862TIP3    H2 8551   3.653   4.603  -0.006
 2863TIP3   OH2 8552   2.605   4.523   5.104
 2863TIP3    H1 8553   2.531   4.544   5.162
 2863TIP3    H2 8554   2.682   4.555   5.151
 2864TIP3   OH2 8555   1.927   1.684   5.503
 2864TIP3    H1 8556   1.841   1.675   5.545
 2864TIP3    H2 8557   1.959   1.594   5.495
 2865TIP3   OH2 8558   1.415   3.375   1.986
 2865TIP3    H1 8559   1.323   3.367   1.962
 2865TIP3    H2 8560   1.451   3.287   1.973
 2866TIP3   OH2 8561   6.277   1.227   3.678
 2866TIP3    H1 8562   6.230   1.267   3.604
 2866TIP3    H2 8563   6.208   1.195   3.735
 2867TIP3   OH2 8564   6.173   0.017   5.172
 2867TIP3    H1 8565   6.198  -0.074   5.189
 2867TIP3    H2 8566   6.255   0.065   5.173
 2868TIP3   OH2 8567   6.523   5.508   4.999
 2868TIP3    H1 8568   6.511   5.473   4.910
 2868TIP3    H2 8569   6.551   5.598   4.985
 2869TIP3   OH2 8570   1.626   0.935   5.775
 2869TIP3    H1 8571   1.682   0.954   5.850
 2869TIP3    H2 8572   1.546   0.899   5.814
 2870TIP3   OH2 8573   4.782   3.032   1.083
 2870TIP3    H1 8574   4.829   3.101   1.130
 2870TIP3    H2 8575   4.819   2.951   1.116
 2871TIP3   OH2 8576   5.759   6.157   4.041
 2871TIP3    H1 8577   5.834   6.122   3.993
 2871TIP3    H2 8578   5.731   6.233   3.991
 2872TIP3   OH2 8579   0.689   3.870   2.777
 2872TIP3    H1 8580   0.744   3.941   2.744
 2872TIP3    H2 8581   0.738   3.836   2.853
 2873TIP3   OH2 8582   4.973   2.009   2.736
 2873TIP3    H1 8583   4.896   2.051   2.773
 2873TIP3    H2 8584   4.999   2.068   2.664
 2874TIP3   OH2 8585   1.197   5.632   2.786
 2874TIP3    H1 8586   1.245   5.680   2.718
 2874TIP3    H2 8587   1.171   5.550   2.744
 2875TIP3   OH2 8588   2.562   4.105   2.761
 2875TIP3    H1 8589   2.625   4.098   2.689
 2875TIP3    H2 8590   2.548   4.015   2.790
 2876TIP3   OH2 8591   4.232   6.655   1.462
 2876TIP3    H1 8592   4.159   6.603   1.428
 2876TIP3    H2 8593   4.219   6.742   1.425
 2877TIP3   OH2 8594   2.570   5.824   4.848
 2877TIP3    H1 8595   2.593   5.804   4.938
 2877TIP3    H2 8596   2.543   5.916   4.850
 2878TIP3   OH2 8597   5.003   6.706   1.574
 2878TIP3    H1 8598   4.961   6.633   1.619
 2878TIP3    H2 8599   5.040   6.667   1.495
 2879TIP3   OH2 8600   5.949   0.421   0.316
 2879TIP3    H1 8601   5.910   0.390   0.234
 2879TIP3    H2 8602   6.022   0.361   0.332
 2880TIP3   OH2 8603   4.540   3.459   5.268
 2880TIP3    H1 8604   4.556   3.414   5.350
 2880TIP3    H2 8605   4.453   3.499   5.279
 2881TIP3   OH2 8606   3.690   5.514   0.246
 2881TIP3    H1 8607   3.783   5.519   0.272
 2881TIP3    H2 8608   3.658   5.436   0.290
 2882TIP3   OH2 8609   4.919   0.310   3.261
 2882TIP3    H1 8610   4.864   0.247   3.308
 2882TIP3    H2 8611   4.927   0.384   3.321
 2883TIP3   OH2 8612   2.558   3.437   3.346
 2883TIP3    H1 8613   2.555   3.342   3.337
 2883TIP3    H2 8614   2.641   3.454   3.390
 2884TIP3   OH2 8615   0.243   5.621   5.717
 2884TIP3    H1 8616   0.257   5.715   5.730
 2884TIP3    H2 8617   0.269   5.581   5.800
 2885TIP3   OH2 8618   4.512   5.788   5.316
 2885TIP3    H1 8619   4.438   5.775   5.375
 2885TIP3    H2 8620   4.503   5.879   5.287
 2886TIP3   OH2 8621   6.725   0.906   2.217
 2886TIP3    H1 8622   6.656   0.875   2.276
 2886TIP3    H2 8623   6.798   0.929   2.274
 2887TIP3   OH2 8624   1.613   4.248   3.484
 2887TIP3    H1 8625   1.685   4.311   3.486
 2887TIP3    H2 8626   1.534   4.301   3.470
 2888TIP3   OH2 8627   0.385   3.376   3.758
 2888TIP3    H1 8628   0.419   3.292   3.789
 2888TIP3    H2 8629   0.444   3.401   3.687
 2889TIP3   OH2 8630   6.169   2.256   4.261
 2889TIP3    H1 8631   6.216   2.339   4.251
 2889TIP3    H2 8632   6.236   2.194   4.290
 2890TIP3   OH2 8633   3.824   2.051   1.986
 2890TIP3    H1 8634   3.835   2.142   2.016
 2890TIP3    H2 8635   3.818   2.059   1.891
 2891TIP3   OH2 8636   1.688   3.966   3.441
 2891TIP3    H1 8637   1.661   4.058   3.453
 2891TIP3    H2 8638   1.616   3.928   3.390
 2892TIP3   OH2 8639   6.963   2.667   0.568
 2892TIP3    H1 8640   6.956   2.582   0.611
 2892TIP3    H2 8641   6.940   2.649   0.477
 2893TIP3   OH2 8642   6.735   0.958   4.450
 2893TIP3    H1 8643   6.657   0.974   4.396
 2893TIP3    H2 8644   6.702   0.911   4.526
 2894TIP3   OH2 8645   6.897   4.370   5.055
 2894TIP3    H1 8646   6.977   4.405   5.096
 2894TIP3    H2 8647   6.840   4.446   5.045
 2895TIP3   OH2 8648   4.513   5.292   0.633
 2895TIP3    H1 8649   4.485   5.344   0.558
 2895TIP3    H2 8650   4.533   5.356   0.701
 2896TIP3   OH2 8651   3.202   6.257   4.046
 2896TIP3    H1 8652   3.170   6.341   4.013
 2896TIP3    H2 8653   3.123   6.211   4.073
 2897TIP3   OH2 8654   1.448   4.539   0.341
 2897TIP3    H1 8655   1.415   4.450   0.354
 2897TIP3    H2 8656   1.515   4.530   0.272
 2898TIP3   OH2 8657   3.223   0.821   2.778
 2898TIP3    H1 8658   3.194   0.838   2.688
 2898TIP3    H2 8659   3.142   0.815   2.829
 2899TIP3   OH2 8660   6.439   1.818   5.008
 2899TIP3    H1 8661   6.386   1.870   4.947
 2899TIP3    H2 8662   6.420   1.855   5.094
 2900TIP3   OH2 8663   4.664   6.387   4.510
 2900TIP3    H1 8664   4.651   6.480   4.493
 2900TIP3    H2 8665   4.657   6.378   4.605
 2901TIP3   OH2 8666   3.094   5.611   2.102
 2901TIP3    H1 8667   3.106   5.516   2.096
 2901TIP3    H2 8668   3.128   5.645   2.020
 2902TIP3   OH2 8669   5.112   4.487   4.783
 2902TIP3    H1 8670   5.133   4.460   4.872
 2902TIP3    H2 8671   5.195   4.520   4.747
 2903TIP3   OH2 8672   7.051   0.983   3.406
 2903TIP3    H1 8673   6.957   0.995   3.393
 2903TIP3    H2 8674   7.063   0.987   3.501
 2904TIP3   OH2 8675   4.634   5.053   1.722
 2904TIP3    H1 8676   4.692   5.128   1.710
 2904TIP3    H2 8677   4.607   5.030   1.634
 2905TIP3   OH2 8678   6.435   2.808   5.863
 2905TIP3    H1 8679   6.486   2.880   5.900
 2905TIP3    H2 8680   6.353   2.849   5.835
 2906TIP3   OH2 8681   5.498   3.348   1.913
 2906TIP3    H1 8682   5.430   3.344   1.980
 2906TIP3    H2 8683   5.543   3.264   1.920
 2907TIP3   OH2 8684   0.983   0.787   4.181
 2907TIP3    H1 8685   0.958   0.861   4.126
 2907TIP3    H2 8686   0.953   0.710   4.133
 2908TIP3   OH2 8687   2.791   3.524   3.424
 2908TIP3    H1 8688   2.814   3.617   3.426
 2908TIP3    H2 8689   2.869   3.480   3.460
 2909TIP3   OH2 8690   5.574   0.339   0.691
 2909TIP3    H1 8691   5.566   0.265   0.630
 2909TIP3    H2 8692   5.542   0.305   0.774
 2910TIP3   OH2 8693   3.643   5.608   5.073
 2910TIP3    H1 8694   3.568   5.550   5.061
 2910TIP3    H2 8695   3.650   5.619   5.168
 2911TIP3   OH2 8696   6.476   6.076   2.643
 2911TIP3    H1 8697   6.520   6.108   2.722
 2911TIP3    H2 8698   6.511   5.988   2.631
 2912TIP3   OH2 8699   6.083   1.480   1.645
 2912TIP3    H1 8700   6.076   1.449   1.735
 2912TIP3    H2 8701   6.040   1.412   1.593
 2913TIP3   OH2 8702   4.043   6.647   5.167
 2913TIP3    H1 8703   4.019   6.570   5.116
 2913TIP3    H2 8704   4.093   6.701   5.106
 2914TIP3   OH2 8705   2.563   4.465   0.056
 2914TIP3    H1 8706   2.522   4.546   0.087
 2914TIP3    H2 8707   2.489   4.407   0.037
 2915TIP3   OH2 8708   6.146   2.516   1.273
 2915TIP3    H1 8709   6.190   2.437   1.243
 2915TIP3    H2 8710   6.111   2.556   1.193
 2916TIP3   OH2 8711   5.928   4.574   5.424
 2916TIP3    H1 8712   5.833   4.582   5.419
 2916TIP3    H2 8713   5.958   4.581   5.333
 2917TIP3   OH2 8714   6.776   5.085   5.345
 2917TIP3    H1 8715   6.699   5.039   5.376
 2917TIP3    H2 8716   6.842   5.072   5.413
 2918TIP3   OH2 8717   0.168   5.133   4.345
 2918TIP3    H1 8718   0.126   5.192   4.282
 2918TIP3    H2 8719   0.218   5.191   4.402
 2919TIP3   OH2 8720   0.615   0.243   3.666
 2919TIP3    H1 8721   0.609   0.212   3.575
 2919TIP3    H2 8722   0.525   0.236   3.699
 2920TIP3   OH2 8723   1.800   2.491   4.878
 2920TIP3    H1 8724   1.874   2.451   4.923
 2920TIP3    H2 8725   1.840   2.540   4.806
 2921TIP3   OH2 8726   2.814   5.896   1.294
 2921TIP3    H1 8727   2.839   5.980   1.331
 2921TIP3    H2 8728   2.851   5.831   1.354
 2922TIP3   OH2 8729   5.426   1.606   2.760
 2922TIP3    H1 8730   5.514   1.590   2.726
 2922TIP3    H2 8731   5.408   1.697   2.738
 2923TIP3   OH2 8732   6.638   4.924   1.986
 2923TIP3    H1 8733   6.640   4.975   2.066
 2923TIP3    H2 8734   6.580   4.973   1.928
 2924TIP3   OH2 8735   5.197   6.483   0.964
 2924TIP3    H1 8736   5.184   6.548   1.033
 2924TIP3    H2 8737   5.185   6.399   1.008
 2925TIP3   OH2 8738   1.687   6.040   2.221
 2925TIP3    H1 8739   1.591   6.030   2.217
 2925TIP3    H2 8740   1.701   6.101   2.293
 2926TIP3   OH2 8741   5.090   5.877   4.725
 2926TIP3    H1 8742   5.106   5.969   4.749
 2926TIP3    H2 8743   5.021   5.881   4.659
 2927TIP3   OH2 8744   3.163   3.687   3.787
 2927TIP3    H1 8745   3.257   3.705   3.777
 2927TIP3    H2 8746   3.156   3.647   3.873
 2928TIP3   OH2 8747   5.434   4.695   1.525
 2928TIP3    H1 8748   5.510   4.706   1.583
 2928TIP3    H2 8749   5.369   4.758   1.559
 2929TIP3   OH2 8750   1.581   0.091   4.998
 2929TIP3    H1 8751   1.547   0.002   5.007
 2929TIP3    H2 8752   1.587   0.124   5.087
 2930TIP3   OH2 8753   3.611   2.048   0.059
 2930TIP3    H1 8754   3.642   2.136   0.035
 2930TIP3    H2 8755   3.521   2.060   0.087
 2931TIP3   OH2 8756   1.022   1.704   5.699
 2931TIP3    H1 8757   0.995   1.633   5.639
 2931TIP3    H2 8758   1.114   1.686   5.718
 2932TIP3   OH2 8759   3.043   1.629   2.903
 2932TIP3    H1 8760   2.973   1.577   2.863
 2932TIP3    H2 8761   3.114   1.567   2.915
 2933TIP3   OH2 8762   2.287   5.636   1.462
 2933TIP3    H1 8763   2.292   5.604   1.552
 2933TIP3    H2 8764   2.272   5.730   1.470
 2934TIP3   OH2 8765   5.937   1.389   2.997
 2934TIP3    H1 8766   6.027   1.395   3.029
 2934TIP3    H2 8767   5.936   1.309   2.945
 2935TIP3   OH2 8768   5.208   6.800   0.368
 2935TIP3    H1 8769   5.247   6.875   0.413
 2935TIP3    H2 8770   5.282   6.740   0.354
 2936TIP3   OH2 8771   3.019   0.262   4.262
 2936TIP3    H1 8772   2.935   0.254   4.307
 2936TIP3    H2 8773   3.021   0.353   4.233
 2937TIP3   OH2 8774   0.513   1.128   3.356
 2937TIP3    H1 8775   0.424   1.156   3.336
 2937TIP3    H2 8776   0.550   1.103   3.272
 2938TIP3   OH2 8777   3.151   2.054   3.316
 2938TIP3    H1 8778   3.065   2.043   3.276
 2938TIP3    H2 8779   3.202   2.101   3.249
 2939TIP3   OH2 8780   2.424   3.572   4.248
 2939TIP3    H1 8781   2.402   3.505   4.312
 2939TIP3    H2 8782   2.480   3.633   4.296
 2940TIP3   OH2 8783   3.169   0.572   0.576
 2940TIP3    H1 8784   3.137   0.657   0.605
 2940TIP3    H2 8785   3.255   0.563   0.617
 2941TIP3   OH2 8786   5.117   2.341   5.518
 2941TIP3    H1 8787   5.198   2.391   5.526
 2941TIP3    H2 8788   5.134   2.261   5.569
 2942TIP3   OH2 8789   1.699   5.411   0.628
 2942TIP3    H1 8790   1.651   5.482   0.672
 2942TIP3    H2 8791   1.791   5.436   0.634
 2943TIP3   OH2 8792   2.607   4.164   3.973
 2943TIP3    H1 8793   2.677   4.099   3.980
 2943TIP3    H2 8794   2.652   4.246   3.953
 2944TIP3   OH2 8795   6.025   4.135   5.379
 2944TIP3    H1 8796   6.077   4.060   5.406
 2944TIP3    H2 8797   6.057   4.208   5.432
 2945TIP3   OH2 8798   4.200   2.394   5.652
 2945TIP3    H1 8799   4.176   2.324   5.591
 2945TIP3    H2 8800   4.118   2.439   5.671
 2946TIP3   OH2 8801   5.632   1.650   4.420
 2946TIP3    H1 8802   5.650   1.596   4.497
 2946TIP3    H2 8803   5.710   1.642   4.366
 2947TIP3   OH2 8804   0.392   3.834   3.723
 2947TIP3    H1 8805   0.434   3.814   3.806
 2947TIP3    H2 8806   0.332   3.906   3.743
 2948TIP3   OH2 8807   0.933   6.738   4.827
 2948TIP3    H1 8808   0.992   6.813   4.824
 2948TIP3    H2 8809   0.846   6.777   4.836
 2949TIP3   OH2 8810   6.308   4.922   1.412
 2949TIP3    H1 8811   6.377   4.923   1.479
 2949TIP3    H2 8812   6.228   4.948   1.460
 2950TIP3   OH2 8813   3.492   2.278   3.881
 2950TIP3    H1 8814   3.443   2.350   3.840
 2950TIP3    H2 8815   3.461   2.276   3.971
 2951TIP3   OH2 8816   0.535   5.161   2.620
 2951TIP3    H1 8817   0.540   5.089   2.558
 2951TIP3    H2 8818   0.622   5.164   2.660
 2952TIP3   OH2 8819   2.743   0.571   2.662
 2952TIP3    H1 8820   2.808   0.537   2.724
 2952TIP3    H2 8821   2.794   0.626   2.602
 2953TIP3   OH2 8822   2.488   0.608   2.076
 2953TIP3    H1 8823   2.573   0.611   2.031
 2953TIP3    H2 8824   2.424   0.596   2.006
 2954TIP3   OH2 8825   0.735   4.999   1.558
 2954TIP3    H1 8826   0.649   5.040   1.558
 2954TIP3    H2 8827   0.718   4.908   1.533
 2955TIP3   OH2 8828   6.379   2.086   4.363
 2955TIP3    H1 8829   6.462   2.083   4.316
 2955TIP3    H2 8830   6.398   2.043   4.447
 2956TIP3   OH2 8831   2.326   3.639   1.159
 2956TIP3    H1 8832   2.306   3.683   1.076
 2956TIP3    H2 8833   2.241   3.627   1.200
 2957TIP3   OH2 8834   2.361   1.863   1.609
 2957TIP3    H1 8835   2.362   1.930   1.678
 2957TIP3    H2 8836   2.307   1.901   1.540
 2958TIP3   OH2 8837   5.777   1.269   0.135
 2958TIP3    H1 8838   5.718   1.341   0.112
 2958TIP3    H2 8839   5.732   1.222   0.206
 2959TIP3   OH2 8840   5.501   0.333   4.152
 2959TIP3    H1 8841   5.541   0.420   4.140
 2959TIP3    H2 8842   5.426   0.333   4.093
 2960TIP3   OH2 8843   5.027   5.041   1.840
 2960TIP3    H1 8844   4.984   5.104   1.781
 2960TIP3    H2 8845   4.982   4.958   1.823
 2961TIP3   OH2 8846   6.794   1.429   2.175
 2961TIP3    H1 8847   6.874   1.381   2.199
 2961TIP3    H2 8848   6.808   1.454   2.084
 2962TIP3   OH2 8849   6.292   1.631   0.509
 2962TIP3    H1 8850   6.366   1.621   0.449
 2962TIP3    H2 8851   6.215   1.628   0.453
 2963TIP3   OH2 8852   4.693   3.744   3.783
 2963TIP3    H1 8853   4.646   3.780   3.858
 2963TIP3    H2 8854   4.632   3.750   3.710
 2964TIP3   OH2 8855   3.605   1.439   5.543
 2964TIP3    H1 8856   3.535   1.460   5.482
 2964TIP3    H2 8857   3.671   1.507   5.529
 2965TIP3   OH2 8858   3.621   1.167   3.086
 2965TIP3    H1 8859   3.579   1.229   3.026
 2965TIP3    H2 8860   3.631   1.087   3.035
 2966TIP3   OH2 8861   0.910   1.254   1.825
 2966TIP3    H1 8862   0.883   1.343   1.848
 2966TIP3    H2 8863   0.971   1.265   1.752
 2967TIP3   OH2 8864   5.385   0.286   5.028
 2967TIP3    H1 8865   5.437   0.298   4.949
 2967TIP3    H2 8866   5.305   0.243   4.998
 2968TIP3   OH2 8867   3.395   3.957   3.188
 2968TIP3    H1 8868   3.348   4.041   3.188
 2968TIP3    H2 8869   3.356   3.908   3.116
 2969TIP3   OH2 8870   6.092   1.527   4.162
 2969TIP3    H1 8871   6.108   1.468   4.087
 2969TIP3    H2 8872   6.108   1.615   4.126
 2970TIP3   OH2 8873   0.856   4.418   3.613
 2970TIP3    H1 8874   0.845   4.343   3.672
 2970TIP3    H2 8875   0.798   4.485   3.649
 2971TIP3   OH2 8876   0.167   5.729   0.606
 2971TIP3    H1 8877   0.082   5.763   0.635
 2971TIP3    H2 8878   0.230   5.767   0.666
 2972TIP3   OH2 8879   2.006   6.056   2.743
 2972TIP3    H1 8880   2.065   6.071   2.669
 2972TIP3    H2 8881   2.012   5.962   2.759
 2973TIP3   OH2 8882   1.034   1.821   4.415
 2973TIP3    H1 8883   1.021   1.811   4.321
 2973TIP3    H2 8884   0.993   1.744   4.453
 2974TIP3   OH2 8885   3.623   2.046   3.435
 2974TIP3    H1 8886   3.629   1.951   3.428
 2974TIP3    H2 8887   3.579   2.073   3.354
 2975TIP3   OH2 8888   5.578   0.524   0.396
 2975TIP3    H1 8889   5.592   0.432   0.421
 2975TIP3    H2 8890   5.525   0.560   0.467
 2976TIP3   OH2 8891   1.138   5.006   0.858
 2976TIP3    H1 8892   1.211   5.056   0.821
 2976TIP3    H2 8893   1.119   5.050   0.941
 2977TIP3   OH2 8894   2.209   5.802   4.214
 2977TIP3    H1 8895   2.150   5.732   4.242
 2977TIP3    H2 8896   2.154   5.880   4.208
 2978TIP3   OH2 8897   6.534   6.117   0.884
 2978TIP3    H1 8898   6.455   6.104   0.936
 2978TIP3    H2 8899   6.503   6.159   0.804
 2979TIP3   OH2 8900   0.356   5.084   2.269
 2979TIP3    H1 8901   0.345   5.179   2.269
 2979TIP3    H2 8902   0.346   5.060   2.361
 2980TIP3   OH2 8903   6.967   2.855   2.879
 2980TIP3    H1 8904   7.057   2.841   2.849
 2980TIP3    H2 8905   6.914   2.796   2.826
 2981TIP3   OH2 8906   6.803   5.286   4.305
 2981TIP3    H1 8907   6.861   5.318   4.235
 2981TIP3    H2 8908   6.715   5.305   4.273
 2982TIP3   OH2 8909   7.097   6.752   4.834
 2982TIP3    H1 8910   7.011   6.713   4.817
 2982TIP3    H2 8911   7.159   6.680   4.822
 2983TIP3   OH2 8912   0.227   1.337   1.871
 2983TIP3    H1 8913   0.175   1.257   1.861
 2983TIP3    H2 8914   0.304   1.309   1.921
 2984TIP3   OH2 8915   4.419   5.056   3.785
 2984TIP3    H1 8916   4.376   5.002   3.851
 2984TIP3    H2 8917   4.496   5.091   3.830
 2985TIP3   OH2 8918   5.134   5.564   0.454
 2985TIP3    H1 8919   5.214   5.587   0.409
 2985TIP3    H2 8920   5.163   5.518   0.533
 2986TIP3   OH2 8921   0.199   1.022   0.665
 2986TIP3    H1 8922   0.140   1.089   0.630
 2986TIP3    H2 8923   0.162   0.939   0.635
 2987TIP3   OH2 8924   6.686   0.196   2.520
 2987TIP3    H1 8925   6.744   0.222   2.449
 2987TIP3    H2 8926   6.600   0.229   2.494
 2988TIP3   OH2 8927   3.291   2.157   5.245
 2988TIP3    H1 8928   3.381   2.162   5.277
 2988TIP3    H2 8929   3.282   2.232   5.187
 2989TIP3   OH2 8930   3.904   6.769   3.482
 2989TIP3    H1 8931   3.832   6.744   3.540
 2989TIP3    H2 8932   3.871   6.753   3.394
 2990TIP3   OH2 8933   2.852   1.884   1.888
 2990TIP3    H1 8934   2.895   1.803   1.861
 2990TIP3    H2 8935   2.812   1.917   1.808
 2991TIP3   OH2 8936   0.591   4.007   4.281
 2991TIP3    H1 8937   0.636   4.084   4.315
 2991TIP3    H2 8938   0.555   3.964   4.359
 2992TIP3   OH2 8939   0.530   4.783   5.145
 2992TIP3    H1 8940   0.488   4.759   5.063
 2992TIP3    H2 8941   0.499   4.717   5.208
 2993TIP3   OH2 8942   5.178   2.424   3.463
 2993TIP3    H1 8943   5.184   2.363   3.537
 2993TIP3    H2 8944   5.194   2.510   3.502
 2994TIP3   OH2 8945   4.245   5.577   2.955
 2994TIP3    H1 8946   4.176   5.525   2.915
 2994TIP3    H2 8947   4.258   5.538   3.042
 2995TIP3   OH2 8948   1.889   2.521   4.527
 2995TIP3    H1 8949   1.833   2.481   4.460
 2995TIP3    H2 8950   1.967   2.549   4.479
 2996TIP3   OH2 8951   2.100   0.732   2.283
 2996TIP3    H1 8952   2.164   0.702   2.348
 2996TIP3    H2 8953   2.150   0.789   2.224
 2997TIP3   OH2 8954   3.219   4.840   5.715
 2997TIP3    H1 8955   3.219   4.744   5.719
 2997TIP3    H2 8956   3.280   4.861   5.644
 2998TIP3   OH2 8957   2.693   1.567   1.930
 2998TIP3    H1 8958   2.674   1.508   1.856
 2998TIP3    H2 8959   2.633   1.640   1.918
 2999TIP3   OH2 8960   1.531   2.169   2.558
 2999TIP3    H1 8961   1.469   2.225   2.513
 2999TIP3    H2 8962   1.476   2.107   2.606
 3000TIP3   OH2 8963   4.542   3.836   3.580
 3000TIP3    H1 8964   4.617   3.880   3.540
 3000TIP3    H2 8965   4.492   3.907   3.621
 3001TIP3   OH2 8966   5.210   2.179   1.431
 3001TIP3    H1 8967   5.213   2.216   1.519
 3001TIP3    H2 8968   5.171   2.092   1.443
 3002TIP3   OH2 8969   2.623   1.725   3.250
 3002TIP3    H1 8970   2.565   1.671   3.197
 3002TIP3    H2 8971   2.699   1.742   3.194
 3003TIP3   OH2 8972   5.828   2.549   4.705
 3003TIP3    H1 8973   5.865   2.636   4.693
 3003TIP3    H2 8974   5.803   2.520   4.617
 3004TIP3   OH2 8975   2.400   3.638   3.988
 3004TIP3    H1 8976   2.482   3.685   3.973
 3004TIP3    H2 8977   2.396   3.626   4.083
 3005TIP3   OH2 8978   1.403   5.080   0.733
 3005TIP3    H1 8979   1.416   5.131   0.653
 3005TIP3    H2 8980   1.473   5.014   0.731
 3006TIP3   OH2 8981   5.261   4.884   3.182
 3006TIP3    H1 8982   5.259   4.919   3.270
 3006TIP3    H2 8983   5.172   4.853   3.166
 3007TIP3   OH2 8984   3.953   3.542   5.211
 3007TIP3    H1 8985   3.890   3.517   5.145
 3007TIP3    H2 8986   4.038   3.522   5.172
 3008TIP3   OH2 8987   7.216   1.898   2.114
 3008TIP3    H1 8988   7.202   1.932   2.202
 3008TIP3    H2 8989   7.181   1.966   2.056
 3009TIP3   OH2 8990   0.295   6.338   1.009
 3009TIP3    H1 8991   0.354   6.373   0.942
 3009TIP3    H2 8992   0.273   6.250   0.979
 3010TIP3   OH2 8993   5.736   6.100   5.584
 3010TIP3    H1 8994   5.716   6.193   5.579
 3010TIP3    H2 8995   5.652   6.059   5.608
 3011TIP3   OH2 8996   3.846   6.743   1.269
 3011TIP3    H1 8997   3.892   6.804   1.326
 3011TIP3    H2 8998   3.757   6.777   1.264
 3012TIP3   OH2 8999   6.801   2.916   1.227
 3012TIP3    H1 9000   6.789   2.970   1.149
 3012TIP3    H2 9001   6.720   2.866   1.234
 3013TIP3   OH2 9002   3.269   0.253   5.385
 3013TIP3    H1 9003   3.362   0.271   5.391
 3013TIP3    H2 9004   3.231   0.334   5.350
 3014TIP3   OH2 9005   5.787   1.384   4.250
 3014TIP3    H1 9006   5.705   1.359   4.208
 3014TIP3    H2 9007   5.793   1.328   4.328
 3015TIP3   OH2 9008   3.371   0.445   4.704
 3015TIP3    H1 9009   3.276   0.453   4.718
 3015TIP3    H2 9010   3.379   0.376   4.639
 3016TIP3   OH2 9011   3.138   0.275   1.626
 3016TIP3    H1 9012   3.226   0.299   1.599
 3016TIP3    H2 9013   3.150   0.214   1.699
 3017TIP3   OH2 9014   6.520   2.816   5.585
 3017TIP3    H1 9015   6.614   2.824   5.600
 3017TIP3    H2 9016   6.484   2.797   5.671
 3018TIP3   OH2 9017   3.910   6.270   4.668
 3018TIP3    H1 9018   3.885   6.193   4.618
 3018TIP3    H2 9019   3.864   6.343   4.625
 3019TIP3   OH2 9020   6.300   5.597   4.122
 3019TIP3    H1 9021   6.387   5.623   4.151
 3019TIP3    H2 9022   6.241   5.630   4.190
 3020TIP3   OH2 9023   6.648   4.617   2.421
 3020TIP3    H1 9024   6.658   4.523   2.403
 3020TIP3    H2 9025   6.580   4.645   2.360
 3021TIP3   OH2 9026   1.043   5.674   4.162
 3021TIP3    H1 9027   0.960   5.721   4.170
 3021TIP3    H2 9028   1.029   5.593   4.211
 3022TIP3   OH2 9029   5.218   4.858   4.051
 3022TIP3    H1 9030   5.131   4.857   4.090
 3022TIP3    H2 9031   5.268   4.918   4.108
 3023TIP3   OH2 9032   0.081   5.211   4.729
 3023TIP3    H1 9033   0.115   5.282   4.784
 3023TIP3    H2 9034  -0.013   5.228   4.723
 3024TIP3   OH2 9035   1.200   2.919   5.299
 3024TIP3    H1 9036   1.219   2.984   5.367
 3024TIP3    H2 9037   1.257   2.943   5.227
 3025TIP3   OH2 9038   5.504   0.452   4.569
 3025TIP3    H1 9039   5.495   0.374   4.515
 3025TIP3    H2 9040   5.598   0.470   4.571
 3026TIP3   OH2 9041   1.788   4.756   1.202
 3026TIP3    H1 9042   1.741   4.832   1.237
 3026TIP3    H2 9043   1.771   4.759   1.108
 3027TIP3   OH2 9044   6.362   0.895   0.900
 3027TIP3    H1 9045   6.288   0.861   0.951
 3027TIP3    H2 9046   6.383   0.978   0.941
 3028TIP3   OH2 9047   5.397   4.514   2.257
 3028TIP3    H1 9048   5.431   4.518   2.346
 3028TIP3    H2 9049   5.346   4.594   2.247
 3029TIP3   OH2 9050   4.273   3.839   2.572
 3029TIP3    H1 9051   4.285   3.891   2.492
 3029TIP3    H2 9052   4.265   3.903   2.642
 3030TIP3   OH2 9053   1.016   1.293   4.344
 3030TIP3    H1 9054   0.947   1.271   4.282
 3030TIP3    H2 9055   1.088   1.325   4.289
 3031TIP3   OH2 9056   2.610   1.657   4.462
 3031TIP3    H1 9057   2.695   1.688   4.432
 3031TIP3    H2 9058   2.607   1.565   4.436
 3032TIP3   OH2 9059   5.879   1.268   3.579
 3032TIP3    H1 9060   5.941   1.200   3.605
 3032TIP3    H2 9061   5.858   1.313   3.660
 3033TIP3   OH2 9062   2.284   6.049   3.635
 3033TIP3    H1 9063   2.219   6.046   3.565
 3033TIP3    H2 9064   2.360   6.090   3.595
 3034TIP3   OH2 9065   5.548   1.508   0.979
 3034TIP3    H1 9066   5.455   1.518   0.998
 3034TIP3    H2 9067   5.551   1.464   0.894
 3035TIP3   OH2 9068   3.429   6.717   3.558
 3035TIP3    H1 9069   3.348   6.671   3.581
 3035TIP3    H2 9070   3.451   6.684   3.471
 3036TIP3   OH2 9071   7.152   0.853   0.925
 3036TIP3    H1 9072   7.177   0.821   0.838
 3036TIP3    H2 9073   7.232   0.843   0.977
 3037TIP3   OH2 9074   3.297   5.839   3.036
 3037TIP3    H1 9075   3.261   5.910   3.090
 3037TIP3    H2 9076   3.219   5.794   3.003
 3038TIP3   OH2 9077   3.652   5.974   0.781
 3038TIP3    H1 9078   3.589   5.940   0.717
 3038TIP3    H2 9079   3.738   5.949   0.747
 3039TIP3   OH2 9080   2.031   4.094   5.071
 3039TIP3    H1 9081   1.950   4.143   5.080
 3039TIP3    H2 9082   2.080   4.139   5.002
 3040TIP3   OH2 9083   2.393   1.337   4.706
 3040TIP3    H1 9084   2.373   1.350   4.614
 3040TIP3    H2 9085   2.309   1.319   4.747
 3041TIP3   OH2 9086   2.332   0.355   4.252
 3041TIP3    H1 9087   2.361   0.285   4.311
 3041TIP3    H2 9088   2.361   0.327   4.165
 3042TIP3   OH2 9089   0.485   4.006   5.315
 3042TIP3    H1 9090   0.539   4.077   5.280
 3042TIP3    H2 9091   0.446   4.043   5.394
 3043TIP3   OH2 9092   6.946   5.928   2.865
 3043TIP3    H1 9093   6.951   5.844   2.819
 3043TIP3    H2 9094   7.015   5.923   2.931
 3044TIP3   OH2 9095   2.395   6.202   1.036
 3044TIP3    H1 9096   2.456   6.143   0.992
 3044TIP3    H2 9097   2.386   6.167   1.124
 3045TIP3   OH2 9098   6.331   2.766   2.280
 3045TIP3    H1 9099   6.264   2.799   2.221
 3045TIP3    H2 9100   6.284   2.710   2.341
 3046TIP3   OH2 9101   0.938   3.356   2.362
 3046TIP3    H1 9102   1.003   3.415   2.323
 3046TIP3    H2 9103   0.927   3.388   2.452
 3047TIP3   OH2 9104   0.644   4.644   0.950
 3047TIP3    H1 9105   0.660   4.708   0.880
 3047TIP3    H2 9106   0.685   4.682   1.027
 3048TIP3   OH2 9107   2.887   3.054   1.330
 3048TIP3    H1 9108   2.948   3.011   1.270
 3048TIP3    H2 9109   2.889   3.000   1.409
 3049TIP3   OH2 9110   1.832   3.893   1.792
 3049TIP3    H1 9111   1.834   3.800   1.811
 3049TIP3    H2 9112   1.760   3.927   1.846
 3050TIP3   OH2 9113   0.851   5.112   1.987
 3050TIP3    H1 9114   0.902   5.124   1.908
 3050TIP3    H2 9115   0.762   5.139   1.963
 3051TIP3   OH2 9116   2.648   3.852   2.833
 3051TIP3    H1 9117   2.603   3.791   2.775
 3051TIP3    H2 9118   2.707   3.796   2.885
 3052TIP3   OH2 9119   6.078   3.760   0.416
 3052TIP3    H1 9120   6.097   3.733   0.506
 3052TIP3    H2 9121   5.998   3.812   0.422
 3053TIP3   OH2 9122   5.370   4.539   0.982
 3053TIP3    H1 9123   5.340   4.613   1.035
 3053TIP3    H2 9124   5.289   4.499   0.950
 3054TIP3   OH2 9125   1.601   4.670   2.955
 3054TIP3    H1 9126   1.624   4.708   3.040
 3054TIP3    H2 9127   1.608   4.576   2.967
 3055TIP3   OH2 9128   6.033   4.260   1.584
 3055TIP3    H1 9129   6.025   4.355   1.580
 3055TIP3    H2 9130   5.962   4.227   1.528
 3056TIP3   OH2 9131   5.270   6.438   2.350
 3056TIP3    H1 9132   5.235   6.425   2.438
 3056TIP3    H2 9133   5.262   6.352   2.308
 3057TIP3   OH2 9134   1.829   5.223   0.011
 3057TIP3    H1 9135   1.776   5.301  -0.006
 3057TIP3    H2 9136   1.886   5.248   0.083
 3058TIP3   OH2 9137   2.793   0.129   4.940
 3058TIP3    H1 9138   2.823   0.039   4.925
 3058TIP3    H2 9139   2.727   0.143   4.872
 3059TIP3   OH2 9140   6.166   4.118   0.072
 3059TIP3    H1 9141   6.257   4.147   0.072
 3059TIP3    H2 9142   6.142   4.114   0.165
 3060TIP3   OH2 9143   2.603   6.323   3.625
 3060TIP3    H1 9144   2.600   6.418   3.614
 3060TIP3    H2 9145   2.696   6.303   3.635
 3061TIP3   OH2 9146   6.692   4.059   1.561
 3061TIP3    H1 9147   6.635   4.106   1.622
 3061TIP3    H2 9148   6.681   3.967   1.585
 3062TIP3   OH2 9149   4.442   3.986   1.774
 3062TIP3    H1 9150   4.384   4.043   1.825
 3062TIP3    H2 9151   4.427   3.898   1.810
 3063TIP3   OH2 9152   4.880   0.245   4.334
 3063TIP3    H1 9153   4.922   0.248   4.420
 3063TIP3    H2 9154   4.872   0.337   4.308
 3064TIP3   OH2 9155   5.540   4.001   1.627
 3064TIP3    H1 9156   5.469   4.049   1.584
 3064TIP3    H2 9157   5.539   3.915   1.586
 3065TIP3   OH2 9158   5.921   0.294   0.054
 3065TIP3    H1 9159   5.948   0.222  -0.003
 3065TIP3    H2 9160   5.899   0.365  -0.006
 3066TIP3   OH2 9161   0.762   2.059   5.542
 3066TIP3    H1 9162   0.734   2.125   5.606
 3066TIP3    H2 9163   0.748   2.100   5.457
 3067TIP3   OH2 9164   0.706   2.705   4.888
 3067TIP3    H1 9165   0.791   2.699   4.931
 3067TIP3    H2 9166   0.679   2.796   4.901
 3068TIP3   OH2 9167   3.764   3.066   0.301
 3068TIP3    H1 9168   3.748   3.155   0.333
 3068TIP3    H2 9169   3.799   3.019   0.378
 3069TIP3   OH2 9170   5.832   5.315  -0.016
 3069TIP3    H1 9171   5.841   5.349   0.073
 3069TIP3    H2 9172   5.918   5.329  -0.055
 3070TIP3   OH2 9173   3.350   3.757   0.860
 3070TIP3    H1 9174   3.325   3.845   0.832
 3070TIP3    H2 9175   3.399   3.769   0.941
 3071TIP3   OH2 9176   1.570   6.110   2.568
 3071TIP3    H1 9177   1.637   6.169   2.533
 3071TIP3    H2 9178   1.617   6.027   2.581
 3072TIP3   OH2 9179   5.265   6.347   1.940
 3072TIP3    H1 9180   5.250   6.441   1.947
 3072TIP3    H2 9181   5.341   6.331   1.995
 3073TIP3   OH2 9182   5.168   2.213   4.105
 3073TIP3    H1 9183   5.198   2.209   4.196
 3073TIP3    H2 9184   5.114   2.135   4.094
 3074TIP3   OH2 9185   5.232   0.725   5.316
 3074TIP3    H1 9186   5.303   0.685   5.367
 3074TIP3    H2 9187   5.277   0.770   5.245
 3075TIP3   OH2 9188   4.235   3.096   2.280
 3075TIP3    H1 9189   4.195   3.183   2.281
 3075TIP3    H2 9190   4.205   3.055   2.361
 3076TIP3   OH2 9191   4.406   4.814   1.016
 3076TIP3    H1 9192   4.320   4.845   1.045
 3076TIP3    H2 9193   4.438   4.882   0.956
 3077TIP3   OH2 9194   3.073   6.262   1.877
 3077TIP3    H1 9195   3.133   6.276   1.950
 3077TIP3    H2 9196   3.034   6.348   1.861
 3078TIP3   OH2 9197   3.659   6.458   2.444
 3078TIP3    H1 9198   3.723   6.405   2.396
 3078TIP3    H2 9199   3.645   6.535   2.390
 3079TIP3   OH2 9200   1.033   1.942   4.141
 3079TIP3    H1 9201   1.091   1.905   4.076
 3079TIP3    H2 9202   1.090   1.998   4.194
 3080TIP3   OH2 9203   5.690   0.606   3.423
 3080TIP3    H1 9204   5.682   0.669   3.351
 3080TIP3    H2 9205   5.614   0.549   3.413
 3081TIP3   OH2 9206   0.655   2.130   2.522
 3081TIP3    H1 9207   0.691   2.048   2.556
 3081TIP3    H2 9208   0.732   2.187   2.515
 3082TIP3   OH2 9209   2.988   4.793   3.496
 3082TIP3    H1 9210   3.060   4.734   3.515
 3082TIP3    H2 9211   3.026   4.880   3.501
 3083TIP3   OH2 9212   1.298   3.695   5.003
 3083TIP3    H1 9213   1.236   3.761   4.972
 3083TIP3    H2 9214   1.251   3.612   4.994
 3084TIP3   OH2 9215   6.425   6.366   2.621
 3084TIP3    H1 9216   6.381   6.361   2.706
 3084TIP3    H2 9217   6.507   6.319   2.634
 3085TIP3   OH2 9218   5.660   0.551   0.128
 3085TIP3    H1 9219   5.639   0.534   0.220
 3085TIP3    H2 9220   5.645   0.467   0.084
 3086TIP3   OH2 9221   3.775   5.880   2.705
 3086TIP3    H1 9222   3.735   5.910   2.787
 3086TIP3    H2 9223   3.701   5.861   2.647
 3087TIP3   OH2 9224   5.014   0.287   5.838
 3087TIP3    H1 9225   5.095   0.266   5.791
 3087TIP3    H2 9226   5.027   0.248   5.925
 3088TIP3   OH2 9227   5.559   1.025   5.206
 3088TIP3    H1 9228   5.556   0.929   5.209
 3088TIP3    H2 9229   5.569   1.051   5.297
 3089TIP3   OH2 9230   3.163   2.668   4.490
 3089TIP3    H1 9231   3.105   2.616   4.435
 3089TIP3    H2 9232   3.110   2.692   4.566
 3090TIP3   OH2 9233   3.053   1.023   0.909
 3090TIP3    H1 9234   3.108   0.960   0.863
 3090TIP3    H2 9235   3.081   1.108   0.875
 3091TIP3   OH2 9236   5.330   0.754   1.788
 3091TIP3    H1 9237   5.250   0.740   1.736
 3091TIP3    H2 9238   5.322   0.844   1.819
 3092TIP3   OH2 9239   7.197   2.810   0.519
 3092TIP3    H1 9240   7.221   2.787   0.430
 3092TIP3    H2 9241   7.118   2.759   0.537
 3093TIP3   OH2 9242   4.646   0.391   2.979
 3093TIP3    H1 9243   4.701   0.322   2.942
 3093TIP3    H2 9244   4.622   0.446   2.904
 3094TIP3   OH2 9245   0.591   0.363   4.320
 3094TIP3    H1 9246   0.587   0.318   4.236
 3094TIP3    H2 9247   0.682   0.392   4.328
 3095TIP3   OH2 9248   4.033   6.513   2.490
 3095TIP3    H1 9249   4.126   6.537   2.483
 3095TIP3    H2 9250   4.001   6.565   2.563
 3096TIP3   OH2 9251   2.448   5.274   5.846
 3096TIP3    H1 9252   2.385   5.296   5.777
 3096TIP3    H2 9253   2.395   5.239   5.917
 3097TIP3   OH2 9254   1.992   2.795   0.120
 3097TIP3    H1 9255   1.916   2.784   0.177
 3097TIP3    H2 9256   2.066   2.770   0.175
 3098TIP3   OH2 9257   0.526   1.729   5.182
 3098TIP3    H1 9258   0.529   1.757   5.273
 3098TIP3    H2 9259   0.552   1.807   5.132
 3099TIP3   OH2 9260   2.465   2.114   4.074
 3099TIP3    H1 9261   2.466   2.194   4.022
 3099TIP3    H2 9262   2.376   2.080   4.063
 3100TIP3   OH2 9263   0.625   4.030   4.795
 3100TIP3    H1 9264   0.634   4.003   4.886
 3100TIP3    H2 9265   0.552   3.977   4.761
 3101TIP3   OH2 9266   3.621   6.184   4.425
 3101TIP3    H1 9267   3.577   6.114   4.471
 3101TIP3    H2 9268   3.648   6.245   4.493
 3102TIP3   OH2 9269   2.232   1.158   1.812
 3102TIP3    H1 9270   2.185   1.084   1.773
 3102TIP3    H2 9271   2.247   1.218   1.739
 3103TIP3   OH2 9272   1.737   1.713   1.375
 3103TIP3    H1 9273   1.813   1.764   1.404
 3103TIP3    H2 9274   1.702   1.763   1.301
 3104TIP3   OH2 9275   0.270   1.733   4.317
 3104TIP3    H1 9276   0.352   1.692   4.289
 3104TIP3    H2 9277   0.216   1.661   4.349
 3105TIP3   OH2 9278   0.797   4.820   5.200
 3105TIP3    H1 9279   0.827   4.730   5.185
 3105TIP3    H2 9280   0.710   4.823   5.161
 3106TIP3   OH2 9281   1.460   1.141   3.341
 3106TIP3    H1 9282   1.421   1.070   3.291
 3106TIP3    H2 9283   1.400   1.214   3.330
 3107TIP3   OH2 9284   3.902   0.163   1.131
 3107TIP3    H1 9285   3.971   0.183   1.068
 3107TIP3    H2 9286   3.948   0.140   1.211
 3108TIP3   OH2 9287   3.353   4.186   2.072
 3108TIP3    H1 9288   3.333   4.203   2.164
 3108TIP3    H2 9289   3.313   4.260   2.025
 3109TIP3   OH2 9290   6.294   6.530   0.357
 3109TIP3    H1 9291   6.244   6.594   0.407
 3109TIP3    H2 9292   6.367   6.580   0.321
 3110TIP3   OH2 9293   3.878   5.550   4.054
 3110TIP3    H1 9294   3.794   5.514   4.083
 3110TIP3    H2 9295   3.944   5.494   4.095
 3111TIP3   OH2 9296   3.498   2.129   0.698
 3111TIP3    H1 9297   3.528   2.211   0.738
 3111TIP3    H2 9298   3.459   2.079   0.770
 3112TIP3   OH2 9299   7.220   3.634   0.943
 3112TIP3    H1 9300   7.268   3.653   1.023
 3112TIP3    H2 9301   7.128   3.635   0.969
 3113TIP3   OH2 9302   7.172   0.086   0.610
 3113TIP3    H1 9303   7.237   0.083   0.680
 3113TIP3    H2 9304   7.148  -0.006   0.596
 3114TIP3   OH2 9305   5.625   1.862   3.871
 3114TIP3    H1 9306   5.686   1.935   3.860
 3114TIP3    H2 9307   5.680   1.784   3.867
 3115TIP3   OH2 9308   2.947   4.976   5.557
 3115TIP3    H1 9309   2.982   4.889   5.540
 3115TIP3    H2 9310   2.995   5.006   5.634
 3116TIP3   OH2 9311   5.843   0.914   0.802
 3116TIP3    H1 9312   5.819   0.880   0.888
 3116TIP3    H2 9313   5.939   0.909   0.800
 3117TIP3   OH2 9314   5.546   0.261   0.968
 3117TIP3    H1 9315   5.555   0.340   1.021
 3117TIP3    H2 9316   5.616   0.203   0.999
 3118TIP3   OH2 9317   1.445   2.714   4.814
 3118TIP3    H1 9318   1.480   2.741   4.899
 3118TIP3    H2 9319   1.483   2.628   4.798
 3119TIP3   OH2 9320   6.425   1.592   3.491
 3119TIP3    H1 9321   6.492   1.641   3.443
 3119TIP3    H2 9322   6.472   1.516   3.526
 3120TIP3   OH2 9323   4.746   5.262   1.971
 3120TIP3    H1 9324   4.704   5.340   1.935
 3120TIP3    H2 9325   4.800   5.228   1.900
 3121TIP3   OH2 9326   6.042   3.017   5.618
 3121TIP3    H1 9327   5.993   3.096   5.639
 3121TIP3    H2 9328   5.997   2.980   5.541
 3122TIP3   OH2 9329   3.662   4.330   2.455
 3122TIP3    H1 9330   3.683   4.423   2.448
 3122TIP3    H2 9331   3.642   4.316   2.547
 3123TIP3   OH2 9332   0.383   1.485   5.298
 3123TIP3    H1 9333   0.419   1.563   5.255
 3123TIP3    H2 9334   0.319   1.520   5.360
 3124TIP3   OH2 9335   1.368   0.887   2.876
 3124TIP3    H1 9336   1.318   0.824   2.826
 3124TIP3    H2 9337   1.402   0.949   2.811
 3125TIP3   OH2 9338   0.910   4.604   5.459
 3125TIP3    H1 9339   0.899   4.543   5.532
 3125TIP3    H2 9340   0.838   4.584   5.399
 3126TIP3   OH2 9341   6.941   0.675   3.632
 3126TIP3    H1 9342   6.901   0.751   3.674
 3126TIP3    H2 9343   6.957   0.703   3.541
 3127TIP3   OH2 9344   3.925   6.762   1.663
 3127TIP3    H1 9345   3.947   6.669   1.661
 3127TIP3    H2 9346   3.829   6.764   1.659
 3128TIP3   OH2 9347   0.707   3.713   4.296
 3128TIP3    H1 9348   0.635   3.775   4.304
 3128TIP3    H2 9349   0.667   3.627   4.308
 3129TIP3   OH2 9350   4.644   4.972   0.050
 3129TIP3    H1 9351   4.714   5.037   0.041
 3129TIP3    H2 9352   4.610   4.960  -0.038
 3130TIP3   OH2 9353   1.843   3.082   3.845
 3130TIP3    H1 9354   1.806   3.159   3.801
 3130TIP3    H2 9355   1.848   3.106   3.937
 3131TIP3   OH2 9356   3.182   5.491   3.164
 3131TIP3    H1 9357   3.261   5.532   3.199
 3131TIP3    H2 9358   3.213   5.438   3.091
 3132TIP3   OH2 9359   4.081   2.202   3.128
 3132TIP3    H1 9360   4.133   2.249   3.063
 3132TIP3    H2 9361   4.095   2.250   3.209
 3133TIP3   OH2 9362   3.448   5.395   0.358
 3133TIP3    H1 9363   3.458   5.308   0.395
 3133TIP3    H2 9364   3.353   5.410   0.357
 3134TIP3   OH2 9365   0.157   0.433   4.703
 3134TIP3    H1 9366   0.183   0.357   4.651
 3134TIP3    H2 9367   0.178   0.509   4.648
 3135TIP3   OH2 9368   1.955   2.891   0.934
 3135TIP3    H1 9369   2.019   2.949   0.976
 3135TIP3    H2 9370   1.893   2.951   0.892
 3136TIP3   OH2 9371   3.892   1.210   5.008
 3136TIP3    H1 9372   3.802   1.179   5.013
 3136TIP3    H2 9373   3.911   1.215   4.914
 3137TIP3   OH2 9374   5.060   0.233   2.572
 3137TIP3    H1 9375   5.053   0.163   2.637
 3137TIP3    H2 9376   5.143   0.218   2.528
 3138TIP3   OH2 9377   6.971   5.331   2.519
 3138TIP3    H1 9378   6.932   5.263   2.464
 3138TIP3    H2 9379   6.913   5.406   2.508
 3139TIP3   OH2 9380   0.435   4.368   4.963
 3139TIP3    H1 9381   0.505   4.433   4.972
 3139TIP3    H2 9382   0.387   4.394   4.884
 3140TIP3   OH2 9383   2.791   5.583   3.038
 3140TIP3    H1 9384   2.715   5.531   3.067
 3140TIP3    H2 9385   2.854   5.518   3.008
 3141TIP3   OH2 9386   0.147   2.256   1.900
 3141TIP3    H1 9387   0.153   2.316   1.974
 3141TIP3    H2 9388   0.227   2.273   1.849
 3142TIP3   OH2 9389   3.446   4.764   4.272
 3142TIP3    H1 9390   3.441   4.833   4.338
 3142TIP3    H2 9391   3.435   4.682   4.321
 3143TIP3   OH2 9392   0.383   0.793   2.882
 3143TIP3    H1 9393   0.434   0.861   2.839
 3143TIP3    H2 9394   0.448   0.733   2.918
 3144TIP3   OH2 9395   1.486   0.897   4.378
 3144TIP3    H1 9396   1.560   0.957   4.379
 3144TIP3    H2 9397   1.424   0.937   4.316
 3145TIP3   OH2 9398   5.415   6.645   2.297
 3145TIP3    H1 9399   5.353   6.574   2.314
 3145TIP3    H2 9400   5.384   6.686   2.216
 3146TIP3   OH2 9401   4.196   0.104   0.500
 3146TIP3    H1 9402   4.273   0.052   0.521
 3146TIP3    H2 9403   4.130   0.078   0.564
 3147TIP3   OH2 9404   7.190   2.728   3.102
 3147TIP3    H1 9405   7.280   2.695   3.103
 3147TIP3    H2 9406   7.150   2.687   3.026
 3148TIP3   OH2 9407   1.765   4.668   4.073
 3148TIP3    H1 9408   1.777   4.668   3.978
 3148TIP3    H2 9409   1.812   4.590   4.103
 3149TIP3   OH2 9410   3.675   4.107   1.157
 3149TIP3    H1 9411   3.666   4.103   1.061
 3149TIP3    H2 9412   3.753   4.161   1.171
 3150TIP3   OH2 9413   5.983   2.571   1.514
 3150TIP3    H1 9414   6.057   2.560   1.454
 3150TIP3    H2 9415   6.023   2.598   1.597
 3151TIP3   OH2 9416   4.061   3.539  -0.026
 3151TIP3    H1 9417   4.092   3.546   0.064
 3151TIP3    H2 9418   4.029   3.449  -0.034
 3152TIP3   OH2 9419   4.635   4.220   3.139
 3152TIP3    H1 9420   4.681   4.174   3.069
 3152TIP3    H2 9421   4.552   4.246   3.100
 3153TIP3   OH2 9422   0.664   6.344   1.127
 3153TIP3    H1 9423   0.635   6.276   1.188
 3153TIP3    H2 9424   0.697   6.297   1.051
 3154TIP3   OH2 9425   0.061   3.584   1.228
 3154TIP3    H1 9426   0.150   3.550   1.240
 3154TIP3    H2 9427   0.004   3.514   1.260
 3155TIP3   OH2 9428   0.378   1.952   0.541
 3155TIP3    H1 9429   0.408   1.989   0.458
 3155TIP3    H2 9430   0.400   2.019   0.606
 3156TIP3   OH2 9431   6.156   4.322   2.860
 3156TIP3    H1 9432   6.169   4.339   2.954
 3156TIP3    H2 9433   6.235   4.274   2.834
 3157TIP3   OH2 9434   5.793   6.194   0.976
 3157TIP3    H1 9435   5.885   6.170   0.989
 3157TIP3    H2 9436   5.773   6.250   1.051
 3158TIP3   OH2 9437   6.559   5.012   2.422
 3158TIP3    H1 9438   6.578   4.949   2.491
 3158TIP3    H2 9439   6.518   5.086   2.467
 3159TIP3   OH2 9440   1.517   6.147   3.437
 3159TIP3    H1 9441   1.491   6.058   3.462
 3159TIP3    H2 9442   1.579   6.134   3.365
 3160TIP3   OH2 9443   6.765   5.091   1.448
 3160TIP3    H1 9444   6.701   5.043   1.500
 3160TIP3    H2 9445   6.754   5.056   1.359
 3161TIP3   OH2 9446   6.085   1.701   1.439
 3161TIP3    H1 9447   6.011   1.695   1.378
 3161TIP3    H2 9448   6.102   1.610   1.464
 3162TIP3   OH2 9449   3.017   4.705   5.512
 3162TIP3    H1 9450   2.973   4.620   5.516
 3162TIP3    H2 9451   3.100   4.692   5.557
 3163TIP3   OH2 9452   0.644   1.752   4.393
 3163TIP3    H1 9453   0.620   1.775   4.303
 3163TIP3    H2 9454   0.649   1.837   4.438
 3164TIP3   OH2 9455   1.199   3.270   4.650
 3164TIP3    H1 9456   1.214   3.182   4.617
 3164TIP3    H2 9457   1.113   3.266   4.692
 3165TIP3   OH2 9458   0.794   5.211   3.574
 3165TIP3    H1 9459   0.806   5.231   3.667
 3165TIP3    H2 9460   0.878   5.230   3.534
 3166TIP3   OH2 9461   3.249   1.223   1.937
 3166TIP3    H1 9462   3.289   1.165   2.002
 3166TIP3    H2 9463   3.187   1.276   1.988
 3167TIP3   OH2 9464   3.728   3.256   1.750
 3167TIP3    H1 9465   3.790   3.304   1.695
 3167TIP3    H2 9466   3.676   3.205   1.689
 3168TIP3   OH2 9467   6.306   0.942   2.453
 3168TIP3    H1 9468   6.309   0.999   2.530
 3168TIP3    H2 9469   6.260   0.993   2.387
 3169TIP3   OH2 9470   6.984   5.748   5.044
 3169TIP3    H1 9471   6.929   5.822   5.019
 3169TIP3    H2 9472   7.064   5.787   5.078
 3170TIP3   OH2 9473   6.217   6.699   0.048
 3170TIP3    H1 9474   6.224   6.604   0.034
 3170TIP3    H2 9475   6.296   6.721   0.098
 3171TIP3   OH2 9476   6.674   3.078   1.438
 3171TIP3    H1 9477   6.689   3.155   1.383
 3171TIP3    H2 9478   6.641   3.011   1.378
 3172TIP3   OH2 9479   4.991   3.630   5.719
 3172TIP3    H1 9480   5.080   3.661   5.700
 3172TIP3    H2 9481   4.985   3.634   5.815
 3173TIP3   OH2 9482   3.540   6.464   0.142
 3173TIP3    H1 9483   3.483   6.392   0.167
 3173TIP3    H2 9484   3.609   6.465   0.208
 3174TIP3   OH2 9485   6.657   3.431   4.169
 3174TIP3    H1 9486   6.615   3.471   4.245
 3174TIP3    H2 9487   6.736   3.483   4.155
 3175TIP3   OH2 9488   6.725   4.503   0.436
 3175TIP3    H1 9489   6.636   4.469   0.428
 3175TIP3    H2 9490   6.739   4.512   0.531
 3176TIP3   OH2 9491   0.095   2.757   0.993
 3176TIP3    H1 9492   0.122   2.829   0.937
 3176TIP3    H2 9493   0.156   2.760   1.067
 3177TIP3   OH2 9494   0.373   6.170   4.476
 3177TIP3    H1 9495   0.336   6.250   4.514
 3177TIP3    H2 9496   0.354   6.102   4.541
 3178TIP3   OH2 9497   5.204   4.198   5.876
 3178TIP3    H1 9498   5.213   4.266   5.810
 3178TIP3    H2 9499   5.184   4.119   5.827
 3179TIP3   OH2 9500   0.940   1.009   3.999
 3179TIP3    H1 9501   1.019   1.051   3.965
 3179TIP3    H2 9502   0.872   1.076   3.993
 3180TIP3   OH2 9503   3.546   6.094   1.555
 3180TIP3    H1 9504   3.515   6.170   1.604
 3180TIP3    H2 9505   3.517   6.019   1.607
 3181TIP3   OH2 9506   2.556   5.793   4.310
 3181TIP3    H1 9507   2.534   5.829   4.396
 3181TIP3    H2 9508   2.517   5.854   4.248
 3182TIP3   OH2 9509   2.397   1.548   3.132
 3182TIP3    H1 9510   2.392   1.471   3.189
 3182TIP3    H2 9511   2.313   1.593   3.147
 3183TIP3   OH2 9512   6.957   1.104   4.337
 3183TIP3    H1 9513   6.877   1.069   4.376
 3183TIP3    H2 9514   7.004   1.026   4.306
 3184TIP3   OH2 9515   0.993   0.908   2.418
 3184TIP3    H1 9516   1.059   0.890   2.351
 3184TIP3    H2 9517   0.959   0.823   2.442
 3185TIP3   OH2 9518   4.653   3.121   0.520
 3185TIP3    H1 9519   4.703   3.143   0.441
 3185TIP3    H2 9520   4.663   3.198   0.576
 3186TIP3   OH2 9521   0.234   0.450   2.356
 3186TIP3    H1 9522   0.270   0.384   2.296
 3186TIP3    H2 9523   0.207   0.400   2.433
 3187TIP3   OH2 9524   2.254   4.693   2.851
 3187TIP3    H1 9525   2.336   4.676   2.805
 3187TIP3    H2 9526   2.262   4.642   2.932
 3188TIP3   OH2 9527   0.777   5.148   4.764
 3188TIP3    H1 9528   0.749   5.239   4.763
 3188TIP3    H2 9529   0.701   5.099   4.731
 3189TIP3   OH2 9530   3.371   5.697   5.366
 3189TIP3    H1 9531   3.289   5.737   5.335
 3189TIP3    H2 9532   3.353   5.673   5.457
 3190TIP3   OH2 9533   5.434   5.447   3.969
 3190TIP3    H1 9534   5.482   5.430   3.889
 3190TIP3    H2 9535   5.425   5.542   3.973
 3191TIP3   OH2 9536   5.356   5.389   1.300
 3191TIP3    H1 9537   5.383   5.480   1.292
 3191TIP3    H2 9538   5.353   5.374   1.395
 3192TIP3   OH2 9539   3.577   0.642   2.702
 3192TIP3    H1 9540   3.570   0.738   2.704
 3192TIP3    H2 9541   3.516   0.615   2.634
 3193TIP3   OH2 9542   3.293   3.604   4.695
 3193TIP3    H1 9543   3.358   3.577   4.630
 3193TIP3    H2 9544   3.277   3.696   4.676
 3194TIP3   OH2 9545   5.491   3.168   4.330
 3194TIP3    H1 9546   5.556   3.117   4.282
 3194TIP3    H2 9547   5.494   3.133   4.419
 3195TIP3   OH2 9548   5.261   3.269   0.796
 3195TIP3    H1 9549   5.200   3.196   0.790
 3195TIP3    H2 9550   5.297   3.279   0.708
 3196TIP3   OH2 9551   5.953   2.961   4.313
 3196TIP3    H1 9552   6.012   3.019   4.361
 3196TIP3    H2 9553   6.006   2.930   4.239
 3197TIP3   OH2 9554   5.321   3.839   1.161
 3197TIP3    H1 9555   5.278   3.764   1.201
 3197TIP3    H2 9556   5.412   3.834   1.190
 3198TIP3   OH2 9557   0.872   6.741   1.179
 3198TIP3    H1 9558   0.882   6.666   1.121
 3198TIP3    H2 9559   0.960   6.757   1.213
 3199TIP3   OH2 9560   1.296   3.168   1.351
 3199TIP3    H1 9561   1.310   3.160   1.256
 3199TIP3    H2 9562   1.202   3.162   1.362
 3200TIP3   OH2 9563   7.128   0.651   4.557
 3200TIP3    H1 9564   7.212   0.615   4.527
 3200TIP3    H2 9565   7.144   0.679   4.647
 3201TIP3   OH2 9566   2.078   6.191  -0.001
 3201TIP3    H1 9567   2.037   6.265   0.043
 3201TIP3    H2 9568   2.047   6.114   0.047
 3202TIP3   OH2 9569   6.225   4.987   3.623
 3202TIP3    H1 9570   6.278   4.910   3.602
 3202TIP3    H2 9571   6.166   4.958   3.693
 3203TIP3   OH2 9572   6.791   3.221   5.289
 3203TIP3    H1 9573   6.700   3.194   5.277
 3203TIP3    H2 9574   6.835   3.191   5.209
 3204TIP3   OH2 9575   5.178   0.964   1.408
 3204TIP3    H1 9576   5.260   1.011   1.392
 3204TIP3    H2 9577   5.205   0.872   1.418
 3205TIP3   OH2 9578   3.742   4.443   4.634
 3205TIP3    H1 9579   3.689   4.521   4.615
 3205TIP3    H2 9580   3.832   4.471   4.617
 3206TIP3   OH2 9581   5.557   1.325   4.125
 3206TIP3    H1 9582   5.474   1.284   4.148
 3206TIP3    H2 9583   5.547   1.351   4.034
 3207TIP3   OH2 9584   3.522   4.293   0.008
 3207TIP3    H1 9585   3.472   4.374   0.002
 3207TIP3    H2 9586   3.476   4.241   0.075
 3208TIP3   OH2 9587   4.659   1.830   2.479
 3208TIP3    H1 9588   4.737   1.862   2.434
 3208TIP3    H2 9589   4.587   1.880   2.440
 3209TIP3   OH2 9590   4.850   5.499   5.604
 3209TIP3    H1 9591   4.927   5.507   5.661
 3209TIP3    H2 9592   4.799   5.578   5.622
 3210TIP3   OH2 9593   1.747   3.259   1.351
 3210TIP3    H1 9594   1.792   3.233   1.271
 3210TIP3    H2 9595   1.697   3.181   1.377
 3211TIP3   OH2 9596   1.108   4.236   0.305
 3211TIP3    H1 9597   1.157   4.199   0.378
 3211TIP3    H2 9598   1.049   4.166   0.278
 3212TIP3   OH2 9599   1.249   4.638   1.215
 3212TIP3    H1 9600   1.280   4.631   1.125
 3212TIP3    H2 9601   1.207   4.554   1.234
 3213TIP3   OH2 9602   0.021   1.655   4.000
 3213TIP3    H1 9603   0.079   1.604   4.057
 3213TIP3    H2 9604   0.079   1.707   3.946
 3214TIP3   OH2 9605   0.710   2.004   5.212
 3214TIP3    H1 9606   0.655   2.063   5.160
 3214TIP3    H2 9607   0.799   2.032   5.195
 3215TIP3   OH2 9608   1.163   5.096   0.221
 3215TIP3    H1 9609   1.233   5.063   0.165
 3215TIP3    H2 9610   1.192   5.076   0.310
 3216TIP3   OH2 9611   1.946   6.519   5.412
 3216TIP3    H1 9612   1.947   6.578   5.337
 3216TIP3    H2 9613   1.999   6.444   5.384
 3217TIP3   OH2 9614   2.830   2.913   1.570
 3217TIP3    H1 9615   2.852   2.980   1.635
 3217TIP3    H2 9616   2.735   2.918   1.562
 3218TIP3   OH2 9617   5.242   0.297   4.007
 3218TIP3    H1 9618   5.194   0.230   3.959
 3218TIP3    H2 9619   5.192   0.377   3.992
 3219TIP3   OH2 9620   0.427   6.513   4.209
 3219TIP3    H1 9621   0.461   6.509   4.298
 3219TIP3    H2 9622   0.481   6.452   4.159
 3220TIP3   OH2 9623   6.683   2.015   0.226
 3220TIP3    H1 9624   6.673   1.958   0.149
 3220TIP3    H2 9625   6.682   1.954   0.300
 3221TIP3   OH2 9626   3.431   1.414   3.842
 3221TIP3    H1 9627   3.431   1.393   3.935
 3221TIP3    H2 9628   3.522   1.433   3.821
 3222TIP3   OH2 9629   6.005   3.899   5.187
 3222TIP3    H1 9630   5.993   3.987   5.222
 3222TIP3    H2 9631   5.917   3.863   5.182
 3223TIP3   OH2 9632   4.931   0.893   4.733
 3223TIP3    H1 9633   4.911   0.838   4.809
 3223TIP3    H2 9634   5.025   0.910   4.739
 3224TIP3   OH2 9635   2.231   2.065   0.235
 3224TIP3    H1 9636   2.143   2.097   0.216
 3224TIP3    H2 9637   2.218   1.972   0.255
 3225TIP3   OH2 9638   0.762   2.459   3.385
 3225TIP3    H1 9639   0.683   2.476   3.437
 3225TIP3    H2 9640   0.813   2.539   3.392
 3226TIP3   OH2 9641   1.995   3.657   2.700
 3226TIP3    H1 9642   2.030   3.676   2.787
 3226TIP3    H2 9643   2.014   3.564   2.686
 3227TIP3   OH2 9644   1.425   0.141   3.696
 3227TIP3    H1 9645   1.488   0.122   3.626
 3227TIP3    H2 9646   1.341   0.149   3.650
 3228TIP3   OH2 9647   2.936   0.786   3.780
 3228TIP3    H1 9648   3.027   0.813   3.792
 3228TIP3    H2 9649   2.907   0.759   3.867
 3229TIP3   OH2 9650   7.192   3.427   4.151
 3229TIP3    H1 9651   7.202   3.414   4.057
 3229TIP3    H2 9652   7.234   3.511   4.169
 3230TIP3   OH2 9653   3.824   4.299   0.083
 3230TIP3    H1 9654   3.857   4.378   0.126
 3230TIP3    H2 9655   3.729   4.308   0.084
 3231TIP3   OH2 9656   2.008   4.232   4.217
 3231TIP3    H1 9657   1.930   4.192   4.179
 3231TIP3    H2 9658   2.060   4.158   4.247
 3232TIP3   OH2 9659   6.998   1.274   5.641
 3232TIP3    H1 9660   6.931   1.339   5.663
 3232TIP3    H2 9661   6.974   1.244   5.553
 3233TIP3   OH2 9662   4.106   6.713   4.889
 3233TIP3    H1 9663   4.094   6.628   4.847
 3233TIP3    H2 9664   4.067   6.775   4.829
 3234TIP3   OH2 9665   5.939   5.105   2.534
 3234TIP3    H1 9666   5.978   5.018   2.528
 3234TIP3    H2 9667   5.927   5.119   2.627
 3235TIP3   OH2 9668   2.471   4.141   3.036
 3235TIP3    H1 9669   2.504   4.160   2.948
 3235TIP3    H2 9670   2.483   4.047   3.046
 3236TIP3   OH2 9671   7.229   3.296   3.332
 3236TIP3    H1 9672   7.274   3.252   3.260
 3236TIP3    H2 9673   7.157   3.237   3.354
 3237TIP3   OH2 9674   0.090   5.124   2.873
 3237TIP3    H1 9675   0.060   5.199   2.821
 3237TIP3    H2 9676   0.051   5.138   2.959
 3238TIP3   OH2 9677   2.092   5.047   2.534
 3238TIP3    H1 9678   2.101   5.037   2.629
 3238TIP3    H2 9679   2.141   5.128   2.514
 3239TIP3   OH2 9680   2.960   5.025   2.693
 3239TIP3    H1 9681   2.991   5.108   2.658
 3239TIP3    H2 9682   3.020   5.006   2.766
 3240TIP3   OH2 9683   1.407   1.936   3.917
 3240TIP3    H1 9684   1.474   1.868   3.909
 3240TIP3    H2 9685   1.425   1.977   4.002
 3241TIP3   OH2 9686   6.278   2.058   4.901
 3241TIP3    H1 9687   6.214   2.113   4.945
 3241TIP3    H2 9688   6.357   2.112   4.898
 3242TIP3   OH2 9689   0.634   0.847   1.746
 3242TIP3    H1 9690   0.669   0.768   1.788
 3242TIP3    H2 9691   0.611   0.819   1.658
 3243TIP3   OH2 9692   6.514   2.672   4.964
 3243TIP3    H1 9693   6.578   2.738   4.993
 3243TIP3    H2 9694   6.533   2.596   5.018
 3244TIP3   OH2 9695   0.436   4.763   0.619
 3244TIP3    H1 9696   0.382   4.748   0.542
 3244TIP3    H2 9697   0.397   4.710   0.688
 3245TIP3   OH2 9698   4.658   0.592   3.933
 3245TIP3    H1 9699   4.651   0.500   3.956
 3245TIP3    H2 9700   4.632   0.639   4.012
 3246TIP3   OH2 9701   4.788   2.846   3.649
 3246TIP3    H1 9702   4.783   2.873   3.741
 3246TIP3    H2 9703   4.852   2.906   3.610
 3247TIP3   OH2 9704   1.471   4.120   4.089
 3247TIP3    H1 9705   1.430   4.036   4.066
 3247TIP3    H2 9706   1.502   4.155   4.006
 3248TIP3   OH2 9707   0.424   6.436   3.834
 3248TIP3    H1 9708   0.514   6.424   3.864
 3248TIP3    H2 9709   0.381   6.353   3.853
 3249TIP3   OH2 9710   6.287   4.200   1.609
 3249TIP3    H1 9711   6.278   4.110   1.640
 3249TIP3    H2 9712   6.196   4.230   1.597
 3250TIP3   OH2 9713   0.502   3.140   2.640
 3250TIP3    H1 9714   0.500   3.200   2.714
 3250TIP3    H2 9715   0.595   3.131   2.618
 3251TIP3   OH2 9716   6.399   0.440   4.243
 3251TIP3    H1 9717   6.366   0.376   4.306
 3251TIP3    H2 9718   6.493   0.447   4.262
 3252TIP3   OH2 9719   2.731   5.102   1.697
 3252TIP3    H1 9720   2.727   5.118   1.792
 3252TIP3    H2 9721   2.683   5.174   1.658
 3253TIP3   OH2 9722   3.524   2.215   0.428
 3253TIP3    H1 9723   3.616   2.196   0.412
 3253TIP3    H2 9724   3.509   2.185   0.518
 3254TIP3   OH2 9725   0.479   0.499   0.107
 3254TIP3    H1 9726   0.563   0.465   0.136
 3254TIP3    H2 9727   0.447   0.550   0.181
 3255TIP3   OH2 9728   6.878   3.392   3.366
 3255TIP3    H1 9729   6.858   3.309   3.323
 3255TIP3    H2 9730   6.793   3.435   3.376
 3256TIP3   OH2 9731   2.055   0.725   4.437
 3256TIP3    H1 9732   2.049   0.810   4.479
 3256TIP3    H2 9733   2.066   0.663   4.509
 3257TIP3   OH2 9734   2.260   4.720   4.861
 3257TIP3    H1 9735   2.241   4.801   4.813
 3257TIP3    H2 9736   2.254   4.745   4.953
 3258TIP3   OH2 9737   4.722   6.179   4.850
 3258TIP3    H1 9738   4.806   6.166   4.805
 3258TIP3    H2 9739   4.657   6.149   4.786
 3259TIP3   OH2 9740   6.640   5.631   0.313
 3259TIP3    H1 9741   6.641   5.649   0.407
 3259TIP3    H2 9742   6.548   5.635   0.288
 3260TIP3   OH2 9743   0.925   0.574   1.137
 3260TIP3    H1 9744   0.886   0.487   1.128
 3260TIP3    H2 9745   1.014   0.558   1.168
 3261TIP3   OH2 9746   1.788   1.264   0.385
 3261TIP3    H1 9747   1.785   1.253   0.290
 3261TIP3    H2 9748   1.736   1.192   0.419
 3262TIP3   OH2 9749   2.591   0.013   0.855
 3262TIP3    H1 9750   2.514   0.054   0.816
 3262TIP3    H2 9751   2.570   0.006   0.948
 3263TIP3   OH2 9752   2.204   2.741   0.684
 3263TIP3    H1 9753   2.268   2.691   0.632
 3263TIP3    H2 9754   2.252   2.820   0.711
 3264TIP3   OH2 9755   2.733   6.290   4.837
 3264TIP3    H1 9756   2.699   6.379   4.831
 3264TIP3    H2 9757   2.750   6.277   4.930
 3265TIP3   OH2 9758   4.899   2.483   3.919
 3265TIP3    H1 9759   4.830   2.549   3.923
 3265TIP3    H2 9760   4.852   2.399   3.922
 3266TIP3   OH2 9761   4.418   6.589   3.761
 3266TIP3    H1 9762   4.387   6.501   3.741
 3266TIP3    H2 9763   4.498   6.574   3.813
 3267TIP3   OH2 9764   6.413   1.493   0.921
 3267TIP3    H1 9765   6.434   1.477   1.012
 3267TIP3    H2 9766   6.476   1.559   0.892
 3268TIP3   OH2 9767   0.241   1.660   3.826
 3268TIP3    H1 9768   0.322   1.625   3.861
 3268TIP3    H2 9769   0.209   1.591   3.767
 3269TIP3   OH2 9770   1.013   0.571   4.725
 3269TIP3    H1 9771   0.950   0.641   4.741
 3269TIP3    H2 9772   1.004   0.513   4.801
 3270TIP3   OH2 9773   2.957   5.566   5.432
 3270TIP3    H1 9774   2.947   5.528   5.345
 3270TIP3    H2 9775   2.875   5.611   5.448
 3271TIP3   OH2 9776   4.730   1.575   3.844
 3271TIP3    H1 9777   4.655   1.628   3.818
 3271TIP3    H2 9778   4.731   1.502   3.782
 3272TIP3   OH2 9779   4.010   1.357   3.837
 3272TIP3    H1 9780   3.989   1.435   3.784
 3272TIP3    H2 9781   4.060   1.301   3.778
 3273TIP3   OH2 9782   1.385   2.941   0.899
 3273TIP3    H1 9783   1.301   2.915   0.863
 3273TIP3    H2 9784   1.442   2.865   0.886
 3274TIP3   OH2 9785   0.540   6.109   2.462
 3274TIP3    H1 9786   0.569   6.156   2.384
 3274TIP3    H2 9787   0.611   6.120   2.525
 3275TIP3   OH2 9788   0.522   6.443   4.489
 3275TIP3    H1 9789   0.448   6.398   4.530
 3275TIP3    H2 9790   0.567   6.486   4.562
 3276TIP3   OH2 9791   0.583   0.827   0.151
 3276TIP3    H1 9792   0.677   0.810   0.145
 3276TIP3    H2 9793   0.575   0.895   0.218
 3277TIP3   OH2 9794   7.137   3.069   5.855
 3277TIP3    H1 9795   7.194   3.069   5.778
 3277TIP3    H2 9796   7.186   3.021   5.922
 3278TIP3   OH2 9797   3.778   5.665   1.135
 3278TIP3    H1 9798   3.713   5.723   1.173
 3278TIP3    H2 9799   3.817   5.715   1.063
 3279TIP3   OH2 9800   6.911   3.815   5.528
 3279TIP3    H1 9801   6.845   3.855   5.471
 3279TIP3    H2 9802   6.863   3.792   5.608
 3280TIP3   OH2 9803   3.449   5.570   2.920
 3280TIP3    H1 9804   3.530   5.621   2.916
 3280TIP3    H2 9805   3.408   5.584   2.834
 3281TIP3   OH2 9806   5.348   6.086   5.394
 3281TIP3    H1 9807   5.254   6.102   5.380
 3281TIP3    H2 9808   5.368   6.132   5.475
 3282TIP3   OH2 9809   6.221   3.535   1.863
 3282TIP3    H1 9810   6.162   3.587   1.809
 3282TIP3    H2 9811   6.193   3.552   1.953
 3283TIP3   OH2 9812   6.911   5.712   2.703
 3283TIP3    H1 9813   6.977   5.670   2.648
 3283TIP3    H2 9814   6.831   5.710   2.651
 3284TIP3   OH2 9815   3.482   5.460   3.537
 3284TIP3    H1 9816   3.519   5.518   3.471
 3284TIP3    H2 9817   3.479   5.374   3.494
 3285TIP3   OH2 9818   2.148   4.359   0.902
 3285TIP3    H1 9819   2.166   4.447   0.870
 3285TIP3    H2 9820   2.124   4.309   0.824
 3286TIP3   OH2 9821   0.727   4.206   0.079
 3286TIP3    H1 9822   0.682   4.284   0.114
 3286TIP3    H2 9823   0.730   4.221  -0.015
 3287TIP3   OH2 9824   3.198   2.193   3.555
 3287TIP3    H1 9825   3.292   2.195   3.571
 3287TIP3    H2 9826   3.188   2.140   3.476
 3288TIP3   OH2 9827   0.249   3.284   3.528
 3288TIP3    H1 9828   0.162   3.245   3.540
 3288TIP3    H2 9829   0.278   3.303   3.617
 3289TIP3   OH2 9830   4.113   4.602   0.668
 3289TIP3    H1 9831   4.160   4.660   0.608
 3289TIP3    H2 9832   4.182   4.564   0.723
 3290TIP3   OH2 9833   2.943   5.604   3.925
 3290TIP3    H1 9834   2.944   5.533   3.989
 3290TIP3    H2 9835   2.873   5.581   3.864
 3291TIP3   OH2 9836   2.180   1.409   2.096
 3291TIP3    H1 9837   2.216   1.325   2.066
 3291TIP3    H2 9838   2.108   1.384   2.154
 3292TIP3   OH2 9839   2.906   5.457   1.643
 3292TIP3    H1 9840   2.822   5.418   1.622
 3292TIP3    H2 9841   2.886   5.521   1.711
 3293TIP3   OH2 9842   3.467   5.204   0.537
 3293TIP3    H1 9843   3.450   5.251   0.618
 3293TIP3    H2 9844   3.563   5.201   0.530
 3294TIP3   OH2 9845   3.103   2.139   2.207
 3294TIP3    H1 9846   3.169   2.110   2.144
 3294TIP3    H2 9847   3.074   2.224   2.173
 3295TIP3   OH2 9848   4.406   6.781   4.300
 3295TIP3    H1 9849   4.476   6.718   4.284
 3295TIP3    H2 9850   4.363   6.792   4.216
 3296TIP3   OH2 9851   0.368   4.542   1.955
 3296TIP3    H1 9852   0.405   4.480   2.018
 3296TIP3    H2 9853   0.374   4.627   1.999
 3297TIP3   OH2 9854   7.185   1.780   3.592
 3297TIP3    H1 9855   7.195   1.874   3.581
 3297TIP3    H2 9856   7.269   1.743   3.565
 3298TIP3   OH2 9857   5.794   2.127   5.406
 3298TIP3    H1 9858   5.747   2.054   5.446
 3298TIP3    H2 9859   5.727   2.195   5.397
 3299TIP3   OH2 9860   6.692   1.850   3.081
 3299TIP3    H1 9861   6.711   1.923   3.021
 3299TIP3    H2 9862   6.713   1.772   3.030
 3300TIP3   OH2 9863   1.638   0.253   4.137
 3300TIP3    H1 9864   1.559   0.221   4.093
 3300TIP3    H2 9865   1.604   0.306   4.209
 3301TIP3   OH2 9866   0.146   5.455   1.654
 3301TIP3    H1 9867   0.216   5.508   1.692
 3301TIP3    H2 9868   0.129   5.495   1.569
 3302TIP3   OH2 9869   3.502   2.888   2.413
 3302TIP3    H1 9870   3.565   2.841   2.358
 3302TIP3    H2 9871   3.475   2.824   2.479
 3303TIP3   OH2 9872   7.195   2.586   4.942
 3303TIP3    H1 9873   7.154   2.671   4.927
 3303TIP3    H2 9874   7.279   2.607   4.981
 3304TIP3   OH2 9875   6.062   1.486   1.097
 3304TIP3    H1 9876   5.970   1.492   1.122
 3304TIP3    H2 9877   6.096   1.575   1.112
 3305TIP3   OH2 9878   2.895   1.561   0.515
 3305TIP3    H1 9879   2.974   1.606   0.542
 3305TIP3    H2 9880   2.847   1.544   0.596
 3306TIP3   OH2 9881   0.588   6.274   3.238
 3306TIP3    H1 9882   0.626   6.186   3.236
 3306TIP3    H2 9883   0.500   6.262   3.274
 3307TIP3   OH2 9884   3.463   2.655   1.472
 3307TIP3    H1 9885   3.487   2.716   1.402
 3307TIP3    H2 9886   3.492   2.570   1.441
 3308TIP3   OH2 9887   4.069   5.212   5.299
 3308TIP3    H1 9888   4.035   5.138   5.248
 3308TIP3    H2 9889   4.148   5.238   5.253
 3309TIP3   OH2 9890   4.683   0.391   1.819
 3309TIP3    H1 9891   4.661   0.483   1.831
 3309TIP3    H2 9892   4.716   0.362   1.904
 3310TIP3   OH2 9893   1.382   5.023   3.127
 3310TIP3    H1 9894   1.373   4.945   3.181
 3310TIP3    H2 9895   1.350   5.095   3.182
 3311TIP3   OH2 9896   4.365   3.806   4.373
 3311TIP3    H1 9897   4.417   3.731   4.403
 3311TIP3    H2 9898   4.423   3.881   4.382
 3312TIP3   OH2 9899   4.382   0.559   0.170
 3312TIP3    H1 9900   4.412   0.471   0.191
 3312TIP3    H2 9901   4.378   0.603   0.255
 3313TIP3   OH2 9902   2.168   4.939   4.745
 3313TIP3    H1 9903   2.206   5.017   4.704
 3313TIP3    H2 9904   2.080   4.933   4.706
 3314TIP3   OH2 9905   3.998   3.300   0.718
 3314TIP3    H1 9906   4.064   3.258   0.773
 3314TIP3    H2 9907   4.005   3.393   0.740
 3315TIP3   OH2 9908   4.341   2.885   2.792
 3315TIP3    H1 9909   4.392   2.907   2.869
 3315TIP3    H2 9910   4.259   2.934   2.802
 3316TIP3   OH2 9911   2.943   4.021   2.748
 3316TIP3    H1 9912   2.981   4.045   2.664
 3316TIP3    H2 9913   2.915   3.930   2.737
 3317TIP3   OH2 9914   0.046   6.526   4.844
 3317TIP3    H1 9915   0.052   6.517   4.749
 3317TIP3    H2 9916   0.036   6.436   4.876
 3318TIP3   OH2 9917   2.754   4.973   2.467
 3318TIP3    H1 9918   2.709   4.890   2.480
 3318TIP3    H2 9919   2.783   4.999   2.554
 3319TIP3   OH2 9920   4.124   0.302   2.943
 3319TIP3    H1 9921   4.199   0.303   3.003
 3319TIP3    H2 9922   4.163   0.290   2.856
 3320TIP3   OH2 9923   5.903   3.639   3.478
 3320TIP3    H1 9924   5.884   3.619   3.569
 3320TIP3    H2 9925   5.842   3.584   3.428
 3321TIP3   OH2 9926   4.311   4.967   3.550
 3321TIP3    H1 9927   4.362   4.972   3.632
 3321TIP3    H2 9928   4.260   4.886   3.559
 3322TIP3   OH2 9929   2.462   0.603   2.351
 3322TIP3    H1 9930   2.500   0.609   2.264
 3322TIP3    H2 9931   2.390   0.541   2.342
 3323TIP3   OH2 9932   0.319   1.900   3.527
 3323TIP3    H1 9933   0.280   1.822   3.488
 3323TIP3    H2 9934   0.411   1.878   3.537
 3324TIP3   OH2 9935   5.369   1.012   4.253
 3324TIP3    H1 9936   5.323   1.040   4.174
 3324TIP3    H2 9937   5.440   0.957   4.221
 3325TIP3   OH2 9938   1.444   3.605   5.674
 3325TIP3    H1 9939   1.482   3.676   5.623
 3325TIP3    H2 9940   1.509   3.536   5.671
 3326TIP3   OH2 9941   6.309   5.269   0.757
 3326TIP3    H1 9942   6.383   5.254   0.816
 3326TIP3    H2 9943   6.339   5.336   0.696
 3327TIP3   OH2 9944   2.496   0.613   1.308
 3327TIP3    H1 9945   2.493   0.709   1.304
 3327TIP3    H2 9946   2.589   0.592   1.297
 3328TIP3   OH2 9947   1.426   3.975   0.928
 3328TIP3    H1 9948   1.480   3.941   0.999
 3328TIP3    H2 9949   1.337   3.945   0.949
 3329TIP3   OH2 9950   4.452   2.867   1.451
 3329TIP3    H1 9951   4.459   2.888   1.358
 3329TIP3    H2 9952   4.417   2.947   1.491
 3330TIP3   OH2 9953   2.086   4.071   2.695
 3330TIP3    H1 9954   2.021   4.027   2.641
 3330TIP3    H2 9955   2.080   4.029   2.780
 3331TIP3   OH2 9956   0.766   2.558   2.697
 3331TIP3    H1 9957   0.792   2.573   2.788
 3331TIP3    H2 9958   0.818   2.620   2.647
 3332TIP3   OH2 9959   6.937   0.523   1.931
 3332TIP3    H1 9960   6.898   0.566   1.856
 3332TIP3    H2 9961   6.889   0.441   1.940
 3333TIP3   OH2 9962   5.527   2.206   2.846
 3333TIP3    H1 9963   5.469   2.221   2.921
 3333TIP3    H2 9964   5.569   2.122   2.865
 3334TIP3   OH2 9965   6.444   3.742   3.345
 3334TIP3    H1 9966   6.357   3.753   3.385
 3334TIP3    H2 9967   6.427   3.691   3.265
 3335TIP3   OH2 9968   4.304   4.900   3.046
 3335TIP3    H1 9969   4.278   4.982   3.004
 3335TIP3    H2 9970   4.378   4.924   3.102
 3336TIP3   OH2 9971   0.166   4.419   1.776
 3336TIP3    H1 9972   0.240   4.405   1.835
 3336TIP3    H2 9973   0.204   4.464   1.700
 3337TIP3   OH2 9974   0.327   3.210   5.472
 3337TIP3    H1 9975   0.252   3.262   5.502
 3337TIP3    H2 9976   0.290   3.124   5.452
 3338TIP3   OH2 9977   4.072   1.539   4.440
 3338TIP3    H1 9978   4.163   1.555   4.414
 3338TIP3    H2 9979   4.079   1.503   4.528
 3339TIP3   OH2 9980   6.372   6.370   5.043
 3339TIP3    H1 9981   6.384   6.321   4.961
 3339TIP3    H2 9982   6.453   6.355   5.092
 3340TIP3   OH2 9983   3.111   1.063   1.527
 3340TIP3    H1 9984   3.185   1.053   1.587
 3340TIP3    H2 9985   3.129   1.145   1.481
 3341TIP3   OH2 9986   6.378   2.992   5.430
 3341TIP3    H1 9987   6.421   2.917   5.470
 3341TIP3    H2 9988   6.373   3.057   5.501
 3342TIP3   OH2 9989   6.131   6.595   1.773
 3342TIP3    H1 9990   6.114   6.648   1.851
 3342TIP3    H2 9991   6.216   6.627   1.741
 3343TIP3   OH2 9992   4.021   2.848   0.270
 3343TIP3    H1 9993   3.935   2.829   0.233
 3343TIP3    H2 9994   4.040   2.772   0.325
 3344TIP3   OH2 9995   3.073   5.042   5.843
 3344TIP3    H1 9996   3.082   5.047   5.938
 3344TIP3    H2 9997   3.124   4.964   5.819
 3345TIP3   OH2 9998   0.429   1.218   2.015
 3345TIP3    H1 9999   0.402   1.191   2.103
 3345TIP3    H210000   0.432   1.136   1.965
 3346TIP3   OH210001   2.109   3.549   1.970
 3346TIP3    H110002   2.030   3.567   2.020
 3346TIP3    H210003   2.144   3.636   1.948
 3347TIP3   OH210004   0.362   5.713   3.112
 3347TIP3    H110005   0.373   5.808   3.105
 3347TIP3    H210006   0.406   5.689   3.193
 3348TIP3   OH210007   7.135   1.907   4.170
 3348TIP3    H110008   7.228   1.928   4.178
 3348TIP3    H210009   7.129   1.863   4.085
 3349TIP3   OH210010   2.411   6.796   4.459
 3349TIP3    H110011   2.386   6.865   4.397
 3349TIP3    H210012   2.485   6.752   4.417
 3350TIP3   OH210013   1.881   0.230   4.945
 3350TIP3    H110014   1.914   0.153   4.991
 3350TIP3    H210015   1.851   0.288   5.015
 3351TIP3   OH210016   1.493   0.059   5.475
 3351TIP3    H110017   1.450  -0.027   5.472
 3351TIP3    H210018   1.571   0.045   5.529
 3352TIP3   OH210019   6.394   0.491   4.792
 3352TIP3    H110020   6.481   0.519   4.763
 3352TIP3    H210021   6.347   0.573   4.807
 3353TIP3   OH210022   5.445   5.350   3.565
 3353TIP3    H110023   5.351   5.366   3.553
 3353TIP3    H210024   5.467   5.286   3.497
 3354TIP3   OH210025   1.840   4.976   0.629
 3354TIP3    H110026   1.892   5.015   0.559
 3354TIP3    H210027   1.809   5.050   0.680
 3355TIP3   OH210028   3.548   3.892   3.437
 3355TIP3    H110029   3.639   3.873   3.414
 3355TIP3    H210030   3.502   3.895   3.353
 3356TIP3   OH210031   3.076   6.778   0.148
 3356TIP3    H110032   3.083   6.869   0.178
 3356TIP3    H210033   3.050   6.729   0.226
 3357TIP3   OH210034   0.213   1.667   3.483
 3357TIP3    H110035   0.210   1.600   3.552
 3357TIP3    H210036   0.191   1.619   3.403
 3358TIP3   OH210037   0.368   6.535   5.905
 3358TIP3    H110038   0.364   6.558   5.812
 3358TIP3    H210039   0.276   6.531   5.932
 3359TIP3   OH210040   4.505   4.629   5.105
 3359TIP3    H110041   4.597   4.631   5.130
 3359TIP3    H210042   4.479   4.537   5.117
 3360TIP3   OH210043   0.914   2.297   0.126
 3360TIP3    H110044   0.857   2.363   0.164
 3360TIP3    H210045   0.976   2.346   0.072
 3361TIP3   OH210046   3.868   3.972   2.087
 3361TIP3    H110047   3.935   4.039   2.099
 3361TIP3    H210048   3.909   3.905   2.033
 3362TIP3   OH210049  -0.004   2.477   1.031
 3362TIP3    H110050  -0.007   2.469   1.126
 3362TIP3    H210051   0.032   2.565   1.016
 3363TIP3   OH210052   0.891   5.156   5.527
 3363TIP3    H110053   0.849   5.100   5.462
 3363TIP3    H210054   0.821   5.183   5.586
 3364TIP3   OH210055   0.324   4.483   1.317
 3364TIP3    H110056   0.403   4.515   1.275
 3364TIP3    H210057   0.308   4.545   1.389
 3365TIP3   OH210058   2.782   1.529   0.759
 3365TIP3    H110059   2.844   1.490   0.820
 3365TIP3    H210060   2.731   1.590   0.813
 3366TIP3   OH210061   3.174   3.963   0.162
 3366TIP3    H110062   3.150   3.871   0.171
 3366TIP3    H210063   3.189   3.975   0.068
 3367TIP3   OH210064   2.618   5.701   3.974
 3367TIP3    H110065   2.638   5.614   4.008
 3367TIP3    H210066   2.539   5.727   4.021
 3368TIP3   OH210067   1.901   4.211   3.235
 3368TIP3    H110068   1.914   4.125   3.276
 3368TIP3    H210069   1.863   4.265   3.305
 3369TIP3   OH210070   0.548   1.278   1.752
 3369TIP3    H110071   0.618   1.316   1.805
 3369TIP3    H210072   0.523   1.199   1.798
 3370TIP3   OH210073   6.530   3.458   0.681
 3370TIP3    H110074   6.578   3.536   0.652
 3370TIP3    H210075   6.501   3.479   0.769
 3371TIP3   OH210076   2.186   1.219   5.879
 3371TIP3    H110077   2.267   1.263   5.855
 3371TIP3    H210078   2.154   1.267   5.954
 3372TIP3   OH210079   0.950   6.557   1.456
 3372TIP3    H110080   1.001   6.594   1.528
 3372TIP3    H210081   0.930   6.632   1.399
 3373TIP3   OH210082   6.789   0.824   3.387
 3373TIP3    H110083   6.769   0.741   3.343
 3373TIP3    H210084   6.746   0.817   3.472
 3374TIP3   OH210085   4.916   0.258   1.324
 3374TIP3    H110086   4.842   0.264   1.384
 3374TIP3    H210087   4.883   0.208   1.249
 3375TIP3   OH210088   3.604   1.463   2.692
 3375TIP3    H110089   3.647   1.385   2.657
 3375TIP3    H210090   3.580   1.514   2.614
 3376TIP3   OH210091   0.268   1.459   2.959
 3376TIP3    H110092   0.297   1.542   2.995
 3376TIP3    H210093   0.345   1.402   2.963
 3377TIP3   OH210094   2.746   5.224   3.246
 3377TIP3    H110095   2.695   5.143   3.240
 3377TIP3    H210096   2.812   5.207   3.313
 3378TIP3   OH210097   4.186   2.272   4.260
 3378TIP3    H110098   4.200   2.232   4.346
 3378TIP3    H210099   4.262   2.246   4.209
 3379TIP3   OH210100   2.206   0.833   0.062
 3379TIP3    H110101   2.148   0.871   0.128
 3379TIP3    H210102   2.280   0.797   0.113
 3380TIP3   OH210103   3.581   0.686   3.845
 3380TIP3    H110104   3.643   0.645   3.786
 3380TIP3    H210105   3.517   0.728   3.788
 3381TIP3   OH210106   4.719   4.476   0.711
 3381TIP3    H110107   4.737   4.429   0.630
 3381TIP3    H210108   4.785   4.546   0.713
 3382TIP3   OH210109   0.090   0.910   2.719
 3382TIP3    H110110   0.057   0.860   2.644
 3382TIP3    H210111   0.110   0.996   2.683
 3383TIP3   OH210112   2.375   4.076   0.250
 3383TIP3    H110113   2.398   4.024   0.327
 3383TIP3    H210114   2.452   4.071   0.194
 3384TIP3   OH210115   0.404   2.730   2.849
 3384TIP3    H110116   0.489   2.697   2.820
 3384TIP3    H210117   0.365   2.768   2.770
 3385TIP3   OH210118   7.003   1.946   1.308
 3385TIP3    H110119   7.031   1.912   1.223
 3385TIP3    H210120   6.932   1.888   1.335
 3386TIP3   OH210121   4.180   5.699   0.408
 3386TIP3    H110122   4.140   5.655   0.483
 3386TIP3    H210123   4.233   5.768   0.447
 3387TIP3   OH210124   4.446   5.536   3.859
 3387TIP3    H110125   4.456   5.625   3.825
 3387TIP3    H210126   4.523   5.489   3.828
 3388TIP3   OH210127   4.013   6.526   1.391
 3388TIP3    H110128   3.948   6.573   1.339
 3388TIP3    H210129   3.961   6.476   1.454
 3389TIP3   OH210130   3.890   5.755   5.922
 3389TIP3    H110131   3.833   5.741   5.847
 3389TIP3    H210132   3.952   5.682   5.919
 3390TIP3   OH210133   5.564   3.598   3.866
 3390TIP3    H110134   5.481   3.569   3.905
 3390TIP3    H210135   5.562   3.694   3.874
 3391TIP3   OH210136   5.849   3.207   4.509
 3391TIP3    H110137   5.754   3.199   4.518
 3391TIP3    H210138   5.884   3.158   4.583
 3392TIP3   OH210139   1.257   2.551   1.924
 3392TIP3    H110140   1.321   2.606   1.970
 3392TIP3    H210141   1.180   2.551   1.980
 3393TIP3   OH210142   0.699   2.714   0.981
 3393TIP3    H110143   0.788   2.741   1.003
 3393TIP3    H210144   0.702   2.618   0.980
 3394TIP3   OH210145   0.320   1.095   2.544
 3394TIP3    H110146   0.274   1.177   2.558
 3394TIP3    H210147   0.388   1.094   2.611
 3395TIP3   OH210148   0.080   1.009   0.310
 3395TIP3    H110149   0.088   0.917   0.335
 3395TIP3    H210150   0.145   1.021   0.240
 3396TIP3   OH210151   1.053   6.613   2.109
 3396TIP3    H110152   1.111   6.576   2.176
 3396TIP3    H210153   1.024   6.696   2.146
 3397TIP3   OH210154   7.220   1.708   3.181
 3397TIP3    H110155   7.146   1.672   3.131
 3397TIP3    H210156   7.180   1.743   3.260
 3398TIP3   OH210157   2.652   1.392   2.594
 3398TIP3    H110158   2.614   1.351   2.672
 3398TIP3    H210159   2.582   1.387   2.529
 3399TIP3   OH210160   5.955   1.514   4.824
 3399TIP3    H110161   5.991   1.591   4.867
 3399TIP3    H210162   5.964   1.443   4.888
 3400TIP3   OH210163   3.610   3.098   4.351
 3400TIP3    H110164   3.614   3.004   4.373
 3400TIP3    H210165   3.518   3.114   4.329
 3401TIP3   OH210166   1.596   3.297   1.006
 3401TIP3    H110167   1.552   3.381   1.011
 3401TIP3    H210168   1.684   3.317   0.975
 3402TIP3   OH210169   0.779   5.317   2.480
 3402TIP3    H110170   0.817   5.287   2.397
 3402TIP3    H210171   0.840   5.286   2.547
 3403TIP3   OH210172   0.658   0.104   0.262
 3403TIP3    H110173   0.679   0.010   0.264
 3403TIP3    H210174   0.644   0.123   0.169
 3404TIP3   OH210175   4.264   5.454   2.024
 3404TIP3    H110176   4.305   5.532   2.062
 3404TIP3    H210177   4.192   5.489   1.971
 3405TIP3   OH210178   3.166   6.597   1.334
 3405TIP3    H110179   3.261   6.612   1.337
 3405TIP3    H210180   3.156   6.522   1.276
 3406TIP3   OH210181   0.525   1.841   1.073
 3406TIP3    H110182   0.464   1.811   1.140
 3406TIP3    H210183   0.579   1.906   1.117
 3407TIP3   OH210184   1.042   4.837   2.246
 3407TIP3    H110185   1.076   4.754   2.212
 3407TIP3    H210186   1.071   4.903   2.183
 3408TIP3   OH210187   3.325   5.438   1.853
 3408TIP3    H110188   3.325   5.380   1.776
 3408TIP3    H210189   3.414   5.434   1.886
 3409TIP3   OH210190   4.802   2.959   0.659
 3409TIP3    H110191   4.754   2.918   0.731
 3409TIP3    H210192   4.739   3.018   0.618
 3410TIP3   OH210193   5.646   3.792   2.312
 3410TIP3    H110194   5.602   3.837   2.384
 3410TIP3    H210195   5.721   3.749   2.353
 3411TIP3   OH210196   6.495   3.904   2.561
 3411TIP3    H110197   6.434   3.978   2.567
 3411TIP3    H210198   6.464   3.853   2.486
 3412TIP3   OH210199   4.198   2.418   2.061
 3412TIP3    H110200   4.266   2.425   2.128
 3412TIP3    H210201   4.197   2.503   2.017
 3413TIP3   OH210202   6.775   1.607   1.682
 3413TIP3    H110203   6.741   1.697   1.687
 3413TIP3    H210204   6.728   1.568   1.609
 3414TIP3   OH210205   0.671   3.945   1.119
 3414TIP3    H110206   0.730   3.999   1.172
 3414TIP3    H210207   0.695   3.966   1.029
 3415TIP3   OH210208   0.040   4.758   0.894
 3415TIP3    H110209   0.038   4.672   0.852
 3415TIP3    H210210   0.037   4.820   0.821
 3416TIP3   OH210211   4.056   0.817   5.587
 3416TIP3    H110212   4.096   0.877   5.524
 3416TIP3    H210213   4.101   0.835   5.670
 3417TIP3   OH210214   3.432   2.472   3.714
 3417TIP3    H110215   3.525   2.490   3.702
 3417TIP3    H210216   3.394   2.484   3.626
 3418TIP3   OH210217   0.634   2.634   3.111
 3418TIP3    H110218   0.582   2.699   3.065
 3418TIP3    H210219   0.590   2.551   3.095
 3419TIP3   OH210220   4.429   1.925   0.309
 3419TIP3    H110221   4.467   1.851   0.356
 3419TIP3    H210222   4.503   1.971   0.270
 3420TIP3   OH210223   2.012   6.753   0.560
 3420TIP3    H110224   2.083   6.812   0.534
 3420TIP3    H210225   2.004   6.692   0.487
 3421TIP3   OH210226   4.053   6.513   4.705
 3421TIP3    H110227   4.007   6.575   4.648
 3421TIP3    H210228   4.024   6.427   4.675
 3422TIP3   OH210229   6.149   6.480   4.652
 3422TIP3    H110230   6.242   6.496   4.666
 3422TIP3    H210231   6.124   6.539   4.581
 3423TIP3   OH210232   7.079   6.175   3.077
 3423TIP3    H110233   7.136   6.099   3.067
 3423TIP3    H210234   7.064   6.206   2.988
 3424TIP3   OH210235   6.002   4.662   2.225
 3424TIP3    H110236   5.910   4.643   2.207
 3424TIP3    H210237   6.033   4.586   2.275
 3425TIP3   OH210238   7.212   1.237   3.355
 3425TIP3    H110239   7.197   1.143   3.347
 3425TIP3    H210240   7.245   1.249   3.444
 3426TIP3   OH210241   4.428   1.199   1.166
 3426TIP3    H110242   4.349   1.147   1.151
 3426TIP3    H210243   4.432   1.210   1.261
 3427TIP3   OH210244   2.141   2.948   5.426
 3427TIP3    H110245   2.084   2.936   5.351
 3427TIP3    H210246   2.083   2.982   5.495
 3428TIP3   OH210247   4.670   2.340   2.518
 3428TIP3    H110248   4.713   2.279   2.459
 3428TIP3    H210249   4.577   2.330   2.500
 3429TIP3   OH210250   2.647   2.449   5.361
 3429TIP3    H110251   2.710   2.460   5.432
 3429TIP3    H210252   2.590   2.526   5.367
 3430TIP3   OH210253   5.160   6.530   0.056
 3430TIP3    H110254   5.120   6.505   0.140
 3430TIP3    H210255   5.098   6.499  -0.010
 3431TIP3   OH210256   6.379   0.804   4.873
 3431TIP3    H110257   6.366   0.742   4.945
 3431TIP3    H210258   6.309   0.868   4.883
 3432TIP3   OH210259   4.665   2.661   3.951
 3432TIP3    H110260   4.699   2.733   4.004
 3432TIP3    H210261   4.575   2.685   3.932
 3433TIP3   OH210262   1.027   2.688   5.358
 3433TIP3    H110263   0.946   2.729   5.388
 3433TIP3    H210264   1.084   2.761   5.336
 3434TIP3   OH210265   5.473   2.965   3.274
 3434TIP3    H110266   5.438   3.045   3.236
 3434TIP3    H210267   5.483   2.985   3.367
 3435TIP3   OH210268   4.116   0.359   0.379
 3435TIP3    H110269   4.138   0.267   0.394
 3435TIP3    H210270   4.020   0.362   0.388
 3436TIP3   OH210271   6.971   3.919   1.600
 3436TIP3    H110272   6.939   3.843   1.550
 3436TIP3    H210273   7.001   3.981   1.533
 3437TIP3   OH210274   1.527   2.466   1.069
 3437TIP3    H110275   1.592   2.495   1.132
 3437TIP3    H210276   1.578   2.434   0.995
 3438TIP3   OH210277   1.571   0.141   2.543
 3438TIP3    H110278   1.565   0.211   2.477
 3438TIP3    H210279   1.567   0.187   2.627
 3439TIP3   OH210280   2.530   0.269   2.428
 3439TIP3    H110281   2.545   0.176   2.410
 3439TIP3    H210282   2.495   0.270   2.518
 3440TIP3   OH210283   3.192   1.304   4.278
 3440TIP3    H110284   3.193   1.220   4.324
 3440TIP3    H210285   3.180   1.280   4.186
 3441TIP3   OH210286   4.436   0.283   4.446
 3441TIP3    H110287   4.353   0.263   4.402
 3441TIP3    H210288   4.418   0.361   4.498
 3442TIP3   OH210289   5.378   4.442   1.450
 3442TIP3    H110290   5.290   4.422   1.418
 3442TIP3    H210291   5.385   4.537   1.443
 3443TIP3   OH210292   5.621   1.878   5.529
 3443TIP3    H110293   5.579   1.793   5.533
 3443TIP3    H210294   5.637   1.893   5.436
 3444TIP3   OH210295   3.597   2.526   3.195
 3444TIP3    H110296   3.659   2.499   3.128
 3444TIP3    H210297   3.512   2.522   3.152
 3445TIP3   OH210298   3.092   4.268   1.402
 3445TIP3    H110299   3.182   4.278   1.433
 3445TIP3    H210300   3.043   4.242   1.480
 3446TIP3   OH210301   4.899   5.086   3.786
 3446TIP3    H110302   4.987   5.067   3.753
 3446TIP3    H210303   4.912   5.158   3.848
 3447TIP3   OH210304   2.765   0.644   1.289
 3447TIP3    H110305   2.854   0.680   1.292
 3447TIP3    H210306   2.734   0.666   1.201
 3448TIP3   OH210307   1.888   6.310   5.718
 3448TIP3    H110308   1.799   6.300   5.684
 3448TIP3    H210309   1.877   6.344   5.806
 3449TIP3   OH210310   6.805   3.336   0.424
 3449TIP3    H110311   6.741   3.407   0.426
 3449TIP3    H210312   6.808   3.308   0.332
 3450TIP3   OH210313   4.395   1.495   1.651
 3450TIP3    H110314   4.362   1.407   1.671
 3450TIP3    H210315   4.361   1.550   1.722
 3451TIP3   OH210316   4.160   6.283   1.255
 3451TIP3    H110317   4.122   6.202   1.287
 3451TIP3    H210318   4.091   6.349   1.267
 3452TIP3   OH210319   7.008   6.646   5.176
 3452TIP3    H110320   7.035   6.575   5.234
 3452TIP3    H210321   7.087   6.698   5.163
 3453TIP3   OH210322   1.014   1.288   0.145
 3453TIP3    H110323   1.074   1.320   0.213
 3453TIP3    H210324   1.030   1.345   0.070
 3454TIP3   OH210325   6.060   6.691   1.174
 3454TIP3    H110326   6.092   6.600   1.177
 3454TIP3    H210327   5.992   6.690   1.107
 3455TIP3   OH210328   6.976   2.066   3.098
 3455TIP3    H110329   6.985   2.153   3.137
 3455TIP3    H210330   6.932   2.081   3.015
 3456TIP3   OH210331   1.022   4.024   3.909
 3456TIP3    H110332   0.969   3.948   3.885
 3456TIP3    H210333   0.998   4.044   3.999
 3457TIP3   OH210334   5.109   0.746   4.453
 3457TIP3    H110335   5.049   0.795   4.397
 3457TIP3    H210336   5.148   0.812   4.510
 3458TIP3   OH210337   0.907   2.352   4.756
 3458TIP3    H110338   0.871   2.359   4.845
 3458TIP3    H210339   0.994   2.390   4.763
 3459TIP3   OH210340   2.361   1.630   0.529
 3459TIP3    H110341   2.436   1.589   0.487
 3459TIP3    H210342   2.327   1.563   0.589
 3460TIP3   OH210343   6.574   0.343   0.467
 3460TIP3    H110344   6.604   0.375   0.381
 3460TIP3    H210345   6.550   0.423   0.514
 3461TIP3   OH210346   3.479   4.565   3.428
 3461TIP3    H110347   3.470   4.481   3.472
 3461TIP3    H210348   3.389   4.594   3.412
 3462TIP3   OH210349   5.454   4.720   3.965
 3462TIP3    H110350   5.370   4.760   3.990
 3462TIP3    H210351   5.511   4.734   4.041
 3463TIP3   OH210352   1.051   0.460   5.030
 3463TIP3    H110353   0.974   0.466   5.087
 3463TIP3    H210354   1.086   0.373   5.048
 3464TIP3   OH210355   6.501   3.459   2.165
 3464TIP3    H110356   6.587   3.485   2.198
 3464TIP3    H210357   6.473   3.390   2.225
 3465TIP3   OH210358   2.556   4.810   2.875
 3465TIP3    H110359   2.504   4.731   2.891
 3465TIP3    H210360   2.514   4.878   2.926
 3466TIP3   OH210361   4.284   2.746   1.642
 3466TIP3    H110362   4.287   2.725   1.549
 3466TIP3    H210363   4.307   2.839   1.647
 3467TIP3   OH210364   7.154   2.825   3.911
 3467TIP3    H110365   7.179   2.918   3.913
 3467TIP3    H210366   7.113   2.813   3.825
 3468TIP3   OH210367   6.818   6.445   4.344
 3468TIP3    H110368   6.789   6.513   4.282
 3468TIP3    H210369   6.737   6.405   4.375
 3469TIP3   OH210370   2.001   3.868   5.206
 3469TIP3    H110371   1.946   3.894   5.279
 3469TIP3    H210372   2.041   3.949   5.175
 3470TIP3   OH210373   3.643   3.510   0.613
 3470TIP3    H110374   3.569   3.462   0.650
 3470TIP3    H210375   3.699   3.531   0.688
 3471TIP3   OH210376   2.041   4.245   0.669
 3471TIP3    H110377   2.049   4.170   0.610
 3471TIP3    H210378   2.034   4.321   0.610
 3472TIP3   OH210379   1.484   1.377   4.730
 3472TIP3    H110380   1.549   1.440   4.761
 3472TIP3    H210381   1.410   1.386   4.791
 3473TIP3   OH210382   1.375   2.154   5.535
 3473TIP3    H110383   1.444   2.116   5.590
 3473TIP3    H210384   1.315   2.195   5.596
 3474TIP3   OH210385   1.517   4.762   4.457
 3474TIP3    H110386   1.465   4.682   4.458
 3474TIP3    H210387   1.605   4.734   4.433
 3475TIP3   OH210388   1.814   5.785   5.716
 3475TIP3    H110389   1.744   5.732   5.677
 3475TIP3    H210390   1.785   5.875   5.704
 3476TIP3   OH210391   3.170   3.118   1.688
 3476TIP3    H110392   3.085   3.095   1.724
 3476TIP3    H210393   3.231   3.057   1.730
 3477TIP3   OH210394   2.140   0.999   1.186
 3477TIP3    H110395   2.230   0.994   1.154
 3477TIP3    H210396   2.149   1.009   1.280
 3478TIP3   OH210397   2.172   0.666   1.626
 3478TIP3    H110398   2.195   0.645   1.535
 3478TIP3    H210399   2.178   0.582   1.672
 3479TIP3   OH210400   3.133   5.987   1.494
 3479TIP3    H110401   3.127   5.936   1.574
 3479TIP3    H210402   3.176   6.069   1.521
 3480TIP3   OH210403   2.741   1.884   4.069
 3480TIP3    H110404   2.646   1.868   4.067
 3480TIP3    H210405   2.778   1.807   4.111
 3481TIP3   OH210406   7.165   6.576   1.378
 3481TIP3    H110407   7.256   6.564   1.351
 3481TIP3    H210408   7.168   6.642   1.446
 3482TIP3   OH210409   3.964   2.865   4.233
 3482TIP3    H110410   3.881   2.875   4.187
 3482TIP3    H210411   3.975   2.771   4.243
 3483TIP3   OH210412   0.157   0.750   0.276
 3483TIP3    H110413   0.229   0.739   0.214
 3483TIP3    H210414   0.114   0.664   0.279
 3484TIP3   OH210415   3.040   4.710   4.000
 3484TIP3    H110416   2.968   4.773   4.006
 3484TIP3    H210417   3.112   4.758   3.960
 3485TIP3   OH210418   0.270   4.181   4.836
 3485TIP3    H110419   0.351   4.206   4.880
 3485TIP3    H210420   0.201   4.215   4.893
 3486TIP3   OH210421   6.945   3.766   0.403
 3486TIP3    H110422   6.871   3.772   0.463
 3486TIP3    H210423   6.991   3.686   0.429
 3487TIP3   OH210424   5.268   5.912   1.031
 3487TIP3    H110425   5.344   5.889   0.977
 3487TIP3    H210426   5.303   5.918   1.120
 3488TIP3   OH210427   0.973   5.820   2.539
 3488TIP3    H110428   0.990   5.744   2.484
 3488TIP3    H210429   0.918   5.877   2.485
 3489TIP3   OH210430   1.952   4.415   1.081
 3489TIP3    H110431   1.873   4.364   1.063
 3489TIP3    H210432   2.021   4.372   1.031
 3490TIP3   OH210433   5.588   5.700   3.118
 3490TIP3    H110434   5.568   5.778   3.170
 3490TIP3    H210435   5.587   5.628   3.181
 3491TIP3   OH210436   5.228   4.271   1.094
 3491TIP3    H110437   5.174   4.309   1.024
 3491TIP3    H210438   5.208   4.324   1.171
 3492TIP3   OH210439   5.293   6.290   0.551
 3492TIP3    H110440   5.321   6.211   0.505
 3492TIP3    H210441   5.338   6.361   0.505
 3493TIP3   OH210442   0.677   0.680   5.105
 3493TIP3    H110443   0.649   0.771   5.109
 3493TIP3    H210444   0.727   0.667   5.185
 3494TIP3   OH210445   0.342   2.913   5.775
 3494TIP3    H110446   0.432   2.881   5.776
 3494TIP3    H210447   0.316   2.906   5.683
 3495TIP3   OH210448   3.997   3.376   2.969
 3495TIP3    H110449   3.907   3.365   2.941
 3495TIP3    H210450   4.017   3.468   2.952
 3496TIP3   OH210451   5.181   0.120   3.166
 3496TIP3    H110452   5.258   0.133   3.222
 3496TIP3    H210453   5.183   0.194   3.106
 3497TIP3   OH210454   1.729   4.985   1.327
 3497TIP3    H110455   1.641   5.018   1.308
 3497TIP3    H210456   1.724   4.952   1.417
 3498TIP3   OH210457   4.061   0.081   4.441
 3498TIP3    H110458   4.115   0.007   4.413
 3498TIP3    H210459   3.993   0.041   4.497
 3499TIP3   OH210460   7.077   3.563   0.574
 3499TIP3    H110461   7.160   3.602   0.601
 3499TIP3    H210462   7.102   3.481   0.530
 3500TIP3   OH210463   3.620   6.020   5.263
 3500TIP3    H110464   3.689   6.082   5.241
 3500TIP3    H210465   3.659   5.934   5.248
 3501TIP3   OH210466   4.995   3.062   1.740
 3501TIP3    H110467   5.033   3.033   1.657
 3501TIP3    H210468   4.924   3.121   1.715
 3502TIP3   OH210469   1.932   0.660   5.407
 3502TIP3    H110470   1.880   0.608   5.345
 3502TIP3    H210471   1.875   0.733   5.431
 3503TIP3   OH210472   3.840   2.443   3.093
 3503TIP3    H110473   3.860   2.413   3.004
 3503TIP3    H210474   3.857   2.366   3.148
 3504TIP3   OH210475   2.532   0.909   1.489
 3504TIP3    H110476   2.594   0.861   1.544
 3504TIP3    H210477   2.580   0.925   1.408
 3505TIP3   OH210478   6.707   4.020   5.592
 3505TIP3    H110479   6.647   3.994   5.523
 3505TIP3    H210480   6.692   3.958   5.663
 3506TIP3   OH210481   2.198   5.471   1.965
 3506TIP3    H110482   2.164   5.390   2.003
 3506TIP3    H210483   2.210   5.530   2.040
 3507TIP3   OH210484   2.897   4.665   1.863
 3507TIP3    H110485   2.857   4.588   1.824
 3507TIP3    H210486   2.857   4.739   1.819
 3508TIP3   OH210487   3.112   5.257   2.326
 3508TIP3    H110488   3.146   5.321   2.263
 3508TIP3    H210489   3.033   5.223   2.285
 3509TIP3   OH210490   1.009   1.434   5.277
 3509TIP3    H110491   0.950   1.367   5.241
 3509TIP3    H210492   0.989   1.513   5.227
 3510TIP3   OH210493   6.811   1.747   1.356
 3510TIP3    H110494   6.728   1.789   1.338
 3510TIP3    H210495   6.809   1.666   1.305
 3511TIP3   OH210496   3.243   1.913   3.985
 3511TIP3    H110497   3.187   1.878   3.917
 3511TIP3    H210498   3.233   2.008   3.977
 3512TIP3   OH210499   1.603   6.710   3.201
 3512TIP3    H110500   1.518   6.683   3.235
 3512TIP3    H210501   1.611   6.666   3.116
 3513TIP3   OH210502   6.575   0.202   5.680
 3513TIP3    H110503   6.494   0.226   5.634
 3513TIP3    H210504   6.545   0.165   5.762
 3514TIP3   OH210505   2.459   4.549   2.718
 3514TIP3    H110506   2.385   4.497   2.688
 3514TIP3    H210507   2.520   4.485   2.755
 3515TIP3   OH210508   6.088   1.223   4.570
 3515TIP3    H110509   6.153   1.233   4.639
 3515TIP3    H210510   6.067   1.313   4.543
 3516TIP3   OH210511   0.226   4.961   0.658
 3516TIP3    H110512   0.319   4.957   0.681
 3516TIP3    H210513   0.211   5.053   0.638
 3517TIP3   OH210514   5.063   1.060   0.819
 3517TIP3    H110515   5.151   1.046   0.783
 3517TIP3    H210516   5.043   1.151   0.797
 3518TIP3   OH210517   0.998   1.523   2.158
 3518TIP3    H110518   0.912   1.482   2.152
 3518TIP3    H210519   0.987   1.609   2.115
 3519TIP3   OH210520   5.117   1.289   0.244
 3519TIP3    H110521   5.099   1.298   0.150
 3519TIP3    H210522   5.129   1.379   0.275
 3520TIP3   OH210523   2.290   5.404   3.169
 3520TIP3    H110524   2.210   5.439   3.128
 3520TIP3    H210525   2.268   5.398   3.261
 3521TIP3   OH210526   4.073   6.029   0.025
 3521TIP3    H110527   3.987   6.008  -0.012
 3521TIP3    H210528   4.121   5.946   0.023
 3522TIP3   OH210529   3.452   3.924   4.356
 3522TIP3    H110530   3.428   3.847   4.305
 3522TIP3    H210531   3.452   3.895   4.447
 3523TIP3   OH210532   5.139   3.599   1.169
 3523TIP3    H110533   5.111   3.577   1.081
 3523TIP3    H210534   5.136   3.516   1.216
 3524TIP3   OH210535  -0.006   3.296   0.540
 3524TIP3    H110536  -0.010   3.217   0.594
 3524TIP3    H210537   0.050   3.356   0.588
 3525TIP3   OH210538   2.201   1.841   4.583
 3525TIP3    H110539   2.245   1.762   4.554
 3525TIP3    H210540   2.185   1.890   4.502
 3526TIP3   OH210541   0.633   1.692   3.744
 3526TIP3    H110542   0.614   1.650   3.660
 3526TIP3    H210543   0.580   1.772   3.742
 3527TIP3   OH210544   2.542   1.305   2.834
 3527TIP3    H110545   2.538   1.273   2.925
 3527TIP3    H210546   2.559   1.399   2.843
 3528TIP3   OH210547   0.165   2.572   2.817
 3528TIP3    H110548   0.112   2.553   2.895
 3528TIP3    H210549   0.243   2.615   2.851
 3529TIP3   OH210550   4.300   0.139   3.370
 3529TIP3    H110551   4.321   0.227   3.340
 3529TIP3    H210552   4.291   0.147   3.465
 3530TIP3   OH210553   1.609   2.771   0.862
 3530TIP3    H110554   1.666   2.847   0.871
 3530TIP3    H210555   1.659   2.711   0.806
 3531TIP3   OH210556   4.812   4.102   1.919
 3531TIP3    H110557   4.874   4.090   1.846
 3531TIP3    H210558   4.774   4.016   1.933
 3532TIP3   OH210559   0.166   2.750   1.280
 3532TIP3    H110560   0.122   2.665   1.286
 3532TIP3    H210561   0.202   2.764   1.368
 3533TIP3   OH210562   6.135   6.667   5.726
 3533TIP3    H110563   6.124   6.654   5.632
 3533TIP3    H210564   6.048   6.689   5.758
 3534TIP3   OH210565   1.662   0.487   0.973
 3534TIP3    H110566   1.717   0.415   0.943
 3534TIP3    H210567   1.702   0.565   0.934
 3535TIP3   OH210568   5.926   0.613   2.310
 3535TIP3    H110569   5.963   0.528   2.285
 3535TIP3    H210570   5.998   0.675   2.294
 3536TIP3   OH210571   4.719   6.552   1.248
 3536TIP3    H110572   4.649   6.578   1.187
 3536TIP3    H210573   4.686   6.472   1.289
 3537TIP3   OH210574   6.197   1.079   2.261
 3537TIP3    H110575   6.157   1.161   2.291
 3537TIP3    H210576   6.228   1.099   2.173
 3538TIP3   OH210577   5.287   6.432   4.051
 3538TIP3    H110578   5.323   6.350   4.087
 3538TIP3    H210579   5.193   6.415   4.043
 3539TIP3   OH210580   0.534   3.284   1.412
 3539TIP3    H110581   0.592   3.208   1.415
 3539TIP3    H210582   0.451   3.252   1.447
 3540TIP3   OH210583   4.623   3.383   0.018
 3540TIP3    H110584   4.709   3.389   0.059
 3540TIP3    H210585   4.595   3.292   0.031
 3541TIP3   OH210586   3.141   1.592   0.837
 3541TIP3    H110587   3.088   1.516   0.859
 3541TIP3    H210588   3.202   1.601   0.911
 3542TIP3   OH210589   6.522   2.974   3.448
 3542TIP3    H110590   6.450   3.016   3.494
 3542TIP3    H210591   6.566   2.922   3.514
 3543TIP3   OH210592   2.216   1.445   5.634
 3543TIP3    H110593   2.281   1.410   5.695
 3543TIP3    H210594   2.256   1.437   5.548
 3544TIP3   OH210595   5.693   3.222   3.821
 3544TIP3    H110596   5.678   3.252   3.911
 3544TIP3    H210597   5.662   3.293   3.766
 3545TIP3   OH210598   5.655   0.028   3.093
 3545TIP3    H110599   5.635   0.038   3.186
 3545TIP3    H210600   5.574  -0.005   3.054
 3546TIP3   OH210601   0.288   4.728   5.463
 3546TIP3    H110602   0.353   4.684   5.410
 3546TIP3    H210603   0.269   4.667   5.535
 3547TIP3   OH210604   5.663   5.970   0.106
 3547TIP3    H110605   5.567   5.969   0.114
 3547TIP3    H210606   5.693   5.912   0.177
 3548TIP3   OH210607   1.003   0.144   4.774
 3548TIP3    H110608   1.061   0.069   4.785
 3548TIP3    H210609   0.942   0.117   4.705
 3549TIP3   OH210610   5.531   2.198   5.573
 3549TIP3    H110611   5.517   2.192   5.478
 3549TIP3    H210612   5.554   2.290   5.588
 3550TIP3   OH210613   5.172   2.323   0.298
 3550TIP3    H110614   5.180   2.408   0.340
 3550TIP3    H210615   5.164   2.261   0.370
 3551TIP3   OH210616   0.635   6.267   4.698
 3551TIP3    H110617   0.693   6.235   4.768
 3551TIP3    H210618   0.650   6.362   4.697
 3552TIP3   OH210619   2.953   0.756   2.817
 3552TIP3    H110620   2.900   0.754   2.737
 3552TIP3    H210621   2.902   0.807   2.879
 3553TIP3   OH210622   5.045   5.317   1.325
 3553TIP3    H110623   4.967   5.279   1.286
 3553TIP3    H210624   5.118   5.278   1.277
 3554TIP3   OH210625   1.396   5.542   2.111
 3554TIP3    H110626   1.452   5.526   2.035
 3554TIP3    H210627   1.454   5.577   2.178
 3555TIP3   OH210628   2.561   2.712   5.364
 3555TIP3    H110629   2.512   2.747   5.439
 3555TIP3    H210630   2.626   2.779   5.344
 3556TIP3   OH210631   3.484   2.459   4.881
 3556TIP3    H110632   3.456   2.530   4.823
 3556TIP3    H210633   3.502   2.502   4.964
 3557TIP3   OH210634   1.747   2.954   2.311
 3557TIP3    H110635   1.831   2.918   2.339
 3557TIP3    H210636   1.751   3.046   2.337
 3558TIP3   OH210637   5.379   0.371   5.802
 3558TIP3    H110638   5.380   0.453   5.851
 3558TIP3    H210639   5.429   0.389   5.723
 3559TIP3   OH210640   6.953   5.081   5.638
 3559TIP3    H110641   6.861   5.089   5.666
 3559TIP3    H210642   7.002   5.129   5.704
 3560TIP3   OH210643   6.323   5.065   3.010
 3560TIP3    H110644   6.318   5.147   3.057
 3560TIP3    H210645   6.371   5.086   2.930
 3561TIP3   OH210646   2.771   2.795   1.073
 3561TIP3    H110647   2.767   2.743   1.153
 3561TIP3    H210648   2.687   2.840   1.069
 3562TIP3   OH210649   6.216   0.798   1.885
 3562TIP3    H110650   6.294   0.798   1.829
 3562TIP3    H210651   6.249   0.789   1.974
 3563TIP3   OH210652   6.825   1.544   1.152
 3563TIP3    H110653   6.832   1.501   1.067
 3563TIP3    H210654   6.884   1.495   1.209
 3564TIP3   OH210655   3.899   1.893   2.679
 3564TIP3    H110656   3.918   1.968   2.624
 3564TIP3    H210657   3.969   1.893   2.745
 3565TIP3   OH210658   5.355   5.171   3.943
 3565TIP3    H110659   5.339   5.125   4.025
 3565TIP3    H210660   5.365   5.263   3.968
 3566TIP3   OH210661   6.051  -0.007   1.641
 3566TIP3    H110662   5.972  -0.015   1.695
 3566TIP3    H210663   6.067   0.087   1.636
 3567TIP3   OH210664   3.610   6.640   2.206
 3567TIP3    H110665   3.615   6.718   2.263
 3567TIP3    H210666   3.614   6.675   2.117
 3568TIP3   OH210667   2.187   5.580   4.009
 3568TIP3    H110668   2.228   5.657   4.049
 3568TIP3    H210669   2.143   5.536   4.082
 3569TIP3   OH210670   4.386   3.627   3.462
 3569TIP3    H110671   4.300   3.633   3.503
 3569TIP3    H210672   4.427   3.712   3.480
 3570TIP3   OH210673   5.419   2.227   3.112
 3570TIP3    H110674   5.426   2.158   3.178
 3570TIP3    H210675   5.483   2.293   3.140
 3571TIP3   OH210676   2.599   6.052   3.730
 3571TIP3    H110677   2.615   6.109   3.805
 3571TIP3    H210678   2.608   6.110   3.654
 3572TIP3   OH210679   4.105   5.527   0.614
 3572TIP3    H110680   4.116   5.433   0.601
 3572TIP3    H210681   4.109   5.540   0.709
 3573TIP3   OH210682   3.031   3.735   0.950
 3573TIP3    H110683   3.041   3.829   0.932
 3573TIP3    H210684   2.942   3.727   0.984
 3574TIP3   OH210685   0.550   3.094   2.294
 3574TIP3    H110686   0.625   3.129   2.246
 3574TIP3    H210687   0.560   3.127   2.382
 3575TIP3   OH210688   1.802   0.128   4.684
 3575TIP3    H110689   1.873   0.142   4.747
 3575TIP3    H210690   1.847   0.111   4.601
 3576TIP3   OH210691   1.699   5.622   4.358
 3576TIP3    H110692   1.730   5.588   4.443
 3576TIP3    H210693   1.712   5.549   4.297
 3577TIP3   OH210694   1.363   1.941   1.340
 3577TIP3    H110695   1.387   1.849   1.350
 3577TIP3    H210696   1.317   1.945   1.256
 3578TIP3   OH210697   4.082   2.935   1.505
 3578TIP3    H110698   4.006   2.991   1.491
 3578TIP3    H210699   4.147   2.993   1.546
 3579TIP3   OH210700   4.263   1.054   3.478
 3579TIP3    H110701   4.279   0.990   3.548
 3579TIP3    H210702   4.336   1.115   3.484
 3580TIP3   OH210703   1.894   1.751   1.766
 3580TIP3    H110704   1.889   1.846   1.756
 3580TIP3    H210705   1.808   1.720   1.739
 3581TIP3   OH210706   5.342   1.276   5.645
 3581TIP3    H110707   5.322   1.323   5.726
 3581TIP3    H210708   5.410   1.329   5.603
 3582TIP3   OH210709   0.128   0.996   3.592
 3582TIP3    H110710   0.045   0.948   3.599
 3582TIP3    H210711   0.102   1.088   3.589
 3583TIP3   OH210712   7.156   6.827   3.488
 3583TIP3    H110713   7.176   6.734   3.488
 3583TIP3    H210714   7.165   6.853   3.580
 3584TIP3   OH210715   4.681   1.336   0.268
 3584TIP3    H110716   4.721   1.264   0.219
 3584TIP3    H210717   4.592   1.305   0.287
 3585TIP3   OH210718   3.794   2.043   5.024
 3585TIP3    H110719   3.838   2.110   4.972
 3585TIP3    H210720   3.786   2.081   5.111
 3586TIP3   OH210721   7.224   1.350   1.604
 3586TIP3    H110722   7.173   1.429   1.624
 3586TIP3    H210723   7.246   1.313   1.689
 3587TIP3   OH210724   2.471   0.604   4.230
 3587TIP3    H110725   2.401   0.667   4.247
 3587TIP3    H210726   2.429   0.518   4.238
 3588TIP3   OH210727   2.382   6.194   1.949
 3588TIP3    H110728   2.331   6.272   1.971
 3588TIP3    H210729   2.467   6.228   1.922
 3589TIP3   OH210730   0.673   4.203   0.697
 3589TIP3    H110731   0.604   4.140   0.675
 3589TIP3    H210732   0.627   4.272   0.744
 3590TIP3   OH210733   6.302   4.988   4.647
 3590TIP3    H110734   6.328   4.909   4.694
 3590TIP3    H210735   6.308   4.964   4.555
 3591TIP3   OH210736   6.896   3.721   0.796
 3591TIP3    H110737   6.952   3.654   0.758
 3591TIP3    H210738   6.901   3.707   0.890
 3592TIP3   OH210739   0.022   2.836   2.823
 3592TIP3    H110740   0.093   2.785   2.785
 3592TIP3    H210741   0.064   2.888   2.892
 3593TIP3   OH210742   1.379   5.449   3.544
 3593TIP3    H110743   1.367   5.536   3.506
 3593TIP3    H210744   1.320   5.447   3.620
 3594TIP3   OH210745   3.390   1.910   0.284
 3594TIP3    H110746   3.400   1.921   0.379
 3594TIP3    H210747   3.477   1.885   0.254
 3595TIP3   OH210748   2.352   4.931   0.813
 3595TIP3    H110749   2.430   4.935   0.757
 3595TIP3    H210750   2.280   4.913   0.752
 3596TIP3   OH210751   2.543   0.158   5.706
 3596TIP3    H110752   2.607   0.228   5.700
 3596TIP3    H210753   2.474   0.183   5.645
 3597TIP3   OH210754   4.917   1.895   5.493
 3597TIP3    H110755   4.894   1.973   5.443
 3597TIP3    H210756   4.942   1.928   5.579
 3598TIP3   OH210757   6.548   3.190   0.947
 3598TIP3    H110758   6.521   3.163   0.859
 3598TIP3    H210759   6.598   3.270   0.932
 3599TIP3   OH210760   4.664   3.763   0.268
 3599TIP3    H110761   4.721   3.708   0.215
 3599TIP3    H210762   4.621   3.821   0.205
 3600TIP3   OH210763   1.062   6.783   4.345
 3600TIP3    H110764   1.000   6.833   4.292
 3600TIP3    H210765   1.037   6.691   4.331
 3601TIP3   OH210766   4.729   3.966   1.278
 3601TIP3    H110767   4.807   3.913   1.259
 3601TIP3    H210768   4.744   4.047   1.229
 3602TIP3   OH210769   5.832   5.709   0.854
 3602TIP3    H110770   5.776   5.698   0.777
 3602TIP3    H210771   5.856   5.802   0.854
 3603TIP3   OH210772   3.609   0.282   2.765
 3603TIP3    H110773   3.608   0.344   2.838
 3603TIP3    H210774   3.700   0.280   2.737
 3604TIP3   OH210775   7.123   5.840   0.597
 3604TIP3    H110776   7.106   5.820   0.505
 3604TIP3    H210777   7.036   5.839   0.638
 3605TIP3   OH210778   1.210   1.725   1.535
 3605TIP3    H110779   1.286   1.710   1.479
 3605TIP3    H210780   1.224   1.666   1.610
 3606TIP3   OH210781   6.045   0.332   4.689
 3606TIP3    H110782   6.042   0.313   4.782
 3606TIP3    H210783   6.091   0.257   4.650
 3607TIP3   OH210784   2.391   2.616   0.528
 3607TIP3    H110785   2.415   2.532   0.567
 3607TIP3    H210786   2.442   2.621   0.447
 3608TIP3   OH210787   1.527   4.392   2.755
 3608TIP3    H110788   1.475   4.401   2.834
 3608TIP3    H210789   1.464   4.394   2.684
 3609TIP3   OH210790   3.177   3.361   4.618
 3609TIP3    H110791   3.205   3.439   4.666
 3609TIP3    H210792   3.258   3.313   4.602
 3610TIP3   OH210793   2.247   1.748   4.144
 3610TIP3    H110794   2.198   1.669   4.125
 3610TIP3    H210795   2.235   1.804   4.067
 3611TIP3   OH210796   4.181   3.601   2.675
 3611TIP3    H110797   4.107   3.626   2.731
 3611TIP3    H210798   4.205   3.682   2.629
 3612TIP3   OH210799   2.848   6.636   0.029
 3612TIP3    H110800   2.932   6.679   0.050
 3612TIP3    H210801   2.854   6.550   0.070
 3613TIP3   OH210802   1.419   2.421   5.698
 3613TIP3    H110803   1.396   2.485   5.766
 3613TIP3    H210804   1.389   2.461   5.616
 3614TIP3   OH210805   3.455   4.618   1.263
 3614TIP3    H110806   3.471   4.691   1.203
 3614TIP3    H210807   3.502   4.545   1.225
 3615TIP3   OH210808   5.023   2.451   1.143
 3615TIP3    H110809   5.050   2.503   1.218
 3615TIP3    H210810   4.928   2.446   1.150
 3616TIP3   OH210811   1.402   3.039   4.544
 3616TIP3    H110812   1.426   2.947   4.543
 3616TIP3    H210813   1.456   3.078   4.613
 3617TIP3   OH210814   6.608   0.811   3.574
 3617TIP3    H110815   6.580   0.847   3.658
 3617TIP3    H210816   6.568   0.724   3.571
 3618TIP3   OH210817   6.509   1.054   3.254
 3618TIP3    H110818   6.446   1.064   3.326
 3618TIP3    H210819   6.595   1.056   3.296
 3619TIP3   OH210820   1.415   3.197   1.665
 3619TIP3    H110821   1.465   3.131   1.712
 3619TIP3    H210822   1.454   3.199   1.577
 3620TIP3   OH210823   3.116   2.692   5.104
 3620TIP3    H110824   3.122   2.688   5.009
 3620TIP3    H210825   3.207   2.692   5.134
 3621TIP3   OH210826   2.839   4.841   4.117
 3621TIP3    H110827   2.858   4.929   4.149
 3621TIP3    H210828   2.826   4.789   4.197
 3622TIP3   OH210829   2.693   2.236   5.607
 3622TIP3    H110830   2.690   2.168   5.540
 3622TIP3    H210831   2.778   2.277   5.596
 3623TIP3   OH210832   0.237   3.576   4.457
 3623TIP3    H110833   0.265   3.632   4.530
 3623TIP3    H210834   0.157   3.619   4.424
 3624TIP3   OH210835   0.194   6.382   0.370
 3624TIP3    H110836   0.155   6.368   0.284
 3624TIP3    H210837   0.239   6.466   0.363
 3625TIP3   OH210838   2.075   1.561   0.257
 3625TIP3    H110839   2.114   1.643   0.290
 3625TIP3    H210840   2.150   1.510   0.226
 3626TIP3   OH210841   5.406   6.007   4.653
 3626TIP3    H110842   5.447   5.922   4.637
 3626TIP3    H210843   5.343   5.991   4.723
 3627TIP3   OH210844   7.037   2.100   4.925
 3627TIP3    H110845   7.107   2.161   4.901
 3627TIP3    H210846   7.070   2.056   5.004
 3628TIP3   OH210847   1.365   4.244   0.096
 3628TIP3    H110848   1.311   4.167   0.079
 3628TIP3    H210849   1.346   4.267   0.187
 3629TIP3   OH210850   1.739   5.903   4.840
 3629TIP3    H110851   1.774   5.965   4.904
 3629TIP3    H210852   1.680   5.955   4.786
 3630TIP3   OH210853   3.357   5.224   1.301
 3630TIP3    H110854   3.332   5.316   1.286
 3630TIP3    H210855   3.273   5.179   1.312
 3631TIP3   OH210856   6.902   4.872   4.070
 3631TIP3    H110857   6.894   4.920   4.152
 3631TIP3    H210858   6.819   4.887   4.024
 3632TIP3   OH210859   4.310   6.828   3.735
 3632TIP3    H110860   4.228   6.803   3.692
 3632TIP3    H210861   4.342   6.747   3.774
 3633TIP3   OH210862   0.474   4.204   3.236
 3633TIP3    H110863   0.551   4.246   3.276
 3633TIP3    H210864   0.399   4.249   3.275
 3634TIP3   OH210865   0.313   3.536   1.961
 3634TIP3    H110866   0.379   3.530   1.892
 3634TIP3    H210867   0.285   3.627   1.960
 3635TIP3   OH210868   5.851   1.667   1.269
 3635TIP3    H110869   5.776   1.712   1.309
 3635TIP3    H210870   5.812   1.596   1.217
 3636TIP3   OH210871   3.232   0.568   2.973
 3636TIP3    H110872   3.144   0.536   2.992
 3636TIP3    H210873   3.268   0.504   2.912
 3637TIP3   OH210874   3.530   4.778   4.015
 3637TIP3    H110875   3.537   4.872   3.999
 3637TIP3    H210876   3.489   4.771   4.101
 3638TIP3   OH210877   6.620   0.255   2.220
 3638TIP3    H110878   6.705   0.274   2.260
 3638TIP3    H210879   6.632   0.170   2.177
 3639TIP3   OH210880   6.255   3.648   1.591
 3639TIP3    H110881   6.272   3.556   1.576
 3639TIP3    H210882   6.190   3.673   1.525
 3640TIP3   OH210883   3.173   3.235   2.460
 3640TIP3    H110884   3.193   3.318   2.504
 3640TIP3    H210885   3.080   3.240   2.439
 3641TIP3   OH210886   1.079   6.102   0.218
 3641TIP3    H110887   1.028   6.174   0.180
 3641TIP3    H210888   1.108   6.051   0.143
 3642TIP3   OH210889   4.189   0.714   2.801
 3642TIP3    H110890   4.118   0.658   2.835
 3642TIP3    H210891   4.153   0.751   2.721
 3643TIP3   OH210892   1.803   6.659   4.434
 3643TIP3    H110893   1.869   6.729   4.439
 3643TIP3    H210894   1.802   6.634   4.342
 3644TIP3   OH210895   0.948   2.682   5.017
 3644TIP3    H110896   0.960   2.773   5.046
 3644TIP3    H210897   1.024   2.636   5.051
 3645TIP3   OH210898   3.138   4.973   2.901
 3645TIP3    H110899   3.066   4.938   2.954
 3645TIP3    H210900   3.208   4.908   2.910
 3646TIP3   OH210901   5.017   4.680   5.560
 3646TIP3    H110902   5.090   4.635   5.518
 3646TIP3    H210903   4.939   4.633   5.529
 3647TIP3   OH210904   2.231   5.874   2.110
 3647TIP3    H110905   2.260   5.783   2.100
 3647TIP3    H210906   2.171   5.889   2.037
 3648TIP3   OH210907   5.932   2.835   3.643
 3648TIP3    H110908   5.941   2.896   3.570
 3648TIP3    H210909   5.838   2.821   3.652
 3649TIP3   OH210910   6.859   0.370   4.706
 3649TIP3    H110911   6.844   0.289   4.658
 3649TIP3    H210912   6.954   0.373   4.717
 3650TIP3   OH210913   5.210   0.106   3.815
 3650TIP3    H110914   5.227   0.140   3.727
 3650TIP3    H210915   5.191   0.013   3.802
 3651TIP3   OH210916   3.794   3.684   1.161
 3651TIP3    H110917   3.800   3.623   1.235
 3651TIP3    H210918   3.884   3.713   1.146
 3652TIP3   OH210919   6.217   5.226   5.461
 3652TIP3    H110920   6.221   5.131   5.478
 3652TIP3    H210921   6.203   5.232   5.366
 3653TIP3   OH210922   0.481   4.733   1.224
 3653TIP3    H110923   0.476   4.822   1.258
 3653TIP3    H210924   0.403   4.722   1.171
 3654TIP3   OH210925   4.145   2.041   5.814
 3654TIP3    H110926   4.196   2.121   5.808
 3654TIP3    H210927   4.107   2.030   5.727
 3655TIP3   OH210928   4.421   6.667   3.472
 3655TIP3    H110929   4.494   6.660   3.534
 3655TIP3    H210930   4.343   6.668   3.527
 3656TIP3   OH210931   6.011   6.275   3.000
 3656TIP3    H110932   5.917   6.273   3.018
 3656TIP3    H210933   6.035   6.184   2.987
 3657TIP3   OH210934   6.562   1.785   5.277
 3657TIP3    H110935   6.510   1.806   5.355
 3657TIP3    H210936   6.538   1.695   5.256
 3658TIP3   OH210937   0.702   5.626   0.002
 3658TIP3    H110938   0.709   5.715   0.035
 3658TIP3    H210939   0.792   5.594   0.000
 3659TIP3   OH210940   2.676   3.080   0.964
 3659TIP3    H110941   2.611   3.103   0.898
 3659TIP3    H210942   2.760   3.083   0.917
 3660TIP3   OH210943   1.405   0.862   0.800
 3660TIP3    H110944   1.392   0.774   0.835
 3660TIP3    H210945   1.479   0.854   0.741
 3661TIP3   OH210946   4.899   3.477   5.505
 3661TIP3    H110947   4.909   3.382   5.506
 3661TIP3    H210948   4.965   3.509   5.566
 3662TIP3   OH210949   1.484   5.251   2.099
 3662TIP3    H110950   1.454   5.341   2.087
 3662TIP3    H210951   1.509   5.222   2.012
 3663TIP3   OH210952   3.709   0.980   4.456
 3663TIP3    H110953   3.636   0.924   4.485
 3663TIP3    H210954   3.776   0.919   4.426
 3664TIP3   OH210955   1.937   0.939   5.198
 3664TIP3    H110956   1.874   0.929   5.270
 3664TIP3    H210957   2.021   0.955   5.242
 3665TIP3   OH210958   5.581   6.688   1.270
 3665TIP3    H110959   5.667   6.730   1.268
 3665TIP3    H210960   5.556   6.690   1.362
 3666TIP3   OH210961   6.665   4.910   0.608
 3666TIP3    H110962   6.745   4.905   0.660
 3666TIP3    H210963   6.651   4.821   0.576
 3667TIP3   OH210964   1.809   4.967   5.711
 3667TIP3    H110965   1.796   5.040   5.771
 3667TIP3    H210966   1.727   4.918   5.715
 3668TIP3   OH210967   4.788   5.489   0.082
 3668TIP3    H110968   4.753   5.561   0.028
 3668TIP3    H210969   4.723   5.478   0.151
 3669TIP3   OH210970   3.089   1.802   1.562
 3669TIP3    H110971   3.043   1.886   1.556
 3669TIP3    H210972   3.037   1.751   1.624
 3670TIP3   OH210973   3.336   2.748   2.852
 3670TIP3    H110974   3.329   2.841   2.870
 3670TIP3    H210975   3.303   2.705   2.931
 3671TIP3   OH210976   1.857   5.355   3.412
 3671TIP3    H110977   1.899   5.304   3.481
 3671TIP3    H210978   1.900   5.440   3.415
 3672TIP3   OH210979   0.493   0.604   5.503
 3672TIP3    H110980   0.428   0.673   5.488
 3672TIP3    H210981   0.463   0.531   5.449
 3673TIP3   OH210982   5.647   0.957   1.662
 3673TIP3    H110983   5.558   0.990   1.666
 3673TIP3    H210984   5.673   0.968   1.571
 3674TIP3   OH210985   6.226   2.444   5.873
 3674TIP3    H110986   6.234   2.362   5.922
 3674TIP3    H210987   6.308   2.491   5.893
 3675TIP3   OH210988   3.734   0.325   4.279
 3675TIP3    H110989   3.782   0.369   4.349
 3675TIP3    H210990   3.768   0.363   4.198
 3676TIP3   OH210991   6.840   2.585   0.883
 3676TIP3    H110992   6.825   2.541   0.967
 3676TIP3    H210993   6.929   2.559   0.858
 3677TIP3   OH210994   1.351   4.054   3.465
 3677TIP3    H110995   1.358   3.983   3.401
 3677TIP3    H210996   1.386   4.130   3.420
 3678TIP3   OH210997   0.635   5.702   2.082
 3678TIP3    H110998   0.623   5.608   2.069
 3678TIP3    H210999   0.631   5.713   2.178
 3679TIP3   OH211000   4.266   6.464   0.489
 3679TIP3    H111001   4.354   6.501   0.482
 3679TIP3    H211002   4.245   6.469   0.582
 3680TIP3   OH211003   4.988   1.510   3.229
 3680TIP3    H111004   4.914   1.459   3.196
 3680TIP3    H211005   4.997   1.483   3.320
 3681TIP3   OH211006   5.050   4.725   5.216
 3681TIP3    H111007   5.073   4.652   5.273
 3681TIP3    H211008   4.984   4.774   5.265
 3682TIP3   OH211009   5.008   0.622   0.342
 3682TIP3    H111010   5.048   0.691   0.289
 3682TIP3    H211011   4.916   0.647   0.347
 3683TIP3   OH211012   3.456   0.592   1.168
 3683TIP3    H111013   3.542   0.628   1.148
 3683TIP3    H211014   3.398   0.630   1.102
 3684TIP3   OH211015   4.728   3.625   4.271
 3684TIP3    H111016   4.743   3.539   4.232
 3684TIP3    H211017   4.745   3.687   4.200
 3685TIP3   OH211018   2.724   1.080   5.241
 3685TIP3    H111019   2.713   1.001   5.189
 3685TIP3    H211020   2.645   1.084   5.296
 3686TIP3   OH211021   1.217   0.664   0.486
 3686TIP3    H111022   1.274   0.622   0.550
 3686TIP3    H211023   1.129   0.633   0.508
 3687TIP3   OH211024   4.806   4.616   1.655
 3687TIP3    H111025   4.744   4.565   1.708
 3687TIP3    H211026   4.887   4.566   1.660
 3688TIP3   OH211027   2.686   1.289   1.858
 3688TIP3    H111028   2.643   1.213   1.819
 3688TIP3    H211029   2.777   1.283   1.828
 3689TIP3   OH211030   3.982   5.418   3.495
 3689TIP3    H111031   3.923   5.437   3.568
 3689TIP3    H211032   4.044   5.355   3.530
 3690TIP3   OH211033   1.771   4.702   4.391
 3690TIP3    H111034   1.815   4.658   4.318
 3690TIP3    H211035   1.818   4.672   4.469
 3691TIP3   OH211036   2.102   3.984   2.969
 3691TIP3    H111037   2.185   3.936   2.971
 3691TIP3    H211038   2.063   3.969   3.055
 3692TIP3   OH211039   6.493   2.620   0.581
 3692TIP3    H111040   6.485   2.602   0.487
 3692TIP3    H211041   6.480   2.715   0.587
 3693TIP3   OH211042   6.871   3.495   5.312
 3693TIP3    H111043   6.860   3.400   5.310
 3693TIP3    H211044   6.788   3.529   5.277
 3694TIP3   OH211045   5.397   3.619   0.354
 3694TIP3    H111046   5.471   3.675   0.378
 3694TIP3    H211047   5.321   3.661   0.395
 3695TIP3   OH211048   3.636   5.403   4.068
 3695TIP3    H111049   3.563   5.383   4.126
 3695TIP3    H211050   3.594   5.439   3.989
 3696TIP3   OH211051   3.835   2.534   4.983
 3696TIP3    H111052   3.804   2.520   4.894
 3696TIP3    H211053   3.819   2.452   5.028
 3697TIP3   OH211054   5.576   5.995   3.010
 3697TIP3    H111055   5.545   5.905   2.995
 3697TIP3    H211056   5.512   6.033   3.070
 3698TIP3   OH211057   6.122   0.647   4.878
 3698TIP3    H111058   6.082   0.718   4.828
 3698TIP3    H211059   6.115   0.674   4.969
 3699TIP3   OH211060   0.258   1.061   1.424
 3699TIP3    H111061   0.220   0.987   1.378
 3699TIP3    H211062   0.350   1.036   1.437
 3700TIP3   OH211063   3.678   3.912   5.442
 3700TIP3    H111064   3.615   3.946   5.378
 3700TIP3    H211065   3.663   3.817   5.442
 3701TIP3   OH211066   3.882   3.683   3.588
 3701TIP3    H111067   3.970   3.661   3.557
 3701TIP3    H211068   3.892   3.701   3.681
 3702TIP3   OH211069   0.158   6.449   4.118
 3702TIP3    H111070   0.147   6.358   4.093
 3702TIP3    H211071   0.253   6.459   4.128
 3703TIP3   OH211072   6.067   2.463   0.405
 3703TIP3    H111073   5.977   2.482   0.378
 3703TIP3    H211074   6.117   2.460   0.324
 3704TIP3   OH211075   0.835   2.352   5.010
 3704TIP3    H111076   0.862   2.383   5.096
 3704TIP3    H211077   0.745   2.383   5.000
 3705TIP3   OH211078   3.844   4.529   0.703
 3705TIP3    H111079   3.847   4.547   0.609
 3705TIP3    H211080   3.923   4.569   0.738
 3706TIP3   OH211081   5.022   0.330   3.002
 3706TIP3    H111082   5.006   0.326   3.096
 3706TIP3    H211083   4.944   0.292   2.962
 3707TIP3   OH211084   5.943   1.285   4.057
 3707TIP3    H111085   5.908   1.348   4.120
 3707TIP3    H211086   5.994   1.224   4.110
 3708TIP3   OH211087   4.012   4.332   0.924
 3708TIP3    H111088   4.043   4.415   0.961
 3708TIP3    H211089   4.088   4.296   0.878
 3709TIP3   OH211090   4.898   6.181   5.868
 3709TIP3    H111091   4.827   6.120   5.852
 3709TIP3    H211092   4.945   6.186   5.785
 3710TIP3   OH211093   0.632   5.193   5.644
 3710TIP3    H111094   0.579   5.119   5.616
 3710TIP3    H211095   0.572   5.268   5.642
 3711TIP3   OH211096   5.662   1.720   1.451
 3711TIP3    H111097   5.626   1.767   1.527
 3711TIP3    H211098   5.587   1.672   1.416
 3712TIP3   OH211099   6.241   6.097   4.220
 3712TIP3    H111100   6.303   6.114   4.149
 3712TIP3    H211101   6.273   6.017   4.262
 3713TIP3   OH211102   5.354   4.717   2.956
 3713TIP3    H111103   5.320   4.658   2.888
 3713TIP3    H211104   5.281   4.727   3.017
 3714TIP3   OH211105   1.479   5.111   1.274
 3714TIP3    H111106   1.449   5.073   1.192
 3714TIP3    H211107   1.403   5.110   1.331
 3715TIP3   OH211108   4.034   1.942   5.575
 3715TIP3    H111109   3.939   1.941   5.589
 3715TIP3    H211110   4.054   1.857   5.537
 3716TIP3   OH211111   2.434   4.320   4.970
 3716TIP3    H111112   2.489   4.251   4.933
 3716TIP3    H211113   2.495   4.390   4.992
 3717TIP3   OH211114   2.716   2.140   2.361
 3717TIP3    H111115   2.700   2.095   2.278
 3717TIP3    H211116   2.637   2.125   2.413
 3718TIP3   OH211117   5.468   2.011   3.283
 3718TIP3    H111118   5.457   2.016   3.378
 3718TIP3    H211119   5.541   1.951   3.271
 3719TIP3   OH211120   4.280   0.633   3.116
 3719TIP3    H111121   4.373   0.639   3.095
 3719TIP3    H211122   4.236   0.624   3.031
 3720TIP3   OH211123   4.038   3.117   4.615
 3720TIP3    H111124   3.998   3.149   4.534
 3720TIP3    H211125   3.990   3.160   4.685
 3721TIP3   OH211126   3.765   5.250   4.630
 3721TIP3    H111127   3.745   5.341   4.652
 3721TIP3    H211128   3.697   5.199   4.673
 3722TIP3   OH211129   2.155   3.592   1.367
 3722TIP3    H111130   2.127   3.642   1.444
 3722TIP3    H211131   2.153   3.501   1.395
 3723TIP3   OH211132   4.747   3.358   4.392
 3723TIP3    H111133   4.800   3.350   4.472
 3723TIP3    H211134   4.666   3.311   4.413
 3724TIP3   OH211135   5.022   1.047   0.340
 3724TIP3    H111136   5.032   1.138   0.369
 3724TIP3    H211137   4.928   1.034   0.335
 3725TIP3   OH211138   2.763   2.443   3.872
 3725TIP3    H111139   2.706   2.374   3.838
 3725TIP3    H211140   2.845   2.431   3.824
 3726TIP3   OH211141   4.443   5.275   0.123
 3726TIP3    H111142   4.391   5.340   0.170
 3726TIP3    H211143   4.520   5.261   0.178
 3727TIP3   OH211144   2.518   5.281   0.398
 3727TIP3    H111145   2.511   5.300   0.491
 3727TIP3    H211146   2.612   5.270   0.382
 3728TIP3   OH211147   6.648   2.708   1.888
 3728TIP3    H111148   6.644   2.786   1.833
 3728TIP3    H211149   6.660   2.742   1.976
 3729TIP3   OH211150   4.856   2.946   5.392
 3729TIP3    H111151   4.824   2.940   5.482
 3729TIP3    H211152   4.950   2.930   5.398
 3730TIP3   OH211153   4.495   4.494   4.088
 3730TIP3    H111154   4.513   4.586   4.110
 3730TIP3    H211155   4.453   4.458   4.166
 3731TIP3   OH211156   1.631   4.239   0.670
 3731TIP3    H111157   1.670   4.289   0.598
 3731TIP3    H211158   1.566   4.298   0.708
 3732TIP3   OH211159   0.621   4.051   3.028
 3732TIP3    H111160   0.616   4.138   3.069
 3732TIP3    H211161   0.597   4.066   2.936
 3733TIP3   OH211162   3.142   5.414   0.840
 3733TIP3    H111163   3.066   5.367   0.808
 3733TIP3    H211164   3.109   5.466   0.914
 3734TIP3   OH211165   2.915   1.813   4.945
 3734TIP3    H111166   2.876   1.857   4.869
 3734TIP3    H211167   2.861   1.842   5.019
 3735TIP3   OH211168   2.144   3.292   4.453
 3735TIP3    H111169   2.231   3.331   4.450
 3735TIP3    H211170   2.088   3.362   4.486
 3736TIP3   OH211171   3.884   2.718   3.201
 3736TIP3    H111172   3.840   2.645   3.158
 3736TIP3    H211173   3.977   2.704   3.183
 3737TIP3   OH211174   2.110   2.666   2.615
 3737TIP3    H111175   2.197   2.672   2.654
 3737TIP3    H211176   2.054   2.718   2.673
 3738TIP3   OH211177   4.287   1.006   5.517
 3738TIP3    H111178   4.370   1.010   5.564
 3738TIP3    H211179   4.242   1.088   5.539
 3739TIP3   OH211180   6.120   5.063   0.122
 3739TIP3    H111181   6.212   5.075   0.145
 3739TIP3    H211182   6.077   5.144   0.147
 3740TIP3   OH211183   3.519   1.635   3.049
 3740TIP3    H111184   3.479   1.678   2.973
 3740TIP3    H211185   3.554   1.706   3.102
 3741TIP3   OH211186   5.774   4.314   3.080
 3741TIP3    H111187   5.814   4.392   3.040
 3741TIP3    H211188   5.733   4.268   3.007
 3742TIP3   OH211189   1.563   2.409   1.765
 3742TIP3    H111190   1.496   2.462   1.722
 3742TIP3    H211191   1.562   2.326   1.717
 3743TIP3   OH211192   0.584   1.042   5.681
 3743TIP3    H111193   0.655   0.983   5.706
 3743TIP3    H211194   0.629   1.117   5.641
 3744TIP3   OH211195   3.762   5.590   2.972
 3744TIP3    H111196   3.771   5.685   2.980
 3744TIP3    H211197   3.826   5.554   3.033
 3745TIP3   OH211198   5.618   0.022   0.623
 3745TIP3    H111199   5.592  -0.022   0.704
 3745TIP3    H211200   5.540   0.017   0.568
 3746TIP3   OH211201   1.427   1.241   4.504
 3746TIP3    H111202   1.447   1.289   4.584
 3746TIP3    H211203   1.513   1.214   4.471
 3747TIP3   OH211204   4.881   0.211   0.119
 3747TIP3    H111205   4.949   0.265   0.080
 3747TIP3    H211206   4.881   0.234   0.211
 3748TIP3   OH211207   1.957   4.362   5.211
 3748TIP3    H111208   1.962   4.405   5.296
 3748TIP3    H211209   1.877   4.397   5.171
 3749TIP3   OH211210   4.615   5.032   1.431
 3749TIP3    H111211   4.673   5.012   1.357
 3749TIP3    H211212   4.528   5.006   1.400
 3750TIP3   OH211213   4.471   5.561   1.064
 3750TIP3    H111214   4.502   5.634   1.117
 3750TIP3    H211215   4.522   5.486   1.094
 3751TIP3   OH211216   2.977   5.234   4.973
 3751TIP3    H111217   3.029   5.283   4.909
 3751TIP3    H211218   2.935   5.302   5.027
 3752TIP3   OH211219   4.903   2.530   0.651
 3752TIP3    H111220   4.816   2.492   0.646
 3752TIP3    H211221   4.896   2.612   0.602
 3753TIP3   OH211222   1.053   3.334   3.120
 3753TIP3    H111223   1.021   3.247   3.145
 3753TIP3    H211224   1.084   3.372   3.202
 3754TIP3   OH211225   1.719   2.947   3.596
 3754TIP3    H111226   1.733   2.853   3.598
 3754TIP3    H211227   1.743   2.973   3.507
 3755TIP3   OH211228   0.115   5.306   5.572
 3755TIP3    H111229   0.115   5.341   5.661
 3755TIP3    H211230   0.208   5.299   5.549
 3756TIP3   OH211231   0.334   0.369   5.387
 3756TIP3    H111232   0.389   0.342   5.313
 3756TIP3    H211233   0.277   0.436   5.349
 3757TIP3   OH211234   3.834   2.459   1.768
 3757TIP3    H111235   3.758   2.485   1.820
 3757TIP3    H211236   3.878   2.542   1.747
 3758TIP3   OH211237   4.601   6.761   3.130
 3758TIP3    H111238   4.611   6.674   3.170
 3758TIP3    H211239   4.547   6.745   3.052
 3759TIP3   OH211240   2.376   6.319   4.768
 3759TIP3    H111241   2.317   6.388   4.800
 3759TIP3    H211242   2.404   6.349   4.681
 3760TIP3   OH211243   6.057   4.450   2.423
 3760TIP3    H111244   6.090   4.396   2.350
 3760TIP3    H211245   6.133   4.462   2.480
 3761TIP3   OH211246   0.379   0.515   0.400
 3761TIP3    H111247   0.350   0.600   0.433
 3761TIP3    H211248   0.318   0.495   0.329
 3762TIP3   OH211249   1.514   0.627   4.425
 3762TIP3    H111250   1.448   0.608   4.492
 3762TIP3    H211251   1.494   0.715   4.396
 3763TIP3   OH211252   0.582   3.988   0.088
 3763TIP3    H111253   0.498   4.032   0.097
 3763TIP3    H211254   0.647   4.059   0.094
 3764TIP3   OH211255   0.650   2.116   4.899
 3764TIP3    H111256   0.681   2.162   4.977
 3764TIP3    H211257   0.559   2.093   4.919
 3765TIP3   OH211258   5.518   5.682   3.529
 3765TIP3    H111259   5.554   5.596   3.507
 3765TIP3    H211260   5.424   5.666   3.542
 3766TIP3   OH211261   0.204   4.139   1.005
 3766TIP3    H111262   0.203   4.115   0.912
 3766TIP3    H211263   0.180   4.058   1.050
 3767TIP3   OH211264   3.623   1.374   4.369
 3767TIP3    H111265   3.686   1.425   4.319
 3767TIP3    H211266   3.600   1.430   4.444
 3768TIP3   OH211267   6.260   2.592   1.667
 3768TIP3    H111268   6.335   2.602   1.608
 3768TIP3    H211269   6.299   2.587   1.754
 3769TIP3   OH211270   5.889   0.917   2.459
 3769TIP3    H111271   5.924   0.885   2.376
 3769TIP3    H211272   5.818   0.977   2.433
 3770TIP3   OH211273   6.200   2.848   0.697
 3770TIP3    H111274   6.253   2.891   0.630
 3770TIP3    H211275   6.189   2.758   0.667
 3771TIP3   OH211276   5.787   2.167   0.238
 3771TIP3    H111277   5.846   2.176   0.313
 3771TIP3    H211278   5.724   2.239   0.248
 3772TIP3   OH211279   5.522   0.966   4.933
 3772TIP3    H111280   5.598   0.909   4.931
 3772TIP3    H211281   5.534   1.020   5.011
 3773TIP3   OH211282   0.810   1.852   4.984
 3773TIP3    H111283   0.883   1.873   4.927
 3773TIP3    H211284   0.832   1.891   5.068
 3774TIP3   OH211285   7.055   1.337   3.637
 3774TIP3    H111286   7.016   1.250   3.633
 3774TIP3    H211287   6.993   1.390   3.686
 3775TIP3   OH211288   5.925   3.703   5.831
 3775TIP3    H111289   5.969   3.630   5.874
 3775TIP3    H211290   5.893   3.758   5.903
 3776TIP3   OH211291   3.603   0.973   3.525
 3776TIP3    H111292   3.549   1.021   3.461
 3776TIP3    H211293   3.622   0.890   3.482
 3777TIP3   OH211294   1.784   5.512   1.487
 3777TIP3    H111295   1.723   5.460   1.539
 3777TIP3    H211296   1.865   5.511   1.537
 3778TIP3   OH211297   1.935   3.884   2.548
 3778TIP3    H111298   1.953   3.802   2.594
 3778TIP3    H211299   1.840   3.892   2.550
 3779TIP3   OH211300   5.442   6.323   0.295
 3779TIP3    H111301   5.527   6.311   0.338
 3779TIP3    H211302   5.461   6.378   0.219
 3780TIP3   OH211303   6.279   2.229   3.437
 3780TIP3    H111304   6.360   2.260   3.397
 3780TIP3    H211305   6.241   2.307   3.476
 3781TIP3   OH211306   5.003   6.288   0.586
 3781TIP3    H111307   4.965   6.315   0.670
 3781TIP3    H211308   5.095   6.314   0.592
 3782TIP3   OH211309   6.492   1.281   1.895
 3782TIP3    H111310   6.574   1.262   1.850
 3782TIP3    H211311   6.446   1.342   1.838
 3783TIP3   OH211312   3.972   5.304   4.380
 3783TIP3    H111313   4.024   5.337   4.453
 3783TIP3    H211314   3.882   5.330   4.400
 3784TIP3   OH211315   0.750   6.779   5.879
 3784TIP3    H111316   0.782   6.849   5.936
 3784TIP3    H211317   0.823   6.761   5.820
 3785TIP3   OH211318   5.387   5.988   4.335
 3785TIP3    H111319   5.420   5.982   4.424
 3785TIP3    H211320   5.369   5.897   4.310
 3786TIP3   OH211321   3.745   6.111   1.221
 3786TIP3    H111322   3.770   6.084   1.310
 3786TIP3    H211323   3.702   6.034   1.184
 3787TIP3   OH211324   6.332   6.584   2.414
 3787TIP3    H111325   6.353   6.522   2.484
 3787TIP3    H211326   6.260   6.636   2.449
 3788TIP3   OH211327   3.116   4.897   5.225
 3788TIP3    H111328   3.112   4.899   5.129
 3788TIP3    H211329   3.137   4.987   5.250
 3789TIP3   OH211330   3.844   3.660   3.887
 3789TIP3    H111331   3.866   3.582   3.938
 3789TIP3    H211332   3.749   3.668   3.895
 3790TIP3   OH211333   2.482   1.516   1.702
 3790TIP3    H111334   2.417   1.549   1.765
 3790TIP3    H211335   2.468   1.421   1.701
 3791TIP3   OH211336   0.508   1.566   0.458
 3791TIP3    H111337   0.420   1.537   0.433
 3791TIP3    H211338   0.525   1.643   0.403
 3792TIP3   OH211339   7.065   5.538   4.435
 3792TIP3    H111340   7.000   5.547   4.505
 3792TIP3    H211341   7.115   5.619   4.437
 3793TIP3   OH211342   5.973   4.222   0.538
 3793TIP3    H111343   5.983   4.297   0.479
 3793TIP3    H211344   5.933   4.258   0.617
 3794TIP3   OH211345   2.667   6.722   5.666
 3794TIP3    H111346   2.624   6.713   5.751
 3794TIP3    H211347   2.735   6.788   5.681
 3795TIP3   OH211348   3.707   4.671   2.788
 3795TIP3    H111349   3.673   4.609   2.852
 3795TIP3    H211350   3.800   4.678   2.808
 3796TIP3   OH211351   2.303   3.198   5.476
 3796TIP3    H111352   2.279   3.113   5.512
 3796TIP3    H211353   2.226   3.253   5.493
 3797TIP3   OH211354   6.012   3.845   3.735
 3797TIP3    H111355   5.997   3.863   3.827
 3797TIP3    H211356   6.074   3.773   3.734
 3798TIP3   OH211357   2.084   0.679   1.957
 3798TIP3    H111358   2.128   0.721   2.031
 3798TIP3    H211359   2.149   0.619   1.922
 3799TIP3   OH211360   6.953   2.342   5.492
 3799TIP3    H111361   6.900   2.287   5.435
 3799TIP3    H211362   6.969   2.421   5.440
 3800TIP3   OH211363   2.230   4.314   5.201
 3800TIP3    H111364   2.137   4.335   5.197
 3800TIP3    H211365   2.258   4.312   5.110
 3801TIP3   OH211366   3.975   3.764   1.946
 3801TIP3    H111367   4.067   3.745   1.968
 3801TIP3    H211368   3.937   3.679   1.927
 3802TIP3   OH211369   0.227   5.180   1.600
 3802TIP3    H111370   0.197   5.271   1.599
 3802TIP3    H211371   0.151   5.129   1.572
 3803TIP3   OH211372   2.456   5.505   3.692
 3803TIP3    H111373   2.491   5.453   3.764
 3803TIP3    H211374   2.521   5.574   3.678
 3804TIP3   OH211375   1.376   4.668   0.680
 3804TIP3    H111376   1.456   4.710   0.710
 3804TIP3    H211377   1.405   4.594   0.626
 3805TIP3   OH211378   2.830   4.584   2.535
 3805TIP3    H111379   2.891   4.595   2.461
 3805TIP3    H211380   2.856   4.652   2.597
 3806TIP3   OH211381   7.210   5.048   3.149
 3806TIP3    H111382   7.229   4.986   3.078
 3806TIP3    H211383   7.118   5.034   3.169
 3807TIP3   OH211384   3.995   6.810   4.607
 3807TIP3    H111385   4.081   6.787   4.571
 3807TIP3    H211386   3.933   6.768   4.548
 3808TIP3   OH211387   6.909   2.303   3.499
 3808TIP3    H111388   6.845   2.312   3.428
 3808TIP3    H211389   6.866   2.341   3.575
 3809TIP3   OH211390   5.725   1.239   5.483
 3809TIP3    H111391   5.669   1.314   5.503
 3809TIP3    H211392   5.768   1.263   5.401
 3810TIP3   OH211393   1.003   0.064   0.171
 3810TIP3    H111394   1.029  -0.017   0.214
 3810TIP3    H211395   1.077   0.086   0.114
 3811TIP3   OH211396   3.750   3.616  -0.020
 3811TIP3    H111397   3.779   3.669   0.054
 3811TIP3    H211398   3.799   3.535  -0.012
 3812TIP3   OH211399   6.914   0.532   4.468
 3812TIP3    H111400   6.866   0.497   4.543
 3812TIP3    H211401   6.990   0.576   4.507
 3813TIP3   OH211402   4.862   6.455   3.706
 3813TIP3    H111403   4.955   6.478   3.711
 3813TIP3    H211404   4.825   6.484   3.789
 3814TIP3   OH211405   5.894   4.599   4.486
 3814TIP3    H111406   5.818   4.657   4.474
 3814TIP3    H211407   5.857   4.517   4.518
 3815TIP3   OH211408   4.757   4.892   3.951
 3815TIP3    H111409   4.737   4.954   4.021
 3815TIP3    H211410   4.796   4.945   3.882
 3816TIP3   OH211411   1.426   4.240   5.573
 3816TIP3    H111412   1.466   4.203   5.652
 3816TIP3    H211413   1.458   4.330   5.569
 3817TIP3   OH211414   0.942   3.955   1.903
 3817TIP3    H111415   0.919   4.026   1.844
 3817TIP3    H211416   0.894   3.973   1.983
 3818TIP3   OH211417   5.144   3.684   3.881
 3818TIP3    H111418   5.080   3.702   3.812
 3818TIP3    H211419   5.196   3.611   3.848
 3819TIP3   OH211420   3.419   5.580   4.484
 3819TIP3    H111421   3.470   5.656   4.459
 3819TIP3    H211422   3.367   5.610   4.559
 3820TIP3   OH211423   5.617   4.093   1.871
 3820TIP3    H111424   5.710   4.092   1.848
 3820TIP3    H211425   5.572   4.067   1.791
 3821TIP3   OH211426   0.823   1.108   3.136
 3821TIP3    H111427   0.855   1.165   3.067
 3821TIP3    H211428   0.749   1.061   3.097
 3822TIP3   OH211429   1.479   6.311   2.100
 3822TIP3    H111430   1.399   6.312   2.047
 3822TIP3    H211431   1.474   6.228   2.148
 3823TIP3   OH211432   0.643   0.490   1.614
 3823TIP3    H111433   0.681   0.555   1.556
 3823TIP3    H211434   0.549   0.507   1.612
 3824TIP3   OH211435   3.619   1.254   1.684
 3824TIP3    H111436   3.696   1.300   1.717
 3824TIP3    H211437   3.556   1.324   1.665
 3825TIP3   OH211438   3.432   0.321   1.110
 3825TIP3    H111439   3.369   0.330   1.038
 3825TIP3    H211440   3.437   0.408   1.149
 3826TIP3   OH211441   3.973   0.451   3.643
 3826TIP3    H111442   4.014   0.396   3.576
 3826TIP3    H211443   3.961   0.393   3.718
 3827TIP3   OH211444   0.480   4.927   3.296
 3827TIP3    H111445   0.551   4.935   3.360
 3827TIP3    H211446   0.509   4.856   3.237
 3828TIP3   OH211447   2.501   2.686   4.730
 3828TIP3    H111448   2.487   2.635   4.810
 3828TIP3    H211449   2.442   2.646   4.666
 3829TIP3   OH211450   1.303   6.206   5.515
 3829TIP3    H111451   1.291   6.290   5.557
 3829TIP3    H211452   1.218   6.162   5.523
 3830TIP3   OH211453   1.667   2.216   3.391
 3830TIP3    H111454   1.596   2.233   3.452
 3830TIP3    H211455   1.745   2.209   3.447
 3831TIP3   OH211456   2.479   5.307   2.899
 3831TIP3    H111457   2.542   5.378   2.893
 3831TIP3    H211458   2.402   5.338   2.851
 3832TIP3   OH211459   3.925   0.467   5.182
 3832TIP3    H111460   3.994   0.423   5.232
 3832TIP3    H211461   3.926   0.557   5.215
 3833TIP3   OH211462   3.230   0.354   5.107
 3833TIP3    H111463   3.162   0.336   5.043
 3833TIP3    H211464   3.198   0.429   5.157
 3834TIP3   OH211465   5.302   1.052   0.687
 3834TIP3    H111466   5.395   1.052   0.710
 3834TIP3    H211467   5.299   1.020   0.597
 3835TIP3   OH211468   6.851   4.279  -0.003
 3835TIP3    H111469   6.911   4.204  -0.003
 3835TIP3    H211470   6.879   4.332   0.071
 3836TIP3   OH211471   1.792   3.983   0.274
 3836TIP3    H111472   1.760   4.017   0.191
 3836TIP3    H211473   1.713   3.969   0.327
 3837TIP3   OH211474   5.350   3.565   3.553
 3837TIP3    H111475   5.364   3.651   3.593
 3837TIP3    H211476   5.259   3.543   3.574
 3838TIP3   OH211477   2.720   1.309   0.221
 3838TIP3    H111478   2.697   1.321   0.129
 3838TIP3    H211479   2.804   1.354   0.231
 3839TIP3   OH211480   5.410   2.350   1.324
 3839TIP3    H111481   5.458   2.387   1.398
 3839TIP3    H211482   5.364   2.274   1.361
 3840TIP3   OH211483   6.931   0.692   3.083
 3840TIP3    H111484   6.891   0.779   3.089
 3840TIP3    H211485   6.862   0.636   3.049
 3841TIP3   OH211486   6.147   2.177   0.517
 3841TIP3    H111487   6.128   2.084   0.507
 3841TIP3    H211488   6.185   2.202   0.433
 3842TIP3   OH211489   4.722   1.405   3.635
 3842TIP3    H111490   4.781   1.343   3.591
 3842TIP3    H211491   4.653   1.421   3.571
 3843TIP3   OH211492   4.523   4.199   2.244
 3843TIP3    H111493   4.468   4.239   2.177
 3843TIP3    H211494   4.548   4.114   2.207
 3844TIP3   OH211495   6.256   1.452   4.400
 3844TIP3    H111496   6.179   1.452   4.457
 3844TIP3    H211497   6.221   1.453   4.311
 3845TIP3   OH211498   5.882   3.947   0.483
 3845TIP3    H111499   5.843   3.918   0.566
 3845TIP3    H211500   5.907   4.038   0.500
 3846TIP3   OH211501   1.206   2.879   1.414
 3846TIP3    H111502   1.205   2.807   1.352
 3846TIP3    H211503   1.264   2.944   1.373
 3847TIP3   OH211504   0.382   4.873   1.462
 3847TIP3    H111505   0.346   4.872   1.551
 3847TIP3    H211506   0.437   4.952   1.460
 3848TIP3   OH211507   3.996   6.489   5.638
 3848TIP3    H111508   3.963   6.578   5.644
 3848TIP3    H211509   3.956   6.454   5.558
 3849TIP3   OH211510   6.369   3.113   4.764
 3849TIP3    H111511   6.413   3.184   4.717
 3849TIP3    H211512   6.337   3.054   4.696
 3850TIP3   OH211513   0.432   0.860   5.361
 3850TIP3    H111514   0.477   0.932   5.406
 3850TIP3    H211515   0.405   0.897   5.277
 3851TIP3   OH211516   1.168   0.880   5.443
 3851TIP3    H111517   1.202   0.910   5.358
 3851TIP3    H211518   1.232   0.914   5.506
 3852TIP3   OH211519   0.410   3.851   1.061
 3852TIP3    H111520   0.384   3.829   0.971
 3852TIP3    H211521   0.485   3.911   1.050
 3853TIP3   OH211522   0.923   2.753   2.596
 3853TIP3    H111523   0.896   2.779   2.508
 3853TIP3    H211524   1.016   2.774   2.600
 3854TIP3   OH211525   2.608   4.101   1.873
 3854TIP3    H111526   2.572   4.140   1.952
 3854TIP3    H211527   2.531   4.073   1.823
 3855TIP3   OH211528   3.141   0.916   1.922
 3855TIP3    H111529   3.085   0.953   1.853
 3855TIP3    H211530   3.116   0.963   2.001
 3856TIP3   OH211531   1.870   3.613   2.077
 3856TIP3    H111532   1.806   3.661   2.130
 3856TIP3    H211533   1.840   3.624   1.987
 3857TIP3   OH211534   6.826   1.542   1.930
 3857TIP3    H111535   6.896   1.604   1.950
 3857TIP3    H211536   6.813   1.550   1.836
 3858TIP3   OH211537   1.756   4.430   3.066
 3858TIP3    H111538   1.834   4.437   3.011
 3858TIP3    H211539   1.774   4.354   3.123
 3859TIP3   OH211540   5.266   1.339   0.785
 3859TIP3    H111541   5.231   1.250   0.795
 3859TIP3    H211542   5.191   1.391   0.757
 3860TIP3   OH211543   3.390   4.103   0.266
 3860TIP3    H111544   3.317   4.062   0.221
 3860TIP3    H211545   3.364   4.105   0.358
 3861TIP3   OH211546   2.692   5.668   5.416
 3861TIP3    H111547   2.702   5.763   5.423
 3861TIP3    H211548   2.672   5.653   5.323
 3862TIP3   OH211549   3.180   2.450   5.679
 3862TIP3    H111550   3.193   2.478   5.589
 3862TIP3    H211551   3.232   2.511   5.731
 3863TIP3   OH211552   3.653   2.127   2.825
 3863TIP3    H111553   3.664   2.197   2.761
 3863TIP3    H211554   3.732   2.130   2.879
 3864TIP3   OH211555   3.401   0.341   1.465
 3864TIP3    H111556   3.408   0.315   1.373
 3864TIP3    H211557   3.412   0.436   1.464
 3865TIP3   OH211558   2.416   3.775   2.016
 3865TIP3    H111559   2.351   3.796   1.949
 3865TIP3    H211560   2.367   3.777   2.098
 3866TIP3   OH211561   0.827   0.603   4.045
 3866TIP3    H111562   0.782   0.668   3.992
 3866TIP3    H211563   0.859   0.538   3.982
 3867TIP3   OH211564   4.828   0.601   5.447
 3867TIP3    H111565   4.787   0.524   5.486
 3867TIP3    H211566   4.770   0.626   5.375
 3868TIP3   OH211567   7.116   3.545   1.818
 3868TIP3    H111568   7.125   3.548   1.914
 3868TIP3    H211569   7.135   3.634   1.790
 3869TIP3   OH211570   4.534   3.828   4.679
 3869TIP3    H111571   4.478   3.904   4.669
 3869TIP3    H211572   4.583   3.824   4.596
 3870TIP3   OH211573   3.727   4.295   5.743
 3870TIP3    H111574   3.691   4.279   5.656
 3870TIP3    H211575   3.793   4.227   5.755
 3871TIP3   OH211576   6.030   1.583   0.339
 3871TIP3    H111577   5.948   1.542   0.366
 3871TIP3    H211578   6.003   1.660   0.290
 3872TIP3   OH211579   3.925   4.418   4.349
 3872TIP3    H111580   3.970   4.436   4.432
 3872TIP3    H211581   3.844   4.468   4.355
 3873TIP3   OH211582   2.163   3.809   2.169
 3873TIP3    H111583   2.072   3.816   2.197
 3873TIP3    H211584   2.160   3.818   2.074
 3874TIP3   OH211585   6.922   4.150   1.454
 3874TIP3    H111586   6.894   4.193   1.372
 3874TIP3    H211587   6.841   4.114   1.490
 3875TIP3   OH211588   1.990   0.125   4.415
 3875TIP3    H111589   2.052   0.124   4.342
 3875TIP3    H211590   1.956   0.036   4.418
 3876TIP3   OH211591   4.339   0.973   3.007
 3876TIP3    H111592   4.404   0.903   3.005
 3876TIP3    H211593   4.288   0.956   3.086
 3877TIP3   OH211594   1.087   2.952   5.781
 3877TIP3    H111595   1.072   3.017   5.851
 3877TIP3    H211596   1.076   3.002   5.700
 3878TIP3   OH211597   3.257   4.022   5.631
 3878TIP3    H111598   3.182   3.963   5.621
 3878TIP3    H211599   3.332   3.964   5.642
 3879TIP3   OH211600   4.829   3.534   1.310
 3879TIP3    H111601   4.823   3.455   1.256
 3879TIP3    H211602   4.739   3.563   1.321
 3880TIP3   OH211603   5.386   1.309   1.277
 3880TIP3    H111604   5.400   1.291   1.183
 3880TIP3    H211605   5.401   1.224   1.319
 3881TIP3   OH211606   0.462   0.259   0.405
 3881TIP3    H111607   0.432   0.349   0.395
 3881TIP3    H211608   0.502   0.238   0.320
 3882TIP3   OH211609   3.076   3.230   4.840
 3882TIP3    H111610   3.094   3.256   4.750
 3882TIP3    H211611   3.116   3.144   4.849
 3883TIP3   OH211612   7.113   5.517   3.315
 3883TIP3    H111613   7.195   5.564   3.300
 3883TIP3    H211614   7.090   5.481   3.229
 3884TIP3   OH211615   6.555   2.218   0.420
 3884TIP3    H111616   6.641   2.256   0.400
 3884TIP3    H211617   6.562   2.128   0.388
 3885TIP3   OH211618   3.858   5.257   3.979
 3885TIP3    H111619   3.774   5.292   4.010
 3885TIP3    H211620   3.863   5.170   4.019
 3886TIP3   OH211621   3.057   5.279   3.637
 3886TIP3    H111622   3.121   5.342   3.604
 3886TIP3    H211623   2.977   5.298   3.588
 3887TIP3   OH211624   4.044   4.759   0.224
 3887TIP3    H111625   3.981   4.800   0.284
 3887TIP3    H211626   4.120   4.817   0.226
 3888TIP3   OH211627   6.262   2.761   2.778
 3888TIP3    H111628   6.275   2.826   2.847
 3888TIP3    H211629   6.171   2.771   2.751
 3889TIP3   OH211630   5.706   5.466   0.495
 3889TIP3    H111631   5.622   5.422   0.505
 3889TIP3    H211632   5.684   5.559   0.498
 3890TIP3   OH211633   3.164   2.475   4.833
 3890TIP3    H111634   3.238   2.535   4.843
 3890TIP3    H211635   3.178   2.433   4.748
 3891TIP3   OH211636   3.031   5.269   1.807
 3891TIP3    H111637   2.994   5.314   1.731
 3891TIP3    H211638   2.956   5.227   1.849
 3892TIP3   OH211639   0.583   2.755   4.644
 3892TIP3    H111640   0.642   2.737   4.717
 3892TIP3    H211641   0.541   2.838   4.668
 3893TIP3   OH211642   3.753   1.592   2.868
 3893TIP3    H111643   3.699   1.549   2.802
 3893TIP3    H211644   3.691   1.623   2.934
 3894TIP3   OH211645   2.491   5.926   2.413
 3894TIP3    H111646   2.418   5.963   2.462
 3894TIP3    H211647   2.494   5.976   2.332
 3895TIP3   OH211648   1.461   2.794   0.251
 3895TIP3    H111649   1.468   2.737   0.175
 3895TIP3    H211650   1.531   2.765   0.309
 3896TIP3   OH211651   6.317   4.325   1.347
 3896TIP3    H111652   6.267   4.407   1.345
 3896TIP3    H211653   6.293   4.284   1.430
 3897TIP3   OH211654   5.177   4.143   1.777
 3897TIP3    H111655   5.257   4.164   1.825
 3897TIP3    H211656   5.203   4.140   1.685
 3898TIP3   OH211657   3.512   4.058   2.948
 3898TIP3    H111658   3.445   4.123   2.925
 3898TIP3    H211659   3.555   4.095   3.025
 3899TIP3   OH211660   3.890   3.509   5.738
 3899TIP3    H111661   3.883   3.415   5.757
 3899TIP3    H211662   3.911   3.513   5.645
 3900TIP3   OH211663   0.572   2.555   0.693
 3900TIP3    H111664   0.481   2.560   0.720
 3900TIP3    H211665   0.614   2.500   0.759
 3901TIP3   OH211666   7.122   1.710   0.139
 3901TIP3    H111667   7.140   1.710   0.233
 3901TIP3    H211668   7.084   1.624   0.122
 3902TIP3   OH211669   6.620   1.154   2.323
 3902TIP3    H111670   6.612   1.201   2.240
 3902TIP3    H211671   6.535   1.113   2.336
 3903TIP3   OH211672   5.022   4.695   3.786
 3903TIP3    H111673   4.957   4.656   3.844
 3903TIP3    H211674   5.084   4.624   3.768
 3904TIP3   OH211675   0.145   2.977   1.985
 3904TIP3    H111676   0.193   3.050   2.025
 3904TIP3    H211677   0.177   2.973   1.895
 3905TIP3   OH211678   0.300   0.958   5.742
 3905TIP3    H111679   0.387   0.955   5.781
 3905TIP3    H211680   0.241   0.979   5.815
 3906TIP3   OH211681   3.287   0.164   4.213
 3906TIP3    H111682   3.213   0.224   4.213
 3906TIP3    H211683   3.355   0.209   4.164
 3907TIP3   OH211684   5.162   3.325   1.302
 3907TIP3    H111685   5.171   3.301   1.210
 3907TIP3    H211686   5.249   3.355   1.328
 3908TIP3   OH211687   2.506   6.519   5.807
 3908TIP3    H111688   2.541   6.547   5.891
 3908TIP3    H211689   2.545   6.433   5.792
 3909TIP3   OH211690   0.771   1.530   3.085
 3909TIP3    H111691   0.777   1.601   3.149
 3909TIP3    H211692   0.710   1.562   3.019
 3910TIP3   OH211693   7.140   5.422   1.894
 3910TIP3    H111694   7.173   5.500   1.849
 3910TIP3    H211695   7.100   5.456   1.974
 3911TIP3   OH211696   2.715   4.898   5.315
 3911TIP3    H111697   2.799   4.906   5.361
 3911TIP3    H211698   2.738   4.897   5.222
 3912TIP3   OH211699   1.602   5.735   3.686
 3912TIP3    H111700   1.526   5.678   3.701
 3912TIP3    H211701   1.626   5.765   3.774
 3913TIP3   OH211702   2.830   6.429   2.359
 3913TIP3    H111703   2.922   6.421   2.385
 3913TIP3    H211704   2.805   6.517   2.385
 3914TIP3   OH211705   1.589   3.541   0.458
 3914TIP3    H111706   1.659   3.541   0.393
 3914TIP3    H211707   1.571   3.633   0.475
 3915TIP3   OH211708   3.795   5.895   5.034
 3915TIP3    H111709   3.870   5.840   5.055
 3915TIP3    H211710   3.818   5.936   4.950
 3916TIP3   OH211711   2.838   3.209   0.668
 3916TIP3    H111712   2.924   3.168   0.670
 3916TIP3    H211713   2.785   3.151   0.614
 3917TIP3   OH211714   5.400   0.778   3.072
 3917TIP3    H111715   5.306   0.790   3.070
 3917TIP3    H211716   5.430   0.809   2.987
 3918TIP3   OH211717   1.229   4.313   4.752
 3918TIP3    H111718   1.310   4.364   4.762
 3918TIP3    H211719   1.170   4.372   4.706
 3919TIP3   OH211720   0.676   0.010   2.101
 3919TIP3    H111721   0.699   0.093   2.142
 3919TIP3    H211722   0.760  -0.032   2.083
 3920TIP3   OH211723   0.558   6.761   4.556
 3920TIP3    H111724   0.577   6.853   4.574
 3920TIP3    H211725   0.573   6.751   4.462
 3921TIP3   OH211726   1.463   3.222   3.555
 3921TIP3    H111727   1.501   3.169   3.624
 3921TIP3    H211728   1.456   3.163   3.480
 3922TIP3   OH211729   1.951   2.602   1.268
 3922TIP3    H111730   2.009   2.569   1.199
 3922TIP3    H211731   2.010   2.635   1.335
 3923TIP3   OH211732   5.679   1.848   3.239
 3923TIP3    H111733   5.728   1.844   3.157
 3923TIP3    H211734   5.724   1.786   3.297
 3924TIP3   OH211735   4.387   0.653   1.953
 3924TIP3    H111736   4.314   0.657   1.892
 3924TIP3    H211737   4.465   0.653   1.897
 3925TIP3   OH211738   2.679   3.545   1.303
 3925TIP3    H111739   2.611   3.527   1.238
 3925TIP3    H211740   2.632   3.583   1.377
 3926TIP3   OH211741   3.016   2.772   0.595
 3926TIP3    H111742   2.992   2.816   0.676
 3926TIP3    H211743   2.993   2.834   0.526
 3927TIP3   OH211744   1.983   4.381   3.822
 3927TIP3    H111745   1.926   4.335   3.884
 3927TIP3    H211746   1.967   4.337   3.739
 3928TIP3   OH211747   3.591   2.784   1.940
 3928TIP3    H111748   3.525   2.840   1.981
 3928TIP3    H211749   3.633   2.841   1.875
 3929TIP3   OH211750   3.987   1.812   3.933
 3929TIP3    H111751   4.029   1.766   4.006
 3929TIP3    H211752   4.007   1.904   3.948
 3930TIP3   OH211753   5.564   2.292   1.061
 3930TIP3    H111754   5.532   2.208   1.028
 3930TIP3    H211755   5.508   2.311   1.136
 3931TIP3   OH211756   5.422   6.138   2.787
 3931TIP3    H111757   5.496   6.125   2.845
 3931TIP3    H211758   5.393   6.228   2.803
 3932TIP3   OH211759   2.270   1.260   3.215
 3932TIP3    H111760   2.243   1.259   3.307
 3932TIP3    H211761   2.189   1.272   3.166
 3933TIP3   OH211762   5.659   1.319   1.420
 3933TIP3    H111763   5.610   1.321   1.503
 3933TIP3    H211764   5.655   1.410   1.389
 3934TIP3   OH211765   3.073   1.277   0.819
 3934TIP3    H111766   3.059   1.316   0.733
 3934TIP3    H211767   3.011   1.322   0.877
 3935TIP3   OH211768   2.485   5.299   4.614
 3935TIP3    H111769   2.530   5.282   4.531
 3935TIP3    H211770   2.516   5.385   4.641
 3936TIP3   OH211771   2.348   6.707   5.659
 3936TIP3    H111772   2.397   6.659   5.726
 3936TIP3    H211773   2.259   6.672   5.667
 3937TIP3   OH211774   2.959   2.301   5.616
 3937TIP3    H111775   3.019   2.251   5.561
 3937TIP3    H211776   3.014   2.365   5.660
 3938TIP3   OH211777   2.570   4.520   1.762
 3938TIP3    H111778   2.552   4.573   1.685
 3938TIP3    H211779   2.501   4.543   1.825
 3939TIP3   OH211780   5.704   2.367   0.831
 3939TIP3    H111781   5.645   2.364   0.906
 3939TIP3    H211782   5.674   2.296   0.774
 3940TIP3   OH211783   6.470   1.031   3.792
 3940TIP3    H111784   6.528   1.071   3.857
 3940TIP3    H211785   6.398   1.093   3.782
 3941TIP3   OH211786   6.216   3.479   0.252
 3941TIP3    H111787   6.280   3.540   0.288
 3941TIP3    H211788   6.144   3.534   0.223
 3942TIP3   OH211789   7.006   5.717   2.055
 3942TIP3    H111790   6.920   5.698   2.093
 3942TIP3    H211791   6.995   5.701   1.961
 3943TIP3   OH211792   6.214   1.347   2.117
 3943TIP3    H111793   6.184   1.366   2.028
 3943TIP3    H211794   6.168   1.411   2.172
 3944TIP3   OH211795   3.928   1.741   2.447
 3944TIP3    H111796   3.994   1.784   2.393
 3944TIP3    H211797   3.910   1.804   2.518
 3945TIP3   OH211798   4.877   0.420   3.793
 3945TIP3    H111799   4.789   0.446   3.767
 3945TIP3    H211800   4.925   0.502   3.801
 3946TIP3   OH211801   4.325   0.155   1.669
 3946TIP3    H111802   4.331   0.248   1.692
 3946TIP3    H211803   4.283   0.114   1.745
 3947TIP3   OH211804   1.961   0.551   3.960
 3947TIP3    H111805   1.929   0.607   4.031
 3947TIP3    H211806   1.936   0.462   3.987
 3948TIP3   OH211807   0.503   3.690   1.275
 3948TIP3    H111808   0.490   3.746   1.352
 3948TIP3    H211809   0.472   3.743   1.201
 3949TIP3   OH211810   4.951   6.576   1.078
 3949TIP3    H111811   4.906   6.537   1.153
 3949TIP3    H211812   4.999   6.650   1.114
 3950TIP3   OH211813   4.462   2.091   4.207
 3950TIP3    H111814   4.491   2.006   4.174
 3950TIP3    H211815   4.443   2.142   4.128
 3951TIP3   OH211816   0.371   5.901   3.490
 3951TIP3    H111817   0.333   5.819   3.459
 3951TIP3    H211818   0.306   5.936   3.550
 3952TIP3   OH211819   6.185   6.587   5.470
 3952TIP3    H111820   6.202   6.501   5.510
 3952TIP3    H211821   6.144   6.566   5.386
 3953TIP3   OH211822   4.480   1.153   4.144
 3953TIP3    H111823   4.422   1.148   4.068
 3953TIP3    H211824   4.440   1.218   4.201
 3954TIP3   OH211825   2.362   4.110   5.602
 3954TIP3    H111826   2.363   4.093   5.508
 3954TIP3    H211827   2.427   4.049   5.638
 3955TIP3   OH211828   2.491   2.655   0.282
 3955TIP3    H111829   2.490   2.658   0.186
 3955TIP3    H211830   2.580   2.629   0.304
 3956TIP3   OH211831   6.694   3.752   4.644
 3956TIP3    H111832   6.703   3.658   4.630
 3956TIP3    H211833   6.725   3.792   4.563
 3957TIP3   OH211834   0.619   6.634   4.027
 3957TIP3    H111835   0.619   6.632   4.122
 3957TIP3    H211836   0.634   6.543   4.001
 3958TIP3   OH211837   4.134   2.659   3.131
 3958TIP3    H111838   4.183   2.588   3.172
 3958TIP3    H211839   4.129   2.634   3.038
 3959TIP3   OH211840   0.201   3.766   2.033
 3959TIP3    H111841   0.171   3.827   2.099
 3959TIP3    H211842   0.187   3.811   1.950
 3960TIP3   OH211843   3.015   1.981   0.629
 3960TIP3    H111844   2.963   2.023   0.561
 3960TIP3    H211845   2.994   2.028   0.709
 3961TIP3   OH211846   3.594   0.256   1.671
 3961TIP3    H111847   3.520   0.305   1.636
 3961TIP3    H211848   3.556   0.201   1.740
 3962TIP3   OH211849   4.601   1.025   5.190
 3962TIP3    H111850   4.642   0.940   5.174
 3962TIP3    H211851   4.507   1.008   5.181
 3963TIP3   OH211852   6.910   0.641   0.872
 3963TIP3    H111853   6.931   0.549   0.890
 3963TIP3    H211854   6.947   0.689   0.947
 3964TIP3   OH211855   4.286   2.908   0.433
 3964TIP3    H111856   4.333   2.839   0.384
 3964TIP3    H211857   4.195   2.900   0.404
 3965TIP3   OH211858   4.603   6.116   5.669
 3965TIP3    H111859   4.640   6.091   5.754
 3965TIP3    H211860   4.509   6.121   5.685
 3966TIP3   OH211861   2.502   2.216   5.296
 3966TIP3    H111862   2.561   2.164   5.350
 3966TIP3    H211863   2.548   2.299   5.284
 3967TIP3   OH211864   0.075   0.093   5.834
 3967TIP3    H111865  -0.010   0.098   5.878
 3967TIP3    H211866   0.054   0.085   5.741
 3968TIP3   OH211867   5.501   4.875   3.349
 3968TIP3    H111868   5.528   4.965   3.368
 3968TIP3    H211869   5.410   4.872   3.377
 3969TIP3   OH211870   0.964   0.743   2.985
 3969TIP3    H111871   0.937   0.701   3.066
 3969TIP3    H211872   0.962   0.673   2.919
 3970TIP3   OH211873   0.306   6.360   4.652
 3970TIP3    H111874   0.330   6.348   4.743
 3970TIP3    H211875   0.266   6.447   4.649
 3971TIP3   OH211876   1.202   1.914   1.127
 3971TIP3    H111877   1.158   1.831   1.141
 3971TIP3    H211878   1.215   1.919   1.032
 3972TIP3   OH211879   4.756   4.620   3.901
 3972TIP3    H111880   4.739   4.622   3.807
 3972TIP3    H211881   4.760   4.713   3.926
 3973TIP3   OH211882   7.065   2.242   1.234
 3973TIP3    H111883   6.986   2.274   1.189
 3973TIP3    H211884   7.041   2.154   1.264
 3974TIP3   OH211885   1.784   1.857   2.564
 3974TIP3    H111886   1.831   1.836   2.484
 3974TIP3    H211887   1.693   1.836   2.545
 3975TIP3   OH211888   5.321   1.684   0.834
 3975TIP3    H111889   5.282   1.767   0.805
 3975TIP3    H211890   5.280   1.666   0.918
 3976TIP3   OH211891   6.878   3.525   4.900
 3976TIP3    H111892   6.928   3.605   4.887
 3976TIP3    H211893   6.850   3.499   4.812
 3977TIP3   OH211894   7.120   3.997   5.584
 3977TIP3    H111895   7.063   4.068   5.615
 3977TIP3    H211896   7.059   3.933   5.546
 3978TIP3   OH211897   4.020   1.153   0.137
 3978TIP3    H111898   4.032   1.099   0.058
 3978TIP3    H211899   4.073   1.230   0.121
 3979TIP3   OH211900   4.335   1.062   2.287
 3979TIP3    H111901   4.414   1.034   2.332
 3979TIP3    H211902   4.321   0.997   2.219
 3980TIP3   OH211903   5.247   3.537   5.026
 3980TIP3    H111904   5.219   3.627   5.009
 3980TIP3    H211905   5.196   3.510   5.103
 3981TIP3   OH211906   3.603   5.225   0.809
 3981TIP3    H111907   3.567   5.139   0.834
 3981TIP3    H211908   3.527   5.283   0.808
 3982TIP3   OH211909   6.292   6.005   0.508
 3982TIP3    H111910   6.283   5.934   0.446
 3982TIP3    H211911   6.319   6.080   0.455
 3983TIP3   OH211912   3.721   5.060   5.440
 3983TIP3    H111913   3.642   5.045   5.492
 3983TIP3    H211914   3.690   5.086   5.354
 3984TIP3   OH211915   3.628   2.588   4.566
 3984TIP3    H111916   3.568   2.553   4.500
 3984TIP3    H211917   3.607   2.538   4.645
 3985TIP3   OH211918   5.732   1.963   4.164
 3985TIP3    H111919   5.729   1.875   4.127
 3985TIP3    H211920   5.815   2.000   4.132
 3986TIP3   OH211921   2.584   3.489   3.700
 3986TIP3    H111922   2.623   3.422   3.643
 3986TIP3    H211923   2.659   3.538   3.734
 3987TIP3   OH211924   7.111   2.893   2.094
 3987TIP3    H111925   7.046   2.955   2.060
 3987TIP3    H211926   7.195   2.929   2.067
 3988TIP3   OH211927   4.399   1.994   2.798
 3988TIP3    H111928   4.452   1.916   2.782
 3988TIP3    H211929   4.461   2.057   2.836
 3989TIP3   OH211930   2.109   2.122   3.557
 3989TIP3    H111931   2.163   2.160   3.627
 3989TIP3    H211932   2.020   2.151   3.578
 3990TIP3   OH211933   4.928   0.954   1.902
 3990TIP3    H111934   4.869   1.014   1.855
 3990TIP3    H211935   4.992   0.928   1.836
 3991TIP3   OH211936   5.314   5.180   1.935
 3991TIP3    H111937   5.402   5.141   1.934
 3991TIP3    H211938   5.326   5.265   1.977
 3992TIP3   OH211939   5.569   6.521   5.164
 3992TIP3    H111940   5.512   6.445   5.168
 3992TIP3    H211941   5.620   6.517   5.245
 3993TIP3   OH211942   5.048   5.523   4.293
 3993TIP3    H111943   5.088   5.515   4.379
 3993TIP3    H211944   5.045   5.433   4.260
 3994TIP3   OH211945   1.697   1.643   5.296
 3994TIP3    H111946   1.708   1.552   5.323
 3994TIP3    H211947   1.645   1.639   5.216
 3995TIP3   OH211948   5.432   1.877   0.422
 3995TIP3    H111949   5.525   1.900   0.420
 3995TIP3    H211950   5.417   1.848   0.512
 3996TIP3   OH211951   6.931   3.369   0.132
 3996TIP3    H111952   7.015   3.408   0.157
 3996TIP3    H211953   6.955   3.287   0.089
 3997TIP3   OH211954   1.587   4.878   4.056
 3997TIP3    H111955   1.625   4.791   4.066
 3997TIP3    H211956   1.590   4.894   3.961
 3998TIP3   OH211957   5.308   3.687   1.736
 3998TIP3    H111958   5.373   3.722   1.797
 3998TIP3    H211959   5.350   3.694   1.650
 3999TIP3   OH211960   5.536   5.092   0.436
 3999TIP3    H111961   5.559   5.054   0.521
 3999TIP3    H211962   5.541   5.187   0.451
 4000TIP3   OH211963   3.976   2.569   0.354
 4000TIP3    H111964   3.986   2.474   0.350
 4000TIP3    H211965   3.969   2.596   0.262
 4001TIP3   OH211966   3.092   1.158   0.083
 4001TIP3    H111967   3.159   1.201   0.137
 4001TIP3    H211968   3.028   1.125   0.147
 4002TIP3   OH211969   4.235   6.578   3.288
 4002TIP3    H111970   4.259   6.558   3.198
 4002TIP3    H211971   4.297   6.646   3.315
 4003TIP3   OH211972   3.230   5.745   4.266
 4003TIP3    H111973   3.219   5.775   4.176
 4003TIP3    H211974   3.253   5.823   4.315
 4004TIP3   OH211975   6.428   4.492   4.123
 4004TIP3    H111976   6.481   4.412   4.123
 4004TIP3    H211977   6.341   4.463   4.148
 4005TIP3   OH211978   6.910   4.644   5.349
 4005TIP3    H111979   6.902   4.726   5.300
 4005TIP3    H211980   6.823   4.603   5.340
 4006TIP3   OH211981   1.296   0.784   0.222
 4006TIP3    H111982   1.295   0.703   0.272
 4006TIP3    H211983   1.359   0.840   0.267
 4007TIP3   OH211984   4.348   3.721   0.213
 4007TIP3    H111985   4.256   3.695   0.223
 4007TIP3    H211986   4.396   3.638   0.206
 4008TIP3   OH211987   2.073   5.979   1.262
 4008TIP3    H111988   2.116   5.925   1.195
 4008TIP3    H211989   1.993   6.009   1.220
 4009TIP3   OH211990   5.996   4.842   0.216
 4009TIP3    H111991   6.034   4.914   0.166
 4009TIP3    H211992   5.905   4.868   0.231
 4010TIP3   OH211993   3.695   4.610   4.289
 4010TIP3    H111994   3.636   4.666   4.339
 4010TIP3    H211995   3.752   4.670   4.242
 4011TIP3   OH211996   4.200   0.559   1.283
 4011TIP3    H111997   4.162   0.641   1.251
 4011TIP3    H211998   4.216   0.575   1.376
 4012TIP3   OH211999   6.445   2.531   1.877
 4012TIP3    H112000   6.535   2.558   1.894
 4012TIP3    H212001   6.411   2.504   1.962
 4013TIP3   OH212002   3.308   6.689   5.169
 4013TIP3    H112003   3.232   6.699   5.227
 4013TIP3    H212004   3.301   6.761   5.107
 4014TIP3   OH212005   4.977   5.889   2.566
 4014TIP3    H112006   4.948   5.834   2.494
 4014TIP3    H212007   5.061   5.925   2.537
 4015TIP3   OH212008   2.943   5.679   1.419
 4015TIP3    H112009   2.952   5.628   1.339
 4015TIP3    H212010   2.864   5.644   1.461
 4016TIP3   OH212011   4.698   5.118   5.198
 4016TIP3    H112012   4.635   5.128   5.127
 4016TIP3    H212013   4.769   5.178   5.176
 4017TIP3   OH212014   1.411   2.368   2.389
 4017TIP3    H112015   1.421   2.448   2.440
 4017TIP3    H212016   1.383   2.398   2.303
 4018TIP3   OH212017   2.575   1.056   2.516
 4018TIP3    H112018   2.615   1.023   2.435
 4018TIP3    H212019   2.635   1.124   2.547
 4019TIP3   OH212020   5.213   4.220   5.462
 4019TIP3    H112021   5.268   4.144   5.444
 4019TIP3    H212022   5.134   4.184   5.503
 4020TIP3   OH212023   4.958   3.124   0.147
 4020TIP3    H112024   4.877   3.092   0.107
 4020TIP3    H212025   4.938   3.133   0.240
 4021TIP3   OH212026   1.415   1.490   2.082
 4021TIP3    H112027   1.379   1.482   1.993
 4021TIP3    H212028   1.356   1.438   2.137
 4022TIP3   OH212029   0.810   6.806   2.606
 4022TIP3    H112030   0.885   6.753   2.632
 4022TIP3    H212031   0.770   6.758   2.534
 4023TIP3   OH212032   0.422   2.790   0.964
 4023TIP3    H112033   0.416   2.885   0.956
 4023TIP3    H212034   0.514   2.770   0.948
 4024TIP3   OH212035   3.799   6.675   3.258
 4024TIP3    H112036   3.844   6.717   3.185
 4024TIP3    H212037   3.715   6.648   3.222
 4025TIP3   OH212038   0.281   5.504   5.096
 4025TIP3    H112039   0.349   5.443   5.127
 4025TIP3    H212040   0.231   5.526   5.174
 4026TIP3   OH212041   1.214   2.826   4.802
 4026TIP3    H112042   1.149   2.766   4.765
 4026TIP3    H212043   1.296   2.778   4.797
 4027TIP3   OH212044   7.104   3.277   1.997
 4027TIP3    H112045   7.060   3.220   1.933
 4027TIP3    H212046   7.197   3.258   1.987
 4028TIP3   OH212047   1.131   2.872   0.743
 4028TIP3    H112048   1.106   2.785   0.713
 4028TIP3    H212049   1.050   2.912   0.774
 4029TIP3   OH212050   2.763   0.417   3.774
 4029TIP3    H112051   2.712   0.422   3.693
 4029TIP3    H212052   2.736   0.335   3.814
 4030TIP3   OH212053   6.296   0.264   1.190
 4030TIP3    H112054   6.369   0.252   1.251
 4030TIP3    H212055   6.310   0.198   1.122
 4031TIP3   OH212056   6.141   2.517   5.587
 4031TIP3    H112057   6.164   2.597   5.540
 4031TIP3    H212058   6.216   2.499   5.642
 4032TIP3   OH212059   4.151   4.637   1.932
 4032TIP3    H112060   4.110   4.719   1.960
 4032TIP3    H212061   4.095   4.568   1.969
 4033TIP3   OH212062   1.829   2.341   3.759
 4033TIP3    H112063   1.916   2.376   3.737
 4033TIP3    H212064   1.818   2.361   3.852
 4034TIP3   OH212065   3.984   3.904   2.741
 4034TIP3    H112066   3.977   3.874   2.651
 4034TIP3    H212067   3.976   3.824   2.794
 4035TIP3   OH212068   4.058   0.373   4.477
 4035TIP3    H112069   4.044   0.443   4.541
 4035TIP3    H212070   4.056   0.293   4.528
 4036TIP3   OH212071   2.066   5.928   5.832
 4036TIP3    H112072   2.075   6.002   5.772
 4036TIP3    H212073   2.003   5.870   5.790
 4037TIP3   OH212074   0.303   1.514   1.676
 4037TIP3    H112075   0.277   1.468   1.756
 4037TIP3    H212076   0.329   1.445   1.615
 4038TIP3   OH212077   7.131   5.228   5.844
 4038TIP3    H112078   7.217   5.265   5.823
 4038TIP3    H212079   7.076   5.304   5.863
 4039TIP3   OH212080   1.637   5.321   5.219
 4039TIP3    H112081   1.646   5.383   5.147
 4039TIP3    H212082   1.685   5.362   5.292
 4040TIP3   OH212083   1.152   3.226   1.703
 4040TIP3    H112084   1.245   3.226   1.682
 4040TIP3    H212085   1.149   3.244   1.797
 4041TIP3   OH212086   6.914   5.486   1.067
 4041TIP3    H112087   6.889   5.577   1.085
 4041TIP3    H212088   6.834   5.446   1.034
 4042TIP3   OH212089   6.327   5.235   2.562
 4042TIP3    H112090   6.350   5.161   2.618
 4042TIP3    H212091   6.250   5.274   2.605
 4043TIP3   OH212092   2.600   2.566   2.977
 4043TIP3    H112093   2.507   2.563   2.956
 4043TIP3    H212094   2.616   2.487   3.028
 4044TIP3   OH212095   7.098   2.836   4.212
 4044TIP3    H112096   7.103   2.822   4.118
 4044TIP3    H212097   7.049   2.760   4.245
 4045TIP3   OH212098   0.950   6.489   0.460
 4045TIP3    H112099   0.898   6.500   0.380
 4045TIP3    H212100   1.029   6.443   0.430
 4046TIP3   OH212101   3.921   3.188   3.890
 4046TIP3    H112102   3.941   3.266   3.940
 4046TIP3    H212103   3.999   3.133   3.899
 4047TIP3   OH212104   7.136   0.669   1.276
 4047TIP3    H112105   7.231   0.672   1.287
 4047TIP3    H212106   7.109   0.760   1.271
 4048TIP3   OH212107   0.313   4.097   4.207
 4048TIP3    H112108   0.408   4.093   4.214
 4048TIP3    H212109   0.294   4.189   4.188
 4049TIP3   OH212110   0.600   6.211   0.127
 4049TIP3    H112111   0.522   6.157   0.142
 4049TIP3    H212112   0.566   6.299   0.116
 4050TIP3   OH212113   0.414   3.576   2.230
 4050TIP3    H112114   0.504   3.544   2.241
 4050TIP3    H212115   0.390   3.551   2.141
 4051TIP3   OH212116   2.886   5.218   5.446
 4051TIP3    H112117   2.933   5.136   5.458
 4051TIP3    H212118   2.823   5.221   5.518
 4052TIP3   OH212119   0.967   4.177   2.924
 4052TIP3    H112120   1.017   4.223   2.992
 4052TIP3    H212121   0.951   4.090   2.961
 4053TIP3   OH212122   2.913   5.756   4.557
 4053TIP3    H112123   2.873   5.672   4.577
 4053TIP3    H212124   2.910   5.762   4.461
 4054TIP3   OH212125   6.142   1.557   0.819
 4054TIP3    H112126   6.132   1.538   0.912
 4054TIP3    H212127   6.052   1.554   0.785
 4055TIP3   OH212128   0.454   5.476   4.530
 4055TIP3    H112129   0.447   5.511   4.619
 4055TIP3    H212130   0.408   5.392   4.534
 4056TIP3   OH212131   3.781   2.124   0.456
 4056TIP3    H112132   3.831   2.157   0.382
 4056TIP3    H212133   3.845   2.078   0.510
 4057TIP3   OH212134   1.155   4.998   4.437
 4057TIP3    H112135   1.135   5.085   4.471
 4057TIP3    H212136   1.150   4.941   4.513
 4058TIP3   OH212137   5.849   0.065   2.085
 4058TIP3    H112138   5.870   0.059   2.178
 4058TIP3    H212139   5.763   0.025   2.077
 4059TIP3   OH212140   3.531   4.850   5.554
 4059TIP3    H112141   3.473   4.849   5.477
 4059TIP3    H212142   3.614   4.814   5.522
 4060TIP3   OH212143   3.781   5.469   0.810
 4060TIP3    H112144   3.718   5.513   0.867
 4060TIP3    H212145   3.864   5.512   0.829
 4061TIP3   OH212146   0.728   1.176   3.975
 4061TIP3    H112147   0.648   1.141   4.015
 4061TIP3    H212148   0.697   1.227   3.901
 4062TIP3   OH212149   1.091   5.697   3.684
 4062TIP3    H112150   1.097   5.782   3.641
 4062TIP3    H212151   1.048   5.715   3.767
 4063TIP3   OH212152   2.261   1.968   4.989
 4063TIP3    H112153   2.225   1.936   5.072
 4063TIP3    H212154   2.354   1.981   5.007
 4064TIP3   OH212155   5.791   5.661   2.195
 4064TIP3    H112156   5.709   5.641   2.149
 4064TIP3    H212157   5.785   5.755   2.213
 4065TIP3   OH212158   2.426   1.782   2.898
 4065TIP3    H112159   2.399   1.728   2.824
 4065TIP3    H212160   2.355   1.773   2.961
 4066TIP3   OH212161   4.517   4.236   2.813
 4066TIP3    H112162   4.503   4.319   2.858
 4066TIP3    H212163   4.519   4.259   2.720
 4067TIP3   OH212164   4.334   1.299   2.126
 4067TIP3    H112165   4.312   1.211   2.157
 4067TIP3    H212166   4.287   1.309   2.044
 4068TIP3   OH212167   4.746   1.117   4.415
 4068TIP3    H112168   4.739   1.207   4.447
 4068TIP3    H212169   4.659   1.097   4.381
 4069TIP3   OH212170   1.442   4.915   4.860
 4069TIP3    H112171   1.482   4.999   4.841
 4069TIP3    H212172   1.381   4.932   4.932
 4070TIP3   OH212173   3.369   0.499   5.579
 4070TIP3    H112174   3.395   0.477   5.669
 4070TIP3    H212175   3.423   0.441   5.524
 4071TIP3   OH212176   3.195   5.972   2.671
 4071TIP3    H112177   3.115   5.968   2.724
 4071TIP3    H212178   3.263   5.938   2.729
 4072TIP3   OH212179   5.985   5.442   0.599
 4072TIP3    H112180   5.895   5.429   0.630
 4072TIP3    H212181   6.031   5.478   0.675
 4073TIP3   OH212182   0.468   0.239   1.529
 4073TIP3    H112183   0.476   0.145   1.547
 4073TIP3    H212184   0.552   0.276   1.554
 4074TIP3   OH212185   2.071   5.900   0.119
 4074TIP3    H112186   2.109   5.858   0.042
 4074TIP3    H212187   2.022   5.830   0.163
 4075TIP3   OH212188   3.813   0.756   4.957
 4075TIP3    H112189   3.885   0.812   4.928
 4075TIP3    H212190   3.835   0.669   4.925
 4076TIP3   OH212191   4.585   3.958   2.150
 4076TIP3    H112192   4.635   3.909   2.215
 4076TIP3    H212193   4.629   3.941   2.067
 4077TIP3   OH212194   0.241   1.773   4.821
 4077TIP3    H112195   0.165   1.733   4.779
 4077TIP3    H212196   0.313   1.755   4.762
 4078TIP3   OH212197   3.416   5.557   1.121
 4078TIP3    H112198   3.339   5.501   1.124
 4078TIP3    H212199   3.385   5.639   1.083
 4079TIP3   OH212200   1.190   5.773   5.793
 4079TIP3    H112201   1.259   5.816   5.742
 4079TIP3    H212202   1.110   5.818   5.767
 4080TIP3   OH212203   5.490   2.711   0.182
 4080TIP3    H112204   5.434   2.774   0.136
 4080TIP3    H212205   5.569   2.706   0.129
 4081TIP3   OH212206   0.000   0.143   5.581
 4081TIP3    H112207   0.001   0.053   5.547
 4081TIP3    H212208   0.019   0.197   5.504
 4082TIP3   OH212209   3.791   0.659   4.639
 4082TIP3    H112210   3.760   0.583   4.689
 4082TIP3    H212211   3.738   0.659   4.560
 4083TIP3   OH212212   5.797   6.577   0.592
 4083TIP3    H112213   5.706   6.601   0.607
 4083TIP3    H212214   5.842   6.602   0.672
 4084TIP3   OH212215   1.810   0.334   5.753
 4084TIP3    H112216   1.773   0.260   5.800
 4084TIP3    H212217   1.738   0.396   5.745
 4085TIP3   OH212218   2.745   0.914   4.954
 4085TIP3    H112219   2.692   0.977   4.906
 4085TIP3    H212220   2.685   0.872   5.015
 4086TIP3   OH212221   1.407   2.870   5.630
 4086TIP3    H112222   1.445   2.883   5.717
 4086TIP3    H212223   1.318   2.839   5.647
 4087TIP3   OH212224   0.947   5.283   0.136
 4087TIP3    H112225   0.933   5.311   0.045
 4087TIP3    H212226   1.015   5.215   0.130
 4088TIP3   OH212227   0.359   2.235   4.690
 4088TIP3    H112228   0.423   2.189   4.636
 4088TIP3    H212229   0.367   2.327   4.665
 4089TIP3   OH212230   1.763   4.057   4.215
 4089TIP3    H112231   1.685   4.057   4.271
 4089TIP3    H212232   1.809   3.976   4.237
 4090TIP3   OH212233   5.924   5.439   0.219
 4090TIP3    H112234   5.913   5.516   0.275
 4090TIP3    H212235   5.928   5.365   0.280
 4091TIP3   OH212236   4.398   1.614   5.032
 4091TIP3    H112237   4.484   1.648   5.054
 4091TIP3    H212238   4.366   1.673   4.964
 4092TIP3   OH212239   4.136   5.630   3.758
 4092TIP3    H112240   4.135   5.713   3.710
 4092TIP3    H212241   4.187   5.571   3.702
 4093TIP3   OH212242   4.361   2.911   2.514
 4093TIP3    H112243   4.406   2.928   2.597
 4093TIP3    H212244   4.427   2.929   2.447
 4094TIP3   OH212245   6.854   3.081   1.631
 4094TIP3    H112246   6.792   3.096   1.560
 4094TIP3    H212247   6.815   3.125   1.707
 4095TIP3   OH212248   2.189   3.751   0.947
 4095TIP3    H112249   2.207   3.741   0.853
 4095TIP3    H212250   2.122   3.819   0.951
 4096TIP3   OH212251   6.866   1.250   4.070
 4096TIP3    H112252   6.920   1.308   4.016
 4096TIP3    H212253   6.925   1.221   4.140
 4097TIP3   OH212254   4.729   3.360   5.783
 4097TIP3    H112255   4.796   3.416   5.822
 4097TIP3    H212256   4.770   3.322   5.706
 4098TIP3   OH212257   1.594   6.664   2.477
 4098TIP3    H112258   1.657   6.717   2.429
 4098TIP3    H212259   1.577   6.589   2.420
 4099TIP3   OH212260   6.120   3.625   0.692
 4099TIP3    H112261   6.042   3.569   0.689
 4099TIP3    H212262   6.102   3.686   0.763
 4100TIP3   OH212263   0.920   0.930   5.577
 4100TIP3    H112264   1.009   0.898   5.567
 4100TIP3    H212265   0.885   0.933   5.488
 4101TIP3   OH212266   6.796   6.624   2.728
 4101TIP3    H112267   6.813   6.620   2.634
 4101TIP3    H212268   6.863   6.683   2.763
 4102TIP3   OH212269   5.723   4.632   3.407
 4102TIP3    H112270   5.681   4.716   3.386
 4102TIP3    H212271   5.811   4.640   3.369
 4103TIP3   OH212272   1.507   5.442   4.696
 4103TIP3    H112273   1.439   5.498   4.735
 4103TIP3    H212274   1.470   5.354   4.699
 4104TIP3   OH212275   1.600   5.387   1.289
 4104TIP3    H112276   1.687   5.421   1.312
 4104TIP3    H212277   1.606   5.293   1.307
 4105TIP3   OH212278   6.929   2.003   3.621
 4105TIP3    H112279   6.876   2.080   3.602
 4105TIP3    H212280   6.976   2.025   3.701
 4106TIP3   OH212281   1.069   0.335   4.582
 4106TIP3    H112282   1.041   0.276   4.652
 4106TIP3    H212283   1.078   0.420   4.624
 4107TIP3   OH212284   0.604   2.950   4.935
 4107TIP3    H112285   0.522   2.997   4.948
 4107TIP3    H212286   0.668   3.019   4.915
 4108TIP3   OH212287   1.043   6.515   4.660
 4108TIP3    H112288   1.006   6.583   4.716
 4108TIP3    H212289   1.001   6.434   4.689
 4109TIP3   OH212290   5.751   5.588   5.072
 4109TIP3    H112291   5.726   5.520   5.135
 4109TIP3    H212292   5.668   5.628   5.046
 4110TIP3   OH212293   2.093   4.517   3.490
 4110TIP3    H112294   2.166   4.532   3.550
 4110TIP3    H212295   2.090   4.596   3.435
 4111TIP3   OH212296   4.017   1.730   0.019
 4111TIP3    H112297   3.947   1.791   0.043
 4111TIP3    H212298   3.971   1.655  -0.021
 4112TIP3   OH212299   5.462   0.766   3.479
 4112TIP3    H112300   5.544   0.796   3.441
 4112TIP3    H212301   5.455   0.674   3.452
 4113TIP3   OH212302   4.668   4.042   5.720
 4113TIP3    H112303   4.596   4.020   5.779
 4113TIP3    H212304   4.714   3.960   5.707
 4114TIP3   OH212305   5.808   5.173   3.224
 4114TIP3    H112306   5.839   5.102   3.168
 4114TIP3    H212307   5.835   5.148   3.312
 4115TIP3   OH212308   4.098   2.462   0.691
 4115TIP3    H112309   4.159   2.404   0.644
 4115TIP3    H212310   4.113   2.444   0.783
 4116TIP3   OH212311   3.389   5.217   1.686
 4116TIP3    H112312   3.451   5.189   1.619
 4116TIP3    H212313   3.402   5.156   1.759
 4117TIP3   OH212314   1.845   5.753   1.707
 4117TIP3    H112315   1.881   5.674   1.747
 4117TIP3    H212316   1.751   5.736   1.700
 4118TIP3   OH212317   3.795   2.251   0.024
 4118TIP3    H112318   3.839   2.262   0.109
 4118TIP3    H212319   3.829   2.323  -0.029
 4119TIP3   OH212320   2.201   0.161   0.436
 4119TIP3    H112321   2.131   0.158   0.501
 4119TIP3    H212322   2.279   0.131   0.482
 4120TIP3   OH212323   5.635   6.281   3.647
 4120TIP3    H112324   5.722   6.243   3.645
 4120TIP3    H212325   5.577   6.209   3.623
 4121TIP3   OH212326   3.455   0.853   4.448
 4121TIP3    H112327   3.376   0.800   4.460
 4121TIP3    H212328   3.426   0.927   4.394
 4122TIP3   OH212329   1.269   6.379   3.251
 4122TIP3    H112330   1.213   6.309   3.217
 4122TIP3    H212331   1.221   6.460   3.231
 4123TIP3   OH212332   1.347   3.434   0.501
 4123TIP3    H112333   1.439   3.454   0.483
 4123TIP3    H212334   1.329   3.356   0.448
 4124TIP3   OH212335   0.812   5.421   0.324
 4124TIP3    H112336   0.771   5.337   0.345
 4124TIP3    H212337   0.878   5.400   0.257
 4125TIP3   OH212338   4.080   1.507   0.662
 4125TIP3    H112339   4.035   1.490   0.745
 4125TIP3    H212340   4.173   1.499   0.684
 4126TIP3   OH212341   1.148   3.304   1.969
 4126TIP3    H112342   1.116   3.230   2.020
 4126TIP3    H212343   1.100   3.380   2.005
 4127TIP3   OH212344   0.753   2.814   0.727
 4127TIP3    H112345   0.661   2.835   0.713
 4127TIP3    H212346   0.753   2.722   0.754
 4128TIP3   OH212347   0.463   4.965   0.929
 4128TIP3    H112348   0.519   5.012   0.991
 4128TIP3    H212349   0.395   5.028   0.906
 4129TIP3   OH212350   2.343   2.261   4.887
 4129TIP3    H112351   2.314   2.229   4.801
 4129TIP3    H212352   2.353   2.182   4.939
 4130TIP3   OH212353   5.752   4.013   2.183
 4130TIP3    H112354   5.725   3.926   2.212
 4130TIP3    H212355   5.676   4.048   2.136
 4131TIP3   OH212356   4.626   1.052   3.582
 4131TIP3    H112357   4.715   1.083   3.568
 4131TIP3    H212358   4.637   0.964   3.617
 4132TIP3   OH212359   0.133   1.602   1.493
 4132TIP3    H112360   0.059   1.640   1.541
 4132TIP3    H212361   0.189   1.564   1.560
 4133TIP3   OH212362   5.401   6.226   4.199
 4133TIP3    H112363   5.389   6.132   4.211
 4133TIP3    H212364   5.485   6.245   4.241
 4134TIP3   OH212365   0.147   5.966   4.882
 4134TIP3    H112366   0.133   6.056   4.851
 4134TIP3    H212367   0.092   5.912   4.826
 4135TIP3   OH212368   5.416   0.028   2.971
 4135TIP3    H112369   5.341   0.068   2.927
 4135TIP3    H212370   5.460  -0.022   2.902
 4136TIP3   OH212371   1.855   3.974   5.434
 4136TIP3    H112372   1.917   3.917   5.479
 4136TIP3    H212373   1.896   4.060   5.436
 4137TIP3   OH212374   1.609   0.058   1.996
 4137TIP3    H112375   1.704   0.060   1.991
 4137TIP3    H212376   1.581   0.012   1.917
 4138TIP3   OH212377   4.410   1.732   1.078
 4138TIP3    H112378   4.387   1.640   1.068
 4138TIP3    H212379   4.475   1.733   1.149
 4139TIP3   OH212380   3.266   5.603   4.713
 4139TIP3    H112381   3.191   5.544   4.719
 4139TIP3    H212382   3.269   5.649   4.797
 4140TIP3   OH212383   3.328   3.310   3.176
 4140TIP3    H112384   3.315   3.403   3.160
 4140TIP3    H212385   3.367   3.306   3.263
 4141TIP3   OH212386   2.386   5.387   5.338
 4141TIP3    H112387   2.449   5.315   5.343
 4141TIP3    H212388   2.316   5.354   5.281
 4142TIP3   OH212389   1.349   2.180   3.477
 4142TIP3    H112390   1.407   2.226   3.536
 4142TIP3    H212391   1.303   2.117   3.533
 4143TIP3   OH212392   3.831   4.992   2.144
 4143TIP3    H112393   3.827   4.951   2.230
 4143TIP3    H212394   3.811   5.085   2.161
 4144TIP3   OH212395   0.771   0.419   5.144
 4144TIP3    H112396   0.706   0.465   5.090
 4144TIP3    H212397   0.754   0.450   5.233
 4145TIP3   OH212398   5.609   0.426   1.283
 4145TIP3    H112399   5.686   0.369   1.278
 4145TIP3    H212400   5.581   0.435   1.192
 4146TIP3   OH212401   2.052   4.885   2.100
 4146TIP3    H112402   2.126   4.882   2.040
 4146TIP3    H212403   2.084   4.847   2.182
 4147TIP3   OH212404   4.623   0.478   3.279
 4147TIP3    H112405   4.698   0.534   3.300
 4147TIP3    H212406   4.645   0.440   3.194
 4148TIP3   OH212407   0.743   0.134   4.604
 4148TIP3    H112408   0.664   0.079   4.610
 4148TIP3    H212409   0.747   0.160   4.512
 4149TIP3   OH212410   4.691   1.401   4.830
 4149TIP3    H112411   4.771   1.350   4.825
 4149TIP3    H212412   4.655   1.380   4.916
 4150TIP3   OH212413   4.567   6.142   1.596
 4150TIP3    H112414   4.501   6.204   1.563
 4150TIP3    H212415   4.524   6.097   1.668
 4151TIP3   OH212416   1.536   0.987   1.394
 4151TIP3    H112417   1.451   1.029   1.405
 4151TIP3    H212418   1.596   1.038   1.448
 4152TIP3   OH212419   0.437   6.447   5.002
 4152TIP3    H112420   0.532   6.434   5.002
 4152TIP3    H212421   0.401   6.361   5.022
 4153TIP3   OH212422   2.840   0.564   4.300
 4153TIP3    H112423   2.798   0.565   4.214
 4153TIP3    H212424   2.823   0.477   4.334
 4154TIP3   OH212425   4.619   5.394   1.555
 4154TIP3    H112426   4.638   5.419   1.646
 4154TIP3    H212427   4.525   5.409   1.546
 4155TIP3   OH212428   5.378   3.479   1.403
 4155TIP3    H112429   5.424   3.470   1.487
 4155TIP3    H212430   5.448   3.491   1.339
 4156TIP3   OH212431   5.172   1.637   4.065
 4156TIP3    H112432   5.237   1.599   4.124
 4156TIP3    H212433   5.200   1.728   4.052
 4157TIP3   OH212434   1.900   1.584   1.089
 4157TIP3    H112435   1.871   1.651   1.150
 4157TIP3    H212436   1.968   1.625   1.037
 4158TIP3   OH212437   0.562   2.352   1.192
 4158TIP3    H112438   0.542   2.285   1.257
 4158TIP3    H212439   0.562   2.434   1.241
 4159TIP3   OH212440   0.531   2.712   1.754
 4159TIP3    H112441   0.505   2.706   1.846
 4159TIP3    H212442   0.594   2.783   1.752
 4160TIP3   OH212443   5.506   5.185   4.711
 4160TIP3    H112444   5.508   5.194   4.806
 4160TIP3    H212445   5.543   5.267   4.678
 4161TIP3   OH212446   5.183   3.783   1.404
 4161TIP3    H112447   5.131   3.718   1.453
 4161TIP3    H212448   5.259   3.800   1.460
 4162TIP3   OH212449   2.705   0.410   2.262
 4162TIP3    H112450   2.670   0.440   2.178
 4162TIP3    H212451   2.630   0.373   2.308
 4163TIP3   OH212452   1.937   0.408   0.938
 4163TIP3    H112453   1.988   0.394   1.018
 4163TIP3    H212454   1.951   0.328   0.887
 4164TIP3   OH212455   6.097   0.266   3.367
 4164TIP3    H112456   6.100   0.326   3.293
 4164TIP3    H212457   6.179   0.281   3.414
 4165TIP3   OH212458   6.617   2.183   1.605
 4165TIP3    H112459   6.562   2.159   1.530
 4165TIP3    H212460   6.577   2.138   1.679
 4166TIP3   OH212461   2.428   0.434   0.122
 4166TIP3    H112462   2.361   0.365   0.118
 4166TIP3    H212463   2.379   0.514   0.141
 4167TIP3   OH212464   6.103   0.844   0.759
 4167TIP3    H112465   6.186   0.865   0.717
 4167TIP3    H212466   6.076   0.761   0.720
 4168TIP3   OH212467   0.885   2.457   5.268
 4168TIP3    H112468   0.912   2.545   5.295
 4168TIP3    H212469   0.908   2.401   5.342
 4169TIP3   OH212470   1.288   1.017   3.133
 4169TIP3    H112471   1.285   1.111   3.114
 4169TIP3    H212472   1.332   0.979   3.056
 4170TIP3   OH212473   3.844   1.202   4.529
 4170TIP3    H112474   3.831   1.285   4.483
 4170TIP3    H212475   3.780   1.142   4.489
 4171TIP3   OH212476   1.834   1.872   2.247
 4171TIP3    H112477   1.899   1.917   2.193
 4171TIP3    H212478   1.760   1.934   2.251
 4172TIP3   OH212479   4.739   1.318   0.545
 4172TIP3    H112480   4.670   1.257   0.570
 4172TIP3    H212481   4.736   1.320   0.449
 4173TIP3   OH212482   0.383   2.232   5.372
 4173TIP3    H112483   0.293   2.260   5.357
 4173TIP3    H212484   0.419   2.299   5.430
 4174TIP3   OH212485   1.567   0.914   1.131
 4174TIP3    H112486   1.615   0.977   1.077
 4174TIP3    H212487   1.565   0.955   1.218
 4175TIP3   OH212488   0.290   0.339   1.349
 4175TIP3    H112489   0.204   0.305   1.372
 4175TIP3    H212490   0.349   0.297   1.412
 4176TIP3   OH212491   0.749   1.115   1.245
 4176TIP3    H112492   0.739   1.210   1.255
 4176TIP3    H212493   0.676   1.088   1.190
 4177TIP3   OH212494   0.147   2.597   4.270
 4177TIP3    H112495   0.132   2.513   4.313
 4177TIP3    H212496   0.087   2.657   4.313
 4178TIP3   OH212497   4.373   3.806   5.134
 4178TIP3    H112498   4.371   3.747   5.210
 4178TIP3    H212499   4.429   3.762   5.071
 4179TIP3   OH212500   2.289   5.257   2.487
 4179TIP3    H112501   2.375   5.268   2.447
 4179TIP3    H212502   2.256   5.346   2.499
 4180TIP3   OH212503   6.948   5.709   0.324
 4180TIP3    H112504   6.981   5.799   0.313
 4180TIP3    H212505   6.859   5.720   0.358
 4181TIP3   OH212506   1.209   2.811   0.337
 4181TIP3    H112507   1.296   2.789   0.304
 4181TIP3    H212508   1.220   2.816   0.432
 4182TIP3   OH212509   3.094   3.117   4.460
 4182TIP3    H112510   3.042   3.119   4.379
 4182TIP3    H212511   3.075   3.200   4.503
 4183TIP3   OH212512   3.596   4.188   0.905
 4183TIP3    H112513   3.606   4.210   0.813
 4183TIP3    H212514   3.641   4.258   0.952
 4184TIP3   OH212515   0.531   1.098   1.476
 4184TIP3    H112516   0.597   1.130   1.415
 4184TIP3    H212517   0.570   1.111   1.563
 4185TIP3   OH212518   6.170   3.615   2.550
 4185TIP3    H112519   6.246   3.565   2.520
 4185TIP3    H212520   6.163   3.689   2.490
 4186TIP3   OH212521   4.909   5.133   4.479
 4186TIP3    H112522   4.886   5.041   4.497
 4186TIP3    H212523   4.987   5.148   4.533
 4187TIP3   OH212524   1.904   2.814   2.738
 4187TIP3    H112525   1.859   2.778   2.814
 4187TIP3    H212526   1.844   2.881   2.705
 4188TIP3   OH212527   0.679   0.158   2.619
 4188TIP3    H112528   0.710   0.226   2.678
 4188TIP3    H212529   0.624   0.205   2.556
 4189TIP3   OH212530   5.201   3.467   4.203
 4189TIP3    H112531   5.106   3.458   4.192
 4189TIP3    H212532   5.212   3.483   4.297
 4190TIP3   OH212533   4.565   1.868   1.649
 4190TIP3    H112534   4.516   1.898   1.725
 4190TIP3    H212535   4.507   1.886   1.575
 4191TIP3   OH212536   0.317   1.654   5.790
 4191TIP3    H112537   0.317   1.681   5.698
 4191TIP3    H212538   0.286   1.564   5.788
 4192TIP3   OH212539   5.665   4.390   0.253
 4192TIP3    H112540   5.671   4.436   0.170
 4192TIP3    H212541   5.571   4.390   0.274
 4193TIP3   OH212542   4.671   0.722   4.852
 4193TIP3    H112543   4.663   0.693   4.943
 4193TIP3    H212544   4.671   0.641   4.802
 4194TIP3   OH212545   4.046   6.137   4.172
 4194TIP3    H112546   3.965   6.086   4.168
 4194TIP3    H212547   4.087   6.124   4.086
 4195TIP3   OH212548   0.420   5.229   4.967
 4195TIP3    H112549   0.405   5.147   4.919
 4195TIP3    H212550   0.407   5.205   5.059
 4196TIP3   OH212551   0.202   2.535   2.293
 4196TIP3    H112552   0.145   2.518   2.218
 4196TIP3    H212553   0.147   2.586   2.353
 4197TIP3   OH212554   4.584   5.062   5.572
 4197TIP3    H112555   4.606   5.155   5.572
 4197TIP3    H212556   4.513   5.054   5.508
 4198TIP3   OH212557   6.498   4.352   3.706
 4198TIP3    H112558   6.481   4.348   3.612
 4198TIP3    H212559   6.411   4.342   3.746
 4199TIP3   OH212560   0.317   0.506   1.958
 4199TIP3    H112561   0.263   0.497   2.036
 4199TIP3    H212562   0.271   0.456   1.891
 4200TIP3   OH212563   6.412   1.788   0.691
 4200TIP3    H112564   6.379   1.878   0.686
 4200TIP3    H212565   6.373   1.744   0.616
 4201TIP3   OH212566   0.783   2.096   0.785
 4201TIP3    H112567   0.795   2.098   0.880
 4201TIP3    H212568   0.833   2.020   0.756
 4202TIP3   OH212569   3.722   6.756   5.787
 4202TIP3    H112570   3.787   6.774   5.719
 4202TIP3    H212571   3.651   6.711   5.741
 4203TIP3   OH212572   5.824   1.579   0.781
 4203TIP3    H112573   5.736   1.617   0.791
 4203TIP3    H212574   5.837   1.572   0.687
 4204TIP3   OH212575   5.058   1.125   1.222
 4204TIP3    H112576   5.076   1.054   1.284
 4204TIP3    H212577   5.132   1.124   1.162
 4205TIP3   OH212578   2.538   1.949   5.755
 4205TIP3    H112579   2.452   1.989   5.770
 4205TIP3    H212580   2.593   2.020   5.724
 4206TIP3   OH212581   0.457   0.796   3.211
 4206TIP3    H112582   0.418   0.844   3.284
 4206TIP3    H212583   0.394   0.807   3.139
 4207TIP3   OH212584   6.181   5.540   5.530
 4207TIP3    H112585   6.225   5.625   5.533
 4207TIP3    H212586   6.112   5.550   5.464
 4208TIP3   OH212587   4.689   3.255   1.924
 4208TIP3    H112588   4.616   3.291   1.874
 4208TIP3    H212589   4.722   3.183   1.869
 4209TIP3   OH212590   1.138   5.316   3.924
 4209TIP3    H112591   1.130   5.340   3.831
 4209TIP3    H212592   1.229   5.333   3.946
 4210TIP3   OH212593   5.743   0.227   5.780
 4210TIP3    H112594   5.678   0.209   5.712
 4210TIP3    H212595   5.739   0.150   5.837
 4211TIP3   OH212596   4.618   2.942   2.455
 4211TIP3    H112597   4.611   3.033   2.483
 4211TIP3    H212598   4.705   2.936   2.416
 4212TIP3   OH212599   4.665   3.129   5.893
 4212TIP3    H112600   4.574   3.140   5.920
 4212TIP3    H212601   4.696   3.217   5.872
 4213TIP3   OH212602   3.601   1.619   4.886
 4213TIP3    H112603   3.546   1.691   4.856
 4213TIP3    H212604   3.610   1.634   4.980
 4214TIP3   OH212605   0.181   3.111   0.416
 4214TIP3    H112606   0.227   3.183   0.461
 4214TIP3    H212607   0.111   3.086   0.476
 4215TIP3   OH212608   4.520   3.004   3.295
 4215TIP3    H112609   4.424   2.997   3.297
 4215TIP3    H212610   4.549   2.933   3.238
 4216TIP3   OH212611   6.734   3.566   0.115
 4216TIP3    H112612   6.770   3.477   0.107
 4216TIP3    H212613   6.661   3.557   0.176
 4217TIP3   OH212614   3.068   6.431   5.234
 4217TIP3    H112615   3.135   6.379   5.279
 4217TIP3    H212616   3.110   6.459   5.153
 4218TIP3   OH212617   2.829   3.802   3.369
 4218TIP3    H112618   2.876   3.806   3.453
 4218TIP3    H212619   2.757   3.865   3.379
 4219TIP3   OH212620   5.642   3.934   4.322
 4219TIP3    H112621   5.646   3.918   4.228
 4219TIP3    H212622   5.577   4.004   4.332
 4220TIP3   OH212623   3.025   1.232   1.293
 4220TIP3    H112624   2.940   1.205   1.326
 4220TIP3    H212625   3.005   1.289   1.219
 4221TIP3   OH212626   0.463   0.311   4.561
 4221TIP3    H112627   0.508   0.323   4.478
 4221TIP3    H212628   0.524   0.342   4.628
 4222TIP3   OH212629   1.092   0.589   5.478
 4222TIP3    H112630   1.109   0.533   5.402
 4222TIP3    H212631   1.110   0.678   5.447
 4223TIP3   OH212632   0.846   6.540   0.217
 4223TIP3    H112633   0.826   6.631   0.238
 4223TIP3    H212634   0.808   6.527   0.130
 4224TIP3   OH212635   0.010   6.047   0.746
 4224TIP3    H112636  -0.005   5.984   0.675
 4224TIP3    H212637   0.028   6.130   0.700
 4225TIP3   OH212638   2.431   3.115   3.810
 4225TIP3    H112639   2.359   3.057   3.786
 4225TIP3    H212640   2.484   3.122   3.730
 4226TIP3   OH212641   2.044   2.125   4.143
 4226TIP3    H112642   2.075   2.211   4.116
 4226TIP3    H212643   2.056   2.069   4.066
 4227TIP3   OH212644   0.793   0.601   0.845
 4227TIP3    H112645   0.855   0.638   0.783
 4227TIP3    H212646   0.847   0.562   0.913
 4228TIP3   OH212647   2.621   1.996   0.501
 4228TIP3    H112648   2.567   1.943   0.560
 4228TIP3    H212649   2.629   1.943   0.422
 4229TIP3   OH212650   1.117   1.555   4.066
 4229TIP3    H112651   1.038   1.557   4.120
 4229TIP3    H212652   1.143   1.647   4.057
 4230TIP3   OH212653   4.075   4.880   1.647
 4230TIP3    H112654   4.046   4.971   1.642
 4230TIP3    H212655   4.152   4.882   1.703
 4231TIP3   OH212656   2.804   2.427   0.034
 4231TIP3    H112657   2.800   2.423   0.130
 4231TIP3    H212658   2.713   2.445   0.008
 4232TIP3   OH212659   0.741   3.211   0.899
 4232TIP3    H112660   0.737   3.258   0.816
 4232TIP3    H212661   0.816   3.152   0.891
 4233TIP3   OH212662   7.142   4.818   1.140
 4233TIP3    H112663   7.146   4.735   1.187
 4233TIP3    H212664   7.182   4.800   1.055
 4234TIP3   OH212665   1.059   6.687   2.698
 4234TIP3    H112666   1.133   6.739   2.729
 4234TIP3    H212667   1.081   6.667   2.607
 4235TIP3   OH212668   4.419   5.847   1.971
 4235TIP3    H112669   4.514   5.846   1.979
 4235TIP3    H212670   4.388   5.792   2.042
 4236TIP3   OH212671   0.040   4.834   1.895
 4236TIP3    H112672   0.091   4.764   1.936
 4236TIP3    H212673   0.081   4.915   1.928
 4237TIP3   OH212674   1.018   3.539   4.655
 4237TIP3    H112675   0.991   3.477   4.588
 4237TIP3    H212676   1.087   3.591   4.614
 4238TIP3   OH212677   3.126   3.686   5.395
 4238TIP3    H112678   3.055   3.621   5.389
 4238TIP3    H212679   3.140   3.696   5.489
 4239TIP3   OH212680   6.186   0.712   2.967
 4239TIP3    H112681   6.104   0.761   2.977
 4239TIP3    H212682   6.242   0.769   2.916
 4240TIP3   OH212683   4.187   5.685   2.613
 4240TIP3    H112684   4.123   5.682   2.684
 4240TIP3    H212685   4.177   5.773   2.576
 4241TIP3   OH212686   6.066   3.985   4.513
 4241TIP3    H112687   6.045   4.077   4.496
 4241TIP3    H212688   5.982   3.939   4.508
 4242TIP3   OH212689   0.490   1.011   1.069
 4242TIP3    H112690   0.474   1.041   0.980
 4242TIP3    H212691   0.449   1.078   1.125
 4243TIP3   OH212692   4.102   4.374   5.820
 4243TIP3    H112693   4.041   4.300   5.816
 4243TIP3    H212694   4.046   4.452   5.815
 4244TIP3   OH212695   5.199   4.091   0.643
 4244TIP3    H112696   5.207   4.045   0.727
 4244TIP3    H212697   5.211   4.183   0.665
 4245TIP3   OH212698   0.226   2.442   2.589
 4245TIP3    H112699   0.193   2.501   2.656
 4245TIP3    H212700   0.184   2.472   2.508
 4246TIP3   OH212701   3.749   2.934   1.140
 4246TIP3    H112702   3.729   2.963   1.051
 4246TIP3    H212703   3.829   2.982   1.164
 4247TIP3   OH212704   3.600   2.721   2.753
 4247TIP3    H112705   3.515   2.735   2.795
 4247TIP3    H212706   3.631   2.809   2.733
 4248TIP3   OH212707   3.630   0.150   0.764
 4248TIP3    H112708   3.649   0.099   0.685
 4248TIP3    H212709   3.661   0.095   0.836
 4249TIP3   OH212710   4.356   0.305   1.403
 4249TIP3    H112711   4.304   0.384   1.419
 4249TIP3    H212712   4.362   0.263   1.488
 4250TIP3   OH212713   1.432   5.000   3.829
 4250TIP3    H112714   1.363   5.057   3.793
 4250TIP3    H212715   1.390   4.915   3.840
 4251TIP3   OH212716   6.970   1.931   0.438
 4251TIP3    H112717   7.009   1.990   0.372
 4251TIP3    H212718   7.037   1.864   0.452
 4252TIP3   OH212719   3.821   4.585   0.159
 4252TIP3    H112720   3.896   4.639   0.187
 4252TIP3    H212721   3.769   4.574   0.239
 4253TIP3   OH212722   4.557   5.599   3.239
 4253TIP3    H112723   4.541   5.598   3.145
 4253TIP3    H212724   4.568   5.507   3.263
 4254TIP3   OH212725   1.932   2.841   3.784
 4254TIP3    H112726   1.896   2.921   3.823
 4254TIP3    H212727   2.005   2.817   3.842
 4255TIP3   OH212728   7.001   4.321   4.764
 4255TIP3    H112729   6.959   4.361   4.840
 4255TIP3    H212730   7.093   4.348   4.771
 4256TIP3   OH212731   3.001   4.259   0.509
 4256TIP3    H112732   3.076   4.225   0.557
 4256TIP3    H212733   3.022   4.351   0.492
 4257TIP3   OH212734   0.698   0.900   4.637
 4257TIP3    H112735   0.711   0.809   4.663
 4257TIP3    H212736   0.786   0.935   4.625
 4258TIP3   OH212737   3.056   0.876   5.839
 4258TIP3    H112738   3.129   0.817   5.859
 4258TIP3    H212739   3.096   0.961   5.826
 4259TIP3   OH212740   1.853   6.107   2.978
 4259TIP3    H112741   1.893   6.090   2.893
 4259TIP3    H212742   1.921   6.082   3.041
 4260TIP3   OH212743   1.668   2.728   4.361
 4260TIP3    H112744   1.598   2.669   4.389
 4260TIP3    H212745   1.710   2.756   4.442
 4261TIP3   OH212746   1.996   5.281   3.651
 4261TIP3    H112747   1.945   5.216   3.699
 4261TIP3    H212748   2.052   5.322   3.717
 4262TIP3   OH212749   2.078   4.036   1.305
 4262TIP3    H112750   2.017   3.989   1.361
 4262TIP3    H212751   2.163   3.994   1.321
 4263TIP3   OH212752   2.217   0.340   2.552
 4263TIP3    H112753   2.235   0.380   2.467
 4263TIP3    H212754   2.302   0.314   2.586
 4264TIP3   OH212755   6.961   1.382   3.329
 4264TIP3    H112756   6.959   1.461   3.383
 4264TIP3    H212757   7.050   1.348   3.342
 4265TIP3   OH212758   2.813   3.550   4.366
 4265TIP3    H112759   2.865   3.554   4.286
 4265TIP3    H212760   2.728   3.587   4.342
 4266TIP3   OH212761   2.202   6.144   0.826
 4266TIP3    H112762   2.257   6.117   0.899
 4266TIP3    H212763   2.249   6.217   0.785
 4267TIP3   OH212764   1.098   3.476   0.286
 4267TIP3    H112765   1.109   3.537   0.360
 4267TIP3    H212766   1.142   3.396   0.315
 4268TIP3   OH212767   2.067   2.538   0.407
 4268TIP3    H112768   2.062   2.568   0.497
 4268TIP3    H212769   2.111   2.609   0.360
 4269TIP3   OH212770   3.939   3.779   0.899
 4269TIP3    H112771   3.898   3.863   0.882
 4269TIP3    H212772   4.033   3.795   0.890
 4270TIP3   OH212773   3.193  -0.018   0.304
 4270TIP3    H112774   3.229   0.063   0.339
 4270TIP3    H212775   3.116  -0.036   0.358
 4271TIP3   OH212776   1.209   2.722   5.780
 4271TIP3    H112777   1.238   2.711   5.871
 4271TIP3    H212778   1.137   2.785   5.785
 4272TIP3   OH212779   6.624   2.344   2.510
 4272TIP3    H112780   6.578   2.261   2.497
 4272TIP3    H212781   6.563   2.410   2.476
 4273TIP3   OH212782   5.364   3.286   4.077
 4273TIP3    H112783   5.334   3.370   4.112
 4273TIP3    H212784   5.409   3.244   4.151
 4274TIP3   OH212785   2.860   0.814   4.730
 4274TIP3    H112786   2.805   0.847   4.801
 4274TIP3    H212787   2.940   0.786   4.773
 4275TIP3   OH212788   3.947   0.172   3.153
 4275TIP3    H112789   3.992   0.088   3.149
 4275TIP3    H212790   4.003   0.232   3.105
 4276TIP3   OH212791   5.097   5.578   1.152
 4276TIP3    H112792   5.033   5.542   1.091
 4276TIP3    H212793   5.181   5.573   1.106
 4277TIP3   OH212794   1.319   0.948   5.649
 4277TIP3    H112795   1.372   1.023   5.677
 4277TIP3    H212796   1.272   0.921   5.727
 4278TIP3   OH212797   5.541   0.597   1.727
 4278TIP3    H112798   5.563   0.654   1.654
 4278TIP3    H212799   5.494   0.654   1.789
 4279TIP3   OH212800   0.076   6.008   3.273
 4279TIP3    H112801   0.106   6.087   3.228
 4279TIP3    H212802   0.038   6.041   3.355
 4280TIP3   OH212803   4.922   1.768   3.878
 4280TIP3    H112804   4.840   1.723   3.856
 4280TIP3    H212805   4.979   1.699   3.911
 4281TIP3   OH212806   5.901   1.913   2.197
 4281TIP3    H112807   5.875   1.976   2.129
 4281TIP3    H212808   5.878   1.956   2.279
 4282TIP3   OH212809   2.080   5.386   4.650
 4282TIP3    H112810   2.017   5.350   4.587
 4282TIP3    H212811   2.055   5.478   4.660
 4283TIP3   OH212812   3.049   0.226   4.585
 4283TIP3    H112813   3.046   0.322   4.587
 4283TIP3    H212814   3.128   0.206   4.536
 4284TIP3   OH212815   4.827   4.365   1.274
 4284TIP3    H112816   4.797   4.319   1.196
 4284TIP3    H212817   4.776   4.326   1.346
 4285TIP3   OH212818   5.887   0.643   0.966
 4285TIP3    H112819   5.976   0.633   1.002
 4285TIP3    H212820   5.872   0.562   0.916
 4286TIP3   OH212821   6.224   4.992   0.458
 4286TIP3    H112822   6.167   5.058   0.420
 4286TIP3    H212823   6.198   4.987   0.550
 4287TIP3   OH212824   2.761   1.724   2.166
 4287TIP3    H112825   2.672   1.740   2.197
 4287TIP3    H212826   2.751   1.654   2.101
 4288TIP3   OH212827   0.638   6.742   1.483
 4288TIP3    H112828   0.646   6.818   1.425
 4288TIP3    H212829   0.673   6.669   1.431
 4289TIP3   OH212830   4.754   2.391   1.153
 4289TIP3    H112831   4.716   2.304   1.141
 4289TIP3    H212832   4.683   2.452   1.134
 4290TIP3   OH212833   4.642   2.121   4.410
 4290TIP3    H112834   4.626   2.032   4.442
 4290TIP3    H212835   4.577   2.134   4.342
 4291TIP3   OH212836   5.357   2.852   5.277
 4291TIP3    H112837   5.395   2.772   5.240
 4291TIP3    H212838   5.431   2.902   5.309
 4292TIP3   OH212839   1.231   5.455   2.567
 4292TIP3    H112840   1.167   5.497   2.509
 4292TIP3    H212841   1.233   5.364   2.538
 4293TIP3   OH212842   3.633   3.293   2.658
 4293TIP3    H112843   3.670   3.279   2.745
 4293TIP3    H212844   3.708   3.285   2.598
 4294TIP3   OH212845   6.700   3.850   5.834
 4294TIP3    H112846   6.712   3.912   5.906
 4294TIP3    H212847   6.628   3.794   5.863
 4295TIP3   OH212848   4.226   2.338   2.877
 4295TIP3    H112849   4.227   2.407   2.811
 4295TIP3    H212850   4.313   2.340   2.915
 4296TIP3   OH212851   5.281   0.239   0.996
 4296TIP3    H112852   5.273   0.179   1.070
 4296TIP3    H212853   5.375   0.238   0.975
 4297TIP3   OH212854   2.108   0.098   3.397
 4297TIP3    H112855   2.193   0.064   3.428
 4297TIP3    H212856   2.083   0.163   3.463
 4298TIP3   OH212857   1.191   4.130   0.838
 4298TIP3    H112858   1.140   4.082   0.772
 4298TIP3    H212859   1.282   4.117   0.811
 4299TIP3   OH212860   0.964   4.676   0.919
 4299TIP3    H112861   1.046   4.695   0.874
 4299TIP3    H212862   0.914   4.757   0.913
 4300TIP3   OH212863   1.323   2.668   3.560
 4300TIP3    H112864   1.308   2.736   3.494
 4300TIP3    H212865   1.245   2.613   3.556
 4301TIP3   OH212866   7.071   0.193   2.224
 4301TIP3    H112867   7.051   0.111   2.180
 4301TIP3    H212868   7.167   0.192   2.234
 4302TIP3   OH212869   0.458   0.883   4.502
 4302TIP3    H112870   0.457   0.788   4.486
 4302TIP3    H212871   0.541   0.899   4.545
 4303TIP3   OH212872   1.239   1.391   1.411
 4303TIP3    H112873   1.211   1.472   1.369
 4303TIP3    H212874   1.334   1.388   1.397
 4304TIP3   OH212875   3.520   5.828   4.922
 4304TIP3    H112876   3.467   5.749   4.912
 4304TIP3    H212877   3.587   5.804   4.985
 4305TIP3   OH212878   6.766   3.938   0.235
 4305TIP3    H112879   6.833   3.895   0.287
 4305TIP3    H212880   6.749   3.877   0.163
 4306TIP3   OH212881   2.366   0.726   3.081
 4306TIP3    H112882   2.418   0.716   3.001
 4306TIP3    H212883   2.276   0.707   3.053
 4307TIP3   OH212884   1.023   0.302   2.521
 4307TIP3    H112885   1.027   0.266   2.610
 4307TIP3    H212886   1.013   0.225   2.465
 4308TIP3   OH212887   0.837   1.339   4.166
 4308TIP3    H112888   0.796   1.282   4.101
 4308TIP3    H212889   0.772   1.408   4.181
 4309TIP3   OH212890   4.656   6.316   2.534
 4309TIP3    H112891   4.702   6.333   2.451
 4309TIP3    H212892   4.692   6.233   2.565
 4310TIP3   OH212893   4.815   4.862   4.547
 4310TIP3    H112894   4.907   4.841   4.564
 4310TIP3    H212895   4.777   4.779   4.517
 4311TIP3   OH212896   4.679   1.978   0.232
 4311TIP3    H112897   4.743   2.041   0.265
 4311TIP3    H212898   4.666   2.003   0.140
 4312TIP3   OH212899   3.947   3.701   4.444
 4312TIP3    H112900   3.931   3.622   4.496
 4312TIP3    H212901   3.930   3.773   4.505
 4313TIP3   OH212902   6.999   1.792   3.881
 4313TIP3    H112903   6.942   1.808   3.956
 4313TIP3    H212904   7.040   1.876   3.863
 4314TIP3   OH212905   6.687   0.569   4.814
 4314TIP3    H112906   6.746   0.500   4.783
 4314TIP3    H212907   6.669   0.622   4.736
 4315TIP3   OH212908   0.975   3.077   0.865
 4315TIP3    H112909   0.971   3.021   0.942
 4315TIP3    H212910   1.040   3.144   0.888
 4316TIP3   OH212911   4.413   4.357   3.326
 4316TIP3    H112912   4.413   4.452   3.333
 4316TIP3    H212913   4.371   4.339   3.242
 4317TIP3   OH212914   3.081   5.314   2.577
 4317TIP3    H112915   3.007   5.372   2.562
 4317TIP3    H212916   3.120   5.302   2.491
 4318TIP3   OH212917   4.252   2.300   0.494
 4318TIP3    H112918   4.248   2.205   0.506
 4318TIP3    H212919   4.190   2.318   0.423
 4319TIP3   OH212920   5.365   2.953   1.983
 4319TIP3    H112921   5.397   3.027   1.931
 4319TIP3    H212922   5.326   2.994   2.061
 4320TIP3   OH212923   2.736   0.577   1.942
 4320TIP3    H112924   2.807   0.515   1.922
 4320TIP3    H212925   2.776   0.663   1.931
 4321TIP3   OH212926   5.043   5.059   5.145
 4321TIP3    H112927   5.011   5.147   5.124
 4321TIP3    H212928   5.034   5.053   5.240
 4322TIP3   OH212929   0.057   2.195   2.630
 4322TIP3    H112930   0.082   2.108   2.660
 4322TIP3    H212931   0.139   2.235   2.600
 4323TIP3   OH212932   5.557   1.874   3.576
 4323TIP3    H112933   5.596   1.787   3.579
 4323TIP3    H212934   5.631   1.933   3.562
 4324TIP3   OH212935   6.976   4.795   5.608
 4324TIP3    H112936   6.949   4.877   5.649
 4324TIP3    H212937   6.991   4.817   5.516
 4325TIP3   OH212938   3.292   2.372   5.117
 4325TIP3    H112939   3.359   2.433   5.147
 4325TIP3    H212940   3.241   2.422   5.053
 4326TIP3   OH212941   5.382   3.847   3.566
 4326TIP3    H112942   5.459   3.891   3.532
 4326TIP3    H212943   5.321   3.844   3.492
 4327TIP3   OH212944   4.627   4.706   1.216
 4327TIP3    H112945   4.541   4.680   1.247
 4327TIP3    H212946   4.614   4.794   1.180
 4328TIP3   OH212947   5.436   6.276   5.176
 4328TIP3    H112948   5.346   6.307   5.168
 4328TIP3    H212949   5.433   6.211   5.247
 4329TIP3   OH212950   5.224   0.653   2.261
 4329TIP3    H112951   5.264   0.582   2.311
 4329TIP3    H212952   5.138   0.665   2.300
 4330TIP3   OH212953   4.617   0.495   1.298
 4330TIP3    H112954   4.544   0.480   1.237
 4330TIP3    H212955   4.575   0.525   1.378
 4331TIP3   OH212956   5.738   3.361   1.535
 4331TIP3    H112957   5.692   3.338   1.455
 4331TIP3    H212958   5.679   3.423   1.579
 4332TIP3   OH212959   0.498   6.256   2.103
 4332TIP3    H112960   0.534   6.328   2.155
 4332TIP3    H212961   0.559   6.247   2.030
 4333TIP3   OH212962   4.009   4.387   5.473
 4333TIP3    H112963   4.002   4.387   5.377
 4333TIP3    H212964   4.087   4.440   5.491
 4334TIP3   OH212965   0.794   0.994   5.315
 4334TIP3    H112966   0.721   0.991   5.253
 4334TIP3    H212967   0.789   1.082   5.353
 4335TIP3   OH212968   4.646   4.646   2.625
 4335TIP3    H112969   4.655   4.625   2.532
 4335TIP3    H212970   4.681   4.734   2.633
 4336TIP3   OH212971   5.329   1.950   0.165
 4336TIP3    H112972   5.344   1.934   0.258
 4336TIP3    H212973   5.362   1.872   0.121
 4337TIP3   OH212974   1.671   3.842   3.057
 4337TIP3    H112975   1.699   3.934   3.052
 4337TIP3    H212976   1.740   3.799   3.107
 4338TIP3   OH212977   0.975   5.734   2.008
 4338TIP3    H112978   0.928   5.667   1.958
 4338TIP3    H212979   1.030   5.684   2.068
 4339TIP3   OH212980   6.423   6.711   1.771
 4339TIP3    H112981   6.512   6.707   1.738
 4339TIP3    H212982   6.413   6.631   1.823
 4340TIP3   OH212983   1.590   3.972   4.743
 4340TIP3    H112984   1.578   3.886   4.703
 4340TIP3    H212985   1.554   3.963   4.831
 4341TIP3   OH212986   1.081   6.696   0.954
 4341TIP3    H112987   1.170   6.730   0.966
 4341TIP3    H212988   1.046   6.745   0.880
 4342TIP3   OH212989   1.351   4.810   1.845
 4342TIP3    H112990   1.319   4.801   1.755
 4342TIP3    H212991   1.272   4.822   1.898
 4343TIP3   OH212992   4.212   1.672   5.268
 4343TIP3    H112993   4.240   1.646   5.180
 4343TIP3    H212994   4.134   1.725   5.254
 4344TIP3   OH212995   6.985   5.523   5.225
 4344TIP3    H112996   6.900   5.516   5.268
 4344TIP3    H212997   6.981   5.605   5.176
 4345TIP3   OH212998   0.505   0.756   1.154
 4345TIP3    H112999   0.463   0.712   1.080
 4345TIP3    H213000   0.498   0.849   1.133
 4346TIP3   OH213001   3.903   3.467   5.459
 4346TIP3    H113002   3.944   3.507   5.382
 4346TIP3    H213003   3.833   3.528   5.483
 4347TIP3   OH213004   3.054   3.498   0.756
 4347TIP3    H113005   3.131   3.546   0.725
 4347TIP3    H213006   3.018   3.554   0.825
 4348TIP3   OH213007   5.059   3.421   0.921
 4348TIP3    H113008   5.129   3.368   0.884
 4348TIP3    H213009   5.016   3.460   0.845
 4349TIP3   OH213010   5.795   5.799   3.506
 4349TIP3    H113011   5.770   5.884   3.471
 4349TIP3    H213012   5.718   5.743   3.490
 4350TIP3   OH213013   3.178   2.408   3.370
 4350TIP3    H113014   3.095   2.450   3.349
 4350TIP3    H213015   3.153   2.321   3.403
 4351TIP3   OH213016   0.475   0.490   3.627
 4351TIP3    H113017   0.412   0.452   3.566
 4351TIP3    H213018   0.552   0.434   3.619
 4352TIP3   OH213019   1.762   1.667   0.047
 4352TIP3    H113020   1.802   1.696   0.129
 4352TIP3    H213021   1.718   1.745   0.013
 4353TIP3   OH213022   0.420   4.601   1.702
 4353TIP3    H113023   0.483   4.537   1.669
 4353TIP3    H213024   0.398   4.570   1.790
 4354TIP3   OH213025   5.266   5.350   2.385
 4354TIP3    H113026   5.318   5.430   2.382
 4354TIP3    H213027   5.272   5.314   2.297
 4355TIP3   OH213028   5.205   3.017   3.451
 4355TIP3    H113029   5.154   3.010   3.370
 4355TIP3    H213030   5.226   3.110   3.459
 4356TIP3   OH213031   0.034   5.947   2.489
 4356TIP3    H113032  -0.054   5.969   2.458
 4356TIP3    H213033   0.076   5.906   2.413
 4357TIP3   OH213034   1.466   2.757   5.303
 4357TIP3    H113035   1.440   2.780   5.392
 4357TIP3    H213036   1.535   2.691   5.315
 4358TIP3   OH213037   5.915   0.016   2.381
 4358TIP3    H113038   5.825  -0.012   2.399
 4358TIP3    H213039   5.957   0.019   2.467
 4359TIP3   OH213040   2.058   0.131   2.497
 4359TIP3    H113041   2.089   0.107   2.410
 4359TIP3    H213042   2.138   0.146   2.548
 4360TIP3   OH213043   1.126   3.877   2.178
 4360TIP3    H113044   1.205   3.848   2.133
 4360TIP3    H213045   1.152   3.956   2.225
 4361TIP3   OH213046   1.627   2.073   2.297
 4361TIP3    H113047   1.590   2.123   2.224
 4361TIP3    H213048   1.567   2.090   2.370
 4362TIP3   OH213049   2.345   3.458   0.860
 4362TIP3    H113050   2.385   3.378   0.893
 4362TIP3    H213051   2.411   3.526   0.877
 4363TIP3   OH213052   1.932   0.436   1.538
 4363TIP3    H113053   2.025   0.420   1.555
 4363TIP3    H213054   1.893   0.438   1.625
 4364TIP3   OH213055   6.017   5.184   2.291
 4364TIP3    H113056   5.960   5.108   2.298
 4364TIP3    H213057   6.048   5.200   2.381
 4365TIP3   OH213058   2.450   1.893   3.732
 4365TIP3    H113059   2.408   1.915   3.648
 4365TIP3    H213060   2.402   1.944   3.797
 4366TIP3   OH213061   4.549   2.227   2.213
 4366TIP3    H113062   4.564   2.241   2.120
 4366TIP3    H213063   4.560   2.133   2.226
 4367TIP3   OH213064   4.866   2.389   4.350
 4367TIP3    H113065   4.825   2.393   4.263
 4367TIP3    H213066   4.873   2.481   4.377
 4368TIP3   OH213067   3.680   3.895   2.297
 4368TIP3    H113068   3.741   3.940   2.239
 4368TIP3    H213069   3.607   3.956   2.309
 4369TIP3   OH213070   4.729   6.732   0.018
 4369TIP3    H113071   4.791   6.782   0.071
 4369TIP3    H213072   4.719   6.784  -0.062
 4370TIP3   OH213073   5.060   6.562   2.205
 4370TIP3    H113074   4.985   6.510   2.234
 4370TIP3    H213075   5.133   6.533   2.258
 4371TIP3   OH213076   3.154   5.859   1.743
 4371TIP3    H113077   3.126   5.771   1.768
 4371TIP3    H213078   3.089   5.918   1.781
 4372TIP3   OH213079   6.556   3.438   1.867
 4372TIP3    H113080   6.470   3.395   1.868
 4372TIP3    H213081   6.585   3.434   1.958
 4373TIP3   OH213082   1.363   5.975   0.342
 4373TIP3    H113083   1.428   6.040   0.317
 4373TIP3    H213084   1.294   5.982   0.275
 4374TIP3   OH213085   5.705   3.549   0.545
 4374TIP3    H113086   5.695   3.479   0.480
 4374TIP3    H213087   5.664   3.625   0.504
 4375TIP3   OH213088   0.194   6.633   5.333
 4375TIP3    H113089   0.270   6.677   5.293
 4375TIP3    H213090   0.126   6.701   5.335
 4376TIP3   OH213091   6.627   1.668   0.801
 4376TIP3    H113092   6.569   1.704   0.734
 4376TIP3    H213093   6.656   1.744   0.851
 4377TIP3   OH213094   6.470   3.617   0.903
 4377TIP3    H113095   6.492   3.620   0.996
 4377TIP3    H213096   6.403   3.549   0.896
 4378TIP3   OH213097   7.126   3.912   1.364
 4378TIP3    H113098   7.038   3.874   1.355
 4378TIP3    H213099   7.184   3.836   1.368
 4379TIP3   OH213100   5.614   3.038   4.541
 4379TIP3    H113101   5.630   2.967   4.478
 4379TIP3    H213102   5.653   3.006   4.623
 4380TIP3   OH213103   0.591   0.260   0.894
 4380TIP3    H113104   0.503   0.294   0.905
 4380TIP3    H213105   0.585   0.168   0.919
 4381TIP3   OH213106   2.332   4.172   1.074
 4381TIP3    H113107   2.318   4.090   1.026
 4381TIP3    H213108   2.296   4.239   1.016
 4382TIP3   OH213109   0.610   1.179   0.549
 4382TIP3    H113110   0.693   1.220   0.525
 4382TIP3    H213111   0.558   1.250   0.588
 4383TIP3   OH213112   1.275   1.311   5.229
 4383TIP3    H113113   1.327   1.351   5.298
 4383TIP3    H213114   1.190   1.355   5.234
 4384TIP3   OH213115   1.390   3.719   4.331
 4384TIP3    H113116   1.449   3.788   4.361
 4384TIP3    H213117   1.447   3.644   4.317
 4385TIP3   OH213118   5.948   4.188   1.090
 4385TIP3    H113119   5.873   4.130   1.080
 4385TIP3    H213120   5.928   4.261   1.031
 4386TIP3   OH213121   4.376   5.929   0.454
 4386TIP3    H113122   4.455   5.961   0.497
 4386TIP3    H213123   4.307   5.990   0.481
 4387TIP3   OH213124   6.541   6.374   4.369
 4387TIP3    H113125   6.500   6.406   4.289
 4387TIP3    H213126   6.477   6.394   4.438
 4388TIP3   OH213127   6.447   2.538   0.901
 4388TIP3    H113128   6.357   2.510   0.922
 4388TIP3    H213129   6.458   2.517   0.808
 4389TIP3   OH213130   0.829   5.040   5.022
 4389TIP3    H113131   0.810   5.088   4.941
 4389TIP3    H213132   0.832   4.948   4.996
 4390TIP3   OH213133   6.270   0.038   2.251
 4390TIP3    H113134   6.282   0.125   2.212
 4390TIP3    H213135   6.358   0.011   2.276
 4391TIP3   OH213136   0.604   3.142   3.039
 4391TIP3    H113137   0.626   3.112   3.127
 4391TIP3    H213138   0.508   3.141   3.036
 4392TIP3   OH213139   0.943   0.637   1.665
 4392TIP3    H113140   0.986   0.574   1.722
 4392TIP3    H213141   0.883   0.585   1.612
 4393TIP3   OH213142   4.479   6.150   0.169
 4393TIP3    H113143   4.439   6.063   0.165
 4393TIP3    H213144   4.409   6.210   0.145
 4394TIP3   OH213145   3.374   1.164   3.437
 4394TIP3    H113146   3.337   1.252   3.425
 4394TIP3    H213147   3.381   1.129   3.349
 4395TIP3   OH213148   7.000   0.108   1.458
 4395TIP3    H113149   7.059   0.159   1.513
 4395TIP3    H213150   7.030   0.124   1.369
 4396TIP3   OH213151   1.893   0.883   1.940
 4396TIP3    H113152   1.807   0.846   1.922
 4396TIP3    H213153   1.943   0.809   1.975
 4397TIP3   OH213154   3.057   1.820   3.789
 4397TIP3    H113155   3.083   1.823   3.696
 4397TIP3    H213156   2.994   1.891   3.798
 4398TIP3   OH213157   1.346   3.145   1.057
 4398TIP3    H113158   1.431   3.188   1.054
 4398TIP3    H213159   1.356   3.066   1.003
 4399TIP3   OH213160   1.064   1.831   0.244
 4399TIP3    H113161   1.035   1.800   0.158
 4399TIP3    H213162   1.112   1.912   0.225
 4400TIP3   OH213163   4.026   3.889   4.997
 4400TIP3    H113164   3.937   3.869   4.966
 4400TIP3    H213165   4.079   3.817   4.963
 4401TIP3   OH213166   1.209   1.848   1.840
 4401TIP3    H113167   1.224   1.757   1.816
 4401TIP3    H213168   1.115   1.852   1.860
 4402TIP3   OH213169   2.320   5.800   5.887
 4402TIP3    H113170   2.302   5.802   5.793
 4402TIP3    H213171   2.293   5.887   5.918
 4403TIP3   OH213172   7.055   1.527   1.722
 4403TIP3    H113173   6.965   1.538   1.690
 4403TIP3    H213174   7.094   1.614   1.712
 4404TIP3   OH213175   0.350   0.376   3.411
 4404TIP3    H113176   0.297   0.455   3.409
 4404TIP3    H213177   0.296   0.310   3.368
 4405TIP3   OH213178   1.101   4.448   4.339
 4405TIP3    H113179   1.036   4.419   4.275
 4405TIP3    H213180   1.165   4.378   4.341
 4406TIP3   OH213181   5.882   5.553   2.569
 4406TIP3    H113182   5.822   5.616   2.530
 4406TIP3    H213183   5.827   5.494   2.620
 4407TIP3   OH213184   6.555   3.893   0.579
 4407TIP3    H113185   6.507   3.907   0.661
 4407TIP3    H213186   6.515   3.953   0.517
 4408TIP3   OH213187   0.013   3.729   2.367
 4408TIP3    H113188   0.108   3.714   2.366
 4408TIP3    H213189  -0.025   3.641   2.373
 4409TIP3   OH213190   7.120   0.590   4.015
 4409TIP3    H113191   7.062   0.570   4.089
 4409TIP3    H213192   7.081   0.544   3.941
 4410TIP3   OH213193   7.049   6.514   2.983
 4410TIP3    H113194   6.961   6.486   3.005
 4410TIP3    H213195   7.084   6.551   3.065
 4411TIP3   OH213196   4.328   5.708   2.169
 4411TIP3    H113197   4.381   5.655   2.229
 4411TIP3    H213198   4.253   5.736   2.222
 4412TIP3   OH213199   1.932   1.329   1.675
 4412TIP3    H113200   1.986   1.260   1.714
 4412TIP3    H213201   1.994   1.400   1.657
 4413TIP3   OH213202   3.981   5.150   1.664
 4413TIP3    H113203   3.971   5.145   1.569
 4413TIP3    H213204   3.891   5.147   1.698
 4414TIP3   OH213205   0.911   2.564   2.367
 4414TIP3    H113206   0.972   2.557   2.441
 4414TIP3    H213207   0.897   2.658   2.355
 4415TIP3   OH213208   2.759   4.336   1.812
 4415TIP3    H113209   2.683   4.394   1.807
 4415TIP3    H213210   2.723   4.249   1.827
 4416TIP3   OH213211   5.458   2.068   4.646
 4416TIP3    H113212   5.542   2.067   4.692
 4416TIP3    H213213   5.482   2.061   4.553
 4417TIP3   OH213214   3.095   6.101   5.880
 4417TIP3    H113215   3.112   6.181   5.831
 4417TIP3    H213216   3.160   6.039   5.848
 4418TIP3   OH213217   6.191   2.627   2.458
 4418TIP3    H113218   6.108   2.605   2.417
 4418TIP3    H213219   6.166   2.677   2.536
 4419TIP3   OH213220   3.660   6.446   4.585
 4419TIP3    H113221   3.605   6.411   4.656
 4419TIP3    H213222   3.601   6.501   4.534
 4420TIP3   OH213223   0.315   1.382   0.399
 4420TIP3    H113224   0.242   1.337   0.441
 4420TIP3    H213225   0.343   1.322   0.330
 4421TIP3   OH213226   6.290   4.563   1.149
 4421TIP3    H113227   6.268   4.477   1.111
 4421TIP3    H213228   6.240   4.567   1.230
 4422TIP3   OH213229   2.189   5.118   0.924
 4422TIP3    H113230   2.118   5.065   0.959
 4422TIP3    H213231   2.234   5.061   0.862
 4423TIP3   OH213232   3.686   1.849   3.667
 4423TIP3    H113233   3.692   1.830   3.574
 4423TIP3    H213234   3.592   1.851   3.685
 4424TIP3   OH213235   6.311   1.246   4.763
 4424TIP3    H113236   6.378   1.212   4.702
 4424TIP3    H213237   6.277   1.168   4.807
 4425TIP3   OH213238   0.501   6.575   2.700
 4425TIP3    H113239   0.561   6.505   2.671
 4425TIP3    H213240   0.545   6.613   2.777
 4426TIP3   OH213241   2.129   5.239   1.393
 4426TIP3    H113242   2.168   5.230   1.306
 4426TIP3    H213243   2.035   5.232   1.378
 4427TIP3   OH213244   2.872   6.054   4.990
 4427TIP3    H113245   2.853   5.963   4.969
 4427TIP3    H213246   2.914   6.089   4.911
 4428TIP3   OH213247   1.112   5.716   1.675
 4428TIP3    H113248   1.129   5.718   1.580
 4428TIP3    H213249   1.059   5.638   1.688
 4429TIP3   OH213250   4.007   1.546   5.072
 4429TIP3    H113251   3.953   1.624   5.057
 4429TIP3    H213252   3.948   1.485   5.116
 4430TIP3   OH213253   3.965   0.411   1.743
 4430TIP3    H113254   3.916   0.492   1.758
 4430TIP3    H213255   4.010   0.394   1.825
 4431TIP3   OH213256   0.623   1.422   1.500
 4431TIP3    H113257   0.554   1.382   1.552
 4431TIP3    H213258   0.690   1.354   1.492
 4432TIP3   OH213259   0.738   1.037   4.247
 4432TIP3    H113260   0.710   0.945   4.250
 4432TIP3    H213261   0.800   1.041   4.174
 4433TIP3   OH213262   0.408   6.505   1.433
 4433TIP3    H113263   0.504   6.513   1.430
 4433TIP3    H213264   0.381   6.509   1.341
 4434TIP3   OH213265   4.175   0.965   4.651
 4434TIP3    H113266   4.258   0.947   4.607
 4434TIP3    H213267   4.193   0.945   4.743
 4435TIP3   OH213268   6.649   5.501   4.411
 4435TIP3    H113269   6.730   5.450   4.423
 4435TIP3    H213270   6.641   5.552   4.492
 4436TIP3   OH213271   0.327   5.664   4.786
 4436TIP3    H113272   0.324   5.689   4.878
 4436TIP3    H213273   0.386   5.589   4.783
 4437TIP3   OH213274   1.803   2.431   4.253
 4437TIP3    H113275   1.802   2.336   4.265
 4437TIP3    H213276   1.773   2.443   4.163
 4438TIP3   OH213277   1.291   6.562   5.640
 4438TIP3    H113278   1.207   6.531   5.671
 4438TIP3    H213279   1.327   6.612   5.714
 4439TIP3   OH213280   5.008   4.133   4.199
 4439TIP3    H113281   5.000   4.053   4.250
 4439TIP3    H213282   4.959   4.116   4.119
 4440TIP3   OH213283   6.519   4.883   1.621
 4440TIP3    H113284   6.559   4.804   1.656
 4440TIP3    H213285   6.455   4.909   1.687
 4441TIP3   OH213286   3.996   3.480   0.458
 4441TIP3    H113287   3.939   3.403   0.461
 4441TIP3    H213288   4.076   3.453   0.502
 4442TIP3   OH213289   0.365   0.001   3.074
 4442TIP3    H113290   0.283  -0.047   3.085
 4442TIP3    H213291   0.351   0.056   2.997
 4443TIP3   OH213292   6.687   6.506   0.392
 4443TIP3    H113293   6.764   6.561   0.407
 4443TIP3    H213294   6.702   6.467   0.306
 4444TIP3   OH213295   3.663   1.797   0.300
 4444TIP3    H113296   3.693   1.712   0.332
 4444TIP3    H213297   3.732   1.824   0.239
 4445TIP3   OH213298   0.334   3.030   5.168
 4445TIP3    H113299   0.245   3.063   5.157
 4445TIP3    H213300   0.386   3.080   5.104
 4446TIP3   OH213301   6.703   0.459   5.778
 4446TIP3    H113302   6.662   0.374   5.770
 4446TIP3    H213303   6.685   0.503   5.695
 4447TIP3   OH213304   2.143   2.391   4.075
 4447TIP3    H113305   2.158   2.404   3.982
 4447TIP3    H213306   2.215   2.439   4.117
 4448TIP3   OH213307   6.149   6.148   1.335
 4448TIP3    H113308   6.217   6.140   1.401
 4448TIP3    H213309   6.194   6.178   1.257
 4449TIP3   OH213310   0.444   2.531   4.729
 4449TIP3    H113311   0.364   2.567   4.690
 4449TIP3    H213312   0.514   2.586   4.695
 4450TIP3   OH213313   0.966   1.389   3.217
 4450TIP3    H113314   0.930   1.314   3.264
 4450TIP3    H213315   0.896   1.417   3.158
 4451TIP3   OH213316   4.246   0.320   2.230
 4451TIP3    H113317   4.294   0.261   2.288
 4451TIP3    H213318   4.306   0.394   2.218
 4452TIP3   OH213319   1.460   5.599   0.108
 4452TIP3    H113320   1.489   5.523   0.059
 4452TIP3    H213321   1.382   5.570   0.154
 4453TIP3   OH213322   5.868   5.838   5.616
 4453TIP3    H113323   5.936   5.874   5.674
 4453TIP3    H213324   5.804   5.908   5.607
 4454TIP3   OH213325   5.142   4.378   1.339
 4454TIP3    H113326   5.072   4.322   1.306
 4454TIP3    H213327   5.104   4.465   1.340
 4455TIP3   OH213328   6.866   5.380   0.065
 4455TIP3    H113329   6.857   5.466   0.023
 4455TIP3    H213330   6.951   5.347   0.033
 4456TIP3   OH213331   6.233   1.446   0.184
 4456TIP3    H113332   6.192   1.364   0.155
 4456TIP3    H213333   6.168   1.486   0.242
 4457TIP3   OH213334   3.900   3.890   5.599
 4457TIP3    H113335   3.877   3.957   5.663
 4457TIP3    H213336   3.832   3.895   5.532
 4458TIP3   OH213337   3.535   0.742   3.357
 4458TIP3    H113338   3.608   0.731   3.295
 4458TIP3    H213339   3.466   0.684   3.324
 4459TIP3   OH213340   5.242   0.567   4.301
 4459TIP3    H113341   5.199   0.626   4.362
 4459TIP3    H213342   5.313   0.619   4.263
 4460TIP3   OH213343   3.672   2.595   2.498
 4460TIP3    H113344   3.581   2.612   2.523
 4460TIP3    H213345   3.722   2.608   2.578
 4461TIP3   OH213346   1.635   4.542   5.001
 4461TIP3    H113347   1.669   4.453   4.994
 4461TIP3    H213348   1.651   4.567   5.092
 4462TIP3   OH213349   0.301   2.461   1.316
 4462TIP3    H113350   0.296   2.382   1.371
 4462TIP3    H213351   0.386   2.499   1.338
 4463TIP3   OH213352   0.784   4.276   2.353
 4463TIP3    H113353   0.758   4.298   2.263
 4463TIP3    H213354   0.731   4.200   2.375
 4464TIP3   OH213355   6.638   3.084   0.051
 4464TIP3    H113356   6.689   3.083   0.133
 4464TIP3    H213357   6.550   3.107   0.078
 4465TIP3   OH213358   3.777   2.313   5.121
 4465TIP3    H113359   3.715   2.264   5.175
 4465TIP3    H213360   3.834   2.356   5.184
 4466TIP3   OH213361   3.751   5.371   5.219
 4466TIP3    H113362   3.734   5.338   5.130
 4466TIP3    H213363   3.679   5.335   5.271
 4467TIP3   OH213364   1.411   0.526   3.896
 4467TIP3    H113365   1.377   0.616   3.894
 4467TIP3    H213366   1.343   0.476   3.943
 4468TIP3   OH213367   1.887   3.784   0.478
 4468TIP3    H113368   1.885   3.726   0.554
 4468TIP3    H213369   1.795   3.791   0.451
 4469TIP3   OH213370   0.202   0.634   1.355
 4469TIP3    H113371   0.184   0.653   1.447
 4469TIP3    H213372   0.230   0.542   1.354
 4470TIP3   OH213373   2.657   6.403   0.254
 4470TIP3    H113374   2.731   6.406   0.193
 4470TIP3    H213375   2.590   6.353   0.209
 4471TIP3   OH213376   2.180   6.236   4.396
 4471TIP3    H113377   2.115   6.253   4.327
 4471TIP3    H213378   2.132   6.190   4.464
 4472TIP3   OH213379   0.095   1.219   4.485
 4472TIP3    H113380   0.074   1.205   4.392
 4472TIP3    H213381   0.144   1.140   4.510
 4473TIP3   OH213382   3.722   3.163   5.585
 4473TIP3    H113383   3.736   3.070   5.571
 4473TIP3    H213384   3.628   3.176   5.573
 4474TIP3   OH213385   2.591   0.553   3.140
 4474TIP3    H113386   2.592   0.558   3.045
 4474TIP3    H213387   2.523   0.615   3.167
 4475TIP3   OH213388   3.338   4.283   0.510
 4475TIP3    H113389   3.431   4.303   0.507
 4475TIP3    H213390   3.302   4.322   0.430
 4476TIP3   OH213391   5.859   3.201   1.749
 4476TIP3    H113392   5.817   3.244   1.675
 4476TIP3    H213393   5.838   3.109   1.738
 4477TIP3   OH213394   3.155   6.725   4.732
 4477TIP3    H113395   3.241   6.697   4.763
 4477TIP3    H213396   3.108   6.644   4.714
 4478TIP3   OH213397   3.632   1.799   5.280
 4478TIP3    H113398   3.581   1.849   5.216
 4478TIP3    H213399   3.612   1.707   5.260
 4479TIP3   OH213400   3.168   4.056   4.959
 4479TIP3    H113401   3.122   4.000   4.897
 4479TIP3    H213402   3.107   4.066   5.032
 4480TIP3   OH213403   5.151   2.702   2.785
 4480TIP3    H113404   5.215   2.640   2.822
 4480TIP3    H213405   5.122   2.754   2.860
 4481TIP3   OH213406   0.773   3.155   5.131
 4481TIP3    H113407   0.738   3.243   5.149
 4481TIP3    H213408   0.837   3.141   5.201
 4482TIP3   OH213409   3.794   0.563   2.364
 4482TIP3    H113410   3.874   0.513   2.346
 4482TIP3    H213411   3.797   0.636   2.302
 4483TIP3   OH213412   3.146   1.337   2.935
 4483TIP3    H113413   3.104   1.254   2.912
 4483TIP3    H213414   3.209   1.353   2.865
 4484TIP3   OH213415   6.589   4.799   5.142
 4484TIP3    H113416   6.677   4.824   5.171
 4484TIP3    H213417   6.572   4.854   5.066
 4485TIP3   OH213418   4.570   6.655   4.939
 4485TIP3    H113419   4.480   6.654   4.972
 4485TIP3    H213420   4.585   6.745   4.911
 4486TIP3   OH213421   2.572   5.008   2.186
 4486TIP3    H113422   2.599   4.921   2.157
 4486TIP3    H213423   2.590   5.008   2.281
 4487TIP3   OH213424   5.195   4.482   3.628
 4487TIP3    H113425   5.266   4.422   3.605
 4487TIP3    H213426   5.120   4.453   3.576
 4488TIP3   OH213427   0.887   4.071   0.545
 4488TIP3    H113428   0.815   4.105   0.597
 4488TIP3    H213429   0.846   4.009   0.484
 4489TIP3   OH213430   2.536   2.164   0.863
 4489TIP3    H113431   2.463   2.208   0.817
 4489TIP3    H213432   2.607   2.228   0.861
 4490TIP3   OH213433   6.605   2.574   3.844
 4490TIP3    H113434   6.665   2.555   3.915
 4490TIP3    H213435   6.530   2.616   3.887
 4491TIP3   OH213436   4.318   3.666   1.246
 4491TIP3    H113437   4.380   3.697   1.312
 4491TIP3    H213438   4.367   3.668   1.164
 4492TIP3   OH213439   6.020   0.868   2.232
 4492TIP3    H113440   5.965   0.891   2.157
 4492TIP3    H213441   6.059   0.951   2.260
 4493TIP3   OH213442   2.253   1.692   2.667
 4493TIP3    H113443   2.240   1.630   2.738
 4493TIP3    H213444   2.232   1.643   2.587
 4494TIP3   OH213445   2.883   4.280   5.364
 4494TIP3    H113446   2.928   4.354   5.323
 4494TIP3    H213447   2.945   4.248   5.430
 4495TIP3   OH213448   3.335   0.548   3.559
 4495TIP3    H113449   3.268   0.535   3.626
 4495TIP3    H213450   3.398   0.477   3.576
 4496TIP3   OH213451   1.216   4.105   2.281
 4496TIP3    H113452   1.206   4.152   2.198
 4496TIP3    H213453   1.161   4.154   2.342
 4497TIP3   OH213454   4.860   6.648   3.158
 4497TIP3    H113455   4.850   6.628   3.065
 4497TIP3    H213456   4.814   6.731   3.170
 4498TIP3   OH213457   3.772   4.384   0.975
 4498TIP3    H113458   3.763   4.466   1.023
 4498TIP3    H213459   3.862   4.384   0.943
 4499TIP3   OH213460   5.040   4.470   1.592
 4499TIP3    H113461   5.049   4.394   1.534
 4499TIP3    H213462   5.080   4.442   1.674
 4500TIP3   OH213463   1.481   0.023   2.995
 4500TIP3    H113464   1.471  -0.027   2.914
 4500TIP3    H213465   1.536   0.097   2.971
 4501TIP3   OH213466   2.533   6.538   3.906
 4501TIP3    H113467   2.565   6.448   3.920
 4501TIP3    H213468   2.445   6.538   3.943
 4502TIP3   OH213469   5.511   3.439   0.757
 4502TIP3    H113470   5.478   3.525   0.732
 4502TIP3    H213471   5.489   3.382   0.683
 4503TIP3   OH213472   7.049   0.454   2.516
 4503TIP3    H113473   6.983   0.489   2.576
 4503TIP3    H213474   7.113   0.412   2.574
 4504TIP3   OH213475   3.180   4.011   4.274
 4504TIP3    H113476   3.275   4.002   4.284
 4504TIP3    H213477   3.168   4.101   4.241
 4505TIP3   OH213478   6.958   2.423   4.627
 4505TIP3    H113479   6.914   2.407   4.711
 4505TIP3    H213480   6.942   2.516   4.611
 4506TIP3   OH213481   4.710   3.751   2.289
 4506TIP3    H113482   4.737   3.694   2.216
 4506TIP3    H213483   4.751   3.711   2.366
 4507TIP3   OH213484   6.057   3.968   2.862
 4507TIP3    H113485   6.046   3.873   2.866
 4507TIP3    H213486   6.144   3.980   2.823
 4508TIP3   OH213487   3.806   2.881   5.341
 4508TIP3    H113488   3.744   2.892   5.413
 4508TIP3    H213489   3.772   2.936   5.271
 4509TIP3   OH213490   0.645   6.575   0.925
 4509TIP3    H113491   0.699   6.498   0.944
 4509TIP3    H213492   0.607   6.556   0.839
 4510TIP3   OH213493   4.373   1.600   0.127
 4510TIP3    H113494   4.352   1.618   0.218
 4510TIP3    H213495   4.469   1.597   0.125
 4511TIP3   OH213496   4.022   1.925   0.876
 4511TIP3    H113497   3.987   2.010   0.851
 4511TIP3    H213498   3.979   1.863   0.817
 4512TIP3   OH213499   6.258   1.062   5.808
 4512TIP3    H113500   6.287   0.996   5.871
 4512TIP3    H213501   6.246   1.014   5.727
 4513TIP3   OH213502   4.738   1.682   5.477
 4513TIP3    H113503   4.647   1.711   5.486
 4513TIP3    H213504   4.788   1.763   5.483
 4514TIP3   OH213505   3.182   1.492   3.273
 4514TIP3    H113506   3.099   1.490   3.322
 4514TIP3    H213507   3.183   1.410   3.225
 4515TIP3   OH213508   3.420   5.115   5.913
 4515TIP3    H113509   3.423   5.022   5.937
 4515TIP3    H213510   3.410   5.115   5.817
 4516TIP3   OH213511   4.491   3.197   0.945
 4516TIP3    H113512   4.457   3.164   1.028
 4516TIP3    H213513   4.508   3.289   0.961
 4517TIP3   OH213514   0.804   3.694   4.782
 4517TIP3    H113515   0.862   3.641   4.727
 4517TIP3    H213516   0.722   3.646   4.784
 4518TIP3   OH213517   1.605   3.790   5.834
 4518TIP3    H113518   1.582   3.861   5.775
 4518TIP3    H213519   1.701   3.784   5.827
 4519TIP3   OH213520   5.368   2.664   3.308
 4519TIP3    H113521   5.350   2.758   3.298
 4519TIP3    H213522   5.367   2.650   3.403
 4520TIP3   OH213523   4.932   2.437   4.876
 4520TIP3    H113524   5.015   2.482   4.865
 4520TIP3    H213525   4.947   2.349   4.842
 4521TIP3   OH213526   2.324   1.898   0.539
 4521TIP3    H113527   2.335   1.804   0.523
 4521TIP3    H213528   2.369   1.914   0.622
 4522TIP3   OH213529   0.469   4.293   1.816
 4522TIP3    H113530   0.514   4.349   1.880
 4522TIP3    H213531   0.512   4.208   1.824
 4523TIP3   OH213532   3.887   3.564   2.580
 4523TIP3    H113533   3.814   3.599   2.631
 4523TIP3    H213534   3.878   3.469   2.587
 4524TIP3   OH213535   5.111   0.234   5.208
 4524TIP3    H113536   5.109   0.240   5.112
 4524TIP3    H213537   5.132   0.322   5.237
 4525TIP3   OH213538   4.648   3.299   3.630
 4525TIP3    H113539   4.603   3.289   3.546
 4525TIP3    H213540   4.647   3.211   3.667
 4526TIP3   OH213541   4.811   5.627   2.480
 4526TIP3    H113542   4.845   5.679   2.407
 4526TIP3    H213543   4.790   5.542   2.442
 4527TIP3   OH213544   1.016   3.550   2.556
 4527TIP3    H113545   0.921   3.551   2.568
 4527TIP3    H213546   1.030   3.602   2.476
 4528TIP3   OH213547  -0.016   0.030   4.574
 4528TIP3    H113548   0.072   0.068   4.581
 4528TIP3    H213549  -0.054   0.042   4.661
 4529TIP3   OH213550   2.330   4.709   5.544
 4529TIP3    H113551   2.293   4.710   5.632
 4529TIP3    H213552   2.283   4.778   5.498
 4530TIP3   OH213553   1.973   0.785   1.118
 4530TIP3    H113554   1.889   0.779   1.163
 4530TIP3    H213555   2.009   0.870   1.145
 4531TIP3   OH213556   1.604   4.500   1.328
 4531TIP3    H113557   1.655   4.419   1.324
 4531TIP3    H213558   1.555   4.493   1.410
 4532TIP3   OH213559   0.511   1.912   2.347
 4532TIP3    H113560   0.583   1.950   2.399
 4532TIP3    H213561   0.455   1.870   2.412
 4533TIP3   OH213562   5.659   4.872   4.194
 4533TIP3    H113563   5.701   4.957   4.176
 4533TIP3    H213564   5.668   4.861   4.289
 4534TIP3   OH213565   2.036   0.238   5.304
 4534TIP3    H113566   2.019   0.145   5.295
 4534TIP3    H213567   1.951   0.277   5.323
 4535TIP3   OH213568   1.516   3.559   2.364
 4535TIP3    H113569   1.466   3.591   2.439
 4535TIP3    H213570   1.568   3.486   2.399
 4536TIP3   OH213571   2.815   4.783   2.725
 4536TIP3    H113572   2.733   4.803   2.769
 4536TIP3    H213573   2.861   4.867   2.720
 4537TIP3   OH213574   1.882   0.217   3.268
 4537TIP3    H113575   1.796   0.252   3.290
 4537TIP3    H213576   1.943   0.265   3.323
 4538TIP3   OH213577   0.263   0.710   2.208
 4538TIP3    H113578   0.232   0.629   2.248
 4538TIP3    H213579   0.289   0.765   2.283
 4539TIP3   OH213580   7.110   2.263   0.300
 4539TIP3    H113581   7.067   2.337   0.343
 4539TIP3    H213582   7.143   2.209   0.372
 4540TIP3   OH213583   4.122   4.000   1.073
 4540TIP3    H113584   4.101   4.003   0.980
 4540TIP3    H213585   4.049   4.046   1.115
 4541TIP3   OH213586   5.547   4.240   1.332
 4541TIP3    H113587   5.502   4.324   1.342
 4541TIP3    H213588   5.540   4.220   1.239
 4542TIP3   OH213589   1.117   2.095   4.655
 4542TIP3    H113590   1.121   2.066   4.564
 4542TIP3    H213591   1.058   2.170   4.653
 4543TIP3   OH213592   3.271   5.359   0.053
 4543TIP3    H113593   3.215   5.313  -0.010
 4543TIP3    H213594   3.347   5.302   0.064
 4544TIP3   OH213595   4.445   3.086   5.377
 4544TIP3    H113596   4.437   3.175   5.411
 4544TIP3    H213597   4.450   3.098   5.282
 4545TIP3   OH213598   0.446   0.772   0.490
 4545TIP3    H113599   0.527   0.720   0.487
 4545TIP3    H213600   0.464   0.848   0.436
 4546TIP3   OH213601   1.222   1.889   5.786
 4546TIP3    H113602   1.138   1.923   5.754
 4546TIP3    H213603   1.270   1.966   5.815
 4547TIP3   OH213604   0.161   3.954   0.062
 4547TIP3    H113605   0.145   4.002  -0.020
 4547TIP3    H213606   0.160   3.862   0.036
 4548TIP3   OH213607   6.838   4.258   2.647
 4548TIP3    H113608   6.805   4.171   2.626
 4548TIP3    H213609   6.912   4.271   2.588
 4549TIP3   OH213610   1.802   5.773   0.822
 4549TIP3    H113611   1.841   5.694   0.785
 4549TIP3    H213612   1.708   5.762   0.806
 4550TIP3   OH213613   4.177   6.170   0.243
 4550TIP3    H113614   4.102   6.229   0.255
 4550TIP3    H213615   4.154   6.119   0.165
 4551TIP3   OH213616   3.024   2.853   5.791
 4551TIP3    H113617   3.006   2.792   5.862
 4551TIP3    H213618   2.967   2.825   5.719
 4552TIP3   OH213619   6.621   2.202   3.799
 4552TIP3    H113620   6.618   2.155   3.715
 4552TIP3    H213621   6.637   2.293   3.774
 4553TIP3   OH213622   4.362   6.113   3.107
 4553TIP3    H113623   4.357   6.020   3.084
 4553TIP3    H213624   4.328   6.117   3.197
 4554TIP3   OH213625   4.844   4.443   3.128
 4554TIP3    H113626   4.907   4.416   3.062
 4554TIP3    H213627   4.778   4.374   3.129
 4555TIP3   OH213628   0.813   5.155   4.053
 4555TIP3    H113629   0.859   5.084   4.097
 4555TIP3    H213630   0.743   5.179   4.113
 4556TIP3   OH213631   0.452   3.672   5.388
 4556TIP3    H113632   0.530   3.622   5.414
 4556TIP3    H213633   0.392   3.663   5.463
 4557TIP3   OH213634   3.779   4.782   5.790
 4557TIP3    H113635   3.841   4.836   5.840
 4557TIP3    H213636   3.803   4.795   5.699
 4558TIP3   OH213637   1.116   4.611   2.128
 4558TIP3    H113638   1.204   4.598   2.094
 4558TIP3    H213639   1.059   4.576   2.059
 4559TIP3   OH213640   2.092   6.598   5.648
 4559TIP3    H113641   2.071   6.587   5.555
 4559TIP3    H213642   2.011   6.630   5.688
 4560TIP3   OH213643   1.589   1.591   5.738
 4560TIP3    H113644   1.578   1.668   5.682
 4560TIP3    H213645   1.561   1.619   5.825
 4561TIP3   OH213646   6.372   1.514   1.723
 4561TIP3    H113647   6.423   1.534   1.644
 4561TIP3    H213648   6.285   1.493   1.689
 4562TIP3   OH213649   5.168   3.280   5.464
 4562TIP3    H113650   5.126   3.243   5.386
 4562TIP3    H213651   5.171   3.374   5.448
 4563TIP3   OH213652   3.154   2.731   3.445
 4563TIP3    H113653   3.162   2.654   3.389
 4563TIP3    H213654   3.083   2.710   3.505
 4564TIP3   OH213655   4.969   2.332   5.294
 4564TIP3    H113656   5.004   2.321   5.383
 4564TIP3    H213657   5.036   2.382   5.248
 4565TIP3   OH213658   6.073   4.610   3.960
 4565TIP3    H113659   5.988   4.642   3.991
 4565TIP3    H213660   6.112   4.686   3.917
 4566TIP3   OH213661   2.857   6.809   2.184
 4566TIP3    H113662   2.897   6.860   2.113
 4566TIP3    H213663   2.827   6.728   2.142
 4567TIP3   OH213664   1.361   3.224   5.596
 4567TIP3    H113665   1.390   3.220   5.687
 4567TIP3    H213666   1.441   3.209   5.545
 4568TIP3   OH213667   5.223   3.450   3.008
 4568TIP3    H113668   5.258   3.526   3.055
 4568TIP3    H213669   5.144   3.484   2.965
 4569TIP3   OH213670   3.444   5.592   2.374
 4569TIP3    H113671   3.361   5.587   2.422
 4569TIP3    H213672   3.471   5.501   2.365
 4570TIP3   OH213673   1.741   4.296   4.988
 4570TIP3    H113674   1.784   4.257   4.911
 4570TIP3    H213675   1.719   4.221   5.043
 4571TIP3   OH213676   0.315   4.519   0.745
 4571TIP3    H113677   0.259   4.496   0.670
 4571TIP3    H213678   0.261   4.500   0.822
 4572TIP3   OH213679   5.380   5.885   1.304
 4572TIP3    H113680   5.461   5.835   1.303
 4572TIP3    H213681   5.314   5.825   1.338
 4573TIP3   OH213682   0.287   3.552   0.166
 4573TIP3    H113683   0.330   3.469   0.186
 4573TIP3    H213684   0.357   3.617   0.168
 4574TIP3   OH213685   5.902   6.148   4.707
 4574TIP3    H113686   5.817   6.178   4.676
 4574TIP3    H213687   5.929   6.213   4.771
 4575TIP3   OH213688   6.106   3.342   2.675
 4575TIP3    H113689   6.103   3.437   2.666
 4575TIP3    H213690   6.045   3.322   2.746
 4576TIP3   OH213691   0.869   4.858   3.046
 4576TIP3    H113692   0.961   4.862   3.019
 4576TIP3    H213693   0.855   4.765   3.066
 4577TIP3   OH213694   6.255   2.316   2.517
 4577TIP3    H113695   6.295   2.230   2.501
 4577TIP3    H213696   6.302   2.351   2.592
 4578TIP3   OH213697   5.995   0.592   0.072
 4578TIP3    H113698   5.905   0.569   0.094
 4578TIP3    H213699   6.018   0.533   0.000
 4579TIP3   OH213700   0.265   2.924   2.988
 4579TIP3    H113701   0.322   2.996   2.961
 4579TIP3    H213702   0.314   2.845   2.966
 4580TIP3   OH213703   3.602   5.177   3.299
 4580TIP3    H113704   3.598   5.103   3.238
 4580TIP3    H213705   3.678   5.228   3.269
 4581TIP3   OH213706   6.587   5.280   5.477
 4581TIP3    H113707   6.664   5.315   5.523
 4581TIP3    H213708   6.603   5.300   5.385
 4582TIP3   OH213709   6.913   2.306   5.758
 4582TIP3    H113710   7.002   2.274   5.773
 4582TIP3    H213711   6.913   2.332   5.666
 4583TIP3   OH213712   1.109   1.994   1.504
 4583TIP3    H113713   1.173   2.063   1.522
 4583TIP3    H213714   1.161   1.922   1.467
 4584TIP3   OH213715   6.856   6.732   0.921
 4584TIP3    H113716   6.832   6.665   0.985
 4584TIP3    H213717   6.925   6.691   0.869
 4585TIP3   OH213718   3.355   0.729   2.384
 4585TIP3    H113719   3.280   0.699   2.333
 4585TIP3    H213720   3.428   0.674   2.355
 4586TIP3   OH213721   4.972   1.083   2.180
 4586TIP3    H113722   4.883   1.116   2.170
 4586TIP3    H213723   4.999   1.059   2.091
 4587TIP3   OH213724   4.076   4.667   5.303
 4587TIP3    H113725   4.083   4.737   5.238
 4587TIP3    H213726   4.057   4.588   5.252
 4588TIP3   OH213727   6.660   3.294   5.539
 4588TIP3    H113728   6.566   3.292   5.526
 4588TIP3    H213729   6.696   3.248   5.463
 4589TIP3   OH213730   6.720   5.132   4.997
 4589TIP3    H113731   6.794   5.191   5.014
 4589TIP3    H213732   6.734   5.058   5.055
 4590TIP3   OH213733   5.690   5.507   2.751
 4590TIP3    H113734   5.739   5.543   2.825
 4590TIP3    H213735   5.598   5.520   2.774
 4591TIP3   OH213736   3.182   3.391   3.812
 4591TIP3    H113737   3.164   3.321   3.875
 4591TIP3    H213738   3.260   3.435   3.846
 4592TIP3   OH213739   4.566   6.464   2.964
 4592TIP3    H113740   4.532   6.460   3.053
 4592TIP3    H213741   4.649   6.416   2.967
 4593TIP3   OH213742   7.243   6.539   1.970
 4593TIP3    H113743   7.212   6.585   1.892
 4593TIP3    H213744   7.186   6.463   1.977
 4594TIP3   OH213745   6.906   1.642   3.432
 4594TIP3    H113746   6.941   1.720   3.388
 4594TIP3    H213747   6.880   1.673   3.518
 4595TIP3   OH213748   5.709   4.043   1.047
 4595TIP3    H113749   5.730   4.012   0.959
 4595TIP3    H213750   5.632   4.099   1.035
 4596TIP3   OH213751   4.172   3.073   2.004
 4596TIP3    H113752   4.258   3.082   1.961
 4596TIP3    H213753   4.193   3.052   2.094
 4597TIP3   OH213754   1.312   1.383   5.703
 4597TIP3    H113755   1.376   1.326   5.746
 4597TIP3    H213756   1.286   1.445   5.771
 4598TIP3   OH213757   5.298   5.763   4.875
 4598TIP3    H113758   5.218   5.809   4.850
 4598TIP3    H213759   5.311   5.699   4.805
 4599TIP3   OH213760   4.694   6.380   0.532
 4599TIP3    H113761   4.683   6.358   0.625
 4599TIP3    H213762   4.652   6.308   0.485
 4600TIP3   OH213763   1.004   2.825   0.113
 4600TIP3    H113764   1.067   2.802   0.181
 4600TIP3    H213765   0.923   2.845   0.161
 4601TIP3   OH213766   4.936   3.778   1.245
 4601TIP3    H113767   4.910   3.687   1.258
 4601TIP3    H213768   5.029   3.779   1.267
 4602TIP3   OH213769   3.250   5.608   2.701
 4602TIP3    H113770   3.243   5.558   2.620
 4602TIP3    H213771   3.165   5.652   2.710
 4603TIP3   OH213772   0.156   2.111   4.496
 4603TIP3    H113773   0.191   2.139   4.580
 4603TIP3    H213774   0.065   2.088   4.514
 4604TIP3   OH213775   1.143   1.896   5.446
 4604TIP3    H113776   1.147   1.974   5.390
 4604TIP3    H213777   1.122   1.930   5.533
 4605TIP3   OH213778   6.024   3.710   5.567
 4605TIP3    H113779   6.116   3.712   5.595
 4605TIP3    H213780   5.974   3.717   5.648
 4606TIP3   OH213781   6.936   3.760   3.946
 4606TIP3    H113782   6.983   3.831   3.988
 4606TIP3    H213783   6.847   3.793   3.934
 4607TIP3   OH213784   6.023   5.509   0.841
 4607TIP3    H113785   6.100   5.536   0.890
 4607TIP3    H213786   5.964   5.583   0.846
 4608TIP3   OH213787   3.260   1.238   3.172
 4608TIP3    H113788   3.350   1.253   3.145
 4608TIP3    H213789   3.213   1.218   3.090
 4609TIP3   OH213790   2.642   6.166   5.131
 4609TIP3    H113791   2.706   6.122   5.074
 4609TIP3    H213792   2.680   6.252   5.148
 4610TIP3   OH213793   5.574   4.228   5.730
 4610TIP3    H113794   5.549   4.319   5.717
 4610TIP3    H213795   5.587   4.193   5.642
 4611TIP3   OH213796   6.961   5.845   5.464
 4611TIP3    H113797   6.879   5.847   5.513
 4611TIP3    H213798   6.968   5.755   5.432
 4612TIP3   OH213799   7.070   3.722   4.874
 4612TIP3    H113800   7.004   3.749   4.938
 4612TIP3    H213801   7.123   3.801   4.859
 4613TIP3   OH213802   1.453   2.883   2.851
 4613TIP3    H113803   1.415   2.854   2.768
 4613TIP3    H213804   1.470   2.976   2.837
 4614TIP3   OH213805   4.039   4.568   2.260
 4614TIP3    H113806   4.049   4.662   2.270
 4614TIP3    H213807   4.007   4.539   2.346
 4615TIP3   OH213808   0.673   4.169   5.561
 4615TIP3    H113809   0.747   4.108   5.556
 4615TIP3    H213810   0.597   4.113   5.580
 4616TIP3   OH213811   5.035   4.279   3.288
 4616TIP3    H113812   5.071   4.322   3.366
 4616TIP3    H213813   5.015   4.351   3.228
 4617TIP3   OH213814   5.506   4.661   3.193
 4617TIP3    H113815   5.446   4.665   3.119
 4617TIP3    H213816   5.501   4.747   3.234
 4618TIP3   OH213817   1.263   5.066   1.612
 4618TIP3    H113818   1.286   4.980   1.577
 4618TIP3    H213819   1.168   5.069   1.609
 4619TIP3   OH213820   6.564   2.292   2.134
 4619TIP3    H113821   6.648   2.332   2.112
 4619TIP3    H213822   6.587   2.209   2.175
 4620TIP3   OH213823   6.388   1.880   0.385
 4620TIP3    H113824   6.463   1.870   0.444
 4620TIP3    H213825   6.397   1.808   0.322
 4621TIP3   OH213826   2.354   0.954   4.770
 4621TIP3    H113827   2.311   0.892   4.829
 4621TIP3    H213828   2.344   0.916   4.683
 4622TIP3   OH213829   3.055   5.712   3.032
 4622TIP3    H113830   3.077   5.628   3.075
 4622TIP3    H213831   2.996   5.755   3.093
 4623TIP3   OH213832   0.765   4.938   4.561
 4623TIP3    H113833   0.760   4.848   4.593
 4623TIP3    H213834   0.837   4.977   4.610
 4624TIP3   OH213835   6.424   3.404   1.483
 4624TIP3    H113836   6.402   3.311   1.483
 4624TIP3    H213837   6.413   3.431   1.392
 4625TIP3   OH213838   2.950   6.468   5.536
 4625TIP3    H113839   2.994   6.444   5.455
 4625TIP3    H213840   2.989   6.410   5.602
 4626TIP3   OH213841   0.882   4.095   4.157
 4626TIP3    H113842   0.841   4.013   4.130
 4626TIP3    H213843   0.835   4.121   4.236
 4627TIP3   OH213844   6.715   6.383   2.827
 4627TIP3    H113845   6.755   6.449   2.770
 4627TIP3    H213846   6.740   6.410   2.916
 4628TIP3   OH213847   4.576   2.555   3.668
 4628TIP3    H113848   4.560   2.630   3.611
 4628TIP3    H213849   4.634   2.588   3.736
 4629TIP3   OH213850   5.775   3.317   2.373
 4629TIP3    H113851   5.769   3.262   2.294
 4629TIP3    H213852   5.869   3.328   2.388
 4630TIP3   OH213853   0.224   5.889   5.760
 4630TIP3    H113854   0.174   5.860   5.837
 4630TIP3    H213855   0.294   5.943   5.795
 4631TIP3   OH213856   0.453   1.755   0.242
 4631TIP3    H113857   0.547   1.769   0.234
 4631TIP3    H213858   0.418   1.776   0.156
 4632TIP3   OH213859   3.047   1.100   2.867
 4632TIP3    H113860   3.046   1.032   2.934
 4632TIP3    H213861   3.102   1.065   2.797
 4633TIP3   OH213862   5.472   1.563   0.318
 4633TIP3    H113863   5.456   1.572   0.411
 4633TIP3    H213864   5.523   1.640   0.294
 4634TIP3   OH213865   5.488   4.218   1.066
 4634TIP3    H113866   5.394   4.231   1.079
 4634TIP3    H213867   5.519   4.301   1.029
 4635TIP3   OH213868   4.133   0.671   3.724
 4635TIP3    H113869   4.063   0.736   3.729
 4635TIP3    H213870   4.089   0.587   3.739
 4636TIP3   OH213871   2.904   4.386   2.246
 4636TIP3    H113872   2.895   4.326   2.172
 4636TIP3    H213873   2.860   4.466   2.217
 4637TIP3   OH213874   2.516   3.319   0.256
 4637TIP3    H113875   2.524   3.233   0.214
 4637TIP3    H213876   2.451   3.307   0.325
 4638TIP3   OH213877   5.231   5.095   2.564
 4638TIP3    H113878   5.261   5.018   2.612
 4638TIP3    H213879   5.283   5.095   2.484
 4639TIP3   OH213880   3.469   1.101   0.669
 4639TIP3    H113881   3.447   1.188   0.702
 4639TIP3    H213882   3.470   1.112   0.574
 4640TIP3   OH213883   1.311   1.022   5.197
 4640TIP3    H113884   1.225   1.063   5.186
 4640TIP3    H213885   1.307   0.944   5.141
 4641TIP3   OH213886   1.165   3.729   4.512
 4641TIP3    H113887   1.243   3.739   4.458
 4641TIP3    H213888   1.096   3.773   4.463
 4642TIP3   OH213889   3.773   5.591   2.513
 4642TIP3    H113890   3.865   5.585   2.489
 4642TIP3    H213891   3.774   5.597   2.609
 4643TIP3   OH213892   5.817   6.800   2.633
 4643TIP3    H113893   5.742   6.769   2.583
 4643TIP3    H213894   5.893   6.766   2.586
 4644TIP3   OH213895   4.725   0.507   2.195
 4644TIP3    H113896   4.754   0.431   2.245
 4644TIP3    H213897   4.796   0.526   2.135
 4645TIP3   OH213898   1.192   5.445   0.853
 4645TIP3    H113899   1.243   5.518   0.887
 4645TIP3    H213900   1.246   5.368   0.869
 4646TIP3   OH213901   5.505   2.422   4.591
 4646TIP3    H113902   5.537   2.511   4.575
 4646TIP3    H213903   5.566   2.366   4.543
 4647TIP3   OH213904   0.753   0.853   3.239
 4647TIP3    H113905   0.666   0.852   3.199
 4647TIP3    H213906   0.762   0.767   3.279
 4648TIP3   OH213907   6.270   2.113   5.566
 4648TIP3    H113908   6.177   2.132   5.573
 4648TIP3    H213909   6.276   2.018   5.570
 4649TIP3   OH213910   7.172   6.696   0.237
 4649TIP3    H113911   7.222   6.674   0.316
 4649TIP3    H213912   7.144   6.611   0.203
 4650TIP3   OH213913   2.303   3.586   3.229
 4650TIP3    H113914   2.392   3.592   3.194
 4650TIP3    H213915   2.297   3.659   3.290
 4651TIP3   OH213916   1.899   0.083   3.892
 4651TIP3    H113917   1.899   0.157   3.831
 4651TIP3    H213918   1.821   0.032   3.866
 4652TIP3   OH213919   4.428   0.968   4.529
 4652TIP3    H113920   4.510   0.920   4.546
 4652TIP3    H213921   4.449   1.059   4.549
 4653TIP3   OH213922   5.415   3.739   4.492
 4653TIP3    H113923   5.481   3.752   4.424
 4653TIP3    H213924   5.336   3.712   4.444
 4654TIP3   OH213925   1.557   2.892   5.037
 4654TIP3    H113926   1.632   2.856   4.990
 4654TIP3    H213927   1.568   2.861   5.127
 4655TIP3   OH213928   5.716   2.343   3.755
 4655TIP3    H113929   5.621   2.338   3.756
 4655TIP3    H213930   5.745   2.252   3.764
 4656TIP3   OH213931   1.482   1.746   0.669
 4656TIP3    H113932   1.404   1.712   0.712
 4656TIP3    H213933   1.523   1.802   0.735
 4657TIP3   OH213934   4.387   2.200   5.713
 4657TIP3    H113935   4.335   2.280   5.710
 4657TIP3    H213936   4.410   2.183   5.622
 4658TIP3   OH213937   3.182   4.401   1.987
 4658TIP3    H113938   3.105   4.345   1.983
 4658TIP3    H213939   3.149   4.486   2.018
 4659TIP3   OH213940   0.343   3.266   4.236
 4659TIP3    H113941   0.300   3.273   4.151
 4659TIP3    H213942   0.285   3.211   4.288
 4660TIP3   OH213943   6.875   4.992   0.879
 4660TIP3    H113944   6.894   4.909   0.836
 4660TIP3    H213945   6.891   4.976   0.972
 4661TIP3   OH213946   5.327   0.017   4.123
 4661TIP3    H113947   5.332   0.070   4.043
 4661TIP3    H213948   5.283  -0.064   4.096
 4662TIP3   OH213949   3.561   5.194   3.574
 4662TIP3    H113950   3.632   5.232   3.626
 4662TIP3    H213951   3.590   5.204   3.483
 4663TIP3   OH213952   5.964   6.785   0.751
 4663TIP3    H113953   5.961   6.752   0.841
 4663TIP3    H213954   5.876   6.818   0.734
 4664TIP3   OH213955   5.255   5.653   3.563
 4664TIP3    H113956   5.163   5.626   3.564
 4664TIP3    H213957   5.266   5.697   3.479
 4665TIP3   OH213958   1.646   1.343   5.716
 4665TIP3    H113959   1.624   1.436   5.722
 4665TIP3    H213960   1.728   1.333   5.764
 4666TIP3   OH213961   4.619   6.575   2.658
 4666TIP3    H113962   4.639   6.483   2.641
 4666TIP3    H213963   4.630   6.618   2.573
 4667TIP3   OH213964   4.178   5.797   5.842
 4667TIP3    H113965   4.212   5.837   5.921
 4667TIP3    H213966   4.225   5.714   5.834
 4668TIP3   OH213967   1.951   4.653   2.339
 4668TIP3    H113968   2.004   4.672   2.416
 4668TIP3    H213969   1.860   4.657   2.370
 4669TIP3   OH213970   2.335   3.484   5.350
 4669TIP3    H113971   2.255   3.443   5.382
 4669TIP3    H213972   2.312   3.576   5.338
 4670TIP3   OH213973   2.058   6.035   0.500
 4670TIP3    H113974   2.000   6.066   0.568
 4670TIP3    H213975   2.043   5.940   0.496
 4671TIP3   OH213976   3.868   3.233   4.802
 4671TIP3    H113977   3.863   3.319   4.845
 4671TIP3    H213978   3.838   3.171   4.869
 4672TIP3   OH213979   5.845   6.020   3.052
 4672TIP3    H113980   5.913   5.953   3.047
 4672TIP3    H213981   5.770   5.982   3.006
 4673TIP3   OH213982   6.084   6.413   1.214
 4673TIP3    H113983   6.010   6.358   1.185
 4673TIP3    H213984   6.161   6.368   1.181
 4674TIP3   OH213985   5.347   6.726   0.878
 4674TIP3    H113986   5.291   6.648   0.876
 4674TIP3    H213987   5.317   6.779   0.804
 4675TIP3   OH213988   2.833   3.209   3.181
 4675TIP3    H113989   2.825   3.257   3.099
 4675TIP3    H213990   2.757   3.237   3.233
 4676TIP3   OH213991   2.343   6.393   2.351
 4676TIP3    H113992   2.253   6.400   2.322
 4676TIP3    H213993   2.374   6.310   2.314
 4677TIP3   OH213994   5.121   2.131   3.126
 4677TIP3    H113995   5.209   2.159   3.149
 4677TIP3    H213996   5.082   2.102   3.208
 4678TIP3   OH213997   2.266   0.415   3.273
 4678TIP3    H113998   2.232   0.461   3.196
 4678TIP3    H213999   2.323   0.479   3.315
 4679TIP3   OH214000   3.075   3.195   3.988
 4679TIP3    H114001   2.981   3.176   3.983
 4679TIP3    H214002   3.115   3.112   4.013
 4680TIP3   OH214003   3.100   6.723   5.342
 4680TIP3    H114004   3.042   6.789   5.303
 4680TIP3    H214005   3.042   6.649   5.362
 4681TIP3   OH214006   4.095   1.086   1.951
 4681TIP3    H114007   4.104   1.179   1.931
 4681TIP3    H214008   4.173   1.046   1.912
 4682TIP3   OH214009   5.461   1.471   2.220
 4682TIP3    H114010   5.500   1.455   2.306
 4682TIP3    H214011   5.517   1.539   2.182
 4683TIP3   OH214012   5.091   3.484   3.585
 4683TIP3    H114013   5.061   3.575   3.588
 4683TIP3    H214014   5.025   3.435   3.632
 4684TIP3   OH214015   5.435   1.750   0.022
 4684TIP3    H114016   5.439   1.792  -0.063
 4684TIP3    H214017   5.525   1.753   0.056
 4685TIP3   OH214018   5.157   6.738   5.313
 4685TIP3    H114019   5.094   6.797   5.271
 4685TIP3    H214020   5.127   6.730   5.403
 4686TIP3   OH214021   2.490   6.351   4.509
 4686TIP3    H114022   2.493   6.268   4.460
 4686TIP3    H214023   2.452   6.413   4.448
 4687TIP3   OH214024   2.114   2.109   1.894
 4687TIP3    H114025   2.049   2.047   1.928
 4687TIP3    H214026   2.114   2.180   1.958
 4688TIP3   OH214027   2.487   0.431   1.659
 4688TIP3    H114028   2.467   0.428   1.565
 4688TIP3    H214029   2.582   0.443   1.662
 4689TIP3   OH214030   0.538   1.946   5.831
 4689TIP3    H114031   0.584   1.885   5.773
 4689TIP3    H214032   0.493   2.006   5.771
 4690TIP3   OH214033   5.216   3.154   0.402
 4690TIP3    H114034   5.232   3.060   0.400
 4690TIP3    H214035   5.198   3.178   0.312
 4691TIP3   OH214036   1.288   3.309   2.660
 4691TIP3    H114037   1.251   3.302   2.573
 4691TIP3    H214038   1.231   3.370   2.706
 4692TIP3   OH214039   1.884   3.521   5.783
 4692TIP3    H114040   1.818   3.462   5.820
 4692TIP3    H214041   1.953   3.463   5.751
 4693TIP3   OH214042   5.417   4.306   4.698
 4693TIP3    H114043   5.413   4.210   4.701
 4693TIP3    H214044   5.417   4.327   4.604
 4694TIP3   OH214045   2.092   4.887   1.357
 4694TIP3    H114046   2.032   4.844   1.417
 4694TIP3    H214047   2.035   4.932   1.294
 4695TIP3   OH214048   3.652   6.424   3.360
 4695TIP3    H114049   3.745   6.443   3.345
 4695TIP3    H214050   3.606   6.503   3.333
 4696TIP3   OH214051   2.733   5.727   3.450
 4696TIP3    H114052   2.700   5.740   3.539
 4696TIP3    H214053   2.815   5.679   3.461
 4697TIP3   OH214054   2.548   4.364   0.978
 4697TIP3    H114055   2.520   4.383   1.067
 4697TIP3    H214056   2.551   4.269   0.973
 4698TIP3   OH214057   1.562   1.523   3.247
 4698TIP3    H114058   1.575   1.499   3.339
 4698TIP3    H214059   1.535   1.615   3.250
 4699TIP3   OH214060   6.432   6.542   1.467
 4699TIP3    H114061   6.416   6.611   1.403
 4699TIP3    H214062   6.346   6.526   1.507
 4700TIP3   OH214063   4.752   1.994   0.896
 4700TIP3    H114064   4.811   2.061   0.861
 4700TIP3    H214065   4.802   1.913   0.891
 4701TIP3   OH214066   3.059   5.875   2.408
 4701TIP3    H114067   3.110   5.922   2.474
 4701TIP3    H214068   2.983   5.930   2.393
 4702TIP3   OH214069   2.236   6.464   1.684
 4702TIP3    H114070   2.270   6.383   1.647
 4702TIP3    H214071   2.306   6.528   1.672
 4703TIP3   OH214072   6.484   1.367   2.165
 4703TIP3    H114073   6.389   1.369   2.171
 4703TIP3    H214074   6.502   1.346   2.073
 4704TIP3   OH214075   0.309   2.944   2.639
 4704TIP3    H114076   0.379   3.001   2.669
 4704TIP3    H214077   0.280   2.982   2.556
 4705TIP3   OH214078   6.081   0.711   0.294
 4705TIP3    H114079   6.048   0.695   0.206
 4705TIP3    H214080   6.021   0.664   0.351
 4706TIP3   OH214081   4.513   4.618   5.433
 4706TIP3    H114082   4.490   4.691   5.375
 4706TIP3    H214083   4.491   4.650   5.521
 4707TIP3   OH214084   3.976   1.329   2.316
 4707TIP3    H114085   3.894   1.313   2.271
 4707TIP3    H214086   4.032   1.370   2.251
 4708TIP3   OH214087   5.496   4.956   4.920
 4708TIP3    H114088   5.416   4.988   4.880
 4708TIP3    H214089   5.525   4.885   4.862
 4709TIP3   OH214090   6.697   0.269   2.942
 4709TIP3    H114091   6.678   0.338   3.006
 4709TIP3    H214092   6.654   0.299   2.861
 4710TIP3   OH214093   7.052   1.246   1.108
 4710TIP3    H114094   7.023   1.175   1.050
 4710TIP3    H214095   7.140   1.219   1.136
 4711TIP3   OH214096   4.853   1.542   2.646
 4711TIP3    H114097   4.935   1.495   2.659
 4711TIP3    H214098   4.855   1.613   2.711
 4712TIP3   OH214099   6.630   1.618   4.025
 4712TIP3    H114100   6.600   1.702   4.062
 4712TIP3    H214101   6.711   1.640   3.979
 4713TIP3   OH214102   4.912   1.790   5.183
 4713TIP3    H114103   4.910   1.885   5.199
 4713TIP3    H214104   4.831   1.758   5.222
 4714TIP3   OH214105   1.571   6.756   5.721
 4714TIP3    H114106   1.488   6.798   5.747
 4714TIP3    H214107   1.591   6.793   5.636
 4715TIP3   OH214108   4.321   1.167   5.010
 4715TIP3    H114109   4.268   1.216   4.948
 4715TIP3    H214110   4.380   1.115   4.955
 4716TIP3   OH214111   5.905   1.713   4.351
 4716TIP3    H114112   5.888   1.746   4.263
 4716TIP3    H214113   5.926   1.621   4.339
 4717TIP3   OH214114   6.898   0.271   2.696
 4717TIP3    H114115   6.854   0.242   2.616
 4717TIP3    H214116   6.827   0.289   2.757
 4718TIP3   OH214117   1.357   5.216   4.647
 4718TIP3    H114118   1.263   5.203   4.634
 4718TIP3    H214119   1.398   5.167   4.575
 4719TIP3   OH214120   2.392   6.270   0.129
 4719TIP3    H114121   2.449   6.199   0.099
 4719TIP3    H214122   2.303   6.234   0.123
 4720TIP3   OH214123   4.494   2.497   5.139
 4720TIP3    H114124   4.443   2.521   5.062
 4720TIP3    H214125   4.450   2.420   5.174
 4721TIP3   OH214126   4.338   6.596   0.120
 4721TIP3    H114127   4.314   6.667   0.179
 4721TIP3    H214128   4.255   6.556   0.095
 4722TIP3   OH214129   4.405   2.750   3.918
 4722TIP3    H114130   4.333   2.692   3.944
 4722TIP3    H214131   4.409   2.815   3.988
 4723TIP3   OH214132   2.315   6.767   2.918
 4723TIP3    H114133   2.328   6.686   2.868
 4723TIP3    H214134   2.232   6.801   2.885
 4724TIP3   OH214135   6.689   3.975   3.400
 4724TIP3    H114136   6.606   4.009   3.433
 4724TIP3    H214137   6.699   3.890   3.444
 4725TIP3   OH214138   6.414   3.542   3.787
 4725TIP3    H114139   6.435   3.635   3.799
 4725TIP3    H214140   6.494   3.496   3.811
 4726TIP3   OH214141   4.649   6.161   0.400
 4726TIP3    H114142   4.744   6.150   0.393
 4726TIP3    H214143   4.614   6.128   0.317
 4727TIP3   OH214144   0.417   2.259   0.935
 4727TIP3    H114145   0.356   2.187   0.948
 4727TIP3    H214146   0.466   2.264   1.018
 4728TIP3   OH214147   3.534   5.137   4.721
 4728TIP3    H114148   3.453   5.181   4.745
 4728TIP3    H214149   3.508   5.070   4.658
 4729TIP3   OH214150   2.380   1.511   3.756
 4729TIP3    H114151   2.304   1.458   3.781
 4729TIP3    H214152   2.456   1.456   3.775
 4730TIP3   OH214153   2.133   4.443   0.220
 4730TIP3    H114154   2.210   4.420   0.271
 4730TIP3    H214155   2.099   4.360   0.187
 4731TIP3   OH214156   0.156   0.682   5.491
 4731TIP3    H114157   0.216   0.675   5.417
 4731TIP3    H214158   0.099   0.606   5.484
 4732TIP3   OH214159   0.591   0.594   3.888
 4732TIP3    H114160   0.629   0.677   3.861
 4732TIP3    H214161   0.534   0.568   3.816
 4733TIP3   OH214162   2.087   0.928   1.726
 4733TIP3    H114163   2.100   0.836   1.704
 4733TIP3    H214164   2.013   0.927   1.788
 4734TIP3   OH214165   3.753   6.605  -0.020
 4734TIP3    H114166   3.672   6.577   0.023
 4734TIP3    H214167   3.769   6.693   0.014
 4735TIP3   OH214168   6.623   4.622   5.345
 4735TIP3    H114169   6.622   4.672   5.427
 4735TIP3    H214170   6.587   4.682   5.280
 4736TIP3   OH214171   6.916   1.588   5.845
 4736TIP3    H114172   6.905   1.545   5.760
 4736TIP3    H214173   6.930   1.680   5.823
 4737TIP3   OH214174   3.891   5.724   5.511
 4737TIP3    H114175   3.920   5.635   5.489
 4737TIP3    H214176   3.872   5.764   5.426
 4738TIP3   OH214177   5.848   4.948   3.065
 4738TIP3    H114178   5.920   4.893   3.033
 4738TIP3    H214179   5.769   4.903   3.037
 4739TIP3   OH214180   3.743   2.792   5.910
 4739TIP3    H114181   3.719   2.831   5.826
 4739TIP3    H214182   3.684   2.716   5.919
 4740TIP3   OH214183   1.684   1.866   3.003
 4740TIP3    H114184   1.696   1.895   3.094
 4740TIP3    H214185   1.628   1.933   2.964
 4741TIP3   OH214186   6.921   0.508   3.860
 4741TIP3    H114187   6.883   0.419   3.860
 4741TIP3    H214188   6.942   0.524   3.768
 4742TIP3   OH214189   1.341   0.682   3.319
 4742TIP3    H114190   1.287   0.743   3.370
 4742TIP3    H214191   1.382   0.626   3.385
 4743TIP3   OH214192   5.311   2.930   3.710
 4743TIP3    H114193   5.308   2.964   3.621
 4743TIP3    H214194   5.399   2.953   3.741
 4744TIP3   OH214195   6.715   0.690   2.486
 4744TIP3    H114196   6.727   0.681   2.392
 4744TIP3    H214197   6.625   0.719   2.496
 4745TIP3   OH214198   0.141   3.619   0.431
 4745TIP3    H114199   0.189   3.609   0.348
 4745TIP3    H214200   0.131   3.713   0.442
 4746TIP3   OH214201   2.121   6.087   3.848
 4746TIP3    H114202   2.072   6.008   3.828
 4746TIP3    H214203   2.192   6.088   3.784
 4747TIP3   OH214204   1.586   3.222   5.153
 4747TIP3    H114205   1.585   3.316   5.137
 4747TIP3    H214206   1.519   3.186   5.094
 4748TIP3   OH214207   3.633   5.742   5.337
 4748TIP3    H114208   3.538   5.732   5.333
 4748TIP3    H214209   3.653   5.745   5.430
 4749TIP3   OH214210   2.555   4.413   3.137
 4749TIP3    H114211   2.635   4.445   3.095
 4749TIP3    H214212   2.543   4.325   3.101
 4750TIP3   OH214213   6.794   0.948   3.085
 4750TIP3    H114214   6.811   1.021   3.025
 4750TIP3    H214215   6.806   0.986   3.173
 4751TIP3   OH214216   7.082   2.322   3.853
 4751TIP3    H114217   7.175   2.336   3.833
 4751TIP3    H214218   7.054   2.403   3.896
 4752TIP3   OH214219   2.072   2.301   1.464
 4752TIP3    H114220   2.009   2.328   1.398
 4752TIP3    H214221   2.031   2.227   1.509
 4753TIP3   OH214222   6.971   4.952   4.648
 4753TIP3    H114223   7.009   4.961   4.735
 4753TIP3    H214224   6.935   5.039   4.628
 4754TIP3   OH214225   4.096   5.894   5.600
 4754TIP3    H114226   4.124   5.865   5.686
 4754TIP3    H214227   4.029   5.831   5.574
 4755TIP3   OH214228   0.600   3.465   5.464
 4755TIP3    H114229   0.540   3.419   5.523
 4755TIP3    H214230   0.686   3.429   5.484
 4756TIP3   OH214231   0.370   4.427   2.642
 4756TIP3    H114232   0.460   4.408   2.668
 4756TIP3    H214233   0.351   4.512   2.681
 4757TIP3   OH214234   0.043   2.137   3.189
 4757TIP3    H114235   0.037   2.061   3.131
 4757TIP3    H214236  -0.022   2.120   3.257
 4758TIP3   OH214237   0.209   2.515   5.569
 4758TIP3    H114238   0.227   2.464   5.490
 4758TIP3    H214239   0.295   2.533   5.606
 4759TIP3   OH214240   5.817   4.313   4.596
 4759TIP3    H114241   5.745   4.251   4.583
 4759TIP3    H214242   5.833   4.312   4.690
 4760TIP3   OH214243   7.109   4.333   2.530
 4760TIP3    H114244   7.198   4.357   2.506
 4760TIP3    H214245   7.114   4.239   2.550
 4761TIP3   OH214246   2.972   4.218   1.946
 4761TIP3    H114247   2.907   4.270   1.899
 4761TIP3    H214248   2.921   4.172   2.013
 4762TIP3   OH214249   1.305   4.979   0.424
 4762TIP3    H114250   1.263   4.944   0.503
 4762TIP3    H214251   1.396   4.953   0.431
 4763TIP3   OH214252   3.765   4.485   2.074
 4763TIP3    H114253   3.770   4.428   2.150
 4763TIP3    H214254   3.848   4.471   2.028
 4764TIP3   OH214255   5.312   4.362   2.546
 4764TIP3    H114256   5.230   4.315   2.532
 4764TIP3    H214257   5.378   4.308   2.503
 4765TIP3   OH214258   6.777   5.195   1.147
 4765TIP3    H114259   6.859   5.149   1.169
 4765TIP3    H214260   6.786   5.214   1.053
 4766TIP3   OH214261   3.869   4.294   2.254
 4766TIP3    H114262   3.943   4.236   2.268
 4766TIP3    H214263   3.831   4.305   2.342
 4767TIP3   OH214264   6.585   1.865   1.278
 4767TIP3    H114265   6.543   1.941   1.319
 4767TIP3    H214266   6.521   1.794   1.288
 4768TIP3   OH214267   4.301   2.841   3.659
 4768TIP3    H114268   4.380   2.860   3.609
 4768TIP3    H214269   4.333   2.808   3.743
 4769TIP3   OH214270   5.298   0.453   0.652
 4769TIP3    H114271   5.281   0.535   0.699
 4769TIP3    H214272   5.394   0.448   0.649
 4770TIP3   OH214273   4.161   2.923   4.449
 4770TIP3    H114274   4.104   2.952   4.378
 4770TIP3    H214275   4.159   2.995   4.512
 4771TIP3   OH214276   2.825   1.722   4.299
 4771TIP3    H114277   2.900   1.709   4.357
 4771TIP3    H214278   2.808   1.816   4.302
 4772TIP3   OH214279   7.098   2.742   1.719
 4772TIP3    H114280   7.177   2.694   1.691
 4772TIP3    H214281   7.026   2.695   1.678
 4773TIP3   OH214282   1.006   2.342   1.160
 4773TIP3    H114283   1.085   2.289   1.170
 4773TIP3    H214284   0.973   2.352   1.250
 4774TIP3   OH214285   2.387   5.928   0.655
 4774TIP3    H114286   2.385   5.998   0.589
 4774TIP3    H214287   2.294   5.911   0.673
 4775TIP3   OH214288   6.404   3.471   2.565
 4775TIP3    H114289   6.385   3.387   2.523
 4775TIP3    H214290   6.498   3.469   2.583
 4776TIP3   OH214291   1.626   5.320   3.633
 4776TIP3    H114292   1.548   5.360   3.595
 4776TIP3    H214293   1.699   5.373   3.600
 4777TIP3   OH214294   3.175   3.872   0.574
 4777TIP3    H114295   3.085   3.890   0.599
 4777TIP3    H214296   3.228   3.934   0.625
 4778TIP3   OH214297   1.891   4.253   2.831
 4778TIP3    H114298   1.957   4.230   2.766
 4778TIP3    H214299   1.847   4.330   2.795
 4779TIP3   OH214300   5.173   5.467   1.525
 4779TIP3    H114301   5.128   5.411   1.462
 4779TIP3    H214302   5.172   5.554   1.485
 4780TIP3   OH214303   6.958   3.611   1.049
 4780TIP3    H114304   6.946   3.618   1.144
 4780TIP3    H214305   6.952   3.517   1.032
 4781TIP3   OH214306   5.316   1.120   0.163
 4781TIP3    H114307   5.296   1.086   0.076
 4781TIP3    H214308   5.231   1.138   0.202
 4782TIP3   OH214309   7.172   0.266   5.326
 4782TIP3    H114310   7.082   0.238   5.311
 4782TIP3    H214311   7.190   0.329   5.256
 4783TIP3   OH214312   0.840   6.636   4.525
 4783TIP3    H114313   0.914   6.579   4.545
 4783TIP3    H214314   0.783   6.630   4.602
 4784TIP3   OH214315   0.099   1.996   2.383
 4784TIP3    H114316   0.090   2.055   2.458
 4784TIP3    H214317   0.106   1.908   2.422
 4785TIP3   OH214318   4.493   6.697   5.491
 4785TIP3    H114319   4.410   6.662   5.523
 4785TIP3    H214320   4.517   6.640   5.418
 4786TIP3   OH214321   6.532   3.078   4.035
 4786TIP3    H114322   6.490   3.040   3.957
 4786TIP3    H214323   6.562   3.164   4.006
 4787TIP3   OH214324   5.574   3.833   1.207
 4787TIP3    H114325   5.616   3.753   1.239
 4787TIP3    H214326   5.645   3.897   1.201
 4788TIP3   OH214327   4.000   1.970   0.528
 4788TIP3    H114328   4.088   2.007   0.525
 4788TIP3    H214329   3.994   1.918   0.447
 4789TIP3   OH214330   0.314   4.597   4.017
 4789TIP3    H114331   0.359   4.678   3.996
 4789TIP3    H214332   0.239   4.624   4.071
 4790TIP3   OH214333   3.385   2.678   2.552
 4790TIP3    H114334   3.297   2.671   2.514
 4790TIP3    H214335   3.372   2.721   2.636
 4791TIP3   OH214336   1.834   2.627   5.479
 4791TIP3    H114337   1.917   2.589   5.448
 4791TIP3    H214338   1.858   2.673   5.560
 4792TIP3   OH214339   1.062   0.714   3.875
 4792TIP3    H114340   1.077   0.685   3.784
 4792TIP3    H214341   1.028   0.803   3.866
 4793TIP3   OH214342   4.334   5.309   5.280
 4793TIP3    H114343   4.351   5.356   5.199
 4793TIP3    H214344   4.373   5.363   5.348
 4794TIP3   OH214345   3.986   1.113   3.007
 4794TIP3    H114346   3.942   1.036   2.970
 4794TIP3    H214347   3.928   1.186   2.983
 4795TIP3   OH214348   6.996   5.631   3.754
 4795TIP3    H114349   6.973   5.579   3.677
 4795TIP3    H214350   7.089   5.616   3.767
 4796TIP3   OH214351   4.300   4.744   0.521
 4796TIP3    H114352   4.291   4.696   0.438
 4796TIP3    H214353   4.380   4.709   0.560
 4797TIP3   OH214354   6.475   6.785   1.115
 4797TIP3    H114355   6.555   6.771   1.167
 4797TIP3    H214356   6.403   6.768   1.176
 4798TIP3   OH214357   0.743   3.889   0.348
 4798TIP3    H114358   0.728   3.831   0.273
 4798TIP3    H214359   0.758   3.975   0.309
 4799TIP3   OH214360   0.506   3.870   2.089
 4799TIP3    H114361   0.499   3.784   2.130
 4799TIP3    H214362   0.426   3.916   2.116
 4800TIP3   OH214363   4.795   5.980   1.785
 4800TIP3    H114364   4.794   5.983   1.690
 4800TIP3    H214365   4.728   6.042   1.812
 4801TIP3   OH214366   5.809   2.375   1.441
 4801TIP3    H114367   5.859   2.456   1.452
 4801TIP3    H214368   5.719   2.400   1.461
 4802TIP3   OH214369   5.028   0.129   3.474
 4802TIP3    H114370   5.064   0.145   3.387
 4802TIP3    H214371   4.978   0.048   3.465
 4803TIP3   OH214372   3.396   4.919   2.659
 4803TIP3    H114373   3.354   4.903   2.744
 4803TIP3    H214374   3.429   4.833   2.632
 4804TIP3   OH214375   3.862   2.921   5.027
 4804TIP3    H114376   3.782   2.963   5.059
 4804TIP3    H214377   3.833   2.866   4.954
 4805TIP3   OH214378   2.669   2.369   2.739
 4805TIP3    H114379   2.620   2.434   2.790
 4805TIP3    H214380   2.606   2.335   2.676
 4806TIP3   OH214381   1.652   0.304   0.472
 4806TIP3    H114382   1.737   0.313   0.429
 4806TIP3    H214383   1.639   0.386   0.519
 4807TIP3   OH214384   0.947   1.969   3.021
 4807TIP3    H114385   0.927   2.000   2.933
 4807TIP3    H214386   0.955   1.874   3.012
 4808TIP3   OH214387   5.540   0.972   0.813
 4808TIP3    H114388   5.583   0.914   0.751
 4808TIP3    H214389   5.528   0.919   0.892
 4809TIP3   OH214390   1.840   0.768   1.564
 4809TIP3    H114391   1.924   0.725   1.548
 4809TIP3    H214392   1.801   0.778   1.477
 4810TIP3   OH214393   1.760   2.358   5.825
 4810TIP3    H114394   1.723   2.304   5.895
 4810TIP3    H214395   1.715   2.327   5.746
 4811TIP3   OH214396   0.012   1.749   1.731
 4811TIP3    H114397  -0.048   1.792   1.671
 4811TIP3    H214398   0.098   1.786   1.711
 4812TIP3   OH214399   2.936   6.280   3.551
 4812TIP3    H114400   3.026   6.296   3.521
 4812TIP3    H214401   2.881   6.320   3.483
 4813TIP3   OH214402   5.978   1.778   5.487
 4813TIP3    H114403   6.002   1.831   5.411
 4813TIP3    H214404   5.907   1.722   5.455
 4814TIP3   OH214405   2.021   5.820   3.789
 4814TIP3    H114406   2.107   5.778   3.781
 4814TIP3    H214407   1.989   5.793   3.874
 4815TIP3   OH214408   5.629   1.228   2.196
 4815TIP3    H114409   5.652   1.158   2.136
 4815TIP3    H214410   5.630   1.307   2.142
 4816TIP3   OH214411   0.097   6.704   0.493
 4816TIP3    H114412   0.186   6.709   0.456
 4816TIP3    H214413   0.084   6.789   0.534
 4817TIP3   OH214414   2.069   1.170   0.581
 4817TIP3    H114415   2.035   1.192   0.494
 4817TIP3    H214416   2.111   1.251   0.612
 4818TIP3   OH214417   6.345   0.266   3.498
 4818TIP3    H114418   6.386   0.273   3.584
 4818TIP3    H214419   6.368   0.178   3.467
 4819TIP3   OH214420   4.133   4.555   1.014
 4819TIP3    H114421   4.224   4.574   1.036
 4819TIP3    H214422   4.087   4.638   1.029
 4820TIP3   OH214423   3.852   0.472   0.123
 4820TIP3    H114424   3.921   0.453   0.059
 4820TIP3    H214425   3.786   0.520   0.073
 4821TIP3   OH214426   3.578   2.719   5.498
 4821TIP3    H114427   3.547   2.676   5.418
 4821TIP3    H214428   3.570   2.652   5.565
 4822TIP3   OH214429   4.829   2.465   1.910
 4822TIP3    H114430   4.871   2.381   1.927
 4822TIP3    H214431   4.899   2.520   1.875
 4823TIP3   OH214432   6.051   3.660   0.139
 4823TIP3    H114433   6.029   3.722   0.208
 4823TIP3    H214434   5.970   3.650   0.089
 4824TIP3   OH214435   0.554   6.226   5.385
 4824TIP3    H114436   0.503   6.305   5.405
 4824TIP3    H214437   0.641   6.259   5.362
 4825TIP3   OH214438   0.126   1.479   3.282
 4825TIP3    H114439   0.054   1.430   3.321
 4825TIP3    H214440   0.083   1.549   3.232
 4826TIP3   OH214441   6.546   5.679   4.213
 4826TIP3    H114442   6.634   5.696   4.180
 4826TIP3    H214443   6.559   5.612   4.281
 4827TIP3   OH214444   2.815   2.887   5.551
 4827TIP3    H114445   2.735   2.923   5.510
 4827TIP3    H214446   2.858   2.963   5.590
 4828TIP3   OH214447   1.955   5.293   3.936
 4828TIP3    H114448   2.043   5.265   3.962
 4828TIP3    H214449   1.963   5.388   3.923
 4829TIP3   OH214450   2.802   4.775   4.395
 4829TIP3    H114451   2.763   4.691   4.418
 4829TIP3    H214452   2.737   4.840   4.422
 4830TIP3   OH214453   0.043   2.033   3.534
 4830TIP3    H114454   0.134   2.041   3.506
 4830TIP3    H214455   0.003   2.116   3.508
 4831TIP3   OH214456   3.843   3.991   4.143
 4831TIP3    H114457   3.883   3.950   4.220
 4831TIP3    H214458   3.839   4.084   4.165
 4832TIP3   OH214459   6.305   1.949   1.028
 4832TIP3    H114460   6.222   1.984   1.062
 4832TIP3    H214461   6.333   2.013   0.963
 4833TIP3   OH214462   2.135   5.731   5.413
 4833TIP3    H114463   2.187   5.770   5.343
 4833TIP3    H214464   2.059   5.789   5.422
 4834TIP3   OH214465   5.483   0.690   0.738
 4834TIP3    H114466   5.391   0.706   0.760
 4834TIP3    H214467   5.508   0.616   0.793
 4835TIP3   OH214468   4.250   5.212   0.905
 4835TIP3    H114469   4.324   5.153   0.917
 4835TIP3    H214470   4.290   5.298   0.891
 4836TIP3   OH214471   6.703   1.855   0.447
 4836TIP3    H114472   6.705   1.760   0.452
 4836TIP3    H214473   6.784   1.884   0.488
 4837TIP3   OH214474   1.969   4.309   1.340
 4837TIP3    H114475   2.019   4.235   1.306
 4837TIP3    H214476   1.941   4.357   1.263
 4838TIP3   OH214477   1.044   3.993   3.120
 4838TIP3    H114478   0.977   4.032   3.176
 4838TIP3    H214479   1.125   4.037   3.146
 4839TIP3   OH214480   2.007   0.923   4.589
 4839TIP3    H114481   1.924   0.878   4.573
 4839TIP3    H214482   1.983   1.013   4.609
 4840TIP3   OH214483   2.758   2.187   4.085
 4840TIP3    H114484   2.715   2.173   4.001
 4840TIP3    H214485   2.746   2.105   4.132
 4841TIP3   OH214486   2.004   6.149   2.135
 4841TIP3    H114487   1.922   6.130   2.181
 4841TIP3    H214488   1.994   6.106   2.049
 4842TIP3   OH214489   6.161   5.346   5.218
 4842TIP3    H114490   6.069   5.326   5.236
 4842TIP3    H214491   6.159   5.436   5.184
 4843TIP3   OH214492   2.643   3.754   1.729
 4843TIP3    H114493   2.556   3.727   1.758
 4843TIP3    H214494   2.678   3.677   1.683
 4844TIP3   OH214495   1.607   4.804   0.758
 4844TIP3    H114496   1.633   4.726   0.708
 4844TIP3    H214497   1.689   4.845   0.783
 4845TIP3   OH214498   0.697   6.001   3.224
 4845TIP3    H114499   0.703   5.922   3.277
 4845TIP3    H214500   0.750   5.983   3.147
 4846TIP3   OH214501   2.352   0.802   0.890
 4846TIP3    H114502   2.349   0.772   0.799
 4846TIP3    H214503   2.445   0.803   0.912
 4847TIP3   OH214504   4.237   4.935   0.170
 4847TIP3    H114505   4.237   4.991   0.092
 4847TIP3    H214506   4.323   4.892   0.168
 4848TIP3   OH214507   5.781   0.790   0.333
 4848TIP3    H114508   5.768   0.807   0.426
 4848TIP3    H214509   5.693   0.772   0.299
 4849TIP3   OH214510   6.231   2.427   2.022
 4849TIP3    H114511   6.228   2.360   1.954
 4849TIP3    H214512   6.221   2.378   2.104
 4850TIP3   OH214513   0.670   5.619   1.786
 4850TIP3    H114514   0.742   5.579   1.833
 4850TIP3    H214515   0.628   5.676   1.851
 4851TIP3   OH214516   2.206   4.377   1.819
 4851TIP3    H114517   2.202   4.366   1.724
 4851TIP3    H214518   2.284   4.430   1.834
 4852TIP3   OH214519   2.247   0.046   4.221
 4852TIP3    H114520   2.198   0.093   4.154
 4852TIP3    H214521   2.221  -0.046   4.209
 4853TIP3   OH214522   4.997   5.273   4.803
 4853TIP3    H114523   5.030   5.306   4.887
 4853TIP3    H214524   5.075   5.267   4.748
 4854TIP3   OH214525   5.836   0.519   5.443
 4854TIP3    H114526   5.899   0.553   5.380
 4854TIP3    H214527   5.862   0.560   5.526
 4855TIP3   OH214528   7.055   0.983   2.148
 4855TIP3    H114529   7.141   1.000   2.187
 4855TIP3    H214530   7.059   0.890   2.123
 4856TIP3   OH214531   6.632   6.264   4.769
 4856TIP3    H114532   6.723   6.275   4.798
 4856TIP3    H214533   6.635   6.194   4.705
 4857TIP3   OH214534   2.649   3.219   1.604
 4857TIP3    H114535   2.568   3.218   1.553
 4857TIP3    H214536   2.718   3.233   1.540
 4858TIP3   OH214537   0.569   1.831   4.129
 4858TIP3    H114538   0.655   1.859   4.099
 4858TIP3    H214539   0.519   1.815   4.049
 4859TIP3   OH214540   6.226   2.512   2.909
 4859TIP3    H114541   6.266   2.444   2.855
 4859TIP3    H214542   6.224   2.589   2.852
 4860TIP3   OH214543   2.434   6.103   4.403
 4860TIP3    H114544   2.427   6.015   4.440
 4860TIP3    H214545   2.345   6.137   4.405
 4861TIP3   OH214546   2.109   4.616   4.382
 4861TIP3    H114547   2.147   4.529   4.367
 4861TIP3    H214548   2.109   4.626   4.477
 4862TIP3   OH214549   1.428   6.081   2.279
 4862TIP3    H114550   1.414   6.157   2.336
 4862TIP3    H214551   1.343   6.065   2.239
 4863TIP3   OH214552   4.934   1.362   1.270
 4863TIP3    H114553   4.852   1.321   1.244
 4863TIP3    H214554   4.999   1.292   1.263
 4864TIP3   OH214555   3.355   5.071   0.225
 4864TIP3    H114556   3.427   5.115   0.180
 4864TIP3    H214557   3.310   5.024   0.155
 4865TIP3   OH214558   0.553   4.201   2.749
 4865TIP3    H114559   0.472   4.152   2.739
 4865TIP3    H214560   0.533   4.267   2.816
 4866TIP3   OH214561   4.243   2.682   4.398
 4866TIP3    H114562   4.187   2.656   4.325
 4866TIP3    H214563   4.222   2.775   4.412
 4867TIP3   OH214564   1.873   3.278   1.621
 4867TIP3    H114565   1.797   3.318   1.663
 4867TIP3    H214566   1.845   3.260   1.532
 4868TIP3   OH214567   3.147   0.959   0.372
 4868TIP3    H114568   3.083   1.025   0.400
 4868TIP3    H214569   3.116   0.931   0.285
 4869TIP3   OH214570   2.549   4.783   3.388
 4869TIP3    H114571   2.577   4.821   3.305
 4869TIP3    H214572   2.574   4.848   3.454
 4870TIP3   OH214573   3.557   3.235   5.814
 4870TIP3    H114574   3.602   3.245   5.898
 4870TIP3    H214575   3.626   3.216   5.751
 4871TIP3   OH214576   1.535   5.171   2.348
 4871TIP3    H114577   1.549   5.076   2.342
 4871TIP3    H214578   1.533   5.201   2.257
 4872TIP3   OH214579   1.749   4.237   5.596
 4872TIP3    H114580   1.808   4.250   5.670
 4872TIP3    H214581   1.699   4.319   5.590
 4873TIP3   OH214582   5.536   6.748   4.348
 4873TIP3    H114583   5.578   6.832   4.329
 4873TIP3    H214584   5.467   6.740   4.283
 4874TIP3   OH214585   2.112   2.047   5.816
 4874TIP3    H114586   2.065   2.105   5.875
 4874TIP3    H214587   2.131   1.969   5.869
 4875TIP3   OH214588   3.675   6.683   3.650
 4875TIP3    H114589   3.584   6.693   3.623
 4875TIP3    H214590   3.674   6.695   3.745
 4876TIP3   OH214591   3.180   2.190   3.084
 4876TIP3    H114592   3.189   2.250   3.010
 4876TIP3    H214593   3.129   2.117   3.048
 4877TIP3   OH214594   1.884   4.915   4.731
 4877TIP3    H114595   1.821   4.848   4.756
 4877TIP3    H214596   1.857   4.942   4.643
 4878TIP3   OH214597   0.398   5.889   2.447
 4878TIP3    H114598   0.311   5.913   2.416
 4878TIP3    H214599   0.443   5.973   2.460
 4879TIP3   OH214600   6.657   5.446   0.940
 4879TIP3    H114601   6.567   5.423   0.964
 4879TIP3    H214602   6.685   5.377   0.880
 4880TIP3   OH214603   2.237   4.915   0.408
 4880TIP3    H114604   2.325   4.945   0.431
 4880TIP3    H214605   2.243   4.888   0.317
 4881TIP3   OH214606   5.903   4.848   3.493
 4881TIP3    H114607   5.961   4.906   3.542
 4881TIP3    H214608   5.936   4.760   3.511
 4882TIP3   OH214609   3.748   0.637   0.339
 4882TIP3    H114610   3.711   0.725   0.333
 4882TIP3    H214611   3.792   0.623   0.254
 4883TIP3   OH214612   4.364   6.084   1.804
 4883TIP3    H114613   4.396   6.038   1.881
 4883TIP3    H214614   4.286   6.131   1.835
 4884TIP3   OH214615   0.248   6.475   3.533
 4884TIP3    H114616   0.267   6.506   3.621
 4884TIP3    H214617   0.271   6.382   3.535
 4885TIP3   OH214618   3.244   5.675   5.616
 4885TIP3    H114619   3.169   5.735   5.611
 4885TIP3    H214620   3.207   5.593   5.650
 4886TIP3   OH214621   6.235   1.663   3.704
 4886TIP3    H114622   6.262   1.754   3.710
 4886TIP3    H214623   6.290   1.625   3.636
 4887TIP3   OH214624   3.098   2.304   0.680
 4887TIP3    H114625   3.134   2.293   0.593
 4887TIP3    H214626   3.161   2.261   0.738
 4888TIP3   OH214627   3.046   2.064   4.518
 4888TIP3    H114628   3.049   2.131   4.587
 4888TIP3    H214629   3.138   2.040   4.503
 4889TIP3   OH214630   0.009   5.474   3.671
 4889TIP3    H114631  -0.017   5.415   3.741
 4889TIP3    H214632   0.059   5.419   3.610
 4890TIP3   OH214633   6.658   6.769   0.678
 4890TIP3    H114634   6.674   6.857   0.644
 4890TIP3    H214635   6.636   6.783   0.771
 4891TIP3   OH214636   5.012   5.104   5.424
 4891TIP3    H114637   4.987   5.021   5.465
 4891TIP3    H214638   5.014   5.166   5.497
 4892TIP3   OH214639   4.695   1.915   0.507
 4892TIP3    H114640   4.752   1.987   0.535
 4892TIP3    H214641   4.669   1.939   0.418
 4893TIP3   OH214642   2.211   0.998   3.777
 4893TIP3    H114643   2.251   1.021   3.861
 4893TIP3    H214644   2.159   0.920   3.796
 4894TIP3   OH214645   5.124   3.504   2.354
 4894TIP3    H114646   5.068   3.571   2.314
 4894TIP3    H214647   5.136   3.439   2.286
 4895TIP3   OH214648   3.380   4.217   4.938
 4895TIP3    H114649   3.297   4.172   4.956
 4895TIP3    H214650   3.397   4.200   4.846
 4896TIP3   OH214651   3.520   0.619   2.113
 4896TIP3    H114652   3.572   0.690   2.075
 4896TIP3    H214653   3.573   0.541   2.100
 4897TIP3   OH214654   4.904   5.671   5.363
 4897TIP3    H114655   4.905   5.638   5.453
 4897TIP3    H214656   4.959   5.750   5.366
 4898TIP3   OH214657   6.946   5.203   5.150
 4898TIP3    H114658   6.898   5.173   5.227
 4898TIP3    H214659   7.000   5.276   5.181
 4899TIP3   OH214660   2.232   5.004   4.373
 4899TIP3    H114661   2.227   5.035   4.464
 4899TIP3    H214662   2.282   5.071   4.328
 4900TIP3   OH214663   3.792   3.793   5.159
 4900TIP3    H114664   3.857   3.725   5.177
 4900TIP3    H214665   3.728   3.785   5.229
 4901TIP3   OH214666   3.823   6.426   3.682
 4901TIP3    H114667   3.805   6.437   3.589
 4901TIP3    H214668   3.753   6.474   3.726
 4902TIP3   OH214669   6.061   6.307   3.792
 4902TIP3    H114670   6.021   6.243   3.732
 4902TIP3    H214671   6.117   6.254   3.848
 4903TIP3   OH214672   6.002   5.627   3.533
 4903TIP3    H114673   5.934   5.694   3.527
 4903TIP3    H214674   6.051   5.649   3.613
 4904TIP3   OH214675   6.782   1.171   0.402
 4904TIP3    H114676   6.712   1.236   0.404
 4904TIP3    H214677   6.752   1.104   0.340
 4905TIP3   OH214678   0.408   5.137   2.931
 4905TIP3    H114679   0.439   5.046   2.933
 4905TIP3    H214680   0.315   5.130   2.908
 4906TIP3   OH214681   6.467   4.088   0.037
 4906TIP3    H114682   6.526   4.048  -0.026
 4906TIP3    H214683   6.491   4.180   0.038
 4907TIP3   OH214684   1.075   5.146   1.810
 4907TIP3    H114685   1.164   5.176   1.795
 4907TIP3    H214686   1.033   5.154   1.724
 4908TIP3   OH214687   1.518   1.179   5.331
 4908TIP3    H114688   1.572   1.113   5.376
 4908TIP3    H214689   1.445   1.129   5.295
 4909TIP3   OH214690   2.652   5.307   0.917
 4909TIP3    H114691   2.652   5.232   0.858
 4909TIP3    H214692   2.688   5.272   0.999
 4910TIP3   OH214693   1.878   5.216   1.245
 4910TIP3    H114694   1.855   5.123   1.242
 4910TIP3    H214695   1.871   5.245   1.154
 4911TIP3   OH214696   0.903   4.634   4.038
 4911TIP3    H114697   0.929   4.543   4.047
 4911TIP3    H214698   0.964   4.682   4.093
 4912TIP3   OH214699   2.523   1.248   3.104
 4912TIP3    H114700   2.579   1.307   3.155
 4912TIP3    H214701   2.441   1.245   3.153
 4913TIP3   OH214702   0.266   1.587   0.644
 4913TIP3    H114703   0.173   1.587   0.668
 4913TIP3    H214704   0.267   1.611   0.551
 4914TIP3   OH214705   5.705   4.200   0.692
 4914TIP3    H114706   5.613   4.215   0.672
 4914TIP3    H214707   5.742   4.289   0.701
 4915TIP3   OH214708   0.704   6.459   3.806
 4915TIP3    H114709   0.771   6.471   3.874
 4915TIP3    H214710   0.663   6.546   3.798
 4916TIP3   OH214711   4.420   0.139   2.339
 4916TIP3    H114712   4.435   0.060   2.286
 4916TIP3    H214713   4.507   0.178   2.348
 4917TIP3   OH214714   4.024   2.668   1.712
 4917TIP3    H114715   3.984   2.751   1.738
 4917TIP3    H214716   4.101   2.693   1.661
 4918TIP3   OH214717   1.163   6.351   2.626
 4918TIP3    H114718   1.119   6.326   2.707
 4918TIP3    H214719   1.233   6.411   2.653
 4919TIP3   OH214720   1.998   2.398   0.983
 4919TIP3    H114721   1.992   2.317   0.932
 4919TIP3    H214722   1.978   2.467   0.920
 4920TIP3   OH214723   2.223   1.754   3.181
 4920TIP3    H114724   2.177   1.837   3.182
 4920TIP3    H214725   2.213   1.719   3.269
 4921TIP3   OH214726   6.224   1.249   1.137
 4921TIP3    H114727   6.171   1.328   1.121
 4921TIP3    H214728   6.268   1.266   1.220
 4922TIP3   OH214729   4.293   0.939   1.787
 4922TIP3    H114730   4.359   0.905   1.727
 4922TIP3    H214731   4.239   0.996   1.732
 4923TIP3   OH214732   0.260   2.255   1.485
 4923TIP3    H114733   0.325   2.256   1.555
 4923TIP3    H214734   0.182   2.216   1.525
 4924TIP3   OH214735   5.570   4.931   0.663
 4924TIP3    H114736   5.553   4.838   0.651
 4924TIP3    H214737   5.517   4.957   0.738
 4925TIP3   OH214738   6.452   1.529   5.243
 4925TIP3    H114739   6.443   1.479   5.163
 4925TIP3    H214740   6.362   1.548   5.270
 4926TIP3   OH214741   1.879   1.114   4.734
 4926TIP3    H114742   1.786   1.102   4.751
 4926TIP3    H214743   1.893   1.208   4.740
 4927TIP3   OH214744   4.454   6.214   0.835
 4927TIP3    H114745   4.455   6.183   0.926
 4927TIP3    H214746   4.542   6.249   0.821
 4928TIP3   OH214747   6.035   2.229   5.806
 4928TIP3    H114748   6.094   2.304   5.816
 4928TIP3    H214749   6.031   2.215   5.711
 4929TIP3   OH214750   0.993   3.506   2.066
 4929TIP3    H114751   0.999   3.565   2.141
 4929TIP3    H214752   0.979   3.564   1.991
 4930TIP3   OH214753   3.170   3.443   2.742
 4930TIP3    H114754   3.179   3.536   2.763
 4930TIP3    H214755   3.258   3.407   2.752
 4931TIP3   OH214756   5.965   1.672   5.050
 4931TIP3    H114757   5.975   1.762   5.082
 4931TIP3    H214758   5.879   1.644   5.082
 4932TIP3   OH214759   7.112   1.486   5.194
 4932TIP3    H114760   7.061   1.539   5.133
 4932TIP3    H214761   7.137   1.408   5.144
 4933TIP3   OH214762   5.580   0.557   5.085
 4933TIP3    H114763   5.628   0.477   5.066
 4933TIP3    H214764   5.499   0.550   5.034
 4934TIP3   OH214765   2.311   4.724   4.023
 4934TIP3    H114766   2.244   4.791   4.014
 4934TIP3    H214767   2.266   4.642   4.005
 4935TIP3   OH214768   5.494   4.393   3.032
 4935TIP3    H114769   5.438   4.451   3.084
 4935TIP3    H214770   5.541   4.341   3.098
 4936TIP3   OH214771   3.849   5.810   4.005
 4936TIP3    H114772   3.769   5.802   3.954
 4936TIP3    H214773   3.864   5.722   4.040
 4937TIP3   OH214774   3.116   3.514   2.340
 4937TIP3    H114775   3.070   3.430   2.332
 4937TIP3    H214776   3.191   3.495   2.397
 4938TIP3   OH214777   6.690   6.407   0.829
 4938TIP3    H114778   6.700   6.457   0.747
 4938TIP3    H214779   6.665   6.319   0.800
 4939TIP3   OH214780   1.487   0.899   4.934
 4939TIP3    H114781   1.504   0.945   5.017
 4939TIP3    H214782   1.536   0.817   4.942
 4940TIP3   OH214783   5.318   5.915   1.633
 4940TIP3    H114784   5.299   6.001   1.595
 4940TIP3    H214785   5.414   5.912   1.641
 4941TIP3   OH214786   0.888   3.972   5.191
 4941TIP3    H114787   0.920   3.933   5.273
 4941TIP3    H214788   0.934   4.056   5.185
 4942TIP3   OH214789   5.867   4.185   1.835
 4942TIP3    H114790   5.878   4.208   1.742
 4942TIP3    H214791   5.944   4.222   1.878
 4943TIP3   OH214792   6.547   5.596   1.791
 4943TIP3    H114793   6.585   5.585   1.704
 4943TIP3    H214794   6.568   5.515   1.837
 4944TIP3   OH214795   2.884   0.743   4.043
 4944TIP3    H114796   2.811   0.683   4.053
 4944TIP3    H214797   2.889   0.790   4.126
 4945TIP3   OH214798   0.862   2.630   2.991
 4945TIP3    H114799   0.871   2.721   2.962
 4945TIP3    H214800   0.783   2.630   3.045
 4946TIP3   OH214801   3.741   0.482   5.804
 4946TIP3    H114802   3.678   0.464   5.874
 4946TIP3    H214803   3.768   0.573   5.820
 4947TIP3   OH214804   2.722   2.343   3.274
 4947TIP3    H114805   2.720   2.299   3.189
 4947TIP3    H214806   2.651   2.303   3.323
 4948TIP3   OH214807   5.543   4.971   5.674
 4948TIP3    H114808   5.560   5.057   5.636
 4948TIP3    H214809   5.523   4.914   5.599
 4949TIP3   OH214810   6.627   1.222   0.048
 4949TIP3    H114811   6.644   1.310   0.082
 4949TIP3    H214812   6.543   1.197   0.086
 4950TIP3   OH214813   1.462   0.420   2.649
 4950TIP3    H114814   1.427   0.414   2.738
 4950TIP3    H214815   1.557   0.427   2.661
 4951TIP3   OH214816   5.589   6.746   1.545
 4951TIP3    H114817   5.678   6.730   1.579
 4951TIP3    H214818   5.532   6.734   1.620
 4952TIP3   OH214819   6.528   5.624   5.413
 4952TIP3    H114820   6.486   5.619   5.328
 4952TIP3    H214821   6.556   5.715   5.421
 4953TIP3   OH214822   1.212   1.411   2.748
 4953TIP3    H114823   1.132   1.415   2.695
 4953TIP3    H214824   1.275   1.368   2.691
 4954TIP3   OH214825   3.730   6.810   0.990
 4954TIP3    H114826   3.678   6.799   0.910
 4954TIP3    H214827   3.721   6.727   1.036
 4955TIP3   OH214828   2.369   0.161   3.256
 4955TIP3    H114829   2.366   0.128   3.346
 4955TIP3    H214830   2.320   0.243   3.259
 4956TIP3   OH214831   2.137   1.174   5.355
 4956TIP3    H114832   2.232   1.164   5.352
 4956TIP3    H214833   2.115   1.167   5.448
 4957TIP3   OH214834   2.972   0.311   3.193
 4957TIP3    H114835   2.934   0.271   3.271
 4957TIP3    H214836   3.024   0.384   3.226
 4958TIP3   OH214837   3.152   2.987   4.950
 4958TIP3    H114838   3.131   2.953   4.863
 4958TIP3    H214839   3.236   2.947   4.971
 4959TIP3   OH214840   3.417   6.213   0.175
 4959TIP3    H114841   3.423   6.139   0.236
 4959TIP3    H214842   3.361   6.181   0.104
 4960TIP3   OH214843   4.930   3.689   4.771
 4960TIP3    H114844   4.932   3.785   4.766
 4960TIP3    H214845   4.930   3.661   4.679
 4961TIP3   OH214846   5.549   3.903   2.860
 4961TIP3    H114847   5.471   3.936   2.816
 4961TIP3    H214848   5.595   3.851   2.794
 4962TIP3   OH214849   3.315   0.378   2.785
 4962TIP3    H114850   3.266   0.364   2.704
 4962TIP3    H214851   3.402   0.341   2.767
 4963TIP3   OH214852   1.540   2.880   1.143
 4963TIP3    H114853   1.599   2.806   1.127
 4963TIP3    H214854   1.498   2.896   1.059
 4964TIP3   OH214855   1.081   2.546   3.730
 4964TIP3    H114856   1.059   2.635   3.757
 4964TIP3    H214857   1.131   2.510   3.804
 4965TIP3   OH214858   6.938   2.298   0.537
 4965TIP3    H114859   6.879   2.304   0.462
 4965TIP3    H214860   6.881   2.274   0.610
 4966TIP3   OH214861   0.530   6.156   1.281
 4966TIP3    H114862   0.620   6.138   1.310
 4966TIP3    H214863   0.491   6.205   1.353
 4967TIP3   OH214864   5.953   5.927   5.032
 4967TIP3    H114865   5.937   5.905   5.124
 4967TIP3    H214866   5.942   5.844   4.986
 4968TIP3   OH214867   3.525   5.948   4.575
 4968TIP3    H114868   3.566   5.885   4.516
 4968TIP3    H214869   3.431   5.929   4.571
 4969TIP3   OH214870   4.227   2.889   0.703
 4969TIP3    H114871   4.246   2.904   0.611
 4969TIP3    H214872   4.162   2.819   0.704
 4970TIP3   OH214873   1.030   3.047   4.785
 4970TIP3    H114874   1.100   2.982   4.794
 4970TIP3    H214875   0.972   3.010   4.718
 4971TIP3   OH214876   0.021   2.481   1.304
 4971TIP3    H114877  -0.004   2.422   1.375
 4971TIP3    H214878   0.117   2.473   1.299
 4972TIP3   OH214879   3.448   4.737   0.216
 4972TIP3    H114880   3.431   4.688   0.297
 4972TIP3    H214881   3.360   4.758   0.182
 4973TIP3   OH214882   1.191   5.926   3.567
 4973TIP3    H114883   1.214   5.979   3.644
 4973TIP3    H214884   1.271   5.878   3.546
 4974TIP3   OH214885   6.664   0.488   5.064
 4974TIP3    H114886   6.570   0.504   5.075
 4974TIP3    H214887   6.686   0.530   4.981
 4975TIP3   OH214888   3.073   3.149   5.241
 4975TIP3    H114889   3.067   3.193   5.156
 4975TIP3    H214890   3.051   3.217   5.305
 4976TIP3   OH214891   1.458   1.180   5.782
 4976TIP3    H114892   1.492   1.186   5.872
 4976TIP3    H214893   1.522   1.228   5.729
 4977TIP3   OH214894   0.458   5.372   3.638
 4977TIP3    H114895   0.402   5.352   3.563
 4977TIP3    H214896   0.531   5.421   3.601
 4978TIP3   OH214897   5.362   4.887   2.724
 4978TIP3    H114898   5.324   4.851   2.804
 4978TIP3    H214899   5.429   4.948   2.754
 4979TIP3   OH214900   1.251   1.046   3.628
 4979TIP3    H114901   1.214   1.105   3.563
 4979TIP3    H214902   1.332   1.090   3.655
 4980TIP3   OH214903   3.065   5.907   5.596
 4980TIP3    H114904   2.980   5.933   5.633
 4980TIP3    H214905   3.129   5.957   5.647
 4981TIP3   OH214906   1.373   5.185   2.894
 4981TIP3    H114907   1.350   5.134   2.816
 4981TIP3    H214908   1.383   5.120   2.963
 4982TIP3   OH214909   3.192   1.013   1.184
 4982TIP3    H114910   3.111   1.048   1.219
 4982TIP3    H214911   3.190   1.036   1.091
 4983TIP3   OH214912   6.135   2.955   4.097
 4983TIP3    H114913   6.228   2.939   4.117
 4983TIP3    H214914   6.110   2.881   4.042
 4984TIP3   OH214915   6.822   4.124   5.169
 4984TIP3    H114916   6.844   4.199   5.114
 4984TIP3    H214917   6.813   4.161   5.257
 4985TIP3   OH214918   6.030   2.748   3.916
 4985TIP3    H114919   6.015   2.655   3.899
 4985TIP3    H214920   5.960   2.793   3.869
 4986TIP3   OH214921   6.932   6.207   4.883
 4986TIP3    H114922   6.933   6.286   4.937
 4986TIP3    H214923   6.947   6.238   4.794
 4987TIP3   OH214924   3.024   2.693   1.265
 4987TIP3    H114925   3.033   2.616   1.208
 4987TIP3    H214926   3.044   2.767   1.209
 4988TIP3   OH214927   4.212   3.294   4.444
 4988TIP3    H114928   4.229   3.354   4.371
 4988TIP3    H214929   4.177   3.215   4.402
 4989TIP3   OH214930   3.149   0.045   3.632
 4989TIP3    H114931   3.090  -0.023   3.601
 4989TIP3    H214932   3.178   0.091   3.553
 4990TIP3   OH214933   2.317   3.243   3.050
 4990TIP3    H114934   2.375   3.225   2.976
 4990TIP3    H214935   2.372   3.230   3.127
 4991TIP3   OH214936   4.043   4.850   1.378
 4991TIP3    H114937   4.055   4.850   1.473
 4991TIP3    H214938   3.953   4.883   1.365
 4992TIP3   OH214939   3.159   5.340   2.059
 4992TIP3    H114940   3.089   5.306   2.004
 4992TIP3    H214941   3.223   5.376   1.997
 4993TIP3   OH214942   1.639   3.338   1.786
 4993TIP3    H114943   1.587   3.414   1.762
 4993TIP3    H214944   1.575   3.273   1.814
 4994TIP3   OH214945   0.236   1.688   0.393
 4994TIP3    H114946   0.310   1.743   0.368
 4994TIP3    H214947   0.206   1.649   0.311
 4995TIP3   OH214948   2.811   2.684   5.070
 4995TIP3    H114949   2.770   2.598   5.072
 4995TIP3    H214950   2.805   2.711   4.978
 4996TIP3   OH214951   6.299   6.262   0.432
 4996TIP3    H114952   6.213   6.246   0.392
 4996TIP3    H214953   6.313   6.356   0.422
 4997TIP3   OH214954   0.376   2.087   1.249
 4997TIP3    H114955   0.309   2.130   1.301
 4997TIP3    H214956   0.332   2.064   1.167
 4998TIP3   OH214957   2.740   2.694   2.105
 4998TIP3    H114958   2.706   2.778   2.135
 4998TIP3    H214959   2.671   2.631   2.128
 4999TIP3   OH214960   3.064   3.005   2.571
 4999TIP3    H114961   3.032   3.064   2.639
 4999TIP3    H214962   3.151   3.039   2.548
 5000TIP3   OH214963   2.052   1.128   5.657
 5000TIP3    H114964   2.057   1.038   5.689
 5000TIP3    H214965   2.105   1.179   5.718
 5001TIP3   OH214966   3.450   4.513   5.432
 5001TIP3    H114967   3.544   4.499   5.436
 5001TIP3    H214968   3.412   4.425   5.435
 5002TIP3   OH214969   4.768   3.856   1.985
 5002TIP3    H114970   4.722   3.776   2.008
 5002TIP3    H214971   4.848   3.827   1.941
 5003TIP3   OH214972   0.536   1.004   0.350
 5003TIP3    H114973   0.511   1.081   0.298
 5003TIP3    H214974   0.583   1.041   0.425
 5004TIP3   OH214975   7.121   3.962   0.531
 5004TIP3    H114976   7.032   3.928   0.540
 5004TIP3    H214977   7.144   3.948   0.439
 5005TIP3   OH214978   6.846   1.894   4.095
 5005TIP3    H114979   6.908   1.907   4.167
 5005TIP3    H214980   6.846   1.978   4.048
 5006TIP3   OH214981   2.240   0.958   1.440
 5006TIP3    H114982   2.330   0.926   1.431
 5006TIP3    H214983   2.224   0.958   1.535
 5007TIP3   OH214984   5.297   2.498   2.909
 5007TIP3    H114985   5.318   2.482   3.002
 5007TIP3    H214986   5.218   2.446   2.894
 5008TIP3   OH214987   2.911   4.749   4.862
 5008TIP3    H114988   2.826   4.705   4.862
 5008TIP3    H214989   2.960   4.705   4.793
 5009TIP3   OH214990   0.735   4.208   4.398
 5009TIP3    H114991   0.802   4.210   4.466
 5009TIP3    H214992   0.711   4.300   4.385
 5010TIP3   OH214993   5.671   1.198   3.361
 5010TIP3    H114994   5.671   1.243   3.276
 5010TIP3    H214995   5.747   1.234   3.407
 5011TIP3   OH214996   2.911   5.727   0.895
 5011TIP3    H114997   2.836   5.671   0.911
 5011TIP3    H214998   2.900   5.800   0.956
 5012TIP3   OH214999   1.045   4.215   2.469
 5012TIP3    H115000   1.056   4.221   2.564
 5012TIP3    H215001   0.951   4.198   2.457
 5013TIP3   OH215002   2.863   2.888   3.178
 5013TIP3    H115003   2.882   2.977   3.206
 5013TIP3    H215004   2.850   2.840   3.260
 5014TIP3   OH215005   1.024   2.125   4.943
 5014TIP3    H115006   1.020   2.077   4.859
 5014TIP3    H215007   0.952   2.187   4.938
 5015TIP3   OH215008   2.583   0.483   5.546
 5015TIP3    H115009   2.523   0.484   5.471
 5015TIP3    H215010   2.645   0.413   5.526
 5016TIP3   OH215011   2.003   2.626   4.277
 5016TIP3    H115012   2.075   2.576   4.239
 5016TIP3    H215013   1.925   2.591   4.233
 5017TIP3   OH215014   6.243   5.695   0.848
 5017TIP3    H115015   6.339   5.689   0.848
 5017TIP3    H215016   6.216   5.668   0.761
 5018TIP3   OH215017   0.308   2.076   2.570
 5018TIP3    H115018   0.317   1.984   2.547
 5018TIP3    H215019   0.397   2.112   2.561
 5019TIP3   OH215020   6.374   5.513   3.589
 5019TIP3    H115021   6.347   5.547   3.675
 5019TIP3    H215022   6.408   5.425   3.608
 5020TIP3   OH215023   3.068   5.681   5.017
 5020TIP3    H115024   3.107   5.750   5.071
 5020TIP3    H215025   2.993   5.723   4.975
 5021TIP3   OH215026   0.490   5.337   5.217
 5021TIP3    H115027   0.555   5.267   5.222
 5021TIP3    H215028   0.540   5.415   5.193
 5022TIP3   OH215029   5.991   4.265   5.107
 5022TIP3    H115030   6.075   4.219   5.098
 5022TIP3    H215031   5.978   4.274   5.201
 5023TIP3   OH215032   6.375   3.193   1.189
 5023TIP3    H115033   6.377   3.281   1.228
 5023TIP3    H215034   6.432   3.200   1.112
 5024TIP3   OH215035   4.143   5.624   1.784
 5024TIP3    H115036   4.214   5.681   1.755
 5024TIP3    H215037   4.065   5.679   1.781
 5025TIP3   OH215038   4.763   0.100   1.159
 5025TIP3    H115039   4.729   0.088   1.070
 5025TIP3    H215040   4.684   0.109   1.213
 5026TIP3   OH215041   1.003   4.672   3.785
 5026TIP3    H115042   0.949   4.657   3.708
 5026TIP3    H215043   0.940   4.688   3.855
 5027TIP3   OH215044   2.641   0.456   5.129
 5027TIP3    H115045   2.589   0.532   5.156
 5027TIP3    H215046   2.580   0.401   5.079
 5028TIP3   OH215047   5.174   1.841   3.318
 5028TIP3    H115048   5.114   1.911   3.291
 5028TIP3    H215049   5.217   1.874   3.396
 5029TIP3   OH215050   0.018   4.984   5.608
 5029TIP3    H115051  -0.017   5.045   5.674
 5029TIP3    H215052   0.007   4.898   5.648
 5030TIP3   OH215053   5.637   0.320   2.987
 5030TIP3    H115054   5.688   0.366   2.920
 5030TIP3    H215055   5.681   0.235   2.996
 5031TIP3   OH215056   1.086   3.732   3.240
 5031TIP3    H115057   1.085   3.824   3.214
 5031TIP3    H215058   1.114   3.685   3.162
 5032TIP3   OH215059   4.666   1.849   4.053
 5032TIP3    H115060   4.597   1.788   4.082
 5032TIP3    H215061   4.627   1.896   3.980
 5033TIP3   OH215062   6.055   6.030   1.690
 5033TIP3    H115063   6.062   6.103   1.752
 5033TIP3    H215064   6.134   6.037   1.636
 5034TIP3   OH215065   0.782   6.772   2.944
 5034TIP3    H115066   0.793   6.853   2.993
 5034TIP3    H215067   0.826   6.787   2.861
 5035TIP3   OH215068   5.874   6.532   5.372
 5035TIP3    H115069   5.891   6.606   5.314
 5035TIP3    H215070   5.845   6.572   5.454
 5036TIP3   OH215071   2.292   2.328   2.432
 5036TIP3    H115072   2.206   2.361   2.457
 5036TIP3    H215073   2.322   2.388   2.363
 5037TIP3   OH215074   5.880   2.397   1.832
 5037TIP3    H115075   5.916   2.345   1.760
 5037TIP3    H215076   5.787   2.406   1.810
 5038TIP3   OH215077   1.394   0.587   5.381
 5038TIP3    H115078   1.364   0.501   5.408
 5038TIP3    H215079   1.419   0.577   5.289
 5039TIP3   OH215080   6.210   4.393   3.762
 5039TIP3    H115081   6.120   4.389   3.795
 5039TIP3    H215082   6.200   4.407   3.668
 5040TIP3   OH215083   7.193   4.198   0.196
 5040TIP3    H115084   7.144   4.237   0.269
 5040TIP3    H215085   7.282   4.232   0.206
 5041TIP3   OH215086   0.117   2.693   3.737
 5041TIP3    H115087   0.036   2.733   3.769
 5041TIP3    H215088   0.171   2.684   3.816
 5042TIP3   OH215089   5.506   1.110   1.033
 5042TIP3    H115090   5.414   1.087   1.028
 5042TIP3    H215091   5.540   1.093   0.946
 5043TIP3   OH215092   0.142   4.380   2.497
 5043TIP3    H115093   0.150   4.475   2.511
 5043TIP3    H215094   0.230   4.346   2.515
 5044TIP3   OH215095   5.105   5.879   3.711
 5044TIP3    H115096   5.132   5.816   3.643
 5044TIP3    H215097   5.099   5.963   3.665
 5045TIP3   OH215098   3.108   0.844   0.654
 5045TIP3    H115099   3.028   0.862   0.703
 5045TIP3    H215100   3.090   0.877   0.566
 5046TIP3   OH215101   1.879   5.636   3.639
 5046TIP3    H115102   1.795   5.681   3.651
 5046TIP3    H215103   1.941   5.689   3.690
 5047TIP3   OH215104   1.931   3.067   0.556
 5047TIP3    H115105   1.862   3.091   0.494
 5047TIP3    H215106   1.930   3.137   0.621
 5048TIP3   OH215107   6.684   1.255   1.525
 5048TIP3    H115108   6.755   1.238   1.586
 5048TIP3    H215109   6.728   1.278   1.443
 5049TIP3   OH215110   5.514   1.307   3.587
 5049TIP3    H115111   5.435   1.253   3.587
 5049TIP3    H215112   5.569   1.268   3.519
 5050TIP3   OH215113   1.601   4.314   2.283
 5050TIP3    H115114   1.555   4.269   2.354
 5050TIP3    H215115   1.687   4.334   2.319
 5051TIP3   OH215116   1.802   2.685   5.212
 5051TIP3    H115117   1.791   2.669   5.306
 5051TIP3    H215118   1.727   2.641   5.171
 5052TIP3   OH215119   3.445   0.506   0.153
 5052TIP3    H115120   3.492   0.587   0.136
 5052TIP3    H215121   3.449   0.496   0.248
 5053TIP3   OH215122   6.034   0.503   4.116
 5053TIP3    H115123   5.971   0.437   4.087
 5053TIP3    H215124   5.980   0.572   4.156
 5054TIP3   OH215125   2.375   2.177   0.419
 5054TIP3    H115126   2.457   2.129   0.417
 5054TIP3    H215127   2.320   2.135   0.353
 5055TIP3   OH215128   5.663   2.786   3.921
 5055TIP3    H115129   5.655   2.719   3.990
 5055TIP3    H215130   5.670   2.736   3.840
 5056TIP3   OH215131   6.313   1.142   2.648
 5056TIP3    H115132   6.289   1.224   2.604
 5056TIP3    H215133   6.393   1.165   2.697
 5057TIP3   OH215134   1.400   2.599   4.145
 5057TIP3    H115135   1.492   2.590   4.122
 5057TIP3    H215136   1.393   2.564   4.233
 5058TIP3   OH215137   6.099   5.840   0.059
 5058TIP3    H115138   6.048   5.771   0.102
 5058TIP3    H215139   6.158   5.793   0.001
 5059TIP3   OH215140   0.903   4.620   2.703
 5059TIP3    H115141   0.966   4.549   2.714
 5059TIP3    H215142   0.823   4.577   2.675
 5060TIP3   OH215143   1.410   1.461   5.444
 5060TIP3    H115144   1.393   1.455   5.538
 5060TIP3    H215145   1.505   1.468   5.438
 5061TIP3   OH215146   2.378   0.721   0.577
 5061TIP3    H115147   2.287   0.730   0.605
 5061TIP3    H215148   2.388   0.628   0.555
 5062TIP3   OH215149   6.072   1.246   0.089
 5062TIP3    H115150   5.990   1.251   0.138
 5062TIP3    H215151   6.052   1.190   0.014
 5063TIP3   OH215152   4.450   3.161   0.086
 5063TIP3    H115153   4.386   3.210   0.035
 5063TIP3    H215154   4.398   3.093   0.130
 5064TIP3   OH215155   2.617   4.548   4.405
 5064TIP3    H115156   2.570   4.508   4.478
 5064TIP3    H215157   2.558   4.539   4.330
 5065TIP3   OH215158   1.117   5.948   5.276
 5065TIP3    H115159   1.143   6.002   5.202
 5065TIP3    H215160   1.036   5.905   5.247
 5066TIP3   OH215161   0.024   4.746   4.754
 5066TIP3    H115162   0.049   4.835   4.727
 5066TIP3    H215163   0.001   4.702   4.672
 5067TIP3   OH215164   0.575   2.276   3.266
 5067TIP3    H115165   0.525   2.242   3.340
 5067TIP3    H215166   0.511   2.327   3.215
 5068TIP3   OH215167   6.009   1.507   4.488
 5068TIP3    H115168   5.915   1.508   4.506
 5068TIP3    H215169   6.035   1.598   4.493
 5069TIP3   OH215170   4.971   3.978   5.234
 5069TIP3    H115171   4.973   4.073   5.226
 5069TIP3    H215172   4.954   3.947   5.145
 5070TIP3   OH215173   1.408   4.514   2.448
 5070TIP3    H115174   1.432   4.421   2.455
 5070TIP3    H215175   1.317   4.513   2.420
 5071TIP3   OH215176   4.777   2.918   3.978
 5071TIP3    H115177   4.693   2.962   3.969
 5071TIP3    H215178   4.792   2.913   4.073
 5072TIP3   OH215179   3.523   6.028   1.957
 5072TIP3    H115180   3.472   6.024   1.876
 5072TIP3    H215181   3.556   5.939   1.969
 5073TIP3   OH215182   1.831   2.060   2.748
 5073TIP3    H115183   1.807   1.978   2.706
 5073TIP3    H215184   1.904   2.093   2.697
 5074TIP3   OH215185   2.516   5.735   3.292
 5074TIP3    H115186   2.527   5.650   3.250
 5074TIP3    H215187   2.585   5.739   3.358
 5075TIP3   OH215188   2.145   4.360   3.239
 5075TIP3    H115189   2.058   4.327   3.216
 5075TIP3    H215190   2.133   4.406   3.321
 5076TIP3   OH215191   3.481   3.552   4.482
 5076TIP3    H115192   3.561   3.604   4.477
 5076TIP3    H215193   3.504   3.469   4.440
 5077TIP3   OH215194   5.254   3.773   5.597
 5077TIP3    H115195   5.235   3.825   5.519
 5077TIP3    H215196   5.300   3.833   5.656
 5078TIP3   OH215197   1.721   6.084   0.966
 5078TIP3    H115198   1.768   6.032   1.032
 5078TIP3    H215199   1.694   6.019   0.901
 5079TIP3   OH215200   4.287   6.067   3.638
 5079TIP3    H115201   4.379   6.093   3.635
 5079TIP3    H215202   4.274   6.036   3.727
 5080TIP3   OH215203   7.106   3.249   4.755
 5080TIP3    H115204   7.079   3.224   4.844
 5080TIP3    H215205   7.096   3.345   4.754
 5081TIP3   OH215206   1.440   5.979   1.368
 5081TIP3    H115207   1.469   6.052   1.314
 5081TIP3    H215208   1.443   5.903   1.310
 5082TIP3   OH215209   6.251   6.106   1.925
 5082TIP3    H115210   6.263   6.011   1.927
 5082TIP3    H215211   6.184   6.123   1.992
 5083TIP3   OH215212   6.415   6.484   4.152
 5083TIP3    H115213   6.429   6.440   4.068
 5083TIP3    H215214   6.434   6.576   4.135
 5084TIP3   OH215215   5.170   0.393   0.424
 5084TIP3    H115216   5.221   0.405   0.504
 5084TIP3    H215217   5.106   0.464   0.425
 5085TIP3   OH215218   1.921   4.653   3.843
 5085TIP3    H115219   1.994   4.707   3.872
 5085TIP3    H215220   1.959   4.567   3.828
 5086TIP3   OH215221   4.677   2.483   4.793
 5086TIP3    H115222   4.762   2.478   4.838
 5086TIP3    H215223   4.673   2.402   4.742
 5087TIP3   OH215224   5.447   3.785   1.461
 5087TIP3    H115225   5.514   3.718   1.447
 5087TIP3    H215226   5.439   3.828   1.376
 5088TIP3   OH215227   5.204   6.808  -0.001
 5088TIP3    H115228   5.177   6.727   0.041
 5088TIP3    H215229   5.294   6.791  -0.030
 5089TIP3   OH215230   5.040   5.719   4.052
 5089TIP3    H115231   5.074   5.806   4.032
 5089TIP3    H215232   5.066   5.703   4.143
 5090TIP3   OH215233   5.200   6.223   2.219
 5090TIP3    H115234   5.119   6.211   2.171
 5090TIP3    H215235   5.269   6.206   2.155
 5091TIP3   OH215236   4.700   5.385   4.014
 5091TIP3    H115237   4.776   5.335   3.983
 5091TIP3    H215238   4.736   5.471   4.037
 5092TIP3   OH215239   3.072   4.432   2.433
 5092TIP3    H115240   2.996   4.408   2.380
 5092TIP3    H215241   3.107   4.511   2.392
 5093TIP3   OH215242   6.442   6.207   1.754
 5093TIP3    H115243   6.530   6.224   1.786
 5093TIP3    H215244   6.398   6.160   1.825
 5094TIP3   OH215245   1.103   3.634   1.098
 5094TIP3    H115246   1.075   3.559   1.151
 5094TIP3    H215247   1.032   3.647   1.035
 5095TIP3   OH215248   4.472   4.067   5.544
 5095TIP3    H115249   4.541   4.021   5.593
 5095TIP3    H215250   4.497   4.159   5.547
 5096TIP3   OH215251   1.779   1.491   0.711
 5096TIP3    H115252   1.764   1.565   0.652
 5096TIP3    H215253   1.870   1.466   0.695
 5097TIP3   OH215254   1.619   4.843   1.588
 5097TIP3    H115255   1.644   4.754   1.614
 5097TIP3    H215256   1.527   4.851   1.613
 5098TIP3   OH215257   3.223   3.654   4.061
 5098TIP3    H115258   3.182   3.575   4.096
 5098TIP3    H215259   3.305   3.662   4.110
 5099TIP3   OH215260   0.462   3.222   5.000
 5099TIP3    H115261   0.535   3.271   4.963
 5099TIP3    H215262   0.441   3.267   5.082
 5100TIP3   OH215263   0.937   6.450   2.416
 5100TIP3    H115264   0.938   6.356   2.432
 5100TIP3    H215265   0.857   6.481   2.458
 5101TIP3   OH215266   2.303  -0.013   1.509
 5101TIP3    H115267   2.315   0.054   1.577
 5101TIP3    H215268   2.285   0.036   1.429
 5102TIP3   OH215269   0.063   1.284   3.000
 5102TIP3    H115270  -0.001   1.304   3.068
 5102TIP3    H215271   0.113   1.365   2.989
 5103TIP3   OH215272   5.247   2.528   0.089
 5103TIP3    H115273   5.289   2.606   0.125
 5103TIP3    H215274   5.189   2.498   0.159
 5104TIP3   OH215275   1.904   3.562   1.184
 5104TIP3    H115276   1.986   3.611   1.194
 5104TIP3    H215277   1.929   3.471   1.200
 5105TIP3   OH215278   3.300   2.967   3.375
 5105TIP3    H115279   3.238   2.996   3.308
 5105TIP3    H215280   3.255   2.894   3.419
 5106TIP3   OH215281   5.869   0.210   3.544
 5106TIP3    H115282   5.961   0.229   3.528
 5106TIP3    H215283   5.866   0.117   3.565
 5107TIP3   OH215284   5.738   2.249   3.031
 5107TIP3    H115285   5.687   2.239   2.950
 5107TIP3    H215286   5.789   2.328   3.017
 5108TIP3   OH215287   6.167   5.046   3.351
 5108TIP3    H115288   6.153   5.012   3.440
 5108TIP3    H215289   6.260   5.032   3.335
 5109TIP3   OH215290   6.046   2.765   4.675
 5109TIP3    H115291   6.058   2.671   4.664
 5109TIP3    H215292   6.120   2.792   4.730
 5110TIP3   OH215293   2.428   0.875   5.780
 5110TIP3    H115294   2.439   0.876   5.685
 5110TIP3    H215295   2.449   0.784   5.804
 5111TIP3   OH215296   0.939   1.075   2.197
 5111TIP3    H115297   0.962   1.055   2.287
 5111TIP3    H215298   0.941   0.991   2.152
 5112TIP3   OH215299   1.342   5.217   3.361
 5112TIP3    H115300   1.278   5.286   3.346
 5112TIP3    H215301   1.426   5.258   3.339
 5113TIP3   OH215302   3.463   3.846   4.622
 5113TIP3    H115303   3.441   3.865   4.714
 5113TIP3    H215304   3.539   3.789   4.627
 5114TIP3   OH215305   2.321   1.593   2.234
 5114TIP3    H115306   2.277   1.524   2.184
 5114TIP3    H215307   2.271   1.672   2.213
 5115TIP3   OH215308   3.255   0.841   1.375
 5115TIP3    H115309   3.221   0.897   1.305
 5115TIP3    H215310   3.274   0.901   1.447
 5116TIP3   OH215311   4.688   1.675   4.365
 5116TIP3    H115312   4.681   1.757   4.414
 5116TIP3    H215313   4.775   1.677   4.325
 5117TIP3   OH215314   3.934   2.262   4.034
 5117TIP3    H115315   3.987   2.276   3.955
 5117TIP3    H215316   3.923   2.349   4.071
 5118TIP3   OH215317   0.995   2.910   1.082
 5118TIP3    H115318   1.023   2.819   1.071
 5118TIP3    H215319   0.966   2.915   1.173
 5119TIP3   OH215320   5.615   0.103   5.042
 5119TIP3    H115321   5.552   0.175   5.038
 5119TIP3    H215322   5.677   0.121   4.971
 5120TIP3   OH215323   6.915   3.231   1.330
 5120TIP3    H115324   6.998   3.209   1.373
 5120TIP3    H215325   6.904   3.164   1.263
 5121TIP3   OH215326   0.812   0.567   5.795
 5121TIP3    H115327   0.860   0.522   5.725
 5121TIP3    H215328   0.720   0.550   5.774
 5122TIP3   OH215329   0.068   2.885   5.326
 5122TIP3    H115330   0.013   2.957   5.293
 5122TIP3    H215331   0.103   2.844   5.247
 5123TIP3   OH215332   6.192   5.338   4.345
 5123TIP3    H115333   6.186   5.319   4.251
 5123TIP3    H215334   6.122   5.286   4.385
 5124TIP3   OH215335   5.829   3.986   2.723
 5124TIP3    H115336   5.838   3.898   2.687
 5124TIP3    H215337   5.906   3.998   2.778
 5125TIP3   OH215338   6.441   2.061   1.442
 5125TIP3    H115339   6.357   2.016   1.433
 5125TIP3    H215340   6.434   2.136   1.383
 5126TIP3   OH215341   1.805   5.101   2.542
 5126TIP3    H115342   1.886   5.116   2.492
 5126TIP3    H215343   1.746   5.060   2.480
 5127TIP3   OH215344   0.960   4.050   5.548
 5127TIP3    H115345   0.979   3.976   5.490
 5127TIP3    H215346   1.034   4.109   5.537
 5128TIP3   OH215347   5.353   6.581   4.632
 5128TIP3    H115348   5.414   6.530   4.686
 5128TIP3    H215349   5.359   6.670   4.666
 5129TIP3   OH215350   0.354   6.625   0.369
 5129TIP3    H115351   0.363   6.681   0.293
 5129TIP3    H215352   0.428   6.648   0.425
 5130TIP3   OH215353   0.490   5.810   1.876
 5130TIP3    H115354   0.509   5.793   1.968
 5130TIP3    H215355   0.493   5.905   1.868
 5131TIP3   OH215356   3.524   3.094   1.605
 5131TIP3    H115357   3.442   3.045   1.604
 5131TIP3    H215358   3.529   3.134   1.519
 5132TIP3   OH215359   6.824   2.514   1.408
 5132TIP3    H115360   6.735   2.496   1.378
 5132TIP3    H215361   6.815   2.536   1.501
 5133TIP3   OH215362   5.913   2.339   4.152
 5133TIP3    H115363   5.975   2.266   4.164
 5133TIP3    H215364   5.829   2.296   4.134
 5134TIP3   OH215365   1.231   5.922   2.182
 5134TIP3    H115366   1.185   5.844   2.214
 5134TIP3    H215367   1.258   5.898   2.093
 5135TIP3   OH215368   5.904   5.836   1.583
 5135TIP3    H115369   5.961   5.898   1.627
 5135TIP3    H215370   5.901   5.866   1.492
 5136TIP3   OH215371   6.458   4.184   4.592
 5136TIP3    H115372   6.411   4.105   4.565
 5136TIP3    H215373   6.465   4.177   4.687
 5137TIP3   OH215374   3.194   1.247   3.992
 5137TIP3    H115375   3.233   1.248   3.904
 5137TIP3    H215376   3.125   1.181   3.987
 5138TIP3   OH215377   5.576   0.806   5.709
 5138TIP3    H115378   5.502   0.862   5.686
 5138TIP3    H215379   5.648   0.839   5.656
 5139TIP3   OH215380   2.962   5.573   3.478
 5139TIP3    H115381   2.991   5.506   3.416
 5139TIP3    H215382   3.043   5.605   3.518
 5140TIP3   OH215383   4.453   3.651   2.358
 5140TIP3    H115384   4.403   3.725   2.393
 5140TIP3    H215385   4.537   3.688   2.332
 5141TIP3   OH215386   4.216   6.152   0.502
 5141TIP3    H115387   4.189   6.138   0.411
 5141TIP3    H215388   4.257   6.238   0.502
 5142TIP3   OH215389   7.230   4.442   3.988
 5142TIP3    H115390   7.143   4.480   3.976
 5142TIP3    H215391   7.283   4.480   3.918
 5143TIP3   OH215392   2.707   0.213   2.730
 5143TIP3    H115393   2.779   0.224   2.668
 5143TIP3    H215394   2.750   0.199   2.814
 5144TIP3   OH215395   5.810   1.589   1.693
 5144TIP3    H115396   5.770   1.603   1.607
 5144TIP3    H215397   5.895   1.549   1.673
 5145TIP3   OH215398   0.986   0.387   0.762
 5145TIP3    H115399   0.948   0.428   0.684
 5145TIP3    H215400   1.080   0.405   0.755
 5146TIP3   OH215401   3.991   6.052   2.659
 5146TIP3    H115402   3.960   6.139   2.632
 5146TIP3    H215403   3.911   6.003   2.678
 5147TIP3   OH215404   4.427   2.175   3.930
 5147TIP3    H115405   4.396   2.233   3.861
 5147TIP3    H215406   4.478   2.109   3.885
 5148TIP3   OH215407   3.372   1.544   0.062
 5148TIP3    H115408   3.294   1.598   0.052
 5148TIP3    H215409   3.374   1.521   0.155
 5149TIP3   OH215410   6.961   3.708   4.487
 5149TIP3    H115411   6.983   3.801   4.483
 5149TIP3    H215412   6.898   3.695   4.417
 5150TIP3   OH215413   3.647   1.792   1.573
 5150TIP3    H115414   3.627   1.877   1.613
 5150TIP3    H215415   3.573   1.736   1.599
 5151TIP3   OH215416   1.996   0.823   3.781
 5151TIP3    H115417   1.911   0.783   3.799
 5151TIP3    H215418   2.060   0.755   3.803
 5152TIP3   OH215419   0.351   2.954   3.889
 5152TIP3    H115420   0.290   3.027   3.902
 5152TIP3    H215421   0.437   2.992   3.906
 5153TIP3   OH215422   5.531   0.799   1.043
 5153TIP3    H115423   5.602   0.838   1.095
 5153TIP3    H215424   5.460   0.786   1.105
 5154TIP3   OH215425   2.886   4.438   5.641
 5154TIP3    H115426   2.965   4.384   5.638
 5154TIP3    H215427   2.815   4.378   5.623
 5155TIP3   OH215428   3.117   0.872   3.051
 5155TIP3    H115429   3.186   0.920   3.005
 5155TIP3    H215430   3.148   0.866   3.142
 5156TIP3   OH215431   5.073   0.832   2.747
 5156TIP3    H115432   4.980   0.844   2.726
 5156TIP3    H215433   5.120   0.884   2.682
 5157TIP3   OH215434   5.428   1.080   1.464
 5157TIP3    H115435   5.425   1.083   1.559
 5157TIP3    H215436   5.521   1.068   1.443
 5158TIP3   OH215437   5.303   5.706   4.262
 5158TIP3    H115438   5.396   5.682   4.268
 5158TIP3    H215439   5.261   5.629   4.224
 5159TIP3   OH215440   2.236   3.408   4.113
 5159TIP3    H115441   2.291   3.480   4.144
 5159TIP3    H215442   2.254   3.402   4.020
 5160TIP3   OH215443   1.071   1.732   3.624
 5160TIP3    H115444   1.023   1.656   3.592
 5160TIP3    H215445   1.158   1.725   3.586
 5161TIP3   OH215446   0.513   3.190   3.941
 5161TIP3    H115447   0.582   3.130   3.912
 5161TIP3    H215448   0.543   3.221   4.027
 5162TIP3   OH215449   5.508   6.663   0.604
 5162TIP3    H115450   5.498   6.604   0.679
 5162TIP3    H215451   5.479   6.748   0.636
 5163TIP3   OH215452   5.315   0.893   4.580
 5163TIP3    H115453   5.345   0.951   4.510
 5163TIP3    H215454   5.375   0.819   4.577
 5164TIP3   OH215455   0.597   4.095   2.422
 5164TIP3    H115456   0.520   4.092   2.366
 5164TIP3    H215457   0.584   4.024   2.484
 5165TIP3   OH215458   6.739   5.248   0.785
 5165TIP3    H115459   6.740   5.155   0.810
 5165TIP3    H215460   6.752   5.248   0.691
 5166TIP3   OH215461   1.705   0.717   1.821
 5166TIP3    H115462   1.697   0.625   1.847
 5166TIP3    H215463   1.742   0.714   1.733
 5167TIP3   OH215464   6.268   4.331   5.051
 5167TIP3    H115465   6.243   4.246   5.014
 5167TIP3    H215466   6.321   4.373   4.983
 5168TIP3   OH215467   5.184   6.140   1.495
 5168TIP3    H115468   5.233   6.153   1.413
 5168TIP3    H215469   5.200   6.220   1.545
 5169TIP3   OH215470   7.017   6.036   1.130
 5169TIP3    H115471   7.087   6.006   1.072
 5169TIP3    H215472   6.936   6.010   1.087
 5170TIP3   OH215473   5.700   5.265   2.921
 5170TIP3    H115474   5.711   5.337   2.859
 5170TIP3    H215475   5.633   5.209   2.881
 5171TIP3   OH215476   3.307   0.721   5.439
 5171TIP3    H115477   3.321   0.654   5.506
 5171TIP3    H215478   3.269   0.673   5.365
 5172TIP3   OH215479   6.621   3.369   3.892
 5172TIP3    H115480   6.610   3.393   3.984
 5172TIP3    H215481   6.715   3.360   3.880
 5173TIP3   OH215482   4.154   1.109   1.060
 5173TIP3    H115483   4.089   1.039   1.061
 5173TIP3    H215484   4.204   1.094   0.980
 5174TIP3   OH215485   4.946   2.353   0.074
 5174TIP3    H115486   4.994   2.271   0.085
 5174TIP3    H215487   4.856   2.331   0.095
 5175TIP3   OH215488   4.822   5.882   3.809
 5175TIP3    H115489   4.910   5.918   3.824
 5175TIP3    H215490   4.813   5.880   3.714
 5176TIP3   OH215491   3.544   3.133   3.069
 5176TIP3    H115492   3.573   3.083   3.145
 5176TIP3    H215493   3.476   3.191   3.101
 5177TIP3   OH215494   1.639   1.980   5.915
 5177TIP3    H115495   1.589   2.040   5.860
 5177TIP3    H215496   1.659   1.906   5.857
 5178TIP3   OH215497   2.627   2.406   0.469
 5178TIP3    H115498   2.702   2.463   0.454
 5178TIP3    H215499   2.666   2.319   0.478
 5179TIP3   OH215500   5.187   3.436   4.483
 5179TIP3    H115501   5.163   3.347   4.456
 5179TIP3    H215502   5.183   3.435   4.578
 5180TIP3   OH215503   6.097   3.810   0.898
 5180TIP3    H115504   6.025   3.772   0.948
 5180TIP3    H215505   6.094   3.903   0.919
 5181TIP3   OH215506   3.507   2.802   1.223
 5181TIP3    H115507   3.442   2.872   1.227
 5181TIP3    H215508   3.590   2.847   1.207
 5182TIP3   OH215509   3.713   2.154   3.783
 5182TIP3    H115510   3.651   2.204   3.836
 5182TIP3    H215511   3.751   2.218   3.723
 5183TIP3   OH215512   0.387   4.722   4.863
 5183TIP3    H115513   0.457   4.668   4.827
 5183TIP3    H215514   0.313   4.663   4.871
 5184TIP3   OH215515   2.967   3.788   0.376
 5184TIP3    H115516   2.955   3.795   0.471
 5184TIP3    H215517   3.061   3.779   0.363
 5185TIP3   OH215518   3.988   5.908   3.571
 5185TIP3    H115519   4.070   5.941   3.532
 5185TIP3    H215520   3.942   5.987   3.599
 5186TIP3   OH215521   3.291   1.598   3.689
 5186TIP3    H115522   3.342   1.678   3.701
 5186TIP3    H215523   3.324   1.538   3.756
 5187TIP3   OH215524   2.073   6.670   4.128
 5187TIP3    H115525   1.986   6.632   4.117
 5187TIP3    H215526   2.059   6.764   4.134
 5188TIP3   OH215527   5.295   1.606   3.275
 5188TIP3    H115528   5.388   1.621   3.260
 5188TIP3    H215529   5.257   1.694   3.275
 5189TIP3   OH215530   5.016   1.943   3.618
 5189TIP3    H115531   4.991   2.024   3.662
 5189TIP3    H215532   4.976   1.874   3.670
 5190TIP3   OH215533   6.931   1.036   5.255
 5190TIP3    H115534   7.013   0.987   5.261
 5190TIP3    H215535   6.948   1.118   5.302
 5191TIP3   OH215536   7.116   6.426   1.639
 5191TIP3    H115537   7.198   6.387   1.668
 5191TIP3    H215538   7.119   6.516   1.672
 5192TIP3   OH215539   3.734   5.860   0.317
 5192TIP3    H115540   3.672   5.793   0.290
 5192TIP3    H215541   3.684   5.941   0.317
 5193TIP3   OH215542   4.472   4.958   0.803
 5193TIP3    H115543   4.548   4.985   0.750
 5193TIP3    H215544   4.404   4.940   0.738
 5194TIP3   OH215545   2.671   5.421   1.239
 5194TIP3    H115546   2.635   5.470   1.312
 5194TIP3    H215547   2.623   5.338   1.240
 5195TIP3   OH215548   1.287   3.155   4.100
 5195TIP3    H115549   1.377   3.188   4.101
 5195TIP3    H215550   1.243   3.203   4.170
 5196TIP3   OH215551   1.034   0.285   1.013
 5196TIP3    H115552   1.023   0.318   0.923
 5196TIP3    H215553   0.947   0.296   1.052
 5197TIP3   OH215554   5.818   1.793   1.864
 5197TIP3    H115555   5.777   1.729   1.807
 5197TIP3    H215556   5.866   1.741   1.928
 5198TIP3   OH215557   4.611   2.629   3.000
 5198TIP3    H115558   4.609   2.686   2.923
 5198TIP3    H215559   4.614   2.540   2.964
 5199TIP3   OH215560   3.195   5.470   0.449
 5199TIP3    H115561   3.137   5.474   0.373
 5199TIP3    H215562   3.189   5.379   0.479
 5200TIP3   OH215563   3.422   2.591   4.387
 5200TIP3    H115564   3.338   2.601   4.431
 5200TIP3    H215565   3.402   2.596   4.294
 5201TIP3   OH215566   5.209   0.306   4.313
 5201TIP3    H115567   5.258   0.292   4.231
 5201TIP3    H215568   5.210   0.401   4.326
 5202TIP3   OH215569   4.099   2.866   5.143
 5202TIP3    H115570   4.108   2.771   5.138
 5202TIP3    H215571   4.007   2.883   5.124
 5203TIP3   OH215572   1.153   4.565   2.900
 5203TIP3    H115573   1.152   4.517   2.817
 5203TIP3    H215574   1.175   4.655   2.876
 5204TIP3   OH215575   5.564   2.323   4.868
 5204TIP3    H115576   5.652   2.361   4.871
 5204TIP3    H215577   5.536   2.336   4.777
 5205TIP3   OH215578   5.518   5.623   5.242
 5205TIP3    H115579   5.436   5.632   5.194
 5205TIP3    H215580   5.546   5.713   5.260
 5206TIP3   OH215581   1.518   6.745   1.427
 5206TIP3    H115582   1.488   6.833   1.452
 5206TIP3    H215583   1.439   6.700   1.398
 5207TIP3   OH215584   3.302   3.323   2.119
 5207TIP3    H115585   3.327   3.369   2.199
 5207TIP3    H215586   3.325   3.231   2.136
 5208TIP3   OH215587   2.403   5.338   4.943
 5208TIP3    H115588   2.395   5.251   4.905
 5208TIP3    H215589   2.343   5.337   5.018
 5209TIP3   OH215590   4.755   0.202   5.075
 5209TIP3    H115591   4.711   0.287   5.082
 5209TIP3    H215592   4.845   0.220   5.104
 5210TIP3   OH215593   1.935   5.533   5.014
 5210TIP3    H115594   1.876   5.528   4.938
 5210TIP3    H215595   1.910   5.614   5.059
 5211TIP3   OH215596   1.236   1.615   0.241
 5211TIP3    H115597   1.200   1.663   0.166
 5211TIP3    H215598   1.314   1.664   0.266
 5212TIP3   OH215599   4.098   3.841   4.267
 5212TIP3    H115600   4.066   3.768   4.320
 5212TIP3    H215601   4.191   3.847   4.288
 5213TIP3   OH215602   4.614   6.781   2.073
 5213TIP3    H115603   4.634   6.759   1.982
 5213TIP3    H215604   4.634   6.701   2.122
 5214TIP3   OH215605   2.924   3.927   0.622
 5214TIP3    H115606   2.886   3.972   0.546
 5214TIP3    H215607   2.848   3.888   0.666
 5215TIP3   OH215608   4.308   3.511   5.851
 5215TIP3    H115609   4.271   3.459   5.780
 5215TIP3    H215610   4.395   3.535   5.821
 5216TIP3   OH215611   4.832   5.209   3.039
 5216TIP3    H115612   4.801   5.296   3.013
 5216TIP3    H215613   4.922   5.224   3.069
 5217TIP3   OH215614   0.112   3.498   3.140
 5217TIP3    H115615   0.181   3.432   3.138
 5217TIP3    H215616   0.149   3.573   3.094
 5218TIP3   OH215617   1.742   3.104   3.370
 5218TIP3    H115618   1.772   3.131   3.283
 5218TIP3    H215619   1.710   3.185   3.410
 5219TIP3   OH215620   3.854   4.364   2.874
 5219TIP3    H115621   3.848   4.284   2.926
 5219TIP3    H215622   3.929   4.411   2.911
 5220TIP3   OH215623   7.032   5.309   4.749
 5220TIP3    H115624   6.960   5.341   4.694
 5220TIP3    H215625   7.054   5.385   4.804
 5221TIP3   OH215626   4.420   0.337   3.860
 5221TIP3    H115627   4.473   0.354   3.938
 5221TIP3    H215628   4.479   0.288   3.802
 5222TIP3   OH215629   3.352   2.922   5.193
 5222TIP3    H115630   3.411   2.856   5.231
 5222TIP3    H215631   3.272   2.915   5.244
 5223TIP3   OH215632   1.165   4.254   3.879
 5223TIP3    H115633   1.217   4.237   3.800
 5223TIP3    H215634   1.149   4.167   3.916
 5224TIP3   OH215635   0.940   2.628   4.708
 5224TIP3    H115636   0.927   2.553   4.649
 5224TIP3    H215637   0.890   2.606   4.786
 5225TIP3   OH215638   5.338   0.569   4.921
 5225TIP3    H115639   5.260   0.529   4.959
 5225TIP3    H215640   5.344   0.655   4.961
 5226TIP3   OH215641   2.113   5.239   4.894
 5226TIP3    H115642   2.140   5.243   4.802
 5226TIP3    H215643   2.053   5.312   4.905
 5227TIP3   OH215644   3.378   0.611   1.426
 5227TIP3    H115645   3.350   0.702   1.439
 5227TIP3    H215646   3.411   0.609   1.336
 5228TIP3   OH215647   1.826   0.191   2.160
 5228TIP3    H115648   1.821   0.096   2.154
 5228TIP3    H215649   1.897   0.215   2.100
 5229TIP3   OH215650   2.860   0.319   1.882
 5229TIP3    H115651   2.906   0.240   1.854
 5229TIP3    H215652   2.918   0.358   1.947
 5230TIP3   OH215653   0.486   6.505   0.714
 5230TIP3    H115654   0.397   6.540   0.715
 5230TIP3    H215655   0.491   6.455   0.633
 5231TIP3   OH215656   0.077   0.294   3.794
 5231TIP3    H115657   0.153   0.350   3.774
 5231TIP3    H215658   0.006   0.334   3.744
 5232TIP3   OH215659   0.859   6.000   2.054
 5232TIP3    H115660   0.850   6.038   1.966
 5232TIP3    H215661   0.874   5.907   2.038
 5233TIP3   OH215662   1.797   0.124   1.551
 5233TIP3    H115663   1.803   0.029   1.559
 5233TIP3    H215664   1.724   0.148   1.609
 5234TIP3   OH215665   3.878   3.961   4.583
 5234TIP3    H115666   3.820   3.997   4.651
 5234TIP3    H215667   3.952   4.021   4.579
 5235TIP3   OH215668   6.285   6.446   0.075
 5235TIP3    H115669   6.242   6.362   0.060
 5235TIP3    H215670   6.285   6.456   0.171
 5236TIP3   OH215671   1.116   2.223   5.369
 5236TIP3    H115672   1.067   2.238   5.449
 5236TIP3    H215673   1.189   2.285   5.372
 5237TIP3   OH215674   1.932   5.666   0.180
 5237TIP3    H115675   2.017   5.622   0.189
 5237TIP3    H215676   1.886   5.646   0.261
 5238TIP3   OH215677   0.265   5.116   2.543
 5238TIP3    H115678   0.347   5.141   2.586
 5238TIP3    H215679   0.230   5.198   2.510
 5239TIP3   OH215680   1.021   0.996   0.993
 5239TIP3    H115681   0.940   1.046   0.990
 5239TIP3    H215682   1.063   1.012   0.909
 5240TIP3   OH215683   5.764   5.000   1.218
 5240TIP3    H115684   5.696   4.952   1.265
 5240TIP3    H215685   5.717   5.045   1.147
 5241TIP3   OH215686   0.514   5.676   5.680
 5241TIP3    H115687   0.543   5.613   5.615
 5241TIP3    H215688   0.422   5.655   5.697
 5242TIP3   OH215689   1.773   3.234   0.382
 5242TIP3    H115690   1.690   3.241   0.335
 5242TIP3    H215691   1.805   3.324   0.387
 5243TIP3   OH215692   5.610   2.293   1.797
 5243TIP3    H115693   5.618   2.345   1.877
 5243TIP3    H215694   5.653   2.210   1.818
 5244TIP3   OH215695   2.586   0.249   1.922
 5244TIP3    H115696   2.575   0.242   1.827
 5244TIP3    H215697   2.679   0.265   1.934
 5245TIP3   OH215698   3.264   4.167   3.358
 5245TIP3    H115699   3.264   4.220   3.438
 5245TIP3    H215700   3.171   4.157   3.336
 5246TIP3   OH215701   3.590   1.210   5.709
 5246TIP3    H115702   3.655   1.193   5.778
 5246TIP3    H215703   3.630   1.279   5.656
 5247TIP3   OH215704   4.984   1.495   5.813
 5247TIP3    H115705   4.897   1.480   5.776
 5247TIP3    H215706   5.039   1.429   5.770
 5248TIP3   OH215707   0.489   5.704   4.099
 5248TIP3    H115708   0.474   5.609   4.096
 5248TIP3    H215709   0.540   5.722   4.020
 5249TIP3   OH215710   5.187   3.450   4.748
 5249TIP3    H115711   5.187   3.484   4.837
 5249TIP3    H215712   5.131   3.372   4.752
 5250TIP3   OH215713   4.872   0.973   1.013
 5250TIP3    H115714   4.891   1.006   1.101
 5250TIP3    H215715   4.946   1.003   0.960
 5251TIP3   OH215716   2.856   5.805   3.217
 5251TIP3    H115717   2.820   5.785   3.304
 5251TIP3    H215718   2.828   5.732   3.162
 5252TIP3   OH215719   0.054   4.164   1.827
 5252TIP3    H115720  -0.028   4.171   1.778
 5252TIP3    H215721   0.102   4.245   1.805
 5253TIP3   OH215722   6.154   0.538   0.761
 5253TIP3    H115723   6.092   0.564   0.693
 5253TIP3    H215724   6.140   0.444   0.771
 5254TIP3   OH215725   1.146   6.363   4.454
 5254TIP3    H115726   1.124   6.385   4.363
 5254TIP3    H215727   1.115   6.437   4.505
 5255TIP3   OH215728   3.343   2.125   2.097
 5255TIP3    H115729   3.389   2.070   2.161
 5255TIP3    H215730   3.412   2.170   2.049
 5256TIP3   OH215731   5.379   0.108   3.362
 5256TIP3    H115732   5.469   0.137   3.375
 5256TIP3    H215733   5.376   0.021   3.401
 5257TIP3   OH215734   5.594   3.302   1.019
 5257TIP3    H115735   5.564   3.344   0.938
 5257TIP3    H215736   5.627   3.217   0.991
 5258TIP3   OH215737   5.643   5.792   2.566
 5258TIP3    H115738   5.699   5.769   2.639
 5258TIP3    H215739   5.555   5.800   2.604
 5259TIP3   OH215740   2.000   3.454   4.595
 5259TIP3    H115741   1.970   3.540   4.565
 5259TIP3    H215742   1.934   3.427   4.659
 5260TIP3   OH215743   2.950   3.209   0.365
 5260TIP3    H115744   3.023   3.233   0.423
 5260TIP3    H215745   2.926   3.290   0.321
 5261TIP3   OH215746   1.352   5.065   5.328
 5261TIP3    H115747   1.437   5.043   5.367
 5261TIP3    H215748   1.289   5.044   5.396
 5262TIP3   OH215749   3.805   3.426   0.185
 5262TIP3    H115750   3.733   3.376   0.224
 5262TIP3    H215751   3.883   3.376   0.206
 5263TIP3   OH215752   4.895   2.198   0.789
 5263TIP3    H115753   4.979   2.205   0.835
 5263TIP3    H215754   4.863   2.288   0.783
 5264TIP3   OH215755   6.200   3.404   5.005
 5264TIP3    H115756   6.125   3.459   4.985
 5264TIP3    H215757   6.226   3.366   4.920
 5265TIP3   OH215758   4.955   4.511   3.500
 5265TIP3    H115759   4.892   4.552   3.442
 5265TIP3    H215760   4.902   4.460   3.561
 5266TIP3   OH215761   1.961   2.855   4.389
 5266TIP3    H115762   1.969   2.768   4.351
 5266TIP3    H215763   2.035   2.862   4.449
 5267TIP3   OH215764   4.239   0.593   0.417
 5267TIP3    H115765   4.173   0.539   0.373
 5267TIP3    H215766   4.267   0.540   0.491
 5268TIP3   OH215767   0.884   4.799   4.910
 5268TIP3    H115768   0.860   4.765   4.824
 5268TIP3    H215769   0.971   4.762   4.927
 5269TIP3   OH215770   1.878   1.359   4.818
 5269TIP3    H115771   1.935   1.431   4.789
 5269TIP3    H215772   1.789   1.391   4.804
 5270TIP3   OH215773   5.056   6.495   0.353
 5270TIP3    H115774   5.149   6.511   0.368
 5270TIP3    H215775   5.032   6.433   0.422
 5271TIP3   OH215776   2.130   6.668   2.339
 5271TIP3    H115777   2.150   6.688   2.248
 5271TIP3    H215778   2.096   6.579   2.338
 5272TIP3   OH215779   2.689   6.648   3.702
 5272TIP3    H115780   2.636   6.645   3.782
 5272TIP3    H215781   2.632   6.612   3.634
 5273TIP3   OH215782   6.010   1.595   2.294
 5273TIP3    H115783   6.078   1.629   2.353
 5273TIP3    H215784   5.928   1.620   2.336
 5274TIP3   OH215785   4.916   5.296   5.098
 5274TIP3    H115786   4.997   5.343   5.117
 5274TIP3    H215787   4.864   5.358   5.047
 5275TIP3   OH215788   1.735   4.975   0.979
 5275TIP3    H115789   1.713   5.029   0.903
 5275TIP3    H215790   1.650   4.949   1.015
 5276TIP3   OH215791   4.582   0.047   3.143
 5276TIP3    H115792   4.602   0.013   3.056
 5276TIP3    H215793   4.547  -0.028   3.191
 5277TIP3   OH215794   5.556  -0.021   3.890
 5277TIP3    H115795   5.528   0.055   3.838
 5277TIP3    H215796   5.591   0.016   3.971
 5278TIP3   OH215797   2.963   2.987   2.221
 5278TIP3    H115798   3.042   2.936   2.239
 5278TIP3    H215799   2.994   3.077   2.213
 5279TIP3   OH215800   1.556   2.025   4.842
 5279TIP3    H115801   1.516   1.939   4.830
 5279TIP3    H215802   1.645   2.007   4.871
 5280TIP3   OH215803   1.431   3.087   1.974
 5280TIP3    H115804   1.365   3.042   1.921
 5280TIP3    H215805   1.505   3.025   1.978
 5281TIP3   OH215806   4.745   6.156   5.299
 5281TIP3    H115807   4.663   6.111   5.278
 5281TIP3    H215808   4.721   6.218   5.368
 5282TIP3   OH215809   0.304   3.756   0.812
 5282TIP3    H115810   0.214   3.784   0.798
 5282TIP3    H215811   0.321   3.694   0.741
 5283TIP3   OH215812   3.899   6.547   2.255
 5283TIP3    H115813   3.871   6.637   2.240
 5283TIP3    H215814   3.963   6.553   2.326
 5284TIP3   OH215815   2.974   5.260   1.054
 5284TIP3    H115816   2.924   5.204   1.113
 5284TIP3    H215817   3.010   5.199   0.989
 5285TIP3   OH215818   1.805   2.158   4.280
 5285TIP3    H115819   1.900   2.156   4.264
 5285TIP3    H215820   1.783   2.070   4.308
 5286TIP3   OH215821   2.884   3.923   1.755
 5286TIP3    H115822   2.919   3.903   1.842
 5286TIP3    H215823   2.803   3.873   1.750
 5287TIP3   OH215824   0.980   3.103   5.335
 5287TIP3    H115825   1.019   3.091   5.421
 5287TIP3    H215826   1.033   3.048   5.277
 5288TIP3   OH215827   1.112   5.327   4.203
 5288TIP3    H115828   1.156   5.244   4.224
 5288TIP3    H215829   1.080   5.314   4.114
 5289TIP3   OH215830   3.968   2.669   2.501
 5289TIP3    H115831   4.051   2.647   2.460
 5289TIP3    H215832   3.965   2.765   2.498
 5290TIP3   OH215833   1.377   3.910   0.257
 5290TIP3    H115834   1.387   3.822   0.221
 5290TIP3    H215835   1.323   3.956   0.192
 5291TIP3   OH215836   3.609   0.062   1.910
 5291TIP3    H115837   3.629  -0.022   1.952
 5291TIP3    H215838   3.536   0.097   1.961
 5292TIP3   OH215839   1.307   4.665   4.748
 5292TIP3    H115840   1.373   4.618   4.697
 5292TIP3    H215841   1.353   4.743   4.781
 5293TIP3   OH215842   3.745   3.269   2.915
 5293TIP3    H115843   3.660   3.266   2.960
 5293TIP3    H215844   3.801   3.212   2.967
 5294TIP3   OH215845   6.071   4.904   3.829
 5294TIP3    H115846   6.071   4.958   3.908
 5294TIP3    H215847   5.978   4.886   3.812
 5295TIP3   OH215848   4.349   1.813   2.091
 5295TIP3    H115849   4.405   1.738   2.070
 5295TIP3    H215850   4.381   1.884   2.036
 5296TIP3   OH215851   6.590   3.514   5.687
 5296TIP3    H115852   6.539   3.566   5.624
 5296TIP3    H215853   6.606   3.431   5.642
 5297TIP3   OH215854   1.113   3.614   2.291
 5297TIP3    H115855   1.156   3.529   2.288
 5297TIP3    H215856   1.179   3.673   2.328
 5298TIP3   OH215857   2.797   2.007   4.382
 5298TIP3    H115858   2.880   2.020   4.428
 5298TIP3    H215859   2.753   2.092   4.389
 5299TIP3   OH215860   4.202   3.451   5.587
 5299TIP3    H115861   4.210   3.424   5.496
 5299TIP3    H215862   4.167   3.540   5.584
 5300TIP3   OH215863   6.171   0.177   2.458
 5300TIP3    H115864   6.113   0.245   2.423
 5300TIP3    H215865   6.182   0.115   2.386
 5301TIP3   OH215866   0.621   4.678   5.630
 5301TIP3    H115867   0.583   4.748   5.684
 5301TIP3    H215868   0.663   4.619   5.693
 5302TIP3   OH215869   3.621   5.016   3.923
 5302TIP3    H115870   3.694   5.040   3.865
 5302TIP3    H215871   3.663   4.993   4.006
 5303TIP3   OH215872   4.140   3.242   3.171
 5303TIP3    H115873   4.088   3.299   3.115
 5303TIP3    H215874   4.093   3.159   3.173
 5304TIP3   OH215875   2.071   3.145   3.102
 5304TIP3    H115876   2.112   3.061   3.080
 5304TIP3    H215877   2.136   3.210   3.075
 5305TIP3   OH215878   2.830   1.451   4.231
 5305TIP3    H115879   2.861   1.525   4.282
 5305TIP3    H215880   2.805   1.488   4.146
 5306TIP3   OH215881   3.187   3.714   5.054
 5306TIP3    H115882   3.231   3.742   4.974
 5306TIP3    H215883   3.233   3.761   5.124
 5307TIP3   OH215884   5.619   5.126   1.575
 5307TIP3    H115885   5.542   5.182   1.569
 5307TIP3    H215886   5.644   5.130   1.667
 5308TIP3   OH215887   5.490   3.351   2.988
 5308TIP3    H115888   5.404   3.385   2.965
 5308TIP3    H215889   5.473   3.275   3.043
 5309TIP3   OH215890   3.574   4.160   4.280
 5309TIP3    H115891   3.579   4.065   4.273
 5309TIP3    H215892   3.587   4.177   4.374
 5310TIP3   OH215893   0.546   2.573   1.367
 5310TIP3    H115894   0.517   2.664   1.373
 5310TIP3    H215895   0.637   2.575   1.397
 5311TIP3   OH215896   6.255   0.445   0.351
 5311TIP3    H115897   6.210   0.527   0.329
 5311TIP3    H215898   6.323   0.471   0.413
 5312TIP3   OH215899   0.803   2.360   3.081
 5312TIP3    H115900   0.740   2.332   3.015
 5312TIP3    H215901   0.839   2.442   3.049
 5313TIP3   OH215902   0.080   4.943   3.506
 5313TIP3    H115903   0.157   4.894   3.477
 5313TIP3    H215904   0.021   4.877   3.542
 5314TIP3   OH215905   0.488   2.825   1.250
 5314TIP3    H115906   0.416   2.846   1.191
 5314TIP3    H215907   0.557   2.791   1.192
 5315TIP3   OH215908   3.097   0.555   5.298
 5315TIP3    H115909   3.076   0.531   5.389
 5315TIP3    H215910   3.013   0.576   5.258
 5316TIP3   OH215911   4.010   1.456   4.690
 5316TIP3    H115912   4.064   1.425   4.762
 5316TIP3    H215913   3.921   1.429   4.713
 5317TIP3   OH215914   4.981   6.282   2.773
 5317TIP3    H115915   4.916   6.232   2.723
 5317TIP3    H215916   5.040   6.216   2.809
 5318TIP3   OH215917   6.534   4.076   3.830
 5318TIP3    H115918   6.551   4.118   3.914
 5318TIP3    H215919   6.510   4.147   3.771
 5319TIP3   OH215920   3.008   3.786   1.951
 5319TIP3    H115921   3.089   3.834   1.971
 5319TIP3    H215922   2.983   3.747   2.034
 5320TIP3   OH215923   1.295   4.267   4.391
 5320TIP3    H115924   1.313   4.234   4.479
 5320TIP3    H215925   1.246   4.197   4.348
 5321TIP3   OH215926   2.195   4.242   2.934
 5321TIP3    H115927   2.150   4.159   2.921
 5321TIP3    H215928   2.150   4.282   3.009
 5322TIP3   OH215929   0.960   3.324   3.454
 5322TIP3    H115930   1.019   3.400   3.455
 5322TIP3    H215931   1.018   3.248   3.447
 5323TIP3   OH215932   2.073   4.886   3.922
 5323TIP3    H115933   2.036   4.869   4.008
 5323TIP3    H215934   2.092   4.980   3.922
 5324TIP3   OH215935   6.355   0.223   5.180
 5324TIP3    H115936   6.355   0.238   5.086
 5324TIP3    H215937   6.275   0.265   5.211
 5325TIP3   OH215938   6.515   5.395   2.668
 5325TIP3    H115939   6.459   5.353   2.603
 5325TIP3    H215940   6.571   5.325   2.702
 5326TIP3   OH215941   0.247   3.928   0.406
 5326TIP3    H115942   0.170   3.951   0.354
 5326TIP3    H215943   0.222   3.949   0.496
 5327TIP3   OH215944   6.481   4.929   0.856
 5327TIP3    H115945   6.515   4.917   0.768
 5327TIP3    H215946   6.511   4.852   0.904
 5328TIP3   OH215947   1.877   2.325   1.229
 5328TIP3    H115948   1.851   2.416   1.247
 5328TIP3    H215949   1.926   2.330   1.147
 5329TIP3   OH215950   5.455   5.611   0.171
 5329TIP3    H115951   5.524   5.630   0.107
 5329TIP3    H215952   5.380   5.584   0.117
 5330TIP3   OH215953   3.291   2.158   2.696
 5330TIP3    H115954   3.360   2.143   2.631
 5330TIP3    H215955   3.337   2.186   2.775
 5331TIP3   OH215956   5.588   6.161   3.363
 5331TIP3    H115957   5.629   6.237   3.404
 5331TIP3    H215958   5.496   6.187   3.351
 5332TIP3   OH215959   4.081   1.367   1.610
 5332TIP3    H115960   4.019   1.404   1.547
 5332TIP3    H215961   4.160   1.350   1.560
 5333TIP3   OH215962   0.497   5.200   3.197
 5333TIP3    H115963   0.489   5.123   3.253
 5333TIP3    H215964   0.446   5.178   3.119
 5334TIP3   OH215965   0.549   1.425   2.152
 5334TIP3    H115966   0.493   1.369   2.099
 5334TIP3    H215967   0.637   1.388   2.141
 5335TIP3   OH215968   5.555   5.516   2.409
 5335TIP3    H115969   5.574   5.609   2.417
 5335TIP3    H215970   5.541   5.486   2.499
 5336TIP3   OH215971   2.915   6.357   1.527
 5336TIP3    H115972   2.924   6.351   1.623
 5336TIP3    H215973   2.918   6.451   1.509
 5337TIP3   OH215974   3.122   5.208   0.550
 5337TIP3    H115975   3.051   5.213   0.614
 5337TIP3    H215976   3.146   5.115   0.548
 5338TIP3   OH215977   5.977   0.881   1.757
 5338TIP3    H115978   5.920   0.893   1.833
 5338TIP3    H215979   6.058   0.845   1.794
 5339TIP3   OH215980   4.834   4.661   4.902
 5339TIP3    H115981   4.913   4.705   4.869
 5339TIP3    H215982   4.768   4.730   4.906
 5340TIP3   OH215983   5.922   1.220   5.669
 5340TIP3    H115984   5.897   1.135   5.705
 5340TIP3    H215985   5.861   1.235   5.597
 5341TIP3   OH215986   2.392   0.179   1.670
 5341TIP3    H115987   2.474   0.129   1.661
 5341TIP3    H215988   2.420   0.270   1.674
 5342TIP3   OH215989   1.595   2.444   5.432
 5342TIP3    H115990   1.665   2.380   5.425
 5342TIP3    H215991   1.618   2.497   5.508
 5343TIP3   OH215992   4.700   1.717   4.674
 5343TIP3    H115993   4.767   1.681   4.731
 5343TIP3    H215994   4.628   1.654   4.680
 5344TIP3   OH215995   4.246   3.370   3.833
 5344TIP3    H115996   4.190   3.424   3.887
 5344TIP3    H215997   4.322   3.425   3.814
 5345TIP3   OH215998   1.119   2.487   3.218
 5345TIP3    H115999   1.212   2.478   3.202
 5345TIP3    H216000   1.103   2.434   3.297
 5346TIP3   OH216001   2.867   6.146   3.795
 5346TIP3    H116002   2.886   6.187   3.710
 5346TIP3    H216003   2.954   6.128   3.832
 5347TIP3   OH216004   5.477   1.539   1.832
 5347TIP3    H116005   5.508   1.618   1.787
 5347TIP3    H216006   5.388   1.559   1.858
 5348TIP3   OH216007   0.041   6.170   4.689
 5348TIP3    H116008   0.008   6.148   4.602
 5348TIP3    H216009   0.121   6.219   4.673
 5349TIP3   OH216010   6.041   1.964   1.748
 5349TIP3    H116011   5.988   1.884   1.750
 5349TIP3    H216012   5.983   2.029   1.708
 5350TIP3   OH216013   0.454   5.966   1.533
 5350TIP3    H116014   0.375   5.924   1.498
 5350TIP3    H216015   0.434   6.059   1.534
 5351TIP3   OH216016   2.130   1.011   4.977
 5351TIP3    H116017   2.137   0.932   4.924
 5351TIP3    H216018   2.221   1.041   4.987
 5352TIP3   OH216019   3.248   5.744   0.573
 5352TIP3    H116020   3.262   5.651   0.553
 5352TIP3    H216021   3.153   5.754   0.573
 5353TIP3   OH216022   2.509   3.125   5.790
 5353TIP3    H116023   2.449   3.053   5.774
 5353TIP3    H216024   2.452   3.200   5.808
 5354TIP3   OH216025   6.403   1.645   1.302
 5354TIP3    H116026   6.440   1.570   1.256
 5354TIP3    H216027   6.319   1.661   1.259
 5355TIP3   OH216028   0.640   6.555   4.716
 5355TIP3    H116029   0.672   6.559   4.806
 5355TIP3    H216030   0.566   6.616   4.714
 5356TIP3   OH216031   2.924   0.105   5.652
 5356TIP3    H116032   2.905   0.011   5.661
 5356TIP3    H216033   2.984   0.110   5.577
 5357TIP3   OH216034   3.685   4.211   3.117
 5357TIP3    H116035   3.665   4.305   3.117
 5357TIP3    H216036   3.764   4.204   3.171
 5358TIP3   OH216037   6.623   2.545   3.428
 5358TIP3    H116038   6.573   2.468   3.400
 5358TIP3    H216039   6.598   2.613   3.365
 5359TIP3   OH216040   0.150   3.874   1.164
 5359TIP3    H116041   0.236   3.845   1.133
 5359TIP3    H216042   0.101   3.793   1.178
 5360TIP3   OH216043   1.803   3.499   2.516
 5360TIP3    H116044   1.837   3.563   2.579
 5360TIP3    H216045   1.739   3.449   2.566
 5361TIP3   OH216046   6.116   5.126   1.257
 5361TIP3    H116047   6.190   5.136   1.197
 5361TIP3    H216048   6.051   5.075   1.207
 5362TIP3   OH216049   1.189   4.454   5.783
 5362TIP3    H116050   1.134   4.392   5.831
 5362TIP3    H216051   1.160   4.446   5.692
 5363TIP3   OH216052   7.024   3.090   0.429
 5363TIP3    H116053   7.091   3.158   0.424
 5363TIP3    H216054   7.045   3.040   0.508
 5364TIP3   OH216055   0.414   5.414   0.352
 5364TIP3    H116056   0.467   5.493   0.358
 5364TIP3    H216057   0.332   5.435   0.397
 5365TIP3   OH216058   2.153   4.021   4.296
 5365TIP3    H116059   2.133   3.936   4.336
 5365TIP3    H216060   2.214   4.000   4.225
 5366TIP3   OH216061   3.954   5.046   3.490
 5366TIP3    H116062   4.012   4.993   3.546
 5366TIP3    H216063   3.990   5.036   3.402
 5367TIP3   OH216064   2.824   4.454   3.086
 5367TIP3    H116065   2.858   4.367   3.065
 5367TIP3    H216066   2.844   4.508   3.009
 5368TIP3   OH216067   4.593   1.265   5.058
 5368TIP3    H116068   4.498   1.265   5.072
 5368TIP3    H216069   4.623   1.181   5.092
 5369TIP3   OH216070   4.365   6.301   5.225
 5369TIP3    H116071   4.333   6.357   5.296
 5369TIP3    H216072   4.449   6.340   5.200
 5370TIP3   OH216073   1.703   1.887   1.147
 5370TIP3    H116074   1.687   1.971   1.190
 5370TIP3    H216075   1.795   1.891   1.120
 5371TIP3   OH216076   4.316   5.552   5.836
 5371TIP3    H116077   4.332   5.459   5.850
 5371TIP3    H216078   4.289   5.558   5.744
 5372TIP3   OH216079   4.248   0.800   4.851
 5372TIP3    H116080   4.175   0.852   4.884
 5372TIP3    H216081   4.246   0.720   4.904
 5373TIP3   OH216082   3.236   4.081   1.221
 5373TIP3    H116083   3.303   4.069   1.288
 5373TIP3    H216084   3.173   4.142   1.261
 5374TIP3   OH216085   0.802   0.219   1.348
 5374TIP3    H116086   0.863   0.146   1.334
 5374TIP3    H216087   0.811   0.273   1.270
 5375TIP3   OH216088   6.286   1.951   5.281
 5375TIP3    H116089   6.199   1.989   5.268
 5375TIP3    H216090   6.288   1.926   5.373
 5376TIP3   OH216091   4.317   6.288   1.588
 5376TIP3    H116092   4.297   6.330   1.504
 5376TIP3    H216093   4.237   6.242   1.612
 5377TIP3   OH216094   6.378   2.295   2.815
 5377TIP3    H116095   6.386   2.250   2.899
 5377TIP3    H216096   6.466   2.326   2.795
 5378TIP3   OH216097   5.748   2.476   2.616
 5378TIP3    H116098   5.801   2.550   2.588
 5378TIP3    H216099   5.803   2.399   2.602
 5379TIP3   OH216100   0.589   4.539   3.052
 5379TIP3    H116101   0.680   4.566   3.063
 5379TIP3    H216102   0.548   4.557   3.136
 5380TIP3   OH216103   0.238   6.115   2.102
 5380TIP3    H116104   0.328   6.147   2.100
 5380TIP3    H216105   0.209   6.115   2.011
 5381TIP3   OH216106   6.554   2.872   2.149
 5381TIP3    H116107   6.519   2.927   2.079
 5381TIP3    H216108   6.478   2.849   2.202
 5382TIP3   OH216109   1.260   4.988   5.053
 5382TIP3    H116110   1.289   5.034   5.132
 5382TIP3    H216111   1.218   5.056   5.001
 5383TIP3   OH216112   1.567   5.577   2.857
 5383TIP3    H116113   1.662   5.571   2.855
 5383TIP3    H216114   1.540   5.576   2.765
 5384TIP3   OH216115   3.024   1.216   5.896
 5384TIP3    H116116   2.974   1.226   5.816
 5384TIP3    H216117   3.109   1.256   5.877
 5385TIP3   OH216118   5.093   3.513   0.400
 5385TIP3    H116119   5.146   3.463   0.338
 5385TIP3    H216120   5.085   3.600   0.361
 5386TIP3   OH216121   7.110   6.688   3.233
 5386TIP3    H116122   7.147   6.776   3.237
 5386TIP3    H216123   7.153   6.641   3.304
 5387TIP3   OH216124   1.252   0.235   0.765
 5387TIP3    H116125   1.308   0.169   0.725
 5387TIP3    H216126   1.193   0.185   0.821
 5388TIP3   OH216127   4.175   6.220   2.378
 5388TIP3    H116128   4.094   6.244   2.424
 5388TIP3    H216129   4.241   6.281   2.413
 5389TIP3   OH216130   0.983   5.630   0.036
 5389TIP3    H116131   0.985   5.725   0.034
 5389TIP3    H216132   1.063   5.602  -0.007
 5390TIP3   OH216133   1.316   5.971   0.961
 5390TIP3    H116134   1.257   6.031   0.916
 5390TIP3    H216135   1.330   6.010   1.047
 5391TIP3   OH216136   6.454   6.065   4.079
 5391TIP3    H116137   6.539   6.103   4.100
 5391TIP3    H216138   6.474   5.984   4.033
 5392TIP3   OH216139   4.213   5.976   4.881
 5392TIP3    H116140   4.185   5.956   4.791
 5392TIP3    H216141   4.307   5.960   4.881
 5393TIP3   OH216142   3.168   2.402   1.855
 5393TIP3    H116143   3.202   2.479   1.810
 5393TIP3    H216144   3.124   2.352   1.786
 5394TIP3   OH216145   6.534   1.232   2.787
 5394TIP3    H116146   6.577   1.241   2.872
 5394TIP3    H216147   6.603   1.204   2.727
 5395TIP3   OH216148   5.847   0.055   0.808
 5395TIP3    H116149   5.918  -0.005   0.787
 5395TIP3    H216150   5.833   0.105   0.728
 5396TIP3   OH216151   6.455   3.653   5.481
 5396TIP3    H116152   6.431   3.745   5.496
 5396TIP3    H216153   6.378   3.603   5.510
 5397TIP3   OH216154   5.361   2.988   1.183
 5397TIP3    H116155   5.337   3.057   1.121
 5397TIP3    H216156   5.378   2.911   1.128
 5398TIP3   OH216157   2.589   5.776   3.722
 5398TIP3    H116158   2.599   5.870   3.731
 5398TIP3    H216159   2.614   5.741   3.807
 5399TIP3   OH216160   5.875   0.034   5.365
 5399TIP3    H116161   5.813   0.105   5.346
 5399TIP3    H216162   5.867  -0.025   5.291
 5400TIP3   OH216163   1.267   6.368   1.461
 5400TIP3    H116164   1.272   6.453   1.417
 5400TIP3    H216165   1.294   6.386   1.551
 5401TIP3   OH216166   1.109   5.243   4.504
 5401TIP3    H116167   1.098   5.291   4.421
 5401TIP3    H216168   1.076   5.304   4.570
 5402TIP3   OH216169   1.529   0.524   1.219
 5402TIP3    H116170   1.613   0.504   1.259
 5402TIP3    H216171   1.546   0.524   1.125
 5403TIP3   OH216172   1.632   3.991   5.652
 5403TIP3    H116173   1.678   4.073   5.636
 5403TIP3    H216174   1.606   3.960   5.565
 5404TIP3   OH216175   4.649   1.582   0.043
 5404TIP3    H116176   4.730   1.549   0.082
 5404TIP3    H216177   4.668   1.674   0.023
 5405TIP3   OH216178   1.713   6.661   0.897
 5405TIP3    H116179   1.706   6.571   0.926
 5405TIP3    H216180   1.710   6.713   0.977
 5406TIP3   OH216181   5.626   2.010   4.423
 5406TIP3    H116182   5.699   1.971   4.470
 5406TIP3    H216183   5.637   1.979   4.333
 5407TIP3   OH216184   2.355   1.106   5.066
 5407TIP3    H116185   2.421   1.154   5.017
 5407TIP3    H216186   2.349   1.153   5.150
 5408TIP3   OH216187   0.327   1.313   1.489
 5408TIP3    H116188   0.407   1.277   1.527
 5408TIP3    H216189   0.285   1.239   1.446
 5409TIP3   OH216190   4.741   1.944   5.858
 5409TIP3    H116191   4.713   2.028   5.821
 5409TIP3    H216192   4.811   1.968   5.919
 5410TIP3   OH216193   4.721   0.152   2.556
 5410TIP3    H116194   4.752   0.062   2.543
 5410TIP3    H216195   4.716   0.188   2.468
 5411TIP3   OH216196   3.447   0.240   3.164
 5411TIP3    H116197   3.428   0.310   3.226
 5411TIP3    H216198   3.371   0.238   3.105
 5412TIP3   OH216199   1.833   2.609   3.029
 5412TIP3    H116200   1.778   2.686   3.020
 5412TIP3    H216201   1.790   2.542   2.975
 5413TIP3   OH216202   2.781   4.933   3.856
 5413TIP3    H116203   2.813   4.902   3.941
 5413TIP3    H216204   2.687   4.946   3.869
 5414TIP3   OH216205   3.372   3.012   1.852
 5414TIP3    H116206   3.448   3.068   1.834
 5414TIP3    H216207   3.384   2.983   1.942
 5415TIP3   OH216208   5.140   0.217   4.551
 5415TIP3    H116209   5.211   0.195   4.610
 5415TIP3    H216210   5.182   0.232   4.466
 5416TIP3   OH216211   6.102   3.678   2.832
 5416TIP3    H116212   6.085   3.651   2.742
 5416TIP3    H216213   6.195   3.660   2.846
 5417TIP3   OH216214   6.629   5.199   3.558
 5417TIP3    H116215   6.693   5.212   3.488
 5417TIP3    H216216   6.681   5.173   3.633
 5418TIP3   OH216217   1.173   2.441   0.858
 5418TIP3    H116218   1.094   2.387   0.854
 5418TIP3    H216219   1.232   2.394   0.916
 5419TIP3   OH216220   3.761   6.166   3.463
 5419TIP3    H116221   3.703   6.130   3.530
 5419TIP3    H216222   3.722   6.250   3.439
 5420TIP3   OH216223   5.050   4.246   2.547
 5420TIP3    H116224   4.992   4.321   2.560
 5420TIP3    H216225   4.993   4.177   2.514
 5421TIP3   OH216226   1.074   4.058   3.601
 5421TIP3    H116227   1.076   4.072   3.696
 5421TIP3    H216228   1.166   4.052   3.575
 5422TIP3   OH216229   5.558   6.709   2.531
 5422TIP3    H116230   5.528   6.799   2.545
 5422TIP3    H216231   5.529   6.688   2.442
 5423TIP3   OH216232   5.563   0.538   5.697
 5423TIP3    H116233   5.590   0.629   5.707
 5423TIP3    H216234   5.643   0.492   5.669
 5424TIP3   OH216235   2.988   2.245   2.451
 5424TIP3    H116236   2.914   2.233   2.391
 5424TIP3    H216237   3.064   2.216   2.401
 5425TIP3   OH216238   5.899   0.846   3.010
 5425TIP3    H116239   5.892   0.917   3.073
 5425TIP3    H216240   5.832   0.866   2.944
 5426TIP3   OH216241   0.897   5.304   5.840
 5426TIP3    H116242   0.936   5.384   5.873
 5426TIP3    H216243   0.818   5.332   5.794
 5427TIP3   OH216244   4.012   2.619   2.861
 5427TIP3    H116245   3.977   2.530   2.874
 5427TIP3    H216246   4.062   2.613   2.780
 5428TIP3   OH216247   6.347   5.860   5.744
 5428TIP3    H116248   6.294   5.871   5.665
 5428TIP3    H216249   6.414   5.796   5.718
 5429TIP3   OH216250   3.590   6.059   3.256
 5429TIP3    H116251   3.560   6.078   3.167
 5429TIP3    H216252   3.680   6.093   3.258
 5430TIP3   OH216253   5.953   0.299   2.012
 5430TIP3    H116254   5.909   0.214   2.011
 5430TIP3    H216255   5.890   0.358   1.971
 5431TIP3   OH216256   6.727   1.171   2.602
 5431TIP3    H116257   6.804   1.225   2.585
 5431TIP3    H216258   6.693   1.151   2.514
 5432TIP3   OH216259   4.801   4.086   4.018
 5432TIP3    H116260   4.744   4.010   4.020
 5432TIP3    H216261   4.742   4.162   4.020
 5433TIP3   OH216262   0.332   5.240   1.035
 5433TIP3    H116263   0.371   5.234   1.122
 5433TIP3    H216264   0.238   5.248   1.051
 5434TIP3   OH216265   1.863   4.650   1.448
 5434TIP3    H116266   1.776   4.625   1.476
 5434TIP3    H216267   1.856   4.662   1.353
 5435TIP3   OH216268   5.892   1.170   4.754
 5435TIP3    H116269   5.870   1.093   4.703
 5435TIP3    H216270   5.953   1.219   4.698
 5436TIP3   OH216271   2.209   0.651   1.330
 5436TIP3    H116272   2.303   0.661   1.315
 5436TIP3    H216273   2.169   0.714   1.271
 5437TIP3   OH216274   3.972   5.690   1.348
 5437TIP3    H116275   4.000   5.725   1.264
 5437TIP3    H216276   3.934   5.605   1.327
 5438TIP3   OH216277   6.378   0.795   1.366
 5438TIP3    H116278   6.415   0.741   1.296
 5438TIP3    H216279   6.430   0.773   1.443
 5439TIP3   OH216280   3.833   3.824   0.165
 5439TIP3    H116281   3.884   3.864   0.236
 5439TIP3    H216282   3.808   3.897   0.109
 5440TIP3   OH216283   5.156   1.878   4.644
 5440TIP3    H116284   5.067   1.872   4.609
 5440TIP3    H216285   5.180   1.970   4.631
 5441TIP3   OH216286   2.687   4.948   3.206
 5441TIP3    H116287   2.781   4.965   3.217
 5441TIP3    H216288   2.667   4.982   3.118
 5442TIP3   OH216289   6.741   0.430   4.099
 5442TIP3    H116290   6.773   0.343   4.079
 5442TIP3    H216291   6.657   0.436   4.053
 5443TIP3   OH216292   2.166   1.181   4.760
 5443TIP3    H116293   2.225   1.111   4.789
 5443TIP3    H216294   2.083   1.163   4.805
 5444TIP3   OH216295   2.572   3.572   0.883
 5444TIP3    H116296   2.625   3.492   0.875
 5444TIP3    H216297   2.625   3.631   0.936
 5445TIP3   OH216298   0.095   1.491   5.373
 5445TIP3    H116299   0.054   1.500   5.287
 5445TIP3    H216300   0.076   1.401   5.400
 5446TIP3   OH216301   1.255   0.209   4.401
 5446TIP3    H116302   1.177   0.241   4.445
 5446TIP3    H216303   1.326   0.264   4.434
 5447TIP3   OH216304   3.548   6.131   4.961
 5447TIP3    H116305   3.567   6.151   5.052
 5447TIP3    H216306   3.575   6.039   4.950
 5448TIP3   OH216307   2.823   1.706   1.369
 5448TIP3    H116308   2.776   1.644   1.425
 5448TIP3    H216309   2.844   1.654   1.291
 5449TIP3   OH216310   2.611   5.539   4.357
 5449TIP3    H116311   2.580   5.630   4.348
 5449TIP3    H216312   2.691   5.547   4.410
 5450TIP3   OH216313   0.410   2.426   0.348
 5450TIP3    H116314   0.336   2.486   0.358
 5450TIP3    H216315   0.409   2.401   0.255
 5451TIP3   OH216316   5.160   6.052   2.822
 5451TIP3    H116317   5.159   5.960   2.796
 5451TIP3    H216318   5.250   6.081   2.805
 5452TIP3   OH216319   6.752   3.819   4.330
 5452TIP3    H116320   6.715   3.833   4.243
 5452TIP3    H216321   6.732   3.899   4.378
 5453TIP3   OH216322   1.920   6.399   1.700
 5453TIP3    H116323   1.835   6.401   1.654
 5453TIP3    H216324   1.931   6.307   1.724
 5454TIP3   OH216325   2.523   5.301   3.840
 5454TIP3    H116326   2.470   5.222   3.830
 5454TIP3    H216327   2.613   5.272   3.824
 5455TIP3   OH216328   7.057   6.593   4.177
 5455TIP3    H116329   6.963   6.578   4.175
 5455TIP3    H216330   7.096   6.508   4.155
 5456TIP3   OH216331   6.647   2.362   3.037
 5456TIP3    H116332   6.586   2.431   3.064
 5456TIP3    H216333   6.658   2.375   2.943
 5457TIP3   OH216334   4.351   4.643   3.110
 5457TIP3    H116335   4.337   4.731   3.075
 5457TIP3    H216336   4.268   4.599   3.096
 5458TIP3   OH216337   3.152   2.014   0.271
 5458TIP3    H116338   3.143   2.020   0.366
 5458TIP3    H216339   3.242   1.982   0.257
 5459TIP3   OH216340   4.149   1.427   4.068
 5459TIP3    H116341   4.188   1.350   4.109
 5459TIP3    H216342   4.113   1.396   3.986
 5460TIP3   OH216343   3.203   5.596   3.870
 5460TIP3    H116344   3.111   5.622   3.880
 5460TIP3    H216345   3.212   5.518   3.925
 5461TIP3   OH216346   1.368   5.407   5.388
 5461TIP3    H116347   1.426   5.343   5.347
 5461TIP3    H216348   1.283   5.363   5.393
 5462TIP3   OH216349   2.392   3.556   3.534
 5462TIP3    H116350   2.456   3.547   3.464
 5462TIP3    H216351   2.442   3.543   3.614
 5463TIP3   OH216352   1.553   4.989   3.368
 5463TIP3    H116353   1.624   4.988   3.433
 5463TIP3    H216354   1.533   5.081   3.355
 5464TIP3   OH216355   0.939   4.554   1.918
 5464TIP3    H116356   0.883   4.631   1.915
 5464TIP3    H216357   0.890   4.491   1.971
 5465TIP3   OH216358   1.028   0.816   1.196
 5465TIP3    H116359   0.962   0.755   1.165
 5465TIP3    H216360   1.027   0.888   1.133
 5466TIP3   OH216361   1.617   6.145   1.529
 5466TIP3    H116362   1.708   6.117   1.541
 5466TIP3    H216363   1.567   6.063   1.526
 5467TIP3   OH216364   6.276   4.575   1.673
 5467TIP3    H116365   6.290   4.510   1.742
 5467TIP3    H216366   6.262   4.657   1.721
 5468TIP3   OH216367   6.094   1.443   5.699
 5468TIP3    H116368   6.037   1.519   5.705
 5468TIP3    H216369   6.037   1.371   5.673
 5469TIP3   OH216370   3.708   4.603   1.124
 5469TIP3    H116371   3.658   4.678   1.091
 5469TIP3    H216372   3.701   4.610   1.219
 5470TIP3   OH216373   1.042   4.363   1.740
 5470TIP3    H116374   1.130   4.357   1.776
 5470TIP3    H216375   1.005   4.441   1.781
 5471TIP3   OH216376   6.902   3.454   1.669
 5471TIP3    H116377   6.968   3.508   1.712
 5471TIP3    H216378   6.879   3.388   1.734
 5472TIP3   OH216379   4.338   0.500   4.595
 5472TIP3    H116380   4.390   0.550   4.658
 5472TIP3    H216381   4.248   0.529   4.609
 5473TIP3   OH216382   1.744   0.937   0.231
 5473TIP3    H116383   1.653   0.946   0.260
 5473TIP3    H216384   1.747   0.981   0.147
 5474TIP3   OH216385   1.652   1.182   1.897
 5474TIP3    H116386   1.584   1.133   1.943
 5474TIP3    H216387   1.727   1.181   1.957
 5475TIP3   OH216388   0.643   2.064   1.239
 5475TIP3    H116389   0.548   2.073   1.252
 5475TIP3    H216390   0.678   2.057   1.327
 5476TIP3   OH216391   1.490   0.987   0.357
 5476TIP3    H116392   1.437   1.048   0.306
 5476TIP3    H216393   1.536   1.042   0.420
 5477TIP3   OH216394   5.736   3.596   5.372
 5477TIP3    H116395   5.831   3.603   5.368
 5477TIP3    H216396   5.705   3.655   5.303
 5478TIP3   OH216397   7.236   6.576   4.593
 5478TIP3    H116398   7.147   6.588   4.560
 5478TIP3    H216399   7.282   6.531   4.522
 5479TIP3   OH216400   3.668   0.113   3.084
 5479TIP3    H116401   3.606   0.171   3.126
 5479TIP3    H216402   3.754   0.146   3.111
 5480TIP3   OH216403   5.630   4.527   1.219
 5480TIP3    H116404   5.673   4.465   1.278
 5480TIP3    H216405   5.627   4.482   1.135
 5481TIP3   OH216406   4.116   1.549   0.364
 5481TIP3    H116407   4.108   1.559   0.458
 5481TIP3    H216408   4.068   1.468   0.345
 5482TIP3   OH216409   6.844   5.930   4.907
 5482TIP3    H116410   6.858   6.023   4.886
 5482TIP3    H216411   6.855   5.885   4.823
 5483TIP3   OH216412   4.641   0.799   3.634
 5483TIP3    H116413   4.603   0.766   3.553
 5483TIP3    H216414   4.655   0.721   3.687
 5484TIP3   OH216415   0.398   1.235   1.166
 5484TIP3    H116416   0.387   1.285   1.247
 5484TIP3    H216417   0.413   1.302   1.099
 5485TIP3   OH216418   2.822   1.579   2.710
 5485TIP3    H116419   2.750   1.641   2.700
 5485TIP3    H216420   2.788   1.498   2.672
 5486TIP3   OH216421   7.069   6.319   0.695
 5486TIP3    H116422   7.052   6.410   0.673
 5486TIP3    H216423   7.124   6.323   0.773
 5487TIP3   OH216424   4.914   0.497   3.466
 5487TIP3    H116425   4.893   0.582   3.428
 5487TIP3    H216426   4.843   0.480   3.528
 5488TIP3   OH216427   5.992   3.699   1.816
 5488TIP3    H116428   5.915   3.642   1.820
 5488TIP3    H216429   5.987   3.751   1.896
 5489TIP3   OH216430   1.351   2.223   3.211
 5489TIP3    H116431   1.352   2.210   3.306
 5489TIP3    H216432   1.443   2.237   3.189
 5490TIP3   OH216433   5.201   2.332   1.687
 5490TIP3    H116434   5.251   2.387   1.748
 5490TIP3    H216435   5.120   2.312   1.733
 5491TIP3   OH216436   2.534   0.151   3.038
 5491TIP3    H116437   2.495   0.213   2.977
 5491TIP3    H216438   2.463   0.127   3.097
 5492TIP3   OH216439   3.905   6.763   5.564
 5492TIP3    H116440   3.872   6.700   5.500
 5492TIP3    H216441   3.986   6.796   5.526
 5493TIP3   OH216442   2.738   6.642   1.271
 5493TIP3    H116443   2.700   6.709   1.215
 5493TIP3    H216444   2.784   6.583   1.210
 5494TIP3   OH216445   5.637   1.294   2.802
 5494TIP3    H116446   5.659   1.361   2.866
 5494TIP3    H216447   5.551   1.320   2.768
 5495TIP3   OH216448   5.554   2.727   4.614
 5495TIP3    H116449   5.588   2.776   4.539
 5495TIP3    H216450   5.621   2.736   4.681
 5496TIP3   OH216451   4.259   0.118   3.647
 5496TIP3    H116452   4.302   0.066   3.715
 5496TIP3    H216453   4.196   0.173   3.694
 5497TIP3   OH216454   1.008   6.287   1.422
 5497TIP3    H116455   0.982   6.373   1.453
 5497TIP3    H216456   1.103   6.285   1.431
 5498TIP3   OH216457   2.706   6.304   5.787
 5498TIP3    H116458   2.746   6.237   5.841
 5498TIP3    H216459   2.734   6.284   5.698
 5499TIP3   OH216460   3.881   5.768   4.288
 5499TIP3    H116461   3.886   5.807   4.201
 5499TIP3    H216462   3.955   5.708   4.291
 5500TIP3   OH216463   2.764   0.177   5.896
 5500TIP3    H116464   2.812   0.158   5.816
 5500TIP3    H216465   2.798   0.262   5.925
 5501TIP3   OH216466   5.371   1.905   2.727
 5501TIP3    H116467   5.451   1.915   2.779
 5501TIP3    H216468   5.300   1.926   2.787
 5502TIP3   OH216469   4.673   0.665   5.877
 5502TIP3    H116470   4.756   0.682   5.832
 5502TIP3    H216471   4.683   0.708   5.962
 5503TIP3   OH216472   1.447   2.586   2.625
 5503TIP3    H116473   1.395   2.666   2.639
 5503TIP3    H216474   1.515   2.613   2.563
 5504TIP3   OH216475   0.175   3.461   2.627
 5504TIP3    H116476   0.105   3.396   2.623
 5504TIP3    H216477   0.195   3.479   2.535
 5505TIP3   OH216478   0.064   6.639   5.087
 5505TIP3    H116479   0.040   6.582   5.014
 5505TIP3    H216480   0.124   6.587   5.140
 5506TIP3   OH216481   1.862   4.678   0.929
 5506TIP3    H116482   1.899   4.593   0.952
 5506TIP3    H216483   1.769   4.660   0.915
 5507TIP3   OH216484   1.140   4.930   1.982
 5507TIP3    H116485   1.090   4.963   1.907
 5507TIP3    H216486   1.173   5.009   2.025
 5508TIP3   OH216487   3.972   3.090   5.699
 5508TIP3    H116488   3.950   3.052   5.784
 5508TIP3    H216489   3.894   3.139   5.673
 5509TIP3   OH216490   3.609   4.932   0.397
 5509TIP3    H116491   3.570   4.997   0.338
 5509TIP3    H216492   3.542   4.864   0.405
 5510TIP3   OH216493   4.101   5.911   3.833
 5510TIP3    H116494   4.058   5.925   3.749
 5510TIP3    H216495   4.030   5.887   3.893
 5511TIP3   OH216496   6.619   0.908   4.794
 5511TIP3    H116497   6.530   0.874   4.806
 5511TIP3    H216498   6.669   0.832   4.764
 5512TIP3   OH216499   6.228   1.165   0.569
 5512TIP3    H116500   6.157   1.137   0.510
 5512TIP3    H216501   6.308   1.141   0.523
 5513TIP3   OH216502   2.747   6.019   3.041
 5513TIP3    H116503   2.653   6.007   3.043
 5513TIP3    H216504   2.781   5.956   3.104
 5514TIP3   OH216505   5.712   6.286   0.723
 5514TIP3    H116506   5.679   6.213   0.671
 5514TIP3    H216507   5.735   6.247   0.807
 5515TIP3   OH216508   4.643   4.201   1.143
 5515TIP3    H116509   4.639   4.228   1.051
 5515TIP3    H216510   4.553   4.176   1.164
 5516TIP3   OH216511   0.123   0.960   5.513
 5516TIP3    H116512   0.079   0.875   5.518
 5516TIP3    H216513   0.177   0.963   5.592
 5517TIP3   OH216514   6.761   3.906   5.298
 5517TIP3    H116515   6.695   3.848   5.261
 5517TIP3    H216516   6.758   3.984   5.242
 5518TIP3   OH216517   3.062   2.436   1.542
 5518TIP3    H116518   3.006   2.512   1.557
 5518TIP3    H216519   3.147   2.461   1.579
 5519TIP3   OH216520   4.613   2.684   0.177
 5519TIP3    H116521   4.688   2.650   0.227
 5519TIP3    H216522   4.626   2.649   0.089
 5520TIP3   OH216523   3.370   1.611   2.313
 5520TIP3    H116524   3.451   1.662   2.318
 5520TIP3    H216525   3.389   1.543   2.248
 5521TIP3   OH216526   4.684   5.541   1.903
 5521TIP3    H116527   4.672   5.609   1.969
 5521TIP3    H216528   4.778   5.542   1.883
 5522TIP3   OH216529   5.837   0.371   5.078
 5522TIP3    H116530   5.790   0.331   5.151
 5522TIP3    H216531   5.926   0.381   5.110
 5523TIP3   OH216532   2.748   3.805   0.795
 5523TIP3    H116533   2.668   3.768   0.757
 5523TIP3    H216534   2.740   3.788   0.888
 5524TIP3   OH216535   5.460   3.376   5.134
 5524TIP3    H116536   5.391   3.421   5.085
 5524TIP3    H216537   5.511   3.330   5.067
 5525TIP3   OH216538   6.612   4.175   4.801
 5525TIP3    H116539   6.681   4.119   4.836
 5525TIP3    H216540   6.654   4.222   4.729
 5526TIP3   OH216541   4.999   0.574   0.972
 5526TIP3    H116542   4.945   0.500   1.000
 5526TIP3    H216543   4.937   0.633   0.928
 5527TIP3   OH216544   4.873   1.234   0.088
 5527TIP3    H116545   4.967   1.231   0.068
 5527TIP3    H216546   4.832   1.260   0.006
 5528TIP3   OH216547   1.490   0.532   2.155
 5528TIP3    H116548   1.494   0.554   2.248
 5528TIP3    H216549   1.524   0.442   2.150
 5529TIP3   OH216550   4.040   4.141   2.487
 5529TIP3    H116551   4.065   4.125   2.396
 5529TIP3    H216552   4.105   4.093   2.539
 5530TIP3   OH216553   1.643   4.763   3.220
 5530TIP3    H116554   1.725   4.734   3.260
 5530TIP3    H216555   1.613   4.835   3.276
 5531TIP3   OH216556   2.696   0.765   0.234
 5531TIP3    H116557   2.722   0.784   0.143
 5531TIP3    H216558   2.775   0.731   0.275
 5532TIP3   OH216559   3.417   4.340   3.580
 5532TIP3    H116560   3.352   4.355   3.648
 5532TIP3    H216561   3.451   4.252   3.598
 5533TIP3   OH216562   7.191   0.492   5.499
 5533TIP3    H116563   7.170   0.412   5.451
 5533TIP3    H216564   7.172   0.471   5.590
 5534TIP3   OH216565   3.731   4.641   2.527
 5534TIP3    H116566   3.805   4.580   2.518
 5534TIP3    H216567   3.721   4.651   2.622
 5535TIP3   OH216568   4.512   4.450   1.302
 5535TIP3    H116569   4.567   4.399   1.361
 5535TIP3    H216570   4.544   4.427   1.215
 5536TIP3   OH216571   1.679   1.178   1.106
 5536TIP3    H116572   1.702   1.258   1.060
 5536TIP3    H216573   1.760   1.151   1.149
 5537TIP3   OH216574   2.248   2.429   5.880
 5537TIP3    H116575   2.301   2.383   5.814
 5537TIP3    H216576   2.312   2.466   5.941
 5538TIP3   OH216577   4.502   5.540   4.813
 5538TIP3    H116578   4.414   5.513   4.788
 5538TIP3    H216579   4.538   5.582   4.734
 5539TIP3   OH216580   2.766   3.406   5.586
 5539TIP3    H116581   2.671   3.409   5.575
 5539TIP3    H216582   2.781   3.449   5.670
 5540TIP3   OH216583   1.162   4.052   4.264
 5540TIP3    H116584   1.197   3.982   4.209
 5540TIP3    H216585   1.070   4.030   4.276
 5541TIP3   OH216586   6.680   1.857   2.408
 5541TIP3    H116587   6.709   1.780   2.358
 5541TIP3    H216588   6.708   1.839   2.497
 5542TIP3   OH216589   1.326   1.361   0.591
 5542TIP3    H116590   1.354   1.442   0.634
 5542TIP3    H216591   1.315   1.299   0.663
 5543TIP3   OH216592   0.778   4.268   1.733
 5543TIP3    H116593   0.761   4.195   1.673
 5543TIP3    H216594   0.873   4.279   1.731
 5544TIP3   OH216595   1.268   1.905   4.488
 5544TIP3    H116596   1.328   1.833   4.470
 5544TIP3    H216597   1.189   1.883   4.438
 5545TIP3   OH216598   3.447   3.472   5.023
 5545TIP3    H116599   3.477   3.443   5.109
 5545TIP3    H216600   3.512   3.537   4.995
 5546TIP3   OH216601   3.457   3.696   4.165
 5546TIP3    H116602   3.495   3.753   4.097
 5546TIP3    H216603   3.532   3.648   4.200
 5547TIP3   OH216604   4.571   4.991   4.366
 5547TIP3    H116605   4.621   5.066   4.397
 5547TIP3    H216606   4.493   5.030   4.325
 5548TIP3   OH216607   2.480   2.871   5.575
 5548TIP3    H116608   2.513   2.957   5.548
 5548TIP3    H216609   2.389   2.887   5.599
 5549TIP3   OH216610   1.053   6.286   1.129
 5549TIP3    H116611   1.034   6.298   1.222
 5549TIP3    H216612   1.023   6.367   1.088
 5550TIP3   OH216613   5.590   3.044   4.862
 5550TIP3    H116614   5.615   3.128   4.900
 5550TIP3    H216615   5.504   3.025   4.898
 5551TIP3   OH216616   2.600   5.448   4.059
 5551TIP3    H116617   2.555   5.462   4.143
 5551TIP3    H216618   2.540   5.393   4.009
 5552TIP3   OH216619   2.528   6.374   3.071
 5552TIP3    H116620   2.493   6.287   3.091
 5552TIP3    H216621   2.461   6.415   3.015
 5553TIP3   OH216622   7.115   0.296   4.447
 5553TIP3    H116623   7.207   0.301   4.423
 5553TIP3    H216624   7.074   0.367   4.397
 5554TIP3   OH216625   1.783   5.984   0.607
 5554TIP3    H116626   1.800   6.065   0.655
 5554TIP3    H216627   1.690   5.966   0.621
 5555TIP3   OH216628   2.266   4.794   1.040
 5555TIP3    H116629   2.196   4.859   1.040
 5555TIP3    H216630   2.291   4.786   0.948
 5556TIP3   OH216631   1.776   3.370   3.418
 5556TIP3    H116632   1.791   3.462   3.400
 5556TIP3    H216633   1.857   3.326   3.392
 5557TIP3   OH216634   7.200   2.237   5.477
 5557TIP3    H116635   7.237   2.250   5.564
 5557TIP3    H216636   7.137   2.309   5.467
 5558TIP3   OH216637   3.567   5.736   1.950
 5558TIP3    H116638   3.609   5.667   2.000
 5558TIP3    H216639   3.530   5.691   1.874
 5559TIP3   OH216640   5.140   4.757   1.641
 5559TIP3    H116641   5.140   4.737   1.734
 5559TIP3    H216642   5.061   4.714   1.607
 5560TIP3   OH216643   1.980   5.943   1.565
 5560TIP3    H116644   2.032   5.901   1.496
 5560TIP3    H216645   1.924   5.873   1.599
 5561TIP3   OH216646   6.633   1.717   3.331
 5561TIP3    H116647   6.652   1.763   3.249
 5561TIP3    H216648   6.719   1.699   3.369
 5562TIP3   OH216649   1.837   3.950   1.486
 5562TIP3    H116650   1.754   3.955   1.439
 5562TIP3    H216651   1.812   3.955   1.579
 5563TIP3   OH216652   6.218   3.543   2.288
 5563TIP3    H116653   6.128   3.531   2.258
 5563TIP3    H216654   6.249   3.621   2.243
 5564TIP3   OH216655   5.374   3.679   0.717
 5564TIP3    H116656   5.445   3.743   0.715
 5564TIP3    H216657   5.318   3.703   0.643
 5565TIP3   OH216658   5.783   4.646   0.438
 5565TIP3    H116659   5.834   4.599   0.371
 5565TIP3    H216660   5.841   4.652   0.513
 5566TIP3   OH216661   7.164   4.650   2.706
 5566TIP3    H116662   7.164   4.556   2.690
 5566TIP3    H216663   7.076   4.679   2.681
 5567TIP3   OH216664   2.941   6.223   5.358
 5567TIP3    H116665   2.917   6.274   5.280
 5567TIP3    H216666   3.033   6.200   5.344
 5568TIP3   OH216667   7.054   3.100   3.499
 5568TIP3    H116668   7.061   3.041   3.423
 5568TIP3    H216669   6.964   3.089   3.529
 5569TIP3   OH216670   4.386   0.146   1.125
 5569TIP3    H116671   4.408   0.238   1.111
 5569TIP3    H216672   4.434   0.121   1.204
 5570TIP3   OH216673   4.901   5.510   1.735
 5570TIP3    H116674   4.905   5.569   1.659
 5570TIP3    H216675   4.993   5.495   1.758
 5571TIP3   OH216676   1.418   1.989   1.924
 5571TIP3    H116677   1.376   2.073   1.942
 5571TIP3    H216678   1.346   1.932   1.897
 5572TIP3   OH216679   7.151   3.561   2.094
 5572TIP3    H116680   7.236   3.578   2.135
 5572TIP3    H216681   7.140   3.466   2.100
 5573TIP3   OH216682   1.749   5.062   1.673
 5573TIP3    H116683   1.681   4.996   1.656
 5573TIP3    H216684   1.829   5.012   1.684
 5574TIP3   OH216685   0.944   1.516   0.640
 5574TIP3    H116686   0.961   1.540   0.732
 5574TIP3    H216687   0.852   1.491   0.638
 5575TIP3   OH216688   3.990   1.485   5.428
 5575TIP3    H116689   4.077   1.505   5.395
 5575TIP3    H216690   3.936   1.476   5.350
 5576TIP3   OH216691   1.043   5.235   3.438
 5576TIP3    H116692   1.008   5.185   3.365
 5576TIP3    H216693   1.091   5.307   3.397
 5577TIP3   OH216694   2.408   3.964   0.525
 5577TIP3    H116695   2.475   3.895   0.526
 5577TIP3    H216696   2.343   3.935   0.589
 5578TIP3   OH216697   2.784   0.308   4.413
 5578TIP3    H116698   2.707   0.252   4.419
 5578TIP3    H216699   2.827   0.300   4.498
 5579TIP3   OH216700   2.993   6.400   2.678
 5579TIP3    H116701   3.021   6.332   2.616
 5579TIP3    H216702   3.042   6.381   2.757
 5580TIP3   OH216703   1.268   5.302   0.482
 5580TIP3    H116704   1.362   5.318   0.477
 5580TIP3    H216705   1.258   5.210   0.455
 5581TIP3   OH216706   0.983   5.680   0.304
 5581TIP3    H116707   1.070   5.641   0.306
 5581TIP3    H216708   0.951   5.663   0.216
 5582TIP3   OH216709   5.751   4.315   5.351
 5582TIP3    H116710   5.800   4.258   5.410
 5582TIP3    H216711   5.807   4.391   5.339
 5583TIP3   OH216712   4.907   0.047   4.918
 5583TIP3    H116713   4.868   0.004   4.841
 5583TIP3    H216714   4.837   0.102   4.953
 5584TIP3   OH216715   1.318   1.361   3.242
 5584TIP3    H116716   1.282   1.347   3.154
 5584TIP3    H216717   1.401   1.407   3.226
 5585TIP3   OH216718   0.958   5.501   4.353
 5585TIP3    H116719   0.994   5.433   4.296
 5585TIP3    H216720   0.870   5.470   4.375
 5586TIP3   OH216721   2.806   4.423   3.607
 5586TIP3    H116722   2.799   4.503   3.659
 5586TIP3    H216723   2.740   4.433   3.539
 5587TIP3   OH216724   6.538   2.392   4.406
 5587TIP3    H116725   6.456   2.393   4.455
 5587TIP3    H216726   6.589   2.321   4.445
 5588TIP3   OH216727   3.956   1.357   2.595
 5588TIP3    H116728   3.860   1.352   2.600
 5588TIP3    H216729   3.975   1.354   2.501
 5589TIP3   OH216730   6.917   4.775   0.709
 5589TIP3    H116731   6.896   4.685   0.688
 5589TIP3    H216732   7.004   4.789   0.672
 5590TIP3   OH216733   4.728   5.509   4.960
 5590TIP3    H116734   4.643   5.513   4.916
 5590TIP3    H216735   4.709   5.534   5.050
 5591TIP3   OH216736   2.374   4.570   1.957
 5591TIP3    H116737   2.383   4.535   2.046
 5591TIP3    H216738   2.367   4.665   1.970
 5592TIP3   OH216739   4.631   0.778   2.240
 5592TIP3    H116740   4.702   0.837   2.215
 5592TIP3    H216741   4.668   0.690   2.230
 5593TIP3   OH216742   4.253   4.032   2.755
 5593TIP3    H116743   4.170   3.998   2.789
 5593TIP3    H216744   4.236   4.125   2.738
 5594TIP3   OH216745   0.225   6.053   5.513
 5594TIP3    H116746   0.317   6.075   5.527
 5594TIP3    H216747   0.192   6.033   5.601
 5595TIP3   OH216748   5.430   2.933   4.112
 5595TIP3    H116749   5.368   2.989   4.063
 5595TIP3    H216750   5.505   2.990   4.129
 5596TIP3   OH216751   0.848   3.019   1.330
 5596TIP3    H116752   0.754   3.035   1.317
 5596TIP3    H216753   0.858   3.010   1.425
 5597TIP3   OH216754   6.192   4.381   3.500
 5597TIP3    H116755   6.210   4.400   3.408
 5597TIP3    H216756   6.166   4.289   3.500
 5598TIP3   OH216757   7.017   3.481   1.415
 5598TIP3    H116758   6.961   3.489   1.493
 5598TIP3    H216759   6.981   3.406   1.368
 5599TIP3   OH216760   0.652   0.161   5.579
 5599TIP3    H116761   0.565   0.190   5.607
 5599TIP3    H216762   0.710   0.232   5.607
 5600TIP3   OH216763   3.784   6.085   3.866
 5600TIP3    H116764   3.693   6.100   3.840
 5600TIP3    H216765   3.779   6.063   3.959
 5601TIP3   OH216766   2.238   6.420   2.012
 5601TIP3    H116767   2.186   6.414   2.092
 5601TIP3    H216768   2.173   6.431   1.942
 5602TIP3   OH216769   1.598   4.482   5.649
 5602TIP3    H116770   1.561   4.531   5.722
 5602TIP3    H216771   1.692   4.496   5.656
 5603TIP3   OH216772   3.958   5.678   2.740
 5603TIP3    H116773   3.918   5.753   2.696
 5603TIP3    H216774   3.932   5.688   2.832
 5604TIP3   OH216775   2.261   6.038   2.543
 5604TIP3    H116776   2.312   6.022   2.622
 5604TIP3    H216777   2.235   6.130   2.549
 5605TIP3   OH216778   6.775   4.947   3.158
 5605TIP3    H116779   6.800   5.016   3.219
 5605TIP3    H216780   6.829   4.872   3.183
 5606TIP3   OH216781   4.705   2.554   5.345
 5606TIP3    H116782   4.667   2.502   5.416
 5606TIP3    H216783   4.796   2.567   5.371
 5607TIP3   OH216784   6.517   2.220   4.923
 5607TIP3    H116785   6.500   2.207   4.829
 5607TIP3    H216786   6.596   2.170   4.941
 5608TIP3   OH216787   3.135   1.685   2.145
 5608TIP3    H116788   3.208   1.663   2.202
 5608TIP3    H216789   3.093   1.760   2.187
 5609TIP3   OH216790   6.491   2.311   3.313
 5609TIP3    H116791   6.570   2.266   3.282
 5609TIP3    H216792   6.455   2.351   3.234
 5610TIP3   OH216793   4.734   3.439   2.304
 5610TIP3    H116794   4.808   3.501   2.306
 5610TIP3    H216795   4.717   3.421   2.397
 5611TIP3   OH216796   6.886   2.682   4.598
 5611TIP3    H116797   6.807   2.663   4.649
 5611TIP3    H216798   6.854   2.692   4.508
 5612TIP3   OH216799   0.501   2.167   0.709
 5612TIP3    H116800   0.450   2.175   0.790
 5612TIP3    H216801   0.581   2.122   0.735
 5613TIP3   OH216802   5.384   5.459   1.801
 5613TIP3    H116803   5.403   5.524   1.735
 5613TIP3    H216804   5.408   5.375   1.761
 5614TIP3   OH216805   5.411   6.171   4.917
 5614TIP3    H116806   5.419   6.215   5.001
 5614TIP3    H216807   5.462   6.223   4.856
 5615TIP3   OH216808   4.816   6.647   0.543
 5615TIP3    H116809   4.906   6.672   0.563
 5615TIP3    H216810   4.810   6.555   0.569
 5616TIP3   OH216811   6.971   1.496   0.077
 5616TIP3    H116812   6.933   1.410   0.096
 5616TIP3    H216813   6.981   1.497  -0.018
 5617TIP3   OH216814   3.642   5.415   1.179
 5617TIP3    H116815   3.708   5.483   1.166
 5617TIP3    H216816   3.559   5.457   1.155
 5618TIP3   OH216817   6.734   6.176   0.603
 5618TIP3    H116818   6.737   6.241   0.533
 5618TIP3    H216819   6.661   6.118   0.579
 5619TIP3   OH216820   3.830   3.518   4.946
 5619TIP3    H116821   3.888   3.585   4.910
 5619TIP3    H216822   3.743   3.542   4.914
 5620TIP3   OH216823   3.155   6.435   1.090
 5620TIP3    H116824   3.116   6.348   1.082
 5620TIP3    H216825   3.183   6.458   1.002
 5621TIP3   OH216826   1.012   1.227   5.680
 5621TIP3    H116827   1.057   1.193   5.603
 5621TIP3    H216828   1.075   1.216   5.751
 5622TIP3   OH216829   1.187   0.928   1.688
 5622TIP3    H116830   1.116   0.915   1.751
 5622TIP3    H216831   1.151   0.900   1.605
 5623TIP3   OH216832   4.837   3.260   1.607
 5623TIP3    H116833   4.748   3.228   1.616
 5623TIP3    H216834   4.855   3.256   1.513
 5624TIP3   OH216835   1.875   4.060   0.851
 5624TIP3    H116836   1.915   4.092   0.770
 5624TIP3    H216837   1.827   4.135   0.885
 5625TIP3   OH216838   6.160   5.290   0.457
 5625TIP3    H116839   6.067   5.273   0.445
 5625TIP3    H216840   6.165   5.345   0.535
 5626TIP3   OH216841   0.579   3.055   5.518
 5626TIP3    H116842   0.565   2.994   5.445
 5626TIP3    H216843   0.520   3.128   5.500
 5627TIP3   OH216844   5.714   3.054   0.995
 5627TIP3    H116845   5.804   3.047   1.029
 5627TIP3    H216846   5.675   2.968   1.015
 5628TIP3   OH216847   3.232   0.061   5.603
 5628TIP3    H116848   3.322   0.092   5.589
 5628TIP3    H216849   3.181   0.107   5.537
 5629TIP3   OH216850   2.978   5.683   0.084
 5629TIP3    H116851   2.993   5.605   0.138
 5629TIP3    H216852   2.938   5.746   0.145
 5630TIP3   OH216853   6.230   2.971   1.225
 5630TIP3    H116854   6.274   2.916   1.160
 5630TIP3    H216855   6.268   3.058   1.213
 5631TIP3   OH216856   3.025   3.346   2.966
 5631TIP3    H116857   3.093   3.388   2.913
 5631TIP3    H216858   2.992   3.276   2.910
 5632TIP3   OH216859   1.507   1.411   1.375
 5632TIP3    H116860   1.484   1.339   1.316
 5632TIP3    H216861   1.590   1.384   1.414
 5633TIP3   OH216862   6.599   1.515   4.525
 5633TIP3    H116863   6.600   1.419   4.523
 5633TIP3    H216864   6.691   1.540   4.528
 5634TIP3   OH216865   5.084   2.705   5.066
 5634TIP3    H116866   5.082   2.659   4.982
 5634TIP3    H216867   5.110   2.638   5.129
 5635TIP3   OH216868   6.909   6.700   3.723
 5635TIP3    H116869   6.841   6.688   3.789
 5635TIP3    H216870   6.863   6.728   3.644
 5636TIP3   OH216871   1.324   4.810   5.616
 5636TIP3    H116872   1.258   4.861   5.569
 5636TIP3    H216873   1.335   4.856   5.699
 5637TIP3   OH216874   3.319   4.823   3.575
 5637TIP3    H116875   3.245   4.880   3.555
 5637TIP3    H216876   3.378   4.834   3.500
 5638TIP3   OH216877   1.365   6.203   2.933
 5638TIP3    H116878   1.317   6.159   3.003
 5638TIP3    H216879   1.338   6.158   2.853
 5639TIP3   OH216880   3.787   2.245   1.357
 5639TIP3    H116881   3.828   2.259   1.271
 5639TIP3    H216882   3.858   2.261   1.420
 5640TIP3   OH216883   4.113   1.229   5.501
 5640TIP3    H116884   4.171   1.280   5.444
 5640TIP3    H216885   4.035   1.283   5.510
 5641TIP3   OH216886   6.374   5.364   0.305
 5641TIP3    H116887   6.434   5.303   0.350
 5641TIP3    H216888   6.291   5.352   0.350
 5642TIP3   OH216889   4.892   2.984   2.975
 5642TIP3    H116890   4.845   3.011   3.054
 5642TIP3    H216891   4.961   3.050   2.964
 5643TIP3   OH216892   6.076   2.195   5.237
 5643TIP3    H116893   6.089   2.194   5.331
 5643TIP3    H216894   6.138   2.260   5.205
 5644TIP3   OH216895   0.417   2.694   0.032
 5644TIP3    H116896   0.508   2.686   0.004
 5644TIP3    H216897   0.391   2.605   0.057
 5645TIP3   OH216898   1.525   0.302   5.259
 5645TIP3    H116899   1.505   0.351   5.179
 5645TIP3    H216900   1.444   0.303   5.309
 5646TIP3   OH216901   3.522   3.568   1.925
 5646TIP3    H116902   3.428   3.569   1.945
 5646TIP3    H216903   3.560   3.631   1.985
 5647TIP3   OH216904   1.357   2.522   3.094
 5647TIP3    H116905   1.435   2.500   3.144
 5647TIP3    H216906   1.384   2.514   3.002
 5648TIP3   OH216907   1.249   2.057   3.723
 5648TIP3    H116908   1.158   2.028   3.727
 5648TIP3    H216909   1.292   2.010   3.795
 5649TIP3   OH216910   2.608   3.664   5.394
 5649TIP3    H116911   2.586   3.649   5.302
 5649TIP3    H216912   2.581   3.583   5.438
 5650TIP3   OH216913   5.995   0.482   3.650
 5650TIP3    H116914   5.935   0.411   3.627
 5650TIP3    H216915   5.955   0.524   3.726
 5651TIP3   OH216916   6.302   2.809   3.798
 5651TIP3    H116917   6.217   2.765   3.786
 5651TIP3    H216918   6.366   2.738   3.793
 5652TIP3   OH216919   6.438   4.172   0.733
 5652TIP3    H116920   6.369   4.160   0.668
 5652TIP3    H216921   6.425   4.102   0.796
 5653TIP3   OH216922   0.989   4.193   1.500
 5653TIP3    H116923   1.023   4.256   1.563
 5653TIP3    H216924   1.040   4.113   1.515
 5654TIP3   OH216925   0.359   3.692   1.566
 5654TIP3    H116926   0.292   3.663   1.629
 5654TIP3    H216927   0.336   3.783   1.547
 5655TIP3   OH216928   3.699   4.669   1.392
 5655TIP3    H116929   3.751   4.589   1.399
 5655TIP3    H216930   3.612   4.644   1.422
 5656TIP3   OH216931   1.664   6.467   4.592
 5656TIP3    H116932   1.711   6.536   4.544
 5656TIP3    H216933   1.572   6.480   4.568
 5657TIP3   OH216934   0.581   2.108   0.043
 5657TIP3    H116935   0.554   2.031  -0.006
 5657TIP3    H216936   0.665   2.084   0.081
 5658TIP3   OH216937   1.398   1.645   1.333
 5658TIP3    H116938   1.399   1.650   1.237
 5658TIP3    H216939   1.434   1.559   1.353
 5659TIP3   OH216940   3.833   4.637   0.443
 5659TIP3    H116941   3.738   4.640   0.451
 5659TIP3    H216942   3.860   4.729   0.445
 5660TIP3   OH216943   3.333   0.766   5.864
 5660TIP3    H116944   3.407   0.756   5.804
 5660TIP3    H216945   3.354   0.844   5.914
 5661TIP3   OH216946   1.075  -0.001   5.546
 5661TIP3    H116947   1.056   0.025   5.456
 5661TIP3    H216948   1.081   0.081   5.595
 5662TIP3   OH216949   5.517   4.194   2.421
 5662TIP3    H116950   5.605   4.231   2.411
 5662TIP3    H216951   5.493   4.166   2.333
 5663TIP3   OH216952   6.899   4.666   1.878
 5663TIP3    H116953   6.977   4.613   1.860
 5663TIP3    H216954   6.929   4.756   1.871
 5664TIP3   OH216955   3.358   5.897   0.255
 5664TIP3    H116956   3.419   5.835   0.216
 5664TIP3    H216957   3.311   5.936   0.181
 5665TIP3   OH216958   1.628   3.418   5.547
 5665TIP3    H116959   1.668   3.381   5.625
 5665TIP3    H216960   1.588   3.344   5.502
 5666TIP3   OH216961   2.352   3.160   0.977
 5666TIP3    H116962   2.408   3.199   1.044
 5666TIP3    H216963   2.404   3.164   0.896
 5667TIP3   OH216964   1.337   0.824   3.862
 5667TIP3    H116965   1.316   0.917   3.849
 5667TIP3    H216966   1.259   0.787   3.903
 5668TIP3   OH216967   6.115   6.717   0.540
 5668TIP3    H116968   6.064   6.746   0.615
 5668TIP3    H216969   6.165   6.794   0.513
 5669TIP3   OH216970   3.492   2.865   3.931
 5669TIP3    H116971   3.474   2.853   3.837
 5669TIP3    H216972   3.427   2.930   3.959
 5670TIP3   OH216973   0.691   5.803   1.571
 5670TIP3    H116974   0.611   5.855   1.577
 5670TIP3    H216975   0.694   5.755   1.654
 5671TIP3   OH216976   3.719   2.848   4.101
 5671TIP3    H116977   3.680   2.852   4.188
 5671TIP3    H216978   3.649   2.876   4.041
 5672TIP3   OH216979   4.948   2.988   4.716
 5672TIP3    H116980   4.943   2.900   4.754
 5672TIP3    H216981   4.858   3.007   4.689
 5673TIP3   OH216982   3.498   2.625   0.799
 5673TIP3    H116983   3.403   2.629   0.799
 5673TIP3    H216984   3.518   2.532   0.787
 5674TIP3   OH216985   3.289   3.363   0.135
 5674TIP3    H116986   3.204   3.396   0.163
 5674TIP3    H216987   3.276   3.337   0.044
 5675TIP3   OH216988   5.649   3.058   0.169
 5675TIP3    H116989   5.574   3.099   0.127
 5675TIP3    H216990   5.629   3.062   0.263
 5676TIP3   OH216991   1.885   0.645   4.242
 5676TIP3    H116992   1.835   0.571   4.276
 5676TIP3    H216993   1.957   0.657   4.304
 5677TIP3   OH216994   2.892   4.020   0.130
 5677TIP3    H116995   2.976   3.974   0.131
 5677TIP3    H216996   2.839   3.975   0.196
 5678TIP3   OH216997   2.452   4.211   3.542
 5678TIP3    H116998   2.366   4.210   3.584
 5678TIP3    H216999   2.434   4.189   3.450
 5679TIP3   OH217000   3.756   0.916   3.227
 5679TIP3    H117001   3.796   0.997   3.197
 5679TIP3    H217002   3.792   0.848   3.169
 5680TIP3   OH217003   6.648   2.091   2.966
 5680TIP3    H117004   6.726   2.110   2.914
 5680TIP3    H217005   6.635   2.170   3.019
 5681TIP3   OH217006   0.421   2.846   4.147
 5681TIP3    H117007   0.371   2.908   4.200
 5681TIP3    H217008   0.384   2.853   4.059
 5682TIP3   OH217009   5.442   5.853   2.724
 5682TIP3    H117010   5.379   5.800   2.774
 5682TIP3    H217011   5.430   5.942   2.758
 5683TIP3   OH217012   2.521   1.769   4.703
 5683TIP3    H117013   2.547   1.717   4.627
 5683TIP3    H217014   2.503   1.856   4.668
 5684TIP3   OH217015   5.424   3.266   2.186
 5684TIP3    H117016   5.332   3.287   2.201
 5684TIP3    H217017   5.471   3.344   2.215
 5685TIP3   OH217018   4.948   6.814   2.686
 5685TIP3    H117019   4.862   6.849   2.663
 5685TIP3    H217020   4.930   6.744   2.748
 5686TIP3   OH217021   0.625   5.730   2.373
 5686TIP3    H117022   0.534   5.757   2.387
 5686TIP3    H217023   0.641   5.663   2.440
 5687TIP3   OH217024   4.858   0.619   4.449
 5687TIP3    H117025   4.811   0.667   4.518
 5687TIP3    H217026   4.950   0.641   4.464
 5688TIP3   OH217027   2.168   1.897   5.263
 5688TIP3    H117028   2.182   1.871   5.354
 5688TIP3    H217029   2.107   1.832   5.228
 5689TIP3   OH217030   4.306   5.831   1.675
 5689TIP3    H117031   4.381   5.781   1.705
 5689TIP3    H217032   4.318   5.918   1.715
 5690TIP3   OH217033   7.108   4.529   1.771
 5690TIP3    H117034   7.203   4.539   1.780
 5690TIP3    H217035   7.094   4.435   1.772
 5691TIP3   OH217036   7.147   0.393   5.737
 5691TIP3    H117037   7.177   0.302   5.740
 5691TIP3    H217038   7.100   0.407   5.819
 5692TIP3   OH217039   6.081  -0.010   2.676
 5692TIP3    H117040   6.054   0.044   2.751
 5692TIP3    H217041   6.112   0.053   2.611
 5693TIP3   OH217042   1.983   4.759   4.966
 5693TIP3    H117043   1.965   4.791   4.878
 5693TIP3    H217044   2.067   4.714   4.958
 5694TIP3   OH217045   0.895   3.685   1.866
 5694TIP3    H117046   0.928   3.768   1.900
 5694TIP3    H217047   0.863   3.705   1.778
 5695TIP3   OH217048   0.441   1.594   1.947
 5695TIP3    H117049   0.440   1.544   2.029
 5695TIP3    H217050   0.515   1.558   1.898
 5696TIP3   OH217051   6.385   4.473   1.898
 5696TIP3    H117052   6.424   4.560   1.905
 5696TIP3    H217053   6.424   4.424   1.970
 5697TIP3   OH217054   6.149   2.832   2.085
 5697TIP3    H117055   6.062   2.855   2.052
 5697TIP3    H217056   6.203   2.822   2.007
 5698TIP3   OH217057   0.020   5.994   5.141
 5698TIP3    H117058   0.086   5.948   5.194
 5698TIP3    H217059   0.035   5.962   5.052
 5699TIP3   OH217060   6.632   2.197   0.814
 5699TIP3    H117061   6.586   2.262   0.760
 5699TIP3    H217062   6.724   2.219   0.803
 5700TIP3   OH217063   6.182   2.573   5.282
 5700TIP3    H117064   6.253   2.607   5.336
 5700TIP3    H217065   6.103   2.617   5.315
 5701TIP3   OH217066   0.805   6.160   4.013
 5701TIP3    H117067   0.875   6.148   3.949
 5701TIP3    H217068   0.840   6.123   4.094
 5702TIP3   OH217069   5.759   6.474   1.447
 5702TIP3    H117070   5.844   6.436   1.425
 5702TIP3    H217071   5.778   6.536   1.517
 5703TIP3   OH217072   0.242   2.043   0.999
 5703TIP3    H117073   0.167   2.099   1.020
 5703TIP3    H217074   0.219   2.003   0.915
 5704TIP3   OH217075   3.141   6.637   1.797
 5704TIP3    H117076   3.120   6.703   1.731
 5704TIP3    H217077   3.056   6.603   1.825
 5705TIP3   OH217078   2.347   5.074   2.976
 5705TIP3    H117079   2.372   5.166   2.967
 5705TIP3    H217080   2.328   5.063   3.069
 5706TIP3   OH217081   1.826   6.581   5.040
 5706TIP3    H117082   1.882   6.602   5.115
 5706TIP3    H217083   1.871   6.619   4.965
 5707TIP3   OH217084   6.640   3.068   2.415
 5707TIP3    H117085   6.606   3.057   2.504
 5707TIP3    H217086   6.714   3.009   2.410
 5708TIP3   OH217087   4.153   1.758   3.039
 5708TIP3    H117088   4.183   1.678   3.081
 5708TIP3    H217089   4.139   1.820   3.111
 5709TIP3   OH217090   5.722   1.553   5.732
 5709TIP3    H117091   5.767   1.634   5.707
 5709TIP3    H217092   5.763   1.529   5.816
 5710TIP3   OH217093   5.735   4.235   3.714
 5710TIP3    H117094   5.710   4.273   3.629
 5710TIP3    H217095   5.795   4.164   3.692
 5711TIP3   OH217096   4.165   4.754   3.478
 5711TIP3    H117097   4.089   4.758   3.537
 5711TIP3    H217098   4.130   4.721   3.396
 5712TIP3   OH217099   1.757   3.808   0.869
 5712TIP3    H117100   1.820   3.801   0.941
 5712TIP3    H217101   1.771   3.896   0.834
 5713TIP3   OH217102   3.368   1.458   3.458
 5713TIP3    H117103   3.324   1.506   3.388
 5713TIP3    H217104   3.354   1.512   3.536
 5714TIP3   OH217105   2.585   1.041   5.474
 5714TIP3    H117106   2.639   1.066   5.549
 5714TIP3    H217107   2.541   0.961   5.500
 5715TIP3   OH217108   2.591   3.393   0.549
 5715TIP3    H117109   2.662   3.452   0.572
 5715TIP3    H217110   2.621   3.351   0.468
 5716TIP3   OH217111   7.062   5.100   4.908
 5716TIP3    H117112   7.048   5.174   4.849
 5716TIP3    H217113   7.063   5.140   4.995
 5717TIP3   OH217114   1.839   4.386   2.390
 5717TIP3    H117115   1.842   4.390   2.486
 5717TIP3    H217116   1.922   4.426   2.363
 5718TIP3   OH217117   1.153   3.076   4.430
 5718TIP3    H117118   1.245   3.058   4.446
 5718TIP3    H217119   1.153   3.162   4.387
 5719TIP3   OH217120   0.270   4.773   3.381
 5719TIP3    H117121   0.302   4.685   3.359
 5719TIP3    H217122   0.325   4.832   3.330
 5720TIP3   OH217123   1.791   6.751   1.188
 5720TIP3    H117124   1.840   6.816   1.138
 5720TIP3    H217125   1.813   6.770   1.279
 5721TIP3   OH217126   6.942   2.872   4.862
 5721TIP3    H117127   7.018   2.854   4.918
 5721TIP3    H217128   6.956   2.818   4.784
 5722TIP3   OH217129   6.920   4.165   5.662
 5722TIP3    H117130   6.926   4.161   5.757
 5722TIP3    H217131   6.847   4.107   5.640
 5723TIP3   OH217132   4.491   6.008   1.299
 5723TIP3    H117133   4.454   6.064   1.231
 5723TIP3    H217134   4.576   6.047   1.319
 5724TIP3   OH217135   3.823   1.346   0.194
 5724TIP3    H117136   3.853   1.425   0.148
 5724TIP3    H217137   3.877   1.276   0.160
 5725TIP3   OH217138   5.450   2.301   0.049
 5725TIP3    H117139   5.420   2.383   0.088
 5725TIP3    H217140   5.386   2.283  -0.020
 5726TIP3   OH217141   0.177   1.409   0.867
 5726TIP3    H117142   0.120   1.456   0.807
 5726TIP3    H217143   0.235   1.476   0.904
 5727TIP3   OH217144   0.201   4.369   0.140
 5727TIP3    H117145   0.246   4.427   0.201
 5727TIP3    H217146   0.262   4.295   0.127
 5728TIP3   OH217147   6.906   4.116   0.885
 5728TIP3    H117148   6.816   4.086   0.879
 5728TIP3    H217149   6.907   4.176   0.960
 5729TIP3   OH217150   2.105   1.457   5.146
 5729TIP3    H117151   2.174   1.470   5.081
 5729TIP3    H217152   2.077   1.366   5.134
 5730TIP3   OH217153   5.253   1.022   1.038
 5730TIP3    H117154   5.193   1.010   0.964
 5730TIP3    H217155   5.263   0.934   1.074
 5731TIP3   OH217156   0.084   6.319   2.668
 5731TIP3    H117157   0.073   6.312   2.573
 5731TIP3    H217158   0.085   6.228   2.699
 5732TIP3   OH217159   7.023   0.236   0.756
 5732TIP3    H117160   7.062   0.173   0.696
 5732TIP3    H217161   7.077   0.315   0.745
 5733TIP3   OH217162   5.900   3.170   0.096
 5733TIP3    H117163   5.817   3.134   0.126
 5733TIP3    H217164   5.926   3.231   0.165
 5734TIP3   OH217165   6.958   3.045   2.555
 5734TIP3    H117166   6.931   3.095   2.478
 5734TIP3    H217167   6.893   2.976   2.563
 5735TIP3   OH217168   4.986   4.972   2.940
 5735TIP3    H117169   4.984   5.063   2.912
 5735TIP3    H217170   4.893   4.948   2.949
 5736TIP3   OH217171   7.095   3.949   5.242
 5736TIP3    H117172   7.097   3.872   5.298
 5736TIP3    H217173   7.003   3.974   5.239
 5737TIP3   OH217174   2.477   3.053   0.017
 5737TIP3    H117175   2.383   3.040   0.030
 5737TIP3    H217176   2.510   2.966  -0.005
 5738TIP3   OH217177   3.247   4.702   0.570
 5738TIP3    H117178   3.241   4.686   0.665
 5738TIP3    H217179   3.299   4.781   0.562
 5739TIP3   OH217180   2.348   2.668   2.942
 5739TIP3    H117181   2.253   2.660   2.951
 5739TIP3    H217182   2.360   2.718   2.861
 5740TIP3   OH217183   3.794   0.847   4.248
 5740TIP3    H117184   3.884   0.851   4.215
 5740TIP3    H217185   3.748   0.916   4.200
 5741TIP3   OH217186   0.942   6.303   5.144
 5741TIP3    H117187   1.033   6.334   5.136
 5741TIP3    H217188   0.939   6.225   5.089
 5742TIP3   OH217189   5.653   3.601   1.314
 5742TIP3    H117190   5.658   3.506   1.300
 5742TIP3    H217191   5.738   3.623   1.353
 5743TIP3   OH217192   6.333   5.646   1.595
 5743TIP3    H117193   6.326   5.608   1.508
 5743TIP3    H217194   6.379   5.580   1.647
 5744TIP3   OH217195   2.926   2.612   4.648
 5744TIP3    H117196   2.912   2.570   4.733
 5744TIP3    H217197   2.954   2.540   4.590
 5745TIP3   OH217198   1.991   6.278   1.295
 5745TIP3    H117199   2.032   6.320   1.219
 5745TIP3    H217200   1.902   6.314   1.295
 5746TIP3   OH217201   5.773   3.539   3.727
 5746TIP3    H117202   5.694   3.570   3.771
 5746TIP3    H217203   5.835   3.521   3.798
 5747TIP3   OH217204   3.656   5.332   2.926
 5747TIP3    H117205   3.657   5.293   2.839
 5747TIP3    H217206   3.684   5.422   2.913
 5748TIP3   OH217207   0.708   2.256   5.368
 5748TIP3    H117208   0.656   2.324   5.411
 5748TIP3    H217209   0.681   2.260   5.276
 5749TIP3   OH217210   6.376   1.668   4.529
 5749TIP3    H117211   6.457   1.620   4.547
 5749TIP3    H217212   6.323   1.606   4.478
 5750TIP3   OH217213   5.633   0.232   1.836
 5750TIP3    H117214   5.624   0.257   1.745
 5750TIP3    H217215   5.650   0.314   1.883
 5751TIP3   OH217216   2.437   6.467   0.979
 5751TIP3    H117217   2.425   6.387   1.029
 5751TIP3    H217218   2.350   6.489   0.946
 5752TIP3   OH217219   5.193   5.946   5.627
 5752TIP3    H117220   5.157   5.891   5.697
 5752TIP3    H217221   5.134   6.021   5.623
 5753TIP3   OH217222   2.526   2.852   2.188
 5753TIP3    H117223   2.436   2.883   2.193
 5753TIP3    H217224   2.578   2.932   2.173
 5754TIP3   OH217225   4.332   5.404   1.660
 5754TIP3    H117226   4.292   5.393   1.574
 5754TIP3    H217227   4.272   5.464   1.706
 5755TIP3   OH217228   6.170   2.524   0.902
 5755TIP3    H117229   6.167   2.557   0.813
 5755TIP3    H217230   6.098   2.569   0.947
 5756TIP3   OH217231   1.260   5.689   4.455
 5756TIP3    H117232   1.166   5.686   4.473
 5756TIP3    H217233   1.281   5.601   4.425
 5757TIP3   OH217234   5.644   5.488   4.804
 5757TIP3    H117235   5.640   5.578   4.836
 5757TIP3    H217236   5.703   5.443   4.865
 5758TIP3   OH217237   1.671   1.572   4.273
 5758TIP3    H117238   1.606   1.520   4.227
 5758TIP3    H217239   1.664   1.545   4.364
 5759TIP3   OH217240   5.932   3.003   5.311
 5759TIP3    H117241   5.956   3.093   5.288
 5759TIP3    H217242   5.960   2.951   5.236
 5760TIP3   OH217243   4.780   5.905   3.513
 5760TIP3    H117244   4.742   5.992   3.497
 5760TIP3    H217245   4.786   5.866   3.426
 5761TIP3   OH217246   4.838   1.543   0.355
 5761TIP3    H117247   4.873   1.541   0.266
 5761TIP3    H217248   4.758   1.491   0.351
 5762TIP3   OH217249   1.013   0.354   3.288
 5762TIP3    H117250   0.942   0.340   3.225
 5762TIP3    H217251   1.051   0.267   3.301
 5763TIP3   OH217252   2.134   4.502   5.707
 5763TIP3    H117253   2.189   4.574   5.737
 5763TIP3    H217254   2.179   4.467   5.630
 5764TIP3   OH217255   0.775   3.714   0.087
 5764TIP3    H117256   0.709   3.746   0.026
 5764TIP3    H217257   0.857   3.716   0.038
 5765TIP3   OH217258   7.057   2.744   3.662
 5765TIP3    H117259   7.121   2.715   3.597
 5765TIP3    H217260   6.974   2.711   3.631
 5766TIP3   OH217261   4.712   4.128   4.981
 5766TIP3    H117262   4.768   4.190   5.027
 5766TIP3    H217263   4.732   4.043   5.020
 5767TIP3   OH217264   6.732   4.890   3.851
 5767TIP3    H117265   6.738   4.827   3.779
 5767TIP3    H217266   6.639   4.890   3.875
 5768TIP3   OH217267   3.635   6.175   4.707
 5768TIP3    H117268   3.598   6.090   4.684
 5768TIP3    H217269   3.597   6.195   4.793
 5769TIP3   OH217270   1.653   2.112   0.142
 5769TIP3    H117271   1.674   2.121   0.049
 5769TIP3    H217272   1.629   2.020   0.153
 5770TIP3   OH217273   4.416   0.411   1.694
 5770TIP3    H117274   4.492   0.417   1.751
 5770TIP3    H217275   4.427   0.482   1.631
 5771TIP3   OH217276   6.821   6.828   5.105
 5771TIP3    H117277   6.910   6.796   5.096
 5771TIP3    H217278   6.767   6.749   5.113
 5772TIP3   OH217279   1.699   5.635   4.884
 5772TIP3    H117280   1.691   5.730   4.889
 5772TIP3    H217281   1.628   5.602   4.939
 5773TIP3   OH217282   4.979   2.583   4.505
 5773TIP3    H117283   4.995   2.639   4.581
 5773TIP3    H217284   5.063   2.581   4.459
 5774TIP3   OH217285   0.113   3.467   0.723
 5774TIP3    H117286   0.207   3.448   0.734
 5774TIP3    H217287   0.093   3.525   0.797
 5775TIP3   OH217288   6.953   6.536   2.495
 5775TIP3    H117289   7.013   6.569   2.428
 5775TIP3    H217290   7.005   6.536   2.575
 5776TIP3   OH217291   6.415   2.607   0.322
 5776TIP3    H117292   6.376   2.691   0.296
 5776TIP3    H217293   6.392   2.547   0.251
 5777TIP3   OH217294   0.410   1.555   4.995
 5777TIP3    H117295   0.323   1.577   5.027
 5777TIP3    H217296   0.468   1.620   5.035
 5778TIP3   OH217297   1.144   0.231   5.685
 5778TIP3    H117298   1.068   0.227   5.743
 5778TIP3    H217299   1.219   0.220   5.743
 5779TIP3   OH217300   6.015   1.148   2.915
 5779TIP3    H117301   6.020   1.111   2.827
 5779TIP3    H217302   6.106   1.166   2.939
 5780TIP3   OH217303   1.344   4.303   1.567
 5780TIP3    H117304   1.365   4.243   1.496
 5780TIP3    H217305   1.317   4.246   1.639
 5781TIP3   OH217306   2.773   3.564   2.268
 5781TIP3    H117307   2.691   3.612   2.255
 5781TIP3    H217308   2.805   3.595   2.353
 5782TIP3   OH217309   5.342   2.189   0.762
 5782TIP3    H117310   5.346   2.280   0.793
 5782TIP3    H217311   5.429   2.172   0.725
 5783TIP3   OH217312   4.579   1.878   4.507
 5783TIP3    H117313   4.487   1.854   4.517
 5783TIP3    H217314   4.618   1.861   4.592
 5784TIP3   OH217315   2.391   3.580   2.630
 5784TIP3    H117316   2.457   3.517   2.601
 5784TIP3    H217317   2.360   3.546   2.714
 5785TIP3   OH217318   4.382   3.496   1.020
 5785TIP3    H117319   4.287   3.504   1.027
 5785TIP3    H217320   4.401   3.521   0.930
 5786TIP3   OH217321   3.641   3.010   2.797
 5786TIP3    H117322   3.646   3.017   2.893
 5786TIP3    H217323   3.639   3.101   2.767
 5787TIP3   OH217324   4.833   6.011   5.560
 5787TIP3    H117325   4.749   6.054   5.575
 5787TIP3    H217326   4.874   6.062   5.490
 5788TIP3   OH217327   6.180   0.953   0.332
 5788TIP3    H117328   6.101   1.006   0.318
 5788TIP3    H217329   6.150   0.863   0.321
 5789TIP3   OH217330   3.006   2.354   3.781
 5789TIP3    H117331   3.062   2.414   3.733
 5789TIP3    H217332   2.975   2.292   3.715
 5790TIP3   OH217333   0.714   5.816   0.628
 5790TIP3    H117334   0.744   5.854   0.711
 5790TIP3    H217335   0.772   5.742   0.614
 5791TIP3   OH217336   5.365   1.787   4.419
 5791TIP3    H117337   5.317   1.830   4.490
 5791TIP3    H217338   5.453   1.773   4.455
 5792TIP3   OH217339   4.694   4.287   4.273
 5792TIP3    H117340   4.625   4.343   4.307
 5792TIP3    H217341   4.766   4.347   4.253
 5793TIP3   OH217342   0.917   6.037   4.513
 5793TIP3    H117343   0.839   6.091   4.505
 5793TIP3    H217344   0.943   6.020   4.422
 5794TIP3   OH217345   2.159   2.856   4.586
 5794TIP3    H117346   2.123   2.937   4.623
 5794TIP3    H217347   2.252   2.875   4.573
 5795TIP3   OH217348   5.534   5.272   3.151
 5795TIP3    H117349   5.503   5.184   3.128
 5795TIP3    H217350   5.612   5.285   3.096
 5796TIP3   OH217351   4.023   0.941   4.947
 5796TIP3    H117352   3.978   1.021   4.920
 5796TIP3    H217353   4.043   0.955   5.040
 5797TIP3   OH217354   4.079   5.579   4.258
 5797TIP3    H117355   4.145   5.523   4.217
 5797TIP3    H217356   4.006   5.519   4.277
 5798TIP3   OH217357   3.377   5.444   0.704
 5798TIP3    H117358   3.339   5.492   0.630
 5798TIP3    H217359   3.311   5.449   0.773
 5799TIP3   OH217360   6.628   6.399   5.772
 5799TIP3    H117361   6.635   6.371   5.863
 5799TIP3    H217362   6.658   6.490   5.773
 5800TIP3   OH217363   0.036   5.745   5.425
 5800TIP3    H117364   0.087   5.816   5.466
 5800TIP3    H217365  -0.048   5.746   5.471
 5801TIP3   OH217366   5.961   0.860   4.777
 5801TIP3    H117367   5.928   0.882   4.690
 5801TIP3    H217368   5.883   0.851   4.831
 5802TIP3   OH217369   0.972   6.129   0.730
 5802TIP3    H117370   0.901   6.179   0.689
 5802TIP3    H217371   1.007   6.075   0.659
 5803TIP3   OH217372   6.889   0.911   2.420
 5803TIP3    H117373   6.968   0.965   2.425
 5803TIP3    H217374   6.870   0.887   2.510
 5804TIP3   OH217375   3.544   1.970   5.085
 5804TIP3    H117376   3.633   1.981   5.051
 5804TIP3    H217377   3.492   2.034   5.037
 5805TIP3   OH217378   5.020   5.942   1.455
 5805TIP3    H117379   4.987   5.986   1.377
 5805TIP3    H217380   5.078   6.006   1.497
 5806TIP3   OH217381   0.577   3.560   4.683
 5806TIP3    H117382   0.500   3.504   4.675
 5806TIP3    H217383   0.648   3.511   4.642
 5807TIP3   OH217384   4.514   0.909   0.423
 5807TIP3    H117385   4.431   0.876   0.458
 5807TIP3    H217386   4.539   0.979   0.483
 5808TIP3   OH217387   6.485   4.316   2.596
 5808TIP3    H117388   6.435   4.253   2.648
 5808TIP3    H217389   6.529   4.371   2.661
 5809TIP3   OH217390   6.543   5.009   5.506
 5809TIP3    H117391   6.552   5.104   5.508
 5809TIP3    H217392   6.452   4.993   5.479
 5810TIP3   OH217393   0.169   4.320   4.176
 5810TIP3    H117394   0.088   4.305   4.128
 5810TIP3    H217395   0.223   4.374   4.117
 5811TIP3   OH217396   5.177   2.508   5.258
 5811TIP3    H117397   5.269   2.530   5.247
 5811TIP3    H217398   5.171   2.467   5.344
 5812TIP3   OH217399   2.910   2.073   1.125
 5812TIP3    H117400   2.960   2.009   1.176
 5812TIP3    H217401   2.924   2.156   1.171
 5813TIP3   OH217402   2.906   3.318   5.035
 5813TIP3    H117403   2.984   3.295   4.984
 5813TIP3    H217404   2.838   3.260   5.003
 5814TIP3   OH217405   6.967   4.816   2.349
 5814TIP3    H117406   7.000   4.904   2.329
 5814TIP3    H217407   6.918   4.825   2.430
 5815TIP3   OH217408   3.312   6.212   2.001
 5815TIP3    H117409   3.389   6.159   1.977
 5815TIP3    H217410   3.303   6.199   2.095
 5816TIP3   OH217411   5.469   2.334   3.403
 5816TIP3    H117412   5.385   2.379   3.397
 5816TIP3    H217413   5.451   2.255   3.454
 5817TIP3   OH217414   1.074   2.459   1.586
 5817TIP3    H117415   1.009   2.445   1.655
 5817TIP3    H217416   1.046   2.541   1.544
 5818TIP3   OH217417   5.688   1.086   2.470
 5818TIP3    H117418   5.650   1.085   2.558
 5818TIP3    H217419   5.614   1.071   2.411
 5819TIP3   OH217420   5.328   0.881   2.517
 5819TIP3    H117421   5.326   0.789   2.541
 5819TIP3    H217422   5.372   0.883   2.432
 5820TIP3   OH217423   4.633   1.159   5.454
 5820TIP3    H117424   4.725   1.142   5.435
 5820TIP3    H217425   4.585   1.105   5.390
 5821TIP3   OH217426   3.771   3.455   3.227
 5821TIP3    H117427   3.734   3.455   3.315
 5821TIP3    H217428   3.840   3.390   3.230
 5822TIP3   OH217429   0.763   3.315   1.775
 5822TIP3    H117430   0.721   3.401   1.772
 5822TIP3    H217431   0.750   3.285   1.865
 5823TIP3   OH217432   2.631   5.255   4.385
 5823TIP3    H117433   2.649   5.344   4.355
 5823TIP3    H217434   2.615   5.205   4.305
 5824TIP3   OH217435   6.234   4.176   3.936
 5824TIP3    H117436   6.185   4.197   3.857
 5824TIP3    H217437   6.223   4.253   3.992
 5825TIP3   OH217438   1.226   6.302   2.341
 5825TIP3    H117439   1.151   6.266   2.293
 5825TIP3    H217440   1.201   6.295   2.433
 5826TIP3   OH217441   2.605   0.451   3.555
 5826TIP3    H117442   2.608   0.532   3.503
 5826TIP3    H217443   2.612   0.381   3.490
 5827TIP3   OH217444   3.360   0.569   3.212
 5827TIP3    H117445   3.291   0.530   3.266
 5827TIP3    H217446   3.319   0.583   3.127
 5828TIP3   OH217447   3.722   4.170   1.463
 5828TIP3    H117448   3.654   4.110   1.434
 5828TIP3    H217449   3.797   4.113   1.482
 5829TIP3   OH217450   6.840   5.139   3.871
 5829TIP3    H117451   6.915   5.133   3.811
 5829TIP3    H217452   6.815   5.048   3.888
 5830TIP3   OH217453   2.889   3.675   4.118
 5830TIP3    H117454   2.958   3.610   4.130
 5830TIP3    H217455   2.936   3.756   4.099
 5831TIP3   OH217456   0.977   3.459   0.769
 5831TIP3    H117457   0.913   3.400   0.730
 5831TIP3    H217458   1.015   3.409   0.841
 5832TIP3   OH217459   1.456   5.621   1.423
 5832TIP3    H117460   1.439   5.696   1.365
 5832TIP3    H217461   1.515   5.565   1.373
 5833TIP3   OH217462   4.039   6.385   0.357
 5833TIP3    H117463   4.025   6.474   0.390
 5833TIP3    H217464   4.133   6.370   0.366
 5834TIP3   OH217465   0.103   6.785   5.902
 5834TIP3    H117466   0.133   6.860   5.851
 5834TIP3    H217467   0.135   6.709   5.853
 5835TIP3   OH217468   6.188   2.782   5.493
 5835TIP3    H117469   6.242   2.847   5.447
 5835TIP3    H217470   6.130   2.835   5.548
 5836TIP3   OH217471   6.769   3.267   1.815
 5836TIP3    H117472   6.758   3.227   1.901
 5836TIP3    H217473   6.686   3.310   1.798
 5837TIP3   OH217474   5.626   1.253   4.476
 5837TIP3    H117475   5.614   1.180   4.537
 5837TIP3    H217476   5.661   1.324   4.530
 5838TIP3   OH217477   4.853   4.860   2.116
 5838TIP3    H117478   4.770   4.812   2.106
 5838TIP3    H217479   4.882   4.875   2.026
 5839TIP3   OH217480   6.488   0.743   0.707
 5839TIP3    H117481   6.443   0.805   0.764
 5839TIP3    H217482   6.464   0.657   0.742
 5840TIP3   OH217483   0.207   2.889   0.230
 5840TIP3    H117484   0.190   2.967   0.282
 5840TIP3    H217485   0.282   2.847   0.273
 5841TIP3   OH217486   0.960   2.592   4.276
 5841TIP3    H117487   1.024   2.604   4.346
 5841TIP3    H217488   0.878   2.623   4.314
 5842TIP3   OH217489   4.219   2.481   5.336
 5842TIP3    H117490   4.200   2.543   5.266
 5842TIP3    H217491   4.241   2.536   5.412
 5843TIP3   OH217492   5.711   3.536   2.979
 5843TIP3    H117493   5.723   3.573   3.066
 5843TIP3    H217494   5.632   3.482   2.987
 5844TIP3   OH217495   4.073   4.133   5.242
 5844TIP3    H117496   4.149   4.099   5.193
 5844TIP3    H217497   4.074   4.084   5.324
 5845TIP3   OH217498   7.208   0.799   4.777
 5845TIP3    H117499   7.275   0.820   4.843
 5845TIP3    H217500   7.160   0.881   4.766
 5846TIP3   OH217501   4.762   5.476   2.980
 5846TIP3    H117502   4.677   5.520   2.981
 5846TIP3    H217503   4.815   5.528   2.919
 5847TIP3   OH217504   5.552   1.271   5.841
 5847TIP3    H117505   5.521   1.360   5.828
 5847TIP3    H217506   5.618   1.259   5.772
 5848TIP3   OH217507   0.156   3.102   2.429
 5848TIP3    H117508   0.106   3.068   2.504
 5848TIP3    H217509   0.092   3.153   2.379
 5849TIP3   OH217510   6.456   0.876   5.645
 5849TIP3    H117511   6.531   0.837   5.601
 5849TIP3    H217512   6.494   0.930   5.714
 5850TIP3   OH217513   6.635   5.224   0.093
 5850TIP3    H117514   6.718   5.257   0.130
 5850TIP3    H217515   6.603   5.296   0.039
 5851TIP3   OH217516   3.407   3.486   0.820
 5851TIP3    H117517   3.429   3.571   0.782
 5851TIP3    H217518   3.467   3.476   0.894
 5852TIP3   OH217519   2.809   0.184   3.389
 5852TIP3    H117520   2.736   0.229   3.346
 5852TIP3    H217521   2.773   0.155   3.473
 5853TIP3   OH217522   1.943   6.152   0.743
 5853TIP3    H117523   1.910   6.133   0.831
 5853TIP3    H217524   2.038   6.140   0.750
 5854TIP3   OH217525   4.350   0.525   3.568
 5854TIP3    H117526   4.287   0.577   3.618
 5854TIP3    H217527   4.355   0.441   3.613
 5855TIP3   OH217528   3.600   5.737   3.916
 5855TIP3    H117529   3.551   5.654   3.915
 5855TIP3    H217530   3.541   5.800   3.875
 5856TIP3   OH217531   1.801   6.468   3.779
 5856TIP3    H117532   1.880   6.416   3.793
 5856TIP3    H217533   1.815   6.511   3.695
 5857TIP3   OH217534   1.369   6.743   3.993
 5857TIP3    H117535   1.463   6.727   3.983
 5857TIP3    H217536   1.355   6.739   4.088
 5858TIP3   OH217537   3.272   0.008   5.249
 5858TIP3    H117538   3.346   0.006   5.188
 5858TIP3    H217539   3.277   0.095   5.289
 5859TIP3   OH217540   6.319   5.840   3.201
 5859TIP3    H117541   6.394   5.874   3.153
 5859TIP3    H217542   6.273   5.784   3.138
 5860TIP3   OH217543   3.210   0.971   5.025
 5860TIP3    H117544   3.240   0.959   5.116
 5860TIP3    H217545   3.254   1.051   4.996
 5861TIP3   OH217546   6.270   4.411   3.243
 5861TIP3    H117547   6.324   4.403   3.165
 5861TIP3    H217548   6.181   4.423   3.210
 5862TIP3   OH217549   4.501   1.451   3.985
 5862TIP3    H117550   4.503   1.536   3.942
 5862TIP3    H217551   4.518   1.388   3.915
 5863TIP3   OH217552   1.382   3.861   2.086
 5863TIP3    H117553   1.437   3.923   2.038
 5863TIP3    H217554   1.373   3.787   2.026
 5864TIP3   OH217555   2.144   0.120   0.780
 5864TIP3    H117556   2.235   0.144   0.793
 5864TIP3    H217557   2.124   0.061   0.853
 5865TIP3   OH217558   2.521   4.500   5.570
 5865TIP3    H117559   2.590   4.474   5.631
 5865TIP3    H217560   2.476   4.572   5.615
 5866TIP3   OH217561   4.784   3.197   5.385
 5866TIP3    H117562   4.689   3.192   5.395
 5866TIP3    H217563   4.814   3.107   5.396
 5867TIP3   OH217564   0.143   0.603   4.230
 5867TIP3    H117565   0.062   0.575   4.188
 5867TIP3    H217566   0.211   0.588   4.164
 5868TIP3   OH217567   6.952   4.325   1.093
 5868TIP3    H117568   6.991   4.393   1.147
 5868TIP3    H217569   7.008   4.248   1.107
 5869TIP3   OH217570   0.096   6.699   4.211
 5869TIP3    H117571   0.106   6.608   4.183
 5869TIP3    H217572   0.001   6.713   4.213
 5870TIP3   OH217573   1.254   5.812   2.553
 5870TIP3    H117574   1.286   5.900   2.571
 5870TIP3    H217575   1.161   5.824   2.531
 5871TIP3   OH217576   4.260   2.713   1.168
 5871TIP3    H117577   4.276   2.773   1.095
 5871TIP3    H217578   4.346   2.679   1.190
 5872TIP3   OH217579   0.579   0.267   3.082
 5872TIP3    H117580   0.505   0.276   3.022
 5872TIP3    H217581   0.584   0.352   3.127
 5873TIP3   OH217582   2.113   3.663   5.565
 5873TIP3    H117583   2.050   3.624   5.505
 5873TIP3    H217584   2.076   3.747   5.589
 5874TIP3   OH217585   2.829   5.262   4.604
 5874TIP3    H117586   2.857   5.178   4.640
 5874TIP3    H217587   2.784   5.239   4.523
 5875TIP3   OH217588   2.518   4.170   2.132
 5875TIP3    H117589   2.430   4.169   2.093
 5875TIP3    H217590   2.503   4.188   2.224
 5876TIP3   OH217591   5.470   0.511   2.829
 5876TIP3    H117592   5.482   0.498   2.924
 5876TIP3    H217593   5.553   0.481   2.791
 5877TIP3   OH217594   3.500   1.067   0.060
 5877TIP3    H117595   3.485   1.129  -0.011
 5877TIP3    H217596   3.476   0.982   0.023
 5878TIP3   OH217597   5.598   5.746   0.981
 5878TIP3    H117598   5.557   5.742   0.894
 5878TIP3    H217599   5.691   5.737   0.964
 5879TIP3   OH217600   7.153   1.576   3.742
 5879TIP3    H117601   7.130   1.643   3.678
 5879TIP3    H217602   7.158   1.623   3.825
 5880TIP3   OH217603   2.424   0.713   4.584
 5880TIP3    H117604   2.378   0.637   4.548
 5880TIP3    H217605   2.490   0.735   4.519
 5881TIP3   OH217606   1.962   3.291   1.152
 5881TIP3    H117607   2.002   3.204   1.154
 5881TIP3    H217608   1.927   3.298   1.063
 5882TIP3   OH217609   6.369   0.255   0.157
 5882TIP3    H117610   6.374   0.317   0.084
 5882TIP3    H217611   6.327   0.305   0.227
 5883TIP3   OH217612   3.211   6.235   2.522
 5883TIP3    H117613   3.293   6.244   2.473
 5883TIP3    H217614   3.206   6.141   2.541
 5884TIP3   OH217615   4.407   4.308   1.761
 5884TIP3    H117616   4.436   4.237   1.705
 5884TIP3    H217617   4.363   4.370   1.702
 5885TIP3   OH217618   0.872   3.845   2.304
 5885TIP3    H117619   0.924   3.868   2.381
 5885TIP3    H217620   0.934   3.843   2.232
 5886TIP3   OH217621   5.688   3.553   5.771
 5886TIP3    H117622   5.754   3.616   5.741
 5886TIP3    H217623   5.617   3.561   5.708
 5887TIP3   OH217624   3.747   4.739   5.310
 5887TIP3    H117625   3.722   4.731   5.218
 5887TIP3    H217626   3.767   4.650   5.338
 5888TIP3   OH217627   1.915   1.720   2.937
 5888TIP3    H117628   1.983   1.777   2.900
 5888TIP3    H217629   1.856   1.780   2.983
 5889TIP3   OH217630   6.308   3.248   3.539
 5889TIP3    H117631   6.245   3.251   3.611
 5889TIP3    H217632   6.390   3.281   3.576
 5890TIP3   OH217633   1.877   5.236   4.528
 5890TIP3    H117634   1.808   5.294   4.496
 5890TIP3    H217635   1.844   5.148   4.509
 5891TIP3   OH217636   4.686   0.002   1.823
 5891TIP3    H117637   4.725  -0.059   1.760
 5891TIP3    H217638   4.749   0.074   1.829
 5892TIP3   OH217639   5.566   1.977   1.055
 5892TIP3    H117640   5.600   1.901   1.007
 5892TIP3    H217641   5.576   1.954   1.147
 5893TIP3   OH217642   0.096   4.977   4.109
 5893TIP3    H117643   0.095   5.004   4.201
 5893TIP3    H217644   0.120   4.884   4.112
 5894TIP3   OH217645   0.809   4.128   2.686
 5894TIP3    H117646   0.719   4.159   2.681
 5894TIP3    H217647   0.855   4.195   2.736
 5895TIP3   OH217648   0.589   4.966   2.407
 5895TIP3    H117649   0.684   4.958   2.395
 5895TIP3    H217650   0.559   5.015   2.331
 5896TIP3   OH217651   6.962   4.531   3.995
 5896TIP3    H117652   6.925   4.583   3.923
 5896TIP3    H217653   6.886   4.492   4.037
 5897TIP3   OH217654   3.772   0.612   0.930
 5897TIP3    H117655   3.836   0.614   0.859
 5897TIP3    H217656   3.758   0.519   0.947
 5898TIP3   OH217657   1.659   0.440   1.763
 5898TIP3    H117658   1.612   0.478   1.690
 5898TIP3    H217659   1.636   0.347   1.760
 5899TIP3   OH217660   3.138   2.384   0.258
 5899TIP3    H117661   3.050   2.353   0.279
 5899TIP3    H217662   3.185   2.384   0.341
 5900TIP3   OH217663   3.600   4.340   0.412
 5900TIP3    H117664   3.585   4.281   0.338
 5900TIP3    H217665   3.665   4.296   0.466
 5901TIP3   OH217666   4.804   0.693   1.471
 5901TIP3    H117667   4.834   0.686   1.380
 5901TIP3    H217668   4.811   0.605   1.505
 5902TIP3   OH217669   1.246   0.557   1.239
 5902TIP3    H117670   1.239   0.642   1.196
 5902TIP3    H217671   1.340   0.546   1.256
 5903TIP3   OH217672   5.070   2.772   1.537
 5903TIP3    H117673   5.105   2.861   1.527
 5903TIP3    H217674   5.002   2.781   1.603
 5904TIP3   OH217675   5.044   2.389   2.375
 5904TIP3    H117676   5.087   2.436   2.446
 5904TIP3    H217677   4.962   2.438   2.360
 5905TIP3   OH217678   4.993   3.232   5.240
 5905TIP3    H117679   4.920   3.213   5.299
 5905TIP3    H217680   4.966   3.194   5.156
 5906TIP3   OH217681   6.443   2.519   3.111
 5906TIP3    H117682   6.418   2.584   3.177
 5906TIP3    H217683   6.363   2.504   3.061
 5907TIP3   OH217684   0.030   0.381   0.032
 5907TIP3    H117685   0.062   0.290   0.029
 5907TIP3    H217686  -0.020   0.392  -0.049
 5908TIP3   OH217687   0.912   4.471   1.422
 5908TIP3    H117688   0.854   4.493   1.348
 5908TIP3    H217689   0.948   4.386   1.399
 5909TIP3   OH217690   4.943   3.210   0.399
 5909TIP3    H117691   4.946   3.304   0.382
 5909TIP3    H217692   5.035   3.185   0.410
 5910TIP3   OH217693   4.206   5.088   1.810
 5910TIP3    H117694   4.264   5.153   1.849
 5910TIP3    H217695   4.151   5.138   1.750
 5911TIP3   OH217696   1.556   5.706   1.707
 5911TIP3    H117697   1.500   5.686   1.632
 5911TIP3    H217698   1.542   5.799   1.723
 5912TIP3   OH217699   6.885   4.035   3.757
 5912TIP3    H117700   6.868   3.948   3.721
 5912TIP3    H217701   6.858   4.096   3.688
 5913TIP3   OH217702   0.049   2.972   1.461
 5913TIP3    H117703   0.133   2.979   1.507
 5913TIP3    H217704   0.073   2.938   1.374
 5914TIP3   OH217705   6.089   1.739   4.647
 5914TIP3    H117706   6.157   1.718   4.712
 5914TIP3    H217707   6.008   1.743   4.698
 5915TIP3   OH217708   0.492   5.434   4.803
 5915TIP3    H117709   0.448   5.373   4.862
 5915TIP3    H217710   0.584   5.429   4.829
 5916TIP3   OH217711   2.886   5.009   4.669
 5916TIP3    H117712   2.928   4.925   4.651
 5916TIP3    H217713   2.829   4.992   4.744
 5917TIP3   OH217714   2.094   3.752   4.372
 5917TIP3    H117715   2.057   3.735   4.458
 5917TIP3    H217716   2.062   3.680   4.318
 5918TIP3   OH217717   5.104   5.796   1.731
 5918TIP3    H117718   5.173   5.842   1.683
 5918TIP3    H217719   5.035   5.782   1.666
 5919TIP3   OH217720   2.909   3.831   2.242
 5919TIP3    H117721   2.867   3.852   2.325
 5919TIP3    H217722   2.837   3.825   2.179
 5920TIP3   OH217723   1.157   2.226   0.686
 5920TIP3    H117724   1.063   2.243   0.682
 5920TIP3    H217725   1.164   2.139   0.727
 5921TIP3   OH217726   2.202   2.427   1.153
 5921TIP3    H117727   2.210   2.332   1.152
 5921TIP3    H217728   2.128   2.446   1.096
 5922TIP3   OH217729   4.896   5.731   1.570
 5922TIP3    H117730   4.853   5.689   1.495
 5922TIP3    H217731   4.887   5.825   1.553
 5923TIP3   OH217732   4.491   6.129   4.649
 5923TIP3    H117733   4.446   6.214   4.643
 5923TIP3    H217734   4.498   6.099   4.558
 5924TIP3   OH217735   0.163   5.504   5.360
 5924TIP3    H117736   0.134   5.589   5.393
 5924TIP3    H217737   0.154   5.445   5.435
 5925TIP3   OH217738   3.078   1.867   4.234
 5925TIP3    H117739   3.134   1.895   4.162
 5925TIP3    H217740   2.991   1.860   4.196
 5926TIP3   OH217741   4.577   4.019   4.439
 5926TIP3    H117742   4.651   4.056   4.488
 5926TIP3    H217743   4.557   4.086   4.373
 5927TIP3   OH217744   5.841   3.936   3.116
 5927TIP3    H117745   5.801   3.994   3.182
 5927TIP3    H217746   5.847   3.990   3.037
 5928TIP3   OH217747   4.901   1.698   4.163
 5928TIP3    H117748   4.993   1.678   4.144
 5928TIP3    H217749   4.884   1.781   4.120
 5929TIP3   OH217750   3.600   6.233   5.477
 5929TIP3    H117751   3.696   6.234   5.487
 5929TIP3    H217752   3.569   6.187   5.554
 5930TIP3   OH217753   5.529   0.879   4.040
 5930TIP3    H117754   5.434   0.869   4.039
 5930TIP3    H217755   5.558   0.839   3.958
 5931TIP3   OH217756   5.047   5.178   2.737
 5931TIP3    H117757   5.096   5.188   2.819
 5931TIP3    H217758   5.111   5.140   2.676
 5932TIP3   OH217759   4.063   1.603   5.690
 5932TIP3    H117760   4.139   1.638   5.642
 5932TIP3    H217761   4.019   1.545   5.628
 5933TIP3   OH217762   1.343   2.658   0.937
 5933TIP3    H117763   1.430   2.619   0.946
 5933TIP3    H217764   1.288   2.588   0.901
 5934TIP3   OH217765   6.599   0.496   3.112
 5934TIP3    H117766   6.675   0.495   3.172
 5934TIP3    H217767   6.634   0.533   3.031
 5935TIP3   OH217768   3.621   3.030   5.106
 5935TIP3    H117769   3.549   2.973   5.133
 5935TIP3    H217770   3.586   3.078   5.031
 5936TIP3   OH217771   3.215   1.917   3.012
 5936TIP3    H117772   3.304   1.949   2.999
 5936TIP3    H217773   3.224   1.841   3.070
 5937TIP3   OH217774   5.970   5.673   4.931
 5937TIP3    H117775   5.898   5.634   4.980
 5937TIP3    H217776   6.045   5.616   4.948
 5938TIP3   OH217777   0.821   2.372   3.756
 5938TIP3    H117778   0.849   2.436   3.690
 5938TIP3    H217779   0.882   2.385   3.829
 5939TIP3   OH217780   1.957   1.574   2.269
 5939TIP3    H117781   1.880   1.522   2.291
 5939TIP3    H217782   1.935   1.614   2.184
 5940TIP3   OH217783   2.833   3.473   5.251
 5940TIP3    H117784   2.834   3.429   5.166
 5940TIP3    H217785   2.749   3.449   5.289
 5941TIP3   OH217786   2.796   4.632   0.429
 5941TIP3    H117787   2.701   4.645   0.431
 5941TIP3    H217788   2.816   4.620   0.336
 5942TIP3   OH217789   0.336   0.475   1.602
 5942TIP3    H117790   0.245   0.482   1.629
 5942TIP3    H217791   0.349   0.382   1.587
 5943TIP3   OH217792   6.059   2.033   1.111
 5943TIP3    H117793   6.005   2.065   1.039
 5943TIP3    H217794   6.007   2.051   1.190
 5944TIP3   OH217795   5.245   5.056   4.883
 5944TIP3    H117796   5.189   4.990   4.926
 5944TIP3    H217797   5.220   5.138   4.924
 5945TIP3   OH217798   6.279   5.559   3.832
 5945TIP3    H117799   6.314   5.561   3.921
 5945TIP3    H217800   6.184   5.560   3.843
 5946TIP3   OH217801   4.981   4.106   5.534
 5946TIP3    H117802   4.893   4.129   5.563
 5946TIP3    H217803   4.968   4.036   5.470
 5947TIP3   OH217804   1.978   3.643   3.882
 5947TIP3    H117805   1.946   3.595   3.959
 5947TIP3    H217806   1.993   3.576   3.816
 5948TIP3   OH217807   3.348   4.431   4.658
 5948TIP3    H117808   3.349   4.475   4.573
 5948TIP3    H217809   3.327   4.340   4.637
 5949TIP3   OH217810   5.452   0.338   5.322
 5949TIP3    H117811   5.439   0.327   5.228
 5949TIP3    H217812   5.402   0.267   5.362
 5950TIP3   OH217813   6.047   5.796   3.059
 5950TIP3    H117814   6.055   5.729   3.128
 5950TIP3    H217815   6.100   5.763   2.987
 5951TIP3   OH217816   2.785   6.601   4.054
 5951TIP3    H117817   2.807   6.511   4.080
 5951TIP3    H217818   2.699   6.593   4.011
 5952TIP3   OH217819   4.486   2.877   4.520
 5952TIP3    H117820   4.517   2.787   4.520
 5952TIP3    H217821   4.392   2.871   4.531
 5953TIP3   OH217822   5.613   3.386   4.473
 5953TIP3    H117823   5.558   3.376   4.551
 5953TIP3    H217824   5.594   3.308   4.420
 5954TIP3   OH217825   5.307   5.181   5.434
 5954TIP3    H117826   5.296   5.089   5.414
 5954TIP3    H217827   5.224   5.207   5.474
 5955TIP3   OH217828   1.208   6.116   0.502
 5955TIP3    H117829   1.276   6.050   0.488
 5955TIP3    H217830   1.126   6.068   0.494
 5956TIP3   OH217831   3.064   5.410   0.205
 5956TIP3    H117832   3.003   5.374   0.140
 5956TIP3    H217833   3.150   5.396   0.165
 5957TIP3   OH217834   2.938   0.811   5.549
 5957TIP3    H117835   2.974   0.745   5.608
 5957TIP3    H217836   3.011   0.870   5.531
 5958TIP3   OH217837   1.451   2.266   0.742
 5958TIP3    H117838   1.370   2.266   0.690
 5958TIP3    H217839   1.426   2.226   0.825
 5959TIP3   OH217840   6.910   4.185   0.569
 5959TIP3    H117841   6.848   4.223   0.630
 5959TIP3    H217842   6.904   4.090   0.584
 5960TIP3   OH217843   3.527   4.959   3.445
 5960TIP3    H117844   3.507   5.030   3.506
 5960TIP3    H217845   3.563   5.003   3.368
 5961TIP3   OH217846   0.216   0.135   3.346
 5961TIP3    H117847   0.129   0.142   3.305
 5961TIP3    H217848   0.199   0.094   3.431
 5962TIP3   OH217849   5.681   6.476   4.209
 5962TIP3    H117850   5.725   6.550   4.251
 5962TIP3    H217851   5.693   6.404   4.271
 5963TIP3   OH217852   1.673   2.584   1.271
 5963TIP3    H117853   1.768   2.586   1.273
 5963TIP3    H217854   1.646   2.631   1.350
 5964TIP3   OH217855   1.628   1.095   0.592
 5964TIP3    H117856   1.564   1.135   0.652
 5964TIP3    H217857   1.696   1.059   0.650
 5965TIP3   OH217858   3.453   1.734   2.809
 5965TIP3    H117859   3.371   1.696   2.777
 5965TIP3    H217860   3.507   1.745   2.731
 5966TIP3   OH217861   6.346   6.258   1.157
 5966TIP3    H117862   6.388   6.324   1.101
 5966TIP3    H217863   6.418   6.214   1.201
 5967TIP3   OH217864   3.089   2.381   2.100
 5967TIP3    H117865   3.113   2.375   2.007
 5967TIP3    H217866   3.172   2.377   2.147
 5968TIP3   OH217867   2.934   5.876   4.045
 5968TIP3    H117868   2.925   5.787   4.009
 5968TIP3    H217869   2.985   5.923   3.979
 5969TIP3   OH217870   4.694   0.472   3.608
 5969TIP3    H117871   4.644   0.403   3.651
 5969TIP3    H217872   4.640   0.495   3.532
 5970TIP3   OH217873   4.875   1.466   5.166
 5970TIP3    H117874   4.954   1.478   5.219
 5970TIP3    H217875   4.804   1.461   5.230
 5971TIP3   OH217876   1.784   3.459   3.963
 5971TIP3    H117877   1.780   3.376   4.011
 5971TIP3    H217878   1.771   3.434   3.871
 5972TIP3   OH217879   0.207   0.876   1.009
 5972TIP3    H117880   0.217   0.970   1.021
 5972TIP3    H217881   0.269   0.854   0.940
 5973TIP3   OH217882   4.808   5.295   2.691
 5973TIP3    H117883   4.821   5.384   2.724
 5973TIP3    H217884   4.893   5.252   2.705
 5974TIP3   OH217885   1.567   4.532   3.479
 5974TIP3    H117886   1.514   4.578   3.413
 5974TIP3    H217887   1.555   4.582   3.559
 5975TIP3   OH217888   1.886   2.011   5.573
 5975TIP3    H117889   1.916   1.931   5.530
 5975TIP3    H217890   1.958   2.038   5.629
 5976TIP3   OH217891   4.599   5.914   2.295
 5976TIP3    H117892   4.553   5.850   2.350
 5976TIP3    H217893   4.538   5.987   2.288
 5977TIP3   OH217894   6.915   0.394   5.495
 5977TIP3    H117895   6.987   0.430   5.547
 5977TIP3    H217896   6.894   0.311   5.538
 5978TIP3   OH217897   7.129   2.104   1.961
 5978TIP3    H117898   7.193   2.169   1.989
 5978TIP3    H217899   7.044   2.141   1.988
 5979TIP3   OH217900   0.737   2.896   1.755
 5979TIP3    H117901   0.799   2.950   1.706
 5979TIP3    H217902   0.675   2.958   1.792
 5980TIP3   OH217903   0.412   4.342   4.012
 5980TIP3    H117904   0.507   4.348   4.012
 5980TIP3    H217905   0.383   4.430   3.988
 5981TIP3   OH217906   3.425   1.258   5.441
 5981TIP3    H117907   3.408   1.188   5.504
 5981TIP3    H217908   3.395   1.338   5.485
 5982TIP3   OH217909   5.133   5.074   4.626
 5982TIP3    H117910   5.157   5.066   4.719
 5982TIP3    H217911   5.203   5.028   4.579
 5983TIP3   OH217912   6.264   1.787   0.079
 5983TIP3    H117913   6.348   1.747   0.055
 5983TIP3    H217914   6.285   1.878   0.097
 5984TIP3   OH217915   5.074   2.707   4.090
 5984TIP3    H117916   4.995   2.734   4.136
 5984TIP3    H217917   5.059   2.732   3.999
 5985TIP3   OH217918   3.745   4.263   0.681
 5985TIP3    H117919   3.776   4.330   0.741
 5985TIP3    H217920   3.823   4.235   0.633
 5986TIP3   OH217921   2.959   4.274   1.014
 5986TIP3    H117922   2.895   4.230   0.957
 5986TIP3    H217923   2.988   4.349   0.963
 5987TIP3   OH217924   0.815   5.778   2.769
 5987TIP3    H117925   0.827   5.811   2.680
 5987TIP3    H217926   0.895   5.729   2.787
 5988TIP3   OH217927   0.830   0.409   3.817
 5988TIP3    H117928   0.908   0.357   3.796
 5988TIP3    H217929   0.756   0.352   3.793
 5989TIP3   OH217930   6.911   3.541   4.132
 5989TIP3    H117931   7.001   3.525   4.162
 5989TIP3    H217932   6.922   3.593   4.053
 5990TIP3   OH217933   4.577   4.342   5.468
 5990TIP3    H117934   4.652   4.350   5.528
 5990TIP3    H217935   4.577   4.424   5.419
 5991TIP3   OH217936   5.603   3.702   0.946
 5991TIP3    H117937   5.551   3.623   0.933
 5991TIP3    H217938   5.557   3.749   1.016
 5992TIP3   OH217939   2.250   0.762   4.253
 5992TIP3    H117940   2.186   0.738   4.320
 5992TIP3    H217941   2.223   0.850   4.226
 5993TIP3   OH217942   6.566   5.209   4.162
 5993TIP3    H117943   6.550   5.125   4.204
 5993TIP3    H217944   6.548   5.194   4.069
 5994TIP3   OH217945   3.384   5.045   5.009
 5994TIP3    H117946   3.427   4.972   4.966
 5994TIP3    H217947   3.293   5.017   5.019
 5995TIP3   OH217948   0.118   2.751   2.544
 5995TIP3    H117949   0.145   2.843   2.547
 5995TIP3    H217950   0.084   2.739   2.456
 5996TIP3   OH217951   5.769   2.817   5.771
 5996TIP3    H117952   5.685   2.815   5.724
 5996TIP3    H217953   5.745   2.837   5.861
 5997TIP3   OH217954   6.674   2.645   2.357
 5997TIP3    H117955   6.615   2.696   2.301
 5997TIP3    H217956   6.623   2.567   2.380
 5998TIP3   OH217957   2.218   1.356   0.964
 5998TIP3    H117958   2.144   1.381   1.020
 5998TIP3    H217959   2.219   1.261   0.967
 5999TIP3   OH217960   1.555   0.751   3.669
 5999TIP3    H117961   1.613   0.718   3.738
 5999TIP3    H217962   1.500   0.816   3.713
 6000TIP3   OH217963   5.961   2.454   3.903
 6000TIP3    H117964   5.873   2.428   3.874
 6000TIP3    H217965   5.963   2.432   3.996
 6001TIP3   OH217966   6.217   6.619   3.741
 6001TIP3    H117967   6.291   6.645   3.687
 6001TIP3    H217968   6.171   6.552   3.690
 6002TIP3   OH217969   4.717   2.172   5.656
 6002TIP3    H117970   4.666   2.247   5.623
 6002TIP3    H217971   4.794   2.211   5.696
 6003TIP3   OH217972   6.210   5.379   1.742
 6003TIP3    H117973   6.157   5.454   1.717
 6003TIP3    H217974   6.184   5.310   1.680
 6004TIP3   OH217975   3.386   1.083   2.139
 6004TIP3    H117976   3.457   1.044   2.191
 6004TIP3    H217977   3.315   1.019   2.145
 6005TIP3   OH217978   3.804   6.420   1.566
 6005TIP3    H117979   3.834   6.331   1.550
 6005TIP3    H217980   3.712   6.420   1.539
 6006TIP3   OH217981   6.802   0.429   1.099
 6006TIP3    H117982   6.783   0.336   1.093
 6006TIP3    H217983   6.898   0.434   1.105
 6007TIP3   OH217984   4.886   6.694   5.514
 6007TIP3    H117985   4.973   6.707   5.551
 6007TIP3    H217986   4.833   6.661   5.588
 6008TIP3   OH217987   1.222   2.553   5.494
 6008TIP3    H117988   1.146   2.578   5.441
 6008TIP3    H217989   1.204   2.589   5.581
 6009TIP3   OH217990   4.558   3.067   3.844
 6009TIP3    H117991   4.475   3.055   3.889
 6009TIP3    H217992   4.543   3.035   3.756
 6010TIP3   OH217993   3.323   5.576   4.984
 6010TIP3    H117994   3.234   5.598   5.011
 6010TIP3    H217995   3.350   5.507   5.043
 6011TIP3   OH217996   3.256   4.960   3.200
 6011TIP3    H117997   3.306   4.884   3.169
 6011TIP3    H217998   3.320   5.012   3.249
 6012TIP3   OH217999   1.357   4.438   5.157
 6012TIP3    H118000   1.274   4.473   5.190
 6012TIP3    H218001   1.391   4.507   5.100
 6013TIP3   OH218002   0.714   1.348   0.949
 6013TIP3    H118003   0.716   1.405   0.872
 6013TIP3    H218004   0.777   1.278   0.929
 6014TIP3   OH218005   2.118   0.392   4.865
 6014TIP3    H118006   2.075   0.307   4.872
 6014TIP3    H218007   2.091   0.439   4.944
 6015TIP3   OH218008   2.891   3.227   4.310
 6015TIP3    H118009   2.829   3.226   4.382
 6015TIP3    H218010   2.838   3.247   4.233
 6016TIP3   OH218011   7.029   1.270   0.414
 6016TIP3    H118012   6.960   1.206   0.432
 6016TIP3    H218013   7.042   1.266   0.320
 6017TIP3   OH218014   7.093   5.300   2.777
 6017TIP3    H118015   7.041   5.236   2.826
 6017TIP3    H218016   7.064   5.290   2.686
 6018TIP3   OH218017   1.540   5.710   5.682
 6018TIP3    H118018   1.450   5.675   5.681
 6018TIP3    H218019   1.564   5.715   5.589
 6019TIP3   OH218020   6.355   3.723   4.915
 6019TIP3    H118021   6.431   3.776   4.889
 6019TIP3    H218022   6.288   3.745   4.850
 6020TIP3   OH218023   0.239   3.038   4.395
 6020TIP3    H118024   0.206   3.051   4.484
 6020TIP3    H218025   0.175   3.082   4.339
 6021TIP3   OH218026   2.252   6.630   3.768
 6021TIP3    H118027   2.314   6.674   3.825
 6021TIP3    H218028   2.267   6.668   3.682
 6022TIP3   OH218029   3.597   1.103   3.808
 6022TIP3    H118030   3.591   1.122   3.714
 6022TIP3    H218031   3.634   1.015   3.813
 6023TIP3   OH218032   4.557   2.447   1.489
 6023TIP3    H118033   4.560   2.537   1.523
 6023TIP3    H218034   4.648   2.417   1.492
 6024TIP3   OH218035   4.376   2.619   5.656
 6024TIP3    H118036   4.341   2.529   5.661
 6024TIP3    H218037   4.471   2.607   5.657
 6025TIP3   OH218038   2.841   4.459   4.219
 6025TIP3    H118039   2.769   4.521   4.215
 6025TIP3    H218040   2.808   4.387   4.272
 6026TIP3   OH218041   4.867   5.783   1.129
 6026TIP3    H118042   4.953   5.744   1.145
 6026TIP3    H218043   4.838   5.744   1.046
 6027TIP3   OH218044   1.362   2.802   0.566
 6027TIP3    H118045   1.399   2.714   0.575
 6027TIP3    H218046   1.308   2.814   0.644
 6028TIP3   OH218047   1.311   0.298   1.072
 6028TIP3    H118048   1.281   0.344   0.995
 6028TIP3    H218049   1.240   0.306   1.135
 6029TIP3   OH218050   7.209   1.308   3.880
 6029TIP3    H118051   7.226   1.358   3.960
 6029TIP3    H218052   7.219   1.217   3.906
 6030TIP3   OH218053   1.793   5.915   4.334
 6030TIP3    H118054   1.781   5.820   4.333
 6030TIP3    H218055   1.863   5.929   4.398
 6031TIP3   OH218056   1.165   1.338   4.570
 6031TIP3    H118057   1.121   1.325   4.486
 6031TIP3    H218058   1.238   1.276   4.568
 6032TIP3   OH218059   6.697   2.666   4.395
 6032TIP3    H118060   6.605   2.646   4.415
 6032TIP3    H218061   6.701   2.762   4.399
 6033TIP3   OH218062   5.501   2.991   2.242
 6033TIP3    H118063   5.583   2.985   2.292
 6033TIP3    H218064   5.490   3.084   2.224
 6034TIP3   OH218065   5.988   5.936   0.789
 6034TIP3    H118066   5.958   6.009   0.735
 6034TIP3    H218067   6.032   5.978   0.864
 6035TIP3   OH218068   3.663   0.653   4.402
 6035TIP3    H118069   3.601   0.717   4.436
 6035TIP3    H218070   3.722   0.704   4.347
 6036TIP3   OH218071   0.882   5.987   3.009
 6036TIP3    H118072   0.929   5.940   3.079
 6036TIP3    H218073   0.941   5.982   2.934
 6037TIP3   OH218074   6.623   6.706   4.419
 6037TIP3    H118075   6.534   6.718   4.454
 6037TIP3    H218076   6.613   6.713   4.324
 6038TIP3   OH218077   2.267   4.143   1.995
 6038TIP3    H118078   2.241   4.230   1.966
 6038TIP3    H218079   2.247   4.086   1.920
 6039TIP3   OH218080   3.610   4.168   4.549
 6039TIP3    H118081   3.623   4.140   4.640
 6039TIP3    H218082   3.662   4.248   4.541
 6040TIP3   OH218083   6.533   0.971   4.270
 6040TIP3    H118084   6.541   0.876   4.268
 6040TIP3    H218085   6.464   0.990   4.206
 6041TIP3   OH218086   2.563   5.179   1.299
 6041TIP3    H118087   2.561   5.191   1.393
 6041TIP3    H218088   2.535   5.088   1.285
 6042TIP3   OH218089   5.623   2.935   5.345
 6042TIP3    H118090   5.660   3.020   5.320
 6042TIP3    H218091   5.672   2.871   5.294
 6043TIP3   OH218092   0.068   4.564   5.220
 6043TIP3    H118093   0.078   4.649   5.177
 6043TIP3    H218094   0.156   4.539   5.246
 6044TIP3   OH218095   1.246   2.235   1.538
 6044TIP3    H118096   1.287   2.222   1.623
 6044TIP3    H218097   1.175   2.298   1.555
 6045TIP3   OH218098   1.602   5.744   0.313
 6045TIP3    H118099   1.577   5.704   0.230
 6045TIP3    H218100   1.606   5.838   0.295
 6046TIP3   OH218101   4.348   1.215   1.659
 6046TIP3    H118102   4.414   1.231   1.727
 6046TIP3    H218103   4.389   1.151   1.600
 6047TIP3   OH218104   0.604   4.523   3.774
 6047TIP3    H118105   0.538   4.466   3.735
 6047TIP3    H218106   0.635   4.475   3.851
 6048TIP3   OH218107   6.776   4.682   0.034
 6048TIP3    H118108   6.704   4.659  -0.025
 6048TIP3    H218109   6.737   4.745   0.095
 6049TIP3   OH218110   3.739   6.701   2.955
 6049TIP3    H118111   3.698   6.775   2.910
 6049TIP3    H218112   3.827   6.732   2.979
 6050TIP3   OH218113   0.817   4.317   2.034
 6050TIP3    H118114   0.747   4.315   1.968
 6050TIP3    H218115   0.813   4.231   2.075
 6051TIP3   OH218116   4.690   0.207   2.303
 6051TIP3    H118117   4.784   0.210   2.283
 6051TIP3    H218118   4.648   0.202   2.217
 6052TIP3   OH218119   5.591   3.110   1.878
 6052TIP3    H118120   5.594   3.014   1.877
 6052TIP3    H218121   5.640   3.136   1.800
 6053TIP3   OH218122   2.631   6.268   4.003
 6053TIP3    H118123   2.715   6.295   4.042
 6053TIP3    H218124   2.634   6.173   4.004
 6054TIP3   OH218125   1.818   6.606   4.143
 6054TIP3    H118126   1.749   6.669   4.127
 6054TIP3    H218127   1.785   6.524   4.106
 6055TIP3   OH218128   1.853   4.156   5.891
 6055TIP3    H118129   1.837   4.250   5.887
 6055TIP3    H218130   1.766   4.116   5.890
 6056TIP3   OH218131   1.758   2.364   2.262
 6056TIP3    H118132   1.686   2.352   2.200
 6056TIP3    H218133   1.786   2.454   2.250
 6057TIP3   OH218134   4.040   1.062   3.924
 6057TIP3    H118135   3.980   1.131   3.953
 6057TIP3    H218136   3.983   1.000   3.878
 6058TIP3   OH218137   2.559   5.520   2.748
 6058TIP3    H118138   2.503   5.572   2.690
 6058TIP3    H218139   2.614   5.585   2.792
 6059TIP3   OH218140   2.268   6.371   3.651
 6059TIP3    H118141   2.345   6.327   3.686
 6059TIP3    H218142   2.263   6.453   3.700
 6060TIP3   OH218143   3.315   4.302   2.908
 6060TIP3    H118144   3.262   4.223   2.914
 6060TIP3    H218145   3.262   4.362   2.856
 6061TIP3   OH218146   3.770   1.676   1.332
 6061TIP3    H118147   3.763   1.742   1.263
 6061TIP3    H218148   3.711   1.707   1.401
 6062TIP3   OH218149   5.976   6.577   2.751
 6062TIP3    H118150   5.895   6.628   2.744
 6062TIP3    H218151   5.981   6.528   2.669
 6063TIP3   OH218152   5.323   0.560   2.603
 6063TIP3    H118153   5.350   0.577   2.693
 6063TIP3    H218154   5.404   0.539   2.557
 6064TIP3   OH218155   0.817   3.097   2.333
 6064TIP3    H118156   0.850   3.185   2.316
 6064TIP3    H218157   0.804   3.093   2.428
 6065TIP3   OH218158   3.937   2.197   2.250
 6065TIP3    H118159   3.924   2.291   2.243
 6065TIP3    H218160   4.032   2.187   2.263
 6066TIP3   OH218161   6.531   6.706   4.779
 6066TIP3    H118162   6.564   6.784   4.734
 6066TIP3    H218163   6.500   6.738   4.863
 6067TIP3   OH218164   2.299   3.106   1.746
 6067TIP3    H118165   2.341   3.051   1.812
 6067TIP3    H218166   2.338   3.193   1.759
 6068TIP3   OH218167   1.828   6.484   2.246
 6068TIP3    H118168   1.886   6.557   2.223
 6068TIP3    H218169   1.803   6.446   2.162
 6069TIP3   OH218170   3.378   3.078   0.207
 6069TIP3    H118171   3.328   3.155   0.180
 6069TIP3    H218172   3.350   3.009   0.147
 6070TIP3   OH218173   3.048   4.533   4.599
 6070TIP3    H118174   3.033   4.501   4.688
 6070TIP3    H218175   3.103   4.467   4.558
 6071TIP3   OH218176   2.617   0.046   1.646
 6071TIP3    H118177   2.637  -0.038   1.686
 6071TIP3    H218178   2.680   0.054   1.574
 6072TIP3   OH218179   3.483   6.201   4.004
 6072TIP3    H118180   3.394   6.222   4.032
 6072TIP3    H218181   3.473   6.164   3.917
 6073TIP3   OH218182   5.307   3.270   1.069
 6073TIP3    H118183   5.401   3.253   1.069
 6073TIP3    H218184   5.289   3.302   0.980
 6074TIP3   OH218185   3.840   4.538   1.675
 6074TIP3    H118186   3.761   4.512   1.723
 6074TIP3    H218187   3.856   4.628   1.703
 6075TIP3   OH218188   2.217   0.156   1.896
 6075TIP3    H118189   2.146   0.092   1.887
 6075TIP3    H218190   2.269   0.145   1.816
 6076TIP3   OH218191   5.595   4.814   2.070
 6076TIP3    H118192   5.662   4.746   2.057
 6076TIP3    H218193   5.572   4.806   2.163
 6077TIP3   OH218194   2.365   5.136   3.442
 6077TIP3    H118195   2.320   5.092   3.370
 6077TIP3    H218196   2.327   5.224   3.444
 6078TIP3   OH218197   0.815   5.888   0.883
 6078TIP3    H118198   0.843   5.959   0.941
 6078TIP3    H218199   0.735   5.854   0.923
 6079TIP3   OH218200   1.777   6.460   0.073
 6079TIP3    H118201   1.853   6.498   0.030
 6079TIP3    H218202   1.731   6.534   0.111
 6080TIP3   OH218203   4.384   1.878   1.427
 6080TIP3    H118204   4.305   1.847   1.472
 6080TIP3    H218205   4.415   1.802   1.379
 6081TIP3   OH218206   4.426   5.303   4.079
 6081TIP3    H118207   4.393   5.353   4.004
 6081TIP3    H218208   4.520   5.292   4.061
 6082TIP3   OH218209   4.200   5.916   1.004
 6082TIP3    H118210   4.206   5.827   0.967
 6082TIP3    H218211   4.126   5.911   1.065
 6083TIP3   OH218212   5.602   0.997   2.011
 6083TIP3    H118213   5.555   0.929   2.060
 6083TIP3    H218214   5.547   1.014   1.935
 6084TIP3   OH218215   2.209   4.280   5.851
 6084TIP3    H118216   2.184   4.350   5.791
 6084TIP3    H218217   2.303   4.270   5.838
 6085TIP3   OH218218   5.662   3.673   1.839
 6085TIP3    H118219   5.622   3.752   1.874
 6085TIP3    H218220   5.678   3.618   1.915
 6086TIP3   OH218221   5.033   4.384   1.852
 6086TIP3    H118222   4.977   4.405   1.928
 6086TIP3    H218223   5.080   4.305   1.879
 6087TIP3   OH218224   6.451   6.439   0.992
 6087TIP3    H118225   6.410   6.512   0.946
 6087TIP3    H218226   6.543   6.442   0.963
 6088TIP3   OH218227   6.327   4.393   0.064
 6088TIP3    H118228   6.404   4.427   0.018
 6088TIP3    H218229   6.357   4.378   0.153
 6089TIP3   OH218230   0.816   0.915   1.434
 6089TIP3    H118231   0.858   0.978   1.376
 6089TIP3    H218232   0.722   0.931   1.424
 6090TIP3   OH218233   5.799   5.412   3.492
 6090TIP3    H118234   5.795   5.364   3.575
 6090TIP3    H218235   5.868   5.477   3.505
 6091TIP3   OH218236   5.109   1.562   4.740
 6091TIP3    H118237   5.172   1.529   4.804
 6091TIP3    H218238   5.114   1.500   4.668
 6092TIP3   OH218239   7.007   1.760   1.971
 6092TIP3    H118240   7.096   1.775   2.001
 6092TIP3    H218241   6.998   1.814   1.893
 6093TIP3   OH218242   5.008   1.266   5.042
 6093TIP3    H118243   4.941   1.322   5.080
 6093TIP3    H218244   4.970   1.234   4.960
 6094TIP3   OH218245   5.077   1.826   0.749
 6094TIP3    H118246   5.083   1.918   0.774
 6094TIP3    H218247   5.058   1.828   0.655
 6095TIP3   OH218248   1.260   4.756   3.887
 6095TIP3    H118249   1.188   4.705   3.852
 6095TIP3    H218250   1.224   4.843   3.902
 6096TIP3   OH218251   2.094   3.223   0.126
 6096TIP3    H118252   2.145   3.285   0.178
 6096TIP3    H218253   2.072   3.272   0.046
 6097TIP3   OH218254   2.196   2.689   3.709
 6097TIP3    H118255   2.227   2.779   3.719
 6097TIP3    H218256   2.135   2.693   3.634
 6098TIP3   OH218257   1.552   2.784   3.220
 6098TIP3    H118258   1.591   2.797   3.133
 6098TIP3    H218259   1.461   2.761   3.203
 6099TIP3   OH218260   4.376   2.399   0.797
 6099TIP3    H118261   4.388   2.422   0.704
 6099TIP3    H218262   4.413   2.311   0.804
 6100TIP3   OH218263   2.628   1.799   2.705
 6100TIP3    H118264   2.576   1.812   2.784
 6100TIP3    H218265   2.684   1.877   2.699
 6101TIP3   OH218266   0.970   0.935   4.697
 6101TIP3    H118267   0.969   0.996   4.771
 6101TIP3    H218268   1.058   0.945   4.661
 6102TIP3   OH218269   6.820   5.244   4.572
 6102TIP3    H118270   6.741   5.192   4.559
 6102TIP3    H218271   6.855   5.258   4.484
 6103TIP3   OH218272   0.675   6.667   2.405
 6103TIP3    H118273   0.600   6.706   2.449
 6103TIP3    H218274   0.687   6.721   2.327
 6104TIP3   OH218275   1.923   1.069   1.483
 6104TIP3    H118276   1.859   1.008   1.520
 6104TIP3    H218277   2.008   1.030   1.503
 6105TIP3   OH218278   4.636   2.634   4.310
 6105TIP3    H118279   4.585   2.558   4.281
 6105TIP3    H218280   4.620   2.639   4.404
 6106TIP3   OH218281   5.061   1.195   2.758
 6106TIP3    H118282   5.043   1.284   2.727
 6106TIP3    H218283   5.017   1.138   2.694
 6107TIP3   OH218284   3.299   4.800   4.732
 6107TIP3    H118285   3.214   4.812   4.690
 6107TIP3    H218286   3.283   4.730   4.796
 6108TIP3   OH218287   6.470   5.110   1.045
 6108TIP3    H118288   6.555   5.106   1.088
 6108TIP3    H218289   6.473   5.040   0.980
 6109TIP3   OH218290   4.804   6.808   3.525
 6109TIP3    H118291   4.735   6.872   3.543
 6109TIP3    H218292   4.758   6.725   3.515
 6110TIP3   OH218293   1.800   5.259   1.860
 6110TIP3    H118294   1.810   5.231   1.951
 6110TIP3    H218295   1.812   5.179   1.809
 6111TIP3   OH218296   0.602   3.524   1.546
 6111TIP3    H118297   0.516   3.556   1.520
 6111TIP3    H218298   0.605   3.435   1.510
 6112TIP3   OH218299   5.800   1.563   5.400
 6112TIP3    H118300   5.755   1.562   5.316
 6112TIP3    H218301   5.749   1.504   5.456
 6113TIP3   OH218302   3.959   0.503   4.898
 6113TIP3    H118303   3.967   0.413   4.864
 6113TIP3    H218304   3.960   0.492   4.993
 6114TIP3   OH218305   2.223   4.951   2.759
 6114TIP3    H118306   2.273   4.983   2.834
 6114TIP3    H218307   2.200   4.861   2.781
 6115TIP3   OH218308   5.706   1.940   5.772
 6115TIP3    H118309   5.720   2.035   5.765
 6115TIP3    H218310   5.697   1.910   5.682
 6116TIP3   OH218311   7.212   2.209   5.172
 6116TIP3    H118312   7.249   2.238   5.256
 6116TIP3    H218313   7.125   2.176   5.194
 6117TIP3   OH218314   6.647   1.135   3.534
 6117TIP3    H118315   6.689   1.129   3.620
 6117TIP3    H218316   6.581   1.066   3.535
 6118TIP3   OH218317   3.175   0.954   5.499
 6118TIP3    H118318   3.243   0.998   5.550
 6118TIP3    H218319   3.216   0.873   5.469
 6119TIP3   OH218320   2.406   6.062   2.175
 6119TIP3    H118321   2.401   6.113   2.094
 6119TIP3    H218322   2.344   5.990   2.163
 6120TIP3   OH218323   7.113   6.310   3.314
 6120TIP3    H118324   7.192   6.358   3.290
 6120TIP3    H218325   7.082   6.272   3.232
 6121TIP3   OH218326   0.760   3.457   2.616
 6121TIP3    H118327   0.694   3.436   2.682
 6121TIP3    H218328   0.723   3.532   2.569
 6122TIP3   OH218329   2.364   6.688   0.699
 6122TIP3    H118330   2.328   6.750   0.636
 6122TIP3    H218331   2.457   6.710   0.703
 6123TIP3   OH218332   3.909   1.446   3.256
 6123TIP3    H118333   3.876   1.532   3.230
 6123TIP3    H218334   3.953   1.462   3.339
 6124TIP3   OH218335   6.306   1.928   5.879
 6124TIP3    H118336   6.355   1.852   5.909
 6124TIP3    H218337   6.214   1.904   5.893
 6125TIP3   OH218338   0.601   3.355   2.837
 6125TIP3    H118339   0.676   3.398   2.876
 6125TIP3    H218340   0.582   3.281   2.895
 6126TIP3   OH218341   1.539   2.136   1.714
 6126TIP3    H118342   1.600   2.084   1.663
 6126TIP3    H218343   1.516   2.081   1.789
 6127TIP3   OH218344   1.919   1.547   3.160
 6127TIP3    H118345   1.843   1.534   3.104
 6127TIP3    H218346   1.972   1.612   3.114
 6128TIP3   OH218347   2.926   3.098   2.823
 6128TIP3    H118348   2.896   3.018   2.779
 6128TIP3    H218349   3.006   3.072   2.868
 6129TIP3   OH218350   0.492   0.517   3.203
 6129TIP3    H118351   0.473   0.610   3.187
 6129TIP3    H218352   0.428   0.490   3.268
 6130TIP3   OH218353   1.591   6.264   5.733
 6130TIP3    H118354   1.584   6.330   5.802
 6130TIP3    H218355   1.581   6.314   5.651
 6131TIP3   OH218356   0.694   6.292   1.905
 6131TIP3    H118357   0.774   6.315   1.952
 6131TIP3    H218358   0.718   6.216   1.853
 6132TIP3   OH218359   4.182   6.694   4.438
 6132TIP3    H118360   4.156   6.704   4.346
 6132TIP3    H218361   4.270   6.731   4.442
 6133TIP3   OH218362   3.550   1.324   1.103
 6133TIP3    H118363   3.485   1.378   1.059
 6133TIP3    H218364   3.505   1.289   1.180
 6134TIP3   OH218365   3.408   1.134   2.577
 6134TIP3    H118366   3.345   1.067   2.552
 6134TIP3    H218367   3.358   1.215   2.579
 6135TIP3   OH218368   0.724   5.867   5.732
 6135TIP3    H118369   0.738   5.815   5.812
 6135TIP3    H218370   0.681   5.806   5.672
 6136TIP3   OH218371   5.781   6.269   4.984
 6136TIP3    H118372   5.716   6.318   4.934
 6136TIP3    H218373   5.864   6.311   4.963
 6137TIP3   OH218374   0.614   5.836   3.425
 6137TIP3    H118375   0.597   5.745   3.402
 6137TIP3    H218376   0.528   5.871   3.449
 6138TIP3   OH218377   3.963   1.436   1.380
 6138TIP3    H118378   3.995   1.525   1.364
 6138TIP3    H218379   3.869   1.440   1.364
 6139TIP3   OH218380   3.266   1.963   1.090
 6139TIP3    H118381   3.207   1.894   1.060
 6139TIP3    H218382   3.278   1.946   1.183
 6140TIP3   OH218383   0.205   2.429   5.274
 6140TIP3    H118384   0.261   2.504   5.254
 6140TIP3    H218385   0.204   2.377   5.193
 6141TIP3   OH218386   5.639   4.573   2.574
 6141TIP3    H118387   5.585   4.533   2.642
 6141TIP3    H218388   5.692   4.501   2.540
 6142TIP3   OH218389   3.135   4.093   2.518
 6142TIP3    H118390   3.171   4.009   2.545
 6142TIP3    H218391   3.153   4.099   2.424
 6143TIP3   OH218392   0.681   1.808   5.415
 6143TIP3    H118393   0.675   1.892   5.369
 6143TIP3    H218394   0.775   1.792   5.425
 6144TIP3   OH218395   0.335   6.095   0.243
 6144TIP3    H118396   0.276   6.119   0.314
 6144TIP3    H218397   0.320   6.001   0.229
 6145TIP3   OH218398   4.626   2.694   4.970
 6145TIP3    H118399   4.568   2.750   4.918
 6145TIP3    H218400   4.632   2.613   4.920
 6146TIP3   OH218401   0.193   0.745   5.016
 6146TIP3    H118402   0.212   0.838   5.006
 6146TIP3    H218403   0.251   0.702   4.952
 6147TIP3   OH218404   3.674   1.206   5.365
 6147TIP3    H118405   3.619   1.237   5.437
 6147TIP3    H218406   3.612   1.170   5.301
 6148TIP3   OH218407   5.373   3.595   2.720
 6148TIP3    H118408   5.386   3.608   2.626
 6148TIP3    H218409   5.433   3.525   2.743
 6149TIP3   OH218410   6.985   6.112   1.854
 6149TIP3    H118411   6.962   6.195   1.896
 6149TIP3    H218412   6.927   6.106   1.778
 6150TIP3   OH218413   5.644   6.043   0.575
 6150TIP3    H118414   5.577   6.039   0.507
 6150TIP3    H218415   5.648   5.953   0.609
 6151TIP3   OH218416   5.351   5.029   4.233
 6151TIP3    H118417   5.384   4.993   4.316
 6151TIP3    H218418   5.374   5.121   4.237
 6152TIP3   OH218419   6.975   6.089   4.070
 6152TIP3    H118420   7.000   6.171   4.028
 6152TIP3    H218421   7.004   6.021   4.010
 6153TIP3   OH218422   3.274   4.407   0.267
 6153TIP3    H118423   3.269   4.368   0.180
 6153TIP3    H218424   3.195   4.460   0.275
 6154TIP3   OH218425   0.161   3.321   4.510
 6154TIP3    H118426   0.199   3.277   4.587
 6154TIP3    H218427   0.198   3.409   4.512
 6155TIP3   OH218428   3.989   3.685   2.917
 6155TIP3    H118429   4.054   3.708   2.984
 6155TIP3    H218430   3.909   3.668   2.967
 6156TIP3   OH218431   5.961   0.384   5.713
 6156TIP3    H118432   5.905   0.316   5.749
 6156TIP3    H218433   6.003   0.344   5.637
 6157TIP3   OH218434   4.667   4.018   0.071
 6157TIP3    H118435   4.590   3.996   0.019
 6157TIP3    H218436   4.741   3.992   0.016
 6158TIP3   OH218437   6.880   4.172   3.998
 6158TIP3    H118438   6.857   4.121   3.921
 6158TIP3    H218439   6.918   4.108   4.058
 6159TIP3   OH218440   4.207   3.952   3.481
 6159TIP3    H118441   4.241   3.956   3.391
 6159TIP3    H218442   4.164   3.866   3.486
 6160TIP3   OH218443   0.523   4.561   5.368
 6160TIP3    H118444   0.537   4.606   5.451
 6160TIP3    H218445   0.582   4.486   5.371
 6161TIP3   OH218446   1.279   6.247   3.493
 6161TIP3    H118447   1.260   6.311   3.424
 6161TIP3    H218448   1.375   6.236   3.490
 6162TIP3   OH218449   4.345   2.678   0.288
 6162TIP3    H118450   4.305   2.596   0.258
 6162TIP3    H218451   4.435   2.674   0.255
 6163TIP3   OH218452   6.710   4.566   0.712
 6163TIP3    H118453   6.767   4.495   0.740
 6163TIP3    H218454   6.654   4.583   0.788
 6164TIP3   OH218455   5.325   6.563   0.395
 6164TIP3    H118456   5.379   6.588   0.471
 6164TIP3    H218457   5.379   6.499   0.348
 6165TIP3   OH218458   0.749   0.460   2.669
 6165TIP3    H118459   0.768   0.456   2.763
 6165TIP3    H218460   0.835   0.467   2.628
 6166TIP3   OH218461   0.702   3.350   4.549
 6166TIP3    H118462   0.642   3.350   4.474
 6166TIP3    H218463   0.741   3.263   4.548
 6167TIP3   OH218464   0.222   2.615   0.405
 6167TIP3    H118465   0.148   2.649   0.356
 6167TIP3    H218466   0.291   2.681   0.394
 6168TIP3   OH218467   2.621   4.909   1.002
 6168TIP3    H118468   2.603   4.851   0.928
 6168TIP3    H218469   2.552   4.889   1.066
 6169TIP3   OH218470   4.863   6.251   3.489
 6169TIP3    H118471   4.845   6.299   3.570
 6169TIP3    H218472   4.842   6.313   3.420
 6170TIP3   OH218473   0.182   4.595   1.579
 6170TIP3    H118474   0.262   4.639   1.608
 6170TIP3    H218475   0.146   4.652   1.512
 6171TIP3   OH218476   1.322   5.011   5.807
 6171TIP3    H118477   1.227   5.018   5.808
 6171TIP3    H218478   1.352   5.079   5.866
 6172TIP3   OH218479   0.195   1.394   5.685
 6172TIP3    H118480   0.159   1.329   5.625
 6172TIP3    H218481   0.289   1.389   5.671
 6173TIP3   OH218482   0.360   0.141   2.091
 6173TIP3    H118483   0.421   0.194   2.142
 6173TIP3    H218484   0.406   0.123   2.009
 6174TIP3   OH218485   4.830   0.980   0.613
 6174TIP3    H118486   4.832   1.055   0.672
 6174TIP3    H218487   4.922   0.957   0.600
 6175TIP3   OH218488   4.387   1.225   2.924
 6175TIP3    H118489   4.350   1.139   2.945
 6175TIP3    H218490   4.401   1.223   2.830
 6176TIP3   OH218491   3.296   6.292   4.904
 6176TIP3    H118492   3.343   6.209   4.889
 6176TIP3    H218493   3.360   6.347   4.949
 6177TIP3   OH218494   3.453   3.997   1.450
 6177TIP3    H118495   3.509   3.922   1.469
 6177TIP3    H218496   3.368   3.975   1.489
 6178TIP3   OH218497   0.805   2.707   4.006
 6178TIP3    H118498   0.871   2.696   4.075
 6178TIP3    H218499   0.797   2.621   3.965
 6179TIP3   OH218500   6.099   1.958   2.546
 6179TIP3    H118501   6.085   2.029   2.608
 6179TIP3    H218502   6.190   1.930   2.562
 6180TIP3   OH218503   5.082   6.105   5.249
 6180TIP3    H118504   5.091   6.013   5.275
 6180TIP3    H218505   4.993   6.111   5.215
 6181TIP3   OH218506   1.571   1.755   1.972
 6181TIP3    H118507   1.500   1.813   1.943
 6181TIP3    H218508   1.528   1.671   1.987
 6182TIP3   OH218509   3.835   5.041   4.404
 6182TIP3    H118510   3.801   5.095   4.476
 6182TIP3    H218511   3.926   5.070   4.393
 6183TIP3   OH218512   4.322   3.893   3.160
 6183TIP3    H118513   4.261   3.962   3.133
 6183TIP3    H218514   4.394   3.899   3.098
 6184TIP3   OH218515   0.928   3.804   3.776
 6184TIP3    H118516   0.932   3.836   3.685
 6184TIP3    H218517   0.984   3.726   3.776
 6185TIP3   OH218518   2.854   1.343   5.260
 6185TIP3    H118519   2.793   1.376   5.327
 6185TIP3    H218520   2.806   1.353   5.178
 6186TIP3   OH218521   0.980   0.919   3.719
 6186TIP3    H118522   1.068   0.944   3.690
 6186TIP3    H218523   0.925   0.926   3.641
 6187TIP3   OH218524   2.139   2.087   2.865
 6187TIP3    H118525   2.119   1.996   2.841
 6187TIP3    H218526   2.094   2.139   2.798
 6188TIP3   OH218527   2.841   5.158   1.971
 6188TIP3    H118528   2.759   5.196   2.001
 6188TIP3    H218529   2.882   5.125   2.051
 6189TIP3   OH218530   5.134   4.038   3.182
 6189TIP3    H118531   5.208   4.093   3.209
 6189TIP3    H218532   5.060   4.099   3.176
 6190TIP3   OH218533   2.185   3.838   0.679
 6190TIP3    H118534   2.112   3.789   0.641
 6190TIP3    H218535   2.163   3.930   0.662
 6191TIP3   OH218536   2.276   1.630   3.433
 6191TIP3    H118537   2.368   1.610   3.417
 6191TIP3    H218538   2.244   1.559   3.489
 6192TIP3   OH218539   1.556   2.672   1.509
 6192TIP3    H118540   1.608   2.692   1.587
 6192TIP3    H218541   1.473   2.640   1.542
 6193TIP3   OH218542   2.724   3.298   2.148
 6193TIP3    H118543   2.736   3.388   2.177
 6193TIP3    H218544   2.714   3.305   2.053
 6194TIP3   OH218545   5.412   3.231   5.643
 6194TIP3    H118546   5.486   3.239   5.582
 6194TIP3    H218547   5.335   3.222   5.587
 6195TIP3   OH218548   6.079   5.305   5.726
 6195TIP3    H118549   6.037   5.368   5.784
 6195TIP3    H218550   6.061   5.220   5.766
 6196TIP3   OH218551   4.781   2.440   3.352
 6196TIP3    H118552   4.819   2.526   3.368
 6196TIP3    H218553   4.770   2.403   3.440
 6197TIP3   OH218554   1.842   1.349   3.853
 6197TIP3    H118555   1.865   1.257   3.861
 6197TIP3    H218556   1.841   1.382   3.943
 6198TIP3   OH218557   5.769   2.670   2.916
 6198TIP3    H118558   5.812   2.602   2.968
 6198TIP3    H218559   5.676   2.647   2.919
 6199TIP3   OH218560   1.577   5.458   1.029
 6199TIP3    H118561   1.521   5.386   0.998
 6199TIP3    H218562   1.601   5.433   1.118
 6200TIP3   OH218563   5.771   2.543   4.409
 6200TIP3    H118564   5.700   2.496   4.366
 6200TIP3    H218565   5.849   2.518   4.361
 6201TIP3   OH218566   0.960   6.631   5.623
 6201TIP3    H118567   0.919   6.717   5.624
 6201TIP3    H218568   1.025   6.635   5.553
 6202TIP3   OH218569   2.847   4.860   1.654
 6202TIP3    H118570   2.909   4.879   1.584
 6202TIP3    H218571   2.813   4.946   1.679
 6203TIP3   OH218572   6.537   1.592   2.697
 6203TIP3    H118573   6.476   1.572   2.768
 6203TIP3    H218574   6.624   1.581   2.735
 6204TIP3   OH218575   6.190   3.807   1.336
 6204TIP3    H118576   6.280   3.839   1.326
 6204TIP3    H218577   6.136   3.886   1.327
 6205TIP3   OH218578   4.053   0.826   2.083
 6205TIP3    H118579   4.041   0.901   2.024
 6205TIP3    H218580   4.130   0.848   2.135
 6206TIP3   OH218581   1.106   0.711   0.840
 6206TIP3    H118582   1.084   0.801   0.865
 6206TIP3    H218583   1.171   0.683   0.904
 6207TIP3   OH218584   6.569   3.295   3.634
 6207TIP3    H118585   6.575   3.202   3.656
 6207TIP3    H218586   6.590   3.341   3.716
 6208TIP3   OH218587   6.790   2.418   1.996
 6208TIP3    H118588   6.845   2.407   1.918
 6208TIP3    H218589   6.838   2.372   2.065
 6209TIP3   OH218590   6.636   3.756   2.779
 6209TIP3    H118591   6.637   3.791   2.690
 6209TIP3    H218592   6.664   3.665   2.769
 6210TIP3   OH218593   5.392   4.230   1.954
 6210TIP3    H118594   5.486   4.250   1.954
 6210TIP3    H218595   5.349   4.313   1.971
 6211TIP3   OH218596   6.611   6.651   5.162
 6211TIP3    H118597   6.519   6.652   5.136
 6211TIP3    H218598   6.630   6.559   5.179
 6212TIP3   OH218599   6.208   5.198   4.828
 6212TIP3    H118600   6.239   5.117   4.787
 6212TIP3    H218601   6.261   5.206   4.908
 6213TIP3   OH218602   3.432   1.370   4.113
 6213TIP3    H118603   3.468   1.346   4.199
 6213TIP3    H218604   3.345   1.330   4.112
 6214TIP3   OH218605   3.788   4.920   1.388
 6214TIP3    H118606   3.716   4.971   1.426
 6214TIP3    H218607   3.747   4.837   1.362
 6215TIP3   OH218608   6.510   3.369   4.711
 6215TIP3    H118609   6.601   3.372   4.679
 6215TIP3    H218610   6.515   3.399   4.801
 6216TIP3   OH218611   1.702   3.513   4.636
 6216TIP3    H118612   1.650   3.581   4.680
 6216TIP3    H218613   1.668   3.431   4.671
 6217TIP3   OH218614   2.212   5.356   5.690
 6217TIP3    H118615   2.168   5.340   5.773
 6217TIP3    H218616   2.180   5.442   5.661
 6218TIP3   OH218617   2.508   0.764   2.568
 6218TIP3    H118618   2.582   0.726   2.615
 6218TIP3    H218619   2.498   0.709   2.491
 6219TIP3   OH218620   2.987   2.082   4.922
 6219TIP3    H118621   2.970   2.069   5.015
 6219TIP3    H218622   3.005   1.994   4.888
 6220TIP3   OH218623   6.657   4.681   1.754
 6220TIP3    H118624   6.743   4.660   1.791
 6220TIP3    H218625   6.602   4.702   1.830
 6221TIP3   OH218626   5.109   2.797   5.869
 6221TIP3    H118627   5.104   2.701   5.876
 6221TIP3    H218628   5.043   2.829   5.930
 6222TIP3   OH218629   3.516   0.323   5.001
 6222TIP3    H118630   3.533   0.247   5.057
 6222TIP3    H218631   3.439   0.365   5.038
 6223TIP3   OH218632   3.501   1.966   4.413
 6223TIP3    H118633   3.418   1.921   4.430
 6223TIP3    H218634   3.513   1.957   4.318
 6224TIP3   OH218635   2.805   0.366   1.207
 6224TIP3    H118636   2.865   0.393   1.137
 6224TIP3    H218637   2.777   0.449   1.246
 6225TIP3   OH218638   2.108   0.149   4.713
 6225TIP3    H118639   2.147   0.071   4.752
 6225TIP3    H218640   2.165   0.170   4.639
 6226TIP3   OH218641   1.701   2.717   1.725
 6226TIP3    H118642   1.672   2.632   1.757
 6226TIP3    H218643   1.790   2.726   1.759
 6227TIP3   OH218644   4.361   4.477   0.758
 6227TIP3    H118645   4.406   4.503   0.838
 6227TIP3    H218646   4.324   4.391   0.779
 6228TIP3   OH218647   2.902   0.754   2.531
 6228TIP3    H118648   2.955   0.673   2.527
 6228TIP3    H218649   2.845   0.749   2.455
 6229TIP3   OH218650   0.313   0.945   3.790
 6229TIP3    H118651   0.362   0.868   3.762
 6229TIP3    H218652   0.247   0.958   3.721
 6230TIP3   OH218653   4.110   1.884   4.309
 6230TIP3    H118654   4.122   1.811   4.249
 6230TIP3    H218655   4.017   1.906   4.302
 6231TIP3   OH218656   4.420   1.415   2.483
 6231TIP3    H118657   4.468   1.333   2.471
 6231TIP3    H218658   4.479   1.483   2.451
 6232TIP3   OH218659   4.434   0.412   5.203
 6232TIP3    H118660   4.473   0.363   5.275
 6232TIP3    H218661   4.434   0.503   5.233
 6233TIP3   OH218662   0.175   0.196   1.088
 6233TIP3    H118663   0.228   0.262   1.133
 6233TIP3    H218664   0.221   0.181   1.005
 6234TIP3   OH218665   1.990   6.631   0.288
 6234TIP3    H118666   1.984   6.545   0.246
 6234TIP3    H218667   2.084   6.650   0.289
 6235TIP3   OH218668   7.027   1.710   1.519
 6235TIP3    H118669   6.942   1.743   1.488
 6235TIP3    H218670   7.065   1.668   1.442
 6236TIP3   OH218671   4.612   2.434   5.859
 6236TIP3    H118672   4.619   2.488   5.780
 6236TIP3    H218673   4.556   2.485   5.917
 6237TIP3   OH218674   2.698   5.745   2.844
 6237TIP3    H118675   2.648   5.813   2.890
 6237TIP3    H218676   2.753   5.706   2.912
 6238TIP3   OH218677   3.802   5.775   2.280
 6238TIP3    H118678   3.721   5.796   2.234
 6238TIP3    H218679   3.775   5.749   2.368
 6239TIP3   OH218680   4.552   0.684   4.200
 6239TIP3    H118681   4.495   0.713   4.271
 6239TIP3    H218682   4.592   0.603   4.232
 6240TIP3   OH218683   6.907   3.723   1.377
 6240TIP3    H118684   6.816   3.707   1.403
 6240TIP3    H218685   6.948   3.637   1.382
 6241TIP3   OH218686   2.307   5.756   2.723
 6241TIP3    H118687   2.301   5.842   2.765
 6241TIP3    H218688   2.279   5.694   2.790
 6242TIP3   OH218689   3.479   6.569   2.636
 6242TIP3    H118690   3.546   6.548   2.571
 6242TIP3    H218691   3.520   6.633   2.694
 6243TIP3   OH218692   2.317   2.319   2.073
 6243TIP3    H118693   2.224   2.305   2.089
 6243TIP3    H218694   2.334   2.407   2.106
 6244TIP3   OH218695   4.876   5.487   0.464
 6244TIP3    H118696   4.909   5.424   0.400
 6244TIP3    H218697   4.949   5.548   0.477
 6245TIP3   OH218698   3.946   4.214   4.951
 6245TIP3    H118699   3.989   4.136   4.986
 6245TIP3    H218700   3.887   4.243   5.021
 6246TIP3   OH218701   4.507   4.063   0.654
 6246TIP3    H118702   4.517   4.035   0.563
 6246TIP3    H218703   4.482   4.155   0.648
 6247TIP3   OH218704   7.028   5.847   5.776
 6247TIP3    H118705   7.086   5.922   5.784
 6247TIP3    H218706   7.084   5.776   5.744
 6248TIP3   OH218707   0.742   1.792   1.629
 6248TIP3    H118708   0.651   1.814   1.649
 6248TIP3    H218709   0.736   1.742   1.548
 6249TIP3   OH218710   1.716   5.334   0.318
 6249TIP3    H118711   1.677   5.274   0.254
 6249TIP3    H218712   1.810   5.318   0.310
 6250TIP3   OH218713   0.913   4.881   1.739
 6250TIP3    H118714   0.862   4.929   1.673
 6250TIP3    H218715   0.971   4.824   1.688
 6251TIP3   OH218716   7.087   0.718   5.395
 6251TIP3    H118717   7.017   0.687   5.338
 6251TIP3    H218718   7.138   0.640   5.416
 6252TIP3   OH218719   1.512   3.210   4.736
 6252TIP3    H118720   1.436   3.206   4.679
 6252TIP3    H218721   1.475   3.212   4.825
 6253TIP3   OH218722   1.079   6.587   5.355
 6253TIP3    H118723   1.158   6.641   5.365
 6253TIP3    H218724   1.021   6.640   5.302
 6254TIP3   OH218725   3.228   6.225   5.354
 6254TIP3    H118726   3.300   6.207   5.416
 6254TIP3    H218727   3.241   6.161   5.284
 6255TIP3   OH218728   5.675   3.846   4.054
 6255TIP3    H118729   5.766   3.854   4.024
 6255TIP3    H218730   5.623   3.867   3.977
 6256TIP3   OH218731   1.736   2.333   1.513
 6256TIP3    H118732   1.744   2.246   1.474
 6256TIP3    H218733   1.663   2.374   1.466
 6257TIP3   OH218734   2.448   2.618   1.479
 6257TIP3    H118735   2.366   2.572   1.461
 6257TIP3    H218736   2.462   2.673   1.402
 6258TIP3   OH218737   3.933   6.642   2.724
 6258TIP3    H118738   3.980   6.725   2.732
 6258TIP3    H218739   3.841   6.667   2.718
 6259TIP3   OH218740   3.352   4.542   4.391
 6259TIP3    H118741   3.262   4.557   4.360
 6259TIP3    H218742   3.381   4.465   4.342
 6260TIP3   OH218743   2.319   0.297   5.558
 6260TIP3    H118744   2.298   0.344   5.477
 6260TIP3    H218745   2.234   0.272   5.594
 6261TIP3   OH218746   2.858   5.310   2.968
 6261TIP3    H118747   2.801   5.239   2.998
 6261TIP3    H218748   2.945   5.285   2.998
 6262TIP3   OH218749   2.023   5.379   3.011
 6262TIP3    H118750   2.084   5.378   2.938
 6262TIP3    H218751   2.036   5.295   3.054
 6263TIP3   OH218752   0.658   0.126   4.985
 6263TIP3    H118753   0.693   0.189   4.922
 6263TIP3    H218754   0.736   0.090   5.027
 6264TIP3   OH218755   0.313   6.573   1.176
 6264TIP3    H118756   0.319   6.510   1.104
 6264TIP3    H218757   0.347   6.655   1.140
 6265TIP3   OH218758   0.296   4.270   5.497
 6265TIP3    H118759   0.261   4.351   5.460
 6265TIP3    H218760   0.251   4.201   5.448
 6266TIP3   OH218761   6.859   4.969   2.663
 6266TIP3    H118762   6.814   4.885   2.677
 6266TIP3    H218763   6.909   4.983   2.743
 6267TIP3   OH218764   1.690   6.002   1.903
 6267TIP3    H118765   1.624   5.977   1.837
 6267TIP3    H218766   1.639   6.015   1.983
 6268TIP3   OH218767   6.764   5.860   5.684
 6268TIP3    H118768   6.708   5.783   5.673
 6268TIP3    H218769   6.848   5.825   5.715
 6269TIP3   OH218770   1.456   3.120   2.418
 6269TIP3    H118771   1.436   3.029   2.442
 6269TIP3    H218772   1.508   3.114   2.338
 6270TIP3   OH218773   1.223   0.595   1.572
 6270TIP3    H118774   1.250   0.666   1.514
 6270TIP3    H218775   1.128   0.605   1.578
 6271TIP3   OH218776   4.377   6.067   2.691
 6271TIP3    H118777   4.419   6.135   2.744
 6271TIP3    H218778   4.302   6.039   2.743
 6272TIP3   OH218779   2.744   6.013   1.620
 6272TIP3    H118780   2.806   6.016   1.693
 6272TIP3    H218781   2.785   6.064   1.550
 6273TIP3   OH218782   2.466   0.078   0.081
 6273TIP3    H118783   2.436   0.143   0.145
 6273TIP3    H218784   2.426  -0.004   0.109
 6274TIP3   OH218785   5.394   4.411   5.321
 6274TIP3    H118786   5.398   4.324   5.359
 6274TIP3    H218787   5.387   4.396   5.227
 6275TIP3   OH218788   4.138   5.593   3.347
 6275TIP3    H118789   4.079   5.525   3.381
 6275TIP3    H218790   4.196   5.613   3.420
 6276TIP3   OH218791   2.130   5.385   0.916
 6276TIP3    H118792   2.209   5.421   0.875
 6276TIP3    H218793   2.161   5.309   0.965
 6277TIP3   OH218794   6.755  -0.023   4.698
 6277TIP3    H118795   6.775   0.052   4.643
 6277TIP3    H218796   6.703   0.013   4.770
 6278TIP3   OH218797   5.962   2.077   3.035
 6278TIP3    H118798   5.880   2.126   3.040
 6278TIP3    H218799   6.006   2.096   3.118
 6279TIP3   OH218800   3.375   3.312   0.567
 6279TIP3    H118801   3.310   3.367   0.610
 6279TIP3    H218802   3.360   3.325   0.473
 6280TIP3   OH218803   6.974   2.575   0.203
 6280TIP3    H118804   6.910   2.638   0.236
 6280TIP3    H218805   6.936   2.542   0.122
 6281TIP3   OH218806   4.215   1.335   5.253
 6281TIP3    H118807   4.265   1.293   5.183
 6281TIP3    H218808   4.170   1.407   5.210
 6282TIP3   OH218809   1.560   1.136   3.860
 6282TIP3    H118810   1.605   1.106   3.781
 6282TIP3    H218811   1.505   1.209   3.831
 6283TIP3   OH218812   1.655   6.522   1.798
 6283TIP3    H118813   1.651   6.475   1.715
 6283TIP3    H218814   1.614   6.607   1.780
 6284TIP3   OH218815   6.116   1.947   4.324
 6284TIP3    H118816   6.205   1.973   4.348
 6284TIP3    H218817   6.120   1.852   4.314
 6285TIP3   OH218818   3.848   6.142   1.541
 6285TIP3    H118819   3.863   6.053   1.510
 6285TIP3    H218820   3.753   6.147   1.552
 6286TIP3   OH218821   5.681   0.032   1.009
 6286TIP3    H118822   5.743   0.026   0.936
 6286TIP3    H218823   5.612  -0.030   0.986
 6287TIP3   OH218824   1.359   6.188   0.132
 6287TIP3    H118825   1.369   6.262   0.073
 6287TIP3    H218826   1.447   6.176   0.170
 6288TIP3   OH218827   5.892   6.020   0.401
 6288TIP3    H118828   5.866   5.979   0.484
 6288TIP3    H218829   5.842   5.971   0.335
 6289TIP3   OH218830   6.010   1.604   3.533
 6289TIP3    H118831   6.066   1.614   3.610
 6289TIP3    H218832   6.022   1.513   3.506
 6290TIP3   OH218833   6.767   0.668   1.219
 6290TIP3    H118834   6.750   0.726   1.146
 6290TIP3    H218835   6.781   0.582   1.179
 6291TIP3   OH218836   0.050   3.087   3.869
 6291TIP3    H118837   0.112   3.141   3.917
 6291TIP3    H218838   0.022   3.142   3.796
 6292TIP3   OH218839   5.501   5.949   5.614
 6292TIP3    H118840   5.406   5.959   5.603
 6292TIP3    H218841   5.511   5.911   5.701
 6293TIP3   OH218842   4.648   4.569   2.350
 6293TIP3    H118843   4.596   4.645   2.325
 6293TIP3    H218844   4.663   4.522   2.267
 6294TIP3   OH218845   2.112   2.681   3.100
 6294TIP3    H118846   2.152   2.623   3.164
 6294TIP3    H218847   2.022   2.650   3.092
 6295TIP3   OH218848   1.395   6.393   0.494
 6295TIP3    H118849   1.307   6.374   0.463
 6295TIP3    H218850   1.429   6.458   0.432
 6296TIP3   OH218851   2.655   2.197   0.186
 6296TIP3    H118852   2.692   2.262   0.245
 6296TIP3    H218853   2.720   2.126   0.184
 6297TIP3   OH218854   2.321   1.651   4.415
 6297TIP3    H118855   2.313   1.685   4.326
 6297TIP3    H218856   2.415   1.659   4.435
 6298TIP3   OH218857   6.816   2.749   3.114
 6298TIP3    H118858   6.865   2.796   3.046
 6298TIP3    H218859   6.724   2.762   3.091
 6299TIP3   OH218860   5.224   2.250   3.696
 6299TIP3    H118861   5.147   2.195   3.678
 6299TIP3    H218862   5.210   2.282   3.785
 6300TIP3   OH218863   0.800   3.127   4.449
 6300TIP3    H118864   0.743   3.076   4.391
 6300TIP3    H218865   0.855   3.062   4.492
 6301TIP3   OH218866   1.144   3.297   0.944
 6301TIP3    H118867   1.190   3.250   1.013
 6301TIP3    H218868   1.208   3.360   0.911
 6302TIP3   OH218869   3.100   5.952   5.121
 6302TIP3    H118870   3.087   5.903   5.202
 6302TIP3    H218871   3.029   6.016   5.120
 6303TIP3   OH218872   1.942   0.049   0.241
 6303TIP3    H118873   1.940   0.132   0.288
 6303TIP3    H218874   1.933   0.073   0.148
 6304TIP3   OH218875   5.895   4.567   5.694
 6304TIP3    H118876   5.840   4.645   5.698
 6304TIP3    H218877   5.946   4.577   5.614
 6305TIP3   OH218878   3.105   4.266   4.212
 6305TIP3    H118879   3.024   4.315   4.196
 6305TIP3    H218880   3.175   4.327   4.190
 6306TIP3   OH218881   5.774   5.643   4.480
 6306TIP3    H118882   5.786   5.665   4.573
 6306TIP3    H218883   5.762   5.728   4.437
 6307TIP3   OH218884   0.317   2.727   1.566
 6307TIP3    H118885   0.404   2.713   1.604
 6307TIP3    H218886   0.304   2.821   1.570
 6308TIP3   OH218887   5.206   4.545   2.784
 6308TIP3    H118888   5.250   4.460   2.785
 6308TIP3    H218889   5.129   4.531   2.728
 6309TIP3   OH218890   1.292   1.713   0.918
 6309TIP3    H118891   1.373   1.709   0.968
 6309TIP3    H218892   1.240   1.639   0.949
 6310TIP3   OH218893   7.159   4.519   4.988
 6310TIP3    H118894   7.218   4.525   5.063
 6310TIP3    H218895   7.182   4.436   4.946
 6311TIP3   OH218896   2.518   6.096   4.811
 6311TIP3    H118897   2.595   6.153   4.802
 6311TIP3    H218898   2.446   6.156   4.827
 6312TIP3   OH218899   2.326   4.054   2.578
 6312TIP3    H118900   2.334   3.977   2.634
 6312TIP3    H218901   2.239   4.089   2.598
 6313TIP3   OH218902   1.311   0.479   0.301
 6313TIP3    H118903   1.312   0.385   0.318
 6313TIP3    H218904   1.261   0.516   0.374
 6314TIP3   OH218905   0.429   5.521   2.273
 6314TIP3    H118906   0.345   5.480   2.294
 6314TIP3    H218907   0.470   5.536   2.358
 6315TIP3   OH218908   3.279   0.391   2.353
 6315TIP3    H118909   3.345   0.454   2.379
 6315TIP3    H218910   3.249   0.351   2.434
 6316TIP3   OH218911   5.066   2.926   2.496
 6316TIP3    H118912   5.001   2.942   2.427
 6316TIP3    H218913   5.017   2.881   2.565
 6317TIP3   OH218914   7.127   2.582   5.859
 6317TIP3    H118915   7.045   2.607   5.816
 6317TIP3    H218916   7.195   2.628   5.811
 6318TIP3   OH218917   3.318   0.932   0.854
 6318TIP3    H118918   3.294   0.855   0.803
 6318TIP3    H218919   3.350   0.995   0.789
 6319TIP3   OH218920   2.900   1.102   0.264
 6319TIP3    H118921   2.829   1.164   0.245
 6319TIP3    H218922   2.861   1.037   0.322
 6320TIP3   OH218923   2.860   3.372   3.901
 6320TIP3    H118924   2.813   3.319   3.837
 6320TIP3    H218925   2.940   3.399   3.855
 6321TIP3   OH218926   3.267   1.928   2.418
 6321TIP3    H118927   3.340   1.949   2.360
 6321TIP3    H218928   3.298   1.951   2.505
 6322TIP3   OH218929   2.241   2.295   5.438
 6322TIP3    H118930   2.249   2.218   5.493
 6322TIP3    H218931   2.317   2.291   5.380
 6323TIP3   OH218932   6.602   5.662   1.210
 6323TIP3    H118933   6.576   5.712   1.287
 6323TIP3    H218934   6.597   5.571   1.238
 6324TIP3   OH218935   4.700   1.655   0.592
 6324TIP3    H118936   4.774   1.624   0.540
 6324TIP3    H218937   4.693   1.748   0.571
 6325TIP3   OH218938   6.681   6.534   1.852
 6325TIP3    H118939   6.728   6.505   1.774
 6325TIP3    H218940   6.609   6.471   1.861
 6326TIP3   OH218941   6.275   3.640   5.154
 6326TIP3    H118942   6.252   3.548   5.139
 6326TIP3    H218943   6.274   3.679   5.066
 6327TIP3   OH218944   2.290   2.522   4.308
 6327TIP3    H118945   2.297   2.441   4.358
 6327TIP3    H218946   2.303   2.591   4.372
 6328TIP3   OH218947   5.854   4.501   1.570
 6328TIP3    H118948   5.771   4.454   1.576
 6328TIP3    H218949   5.866   4.518   1.477
 6329TIP3   OH218950   6.338   1.016   3.465
 6329TIP3    H118951   6.389   0.961   3.524
 6329TIP3    H218952   6.281   1.066   3.523
 6330TIP3   OH218953   6.498   3.689   2.354
 6330TIP3    H118954   6.481   3.595   2.346
 6330TIP3    H218955   6.457   3.727   2.276
 6331TIP3   OH218956   6.988   1.722   2.386
 6331TIP3    H118957   6.999   1.638   2.341
 6331TIP3    H218958   7.030   1.708   2.471
 6332TIP3   OH218959   1.760   2.092   1.957
 6332TIP3    H118960   1.800   2.035   1.892
 6332TIP3    H218961   1.692   2.038   1.998
 6333TIP3   OH218962   3.209   1.898   5.113
 6333TIP3    H118963   3.264   1.967   5.149
 6333TIP3    H218964   3.240   1.888   5.022
 6334TIP3   OH218965   5.084   3.756   0.279
 6334TIP3    H118966   5.116   3.846   0.282
 6334TIP3    H218967   5.016   3.756   0.212
 6335TIP3   OH218968   4.174   6.420   4.450
 6335TIP3    H118969   4.085   6.385   4.451
 6335TIP3    H218970   4.164   6.513   4.470
 6336TIP3   OH218971   2.042   1.856   2.735
 6336TIP3    H118972   1.974   1.874   2.670
 6336TIP3    H218973   2.116   1.824   2.684
 6337TIP3   OH218974   1.766   5.061   3.549
 6337TIP3    H118975   1.780   5.000   3.621
 6337TIP3    H218976   1.721   5.136   3.589
 6338TIP3   OH218977   3.405   5.806   2.207
 6338TIP3    H118978   3.445   5.770   2.128
 6338TIP3    H218979   3.404   5.733   2.269
 6339TIP3   OH218980   2.786   4.084   0.422
 6339TIP3    H118981   2.721   4.149   0.447
 6339TIP3    H218982   2.866   4.135   0.405
 6340TIP3   OH218983   1.292   1.111   1.448
 6340TIP3    H118984   1.236   1.060   1.506
 6340TIP3    H218985   1.245   1.194   1.437
 6341TIP3   OH218986   1.567   3.008   0.518
 6341TIP3    H118987   1.505   2.938   0.500
 6341TIP3    H218988   1.566   3.063   0.440
 6342TIP3   OH218989   6.131   6.160   5.093
 6342TIP3    H118990   6.081   6.236   5.124
 6342TIP3    H218991   6.064   6.100   5.060
 6343TIP3   OH218992   1.670   1.048   1.679
 6343TIP3    H118993   1.659   0.964   1.724
 6343TIP3    H218994   1.666   1.113   1.748
 6344TIP3   OH218995   5.594   5.992   3.611
 6344TIP3    H118996   5.511   5.946   3.625
 6344TIP3    H218997   5.626   6.012   3.698
 6345TIP3   OH218998   6.134   2.443   4.894
 6345TIP3    H118999   6.118   2.389   4.817
 6345TIP3    H219000   6.194   2.511   4.862
 6346TIP3   OH219001   7.121   5.152   1.860
 6346TIP3    H119002   7.144   5.115   1.946
 6346TIP3    H219003   7.156   5.241   1.862
 6347TIP3   OH219004   0.365   0.189   3.782
 6347TIP3    H119005   0.381   0.179   3.876
 6347TIP3    H219006   0.287   0.137   3.766
 6348TIP3   OH219007   7.065   2.566   1.967
 6348TIP3    H119008   6.989   2.621   1.946
 6348TIP3    H219009   7.120   2.622   2.021
 6349TIP3   OH219010   1.744   0.796   4.607
 6349TIP3    H119011   1.711   0.746   4.681
 6349TIP3    H219012   1.699   0.758   4.531
 6350TIP3   OH219013   4.123   1.183   5.788
 6350TIP3    H119014   4.058   1.246   5.820
 6350TIP3    H219015   4.127   1.198   5.694
 6351TIP3   OH219016   1.497   6.372   3.094
 6351TIP3    H119017   1.422   6.374   3.154
 6351TIP3    H219018   1.469   6.313   3.024
 6352TIP3   OH219019   3.245   1.499   1.262
 6352TIP3    H119020   3.325   1.514   1.312
 6352TIP3    H219021   3.217   1.411   1.287
 6353TIP3   OH219022   3.920   2.300   1.142
 6353TIP3    H119023   3.925   2.269   1.051
 6353TIP3    H219024   4.010   2.325   1.163
 6354TIP3   OH219025   3.441   3.085   5.562
 6354TIP3    H119026   3.392   3.157   5.522
 6354TIP3    H219027   3.373   3.026   5.596
 6355TIP3   OH219028   6.061   4.817   2.538
 6355TIP3    H119029   6.049   4.723   2.549
 6355TIP3    H219030   6.139   4.825   2.483
 6356TIP3   OH219031   2.382   0.269   2.106
 6356TIP3    H119032   2.330   0.220   2.042
 6356TIP3    H219033   2.470   0.271   2.068
 6357TIP3   OH219034   2.447   0.170   4.390
 6357TIP3    H119035   2.537   0.150   4.366
 6357TIP3    H219036   2.396   0.096   4.356
 6358TIP3   OH219037   3.595   5.748   1.376
 6358TIP3    H119038   3.551   5.694   1.442
 6358TIP3    H219039   3.525   5.773   1.315
 6359TIP3   OH219040   0.839   1.340   4.823
 6359TIP3    H119041   0.849   1.315   4.731
 6359TIP3    H219042   0.747   1.367   4.831
 6360TIP3   OH219043   6.845   4.802   1.562
 6360TIP3    H119044   6.776   4.759   1.611
 6360TIP3    H219045   6.896   4.850   1.628
 6361TIP3   OH219046   0.639   4.467   1.609
 6361TIP3    H119047   0.633   4.400   1.540
 6361TIP3    H219048   0.712   4.438   1.664
 6362TIP3   OH219049   5.312   6.665   3.773
 6362TIP3    H119050   5.376   6.594   3.769
 6362TIP3    H219051   5.308   6.698   3.683
 6363TIP3   OH219052   6.753   4.012   2.574
 6363TIP3    H119053   6.801   3.960   2.509
 6363TIP3    H219054   6.661   3.991   2.559
 6364TIP3   OH219055   4.239   1.748   0.842
 6364TIP3    H119056   4.251   1.734   0.935
 6364TIP3    H219057   4.175   1.819   0.836
 6365TIP3   OH219058   2.741   2.598   5.579
 6365TIP3    H119059   2.778   2.681   5.609
 6365TIP3    H219060   2.679   2.573   5.647
 6366TIP3   OH219061   6.125   0.355   4.949
 6366TIP3    H119062   6.172   0.423   4.900
 6366TIP3    H219063   6.140   0.378   5.041
 6367TIP3   OH219064   0.176   4.645   2.544
 6367TIP3    H119065   0.108   4.689   2.595
 6367TIP3    H219066   0.236   4.715   2.519
 6368TIP3   OH219067   1.582   1.092   3.579
 6368TIP3    H119068   1.660   1.040   3.560
 6368TIP3    H219069   1.539   1.102   3.494
 6369TIP3   OH219070   0.522   4.102   3.570
 6369TIP3    H119071   0.574   4.063   3.640
 6369TIP3    H219072   0.517   4.035   3.502
 6370TIP3   OH219073   5.145   4.047   1.317
 6370TIP3    H119074   5.138   3.969   1.372
 6370TIP3    H219075   5.172   4.013   1.232
 6371TIP3   OH219076   5.676   1.754   0.952
 6371TIP3    H119077   5.764   1.746   0.988
 6371TIP3    H219078   5.635   1.669   0.968
 6372TIP3   OH219079   6.031   2.529   4.312
 6372TIP3    H119080   6.087   2.601   4.283
 6372TIP3    H219081   6.032   2.467   4.240
 6373TIP3   OH219082   1.716   2.546   0.397
 6373TIP3    H119083   1.722   2.461   0.353
 6373TIP3    H219084   1.625   2.551   0.427
 6374TIP3   OH219085   6.590   1.460   3.182
 6374TIP3    H119086   6.639   1.418   3.112
 6374TIP3    H219087   6.643   1.536   3.207
 6375TIP3   OH219088   7.111   4.264   3.504
 6375TIP3    H119089   7.162   4.227   3.432
 6375TIP3    H219090   7.023   4.227   3.493
 6376TIP3   OH219091   0.108   5.466   0.151
 6376TIP3    H119092   0.029   5.513   0.177
 6376TIP3    H219093   0.171   5.484   0.221
 6377TIP3   OH219094   3.321   1.654   1.059
 6377TIP3    H119095   3.414   1.673   1.051
 6377TIP3    H219096   3.309   1.631   1.151
 6378TIP3   OH219097   5.688   0.955   3.478
 6378TIP3    H119098   5.776   0.923   3.460
 6378TIP3    H219099   5.684   1.040   3.434
 6379TIP3   OH219100   4.077   3.622   1.495
 6379TIP3    H119101   4.066   3.687   1.427
 6379TIP3    H219102   3.988   3.596   1.519
 6380TIP3   OH219103   5.595   5.669   1.990
 6380TIP3    H119104   5.518   5.693   2.042
 6380TIP3    H219105   5.638   5.753   1.971
 6381TIP3   OH219106   5.839   5.905   1.952
 6381TIP3    H119107   5.862   5.961   1.877
 6381TIP3    H219108   5.893   5.826   1.940
 6382TIP3   OH219109   6.041   5.204   3.614
 6382TIP3    H119110   6.027   5.264   3.687
 6382TIP3    H219111   6.135   5.189   3.613
 6383TIP3   OH219112   4.674   6.215   4.034
 6383TIP3    H119113   4.677   6.120   4.042
 6383TIP3    H219114   4.588   6.240   4.066
 6384TIP3   OH219115   1.962   2.276   3.203
 6384TIP3    H119116   1.919   2.352   3.242
 6384TIP3    H219117   1.919   2.265   3.118
 6385TIP3   OH219118   2.913   0.033   2.579
 6385TIP3    H119119   2.894  -0.051   2.620
 6385TIP3    H219120   2.920   0.094   2.653
 6386TIP3   OH219121   2.229   2.695   5.719
 6386TIP3    H119122   2.146   2.652   5.698
 6386TIP3    H219123   2.294   2.625   5.713
 6387TIP3   OH219124   6.741   0.618   2.895
 6387TIP3    H119125   6.693   0.561   2.835
 6387TIP3    H219126   6.799   0.669   2.839
 6388TIP3   OH219127   4.178   1.682   4.140
 6388TIP3    H119128   4.181   1.600   4.090
 6388TIP3    H219129   4.269   1.699   4.164
 6389TIP3   OH219130   7.036   4.766   4.942
 6389TIP3    H119131   7.094   4.803   4.875
 6389TIP3    H219132   7.066   4.675   4.951
 6390TIP3   OH219133   0.140   1.011   5.123
 6390TIP3    H119134   0.175   1.078   5.183
 6390TIP3    H219135   0.070   0.969   5.172
 6391TIP3   OH219136   3.481   3.961   2.648
 6391TIP3    H119137   3.463   3.999   2.734
 6391TIP3    H219138   3.554   4.012   2.614
 6392TIP3   OH219139   3.992   1.718   4.751
 6392TIP3    H119140   4.010   1.630   4.718
 6392TIP3    H219141   3.912   1.709   4.802
 6393TIP3   OH219142   4.100   4.776   4.348
 6393TIP3    H119143   4.085   4.742   4.260
 6393TIP3    H219144   4.085   4.870   4.340
 6394TIP3   OH219145   2.494   4.969   0.566
 6394TIP3    H119146   2.521   4.886   0.526
 6394TIP3    H219147   2.534   5.036   0.511
 6395TIP3   OH219148   0.289   2.785   4.555
 6395TIP3    H119149   0.255   2.836   4.483
 6395TIP3    H219150   0.337   2.713   4.514
 6396TIP3   OH219151   6.279   5.700   2.484
 6396TIP3    H119152   6.223   5.673   2.556
 6396TIP3    H219153   6.221   5.710   2.409
 6397TIP3   OH219154   2.815   4.723   1.037
 6397TIP3    H119155   2.752   4.795   1.032
 6397TIP3    H219156   2.842   4.709   0.946
 6398TIP3   OH219157   3.776   1.856   5.534
 6398TIP3    H119158   3.749   1.773   5.575
 6398TIP3    H219159   3.724   1.862   5.454
 6399TIP3   OH219160   2.074   6.556   4.399
 6399TIP3    H119161   2.043   6.469   4.373
 6399TIP3    H219162   2.121   6.589   4.322
 6400TIP3   OH219163   6.279   5.607   1.305
 6400TIP3    H119164   6.219   5.533   1.295
 6400TIP3    H219165   6.224   5.684   1.292
 6401TIP3   OH219166   3.619   2.498   5.658
 6401TIP3    H119167   3.692   2.525   5.715
 6401TIP3    H219168   3.608   2.405   5.675
 6402TIP3   OH219169   0.820   5.563   0.571
 6402TIP3    H119170   0.730   5.540   0.548
 6402TIP3    H219171   0.870   5.552   0.490
 6403TIP3   OH219172   7.162   5.098   2.125
 6403TIP3    H119173   7.192   5.066   2.210
 6403TIP3    H219174   7.100   5.168   2.146
 6404TIP3   OH219175   6.930   2.330   3.186
 6404TIP3    H119176   6.987   2.372   3.250
 6404TIP3    H219177   6.907   2.400   3.124
 6405TIP3   OH219178   3.555   0.935   2.290
 6405TIP3    H119179   3.648   0.929   2.316
 6405TIP3    H219180   3.508   0.901   2.366
 6406TIP3   OH219181   0.888   1.577   4.556
 6406TIP3    H119182   0.893   1.484   4.579
 6406TIP3    H219183   0.835   1.616   4.625
 6407TIP3   OH219184   4.088   2.591   5.088
 6407TIP3    H119185   4.128   2.523   5.034
 6407TIP3    H219186   3.994   2.583   5.071
 6408TIP3   OH219187   6.775   5.514   5.379
 6408TIP3    H119188   6.743   5.442   5.324
 6408TIP3    H219189   6.695   5.556   5.412
 6409TIP3   OH219190   1.419   1.178   0.801
 6409TIP3    H119191   1.436   1.225   0.882
 6409TIP3    H219192   1.347   1.119   0.822
 6410TIP3   OH219193   3.257   3.581   1.966
 6410TIP3    H119194   3.168   3.610   1.947
 6410TIP3    H219195   3.246   3.500   2.015
 6411TIP3   OH219196   0.812   2.083   4.203
 6411TIP3    H119197   0.885   2.029   4.173
 6411TIP3    H219198   0.815   2.160   4.146
 6412TIP3   OH219199   3.192   0.283   2.080
 6412TIP3    H119200   3.133   0.346   2.122
 6412TIP3    H219201   3.233   0.333   2.010
 6413TIP3   OH219202   3.769   3.707   1.704
 6413TIP3    H119203   3.690   3.666   1.739
 6413TIP3    H219204   3.837   3.641   1.714
 6414TIP3   OH219205   6.726   6.100   4.549
 6414TIP3    H119206   6.776   6.023   4.575
 6414TIP3    H219207   6.679   6.073   4.469
 6415TIP3   OH219208   3.716   2.791   2.284
 6415TIP3    H119209   3.742   2.727   2.350
 6415TIP3    H219210   3.780   2.862   2.294
 6416TIP3   OH219211   2.753   6.199   5.550
 6416TIP3    H119212   2.837   6.206   5.504
 6416TIP3    H219213   2.699   6.269   5.515
 6417TIP3   OH219214   0.594   1.600   5.607
 6417TIP3    H119215   0.662   1.650   5.562
 6417TIP3    H219216   0.520   1.662   5.614
 6418TIP3   OH219217   7.033   1.487   1.329
 6418TIP3    H119218   7.099   1.449   1.270
 6418TIP3    H219219   6.994   1.412   1.374
 6419TIP3   OH219220   0.328   3.551   4.972
 6419TIP3    H119221   0.284   3.468   4.953
 6419TIP3    H219222   0.421   3.529   4.972
 6420TIP3   OH219223   5.957   0.799   5.442
 6420TIP3    H119224   5.907   0.749   5.506
 6420TIP3    H219225   6.022   0.847   5.494
 6421TIP3   OH219226   1.850   0.673   2.375
 6421TIP3    H119227   1.884   0.585   2.394
 6421TIP3    H219228   1.925   0.720   2.337
 6422TIP3   OH219229   5.046   3.911   2.069
 6422TIP3    H119230   5.062   4.002   2.090
 6422TIP3    H219231   5.022   3.911   1.976
 6423TIP3   OH219232   2.519   2.082   5.031
 6423TIP3    H119233   2.567   2.011   5.073
 6423TIP3    H219234   2.516   2.151   5.097
 6424TIP3   OH219235   7.165   1.636   4.609
 6424TIP3    H119236   7.096   1.577   4.638
 6424TIP3    H219237   7.137   1.722   4.640
 6425TIP3   OH219238   7.038   4.968   0.309
 6425TIP3    H119239   7.047   4.873   0.322
 6425TIP3    H219240   6.944   4.984   0.314
 6426TIP3   OH219241   0.510   1.253   0.210
 6426TIP3    H119242   0.554   1.217   0.133
 6426TIP3    H219243   0.557   1.335   0.228
 6427TIP3   OH219244   6.662   1.764   4.696
 6427TIP3    H119245   6.670   1.783   4.789
 6427TIP3    H219246   6.603   1.688   4.692
 6428TIP3   OH219247   2.601   3.268   1.920
 6428TIP3    H119248   2.616   3.275   1.826
 6428TIP3    H219249   2.542   3.340   1.940
 6429TIP3   OH219250   2.743   2.890   2.443
 6429TIP3    H119251   2.767   2.889   2.536
 6429TIP3    H219252   2.825   2.876   2.396
 6430TIP3   OH219253   6.059   1.074   5.124
 6430TIP3    H119254   6.090   1.102   5.211
 6430TIP3    H219255   5.979   1.025   5.142
 6431TIP3   OH219256   6.627  -0.003   2.941
 6431TIP3    H119257   6.624  -0.033   2.850
 6431TIP3    H219258   6.651   0.089   2.935
 6432TIP3   OH219259   5.233   5.036   0.489
 6432TIP3    H119260   5.295   5.048   0.417
 6432TIP3    H219261   5.229   5.122   0.532
 6433TIP3   OH219262   2.866   1.768   0.102
 6433TIP3    H119263   2.905   1.736   0.021
 6433TIP3    H219264   2.890   1.860   0.107
 6434TIP3   OH219265   2.704   4.321   4.718
 6434TIP3    H119266   2.717   4.248   4.779
 6434TIP3    H219267   2.777   4.313   4.656
 6435TIP3   OH219268   3.067   1.860   3.508
 6435TIP3    H119269   3.007   1.802   3.460
 6435TIP3    H219270   3.085   1.931   3.447
 6436TIP3   OH219271   2.672   6.584   4.800
 6436TIP3    H119272   2.703   6.638   4.872
 6436TIP3    H219273   2.582   6.614   4.785
 6437TIP3   OH219274   6.739   4.812   1.312
 6437TIP3    H119275   6.729   4.832   1.405
 6437TIP3    H219276   6.649   4.804   1.279
 6438TIP3   OH219277   3.490   2.077   5.452
 6438TIP3    H119278   3.436   2.059   5.530
 6438TIP3    H219279   3.527   2.163   5.469
 6439TIP3   OH219280   5.022   5.260   0.344
 6439TIP3    H119281   5.113   5.280   0.368
 6439TIP3    H219282   5.024   5.250   0.249
 6440TIP3   OH219283   4.069   0.967   1.586
 6440TIP3    H119284   4.085   0.952   1.493
 6440TIP3    H219285   3.974   0.981   1.592
 6441TIP3   OH219286   5.273   6.284   4.439
 6441TIP3    H119287   5.261   6.344   4.366
 6441TIP3    H219288   5.331   6.216   4.406
 6442TIP3   OH219289   0.661   2.535   0.426
 6442TIP3    H119290   0.658   2.536   0.522
 6442TIP3    H219291   0.578   2.494   0.400
 6443TIP3   OH219292   1.426   4.546   2.119
 6443TIP3    H119293   1.425   4.474   2.182
 6443TIP3    H219294   1.507   4.534   2.070
 6444TIP3   OH219295   5.661   4.861   2.587
 6444TIP3    H119296   5.670   4.782   2.639
 6444TIP3    H219297   5.606   4.834   2.513
 6445TIP3   OH219298   3.053   6.510   4.938
 6445TIP3    H119299   3.010   6.497   4.853
 6445TIP3    H219300   3.112   6.435   4.946
 6446TIP3   OH219301   2.166   6.523   5.920
 6446TIP3    H119302   2.211   6.442   5.900
 6446TIP3    H219303   2.115   6.543   5.842
 6447TIP3   OH219304   0.962   1.972   0.499
 6447TIP3    H119305   0.942   1.927   0.417
 6447TIP3    H219306   0.935   1.911   0.568
 6448TIP3   OH219307   3.953   0.317   5.777
 6448TIP3    H119308   4.019   0.335   5.844
 6448TIP3    H219309   3.879   0.374   5.799
 6449TIP3   OH219310   4.653   3.784   0.624
 6449TIP3    H119311   4.597   3.797   0.700
 6449TIP3    H219312   4.605   3.721   0.569
 6450TIP3   OH219313   0.293   3.419   2.869
 6450TIP3    H119314   0.385   3.440   2.853
 6450TIP3    H219315   0.250   3.435   2.785
 6451TIP3   OH219316   2.258   5.610   2.192
 6451TIP3    H119317   2.241   5.589   2.284
 6451TIP3    H219318   2.352   5.624   2.187
 6452TIP3   OH219319   5.180   0.147   2.866
 6452TIP3    H119320   5.135   0.230   2.878
 6452TIP3    H219321   5.111   0.081   2.876
 6453TIP3   OH219322   6.412   0.307   2.526
 6453TIP3    H119323   6.331   0.258   2.508
 6453TIP3    H219324   6.404   0.386   2.473
 6454TIP3   OH219325   3.903   3.969   1.480
 6454TIP3    H119326   3.964   3.962   1.407
 6454TIP3    H219327   3.953   3.942   1.556
 6455TIP3   OH219328   5.195   4.839   0.898
 6455TIP3    H119329   5.203   4.793   0.981
 6455TIP3    H219330   5.104   4.869   0.896
 6456TIP3   OH219331   3.791   1.212   3.294
 6456TIP3    H119332   3.718   1.191   3.235
 6456TIP3    H219333   3.828   1.292   3.258
 6457TIP3   OH219334   1.766   5.522   3.145
 6457TIP3    H119335   1.743   5.466   3.070
 6457TIP3    H219336   1.861   5.523   3.146
 6458TIP3   OH219337   6.147   5.793   0.611
 6458TIP3    H119338   6.098   5.807   0.692
 6458TIP3    H219339   6.179   5.880   0.586
 6459TIP3   OH219340   3.612   3.649   2.218
 6459TIP3    H119341   3.630   3.728   2.269
 6459TIP3    H219342   3.580   3.585   2.281
 6460TIP3   OH219343   4.390   4.059   4.778
 6460TIP3    H119344   4.436   4.077   4.861
 6460TIP3    H219345   4.398   4.140   4.728
 6461TIP3   OH219346   1.849   1.725   5.872
 6461TIP3    H119347   1.904   1.780   5.928
 6461TIP3    H219348   1.910   1.664   5.831
 6462TIP3   OH219349   1.678   4.509   0.177
 6462TIP3    H119350   1.676   4.604   0.191
 6462TIP3    H219351   1.711   4.499   0.088
 6463TIP3   OH219352   5.860   3.425   4.714
 6463TIP3    H119353   5.943   3.417   4.761
 6463TIP3    H219354   5.867   3.363   4.642
 6464TIP3   OH219355   4.731   5.334   4.666
 6464TIP3    H119356   4.823   5.332   4.691
 6464TIP3    H219357   4.708   5.427   4.665
 6465TIP3   OH219358   0.897   6.233   3.307
 6465TIP3    H119359   0.812   6.276   3.309
 6465TIP3    H219360   0.884   6.153   3.359
 6466TIP3   OH219361   0.862   4.434   0.715
 6466TIP3    H119362   0.894   4.492   0.784
 6466TIP3    H219363   0.817   4.363   0.761
 6467TIP3   OH219364   4.733   2.284   5.156
 6467TIP3    H119365   4.730   2.352   5.088
 6467TIP3    H219366   4.820   2.292   5.194
 6468TIP3   OH219367   5.020   0.144   4.135
 6468TIP3    H119368   5.109   0.178   4.128
 6468TIP3    H219369   4.988   0.178   4.219
 6469TIP3   OH219370   0.372   5.533   1.103
 6469TIP3    H119371   0.351   5.503   1.191
 6469TIP3    H219372   0.366   5.455   1.048
 6470TIP3   OH219373   6.214   1.782   2.117
 6470TIP3    H119374   6.126   1.787   2.078
 6470TIP3    H219375   6.268   1.744   2.047
 6471TIP3   OH219376   1.836   5.088   2.116
 6471TIP3    H119377   1.809   5.070   2.205
 6471TIP3    H219378   1.899   5.019   2.096
 6472TIP3   OH219379   1.269   6.075   1.547
 6472TIP3    H119380   1.299   6.156   1.507
 6472TIP3    H219381   1.303   6.006   1.489
 6473TIP3   OH219382   3.229   2.272   1.247
 6473TIP3    H119383   3.237   2.228   1.332
 6473TIP3    H219384   3.252   2.363   1.264
 6474TIP3   OH219385   1.570   3.577   1.641
 6474TIP3    H119386   1.520   3.654   1.666
 6474TIP3    H219387   1.579   3.584   1.546
 6475TIP3   OH219388   3.591   5.149   1.185
 6475TIP3    H119389   3.507   5.173   1.224
 6475TIP3    H219390   3.633   5.233   1.166
 6476TIP3   OH219391   0.147   1.369   0.034
 6476TIP3    H119392   0.162   1.424   0.110
 6476TIP3    H219393   0.198   1.411  -0.036
 6477TIP3   OH219394   6.383   1.924   3.083
 6477TIP3    H119395   6.369   1.895   2.993
 6477TIP3    H219396   6.478   1.925   3.093
 6478TIP3   OH219397   4.537   0.181   5.426
 6478TIP3    H119398   4.610   0.133   5.387
 6478TIP3    H219399   4.525   0.141   5.511
 6479TIP3   OH219400   1.949   4.736   0.421
 6479TIP3    H119401   1.874   4.754   0.479
 6479TIP3    H219402   1.928   4.782   0.340
 6480TIP3   OH219403   2.093   4.568   4.688
 6480TIP3    H119404   2.122   4.477   4.690
 6480TIP3    H219405   2.166   4.617   4.725
 6481TIP3   OH219406   4.454   5.798   2.576
 6481TIP3    H119407   4.379   5.758   2.621
 6481TIP3    H219408   4.467   5.881   2.622
 6482TIP3   OH219409   4.039   4.386   2.035
 6482TIP3    H119410   4.040   4.439   2.115
 6482TIP3    H219411   4.047   4.296   2.066
 6483TIP3   OH219412   5.980   2.305   2.651
 6483TIP3    H119413   6.000   2.228   2.705
 6483TIP3    H219414   6.047   2.304   2.583
 6484TIP3   OH219415   0.952   6.166   2.485
 6484TIP3    H119416   1.009   6.148   2.560
 6484TIP3    H219417   0.887   6.096   2.488
 6485TIP3   OH219418   1.684   0.193   2.820
 6485TIP3    H119419   1.731   0.205   2.902
 6485TIP3    H219420   1.745   0.146   2.764
 6486TIP3   OH219421   1.589   0.395   3.720
 6486TIP3    H119422   1.524   0.433   3.780
 6486TIP3    H219423   1.570   0.302   3.721
 6487TIP3   OH219424   3.893   2.315   5.835
 6487TIP3    H119425   3.899   2.228   5.875
 6487TIP3    H219426   3.900   2.297   5.741
 6488TIP3   OH219427   0.927   6.474   0.978
 6488TIP3    H119428   0.982   6.551   0.962
 6488TIP3    H219429   0.900   6.445   0.891
 6489TIP3   OH219430   5.333   5.428   2.053
 6489TIP3    H119431   5.405   5.407   2.113
 6489TIP3    H219432   5.376   5.445   1.969
 6490TIP3   OH219433   1.894   1.126   2.047
 6490TIP3    H119434   1.891   1.038   2.008
 6490TIP3    H219435   1.986   1.138   2.071
 6491TIP3   OH219436   3.099   6.765   4.309
 6491TIP3    H119437   3.040   6.792   4.239
 6491TIP3    H219438   3.048   6.703   4.361
 6492TIP3   OH219439   0.041   6.198   4.413
 6492TIP3    H119440   0.081   6.285   4.408
 6492TIP3    H219441  -0.048   6.210   4.379
 6493TIP3   OH219442   5.394   0.426   1.868
 6493TIP3    H119443   5.463   0.468   1.816
 6493TIP3    H219444   5.351   0.367   1.806
 6494TIP3   OH219445   5.116   5.496   3.927
 6494TIP3    H119446   5.086   5.569   3.982
 6494TIP3    H219447   5.144   5.536   3.846
 6495TIP3   OH219448   6.376   3.503   4.510
 6495TIP3    H119449   6.288   3.467   4.508
 6495TIP3    H219450   6.418   3.463   4.587
 6496TIP3   OH219451   0.130   3.957   3.899
 6496TIP3    H119452   0.116   3.981   3.807
 6496TIP3    H219453   0.055   3.996   3.945
 6497TIP3   OH219454   6.777   1.180   3.770
 6497TIP3    H119455   6.746   1.142   3.852
 6497TIP3    H219456   6.783   1.274   3.788
 6498TIP3   OH219457   2.125   3.328   2.698
 6498TIP3    H119458   2.137   3.320   2.603
 6498TIP3    H219459   2.194   3.273   2.735
 6499TIP3   OH219460   4.661   6.342   5.493
 6499TIP3    H119461   4.617   6.421   5.524
 6499TIP3    H219462   4.628   6.272   5.548
 6500TIP3   OH219463   2.063   6.040   3.468
 6500TIP3    H119464   2.020   6.125   3.463
 6500TIP3    H219465   1.994   5.980   3.494
 6501TIP3   OH219466   4.637   6.089   3.328
 6501TIP3    H119467   4.627   6.019   3.263
 6501TIP3    H219468   4.681   6.160   3.281
 6502TIP3   OH219469   1.387   4.450   2.991
 6502TIP3    H119470   1.410   4.479   3.080
 6502TIP3    H219471   1.308   4.500   2.970
 6503TIP3   OH219472   4.334   1.311   0.591
 6503TIP3    H119473   4.331   1.290   0.497
 6503TIP3    H219474   4.363   1.402   0.595
 6504TIP3   OH219475   2.804   1.167   2.743
 6504TIP3    H119476   2.878   1.145   2.799
 6504TIP3    H219477   2.747   1.220   2.799
 6505TIP3   OH219478   2.747   1.257   1.576
 6505TIP3    H119479   2.835   1.228   1.602
 6505TIP3    H219480   2.734   1.217   1.490
 6506TIP3   OH219481   3.914   6.353   0.633
 6506TIP3    H119482   3.961   6.279   0.670
 6506TIP3    H219483   3.895   6.329   0.543
 6507TIP3   OH219484   2.999   1.031   2.406
 6507TIP3    H119485   2.961   1.105   2.454
 6507TIP3    H219486   2.925   0.989   2.364
 6508TIP3   OH219487   6.672   0.677   4.545
 6508TIP3    H119488   6.768   0.678   4.542
 6508TIP3    H219489   6.645   0.669   4.454
 6509TIP3   OH219490   6.736   5.974   3.685
 6509TIP3    H119491   6.657   5.944   3.729
 6509TIP3    H219492   6.747   5.914   3.611
 6510TIP3   OH219493   1.615   2.973   1.774
 6510TIP3    H119494   1.680   3.002   1.837
 6510TIP3    H219495   1.653   2.895   1.734
 6511TIP3   OH219496   2.759   6.082   4.339
 6511TIP3    H119497   2.674   6.101   4.300
 6511TIP3    H219498   2.741   6.064   4.431
 6512TIP3   OH219499   4.466   2.974   3.010
 6512TIP3    H119500   4.462   3.069   3.004
 6512TIP3    H219501   4.390   2.950   3.063
 6513TIP3   OH219502   2.325   0.312   2.957
 6513TIP3    H119503   2.286   0.379   2.901
 6513TIP3    H219504   2.251   0.255   2.980
 6514TIP3   OH219505   2.446   2.267   5.742
 6514TIP3    H119506   2.539   2.274   5.721
 6514TIP3    H219507   2.412   2.204   5.680
 6515TIP3   OH219508   1.373   3.630   2.590
 6515TIP3    H119509   1.380   3.596   2.679
 6515TIP3    H219510   1.310   3.702   2.597
 6516TIP3   OH219511   1.940   1.460   0.035
 6516TIP3    H119512   1.891   1.542   0.030
 6516TIP3    H219513   1.976   1.460   0.124
 6517TIP3   OH219514   5.826   2.172   5.049
 6517TIP3    H119515   5.822   2.124   4.967
 6517TIP3    H219516   5.891   2.240   5.034
 6518TIP3   OH219517   4.958   1.601   2.097
 6518TIP3    H119518   4.932   1.594   2.189
 6518TIP3    H219519   5.045   1.641   2.100
 6519TIP3   OH219520   5.591   6.770   0.982
 6519TIP3    H119521   5.580   6.745   1.074
 6519TIP3    H219522   5.509   6.744   0.940
 6520TIP3   OH219523   6.431   2.665   4.012
 6520TIP3    H119524   6.418   2.749   4.054
 6520TIP3    H219525   6.360   2.610   4.044
 6521TIP3   OH219526   4.821  -0.006   3.922
 6521TIP3    H119527   4.826   0.055   3.847
 6521TIP3    H219528   4.899   0.012   3.973
 6522TIP3   OH219529   0.260   5.868   5.291
 6522TIP3    H119530   0.329   5.806   5.315
 6522TIP3    H219531   0.292   5.953   5.320
 6523TIP3   OH219532   2.602   2.829   0.711
 6523TIP3    H119533   2.588   2.734   0.709
 6523TIP3    H219534   2.518   2.865   0.740
 6524TIP3   OH219535   0.040   5.758   4.403
 6524TIP3    H119536   0.102   5.772   4.331
 6524TIP3    H219537   0.085   5.792   4.480
 6525TIP3   OH219538   6.991   1.500   4.013
 6525TIP3    H119539   7.008   1.496   4.107
 6525TIP3    H219540   7.040   1.576   3.983
 6526TIP3   OH219541   3.672   6.714   3.921
 6526TIP3    H119542   3.669   6.635   3.975
 6526TIP3    H219543   3.637   6.783   3.978
 6527TIP3   OH219544   3.726   6.437   5.802
 6527TIP3    H119545   3.652   6.491   5.831
 6527TIP3    H219546   3.735   6.455   5.709
 6528TIP3   OH219547   1.300   5.609   4.754
 6528TIP3    H119548   1.309   5.694   4.712
 6528TIP3    H219549   1.259   5.629   4.839
 6529TIP3   OH219550   0.918   2.878   4.601
 6529TIP3    H119551   0.902   2.797   4.650
 6529TIP3    H219552   0.991   2.857   4.543
 6530TIP3   OH219553   1.534   1.319   4.072
 6530TIP3    H119554   1.534   1.235   4.026
 6530TIP3    H219555   1.627   1.338   4.087
 6531TIP3   OH219556   1.110   5.424   3.667
 6531TIP3    H119557   1.115   5.519   3.664
 6531TIP3    H219558   1.056   5.401   3.591
 6532TIP3   OH219559   7.161   0.357   2.008
 6532TIP3    H119560   7.086   0.412   1.985
 6532TIP3    H219561   7.151   0.342   2.102
 6533TIP3   OH219562   0.473   4.299   0.444
 6533TIP3    H119563   0.533   4.321   0.516
 6533TIP3    H219564   0.530   4.294   0.367
 6534TIP3   OH219565   1.985   4.199   0.321
 6534TIP3    H119566   1.995   4.201   0.225
 6534TIP3    H219567   1.891   4.187   0.334
 6535TIP3   OH219568   3.251   3.068   2.947
 6535TIP3    H119569   3.301   3.148   2.928
 6535TIP3    H219570   3.233   3.073   3.041
 6536TIP3   OH219571   3.801   0.851   5.197
 6536TIP3    H119572   3.883   0.813   5.228
 6536TIP3    H219573   3.800   0.833   5.103
 6537TIP3   OH219574   5.238   1.037   3.907
 6537TIP3    H119575   5.298   1.070   3.841
 6537TIP3    H219576   5.237   1.106   3.974
 6538TIP3   OH219577   0.849   1.705   2.030
 6538TIP3    H119578   0.871   1.755   1.952
 6538TIP3    H219579   0.788   1.760   2.078
 6539TIP3   OH219580   5.316   2.489   1.113
 6539TIP3    H119581   5.362   2.458   1.191
 6539TIP3    H219582   5.223   2.476   1.134
 6540TIP3   OH219583   2.410   0.434   3.785
 6540TIP3    H119584   2.466   0.414   3.710
 6540TIP3    H219585   2.427   0.526   3.804
 6541TIP3   OH219586   1.169   5.712   3.346
 6541TIP3    H119587   1.096   5.767   3.375
 6541TIP3    H219588   1.220   5.769   3.288
 6542TIP3   OH219589   0.703   3.575   0.952
 6542TIP3    H119590   0.788   3.619   0.960
 6542TIP3    H219591   0.700   3.515   1.027
 6543TIP3   OH219592   2.944   1.971   2.916
 6543TIP3    H119593   3.019   1.954   2.974
 6543TIP3    H219594   2.982   1.974   2.828
 6544TIP3   OH219595  -0.026   2.847   4.945
 6544TIP3    H119596   0.061   2.865   4.909
 6544TIP3    H219597  -0.029   2.897   5.026
 6545TIP3   OH219598   1.861   3.295   1.973
 6545TIP3    H119599   1.787   3.339   1.932
 6545TIP3    H219600   1.864   3.330   2.062
 6546TIP3   OH219601   6.549   4.804   2.589
 6546TIP3    H119602   6.587   4.737   2.532
 6546TIP3    H219603   6.527   4.757   2.670
 6547TIP3   OH219604   6.042   4.040   4.204
 6547TIP3    H119605   6.069   4.021   4.293
 6547TIP3    H219606   6.008   4.129   4.207
 6548TIP3   OH219607   2.730   0.770   1.596
 6548TIP3    H119608   2.731   0.683   1.555
 6548TIP3    H219609   2.796   0.820   1.548
 6549TIP3   OH219610   5.446   4.644   4.412
 6549TIP3    H119611   5.380   4.712   4.399
 6549TIP3    H219612   5.530   4.690   4.404
 6550TIP3   OH219613   3.005   3.419   3.594
 6550TIP3    H119614   3.039   3.346   3.542
 6550TIP3    H219615   3.070   3.433   3.662
 6551TIP3   OH219616   0.370   5.508   1.365
 6551TIP3    H119617   0.355   5.539   1.455
 6551TIP3    H219618   0.446   5.559   1.335
 6552TIP3   OH219619   1.057   0.982   2.900
 6552TIP3    H119620   1.023   0.897   2.928
 6552TIP3    H219621   1.150   0.978   2.919
 6553TIP3   OH219622   4.979   2.635   5.406
 6553TIP3    H119623   5.037   2.626   5.330
 6553TIP3    H219624   5.019   2.705   5.458
 6554TIP3   OH219625   6.018   2.838   5.081
 6554TIP3    H119626   6.019   2.749   5.045
 6554TIP3    H219627   6.108   2.851   5.113
 6555TIP3   OH219628   5.095   3.058   0.705
 6555TIP3    H119629   5.063   3.074   0.616
 6555TIP3    H219630   5.016   3.045   0.757
 6556TIP3   OH219631   5.248   5.293   4.440
 6556TIP3    H119632   5.257   5.218   4.498
 6556TIP3    H219633   5.338   5.318   4.419
 6557TIP3   OH219634   2.441   1.702   5.681
 6557TIP3    H119635   2.502   1.638   5.718
 6557TIP3    H219636   2.494   1.781   5.670
 6558TIP3   OH219637   2.543   1.056   1.734
 6558TIP3    H119638   2.482   0.988   1.761
 6558TIP3    H219639   2.552   1.045   1.640
 6559TIP3   OH219640   2.192   1.540   2.896
 6559TIP3    H119641   2.099   1.551   2.915
 6559TIP3    H219642   2.211   1.449   2.918
 6560TIP3   OH219643   0.797   4.011   0.882
 6560TIP3    H119644   0.745   4.034   0.805
 6560TIP3    H219645   0.811   4.095   0.927
 6561TIP3   OH219646   2.094   5.236   2.071
 6561TIP3    H119647   2.021   5.173   2.068
 6561TIP3    H219648   2.168   5.184   2.104
 6562TIP3   OH219649   3.007   1.054   4.088
 6562TIP3    H119650   3.024   0.961   4.072
 6562TIP3    H219651   3.028   1.066   4.181
 6563TIP3   OH219652   3.758   0.959   5.693
 6563TIP3    H119653   3.831   0.965   5.755
 6563TIP3    H219654   3.799   0.970   5.607
 6564TIP3   OH219655   5.655   3.583   4.165
 6564TIP3    H119656   5.674   3.669   4.128
 6564TIP3    H219657   5.560   3.582   4.175
 6565TIP3   OH219658   3.325   1.295   1.484
 6565TIP3    H119659   3.403   1.350   1.474
 6565TIP3    H219660   3.299   1.307   1.575
 6566TIP3   OH219661   1.953   1.201   4.288
 6566TIP3    H119662   2.030   1.208   4.344
 6566TIP3    H219663   1.931   1.108   4.289
 6567TIP3   OH219664   5.503   6.140   0.970
 6567TIP3    H119665   5.597   6.126   0.962
 6567TIP3    H219666   5.464   6.084   0.903
 6568TIP3   OH219667   2.210   2.662   1.991
 6568TIP3    H119668   2.133   2.611   1.964
 6568TIP3    H219669   2.230   2.717   1.914
 6569TIP3   OH219670   3.291   1.200   3.697
 6569TIP3    H119671   3.349   1.272   3.722
 6569TIP3    H219672   3.319   1.175   3.609
 6570TIP3   OH219673   7.177   0.574   0.394
 6570TIP3    H119674   7.092   0.578   0.437
 6570TIP3    H219675   7.219   0.496   0.430
 6571TIP3   OH219676   2.043   5.677   4.549
 6571TIP3    H119677   2.056   5.761   4.592
 6571TIP3    H219678   1.949   5.662   4.555
 6572TIP3   OH219679   1.925   6.574   1.949
 6572TIP3    H119680   1.852   6.619   1.907
 6572TIP3    H219681   1.896   6.483   1.957
 6573TIP3   OH219682   3.542   0.281   4.065
 6573TIP3    H119683   3.591   0.322   4.137
 6573TIP3    H219684   3.608   0.255   4.002
 6574TIP3   OH219685   6.987   1.765   4.365
 6574TIP3    H119686   7.011   1.680   4.329
 6574TIP3    H219687   7.064   1.821   4.349
 6575TIP3   OH219688   4.202   1.636   1.305
 6575TIP3    H119689   4.185   1.712   1.249
 6575TIP3    H219690   4.247   1.574   1.247
 6576TIP3   OH219691   2.822   2.752   3.433
 6576TIP3    H119692   2.735   2.722   3.460
 6576TIP3    H219693   2.866   2.673   3.401
 6577TIP3   OH219694   2.888   2.858   3.801
 6577TIP3    H119695   2.815   2.917   3.823
 6577TIP3    H219696   2.945   2.910   3.745
 6578TIP3   OH219697   0.566   6.047   4.051
 6578TIP3    H119698   0.652   6.079   4.022
 6578TIP3    H219699   0.570   5.953   4.036
 6579TIP3   OH219700   1.647   2.170   0.575
 6579TIP3    H119701   1.739   2.148   0.591
 6579TIP3    H219702   1.611   2.188   0.662
 6580TIP3   OH219703   1.986   1.905   2.005
 6580TIP3    H119704   2.040   1.867   2.074
 6580TIP3    H219705   1.953   1.829   1.957
 6581TIP3   OH219706   2.433   6.345   2.621
 6581TIP3    H119707   2.521   6.313   2.638
 6581TIP3    H219708   2.436   6.380   2.532
 6582TIP3   OH219709   5.878   2.179   2.050
 6582TIP3    H119710   5.909   2.250   1.994
 6582TIP3    H219711   5.794   2.153   2.012
 6583TIP3   OH219712   4.877   5.231   5.849
 6583TIP3    H119713   4.793   5.190   5.828
 6583TIP3    H219714   4.854   5.321   5.873
 6584TIP3   OH219715   2.437   0.079   5.351
 6584TIP3    H119716   2.379   0.076   5.427
 6584TIP3    H219717   2.391   0.132   5.287
 6585TIP3   OH219718   5.971   0.094   3.181
 6585TIP3    H119719   6.000   0.158   3.245
 6585TIP3    H219720   6.040   0.095   3.114
 6586TIP3   OH219721   1.692   2.828   2.984
 6586TIP3    H119722   1.618   2.834   2.923
 6586TIP3    H219723   1.714   2.919   3.003
 6587TIP3   OH219724   4.007   5.159   1.394
 6587TIP3    H119725   3.979   5.243   1.359
 6587TIP3    H219726   4.092   5.142   1.353
 6588TIP3   OH219727   4.398   2.877   1.908
 6588TIP3    H119728   4.387   2.949   1.846
 6588TIP3    H219729   4.459   2.911   1.974
 6589TIP3   OH219730   3.307   2.376   2.307
 6589TIP3    H119731   3.391   2.423   2.300
 6589TIP3    H219732   3.330   2.291   2.345
 6590TIP3   OH219733   1.950   0.248   0.617
 6590TIP3    H119734   1.990   0.189   0.680
 6590TIP3    H219735   1.943   0.331   0.663
 6591TIP3   OH219736   0.694   5.153   0.429
 6591TIP3    H119737   0.758   5.083   0.415
 6591TIP3    H219738   0.636   5.120   0.498
 6592TIP3   OH219739   2.014   6.743   4.834
 6592TIP3    H119740   2.005   6.765   4.741
 6592TIP3    H219741   2.004   6.826   4.879
 6593TIP3   OH219742   3.728   3.406   1.032
 6593TIP3    H119743   3.753   3.498   1.025
 6593TIP3    H219744   3.658   3.405   1.097
 6594TIP3   OH219745   4.493   3.884   0.862
 6594TIP3    H119746   4.499   3.929   0.946
 6594TIP3    H219747   4.509   3.952   0.797
 6595TIP3   OH219748   7.191   5.240   0.263
 6595TIP3    H119749   7.232   5.310   0.213
 6595TIP3    H219750   7.176   5.279   0.349
 6596TIP3   OH219751   1.284   6.624   1.290
 6596TIP3    H119752   1.249   6.671   1.365
 6596TIP3    H219753   1.245   6.667   1.214
 6597TIP3   OH219754   4.770   1.014   0.183
 6597TIP3    H119755   4.817   1.088   0.144
 6597TIP3    H219756   4.678   1.040   0.179
 6598TIP3   OH219757   6.864   0.309   2.355
 6598TIP3    H119758   6.930   0.273   2.295
 6598TIP3    H219759   6.911   0.374   2.406
 6599TIP3   OH219760   5.145   5.577   1.881
 6599TIP3    H119761   5.128   5.647   1.818
 6599TIP3    H219762   5.212   5.523   1.840
 6600TIP3   OH219763   3.751   6.173   5.779
 6600TIP3    H119764   3.819   6.118   5.817
 6600TIP3    H219765   3.780   6.263   5.797
 6601TIP3   OH219766   3.895   1.177   1.307
 6601TIP3    H119767   3.830   1.129   1.358
 6601TIP3    H219768   3.918   1.252   1.361
 6602TIP3   OH219769   6.839   4.670   2.625
 6602TIP3    H119770   6.763   4.654   2.569
 6602TIP3    H219771   6.817   4.629   2.709
 6603TIP3   OH219772   1.323   1.488   3.589
 6603TIP3    H119773   1.320   1.421   3.521
 6603TIP3    H219774   1.243   1.474   3.640
 6604TIP3   OH219775   7.167   4.171   3.974
 6604TIP3    H119776   7.212   4.255   3.965
 6604TIP3    H219777   7.074   4.192   3.960
 6605TIP3   OH219778   3.471   2.180   4.917
 6605TIP3    H119779   3.518   2.154   4.837
 6605TIP3    H219780   3.471   2.276   4.915
 6606TIP3   OH219781   6.398   1.377   5.001
 6606TIP3    H119782   6.453   1.302   5.026
 6606TIP3    H219783   6.372   1.359   4.911
 6607TIP3   OH219784   1.192   1.276   3.005
 6607TIP3    H119785   1.200   1.306   2.914
 6607TIP3    H219786   1.099   1.255   3.015
 6608TIP3   OH219787   1.697   2.954   0.104
 6608TIP3    H119788   1.759   2.909   0.163
 6608TIP3    H219789   1.615   2.957   0.153
 6609TIP3   OH219790   0.323   4.850   1.730
 6609TIP3    H119791   0.341   4.756   1.734
 6609TIP3    H219792   0.340   4.882   1.818
 6610TIP3   OH219793   7.077   1.522   4.287
 6610TIP3    H119794   7.156   1.485   4.248
 6610TIP3    H219795   7.077   1.489   4.377
 6611TIP3   OH219796   2.896   6.111   1.403
 6611TIP3    H119797   2.893   6.200   1.440
 6611TIP3    H219798   2.985   6.082   1.419
 6612TIP3   OH219799   3.731   0.041   4.278
 6612TIP3    H119800   3.637   0.028   4.291
 6612TIP3    H219801   3.744   0.136   4.287
 6613TIP3   OH219802   2.398   3.822   2.740
 6613TIP3    H119803   2.386   3.736   2.700
 6613TIP3    H219804   2.358   3.814   2.827
 6614TIP3   OH219805   5.425   5.035   3.020
 6614TIP3    H119806   5.379   4.967   3.069
 6614TIP3    H219807   5.500   4.990   2.982
 6615TIP3   OH219808   2.469   5.127   5.346
 6615TIP3    H119809   2.483   5.058   5.282
 6615TIP3    H219810   2.490   5.086   5.430
 6616TIP3   OH219811   0.727   0.929   2.868
 6616TIP3    H119812   0.707   0.944   2.776
 6616TIP3    H219813   0.795   0.861   2.867
 6617TIP3   OH219814   1.067   4.895   0.077
 6617TIP3    H119815   1.112   4.960   0.132
 6617TIP3    H219816   1.107   4.812   0.101
 6618TIP3   OH219817   2.788   1.181   4.238
 6618TIP3    H119818   2.836   1.191   4.156
 6618TIP3    H219819   2.787   1.269   4.277
 6619TIP3   OH219820   6.975   1.860   5.786
 6619TIP3    H119821   7.065   1.881   5.810
 6619TIP3    H219822   6.922   1.930   5.824
 6620TIP3   OH219823   6.398   1.686   1.938
 6620TIP3    H119824   6.375   1.613   1.880
 6620TIP3    H219825   6.444   1.748   1.881
 6621TIP3   OH219826   4.573   3.570   2.904
 6621TIP3    H119827   4.618   3.630   2.963
 6621TIP3    H219828   4.567   3.617   2.821
 6622TIP3   OH219829   1.977   1.281   3.129
 6622TIP3    H119830   1.907   1.221   3.155
 6622TIP3    H219831   1.949   1.366   3.161
 6623TIP3   OH219832   4.121   5.261   3.893
 6623TIP3    H119833   4.164   5.334   3.940
 6623TIP3    H219834   4.029   5.268   3.917
 6624TIP3   OH219835   4.451   5.678   0.641
 6624TIP3    H119836   4.483   5.687   0.551
 6624TIP3    H219837   4.530   5.676   0.695
 6625TIP3   OH219838   3.076   1.441   2.033
 6625TIP3    H119839   3.087   1.527   2.073
 6625TIP3    H219840   3.036   1.387   2.101
 6626TIP3   OH219841   3.764   5.553   1.808
 6626TIP3    H119842   3.835   5.494   1.784
 6626TIP3    H219843   3.806   5.621   1.861
 6627TIP3   OH219844   2.354   4.439   0.665
 6627TIP3    H119845   2.440   4.398   0.672
 6627TIP3    H219846   2.315   4.400   0.586
 6628TIP3   OH219847   5.207   2.787   0.771
 6628TIP3    H119848   5.171   2.850   0.709
 6628TIP3    H219849   5.140   2.719   0.778
 6629TIP3   OH219850   5.371   2.634   3.589
 6629TIP3    H119851   5.368   2.720   3.631
 6629TIP3    H219852   5.372   2.571   3.661
 6630TIP3   OH219853   6.863   0.751   3.975
 6630TIP3    H119854   6.871   0.660   3.944
 6630TIP3    H219855   6.883   0.746   4.068
 6631TIP3   OH219856   2.580   5.237   2.029
 6631TIP3    H119857   2.523   5.211   1.957
 6631TIP3    H219858   2.583   5.161   2.087
 6632TIP3   OH219859   1.089   1.470   5.877
 6632TIP3    H119860   1.078   1.396   5.937
 6632TIP3    H219861   1.007   1.474   5.828
 6633TIP3   OH219862   1.240   1.469   4.796
 6633TIP3    H119863   1.164   1.521   4.823
 6633TIP3    H219864   1.204   1.407   4.732
 6634TIP3   OH219865   0.215   4.689   1.084
 6634TIP3    H119866   0.150   4.695   1.014
 6634TIP3    H219867   0.220   4.595   1.103
 6635TIP3   OH219868   5.603   3.405   0.331
 6635TIP3    H119869   5.521   3.451   0.348
 6635TIP3    H219870   5.576   3.317   0.303
 6636TIP3   OH219871   5.314   0.745   0.056
 6636TIP3    H119872   5.227   0.785   0.059
 6636TIP3    H219873   5.308   0.670   0.116
 6637TIP3   OH219874   0.974   4.368   4.065
 6637TIP3    H119875   1.051   4.353   4.010
 6637TIP3    H219876   0.940   4.280   4.082
 6638TIP3   OH219877   1.513   4.003   4.354
 6638TIP3    H119878   1.509   4.048   4.270
 6638TIP3    H219879   1.447   4.048   4.408
 6639TIP3   OH219880   5.011   0.910   3.756
 6639TIP3    H119881   5.090   0.935   3.804
 6639TIP3    H219882   4.958   0.864   3.820
 6640TIP3   OH219883   3.251   2.766   3.125
 6640TIP3    H119884   3.317   2.831   3.146
 6640TIP3    H219885   3.290   2.682   3.151
 6641TIP3   OH219886   1.400   5.033   2.643
 6641TIP3    H119887   1.491   5.061   2.642
 6641TIP3    H219888   1.404   4.938   2.634
 6642TIP3   OH219889   3.357   3.421   4.141
 6642TIP3    H119890   3.451   3.421   4.159
 6642TIP3    H219891   3.318   3.465   4.216
 6643TIP3   OH219892   5.153   1.257   4.629
 6643TIP3    H119893   5.127   1.315   4.558
 6643TIP3    H219894   5.242   1.230   4.607
 6644TIP3   OH219895   6.388   3.637   2.796
 6644TIP3    H119896   6.381   3.575   2.724
 6644TIP3    H219897   6.472   3.680   2.783
 6645TIP3   OH219898   3.671   1.916   3.117
 6645TIP3    H119899   3.736   1.970   3.071
 6645TIP3    H219900   3.610   1.979   3.156
 6646TIP3   OH219901   1.385   6.425   1.735
 6646TIP3    H119902   1.460   6.367   1.741
 6646TIP3    H219903   1.404   6.496   1.797
 6647TIP3   OH219904   1.394   6.563   4.649
 6647TIP3    H119905   1.354   6.479   4.673
 6647TIP3    H219906   1.379   6.619   4.726
 6648TIP3   OH219907   4.116   3.704   5.518
 6648TIP3    H119908   4.066   3.724   5.597
 6648TIP3    H219909   4.104   3.780   5.461
 6649TIP3   OH219910   2.150   3.692   3.530
 6649TIP3    H119911   2.233   3.645   3.532
 6649TIP3    H219912   2.171   3.778   3.566
 6650TIP3   OH219913   2.377   3.900   2.336
 6650TIP3    H119914   2.294   3.886   2.291
 6650TIP3    H219915   2.365   3.983   2.383
 6651TIP3   OH219916   6.135   3.380   4.462
 6651TIP3    H119917   6.206   3.341   4.410
 6651TIP3    H219918   6.059   3.379   4.403
 6652TIP3   OH219919   3.194   0.815   3.799
 6652TIP3    H119920   3.278   0.835   3.758
 6652TIP3    H219921   3.213   0.810   3.893
 6653TIP3   OH219922   7.082   0.838   3.832
 6653TIP3    H119923   7.020   0.797   3.892
 6653TIP3    H219924   7.099   0.770   3.767
 6654TIP3   OH219925   6.889   4.502   4.459
 6654TIP3    H119926   6.944   4.560   4.407
 6654TIP3    H219927   6.863   4.555   4.534
 6655TIP3   OH219928   0.472   6.314   0.464
 6655TIP3    H119929   0.385   6.346   0.487
 6655TIP3    H219930   0.457   6.245   0.400
 6656TIP3   OH219931   5.102   2.792   3.051
 6656TIP3    H119932   5.097   2.703   3.085
 6656TIP3    H219933   5.013   2.825   3.055
 6657TIP3   OH219934   0.402   0.428   0.682
 6657TIP3    H119935   0.424   0.445   0.590
 6657TIP3    H219936   0.433   0.506   0.729
 6658TIP3   OH219937   5.728   0.959   5.553
 6658TIP3    H119938   5.806   0.936   5.502
 6658TIP3    H219939   5.724   1.054   5.548
 6659TIP3   OH219940   0.384   6.725   5.173
 6659TIP3    H119941   0.344   6.713   5.087
 6659TIP3    H219942   0.478   6.722   5.156
 6660TIP3   OH219943   0.036   2.715   5.624
 6660TIP3    H119944   0.085   2.794   5.602
 6660TIP3    H219945   0.098   2.643   5.611
 6661TIP3   OH219946   4.942   3.109   3.551
 6661TIP3    H119947   5.028   3.086   3.516
 6661TIP3    H219948   4.957   3.122   3.645
 6662TIP3   OH219949   5.338   3.957   2.692
 6662TIP3    H119950   5.367   3.943   2.602
 6662TIP3    H219951   5.277   3.886   2.710
 6663TIP3   OH219952   1.506   2.592   3.767
 6663TIP3    H119953   1.545   2.676   3.791
 6663TIP3    H219954   1.464   2.608   3.683
 6664TIP3   OH219955   6.318   2.056   0.703
 6664TIP3    H119956   6.358   2.132   0.746
 6664TIP3    H219957   6.265   2.094   0.633
 6665TIP3   OH219958   6.293   1.441   2.809
 6665TIP3    H119959   6.374   1.400   2.840
 6665TIP3    H219960   6.230   1.424   2.879
 6666TIP3   OH219961   2.749   4.012   4.207
 6666TIP3    H119962   2.763   4.021   4.113
 6666TIP3    H219963   2.830   3.973   4.240
 6667TIP3   OH219964   6.428   0.615   3.469
 6667TIP3    H119965   6.388   0.607   3.382
 6667TIP3    H219966   6.358   0.593   3.530
 6668TIP3   OH219967   6.670   6.062   2.837
 6668TIP3    H119968   6.695   6.154   2.843
 6668TIP3    H219969   6.751   6.014   2.854
 6669TIP3   OH219970   0.818   0.744   4.840
 6669TIP3    H119971   0.869   0.823   4.824
 6669TIP3    H219972   0.814   0.737   4.935
 6670TIP3   OH219973   4.970   3.633   1.536
 6670TIP3    H119974   4.899   3.695   1.552
 6670TIP3    H219975   4.948   3.593   1.452
 6671TIP3   OH219976   6.434   2.337   0.638
 6671TIP3    H119977   6.480   2.279   0.577
 6671TIP3    H219978   6.429   2.421   0.591
 6672TIP3   OH219979   3.678   0.923   1.360
 6672TIP3    H119980   3.681   0.867   1.282
 6672TIP3    H219981   3.623   0.997   1.335
 6673TIP3   OH219982   0.886   6.374   2.093
 6673TIP3    H119983   0.938   6.302   2.129
 6673TIP3    H219984   0.943   6.450   2.100
 6674TIP3   OH219985   0.229   4.984   5.431
 6674TIP3    H119986   0.147   5.008   5.474
 6674TIP3    H219987   0.230   4.888   5.434
 6675TIP3   OH219988   0.218   4.773   4.403
 6675TIP3    H119989   0.306   4.735   4.395
 6675TIP3    H219990   0.229   4.844   4.466
 6676TIP3   OH219991   4.871   4.512   5.828
 6676TIP3    H119992   4.900   4.601   5.811
 6676TIP3    H219993   4.930   4.479   5.896
 6677TIP3   OH219994   1.996   6.010   4.494
 6677TIP3    H119995   2.080   5.984   4.532
 6677TIP3    H219996   1.952   6.058   4.564
 6678TIP3   OH219997   0.422   6.417   0.145
 6678TIP3    H119998   0.403   6.466   0.225
 6678TIP3    H219999   0.362   6.453   0.080
 6679TIP3   OH220000   6.285   3.968   4.084
 6679TIP3    H120001   6.206   3.994   4.132
 6679TIP3    H220002   6.279   4.014   4.000
 6680TIP3   OH220003   5.261   6.674   2.714
 6680TIP3    H120004   5.325   6.667   2.785
 6680TIP3    H220005   5.241   6.767   2.708
 6681TIP3   OH220006   5.347   4.620   4.972
 6681TIP3    H120007   5.392   4.633   4.889
 6681TIP3    H220008   5.379   4.536   5.004
 6682TIP3   OH220009   3.534   4.261   1.766
 6682TIP3    H120010   3.450   4.298   1.740
 6682TIP3    H220011   3.581   4.334   1.807
 6683TIP3   OH220012   7.070   0.863   4.268
 6683TIP3    H120013   7.045   0.784   4.316
 6683TIP3    H220014   7.105   0.831   4.185
 6684TIP3   OH220015   3.266   4.528   4.910
 6684TIP3    H120016   3.181   4.490   4.887
 6684TIP3    H220017   3.325   4.498   4.841
 6685TIP3   OH220018   3.258   4.350   1.718
 6685TIP3    H120019   3.235   4.257   1.721
 6685TIP3    H220020   3.235   4.384   1.804
 6686TIP3   OH220021   3.848   1.002   1.901
 6686TIP3    H120022   3.838   1.006   1.806
 6686TIP3    H220023   3.934   1.040   1.918
 6687TIP3   OH220024   3.475   1.899   4.151
 6687TIP3    H120025   3.477   1.807   4.178
 6687TIP3    H220026   3.399   1.906   4.094
 6688TIP3   OH220027   3.514   5.089   1.892
 6688TIP3    H120028   3.533   5.183   1.899
 6688TIP3    H220029   3.451   5.072   1.961
 6689TIP3   OH220030   3.352   1.912   1.357
 6689TIP3    H120031   3.372   1.866   1.438
 6689TIP3    H220032   3.435   1.952   1.331
 6690TIP3   OH220033   2.532   2.020   4.602
 6690TIP3    H120034   2.588   2.089   4.637
 6690TIP3    H220035   2.525   2.040   4.509
 6691TIP3   OH220036   3.161   1.258   4.779
 6691TIP3    H120037   3.199   1.282   4.694
 6691TIP3    H220038   3.142   1.342   4.821
 6692TIP3   OH220039   3.242   1.625   1.873
 6692TIP3    H120040   3.269   1.716   1.887
 6692TIP3    H220041   3.198   1.600   1.954
 6693TIP3   OH220042   1.468   1.083   2.720
 6693TIP3    H120043   1.435   1.163   2.679
 6693TIP3    H220044   1.541   1.112   2.775
 6694TIP3   OH220045   6.033   6.522   3.984
 6694TIP3    H120046   6.066   6.476   3.907
 6694TIP3    H220047   6.053   6.614   3.968
 6695TIP3   OH220048   4.743   3.871   3.014
 6695TIP3    H120049   4.657   3.873   3.055
 6695TIP3    H220050   4.756   3.960   2.982
 6696TIP3   OH220051   6.694   2.859   5.046
 6696TIP3    H120052   6.721   2.799   5.116
 6696TIP3    H220053   6.771   2.867   4.990
 6697TIP3   OH220054   4.567   3.751   3.235
 6697TIP3    H120055   4.496   3.788   3.286
 6697TIP3    H220056   4.647   3.778   3.282
 6698TIP3   OH220057   0.912   2.201   3.367
 6698TIP3    H120058   0.958   2.208   3.450
 6698TIP3    H220059   0.948   2.123   3.326
 6699TIP3   OH220060   1.529   5.194   4.964
 6699TIP3    H120061   1.561   5.148   5.041
 6699TIP3    H220062   1.607   5.210   4.911
 6700TIP3   OH220063   6.591   6.161   0.288
 6700TIP3    H120064   6.629   6.221   0.224
 6700TIP3    H220065   6.520   6.211   0.328
 6701TIP3   OH220066   2.925   1.647   1.715
 6701TIP3    H120067   2.858   1.611   1.657
 6701TIP3    H220068   2.958   1.571   1.764
 6702TIP3   OH220069   1.114   3.118   3.553
 6702TIP3    H120070   1.178   3.131   3.623
 6702TIP3    H220071   1.061   3.044   3.582
 6703TIP3   OH220072   0.228   0.608   3.418
 6703TIP3    H120073   0.272   0.692   3.430
 6703TIP3    H220074   0.135   0.628   3.424
 6704TIP3   OH220075   0.869   2.130   1.861
 6704TIP3    H120076   0.859   2.216   1.819
 6704TIP3    H220077   0.838   2.143   1.950
 6705TIP3   OH220078   4.832   2.080   1.516
 6705TIP3    H120079   4.741   2.052   1.506
 6705TIP3    H220080   4.831   2.173   1.491
 6706TIP3   OH220081   6.020   3.183   4.029
 6706TIP3    H120082   6.049   3.094   4.045
 6706TIP3    H220083   6.009   3.222   4.116
 6707TIP3   OH220084   6.631   6.129   5.615
 6707TIP3    H120085   6.602   6.208   5.660
 6707TIP3    H220086   6.629   6.061   5.682
 6708TIP3   OH220087   6.668   1.340   4.209
 6708TIP3    H120088   6.752   1.323   4.167
 6708TIP3    H220089   6.644   1.429   4.182
 6709TIP3   OH220090   7.051   3.197   5.420
 6709TIP3    H120091   6.965   3.185   5.379
 6709TIP3    H220092   7.085   3.278   5.380
 6710TIP3   OH220093   0.591   4.207   5.119
 6710TIP3    H120094   0.598   4.124   5.072
 6710TIP3    H220095   0.539   4.262   5.061
 6711TIP3   OH220096   3.516   1.516   5.279
 6711TIP3    H120097   3.583   1.475   5.225
 6711TIP3    H220098   3.436   1.468   5.259
 6712TIP3   OH220099   4.103   1.830   1.124
 6712TIP3    H120100   4.072   1.860   1.038
 6712TIP3    H220101   4.130   1.910   1.169
 6713TIP3   OH220102   2.530   4.722   2.276
 6713TIP3    H120103   2.506   4.737   2.368
 6713TIP3    H220104   2.485   4.642   2.252
 6714TIP3   OH220105   0.137   5.047   0.164
 6714TIP3    H120106   0.210   5.107   0.146
 6714TIP3    H220107   0.125   4.999   0.082
 6715TIP3   OH220108   6.241   2.302   1.055
 6715TIP3    H120109   6.174   2.236   1.073
 6715TIP3    H220110   6.201   2.361   0.991
 6716TIP3   OH220111   4.949   3.587   3.249
 6716TIP3    H120112   4.969   3.494   3.258
 6716TIP3    H220113   5.001   3.629   3.317
 6717TIP3   OH220114   1.766   0.005   4.167
 6717TIP3    H120115   1.730   0.093   4.175
 6717TIP3    H220116   1.708  -0.039   4.105
 6718TIP3   OH220117   4.689   2.111   1.197
 6718TIP3    H120118   4.626   2.076   1.135
 6718TIP3    H220119   4.774   2.082   1.164
 6719TIP3   OH220120   6.657   5.524   1.549
 6719TIP3    H120121   6.630   5.506   1.459
 6719TIP3    H220122   6.744   5.485   1.556
 6720TIP3   OH220123   0.270   0.364   4.971
 6720TIP3    H120124   0.223   0.359   4.887
 6720TIP3    H220125   0.324   0.443   4.962
 6721TIP3   OH220126   6.458   4.363   3.025
 6721TIP3    H120127   6.512   4.300   3.072
 6721TIP3    H220128   6.436   4.319   2.943
 6722TIP3   OH220129   1.203   2.217   4.283
 6722TIP3    H120130   1.114   2.203   4.317
 6722TIP3    H220131   1.237   2.290   4.335
 6723TIP3   OH220132   1.636   2.173   5.629
 6723TIP3    H120133   1.642   2.196   5.536
 6723TIP3    H220134   1.702   2.105   5.641
 6724TIP3   OH220135   3.667   1.214   2.592
 6724TIP3    H120136   3.724   1.138   2.580
 6724TIP3    H220137   3.578   1.179   2.582
 6725TIP3   OH220138   5.901   6.017   3.865
 6725TIP3    H120139   5.871   5.926   3.856
 6725TIP3    H220140   5.955   6.032   3.787
 6726TIP3   OH220141   4.063   1.971   1.851
 6726TIP3    H120142   4.014   1.965   1.933
 6726TIP3    H220143   4.095   2.061   1.848
 6727TIP3   OH220144   2.787   3.402   0.849
 6727TIP3    H120145   2.788   3.342   0.923
 6727TIP3    H220146   2.819   3.351   0.775
 6728TIP3   OH220147   0.159   0.111   5.229
 6728TIP3    H120148   0.221   0.179   5.203
 6728TIP3    H220149   0.099   0.154   5.290
 6729TIP3   OH220150   5.517   4.021   3.265
 6729TIP3    H120151   5.546   4.039   3.354
 6729TIP3    H220152   5.455   4.091   3.245
 6730TIP3   OH220153   6.373   4.517   5.550
 6730TIP3    H120154   6.429   4.594   5.544
 6730TIP3    H220155   6.380   4.476   5.463
 6731TIP3   OH220156   4.724   5.364   2.423
 6731TIP3    H120157   4.781   5.344   2.497
 6731TIP3    H220158   4.775   5.338   2.346
 6732TIP3   OH220159   1.298   5.558   5.613
 6732TIP3    H120160   1.240   5.624   5.575
 6732TIP3    H220161   1.314   5.497   5.541
 6733TIP3   OH220162   6.570   3.070   2.682
 6733TIP3    H120163   6.632   3.107   2.745
 6733TIP3    H220164   6.485   3.102   2.712
 6734TIP3   OH220165   4.831   3.345   1.098
 6734TIP3    H120166   4.904   3.361   1.039
 6734TIP3    H220167   4.753   3.370   1.048
 6735TIP3   OH220168   3.925   2.390   2.551
 6735TIP3    H120169   3.987   2.353   2.489
 6735TIP3    H220170   3.932   2.485   2.539
 6736TIP3   OH220171   4.146   0.054   2.361
 6736TIP3    H120172   4.232   0.063   2.403
 6736TIP3    H220173   4.089   0.114   2.410
 6737TIP3   OH220174   6.796   1.174   3.270
 6737TIP3    H120175   6.858   1.242   3.295
 6737TIP3    H220176   6.729   1.175   3.339
 6738TIP3   OH220177   3.198   6.756   2.101
 6738TIP3    H120178   3.202   6.666   2.132
 6738TIP3    H220179   3.170   6.748   2.009
 6739TIP3   OH220180   4.811   6.317   3.010
 6739TIP3    H120181   4.750   6.244   2.999
 6739TIP3    H220182   4.867   6.313   2.932
 6740TIP3   OH220183   1.986   3.528   0.416
 6740TIP3    H120184   1.956   3.597   0.358
 6740TIP3    H220185   2.013   3.574   0.496
 6741TIP3   OH220186   3.648   6.070   2.868
 6741TIP3    H120187   3.696   6.152   2.879
 6741TIP3    H220188   3.556   6.094   2.880
 6742TIP3   OH220189   6.318   4.535   2.513
 6742TIP3    H120190   6.354   4.545   2.425
 6742TIP3    H220191   6.381   4.478   2.558
 6743TIP3   OH220192   3.935   4.218   1.177
 6743TIP3    H120193   3.920   4.274   1.101
 6743TIP3    H220194   4.011   4.256   1.221
 6744TIP3   OH220195   6.353   5.233   5.053
 6744TIP3    H120196   6.282   5.274   5.102
 6744TIP3    H220197   6.414   5.305   5.036
 6745TIP3   OH220198   6.145   3.078   4.912
 6745TIP3    H120199   6.233   3.075   4.876
 6745TIP3    H220200   6.157   3.087   5.006
 6746TIP3   OH220201   0.961   5.976   1.169
 6746TIP3    H120202   0.943   5.940   1.255
 6746TIP3    H220203   0.964   6.071   1.182
 6747TIP3   OH220204   0.028   5.529   1.011
 6747TIP3    H120205   0.106   5.539   1.066
 6747TIP3    H220206  -0.045   5.556   1.067
 6748TIP3   OH220207   5.265   1.854   3.733
 6748TIP3    H120208   5.192   1.906   3.698
 6748TIP3    H220209   5.300   1.908   3.804
 6749TIP3   OH220210   1.731   3.056   5.831
 6749TIP3    H120211   1.779   2.980   5.797
 6749TIP3    H220212   1.640   3.027   5.835
 6750TIP3   OH220213   2.949   2.507   0.530
 6750TIP3    H120214   2.958   2.449   0.605
 6750TIP3    H220215   2.998   2.585   0.554
 6751TIP3   OH220216   3.482   1.134   4.289
 6751TIP3    H120217   3.473   1.113   4.196
 6751TIP3    H220218   3.564   1.184   4.294
 6752TIP3   OH220219   6.468   3.185   0.690
 6752TIP3    H120220   6.530   3.142   0.630
 6752TIP3    H220221   6.483   3.279   0.677
 6753TIP3   OH220222   5.196   4.422   4.394
 6753TIP3    H120223   5.171   4.384   4.309
 6753TIP3    H220224   5.289   4.400   4.402
 6754TIP3   OH220225   0.085   4.776   0.322
 6754TIP3    H120226   0.076   4.737   0.409
 6754TIP3    H220227   0.043   4.713   0.263
 6755TIP3   OH220228   3.077   0.534   4.056
 6755TIP3    H120229   3.023   0.610   4.037
 6755TIP3    H220230   3.086   0.488   3.972
 6756TIP3   OH220231   0.349   4.878   0.265
 6756TIP3    H120232   0.256   4.857   0.259
 6756TIP3    H220233   0.351   4.968   0.298
 6757TIP3   OH220234   2.279   1.068   0.971
 6757TIP3    H120235   2.220   1.063   0.896
 6757TIP3    H220236   2.362   1.032   0.940
 6758TIP3   OH220237   0.295   3.364   1.556
 6758TIP3    H120238   0.204   3.395   1.564
 6758TIP3    H220239   0.291   3.272   1.581
 6759TIP3   OH220240   1.118   5.440   3.279
 6759TIP3    H120241   1.091   5.430   3.188
 6759TIP3    H220242   1.131   5.534   3.290
 6760TIP3   OH220243   5.587   5.869   1.589
 6760TIP3    H120244   5.674   5.843   1.620
 6760TIP3    H220245   5.604   5.933   1.520
 6761TIP3   OH220246   3.219   2.202   5.781
 6761TIP3    H120247   3.190   2.280   5.735
 6761TIP3    H220248   3.237   2.138   5.712
 6762TIP3   OH220249   2.600   4.152   0.117
 6762TIP3    H120250   2.686   4.111   0.106
 6762TIP3    H220251   2.569   4.166   0.028
 6763TIP3   OH220252   0.436   2.652   5.387
 6763TIP3    H120253   0.496   2.672   5.315
 6763TIP3    H220254   0.484   2.588   5.440
 6764TIP3   OH220255   5.175   2.590   4.842
 6764TIP3    H120256   5.255   2.596   4.895
 6764TIP3    H220257   5.198   2.631   4.759
 6765TIP3   OH220258   3.741   2.528   1.040
 6765TIP3    H120259   3.821   2.564   1.001
 6765TIP3    H220260   3.770   2.490   1.123
 6766TIP3   OH220261   5.292   3.840   2.148
 6766TIP3    H120262   5.216   3.869   2.098
 6766TIP3    H220263   5.270   3.750   2.174
 6767TIP3   OH220264   5.686   6.397   4.728
 6767TIP3    H120265   5.702   6.447   4.648
 6767TIP3    H220266   5.609   6.343   4.707
 6768TIP3   OH220267   5.138   1.726   5.448
 6768TIP3    H120268   5.088   1.656   5.407
 6768TIP3    H220269   5.076   1.799   5.454
 6769TIP3   OH220270   4.983   5.609   5.106
 6769TIP3    H120271   4.903   5.650   5.072
 6769TIP3    H220272   4.975   5.616   5.201
 6770TIP3   OH220273   4.489   4.156   5.285
 6770TIP3    H120274   4.538   4.215   5.341
 6770TIP3    H220275   4.473   4.078   5.339
 6771TIP3   OH220276   6.068   3.059   1.474
 6771TIP3    H120277   5.990   3.098   1.434
 6771TIP3    H220278   6.121   3.031   1.399
 6772TIP3   OH220279   1.338   2.406   5.294
 6772TIP3    H120280   1.291   2.464   5.354
 6772TIP3    H220281   1.426   2.397   5.333
 6773TIP3   OH220282   0.208   0.982   4.586
 6773TIP3    H120283   0.212   0.933   4.667
 6773TIP3    H220284   0.284   0.953   4.536
 6774TIP3   OH220285   3.266   2.919   0.022
 6774TIP3    H120286   3.183   2.874   0.007
 6774TIP3    H220287   3.333   2.854   0.002
 6775TIP3   OH220288   5.202   4.765   4.360
 6775TIP3    H120289   5.159   4.805   4.436
 6775TIP3    H220290   5.147   4.788   4.286
 6776TIP3   OH220291   5.200   2.256   4.395
 6776TIP3    H120292   5.155   2.337   4.370
 6776TIP3    H220293   5.240   2.277   4.480
 6777TIP3   OH220294   5.867   2.625   3.282
 6777TIP3    H120295   5.778   2.619   3.315
 6777TIP3    H220296   5.921   2.583   3.350
 6778TIP3   OH220297   6.598   3.657   1.140
 6778TIP3    H120298   6.680   3.614   1.162
 6778TIP3    H220299   6.590   3.729   1.202
 6779TIP3   OH220300   4.083   3.664   0.234
 6779TIP3    H120301   4.064   3.614   0.313
 6779TIP3    H220302   4.002   3.712   0.216
 6780TIP3   OH220303   1.017   4.888   3.602
 6780TIP3    H120304   1.090   4.854   3.654
 6780TIP3    H220305   0.966   4.942   3.662
 6781TIP3   OH220306   3.039   4.541   1.613
 6781TIP3    H120307   3.124   4.500   1.598
 6781TIP3    H220308   3.059   4.632   1.632
 6782TIP3   OH220309   1.684   5.818   2.643
 6782TIP3    H120310   1.756   5.816   2.581
 6782TIP3    H220311   1.611   5.778   2.597
 6783TIP3   OH220312   2.620   6.711   4.331
 6783TIP3    H120313   2.597   6.627   4.291
 6783TIP3    H220314   2.660   6.762   4.260
 6784TIP3   OH220315   6.573   1.453   1.130
 6784TIP3    H120316   6.661   1.492   1.140
 6784TIP3    H220317   6.576   1.374   1.183
 6785TIP3   OH220318   6.432   4.786   2.871
 6785TIP3    H120319   6.345   4.746   2.873
 6785TIP3    H220320   6.454   4.799   2.963
 6786TIP3   OH220321   1.966   2.436   5.079
 6786TIP3    H120322   1.951   2.528   5.101
 6786TIP3    H220323   1.966   2.391   5.164
 6787TIP3   OH220324   3.749   6.658   1.939
 6787TIP3    H120325   3.757   6.738   1.887
 6787TIP3    H220326   3.838   6.636   1.964
 6788TIP3   OH220327   4.306   5.183   2.998
 6788TIP3    H120328   4.396   5.184   2.965
 6788TIP3    H220329   4.293   5.270   3.037
 6789TIP3   OH220330   6.712   5.097   5.770
 6789TIP3    H120331   6.624   5.119   5.801
 6789TIP3    H220332   6.756   5.064   5.848
 6790TIP3   OH220333   0.138   5.420   3.040
 6790TIP3    H120334   0.214   5.469   3.008
 6790TIP3    H220335   0.062   5.467   3.005
 6791TIP3   OH220336   1.628   0.101   3.512
 6791TIP3    H120337   1.635   0.191   3.482
 6791TIP3    H220338   1.645   0.048   3.434
 6792TIP3   OH220339   6.282   1.033   4.077
 6792TIP3    H120340   6.230   1.079   4.142
 6792TIP3    H220341   6.247   1.062   3.993
 6793TIP3   OH220342   1.610   1.680   1.642
 6793TIP3    H120343   1.646   1.612   1.699
 6793TIP3    H220344   1.620   1.644   1.553
 6794TIP3   OH220345   1.572   0.931   4.075
 6794TIP3    H120346   1.518   0.998   4.032
 6794TIP3    H220347   1.511   0.859   4.093
 6795TIP3   OH220348   6.119   0.591   3.422
 6795TIP3    H120349   6.092   0.549   3.340
 6795TIP3    H220350   6.087   0.532   3.490
 6796TIP3   OH220351   4.498   2.194   5.250
 6796TIP3    H120352   4.513   2.100   5.261
 6796TIP3    H220353   4.574   2.225   5.201
 6797TIP3   OH220354   4.342   5.066   4.211
 6797TIP3    H120355   4.373   5.013   4.138
 6797TIP3    H220356   4.367   5.156   4.187
 6798TIP3   OH220357   4.065   2.693   2.213
 6798TIP3    H120358   4.133   2.676   2.279
 6798TIP3    H220359   4.114   2.707   2.132
 6799TIP3   OH220360   6.405   1.230   4.358
 6799TIP3    H120361   6.369   1.317   4.372
 6799TIP3    H220362   6.454   1.237   4.276
 6800TIP3   OH220363   0.324   6.396   5.346
 6800TIP3    H120364   0.271   6.473   5.366
 6800TIP3    H220365   0.323   6.389   5.251
 6801TIP3   OH220366   1.364   6.194   4.906
 6801TIP3    H120367   1.456   6.212   4.885
 6801TIP3    H220368   1.314   6.235   4.835
 6802TIP3   OH220369   0.185   5.892   2.273
 6802TIP3    H120370   0.221   5.959   2.215
 6802TIP3    H220371   0.206   5.809   2.230
 6803TIP3   OH220372   4.093   2.101   0.010
 6803TIP3    H120373   4.072   2.152   0.089
 6803TIP3    H220374   4.127   2.018   0.044
 6804TIP3   OH220375   1.857   5.359   0.995
 6804TIP3    H120376   1.783   5.404   0.953
 6804TIP3    H220377   1.933   5.408   0.966
 6805TIP3   OH220378   1.501   1.722   3.605
 6805TIP3    H120379   1.586   1.683   3.583
 6805TIP3    H220380   1.440   1.649   3.596
 6806TIP3   OH220381   5.653   1.880   5.264
 6806TIP3    H120382   5.569   1.860   5.223
 6806TIP3    H220383   5.673   1.969   5.237
 6807TIP3   OH220384   7.054   4.244   2.918
 6807TIP3    H120385   6.970   4.268   2.959
 6807TIP3    H220386   7.041   4.262   2.825
 6808TIP3   OH220387   4.465   3.312   4.730
 6808TIP3    H120388   4.445   3.402   4.706
 6808TIP3    H220389   4.497   3.317   4.820
 6809TIP3   OH220390   6.733   0.087   0.241
 6809TIP3    H120391   6.708   0.168   0.285
 6809TIP3    H220392   6.829   0.087   0.243
 6810TIP3   OH220393   5.477   2.576   5.828
 6810TIP3    H120394   5.494   2.669   5.842
 6810TIP3    H220395   5.472   2.538   5.916
 6811TIP3   OH220396   6.881   1.413   2.529
 6811TIP3    H120397   6.945   1.377   2.467
 6811TIP3    H220398   6.931   1.478   2.578
 6812TIP3   OH220399   1.730   0.084   5.606
 6812TIP3    H120400   1.735   0.169   5.563
 6812TIP3    H220401   1.711   0.104   5.697
 6813TIP3   OH220402   6.688   4.519   3.416
 6813TIP3    H120403   6.737   4.462   3.356
 6813TIP3    H220404   6.610   4.469   3.437
 6814TIP3   OH220405   2.290   4.615   0.028
 6814TIP3    H120406   2.233   4.549   0.066
 6814TIP3    H220407   2.245   4.645  -0.050
 6815TIP3   OH220408   5.825   0.906   0.038
 6815TIP3    H120409   5.863   0.868   0.117
 6815TIP3    H220410   5.740   0.862   0.028
 6816TIP3   OH220411   2.201   5.949   4.665
 6816TIP3    H120412   2.152   5.891   4.723
 6816TIP3    H220413   2.238   6.016   4.722
 6817TIP3   OH220414   2.507   0.753   3.568
 6817TIP3    H120415   2.563   0.831   3.567
 6817TIP3    H220416   2.516   0.719   3.657
 6818TIP3   OH220417   4.508   4.577   0.969
 6818TIP3    H120418   4.603   4.569   0.969
 6818TIP3    H220419   4.490   4.660   1.013
 6819TIP3   OH220420   1.493   6.725   1.723
 6819TIP3    H120421   1.492   6.725   1.627
 6819TIP3    H220422   1.401   6.728   1.748
 6820TIP3   OH220423   2.606   5.132   3.556
 6820TIP3    H120424   2.631   5.040   3.556
 6820TIP3    H220425   2.516   5.133   3.524
 6821TIP3   OH220426   0.565   0.339   1.902
 6821TIP3    H120427   0.567   0.322   1.997
 6821TIP3    H220428   0.502   0.411   1.892
 6822TIP3   OH220429   0.409   5.987   0.640
 6822TIP3    H120430   0.473   6.040   0.689
 6822TIP3    H220431   0.382   5.919   0.700
 6823TIP3   OH220432   0.851   0.416   4.405
 6823TIP3    H120433   0.857   0.510   4.387
 6823TIP3    H220434   0.921   0.400   4.469
 6824TIP3   OH220435   0.319   2.118   2.227
 6824TIP3    H120436   0.364   2.038   2.253
 6824TIP3    H220437   0.245   2.124   2.287
 6825TIP3   OH220438   0.572   5.878   2.825
 6825TIP3    H120439   0.660   5.846   2.805
 6825TIP3    H220440   0.513   5.816   2.782
 6826TIP3   OH220441   2.469   0.911   1.198
 6826TIP3    H120442   2.556   0.949   1.191
 6826TIP3    H220443   2.458   0.861   1.117
 6827TIP3   OH220444   4.676   3.000   4.968
 6827TIP3    H120445   4.769   3.012   4.988
 6827TIP3    H220446   4.651   2.920   5.015
 6828TIP3   OH220447   1.613   6.831   0.688
 6828TIP3    H120448   1.640   6.757   0.743
 6828TIP3    H220449   1.523   6.812   0.664
 6829TIP3   OH220450   3.295   4.354   3.861
 6829TIP3    H120451   3.211   4.394   3.879
 6829TIP3    H220452   3.358   4.406   3.910
 6830TIP3   OH220453   5.415   4.555   3.424
 6830TIP3    H120454   5.353   4.622   3.451
 6830TIP3    H220455   5.464   4.596   3.352
 6831TIP3   OH220456   3.976   6.424   5.034
 6831TIP3    H120457   4.047   6.398   4.974
 6831TIP3    H220458   3.904   6.364   5.013
 6832TIP3   OH220459   6.207   6.501   0.681
 6832TIP3    H120460   6.151   6.564   0.636
 6832TIP3    H220461   6.290   6.504   0.632
 6833TIP3   OH220462   1.038   4.024   4.562
 6833TIP3    H120463   1.029   3.980   4.477
 6833TIP3    H220464   1.126   4.000   4.592
 6834TIP3   OH220465   4.497   2.282   0.092
 6834TIP3    H120466   4.410   2.321   0.102
 6834TIP3    H220467   4.526   2.310   0.005
 6835TIP3   OH220468   1.747   1.235   0.115
 6835TIP3    H120469   1.661   1.226   0.074
 6835TIP3    H220470   1.785   1.313   0.074
 6836TIP3   OH220471   0.210   0.607   4.490
 6836TIP3    H120472   0.191   0.618   4.397
 6836TIP3    H220473   0.302   0.579   4.492
 6837TIP3   OH220474   0.307   4.434   5.223
 6837TIP3    H120475   0.327   4.387   5.142
 6837TIP3    H220476   0.385   4.486   5.240
 6838TIP3   OH220477   4.621   6.198   1.947
 6838TIP3    H120478   4.588   6.218   2.034
 6838TIP3    H220479   4.561   6.242   1.888
 6839TIP3   OH220480   2.766   1.573   4.011
 6839TIP3    H120481   2.681   1.618   4.011
 6839TIP3    H220482   2.752   1.496   3.956
 6840TIP3   OH220483   4.177   4.579   5.036
 6840TIP3    H120484   4.146   4.667   5.013
 6840TIP3    H220485   4.272   4.585   5.032
 6841TIP3   OH220486   2.949   4.169   1.633
 6841TIP3    H120487   2.937   4.091   1.688
 6841TIP3    H220488   2.923   4.242   1.690
 6842TIP3   OH220489   1.795   3.151   4.779
 6842TIP3    H120490   1.828   3.231   4.819
 6842TIP3    H220491   1.705   3.143   4.811
 6843TIP3   OH220492   7.105   3.039   0.879
 6843TIP3    H120493   7.149   3.020   0.796
 6843TIP3    H220494   7.016   3.006   0.866
 6844TIP3   OH220495   2.152   0.449   2.816
 6844TIP3    H120496   2.174   0.434   2.724
 6844TIP3    H220497   2.061   0.419   2.824
 6845TIP3   OH220498   7.047   0.787   0.247
 6845TIP3    H120499   7.096   0.708   0.271
 6845TIP3    H220500   7.004   0.764   0.165
 6846TIP3   OH220501   5.347   4.570   4.711
 6846TIP3    H120502   5.371   4.478   4.723
 6846TIP3    H220503   5.383   4.594   4.626
 6847TIP3   OH220504   1.925   1.739   4.408
 6847TIP3    H120505   1.999   1.787   4.372
 6847TIP3    H220506   1.853   1.758   4.348
 6848TIP3   OH220507   4.136   4.736   4.632
 6848TIP3    H120508   4.152   4.803   4.698
 6848TIP3    H220509   4.131   4.784   4.550
 6849TIP3   OH220510   2.125   6.133   0.265
 6849TIP3    H120511   2.091   6.090   0.344
 6849TIP3    H220512   2.163   6.061   0.214
 6850TIP3   OH220513   0.913   5.194   2.239
 6850TIP3    H120514   1.001   5.220   2.212
 6850TIP3    H220515   0.865   5.182   2.156
 6851TIP3   OH220516   0.115   2.298   5.711
 6851TIP3    H120517   0.152   2.369   5.658
 6851TIP3    H220518   0.153   2.311   5.798
 6852TIP3   OH220519   0.459   2.169   3.525
 6852TIP3    H120520   0.417   2.085   3.504
 6852TIP3    H220521   0.527   2.146   3.588
 6853TIP3   OH220522   1.703   1.108   4.457
 6853TIP3    H120523   1.790   1.144   4.442
 6853TIP3    H220524   1.695   1.104   4.553
 6854TIP3   OH220525   2.868   5.963   1.037
 6854TIP3    H120526   2.843   5.931   1.124
 6854TIP3    H220527   2.789   6.002   1.003
 6855TIP3   OH220528   2.203   3.367   2.419
 6855TIP3    H120529   2.123   3.416   2.404
 6855TIP3    H220530   2.198   3.293   2.358
 6856TIP3   OH220531   1.809   1.653   2.036
 6856TIP3    H120532   1.728   1.703   2.036
 6856TIP3    H220533   1.833   1.646   1.944
 6857TIP3   OH220534   1.976   5.885   1.941
 6857TIP3    H120535   1.882   5.887   1.923
 6857TIP3    H220536   2.011   5.959   1.892
 6858TIP3   OH220537   0.997   0.068   1.194
 6858TIP3    H120538   1.056   0.137   1.165
 6858TIP3    H220539   1.011  -0.003   1.131
 6859TIP3   OH220540   5.575   5.057   1.954
 6859TIP3    H120541   5.654   5.093   1.996
 6859TIP3    H220542   5.573   4.966   1.982
 6860TIP3   OH220543   6.403   6.734   3.997
 6860TIP3    H120544   6.412   6.742   3.902
 6860TIP3    H220545   6.334   6.796   4.020
 6861TIP3   OH220546   2.745   0.695   2.325
 6861TIP3    H120547   2.732   0.603   2.303
 6861TIP3    H220548   2.804   0.728   2.257
 6862TIP3   OH220549   4.821   0.201   2.837
 6862TIP3    H120550   4.794   0.230   2.750
 6862TIP3    H220551   4.793   0.109   2.841
 6863TIP3   OH220552   6.972   0.818   2.816
 6863TIP3    H120553   6.932   0.904   2.826
 6863TIP3    H220554   7.064   0.831   2.837
 6864TIP3   OH220555   3.034   4.044   3.657
 6864TIP3    H120556   3.030   4.117   3.596
 6864TIP3    H220557   3.014   3.967   3.604
 6865TIP3   OH220558   1.350   1.956   2.631
 6865TIP3    H120559   1.325   1.890   2.696
 6865TIP3    H220560   1.403   1.909   2.567
 6866TIP3   OH220561   5.762   1.500   4.635
 6866TIP3    H120562   5.832   1.488   4.699
 6866TIP3    H220563   5.684   1.517   4.688
 6867TIP3   OH220564   3.187   4.935   1.993
 6867TIP3    H120565   3.202   4.977   2.078
 6867TIP3    H220566   3.271   4.895   1.971
 6868TIP3   OH220567   4.087   5.162   2.469
 6868TIP3    H120568   4.171   5.195   2.437
 6868TIP3    H220569   4.110   5.085   2.521
 6869TIP3   OH220570   1.628   6.317   0.641
 6869TIP3    H120571   1.539   6.301   0.609
 6869TIP3    H220572   1.652   6.402   0.605
 6870TIP3   OH220573   2.161   5.396   0.509
 6870TIP3    H120574   2.130   5.418   0.421
 6870TIP3    H220575   2.251   5.429   0.512
 6871TIP3   OH220576   4.203   1.376   0.086
 6871TIP3    H120577   4.267   1.319   0.044
 6871TIP3    H220578   4.240   1.464   0.075
 6872TIP3   OH220579   4.761   1.684   1.039
 6872TIP3    H120580   4.695   1.653   0.976
 6872TIP3    H220581   4.711   1.707   1.117
 6873TIP3   OH220582   6.350   3.759   2.125
 6873TIP3    H120583   6.390   3.724   2.044
 6873TIP3    H220584   6.290   3.827   2.095
 6874TIP3   OH220585   2.680   5.566   1.016
 6874TIP3    H120586   2.651   5.497   0.957
 6874TIP3    H220587   2.698   5.521   1.099
 6875TIP3   OH220588   6.974   3.383   5.665
 6875TIP3    H120589   7.029   3.425   5.599
 6875TIP3    H220590   6.935   3.308   5.620
 6876TIP3   OH220591   4.481   5.464   5.423
 6876TIP3    H120592   4.533   5.517   5.363
 6876TIP3    H220593   4.544   5.403   5.461
 6877TIP3   OH220594   0.508   2.311   4.446
 6877TIP3    H120595   0.512   2.242   4.380
 6877TIP3    H220596   0.597   2.318   4.479
 6878TIP3   OH220597   4.529   3.725   2.675
 6878TIP3    H120598   4.439   3.751   2.657
 6878TIP3    H220599   4.571   3.805   2.709
 6879TIP3   OH220600   6.799   1.528   5.594
 6879TIP3    H120601   6.760   1.512   5.508
 6879TIP3    H220602   6.821   1.621   5.593
 6880TIP3   OH220603   0.473   0.720   1.487
 6880TIP3    H120604   0.445   0.731   1.396
 6880TIP3    H220605   0.405   0.664   1.526
 6881TIP3   OH220606   5.165   5.362   0.077
 6881TIP3    H120607   5.236   5.400   0.026
 6881TIP3    H220608   5.109   5.319   0.013
 6882TIP3   OH220609   6.015   1.030   2.673
 6882TIP3    H120610   6.091   1.073   2.633
 6882TIP3    H220611   5.973   0.983   2.601
 6883TIP3   OH220612   7.207   4.193   2.114
 6883TIP3    H120613   7.221   4.184   2.019
 6883TIP3    H220614   7.133   4.253   2.121
 6884TIP3   OH220615   2.198   3.635   4.729
 6884TIP3    H120616   2.203   3.655   4.822
 6884TIP3    H220617   2.132   3.566   4.723
 6885TIP3   OH220618   4.469   0.981   4.851
 6885TIP3    H120619   4.540   0.953   4.793
 6885TIP3    H220620   4.411   0.905   4.856
 6886TIP3   OH220621   1.863   0.970   0.708
 6886TIP3    H120622   1.891   1.058   0.682
 6886TIP3    H220623   1.934   0.939   0.765
 6887TIP3   OH220624   5.068   0.428   4.930
 6887TIP3    H120625   5.086   0.334   4.922
 6887TIP3    H220626   5.074   0.461   4.840
 6888TIP3   OH220627   4.785   2.246   0.276
 6888TIP3    H120628   4.801   2.211   0.363
 6888TIP3    H220629   4.700   2.290   0.282
 6889TIP3   OH220630   6.572   6.021   3.364
 6889TIP3    H120631   6.484   6.019   3.328
 6889TIP3    H220632   6.567   5.968   3.444
 6890TIP3   OH220633   5.394   3.646   4.163
 6890TIP3    H120634   5.340   3.724   4.180
 6890TIP3    H220635   5.336   3.572   4.180
 6891TIP3   OH220636   4.641   0.177   4.736
 6891TIP3    H120637   4.634   0.081   4.735
 6891TIP3    H220638   4.579   0.205   4.802
 6892TIP3   OH220639   4.940   3.245   5.645
 6892TIP3    H120640   4.953   3.172   5.706
 6892TIP3    H220641   5.020   3.247   5.593
 6893TIP3   OH220642   0.033   3.679   4.217
 6893TIP3    H120643   0.110   3.736   4.209
 6893TIP3    H220644   0.002   3.693   4.306
 6894TIP3   OH220645   0.383   2.456   3.433
 6894TIP3    H120646   0.326   2.423   3.363
 6894TIP3    H220647   0.395   2.381   3.491
 6895TIP3   OH220648   3.313   1.973   5.641
 6895TIP3    H120649   3.325   1.884   5.608
 6895TIP3    H220650   3.307   1.963   5.736
 6896TIP3   OH220651   2.064   5.450   1.566
 6896TIP3    H120652   2.139   5.501   1.537
 6896TIP3    H220653   2.079   5.362   1.531
 6897TIP3   OH220654   3.621   1.841   2.608
 6897TIP3    H120655   3.647   1.780   2.539
 6897TIP3    H220656   3.703   1.860   2.654
 6898TIP3   OH220657   4.087   6.426   3.758
 6898TIP3    H120658   3.995   6.423   3.731
 6898TIP3    H220659   4.104   6.518   3.774
 6899TIP3   OH220660   4.965   5.583   2.117
 6899TIP3    H120661   5.035   5.641   2.147
 6899TIP3    H220662   5.003   5.536   2.042
 6900TIP3   OH220663   5.072   4.414   3.948
 6900TIP3    H120664   5.153   4.367   3.930
 6900TIP3    H220665   5.099   4.492   3.997
 6901TIP3   OH220666   6.748   0.815   5.614
 6901TIP3    H120667   6.711   0.732   5.584
 6901TIP3    H220668   6.831   0.790   5.656
 6902TIP3   OH220669   4.351   3.135   4.000
 6902TIP3    H120670   4.406   3.168   4.071
 6902TIP3    H220671   4.306   3.212   3.967
 6903TIP3   OH220672   1.363   3.452   0.139
 6903TIP3    H120673   1.297   3.405   0.191
 6903TIP3    H220674   1.352   3.418   0.050
 6904TIP3   OH220675   5.213   5.043   1.617
 6904TIP3    H120676   5.222   5.008   1.706
 6904TIP3    H220677   5.152   4.984   1.574
 6905TIP3   OH220678   5.909   3.413   3.952
 6905TIP3    H120679   5.955   3.486   3.995
 6905TIP3    H220680   5.969   3.338   3.963
 6906TIP3   OH220681   5.740   2.841   2.708
 6906TIP3    H120682   5.744   2.918   2.765
 6906TIP3    H220683   5.738   2.767   2.768
 6907TIP3   OH220684   5.134   0.896   3.027
 6907TIP3    H120685   5.098   0.977   2.990
 6907TIP3    H220686   5.088   0.826   2.981
 6908TIP3   OH220687   0.742   3.433   5.208
 6908TIP3    H120688   0.743   3.429   5.304
 6908TIP3    H220689   0.833   3.451   5.184
 6909TIP3   OH220690   1.590   2.094   2.884
 6909TIP3    H120691   1.575   2.188   2.873
 6909TIP3    H220692   1.671   2.076   2.837
 6910TIP3   OH220693   6.790   5.803   1.607
 6910TIP3    H120694   6.789   5.895   1.632
 6910TIP3    H220695   6.819   5.804   1.515
 6911TIP3   OH220696   4.544   1.921   5.234
 6911TIP3    H120697   4.493   1.847   5.266
 6911TIP3    H220698   4.588   1.888   5.155
 6912TIP3   OH220699   2.154   5.679   1.746
 6912TIP3    H120700   2.112   5.619   1.808
 6912TIP3    H220701   2.089   5.749   1.734
 6913TIP3   OH220702   0.794   5.966   2.348
 6913TIP3    H120703   0.729   5.896   2.356
 6913TIP3    H220704   0.794   5.987   2.254
 6914TIP3   OH220705   5.144   4.160   3.696
 6914TIP3    H120706   5.135   4.090   3.760
 6914TIP3    H220707   5.055   4.182   3.671
 6915TIP3   OH220708   0.196   1.865   0.751
 6915TIP3    H120709   0.116   1.915   0.737
 6915TIP3    H220710   0.241   1.869   0.666
 6916TIP3   OH220711   2.053   3.799   1.572
 6916TIP3    H120712   1.972   3.834   1.535
 6916TIP3    H220713   2.105   3.876   1.593
 6917TIP3   OH220714   2.348   6.166   3.084
 6917TIP3    H120715   2.253   6.155   3.089
 6917TIP3    H220716   2.383   6.089   3.130
 6918TIP3   OH220717   3.110   2.386   2.917
 6918TIP3    H120718   3.084   2.458   2.975
 6918TIP3    H220719   3.048   2.391   2.844
 6919TIP3   OH220720   5.242   1.459   2.071
 6919TIP3    H120721   5.240   1.528   2.004
 6919TIP3    H220722   5.332   1.459   2.103
 6920TIP3   OH220723   0.492   5.714   5.319
 6920TIP3    H120724   0.526   5.796   5.353
 6920TIP3    H220725   0.519   5.648   5.383
 6921TIP3   OH220726   6.440   4.073   1.349
 6921TIP3    H120727   6.452   4.050   1.441
 6921TIP3    H220728   6.391   4.155   1.351
 6922TIP3   OH220729   6.678   3.589   1.522
 6922TIP3    H120730   6.743   3.537   1.569
 6922TIP3    H220731   6.601   3.532   1.516
 6923TIP3   OH220732   6.007   4.881   5.066
 6923TIP3    H120733   5.936   4.931   5.025
 6923TIP3    H220734   6.003   4.795   5.024
 6924TIP3   OH220735   7.183   4.902   0.630
 6924TIP3    H120736   7.129   4.980   0.617
 6924TIP3    H220737   7.273   4.933   0.625
 6925TIP3   OH220738   2.552   3.204   3.176
 6925TIP3    H120739   2.537   3.113   3.202
 6925TIP3    H220740   2.592   3.198   3.090
 6926TIP3   OH220741   0.090   4.162   4.476
 6926TIP3    H120742   0.156   4.099   4.504
 6926TIP3    H220743   0.133   4.217   4.411
 6927TIP3   OH220744   2.189   5.512   2.523
 6927TIP3    H120745   2.172   5.606   2.532
 6927TIP3    H220746   2.109   5.477   2.482
 6928TIP3   OH220747   3.774   2.605   5.283
 6928TIP3    H120748   3.678   2.601   5.283
 6928TIP3    H220749   3.794   2.698   5.271
 6929TIP3   OH220750   5.293   1.948   1.161
 6929TIP3    H120751   5.270   2.038   1.138
 6929TIP3    H220752   5.382   1.936   1.127
 6930TIP3   OH220753   3.336   5.932   1.056
 6930TIP3    H120754   3.284   5.995   1.007
 6930TIP3    H220755   3.282   5.911   1.133
 6931TIP3   OH220756   5.451   5.770   3.961
 6931TIP3    H120757   5.503   5.833   4.011
 6931TIP3    H220758   5.375   5.820   3.931
 6932TIP3   OH220759   0.052   6.309   0.110
 6932TIP3    H120760  -0.023   6.358   0.076
 6932TIP3    H220761   0.015   6.223   0.134
 6933TIP3   OH220762   2.222   6.331   5.032
 6933TIP3    H120763   2.153   6.339   4.965
 6933TIP3    H220764   2.261   6.419   5.035
 6934TIP3   OH220765   1.500   0.092   0.593
 6934TIP3    H120766   1.560   0.043   0.649
 6934TIP3    H220767   1.556   0.153   0.545
 6935TIP3   OH220768   6.491   1.078   0.520
 6935TIP3    H120769   6.508   0.987   0.497
 6935TIP3    H220770   6.571   1.106   0.567
 6936TIP3   OH220771   0.515   0.983   3.975
 6936TIP3    H120772   0.468   0.982   3.892
 6936TIP3    H220773   0.476   0.911   4.026
 6937TIP3   OH220774   0.841   1.305   0.478
 6937TIP3    H120775   0.935   1.290   0.479
 6937TIP3    H220776   0.823   1.339   0.391
 6938TIP3   OH220777   6.260   5.701   2.921
 6938TIP3    H120778   6.353   5.680   2.923
 6938TIP3    H220779   6.231   5.672   2.834
 6939TIP3   OH220780   7.031   5.470   5.873
 6939TIP3    H120781   6.945   5.510   5.887
 6939TIP3    H220782   7.081   5.536   5.824
 6940TIP3   OH220783   1.393   4.953   0.074
 6940TIP3    H120784   1.384   4.861   0.099
 6940TIP3    H220785   1.401   4.950  -0.021
 6941TIP3   OH220786   6.757   1.296   2.980
 6941TIP3    H120787   6.791   1.385   2.972
 6941TIP3    H220788   6.780   1.269   3.069
 6942TIP3   OH220789   5.624   6.804   5.190
 6942TIP3    H120790   5.550   6.801   5.251
 6942TIP3    H220791   5.637   6.713   5.164
 6943TIP3   OH220792   1.812   4.129   4.756
 6943TIP3    H120793   1.730   4.082   4.742
 6943TIP3    H220794   1.876   4.060   4.772
 6944TIP3   OH220795   2.490   2.707   5.108
 6944TIP3    H120796   2.509   2.628   5.056
 6944TIP3    H220797   2.516   2.683   5.197
 6945TIP3   OH220798   1.539   5.232   0.514
 6945TIP3    H120799   1.580   5.288   0.580
 6945TIP3    H220800   1.583   5.255   0.432
 6946TIP3   OH220801   5.788   1.637   3.367
 6946TIP3    H120802   5.860   1.628   3.430
 6946TIP3    H220803   5.715   1.591   3.408
 6947TIP3   OH220804   6.694   3.661   0.569
 6947TIP3    H120805   6.749   3.663   0.648
 6947TIP3    H220806   6.645   3.743   0.572
 6948TIP3   OH220807   1.274   1.018   4.827
 6948TIP3    H120808   1.260   0.968   4.746
 6948TIP3    H220809   1.355   0.983   4.863
 6949TIP3   OH220810   2.496   6.478   4.241
 6949TIP3    H120811   2.524   6.390   4.214
 6949TIP3    H220812   2.403   6.481   4.219
 6950TIP3   OH220813   1.888   2.150   2.377
 6950TIP3    H120814   1.818   2.086   2.381
 6950TIP3    H220815   1.847   2.229   2.342
 6951TIP3   OH220816   1.830   5.087   3.823
 6951TIP3    H120817   1.742   5.115   3.849
 6951TIP3    H220818   1.889   5.151   3.863
 6952TIP3   OH220819   2.843   3.310   1.423
 6952TIP3    H120820   2.895   3.243   1.379
 6952TIP3    H220821   2.817   3.370   1.354
 6953TIP3   OH220822   2.388   5.048   4.935
 6953TIP3    H120823   2.422   4.994   5.006
 6953TIP3    H220824   2.301   5.013   4.917
 6954TIP3   OH220825   0.984   3.665   1.471
 6954TIP3    H120826   0.927   3.650   1.396
 6954TIP3    H220827   1.000   3.577   1.506
 6955TIP3   OH220828   3.203   4.972   2.376
 6955TIP3    H120829   3.165   5.058   2.355
 6955TIP3    H220830   3.290   4.993   2.412
 6956TIP3   OH220831   2.134   5.763   4.821
 6956TIP3    H120832   2.222   5.727   4.830
 6956TIP3    H220833   2.083   5.722   4.890
 6957TIP3   OH220834   6.906   3.081   4.664
 6957TIP3    H120835   6.955   3.048   4.589
 6957TIP3    H220836   6.955   3.159   4.692
 6958TIP3   OH220837   5.772   1.624   3.821
 6958TIP3    H120838   5.739   1.636   3.732
 6958TIP3    H220839   5.770   1.529   3.835
 6959TIP3   OH220840   1.524   1.668   1.063
 6959TIP3    H120841   1.577   1.720   1.123
 6959TIP3    H220842   1.587   1.608   1.021
 6960TIP3   OH220843   1.870   0.481   2.880
 6960TIP3    H120844   1.866   0.390   2.909
 6960TIP3    H220845   1.783   0.516   2.901
 6961TIP3   OH220846   1.369   1.537   5.025
 6961TIP3    H120847   1.366   1.445   5.051
 6961TIP3    H220848   1.340   1.538   4.934
 6962TIP3   OH220849   3.016   1.086   3.604
 6962TIP3    H120850   3.057   1.004   3.632
 6962TIP3    H220851   3.080   1.154   3.627
 6963TIP3   OH220852   1.970   5.469   0.692
 6963TIP3    H120853   2.028   5.441   0.621
 6963TIP3    H220854   2.026   5.470   0.770
 6964TIP3   OH220855   0.831   3.317   4.226
 6964TIP3    H120856   0.834   3.248   4.293
 6964TIP3    H220857   0.861   3.396   4.271
 6965TIP3   OH220858   2.646   3.050   4.385
 6965TIP3    H120859   2.614   3.095   4.307
 6965TIP3    H220860   2.664   3.121   4.448
 6966TIP3   OH220861   5.594   1.133   4.733
 6966TIP3    H120862   5.686   1.149   4.755
 6966TIP3    H220863   5.559   1.083   4.806
 6967TIP3   OH220864   2.194   5.434   3.781
 6967TIP3    H120865   2.182   5.493   3.856
 6967TIP3    H220866   2.289   5.435   3.765
 6968TIP3   OH220867   5.522   1.540   3.098
 6968TIP3    H120868   5.482   1.626   3.084
 6968TIP3    H220869   5.589   1.533   3.031
 6969TIP3   OH220870   5.036   2.209   4.775
 6969TIP3    H120871   4.997   2.158   4.704
 6969TIP3    H220872   5.105   2.259   4.732
 6970TIP3   OH220873   2.787   2.876   2.725
 6970TIP3    H120874   2.857   2.811   2.732
 6970TIP3    H220875   2.719   2.845   2.784
 6971TIP3   OH220876   0.684   5.435   4.373
 6971TIP3    H120877   0.664   5.369   4.306
 6971TIP3    H220878   0.612   5.427   4.436
 6972TIP3   OH220879   6.050   1.336   5.036
 6972TIP3    H120880   6.141   1.354   5.058
 6972TIP3    H220881   6.040   1.241   5.051
 6973TIP3   OH220882   0.696   4.412   4.000
 6973TIP3    H120883   0.733   4.341   3.947
 6973TIP3    H220884   0.764   4.479   3.999
 6974TIP3   OH220885   4.267   5.418   3.180
 6974TIP3    H120886   4.216   5.480   3.232
 6974TIP3    H220887   4.341   5.395   3.237
 6975TIP3   OH220888   0.615   0.638   2.865
 6975TIP3    H120889   0.648   0.630   2.776
 6975TIP3    H220890   0.669   0.579   2.917
 6976TIP3   OH220891   2.894   6.667   3.165
 6976TIP3    H120892   2.978   6.712   3.162
 6976TIP3    H220893   2.829   6.737   3.176
 6977TIP3   OH220894   6.071   3.864   2.438
 6977TIP3    H120895   6.051   3.945   2.390
 6977TIP3    H220896   5.993   3.810   2.426
 6978TIP3   OH220897   4.922   3.340   4.163
 6978TIP3    H120898   4.846   3.333   4.221
 6978TIP3    H220899   4.950   3.250   4.147
 6979TIP3   OH220900   6.219   1.350   3.061
 6979TIP3    H120901   6.269   1.377   3.138
 6979TIP3    H220902   6.199   1.257   3.077
 6980TIP3   OH220903   2.884   2.646   1.489
 6980TIP3    H120904   2.933   2.662   1.409
 6980TIP3    H220905   2.864   2.733   1.524
 6981TIP3   OH220906   6.203   5.505   4.641
 6981TIP3    H120907   6.158   5.445   4.701
 6981TIP3    H220908   6.262   5.449   4.590
 6982TIP3   OH220909   6.414   3.452   1.224
 6982TIP3    H120910   6.479   3.518   1.200
 6982TIP3    H220911   6.335   3.501   1.245
 6983TIP3   OH220912   6.420   2.664   4.556
 6983TIP3    H120913   6.469   2.669   4.638
 6983TIP3    H220914   6.358   2.592   4.569
 6984TIP3   OH220915   4.612   6.115   2.955
 6984TIP3    H120916   4.535   6.123   3.012
 6984TIP3    H220917   4.638   6.023   2.963
 6985TIP3   OH220918   5.410   6.408   3.208
 6985TIP3    H120919   5.363   6.477   3.253
 6985TIP3    H220920   5.501   6.418   3.235
 6986TIP3   OH220921   7.211   3.258   3.670
 6986TIP3    H120922   7.149   3.204   3.620
 6986TIP3    H220923   7.212   3.341   3.624
 6987TIP3   OH220924   0.878   5.561   1.561
 6987TIP3    H120925   0.869   5.577   1.467
 6987TIP3    H220926   0.806   5.611   1.600
 6988TIP3   OH220927   0.046   3.636   5.155
 6988TIP3    H120928  -0.028   3.645   5.215
 6988TIP3    H220929   0.040   3.712   5.098
 6989TIP3   OH220930   2.905   0.263   2.406
 6989TIP3    H120931   2.824   0.274   2.357
 6989TIP3    H220932   2.893   0.182   2.456
 6990TIP3   OH220933   4.764   0.620   2.558
 6990TIP3    H120934   4.847   0.587   2.593
 6990TIP3    H220935   4.785   0.643   2.467
 6991TIP3   OH220936   5.084   2.724   2.091
 6991TIP3    H120937   5.000   2.767   2.108
 6991TIP3    H220938   5.146   2.768   2.148
 6992TIP3   OH220939   0.601   3.731   0.740
 6992TIP3    H120940   0.681   3.743   0.689
 6992TIP3    H220941   0.630   3.687   0.820
 6993TIP3   OH220942   2.252   4.264   0.390
 6993TIP3    H120943   2.281   4.191   0.336
 6993TIP3    H220944   2.157   4.252   0.400
 6994TIP3   OH220945   4.996   4.602   1.311
 6994TIP3    H120946   4.927   4.537   1.325
 6994TIP3    H220947   4.957   4.685   1.339
 6995TIP3   OH220948   3.633   2.377   0.816
 6995TIP3    H120949   3.680   2.429   0.881
 6995TIP3    H220950   3.692   2.373   0.741
 6996TIP3   OH220951   4.231   0.038   0.229
 6996TIP3    H120952   4.286  -0.040   0.233
 6996TIP3    H220953   4.209   0.056   0.320
 6997TIP3   OH220954   0.343   2.749   3.318
 6997TIP3    H120955   0.383   2.675   3.363
 6997TIP3    H220956   0.372   2.826   3.368
 6998TIP3   OH220957   0.627   0.768   4.195
 6998TIP3    H120958   0.689   0.713   4.147
 6998TIP3    H220959   0.611   0.720   4.277
 6999TIP3   OH220960   5.146   1.383   3.663
 6999TIP3    H120961   5.178   1.473   3.650
 6999TIP3    H220962   5.086   1.390   3.737
 7000TIP3   OH220963   4.010   2.730   4.623
 7000TIP3    H120964   3.988   2.794   4.555
 7000TIP3    H220965   4.055   2.780   4.691
 7001TIP3   OH220966   5.215   1.641   1.845
 7001TIP3    H120967   5.205   1.719   1.898
 7001TIP3    H220968   5.194   1.670   1.756
 7002TIP3   OH220969   3.727   6.198   2.333
 7002TIP3    H120970   3.755   6.193   2.242
 7002TIP3    H220971   3.656   6.135   2.340
 7003TIP3   OH220972   3.430   6.451   5.063
 7003TIP3    H120973   3.487   6.417   5.131
 7003TIP3    H220974   3.369   6.509   5.108
 7004TIP3   OH220975   5.518   6.376   1.483
 7004TIP3    H120976   5.557   6.289   1.477
 7004TIP3    H220977   5.591   6.436   1.469
 7005TIP3   OH220978   3.802   3.293   0.454
 7005TIP3    H120979   3.843   3.273   0.538
 7005TIP3    H220980   3.710   3.310   0.476
 7006TIP3   OH220981   0.360   3.214   2.128
 7006TIP3    H120982   0.416   3.143   2.160
 7006TIP3    H220983   0.422   3.282   2.100
 7007TIP3   OH220984   1.374   4.114   4.605
 7007TIP3    H120985   1.446   4.068   4.648
 7007TIP3    H220986   1.328   4.157   4.676
 7008TIP3   OH220987   7.044   6.417   2.738
 7008TIP3    H120988   7.059   6.476   2.812
 7008TIP3    H220989   7.110   6.348   2.750
 7009TIP3   OH220990   1.608   4.326   1.830
 7009TIP3    H120991   1.647   4.308   1.745
 7009TIP3    H220992   1.675   4.377   1.877
 7010TIP3   OH220993   2.854   4.356   2.693
 7010TIP3    H120994   2.932   4.339   2.641
 7010TIP3    H220995   2.828   4.445   2.669
 7011TIP3   OH220996   3.990   0.372   2.316
 7011TIP3    H120997   3.960   0.283   2.331
 7011TIP3    H220998   4.078   0.362   2.279
 7012TIP3   OH220999   6.875   3.423   0.709
 7012TIP3    H121000   6.959   3.461   0.681
 7012TIP3    H221001   6.840   3.381   0.631
 7013TIP3   OH221002   3.865   5.845   2.996
 7013TIP3    H121003   3.878   5.940   3.005
 7013TIP3    H221004   3.888   5.810   3.082
 7014TIP3   OH221005   4.731   2.103   2.869
 7014TIP3    H121006   4.685   2.185   2.887
 7014TIP3    H221007   4.739   2.061   2.955
 7015TIP3   OH221008   1.384   1.977   3.068
 7015TIP3    H121009   1.433   2.033   3.007
 7015TIP3    H221010   1.355   2.037   3.137
 7016TIP3   OH221011   5.317   3.053   4.841
 7016TIP3    H121012   5.280   3.007   4.917
 7016TIP3    H221013   5.277   3.010   4.766
 7017TIP3   OH221014   2.790   3.579   0.604
 7017TIP3    H121015   2.819   3.578   0.695
 7017TIP3    H221016   2.870   3.568   0.553
 7018TIP3   OH221017   0.204   6.266   0.709
 7018TIP3    H121018   0.180   6.357   0.729
 7018TIP3    H221019   0.198   6.222   0.794
 7019TIP3   OH221020   7.176   1.962   0.690
 7019TIP3    H121021   7.184   2.033   0.626
 7019TIP3    H221022   7.087   1.971   0.724
 7020TIP3   OH221023   2.440   0.266   2.689
 7020TIP3    H121024   2.535   0.266   2.701
 7020TIP3    H221025   2.405   0.265   2.779
 7021TIP3   OH221026   3.824   2.527   3.872
 7021TIP3    H121027   3.892   2.594   3.878
 7021TIP3    H221028   3.764   2.560   3.805
 7022TIP3   OH221029   1.392   1.534   3.991
 7022TIP3    H121030   1.420   1.456   4.040
 7022TIP3    H221031   1.296   1.535   4.002
 7023TIP3   OH221032   3.911   1.753   0.660
 7023TIP3    H121033   3.935   1.829   0.607
 7023TIP3    H221034   3.989   1.698   0.660
 7024TIP3   OH221035   5.939   5.667   1.301
 7024TIP3    H121036   5.993   5.589   1.294
 7024TIP3    H221037   5.850   5.633   1.312
 7025TIP3   OH221038   5.109   1.274   1.863
 7025TIP3    H121039   5.137   1.325   1.940
 7025TIP3    H221040   5.189   1.236   1.828
 7026TIP3   OH221041   1.850   6.714   3.285
 7026TIP3    H121042   1.759   6.697   3.260
 7026TIP3    H221043   1.851   6.805   3.313
 7027TIP3   OH221044   5.340   0.951   5.722
 7027TIP3    H121045   5.343   1.044   5.700
 7027TIP3    H221046   5.370   0.948   5.813
 7028TIP3   OH221047   1.409   2.259   3.855
 7028TIP3    H121048   1.356   2.189   3.818
 7028TIP3    H221049   1.470   2.216   3.914
 7029TIP3   OH221050   4.263   3.568   2.172
 7029TIP3    H121051   4.188   3.628   2.176
 7029TIP3    H221052   4.327   3.604   2.233
 7030TIP3   OH221053   2.073   3.962   3.294
 7030TIP3    H121054   2.018   3.895   3.252
 7030TIP3    H221055   2.162   3.929   3.285
 7031TIP3   OH221056   2.382   6.383   0.386
 7031TIP3    H121057   2.382   6.478   0.380
 7031TIP3    H221058   2.392   6.353   0.296
 7032TIP3   OH221059   6.061   6.179   0.641
 7032TIP3    H121060   6.037   6.224   0.560
 7032TIP3    H221061   6.147   6.141   0.623
 7033TIP3   OH221062   4.682   5.179   3.650
 7033TIP3    H121063   4.629   5.107   3.617
 7033TIP3    H221064   4.755   5.137   3.695
 7034TIP3   OH221065   1.965   4.612   0.097
 7034TIP3    H121066   2.005   4.543   0.151
 7034TIP3    H221067   2.004   4.693   0.130
 7035TIP3   OH221068   1.364   3.256   4.968
 7035TIP3    H121069   1.314   3.175   4.972
 7035TIP3    H221070   1.299   3.325   4.959
 7036TIP3   OH221071   4.476   5.330   4.520
 7036TIP3    H121072   4.429   5.279   4.586
 7036TIP3    H221073   4.569   5.321   4.545
 7037TIP3   OH221074   2.843   1.719   3.435
 7037TIP3    H121075   2.822   1.706   3.528
 7037TIP3    H221076   2.758   1.710   3.391
 7038TIP3   OH221077   2.425   2.379   3.944
 7038TIP3    H121078   2.411   2.434   3.867
 7038TIP3    H221079   2.429   2.440   4.017
 7039TIP3   OH221080   5.604   0.766   5.274
 7039TIP3    H121081   5.587   0.722   5.356
 7039TIP3    H221082   5.580   0.702   5.206
 7040TIP3   OH221083   6.635   5.649   4.664
 7040TIP3    H121084   6.557   5.705   4.669
 7040TIP3    H221085   6.627   5.592   4.741
 7041TIP3   OH221086   6.111   0.648   1.179
 7041TIP3    H121087   6.099   0.568   1.231
 7041TIP3    H221088   6.204   0.668   1.186
 7042TIP3   OH221089   4.633   5.370   1.137
 7042TIP3    H121090   4.702   5.421   1.095
 7042TIP3    H221091   4.680   5.316   1.202
 7043TIP3   OH221092   2.954   1.438   3.418
 7043TIP3    H121093   2.863   1.444   3.389
 7043TIP3    H221094   2.957   1.488   3.499
 7044TIP3   OH221095   7.050   4.326   0.384
 7044TIP3    H121096   6.990   4.394   0.353
 7044TIP3    H221097   6.995   4.266   0.435
 7045TIP3   OH221098   0.660   4.987   3.484
 7045TIP3    H121099   0.656   4.925   3.557
 7045TIP3    H221100   0.683   5.071   3.524
 7046TIP3   OH221101   4.514   1.450   3.019
 7046TIP3    H121102   4.496   1.493   2.935
 7046TIP3    H221103   4.464   1.368   3.016
 7047TIP3   OH221104   6.191   1.958   1.382
 7047TIP3    H121105   6.107   2.001   1.367
 7047TIP3    H221106   6.168   1.873   1.419
 7048TIP3   OH221107   0.461   1.390   5.710
 7048TIP3    H121108   0.508   1.450   5.653
 7048TIP3    H221109   0.519   1.379   5.786
 7049TIP3   OH221110   2.351   5.173   4.175
 7049TIP3    H121111   2.442   5.143   4.177
 7049TIP3    H221112   2.355   5.264   4.203
 7050TIP3   OH221113   0.118   0.529   1.036
 7050TIP3    H121114   0.151   0.618   1.028
 7050TIP3    H221115   0.187   0.482   1.083
 7051TIP3   OH221116   1.712   3.394   0.715
 7051TIP3    H121117   1.643   3.413   0.779
 7051TIP3    H221118   1.679   3.430   0.633
 7052TIP3   OH221119   5.882   3.134   0.509
 7052TIP3    H121120   5.905   3.180   0.429
 7052TIP3    H221121   5.952   3.155   0.571
 7053TIP3   OH221122   3.357   4.133   4.607
 7053TIP3    H121123   3.445   4.154   4.578
 7053TIP3    H221124   3.352   4.037   4.602
 7054TIP3   OH221125   6.053   6.354   4.876
 7054TIP3    H121126   6.135   6.314   4.906
 7054TIP3    H221127   6.078   6.406   4.800
 7055TIP3   OH221128   4.762   0.130   5.804
 7055TIP3    H121129   4.762   0.053   5.747
 7055TIP3    H221130   4.853   0.159   5.805
 7056TIP3   OH221131   5.533   6.467   0.818
 7056TIP3    H121132   5.592   6.395   0.793
 7056TIP3    H221133   5.540   6.471   0.913
 7057TIP3   OH221134   4.475   4.808   1.815
 7057TIP3    H121135   4.500   4.830   1.725
 7057TIP3    H221136   4.469   4.892   1.859
 7058TIP3   OH221137   3.046   3.997   0.874
 7058TIP3    H121138   3.117   4.039   0.825
 7058TIP3    H221139   2.974   3.992   0.812
 7059TIP3   OH221140   3.742   5.453   4.387
 7059TIP3    H121141   3.669   5.430   4.330
 7059TIP3    H221142   3.709   5.525   4.440
 7060TIP3   OH221143   2.663   0.398   0.535
 7060TIP3    H121144   2.631   0.450   0.609
 7060TIP3    H221145   2.734   0.450   0.498
 7061TIP3   OH221146   5.669   3.620   4.654
 7061TIP3    H121147   5.719   3.544   4.686
 7061TIP3    H221148   5.633   3.590   4.570
 7062TIP3   OH221149   1.916   3.608   0.678
 7062TIP3    H121150   1.962   3.533   0.715
 7062TIP3    H221151   1.825   3.596   0.703
 7063TIP3   OH221152   6.486   5.158   0.470
 7063TIP3    H121153   6.396   5.128   0.456
 7063TIP3    H221154   6.534   5.080   0.497
 7064TIP3   OH221155   2.091   4.861   5.703
 7064TIP3    H121156   1.996   4.866   5.707
 7064TIP3    H221157   2.118   4.942   5.660
 7065TIP3   OH221158   5.534   1.406   0.726
 7065TIP3    H121159   5.464   1.343   0.744
 7065TIP3    H221160   5.492   1.474   0.674
 7066TIP3   OH221161   5.311   5.719   3.290
 7066TIP3    H121162   5.387   5.776   3.283
 7066TIP3    H221163   5.315   5.662   3.213
 7067TIP3   OH221164   2.100   1.227   0.329
 7067TIP3    H121165   2.107   1.136   0.300
 7067TIP3    H221166   2.188   1.262   0.316
 7068TIP3   OH221167   0.111   1.864   1.245
 7068TIP3    H121168   0.029   1.860   1.197
 7068TIP3    H221169   0.089   1.909   1.326
 7069TIP3   OH221170   3.516   4.854   5.846
 7069TIP3    H121171   3.610   4.848   5.833
 7069TIP3    H221172   3.478   4.839   5.759
 7070TIP3   OH221173   5.026   6.772   2.373
 7070TIP3    H121174   5.062   6.691   2.337
 7070TIP3    H221175   5.038   6.764   2.467
 7071TIP3   OH221176   6.815   3.186   3.209
 7071TIP3    H121177   6.873   3.182   3.133
 7071TIP3    H221178   6.743   3.127   3.187
 7072TIP3   OH221179   5.333   1.410   2.544
 7072TIP3    H121180   5.406   1.362   2.503
 7072TIP3    H221181   5.376   1.478   2.596
 7073TIP3   OH221182   0.040   1.135   1.856
 7073TIP3    H121183  -0.052   1.129   1.829
 7073TIP3    H221184   0.065   1.045   1.878
 7074TIP3   OH221185   2.692   1.564   5.139
 7074TIP3    H121186   2.669   1.534   5.227
 7074TIP3    H221187   2.687   1.659   5.143
 7075TIP3   OH221188   2.606   3.125   2.394
 7075TIP3    H121189   2.667   3.051   2.402
 7075TIP3    H221190   2.587   3.130   2.300
 7076TIP3   OH221191   1.678   1.104   5.559
 7076TIP3    H121192   1.651   1.059   5.640
 7076TIP3    H221193   1.709   1.190   5.588
 7077TIP3   OH221194   0.960   6.527   3.320
 7077TIP3    H121195   0.939   6.448   3.271
 7077TIP3    H221196   0.935   6.507   3.411
 7078TIP3   OH221197   6.809   6.719   2.214
 7078TIP3    H121198   6.725   6.702   2.256
 7078TIP3    H221199   6.873   6.671   2.266
 7079TIP3   OH221200   3.583   1.694   0.960
 7079TIP3    H121201   3.659   1.717   1.014
 7079TIP3    H221202   3.619   1.678   0.873
 7080TIP3   OH221203   0.581   3.340   1.999
 7080TIP3    H121204   0.655   3.379   2.045
 7080TIP3    H221205   0.554   3.407   1.935
 7081TIP3   OH221206   2.486   3.516   1.917
 7081TIP3    H121207   2.395   3.495   1.937
 7081TIP3    H221208   2.493   3.610   1.936
 7082TIP3   OH221209   4.922   1.582   0.092
 7082TIP3    H121210   5.016   1.564   0.093
 7082TIP3    H221211   4.908   1.633   0.012
 7083TIP3   OH221212   0.345   2.410   4.162
 7083TIP3    H121213   0.389   2.327   4.182
 7083TIP3    H221214   0.264   2.407   4.213
 7084TIP3   OH221215   5.322   3.166   1.669
 7084TIP3    H121216   5.389   3.177   1.736
 7084TIP3    H221217   5.268   3.244   1.675
 7085TIP3   OH221218   0.301   0.633   5.264
 7085TIP3    H121219   0.238   0.643   5.193
 7085TIP3    H221220   0.353   0.713   5.262
 7086TIP3   OH221221   5.597   5.413   4.554
 7086TIP3    H121222   5.634   5.444   4.637
 7086TIP3    H221223   5.653   5.451   4.487
 7087TIP3   OH221224   4.399   4.361   4.680
 7087TIP3    H121225   4.306   4.377   4.695
 7087TIP3    H221226   4.440   4.448   4.689
 7088TIP3   OH221227   6.437   0.507   1.849
 7088TIP3    H121228   6.479   0.585   1.887
 7088TIP3    H221229   6.510   0.454   1.817
 7089TIP3   OH221230   1.322   3.223   3.082
 7089TIP3    H121231   1.231   3.248   3.093
 7089TIP3    H221232   1.320   3.131   3.056
 7090TIP3   OH221233   1.589   5.812   5.420
 7090TIP3    H121234   1.683   5.829   5.427
 7090TIP3    H221235   1.548   5.897   5.438
 7091TIP3   OH221236   2.114   3.338   1.472
 7091TIP3    H121237   2.109   3.343   1.567
 7091TIP3    H221238   2.023   3.325   1.445
 7092TIP3   OH221239   6.898   6.505   3.324
 7092TIP3    H121240   6.959   6.579   3.319
 7092TIP3    H221241   6.951   6.433   3.358
 7093TIP3   OH221242   1.305   2.711   1.209
 7093TIP3    H121243   1.277   2.691   1.119
 7093TIP3    H221244   1.398   2.730   1.202
 7094TIP3   OH221245   1.753   5.273   4.784
 7094TIP3    H121246   1.685   5.339   4.769
 7094TIP3    H221247   1.802   5.271   4.701
 7095TIP3   OH221248   6.193   0.491   1.712
 7095TIP3    H121249   6.286   0.494   1.734
 7095TIP3    H221250   6.180   0.564   1.651
 7096TIP3   OH221251   2.577   4.105   0.914
 7096TIP3    H121252   2.582   4.076   1.005
 7096TIP3    H221253   2.619   4.034   0.864
 7097TIP3   OH221254   1.243   2.033   0.163
 7097TIP3    H121255   1.280   1.990   0.086
 7097TIP3    H221256   1.316   2.040   0.225
 7098TIP3   OH221257   1.598   3.853   0.431
 7098TIP3    H121258   1.524   3.860   0.370
 7098TIP3    H221259   1.567   3.893   0.512
 7099TIP3   OH221260   2.211   2.503   3.293
 7099TIP3    H121261   2.145   2.494   3.361
 7099TIP3    H221262   2.243   2.414   3.278
 7100TIP3   OH221263   1.570   3.363   2.614
 7100TIP3    H121264   1.572   3.283   2.562
 7100TIP3    H221265   1.480   3.395   2.606
 7101TIP3   OH221266   2.515   0.532   0.749
 7101TIP3    H121267   2.550   0.575   0.828
 7101TIP3    H221268   2.422   0.522   0.767
 7102TIP3   OH221269   2.654   1.679   0.960
 7102TIP3    H121270   2.650   1.754   1.019
 7102TIP3    H221271   2.618   1.606   1.011
 7103TIP3   OH221272   0.379   4.816   2.509
 7103TIP3    H121273   0.453   4.854   2.462
 7103TIP3    H221274   0.415   4.786   2.592
 7104TIP3   OH221275   0.987   5.526   2.403
 7104TIP3    H121276   0.930   5.498   2.331
 7104TIP3    H221277   0.970   5.464   2.474
 7105TIP3   OH221278   5.139   4.136   2.237
 7105TIP3    H121279   5.180   4.195   2.174
 7105TIP3    H221280   5.058   4.179   2.262
 7106TIP3   OH221281   3.908   4.818   5.532
 7106TIP3    H121282   3.862   4.774   5.461
 7106TIP3    H221283   3.887   4.911   5.521
 7107TIP3   OH221284   0.924   1.432   1.363
 7107TIP3    H121285   0.917   1.478   1.446
 7107TIP3    H221286   0.836   1.438   1.324
 7108TIP3   OH221287   1.689   1.380   2.173
 7108TIP3    H121288   1.609   1.416   2.133
 7108TIP3    H221289   1.759   1.412   2.117
 7109TIP3   OH221290   4.071   3.805   1.273
 7109TIP3    H121291   4.140   3.741   1.255
 7109TIP3    H221292   4.085   3.873   1.207
 7110TIP3   OH221293   4.863   3.651   0.126
 7110TIP3    H121294   4.894   3.571   0.168
 7110TIP3    H221295   4.889   3.641   0.034
 7111TIP3   OH221296   5.515   3.923   3.825
 7111TIP3    H121297   5.460   3.914   3.746
 7111TIP3    H221298   5.484   4.004   3.866
 7112TIP3   OH221299   0.374   5.534   2.906
 7112TIP3    H121300   0.397   5.570   2.992
 7112TIP3    H221301   0.379   5.608   2.847
 7113TIP3   OH221302   0.010   6.162   3.815
 7113TIP3    H121303   0.044   6.143   3.902
 7113TIP3    H221304  -0.039   6.083   3.790
 7114TIP3   OH221305   2.336   6.393   0.696
 7114TIP3    H121306   2.361   6.359   0.610
 7114TIP3    H221307   2.340   6.488   0.686
 7115TIP3   OH221308   5.735   6.277   3.026
 7115TIP3    H121309   5.743   6.182   3.019
 7115TIP3    H221310   5.694   6.291   3.112
 7116TIP3   OH221311   7.220   3.015   2.610
 7116TIP3    H121312   7.130   3.028   2.581
 7116TIP3    H221313   7.212   2.956   2.686
 7117TIP3   OH221314   2.004   4.189   2.188
 7117TIP3    H121315   2.076   4.150   2.138
 7117TIP3    H221316   2.010   4.148   2.274
 7118TIP3   OH221317   2.853   2.220   3.551
 7118TIP3    H121318   2.903   2.140   3.540
 7118TIP3    H221319   2.860   2.265   3.467
 7119TIP3   OH221320   4.167   4.064   4.121
 7119TIP3    H121321   4.129   4.002   4.183
 7119TIP3    H221322   4.224   4.010   4.066
 7120TIP3   OH221323   3.016   1.634   1.170
 7120TIP3    H121324   3.094   1.593   1.207
 7120TIP3    H221325   3.022   1.725   1.198
 7121TIP3   OH221326   4.691   4.138   4.695
 7121TIP3    H121327   4.723   4.223   4.664
 7121TIP3    H221328   4.678   4.150   4.788
 7122TIP3   OH221329   1.338   4.312   3.359
 7122TIP3    H121330   1.247   4.312   3.389
 7122TIP3    H221331   1.352   4.401   3.326
 7123TIP3   OH221332   4.914   4.420   2.091
 7123TIP3    H121333   4.830   4.454   2.121
 7123TIP3    H221334   4.911   4.327   2.113
 7124TIP3   OH221335   1.667   4.365   4.538
 7124TIP3    H121336   1.706   4.281   4.562
 7124TIP3    H221337   1.736   4.429   4.557
 7125TIP3   OH221338   5.708   3.065   5.592
 7125TIP3    H121339   5.716   2.994   5.655
 7125TIP3    H221340   5.669   3.025   5.515
 7126TIP3   OH221341   5.176   1.596   0.216
 7126TIP3    H121342   5.268   1.570   0.222
 7126TIP3    H221343   5.176   1.689   0.239
 7127TIP3   OH221344   3.504   1.947   2.258
 7127TIP3    H121345   3.530   1.897   2.181
 7127TIP3    H221346   3.581   1.944   2.315
 7128TIP3   OH221347   0.083   1.449   1.280
 7128TIP3    H121348   0.078   1.367   1.328
 7128TIP3    H221349   0.099   1.515   1.347
 7129TIP3   OH221350   3.228   2.763   1.807
 7129TIP3    H121351   3.262   2.847   1.838
 7129TIP3    H221352   3.142   2.755   1.846
 7130TIP3   OH221353   6.786   0.125   5.352
 7130TIP3    H121354   6.729   0.175   5.293
 7130TIP3    H221355   6.862   0.102   5.299
 7131TIP3   OH221356   5.471   1.774   1.669
 7131TIP3    H121357   5.447   1.841   1.733
 7131TIP3    H221358   5.388   1.748   1.629
 7132TIP3   OH221359   2.510   4.765   2.551
 7132TIP3    H121360   2.494   4.848   2.595
 7132TIP3    H221361   2.497   4.698   2.619
 7133TIP3   OH221362   3.238   1.932   4.840
 7133TIP3    H121363   3.244   1.977   4.756
 7133TIP3    H221364   3.172   1.863   4.825
 7134TIP3   OH221365   1.993   1.501   5.782
 7134TIP3    H121366   1.930   1.431   5.763
 7134TIP3    H221367   2.054   1.499   5.709
 7135TIP3   OH221368   1.673   1.548   4.830
 7135TIP3    H121369   1.742   1.598   4.872
 7135TIP3    H221370   1.593   1.597   4.847
 7136TIP3   OH221371   5.547   2.080   1.563
 7136TIP3    H121372   5.602   2.147   1.603
 7136TIP3    H221373   5.493   2.047   1.635
 7137TIP3   OH221374   5.795   0.340   2.501
 7137TIP3    H121375   5.880   0.378   2.522
 7137TIP3    H221376   5.740   0.415   2.481
 7138TIP3   OH221377   6.112   4.634   0.087
 7138TIP3    H121378   6.065   4.563   0.130
 7138TIP3    H221379   6.082   4.713   0.131
 7139TIP3   OH221380   4.984   1.609   0.880
 7139TIP3    H121381   5.022   1.681   0.828
 7139TIP3    H221382   4.911   1.650   0.927
 7140TIP3   OH221383   6.974   4.279   5.410
 7140TIP3    H121384   6.890   4.326   5.418
 7140TIP3    H221385   6.972   4.216   5.482
 7141TIP3   OH221386   3.602   4.290   2.710
 7141TIP3    H121387   3.658   4.308   2.785
 7141TIP3    H221388   3.513   4.292   2.745
 7142TIP3   OH221389   2.729   5.475   0.234
 7142TIP3    H121390   2.723   5.508   0.323
 7142TIP3    H221391   2.771   5.389   0.243
 7143TIP3   OH221392   3.950   5.887   1.125
 7143TIP3    H121393   3.919   5.960   1.073
 7143TIP3    H221394   3.908   5.898   1.210
 7144TIP3   OH221395   1.657   5.411   2.434
 7144TIP3    H121396   1.630   5.327   2.396
 7144TIP3    H221397   1.639   5.476   2.366
 7145TIP3   OH221398   1.142   4.477   2.382
 7145TIP3    H121399   1.114   4.521   2.302
 7145TIP3    H221400   1.110   4.387   2.372
 7146TIP3   OH221401   6.073   5.435   1.197
 7146TIP3    H121402   5.996   5.429   1.142
 7146TIP3    H221403   6.130   5.365   1.167
 7147TIP3   OH221404   5.431   2.785   1.367
 7147TIP3    H121405   5.393   2.842   1.300
 7147TIP3    H221406   5.492   2.729   1.319
 7148TIP3   OH221407   0.142   0.321   2.580
 7148TIP3    H121408   0.107   0.384   2.643
 7148TIP3    H221409   0.090   0.242   2.594
 7149TIP3   OH221410   6.359   4.489   5.265
 7149TIP3    H121411   6.310   4.442   5.197
 7149TIP3    H221412   6.324   4.578   5.262
 7150TIP3   OH221413   3.237   6.420   3.141
 7150TIP3    H121414   3.164   6.427   3.080
 7150TIP3    H221415   3.307   6.378   3.091
 7151TIP3   OH221416   4.946   6.275   1.060
 7151TIP3    H121417   4.949   6.283   1.155
 7151TIP3    H221418   5.037   6.259   1.034
 7152TIP3   OH221419   1.774   1.890   5.080
 7152TIP3    H121420   1.703   1.835   5.045
 7152TIP3    H221421   1.763   1.885   5.175
 7153TIP3   OH221422   4.041   3.854   3.798
 7153TIP3    H121423   3.983   3.800   3.851
 7153TIP3    H221424   4.015   3.944   3.816
 7154TIP3   OH221425   6.652   2.284   4.169
 7154TIP3    H121426   6.580   2.245   4.119
 7154TIP3    H221427   6.613   2.309   4.253
 7155TIP3   OH221428   4.160   3.391   5.072
 7155TIP3    H121429   4.155   3.296   5.076
 7155TIP3    H221430   4.159   3.411   4.979
 7156TIP3   OH221431   2.566   1.118   4.845
 7156TIP3    H121432   2.512   1.195   4.825
 7156TIP3    H221433   2.506   1.044   4.836
 7157TIP3   OH221434   4.626   5.630   2.676
 7157TIP3    H121435   4.702   5.627   2.619
 7157TIP3    H221436   4.558   5.673   2.624
 7158TIP3   OH221437   6.690   2.630   4.775
 7158TIP3    H121438   6.621   2.629   4.841
 7158TIP3    H221439   6.733   2.545   4.784
 7159TIP3   OH221440   6.693   6.381   0.145
 7159TIP3    H121441   6.742   6.457   0.114
 7159TIP3    H221442   6.696   6.319   0.073
 7160TIP3   OH221443   3.653   0.036   2.826
 7160TIP3    H121444   3.648   0.045   2.922
 7160TIP3    H221445   3.647   0.125   2.793
 7161TIP3   OH221446   3.897   6.756   4.075
 7161TIP3    H121447   3.919   6.849   4.064
 7161TIP3    H221448   3.826   6.741   4.013
 7162TIP3   OH221449   5.557   6.649   4.015
 7162TIP3    H121450   5.468   6.684   4.015
 7162TIP3    H221451   5.565   6.603   4.098
 7163TIP3   OH221452   2.647   1.421   2.225
 7163TIP3    H121453   2.609   1.452   2.143
 7163TIP3    H221454   2.589   1.351   2.254
 7164TIP3   OH221455   5.573   2.821   1.780
 7164TIP3    H121456   5.557   2.826   1.874
 7164TIP3    H221457   5.505   2.761   1.747
 7165TIP3   OH221458   1.102   3.031   2.686
 7165TIP3    H121459   1.131   3.121   2.677
 7165TIP3    H221460   1.180   2.978   2.665
 7166TIP3   OH221461   1.295   2.990   5.027
 7166TIP3    H121462   1.387   2.967   5.017
 7166TIP3    H221463   1.251   2.949   4.953
 7167TIP3   OH221464   2.422   6.528   5.059
 7167TIP3    H121465   2.499   6.586   5.062
 7167TIP3    H221466   2.397   6.517   5.151
 7168TIP3   OH221467   2.091   0.416   1.221
 7168TIP3    H121468   2.106   0.500   1.263
 7168TIP3    H221469   2.157   0.412   1.151
 7169TIP3   OH221470   1.200   1.371   0.347
 7169TIP3    H121471   1.187   1.456   0.305
 7169TIP3    H221472   1.231   1.392   0.435
 7170TIP3   OH221473   2.205   5.337   5.124
 7170TIP3    H121474   2.153   5.409   5.160
 7170TIP3    H221475   2.148   5.296   5.060
 7171TIP3   OH221476   7.087   5.517   5.468
 7171TIP3    H121477   7.052   5.524   5.379
 7171TIP3    H221478   7.149   5.445   5.464
 7172TIP3   OH221479   5.920   2.450   3.041
 7172TIP3    H121480   5.999   2.425   2.994
 7172TIP3    H221481   5.951   2.495   3.120
 7173TIP3   OH221482   6.201   0.093   4.782
 7173TIP3    H121483   6.260   0.043   4.726
 7173TIP3    H221484   6.260   0.143   4.839
 7174TIP3   OH221485   4.324   6.546   4.964
 7174TIP3    H121486   4.295   6.455   4.968
 7174TIP3    H221487   4.244   6.596   4.945
 7175TIP3   OH221488   3.262   5.872   4.633
 7175TIP3    H121489   3.185   5.816   4.620
 7175TIP3    H221490   3.250   5.906   4.722
 7176TIP3   OH221491   1.163   6.609   2.455
 7176TIP3    H121492   1.239   6.559   2.485
 7176TIP3    H221493   1.100   6.543   2.429
 7177TIP3   OH221494   6.614   3.470   3.112
 7177TIP3    H121495   6.560   3.548   3.101
 7177TIP3    H221496   6.605   3.448   3.205
 7178TIP3   OH221497   2.524   6.811   2.140
 7178TIP3    H121498   2.590   6.804   2.210
 7178TIP3    H221499   2.496   6.721   2.125
 7179TIP3   OH221500   3.418   6.630   4.845
 7179TIP3    H121501   3.418   6.580   4.927
 7179TIP3    H221502   3.479   6.702   4.861
 7180TIP3   OH221503   1.285   0.574   0.047
 7180TIP3    H121504   1.273   0.519   0.125
 7180TIP3    H221505   1.288   0.664   0.081
 7181TIP3   OH221506   1.227   0.157   3.228
 7181TIP3    H121507   1.283   0.079   3.231
 7181TIP3    H221508   1.283   0.224   3.189
 7182TIP3   OH221509   2.362   4.739   4.496
 7182TIP3    H121510   2.347   4.832   4.480
 7182TIP3    H221511   2.322   4.695   4.421
 7183TIP3   OH221512   4.378   5.629   0.052
 7183TIP3    H121513   4.409   5.710   0.092
 7183TIP3    H221514   4.301   5.655   0.002
 7184TIP3   OH221515   0.658   5.530   5.489
 7184TIP3    H121516   0.747   5.563   5.504
 7184TIP3    H221517   0.670   5.441   5.456
 7185TIP3   OH221518   4.531   2.767   3.498
 7185TIP3    H121519   4.586   2.820   3.556
 7185TIP3    H221520   4.557   2.793   3.410
 7186TIP3   OH221521   2.330   4.234   1.333
 7186TIP3    H121522   2.273   4.164   1.364
 7186TIP3    H221523   2.356   4.206   1.245
 7187TIP3   OH221524   4.436   1.181   2.643
 7187TIP3    H121525   4.423   1.275   2.632
 7187TIP3    H221526   4.479   1.154   2.561
 7188TIP3   OH221527   5.238   4.295   0.092
 7188TIP3    H121528   5.327   4.299   0.058
 7188TIP3    H221529   5.241   4.344   0.174
 7189TIP3   OH221530   3.984   6.082   3.096
 7189TIP3    H121531   4.013   6.110   3.183
 7189TIP3    H221532   3.933   6.157   3.063
 7190TIP3   OH221533   1.157   1.822   3.923
 7190TIP3    H121534   1.122   1.800   3.837
 7190TIP3    H221535   1.250   1.835   3.909
 7191TIP3   OH221536   4.152   3.434   4.660
 7191TIP3    H121537   4.235   3.481   4.670
 7191TIP3    H221538   4.168   3.373   4.588
 7192TIP3   OH221539   3.721   4.411   3.550
 7192TIP3    H121540   3.640   4.389   3.596
 7192TIP3    H221541   3.787   4.416   3.618
 7193TIP3   OH221542   5.633   0.705   2.089
 7193TIP3    H121543   5.623   0.610   2.087
 7193TIP3    H221544   5.564   0.735   2.148
 7194TIP3   OH221545   6.251   4.939   5.851
 7194TIP3    H121546   6.180   4.997   5.824
 7194TIP3    H221547   6.251   4.868   5.787
 7195TIP3   OH221548   6.314   1.751   2.858
 7195TIP3    H121549   6.296   1.669   2.903
 7195TIP3    H221550   6.284   1.736   2.768
 7196TIP3   OH221551   5.872   4.729   2.817
 7196TIP3    H121552   5.910   4.728   2.729
 7196TIP3    H221553   5.857   4.636   2.837
 7197TIP3   OH221554   0.063   5.583   3.988
 7197TIP3    H121555   0.125   5.591   3.915
 7197TIP3    H221556   0.070   5.667   4.034
 7198TIP3   OH221557   3.320   4.978   0.495
 7198TIP3    H121558   3.371   5.050   0.532
 7198TIP3    H221559   3.308   5.002   0.403
 7199TIP3   OH221560   6.518   1.395   3.650
 7199TIP3    H121561   6.442   1.352   3.690
 7199TIP3    H221562   6.583   1.325   3.641
 7200TIP3   OH221563   3.346   6.780   4.107
 7200TIP3    H121564   3.316   6.690   4.120
 7200TIP3    H221565   3.317   6.827   4.186
 7201TIP3   OH221566   5.772   5.067   4.670
 7201TIP3    H121567   5.778   4.979   4.633
 7201TIP3    H221568   5.682   5.095   4.650
 7202TIP3   OH221569   6.893   6.635   1.501
 7202TIP3    H121570   6.971   6.670   1.544
 7202TIP3    H221571   6.926   6.592   1.422
 7203TIP3   OH221572   2.485   6.545   3.528
 7203TIP3    H121573   2.485   6.540   3.433
 7203TIP3    H221574   2.427   6.619   3.549
 7204TIP3   OH221575   6.605   0.596   5.527
 7204TIP3    H121576   6.667   0.541   5.479
 7204TIP3    H221577   6.520   0.556   5.511
 7205TIP3   OH221578   6.852   5.805   0.732
 7205TIP3    H121579   6.861   5.897   0.758
 7205TIP3    H221580   6.890   5.756   0.805
 7206TIP3   OH221581   7.210   0.097   2.958
 7206TIP3    H121582   7.131   0.060   2.997
 7206TIP3    H221583   7.228   0.041   2.883
 7207TIP3   OH221584   5.343   2.498   1.870
 7207TIP3    H121585   5.350   2.532   1.959
 7207TIP3    H221586   5.339   2.577   1.815
 7208TIP3   OH221587   6.183   0.837   3.292
 7208TIP3    H121588   6.217   0.749   3.303
 7208TIP3    H221589   6.236   0.891   3.351
 7209TIP3   OH221590   3.031   4.448   3.944
 7209TIP3    H121591   3.018   4.532   3.989
 7209TIP3    H221592   2.949   4.401   3.957
 7210TIP3   OH221593   5.570   3.402   2.539
 7210TIP3    H121594   5.648   3.365   2.497
 7210TIP3    H221595   5.520   3.326   2.567
 7211TIP3   OH221596   5.441   2.134   3.587
 7211TIP3    H121597   5.447   2.047   3.628
 7211TIP3    H221598   5.379   2.182   3.642
 7212TIP3   OH221599   3.030   1.597   3.981
 7212TIP3    H121600   2.937   1.615   3.984
 7212TIP3    H221601   3.047   1.577   3.889
 7213TIP3   OH221602   1.468   3.045   3.328
 7213TIP3    H121603   1.458   3.103   3.252
 7213TIP3    H221604   1.534   2.982   3.300
 7214TIP3   OH221605   3.348   1.077   1.708
 7214TIP3    H121606   3.328   1.099   1.799
 7214TIP3    H221607   3.426   1.127   1.687
 7215TIP3   OH221608   1.772   4.435   2.679
 7215TIP3    H121609   1.791   4.527   2.699
 7215TIP3    H221610   1.686   4.420   2.718
 7216TIP3   OH221611   3.122   5.198   5.217
 7216TIP3    H121612   3.035   5.225   5.244
 7216TIP3    H221613   3.114   5.178   5.124
 7217TIP3   OH221614   3.237   1.420   1.712
 7217TIP3    H121615   3.260   1.366   1.788
 7217TIP3    H221616   3.222   1.507   1.749
 7218TIP3   OH221617   2.738   4.161   3.639
 7218TIP3    H121618   2.793   4.239   3.647
 7218TIP3    H221619   2.649   4.196   3.634
 7219TIP3   OH221620   4.786   4.314   1.710
 7219TIP3    H121621   4.759   4.267   1.789
 7219TIP3    H221622   4.875   4.343   1.729
 7220TIP3   OH221623   0.464   0.754   3.678
 7220TIP3    H121624   0.493   0.671   3.641
 7220TIP3    H221625   0.520   0.820   3.634
 7221TIP3   OH221626   0.862   4.936   0.486
 7221TIP3    H121627   0.929   4.983   0.535
 7221TIP3    H221628   0.894   4.846   0.482
 7222TIP3   OH221629   5.186   2.880   1.790
 7222TIP3    H121630   5.110   2.937   1.802
 7222TIP3    H221631   5.237   2.893   1.870
 7223TIP3   OH221632   5.992   0.003   4.970
 7223TIP3    H121633   6.039   0.035   4.892
 7223TIP3    H221634   6.056   0.014   5.041
 7224TIP3   OH221635   3.904   6.065   0.910
 7224TIP3    H121636   3.818   6.052   0.871
 7224TIP3    H221637   3.965   6.040   0.841
 7225TIP3   OH221638   2.089   2.408   3.779
 7225TIP3    H121639   2.134   2.491   3.766
 7225TIP3    H221640   2.149   2.342   3.744
 7226TIP3   OH221641   3.029   0.212   1.375
 7226TIP3    H121642   3.012   0.298   1.337
 7226TIP3    H221643   3.038   0.229   1.469
 7227TIP3   OH221644   3.387   4.031   0.936
 7227TIP3    H121645   3.468   4.082   0.940
 7227TIP3    H221646   3.353   4.034   1.025
 7228TIP3   OH221647   1.083   3.488   2.809
 7228TIP3    H121648   1.035   3.421   2.858
 7228TIP3    H221649   1.034   3.497   2.727
 7229TIP3   OH221650   2.561   1.839   0.768
 7229TIP3    H121651   2.595   1.774   0.829
 7229TIP3    H221652   2.615   1.916   0.781
 7230TIP3   OH221653   4.955   2.191   3.762
 7230TIP3    H121654   4.925   2.173   3.851
 7230TIP3    H221655   4.880   2.233   3.720
 7231TIP3   OH221656   6.333   1.987   2.264
 7231TIP3    H121657   6.306   1.920   2.201
 7231TIP3    H221658   6.261   2.051   2.264
 7232TIP3   OH221659   3.701   3.462   3.486
 7232TIP3    H121660   3.645   3.530   3.524
 7232TIP3    H221661   3.767   3.446   3.554
 7233TIP3   OH221662   5.051   1.267   5.641
 7233TIP3    H121663   5.146   1.268   5.648
 7233TIP3    H221664   5.024   1.186   5.684
 7234TIP3   OH221665   1.269   5.287   4.908
 7234TIP3    H121666   1.345   5.268   4.964
 7234TIP3    H221667   1.304   5.288   4.819
 7235TIP3   OH221668   4.460   3.493   3.233
 7235TIP3    H121669   4.519   3.562   3.204
 7235TIP3    H221670   4.446   3.511   3.326
 7236TIP3   OH221671   1.899   5.219   5.143
 7236TIP3    H121672   1.819   5.246   5.188
 7236TIP3    H221673   1.869   5.161   5.073
 7237TIP3   OH221674   0.171   6.094   0.479
 7237TIP3    H121675   0.235   6.045   0.532
 7237TIP3    H221676   0.181   6.185   0.508
 7238TIP3   OH221677   2.375   6.591   1.292
 7238TIP3    H121678   2.307   6.572   1.227
 7238TIP3    H221679   2.425   6.664   1.254
 7239TIP3   OH221680   6.674   5.754   0.063
 7239TIP3    H121681   6.706   5.699   0.135
 7239TIP3    H221682   6.579   5.754   0.074
 7240TIP3   OH221683   5.465   3.599   5.624
 7240TIP3    H121684   5.435   3.539   5.555
 7240TIP3    H221685   5.388   3.653   5.644
 7241TIP3   OH221686   6.039   5.813   4.574
 7241TIP3    H121687   5.958   5.853   4.606
 7241TIP3    H221688   6.097   5.813   4.650
 7242TIP3   OH221689   0.574   6.160   0.833
 7242TIP3    H121690   0.606   6.213   0.761
 7242TIP3    H221691   0.637   6.174   0.904
 7243TIP3   OH221692   6.370   3.201   5.597
 7243TIP3    H121693   6.296   3.223   5.540
 7243TIP3    H221694   6.343   3.230   5.684
 7244TIP3   OH221695   3.579   5.378   1.899
 7244TIP3    H121696   3.638   5.435   1.850
 7244TIP3    H221697   3.599   5.394   1.991
 7245TIP3   OH221698   6.101   2.511   4.564
 7245TIP3    H121699   6.044   2.522   4.488
 7245TIP3    H221700   6.088   2.420   4.592
 7246TIP3   OH221701   1.531   0.609   0.265
 7246TIP3    H121702   1.554   0.616   0.173
 7246TIP3    H221703   1.457   0.548   0.267
 7247TIP3   OH221704   1.266   0.350   2.393
 7247TIP3    H121705   1.185   0.360   2.444
 7247TIP3    H221706   1.334   0.384   2.451
 7248TIP3   OH221707   0.813   6.148   5.721
 7248TIP3    H121708   0.851   6.122   5.638
 7248TIP3    H221709   0.770   6.068   5.753
 7249TIP3   OH221710   5.991   3.598   4.992
 7249TIP3    H121711   5.957   3.653   4.921
 7249TIP3    H221712   5.963   3.642   5.072
 7250TIP3   OH221713   2.689   6.785   0.804
 7250TIP3    H121714   2.708   6.878   0.791
 7250TIP3    H221715   2.752   6.739   0.748
 7251TIP3   OH221716   1.488   3.970   0.651
 7251TIP3    H121717   1.529   4.053   0.676
 7251TIP3    H221718   1.464   3.929   0.734
 7252TIP3   OH221719   3.543   5.581   0.881
 7252TIP3    H121720   3.505   5.583   0.969
 7252TIP3    H221721   3.475   5.541   0.827
 7253TIP3   OH221722   0.953   1.575   4.292
 7253TIP3    H121723   0.932   1.583   4.385
 7253TIP3    H221724   0.914   1.492   4.265
 7254TIP3   OH221725   2.950   3.539   2.087
 7254TIP3    H121726   3.019   3.545   2.153
 7254TIP3    H221727   2.869   3.528   2.138
 7255TIP3   OH221728   6.395   3.248   0.197
 7255TIP3    H121729   6.345   3.328   0.182
 7255TIP3    H221730   6.411   3.247   0.291
 7256TIP3   OH221731   2.693   0.382   0.956
 7256TIP3    H121732   2.680   0.474   0.975
 7256TIP3    H221733   2.711   0.342   1.041
 7257TIP3   OH221734   4.639   4.293   1.475
 7257TIP3    H121735   4.594   4.211   1.497
 7257TIP3    H221736   4.688   4.315   1.554
 7258TIP3   OH221737   3.771   0.607   1.775
 7258TIP3    H121738   3.778   0.633   1.684
 7258TIP3    H221739   3.742   0.685   1.821
 7259TIP3   OH221740   0.363   5.833   0.061
 7259TIP3    H121741   0.314   5.912   0.038
 7259TIP3    H221742   0.328   5.808   0.147
 7260TIP3   OH221743   1.354   2.837   4.315
 7260TIP3    H121744   1.373   2.777   4.242
 7260TIP3    H221745   1.413   2.910   4.301
 7261TIP3   OH221746   2.747   3.030   2.054
 7261TIP3    H121747   2.825   3.001   2.102
 7261TIP3    H221748   2.725   3.115   2.093
 7262TIP3   OH221749   1.104   4.771   4.199
 7262TIP3    H121750   1.136   4.705   4.260
 7262TIP3    H221751   1.183   4.815   4.168
 7263TIP3   OH221752   2.168   5.126   3.963
 7263TIP3    H121753   2.212   5.149   4.045
 7263TIP3    H221754   2.237   5.125   3.898
 7264TIP3   OH221755   1.244   3.462   1.455
 7264TIP3    H121756   1.166   3.467   1.400
 7264TIP3    H221757   1.274   3.372   1.445
 7265TIP3   OH221758   5.290   2.018   2.501
 7265TIP3    H121759   5.358   1.990   2.439
 7265TIP3    H221760   5.314   1.974   2.583
 7266TIP3   OH221761   2.213   0.284   0.194
 7266TIP3    H121762   2.240   0.261   0.283
 7266TIP3    H221763   2.121   0.260   0.189
 7267TIP3   OH221764   6.659   1.050   5.807
 7267TIP3    H121765   6.713   1.117   5.849
 7267TIP3    H221766   6.689   1.048   5.716
 7268TIP3   OH221767   0.998   6.754   3.697
 7268TIP3    H121768   0.909   6.788   3.699
 7268TIP3    H221769   1.036   6.782   3.780
 7269TIP3   OH221770   5.193   2.261   5.002
 7269TIP3    H121771   5.202   2.180   5.052
 7269TIP3    H221772   5.114   2.248   4.949
 7270TIP3   OH221773   2.730   3.912   2.455
 7270TIP3    H121774   2.723   4.005   2.478
 7270TIP3    H221775   2.651   3.895   2.403
 7271TIP3   OH221776   2.541   1.028   0.855
 7271TIP3    H121777   2.571   0.981   0.777
 7271TIP3    H221778   2.622   1.056   0.898
 7272TIP3   OH221779   4.175   3.694   4.863
 7272TIP3    H121780   4.234   3.622   4.842
 7272TIP3    H221781   4.197   3.762   4.799
 7273TIP3   OH221782   4.017   3.007   3.160
 7273TIP3    H121783   3.948   2.989   3.223
 7273TIP3    H221784   3.990   2.962   3.080
 7274TIP3   OH221785   6.549   2.532   1.352
 7274TIP3    H121786   6.471   2.481   1.331
 7274TIP3    H221787   6.561   2.520   1.447
 7275TIP3   OH221788   1.022   6.171   2.205
 7275TIP3    H121789   0.987   6.156   2.292
 7275TIP3    H221790   0.996   6.095   2.154
 7276TIP3   OH221791   1.454   6.103   5.175
 7276TIP3    H121792   1.452   6.074   5.084
 7276TIP3    H221793   1.449   6.022   5.226
 7277TIP3   OH221794   0.466   6.769   3.266
 7277TIP3    H121795   0.386   6.721   3.244
 7277TIP3    H221796   0.435   6.850   3.305
 7278TIP3   OH221797   0.502   4.824   5.821
 7278TIP3    H121798   0.553   4.815   5.902
 7278TIP3    H221799   0.495   4.919   5.808
 7279TIP3   OH221800   4.516   0.750   3.023
 7279TIP3    H121801   4.579   0.708   2.964
 7279TIP3    H221802   4.570   0.799   3.086
 7280TIP3   OH221803   6.980   1.966   1.772
 7280TIP3    H121804   6.964   2.031   1.703
 7280TIP3    H221805   7.039   2.010   1.833
 7281TIP3   OH221806   0.899   0.781   2.133
 7281TIP3    H121807   0.850   0.842   2.078
 7281TIP3    H221808   0.856   0.696   2.119
 7282TIP3   OH221809   4.098   4.131   4.601
 7282TIP3    H121810   4.134   4.173   4.678
 7282TIP3    H221811   4.166   4.141   4.534
 7283TIP3   OH221812   3.539   4.633   0.468
 7283TIP3    H121813   3.529   4.538   0.461
 7283TIP3    H221814   3.543   4.650   0.562
 7284TIP3   OH221815   3.784   3.297   4.480
 7284TIP3    H121816   3.851   3.316   4.414
 7284TIP3    H221817   3.756   3.208   4.462
 7285TIP3   OH221818   2.104   5.126   5.315
 7285TIP3    H121819   2.044   5.153   5.245
 7285TIP3    H221820   2.176   5.190   5.310
 7286TIP3   OH221821   3.231   3.521   4.357
 7286TIP3    H121822   3.171   3.529   4.431
 7286TIP3    H221823   3.310   3.567   4.385
 7287TIP3   OH221824   2.458   3.038   0.329
 7287TIP3    H121825   2.482   3.007   0.242
 7287TIP3    H221826   2.367   3.010   0.340
 7288TIP3   OH221827   3.811   5.981   1.885
 7288TIP3    H121828   3.817   5.894   1.923
 7288TIP3    H221829   3.766   5.969   1.802
 7289TIP3   OH221830   5.074   3.069   3.219
 7289TIP3    H121831   5.126   3.092   3.142
 7289TIP3    H221832   4.996   3.027   3.184
 7290TIP3   OH221833   7.211   4.206   0.667
 7290TIP3    H121834   7.137   4.159   0.630
 7290TIP3    H221835   7.198   4.297   0.640
 7291TIP3   OH221836   1.202   3.579   1.699
 7291TIP3    H121837   1.116   3.537   1.711
 7291TIP3    H221838   1.228   3.556   1.611
 7292TIP3   OH221839   3.013   6.685   2.735
 7292TIP3    H121840   3.024   6.590   2.726
 7292TIP3    H221841   2.941   6.706   2.675
 7293TIP3   OH221842   3.144   2.568   2.448
 7293TIP3    H121843   3.057   2.554   2.410
 7293TIP3    H221844   3.194   2.490   2.425
 7294TIP3   OH221845   1.438   4.572   3.958
 7294TIP3    H121846   1.374   4.643   3.965
 7294TIP3    H221847   1.479   4.569   4.045
 7295TIP3   OH221848   4.408   5.274   1.874
 7295TIP3    H121849   4.377   5.348   1.927
 7295TIP3    H221850   4.396   5.303   1.784
 7296TIP3   OH221851   1.733   3.049   0.825
 7296TIP3    H121852   1.672   3.118   0.851
 7296TIP3    H221853   1.727   3.046   0.730
 7297TIP3   OH221854   5.967   1.689   2.056
 7297TIP3    H121855   5.934   1.771   2.094
 7297TIP3    H221856   5.984   1.633   2.131
 7298TIP3   OH221857   3.478   2.367   2.980
 7298TIP3    H121858   3.523   2.403   2.904
 7298TIP3    H221859   3.407   2.428   2.997
 7299TIP3   OH221860   0.125   4.972   4.575
 7299TIP3    H121861   0.116   5.033   4.648
 7299TIP3    H221862   0.159   5.026   4.503
 7300TIP3   OH221863   0.313   2.074   3.983
 7300TIP3    H121864   0.246   2.058   3.916
 7300TIP3    H221865   0.273   2.043   4.064
 7301TIP3   OH221866   1.747   2.580   0.693
 7301TIP3    H121867   1.752   2.605   0.600
 7301TIP3    H221868   1.836   2.594   0.726
 7302TIP3   OH221869   0.407   2.559   4.432
 7302TIP3    H121870   0.423   2.467   4.452
 7302TIP3    H221871   0.359   2.559   4.350
 7303TIP3   OH221872   2.953   0.336   0.238
 7303TIP3    H121873   2.964   0.245   0.211
 7303TIP3    H221874   3.021   0.384   0.191
 7304TIP3   OH221875   7.219   2.705   0.277
 7304TIP3    H121876   7.128   2.675   0.272
 7304TIP3    H221877   7.239   2.733   0.188
 7305TIP3   OH221878   0.360   5.408   3.351
 7305TIP3    H121879   0.420   5.342   3.318
 7305TIP3    H221880   0.273   5.375   3.330
 7306TIP3   OH221881   3.193   1.286   0.304
 7306TIP3    H121882   3.114   1.339   0.299
 7306TIP3    H221883   3.263   1.349   0.323
 7307TIP3   OH221884   1.063   6.346   3.896
 7307TIP3    H121885   1.045   6.306   3.811
 7307TIP3    H221886   1.057   6.440   3.880
 7308TIP3   OH221887   1.795   1.363   4.133
 7308TIP3    H121888   1.812   1.447   4.177
 7308TIP3    H221889   1.854   1.301   4.175
 7309TIP3   OH221890   4.104   4.828   4.967
 7309TIP3    H121891   4.022   4.871   4.943
 7309TIP3    H221892   4.164   4.900   4.987
 7310TIP3   OH221893   4.292   6.591   2.438
 7310TIP3    H121894   4.342   6.621   2.363
 7310TIP3    H221895   4.326   6.503   2.455
 7311TIP3   OH221896   1.166   1.703   0.560
 7311TIP3    H121897   1.075   1.675   0.568
 7311TIP3    H221898   1.181   1.713   0.466
 7312TIP3   OH221899   2.284   3.788   2.998
 7312TIP3    H121900   2.362   3.787   3.053
 7312TIP3    H221901   2.245   3.702   3.011
 7313TIP3   OH221902   0.163   5.275   3.573
 7313TIP3    H121903   0.150   5.250   3.482
 7313TIP3    H221904   0.192   5.194   3.616
 7314TIP3   OH221905   1.787   2.103   0.835
 7314TIP3    H121906   1.745   2.189   0.833
 7314TIP3    H221907   1.843   2.102   0.757
 7315TIP3   OH221908   1.700   2.501   3.991
 7315TIP3    H121909   1.647   2.457   3.924
 7315TIP3    H221910   1.705   2.592   3.961
 7316TIP3   OH221911   3.580   1.279   5.039
 7316TIP3    H121912   3.599   1.207   5.099
 7316TIP3    H221913   3.490   1.263   5.011
 7317TIP3   OH221914   1.060   6.811   5.839
 7317TIP3    H121915   1.004   6.875   5.884
 7317TIP3    H221916   1.034   6.726   5.877
 7318TIP3   OH221917   4.671   2.372   0.620
 7318TIP3    H121918   4.625   2.317   0.685
 7318TIP3    H221919   4.616   2.367   0.542
 7319TIP3   OH221920   0.863   5.863   5.194
 7319TIP3    H121921   0.858   5.863   5.098
 7319TIP3    H221922   0.775   5.888   5.222
 7320TIP3   OH221923   5.448   4.080   2.179
 7320TIP3    H121924   5.407   4.000   2.212
 7320TIP3    H221925   5.400   4.100   2.099
 7321TIP3   OH221926   4.026   4.618   3.278
 7321TIP3    H121927   3.936   4.587   3.286
 7321TIP3    H221928   4.052   4.592   3.189
 7322TIP3   OH221929   1.125   4.449   5.346
 7322TIP3    H121930   1.047   4.493   5.378
 7322TIP3    H221931   1.196   4.479   5.403
 7323TIP3   OH221932   0.086   0.881   2.027
 7323TIP3    H121933   0.155   0.866   2.093
 7323TIP3    H221934   0.029   0.805   2.035
 7324TIP3   OH221935   6.105   6.002   3.347
 7324TIP3    H121936   6.143   5.916   3.328
 7324TIP3    H221937   6.010   5.985   3.350
 7325TIP3   OH221938   4.593   6.562   4.252
 7325TIP3    H121939   4.506   6.529   4.228
 7325TIP3    H221940   4.588   6.574   4.347
 7326TIP3   OH221941   3.967   5.535   5.116
 7326TIP3    H121942   3.917   5.468   5.163
 7326TIP3    H221943   3.926   5.540   5.030
 7327TIP3   OH221944   0.655   3.956   5.061
 7327TIP3    H121945   0.730   3.943   5.118
 7327TIP3    H221946   0.588   3.897   5.096
 7328TIP3   OH221947   3.366   2.662   0.485
 7328TIP3    H121948   3.442   2.699   0.440
 7328TIP3    H221949   3.292   2.684   0.429
 7329TIP3   OH221950   1.929   2.484   1.676
 7329TIP3    H121951   1.990   2.447   1.612
 7329TIP3    H221952   1.843   2.453   1.647
 7330TIP3   OH221953   0.886   0.645   3.356
 7330TIP3    H121954   0.935   0.563   3.363
 7330TIP3    H221955   0.887   0.680   3.445
 7331TIP3   OH221956   1.474   5.564   2.589
 7331TIP3    H121957   1.532   5.508   2.538
 7331TIP3    H221958   1.387   5.525   2.578
 7332TIP3   OH221959   6.438   6.769   0.201
 7332TIP3    H121960   6.531   6.786   0.216
 7332TIP3    H221961   6.395   6.853   0.219
 7333TIP3   OH221962   1.487   2.317   1.394
 7333TIP3    H121963   1.487   2.412   1.386
 7333TIP3    H221964   1.402   2.295   1.431
 7334TIP3   OH221965   4.488   1.998   1.065
 7334TIP3    H121966   4.474   1.910   1.030
 7334TIP3    H221967   4.419   2.009   1.131
 7335TIP3   OH221968   0.041   4.234   4.964
 7335TIP3    H121969   0.001   4.230   5.051
 7335TIP3    H221970  -0.010   4.173   4.912
 7336TIP3   OH221971   2.621   6.294   2.249
 7336TIP3    H121972   2.642   6.206   2.217
 7336TIP3    H221973   2.706   6.332   2.271
 7337TIP3   OH221974   5.278   6.787   3.532
 7337TIP3    H121975   5.190   6.815   3.507
 7337TIP3    H221976   5.321   6.767   3.449
 7338TIP3   OH221977   0.159   6.605   2.794
 7338TIP3    H121978   0.100   6.541   2.754
 7338TIP3    H221979   0.228   6.618   2.728
 7339TIP3   OH221980   5.433   3.971   5.769
 7339TIP3    H121981   5.489   3.921   5.828
 7339TIP3    H221982   5.479   4.054   5.757
 7340TIP3   OH221983   6.396   0.657   0.080
 7340TIP3    H121984   6.394   0.581   0.023
 7340TIP3    H221985   6.323   0.711   0.051
 7341TIP3   OH221986   5.810   2.986   2.117
 7341TIP3    H121987   5.829   2.928   2.043
 7341TIP3    H221988   5.813   2.930   2.194
 7342TIP3   OH221989   6.176   6.497   1.530
 7342TIP3    H121990   6.126   6.514   1.610
 7342TIP3    H221991   6.110   6.472   1.465
 7343TIP3   OH221992   0.909   2.236   0.561
 7343TIP3    H121993   0.875   2.225   0.650
 7343TIP3    H221994   0.912   2.147   0.525
 7344TIP3   OH221995   6.410   6.465   1.942
 7344TIP3    H121996   6.396   6.439   2.033
 7344TIP3    H221997   6.351   6.409   1.891
 7345TIP3   OH221998   2.114   5.839   3.012
 7345TIP3    H121999   2.111   5.932   3.033
 7345TIP3    H222000   2.035   5.823   2.960
 7346TIP3   OH222001   1.211   2.185   1.238
 7346TIP3    H122002   1.185   2.095   1.220
 7346TIP3    H222003   1.272   2.178   1.312
 7347TIP3   OH222004   0.029   3.189   1.074
 7347TIP3    H122005  -0.001   3.174   1.164
 7347TIP3    H222006  -0.019   3.125   1.022
 7348TIP3   OH222007   2.338   5.075   3.744
 7348TIP3    H122008   2.378   5.122   3.671
 7348TIP3    H222009   2.288   5.004   3.704
 7349TIP3   OH222010   2.208   2.219   3.299
 7349TIP3    H122011   2.223   2.203   3.392
 7349TIP3    H222012   2.113   2.230   3.291
 7350TIP3   OH222013   2.930   2.604   0.881
 7350TIP3    H122014   2.904   2.588   0.790
 7350TIP3    H222015   2.935   2.699   0.888
 7351TIP3   OH222016   1.562   0.365   4.388
 7351TIP3    H122017   1.529   0.452   4.411
 7351TIP3    H222018   1.655   0.369   4.408
 7352TIP3   OH222019   1.971   4.274   1.632
 7352TIP3    H122020   2.001   4.276   1.541
 7352TIP3    H222021   1.945   4.365   1.650
 7353TIP3   OH222022   4.736   4.448   4.773
 7353TIP3    H122023   4.647   4.481   4.783
 7353TIP3    H222024   4.789   4.505   4.829
 7354TIP3   OH222025   6.075   0.427   2.822
 7354TIP3    H122026   6.126   0.497   2.864
 7354TIP3    H222027   6.098   0.434   2.729
 7355TIP3   OH222028   0.635   5.434   5.816
 7355TIP3    H122029   0.610   5.419   5.908
 7355TIP3    H222030   0.641   5.529   5.808
 7356TIP3   OH222031   1.121   3.113   5.556
 7356TIP3    H122032   1.085   3.185   5.608
 7356TIP3    H222033   1.216   3.128   5.558
 7357TIP3   OH222034   4.643   1.766   4.983
 7357TIP3    H122035   4.637   1.824   4.908
 7357TIP3    H222036   4.723   1.715   4.967
 7358TIP3   OH222037   2.297   1.307   1.558
 7358TIP3    H122038   2.259   1.338   1.476
 7358TIP3    H222039   2.377   1.262   1.531
 7359TIP3   OH222040   3.182   6.636   3.317
 7359TIP3    H122041   3.163   6.592   3.399
 7359TIP3    H222042   3.207   6.566   3.257
 7360TIP3   OH222043   0.895   0.108   0.747
 7360TIP3    H122044   0.920   0.199   0.761
 7360TIP3    H222045   0.858   0.080   0.831
 7361TIP3   OH222046   6.239   3.019   0.481
 7361TIP3    H122047   6.179   3.075   0.531
 7361TIP3    H222048   6.181   2.964   0.427
 7362TIP3   OH222049   2.246   1.426   0.709
 7362TIP3    H122050   2.249   1.405   0.803
 7362TIP3    H222051   2.192   1.505   0.705
 7363TIP3   OH222052   3.288   5.237   5.448
 7363TIP3    H122053   3.212   5.245   5.390
 7363TIP3    H222054   3.347   5.178   5.402
 7364TIP3   OH222055   4.650   3.064   1.665
 7364TIP3    H122056   4.566   3.018   1.678
 7364TIP3    H222057   4.672   3.047   1.574
 7365TIP3   OH222058   2.744   4.124   4.895
 7365TIP3    H122059   2.786   4.115   4.981
 7365TIP3    H222060   2.671   4.062   4.897
 7366TIP3   OH222061   0.345   4.118   0.159
 7366TIP3    H122062   0.291   4.047   0.122
 7366TIP3    H222063   0.344   4.102   0.254
 7367TIP3   OH222064   1.226   1.136   2.083
 7367TIP3    H122065   1.171   1.076   2.134
 7367TIP3    H222066   1.226   1.217   2.133
 7368TIP3   OH222067   4.215   5.441   0.222
 7368TIP3    H122068   4.242   5.532   0.210
 7368TIP3    H222069   4.168   5.419   0.142
 7369TIP3   OH222070   2.237   0.102   1.271
 7369TIP3    H122071   2.179   0.159   1.321
 7369TIP3    H222072   2.180   0.035   1.234
 7370TIP3   OH222073   1.155   4.168   2.016
 7370TIP3    H122074   1.125   4.233   1.952
 7370TIP3    H222075   1.098   4.092   2.002
 7371TIP3   OH222076   5.930   4.805   1.069
 7371TIP3    H122077   5.862   4.819   1.004
 7371TIP3    H222078   5.951   4.893   1.102
 7372TIP3   OH222079   0.334   5.828   5.027
 7372TIP3    H122080   0.310   5.823   5.120
 7372TIP3    H222081   0.271   5.890   4.990
 7373TIP3   OH222082   4.279   4.768   2.741
 7373TIP3    H122083   4.289   4.675   2.722
 7373TIP3    H222084   4.233   4.770   2.825
 7374TIP3   OH222085   2.504   0.162   0.539
 7374TIP3    H122086   2.569   0.229   0.520
 7374TIP3    H222087   2.454   0.197   0.613
 7375TIP3   OH222088   6.480   2.896   0.492
 7375TIP3    H122089   6.393   2.936   0.485
 7375TIP3    H222090   6.540   2.970   0.489
 7376TIP3   OH222091   4.335   5.422   4.305
 7376TIP3    H122092   4.354   5.400   4.213
 7376TIP3    H222093   4.418   5.412   4.350
 7377TIP3   OH222094   0.837   1.843   0.718
 7377TIP3    H122095   0.862   1.827   0.809
 7377TIP3    H222096   0.741   1.836   0.718
 7378TIP3   OH222097   4.232   4.675   0.021
 7378TIP3    H122098   4.175   4.722   0.082
 7378TIP3    H222099   4.253   4.594   0.065
 7379TIP3   OH222100   1.592   3.041   1.405
 7379TIP3    H122101   1.580   2.962   1.458
 7379TIP3    H222102   1.531   3.031   1.332
 7380TIP3   OH222103   3.145   0.105   4.831
 7380TIP3    H122104   3.135   0.105   4.735
 7380TIP3    H222105   3.096   0.182   4.860
 7381TIP3   OH222106   2.993   5.357   3.285
 7381TIP3    H122107   2.961   5.288   3.227
 7381TIP3    H222108   3.070   5.392   3.241
 7382TIP3   OH222109   6.785   4.375   5.791
 7382TIP3    H122110   6.823   4.351   5.707
 7382TIP3    H222111   6.693   4.394   5.771
 7383TIP3   OH222112   6.421   2.022   0.091
 7383TIP3    H122113   6.464   1.941   0.064
 7383TIP3    H222114   6.489   2.089   0.084
 7384TIP3   OH222115   7.202   5.054   1.576
 7384TIP3    H122116   7.110   5.030   1.561
 7384TIP3    H222117   7.230   4.995   1.646
 7385TIP3   OH222118   2.691   3.730   0.289
 7385TIP3    H122119   2.784   3.754   0.298
 7385TIP3    H222120   2.647   3.781   0.357
 7386TIP3   OH222121   3.579   3.332   4.683
 7386TIP3    H122122   3.644   3.314   4.615
 7386TIP3    H222123   3.548   3.421   4.664
 7387TIP3   OH222124   3.775   5.300   0.565
 7387TIP3    H122125   3.785   5.255   0.481
 7387TIP3    H222126   3.812   5.387   0.550
 7388TIP3   OH222127   5.560   0.165   2.285
 7388TIP3    H122128   5.578   0.094   2.225
 7388TIP3    H222129   5.631   0.161   2.350
 7389TIP3   OH222130   2.840   3.988   1.071
 7389TIP3    H122131   2.836   4.081   1.096
 7389TIP3    H222132   2.921   3.980   1.022
 7390TIP3   OH222133   2.288   1.043   3.034
 7390TIP3    H122134   2.327   1.105   3.095
 7390TIP3    H222135   2.271   0.965   3.086
 7391TIP3   OH222136   5.241   4.720   2.284
 7391TIP3    H122137   5.147   4.736   2.281
 7391TIP3    H222138   5.262   4.720   2.377
 7392TIP3   OH222139   0.989   0.376   0.251
 7392TIP3    H122140   1.007   0.390   0.344
 7392TIP3    H222141   0.980   0.281   0.242
 7393TIP3   OH222142   3.145   1.678   4.785
 7393TIP3    H122143   3.085   1.623   4.837
 7393TIP3    H222144   3.229   1.634   4.792
 7394TIP3   OH222145   6.643   6.664   1.593
 7394TIP3    H122146   6.734   6.656   1.567
 7394TIP3    H222147   6.595   6.612   1.529
 7395TIP3   OH222148   1.660   3.865   2.575
 7395TIP3    H122149   1.620   3.795   2.626
 7395TIP3    H222150   1.589   3.900   2.522
 7396TIP3   OH222151   2.986   5.434   4.767
 7396TIP3    H122152   2.947   5.507   4.815
 7396TIP3    H222153   2.915   5.399   4.714
 7397TIP3   OH222154   0.212   2.677   3.998
 7397TIP3    H122155   0.141   2.733   4.028
 7397TIP3    H222156   0.253   2.645   4.079
 7398TIP3   OH222157   1.673   4.590   1.987
 7398TIP3    H122158   1.653   4.682   2.005
 7398TIP3    H222159   1.768   4.585   1.989
 7399TIP3   OH222160   0.783   3.830   3.039
 7399TIP3    H122161   0.798   3.765   3.108
 7399TIP3    H222162   0.705   3.878   3.068
 7400TIP3   OH222163   0.455   3.090   1.015
 7400TIP3    H122164   0.422   3.175   1.046
 7400TIP3    H222165   0.535   3.112   0.968
 7401TIP3   OH222166   3.140   6.033   3.309
 7401TIP3    H122167   3.050   6.015   3.335
 7401TIP3    H222168   3.188   5.952   3.327
 7402TIP3   OH222169   3.139   0.275   5.780
 7402TIP3    H122170   3.100   0.194   5.746
 7402TIP3    H222171   3.087   0.295   5.858
 7403TIP3   OH222172   0.859   6.473   0.701
 7403TIP3    H122173   0.883   6.504   0.613
 7403TIP3    H222174   0.784   6.416   0.686
 7404TIP3   OH222175   5.826   6.031   3.331
 7404TIP3    H122176   5.855   6.035   3.240
 7404TIP3    H222177   5.735   6.061   3.328
 7405TIP3   OH222178   1.442   6.597   2.135
 7405TIP3    H122179   1.480   6.514   2.106
 7405TIP3    H222180   1.449   6.594   2.231
 7406TIP3   OH222181   2.982   2.668   2.766
 7406TIP3    H122182   3.066   2.647   2.726
 7406TIP3    H222183   2.924   2.598   2.737
 7407TIP3   OH222184   6.584   3.769   5.129
 7407TIP3    H122185   6.509   3.823   5.106
 7407TIP3    H222186   6.546   3.688   5.164
 7408TIP3   OH222187   5.760   2.495   5.879
 7408TIP3    H122188   5.838   2.549   5.871
 7408TIP3    H222189   5.706   2.520   5.804
 7409TIP3   OH222190   1.217   3.509   5.770
 7409TIP3    H122191   1.266   3.479   5.846
 7409TIP3    H222192   1.283   3.550   5.714
 7410TIP3   OH222193   1.048   5.171   5.157
 7410TIP3    H122194   0.991   5.237   5.115
 7410TIP3    H222195   1.020   5.088   5.119
 7411TIP3   OH222196   3.623   2.717   4.934
 7411TIP3    H122197   3.534   2.715   4.968
 7411TIP3    H222198   3.679   2.702   5.011
 7412TIP3   OH222199   4.353   1.734   2.467
 7412TIP3    H122200   4.349   1.720   2.372
 7412TIP3    H222201   4.339   1.828   2.478
 7413TIP3   OH222202   2.007   5.102   0.451
 7413TIP3    H122203   2.093   5.060   0.450
 7413TIP3    H222204   2.025   5.192   0.423
 7414TIP3   OH222205   3.510   4.867   1.151
 7414TIP3    H122206   3.580   4.930   1.134
 7414TIP3    H222207   3.429   4.913   1.128
 7415TIP3   OH222208   5.159   3.818   4.950
 7415TIP3    H122209   5.174   3.797   4.858
 7415TIP3    H222210   5.224   3.885   4.971
 7416TIP3   OH222211   7.030   5.413   1.330
 7416TIP3    H122212   6.968   5.368   1.387
 7416TIP3    H222213   6.981   5.434   1.251
 7417TIP3   OH222214   2.024   2.523   3.474
 7417TIP3    H122215   2.024   2.617   3.493
 7417TIP3    H222216   1.948   2.510   3.417
 7418TIP3   OH222217   3.717   5.097   1.715
 7418TIP3    H122218   3.645   5.102   1.778
 7418TIP3    H222219   3.674   5.090   1.630
 7419TIP3   OH222220   2.879   6.477   1.082
 7419TIP3    H122221   2.885   6.390   1.121
 7419TIP3    H222222   2.968   6.512   1.087
 7420TIP3   OH222223   5.027   2.513   1.561
 7420TIP3    H122224   5.074   2.596   1.565
 7420TIP3    H222225   5.086   2.450   1.603
 7421TIP3   OH222226   4.375   4.355   3.805
 7421TIP3    H122227   4.352   4.320   3.719
 7421TIP3    H222228   4.313   4.314   3.865
 7422TIP3   OH222229   2.790   3.951   5.688
 7422TIP3    H122230   2.798   3.898   5.767
 7422TIP3    H222231   2.773   3.888   5.618
 7423TIP3   OH222232   0.683   1.529   0.723
 7423TIP3    H122233   0.663   1.622   0.724
 7423TIP3    H222234   0.604   1.488   0.688
 7424TIP3   OH222235   1.183   0.726   5.114
 7424TIP3    H122236   1.212   0.701   5.026
 7424TIP3    H222237   1.186   0.645   5.165
 7425TIP3   OH222238   2.022   4.123   1.860
 7425TIP3    H122239   1.991   4.176   1.786
 7425TIP3    H222240   1.942   4.088   1.899
 7426TIP3   OH222241   6.485   1.372   3.979
 7426TIP3    H122242   6.539   1.451   3.978
 7426TIP3    H222243   6.549   1.300   3.979
 7427TIP3   OH222244   2.363   2.944   0.779
 7427TIP3    H122245   2.345   2.939   0.873
 7427TIP3    H222246   2.315   3.022   0.750
 7428TIP3   OH222247   1.973   0.596   0.718
 7428TIP3    H122248   1.906   0.562   0.659
 7428TIP3    H222249   1.924   0.625   0.795
 7429TIP3   OH222250   5.219   6.193   1.041
 7429TIP3    H122251   5.181   6.105   1.035
 7429TIP3    H222252   5.313   6.179   1.031
 7430TIP3   OH222253   2.960   5.765   0.612
 7430TIP3    H122254   2.889   5.802   0.559
 7430TIP3    H222255   2.929   5.771   0.702
 7431TIP3   OH222256   0.548   6.670   3.524
 7431TIP3    H122257   0.464   6.628   3.542
 7431TIP3    H222258   0.573   6.638   3.438
 7432TIP3   OH222259   1.771   0.770   1.294
 7432TIP3    H122260   1.691   0.789   1.245
 7432TIP3    H222261   1.764   0.677   1.316
 7433TIP3   OH222262   5.278   5.033   3.436
 7433TIP3    H122263   5.218   5.019   3.509
 7433TIP3    H222264   5.362   5.055   3.476
 7434TIP3   OH222265   0.177   2.913   4.781
 7434TIP3    H122266   0.234   2.858   4.727
 7434TIP3    H222267   0.110   2.945   4.720
 7435TIP3   OH222268   1.111   2.511   2.883
 7435TIP3    H122269   1.025   2.535   2.918
 7435TIP3    H222270   1.172   2.526   2.956
 7436TIP3   OH222271   6.814   3.482   4.609
 7436TIP3    H122272   6.877   3.546   4.576
 7436TIP3    H222273   6.826   3.405   4.554
 7437TIP3   OH222274   7.086   0.709   2.078
 7437TIP3    H122275   7.105   0.651   2.152
 7437TIP3    H222276   7.021   0.661   2.027
 7438TIP3   OH222277   2.911   3.362   2.664
 7438TIP3    H122278   2.899   3.267   2.668
 7438TIP3    H222279   3.005   3.375   2.667
 7439TIP3   OH222280   3.406   3.328   2.798
 7439TIP3    H122281   3.473   3.324   2.730
 7439TIP3    H222282   3.451   3.362   2.875
 7440TIP3   OH222283   6.293   2.910   4.568
 7440TIP3    H122284   6.328   2.821   4.573
 7440TIP3    H222285   6.228   2.906   4.498
 7441TIP3   OH222286   0.332   6.186   3.973
 7441TIP3    H122287   0.271   6.127   4.018
 7441TIP3    H222288   0.416   6.171   4.017
 7442TIP3   OH222289   3.815   2.338   0.637
 7442TIP3    H122290   3.892   2.386   0.607
 7442TIP3    H222291   3.802   2.270   0.571
 7443TIP3   OH222292   4.554   3.773   1.579
 7443TIP3    H122293   4.464   3.789   1.551
 7443TIP3    H222294   4.548   3.691   1.629
 7444TIP3   OH222295   2.243   2.140   1.140
 7444TIP3    H122296   2.246   2.073   1.072
 7444TIP3    H222297   2.334   2.169   1.149
 7445TIP3   OH222298   3.552   0.895   4.932
 7445TIP3    H122299   3.641   0.862   4.944
 7445TIP3    H222300   3.508   0.827   4.881
 7446TIP3   OH222301   4.318   1.092   3.898
 7446TIP3    H122302   4.307   1.035   3.822
 7446TIP3    H222303   4.231   1.100   3.936
 7447TIP3   OH222304   2.268   1.548   1.247
 7447TIP3    H122305   2.178   1.516   1.253
 7447TIP3    H222306   2.292   1.568   1.337
 7448TIP3   OH222307   5.749   4.449   0.010
 7448TIP3    H122308   5.844   4.450   0.000
 7448TIP3    H222309   5.723   4.541   0.000
 7449TIP3   OH222310   0.350   5.119   0.387
 7449TIP3    H122311   0.364   5.200   0.338
 7449TIP3    H222312   0.257   5.120   0.408
 7450TIP3   OH222313   1.194   0.880   2.240
 7450TIP3    H122314   1.268   0.880   2.300
 7450TIP3    H222315   1.206   0.800   2.188
 7451TIP3   OH222316   0.315   0.766   1.842
 7451TIP3    H122317   0.348   0.680   1.868
 7451TIP3    H222318   0.236   0.777   1.895
 7452TIP3   OH222319   5.805   4.888   3.860
 7452TIP3    H122320   5.755   4.900   3.941
 7452TIP3    H222321   5.765   4.948   3.798
 7453TIP3   OH222322   3.820   6.458   0.869
 7453TIP3    H122323   3.826   6.388   0.934
 7453TIP3    H222324   3.855   6.419   0.789
 7454TIP3   OH222325   3.600   0.728   0.095
 7454TIP3    H122326   3.622   0.752   0.005
 7454TIP3    H222327   3.624   0.805   0.147
 7455TIP3   OH222328   7.064   2.346   2.747
 7455TIP3    H122329   7.132   2.281   2.726
 7455TIP3    H222330   7.080   2.418   2.687
 7456TIP3   OH222331   3.709   2.073   1.014
 7456TIP3    H122332   3.656   2.021   0.954
 7456TIP3    H222333   3.656   2.150   1.033
 7457TIP3   OH222334   0.936   3.402   0.067
 7457TIP3    H122335   0.979   3.435   0.146
 7457TIP3    H222336   0.955   3.309   0.066
 7458TIP3   OH222337   5.594   1.125   3.034
 7458TIP3    H122338   5.580   1.178   2.955
 7458TIP3    H222339   5.511   1.132   3.082
 7459TIP3   OH222340   4.068   4.881   2.022
 7459TIP3    H122341   3.987   4.925   2.050
 7459TIP3    H222342   4.118   4.950   1.978
 7460TIP3   OH222343   2.260   5.157   4.607
 7460TIP3    H122344   2.192   5.224   4.605
 7460TIP3    H222345   2.341   5.205   4.621
 7461TIP3   OH222346   4.413   5.422   0.429
 7461TIP3    H122347   4.466   5.482   0.377
 7461TIP3    H222348   4.331   5.469   0.445
 7462TIP3   OH222349   5.620   5.490   3.309
 7462TIP3    H122350   5.681   5.452   3.373
 7462TIP3    H222351   5.588   5.415   3.259
 7463TIP3   OH222352   4.394   4.877   4.014
 7463TIP3    H122353   4.447   4.838   4.083
 7463TIP3    H222354   4.412   4.823   3.937
 7464TIP3   OH222355   6.494   2.164   1.889
 7464TIP3    H122356   6.503   2.207   1.974
 7464TIP3    H222357   6.402   2.140   1.884
 7465TIP3   OH222358   1.223   3.710   3.892
 7465TIP3    H122359   1.248   3.787   3.842
 7465TIP3    H222360   1.192   3.647   3.827
 7466TIP3   OH222361   0.389   4.776   3.018
 7466TIP3    H122362   0.482   4.785   2.995
 7466TIP3    H222363   0.354   4.716   2.951
 7467TIP3   OH222364   4.779   1.751   1.533
 7467TIP3    H122365   4.691   1.769   1.567
 7467TIP3    H222366   4.837   1.771   1.607
 7468TIP3   OH222367   4.117   0.198   0.895
 7468TIP3    H122368   4.104   0.284   0.855
 7468TIP3    H222369   4.092   0.135   0.828
 7469TIP3   OH222370   0.217   5.344   2.271
 7469TIP3    H122371   0.237   5.388   2.188
 7469TIP3    H222372   0.131   5.379   2.296
 7470TIP3   OH222373   4.780   4.116   2.917
 7470TIP3    H122374   4.769   4.209   2.897
 7470TIP3    H222375   4.841   4.084   2.850
 7471TIP3   OH222376   4.694   1.696   5.906
 7471TIP3    H122377   4.651   1.653   5.832
 7471TIP3    H222378   4.736   1.773   5.867
 7472TIP3   OH222379   4.500   6.648   1.534
 7472TIP3    H122380   4.416   6.666   1.490
 7472TIP3    H222381   4.553   6.726   1.516
 7473TIP3   OH222382   5.416   2.196   5.289
 7473TIP3    H122383   5.477   2.166   5.222
 7473TIP3    H222384   5.343   2.232   5.240
 7474TIP3   OH222385   4.649   5.031   4.688
 7474TIP3    H122386   4.688   5.118   4.685
 7474TIP3    H222387   4.718   4.973   4.655
 7475TIP3   OH222388   5.511   0.234   4.401
 7475TIP3    H122389   5.507   0.264   4.310
 7475TIP3    H222390   5.517   0.139   4.395
 7476TIP3   OH222391   2.049   0.852   0.874
 7476TIP3    H122392   2.038   0.855   0.969
 7476TIP3    H222393   2.137   0.816   0.861
 7477TIP3   OH222394   2.972   3.307   1.147
 7477TIP3    H122395   3.063   3.294   1.174
 7477TIP3    H222396   2.942   3.219   1.124
 7478TIP3   OH222397   7.096   5.564   4.862
 7478TIP3    H122398   7.053   5.622   4.924
 7478TIP3    H222399   7.173   5.532   4.908
 7479TIP3   OH222400   5.871   2.593   5.609
 7479TIP3    H122401   5.876   2.671   5.663
 7479TIP3    H222402   5.949   2.542   5.632
 7480TIP3   OH222403   6.474   1.164   5.348
 7480TIP3    H122404   6.514   1.180   5.263
 7480TIP3    H222405   6.541   1.117   5.397
 7481TIP3   OH222406   6.433   5.772   3.477
 7481TIP3    H122407   6.397   5.772   3.388
 7481TIP3    H222408   6.393   5.695   3.519
 7482TIP3   OH222409   2.982   0.444   3.584
 7482TIP3    H122410   3.016   0.371   3.635
 7482TIP3    H222411   2.896   0.462   3.623
 7483TIP3   OH222412   0.056   6.289   2.384
 7483TIP3    H122413  -0.011   6.243   2.333
 7483TIP3    H222414   0.137   6.278   2.334
 7484TIP3   OH222415   2.991   0.726   3.524
 7484TIP3    H122416   2.976   0.753   3.615
 7484TIP3    H222417   2.990   0.630   3.527
 7485TIP3   OH222418   6.171   5.874   2.207
 7485TIP3    H122419   6.087   5.843   2.239
 7485TIP3    H222420   6.160   5.968   2.194
 7486TIP3   OH222421   2.469   2.738   1.017
 7486TIP3    H122422   2.454   2.678   1.090
 7486TIP3    H222423   2.499   2.683   0.946
 7487TIP3   OH222424   1.466   0.167   0.321
 7487TIP3    H122425   1.396   0.174   0.387
 7487TIP3    H222426   1.533   0.228   0.351
 7488TIP3   OH222427   6.502   4.499   1.521
 7488TIP3    H122428   6.544   4.551   1.590
 7488TIP3    H222429   6.410   4.526   1.524
 7489TIP3   OH222430   1.821   2.516   3.286
 7489TIP3    H122431   1.845   2.578   3.216
 7489TIP3    H222432   1.749   2.559   3.332
 7490TIP3   OH222433   1.069   6.616   5.043
 7490TIP3    H122434   1.086   6.522   5.042
 7490TIP3    H222435   1.026   6.634   4.960
 7491TIP3   OH222436   5.713   6.706   2.012
 7491TIP3    H122437   5.680   6.641   1.950
 7491TIP3    H222438   5.763   6.767   1.958
 7492TIP3   OH222439   1.207   6.354   5.070
 7492TIP3    H122440   1.222   6.271   5.024
 7492TIP3    H222441   1.294   6.387   5.091
 7493TIP3   OH222442   3.104   3.099   3.227
 7493TIP3    H122443   3.018   3.130   3.199
 7493TIP3    H222444   3.135   3.167   3.287
 7494TIP3   OH222445   3.880   3.229   3.294
 7494TIP3    H122446   3.957   3.184   3.329
 7494TIP3    H222447   3.806   3.177   3.327
 7495TIP3   OH222448   3.923   1.883   1.565
 7495TIP3    H122449   3.911   1.970   1.603
 7495TIP3    H222450   3.836   1.843   1.569
 7496TIP3   OH222451   3.637   5.495   3.211
 7496TIP3    H122452   3.599   5.441   3.141
 7496TIP3    H222453   3.729   5.469   3.212
 7497TIP3   OH222454   4.203   4.991   4.732
 7497TIP3    H122455   4.149   5.066   4.707
 7497TIP3    H222456   4.220   5.003   4.825
 7498TIP3   OH222457   2.104   2.403   4.769
 7498TIP3    H122458   2.088   2.316   4.731
 7498TIP3    H222459   2.165   2.387   4.840
 7499TIP3   OH222460   7.188   4.707   3.689
 7499TIP3    H122461   7.123   4.638   3.674
 7499TIP3    H222462   7.155   4.756   3.764
 7500TIP3   OH222463   4.448   4.639   3.846
 7500TIP3    H122464   4.484   4.591   3.921
 7500TIP3    H222465   4.386   4.577   3.806
 7501TIP3   OH222466   2.764   1.389   1.199
 7501TIP3    H122467   2.684   1.441   1.203
 7501TIP3    H222468   2.735   1.299   1.217
 7502TIP3   OH222469   0.610   2.017   1.808
 7502TIP3    H122470   0.705   2.019   1.820
 7502TIP3    H222471   0.577   2.084   1.869
 7503TIP3   OH222472   1.699   4.095   5.145
 7503TIP3    H122473   1.649   4.110   5.225
 7503TIP3    H222474   1.662   4.014   5.110
 7504TIP3   OH222475   5.630   0.828   4.404
 7504TIP3    H122476   5.574   0.788   4.338
 7504TIP3    H222477   5.589   0.805   4.487
 7505TIP3   OH222478   5.596   2.791   2.043
 7505TIP3    H122479   5.557   2.875   2.067
 7505TIP3    H222480   5.639   2.761   2.122
 7506TIP3   OH222481   0.383   3.585   4.029
 7506TIP3    H122482   0.343   3.514   4.079
 7506TIP3    H222483   0.319   3.656   4.032
 7507TIP3   OH222484   4.443   5.850   5.664
 7507TIP3    H122485   4.386   5.780   5.698
 7507TIP3    H222486   4.413   5.929   5.708
 7508TIP3   OH222487   6.539   1.810   1.701
 7508TIP3    H122488   6.556   1.905   1.705
 7508TIP3    H222489   6.448   1.803   1.672
 7509TIP3   OH222490   2.499   2.986   1.880
 7509TIP3    H122491   2.567   2.974   1.946
 7509TIP3    H222492   2.541   2.964   1.797
 7510TIP3   OH222493   1.568   6.525   4.990
 7510TIP3    H122494   1.537   6.450   5.041
 7510TIP3    H222495   1.657   6.540   5.022
 7511TIP3   OH222496   7.062   4.638   1.468
 7511TIP3    H122497   6.998   4.699   1.503
 7511TIP3    H222498   7.113   4.611   1.544
 7512TIP3   OH222499   6.934   1.323   5.364
 7512TIP3    H122500   6.998   1.379   5.320
 7512TIP3    H222501   6.854   1.375   5.368
 7513TIP3   OH222502   5.867   4.947   2.223
 7513TIP3    H122503   5.880   4.888   2.149
 7513TIP3    H222504   5.812   4.898   2.283
 7514TIP3   OH222505   0.439   0.598   4.353
 7514TIP3    H122506   0.419   0.633   4.266
 7514TIP3    H222507   0.463   0.507   4.337
 7515TIP3   OH222508   5.115   4.817   0.573
 7515TIP3    H122509   5.166   4.888   0.532
 7515TIP3    H222510   5.036   4.811   0.519
 7516TIP3   OH222511   6.219   3.149   2.107
 7516TIP3    H122512   6.133   3.180   2.137
 7516TIP3    H222513   6.214   3.155   2.012
 7517TIP3   OH222514   5.927   3.711   4.725
 7517TIP3    H122515   5.872   3.742   4.653
 7517TIP3    H222516   5.916   3.616   4.723
 7518TIP3   OH222517   3.928   2.565   5.592
 7518TIP3    H122518   3.963   2.648   5.561
 7518TIP3    H222519   3.840   2.560   5.554
 7519TIP3   OH222520   1.642   0.542   5.527
 7519TIP3    H122521   1.570   0.581   5.477
 7519TIP3    H222522   1.605   0.527   5.614
 7520TIP3   OH222523   0.785   4.659   4.682
 7520TIP3    H122524   0.837   4.658   4.602
 7520TIP3    H222525   0.705   4.613   4.660
 7521TIP3   OH222526   6.267   5.341   3.371
 7521TIP3    H122527   6.219   5.260   3.355
 7521TIP3    H222528   6.258   5.357   3.465
 7522TIP3   OH222529   2.921   1.703   5.806
 7522TIP3    H122530   2.846   1.644   5.807
 7522TIP3    H222531   2.941   1.718   5.898
 7523TIP3   OH222532   2.333   3.867   3.308
 7523TIP3    H122533   2.346   3.951   3.353
 7523TIP3    H222534   2.400   3.866   3.240
 7524TIP3   OH222535   3.484   6.550   5.858
 7524TIP3    H122536   3.432   6.480   5.898
 7524TIP3    H222537   3.421   6.601   5.807
 7525TIP3   OH222538   3.568   3.677   2.495
 7525TIP3    H122539   3.547   3.771   2.493
 7525TIP3    H222540   3.632   3.668   2.565
 7526TIP3   OH222541   6.736   2.705   2.769
 7526TIP3    H122542   6.699   2.732   2.853
 7526TIP3    H222543   6.718   2.611   2.764
 7527TIP3   OH222544   2.589   1.515   0.414
 7527TIP3    H122545   2.679   1.496   0.441
 7527TIP3    H222546   2.551   1.429   0.399
 7528TIP3   OH222547   6.407   5.073   0.080
 7528TIP3    H122548   6.474   5.130   0.117
 7528TIP3    H222549   6.429   5.068  -0.013
 7529TIP3   OH222550   6.693   6.115   2.458
 7529TIP3    H122551   6.787   6.130   2.448
 7529TIP3    H222552   6.674   6.137   2.549
 7530TIP3   OH222553   0.982   3.428   1.626
 7530TIP3    H122554   0.911   3.385   1.673
 7530TIP3    H222555   1.048   3.360   1.613
 7531TIP3   OH222556   6.705   6.149   4.093
 7531TIP3    H122557   6.730   6.205   4.019
 7531TIP3    H222558   6.785   6.101   4.115
 7532TIP3   OH222559   6.974   6.081   0.798
 7532TIP3    H122560   6.967   6.168   0.758
 7532TIP3    H222561   7.066   6.057   0.785
 7533TIP3   OH222562   2.374   6.379   5.583
 7533TIP3    H122563   2.336   6.350   5.665
 7533TIP3    H222564   2.439   6.445   5.608
 7534TIP3   OH222565   2.941   1.045   1.773
 7534TIP3    H122566   2.928   1.136   1.798
 7534TIP3    H222567   2.970   1.049   1.682
 7535TIP3   OH222568   4.517   5.898   0.993
 7535TIP3    H122569   4.552   5.957   1.060
 7535TIP3    H222570   4.452   5.844   1.039
 7536TIP3   OH222571   3.019   0.072   2.256
 7536TIP3    H122572   3.007   0.146   2.315
 7536TIP3    H222573   3.083   0.103   2.192
 7537TIP3   OH222574   2.951   6.688   5.766
 7537TIP3    H122575   2.924   6.639   5.689
 7537TIP3    H222576   2.932   6.630   5.840
 7538TIP3   OH222577   6.534   2.075   5.753
 7538TIP3    H122578   6.551   2.152   5.806
 7538TIP3    H222579   6.438   2.065   5.754
 7539TIP3   OH222580   3.188   4.623   5.233
 7539TIP3    H122581   3.155   4.702   5.275
 7539TIP3    H222582   3.254   4.654   5.171
 7540TIP3   OH222583   4.188   4.944   1.129
 7540TIP3    H122584   4.167   5.000   1.055
 7540TIP3    H222585   4.109   4.942   1.182
 7541TIP3   OH222586   1.399   5.251   0.967
 7541TIP3    H122587   1.373   5.186   1.033
 7541TIP3    H222588   1.401   5.202   0.885
 7542TIP3   OH222589   1.213   1.716   3.356
 7542TIP3    H122590   1.307   1.732   3.353
 7542TIP3    H222591   1.194   1.673   3.273
 7543TIP3   OH222592   6.713   5.422   3.135
 7543TIP3    H122593   6.632   5.461   3.169
 7543TIP3    H222594   6.760   5.496   3.096
 7544TIP3   OH222595   5.813   2.235   3.323
 7544TIP3    H122596   5.728   2.262   3.358
 7544TIP3    H222597   5.809   2.259   3.231
 7545TIP3   OH222598   5.428   4.331   5.058
 7545TIP3    H122599   5.346   4.283   5.044
 7545TIP3    H222600   5.493   4.282   5.008
 7546TIP3   OH222601   1.984   6.500   2.510
 7546TIP3    H122602   2.007   6.561   2.580
 7546TIP3    H222603   1.918   6.443   2.550
 7547TIP3   OH222604   0.589   6.362   2.949
 7547TIP3    H122605   0.575   6.456   2.952
 7547TIP3    H222606   0.604   6.337   3.040
 7548TIP3   OH222607   0.381   1.027   1.805
 7548TIP3    H122608   0.324   1.021   1.728
 7548TIP3    H222609   0.392   0.937   1.833
 7549TIP3   OH222610   0.787   2.163   2.115
 7549TIP3    H122611   0.787   2.242   2.169
 7549TIP3    H222612   0.821   2.094   2.171
 7550TIP3   OH222613   4.271   1.720   5.543
 7550TIP3    H122614   4.324   1.790   5.579
 7550TIP3    H222615   4.275   1.734   5.448
 7551TIP3   OH222616   5.706   1.065   1.436
 7551TIP3    H122617   5.794   1.038   1.412
 7551TIP3    H222618   5.695   1.150   1.393
 7552TIP3   OH222619   3.787   3.646   0.389
 7552TIP3    H122620   3.857   3.603   0.438
 7552TIP3    H222621   3.801   3.619   0.298
 7553TIP3   OH222622   7.038   4.069   1.159
 7553TIP3    H122623   6.976   4.011   1.115
 7553TIP3    H222624   7.083   4.013   1.222
 7554TIP3   OH222625   4.590   3.861   4.036
 7554TIP3    H122626   4.545   3.932   4.083
 7554TIP3    H222627   4.545   3.782   4.065
 7555TIP3   OH222628   0.210   2.301   2.958
 7555TIP3    H122629   0.131   2.271   3.003
 7555TIP3    H222630   0.180   2.323   2.869
 7556TIP3   OH222631   6.484   0.781   2.334
 7556TIP3    H122632   6.428   0.799   2.410
 7556TIP3    H222633   6.439   0.823   2.261
 7557TIP3   OH222634   0.335   5.038   5.162
 7557TIP3    H122635   0.294   5.028   5.248
 7557TIP3    H222636   0.404   4.971   5.161
 7558TIP3   OH222637   6.636   4.094   4.397
 7558TIP3    H122638   6.572   4.120   4.464
 7558TIP3    H222639   6.720   4.125   4.431
 7559TIP3   OH222640   2.211   3.806   0.068
 7559TIP3    H122641   2.121   3.799   0.101
 7559TIP3    H222642   2.265   3.795   0.146
 7560TIP3   OH222643   5.588   1.347   2.440
 7560TIP3    H122644   5.631   1.307   2.364
 7560TIP3    H222645   5.619   1.296   2.514
 7561TIP3   OH222646   3.188   0.230   3.052
 7561TIP3    H122647   3.105   0.233   3.099
 7561TIP3    H222648   3.198   0.317   3.014
 7562TIP3   OH222649   3.120   5.108   0.879
 7562TIP3    H122650   3.186   5.153   0.825
 7562TIP3    H222651   3.080   5.045   0.819
 7563TIP3   OH222652   2.422   3.025   4.763
 7563TIP3    H122653   2.421   3.080   4.684
 7563TIP3    H222654   2.482   2.954   4.742
 7564TIP3   OH222655   4.727   1.300   2.707
 7564TIP3    H122656   4.754   1.384   2.670
 7564TIP3    H222657   4.784   1.236   2.665
 7565TIP3   OH222658   6.782   6.642   4.144
 7565TIP3    H122659   6.779   6.608   4.054
 7565TIP3    H222660   6.705   6.699   4.150
 7566TIP3   OH222661   1.504   0.740   0.522
 7566TIP3    H122662   1.493   0.823   0.476
 7566TIP3    H222663   1.531   0.678   0.454
 7567TIP3   OH222664   7.140   5.643   0.118
 7567TIP3    H122665   7.076   5.676   0.055
 7567TIP3    H222666   7.097   5.651   0.203
 7568TIP3   OH222667   2.092   1.411   3.707
 7568TIP3    H122668   2.101   1.505   3.721
 7568TIP3    H222669   2.003   1.391   3.734
 7569TIP3   OH222670   3.389   4.556   2.230
 7569TIP3    H122671   3.309   4.577   2.182
 7569TIP3    H222672   3.451   4.528   2.163
 7570TIP3   OH222673   2.609   2.460   4.548
 7570TIP3    H122674   2.528   2.461   4.497
 7570TIP3    H222675   2.590   2.514   4.625
 7571TIP3   OH222676   5.558   0.026   1.523
 7571TIP3    H122677   5.620  -0.045   1.514
 7571TIP3    H222678   5.597   0.099   1.475
 7572TIP3   OH222679   3.849   4.555   5.005
 7572TIP3    H122680   3.771   4.506   4.980
 7572TIP3    H222681   3.883   4.508   5.081
 7573TIP3   OH222682   1.930   5.480   2.467
 7573TIP3    H122683   1.859   5.522   2.515
 7573TIP3    H222684   1.893   5.461   2.381
 7574TIP3   OH222685   1.582   4.019   1.927
 7574TIP3    H122686   1.603   4.029   2.020
 7574TIP3    H222687   1.566   4.109   1.897
 7575TIP3   OH222688   6.782   6.237   3.791
 7575TIP3    H122689   6.740   6.158   3.756
 7575TIP3    H222690   6.854   6.254   3.730
 7576TIP3   OH222691   4.495   2.992   5.652
 7576TIP3    H122692   4.425   3.033   5.704
 7576TIP3    H222693   4.462   2.995   5.562
 7577TIP3   OH222694   3.219   3.316   1.233
 7577TIP3    H122695   3.230   3.236   1.285
 7577TIP3    H222696   3.229   3.387   1.297
 7578TIP3   OH222697   4.705   5.143   3.291
 7578TIP3    H122698   4.773   5.078   3.309
 7578TIP3    H222699   4.732   5.183   3.208
 7579TIP3   OH222700   0.130   4.725   3.152
 7579TIP3    H122701   0.201   4.764   3.102
 7579TIP3    H222702   0.149   4.748   3.243
 7580TIP3   OH222703   1.405   6.550   0.996
 7580TIP3    H122704   1.366   6.533   1.082
 7580TIP3    H222705   1.447   6.467   0.972
 7581TIP3   OH222706   0.779   5.418   4.695
 7581TIP3    H122707   0.748   5.431   4.605
 7581TIP3    H222708   0.875   5.418   4.687
 7582TIP3   OH222709   1.109   4.126   1.123
 7582TIP3    H122710   1.093   4.108   1.031
 7582TIP3    H222711   1.125   4.040   1.163
 7583TIP3   OH222712   2.604   4.773   1.565
 7583TIP3    H122713   2.633   4.745   1.477
 7583TIP3    H222714   2.684   4.808   1.605
 7584TIP3   OH222715   0.265   0.591   3.800
 7584TIP3    H122716   0.178   0.592   3.759
 7584TIP3    H222717   0.326   0.590   3.727
 7585TIP3   OH222718   4.075   2.058   5.199
 7585TIP3    H122719   4.131   2.085   5.126
 7585TIP3    H222720   4.011   2.130   5.208
 7586TIP3   OH222721   0.401   4.312   4.639
 7586TIP3    H122722   0.367   4.253   4.707
 7586TIP3    H222723   0.363   4.279   4.558
 7587TIP3   OH222724   1.988   2.793   1.736
 7587TIP3    H122725   1.976   2.734   1.661
 7587TIP3    H222726   2.029   2.871   1.699
 7588TIP3   OH222727   3.329   1.487   4.819
 7588TIP3    H122728   3.423   1.501   4.812
 7588TIP3    H222729   3.314   1.462   4.910
 7589TIP3   OH222730   7.028   2.983   5.152
 7589TIP3    H122731   6.976   2.956   5.227
 7589TIP3    H222732   6.964   3.006   5.085
 7590TIP3   OH222733   1.175   0.844   3.455
 7590TIP3    H122734   1.150   0.905   3.386
 7590TIP3    H222735   1.225   0.897   3.517
 7591TIP3   OH222736   3.626   0.185   3.432
 7591TIP3    H122737   3.605   0.093   3.447
 7591TIP3    H222738   3.564   0.214   3.366
 7592TIP3   OH222739   4.510   3.056   3.563
 7592TIP3    H122740   4.435   3.113   3.576
 7592TIP3    H222741   4.526   3.057   3.469
 7593TIP3   OH222742   3.515   2.505   0.110
 7593TIP3    H122743   3.449   2.435   0.108
 7593TIP3    H222744   3.583   2.473   0.169
 7594TIP3   OH222745   5.008   4.739   5.862
 7594TIP3    H122746   5.000   4.831   5.888
 7594TIP3    H222747   5.029   4.743   5.768
 7595TIP3   OH222748   4.722   4.982   1.165
 7595TIP3    H122749   4.714   5.041   1.090
 7595TIP3    H222750   4.812   4.949   1.159
 7596TIP3   OH222751   1.817   0.677   5.692
 7596TIP3    H122752   1.820   0.618   5.618
 7596TIP3    H222753   1.733   0.722   5.683
 7597TIP3   OH222754   4.367   3.644   0.769
 7597TIP3    H122755   4.421   3.718   0.798
 7597TIP3    H222756   4.398   3.625   0.680
 7598TIP3   OH222757   0.960   0.343   1.555
 7598TIP3    H122758   0.906   0.291   1.495
 7598TIP3    H222759   0.932   0.315   1.642
 7599TIP3   OH222760   1.437   5.938   1.774
 7599TIP3    H122761   1.369   5.890   1.822
 7599TIP3    H222762   1.389   5.990   1.710
 7600TIP3   OH222763   2.827   6.675   0.345
 7600TIP3    H122764   2.792   6.602   0.397
 7600TIP3    H222765   2.752   6.707   0.296
 7601TIP3   OH222766   1.888   0.598   3.570
 7601TIP3    H122767   1.815   0.548   3.608
 7601TIP3    H222768   1.963   0.577   3.625
 7602TIP3   OH222769   6.176   6.055   3.004
 7602TIP3    H122770   6.225   5.978   2.976
 7602TIP3    H222771   6.225   6.088   3.079
 7603TIP3   OH222772   3.763   4.062   2.633
 7603TIP3    H122773   3.711   4.139   2.657
 7603TIP3    H222774   3.826   4.094   2.569
 7604TIP3   OH222775   0.780   0.815   1.048
 7604TIP3    H122776   0.787   0.720   1.056
 7604TIP3    H222777   0.692   0.835   1.080
 7605TIP3   OH222778   3.955   2.223   5.593
 7605TIP3    H122779   3.974   2.142   5.546
 7605TIP3    H222780   3.967   2.292   5.527
 7606TIP3   OH222781   4.084   6.143   1.651
 7606TIP3    H122782   4.088   6.141   1.747
 7606TIP3    H222783   3.991   6.144   1.631
 7607TIP3   OH222784   4.042   5.207   4.659
 7607TIP3    H122785   3.950   5.216   4.636
 7607TIP3    H222786   4.081   5.292   4.636
 7608TIP3   OH222787   3.294   5.346   2.949
 7608TIP3    H122788   3.366   5.409   2.945
 7608TIP3    H222789   3.295   5.303   2.864
 7609TIP3   OH222790   1.794   0.493   1.296
 7609TIP3    H122791   1.866   0.472   1.237
 7609TIP3    H222792   1.829   0.476   1.384
 7610TIP3   OH222793   2.452   3.393   1.137
 7610TIP3    H122794   2.399   3.470   1.118
 7610TIP3    H222795   2.442   3.379   1.231
 7611TIP3   OH222796   6.179   3.999   2.048
 7611TIP3    H122797   6.261   4.011   2.000
 7611TIP3    H222798   6.168   4.080   2.097
 7612TIP3   OH222799   5.718   5.605   4.113
 7612TIP3    H122800   5.711   5.531   4.053
 7612TIP3    H222801   5.812   5.618   4.125
 7613TIP3   OH222802   1.952   1.459   0.480
 7613TIP3    H122803   1.986   1.489   0.396
 7613TIP3    H222804   1.885   1.395   0.457
 7614TIP3   OH222805   2.039   6.714   1.715
 7614TIP3    H122806   1.981   6.783   1.681
 7614TIP3    H222807   2.086   6.757   1.787
 7615TIP3   OH222808   4.798   2.962   1.993
 7615TIP3    H122809   4.794   3.028   2.062
 7615TIP3    H222810   4.800   2.879   2.040
 7616TIP3   OH222811   5.586   3.410   3.594
 7616TIP3    H122812   5.513   3.467   3.616
 7616TIP3    H222813   5.664   3.459   3.620
 7617TIP3   OH222814   4.785   2.737   2.158
 7617TIP3    H122815   4.732   2.686   2.096
 7617TIP3    H222816   4.789   2.683   2.236
 7618TIP3   OH222817   4.706   0.209   1.575
 7618TIP3    H122818   4.655   0.257   1.640
 7618TIP3    H222819   4.785   0.181   1.622
 7619TIP3   OH222820   5.304   0.493   0.208
 7619TIP3    H122821   5.261   0.457   0.286
 7619TIP3    H222822   5.386   0.443   0.201
 7620TIP3   OH222823   5.899   2.663   0.229
 7620TIP3    H122824   5.836   2.730   0.205
 7620TIP3    H222825   5.938   2.635   0.146
 7621TIP3   OH222826   5.290   2.262   2.676
 7621TIP3    H122827   5.233   2.242   2.750
 7621TIP3    H222828   5.378   2.255   2.711
 7622TIP3   OH222829   3.443   4.519   0.942
 7622TIP3    H122830   3.400   4.472   0.871
 7622TIP3    H222831   3.461   4.452   1.008
 7623TIP3   OH222832   2.209   3.654   5.017
 7623TIP3    H122833   2.167   3.568   5.025
 7623TIP3    H222834   2.239   3.673   5.106
 7624TIP3   OH222835   5.635   6.364   5.600
 7624TIP3    H122836   5.680   6.409   5.671
 7624TIP3    H222837   5.604   6.435   5.543
 7625TIP3   OH222838   4.369   4.413   5.646
 7625TIP3    H122839   4.434   4.419   5.575
 7625TIP3    H222840   4.327   4.499   5.647
 7626TIP3   OH222841   3.945   0.212   4.856
 7626TIP3    H122842   3.901   0.191   4.774
 7626TIP3    H222843   3.912   0.147   4.919
 7627TIP3   OH222844   5.181   4.387   2.134
 7627TIP3    H122845   5.096   4.427   2.149
 7627TIP3    H222846   5.239   4.427   2.199
 7628TIP3   OH222847   2.798   0.823   1.851
 7628TIP3    H122848   2.832   0.910   1.830
 7628TIP3    H222849   2.759   0.792   1.769
 7629TIP3   OH222850   2.853   5.363   5.233
 7629TIP3    H122851   2.832   5.301   5.303
 7629TIP3    H222852   2.771   5.411   5.219
 7630TIP3   OH222853   1.460   3.959   4.986
 7630TIP3    H122854   1.441   4.010   5.065
 7630TIP3    H222855   1.380   3.908   4.971
 7631TIP3   OH222856   5.709   2.760   0.950
 7631TIP3    H122857   5.756   2.722   0.877
 7631TIP3    H222858   5.619   2.770   0.919
 7632TIP3   OH222859   1.497  -0.016   1.360
 7632TIP3    H122860   1.403  -0.023   1.378
 7632TIP3    H222861   1.510   0.077   1.340
 7633TIP3   OH222862   5.660   6.563   2.262
 7633TIP3    H122863   5.569   6.592   2.250
 7633TIP3    H222864   5.713   6.636   2.228
 7634TIP3   OH222865   6.728   0.249   0.746
 7634TIP3    H122866   6.740   0.213   0.658
 7634TIP3    H222867   6.815   0.245   0.786
 7635TIP3   OH222868   2.938   6.024   1.835
 7635TIP3    H122869   2.926   6.013   1.929
 7635TIP3    H222870   2.986   6.106   1.826
 7636TIP3   OH222871   4.415   2.022   2.381
 7636TIP3    H122872   4.449   2.098   2.428
 7636TIP3    H222873   4.360   2.059   2.312
 7637TIP3   OH222874   0.005   3.438   5.542
 7637TIP3    H122875   0.022   3.520   5.589
 7637TIP3    H222876   0.052   3.448   5.459
 7638TIP3   OH222877   6.986   6.196   0.473
 7638TIP3    H122878   6.919   6.128   0.468
 7638TIP3    H222879   7.005   6.204   0.567
 7639TIP3   OH222880   3.685   0.456   4.791
 7639TIP3    H122881   3.600   0.414   4.803
 7639TIP3    H222882   3.725   0.453   4.878
 7640TIP3   OH222883   4.718   0.710   5.210
 7640TIP3    H122884   4.778   0.784   5.220
 7640TIP3    H222885   4.762   0.652   5.149
 7641TIP3   OH222886   3.280   1.303   5.858
 7641TIP3    H122887   3.293   1.358   5.935
 7641TIP3    H222888   3.343   1.336   5.793
 7642TIP3   OH222889   2.977   1.054   5.126
 7642TIP3    H122890   3.062   1.016   5.103
 7642TIP3    H222891   2.918   1.024   5.056
 7643TIP3   OH222892   6.283   5.976   5.285
 7643TIP3    H122893   6.374   5.995   5.264
 7643TIP3    H222894   6.236   6.055   5.259
 7644TIP3   OH222895   1.329   2.569   1.655
 7644TIP3    H122896   1.263   2.525   1.602
 7644TIP3    H222897   1.294   2.569   1.744
 7645TIP3   OH222898   2.334   0.860   5.191
 7645TIP3    H122899   2.319   0.943   5.145
 7645TIP3    H222900   2.329   0.793   5.122
 7646TIP3   OH222901   1.288   1.241   4.245
 7646TIP3    H122902   1.319   1.296   4.173
 7646TIP3    H222903   1.357   1.247   4.312
 7647TIP3   OH222904   4.177   4.062   0.072
 7647TIP3    H122905   4.195   4.073  -0.021
 7647TIP3    H222906   4.252   4.101   0.116
 7648TIP3   OH222907   1.678   0.954   2.937
 7648TIP3    H122908   1.601   0.924   2.986
 7648TIP3    H222909   1.656   1.044   2.911
 7649TIP3   OH222910   0.681   3.288   3.356
 7649TIP3    H122911   0.764   3.308   3.400
 7649TIP3    H222912   0.699   3.208   3.307
 7650TIP3   OH222913   0.745   0.825   5.773
 7650TIP3    H122914   0.803   0.866   5.710
 7650TIP3    H222915   0.783   0.739   5.789
 7651TIP3   OH222916   0.774   4.658   4.307
 7651TIP3    H122917   0.843   4.667   4.373
 7651TIP3    H222918   0.755   4.748   4.281
 7652TIP3   OH222919   4.517   0.815   1.352
 7652TIP3    H122920   4.598   0.767   1.335
 7652TIP3    H222921   4.472   0.818   1.268
 7653TIP3   OH222922   6.725   1.517   5.318
 7653TIP3    H122923   6.772   1.556   5.244
 7653TIP3    H222924   6.633   1.520   5.293
 7654TIP3   OH222925   5.780   1.168   1.106
 7654TIP3    H122926   5.684   1.169   1.104
 7654TIP3    H222927   5.803   1.075   1.104
 7655TIP3   OH222928   7.181   6.719   2.559
 7655TIP3    H122929   7.269   6.686   2.539
 7655TIP3    H222930   7.164   6.784   2.491
 7656TIP3   OH222931   3.866   0.176   1.993
 7656TIP3    H122932   3.795   0.150   1.934
 7656TIP3    H222933   3.896   0.094   2.032
 7657TIP3   OH222934   3.508   1.070   4.704
 7657TIP3    H122935   3.599   1.085   4.677
 7657TIP3    H222936   3.513   0.997   4.766
 7658TIP3   OH222937   1.856   6.297   2.692
 7658TIP3    H122938   1.788   6.299   2.758
 7658TIP3    H222939   1.910   6.221   2.715
 7659TIP3   OH222940   2.375   6.684   0.289
 7659TIP3    H122941   2.348   6.740   0.362
 7659TIP3    H222942   2.470   6.697   0.284
 7660TIP3   OH222943   1.828   2.782   0.324
 7660TIP3    H122944   1.819   2.691   0.354
 7660TIP3    H222945   1.887   2.823   0.388
 7661TIP3   OH222946   0.213   6.065   4.256
 7661TIP3    H122947   0.288   6.114   4.291
 7661TIP3    H222948   0.138   6.096   4.307
 7662TIP3   OH222949   2.961   0.481   2.875
 7662TIP3    H122950   2.934   0.492   2.966
 7662TIP3    H222951   2.991   0.567   2.848
 7663TIP3   OH222952   3.626   2.410   1.481
 7663TIP3    H122953   3.683   2.349   1.433
 7663TIP3    H222954   3.598   2.361   1.558
 7664TIP3   OH222955   2.478   4.917   5.154
 7664TIP3    H122956   2.416   4.844   5.161
 7664TIP3    H222957   2.556   4.888   5.202
 7665TIP3   OH222958   3.269   2.342   0.478
 7665TIP3    H122959   3.305   2.253   0.487
 7665TIP3    H222960   3.339   2.399   0.509
 7666TIP3   OH222961   4.438   0.708   5.262
 7666TIP3    H122962   4.529   0.710   5.233
 7666TIP3    H222963   4.408   0.799   5.255
 7667TIP3   OH222964   5.266   5.585   4.650
 7667TIP3    H122965   5.179   5.601   4.687
 7667TIP3    H222966   5.259   5.498   4.609
 7668TIP3   OH222967   1.854   2.751   5.754
 7668TIP3    H122968   1.926   2.690   5.772
 7668TIP3    H222969   1.781   2.718   5.805
 7669TIP3   OH222970   5.556   5.148   3.405
 7669TIP3    H122971   5.641   5.168   3.444
 7669TIP3    H222972   5.561   5.183   3.316
 7670TIP3   OH222973   0.553   3.440   4.294
 7670TIP3    H122974   0.585   3.429   4.204
 7670TIP3    H222975   0.473   3.388   4.298
 7671TIP3   OH222976   1.431   2.420   2.826
 7671TIP3    H122977   1.410   2.472   2.748
 7671TIP3    H222978   1.379   2.341   2.817
 7672TIP3   OH222979   1.562   4.044   1.624
 7672TIP3    H122980   1.495   4.023   1.689
 7672TIP3    H222981   1.549   3.980   1.554
 7673TIP3   OH222982   3.696   1.420   1.301
 7673TIP3    H122983   3.647   1.392   1.223
 7673TIP3    H222984   3.717   1.512   1.284
 7674TIP3   OH222985   0.648   4.428   4.301
 7674TIP3    H122986   0.588   4.447   4.229
 7674TIP3    H222987   0.709   4.502   4.301
 7675TIP3   OH222988   5.591   1.888   4.889
 7675TIP3    H122989   5.508   1.876   4.842
 7675TIP3    H222990   5.579   1.967   4.941
 7676TIP3   OH222991   5.361   5.519   0.740
 7676TIP3    H122992   5.427   5.565   0.687
 7676TIP3    H222993   5.307   5.589   0.777
 7677TIP3   OH222994   3.119   1.393   5.357
 7677TIP3    H122995   3.031   1.384   5.320
 7677TIP3    H222996   3.109   1.461   5.424
 7678TIP3   OH222997   4.525   1.991   5.542
 7678TIP3    H122998   4.590   2.025   5.604
 7678TIP3    H222999   4.575   1.975   5.462
 7679TIP3   OH223000   3.425   0.316   5.822
 7679TIP3    H123001   3.431   0.376   5.897
 7679TIP3    H223002   3.331   0.298   5.813
 7680TIP3   OH223003   6.819   1.698   3.693
 7680TIP3    H123004   6.904   1.736   3.714
 7680TIP3    H223005   6.758   1.773   3.697
 7681TIP3   OH223006   5.013   1.960   4.880
 7681TIP3    H123007   4.968   1.937   4.799
 7681TIP3    H223008   5.026   2.055   4.876
 7682TIP3   OH223009   3.293   0.575   4.252
 7682TIP3    H123010   3.375   0.577   4.204
 7682TIP3    H223011   3.227   0.550   4.186
 7683TIP3   OH223012   5.735   6.116   1.748
 7683TIP3    H123013   5.683   6.114   1.668
 7683TIP3    H223014   5.821   6.149   1.721
 7684TIP3   OH223015   2.520   4.890   4.168
 7684TIP3    H123016   2.426   4.886   4.151
 7684TIP3    H223017   2.528   4.867   4.261
 7685TIP3   OH223018   0.672   1.034   4.890
 7685TIP3    H123019   0.673   0.960   4.829
 7685TIP3    H223020   0.763   1.063   4.894
 7686TIP3   OH223021   4.392   2.522   3.447
 7686TIP3    H123022   4.378   2.483   3.533
 7686TIP3    H223023   4.461   2.587   3.460
 7687TIP3   OH223024   5.309   5.311   0.308
 7687TIP3    H123025   5.319   5.216   0.298
 7687TIP3    H223026   5.265   5.339   0.228
 7688TIP3   OH223027   3.131   2.890   5.372
 7688TIP3    H123028   3.082   2.972   5.361
 7688TIP3    H223029   3.125   2.871   5.465
 7689TIP3   OH223030   2.295   5.643   4.468
 7689TIP3    H123031   2.208   5.650   4.507
 7689TIP3    H223032   2.314   5.731   4.435
 7690TIP3   OH223033   2.601   5.647   0.556
 7690TIP3    H123034   2.589   5.695   0.474
 7690TIP3    H223035   2.547   5.569   0.547
 7691TIP3   OH223036   3.238   3.834   2.981
 7691TIP3    H123037   3.200   3.781   2.910
 7691TIP3    H223038   3.225   3.925   2.952
 7692TIP3   OH223039   4.819   4.381   2.506
 7692TIP3    H123040   4.741   4.427   2.474
 7692TIP3    H223041   4.816   4.295   2.464
 7693TIP3   OH223042   5.330   5.457   3.150
 7693TIP3    H123043   5.259   5.396   3.171
 7693TIP3    H223044   5.408   5.402   3.146
 7694TIP3   OH223045   0.818   5.303   3.843
 7694TIP3    H123046   0.896   5.359   3.853
 7694TIP3    H223047   0.816   5.250   3.922
 7695TIP3   OH223048   3.985   6.624   1.054
 7695TIP3    H123049   3.930   6.570   0.997
 7695TIP3    H223050   3.929   6.644   1.129
 7696TIP3   OH223051   2.621   6.779   0.201
 7696TIP3    H123052   2.681   6.752   0.132
 7696TIP3    H223053   2.564   6.844   0.160
 7697TIP3   OH223054   6.110   5.636   3.258
 7697TIP3    H123055   6.066   5.552   3.242
 7697TIP3    H223056   6.115   5.642   3.354
 7698TIP3   OH223057   7.095   1.380   1.958
 7698TIP3    H123058   7.070   1.414   1.873
 7698TIP3    H223059   7.152   1.447   1.996
 7699TIP3   OH223060   2.644   1.830   1.658
 7699TIP3    H123061   2.552   1.836   1.632
 7699TIP3    H223062   2.666   1.737   1.644
 7700TIP3   OH223063   3.845   0.080   4.621
 7700TIP3    H123064   3.771   0.112   4.569
 7700TIP3    H223065   3.811   0.003   4.666
 7701TIP3   OH223066   4.387   2.452   2.262
 7701TIP3    H123067   4.463   2.396   2.253
 7701TIP3    H223068   4.415   2.537   2.228
 7702TIP3   OH223069   0.254   4.259   2.237
 7702TIP3    H123070   0.236   4.275   2.329
 7702TIP3    H223071   0.167   4.243   2.198
 7703TIP3   OH223072   2.381   3.323   1.387
 7703TIP3    H123073   2.290   3.313   1.360
 7703TIP3    H223074   2.376   3.337   1.482
 7704TIP3   OH223075   2.016   6.326   3.892
 7704TIP3    H123076   2.054   6.244   3.862
 7704TIP3    H223077   2.089   6.373   3.932
 7705TIP3   OH223078   1.573   2.339   3.608
 7705TIP3    H123079   1.517   2.386   3.670
 7705TIP3    H223080   1.660   2.340   3.648
 7706TIP3   OH223081   7.133   6.310   1.177
 7706TIP3    H123082   7.170   6.319   1.264
 7706TIP3    H223083   7.096   6.222   1.176
 7707TIP3   OH223084   4.364   1.555   0.707
 7707TIP3    H123085   4.311   1.630   0.735
 7707TIP3    H223086   4.438   1.554   0.768
 7708TIP3   OH223087   3.378   3.055   2.646
 7708TIP3    H123088   3.470   3.050   2.673
 7708TIP3    H223089   3.351   3.144   2.669
 7709TIP3   OH223090   2.264   5.855   1.113
 7709TIP3    H123091   2.284   5.817   1.027
 7709TIP3    H223092   2.349   5.868   1.154
 7710TIP3   OH223093   5.544   5.117   2.714
 7710TIP3    H123094   5.601   5.052   2.757
 7710TIP3    H223095   5.570   5.114   2.622
 7711TIP3   OH223096   6.604   3.820   1.361
 7711TIP3    H123097   6.588   3.914   1.351
 7711TIP3    H223098   6.616   3.807   1.455
 7712TIP3   OH223099   2.493   4.447   3.627
 7712TIP3    H123100   2.484   4.355   3.604
 7712TIP3    H223101   2.544   4.485   3.555
 7713TIP3   OH223102   2.981   4.080   5.167
 7713TIP3    H123103   2.913   4.019   5.196
 7713TIP3    H223104   2.977   4.152   5.229
 7714TIP3   OH223105   0.472   3.159   0.622
 7714TIP3    H123106   0.528   3.227   0.660
 7714TIP3    H223107   0.418   3.205   0.558
 7715TIP3   OH223108   4.681   5.808   0.775
 7715TIP3    H123109   4.648   5.864   0.705
 7715TIP3    H223110   4.622   5.825   0.849
 7716TIP3   OH223111   0.914   3.086   1.587
 7716TIP3    H123112   0.999   3.107   1.625
 7716TIP3    H223113   0.859   3.162   1.609
 7717TIP3   OH223114   3.929   4.967   5.222
 7717TIP3    H123115   3.870   5.009   5.160
 7717TIP3    H223116   3.891   4.881   5.237
 7718TIP3   OH223117   7.196   6.573   5.634
 7718TIP3    H123118   7.279   6.606   5.668
 7718TIP3    H223119   7.163   6.516   5.703
 7719TIP3   OH223120   2.569   3.753   0.578
 7719TIP3    H123121   2.507   3.684   0.602
 7719TIP3    H223122   2.652   3.707   0.569
 7720TIP3   OH223123   0.365   5.669   1.618
 7720TIP3    H123124   0.426   5.694   1.688
 7720TIP3    H223125   0.312   5.747   1.603
 7721TIP3   OH223126   2.600   6.123   0.026
 7721TIP3    H123127   2.640   6.197  -0.020
 7721TIP3    H223128   2.673   6.065   0.046
 7722TIP3   OH223129   1.313   0.795   1.086
 7722TIP3    H123130   1.232   0.844   1.101
 7722TIP3    H223131   1.379   0.863   1.070
 7723TIP3   OH223132   4.276   3.760   1.938
 7723TIP3    H123133   4.308   3.696   2.002
 7723TIP3    H223134   4.255   3.708   1.860
 7724TIP3   OH223135   5.524   4.402   2.762
 7724TIP3    H123136   5.457   4.347   2.721
 7724TIP3    H223137   5.508   4.393   2.856
 7725TIP3   OH223138   5.063   0.507   5.306
 7725TIP3    H123139   5.099   0.594   5.289
 7725TIP3    H223140   5.010   0.518   5.385
 7726TIP3   OH223141   1.032   5.692   1.090
 7726TIP3    H123142   1.073   5.690   1.004
 7726TIP3    H223143   0.986   5.776   1.093
 7727TIP3   OH223144   2.777   6.436   4.413
 7727TIP3    H123145   2.688   6.429   4.446
 7727TIP3    H223146   2.807   6.521   4.445
 7728TIP3   OH223147   2.879   1.639   5.344
 7728TIP3    H123148   2.807   1.576   5.353
 7728TIP3    H223149   2.836   1.722   5.328
 7729TIP3   OH223150   5.691   5.866   1.293
 7729TIP3    H123151   5.722   5.776   1.291
 7729TIP3    H223152   5.770   5.919   1.280
 7730TIP3   OH223153   1.244   3.698   0.443
 7730TIP3    H123154   1.213   3.716   0.532
 7730TIP3    H223155   1.313   3.633   0.454
 7731TIP3   OH223156   3.354   3.200   5.211
 7731TIP3    H123157   3.260   3.221   5.211
 7731TIP3    H223158   3.357   3.107   5.188
 7732TIP3   OH223159   0.472   4.644   4.380
 7732TIP3    H123160   0.483   4.718   4.322
 7732TIP3    H223161   0.511   4.570   4.334
 7733TIP3   OH223162   4.906   2.765   0.484
 7733TIP3    H123163   4.872   2.827   0.549
 7733TIP3    H223164   4.828   2.717   0.454
 7734TIP3   OH223165   2.062   3.306   5.711
 7734TIP3    H123166   2.024   3.240   5.653
 7734TIP3    H223167   2.068   3.263   5.796
 7735TIP3   OH223168   1.209   0.040   1.398
 7735TIP3    H123169   1.211  -0.023   1.327
 7735TIP3    H223170   1.161   0.115   1.363
 7736TIP3   OH223171   5.555   2.786   0.458
 7736TIP3    H123172   5.646   2.760   0.478
 7736TIP3    H223173   5.545   2.769   0.364
 7737TIP3   OH223174   6.311   5.458   0.033
 7737TIP3    H123175   6.396   5.464  -0.010
 7737TIP3    H223176   6.327   5.405   0.111
 7738TIP3   OH223177   4.853   0.486   5.103
 7738TIP3    H123178   4.908   0.502   5.026
 7738TIP3    H223179   4.915   0.478   5.176
 7739TIP3   OH223180   6.527   3.934   3.150
 7739TIP3    H123181   6.570   4.015   3.178
 7739TIP3    H223182   6.524   3.880   3.229
 7740TIP3   OH223183   2.894   5.621   2.502
 7740TIP3    H123184   2.977   5.633   2.455
 7740TIP3    H223185   2.906   5.667   2.585
 7741TIP3   OH223186   2.708   2.203   4.677
 7741TIP3    H123187   2.752   2.257   4.744
 7741TIP3    H223188   2.699   2.261   4.602
 7742TIP3   OH223189   1.580   2.573   5.069
 7742TIP3    H123190   1.633   2.526   5.005
 7742TIP3    H223191   1.527   2.506   5.111
 7743TIP3   OH223192   6.569   1.618   1.508
 7743TIP3    H123193   6.497   1.627   1.446
 7743TIP3    H223194   6.561   1.694   1.566
 7744TIP3   OH223195   4.987   3.845   2.502
 7744TIP3    H123196   5.052   3.815   2.566
 7744TIP3    H223197   4.923   3.774   2.497
 7745TIP3   OH223198   4.922   1.902   2.384
 7745TIP3    H123199   4.932   1.942   2.297
 7745TIP3    H223200   4.945   1.972   2.445
 7746TIP3   OH223201   6.010   3.620   5.319
 7746TIP3    H123202   6.012   3.655   5.408
 7746TIP3    H223203   6.080   3.668   5.273
 7747TIP3   OH223204   5.166   2.325   2.132
 7747TIP3    H123205   5.135   2.349   2.220
 7747TIP3    H223206   5.187   2.409   2.091
 7748TIP3   OH223207   5.441   4.270   0.640
 7748TIP3    H123208   5.377   4.320   0.588
 7748TIP3    H223209   5.453   4.322   0.719
 7749TIP3   OH223210   2.809   5.311   3.516
 7749TIP3    H123211   2.809   5.343   3.426
 7749TIP3    H223212   2.735   5.251   3.520
 7750TIP3   OH223213   4.016   2.703   0.607
 7750TIP3    H123214   4.045   2.618   0.641
 7750TIP3    H223215   3.984   2.685   0.519
 7751TIP3   OH223216   2.349   3.500   2.911
 7751TIP3    H123217   2.425   3.515   2.967
 7751TIP3    H223218   2.337   3.405   2.912
 7752TIP3   OH223219   0.273   1.048   3.032
 7752TIP3    H123220   0.238   0.959   3.037
 7752TIP3    H223221   0.204   1.098   2.988
 7753TIP3   OH223222   6.920   0.898   0.463
 7753TIP3    H123223   6.985   0.876   0.397
 7753TIP3    H223224   6.835   0.883   0.420
 7754TIP3   OH223225   4.553   4.923   2.762
 7754TIP3    H123226   4.475   4.869   2.776
 7754TIP3    H223227   4.542   4.997   2.822
 7755TIP3   OH223228   2.177   5.225   1.795
 7755TIP3    H123229   2.155   5.303   1.744
 7755TIP3    H223230   2.144   5.244   1.882
 7756TIP3   OH223231   5.082   1.348   2.282
 7756TIP3    H123232   5.106   1.427   2.330
 7756TIP3    H223233   5.132   1.353   2.201
 7757TIP3   OH223234   6.663   5.603   3.516
 7757TIP3    H123235   6.581   5.629   3.473
 7757TIP3    H223236   6.648   5.620   3.609
 7758TIP3   OH223237   6.142   4.919   2.784
 7758TIP3    H123238   6.227   4.961   2.771
 7758TIP3    H223239   6.115   4.892   2.697
 7759TIP3   OH223240   0.243   0.281   4.114
 7759TIP3    H123241   0.313   0.347   4.114
 7759TIP3    H223242   0.283   0.204   4.074
 7760TIP3   OH223243   1.616   5.307   1.640
 7760TIP3    H123244   1.642   5.301   1.732
 7760TIP3    H223245   1.654   5.229   1.599
 7761TIP3   OH223246   1.041   5.517   3.021
 7761TIP3    H123247   0.988   5.456   2.969
 7761TIP3    H223248   1.102   5.554   2.958
 7762TIP3   OH223249   3.884   2.157   1.652
 7762TIP3    H123250   3.972   2.180   1.620
 7762TIP3    H223251   3.848   2.239   1.685
 7763TIP3   OH223252   0.716   1.657   1.398
 7763TIP3    H123253   0.649   1.697   1.343
 7763TIP3    H223254   0.679   1.573   1.424
 7764TIP3   OH223255   6.323   2.216   0.285
 7764TIP3    H123256   6.329   2.134   0.236
 7764TIP3    H223257   6.402   2.219   0.338
 7765TIP3   OH223258   4.676   2.623   0.475
 7765TIP3    H123259   4.625   2.583   0.405
 7765TIP3    H223260   4.612   2.637   0.546
 7766TIP3   OH223261   4.636   1.969   2.082
 7766TIP3    H123262   4.709   1.962   2.020
 7766TIP3    H223263   4.568   2.016   2.034
 7767TIP3   OH223264   6.785   6.070   1.663
 7767TIP3    H123265   6.751   6.121   1.736
 7767TIP3    H223266   6.832   6.133   1.609
 7768TIP3   OH223267   7.227   1.581   0.734
 7768TIP3    H123268   7.148   1.548   0.692
 7768TIP3    H223269   7.198   1.614   0.819
 7769TIP3   OH223270   4.432   1.581   3.266
 7769TIP3    H123271   4.342   1.611   3.254
 7769TIP3    H223272   4.461   1.555   3.178
 7770TIP3   OH223273   3.402   6.537   0.827
 7770TIP3    H123274   3.339   6.607   0.839
 7770TIP3    H223275   3.350   6.461   0.803
 7771TIP3   OH223276   6.434   5.198   3.899
 7771TIP3    H123277   6.421   5.105   3.879
 7771TIP3    H223278   6.416   5.243   3.817
 7772TIP3   OH223279   6.572   0.521   0.233
 7772TIP3    H123280   6.645   0.504   0.174
 7772TIP3    H223281   6.512   0.576   0.183
 7773TIP3   OH223282   6.331   0.890   2.826
 7773TIP3    H123283   6.409   0.890   2.881
 7773TIP3    H223284   6.321   0.981   2.798
 7774TIP3   OH223285   1.943   3.429   2.290
 7774TIP3    H123286   1.918   3.484   2.215
 7774TIP3    H223287   1.889   3.462   2.362
 7775TIP3   OH223288   0.936   6.287   4.774
 7775TIP3    H123289   0.880   6.250   4.843
 7775TIP3    H223290   1.013   6.231   4.773
 7776TIP3   OH223291   3.828   5.005   4.136
 7776TIP3    H123292   3.882   4.926   4.134
 7776TIP3    H223293   3.829   5.032   4.228
 7777TIP3   OH223294   7.121   3.793   3.672
 7777TIP3    H123295   7.108   3.779   3.766
 7777TIP3    H223296   7.158   3.882   3.666
 7778TIP3   OH223297   4.288   4.297   3.085
 7778TIP3    H123298   4.230   4.370   3.064
 7778TIP3    H223299   4.248   4.222   3.041
 7779TIP3   OH223300   6.881   3.395   3.837
 7779TIP3    H123301   6.896   3.407   3.743
 7779TIP3    H223302   6.959   3.348   3.867
 7780TIP3   OH223303   5.626   1.100   0.290
 7780TIP3    H123304   5.620   1.097   0.386
 7780TIP3    H223305   5.611   1.010   0.262
 7781TIP3   OH223306   2.569   4.724   3.926
 7781TIP3    H123307   2.474   4.718   3.923
 7781TIP3    H223308   2.589   4.740   4.018
 7782TIP3   OH223309   2.550   2.164   3.401
 7782TIP3    H123310   2.470   2.138   3.356
 7782TIP3    H223311   2.583   2.084   3.441
 7783TIP3   OH223312   3.592   3.352   2.253
 7783TIP3    H123313   3.605   3.360   2.158
 7783TIP3    H223314   3.546   3.268   2.263
 7784TIP3   OH223315   6.342   1.191   0.021
 7784TIP3    H123316   6.335   1.151   0.107
 7784TIP3    H223317   6.253   1.222   0.001
 7785TIP3   OH223318   3.001   2.302   4.066
 7785TIP3    H123319   2.915   2.266   4.085
 7785TIP3    H223320   3.003   2.313   3.971
 7786TIP3   OH223321   4.412   2.059   3.243
 7786TIP3    H123322   4.479   2.127   3.234
 7786TIP3    H223323   4.449   1.983   3.199
 7787TIP3   OH223324   1.809   3.605   1.821
 7787TIP3    H123325   1.876   3.596   1.754
 7787TIP3    H223326   1.729   3.573   1.779
 7788TIP3   OH223327   6.167   2.303   1.658
 7788TIP3    H123328   6.219   2.352   1.595
 7788TIP3    H223329   6.217   2.307   1.739
 7789TIP3   OH223330   1.226   2.819   2.282
 7789TIP3    H123331   1.238   2.830   2.376
 7789TIP3    H223332   1.131   2.813   2.271
 7790TIP3   OH223333   0.569   1.438   4.735
 7790TIP3    H123334   0.555   1.446   4.640
 7790TIP3    H223335   0.615   1.519   4.759
 7791TIP3   OH223336   5.127   0.292   1.996
 7791TIP3    H123337   5.134   0.386   1.984
 7791TIP3    H223338   5.218   0.262   2.006
 7792TIP3   OH223339   1.422   3.154   0.732
 7792TIP3    H123340   1.447   3.123   0.645
 7792TIP3    H223341   1.406   3.075   0.783
 7793TIP3   OH223342   4.874   6.164   4.638
 7793TIP3    H123343   4.860   6.189   4.547
 7793TIP3    H223344   4.969   6.158   4.647
 7794TIP3   OH223345   4.870   5.344   2.204
 7794TIP3    H123346   4.884   5.438   2.191
 7794TIP3    H223347   4.812   5.319   2.132
 7795TIP3   OH223348   5.682   5.096   4.041
 7795TIP3    H123349   5.656   5.134   3.957
 7795TIP3    H223350   5.669   5.166   4.104
 7796TIP3   OH223351   6.126   1.870   0.759
 7796TIP3    H123352   6.178   1.789   0.759
 7796TIP3    H223353   6.189   1.938   0.736
 7797TIP3   OH223354   7.214   4.503   0.781
 7797TIP3    H123355   7.274   4.433   0.809
 7797TIP3    H223356   7.127   4.468   0.801
 7798TIP3   OH223357   2.994   3.365   5.451
 7798TIP3    H123358   2.938   3.384   5.526
 7798TIP3    H223359   2.951   3.408   5.377
 7799TIP3   OH223360   3.626   4.791   2.104
 7799TIP3    H123361   3.671   4.732   2.164
 7799TIP3    H223362   3.680   4.870   2.104
 7800TIP3   OH223363   0.678   3.205   0.384
 7800TIP3    H123364   0.674   3.144   0.458
 7800TIP3    H223365   0.759   3.254   0.397
 7801TIP3   OH223366   0.312   6.604   1.716
 7801TIP3    H123367   0.360   6.561   1.645
 7801TIP3    H223368   0.376   6.610   1.788
 7802TIP3   OH223369   6.988   0.094   3.641
 7802TIP3    H123370   6.896   0.071   3.632
 7802TIP3    H223371   7.002   0.103   3.735
 7803TIP3   OH223372   1.479   5.866   3.459
 7803TIP3    H123373   1.520   5.835   3.539
 7803TIP3    H223374   1.509   5.804   3.392
 7804TIP3   OH223375   2.039   2.185   5.264
 7804TIP3    H123376   2.082   2.253   5.316
 7804TIP3    H223377   2.101   2.112   5.263
 7805TIP3   OH223378   4.148   3.574   3.621
 7805TIP3    H123379   4.139   3.620   3.704
 7805TIP3    H223380   4.111   3.487   3.637
 7806TIP3   OH223381   2.407   3.781   4.578
 7806TIP3    H123382   2.353   3.750   4.650
 7806TIP3    H223383   2.351   3.773   4.500
 7807TIP3   OH223384   2.174   5.540   0.210
 7807TIP3    H123385   2.258   5.549   0.256
 7807TIP3    H223386   2.192   5.569   0.121
 7808TIP3   OH223387   1.881   3.218   2.799
 7808TIP3    H123388   1.972   3.246   2.786
 7808TIP3    H223389   1.834   3.299   2.817
 7809TIP3   OH223390   5.610   3.295   4.922
 7809TIP3    H123391   5.578   3.323   4.836
 7809TIP3    H223392   5.696   3.335   4.930
 7810TIP3   OH223393   5.830   4.661   4.112
 7810TIP3    H123394   5.796   4.584   4.157
 7810TIP3    H223395   5.759   4.725   4.117
 7811TIP3   OH223396   6.856   1.081   2.841
 7811TIP3    H123397   6.816   1.100   2.756
 7811TIP3    H223398   6.836   1.158   2.894
 7812TIP3   OH223399   3.738   5.227   0.302
 7812TIP3    H123400   3.692   5.182   0.230
 7812TIP3    H223401   3.829   5.231   0.273
 7813TIP3   OH223402   3.724   6.455   0.344
 7813TIP3    H123403   3.680   6.436   0.427
 7813TIP3    H223404   3.813   6.478   0.369
 7814TIP3   OH223405   6.454   0.103   1.005
 7814TIP3    H123406   6.544   0.076   0.988
 7814TIP3    H223407   6.405   0.021   1.011
 7815TIP3   OH223408   2.934   3.683   1.438
 7815TIP3    H123409   2.886   3.608   1.402
 7815TIP3    H223410   2.979   3.721   1.364
 7816TIP3   OH223411   0.241   4.356   3.317
 7816TIP3    H123412   0.168   4.329   3.260
 7816TIP3    H223413   0.206   4.351   3.405
 7817TIP3   OH223414   7.115   0.781   0.664
 7817TIP3    H123415   7.068   0.828   0.596
 7817TIP3    H223416   7.069   0.698   0.672
 7818TIP3   OH223417   3.231   0.947   2.517
 7818TIP3    H123418   3.265   0.884   2.454
 7818TIP3    H223419   3.153   0.983   2.475
 7819TIP3   OH223420   4.389   6.094   2.246
 7819TIP3    H123421   4.355   6.141   2.171
 7819TIP3    H223422   4.322   6.102   2.313
 7820TIP3   OH223423   5.139   4.025   0.382
 7820TIP3    H123424   5.092   4.095   0.338
 7820TIP3    H223425   5.159   4.060   0.469
 7821TIP3   OH223426   2.085   4.018   5.871
 7821TIP3    H123427   2.141   4.086   5.834
 7821TIP3    H223428   2.006   4.064   5.899
 7822TIP3   OH223429   6.614   0.734   4.068
 7822TIP3    H123430   6.546   0.725   4.002
 7822TIP3    H223431   6.697   0.730   4.019
 7823TIP3   OH223432   0.129   1.537   4.991
 7823TIP3    H123433   0.174   1.490   4.921
 7823TIP3    H223434   0.053   1.482   5.011
 7824TIP3   OH223435   3.841   2.919   0.553
 7824TIP3    H123436   3.882   2.852   0.607
 7824TIP3    H223437   3.821   2.990   0.613
 7825TIP3   OH223438   0.536   2.208   5.142
 7825TIP3    H123439   0.505   2.287   5.098
 7825TIP3    H223440   0.469   2.190   5.208
 7826TIP3   OH223441   1.931   2.715   4.696
 7826TIP3    H123442   1.912   2.640   4.639
 7826TIP3    H223443   1.988   2.771   4.644
 7827TIP3   OH223444   1.198   6.754   1.535
 7827TIP3    H123445   1.138   6.736   1.607
 7827TIP3    H223446   1.208   6.849   1.536
 7828TIP3   OH223447   4.495   2.796   5.288
 7828TIP3    H123448   4.511   2.882   5.327
 7828TIP3    H223449   4.414   2.766   5.330
 7829TIP3   OH223450   6.895   1.951   2.120
 7829TIP3    H123451   6.901   1.884   2.052
 7829TIP3    H223452   6.946   1.916   2.193
 7830TIP3   OH223453   6.894   4.458   0.196
 7830TIP3    H123454   6.866   4.528   0.136
 7830TIP3    H223455   6.822   4.451   0.259
 7831TIP3   OH223456   3.136   4.576   3.649
 7831TIP3    H123457   3.160   4.641   3.716
 7831TIP3    H223458   3.063   4.528   3.688
 7832TIP3   OH223459   1.118   2.624   0.639
 7832TIP3    H123460   1.092   2.579   0.559
 7832TIP3    H223461   1.141   2.554   0.700
 7833TIP3   OH223462   0.436   3.911   3.985
 7833TIP3    H123463   0.350   3.915   4.027
 7833TIP3    H223464   0.498   3.934   4.054
 7834TIP3   OH223465   5.993   4.703   0.696
 7834TIP3    H123466   6.073   4.711   0.748
 7834TIP3    H223467   5.940   4.778   0.723
 7835TIP3   OH223468   3.455   6.244   3.423
 7835TIP3    H123469   3.516   6.314   3.400
 7835TIP3    H223470   3.468   6.177   3.356
 7836TIP3   OH223471   1.598   6.255   4.788
 7836TIP3    H123472   1.630   6.203   4.714
 7836TIP3    H223473   1.597   6.345   4.755
 7837TIP3   OH223474   1.796   2.853   4.156
 7837TIP3    H123475   1.762   2.802   4.229
 7837TIP3    H223476   1.866   2.906   4.195
 7838TIP3   OH223477   1.985   5.186   3.260
 7838TIP3    H123478   1.920   5.251   3.287
 7838TIP3    H223479   2.013   5.144   3.341
 7839TIP3   OH223480   0.733   0.639   1.881
 7839TIP3    H123481   0.809   0.656   1.825
 7839TIP3    H223482   0.718   0.545   1.872
 7840TIP3   OH223483   4.190   0.699   1.649
 7840TIP3    H123484   4.154   0.783   1.621
 7840TIP3    H223485   4.151   0.684   1.735
 7841TIP3   OH223486   4.252   3.190   3.612
 7841TIP3    H123487   4.256   3.254   3.684
 7841TIP3    H223488   4.232   3.242   3.535
 7842TIP3   OH223489   5.390   0.334   3.122
 7842TIP3    H123490   5.440   0.299   3.196
 7842TIP3    H223491   5.451   0.332   3.048
 7843TIP3   OH223492   3.872   6.351  -0.024
 7843TIP3    H123493   3.848   6.443  -0.010
 7843TIP3    H223494   3.835   6.304   0.051
 7844TIP3   OH223495   6.107   2.814   0.335
 7844TIP3    H123496   6.132   2.851   0.250
 7844TIP3    H223497   6.036   2.753   0.314
 7845TIP3   OH223498   2.221   4.177   3.703
 7845TIP3    H123499   2.255   4.203   3.788
 7845TIP3    H223500   2.126   4.187   3.710
 7846TIP3   OH223501   5.840   1.923   2.482
 7846TIP3    H123502   5.830   1.996   2.544
 7846TIP3    H223503   5.934   1.906   2.480
 7847TIP3   OH223504   0.927   1.700   1.174
 7847TIP3    H123505   0.887   1.717   1.259
 7847TIP3    H223506   0.853   1.698   1.113
 7848TIP3   OH223507   4.972   6.130   2.117
 7848TIP3    H123508   4.931   6.118   2.203
 7848TIP3    H223509   4.973   6.042   2.080
 7849TIP3   OH223510   5.256   6.635   1.944
 7849TIP3    H123511   5.281   6.715   1.899
 7849TIP3    H223512   5.167   6.652   1.977
 7850TIP3   OH223513   5.907   5.401   4.444
 7850TIP3    H123514   5.906   5.495   4.462
 7850TIP3    H223515   5.937   5.362   4.526
 7851TIP3   OH223516   4.947   3.881   4.292
 7851TIP3    H123517   4.908   3.866   4.206
 7851TIP3    H223518   4.947   3.794   4.334
 7852TIP3   OH223519   2.339   4.574   3.101
 7852TIP3    H123520   2.278   4.508   3.133
 7852TIP3    H223521   2.420   4.527   3.086
 7853TIP3   OH223522   1.863   5.365   4.180
 7853TIP3    H123523   1.877   5.317   4.098
 7853TIP3    H223524   1.811   5.306   4.234
 7854TIP3   OH223525   5.774   0.166   4.292
 7854TIP3    H123526   5.803   0.216   4.215
 7854TIP3    H223527   5.691   0.207   4.317
 7855TIP3   OH223528   5.870   3.328   5.019
 7855TIP3    H123529   5.903   3.418   5.016
 7855TIP3    H223530   5.928   3.282   5.079
 7856TIP3   OH223531   0.708   6.455   5.718
 7856TIP3    H123532   0.752   6.371   5.705
 7856TIP3    H223533   0.778   6.520   5.707
 7857TIP3   OH223534   4.237   3.169   0.788
 7857TIP3    H123535   4.250   3.081   0.753
 7857TIP3    H223536   4.307   3.180   0.852
 7858TIP3   OH223537   3.440   1.038   0.395
 7858TIP3    H123538   3.469   1.105   0.334
 7858TIP3    H223539   3.344   1.039   0.387
 7859TIP3   OH223540   2.716   3.560   2.752
 7859TIP3    H123541   2.658   3.506   2.806
 7859TIP3    H223542   2.773   3.498   2.708
 7860TIP3   OH223543   1.728   3.244   2.313
 7860TIP3    H123544   1.687   3.279   2.234
 7860TIP3    H223545   1.806   3.298   2.326
 7861TIP3   OH223546   5.206   6.527   3.342
 7861TIP3    H123547   5.114   6.511   3.318
 7861TIP3    H223548   5.215   6.485   3.428
 7862TIP3   OH223549   5.833   0.884   2.005
 7862TIP3    H123550   5.746   0.916   1.983
 7862TIP3    H223551   5.818   0.803   2.053
 7863TIP3   OH223552   2.874   3.779   2.659
 7863TIP3    H123553   2.842   3.805   2.573
 7863TIP3    H223554   2.819   3.705   2.684
 7864TIP3   OH223555   5.134   0.260   0.772
 7864TIP3    H123556   5.188   0.265   0.851
 7864TIP3    H223557   5.165   0.332   0.717
 7865TIP3   OH223558   3.121   6.355   5.756
 7865TIP3    H123559   3.188   6.378   5.692
 7865TIP3    H223560   3.148   6.398   5.837
 7866TIP3   OH223561   0.506   3.546   0.493
 7866TIP3    H123562   0.554   3.563   0.412
 7866TIP3    H223563   0.544   3.607   0.556
 7867TIP3   OH223564   2.119   6.758   2.067
 7867TIP3    H123565   2.047   6.719   2.016
 7867TIP3    H223566   2.182   6.786   2.001
 7868TIP3   OH223567   3.811   5.284   3.693
 7868TIP3    H123568   3.858   5.209   3.729
 7868TIP3    H223569   3.845   5.359   3.741
 7869TIP3   OH223570   3.644   4.111   3.890
 7869TIP3    H123571   3.603   4.068   3.814
 7869TIP3    H223572   3.639   4.204   3.870
 7870TIP3   OH223573   6.954   5.007   1.186
 7870TIP3    H123574   7.038   4.964   1.173
 7870TIP3    H223575   6.900   4.943   1.231
 7871TIP3   OH223576   2.878   6.111   2.582
 7871TIP3    H123577   2.933   6.101   2.660
 7871TIP3    H223578   2.828   6.029   2.577
 7872TIP3   OH223579   3.009   5.754   2.758
 7872TIP3    H123580   3.048   5.733   2.843
 7872TIP3    H223581   2.946   5.823   2.778
 7873TIP3   OH223582   2.692   2.841   2.963
 7873TIP3    H123583   2.754   2.861   3.032
 7873TIP3    H223584   2.681   2.746   2.966
 7874TIP3   OH223585   2.560   1.016   0.274
 7874TIP3    H123586   2.510   1.031   0.354
 7874TIP3    H223587   2.633   0.961   0.301
 7875TIP3   OH223588   0.456   4.500   2.386
 7875TIP3    H123589   0.399   4.472   2.459
 7875TIP3    H223590   0.540   4.519   2.427
 7876TIP3   OH223591   6.998   2.473   5.126
 7876TIP3    H123592   7.034   2.512   5.206
 7876TIP3    H223593   7.053   2.509   5.056
 7877TIP3   OH223594   0.257   4.091   5.182
 7877TIP3    H123595   0.344   4.059   5.205
 7877TIP3    H223596   0.211   4.100   5.266
 7878TIP3   OH223597   4.845   0.640   1.910
 7878TIP3    H123598   4.845   0.732   1.884
 7878TIP3    H223599   4.935   0.621   1.934
 7879TIP3   OH223600   2.431   1.957   3.220
 7879TIP3    H123601   2.474   1.875   3.195
 7879TIP3    H223602   2.404   1.944   3.311
 7880TIP3   OH223603   5.191   4.592   4.142
 7880TIP3    H123604   5.209   4.599   4.236
 7880TIP3    H223605   5.211   4.678   4.107
 7881TIP3   OH223606   3.605   3.483   1.404
 7881TIP3    H123607   3.551   3.498   1.326
 7881TIP3    H223608   3.559   3.529   1.474
 7882TIP3   OH223609   6.245   3.847   3.526
 7882TIP3    H123610   6.166   3.873   3.480
 7882TIP3    H223611   6.219   3.770   3.577
 7883TIP3   OH223612   2.696   5.011   0.351
 7883TIP3    H123613   2.741   4.944   0.298
 7883TIP3    H223614   2.689   5.086   0.292
 7884TIP3   OH223615   4.613   0.690   1.745
 7884TIP3    H123616   4.701   0.724   1.763
 7884TIP3    H223617   4.575   0.752   1.683
 7885TIP3   OH223618   2.662   2.199   3.775
 7885TIP3    H123619   2.709   2.203   3.692
 7885TIP3    H223620   2.570   2.207   3.750
 7886TIP3   OH223621   0.624   5.307   2.951
 7886TIP3    H123622   0.617   5.330   3.044
 7886TIP3    H223623   0.538   5.271   2.929
 7887TIP3   OH223624   5.559   6.585   5.448
 7887TIP3    H123625   5.473   6.541   5.447
 7887TIP3    H223626   5.538   6.678   5.440
 7888TIP3   OH223627   0.138   6.373   1.744
 7888TIP3    H123628   0.147   6.351   1.837
 7888TIP3    H223629   0.189   6.454   1.734
 7889TIP3   OH223630   3.321   5.199   2.679
 7889TIP3    H123631   3.236   5.232   2.652
 7889TIP3    H223632   3.318   5.105   2.660
 7890TIP3   OH223633   2.220   3.138   0.634
 7890TIP3    H123634   2.258   3.226   0.635
 7890TIP3    H223635   2.127   3.151   0.652
 7891TIP3   OH223636   0.847   3.057   2.613
 7891TIP3    H123637   0.941   3.066   2.628
 7891TIP3    H223638   0.826   2.968   2.639
 7892TIP3   OH223639   5.676   1.665   2.674
 7892TIP3    H123640   5.690   1.759   2.660
 7892TIP3    H223641   5.738   1.641   2.743
 7893TIP3   OH223642   0.989   2.710   1.487
 7893TIP3    H123643   0.914   2.765   1.511
 7893TIP3    H223644   1.062   2.771   1.476
 7894TIP3   OH223645   6.694   1.829   1.020
 7894TIP3    H123646   6.638   1.881   1.077
 7894TIP3    H223647   6.728   1.759   1.076
 7895TIP3   OH223648   3.497   3.506   1.150
 7895TIP3    H123649   3.502   3.601   1.134
 7895TIP3    H223650   3.403   3.487   1.145
 7896TIP3   OH223651   5.893   6.666   4.753
 7896TIP3    H123652   5.884   6.675   4.659
 7896TIP3    H223653   5.879   6.572   4.770
 7897TIP3   OH223654   0.816   5.632   4.988
 7897TIP3    H123655   0.852   5.545   4.971
 7897TIP3    H223656   0.727   5.615   5.021
 7898TIP3   OH223657   2.786   5.930   5.400
 7898TIP3    H123658   2.772   6.004   5.459
 7898TIP3    H223659   2.846   5.963   5.333
 7899TIP3   OH223660   5.942   0.962   3.990
 7899TIP3    H123661   5.919   0.919   4.072
 7899TIP3    H223662   5.888   1.041   3.988
 7900TIP3   OH223663   1.495   6.801   5.005
 7900TIP3    H123664   1.563   6.835   5.063
 7900TIP3    H223665   1.515   6.708   4.997
 7901TIP3   OH223666   1.588   2.371   3.176
 7901TIP3    H123667   1.664   2.426   3.155
 7901TIP3    H223668   1.616   2.321   3.253
 7902TIP3   OH223669   0.342   4.174   1.569
 7902TIP3    H123670   0.378   4.201   1.484
 7902TIP3    H223671   0.388   4.228   1.633
 7903TIP3   OH223672   2.310   2.018   0.904
 7903TIP3    H123673   2.400   2.049   0.901
 7903TIP3    H223674   2.317   1.924   0.919
 7904TIP3   OH223675   1.605   1.099   4.724
 7904TIP3    H123676   1.554   1.180   4.732
 7904TIP3    H223677   1.548   1.032   4.762
 7905TIP3   OH223678   5.495   4.134   5.444
 7905TIP3    H123679   5.514   4.045   5.413
 7905TIP3    H223680   5.541   4.191   5.383
 7906TIP3   OH223681   3.857   1.777   5.041
 7906TIP3    H123682   3.832   1.861   5.002
 7906TIP3    H223683   3.893   1.800   5.126
 7907TIP3   OH223684   5.563   1.589   3.563
 7907TIP3    H123685   5.473   1.620   3.561
 7907TIP3    H223686   5.558   1.504   3.606
 7908TIP3   OH223687   6.205   1.722   1.122
 7908TIP3    H123688   6.152   1.794   1.154
 7908TIP3    H223689   6.277   1.764   1.075
 7909TIP3   OH223690   2.931   1.436   0.978
 7909TIP3    H123691   2.943   1.515   1.030
 7909TIP3    H223692   2.867   1.384   1.027
 7910TIP3   OH223693   4.574   2.293   3.263
 7910TIP3    H123694   4.643   2.358   3.278
 7910TIP3    H223695   4.574   2.281   3.168
 7911TIP3   OH223696   4.861   2.561   0.234
 7911TIP3    H123697   4.925   2.569   0.305
 7911TIP3    H223698   4.896   2.492   0.178
 7912TIP3   OH223699   2.549   3.554   3.084
 7912TIP3    H123700   2.633   3.597   3.074
 7912TIP3    H223701   2.559   3.499   3.162
 7913TIP3   OH223702   5.991   2.993   1.062
 7913TIP3    H123703   6.023   2.996   1.152
 7913TIP3    H223704   6.068   2.975   1.009
 7914TIP3   OH223705   1.909   4.693   3.294
 7914TIP3    H123706   1.973   4.700   3.223
 7914TIP3    H223707   1.926   4.768   3.350
 7915TIP3   OH223708   0.946   2.214   5.869
 7915TIP3    H123709   0.886   2.248   5.802
 7915TIP3    H223710   0.892   2.154   5.920
 7916TIP3   OH223711   3.889   3.499   4.633
 7916TIP3    H123712   3.976   3.477   4.667
 7916TIP3    H223713   3.858   3.419   4.592
 7917TIP3   OH223714   4.894   6.395   5.627
 7917TIP3    H123715   4.820   6.378   5.569
 7917TIP3    H223716   4.863   6.464   5.686
 7918TIP3   OH223717   5.714   5.800   0.352
 7918TIP3    H123718   5.784   5.737   0.369
 7918TIP3    H223719   5.664   5.802   0.434
 7919TIP3   OH223720   1.976   1.570   4.012
 7919TIP3    H123721   1.963   1.651   4.060
 7919TIP3    H223722   1.929   1.584   3.929
 7920TIP3   OH223723   0.867   4.966   3.845
 7920TIP3    H123724   0.957   4.954   3.875
 7920TIP3    H223725   0.830   5.029   3.907
 7921TIP3   OH223726   5.423   6.461   0.055
 7921TIP3    H123727   5.437   6.399  -0.016
 7921TIP3    H223728   5.333   6.491   0.043
 7922TIP3   OH223729   2.091   0.636   3.029
 7922TIP3    H123730   2.022   0.698   3.003
 7922TIP3    H223731   2.105   0.582   2.951
 7923TIP3   OH223732   1.281   2.492   1.375
 7923TIP3    H123733   1.242   2.426   1.318
 7923TIP3    H223734   1.303   2.565   1.316
 7924TIP3   OH223735   4.846   1.203   1.787
 7924TIP3    H123736   4.833   1.277   1.846
 7924TIP3    H223737   4.941   1.189   1.786
 7925TIP3   OH223738   7.026   5.978   3.788
 7925TIP3    H123739   6.935   5.954   3.806
 7925TIP3    H223740   7.064   5.900   3.748
 7926TIP3   OH223741   3.980   6.147   3.693
 7926TIP3    H123742   3.905   6.162   3.751
 7926TIP3    H223743   4.003   6.234   3.661
 7927TIP3   OH223744   6.844   5.807   3.903
 7927TIP3    H123745   6.870   5.788   3.994
 7927TIP3    H223746   6.891   5.742   3.851
 7928TIP3   OH223747   4.577   1.199   1.843
 7928TIP3    H123748   4.666   1.165   1.840
 7928TIP3    H223749   4.533   1.144   1.908
 7929TIP3   OH223750   1.051   2.055   5.662
 7929TIP3    H123751   0.961   2.034   5.635
 7929TIP3    H223752   1.042   2.132   5.718
 7930TIP3   OH223753   3.842   3.459   1.552
 7930TIP3    H123754   3.759   3.499   1.526
 7930TIP3    H223755   3.850   3.382   1.496
 7931TIP3   OH223756   2.803   5.954   5.682
 7931TIP3    H123757   2.743   5.880   5.687
 7931TIP3    H223758   2.746   6.029   5.665
 7932TIP3   OH223759   5.288   6.121   3.408
 7932TIP3    H123760   5.288   6.193   3.472
 7932TIP3    H223761   5.208   6.072   3.427
 7933TIP3   OH223762   1.713   0.751   3.904
 7933TIP3    H123763   1.710   0.660   3.933
 7933TIP3    H223764   1.680   0.801   3.978
 7934TIP3   OH223765   4.946   3.748   4.060
 7934TIP3    H123766   5.029   3.710   4.032
 7934TIP3    H223767   4.880   3.696   4.014
 7935TIP3   OH223768   2.293   2.588   0.018
 7935TIP3    H123769   2.279   2.611   0.110
 7935TIP3    H223770   2.251   2.503   0.008
 7936TIP3   OH223771   3.499   3.563   0.394
 7936TIP3    H123772   3.531   3.477   0.365
 7936TIP3    H223773   3.561   3.590   0.461
 7937TIP3   OH223774   6.582   4.580   4.527
 7937TIP3    H123775   6.603   4.641   4.456
 7937TIP3    H223776   6.662   4.576   4.580
 7938TIP3   OH223777   5.969   3.863   3.992
 7938TIP3    H123778   6.008   3.778   4.009
 7938TIP3    H223779   5.963   3.904   4.079
 7939TIP3   OH223780   3.585   4.982   3.126
 7939TIP3    H123781   3.594   4.890   3.152
 7939TIP3    H223782   3.589   4.981   3.031
 7940TIP3   OH223783   0.947   1.099   4.914
 7940TIP3    H123784   0.931   1.193   4.906
 7940TIP3    H223785   1.010   1.092   4.986
 7941TIP3   OH223786   6.773   2.183   4.563
 7941TIP3    H123787   6.829   2.170   4.640
 7941TIP3    H223788   6.780   2.101   4.514
 7942TIP3   OH223789   6.377   6.469   3.061
 7942TIP3    H123790   6.320   6.477   3.138
 7942TIP3    H223791   6.441   6.540   3.070
 7943TIP3   OH223792   4.860   6.166   3.795
 7943TIP3    H123793   4.857   6.157   3.890
 7943TIP3    H223794   4.838   6.258   3.779
 7944TIP3   OH223795   0.177   4.536   3.793
 7944TIP3    H123796   0.244   4.571   3.851
 7944TIP3    H223797   0.135   4.613   3.754
 7945TIP3   OH223798   6.055   6.305   5.308
 7945TIP3    H123799   6.046   6.219   5.349
 7945TIP3    H223800   5.998   6.362   5.360
 7946TIP3   OH223801   2.371   0.628   5.018
 7946TIP3    H123802   2.351   0.536   5.033
 7946TIP3    H223803   2.447   0.627   4.959
 7947TIP3   OH223804   1.812   3.745   3.671
 7947TIP3    H123805   1.862   3.701   3.740
 7947TIP3    H223806   1.852   3.832   3.664
 7948TIP3   OH223807   7.116   4.507   3.122
 7948TIP3    H123808   7.141   4.599   3.114
 7948TIP3    H223809   7.191   4.459   3.085
 7949TIP3   OH223810   3.628   1.046   1.023
 7949TIP3    H123811   3.643   1.030   0.930
 7949TIP3    H223812   3.581   1.129   1.026
 7950TIP3   OH223813   5.726   2.815   0.053
 7950TIP3    H123814   5.730   2.821  -0.042
 7950TIP3    H223815   5.722   2.906   0.083
 7951TIP3   OH223816   3.788   1.705   3.233
 7951TIP3    H123817   3.706   1.697   3.283
 7951TIP3    H223818   3.781   1.790   3.190
 7952TIP3   OH223819   6.750   3.388   0.958
 7952TIP3    H123820   6.752   3.404   0.863
 7952TIP3    H223821   6.842   3.371   0.980
 7953TIP3   OH223822   3.666   0.775   1.117
 7953TIP3    H123823   3.706   0.717   1.052
 7953TIP3    H223824   3.622   0.842   1.065
 7954TIP3   OH223825   6.829   6.661   4.792
 7954TIP3    H123826   6.820   6.587   4.853
 7954TIP3    H223827   6.739   6.681   4.765
 7955TIP3   OH223828   4.785   0.971   1.303
 7955TIP3    H123829   4.847   0.935   1.367
 7955TIP3    H223830   4.768   0.898   1.243
 7956TIP3   OH223831   5.300   5.765   2.424
 7956TIP3    H123832   5.282   5.703   2.495
 7956TIP3    H223833   5.285   5.851   2.463
 7957TIP3   OH223834   5.575   5.758   4.883
 7957TIP3    H123835   5.480   5.754   4.875
 7957TIP3    H223836   5.591   5.838   4.934
 7958TIP3   OH223837   6.413   6.426   3.885
 7958TIP3    H123838   6.390   6.358   3.822
 7958TIP3    H223839   6.345   6.492   3.875
 7959TIP3   OH223840   6.927   6.127   5.657
 7959TIP3    H123841   6.914   6.203   5.600
 7959TIP3    H223842   6.859   6.065   5.630
 7960TIP3   OH223843   2.416   4.533   5.308
 7960TIP3    H123844   2.443   4.543   5.400
 7960TIP3    H223845   2.353   4.461   5.309
 7961TIP3   OH223846   5.262   1.315   4.916
 7961TIP3    H123847   5.184   1.303   4.970
 7961TIP3    H223848   5.250   1.252   4.844
 7962TIP3   OH223849   2.296   1.535   4.958
 7962TIP3    H123850   2.234   1.590   4.911
 7962TIP3    H223851   2.373   1.591   4.970
 7963TIP3   OH223852   5.351   4.240   3.246
 7963TIP3    H123853   5.338   4.238   3.341
 7963TIP3    H223854   5.299   4.315   3.216
 7964TIP3   OH223855   5.742   2.233   4.541
 7964TIP3    H123856   5.699   2.169   4.483
 7964TIP3    H223857   5.834   2.231   4.515
 7965TIP3   OH223858   0.184   0.423   0.234
 7965TIP3    H123859   0.137   0.358   0.287
 7965TIP3    H223860   0.132   0.431   0.154
 7966TIP3   OH223861   6.411   0.086   2.732
 7966TIP3    H123862   6.418   0.153   2.663
 7966TIP3    H223863   6.369   0.132   2.805
 7967TIP3   OH223864   1.460   1.737   4.717
 7967TIP3    H123865   1.402   1.803   4.754
 7967TIP3    H223866   1.411   1.700   4.644
 7968TIP3   OH223867   5.341   4.034   5.103
 7968TIP3    H123868   5.286   4.109   5.082
 7968TIP3    H223869   5.428   4.072   5.116
 7969TIP3   OH223870   2.001   4.928   1.002
 7969TIP3    H123871   1.911   4.958   1.012
 7969TIP3    H223872   1.993   4.834   0.987
 7970TIP3   OH223873   6.537   4.248   1.724
 7970TIP3    H123874   6.444   4.272   1.721
 7970TIP3    H223875   6.580   4.310   1.667
 7971TIP3   OH223876   1.238   5.094   4.195
 7971TIP3    H123877   1.210   5.081   4.285
 7971TIP3    H223878   1.302   5.024   4.179
 7972TIP3   OH223879   1.134   3.522   3.428
 7972TIP3    H123880   1.120   3.610   3.393
 7972TIP3    H223881   1.205   3.532   3.493
 7973TIP3   OH223882   5.085   1.442   5.364
 7973TIP3    H123883   5.102   1.392   5.444
 7973TIP3    H223884   5.117   1.386   5.293
 7974TIP3   OH223885   5.361   0.140   1.335
 7974TIP3    H123886   5.409   0.148   1.417
 7974TIP3    H223887   5.288   0.201   1.343
 7975TIP3   OH223888   7.161   4.917   3.893
 7975TIP3    H123889   7.211   4.910   3.975
 7975TIP3    H223890   7.070   4.908   3.920
 7976TIP3   OH223891   0.802   3.047   0.640
 7976TIP3    H123892   0.762   2.967   0.674
 7976TIP3    H223893   0.872   3.067   0.702
 7977TIP3   OH223894   2.685   0.048   4.332
 7977TIP3    H123895   2.757   0.045   4.269
 7977TIP3    H223896   2.622  -0.017   4.299
 7978TIP3   OH223897   4.439   1.845   3.067
 7978TIP3    H123898   4.377   1.838   2.995
 7978TIP3    H223899   4.515   1.793   3.040
 7979TIP3   OH223900   1.882   0.245   3.008
 7979TIP3    H123901   1.878   0.230   3.103
 7979TIP3    H223902   1.973   0.223   2.985
 7980TIP3   OH223903   2.662   5.109   2.971
 7980TIP3    H123904   2.614   5.184   2.936
 7980TIP3    H223905   2.663   5.046   2.898
 7981TIP3   OH223906   5.035   5.237   4.247
 7981TIP3    H123907   5.101   5.230   4.317
 7981TIP3    H223908   4.956   5.200   4.285
 7982TIP3   OH223909   1.683   0.565   3.098
 7982TIP3    H123910   1.657   0.655   3.117
 7982TIP3    H223911   1.732   0.538   3.176
 7983TIP3   OH223912   5.014   2.616   3.699
 7983TIP3    H123913   5.034   2.688   3.759
 7983TIP3    H223914   4.995   2.542   3.757
 7984TIP3   OH223915   4.689   4.126   0.350
 7984TIP3    H123916   4.685   4.031   0.356
 7984TIP3    H223917   4.695   4.144   0.256
 7985TIP3   OH223918   3.683   3.687   2.747
 7985TIP3    H123919   3.699   3.779   2.768
 7985TIP3    H223920   3.678   3.643   2.832
 7986TIP3   OH223921   0.958   2.936   2.923
 7986TIP3    H123922   1.009   2.953   2.844
 7986TIP3    H223923   0.993   2.997   2.987
 7987TIP3   OH223924   3.399   6.144   1.320
 7987TIP3    H123925   3.443   6.108   1.397
 7987TIP3    H223926   3.306   6.131   1.337
 7988TIP3   OH223927   2.107   6.107   5.641
 7988TIP3    H123928   2.171   6.136   5.575
 7988TIP3    H223929   2.027   6.154   5.619
 7989TIP3   OH223930   3.976   6.464   1.779
 7989TIP3    H123931   3.967   6.420   1.863
 7989TIP3    H223932   3.898   6.439   1.730
 7990TIP3   OH223933   1.387   0.786   2.408
 7990TIP3    H123934   1.424   0.863   2.451
 7990TIP3    H223935   1.464   0.732   2.386
 7991TIP3   OH223936   1.720   1.531   3.509
 7991TIP3    H123937   1.790   1.588   3.478
 7991TIP3    H223938   1.761   1.445   3.517
 7992TIP3   OH223939   4.441   2.419   1.238
 7992TIP3    H123940   4.478   2.405   1.325
 7992TIP3    H223941   4.477   2.503   1.211
 7993TIP3   OH223942   0.154   0.044   3.721
 7993TIP3    H123943   0.114   0.123   3.759
 7993TIP3    H223944   0.090   0.014   3.657
 7994TIP3   OH223945   0.800   2.164   1.040
 7994TIP3    H123946   0.822   2.241   1.092
 7994TIP3    H223947   0.741   2.114   1.095
 7995TIP3   OH223948   1.254   2.844   3.941
 7995TIP3    H123949   1.288   2.930   3.966
 7995TIP3    H223950   1.312   2.815   3.871
 7996TIP3   OH223951   5.958   2.983   3.416
 7996TIP3    H123952   6.008   3.065   3.417
 7996TIP3    H223953   5.878   3.005   3.368
 7997TIP3   OH223954   1.323   4.600   0.965
 7997TIP3    H123955   1.273   4.528   0.927
 7997TIP3    H223956   1.352   4.651   0.889
 7998TIP3   OH223957   3.548   0.369   3.614
 7998TIP3    H123958   3.596   0.309   3.555
 7998TIP3    H223959   3.600   0.449   3.613
 7999TIP3   OH223960   0.043   5.257   5.147
 7999TIP3    H123961   0.052   5.343   5.107
 7999TIP3    H223962   0.046   5.274   5.242
 8000TIP3   OH223963   5.103   5.499   5.767
 8000TIP3    H123964   5.098   5.507   5.862
 8000TIP3    H223965   5.192   5.526   5.745
 8001TIP3   OH223966   5.652   2.662   1.204
 8001TIP3    H123967   5.674   2.710   1.124
 8001TIP3    H223968   5.713   2.588   1.205
 8002TIP3   OH223969   1.057   0.273   3.770
 8002TIP3    H123970   1.095   0.185   3.775
 8002TIP3    H223971   1.113   0.319   3.707
 8003TIP3   OH223972   5.090   5.170   2.146
 8003TIP3    H123973   5.112   5.145   2.235
 8003TIP3    H223974   5.031   5.245   2.156
 8004TIP3   OH223975   4.622   4.307   3.907
 8004TIP3    H123976   4.608   4.382   3.966
 8004TIP3    H223977   4.553   4.314   3.842
 8005TIP3   OH223978   1.589   1.730   3.938
 8005TIP3    H123979   1.660   1.692   3.887
 8005TIP3    H223980   1.528   1.658   3.952
 8006TIP3   OH223981   2.614   4.505   3.374
 8006TIP3    H123982   2.586   4.454   3.298
 8006TIP3    H223983   2.603   4.596   3.347
 8007TIP3   OH223984   3.747   0.383   0.674
 8007TIP3    H123985   3.708   0.319   0.734
 8007TIP3    H223986   3.840   0.382   0.696
 8008TIP3   OH223987   1.708   2.403   2.807
 8008TIP3    H123988   1.618   2.435   2.796
 8008TIP3    H223989   1.744   2.400   2.719
 8009TIP3   OH223990   3.683   1.660   2.434
 8009TIP3    H123991   3.681   1.565   2.424
 8009TIP3    H223992   3.773   1.684   2.415
 8010TIP3   OH223993   5.121   6.075   4.508
 8010TIP3    H123994   5.158   6.148   4.458
 8010TIP3    H223995   5.170   6.076   4.591
 8011TIP3   OH223996   0.950   1.689   2.958
 8011TIP3    H123997   1.005   1.705   2.881
 8011TIP3    H223998   0.883   1.627   2.928
 8012TIP3   OH223999   4.088   4.590   1.338
 8012TIP3    H124000   4.014   4.542   1.373
 8012TIP3    H224001   4.063   4.682   1.345
 8013TIP3   OH224002   3.162   2.195   0.954
 8013TIP3    H124003   3.175   2.128   1.021
 8013TIP3    H224004   3.195   2.275   0.994
 8014TIP3   OH224005   0.528   5.808   4.678
 8014TIP3    H124006   0.513   5.804   4.583
 8014TIP3    H224007   0.451   5.767   4.716
 8015TIP3   OH224008   0.446   2.369   2.325
 8015TIP3    H124009   0.429   2.279   2.295
 8015TIP3    H224010   0.359   2.409   2.329
 8016TIP3   OH224011   6.546   4.820   3.125
 8016TIP3    H124012   6.467   4.871   3.143
 8016TIP3    H224013   6.617   4.884   3.131
 8017TIP3   OH224014   3.194   3.252   3.496
 8017TIP3    H124015   3.283   3.285   3.506
 8017TIP3    H224016   3.203   3.156   3.501
 8018TIP3   OH224017   4.833   6.612   2.841
 8018TIP3    H124018   4.884   6.532   2.825
 8018TIP3    H224019   4.755   6.601   2.786
 8019TIP3   OH224020   3.751   4.098   4.778
 8019TIP3    H124021   3.828   4.150   4.802
 8019TIP3    H224022   3.724   4.056   4.860
 8020TIP3   OH224023   0.249   0.852   2.447
 8020TIP3    H124024   0.158   0.834   2.425
 8020TIP3    H224025   0.247   0.941   2.484
 8021TIP3   OH224026   5.580   5.088   3.798
 8021TIP3    H124027   5.495   5.114   3.835
 8021TIP3    H224028   5.562   5.005   3.754
 8022TIP3   OH224029   2.292   2.582   4.576
 8022TIP3    H124030   2.272   2.518   4.644
 8022TIP3    H224031   2.227   2.651   4.586
 8023TIP3   OH224032   3.126   5.073   1.346
 8023TIP3    H124033   3.057   5.007   1.343
 8023TIP3    H224034   3.204   5.025   1.376
 8024TIP3   OH224035   4.980   4.471   5.091
 8024TIP3    H124036   4.926   4.477   5.012
 8024TIP3    H224037   4.983   4.561   5.124
 8025TIP3   OH224038   2.286   2.978   5.763
 8025TIP3    H124039   2.216   3.026   5.808
 8025TIP3    H224040   2.265   2.886   5.778
 8026TIP3   OH224041   3.884   1.460   4.238
 8026TIP3    H124042   3.947   1.484   4.306
 8026TIP3    H224043   3.938   1.420   4.170
 8027TIP3   OH224044   2.826   3.436   0.215
 8027TIP3    H124045   2.853   3.407   0.128
 8027TIP3    H224046   2.732   3.446   0.208
 8028TIP3   OH224047   6.410   4.969   4.115
 8028TIP3    H124048   6.374   4.892   4.158
 8028TIP3    H224049   6.414   4.945   4.022
 8029TIP3   OH224050   0.969   2.485   0.452
 8029TIP3    H124051   0.929   2.414   0.501
 8029TIP3    H224052   0.897   2.523   0.402
 8030TIP3   OH224053   4.063   5.106   0.368
 8030TIP3    H124054   4.055   5.163   0.444
 8030TIP3    H224055   4.144   5.058   0.382
 8031TIP3   OH224056   6.770   1.912   4.460
 8031TIP3    H124057   6.747   1.858   4.536
 8031TIP3    H224058   6.821   1.853   4.404
 8032TIP3   OH224059   0.351   6.487   2.154
 8032TIP3    H124060   0.386   6.484   2.243
 8032TIP3    H224061   0.385   6.408   2.112
 8033TIP3   OH224062   6.823   3.029   0.249
 8033TIP3    H124063   6.871   3.042   0.331
 8033TIP3    H224064   6.875   3.074   0.183
 8034TIP3   OH224065   0.799   5.741   4.230
 8034TIP3    H124066   0.795   5.679   4.303
 8034TIP3    H224067   0.708   5.765   4.214
 8035TIP3   OH224068   7.213   4.547   0.175
 8035TIP3    H124069   7.128   4.505   0.167
 8035TIP3    H224070   7.276   4.480   0.147
 8036TIP3   OH224071   5.416   4.661   0.634
 8036TIP3    H124072   5.366   4.642   0.555
 8036TIP3    H224073   5.350   4.666   0.704
 8037TIP3   OH224074   0.408   4.553   3.289
 8037TIP3    H124075   0.332   4.494   3.290
 8037TIP3    H224076   0.483   4.495   3.299
 8038TIP3   OH224077   7.216   5.917   0.335
 8038TIP3    H124078   7.191   5.947   0.248
 8038TIP3    H224079   7.216   5.997   0.388
 8039TIP3   OH224080   4.503   3.564   4.423
 8039TIP3    H124081   4.594   3.575   4.397
 8039TIP3    H224082   4.462   3.517   4.350
 8040TIP3   OH224083   3.407   6.606   0.540
 8040TIP3    H124084   3.433   6.567   0.624
 8040TIP3    H224085   3.371   6.692   0.563
 8041TIP3   OH224086   3.655   1.629   0.695
 8041TIP3    H124087   3.655   1.568   0.622
 8041TIP3    H224088   3.731   1.685   0.680
 8042TIP3   OH224089   0.046   5.235   1.333
 8042TIP3    H124090   0.012   5.191   1.411
 8042TIP3    H224091  -0.018   5.304   1.315
 8043TIP3   OH224092   2.889   2.882   0.837
 8043TIP3    H124093   2.863   2.880   0.929
 8043TIP3    H224094   2.810   2.857   0.789
 8044TIP3   OH224095   4.164   1.772   1.540
 8044TIP3    H124096   4.078   1.815   1.536
 8044TIP3    H224097   4.161   1.705   1.471
 8045TIP3   OH224098   0.309   4.131   3.038
 8045TIP3    H124099   0.329   4.205   2.980
 8045TIP3    H224100   0.371   4.142   3.111
 8046TIP3   OH224101   2.422   0.371   1.385
 8046TIP3    H124102   2.470   0.317   1.321
 8046TIP3    H224103   2.428   0.460   1.350
 8047TIP3   OH224104   5.395   3.756   0.117
 8047TIP3    H124105   5.436   3.837   0.148
 8047TIP3    H224106   5.396   3.698   0.193
 8048TIP3   OH224107   4.278   2.031   0.512
 8048TIP3    H124108   4.292   1.986   0.429
 8048TIP3    H224109   4.331   1.983   0.576
 8049TIP3   OH224110   4.509   5.279   4.839
 8049TIP3    H124111   4.519   5.373   4.830
 8049TIP3    H224112   4.598   5.244   4.825
 8050TIP3   OH224113   4.509   0.412   5.802
 8050TIP3    H124114   4.554   0.487   5.841
 8050TIP3    H224115   4.523   0.340   5.863
 8051TIP3   OH224116   0.779   1.219   1.567
 8051TIP3    H124117   0.862   1.180   1.541
 8051TIP3    H224118   0.790   1.238   1.660
 8052TIP3   OH224119   3.265   0.441   0.890
 8052TIP3    H124120   3.209   0.387   0.835
 8052TIP3    H224121   3.203   0.493   0.943
 8053TIP3   OH224122   6.799   3.544   5.890
 8053TIP3    H124123   6.758   3.515   5.971
 8053TIP3    H224124   6.742   3.511   5.821
 8054TIP3   OH224125   2.761   0.433   4.850
 8054TIP3    H124126   2.695   0.502   4.843
 8054TIP3    H224127   2.729   0.376   4.919
 8055TIP3   OH224128   0.665   6.660   5.424
 8055TIP3    H124129   0.704   6.578   5.393
 8055TIP3    H224130   0.700   6.727   5.365
 8056TIP3   OH224131   4.561   6.556   5.261
 8056TIP3    H124132   4.564   6.493   5.189
 8056TIP3    H224133   4.641   6.607   5.252
 8057TIP3   OH224134   1.948   4.492   5.448
 8057TIP3    H124135   1.875   4.551   5.433
 8057TIP3    H224136   2.007   4.540   5.505
 8058TIP3   OH224137   4.219   6.547   2.996
 8058TIP3    H124138   4.213   6.642   2.986
 8058TIP3    H224139   4.277   6.519   2.925
 8059TIP3   OH224140   6.350   3.695   0.359
 8059TIP3    H124141   6.265   3.722   0.395
 8059TIP3    H224142   6.374   3.767   0.300
 8060TIP3   OH224143   3.314   6.435   0.334
 8060TIP3    H124144   3.357   6.501   0.388
 8060TIP3    H224145   3.363   6.435   0.252
 8061TIP3   OH224146   6.841   2.772   3.453
 8061TIP3    H124147   6.885   2.856   3.470
 8061TIP3    H224148   6.883   2.739   3.374
 8062TIP3   OH224149   4.864   0.218   1.980
 8062TIP3    H124150   4.896   0.142   2.029
 8062TIP3    H224151   4.944   0.264   1.954
 8063TIP3   OH224152   2.742   4.473   0.828
 8063TIP3    H124153   2.769   4.381   0.819
 8063TIP3    H224154   2.664   4.470   0.884
 8064TIP3   OH224155   5.499   1.351   0.136
 8064TIP3    H124156   5.468   1.410   0.205
 8064TIP3    H224157   5.474   1.264   0.165
 8065TIP3   OH224158   3.889   0.228   2.711
 8065TIP3    H124159   3.974   0.215   2.753
 8065TIP3    H224160   3.878   0.323   2.708
 8066TIP3   OH224161   5.402   4.487   0.229
 8066TIP3    H124162   5.356   4.562   0.267
 8066TIP3    H224163   5.418   4.512   0.138
 8067TIP3   OH224164   0.675   1.693   4.792
 8067TIP3    H124165   0.741   1.748   4.835
 8067TIP3    H224166   0.597   1.750   4.786
 8068TIP3   OH224167   3.395   6.173   3.704
 8068TIP3    H124168   3.377   6.256   3.748
 8068TIP3    H224169   3.408   6.198   3.612
 8069TIP3   OH224170   2.423   4.586   0.877
 8069TIP3    H124171   2.383   4.545   0.801
 8069TIP3    H224172   2.465   4.514   0.924
 8070TIP3   OH224173   5.934   2.085   1.353
 8070TIP3    H124174   5.851   2.067   1.309
 8070TIP3    H224175   5.909   2.123   1.437
 8071TIP3   OH224176   6.566   1.660   2.182
 8071TIP3    H124177   6.512   1.729   2.220
 8071TIP3    H224178   6.550   1.667   2.088
 8072TIP3   OH224179   3.050   3.883   4.075
 8072TIP3    H124180   3.086   3.910   4.160
 8072TIP3    H224181   3.120   3.833   4.035
 8073TIP3   OH224182   2.004   2.904   5.180
 8073TIP3    H124183   1.931   2.843   5.188
 8073TIP3    H224184   2.062   2.863   5.115
 8074TIP3   OH224185   2.689   6.291   2.670
 8074TIP3    H124186   2.755   6.246   2.616
 8074TIP3    H224187   2.728   6.376   2.689
 8075TIP3   OH224188   4.462   0.821   3.991
 8075TIP3    H124189   4.516   0.756   4.036
 8075TIP3    H224190   4.479   0.903   4.037
 8076TIP3   OH224191   4.737   2.242   3.606
 8076TIP3    H124192   4.654   2.209   3.642
 8076TIP3    H224193   4.756   2.184   3.533
 8077TIP3   OH224194   6.215   4.041   2.604
 8077TIP3    H124195   6.157   3.977   2.563
 8077TIP3    H224196   6.259   4.083   2.530
 8078TIP3   OH224197   4.716   6.477   4.776
 8078TIP3    H124198   4.787   6.488   4.839
 8078TIP3    H224199   4.642   6.525   4.816
 8079TIP3   OH224200   1.829   6.302   4.935
 8079TIP3    H124201   1.833   6.387   4.979
 8079TIP3    H224202   1.736   6.292   4.912
 8080TIP3   OH224203   2.301   0.494   4.492
 8080TIP3    H124204   2.302   0.456   4.404
 8080TIP3    H224205   2.208   0.497   4.516
 8081TIP3   OH224206   2.255   1.957   1.354
 8081TIP3    H124207   2.241   1.891   1.286
 8081TIP3    H224208   2.237   2.040   1.311
 8082TIP3   OH224209   1.619   4.543   1.015
 8082TIP3    H124210   1.565   4.464   1.023
 8082TIP3    H224211   1.655   4.556   1.103
 8083TIP3   OH224212   0.989   5.405   4.993
 8083TIP3    H124213   1.075   5.363   4.996
 8083TIP3    H224214   0.984   5.452   5.076
 8084TIP3   OH224215   3.903   4.053   0.844
 8084TIP3    H124216   3.955   4.134   0.836
 8084TIP3    H224217   3.839   4.059   0.773
 8085TIP3   OH224218   3.828   5.016   3.744
 8085TIP3    H124219   3.841   4.922   3.732
 8085TIP3    H224220   3.861   5.056   3.664
 8086TIP3   OH224221   4.845   6.365   2.004
 8086TIP3    H124222   4.887   6.308   2.069
 8086TIP3    H224223   4.780   6.309   1.962
 8087TIP3   OH224224   0.809   5.832   4.803
 8087TIP3    H124225   0.722   5.830   4.764
 8087TIP3    H224226   0.810   5.756   4.861
 8088TIP3   OH224227   5.146   4.069   4.570
 8088TIP3    H124228   5.151   4.101   4.659
 8088TIP3    H224229   5.084   4.127   4.526
 8089TIP3   OH224230   5.034   3.494   5.220
 8089TIP3    H124231   5.011   3.407   5.251
 8089TIP3    H224232   4.954   3.545   5.231
 8090TIP3   OH224233   1.254   2.473   3.938
 8090TIP3    H124234   1.294   2.532   4.002
 8090TIP3    H224235   1.323   2.411   3.915
 8091TIP3   OH224236   0.583   3.019   1.428
 8091TIP3    H124237   0.555   2.949   1.369
 8091TIP3    H224238   0.507   3.035   1.484
 8092TIP3   OH224239   3.607   3.406   4.249
 8092TIP3    H124240   3.634   3.322   4.211
 8092TIP3    H224241   3.678   3.466   4.227
 8093TIP3   OH224242   0.138   0.350   1.799
 8093TIP3    H124243   0.088   0.355   1.880
 8093TIP3    H224244   0.170   0.260   1.795
 8094TIP3   OH224245   6.579   0.388   2.741
 8094TIP3    H124246   6.566   0.366   2.649
 8094TIP3    H224247   6.501   0.438   2.765
 8095TIP3   OH224248   3.670   0.793   1.978
 8095TIP3    H124249   3.582   0.811   1.945
 8095TIP3    H224250   3.722   0.869   1.950
 8096TIP3   OH224251   5.975   5.052   5.769
 8096TIP3    H124252   5.905   5.024   5.828
 8096TIP3    H224253   5.939   5.042   5.681
 8097TIP3   OH224254   4.580   5.721   1.245
 8097TIP3    H124255   4.588   5.810   1.278
 8097TIP3    H224256   4.666   5.682   1.260
 8098TIP3   OH224257   3.430   3.425   5.665
 8098TIP3    H124258   3.485   3.350   5.688
 8098TIP3    H224259   3.377   3.394   5.591
 8099TIP3   OH224260   6.808   6.001   0.096
 8099TIP3    H124261   6.768   5.915   0.085
 8099TIP3    H224262   6.746   6.061   0.054
 8100TIP3   OH224263   5.422   6.108   3.894
 8100TIP3    H124264   5.483   6.054   3.944
 8100TIP3    H224265   5.455   6.197   3.904
 8101TIP3   OH224266   5.372   5.326   2.668
 8101TIP3    H124267   5.302   5.272   2.632
 8101TIP3    H224268   5.434   5.263   2.705
 8102TIP3   OH224269   7.143   0.206   1.662
 8102TIP3    H124270   7.220   0.162   1.628
 8102TIP3    H224271   7.177   0.284   1.706
 8103TIP3   OH224272   4.903   0.316   4.612
 8103TIP3    H124273   4.843   0.246   4.635
 8103TIP3    H224274   4.981   0.272   4.577
 8104TIP3   OH224275   4.231   1.880   0.112
 8104TIP3    H124276   4.180   1.804   0.139
 8104TIP3    H224277   4.287   1.899   0.187
 8105TIP3   OH224278   1.500   2.484   4.408
 8105TIP3    H124279   1.524   2.504   4.498
 8105TIP3    H224280   1.513   2.389   4.400
 8106TIP3   OH224281   3.167   2.161   5.474
 8106TIP3    H124282   3.188   2.165   5.381
 8106TIP3    H224283   3.225   2.093   5.509
 8107TIP3   OH224284   6.905   0.235   1.832
 8107TIP3    H124285   6.869   0.146   1.840
 8107TIP3    H224286   6.989   0.223   1.788
 8108TIP3   OH224287   0.086   2.117   1.670
 8108TIP3    H124288   0.168   2.067   1.680
 8108TIP3    H224289   0.078   2.165   1.752
 8109TIP3   OH224290   6.632   3.827   1.662
 8109TIP3    H124291   6.559   3.820   1.723
 8109TIP3    H224292   6.654   3.736   1.640
 8110TIP3   OH224293   4.509   4.621   4.780
 8110TIP3    H124294   4.489   4.630   4.873
 8110TIP3    H224295   4.490   4.707   4.743
 8111TIP3   OH224296   3.009   0.719   2.232
 8111TIP3    H124297   3.037   0.811   2.226
 8111TIP3    H224298   3.090   0.669   2.238
 8112TIP3   OH224299   3.812   4.274   4.160
 8112TIP3    H124300   3.854   4.308   4.239
 8112TIP3    H224301   3.724   4.249   4.188
 8113TIP3   OH224302   7.038   3.668   2.855
 8113TIP3    H124303   7.044   3.692   2.762
 8113TIP3    H224304   7.105   3.600   2.866
 8114TIP3   OH224305   5.365   0.114   4.732
 8114TIP3    H124306   5.425   0.041   4.718
 8114TIP3    H224307   5.421   0.185   4.763
 8115TIP3   OH224308   2.609   4.741   0.774
 8115TIP3    H124309   2.651   4.693   0.703
 8115TIP3    H224310   2.535   4.685   0.800
 8116TIP3   OH224311   2.346   1.809   1.121
 8116TIP3    H124312   2.348   1.718   1.151
 8116TIP3    H224313   2.433   1.843   1.140
 8117TIP3   OH224314   4.676   5.090   0.683
 8117TIP3    H124315   4.721   5.059   0.605
 8117TIP3    H224316   4.615   5.156   0.651
 8118TIP3   OH224317   0.387   5.221   1.321
 8118TIP3    H124318   0.293   5.209   1.307
 8118TIP3    H224319   0.393   5.299   1.375
 8119TIP3   OH224320   1.755   2.077   4.643
 8119TIP3    H124321   1.660   2.070   4.644
 8119TIP3    H224322   1.779   2.058   4.552
 8120TIP3   OH224323   1.501   5.043   4.475
 8120TIP3    H124324   1.486   4.950   4.489
 8120TIP3    H224325   1.579   5.047   4.419
 8121TIP3   OH224326   6.878   2.878   5.338
 8121TIP3    H124327   6.824   2.867   5.416
 8121TIP3    H224328   6.867   2.795   5.290
 8122TIP3   OH224329   5.367   1.565   0.580
 8122TIP3    H124330   5.281   1.523   0.574
 8122TIP3    H224331   5.357   1.630   0.650
 8123TIP3   OH224332   7.104   5.165   3.775
 8123TIP3    H124333   7.123   5.084   3.822
 8123TIP3    H224334   7.132   5.235   3.834
 8124TIP3   OH224335   4.630   4.713   0.419
 8124TIP3    H124336   4.617   4.704   0.513
 8124TIP3    H224337   4.639   4.623   0.388
 8125TIP3   OH224338   0.525   0.611   0.889
 8125TIP3    H124339   0.621   0.606   0.884
 8125TIP3    H224340   0.502   0.689   0.840
 8126TIP3   OH224341   1.985   3.990   3.808
 8126TIP3    H124342   1.981   4.007   3.714
 8126TIP3    H224343   2.055   3.926   3.818
 8127TIP3   OH224344   4.868   5.219   1.702
 8127TIP3    H124345   4.841   5.309   1.685
 8127TIP3    H224346   4.921   5.195   1.627
 8128TIP3   OH224347   4.396   1.975   1.848
 8128TIP3    H124348   4.357   2.055   1.812
 8128TIP3    H224349   4.323   1.912   1.850
 8129TIP3   OH224350   7.098   5.537   0.716
 8129TIP3    H124351   7.042   5.475   0.762
 8129TIP3    H224352   7.161   5.567   0.782
 8130TIP3   OH224353   1.595   0.801   3.224
 8130TIP3    H124354   1.635   0.814   3.310
 8130TIP3    H224355   1.502   0.819   3.238
 8131TIP3   OH224356   5.789   3.379   3.364
 8131TIP3    H124357   5.702   3.419   3.365
 8131TIP3    H224358   5.775   3.290   3.332
 8132TIP3   OH224359   7.074   6.142   2.738
 8132TIP3    H124360   7.004   6.077   2.744
 8132TIP3    H224361   7.154   6.091   2.744
 8133TIP3   OH224362   0.089   3.686   3.936
 8133TIP3    H124363   0.120   3.777   3.943
 8133TIP3    H224364   0.024   3.678   4.005
 8134TIP3   OH224365   4.488   6.048   5.275
 8134TIP3    H124366   4.414   6.056   5.335
 8134TIP3    H224367   4.458   6.092   5.195
 8135TIP3   OH224368   1.132   4.377   3.536
 8135TIP3    H124369   1.195   4.412   3.600
 8135TIP3    H224370   1.054   4.356   3.588
 8136TIP3   OH224371   2.956   0.459   2.118
 8136TIP3    H124372   2.995   0.543   2.145
 8136TIP3    H224373   2.892   0.439   2.186
 8137TIP3   OH224374   6.940   0.583   0.594
 8137TIP3    H124375   6.871   0.525   0.562
 8137TIP3    H224376   6.905   0.619   0.675
 8138TIP3   OH224377   6.463   3.697   1.820
 8138TIP3    H124378   6.525   3.624   1.825
 8138TIP3    H224379   6.382   3.657   1.789
 8139TIP3   OH224380   5.735   0.227   2.727
 8139TIP3    H124381   5.647   0.190   2.720
 8139TIP3    H224382   5.752   0.264   2.640
 8140TIP3   OH224383   2.389   5.817   4.020
 8140TIP3    H124384   2.309   5.825   4.073
 8140TIP3    H224385   2.357   5.802   3.931
 8141TIP3   OH224386   2.543   2.746   3.894
 8141TIP3    H124387   2.537   2.715   3.984
 8141TIP3    H224388   2.481   2.691   3.846
 8142TIP3   OH224389   2.686   2.021   5.452
 8142TIP3    H124390   2.729   1.958   5.510
 8142TIP3    H224391   2.682   1.977   5.367
 8143TIP3   OH224392   7.153   4.789   2.962
 8143TIP3    H124393   7.176   4.758   2.874
 8143TIP3    H224394   7.219   4.749   3.019
 8144TIP3   OH224395   2.752   2.699   1.815
 8144TIP3    H124396   2.731   2.711   1.907
 8144TIP3    H224397   2.815   2.768   1.795
 8145TIP3   OH224398   1.314   1.282   3.806
 8145TIP3    H124399   1.224   1.301   3.781
 8145TIP3    H224400   1.363   1.361   3.779
 8146TIP3   OH224401   1.420   1.370   1.798
 8146TIP3    H124402   1.510   1.336   1.791
 8146TIP3    H224403   1.365   1.292   1.792
 8147TIP3   OH224404   1.560   0.253   1.291
 8147TIP3    H124405   1.593   0.313   1.359
 8147TIP3    H224406   1.549   0.309   1.214
 8148TIP3   OH224407   0.907   0.172   4.315
 8148TIP3    H124408   0.866   0.258   4.316
 8148TIP3    H224409   0.978   0.180   4.252
 8149TIP3   OH224410   4.033   5.507   5.740
 8149TIP3    H124411   3.969   5.506   5.669
 8149TIP3    H224412   4.118   5.509   5.695
 8150TIP3   OH224413   3.605   2.453   2.260
 8150TIP3    H124414   3.614   2.528   2.320
 8150TIP3    H224415   3.683   2.400   2.276
 8151TIP3   OH224416   5.563   0.317   4.808
 8151TIP3    H124417   5.657   0.300   4.814
 8151TIP3    H224418   5.555   0.381   4.737
 8152TIP3   OH224419   0.018   3.546   4.748
 8152TIP3    H124420   0.095   3.593   4.718
 8152TIP3    H224421  -0.037   3.613   4.789
 8153TIP3   OH224422   4.448   5.005   3.251
 8153TIP3    H124423   4.446   5.100   3.256
 8153TIP3    H224424   4.504   4.978   3.324
 8154TIP3   OH224425   2.933   2.713   4.059
 8154TIP3    H124426   2.927   2.802   4.095
 8154TIP3    H224427   2.919   2.724   3.965
 8155TIP3   OH224428   6.048   4.205   3.105
 8155TIP3    H124429   5.978   4.268   3.123
 8155TIP3    H224430   6.020   4.160   3.025
 8156TIP3   OH224431   2.854   3.670   5.827
 8156TIP3    H124432   2.799   3.600   5.862
 8156TIP3    H224433   2.852   3.738   5.894
 8157TIP3   OH224434   3.177   2.775   0.299
 8157TIP3    H124435   3.140   2.858   0.330
 8157TIP3    H224436   3.127   2.755   0.220
 8158TIP3   OH224437   2.637   0.058   3.596
 8158TIP3    H124438   2.671   0.005   3.668
 8158TIP3    H224439   2.543   0.064   3.615
 8159TIP3   OH224440   5.976   6.750   4.997
 8159TIP3    H124441   6.018   6.669   5.027
 8159TIP3    H224442   5.979   6.744   4.901
 8160TIP3   OH224443   3.886   5.725   3.240
 8160TIP3    H124444   3.964   5.684   3.277
 8160TIP3    H224445   3.825   5.732   3.314
 8161TIP3   OH224446   6.683   4.479   2.744
 8161TIP3    H124447   6.664   4.468   2.837
 8161TIP3    H224448   6.744   4.408   2.722
 8162TIP3   OH224449   6.671   3.488   2.811
 8162TIP3    H124450   6.661   3.463   2.903
 8162TIP3    H224451   6.730   3.422   2.775
 8163TIP3   OH224452   1.574   5.487   1.901
 8163TIP3    H124453   1.656   5.497   1.947
 8163TIP3    H224454   1.584   5.540   1.822
 8164TIP3   OH224455   4.655   3.468   0.945
 8164TIP3    H124456   4.717   3.537   0.967
 8164TIP3    H224457   4.579   3.486   1.000
 8165TIP3   OH224458   2.126   4.877   0.661
 8165TIP3    H124459   2.052   4.935   0.678
 8165TIP3    H224460   2.124   4.862   0.567
 8166TIP3   OH224461   5.841   1.838   2.972
 8166TIP3    H124462   5.872   1.922   3.006
 8166TIP3    H224463   5.881   1.832   2.885
 8167TIP3   OH224464   2.439   6.662   1.635
 8167TIP3    H124465   2.493   6.717   1.691
 8167TIP3    H224466   2.495   6.641   1.560
 8168TIP3   OH224467   2.786   5.110   1.136
 8168TIP3    H124468   2.733   5.041   1.097
 8168TIP3    H224469   2.759   5.113   1.228
 8169TIP3   OH224470   5.895   5.252   5.258
 8169TIP3    H124471   5.876   5.246   5.352
 8169TIP3    H224472   5.815   5.289   5.220
 8170TIP3   OH224473   6.577   4.744   5.599
 8170TIP3    H124474   6.549   4.836   5.604
 8170TIP3    H224475   6.644   4.736   5.668
 8171TIP3   OH224476   1.134   3.904   2.846
 8171TIP3    H124477   1.156   3.812   2.856
 8171TIP3    H224478   1.102   3.931   2.933
 8172TIP3   OH224479   6.915   5.573   4.634
 8172TIP3    H124480   6.954   5.580   4.721
 8172TIP3    H224481   6.821   5.581   4.649
 8173TIP3   OH224482   3.496   3.565   3.637
 8173TIP3    H124483   3.493   3.508   3.713
 8173TIP3    H224484   3.451   3.645   3.664
 8174TIP3   OH224485   5.269   4.386   5.670
 8174TIP3    H124486   5.259   4.322   5.599
 8174TIP3    H224487   5.327   4.453   5.633
 8175TIP3   OH224488   5.420   0.026   0.455
 8175TIP3    H124489   5.361  -0.029   0.403
 8175TIP3    H224490   5.428   0.107   0.405
 8176TIP3   OH224491   3.970   3.304   1.172
 8176TIP3    H124492   3.912   3.279   1.244
 8176TIP3    H224493   3.911   3.327   1.100
 8177TIP3   OH224494   1.771   2.893   4.877
 8177TIP3    H124495   1.818   2.821   4.834
 8177TIP3    H224496   1.823   2.971   4.856
 8178TIP3   OH224497   3.468   5.924   4.199
 8178TIP3    H124498   3.425   5.880   4.125
 8178TIP3    H224499   3.441   6.016   4.191
 8179TIP3   OH224500   4.194   1.423   4.924
 8179TIP3    H124501   4.121   1.461   4.972
 8179TIP3    H224502   4.271   1.471   4.954
 8180TIP3   OH224503   1.349   1.616   1.749
 8180TIP3    H124504   1.433   1.642   1.713
 8180TIP3    H224505   1.361   1.526   1.779
 8181TIP3   OH224506   6.935   5.478   3.533
 8181TIP3    H124507   6.986   5.493   3.453
 8181TIP3    H224508   6.846   5.502   3.509
 8182TIP3   OH224509   0.236   3.728   2.714
 8182TIP3    H124510   0.187   3.784   2.653
 8182TIP3    H224511   0.223   3.639   2.680
 8183TIP3   OH224512   3.114   3.675   5.675
 8183TIP3    H124513   3.172   3.691   5.749
 8183TIP3    H224514   3.026   3.684   5.711
 8184TIP3   OH224515   6.159   1.573   2.589
 8184TIP3    H124516   6.218   1.615   2.528
 8184TIP3    H224517   6.216   1.527   2.651
 8185TIP3   OH224518   6.375   5.205   1.406
 8185TIP3    H124519   6.330   5.283   1.438
 8185TIP3    H224520   6.309   5.136   1.409
 8186TIP3   OH224521   3.309   1.486   5.576
 8186TIP3    H124522   3.322   1.578   5.556
 8186TIP3    H224523   3.214   1.474   5.579
 8187TIP3   OH224524   3.137   5.841   3.591
 8187TIP3    H124525   3.076   5.894   3.539
 8187TIP3    H224526   3.208   5.822   3.530
 8188TIP3   OH224527   1.502   4.810   1.055
 8188TIP3    H124528   1.526   4.785   1.145
 8188TIP3    H224529   1.502   4.727   1.007
 8189TIP3   OH224530   0.454   2.374   0.069
 8189TIP3    H124531   0.515   2.301   0.061
 8189TIP3    H224532   0.390   2.359  -0.001
 8190TIP3   OH224533   4.999   0.726   2.446
 8190TIP3    H124534   4.955   0.808   2.469
 8190TIP3    H224535   5.057   0.709   2.520
 8191TIP3   OH224536   1.590   4.296   3.893
 8191TIP3    H124537   1.569   4.357   3.963
 8191TIP3    H224538   1.680   4.268   3.912
 8192TIP3   OH224539   6.530   4.276   5.252
 8192TIP3    H124540   6.512   4.231   5.169
 8192TIP3    H224541   6.485   4.360   5.244
 8193TIP3   OH224542   0.881   1.051   0.101
 8193TIP3    H124543   0.924   1.136   0.093
 8193TIP3    H224544   0.882   1.033   0.195
 8194TIP3   OH224545   5.601   4.170   4.913
 8194TIP3    H124546   5.667   4.238   4.897
 8194TIP3    H224547   5.584   4.133   4.826
 8195TIP3   OH224548   1.719   6.015   5.678
 8195TIP3    H124549   1.792   6.077   5.685
 8195TIP3    H224550   1.644   6.069   5.653
 8196TIP3   OH224551   1.485   6.135   1.140
 8196TIP3    H124552   1.417   6.193   1.105
 8196TIP3    H224553   1.548   6.126   1.069
 8197TIP3   OH224554   3.616   3.689   4.970
 8197TIP3    H124555   3.563   3.764   4.942
 8197TIP3    H224556   3.669   3.723   5.042
 8198TIP3   OH224557   1.833   6.275   0.312
 8198TIP3    H124558   1.811   6.332   0.238
 8198TIP3    H224559   1.900   6.323   0.361
 8199TIP3   OH224560   5.189   2.430   3.926
 8199TIP3    H124561   5.177   2.359   3.989
 8199TIP3    H224562   5.101   2.468   3.916
 8200TIP3   OH224563   1.583   6.348   0.928
 8200TIP3    H124564   1.645   6.282   0.960
 8200TIP3    H224565   1.584   6.337   0.833
 8201TIP3   OH224566   1.073   0.812   1.918
 8201TIP3    H124567   0.986   0.797   1.956
 8201TIP3    H224568   1.122   0.734   1.941
 8202TIP3   OH224569   6.079   5.604   2.332
 8202TIP3    H124570   6.043   5.565   2.412
 8202TIP3    H224571   6.002   5.618   2.276
 8203TIP3   OH224572   1.340   5.547   5.897
 8203TIP3    H124573   1.432   5.527   5.881
 8203TIP3    H224574   1.305   5.571   5.811
 8204TIP3   OH224575   0.116   6.053   2.728
 8204TIP3    H124576   0.170   6.009   2.793
 8204TIP3    H224577   0.129   6.003   2.648
 8205TIP3   OH224578   4.874   2.704   4.732
 8205TIP3    H124579   4.852   2.616   4.700
 8205TIP3    H224580   4.792   2.735   4.772
 8206TIP3   OH224581   6.063   0.265   1.645
 8206TIP3    H124582   6.138   0.323   1.629
 8206TIP3    H224583   5.987   0.316   1.617
 8207TIP3   OH224584   2.501   2.223   1.196
 8207TIP3    H124585   2.576   2.222   1.137
 8207TIP3    H224586   2.533   2.185   1.278
 8208TIP3   OH224587   1.916   4.862   5.212
 8208TIP3    H124588   1.950   4.951   5.201
 8208TIP3    H224589   1.924   4.823   5.125
 8209TIP3   OH224590   1.617   1.183   5.060
 8209TIP3    H124591   1.546   1.227   5.013
 8209TIP3    H224592   1.584   1.177   5.150
 8210TIP3   OH224593   0.917   5.411   0.857
 8210TIP3    H124594   1.011   5.409   0.875
 8210TIP3    H224595   0.911   5.406   0.762
 8211TIP3   OH224596   1.936   2.479   0.139
 8211TIP3    H124597   1.958   2.500   0.230
 8211TIP3    H224598   2.015   2.437   0.105
 8212TIP3   OH224599   7.160   0.373   2.742
 8212TIP3    H124600   7.136   0.441   2.806
 8212TIP3    H224601   7.085   0.315   2.739
 8213TIP3   OH224602   7.182   5.626   5.703
 8213TIP3    H124603   7.275   5.629   5.681
 8213TIP3    H224604   7.140   5.586   5.626
 8214TIP3   OH224605   2.571   2.964   5.043
 8214TIP3    H124606   2.494   3.004   5.085
 8214TIP3    H224607   2.560   2.870   5.056
 8215TIP3   OH224608   4.424   2.467   4.173
 8215TIP3    H124609   4.372   2.439   4.248
 8215TIP3    H224610   4.359   2.486   4.105
 8216TIP3   OH224611   6.556   1.027   1.513
 8216TIP3    H124612   6.597   1.114   1.518
 8216TIP3    H224613   6.601   0.984   1.440
 8217TIP3   OH224614   0.471   2.167   1.978
 8217TIP3    H124615   0.491   2.261   1.980
 8217TIP3    H224616   0.399   2.157   2.040
 8218TIP3   OH224617   1.768   5.556   4.629
 8218TIP3    H124618   1.780   5.597   4.714
 8218TIP3    H224619   1.687   5.506   4.637
 8219TIP3   OH224620   7.018   6.021   2.353
 8219TIP3    H124621   6.942   6.007   2.297
 8219TIP3    H224622   6.990   6.086   2.417
 8220TIP3   OH224623   0.827   4.282   0.966
 8220TIP3    H124624   0.747   4.328   0.943
 8220TIP3    H224625   0.871   4.340   1.029
 8221TIP3   OH224626   2.247   2.744   5.267
 8221TIP3    H124627   2.261   2.825   5.315
 8221TIP3    H224628   2.314   2.744   5.198
 8222TIP3   OH224629   5.838   0.939   5.250
 8222TIP3    H124630   5.752   0.908   5.278
 8222TIP3    H224631   5.899   0.895   5.308
 8223TIP3   OH224632   3.687   0.184   3.859
 8223TIP3    H124633   3.722   0.216   3.776
 8223TIP3    H224634   3.737   0.105   3.878
 8224TIP3   OH224635   1.875   0.808   0.461
 8224TIP3    H124636   1.852   0.832   0.551
 8224TIP3    H224637   1.849   0.884   0.409
 8225TIP3   OH224638   2.176   0.765   4.875
 8225TIP3    H124639   2.141   0.704   4.810
 8225TIP3    H224640   2.230   0.710   4.932
 8226TIP3   OH224641   3.116   4.883   4.357
 8226TIP3    H124642   3.022   4.896   4.370
 8226TIP3    H224643   3.122   4.848   4.268
 8227TIP3   OH224644   4.602   2.530   0.891
 8227TIP3    H124645   4.627   2.569   0.807
 8227TIP3    H224646   4.515   2.493   0.877
 8228TIP3   OH224647   2.780   4.606   2.177
 8228TIP3    H124648   2.716   4.642   2.238
 8228TIP3    H224649   2.783   4.669   2.105
 8229TIP3   OH224650   4.097   0.657   2.441
 8229TIP3    H124651   4.192   0.663   2.430
 8229TIP3    H224652   4.074   0.572   2.404
 8230TIP3   OH224653   3.391   0.053   0.706
 8230TIP3    H124654   3.469   0.103   0.729
 8230TIP3    H224655   3.380   0.068   0.612
 8231TIP3   OH224656   1.717   1.940   1.652
 8231TIP3    H124657   1.762   1.976   1.576
 8231TIP3    H224658   1.675   1.861   1.619
 8232TIP3   OH224659   6.961   2.172   1.585
 8232TIP3    H124660   6.865   2.176   1.580
 8232TIP3    H224661   6.990   2.218   1.506
 8233TIP3   OH224662   4.620   4.909   4.936
 8233TIP3    H124663   4.615   4.930   4.843
 8233TIP3    H224664   4.694   4.962   4.968
 8234TIP3   OH224665   6.256   2.846   3.071
 8234TIP3    H124666   6.161   2.837   3.071
 8234TIP3    H224667   6.280   2.846   3.164
 8235TIP3   OH224668   3.888   0.181   5.386
 8235TIP3    H124669   3.969   0.176   5.436
 8235TIP3    H224670   3.857   0.271   5.400
 8236TIP3   OH224671   1.382   2.221   4.544
 8236TIP3    H124672   1.411   2.221   4.635
 8236TIP3    H224673   1.353   2.132   4.527
 8237TIP3   OH224674   6.877   2.923   0.663
 8237TIP3    H124675   6.912   2.842   0.628
 8237TIP3    H224676   6.831   2.897   0.743
 8238TIP3   OH224677   3.024   0.143   5.398
 8238TIP3    H124678   3.107   0.179   5.368
 8238TIP3    H224679   2.958   0.184   5.341
 8239TIP3   OH224680   1.065  -0.011   5.280
 8239TIP3    H124681   0.971  -0.001   5.264
 8239TIP3    H224682   1.107   0.032   5.206
 8240TIP3   OH224683   5.590   3.723   4.949
 8240TIP3    H124684   5.605   3.745   4.857
 8240TIP3    H224685   5.579   3.628   4.949
 8241TIP3   OH224686   5.077   4.807   4.925
 8241TIP3    H124687   5.057   4.809   5.019
 8241TIP3    H224688   5.121   4.724   4.911
 8242TIP3   OH224689   3.994   6.431   2.929
 8242TIP3    H124690   3.972   6.488   2.854
 8242TIP3    H224691   4.063   6.478   2.975
 8243TIP3   OH224692   5.417   0.895   2.190
 8243TIP3    H124693   5.369   0.966   2.147
 8243TIP3    H224694   5.354   0.823   2.195
 8244TIP3   OH224695   7.117   3.903   0.875
 8244TIP3    H124696   7.065   3.983   0.872
 8244TIP3    H224697   7.099   3.866   0.961
 8245TIP3   OH224698   6.866   3.792   5.041
 8245TIP3    H124699   6.776   3.760   5.048
 8245TIP3    H224700   6.885   3.828   5.127
 8246TIP3   OH224701   4.576   3.582   5.839
 8246TIP3    H124702   4.633   3.505   5.831
 8246TIP3    H224703   4.609   3.629   5.916
 8247TIP3   OH224704   0.452   2.423   3.039
 8247TIP3    H124705   0.498   2.371   2.974
 8247TIP3    H224706   0.360   2.420   3.013
 8248TIP3   OH224707   3.231   2.854   1.476
 8248TIP3    H124708   3.271   2.767   1.483
 8248TIP3    H224709   3.143   2.837   1.443
 8249TIP3   OH224710   5.965   6.270   2.679
 8249TIP3    H124711   5.951   6.205   2.610
 8249TIP3    H224712   6.050   6.247   2.716
 8250TIP3   OH224713   5.154   2.029   5.161
 8250TIP3    H124714   5.109   1.945   5.154
 8250TIP3    H224715   5.166   2.042   5.255
 8251TIP3   OH224716   2.767   6.543   2.118
 8251TIP3    H124717   2.679   6.517   2.090
 8251TIP3    H224718   2.774   6.511   2.208
 8252TIP3   OH224719   0.439   3.768   0.250
 8252TIP3    H124720   0.512   3.824   0.224
 8252TIP3    H224721   0.390   3.820   0.314
 8253TIP3   OH224722   6.273   3.439   0.833
 8253TIP3    H124723   6.205   3.441   0.901
 8253TIP3    H224724   6.240   3.497   0.764
 8254TIP3   OH224725   0.813   3.857   4.034
 8254TIP3    H124726   0.789   3.856   3.942
 8254TIP3    H224727   0.736   3.824   4.080
 8255TIP3   OH224728   2.877   1.971   1.577
 8255TIP3    H124729   2.853   2.063   1.581
 8255TIP3    H224730   2.793   1.924   1.578
 8256TIP3   OH224731   1.820   0.090   0.910
 8256TIP3    H124732   1.905   0.048   0.929
 8256TIP3    H224733   1.774   0.088   0.993
 8257TIP3   OH224734   0.977   1.702   5.244
 8257TIP3    H124735   1.069   1.681   5.263
 8257TIP3    H224736   0.964   1.789   5.282
 8258TIP3   OH224737   5.055   0.640   3.771
 8258TIP3    H124738   5.126   0.634   3.708
 8258TIP3    H224739   5.020   0.729   3.760
 8259TIP3   OH224740   4.368   3.942   2.332
 8259TIP3    H124741   4.292   3.987   2.294
 8259TIP3    H224742   4.443   3.982   2.288
 8260TIP3   OH224743   3.275   5.965   4.886
 8260TIP3    H124744   3.243   5.949   4.975
 8260TIP3    H224745   3.369   5.946   4.891
 8261TIP3   OH224746   5.622   4.864   2.909
 8261TIP3    H124747   5.697   4.824   2.866
 8261TIP3    H224748   5.562   4.792   2.926
 8262TIP3   OH224749   1.130   5.300   5.364
 8262TIP3    H124750   1.110   5.225   5.308
 8262TIP3    H224751   1.134   5.263   5.453
 8263TIP3   OH224752   2.411   0.304   4.705
 8263TIP3    H124753   2.319   0.313   4.732
 8263TIP3    H224754   2.418   0.355   4.625
 8264TIP3   OH224755   2.608   4.375   2.851
 8264TIP3    H124756   2.693   4.369   2.807
 8264TIP3    H224757   2.549   4.324   2.796
 8265TIP3   OH224758   1.001   4.687   0.538
 8265TIP3    H124759   1.076   4.746   0.549
 8265TIP3    H224760   1.023   4.635   0.461
 8266TIP3   OH224761   3.505   0.076   1.250
 8266TIP3    H124762   3.538   0.151   1.300
 8266TIP3    H224763   3.465   0.116   1.173
 8267TIP3   OH224764   2.212   4.892   2.333
 8267TIP3    H124765   2.189   4.955   2.401
 8267TIP3    H224766   2.235   4.812   2.381
 8268TIP3   OH224767   2.719   1.858   2.439
 8268TIP3    H124768   2.725   1.953   2.432
 8268TIP3    H224769   2.646   1.843   2.500
 8269TIP3   OH224770   1.657   6.432   3.319
 8269TIP3    H124771   1.617   6.502   3.371
 8269TIP3    H224772   1.602   6.426   3.241
 8270TIP3   OH224773   6.167   1.334   3.447
 8270TIP3    H124774   6.217   1.383   3.381
 8270TIP3    H224775   6.123   1.265   3.397
 8271TIP3   OH224776   1.923   3.749   3.179
 8271TIP3    H124777   1.905   3.722   3.269
 8271TIP3    H224778   1.981   3.680   3.145
 8272TIP3   OH224779   3.056   2.982   3.618
 8272TIP3    H124780   3.091   2.916   3.557
 8272TIP3    H224781   3.122   2.989   3.686
 8273TIP3   OH224782   5.461   3.830   1.930
 8273TIP3    H124783   5.428   3.836   2.019
 8273TIP3    H224784   5.518   3.906   1.920
 8274TIP3   OH224785   2.794   5.524   0.693
 8274TIP3    H124786   2.739   5.591   0.652
 8274TIP3    H224787   2.883   5.557   0.686
 8275TIP3   OH224788   4.919   5.037   1.482
 8275TIP3    H124789   4.972   5.044   1.403
 8275TIP3    H224790   4.890   4.946   1.484
 8276TIP3   OH224791   4.834   2.826   1.704
 8276TIP3    H124792   4.816   2.813   1.797
 8276TIP3    H224793   4.834   2.920   1.691
 8277TIP3   OH224794   4.092   5.070   4.336
 8277TIP3    H124795   4.066   5.162   4.323
 8277TIP3    H224796   4.185   5.068   4.313
 8278TIP3   OH224797   0.216   5.394   1.962
 8278TIP3    H124798   0.251   5.306   1.948
 8278TIP3    H224799   0.127   5.391   1.927
 8279TIP3   OH224800   1.054   1.815   2.718
 8279TIP3    H124801   1.135   1.811   2.769
 8279TIP3    H224802   1.016   1.900   2.740
 8280TIP3   OH224803   0.383   3.254   4.683
 8280TIP3    H124804   0.413   3.210   4.763
 8280TIP3    H224805   0.447   3.228   4.617
 8281TIP3   OH224806   6.913   1.166   4.981
 8281TIP3    H124807   6.825   1.193   5.008
 8281TIP3    H224808   6.936   1.096   5.042
 8282TIP3   OH224809   0.720   5.855   0.194
 8282TIP3    H124810   0.688   5.894   0.276
 8282TIP3    H224811   0.801   5.903   0.174
 8283TIP3   OH224812   5.656   2.221   4.112
 8283TIP3    H124813   5.680   2.129   4.121
 8283TIP3    H224814   5.610   2.226   4.028
 8284TIP3   OH224815   1.254   1.053   1.164
 8284TIP3    H124816   1.178   1.049   1.106
 8284TIP3    H224817   1.219   1.041   1.252
 8285TIP3   OH224818   2.627   2.179   1.433
 8285TIP3    H124819   2.650   2.272   1.428
 8285TIP3    H224820   2.701   2.139   1.479
 8286TIP3   OH224821   6.954   6.586   4.549
 8286TIP3    H124822   6.880   6.566   4.492
 8286TIP3    H224823   6.914   6.615   4.632
 8287TIP3   OH224824   4.682   3.946   2.710
 8287TIP3    H124825   4.774   3.940   2.736
 8287TIP3    H224826   4.646   4.016   2.764
 8288TIP3   OH224827   5.262   1.468   2.926
 8288TIP3    H124828   5.323   1.530   2.885
 8288TIP3    H224829   5.227   1.516   3.001
 8289TIP3   OH224830   4.169   6.011   2.869
 8289TIP3    H124831   4.120   6.034   2.947
 8289TIP3    H224832   4.116   6.044   2.796
 8290TIP3   OH224833   0.167   2.039   5.469
 8290TIP3    H124834   0.131   1.972   5.411
 8290TIP3    H224835   0.098   2.106   5.473
 8291TIP3   OH224836   2.373   3.604   0.219
 8291TIP3    H124837   2.460   3.587   0.254
 8291TIP3    H224838   2.334   3.517   0.207
 8292TIP3   OH224839   1.302   0.312   4.871
 8292TIP3    H124840   1.299   0.377   4.801
 8292TIP3    H224841   1.379   0.259   4.852
 8293TIP3   OH224842   4.470   4.396   4.376
 8293TIP3    H124843   4.461   4.490   4.387
 8293TIP3    H224844   4.455   4.360   4.463
 8294TIP3   OH224845   6.035   6.813   3.833
 8294TIP3    H124846   5.990   6.745   3.784
 8294TIP3    H224847   6.128   6.797   3.816
 8295TIP3   OH224848   4.140   6.174   5.130
 8295TIP3    H124849   4.154   6.167   5.035
 8295TIP3    H224850   4.222   6.209   5.164
 8296TIP3   OH224851   1.269   5.728   0.812
 8296TIP3    H124852   1.173   5.726   0.810
 8296TIP3    H224853   1.290   5.800   0.872
 8297TIP3   OH224854   4.674   5.595   5.238
 8297TIP3    H124855   4.622   5.673   5.256
 8297TIP3    H224856   4.750   5.603   5.296
 8298TIP3   OH224857   5.460   5.314   4.216
 8298TIP3    H124858   5.450   5.386   4.153
 8298TIP3    H224859   5.552   5.317   4.241
 8299TIP3   OH224860   6.730   6.467   3.945
 8299TIP3    H124861   6.742   6.385   3.897
 8299TIP3    H224862   6.635   6.481   3.945
 8300TIP3   OH224863   2.652   4.233   5.166
 8300TIP3    H124864   2.631   4.327   5.168
 8300TIP3    H224865   2.736   4.227   5.213
 8301TIP3   OH224866   0.774   6.104   4.925
 8301TIP3    H124867   0.784   6.017   4.886
 8301TIP3    H224868   0.706   6.093   4.991
 8302TIP3   OH224869   1.818   0.042   2.624
 8302TIP3    H124870   1.737   0.068   2.579
 8302TIP3    H224871   1.888   0.078   2.570
 8303TIP3   OH224872   5.812   4.152   3.302
 8303TIP3    H124873   5.760   4.197   3.369
 8303TIP3    H224874   5.794   4.199   3.221
 8304TIP3   OH224875   3.968   6.358   2.021
 8304TIP3    H124876   3.894   6.303   2.049
 8304TIP3    H224877   3.991   6.407   2.100
 8305TIP3   OH224878   1.533   1.873   0.206
 8305TIP3    H124879   1.531   1.831   0.121
 8305TIP3    H224880   1.470   1.824   0.260
 8306TIP3   OH224881   4.335   1.485   1.090
 8306TIP3    H124882   4.391   1.409   1.077
 8306TIP3    H224883   4.247   1.449   1.097
 8307TIP3   OH224884   4.743   5.094   4.140
 8307TIP3    H124885   4.759   5.188   4.146
 8307TIP3    H224886   4.668   5.078   4.197
 8308TIP3   OH224887   2.867   3.858   5.254
 8308TIP3    H124888   2.843   3.878   5.344
 8308TIP3    H224889   2.889   3.765   5.255
 8309TIP3   OH224890   4.695   6.147   1.090
 8309TIP3    H124891   4.752   6.122   1.017
 8309TIP3    H224892   4.703   6.242   1.096
 8310TIP3   OH224893   1.848   2.142   3.592
 8310TIP3    H124894   1.781   2.074   3.594
 8310TIP3    H224895   1.832   2.194   3.670
 8311TIP3   OH224896   2.378   4.967   1.306
 8311TIP3    H124897   2.287   4.957   1.334
 8311TIP3    H224898   2.404   4.880   1.276
 8312TIP3   OH224899   3.048   4.501   0.900
 8312TIP3    H124900   2.983   4.541   0.843
 8312TIP3    H224901   3.071   4.571   0.962
 8313TIP3   OH224902   2.885   3.086   1.778
 8313TIP3    H124903   2.890   3.084   1.873
 8313TIP3    H224904   2.823   3.156   1.758
 8314TIP3   OH224905   1.344   0.260   5.438
 8314TIP3    H124906   1.400   0.182   5.444
 8314TIP3    H224907   1.318   0.277   5.528
 8315TIP3   OH224908   4.297   6.017   4.352
 8315TIP3    H124909   4.392   6.017   4.366
 8315TIP3    H224910   4.281   6.094   4.298
 8316TIP3   OH224911   3.427   5.897   1.712
 8316TIP3    H124912   3.331   5.896   1.715
 8316TIP3    H224913   3.449   5.821   1.657
 8317TIP3   OH224914   1.461   4.751   2.628
 8317TIP3    H124915   1.484   4.677   2.572
 8317TIP3    H224916   1.545   4.777   2.668
 8318TIP3   OH224917   0.700   0.703   2.392
 8318TIP3    H124918   0.787   0.667   2.411
 8318TIP3    H224919   0.674   0.660   2.310
 8319TIP3   OH224920   6.824   5.652   4.169
 8319TIP3    H124921   6.892   5.709   4.205
 8319TIP3    H224922   6.870   5.571   4.148
 8320TIP3   OH224923   5.888   6.466   3.486
 8320TIP3    H124924   5.948   6.532   3.450
 8320TIP3    H224925   5.901   6.471   3.580
 8321TIP3   OH224926   3.679   0.967   2.911
 8321TIP3    H124927   3.624   0.906   2.862
 8321TIP3    H224928   3.768   0.931   2.902
 8322TIP3   OH224929   3.084   6.666   0.855
 8322TIP3    H124930   3.028   6.659   0.778
 8322TIP3    H224931   3.025   6.652   0.929
 8323TIP3   OH224932   3.044   3.382   5.792
 8323TIP3    H124933   3.090   3.459   5.758
 8323TIP3    H224934   3.112   3.316   5.802
 8324TIP3   OH224935   5.720   0.288   5.339
 8324TIP3    H124936   5.771   0.350   5.391
 8324TIP3    H224937   5.629   0.316   5.350
 8325TIP3   OH224938   4.777   2.183   3.955
 8325TIP3    H124939   4.697   2.212   3.911
 8325TIP3    H224940   4.770   2.220   4.043
 8326TIP3   OH224941   3.104   2.935   4.673
 8326TIP3    H124942   3.064   2.973   4.594
 8326TIP3    H224943   3.198   2.939   4.656
 8327TIP3   OH224944   4.813   3.868   1.532
 8327TIP3    H124945   4.796   3.919   1.453
 8327TIP3    H224946   4.726   3.846   1.565
 8328TIP3   OH224947   6.491   5.779   2.621
 8328TIP3    H124948   6.427   5.753   2.554
 8328TIP3    H224949   6.484   5.712   2.688
 8329TIP3   OH224950   5.985   6.462   0.190
 8329TIP3    H124951   5.932   6.523   0.241
 8329TIP3    H224952   5.973   6.489   0.099
 8330TIP3   OH224953   1.932   3.559   4.215
 8330TIP3    H124954   1.859   3.535   4.272
 8330TIP3    H224955   1.974   3.475   4.194
 8331TIP3   OH224956   0.433   1.112   0.822
 8331TIP3    H124957   0.474   1.192   0.790
 8331TIP3    H224958   0.349   1.108   0.775
 8332TIP3   OH224959   7.056   3.963   4.441
 8332TIP3    H124960   7.149   3.963   4.418
 8332TIP3    H224961   7.036   4.055   4.458
 8333TIP3   OH224962   5.160   5.696   1.380
 8333TIP3    H124963   5.133   5.659   1.296
 8333TIP3    H224964   5.082   5.743   1.411
 8334TIP3   OH224965   1.605   4.886   1.980
 8334TIP3    H124966   1.635   4.957   1.925
 8334TIP3    H224967   1.524   4.855   1.938
 8335TIP3   OH224968   7.126   4.523   5.502
 8335TIP3    H124969   7.038   4.558   5.487
 8335TIP3    H224970   7.176   4.551   5.426
 8336TIP3   OH224971   4.673   6.553   3.523
 8336TIP3    H124972   4.736   6.523   3.589
 8336TIP3    H224973   4.628   6.473   3.496
 8337TIP3   OH224974   6.075   5.295   3.869
 8337TIP3    H124975   6.127   5.349   3.929
 8337TIP3    H224976   6.056   5.215   3.919
 8338TIP3   OH224977   3.035   6.637   2.361
 8338TIP3    H124978   2.969   6.649   2.430
 8338TIP3    H224979   3.014   6.704   2.296
 8339TIP3   OH224980   5.061   4.760   4.654
 8339TIP3    H124981   5.092   4.813   4.727
 8339TIP3    H224982   5.075   4.670   4.683
 8340TIP3   OH224983   1.752   2.373   2.534
 8340TIP3    H124984   1.745   2.378   2.439
 8340TIP3    H224985   1.711   2.290   2.557
 8341TIP3   OH224986   4.376   2.356   3.715
 8341TIP3    H124987   4.431   2.434   3.711
 8341TIP3    H224988   4.394   2.309   3.633
 8342TIP3   OH224989   0.043   3.699   5.635
 8342TIP3    H124990  -0.026   3.686   5.699
 8342TIP3    H224991   0.039   3.792   5.615
 8343TIP3   OH224992   4.430   3.361   4.169
 8343TIP3    H124993   4.486   3.419   4.118
 8343TIP3    H224994   4.346   3.408   4.174
 8344TIP3   OH224995   5.466   5.346   0.523
 8344TIP3    H124996   5.399   5.316   0.585
 8344TIP3    H224997   5.419   5.363   0.442
 8345TIP3   OH224998   4.433   1.658   0.420
 8345TIP3    H124999   4.389   1.648   0.504
 8345TIP3    H225000   4.525   1.640   0.440
 8346TIP3   OH225001   4.605   5.944   4.028
 8346TIP3    H125002   4.536   5.945   4.094
 8346TIP3    H225003   4.563   5.908   3.950
 8347TIP3   OH225004   5.795   3.323   5.885
 8347TIP3    H125005   5.764   3.411   5.866
 8347TIP3    H225006   5.734   3.265   5.840
 8348TIP3   OH225007   4.572   4.546   1.854
 8348TIP3    H125008   4.552   4.637   1.831
 8348TIP3    H225009   4.490   4.498   1.837
 8349TIP3   OH225010   4.031   4.454   0.432
 8349TIP3    H125011   3.963   4.521   0.426
 8349TIP3    H225012   4.093   4.488   0.496
 8350TIP3   OH225013   6.619   4.344   2.365
 8350TIP3    H125014   6.577   4.316   2.446
 8350TIP3    H225015   6.550   4.338   2.299
 8351TIP3   OH225016   4.114   1.100   2.448
 8351TIP3    H125017   4.200   1.081   2.410
 8351TIP3    H225018   4.099   1.193   2.429
 8352TIP3   OH225019   0.507   6.615   5.658
 8352TIP3    H125020   0.559   6.626   5.579
 8352TIP3    H225021   0.567   6.574   5.721
 8353TIP3   OH225022   3.521   4.495   3.998
 8353TIP3    H125023   3.607   4.455   3.983
 8353TIP3    H225024   3.541   4.587   4.015
 8354TIP3   OH225025   4.045   4.393   3.431
 8354TIP3    H125026   4.079   4.482   3.425
 8354TIP3    H225027   4.020   4.370   3.342
 8355TIP3   OH225028   5.662   6.713   2.877
 8355TIP3    H125029   5.666   6.621   2.849
 8355TIP3    H225030   5.664   6.763   2.795
 8356TIP3   OH225031   5.812   6.494   2.481
 8356TIP3    H125032   5.863   6.572   2.458
 8356TIP3    H225033   5.730   6.504   2.433
 8357TIP3   OH225034   4.775   6.084   2.669
 8357TIP3    H125035   4.724   6.076   2.749
 8357TIP3    H225036   4.834   6.008   2.670
 8358TIP3   OH225037   1.557   3.091   3.765
 8358TIP3    H125038   1.592   3.070   3.852
 8358TIP3    H225039   1.603   3.032   3.705
 8359TIP3   OH225040   4.203   0.017   2.870
 8359TIP3    H125041   4.241  -0.006   2.955
 8359TIP3    H225042   4.110  -0.003   2.879
 8360TIP3   OH225043   2.716   0.958   3.553
 8360TIP3    H125044   2.737   1.039   3.507
 8360TIP3    H225045   2.779   0.894   3.519
 8361TIP3   OH225046   5.452   1.573   1.338
 8361TIP3    H125047   5.422   1.484   1.357
 8361TIP3    H225048   5.388   1.606   1.275
 8362TIP3   OH225049   4.116   0.630   1.913
 8362TIP3    H125050   4.078   0.554   1.957
 8362TIP3    H225051   4.109   0.701   1.977
 8363TIP3   OH225052   4.785   5.978   1.270
 8363TIP3    H125053   4.750   6.037   1.203
 8363TIP3    H225054   4.830   5.910   1.221
 8364TIP3   OH225055   6.084   2.835   1.654
 8364TIP3    H125056   6.055   2.919   1.620
 8364TIP3    H225057   6.005   2.780   1.651
 8365TIP3   OH225058   5.930   1.233   2.370
 8365TIP3    H125059   5.860   1.192   2.420
 8365TIP3    H225060   5.887   1.303   2.321
 8366TIP3   OH225061   5.187   5.675   0.896
 8366TIP3    H125062   5.115   5.701   0.839
 8366TIP3    H225063   5.198   5.749   0.956
 8367TIP3   OH225064   2.533   4.811   4.769
 8367TIP3    H125065   2.444   4.803   4.804
 8367TIP3    H225066   2.583   4.744   4.814
 8368TIP3   OH225067   1.019   5.998   4.758
 8368TIP3    H125068   0.949   5.933   4.762
 8368TIP3    H225069   1.019   6.027   4.667
 8369TIP3   OH225070   5.663   0.196   3.342
 8369TIP3    H125071   5.727   0.204   3.271
 8369TIP3    H225072   5.716   0.187   3.421
 8370TIP3   OH225073   1.498   5.958   2.807
 8370TIP3    H125074   1.512   5.942   2.900
 8370TIP3    H225075   1.563   5.902   2.763
 8371TIP3   OH225076   4.485   5.513   2.287
 8371TIP3    H125077   4.549   5.504   2.358
 8371TIP3    H225078   4.463   5.423   2.263
 8372TIP3   OH225079   2.649   5.047   2.719
 8372TIP3    H125080   2.566   5.066   2.676
 8372TIP3    H225081   2.706   5.119   2.692
 8373TIP3   OH225082   1.894   4.848   1.822
 8373TIP3    H125083   1.964   4.827   1.761
 8373TIP3    H225084   1.907   4.787   1.895
 8374TIP3   OH225085   3.502   2.135   3.171
 8374TIP3    H125086   3.488   2.228   3.153
 8374TIP3    H225087   3.472   2.090   3.092
 8375TIP3   OH225088   6.860   1.807   5.535
 8375TIP3    H125089   6.918   1.842   5.604
 8375TIP3    H225090   6.783   1.863   5.539
 8376TIP3   OH225091   2.065   3.386   5.390
 8376TIP3    H125092   2.003   3.455   5.412
 8376TIP3    H225093   2.011   3.313   5.361
 8377TIP3   OH225094   0.719   4.466   2.552
 8377TIP3    H125095   0.730   4.376   2.519
 8377TIP3    H225096   0.773   4.519   2.494
 8378TIP3   OH225097   6.081   6.624   3.002
 8378TIP3    H125098   6.041   6.588   2.923
 8378TIP3    H225099   6.167   6.656   2.975
 8379TIP3   OH225100   3.448   5.210   3.829
 8379TIP3    H125101   3.462   5.204   3.734
 8379TIP3    H225102   3.493   5.133   3.865
 8380TIP3   OH225103   5.752   6.671   5.789
 8380TIP3    H125104   5.781   6.580   5.791
 8380TIP3    H225105   5.771   6.700   5.699
 8381TIP3   OH225106   6.852   2.079   5.365
 8381TIP3    H125107   6.780   2.041   5.416
 8381TIP3    H225108   6.877   2.010   5.304
 8382TIP3   OH225109   2.785   2.611   0.300
 8382TIP3    H125110   2.874   2.627   0.332
 8382TIP3    H225111   2.773   2.674   0.229
 8383TIP3   OH225112   6.319   5.703   5.206
 8383TIP3    H125113   6.243   5.646   5.214
 8383TIP3    H225114   6.284   5.791   5.223
 8384TIP3   OH225115   1.664   2.511   2.016
 8384TIP3    H125116   1.589   2.538   2.068
 8384TIP3    H225117   1.627   2.455   1.947
 8385TIP3   OH225118   2.804   3.798   4.782
 8385TIP3    H125119   2.854   3.752   4.849
 8385TIP3    H225120   2.713   3.771   4.796
 8386TIP3   OH225121   2.456   3.881   5.443
 8386TIP3    H125122   2.507   3.801   5.434
 8386TIP3    H225123   2.516   3.951   5.419
 8387TIP3   OH225124   2.808   4.116   2.155
 8387TIP3    H125125   2.726   4.163   2.169
 8387TIP3    H225126   2.783   4.024   2.154
 8388TIP3   OH225127   6.776   1.840   2.718
 8388TIP3    H125128   6.767   1.762   2.773
 8388TIP3    H225129   6.865   1.871   2.735
 8389TIP3   OH225130   0.030   5.131   1.084
 8389TIP3    H125131   0.035   5.169   1.172
 8389TIP3    H225132  -0.023   5.052   1.095
 8390TIP3   OH225133   2.142   3.814   1.880
 8390TIP3    H125134   2.064   3.865   1.857
 8390TIP3    H225135   2.189   3.805   1.797
 8391TIP3   OH225136   6.822   4.693   4.636
 8391TIP3    H125137   6.886   4.763   4.626
 8391TIP3    H225138   6.759   4.726   4.701
 8392TIP3   OH225139   3.205   4.824   0.122
 8392TIP3    H125140   3.148   4.882   0.072
 8392TIP3    H225141   3.157   4.806   0.203
 8393TIP3   OH225142   3.281   4.417   0.743
 8393TIP3    H125143   3.248   4.361   0.672
 8393TIP3    H225144   3.206   4.430   0.800
 8394TIP3   OH225145   2.990   6.442   4.670
 8394TIP3    H125146   3.010   6.362   4.622
 8394TIP3    H225147   2.896   6.456   4.654
 8395TIP3   OH225148   1.626   5.336   4.427
 8395TIP3    H125149   1.559   5.375   4.483
 8395TIP3    H225150   1.576   5.285   4.363
 8396TIP3   OH225151   3.055   2.660   3.711
 8396TIP3    H125152   3.112   2.652   3.788
 8396TIP3    H225153   2.982   2.713   3.741
 8397TIP3   OH225154   2.494   4.011   4.850
 8397TIP3    H125155   2.419   4.009   4.909
 8397TIP3    H225156   2.461   4.051   4.770
 8398TIP3   OH225157   3.278   3.307   5.474
 8398TIP3    H125158   3.184   3.324   5.470
 8398TIP3    H225159   3.313   3.350   5.396
 8399TIP3   OH225160   3.861   6.184   5.165
 8399TIP3    H125161   3.855   6.152   5.075
 8399TIP3    H225162   3.954   6.179   5.186
 8400TIP3   OH225163   4.890   3.364   3.776
 8400TIP3    H125164   4.810   3.359   3.724
 8400TIP3    H225165   4.916   3.273   3.789
 8401TIP3   OH225166   5.156   6.747   5.603
 8401TIP3    H125167   5.118   6.726   5.688
 8401TIP3    H225168   5.200   6.830   5.615
 8402TIP3   OH225169   5.103   3.777   3.368
 8402TIP3    H125170   5.154   3.706   3.327
 8402TIP3    H225171   5.105   3.848   3.304
 8403TIP3   OH225172   3.763   2.687   1.551
 8403TIP3    H125173   3.801   2.713   1.467
 8403TIP3    H225174   3.703   2.616   1.529
 8404TIP3   OH225175   2.649   0.834   0.604
 8404TIP3    H125176   2.709   0.799   0.670
 8404TIP3    H225177   2.592   0.761   0.582
 8405TIP3   OH225178   0.784   2.539   0.198
 8405TIP3    H125179   0.756   2.608   0.138
 8405TIP3    H225180   0.740   2.561   0.281
 8406TIP3   OH225181   1.181   0.386   5.279
 8406TIP3    H125182   1.184   0.321   5.209
 8406TIP3    H225183   1.212   0.338   5.357
 8407TIP3   OH225184   6.565   3.183   4.312
 8407TIP3    H125185   6.610   3.263   4.282
 8407TIP3    H225186   6.584   3.118   4.245
 8408TIP3   OH225187   5.446   0.590   5.433
 8408TIP3    H125188   5.449   0.510   5.380
 8408TIP3    H225189   5.479   0.563   5.519
 8409TIP3   OH225190   5.665   1.239   5.062
 8409TIP3    H125191   5.657   1.165   5.122
 8409TIP3    H225192   5.751   1.276   5.081
 8410TIP3   OH225193   5.437   6.727   5.811
 8410TIP3    H125194   5.447   6.784   5.735
 8410TIP3    H225195   5.508   6.664   5.803
 8411TIP3   OH225196   7.047   3.579   3.215
 8411TIP3    H125197   7.027   3.659   3.165
 8411TIP3    H225198   6.963   3.552   3.251
 8412TIP3   OH225199   6.208   1.813   3.246
 8412TIP3    H125200   6.278   1.872   3.218
 8412TIP3    H225201   6.220   1.735   3.192
 8413TIP3   OH225202   5.961   3.255   0.894
 8413TIP3    H125203   5.941   3.203   0.972
 8413TIP3    H225204   5.990   3.340   0.929
 8414TIP3   OH225205   3.983   0.756   1.208
 8414TIP3    H125206   3.942   0.672   1.225
 8414TIP3    H225207   3.911   0.814   1.184
 8415TIP3   OH225208   6.851   5.849   4.629
 8415TIP3    H125209   6.911   5.849   4.554
 8415TIP3    H225210   6.791   5.777   4.611
 8416TIP3   OH225211   7.102   1.937   5.166
 8416TIP3    H125212   7.182   1.885   5.160
 8416TIP3    H225213   7.036   1.876   5.198
 8417TIP3   OH225214   2.770   5.877   2.483
 8417TIP3    H125215   2.784   5.782   2.486
 8417TIP3    H225216   2.677   5.887   2.460
 8418TIP3   OH225217   6.317   0.826   5.410
 8418TIP3    H125218   6.292   0.906   5.364
 8418TIP3    H225219   6.355   0.858   5.493
 8419TIP3   OH225220   5.530   2.170   2.499
 8419TIP3    H125221   5.530   2.258   2.462
 8419TIP3    H225222   5.439   2.156   2.527
 8420TIP3   OH225223   5.252   2.801   2.278
 8420TIP3    H125224   5.225   2.809   2.369
 8420TIP3    H225225   5.322   2.866   2.268
 8421TIP3   OH225226   4.459   6.379   1.838
 8421TIP3    H125227   4.408   6.387   1.757
 8421TIP3    H225228   4.413   6.435   1.901
 8422TIP3   OH225229   4.778   0.902   1.632
 8422TIP3    H125230   4.866   0.941   1.636
 8422TIP3    H225231   4.789   0.827   1.574
 8423TIP3   OH225232   6.995   0.398   0.138
 8423TIP3    H125233   6.947   0.464   0.090
 8423TIP3    H225234   7.085   0.430   0.140
 8424TIP3   OH225235   0.520   5.239   3.885
 8424TIP3    H125236   0.608   5.237   3.847
 8424TIP3    H225237   0.465   5.278   3.817
 8425TIP3   OH225238   3.595   2.031   1.679
 8425TIP3    H125239   3.659   2.101   1.669
 8425TIP3    H225240   3.516   2.075   1.711
 8426TIP3   OH225241   2.966   1.356   1.757
 8426TIP3    H125242   3.041   1.375   1.701
 8426TIP3    H225243   2.997   1.377   1.845
 8427TIP3   OH225244   2.083   5.143   5.582
 8427TIP3    H125245   2.144   5.214   5.606
 8427TIP3    H225246   2.089   5.138   5.486
 8428TIP3   OH225247   0.571   5.563   5.107
 8428TIP3    H125248   0.496   5.565   5.047
 8428TIP3    H225249   0.545   5.621   5.179
 8429TIP3   OH225250   2.451   0.247   0.808
 8429TIP3    H125251   2.513   0.317   0.828
 8429TIP3    H225252   2.420   0.219   0.894
 8430TIP3   OH225253   4.811   6.117   2.366
 8430TIP3    H125254   4.807   6.094   2.459
 8430TIP3    H225255   4.808   6.032   2.321
 8431TIP3   OH225256   3.850   1.073   3.531
 8431TIP3    H125257   3.850   1.124   3.450
 8431TIP3    H225258   3.761   1.035   3.535
 8432TIP3   OH225259   2.123   5.751   0.780
 8432TIP3    H125260   2.080   5.762   0.695
 8432TIP3    H225261   2.069   5.802   0.841
 8433TIP3   OH225262   4.100   4.774   5.715
 8433TIP3    H125263   4.156   4.849   5.736
 8433TIP3    H225264   4.031   4.809   5.660
 8434TIP3   OH225265   6.532   2.115   5.290
 8434TIP3    H125266   6.572   2.118   5.204
 8434TIP3    H225267   6.442   2.085   5.274
 8435TIP3   OH225268   3.883   2.225   4.656
 8435TIP3    H125269   3.880   2.129   4.654
 8435TIP3    H225270   3.912   2.249   4.568
 8436TIP3   OH225271   5.612   3.078   0.496
 8436TIP3    H125272   5.702   3.091   0.528
 8436TIP3    H225273   5.586   2.995   0.535
 8437TIP3   OH225274   0.812   1.294   5.157
 8437TIP3    H125275   0.721   1.276   5.180
 8437TIP3    H225276   0.809   1.376   5.108
 8438TIP3   OH225277   0.136   0.269   4.371
 8438TIP3    H125278   0.205   0.238   4.430
 8438TIP3    H225279   0.180   0.281   4.287
 8439TIP3   OH225280   6.836   2.947   2.139
 8439TIP3    H125281   6.887   2.866   2.148
 8439TIP3    H225282   6.745   2.920   2.153
 8440TIP3   OH225283   4.248   0.598   5.061
 8440TIP3    H125284   4.309   0.525   5.059
 8440TIP3    H225285   4.176   0.569   5.117
 8441TIP3   OH225286   0.243   0.580   3.041
 8441TIP3    H125287   0.176   0.511   3.047
 8441TIP3    H225288   0.316   0.539   2.996
 8442TIP3   OH225289   4.210   5.499   4.003
 8442TIP3    H125290   4.143   5.546   3.953
 8442TIP3    H225291   4.292   5.517   3.956
 8443TIP3   OH225292   6.529   4.855   0.251
 8443TIP3    H125293   6.467   4.787   0.279
 8443TIP3    H225294   6.485   4.901   0.180
 8444TIP3   OH225295   5.260   6.786   1.604
 8444TIP3    H125296   5.172   6.749   1.593
 8444TIP3    H225297   5.319   6.716   1.580
 8445TIP3   OH225298   0.042   1.249   5.525
 8445TIP3    H125299   0.063   1.157   5.514
 8445TIP3    H225300  -0.045   1.249   5.566
 8446TIP3   OH225301   3.287   3.621   0.552
 8446TIP3    H125302   3.231   3.697   0.567
 8446TIP3    H225303   3.369   3.657   0.517
 8447TIP3   OH225304   5.840   4.015   3.577
 8447TIP3    H125305   5.875   3.999   3.490
 8447TIP3    H225306   5.896   3.964   3.636
 8448TIP3   OH225307   5.491   1.373   3.855
 8448TIP3    H125308   5.440   1.453   3.869
 8448TIP3    H225309   5.481   1.354   3.761
 8449TIP3   OH225310   5.283   2.289   4.671
 8449TIP3    H125311   5.337   2.210   4.677
 8449TIP3    H225312   5.345   2.357   4.645
 8450TIP3   OH225313   2.926   2.405   2.702
 8450TIP3    H125314   2.836   2.374   2.713
 8450TIP3    H225315   2.952   2.372   2.616
 8451TIP3   OH225316   5.557   2.438   2.411
 8451TIP3    H125317   5.504   2.511   2.441
 8451TIP3    H225318   5.643   2.452   2.450
 8452TIP3   OH225319   0.868   5.483   2.159
 8452TIP3    H125320   0.775   5.501   2.171
 8452TIP3    H225321   0.880   5.478   2.064
 8453TIP3   OH225322   1.154   6.764   0.379
 8453TIP3    H125323   1.067   6.737   0.408
 8453TIP3    H225324   1.167   6.716   0.297
 8454TIP3   OH225325   4.046   4.502   4.132
 8454TIP3    H125326   4.076   4.429   4.077
 8454TIP3    H225327   4.004   4.460   4.207
 8455TIP3   OH225328   4.532   4.100   4.160
 8455TIP3    H125329   4.613   4.133   4.201
 8455TIP3    H225330   4.476   4.177   4.154
 8456TIP3   OH225331   1.844   6.182   5.471
 8456TIP3    H125332   1.818   6.264   5.512
 8456TIP3    H225333   1.894   6.208   5.394
 8457TIP3   OH225334   1.189   6.019  -0.007
 8457TIP3    H125335   1.265   5.964  -0.023
 8457TIP3    H225336   1.225   6.099   0.031
 8458TIP3   OH225337   6.780   3.457   1.246
 8458TIP3    H125338   6.813   3.373   1.278
 8458TIP3    H225339   6.771   3.444   1.151
 8459TIP3   OH225340   5.625   3.306   1.300
 8459TIP3    H125341   5.619   3.291   1.206
 8459TIP3    H225342   5.559   3.248   1.337
 8460TIP3   OH225343   2.317   6.487   5.306
 8460TIP3    H125344   2.306   6.448   5.392
 8460TIP3    H225345   2.292   6.579   5.318
 8461TIP3   OH225346   2.370   0.097   5.036
 8461TIP3    H125347   2.333   0.051   4.961
 8461TIP3    H225348   2.446   0.045   5.062
 8462TIP3   OH225349   1.995   2.792   0.534
 8462TIP3    H125350   2.084   2.794   0.569
 8462TIP3    H225351   1.961   2.880   0.551
 8463TIP3   OH225352   4.939   5.891   1.991
 8463TIP3    H125353   5.024   5.870   1.954
 8463TIP3    H225354   4.885   5.914   1.915
 8464TIP3   OH225355   3.934   6.305   4.386
 8464TIP3    H125356   3.985   6.229   4.359
 8464TIP3    H225357   3.936   6.364   4.311
 8465TIP3   OH225358   3.436   1.047   4.020
 8465TIP3    H125359   3.499   1.065   3.950
 8465TIP3    H225360   3.381   0.977   3.985
 8466TIP3   OH225361   3.244   1.180   5.244
 8466TIP3    H125362   3.327   1.174   5.291
 8466TIP3    H225363   3.205   1.262   5.276
 8467TIP3   OH225364   7.191   2.718   2.316
 8467TIP3    H125365   7.270   2.717   2.263
 8467TIP3    H225366   7.129   2.772   2.267
 8468TIP3   OH225367   6.248   3.875   5.308
 8468TIP3    H125368   6.269   3.793   5.263
 8468TIP3    H225369   6.154   3.887   5.295
 8469TIP3   OH225370   2.650   4.082   5.394
 8469TIP3    H125371   2.683   4.150   5.453
 8469TIP3    H225372   2.621   4.131   5.317
 8470TIP3   OH225373   3.274   4.050   3.812
 8470TIP3    H125374   3.257   4.121   3.874
 8470TIP3    H225375   3.190   4.033   3.771
 8471TIP3   OH225376   2.756   2.527   4.147
 8471TIP3    H125377   2.760   2.488   4.059
 8471TIP3    H225378   2.816   2.602   4.143
 8472TIP3   OH225379   1.251   6.001   3.123
 8472TIP3    H125380   1.330   5.953   3.149
 8472TIP3    H225381   1.232   5.969   3.035
 8473TIP3   OH225382   2.956   2.927   0.356
 8473TIP3    H125383   2.960   3.022   0.361
 8473TIP3    H225384   2.866   2.905   0.378
 8474TIP3   OH225385   6.459   5.437   0.582
 8474TIP3    H125386   6.553   5.452   0.577
 8474TIP3    H225387   6.423   5.485   0.508
 8475TIP3   OH225388   4.876   2.921   2.704
 8475TIP3    H125389   4.886   2.936   2.798
 8475TIP3    H225390   4.878   2.825   2.695
 8476TIP3   OH225391   3.619   5.774   4.390
 8476TIP3    H125392   3.566   5.808   4.317
 8476TIP3    H225393   3.707   5.765   4.353
 8477TIP3   OH225394   1.890   2.052   0.598
 8477TIP3    H125395   1.946   2.108   0.544
 8477TIP3    H225396   1.930   1.965   0.593
 8478TIP3   OH225397   0.512   6.753   1.089
 8478TIP3    H125398   0.555   6.839   1.088
 8478TIP3    H225399   0.568   6.697   1.036
 8479TIP3   OH225400   2.826   3.747   5.518
 8479TIP3    H125401   2.840   3.663   5.561
 8479TIP3    H225402   2.746   3.736   5.468
 8480TIP3   OH225403   0.116   4.757   1.356
 8480TIP3    H125404   0.086   4.847   1.343
 8480TIP3    H225405   0.171   4.739   1.280
 8481TIP3   OH225406   4.358   3.666   5.366
 8481TIP3    H125407   4.282   3.696   5.417
 8481TIP3    H225408   4.429   3.661   5.429
 8482TIP3   OH225409   2.431   4.209   2.382
 8482TIP3    H125410   2.475   4.282   2.426
 8482TIP3    H225411   2.399   4.154   2.454
 8483TIP3   OH225412   3.404   3.151   4.006
 8483TIP3    H125413   3.393   3.200   4.088
 8483TIP3    H225414   3.483   3.188   3.967
 8484TIP3   OH225415   1.110   4.820   4.659
 8484TIP3    H125416   1.103   4.894   4.720
 8484TIP3    H225417   1.175   4.762   4.700
 8485TIP3   OH225418   1.360   4.138   1.301
 8485TIP3    H125419   1.432   4.136   1.239
 8485TIP3    H225420   1.290   4.185   1.256
 8486TIP3   OH225421   5.106   2.307   2.906
 8486TIP3    H125422   5.078   2.242   2.970
 8486TIP3    H225423   5.025   2.341   2.869
 8487TIP3   OH225424   3.096   5.586   1.816
 8487TIP3    H125425   3.047   5.521   1.764
 8487TIP3    H225426   3.186   5.556   1.812
 8488TIP3   OH225427   1.644   5.598   2.234
 8488TIP3    H125428   1.707   5.606   2.162
 8488TIP3    H225429   1.639   5.686   2.272
 8489TIP3   OH225430   3.267   0.761   1.034
 8489TIP3    H125431   3.313   0.825   0.979
 8489TIP3    H225432   3.213   0.814   1.092
 8490TIP3   OH225433   5.768   5.896   4.295
 8490TIP3    H125434   5.803   5.951   4.365
 8490TIP3    H225435   5.841   5.885   4.234
 8491TIP3   OH225436   5.717   2.982   2.427
 8491TIP3    H125437   5.664   3.056   2.454
 8491TIP3    H225438   5.742   2.939   2.508
 8492TIP3   OH225439   3.171   1.017   4.370
 8492TIP3    H125440   3.185   0.923   4.379
 8492TIP3    H225441   3.094   1.035   4.423
 8493TIP3   OH225442  -0.024   3.432   0.205
 8493TIP3    H125443   0.064   3.404   0.178
 8493TIP3    H225444  -0.014   3.457   0.297
 8494TIP3   OH225445   4.883   3.316   3.332
 8494TIP3    H125446   4.790   3.339   3.329
 8494TIP3    H225447   4.884   3.228   3.370
 8495TIP3   OH225448   5.747   0.797   3.696
 8495TIP3    H125449   5.702   0.864   3.645
 8495TIP3    H225450   5.838   0.801   3.666
 8496TIP3   OH225451   3.441   3.906   4.881
 8496TIP3    H125452   3.509   3.943   4.936
 8496TIP3    H225453   3.368   3.967   4.889
 8497TIP3   OH225454   6.808   1.075   2.026
 8497TIP3    H125455   6.748   1.041   2.092
 8497TIP3    H225456   6.890   1.027   2.040
 8498TIP3   OH225457   6.676   4.088   1.196
 8498TIP3    H125458   6.582   4.080   1.212
 8498TIP3    H225459   6.695   4.181   1.213
 8499TIP3   OH225460   2.926   6.358   0.146
 8499TIP3    H125461   2.985   6.322   0.212
 8499TIP3    H225462   2.949   6.312   0.065
 8500TIP3   OH225463   5.547   3.068   3.516
 8500TIP3    H125464   5.624   3.116   3.485
 8500TIP3    H225465   5.571   3.038   3.604
 8501TIP3   OH225466   6.910   3.794   3.042
 8501TIP3    H125467   6.833   3.747   3.009
 8501TIP3    H225468   6.981   3.765   2.984
 8502TIP3   OH225469   2.576   6.480   1.435
 8502TIP3    H125470   2.636   6.519   1.371
 8502TIP3    H225471   2.489   6.499   1.399
 8503TIP3   OH225472   5.920   0.470   1.534
 8503TIP3    H125473   5.893   0.562   1.543
 8503TIP3    H225474   5.961   0.465   1.448
 8504TIP3   OH225475   4.292   1.834   4.521
 8504TIP3    H125476   4.329   1.752   4.488
 8504TIP3    H225477   4.224   1.856   4.458
 8505TIP3   OH225478   6.932   0.646   5.801
 8505TIP3    H125479   7.004   0.610   5.852
 8505TIP3    H225480   6.889   0.570   5.762
 8506TIP3   OH225481   4.757   3.868   3.405
 8506TIP3    H125482   4.791   3.952   3.375
 8506TIP3    H225483   4.835   3.816   3.423
 8507TIP3   OH225484   3.812   0.981   2.426
 8507TIP3    H125485   3.826   0.892   2.392
 8507TIP3    H225486   3.896   1.025   2.411
 8508TIP3   OH225487   3.293   2.490   3.125
 8508TIP3    H125488   3.230   2.435   3.079
 8508TIP3    H225489   3.295   2.455   3.214
 8509TIP3   OH225490   3.232   2.616   0.717
 8509TIP3    H125491   3.284   2.623   0.637
 8509TIP3    H225492   3.172   2.690   0.714
 8510TIP3   OH225493   0.625   4.473   0.043
 8510TIP3    H125494   0.566   4.513   0.107
 8510TIP3    H225495   0.674   4.547   0.006
 8511TIP3   OH225496   6.902   5.982   1.374
 8511TIP3    H125497   6.840   6.054   1.387
 8511TIP3    H225498   6.937   5.995   1.286
 8512TIP3   OH225499   2.656   6.401   0.849
 8512TIP3    H125500   2.568   6.422   0.881
 8512TIP3    H225501   2.714   6.457   0.901
 8513TIP3   OH225502   6.920   1.881   0.032
 8513TIP3    H125503   6.978   1.814   0.068
 8513TIP3    H225504   6.832   1.847   0.046
 8514TIP3   OH225505   6.467   4.055   1.902
 8514TIP3    H125506   6.450   4.104   1.983
 8514TIP3    H225507   6.485   4.123   1.837
 8515TIP3   OH225508   6.089   1.173   1.873
 8515TIP3    H125509   6.036   1.141   1.799
 8515TIP3    H225510   6.035   1.243   1.912
 8516TIP3   OH225511   5.242   4.469   3.140
 8516TIP3    H125512   5.197   4.530   3.197
 8516TIP3    H225513   5.184   4.461   3.063
 8517TIP3   OH225514   5.730   5.496   1.265
 8517TIP3    H125515   5.736   5.421   1.323
 8517TIP3    H225516   5.769   5.467   1.183
 8518TIP3   OH225517   5.700   2.051   1.894
 8518TIP3    H125518   5.756   1.974   1.880
 8518TIP3    H225519   5.620   2.015   1.933
 8519TIP3   OH225520   4.154   6.685   3.570
 8519TIP3    H125521   4.144   6.602   3.524
 8519TIP3    H225522   4.075   6.734   3.548
 8520TIP3   OH225523   3.054   1.376   4.536
 8520TIP3    H125524   2.999   1.433   4.591
 8520TIP3    H225525   3.021   1.288   4.553
 8521TIP3   OH225526   0.084   5.973   0.040
 8521TIP3    H125527   0.036   5.890   0.037
 8521TIP3    H225528   0.044   6.027  -0.028
 8522TIP3   OH225529   1.903   1.713   3.408
 8522TIP3    H125530   1.934   1.798   3.378
 8522TIP3    H225531   1.920   1.654   3.334
 8523TIP3   OH225532   7.229   4.139   3.250
 8523TIP3    H125533   7.278   4.082   3.191
 8523TIP3    H225534   7.140   4.140   3.215
 8524TIP3   OH225535   3.972   2.381   5.310
 8524TIP3    H125536   3.928   2.466   5.308
 8524TIP3    H225537   4.065   2.402   5.305
 8525TIP3   OH225538   1.857   1.302   3.576
 8525TIP3    H125539   1.875   1.209   3.589
 8525TIP3    H225540   1.816   1.330   3.658
 8526TIP3   OH225541   1.288   5.187   2.450
 8526TIP3    H125542   1.309   5.125   2.519
 8526TIP3    H225543   1.370   5.201   2.404
 8527TIP3   OH225544   3.514   0.577   1.692
 8527TIP3    H125545   3.608   0.562   1.703
 8527TIP3    H225546   3.499   0.570   1.597
 8528TIP3   OH225547   2.736   4.728   1.334
 8528TIP3    H125548   2.789   4.666   1.285
 8528TIP3    H225549   2.660   4.745   1.278
 8529TIP3   OH225550   2.699   0.551   4.048
 8529TIP3    H125551   2.613   0.546   4.090
 8529TIP3    H225552   2.687   0.507   3.964
 8530TIP3   OH225553   2.474   4.462   1.223
 8530TIP3    H125554   2.477   4.398   1.294
 8530TIP3    H225555   2.385   4.496   1.226
 8531TIP3   OH225556   7.124   6.350   3.649
 8531TIP3    H125557   7.045   6.298   3.633
 8531TIP3    H225558   7.175   6.298   3.711
 8532TIP3   OH225559   0.638   2.902   0.177
 8532TIP3    H125560   0.636   2.886   0.272
 8532TIP3    H225561   0.619   2.816   0.138
 8533TIP3   OH225562   3.342   1.562   0.623
 8533TIP3    H125563   3.369   1.645   0.584
 8533TIP3    H225564   3.254   1.578   0.656
 8534TIP3   OH225565   2.585   6.765   3.032
 8534TIP3    H125566   2.498   6.803   3.020
 8534TIP3    H225567   2.640   6.839   3.059
 8535TIP3   OH225568   2.455   3.323   2.553
 8535TIP3    H125569   2.477   3.241   2.509
 8535TIP3    H225570   2.375   3.353   2.511
 8536TIP3   OH225571   4.524   4.705   0.681
 8536TIP3    H125572   4.500   4.776   0.741
 8536TIP3    H225573   4.551   4.634   0.738
 8537TIP3   OH225574   2.658   2.886   4.671
 8537TIP3    H125575   2.631   2.794   4.676
 8537TIP3    H225576   2.717   2.898   4.745
 8538TIP3   OH225577   5.099   2.875   5.479
 8538TIP3    H125578   5.147   2.906   5.556
 8538TIP3    H225579   5.164   2.874   5.409
 8539TIP3   OH225580   2.772   5.514   3.722
 8539TIP3    H125581   2.733   5.427   3.732
 8539TIP3    H225582   2.819   5.509   3.639
 8540TIP3   OH225583   6.707   5.863   2.349
 8540TIP3    H125584   6.625   5.831   2.313
 8540TIP3    H225585   6.695   5.958   2.357
 8541TIP3   OH225586   5.310   5.048   0.203
 8541TIP3    H125587   5.379   4.987   0.231
 8541TIP3    H225588   5.232   4.993   0.193
 8542TIP3   OH225589   5.063   5.576   3.169
 8542TIP3    H125590   5.019   5.514   3.227
 8542TIP3    H225591   5.121   5.625   3.227
 8543TIP3   OH225592   1.862   6.241   3.444
 8543TIP3    H125593   1.815   6.183   3.504
 8543TIP3    H225594   1.799   6.308   3.420
 8544TIP3   OH225595   0.088   2.494   0.621
 8544TIP3    H125596   0.095   2.556   0.548
 8544TIP3    H225597   0.171   2.446   0.619
 8545TIP3   OH225598   4.901   1.861   4.546
 8545TIP3    H125599   4.848   1.940   4.533
 8545TIP3    H225600   4.839   1.795   4.577
 8546TIP3   OH225601   1.023   2.640   1.021
 8546TIP3    H125602   1.039   2.589   1.100
 8546TIP3    H225603   1.051   2.583   0.949
 8547TIP3   OH225604   0.025   1.136   4.244
 8547TIP3    H125605   0.051   1.101   4.159
 8547TIP3    H225606  -0.042   1.075   4.276
 8548TIP3   OH225607   4.561   0.331   0.335
 8548TIP3    H125608   4.592   0.248   0.371
 8548TIP3    H225609   4.537   0.383   0.411
 8549TIP3   OH225610   0.149   1.773   5.375
 8549TIP3    H125611   0.156   1.789   5.281
 8549TIP3    H225612   0.103   1.689   5.381
 8550TIP3   OH225613   6.137   5.244   0.973
 8550TIP3    H125614   6.073   5.270   0.906
 8550TIP3    H225615   6.222   5.252   0.929
 8551TIP3   OH225616   3.302   4.780   2.914
 8551TIP3    H125617   3.289   4.706   2.855
 8551TIP3    H225618   3.320   4.740   2.999
 8552TIP3   OH225619   0.020   6.348   0.928
 8552TIP3    H125620  -0.023   6.338   1.013
 8552TIP3    H225621   0.110   6.373   0.949
 8553TIP3   OH225622   0.765   5.478   3.132
 8553TIP3    H125623   0.761   5.421   3.055
 8553TIP3    H225624   0.858   5.499   3.141
 8554TIP3   OH225625   4.271   6.112   3.364
 8554TIP3    H125626   4.193   6.166   3.353
 8554TIP3    H225627   4.285   6.109   3.459
 8555TIP3   OH225628   4.288   5.441   2.598
 8555TIP3    H125629   4.237   5.417   2.676
 8555TIP3    H225630   4.262   5.531   2.578
 8556TIP3   OH225631   5.497   3.142   2.652
 8556TIP3    H125632   5.553   3.134   2.729
 8556TIP3    H225633   5.435   3.070   2.660
 8557TIP3   OH225634   5.549   5.439   5.634
 8557TIP3    H125635   5.523   5.448   5.725
 8557TIP3    H225636   5.582   5.526   5.609
 8558TIP3   OH225637   4.841   2.624   1.359
 8558TIP3    H125638   4.893   2.576   1.423
 8558TIP3    H225639   4.757   2.639   1.402
 8559TIP3   OH225640   4.419   0.827   2.694
 8559TIP3    H125641   4.430   0.921   2.710
 8559TIP3    H225642   4.349   0.801   2.754
 8560TIP3   OH225643   0.401   2.814   0.423
 8560TIP3    H125644   0.350   2.873   0.478
 8560TIP3    H225645   0.487   2.811   0.465
 8561TIP3   OH225646   4.777   5.705   4.004
 8561TIP3    H125647   4.872   5.702   4.017
 8561TIP3    H225648   4.760   5.792   3.967
 8562TIP3   OH225649   4.854   4.164   2.182
 8562TIP3    H125650   4.805   4.111   2.244
 8562TIP3    H225651   4.828   4.130   2.096
 8563TIP3   OH225652   4.920   4.574   0.464
 8563TIP3    H125653   4.946   4.544   0.377
 8563TIP3    H225654   4.865   4.651   0.447
 8564TIP3   OH225655   3.645   4.096   2.024
 8564TIP3    H125656   3.610   4.155   2.091
 8564TIP3    H225657   3.714   4.048   2.069
 8565TIP3   OH225658   3.063   5.176   3.898
 8565TIP3    H125659   3.031   5.190   3.809
 8565TIP3    H225660   3.136   5.238   3.907
 8566TIP3   OH225661   2.285   5.253   0.191
 8566TIP3    H125662   2.352   5.250   0.259
 8566TIP3    H225663   2.316   5.192   0.124
 8567TIP3   OH225664   0.280   2.556   4.995
 8567TIP3    H125665   0.259   2.463   5.003
 8567TIP3    H225666   0.314   2.565   4.906
 8568TIP3   OH225667   1.253   0.397   4.098
 8568TIP3    H125668   1.198   0.330   4.140
 8568TIP3    H225669   1.247   0.472   4.157
 8569TIP3   OH225670   4.367   2.115   4.991
 8569TIP3    H125671   4.392   2.109   5.083
 8569TIP3    H225672   4.343   2.207   4.979
 8570TIP3   OH225673   0.323   6.245   2.904
 8570TIP3    H125674   0.309   6.321   2.847
 8570TIP3    H225675   0.416   6.249   2.926
 8571TIP3   OH225676   6.305   4.737   0.332
 8571TIP3    H125677   6.212   4.723   0.318
 8571TIP3    H225678   6.312   4.826   0.365
 8572TIP3   OH225679   6.512   2.194   4.624
 8572TIP3    H125680   6.477   2.107   4.604
 8572TIP3    H225681   6.606   2.187   4.610
 8573TIP3   OH225682   4.769   5.417   3.519
 8573TIP3    H125683   4.730   5.473   3.585
 8573TIP3    H225684   4.760   5.328   3.555
 8574TIP3   OH225685   4.658   2.754   3.235
 8574TIP3    H125686   4.743   2.712   3.248
 8574TIP3    H225687   4.617   2.704   3.164
 8575TIP3   OH225688   2.374   0.022   3.749
 8575TIP3    H125689   2.360  -0.072   3.764
 8575TIP3    H225690   2.349   0.063   3.831
 8576TIP3   OH225691   0.979   1.536   3.468
 8576TIP3    H125692   0.981   1.503   3.378
 8576TIP3    H225693   0.945   1.464   3.520
 8577TIP3   OH225694   5.488   1.050   2.690
 8577TIP3    H125695   5.465   1.088   2.774
 8577TIP3    H225696   5.404   1.018   2.655
 8578TIP3   OH225697   3.513   6.310   0.538
 8578TIP3    H125698   3.421   6.338   0.544
 8578TIP3    H225699   3.547   6.319   0.626
 8579TIP3   OH225700   5.952   1.909   5.244
 8579TIP3    H125701   5.953   2.004   5.234
 8579TIP3    H225702   5.859   1.886   5.244
 8580TIP3   OH225703   4.574   0.644  -0.003
 8580TIP3    H125704   4.510   0.622   0.065
 8580TIP3    H225705   4.641   0.576   0.006
 8581TIP3   OH225706   2.258   6.765   3.509
 8581TIP3    H125707   2.247   6.858   3.488
 8581TIP3    H225708   2.207   6.719   3.442
 8582TIP3   OH225709   3.052   3.454   4.149
 8582TIP3    H125710   3.084   3.442   4.238
 8582TIP3    H225711   3.055   3.366   4.111
 8583TIP3   OH225712   2.903   5.278   0.711
 8583TIP3    H125713   2.834   5.212   0.718
 8583TIP3    H225714   2.857   5.362   0.716
 8584TIP3   OH225715   0.896   5.352   2.877
 8584TIP3    H125716   0.802   5.337   2.861
 8584TIP3    H225717   0.940   5.290   2.819
 8585TIP3   OH225718   5.555   5.335   2.204
 8585TIP3    H125719   5.648   5.332   2.186
 8585TIP3    H225720   5.547   5.392   2.280
 8586TIP3   OH225721   5.177   1.986   2.913
 8586TIP3    H125722   5.103   1.997   2.853
 8586TIP3    H225723   5.161   2.050   2.982
 8587TIP3   OH225724   3.625   1.837   1.947
 8587TIP3    H125725   3.594   1.873   1.865
 8587TIP3    H225726   3.680   1.906   1.985
 8588TIP3   OH225727   2.349   4.831   1.984
 8588TIP3    H125728   2.373   4.886   1.909
 8588TIP3    H225729   2.345   4.892   2.058
 8589TIP3   OH225730   0.059   5.713   5.134
 8589TIP3    H125731   0.040   5.629   5.176
 8589TIP3    H225732   0.091   5.768   5.205
 8590TIP3   OH225733   0.962   6.137   4.243
 8590TIP3    H125734   1.047   6.095   4.232
 8590TIP3    H225735   0.983   6.229   4.261
 8591TIP3   OH225736   0.393   0.213   5.628
 8591TIP3    H125737   0.351   0.254   5.703
 8591TIP3    H225738   0.370   0.270   5.554
 8592TIP3   OH225739   4.753   2.997   1.404
 8592TIP3    H125740   4.776   3.082   1.365
 8592TIP3    H225741   4.815   2.936   1.364
 8593TIP3   OH225742   0.994   6.079   2.764
 8593TIP3    H125743   1.080   6.035   2.761
 8593TIP3    H225744   1.007   6.153   2.823
 8594TIP3   OH225745   2.100   3.371   1.753
 8594TIP3    H125746   2.100   3.431   1.828
 8594TIP3    H225747   2.022   3.317   1.767
 8595TIP3   OH225748   4.751   4.796   2.958
 8595TIP3    H125749   4.818   4.730   2.974
 8595TIP3    H225750   4.742   4.798   2.862
 8596TIP3   OH225751   1.515   0.804   5.483
 8596TIP3    H125752   1.453   0.743   5.445
 8596TIP3    H225753   1.461   0.863   5.536
 8597TIP3   OH225754   1.498   4.766   1.320
 8597TIP3    H125755   1.533   4.690   1.366
 8597TIP3    H225756   1.404   4.749   1.314
 8598TIP3   OH225757   6.802   4.639   2.144
 8598TIP3    H125758   6.813   4.664   2.053
 8598TIP3    H225759   6.735   4.570   2.142
 8599TIP3   OH225760   4.019   5.501   2.435
 8599TIP3    H125761   3.959   5.445   2.485
 8599TIP3    H225762   4.105   5.479   2.469
 8600TIP3   OH225763   2.918   2.084   5.786
 8600TIP3    H125764   2.956   2.165   5.752
 8600TIP3    H225765   2.914   2.026   5.709
 8601TIP3   OH225766   1.575   0.175   1.708
 8601TIP3    H125767   1.590   0.081   1.717
 8601TIP3    H225768   1.502   0.182   1.647
 8602TIP3   OH225769   3.986   2.674   5.866
 8602TIP3    H125770   3.903   2.708   5.899
 8602TIP3    H225771   3.961   2.603   5.807
 8603TIP3   OH225772   1.678   5.070   2.991
 8603TIP3    H125773   1.633   5.154   3.005
 8603TIP3    H225774   1.621   5.005   3.032
 8604TIP3   OH225775   2.317   1.928   3.494
 8604TIP3    H125776   2.294   1.836   3.486
 8604TIP3    H225777   2.234   1.975   3.487
 8605TIP3   OH225778   5.946   6.481   0.823
 8605TIP3    H125779   5.930   6.413   0.758
 8605TIP3    H225780   6.038   6.504   0.811
 8606TIP3   OH225781   1.892   5.904   5.443
 8606TIP3    H125782   1.869   5.866   5.528
 8606TIP3    H225783   1.864   5.995   5.450
 8607TIP3   OH225784   0.454   3.069   0.058
 8607TIP3    H125785   0.513   3.007   0.102
 8607TIP3    H225786   0.378   3.017   0.033
 8608TIP3   OH225787   3.258   4.102   0.710
 8608TIP3    H125788   3.307   4.141   0.638
 8608TIP3    H225789   3.323   4.090   0.779
 8609TIP3   OH225790   0.923   0.711   4.434
 8609TIP3    H125791   0.934   0.783   4.496
 8609TIP3    H225792   0.945   0.750   4.349
 8610TIP3   OH225793   0.100   0.817   2.994
 8610TIP3    H125794   0.119   0.840   2.903
 8610TIP3    H225795   0.151   0.737   3.009
 8611TIP3   OH225796   5.865   0.890   4.253
 8611TIP3    H125797   5.922   0.825   4.292
 8611TIP3    H225798   5.778   0.868   4.285
 8612TIP3   OH225799   4.961   1.652   1.347
 8612TIP3    H125800   4.876   1.673   1.386
 8612TIP3    H225801   4.947   1.567   1.305
 8613TIP3   OH225802   3.586   5.078   1.463
 8613TIP3    H125803   3.584   5.097   1.369
 8613TIP3    H225804   3.502   5.036   1.480
 8614TIP3   OH225805   4.322   2.208   3.471
 8614TIP3    H125806   4.368   2.165   3.398
 8614TIP3    H225807   4.252   2.258   3.429
 8615TIP3   OH225808   4.019   0.079   0.027
 8615TIP3    H125809   4.078   0.076   0.102
 8615TIP3    H225810   4.077   0.099  -0.047
 8616TIP3   OH225811   1.350   1.802   0.377
 8616TIP3    H125812   1.391   1.764   0.454
 8616TIP3    H225813   1.341   1.895   0.397
 8617TIP3   OH225814   5.128   0.490   4.680
 8617TIP3    H125815   5.208   0.528   4.643
 8617TIP3    H225816   5.110   0.413   4.626
 8618TIP3   OH225817   2.411   5.031   2.574
 8618TIP3    H125818   2.380   5.116   2.542
 8618TIP3    H225819   2.332   4.986   2.605
 8619TIP3   OH225820   2.086   6.553   1.427
 8619TIP3    H125821   2.022   6.597   1.371
 8619TIP3    H225822   2.165   6.546   1.373
 8620TIP3   OH225823   2.745   2.434   5.029
 8620TIP3    H125824   2.794   2.390   5.099
 8620TIP3    H225825   2.796   2.417   4.950
 8621TIP3   OH225826   2.523   3.677   2.309
 8621TIP3    H125827   2.479   3.632   2.382
 8621TIP3    H225828   2.474   3.759   2.299
 8622TIP3   OH225829   6.181   3.599   3.654
 8622TIP3    H125830   6.264   3.569   3.692
 8622TIP3    H225831   6.118   3.531   3.678
 8623TIP3   OH225832   3.413   5.617   3.228
 8623TIP3    H125833   3.494   5.571   3.251
 8623TIP3    H225834   3.437   5.672   3.154
 8624TIP3   OH225835   6.783   5.849   3.439
 8624TIP3    H125836   6.735   5.913   3.387
 8624TIP3    H225837   6.732   5.768   3.431
 8625TIP3   OH225838   1.361   3.466   4.516
 8625TIP3    H125839   1.392   3.545   4.560
 8625TIP3    H225840   1.325   3.412   4.586
 8626TIP3   OH225841   2.031   4.481   0.538
 8626TIP3    H125842   2.051   4.505   0.628
 8626TIP3    H225843   2.037   4.564   0.489
 8627TIP3   OH225844   0.248   6.703   3.021
 8627TIP3    H125845   0.223   6.678   2.932
 8627TIP3    H225846   0.201   6.785   3.037
 8628TIP3   OH225847   4.226   6.364   0.749
 8628TIP3    H125848   4.218   6.398   0.838
 8628TIP3    H225849   4.297   6.300   0.754
 8629TIP3   OH225850   2.530   3.876   3.099
 8629TIP3    H125851   2.579   3.848   3.023
 8629TIP3    H225852   2.591   3.930   3.149
 8630TIP3   OH225853   6.454   4.019   5.413
 8630TIP3    H125854   6.483   4.097   5.364
 8630TIP3    H225855   6.385   3.981   5.359
 8631TIP3   OH225856   2.925   2.613   5.340
 8631TIP3    H125857   2.936   2.525   5.304
 8631TIP3    H225858   2.896   2.599   5.430
 8632TIP3   OH225859   1.976   2.177   0.216
 8632TIP3    H125860   1.900   2.208   0.265
 8632TIP3    H225861   1.944   2.160   0.128
 8633TIP3   OH225862   2.484   3.442   4.979
 8633TIP3    H125863   2.443   3.380   4.918
 8633TIP3    H225864   2.471   3.528   4.938
 8634TIP3   OH225865   2.458   4.279   4.275
 8634TIP3    H125866   2.538   4.231   4.297
 8634TIP3    H225867   2.475   4.314   4.187
 8635TIP3   OH225868   0.312   6.085   0.937
 8635TIP3    H125869   0.315   6.038   1.020
 8635TIP3    H225870   0.404   6.103   0.916
 8636TIP3   OH225871   7.177   2.303   3.455
 8636TIP3    H125872   7.229   2.339   3.527
 8636TIP3    H225873   7.086   2.306   3.487
 8637TIP3   OH225874   5.372   6.274   5.619
 8637TIP3    H125875   5.468   6.274   5.619
 8637TIP3    H225876   5.348   6.346   5.560
 8638TIP3   OH225877   0.159   2.378   3.281
 8638TIP3    H125878   0.085   2.400   3.337
 8638TIP3    H225879   0.136   2.293   3.243
 8639TIP3   OH225880   6.742   5.797   1.897
 8639TIP3    H125881   6.681   5.871   1.887
 8639TIP3    H225882   6.727   5.744   1.819
 8640TIP3   OH225883   6.802   2.635   5.191
 8640TIP3    H125884   6.728   2.578   5.170
 8640TIP3    H225885   6.879   2.580   5.177
 8641TIP3   OH225886   1.378   4.375   0.660
 8641TIP3    H125887   1.405   4.354   0.570
 8641TIP3    H225888   1.285   4.399   0.651
 8642TIP3   OH225889   1.372   0.013   0.952
 8642TIP3    H125890   1.368  -0.030   1.038
 8642TIP3    H225891   1.401   0.102   0.971
 8643TIP3   OH225892   3.325   1.516   4.472
 8643TIP3    H125893   3.414   1.547   4.491
 8643TIP3    H225894   3.318   1.432   4.517
 8644TIP3   OH225895   2.329   3.367   3.844
 8644TIP3    H125896   2.382   3.287   3.836
 8644TIP3    H225897   2.384   3.436   3.807
 8645TIP3   OH225898   5.092   1.149   3.241
 8645TIP3    H125899   5.144   1.229   3.244
 8645TIP3    H225900   5.064   1.142   3.149
 8646TIP3   OH225901   0.558   4.420   0.815
 8646TIP3    H125902   0.467   4.446   0.796
 8646TIP3    H225903   0.594   4.492   0.865
 8647TIP3   OH225904   4.123   3.517   1.112
 8647TIP3    H125905   4.193   3.542   1.172
 8647TIP3    H225906   4.071   3.452   1.161
 8648TIP3   OH225907   5.202   0.683   0.794
 8648TIP3    H125908   5.146   0.729   0.731
 8648TIP3    H225909   5.142   0.626   0.842
 8649TIP3   OH225910   1.192   4.865   0.636
 8649TIP3    H125911   1.171   4.910   0.718
 8649TIP3    H225912   1.270   4.815   0.657
 8650TIP3   OH225913   4.556   0.118   1.338
 8650TIP3    H125914   4.624   0.110   1.405
 8650TIP3    H225915   4.504   0.193   1.365
 8651TIP3   OH225916   0.137   1.192   1.049
 8651TIP3    H125917   0.153   1.275   1.005
 8651TIP3    H225918   0.187   1.197   1.130
 8652TIP3   OH225919   6.573   2.811   2.995
 8652TIP3    H125920   6.564   2.900   3.027
 8652TIP3    H225921   6.484   2.776   2.995
 8653TIP3   OH225922   4.721   5.313   5.457
 8653TIP3    H125923   4.770   5.378   5.506
 8653TIP3    H225924   4.782   5.281   5.391
 8654TIP3   OH225925   0.084   1.391   4.161
 8654TIP3    H125926   0.079   1.300   4.190
 8654TIP3    H225927   0.172   1.419   4.184
 8655TIP3   OH225928   1.148   3.460   4.920
 8655TIP3    H125929   1.084   3.396   4.950
 8655TIP3    H225930   1.110   3.496   4.840
 8656TIP3   OH225931   0.431   1.955   5.348
 8656TIP3    H125932   0.346   1.984   5.381
 8656TIP3    H225933   0.492   2.023   5.375
 8657TIP3   OH225934   6.779   6.103   5.131
 8657TIP3    H125935   6.800   6.055   5.051
 8657TIP3    H225936   6.844   6.073   5.195
 8658TIP3   OH225937   5.325   5.659   5.743
 8658TIP3    H125938   5.418   5.678   5.755
 8658TIP3    H225939   5.280   5.727   5.793
 8659TIP3   OH225940   3.422   6.327   2.346
 8659TIP3    H125941   3.503   6.361   2.383
 8659TIP3    H225942   3.440   6.234   2.330
 8660TIP3   OH225943   2.082   3.586   3.046
 8660TIP3    H125944   2.090   3.521   2.976
 8660TIP3    H225945   2.162   3.575   3.098
 8661TIP3   OH225946   7.159   0.771   2.521
 8661TIP3    H125947   7.114   0.687   2.533
 8661TIP3    H225948   7.119   0.809   2.443
 8662TIP3   OH225949   6.364   5.226   3.635
 8662TIP3    H125950   6.449   5.222   3.591
 8662TIP3    H225951   6.336   5.135   3.642
 8663TIP3   OH225952   4.327   1.249   3.214
 8663TIP3    H125953   4.331   1.164   3.170
 8663TIP3    H225954   4.382   1.238   3.292
 8664TIP3   OH225955   1.529   6.073   5.456
 8664TIP3    H125956   1.565   6.119   5.380
 8664TIP3    H225957   1.445   6.116   5.473
 8665TIP3   OH225958   4.488   1.016   0.173
 8665TIP3    H125959   4.500   0.959   0.249
 8665TIP3    H225960   4.448   0.960   0.106
 8666TIP3   OH225961   6.943   6.286   5.454
 8666TIP3    H125962   7.012   6.352   5.441
 8666TIP3    H225963   6.969   6.214   5.397
 8667TIP3   OH225964   2.895   1.330   3.741
 8667TIP3    H125965   2.896   1.255   3.683
 8667TIP3    H225966   2.937   1.400   3.691
 8668TIP3   OH225967   5.700   1.968   0.411
 8668TIP3    H125968   5.780   1.955   0.463
 8668TIP3    H225969   5.712   2.054   0.370
 8669TIP3   OH225970   6.534   4.795   3.407
 8669TIP3    H125971   6.590   4.719   3.394
 8669TIP3    H225972   6.458   4.761   3.454
 8670TIP3   OH225973   1.369   5.868   4.988
 8670TIP3    H125974   1.347   5.864   4.894
 8670TIP3    H225975   1.314   5.801   5.028
 8671TIP3   OH225976   6.466   2.160   4.016
 8671TIP3    H125977   6.502   2.176   3.928
 8671TIP3    H225978   6.419   2.077   4.008
 8672TIP3   OH225979   5.190   4.706   1.153
 8672TIP3    H125980   5.125   4.657   1.203
 8672TIP3    H225981   5.237   4.757   1.219
 8673TIP3   OH225982   6.655   6.127   2.127
 8673TIP3    H125983   6.710   6.053   2.154
 8673TIP3    H225984   6.622   6.163   2.210
 8674TIP3   OH225985   5.194   2.236   1.118
 8674TIP3    H125986   5.123   2.299   1.120
 8674TIP3    H225987   5.231   2.237   1.206
 8675TIP3   OH225988   7.158   0.611   2.880
 8675TIP3    H125989   7.224   0.664   2.924
 8675TIP3    H225990   7.078   0.624   2.932
 8676TIP3   OH225991   5.233   0.479   1.126
 8676TIP3    H125992   5.277   0.410   1.077
 8676TIP3    H225993   5.156   0.501   1.073
 8677TIP3   OH225994   3.952   5.496   0.371
 8677TIP3    H125995   4.047   5.481   0.366
 8677TIP3    H225996   3.943   5.572   0.430
 8678TIP3   OH225997   5.029   0.611   2.935
 8678TIP3    H125998   5.055   0.616   2.843
 8678TIP3    H225999   5.029   0.517   2.954
 8679TIP3   OH226000   4.903   1.196   4.804
 8679TIP3    H126001   4.874   1.110   4.774
 8679TIP3    H226002   4.966   1.225   4.738
 8680TIP3   OH226003   4.595   2.293   1.941
 8680TIP3    H126004   4.666   2.352   1.916
 8680TIP3    H226005   4.570   2.249   1.860
 8681TIP3   OH226006   5.959   3.531   1.476
 8681TIP3    H126007   5.923   3.463   1.532
 8681TIP3    H226008   5.906   3.608   1.493
 8682TIP3   OH226009   0.484   3.879   2.573
 8682TIP3    H126010   0.536   3.884   2.653
 8682TIP3    H226011   0.400   3.919   2.595
 8683TIP3   OH226012   1.055   3.430   5.250
 8683TIP3    H126013   1.150   3.421   5.246
 8683TIP3    H226014   1.038   3.518   5.215
 8684TIP3   OH226015   3.447   4.284   1.452
 8684TIP3    H126016   3.424   4.192   1.436
 8684TIP3    H226017   3.522   4.279   1.511
 8685TIP3   OH226018   0.794   5.211   1.229
 8685TIP3    H126019   0.787   5.272   1.156
 8685TIP3    H226020   0.862   5.250   1.285
 8686TIP3   OH226021   1.224   6.629   3.109
 8686TIP3    H126022   1.143   6.624   3.058
 8686TIP3    H226023   1.224   6.717   3.146
 8687TIP3   OH226024   2.463   3.128   2.126
 8687TIP3    H126025   2.506   3.162   2.047
 8687TIP3    H226026   2.371   3.119   2.101
 8688TIP3   OH226027   2.793   1.287   4.955
 8688TIP3    H126028   2.776   1.198   4.923
 8688TIP3    H226029   2.706   1.322   4.976
 8689TIP3   OH226030   4.891   3.275   4.642
 8689TIP3    H126031   4.869   3.209   4.708
 8689TIP3    H226032   4.951   3.230   4.583
 8690TIP3   OH226033   0.053   5.760   4.724
 8690TIP3    H126034   0.142   5.727   4.733
 8690TIP3    H226035  -0.001   5.695   4.770
 8691TIP3   OH226036   1.740   2.644   2.309
 8691TIP3    H126037   1.692   2.659   2.390
 8691TIP3    H226038   1.808   2.712   2.309
 8692TIP3   OH226039   1.679   6.443   5.537
 8692TIP3    H126040   1.758   6.498   5.540
 8692TIP3    H226041   1.618   6.492   5.483
 8693TIP3   OH226042   4.063   0.362   2.003
 8693TIP3    H126043   4.142   0.331   2.049
 8693TIP3    H226044   3.995   0.299   2.028
 8694TIP3   OH226045   2.815  -0.002   0.152
 8694TIP3    H126046   2.904   0.031   0.145
 8694TIP3    H226047   2.760   0.068   0.118
 8695TIP3   OH226048   6.193   2.146   1.913
 8695TIP3    H126049   6.161   2.076   1.856
 8695TIP3    H226050   6.176   2.115   2.002
 8696TIP3   OH226051   1.917   3.116   5.570
 8696TIP3    H126052   1.903   3.141   5.479
 8696TIP3    H226053   1.851   3.048   5.586
 8697TIP3   OH226054   5.414   4.988   4.525
 8697TIP3    H126055   5.440   5.058   4.585
 8697TIP3    H226056   5.494   4.937   4.511
 8698TIP3   OH226057   1.214   3.839   2.466
 8698TIP3    H126058   1.136   3.850   2.519
 8698TIP3    H226059   1.236   3.927   2.436
 8699TIP3   OH226060   6.966   3.931   4.153
 8699TIP3    H126061   7.052   3.897   4.178
 8699TIP3    H226062   6.907   3.900   4.222
 8700TIP3   OH226063   4.522   5.663   1.682
 8700TIP3    H126064   4.505   5.599   1.751
 8700TIP3    H226065   4.604   5.705   1.709
 8701TIP3   OH226066   0.260   2.777   0.713
 8701TIP3    H126067   0.309   2.751   0.792
 8701TIP3    H226068   0.183   2.720   0.713
 8702TIP3   OH226069   2.889   2.962   4.154
 8702TIP3    H126070   2.883   3.021   4.229
 8702TIP3    H226071   2.804   2.968   4.111
 8703TIP3   OH226072   2.489   4.727   1.196
 8703TIP3    H126073   2.413   4.741   1.140
 8703TIP3    H226074   2.498   4.632   1.203
 8704TIP3   OH226075   3.975   5.453   1.603
 8704TIP3    H126076   4.052   5.413   1.562
 8704TIP3    H226077   3.948   5.521   1.542
 8705TIP3   OH226078   0.365   1.766   1.308
 8705TIP3    H126079   0.392   1.763   1.400
 8705TIP3    H226080   0.273   1.794   1.310
 8706TIP3   OH226081   5.164   0.165   4.927
 8706TIP3    H126082   5.084   0.113   4.916
 8706TIP3    H226083   5.226   0.126   4.865
 8707TIP3   OH226084   0.714   0.217   1.642
 8707TIP3    H126085   0.711   0.312   1.645
 8707TIP3    H226086   0.732   0.195   1.551
 8708TIP3   OH226087   6.696   4.293   0.724
 8708TIP3    H126088   6.610   4.251   0.719
 8708TIP3    H226089   6.697   4.335   0.810
 8709TIP3   OH226090   3.104   5.032   1.752
 8709TIP3    H126091   3.108   5.007   1.844
 8709TIP3    H226092   3.101   5.128   1.753
 8710TIP3   OH226093   7.152   1.481   2.321
 8710TIP3    H126094   7.123   1.395   2.290
 8710TIP3    H226095   7.245   1.468   2.342
 8711TIP3   OH226096   6.088   5.955   5.810
 8711TIP3    H126097   6.045   5.932   5.893
 8711TIP3    H226098   6.180   5.934   5.824
 8712TIP3   OH226099   3.563   3.284   0.270
 8712TIP3    H126100   3.553   3.189   0.260
 8712TIP3    H226101   3.502   3.320   0.206
 8713TIP3   OH226102   6.128   3.887   4.780
 8713TIP3    H126103   6.038   3.858   4.769
 8713TIP3    H226104   6.160   3.898   4.690
 8714TIP3   OH226105   6.715   3.103   0.535
 8714TIP3    H126106   6.770   3.164   0.486
 8714TIP3    H226107   6.776   3.045   0.580
 8715TIP3   OH226108   6.650   5.352   5.199
 8715TIP3    H126109   6.608   5.417   5.143
 8715TIP3    H226110   6.660   5.274   5.143
 8716TIP3   OH226111   4.124   2.891   4.836
 8716TIP3    H126112   4.161   2.968   4.793
 8716TIP3    H226113   4.119   2.915   4.929
 8717TIP3   OH226114   2.802   2.350   2.082
 8717TIP3    H126115   2.894   2.375   2.071
 8717TIP3    H226116   2.768   2.348   1.992
 8718TIP3   OH226117   2.567   6.711   1.045
 8718TIP3    H126118   2.509   6.647   1.003
 8718TIP3    H226119   2.620   6.745   0.974
 8719TIP3   OH226120   4.244   2.442   1.718
 8719TIP3    H126121   4.160   2.487   1.708
 8719TIP3    H226122   4.307   2.512   1.734
 8720TIP3   OH226123   4.065   2.364   3.793
 8720TIP3    H126124   4.117   2.409   3.726
 8720TIP3    H226125   3.980   2.409   3.791
 8721TIP3   OH226126   4.560   3.372   4.984
 8721TIP3    H126127   4.568   3.408   5.072
 8721TIP3    H226128   4.627   3.418   4.933
 8722TIP3   OH226129   4.908   1.093   3.583
 8722TIP3    H126130   4.941   1.045   3.508
 8722TIP3    H226131   4.954   1.054   3.658
 8723TIP3   OH226132   5.964   5.117   1.798
 8723TIP3    H126133   5.905   5.115   1.873
 8723TIP3    H226134   5.931   5.189   1.744
 8724TIP3   OH226135   3.846   2.927   3.759
 8724TIP3    H126136   3.882   3.010   3.788
 8724TIP3    H226137   3.842   2.934   3.663
 8725TIP3   OH226138   0.276   0.896   4.163
 8725TIP3    H126139   0.250   0.858   4.246
 8725TIP3    H226140   0.231   0.844   4.096
 8726TIP3   OH226141   4.713   3.351   0.681
 8726TIP3    H126142   4.776   3.422   0.692
 8726TIP3    H226143   4.678   3.337   0.770
 8727TIP3   OH226144   4.196   1.196   0.802
 8727TIP3    H126145   4.106   1.208   0.769
 8727TIP3    H226146   4.252   1.225   0.729
 8728TIP3   OH226147   1.645   0.505   4.018
 8728TIP3    H126148   1.662   0.415   4.045
 8728TIP3    H226149   1.552   0.507   3.996
 8729TIP3   OH226150   6.377   3.805   4.553
 8729TIP3    H126151   6.467   3.837   4.553
 8729TIP3    H226152   6.382   3.721   4.508
 8730TIP3   OH226153   5.646   2.443   5.493
 8730TIP3    H126154   5.690   2.457   5.409
 8730TIP3    H226155   5.695   2.496   5.555
 8731TIP3   OH226156   1.030   1.953   3.300
 8731TIP3    H126157   1.099   1.895   3.332
 8731TIP3    H226158   1.032   1.944   3.205
 8732TIP3   OH226159   3.665   4.755   3.560
 8732TIP3    H126160   3.585   4.706   3.541
 8732TIP3    H226161   3.644   4.846   3.537
 8733TIP3   OH226162   1.355   0.613   5.870
 8733TIP3    H126163   1.270   0.607   5.827
 8733TIP3    H226164   1.366   0.706   5.890
 8734TIP3   OH226165   4.108   5.874   2.037
 8734TIP3    H126166   4.199   5.851   2.021
 8734TIP3    H226167   4.093   5.847   2.128
 8735TIP3   OH226168   7.077   2.293   4.400
 8735TIP3    H126169   6.995   2.304   4.447
 8735TIP3    H226170   7.053   2.247   4.320
 8736TIP3   OH226171   6.332   5.866   0.255
 8736TIP3    H126172   6.247   5.876   0.213
 8736TIP3    H226173   6.388   5.931   0.212
 8737TIP3   OH226174   0.516   3.712   3.120
 8737TIP3    H126175   0.512   3.631   3.171
 8737TIP3    H226176   0.515   3.682   3.029
 8738TIP3   OH226177   4.855   4.376   3.746
 8738TIP3    H126178   4.781   4.344   3.797
 8738TIP3    H226179   4.929   4.374   3.807
 8739TIP3   OH226180   2.319   4.246   3.962
 8739TIP3    H126181   2.288   4.224   4.050
 8739TIP3    H226182   2.410   4.216   3.960
 8740TIP3   OH226183   0.723   3.724   5.896
 8740TIP3    H126184   0.784   3.698   5.827
 8740TIP3    H226185   0.657   3.776   5.850
 8741TIP3   OH226186   2.995   4.452   1.226
 8741TIP3    H126187   3.029   4.383   1.284
 8741TIP3    H226188   2.996   4.412   1.139
 8742TIP3   OH226189   6.829   3.979   1.817
 8742TIP3    H126190   6.762   3.932   1.767
 8742TIP3    H226191   6.908   3.973   1.763
 8743TIP3   OH226192   4.733   3.393   2.597
 8743TIP3    H126193   4.698   3.309   2.627
 8743TIP3    H226194   4.826   3.388   2.619
 8744TIP3   OH226195   1.909   3.797   4.908
 8744TIP3    H126196   1.920   3.824   5.000
 8744TIP3    H226197   1.974   3.849   4.860
 8745TIP3   OH226198   4.363   4.696   1.353
 8745TIP3    H126199   4.403   4.610   1.341
 8745TIP3    H226200   4.272   4.685   1.325
 8746TIP3   OH226201   0.243   3.937   1.470
 8746TIP3    H126202   0.218   3.954   1.379
 8746TIP3    H226203   0.276   4.021   1.502
 8747TIP3   OH226204   3.850   0.739   3.417
 8747TIP3    H126205   3.821   0.817   3.371
 8747TIP3    H226206   3.911   0.697   3.357
 8748TIP3   OH226207   3.968   4.184   5.654
 8748TIP3    H126208   3.984   4.264   5.604
 8748TIP3    H226209   4.016   4.116   5.606
 8749TIP3   OH226210   6.316   1.500   3.263
 8749TIP3    H126211   6.400   1.516   3.220
 8749TIP3    H226212   6.323   1.547   3.346
 8750TIP3   OH226213   4.114   1.896   2.303
 8750TIP3    H126214   4.131   1.986   2.273
 8750TIP3    H226215   4.177   1.843   2.254
 8751TIP3   OH226216   1.142   1.106   0.464
 8751TIP3    H126217   1.184   1.190   0.445
 8751TIP3    H226218   1.185   1.044   0.406
 8752TIP3   OH226219   2.198   4.531   1.200
 8752TIP3    H126220   2.183   4.611   1.149
 8752TIP3    H226221   2.132   4.469   1.167
 8753TIP3   OH226222   1.562   5.592   0.795
 8753TIP3    H126223   1.572   5.574   0.889
 8753TIP3    H226224   1.483   5.646   0.790
 8754TIP3   OH226225   2.486   2.501   4.932
 8754TIP3    H126226   2.573   2.472   4.959
 8754TIP3    H226227   2.437   2.420   4.920
 8755TIP3   OH226228   4.786   1.946   1.851
 8755TIP3    H126229   4.722   1.941   1.779
 8755TIP3    H226230   4.800   1.856   1.877
 8756TIP3   OH226231   3.276   2.649   2.163
 8756TIP3    H126232   3.328   2.569   2.161
 8756TIP3    H226233   3.214   2.637   2.235
 8757TIP3   OH226234   5.184   6.027   2.446
 8757TIP3    H126235   5.263   6.049   2.494
 8757TIP3    H226236   5.175   6.096   2.380
 8758TIP3   OH226237   4.413   4.636   3.372
 8758TIP3    H126238   4.392   4.668   3.284
 8758TIP3    H226239   4.372   4.701   3.430
 8759TIP3   OH226240   3.940   1.492   0.904
 8759TIP3    H126241   3.988   1.429   0.958
 8759TIP3    H226242   3.947   1.574   0.952
 8760TIP3   OH226243   6.469   1.928   4.587
 8760TIP3    H126244   6.544   1.879   4.621
 8760TIP3    H226245   6.405   1.860   4.563
 8761TIP3   OH226246   1.471   4.420   4.801
 8761TIP3    H126247   1.516   4.465   4.873
 8761TIP3    H226248   1.541   4.395   4.740
 8762TIP3   OH226249   5.221   3.434   1.731
 8762TIP3    H126250   5.139   3.458   1.687
 8762TIP3    H226251   5.269   3.517   1.739
 8763TIP3   OH226252   2.982   0.652   4.516
 8763TIP3    H126253   2.911   0.708   4.547
 8763TIP3    H226254   2.942   0.598   4.448
 8764TIP3   OH226255   0.250   3.828   4.184
 8764TIP3    H126256   0.255   3.923   4.179
 8764TIP3    H226257   0.324   3.802   4.238
 8765TIP3   OH226258   6.770   1.542   5.055
 8765TIP3    H126259   6.716   1.523   4.978
 8765TIP3    H226260   6.848   1.585   5.020
 8766TIP3   OH226261   5.926   4.401   0.322
 8766TIP3    H126262   5.975   4.404   0.240
 8766TIP3    H226263   5.835   4.415   0.296
 8767TIP3   OH226264   2.433   6.027   2.772
 8767TIP3    H126265   2.473   5.998   2.854
 8767TIP3    H226266   2.474   6.112   2.755
 8768TIP3   OH226267   1.496   3.778   2.840
 8768TIP3    H126268   1.558   3.784   2.913
 8768TIP3    H226269   1.412   3.757   2.881
 8769TIP3   OH226270   0.952   0.577   0.056
 8769TIP3    H126271   1.016   0.548  -0.010
 8769TIP3    H226272   0.957   0.510   0.125
 8770TIP3   OH226273   6.705   0.549   3.354
 8770TIP3    H126274   6.746   0.505   3.428
 8770TIP3    H226275   6.623   0.584   3.389
 8771TIP3   OH226276   4.151   3.867   5.273
 8771TIP3    H126277   4.240   3.868   5.238
 8771TIP3    H226278   4.094   3.870   5.196
 8772TIP3   OH226279   1.561   5.773   1.213
 8772TIP3    H126280   1.646   5.730   1.205
 8772TIP3    H226281   1.538   5.799   1.124
 8773TIP3   OH226282   3.704   2.435   0.282
 8773TIP3    H126283   3.765   2.361   0.290
 8773TIP3    H226284   3.718   2.486   0.362
 8774TIP3   OH226285   2.709   4.072   3.185
 8774TIP3    H126286   2.750   4.116   3.260
 8774TIP3    H226287   2.721   4.133   3.112
 8775TIP3   OH226288   6.167   2.437   0.157
 8775TIP3    H126289   6.138   2.415   0.069
 8775TIP3    H226290   6.217   2.360   0.186
 8776TIP3   OH226291   4.336   3.549   1.701
 8776TIP3    H126292   4.256   3.497   1.695
 8776TIP3    H226293   4.308   3.638   1.676
 8777TIP3   OH226294   0.308   3.481   1.300
 8777TIP3    H126295   0.316   3.420   1.373
 8777TIP3    H226296   0.392   3.527   1.297
 8778TIP3   OH226297   1.531   3.532   4.152
 8778TIP3    H126298   1.601   3.523   4.216
 8778TIP3    H226299   1.553   3.612   4.105
 8779TIP3   OH226300   5.751   2.724   5.132
 8779TIP3    H126301   5.822   2.788   5.136
 8779TIP3    H226302   5.784   2.655   5.074
 8780TIP3   OH226303   1.454   6.211   4.326
 8780TIP3    H126304   1.548   6.198   4.337
 8780TIP3    H226305   1.443   6.306   4.324
 8781TIP3   OH226306   1.998   4.757   2.596
 8781TIP3    H126307   1.996   4.851   2.581
 8781TIP3    H226308   1.934   4.742   2.666
 8782TIP3   OH226309   5.392   0.563   3.857
 8782TIP3    H126310   5.391   0.659   3.862
 8782TIP3    H226311   5.324   0.541   3.793
 8783TIP3   OH226312   0.213   5.799   4.200
 8783TIP3    H126313   0.306   5.774   4.197
 8783TIP3    H226314   0.214   5.891   4.226
 8784TIP3   OH226315   3.090   6.078   0.947
 8784TIP3    H126316   3.007   6.040   0.974
 8784TIP3    H226317   3.075   6.106   0.857
 8785TIP3   OH226318   0.364   5.391   2.683
 8785TIP3    H126319   0.360   5.432   2.769
 8785TIP3    H226320   0.405   5.306   2.698
 8786TIP3   OH226321   3.318   1.917   1.870
 8786TIP3    H126322   3.354   1.974   1.938
 8786TIP3    H226323   3.240   1.964   1.838
 8787TIP3   OH226324   2.374   4.883   1.659
 8787TIP3    H126325   2.366   4.958   1.599
 8787TIP3    H226326   2.441   4.827   1.620
 8788TIP3   OH226327   4.330   0.352   5.584
 8788TIP3    H126328   4.407   0.302   5.612
 8788TIP3    H226329   4.357   0.443   5.587
 8789TIP3   OH226330   0.782   0.652   1.405
 8789TIP3    H126331   0.852   0.662   1.340
 8789TIP3    H226332   0.773   0.738   1.444
 8790TIP3   OH226333   4.575   2.935   0.842
 8790TIP3    H126334   4.554   3.028   0.831
 8790TIP3    H226335   4.527   2.909   0.920
 8791TIP3   OH226336   1.440   4.070   2.746
 8791TIP3    H126337   1.455   4.123   2.824
 8791TIP3    H226338   1.494   3.992   2.758
 8792TIP3   OH226339   6.617   0.196   4.284
 8792TIP3    H126340   6.669   0.181   4.363
 8792TIP3    H226341   6.529   0.213   4.317
 8793TIP3   OH226342   4.930   2.185   4.515
 8793TIP3    H126343   4.908   2.266   4.469
 8793TIP3    H226344   5.001   2.147   4.464
 8794TIP3   OH226345   2.173   6.752   0.877
 8794TIP3    H126346   2.236   6.727   0.810
 8794TIP3    H226347   2.148   6.841   0.855
 8795TIP3   OH226348   1.935   1.580   4.637
 8795TIP3    H126349   1.916   1.637   4.562
 8795TIP3    H226350   1.888   1.620   4.710
 8796TIP3   OH226351   5.020   6.368   4.019
 8796TIP3    H126352   4.952   6.431   4.043
 8796TIP3    H226353   5.000   6.290   4.070
 8797TIP3   OH226354   0.805   3.611   3.511
 8797TIP3    H126355   0.892   3.607   3.551
 8797TIP3    H226356   0.766   3.526   3.531
 8798TIP3   OH226357   0.230   4.522   5.636
 8798TIP3    H126358   0.307   4.497   5.687
 8798TIP3    H226359   0.172   4.446   5.641
 8799TIP3   OH226360   2.297   0.320   5.206
 8799TIP3    H126361   2.323   0.264   5.132
 8799TIP3    H226362   2.212   0.285   5.233
 8800TIP3   OH226363   2.282   4.384   1.547
 8800TIP3    H126364   2.299   4.342   1.463
 8800TIP3    H226365   2.227   4.459   1.526
 8801TIP3   OH226366   2.163   3.086   2.303
 8801TIP3    H126367   2.187   3.022   2.236
 8801TIP3    H226368   2.095   3.043   2.354
 8802TIP3   OH226369   5.162   0.995   3.445
 8802TIP3    H126370   5.150   1.062   3.379
 8802TIP3    H226371   5.187   0.916   3.396
 8803TIP3   OH226372   0.755   2.624   5.636
 8803TIP3    H126373   0.767   2.689   5.567
 8803TIP3    H226374   0.684   2.568   5.604
 8804TIP3   OH226375   1.560   6.724   2.748
 8804TIP3    H126376   1.483   6.777   2.727
 8804TIP3    H226377   1.594   6.696   2.663
 8805TIP3   OH226378   3.957   2.431   1.518
 8805TIP3    H126379   3.890   2.452   1.583
 8805TIP3    H226380   4.000   2.515   1.500
 8806TIP3   OH226381   2.842   1.208   2.072
 8806TIP3    H126382   2.834   1.288   2.125
 8806TIP3    H226383   2.752   1.187   2.046
 8807TIP3   OH226384   6.788   2.839   2.528
 8807TIP3    H126385   6.745   2.819   2.611
 8807TIP3    H226386   6.761   2.769   2.469
 8808TIP3   OH226387   2.268   6.446   4.094
 8808TIP3    H126388   2.208   6.374   4.112
 8808TIP3    H226389   2.211   6.522   4.084
 8809TIP3   OH226390   5.751   0.244   0.410
 8809TIP3    H126391   5.835   0.287   0.393
 8809TIP3    H226392   5.768   0.183   0.481
 8810TIP3   OH226393   0.178   6.445   4.377
 8810TIP3    H126394   0.199   6.422   4.286
 8810TIP3    H226395   0.221   6.529   4.390
 8811TIP3   OH226396   5.837   0.593   3.137
 8811TIP3    H126397   5.858   0.685   3.123
 8811TIP3    H226398   5.747   0.594   3.169
 8812TIP3   OH226399   3.264   3.843   2.523
 8812TIP3    H126400   3.279   3.804   2.437
 8812TIP3    H226401   3.351   3.866   2.555
 8813TIP3   OH226402   1.332   2.277   1.908
 8813TIP3    H126403   1.245   2.242   1.892
 8813TIP3    H226404   1.323   2.371   1.896
 8814TIP3   OH226405   6.768   2.107   4.954
 8814TIP3    H126406   6.863   2.113   4.960
 8814TIP3    H226407   6.749   2.013   4.953
 8815TIP3   OH226408   2.511   5.585   4.664
 8815TIP3    H126409   2.433   5.583   4.609
 8815TIP3    H226410   2.543   5.675   4.656
 8816TIP3   OH226411   2.466   0.684   3.849
 8816TIP3    H126412   2.528   0.755   3.871
 8816TIP3    H226413   2.396   0.693   3.913
 8817TIP3   OH226414   4.300   0.437   0.628
 8817TIP3    H126415   4.392   0.460   0.613
 8817TIP3    H226416   4.303   0.371   0.697
 8818TIP3   OH226417   0.582   4.894   1.855
 8818TIP3    H126418   0.624   4.914   1.772
 8818TIP3    H226419   0.649   4.852   1.907
 8819TIP3   OH226420   6.890   4.627   1.007
 8819TIP3    H126421   6.874   4.595   1.096
 8819TIP3    H226422   6.950   4.701   1.018
 8820TIP3   OH226423   4.805   4.902   5.564
 8820TIP3    H126424   4.731   4.958   5.585
 8820TIP3    H226425   4.788   4.820   5.610
 8821TIP3   OH226426   7.129   6.692   0.887
 8821TIP3    H126427   7.110   6.672   0.796
 8821TIP3    H226428   7.158   6.608   0.925
 8822TIP3   OH226429   6.634   1.531   2.447
 8822TIP3    H126430   6.583   1.542   2.527
 8822TIP3    H226431   6.719   1.499   2.477
 8823TIP3   OH226432   3.084   4.601   4.258
 8823TIP3    H126433   3.069   4.600   4.163
 8823TIP3    H226434   3.005   4.563   4.296
 8824TIP3   OH226435   4.008   4.382   5.196
 8824TIP3    H126436   4.082   4.413   5.144
 8824TIP3    H226437   4.039   4.303   5.240
 8825TIP3   OH226438   0.188   1.627   1.057
 8825TIP3    H126439   0.152   1.561   1.116
 8825TIP3    H226440   0.158   1.711   1.093
 8826TIP3   OH226441   5.981   5.626   0.411
 8826TIP3    H126442   6.010   5.549   0.460
 8826TIP3    H226443   5.980   5.696   0.476
 8827TIP3   OH226444   4.417   3.246   3.083
 8827TIP3    H126445   4.324   3.254   3.104
 8827TIP3    H226446   4.457   3.323   3.123
 8828TIP3   OH226447   6.916   1.516   4.693
 8828TIP3    H126448   6.952   1.438   4.649
 8828TIP3    H226449   6.834   1.486   4.731
 8829TIP3   OH226450   0.400   6.670   4.871
 8829TIP3    H126451   0.357   6.645   4.790
 8829TIP3    H226452   0.393   6.592   4.927
 8830TIP3   OH226453   5.785   4.142   1.465
 8830TIP3    H126454   5.713   4.190   1.423
 8830TIP3    H226455   5.769   4.050   1.444
 8831TIP3   OH226456   4.979   0.868   4.219
 8831TIP3    H126457   5.003   0.933   4.153
 8831TIP3    H226458   4.942   0.795   4.169
 8832TIP3   OH226459   2.207   6.728   0.066
 8832TIP3    H126460   2.259   6.727   0.146
 8832TIP3    H226461   2.241   6.654   0.015
 8833TIP3   OH226462   6.983   4.533   3.628
 8833TIP3    H126463   7.014   4.466   3.567
 8833TIP3    H226464   6.891   4.512   3.642
 8834TIP3   OH226465   1.040   5.071   4.741
 8834TIP3    H126466   1.086   5.150   4.769
 8834TIP3    H226467   0.948   5.097   4.737
 8835TIP3   OH226468   5.116   3.584   1.950
 8835TIP3    H126469   5.182   3.635   1.902
 8835TIP3    H226470   5.060   3.547   1.882
 8836TIP3   OH226471   4.369   0.320   0.877
 8836TIP3    H126472   4.325   0.239   0.902
 8836TIP3    H226473   4.448   0.290   0.831
 8837TIP3   OH226474   3.665   4.195   5.489
 8837TIP3    H126475   3.572   4.196   5.465
 8837TIP3    H226476   3.684   4.102   5.505
 8838TIP3   OH226477   2.176   6.524   4.799
 8838TIP3    H126478   2.104   6.495   4.742
 8838TIP3    H226479   2.145   6.607   4.835
 8839TIP3   OH226480   0.302   5.991   1.219
 8839TIP3    H126481   0.395   6.011   1.227
 8839TIP3    H226482   0.259   6.048   1.283
 8840TIP3   OH226483   3.609   0.160   4.528
 8840TIP3    H126484   3.560   0.104   4.467
 8840TIP3    H226485   3.593   0.249   4.497
 8841TIP3   OH226486   6.186   2.958   5.832
 8841TIP3    H126487   6.201   3.048   5.859
 8841TIP3    H226488   6.121   2.965   5.762
 8842TIP3   OH226489   5.671   0.554   3.965
 8842TIP3    H126490   5.581   0.561   3.934
 8842TIP3    H226491   5.723   0.594   3.895
 8843TIP3   OH226492   2.147   0.890   0.590
 8843TIP3    H126493   2.112   0.979   0.588
 8843TIP3    H226494   2.073   0.835   0.616
 8844TIP3   OH226495   4.593   1.792   2.764
 8844TIP3    H126496   4.675   1.790   2.813
 8844TIP3    H226497   4.619   1.803   2.673
 8845TIP3   OH226498   3.749   2.761   0.272
 8845TIP3    H126499   3.681   2.809   0.319
 8845TIP3    H226500   3.736   2.669   0.298
 8846TIP3   OH226501   7.015   2.652   1.280
 8846TIP3    H126502   6.945   2.601   1.321
 8846TIP3    H226503   7.095   2.602   1.297
 8847TIP3   OH226504   5.772   5.449   1.928
 8847TIP3    H126505   5.773   5.421   2.020
 8847TIP3    H226506   5.712   5.523   1.925
 8848TIP3   OH226507   3.423   3.782   3.850
 8848TIP3    H126508   3.506   3.799   3.894
 8848TIP3    H226509   3.388   3.869   3.829
 8849TIP3   OH226510   6.809   5.209   0.516
 8849TIP3    H126511   6.840   5.270   0.448
 8849TIP3    H226512   6.762   5.141   0.467
 8850TIP3   OH226513   3.795   0.668   5.470
 8850TIP3    H126514   3.839   0.736   5.521
 8850TIP3    H226515   3.735   0.716   5.413
 8851TIP3   OH226516   1.354   2.172   5.807
 8851TIP3    H126517   1.343   2.153   5.901
 8851TIP3    H226518   1.396   2.258   5.805
 8852TIP3   OH226519   6.974   3.080   3.010
 8852TIP3    H126520   6.973   2.991   2.973
 8852TIP3    H226521   7.067   3.102   3.018
 8853TIP3   OH226522   6.388   6.205   2.357
 8853TIP3    H126523   6.389   6.115   2.324
 8853TIP3    H226524   6.398   6.196   2.452
 8854TIP3   OH226525   2.086   4.431   2.095
 8854TIP3    H126526   2.108   4.398   2.008
 8854TIP3    H226527   2.032   4.362   2.134
 8855TIP3   OH226528   5.375   2.475   5.037
 8855TIP3    H126529   5.434   2.417   4.990
 8855TIP3    H226530   5.289   2.433   5.028
 8856TIP3   OH226531   0.026   4.403   4.649
 8856TIP3    H126532  -0.004   4.467   4.585
 8856TIP3    H226533   0.021   4.319   4.603
 8857TIP3   OH226534   4.556   3.468   1.329
 8857TIP3    H126535   4.560   3.391   1.386
 8857TIP3    H226536   4.472   3.459   1.283
 8858TIP3   OH226537   4.167   2.255   1.505
 8858TIP3    H126538   4.082   2.300   1.502
 8858TIP3    H226539   4.211   2.292   1.582
 8859TIP3   OH226540   3.845   4.071   2.928
 8859TIP3    H126541   3.771   4.015   2.954
 8859TIP3    H226542   3.861   4.049   2.837
 8860TIP3   OH226543   2.965   2.384   4.494
 8860TIP3    H126544   3.018   2.417   4.421
 8860TIP3    H226545   2.890   2.343   4.452
 8861TIP3   OH226546   2.470   1.739   4.989
 8861TIP3    H126547   2.481   1.750   4.895
 8861TIP3    H226548   2.555   1.761   5.026
 8862TIP3   OH226549   1.995   3.259   3.346
 8862TIP3    H126550   2.078   3.300   3.369
 8862TIP3    H226551   2.005   3.235   3.254
 8863TIP3   OH226552   6.622   2.944   4.408
 8863TIP3    H126553   6.637   2.908   4.495
 8863TIP3    H226554   6.606   3.037   4.422
 8864TIP3   OH226555   7.113   4.922   4.415
 8864TIP3    H126556   7.195   4.894   4.455
 8864TIP3    H226557   7.051   4.926   4.488
 8865TIP3   OH226558   3.213   0.262   2.575
 8865TIP3    H126559   3.120   0.239   2.588
 8865TIP3    H226560   3.260   0.179   2.589
 8866TIP3   OH226561   4.286   5.236   2.207
 8866TIP3    H126562   4.366   5.186   2.190
 8866TIP3    H226563   4.297   5.317   2.158
 8867TIP3   OH226564   4.380   0.130   4.062
 8867TIP3    H126565   4.350   0.179   3.986
 8867TIP3    H226566   4.382   0.194   4.133
 8868TIP3   OH226567   2.464   2.596   4.114
 8868TIP3    H126568   2.383   2.586   4.163
 8868TIP3    H226569   2.532   2.567   4.175
 8869TIP3   OH226570   4.785   0.875   5.474
 8869TIP3    H126571   4.698   0.836   5.481
 8869TIP3    H226572   4.844   0.800   5.465
 8870TIP3   OH226573   4.905   4.835   0.981
 8870TIP3    H126574   4.905   4.750   0.935
 8870TIP3    H226575   4.886   4.899   0.912
 8871TIP3   OH226576   4.827   2.565   2.363
 8871TIP3    H126577   4.748   2.522   2.394
 8871TIP3    H226578   4.853   2.622   2.436
 8872TIP3   OH226579   0.521   5.009   4.031
 8872TIP3    H126580   0.502   4.951   3.957
 8872TIP3    H226581   0.524   5.097   3.993
 8873TIP3   OH226582   0.755   2.366   4.326
 8873TIP3    H126583   0.736   2.326   4.242
 8873TIP3    H226584   0.697   2.442   4.331
 8874TIP3   OH226585   5.172   0.770   3.284
 8874TIP3    H126586   5.163   0.836   3.215
 8874TIP3    H226587   5.101   0.708   3.268
 8875TIP3   OH226588   3.600   4.624   0.728
 8875TIP3    H126589   3.678   4.570   0.712
 8875TIP3    H226590   3.544   4.569   0.784
 8876TIP3   OH226591   2.950   4.519   3.343
 8876TIP3    H126592   2.924   4.502   3.252
 8876TIP3    H226593   2.880   4.573   3.379
 8877TIP3   OH226594   2.659   5.707   0.043
 8877TIP3    H126595   2.732   5.767   0.028
 8877TIP3    H226596   2.700   5.623   0.061
 8878TIP3   OH226597   4.225   5.652   1.222
 8878TIP3    H126598   4.319   5.635   1.214
 8878TIP3    H226599   4.218   5.719   1.289
 8879TIP3   OH226600   1.467   3.705   4.712
 8879TIP3    H126601   1.387   3.730   4.759
 8879TIP3    H226602   1.531   3.691   4.781
 8880TIP3   OH226603   4.556   1.996   3.736
 8880TIP3    H126604   4.620   1.934   3.700
 8880TIP3    H226605   4.471   1.962   3.709
 8881TIP3   OH226606   6.027   4.245   4.419
 8881TIP3    H126607   5.959   4.282   4.477
 8881TIP3    H226608   6.073   4.321   4.385
 8882TIP3   OH226609   3.271   0.161   3.424
 8882TIP3    H126610   3.353   0.128   3.461
 8882TIP3    H226611   3.267   0.124   3.336
 8883TIP3   OH226612   6.565   5.271   2.160
 8883TIP3    H126613   6.478   5.306   2.178
 8883TIP3    H226614   6.580   5.291   2.068
 8884TIP3   OH226615   6.837   6.382   1.685
 8884TIP3    H126616   6.931   6.399   1.692
 8884TIP3    H226617   6.826   6.338   1.600
 8885TIP3   OH226618   1.143   5.617   1.347
 8885TIP3    H126619   1.193   5.538   1.329
 8885TIP3    H226620   1.122   5.653   1.261
 8886TIP3   OH226621   3.071   5.484   5.668
 8886TIP3    H126622   3.042   5.492   5.577
 8886TIP3    H226623   2.996   5.513   5.720
 8887TIP3   OH226624   6.426   2.656   5.380
 8887TIP3    H126625   6.456   2.692   5.463
 8887TIP3    H226626   6.450   2.563   5.384
 8888TIP3   OH226627   3.419   1.874   3.743
 8888TIP3    H126628   3.377   1.897   3.826
 8888TIP3    H226629   3.422   1.956   3.694
 8889TIP3   OH226630   3.281   5.337   4.000
 8889TIP3    H126631   3.355   5.307   3.947
 8889TIP3    H226632   3.313   5.333   4.090
 8890TIP3   OH226633   4.640   4.404   3.492
 8890TIP3    H126634   4.699   4.340   3.451
 8890TIP3    H226635   4.557   4.394   3.445
 8891TIP3   OH226636   5.061   4.446   0.966
 8891TIP3    H126637   4.974   4.445   1.006
 8891TIP3    H226638   5.050   4.496   0.885
 8892TIP3   OH226639   2.574   2.815   1.641
 8892TIP3    H126640   2.548   2.768   1.562
 8892TIP3    H226641   2.637   2.757   1.685
 8893TIP3   OH226642   5.745   6.622   4.524
 8893TIP3    H126643   5.786   6.635   4.439
 8893TIP3    H226644   5.663   6.671   4.520
 8894TIP3   OH226645   0.667   4.653   2.174
 8894TIP3    H126646   0.739   4.633   2.234
 8894TIP3    H226647   0.710   4.684   2.094
 8895TIP3   OH226648   2.611   6.590   2.813
 8895TIP3    H126649   2.527   6.546   2.820
 8895TIP3    H226650   2.619   6.640   2.895
 8896TIP3   OH226651   6.963   5.742   2.372
 8896TIP3    H126652   7.008   5.822   2.397
 8896TIP3    H226653   6.870   5.766   2.371
 8897TIP3   OH226654   6.897   2.411   2.405
 8897TIP3    H126655   6.870   2.503   2.396
 8897TIP3    H226656   6.820   2.367   2.441
 8898TIP3   OH226657   3.134   6.046   3.797
 8898TIP3    H126658   3.191   6.114   3.761
 8898TIP3    H226659   3.134   5.977   3.731
 8899TIP3   OH226660   3.544   4.790   1.823
 8899TIP3    H126661   3.627   4.787   1.776
 8899TIP3    H226662   3.561   4.848   1.897
 8900TIP3   OH226663   6.283   5.909   4.407
 8900TIP3    H126664   6.205   5.927   4.460
 8900TIP3    H226665   6.346   5.873   4.468
 8901TIP3   OH226666   0.914   3.265   4.911
 8901TIP3    H126667   0.847   3.232   4.971
 8901TIP3    H226668   0.952   3.187   4.872
 8902TIP3   OH226669   3.490   6.043   2.306
 8902TIP3    H126670   3.446   5.994   2.237
 8902TIP3    H226671   3.518   5.977   2.369
 8903TIP3   OH226672   3.660   3.876   0.378
 8903TIP3    H126673   3.574   3.874   0.335
 8903TIP3    H226674   3.689   3.784   0.375
 8904TIP3   OH226675   4.155   0.282   3.863
 8904TIP3    H126676   4.243   0.307   3.835
 8904TIP3    H226677   4.149   0.314   3.953
 8905TIP3   OH226678   3.286   1.481   5.096
 8905TIP3    H126679   3.223   1.545   5.129
 8905TIP3    H226680   3.255   1.397   5.130
 8906TIP3   OH226681   5.748   3.764   0.720
 8906TIP3    H126682   5.743   3.716   0.803
 8906TIP3    H226683   5.735   3.696   0.654
 8907TIP3   OH226684   4.111   2.990   3.893
 8907TIP3    H126685   4.198   2.992   3.934
 8907TIP3    H226686   4.081   2.900   3.907
 8908TIP3   OH226687   6.716   0.363   0.010
 8908TIP3    H126688   6.792   0.356   0.067
 8908TIP3    H226689   6.708   0.276  -0.031
 8909TIP3   OH226690   6.326   0.713   2.616
 8909TIP3    H126691   6.239   0.717   2.576
 8909TIP3    H226692   6.332   0.793   2.668
 8910TIP3   OH226693   3.668   1.419   2.005
 8910TIP3    H126694   3.714   1.393   1.925
 8910TIP3    H226695   3.673   1.343   2.062
 8911TIP3   OH226696   0.604   0.668   2.130
 8911TIP3    H126697   0.516   0.704   2.120
 8911TIP3    H226698   0.632   0.648   2.040
 8912TIP3   OH226699   0.880   0.254   1.858
 8912TIP3    H126700   0.810   0.232   1.797
 8912TIP3    H226701   0.837   0.256   1.944
 8913TIP3   OH226702   6.706   1.511   0.144
 8913TIP3    H126703   6.799   1.532   0.137
 8913TIP3    H226704   6.663   1.575   0.087
 8914TIP3   OH226705   5.500   0.718   4.618
 8914TIP3    H126706   5.538   0.739   4.704
 8914TIP3    H226707   5.468   0.628   4.628
 8915TIP3   OH226708   6.569   5.676   5.688
 8915TIP3    H126709   6.554   5.639   5.601
 8915TIP3    H226710   6.570   5.601   5.746
 8916TIP3   OH226711   7.243   4.733   5.706
 8916TIP3    H126712   7.269   4.668   5.640
 8916TIP3    H226713   7.148   4.721   5.715
 8917TIP3   OH226714   0.037   2.431   2.105
 8917TIP3    H126715  -0.040   2.468   2.062
 8917TIP3    H226716   0.003   2.390   2.185
 8918TIP3   OH226717   5.649   5.187   1.046
 8918TIP3    H126718   5.617   5.233   0.969
 8918TIP3    H226719   5.570   5.165   1.096
 8919TIP3   OH226720   6.311   5.845   1.848
 8919TIP3    H126721   6.406   5.843   1.858
 8919TIP3    H226722   6.291   5.770   1.793
 8920TIP3   OH226723   6.595   5.336   1.874
 8920TIP3    H126724   6.562   5.280   1.804
 8920TIP3    H226725   6.690   5.330   1.866
 8921TIP3   OH226726   4.023   5.667   0.138
 8921TIP3    H126727   4.032   5.739   0.200
 8921TIP3    H226728   4.021   5.588   0.192
 8922TIP3   OH226729   0.477   3.307   0.214
 8922TIP3    H126730   0.489   3.239   0.147
 8922TIP3    H226731   0.519   3.271   0.292
 8923TIP3   OH226732   4.205   4.385   2.451
 8923TIP3    H126733   4.168   4.323   2.389
 8923TIP3    H226734   4.196   4.343   2.536
 8924TIP3   OH226735   4.809   5.864   4.353
 8924TIP3    H126736   4.802   5.770   4.370
 8924TIP3    H226737   4.892   5.874   4.306
 8925TIP3   OH226738   2.554   3.899   1.507
 8925TIP3    H126739   2.581   3.840   1.576
 8925TIP3    H226740   2.612   3.975   1.515
 8926TIP3   OH226741   6.406   0.123   1.431
 8926TIP3    H126742   6.501   0.125   1.429
 8926TIP3    H226743   6.384   0.082   1.515
 8927TIP3   OH226744   5.566   5.201   0.181
 8927TIP3    H126745   5.495   5.261   0.160
 8927TIP3    H226746   5.540   5.160   0.264
 8928TIP3   OH226747   6.499   4.999   4.957
 8928TIP3    H126748   6.426   5.052   4.991
 8928TIP3    H226749   6.570   5.062   4.944
 8929TIP3   OH226750   0.829   4.224   3.810
 8929TIP3    H126751   0.831   4.135   3.777
 8929TIP3    H226752   0.911   4.235   3.858
 8930TIP3   OH226753   2.752   2.355   0.865
 8930TIP3    H126754   2.819   2.289   0.847
 8930TIP3    H226755   2.800   2.427   0.907
 8931TIP3   OH226756   6.393   3.244   2.415
 8931TIP3    H126757   6.465   3.206   2.365
 8931TIP3    H226758   6.343   3.168   2.447
 8932TIP3   OH226759   6.997   1.031   3.664
 8932TIP3    H126760   6.925   1.069   3.713
 8932TIP3    H226761   7.041   0.973   3.726
 8933TIP3   OH226762   0.395   4.811   3.866
 8933TIP3    H126763   0.335   4.864   3.813
 8933TIP3    H226764   0.474   4.805   3.814
 8934TIP3   OH226765   3.600   5.100   0.092
 8934TIP3    H126766   3.565   5.018   0.058
 8934TIP3    H226767   3.622   5.150   0.014
 8935TIP3   OH226768   0.347   0.543   2.596
 8935TIP3    H126769   0.314   0.525   2.508
 8935TIP3    H226770   0.320   0.634   2.614
 8936TIP3   OH226771   0.878   2.585   5.911
 8936TIP3    H126772   0.937   2.558   5.841
 8936TIP3    H226773   0.790   2.576   5.873
 8937TIP3   OH226774   4.774   6.795   1.038
 8937TIP3    H126775   4.847   6.855   1.054
 8937TIP3    H226776   4.812   6.721   0.992
 8938TIP3   OH226777   4.948   3.748   3.680
 8938TIP3    H126778   4.865   3.746   3.726
 8938TIP3    H226779   4.977   3.839   3.687
 8939TIP3   OH226780   1.340   5.658   3.763
 8939TIP3    H126781   1.343   5.686   3.855
 8939TIP3    H226782   1.247   5.652   3.743
 8940TIP3   OH226783   0.143   3.400   5.286
 8940TIP3    H126784   0.103   3.348   5.217
 8940TIP3    H226785   0.161   3.484   5.245
 8941TIP3   OH226786   4.238   2.691   2.411
 8941TIP3    H126787   4.308   2.656   2.355
 8941TIP3    H226788   4.279   2.766   2.455
 8942TIP3   OH226789   3.572   0.812   5.378
 8942TIP3    H126790   3.585   0.832   5.286
 8942TIP3    H226791   3.477   0.815   5.391
 8943TIP3   OH226792   4.057   2.508   4.231
 8943TIP3    H126793   4.093   2.420   4.237
 8943TIP3    H226794   4.003   2.517   4.309
 8944TIP3   OH226795   1.010   5.193   1.043
 8944TIP3    H126796   0.924   5.223   1.012
 8944TIP3    H226797   0.997   5.176   1.136
 8945TIP3   OH226798   5.235   4.201   2.778
 8945TIP3    H126799   5.190   4.206   2.694
 8945TIP3    H226800   5.274   4.113   2.779
 8946TIP3   OH226801   2.415   5.515   0.343
 8946TIP3    H126802   2.459   5.430   0.345
 8946TIP3    H226803   2.478   5.574   0.301
 8947TIP3   OH226804   5.861   3.147   1.338
 8947TIP3    H126805   5.802   3.223   1.338
 8947TIP3    H226806   5.803   3.071   1.345
 8948TIP3   OH226807   5.047   5.220   0.971
 8948TIP3    H126808   4.996   5.160   0.918
 8948TIP3    H226809   5.000   5.303   0.966
 8949TIP3   OH226810   3.352   5.134   4.381
 8949TIP3    H126811   3.420   5.077   4.418
 8949TIP3    H226812   3.281   5.074   4.357
 8950TIP3   OH226813   1.691   3.554   0.951
 8950TIP3    H126814   1.760   3.564   1.017
 8950TIP3    H226815   1.699   3.633   0.896
 8951TIP3   OH226816   6.433   2.227   1.230
 8951TIP3    H126817   6.379   2.268   1.162
 8951TIP3    H226818   6.494   2.171   1.182
 8952TIP3   OH226819   4.923   6.393   2.380
 8952TIP3    H126820   4.983   6.396   2.454
 8952TIP3    H226821   4.909   6.299   2.365
 8953TIP3   OH226822   6.116   3.223   0.640
 8953TIP3    H126823   6.200   3.267   0.633
 8953TIP3    H226824   6.095   3.226   0.734
 8954TIP3   OH226825   2.962   4.238   3.403
 8954TIP3    H126826   2.896   4.228   3.472
 8954TIP3    H226827   2.972   4.333   3.394
 8955TIP3   OH226828   2.714   2.121   3.039
 8955TIP3    H126829   2.642   2.129   2.976
 8955TIP3    H226830   2.774   2.059   2.999
 8956TIP3   OH226831   5.818   5.615   2.966
 8956TIP3    H126832   5.751   5.656   3.021
 8956TIP3    H226833   5.894   5.673   2.976
 8957TIP3   OH226834   5.661   0.910   2.835
 8957TIP3    H126835   5.647   0.970   2.908
 8957TIP3    H226836   5.619   0.953   2.760
 8958TIP3   OH226837   1.327   4.727   5.170
 8958TIP3    H126838   1.314   4.821   5.154
 8958TIP3    H226839   1.350   4.721   5.263
 8959TIP3   OH226840   4.546   0.523   2.708
 8959TIP3    H126841   4.624   0.564   2.670
 8959TIP3    H226842   4.479   0.591   2.706
 8960TIP3   OH226843   6.285   2.895   5.160
 8960TIP3    H126844   6.346   2.834   5.202
 8960TIP3    H226845   6.293   2.976   5.209
 8961TIP3   OH226846   4.289   0.670   4.356
 8961TIP3    H126847   4.221   0.702   4.415
 8961TIP3    H226848   4.317   0.587   4.394
 8962TIP3   OH226849   6.058   3.328   2.382
 8962TIP3    H126850   6.136   3.381   2.362
 8962TIP3    H226851   6.082   3.278   2.459
 8963TIP3   OH226852   1.484   5.810   2.346
 8963TIP3    H126853   1.416   5.768   2.399
 8963TIP3    H226854   1.448   5.897   2.326
 8964TIP3   OH226855   6.420   0.239   3.783
 8964TIP3    H126856   6.444   0.210   3.871
 8964TIP3    H226857   6.446   0.331   3.780
 8965TIP3   OH226858   1.029   3.708   0.654
 8965TIP3    H126859   1.026   3.621   0.694
 8965TIP3    H226860   0.949   3.713   0.600
 8966TIP3   OH226861   7.139   2.041   3.845
 8966TIP3    H126862   7.113   2.132   3.850
 8966TIP3    H226863   7.229   2.043   3.812
 8967TIP3   OH226864   6.736   5.614   2.083
 8967TIP3    H126865   6.737   5.676   2.010
 8967TIP3    H226866   6.659   5.560   2.067
 8968TIP3   OH226867   6.388   2.540   2.649
 8968TIP3    H126868   6.374   2.620   2.699
 8968TIP3    H226869   6.342   2.555   2.566
 8969TIP3   OH226870   3.890   5.410   1.305
 8969TIP3    H126871   3.922   5.440   1.220
 8969TIP3    H226872   3.796   5.395   1.291
 8970TIP3   OH226873   5.425   2.970   2.986
 8970TIP3    H126874   5.340   2.999   2.953
 8970TIP3    H226875   5.404   2.908   3.056
 8971TIP3   OH226876   0.356   5.152   5.815
 8971TIP3    H126877   0.440   5.171   5.857
 8971TIP3    H226878   0.379   5.106   5.735
 8972TIP3   OH226879   4.600   6.032   4.387
 8972TIP3    H126880   4.656   6.110   4.389
 8972TIP3    H226881   4.657   5.961   4.358
 8973TIP3   OH226882   5.520   4.587   3.678
 8973TIP3    H126883   5.436   4.556   3.713
 8973TIP3    H226884   5.510   4.584   3.583
 8974TIP3   OH226885   1.315   3.378   4.258
 8974TIP3    H126886   1.374   3.420   4.196
 8974TIP3    H226887   1.341   3.412   4.343
 8975TIP3   OH226888   7.001   5.847   4.231
 8975TIP3    H126889   6.953   5.914   4.183
 8975TIP3    H226890   7.079   5.892   4.263
 8976TIP3   OH226891   4.385   6.352   2.555
 8976TIP3    H126892   4.480   6.364   2.550
 8976TIP3    H226893   4.369   6.328   2.646
 8977TIP3   OH226894   4.751   1.391   4.431
 8977TIP3    H126895   4.734   1.477   4.467
 8977TIP3    H226896   4.795   1.408   4.347
 8978TIP3   OH226897   5.406   3.242   3.725
 8978TIP3    H126898   5.451   3.165   3.759
 8978TIP3    H226899   5.461   3.273   3.653
 8979TIP3   OH226900   3.608   3.212   1.367
 8979TIP3    H126901   3.694   3.171   1.377
 8979TIP3    H226902   3.624   3.306   1.382
 8980TIP3   OH226903   2.153   1.472   4.483
 8980TIP3    H126904   2.212   1.545   4.463
 8980TIP3    H226905   2.086   1.511   4.538
 8981TIP3   OH226906   4.870   2.695   3.435
 8981TIP3    H126907   4.819   2.737   3.505
 8981TIP3    H226908   4.950   2.665   3.477
 8982TIP3   OH226909   4.270   2.900   3.218
 8982TIP3    H126910   4.245   2.811   3.193
 8982TIP3    H226911   4.196   2.954   3.190
 8983TIP3   OH226912   5.189   4.025   0.909
 8983TIP3    H126913   5.116   4.001   0.966
 8983TIP3    H226914   5.264   4.033   0.968
 8984TIP3   OH226915   5.142   6.558   1.375
 8984TIP3    H126916   5.146   6.626   1.307
 8984TIP3    H226917   5.224   6.509   1.365
 8985TIP3   OH226918   0.185   4.048   0.717
 8985TIP3    H126919   0.121   4.118   0.711
 8985TIP3    H226920   0.133   3.968   0.727
 8986TIP3   OH226921   2.122   3.077   1.086
 8986TIP3    H126922   2.188   3.121   1.033
 8986TIP3    H226923   2.170   3.012   1.136
 8987TIP3   OH226924   6.477   0.753   3.812
 8987TIP3    H126925   6.489   0.841   3.848
 8987TIP3    H226926   6.383   0.743   3.803
 8988TIP3   OH226927   0.041   3.408   3.891
 8988TIP3    H126928  -0.002   3.351   3.827
 8988TIP3    H226929   0.061   3.488   3.842
 8989TIP3   OH226930   4.669   0.841   4.600
 8989TIP3    H126931   4.737   0.908   4.608
 8989TIP3    H226932   4.653   0.812   4.690
 8990TIP3   OH226933   6.320   6.221   4.794
 8990TIP3    H126934   6.358   6.290   4.739
 8990TIP3    H226935   6.262   6.172   4.735
 8991TIP3   OH226936   6.768   3.736   3.602
 8991TIP3    H126937   6.723   3.659   3.567
 8991TIP3    H226938   6.787   3.713   3.693
 8992TIP3   OH226939   3.834   4.946   2.429
 8992TIP3    H126940   3.887   4.975   2.503
 8992TIP3    H226941   3.793   4.865   2.459
 8993TIP3   OH226942   2.091   1.795   1.002
 8993TIP3    H126943   2.045   1.874   1.030
 8993TIP3    H226944   2.171   1.794   1.056
 8994TIP3   OH226945   0.796   3.625   1.285
 8994TIP3    H126946   0.824   3.690   1.220
 8994TIP3    H226947   0.702   3.640   1.295
 8995TIP3   OH226948   2.921   3.311   2.403
 8995TIP3    H126949   2.844   3.294   2.349
 8995TIP3    H226950   2.886   3.345   2.485
 8996TIP3   OH226951   3.738   1.662   4.127
 8996TIP3    H126952   3.797   1.594   4.158
 8996TIP3    H226953   3.650   1.624   4.137
 8997TIP3   OH226954   2.795   3.909   4.497
 8997TIP3    H126955   2.805   4.004   4.502
 8997TIP3    H226956   2.793   3.879   4.588
 8998TIP3   OH226957   1.763   4.092   3.042
 8998TIP3    H126958   1.797   4.143   2.968
 8998TIP3    H226959   1.814   4.122   3.117
 8999TIP3   OH226960   5.064   0.832   0.162
 8999TIP3    H126961   5.001   0.830   0.090
 8999TIP3    H226962   5.030   0.899   0.222
 9000TIP3   OH226963   5.577   5.897   5.281
 9000TIP3    H126964   5.590   5.928   5.191
 9000TIP3    H226965   5.509   5.954   5.316
 9001TIP3   OH226966   4.000   6.476   3.332
 9001TIP3    H126967   3.948   6.555   3.316
 9001TIP3    H226968   4.089   6.499   3.305
 9002TIP3   OH226969   1.827   6.599   3.541
 9002TIP3    H126970   1.821   6.605   3.445
 9002TIP3    H226971   1.836   6.689   3.570
 9003TIP3   OH226972   6.275   6.154   3.871
 9003TIP3    H126973   6.355   6.144   3.923
 9003TIP3    H226974   6.307   6.179   3.784
 9004TIP3   OH226975   2.612   4.438   3.879
 9004TIP3    H126976   2.562   4.418   3.799
 9004TIP3    H226977   2.642   4.528   3.867
 9005TIP3   OH226978   0.696   6.262   0.614
 9005TIP3    H126979   0.615   6.273   0.564
 9005TIP3    H226980   0.762   6.238   0.548
 9006TIP3   OH226981   6.921   2.260   0.867
 9006TIP3    H126982   6.973   2.330   0.828
 9006TIP3    H226983   6.885   2.298   0.947
 9007TIP3   OH226984   0.669   1.512   4.276
 9007TIP3    H126985   0.689   1.596   4.316
 9007TIP3    H226986   0.616   1.466   4.341
 9008TIP3   OH226987   1.952   1.084   0.029
 9008TIP3    H126988   1.892   1.148   0.067
 9008TIP3    H226989   2.035   1.130   0.022
 9009TIP3   OH226990   7.042   1.909   2.739
 9009TIP3    H126991   7.132   1.928   2.766
 9009TIP3    H226992   7.045   1.820   2.706
 9010TIP3   OH226993   2.810   0.136   0.536
 9010TIP3    H126994   2.802   0.225   0.503
 9010TIP3    H226995   2.773   0.140   0.624
 9011TIP3   OH226996   6.390   5.365   5.681
 9011TIP3    H126997   6.427   5.395   5.765
 9011TIP3    H226998   6.465   5.325   5.636
 9012TIP3   OH226999   3.537   0.597   4.112
 9012TIP3    H127000   3.627   0.585   4.144
 9012TIP3    H227001   3.547   0.634   4.024
 9013TIP3   OH227002   4.757   1.441   5.670
 9013TIP3    H127003   4.673   1.486   5.679
 9013TIP3    H227004   4.790   1.468   5.584
 9014TIP3   OH227005   0.304   5.250   4.569
 9014TIP3    H127006   0.219   5.249   4.613
 9014TIP3    H227007   0.359   5.193   4.621
 9015TIP3   OH227008   1.952   1.059   3.611
 9015TIP3    H127009   2.034   1.096   3.579
 9015TIP3    H227010   1.972   1.028   3.699
 9016TIP3   OH227011   3.458   5.047   2.421
 9016TIP3    H127012   3.546   5.085   2.419
 9016TIP3    H227013   3.445   5.022   2.512
 9017TIP3   OH227014   0.536   1.348   2.941
 9017TIP3    H127015   0.577   1.315   3.021
 9017TIP3    H227016   0.609   1.374   2.885
 9018TIP3   OH227017   4.292   4.262   3.562
 9018TIP3    H127018   4.325   4.292   3.477
 9018TIP3    H227019   4.200   4.239   3.546
 9019TIP3   OH227020   6.412   2.346   5.632
 9019TIP3    H127021   6.346   2.277   5.638
 9019TIP3    H227022   6.481   2.318   5.692
 9020TIP3   OH227023   3.745   6.192   0.205
 9020TIP3    H127024   3.793   6.241   0.272
 9020TIP3    H227025   3.654   6.191   0.236
 9021TIP3   OH227026   2.644   6.290   1.897
 9021TIP3    H127027   2.687   6.358   1.844
 9021TIP3    H227028   2.713   6.257   1.954
 9022TIP3   OH227029   1.259   3.349   2.308
 9022TIP3    H127030   1.344   3.315   2.337
 9022TIP3    H227031   1.212   3.272   2.275
 9023TIP3   OH227032   1.309   4.883   3.468
 9023TIP3    H127033   1.399   4.906   3.447
 9023TIP3    H227034   1.258   4.961   3.448
 9024TIP3   OH227035   3.476   1.627   4.190
 9024TIP3    H127036   3.458   1.557   4.127
 9024TIP3    H227037   3.438   1.596   4.272
 9025TIP3   OH227038   2.517   1.706   4.066
 9025TIP3    H127039   2.435   1.733   4.108
 9025TIP3    H227040   2.503   1.614   4.043
 9026TIP3   OH227041   1.700   1.275   1.504
 9026TIP3    H127042   1.674   1.211   1.570
 9026TIP3    H227043   1.791   1.297   1.526
 9027TIP3   OH227044   6.335   4.740  -0.011
 9027TIP3    H127045   6.311   4.832  -0.018
 9027TIP3    H227046   6.260   4.698   0.032
 9028TIP3   OH227047   0.255   0.146   4.602
 9028TIP3    H127048   0.341   0.187   4.588
 9028TIP3    H227049   0.270   0.085   4.675
 9029TIP3   OH227050   3.632   1.388   2.367
 9029TIP3    H127051   3.547   1.376   2.326
 9029TIP3    H227052   3.638   1.317   2.431
 9030TIP3   OH227053   2.717   3.148   4.868
 9030TIP3    H127054   2.655   3.099   4.921
 9030TIP3    H227055   2.767   3.080   4.821
 9031TIP3   OH227056   7.097   2.917   1.154
 9031TIP3    H127057   7.147   2.845   1.115
 9031TIP3    H227058   7.061   2.964   1.079
 9032TIP3   OH227059   2.040   0.777   3.417
 9032TIP3    H127060   2.104   0.839   3.452
 9032TIP3    H227061   2.008   0.730   3.494
 9033TIP3   OH227062   4.717   2.188   4.682
 9033TIP3    H127063   4.802   2.205   4.642
 9033TIP3    H227064   4.670   2.134   4.618
 9034TIP3   OH227065   3.653   4.405   4.899
 9034TIP3    H127066   3.576   4.349   4.911
 9034TIP3    H227067   3.672   4.400   4.806
 9035TIP3   OH227068   0.960   4.421   4.724
 9035TIP3    H127069   0.923   4.350   4.671
 9035TIP3    H227070   0.906   4.497   4.703
 9036TIP3   OH227071   1.110   6.740   3.439
 9036TIP3    H127072   1.060   6.667   3.401
 9036TIP3    H227073   1.092   6.735   3.533
 9037TIP3   OH227074   5.347   4.825   5.146
 9037TIP3    H127075   5.310   4.746   5.108
 9037TIP3    H227076   5.387   4.871   5.072
 9038TIP3   OH227077   3.931   3.508   1.845
 9038TIP3    H127078   3.889   3.428   1.875
 9038TIP3    H227079   4.007   3.478   1.795
 9039TIP3   OH227080   6.857   4.862   5.149
 9039TIP3    H127081   6.888   4.800   5.083
 9039TIP3    H227082   6.931   4.921   5.164
 9040TIP3   OH227083   3.592   3.357   5.225
 9040TIP3    H127084   3.516   3.299   5.233
 9040TIP3    H227085   3.667   3.297   5.221
 9041TIP3   OH227086   4.475   0.266   4.944
 9041TIP3    H127087   4.385   0.235   4.937
 9041TIP3    H227088   4.473   0.330   5.015
 9042TIP3   OH227089   2.799   0.224   5.274
 9042TIP3    H127090   2.789   0.147   5.218
 9042TIP3    H227091   2.763   0.296   5.222
 9043TIP3   OH227092   1.714   1.425   3.020
 9043TIP3    H127093   1.679   1.478   2.948
 9043TIP3    H227094   1.661   1.448   3.095
 9044TIP3   OH227095   2.612   2.546   0.701
 9044TIP3    H127096   2.649   2.467   0.740
 9044TIP3    H227097   2.603   2.525   0.608
 9045TIP3   OH227098   6.368   3.219   3.107
 9045TIP3    H127099   6.393   3.227   3.015
 9045TIP3    H227100   6.376   3.308   3.142
 9046TIP3   OH227101   0.827   3.459   3.019
 9046TIP3    H127102   0.909   3.423   3.054
 9046TIP3    H227103   0.794   3.516   3.089
 9047TIP3   OH227104   3.481   5.841   5.647
 9047TIP3    H127105   3.539   5.812   5.717
 9047TIP3    H227106   3.415   5.772   5.641
 9048TIP3   OH227107   2.918   2.596   2.324
 9048TIP3    H127108   2.920   2.619   2.231
 9048TIP3    H227109   2.837   2.546   2.335
 9049TIP3   OH227110   2.163   5.784   2.455
 9049TIP3    H127111   2.188   5.862   2.405
 9049TIP3    H227112   2.235   5.772   2.517
 9050TIP3   OH227113   6.292   2.420   4.080
 9050TIP3    H127114   6.335   2.334   4.080
 9050TIP3    H227115   6.269   2.435   3.988
 9051TIP3   OH227116   4.486   0.105   5.688
 9051TIP3    H127117   4.573   0.078   5.719
 9051TIP3    H227118   4.425   0.058   5.746
 9052TIP3   OH227119   3.648   0.040   0.013
 9052TIP3    H127120   3.567  -0.005   0.035
 9052TIP3    H227121   3.692   0.052   0.097
 9053TIP3   OH227122   0.659   3.960   3.806
 9053TIP3    H127123   0.584   3.980   3.861
 9053TIP3    H227124   0.644   3.871   3.776
 9054TIP3   OH227125   0.616   0.328   4.033
 9054TIP3    H127126   0.662   0.407   4.006
 9054TIP3    H227127   0.665   0.256   3.993
 9055TIP3   OH227128   5.308   6.699   4.178
 9055TIP3    H127129   5.321   6.620   4.124
 9055TIP3    H227130   5.281   6.665   4.263
 9056TIP3   OH227131   5.266   5.943   1.931
 9056TIP3    H127132   5.266   5.911   1.841
 9056TIP3    H227133   5.238   5.868   1.983
 9057TIP3   OH227134   4.469   0.035   2.801
 9057TIP3    H127135   4.483   0.116   2.751
 9057TIP3    H227136   4.374   0.023   2.801
 9058TIP3   OH227137   3.443   5.095   5.649
 9058TIP3    H127138   3.383   5.127   5.582
 9058TIP3    H227139   3.470   5.009   5.618
 9059TIP3   OH227140   3.682   2.284   2.590
 9059TIP3    H127141   3.767   2.321   2.567
 9059TIP3    H227142   3.627   2.361   2.610
 9060TIP3   OH227143   0.973   1.480   5.551
 9060TIP3    H127144   1.005   1.400   5.593
 9060TIP3    H227145   1.002   1.473   5.460
 9061TIP3   OH227146   5.194   4.654   1.903
 9061TIP3    H127147   5.134   4.583   1.927
 9061TIP3    H227148   5.280   4.612   1.895
 9062TIP3   OH227149   3.421   4.367   4.212
 9062TIP3    H127150   3.472   4.286   4.211
 9062TIP3    H227151   3.457   4.419   4.141
 9063TIP3   OH227152   0.505   1.950   3.803
 9063TIP3    H127153   0.565   2.017   3.771
 9063TIP3    H227154   0.423   1.997   3.820
 9064TIP3   OH227155   4.116   2.011   4.815
 9064TIP3    H127156   4.065   1.931   4.805
 9064TIP3    H227157   4.200   1.981   4.851
 9065TIP3   OH227158   0.343   4.974   4.856
 9065TIP3    H127159   0.282   5.001   4.924
 9065TIP3    H227160   0.362   4.882   4.876
 9066TIP3   OH227161   3.683   4.821   4.504
 9066TIP3    H127162   3.737   4.789   4.576
 9066TIP3    H227163   3.745   4.865   4.445
 9067TIP3   OH227164   3.476   2.211   1.089
 9067TIP3    H127165   3.503   2.303   1.093
 9067TIP3    H227166   3.382   2.213   1.108
 9068TIP3   OH227167   6.421   5.376   4.486
 9068TIP3    H127168   6.486   5.408   4.423
 9068TIP3    H227169   6.357   5.330   4.432
 9069TIP3   OH227170   1.820   3.220   4.101
 9069TIP3    H127171   1.755   3.207   4.170
 9069TIP3    H227172   1.904   3.222   4.147
 9070TIP3   OH227173   5.635   0.327   1.526
 9070TIP3    H127174   5.721   0.366   1.537
 9070TIP3    H227175   5.609   0.350   1.437
 9071TIP3   OH227176   6.347   6.068   1.547
 9071TIP3    H127177   6.408   6.097   1.615
 9071TIP3    H227178   6.394   5.998   1.502
 9072TIP3   OH227179   5.846   6.692   1.634
 9072TIP3    H127180   5.906   6.742   1.578
 9072TIP3    H227181   5.874   6.713   1.724
 9073TIP3   OH227182   4.646   5.094   5.842
 9073TIP3    H127183   4.622   5.044   5.763
 9073TIP3    H227184   4.670   5.027   5.906
 9074TIP3   OH227185   4.626   2.639   1.941
 9074TIP3    H127186   4.696   2.581   1.912
 9074TIP3    H227187   4.588   2.673   1.860
 9075TIP3   OH227188   4.951   1.922   1.171
 9075TIP3    H127189   4.986   1.893   1.087
 9075TIP3    H227190   4.881   1.858   1.190
 9076TIP3   OH227191   0.391   5.420   4.092
 9076TIP3    H127192   0.298   5.404   4.079
 9076TIP3    H227193   0.435   5.357   4.035
 9077TIP3   OH227194   1.073   4.687   1.523
 9077TIP3    H127195   1.046   4.598   1.545
 9077TIP3    H227196   1.009   4.716   1.458
 9078TIP3   OH227197   3.496   4.365   1.184
 9078TIP3    H127198   3.480   4.334   1.273
 9078TIP3    H227199   3.556   4.301   1.147
 9079TIP3   OH227200   0.805   4.525   5.199
 9079TIP3    H127201   0.757   4.454   5.242
 9079TIP3    H227202   0.862   4.480   5.136
 9080TIP3   OH227203   6.976   2.136   0.057
 9080TIP3    H127204   6.917   2.173  -0.009
 9080TIP3    H227205   6.954   2.043   0.060
 9081TIP3   OH227206   5.692   3.037   4.166
 9081TIP3    H127207   5.709   3.125   4.132
 9081TIP3    H227208   5.776   3.010   4.204
 9082TIP3   OH227209   5.592   1.943   2.902
 9082TIP3    H127210   5.555   1.919   2.987
 9082TIP3    H227211   5.687   1.935   2.915
 9083TIP3   OH227212   4.715   3.844   5.367
 9083TIP3    H127213   4.720   3.919   5.308
 9083TIP3    H227214   4.721   3.768   5.310
 9084TIP3   OH227215   0.746   1.250   5.585
 9084TIP3    H127216   0.838   1.227   5.591
 9084TIP3    H227217   0.743   1.344   5.605
 9085TIP3   OH227218   0.841   1.157   0.805
 9085TIP3    H127219   0.880   1.175   0.719
 9085TIP3    H227220   0.768   1.099   0.786
 9086TIP3   OH227221   5.110   0.551   4.005
 9086TIP3    H127222   5.102   0.578   3.914
 9086TIP3    H227223   5.020   0.545   4.036
 9087TIP3   OH227224   1.684   3.656   4.924
 9087TIP3    H127225   1.739   3.734   4.918
 9087TIP3    H227226   1.738   3.592   4.970
 9088TIP3   OH227227   4.969   3.945   1.779
 9088TIP3    H127228   5.055   3.984   1.764
 9088TIP3    H227229   4.927   3.944   1.693
 9089TIP3   OH227230   0.496   5.069   0.607
 9089TIP3    H127231   0.452   5.104   0.530
 9089TIP3    H227232   0.485   5.136   0.674
 9090TIP3   OH227233   3.118   6.211   0.302
 9090TIP3    H127234   3.142   6.151   0.373
 9090TIP3    H227235   3.176   6.286   0.313
 9091TIP3   OH227236   0.630   5.517   0.897
 9091TIP3    H127237   0.551   5.493   0.848
 9091TIP3    H227238   0.702   5.476   0.849
 9092TIP3   OH227239   1.800   5.635   1.998
 9092TIP3    H127240   1.860   5.608   1.929
 9092TIP3    H227241   1.843   5.710   2.039
 9093TIP3   OH227242   1.236   2.536   0.242
 9093TIP3    H127243   1.220   2.476   0.169
 9093TIP3    H227244   1.166   2.600   0.235
 9094TIP3   OH227245   4.630   5.599   0.374
 9094TIP3    H127246   4.667   5.684   0.351
 9094TIP3    H227247   4.702   5.552   0.416
 9095TIP3   OH227248   1.131   0.619   3.614
 9095TIP3    H127249   1.037   0.610   3.627
 9095TIP3    H227250   1.139   0.678   3.539
 9096TIP3   OH227251   3.406   5.383   4.271
 9096TIP3    H127252   3.380   5.442   4.342
 9096TIP3    H227253   3.409   5.297   4.312
 9097TIP3   OH227254   3.327   1.738   5.469
 9097TIP3    H127255   3.378   1.799   5.415
 9097TIP3    H227256   3.259   1.706   5.409
 9098TIP3   OH227257   1.202   5.467   1.898
 9098TIP3    H127258   1.242   5.471   1.812
 9098TIP3    H227259   1.275   5.454   1.958
 9099TIP3   OH227260   6.471   0.331   0.832
 9099TIP3    H127261   6.458   0.276   0.910
 9099TIP3    H227262   6.562   0.317   0.808
 9100TIP3   OH227263   4.171   2.110   3.693
 9100TIP3    H127264   4.219   2.155   3.623
 9100TIP3    H227265   4.123   2.179   3.738
 9101TIP3   OH227266   5.565   5.981   4.090
 9101TIP3    H127267   5.635   6.045   4.078
 9101TIP3    H227268   5.583   5.940   4.174
 9102TIP3   OH227269   4.879   1.657   4.895
 9102TIP3    H127270   4.943   1.636   4.828
 9102TIP3    H227271   4.908   1.607   4.972
 9103TIP3   OH227272   6.812   6.606   0.055
 9103TIP3    H127273   6.776   6.653   0.130
 9103TIP3    H227274   6.763   6.640  -0.020
 9104TIP3   OH227275   0.293   2.291   0.592
 9104TIP3    H127276   0.328   2.347   0.523
 9104TIP3    H227277   0.370   2.253   0.634
 9105TIP3   OH227278   4.801   2.335   1.438
 9105TIP3    H127279   4.894   2.358   1.442
 9105TIP3    H227280   4.779   2.339   1.345
 9106TIP3   OH227281   2.694   6.516   1.711
 9106TIP3    H127282   2.694   6.499   1.617
 9106TIP3    H227283   2.605   6.547   1.729
 9107TIP3   OH227284   6.973   3.313   5.062
 9107TIP3    H127285   6.951   3.402   5.033
 9107TIP3    H227286   6.899   3.260   5.034
 9108TIP3   OH227287   7.029   6.216   0.148
 9108TIP3    H127288   7.016   6.265   0.229
 9108TIP3    H227289   6.941   6.190   0.121
 9109TIP3   OH227290   7.016   1.582   2.693
 9109TIP3    H127291   6.950   1.586   2.762
 9109TIP3    H227292   7.087   1.530   2.730
 9110TIP3   OH227293   2.089   6.335   3.131
 9110TIP3    H127294   2.013   6.383   3.096
 9110TIP3    H227295   2.101   6.370   3.219
 9111TIP3   OH227296   0.838   1.290   4.554
 9111TIP3    H127297   0.766   1.230   4.532
 9111TIP3    H227298   0.904   1.274   4.487
 9112TIP3   OH227299   4.523   4.279   2.503
 9112TIP3    H127300   4.497   4.243   2.418
 9112TIP3    H227301   4.516   4.374   2.492
 9113TIP3   OH227302   6.142   4.886   3.121
 9113TIP3    H127303   6.172   4.954   3.061
 9113TIP3    H227304   6.127   4.932   3.204
 9114TIP3   OH227305   0.495   2.900   0.658
 9114TIP3    H127306   0.407   2.871   0.682
 9114TIP3    H227307   0.489   2.996   0.659
 9115TIP3   OH227308   2.389   6.715   4.719
 9115TIP3    H127309   2.315   6.655   4.728
 9115TIP3    H227310   2.388   6.742   4.627
 9116TIP3   OH227311   5.184   5.237   3.706
 9116TIP3    H127312   5.205   5.143   3.713
 9116TIP3    H227313   5.242   5.279   3.770
 9117TIP3   OH227314   3.519   0.134   4.800
 9117TIP3    H127315   3.529   0.213   4.854
 9117TIP3    H227316   3.568   0.154   4.720
 9118TIP3   OH227317   6.653   5.644   3.795
 9118TIP3    H127318   6.681   5.559   3.828
 9118TIP3    H227319   6.723   5.704   3.820
 9119TIP3   OH227320   1.950   3.863   1.062
 9119TIP3    H127321   1.923   3.929   0.998
 9119TIP3    H227322   1.984   3.913   1.136
 9120TIP3   OH227323   2.155   6.284   2.570
 9120TIP3    H127324   2.125   6.343   2.502
 9120TIP3    H227325   2.233   6.326   2.606
 9121TIP3   OH227326   2.601   5.890   5.160
 9121TIP3    H127327   2.655   5.911   5.237
 9121TIP3    H227328   2.549   5.969   5.146
 9122TIP3   OH227329   1.254   6.260   4.668
 9122TIP3    H127330   1.232   6.303   4.585
 9122TIP3    H227331   1.267   6.168   4.645
 9123TIP3   OH227332   3.060   2.525   4.261
 9123TIP3    H127333   3.036   2.599   4.205
 9123TIP3    H227334   3.042   2.448   4.208
 9124TIP3   OH227335   0.949   6.053   3.819
 9124TIP3    H127336   0.860   6.026   3.799
 9124TIP3    H227337   0.974   6.110   3.745
 9125TIP3   OH227338   4.548   1.129   0.587
 9125TIP3    H127339   4.463   1.174   0.587
 9125TIP3    H227340   4.567   1.115   0.680
 9126TIP3   OH227341   5.337   6.402   1.296
 9126TIP3    H127342   5.338   6.316   1.254
 9126TIP3    H227343   5.409   6.398   1.360
 9127TIP3   OH227344   3.428   3.510   3.900
 9127TIP3    H127345   3.392   3.474   3.981
 9127TIP3    H227346   3.403   3.602   3.902
 9128TIP3   OH227347   1.740   1.108   2.282
 9128TIP3    H127348   1.804   1.093   2.213
 9128TIP3    H227349   1.696   1.023   2.292
 9129TIP3   OH227350   0.833   4.800   2.013
 9129TIP3    H127351   0.874   4.854   1.945
 9129TIP3    H227352   0.874   4.830   2.095
 9130TIP3   OH227353   2.313   5.791   3.756
 9130TIP3    H127354   2.402   5.758   3.745
 9130TIP3    H227355   2.311   5.873   3.708
 9131TIP3   OH227356   4.295   4.199   0.852
 9131TIP3    H127357   4.363   4.164   0.911
 9131TIP3    H227358   4.267   4.123   0.801
 9132TIP3   OH227359   5.252   1.376   3.391
 9132TIP3    H127360   5.254   1.372   3.486
 9132TIP3    H227361   5.245   1.469   3.370
 9133TIP3   OH227362   2.467   3.610   1.513
 9133TIP3    H127363   2.457   3.581   1.422
 9133TIP3    H227364   2.437   3.537   1.565
 9134TIP3   OH227365   3.543   3.497   3.029
 9134TIP3    H127366   3.620   3.474   3.081
 9134TIP3    H227367   3.490   3.552   3.088
 9135TIP3   OH227368   4.342   5.846   3.019
 9135TIP3    H127369   4.299   5.761   3.028
 9135TIP3    H227370   4.293   5.891   2.951
 9136TIP3   OH227371   7.163   6.486   5.368
 9136TIP3    H127372   7.162   6.541   5.446
 9136TIP3    H227373   7.216   6.410   5.393
 9137TIP3   OH227374   2.674   3.701   5.126
 9137TIP3    H127375   2.759   3.657   5.124
 9137TIP3    H227376   2.694   3.791   5.148
 9138TIP3   OH227377   2.436   1.756   5.319
 9138TIP3    H127378   2.381   1.834   5.323
 9138TIP3    H227379   2.508   1.781   5.260
 9139TIP3   OH227380   6.866   1.815   5.248
 9139TIP3    H127381   6.885   1.800   5.340
 9139TIP3    H227382   6.773   1.838   5.246
 9140TIP3   OH227383   4.174   6.298   5.439
 9140TIP3    H127384   4.086   6.260   5.439
 9140TIP3    H227385   4.232   6.222   5.445
 9141TIP3   OH227386   3.647   2.510   1.983
 9141TIP3    H127387   3.654   2.514   2.078
 9141TIP3    H227388   3.622   2.599   1.957
 9142TIP3   OH227389   2.983   3.120   0.948
 9142TIP3    H127390   2.997   3.071   0.866
 9142TIP3    H227391   3.040   3.196   0.940
 9143TIP3   OH227392   1.680   6.151   3.933
 9143TIP3    H127393   1.649   6.060   3.932
 9143TIP3    H227394   1.689   6.174   3.840
 9144TIP3   OH227395   4.031   5.284   2.140
 9144TIP3    H127396   4.111   5.238   2.165
 9144TIP3    H227397   4.034   5.287   2.045
 9145TIP3   OH227398   0.886   4.378   3.336
 9145TIP3    H127399   0.888   4.283   3.343
 9145TIP3    H227400   0.931   4.409   3.414
 9146TIP3   OH227401   0.635   4.568   4.964
 9146TIP3    H127402   0.694   4.587   5.037
 9146TIP3    H227403   0.691   4.568   4.886
 9147TIP3   OH227404   3.011   2.072   2.661
 9147TIP3    H127405   2.998   2.128   2.585
 9147TIP3    H227406   3.101   2.090   2.689
 9148TIP3   OH227407   3.922   5.069   4.872
 9148TIP3    H127408   3.953   5.104   4.789
 9148TIP3    H227409   3.916   5.144   4.930
 9149TIP3   OH227410   6.890   5.013   4.306
 9149TIP3    H127411   6.977   4.987   4.338
 9149TIP3    H227412   6.888   5.108   4.316
 9150TIP3   OH227413   0.977   6.696   1.722
 9150TIP3    H127414   0.883   6.680   1.720
 9150TIP3    H227415   0.986   6.782   1.762
 9151TIP3   OH227416   1.755   4.944   0.034
 9151TIP3    H127417   1.765   4.909  -0.054
 9151TIP3    H227418   1.830   5.002   0.045
 9152TIP3   OH227419   0.342   6.700   3.800
 9152TIP3    H127420   0.330   6.744   3.884
 9152TIP3    H227421   0.379   6.614   3.823
 9153TIP3   OH227422   1.808   3.083   3.052
 9153TIP3    H127423   1.807   3.138   2.974
 9153TIP3    H227424   1.897   3.090   3.085
 9154TIP3   OH227425   4.614   1.567   0.829
 9154TIP3    H127426   4.667   1.590   0.753
 9154TIP3    H227427   4.640   1.478   0.850
 9155TIP3   OH227428   3.741   0.595   3.622
 9155TIP3    H127429   3.750   0.654   3.548
 9155TIP3    H227430   3.820   0.542   3.620
 9156TIP3   OH227431   1.149   6.034   4.001
 9156TIP3    H127432   1.217   6.044   3.934
 9156TIP3    H227433   1.071   6.073   3.961
 9157TIP3   OH227434   3.281   1.673   5.844
 9157TIP3    H127435   3.335   1.750   5.862
 9157TIP3    H227436   3.223   1.667   5.919
 9158TIP3   OH227437   4.302   5.773   4.205
 9158TIP3    H127438   4.277   5.853   4.251
 9158TIP3    H227439   4.253   5.704   4.248
 9159TIP3   OH227440   5.655   1.750   0.264
 9159TIP3    H127441   5.732   1.756   0.209
 9159TIP3    H227442   5.646   1.837   0.304
 9160TIP3   OH227443   1.337   3.414   0.794
 9160TIP3    H127444   1.374   3.326   0.785
 9160TIP3    H227445   1.330   3.446   0.704
 9161TIP3   OH227446   5.617   6.012   5.030
 9161TIP3    H127447   5.698   6.054   5.001
 9161TIP3    H227448   5.547   6.064   4.991
 9162TIP3   OH227449   6.071   0.395   2.253
 9162TIP3    H127450   6.152   0.443   2.236
 9162TIP3    H227451   6.052   0.349   2.172
 9163TIP3   OH227452   3.020   0.318   4.950
 9163TIP3    H127453   2.955   0.249   4.966
 9163TIP3    H227454   2.981   0.370   4.879
 9164TIP3   OH227455   6.033   6.247   0.362
 9164TIP3    H127456   5.964   6.181   0.354
 9164TIP3    H227457   6.009   6.315   0.299
 9165TIP3   OH227458   2.314   0.500   1.871
 9165TIP3    H127459   2.308   0.447   1.951
 9165TIP3    H227460   2.392   0.467   1.827
 9166TIP3   OH227461   3.307   2.139   1.540
 9166TIP3    H127462   3.348   2.064   1.495
 9166TIP3    H227463   3.241   2.099   1.597
 9167TIP3   OH227464   6.444   1.095   4.588
 9167TIP3    H127465   6.454   1.141   4.505
 9167TIP3    H227466   6.417   1.007   4.564
 9168TIP3   OH227467   5.591   2.362   0.293
 9168TIP3    H127468   5.543   2.360   0.375
 9168TIP3    H227469   5.527   2.334   0.227
 9169TIP3   OH227470   4.844   2.790   4.220
 9169TIP3    H127471   4.849   2.842   4.300
 9169TIP3    H227472   4.786   2.717   4.243
 9170TIP3   OH227473   3.600   1.728   3.431
 9170TIP3    H127474   3.510   1.758   3.443
 9170TIP3    H227475   3.601   1.639   3.467
 9171TIP3   OH227476   0.295   4.036   2.741
 9171TIP3    H127477   0.216   4.031   2.687
 9171TIP3    H227478   0.264   4.026   2.831
 9172TIP3   OH227479   1.376   3.523   1.038
 9172TIP3    H127480   1.359   3.493   0.949
 9172TIP3    H227481   1.303   3.583   1.058
 9173TIP3   OH227482   5.962   5.269   4.680
 9173TIP3    H127483   6.034   5.219   4.719
 9173TIP3    H227484   5.893   5.204   4.667
 9174TIP3   OH227485   1.466   5.635   5.251
 9174TIP3    H127486   1.443   5.568   5.316
 9174TIP3    H227487   1.526   5.693   5.298
 9175TIP3   OH227488   6.768   5.008   0.269
 9175TIP3    H127489   6.705   5.068   0.229
 9175TIP3    H227490   6.717   4.931   0.291
 9176TIP3   OH227491   4.236   4.212   0.498
 9176TIP3    H127492   4.151   4.196   0.540
 9176TIP3    H227493   4.259   4.129   0.458
 9177TIP3   OH227494   0.827   3.623   3.236
 9177TIP3    H127495   0.918   3.646   3.216
 9177TIP3    H227496   0.815   3.646   3.328
 9178TIP3   OH227497   2.670   5.694   5.752
 9178TIP3    H127498   2.656   5.639   5.675
 9178TIP3    H227499   2.588   5.690   5.801
 9179TIP3   OH227500   6.809   6.225   1.432
 9179TIP3    H127501   6.732   6.265   1.472
 9179TIP3    H227502   6.791   6.227   1.338
 9180TIP3   OH227503   3.948   1.959   3.656
 9180TIP3    H127504   3.947   1.935   3.563
 9180TIP3    H227505   4.023   2.017   3.665
 9181TIP3   OH227506   0.872   2.386   1.819
 9181TIP3    H127507   0.895   2.459   1.876
 9181TIP3    H227508   0.785   2.407   1.786
 9182TIP3   OH227509   6.409   6.207   3.173
 9182TIP3    H127510   6.357   6.228   3.250
 9182TIP3    H227511   6.432   6.293   3.136
 9183TIP3   OH227512   2.504   4.254   5.834
 9183TIP3    H127513   2.556   4.317   5.885
 9183TIP3    H227514   2.551   4.171   5.845
 9184TIP3   OH227515   2.904   4.858   2.072
 9184TIP3    H127516   2.894   4.795   2.000
 9184TIP3    H227517   2.995   4.887   2.066
 9185TIP3   OH227518   0.816   1.998   1.462
 9185TIP3    H127519   0.796   1.935   1.532
 9185TIP3    H227520   0.909   2.017   1.473
 9186TIP3   OH227521   2.159   4.878   3.650
 9186TIP3    H127522   2.133   4.880   3.742
 9186TIP3    H227523   2.200   4.792   3.639
 9187TIP3   OH227524   1.105   0.043   1.844
 9187TIP3    H127525   1.052   0.122   1.854
 9187TIP3    H227526   1.174   0.053   1.910
 9188TIP3   OH227527   0.983   1.144   1.383
 9188TIP3    H127528   0.931   1.123   1.306
 9188TIP3    H227529   1.008   1.236   1.372
 9189TIP3   OH227530   0.574   2.622   3.839
 9189TIP3    H127531   0.553   2.706   3.880
 9189TIP3    H227532   0.512   2.614   3.766
 9190TIP3   OH227533   3.649   2.908   5.681
 9190TIP3    H127534   3.568   2.958   5.672
 9190TIP3    H227535   3.637   2.832   5.624
 9191TIP3   OH227536   4.151   0.382   5.299
 9191TIP3    H127537   4.221   0.317   5.308
 9191TIP3    H227538   4.132   0.408   5.389
 9192TIP3   OH227539   4.875   5.008   2.350
 9192TIP3    H127540   4.858   4.979   2.260
 9192TIP3    H227541   4.790   5.002   2.393
 9193TIP3   OH227542   3.204   5.511   3.599
 9193TIP3    H127543   3.205   5.553   3.685
 9193TIP3    H227544   3.296   5.498   3.578
 9194TIP3   OH227545   4.778   1.678   3.339
 9194TIP3    H127546   4.873   1.677   3.328
 9194TIP3    H227547   4.748   1.599   3.295
 9195TIP3   OH227548   7.016   1.266   2.204
 9195TIP3    H127549   7.017   1.170   2.203
 9195TIP3    H227550   7.061   1.291   2.123
 9196TIP3   OH227551   6.512   5.623   2.868
 9196TIP3    H127552   6.514   5.533   2.834
 9196TIP3    H227553   6.595   5.633   2.914
 9197TIP3   OH227554   3.892   2.048   2.991
 9197TIP3    H127555   3.939   2.030   2.909
 9197TIP3    H227556   3.955   2.095   3.045
 9198TIP3   OH227557   6.369   6.044   5.003
 9198TIP3    H127558   6.289   6.078   5.043
 9198TIP3    H227559   6.387   6.103   4.930
 9199TIP3   OH227560   2.329   5.748   5.111
 9199TIP3    H127561   2.351   5.693   5.036
 9199TIP3    H227562   2.399   5.813   5.114
 9200TIP3   OH227563   6.709   6.057   5.898
 9200TIP3    H127564   6.767   6.003   5.952
 9200TIP3    H227565   6.749   6.056   5.811
 9201TIP3   OH227566   0.009   5.753   2.674
 9201TIP3    H127567   0.068   5.697   2.624
 9201TIP3    H227568   0.004   5.835   2.624
 9202TIP3   OH227569   1.895   1.123   1.235
 9202TIP3    H127570   1.903   1.122   1.330
 9202TIP3    H227571   1.982   1.097   1.204
 9203TIP3   OH227572   5.966   4.520   1.029
 9203TIP3    H127573   5.899   4.582   1.055
 9203TIP3    H227574   6.043   4.573   1.008
 9204TIP3   OH227575   5.851   2.915   0.767
 9204TIP3    H127576   5.892   3.001   0.779
 9204TIP3    H227577   5.823   2.889   0.855
 9205TIP3   OH227578   4.124   5.959   4.577
 9205TIP3    H127579   4.174   5.969   4.496
 9205TIP3    H227580   4.046   6.014   4.565
 9206TIP3   OH227581   0.891   4.056   3.358
 9206TIP3    H127582   0.958   4.051   3.426
 9206TIP3    H227583   0.818   4.005   3.393
 9207TIP3   OH227584   1.353   4.141   5.168
 9207TIP3    H127585   1.294   4.139   5.093
 9207TIP3    H227586   1.363   4.235   5.187
 9208TIP3   OH227587   6.618   5.892   5.430
 9208TIP3    H127588   6.593   5.940   5.350
 9208TIP3    H227589   6.603   5.955   5.501
 9209TIP3   OH227590   0.984   3.845   4.325
 9209TIP3    H127591   0.891   3.836   4.346
 9209TIP3    H227592   0.999   3.781   4.255
 9210TIP3   OH227593   2.351   1.530   0.146
 9210TIP3    H127594   2.376   1.457   0.203
 9210TIP3    H227595   2.431   1.580   0.134
 9211TIP3   OH227596   5.132   3.970   3.958
 9211TIP3    H127597   5.049   3.978   4.004
 9211TIP3    H227598   5.148   3.876   3.951
 9212TIP3   OH227599   5.627   5.681   5.553
 9212TIP3    H127600   5.586   5.753   5.506
 9212TIP3    H227601   5.714   5.714   5.577
 9213TIP3   OH227602   1.108   3.966   0.652
 9213TIP3    H127603   1.042   4.025   0.617
 9213TIP3    H227604   1.067   3.879   0.651
 9214TIP3   OH227605   2.381   2.132   3.014
 9214TIP3    H127606   2.287   2.129   2.994
 9214TIP3    H227607   2.394   2.063   3.079
 9215TIP3   OH227608   2.295   6.129   1.298
 9215TIP3    H127609   2.348   6.055   1.327
 9215TIP3    H227610   2.210   6.091   1.276
 9216TIP3   OH227611   0.886   4.778   1.328
 9216TIP3    H127612   0.827   4.805   1.258
 9216TIP3    H227613   0.833   4.725   1.386
 9217TIP3   OH227614   4.559   5.158   2.906
 9217TIP3    H127615   4.563   5.215   2.828
 9217TIP3    H227616   4.643   5.172   2.949
 9218TIP3   OH227617   6.461   4.370   5.785
 9218TIP3    H127618   6.450   4.420   5.704
 9218TIP3    H227619   6.429   4.283   5.763
 9219TIP3   OH227620   1.147   4.173   2.720
 9219TIP3    H127621   1.091   4.180   2.797
 9219TIP3    H227622   1.214   4.108   2.744
 9220TIP3   OH227623   0.377   6.174   3.367
 9220TIP3    H127624   0.348   6.113   3.299
 9220TIP3    H227625   0.337   6.140   3.447
 9221TIP3   OH227626   2.005   2.793   3.512
 9221TIP3    H127627   1.963   2.791   3.598
 9221TIP3    H227628   2.034   2.883   3.501
 9222TIP3   OH227629   4.479   4.005   2.930
 9222TIP3    H127630   4.404   3.985   2.874
 9222TIP3    H227631   4.511   4.090   2.899
 9223TIP3   OH227632   3.058   2.776   2.023
 9223TIP3    H127633   3.095   2.695   2.059
 9223TIP3    H227634   2.980   2.792   2.076
 9224TIP3   OH227635   3.545   5.468   3.822
 9224TIP3    H127636   3.543   5.502   3.733
 9224TIP3    H227637   3.513   5.378   3.814
 9225TIP3   OH227638   0.069   2.788   0.013
 9225TIP3    H127639   0.114   2.846   0.074
 9225TIP3    H227640   0.138   2.756  -0.045
 9226TIP3   OH227641   0.541   0.524   5.758
 9226TIP3    H127642   0.476   0.569   5.813
 9226TIP3    H227643   0.525   0.558   5.670
 9227TIP3   OH227644   5.344   4.407   3.947
 9227TIP3    H127645   5.334   4.493   3.987
 9227TIP3    H227646   5.439   4.391   3.948
 9228TIP3   OH227647   1.478   3.797   5.451
 9228TIP3    H127648   1.481   3.892   5.440
 9228TIP3    H227649   1.401   3.768   5.402
 9229TIP3   OH227650   5.952   5.115   2.829
 9229TIP3    H127651   6.004   5.035   2.843
 9229TIP3    H227652   5.908   5.130   2.912
 9230TIP3   OH227653   3.155   2.138   3.853
 9230TIP3    H127654   3.106   2.217   3.877
 9230TIP3    H227655   3.196   2.159   3.770
 9231TIP3   OH227656   4.699   1.434   1.570
 9231TIP3    H127657   4.712   1.385   1.651
 9231TIP3    H227658   4.777   1.490   1.564
 9232TIP3   OH227659   3.698   1.474   3.805
 9232TIP3    H127660   3.674   1.457   3.713
 9232TIP3    H227661   3.775   1.530   3.800
 9233TIP3   OH227662   6.749   4.823   2.900
 9233TIP3    H127663   6.659   4.814   2.869
 9233TIP3    H227664   6.741   4.821   2.996
 9234TIP3   OH227665   4.803   6.665   5.239
 9234TIP3    H127666   4.826   6.662   5.332
 9234TIP3    H227667   4.837   6.749   5.209
 9235TIP3   OH227668   5.745   2.485   0.487
 9235TIP3    H127669   5.748   2.581   0.491
 9235TIP3    H227670   5.707   2.466   0.401
 9236TIP3   OH227671   2.688   2.000   2.093
 9236TIP3    H127672   2.629   1.937   2.134
 9236TIP3    H227673   2.746   1.947   2.038
 9237TIP3   OH227674   0.850   4.781   3.389
 9237TIP3    H127675   0.776   4.837   3.411
 9237TIP3    H227676   0.925   4.824   3.429
 9238TIP3   OH227677   0.140   1.834   2.972
 9238TIP3    H127678   0.222   1.798   3.005
 9238TIP3    H227679   0.072   1.787   3.021
 9239TIP3   OH227680   6.016   2.798   2.700
 9239TIP3    H127681   5.924   2.770   2.701
 9239TIP3    H227682   6.020   2.864   2.631
 9240TIP3   OH227683   6.111   2.100   3.845
 9240TIP3    H127684   6.139   2.069   3.759
 9240TIP3    H227685   6.184   2.154   3.876
 9241TIP3   OH227686   1.379   6.658   3.358
 9241TIP3    H127687   1.296   6.675   3.315
 9241TIP3    H227688   1.355   6.619   3.442
 9242TIP3   OH227689   0.606   5.768   1.017
 9242TIP3    H127690   0.588   5.746   1.108
 9242TIP3    H227691   0.606   5.684   0.971
 9243TIP3   OH227692   5.785   4.140   0.287
 9243TIP3    H127693   5.848   4.153   0.358
 9243TIP3    H227694   5.742   4.225   0.277
 9244TIP3   OH227695   4.668   5.259   0.273
 9244TIP3    H127696   4.625   5.274   0.357
 9244TIP3    H227697   4.732   5.190   0.291
 9245TIP3   OH227698   2.083   0.515   0.074
 9245TIP3    H127699   2.091   0.423   0.097
 9245TIP3    H227700   2.083   0.561   0.157
 9246TIP3   OH227701   1.246   3.154   3.775
 9246TIP3    H127702   1.340   3.170   3.769
 9246TIP3    H227703   1.234   3.110   3.859
 9247TIP3   OH227704   2.767   2.296   4.351
 9247TIP3    H127705   2.711   2.366   4.384
 9247TIP3    H227706   2.750   2.294   4.257
 9248TIP3   OH227707   6.656   4.432   2.078
 9248TIP3    H127708   6.590   4.369   2.105
 9248TIP3    H227709   6.705   4.388   2.009
 9249TIP3   OH227710   6.211   3.175   5.177
 9249TIP3    H127711   6.256   3.247   5.133
 9249TIP3    H227712   6.131   3.214   5.212
 9250TIP3   OH227713   1.484   2.111   5.290
 9250TIP3    H127714   1.429   2.140   5.363
 9250TIP3    H227715   1.561   2.167   5.294
 9251TIP3   OH227716   2.708   3.466   4.110
 9251TIP3    H127717   2.759   3.547   4.115
 9251TIP3    H227718   2.738   3.424   4.029
 9252TIP3   OH227719   0.569   1.786   0.753
 9252TIP3    H127720   0.501   1.816   0.692
 9252TIP3    H227721   0.530   1.798   0.840
 9253TIP3   OH227722   1.337   3.652   1.941
 9253TIP3    H127723   1.377   3.576   1.984
 9253TIP3    H227724   1.298   3.617   1.861
 9254TIP3   OH227725   5.090   5.870   4.308
 9254TIP3    H127726   5.115   5.932   4.377
 9254TIP3    H227727   5.163   5.808   4.306
 9255TIP3   OH227728   5.880   2.550   4.975
 9255TIP3    H127729   5.844   2.566   4.888
 9255TIP3    H227730   5.972   2.527   4.959
 9256TIP3   OH227731   4.190   5.395   1.420
 9256TIP3    H127732   4.256   5.352   1.365
 9256TIP3    H227733   4.178   5.481   1.380
 9257TIP3   OH227734   1.033   3.075   3.211
 9257TIP3    H127735   1.110   3.019   3.199
 9257TIP3    H227736   0.972   3.021   3.260
 9258TIP3   OH227737   0.550   3.863   4.582
 9258TIP3    H127738   0.558   3.767   4.586
 9258TIP3    H227739   0.633   3.895   4.616
 9259TIP3   OH227740   4.924   3.802   0.574
 9259TIP3    H127741   4.829   3.797   0.567
 9259TIP3    H227742   4.955   3.781   0.486
 9260TIP3   OH227743   4.907   0.584   4.183
 9260TIP3    H127744   4.872   0.607   4.269
 9260TIP3    H227745   5.002   0.579   4.197
 9261TIP3   OH227746   5.172   2.105   0.506
 9261TIP3    H127747   5.209   2.020   0.484
 9261TIP3    H227748   5.198   2.121   0.596
 9262TIP3   OH227749   6.465   5.583   2.092
 9262TIP3    H127750   6.479   5.666   2.137
 9262TIP3    H227751   6.409   5.533   2.151
 9263TIP3   OH227752   1.698   4.901   2.296
 9263TIP3    H127753   1.693   4.809   2.322
 9263TIP3    H227754   1.670   4.900   2.204
 9264TIP3   OH227755   4.861   6.736   4.333
 9264TIP3    H127756   4.781   6.747   4.385
 9264TIP3    H227757   4.917   6.808   4.360
 9265TIP3   OH227758   4.151   1.327   1.882
 9265TIP3    H127759   4.147   1.310   1.788
 9265TIP3    H227760   4.146   1.423   1.888
 9266TIP3   OH227761   4.015   0.851   4.108
 9266TIP3    H127762   4.036   0.941   4.083
 9266TIP3    H227763   4.078   0.797   4.061
 9267TIP3   OH227764   0.656   5.983   0.427
 9267TIP3    H127765   0.686   5.921   0.494
 9267TIP3    H227766   0.560   5.982   0.435
 9268TIP3   OH227767   3.105   1.733   0.603
 9268TIP3    H127768   3.061   1.817   0.617
 9268TIP3    H227769   3.132   1.705   0.691
 9269TIP3   OH227770   5.441   4.131   4.365
 9269TIP3    H127771   5.373   4.160   4.304
 9269TIP3    H227772   5.485   4.212   4.392
 9270TIP3   OH227773   6.546   1.994   2.725
 9270TIP3    H127774   6.554   2.033   2.812
 9270TIP3    H227775   6.623   1.938   2.717
 9271TIP3   OH227776   5.148   4.490   5.403
 9271TIP3    H127777   5.169   4.412   5.454
 9271TIP3    H227778   5.219   4.498   5.339
 9272TIP3   OH227779   0.700   0.380   0.257
 9272TIP3    H127780   0.707   0.306   0.317
 9272TIP3    H227781   0.782   0.380   0.208
 9273TIP3   OH227782   2.933   0.992   4.528
 9273TIP3    H127783   2.903   1.069   4.578
 9273TIP3    H227784   2.948   0.925   4.594
 9274TIP3   OH227785   0.968   4.656   4.486
 9274TIP3    H127786   1.027   4.586   4.457
 9274TIP3    H227787   1.023   4.711   4.542
 9275TIP3   OH227788   3.493   5.876   0.575
 9275TIP3    H127789   3.403   5.862   0.603
 9275TIP3    H227790   3.523   5.790   0.546
 9276TIP3   OH227791   6.195   1.440   3.902
 9276TIP3    H127792   6.191   1.508   3.835
 9276TIP3    H227793   6.286   1.412   3.903
 9277TIP3   OH227794   6.080   0.467   3.164
 9277TIP3    H127795   6.000   0.503   3.125
 9277TIP3    H227796   6.148   0.529   3.139
 9278TIP3   OH227797   5.194   2.966   4.600
 9278TIP3    H127798   5.108   2.979   4.639
 9278TIP3    H227799   5.205   2.871   4.599
 9279TIP3   OH227800   6.017   0.718   2.646
 9279TIP3    H127801   5.931   0.753   2.622
 9279TIP3    H227802   6.040   0.765   2.726
 9280TIP3   OH227803   4.561   6.076   3.683
 9280TIP3    H127804   4.625   6.038   3.744
 9280TIP3    H227805   4.612   6.139   3.632
 9281TIP3   OH227806   3.097   5.810   5.351
 9281TIP3    H127807   3.111   5.848   5.438
 9281TIP3    H227808   3.076   5.718   5.368
 9282TIP3   OH227809   3.209   5.794   1.301
 9282TIP3    H127810   3.168   5.707   1.310
 9282TIP3    H227811   3.163   5.848   1.365
 9283TIP3   OH227812   3.857   6.526   4.228
 9283TIP3    H127813   3.772   6.487   4.207
 9283TIP3    H227814   3.860   6.607   4.176
 9284TIP3   OH227815   2.694   4.233   5.616
 9284TIP3    H127816   2.608   4.228   5.658
 9284TIP3    H227817   2.745   4.166   5.660
 9285TIP3   OH227818   0.607   0.944   3.560
 9285TIP3    H127819   0.688   0.976   3.522
 9285TIP3    H227820   0.540   0.966   3.496
 9286TIP3   OH227821   3.864   6.588   4.490
 9286TIP3    H127822   3.851   6.550   4.403
 9286TIP3    H227823   3.789   6.559   4.541
 9287TIP3   OH227824   6.642   6.423   3.416
 9287TIP3    H127825   6.646   6.353   3.350
 9287TIP3    H227826   6.722   6.473   3.402
 9288TIP3   OH227827   5.162   4.969   3.760
 9288TIP3    H127828   5.135   4.878   3.749
 9288TIP3    H227829   5.206   4.972   3.845
 9289TIP3   OH227830   7.046   1.319   4.520
 9289TIP3    H127831   7.128   1.278   4.547
 9289TIP3    H227832   7.006   1.256   4.460
 9290TIP3   OH227833   5.948   5.623   3.831
 9290TIP3    H127834   5.950   5.648   3.923
 9290TIP3    H227835   5.859   5.646   3.802
 9291TIP3   OH227836   3.256   3.068   3.792
 9291TIP3    H127837   3.262   3.014   3.870
 9291TIP3    H227838   3.279   3.156   3.822
 9292TIP3   OH227839   3.417   0.707   4.818
 9292TIP3    H127840   3.468   0.625   4.817
 9292TIP3    H227841   3.342   0.689   4.762
 9293TIP3   OH227842   4.292   0.404   3.285
 9293TIP3    H127843   4.316   0.463   3.357
 9293TIP3    H227844   4.274   0.462   3.212
 9294TIP3   OH227845   3.773   0.403   5.556
 9294TIP3    H127846   3.762   0.494   5.529
 9294TIP3    H227847   3.708   0.391   5.625
 9295TIP3   OH227848   5.173   3.372   2.116
 9295TIP3    H127849   5.162   3.295   2.060
 9295TIP3    H227850   5.153   3.446   2.058
 9296TIP3   OH227851   1.770   0.725   0.867
 9296TIP3    H127852   1.828   0.753   0.938
 9296TIP3    H227853   1.744   0.807   0.823
 9297TIP3   OH227854   2.361   1.472   5.367
 9297TIP3    H127855   2.370   1.563   5.340
 9297TIP3    H227856   2.279   1.443   5.327
 9298TIP3   OH227857   3.473   6.567   1.285
 9298TIP3    H127858   3.527   6.494   1.316
 9298TIP3    H227859   3.509   6.588   1.199
 9299TIP3   OH227860   6.601   6.745   3.038
 9299TIP3    H127861   6.696   6.746   3.051
 9299TIP3    H227862   6.590   6.728   2.945
 9300TIP3   OH227863   6.326   1.078   1.989
 9300TIP3    H127864   6.373   1.157   1.961
 9300TIP3    H227865   6.241   1.084   1.945
 9301TIP3   OH227866   0.786   0.352   1.101
 9301TIP3    H127867   0.761   0.305   1.021
 9301TIP3    H227868   0.704   0.372   1.144
 9302TIP3   OH227869   1.472   5.812   0.547
 9302TIP3    H127870   1.407   5.860   0.496
 9302TIP3    H227871   1.515   5.754   0.483
 9303TIP3   OH227872   6.275   3.522   5.607
 9303TIP3    H127873   6.295   3.478   5.690
 9303TIP3    H227874   6.205   3.469   5.569
 9304TIP3   OH227875   2.024   5.207   2.763
 9304TIP3    H127876   2.005   5.140   2.828
 9304TIP3    H227877   1.942   5.256   2.754
 9305TIP3   OH227878   4.887   0.771   3.481
 9305TIP3    H127879   4.910   0.841   3.420
 9305TIP3    H227880   4.838   0.815   3.551
 9306TIP3   OH227881   5.943   3.392   2.891
 9306TIP3    H127882   5.996   3.350   2.959
 9306TIP3    H227883   5.859   3.409   2.933
 9307TIP3   OH227884   4.202   3.495   4.250
 9307TIP3    H127885   4.154   3.517   4.170
 9307TIP3    H227886   4.158   3.544   4.319
 9308TIP3   OH227887   6.839   2.376   4.870
 9308TIP3    H127888   6.894   2.400   4.946
 9308TIP3    H227889   6.817   2.284   4.884
 9309TIP3   OH227890   6.299   4.741   5.162
 9309TIP3    H127891   6.242   4.814   5.186
 9309TIP3    H227892   6.388   4.777   5.166
 9310TIP3   OH227893   0.957   0.565   0.539
 9310TIP3    H127894   0.873   0.547   0.497
 9310TIP3    H227895   0.950   0.656   0.568
 9311TIP3   OH227896   0.567   6.744   0.499
 9311TIP3    H127897   0.621   6.741   0.578
 9311TIP3    H227898   0.511   6.821   0.511
 9312TIP3   OH227899   5.079   2.050   5.707
 9312TIP3    H127900   5.151   2.097   5.750
 9312TIP3    H227901   5.090   1.959   5.735
 9313TIP3   OH227902   4.756   3.663   2.547
 9313TIP3    H127903   4.751   3.571   2.574
 9313TIP3    H227904   4.678   3.704   2.585
 9314TIP3   OH227905   6.044   4.831   5.520
 9314TIP3    H127906   5.982   4.848   5.449
 9314TIP3    H227907   6.002   4.867   5.598
 9315TIP3   OH227908   5.115   5.974   3.106
 9315TIP3    H127909   5.114   6.009   3.017
 9315TIP3    H227910   5.190   6.017   3.148
 9316TIP3   OH227911   5.415   3.201   0.117
 9316TIP3    H127912   5.322   3.190   0.098
 9316TIP3    H227913   5.440   3.278   0.066
 9317TIP3   OH227914   2.197   2.982   0.027
 9317TIP3    H127915   2.169   3.063   0.070
 9317TIP3    H227916   2.120   2.925   0.033
 9318TIP3   OH227917   2.972   5.075   4.140
 9318TIP3    H127918   2.988   5.141   4.207
 9318TIP3    H227919   3.023   5.104   4.065
 9319TIP3   OH227920   2.197   3.809   3.885
 9319TIP3    H127921   2.113   3.766   3.902
 9319TIP3    H227922   2.262   3.748   3.919
 9320TIP3   OH227923   7.107   0.082   2.622
 9320TIP3    H127924   7.065   0.038   2.549
 9320TIP3    H227925   7.038   0.134   2.662
 9321TIP3   OH227926   0.533   2.452   2.047
 9321TIP3    H127927   0.475   2.504   2.103
 9321TIP3    H227928   0.603   2.422   2.104
 9322TIP3   OH227929   3.777   5.728   3.539
 9322TIP3    H127930   3.847   5.789   3.563
 9322TIP3    H227931   3.785   5.657   3.602
 9323TIP3   OH227932   3.467   3.921   1.834
 9323TIP3    H127933   3.410   3.875   1.896
 9323TIP3    H227934   3.431   3.901   1.748
 9324TIP3   OH227935   0.765   4.181   5.883
 9324TIP3    H127936   0.776   4.087   5.900
 9324TIP3    H227937   0.671   4.195   5.884
 9325TIP3   OH227938   6.433   3.316   2.850
 9325TIP3    H127939   6.488   3.392   2.829
 9325TIP3    H227940   6.344   3.349   2.843
 9326TIP3   OH227941   3.515   3.051   0.606
 9326TIP3    H127942   3.484   3.141   0.600
 9326TIP3    H227943   3.587   3.055   0.669
 9327TIP3   OH227944   1.413   2.103   4.134
 9327TIP3    H127945   1.426   2.048   4.211
 9327TIP3    H227946   1.345   2.165   4.160
 9328TIP3   OH227947   0.363   5.501   0.750
 9328TIP3    H127948   0.394   5.565   0.686
 9328TIP3    H227949   0.317   5.553   0.815
 9329TIP3   OH227950   0.985   5.708   0.780
 9329TIP3    H127951   0.962   5.616   0.790
 9329TIP3    H227952   0.912   5.756   0.819
 9330TIP3   OH227953   5.892   6.435   5.758
 9330TIP3    H127954   5.904   6.384   5.838
 9330TIP3    H227955   5.963   6.407   5.700
 9331TIP3   OH227956   4.954   6.487   0.776
 9331TIP3    H127957   5.042   6.497   0.740
 9331TIP3    H227958   4.965   6.500   0.870
 9332TIP3   OH227959   2.268   4.734   5.140
 9332TIP3    H127960   2.316   4.667   5.189
 9332TIP3    H227961   2.224   4.786   5.207
 9333TIP3   OH227962   3.930   5.014   1.142
 9333TIP3    H127963   3.871   5.013   1.218
 9333TIP3    H227964   3.886   5.070   1.078
 9334TIP3   OH227965   2.281   1.045   4.256
 9334TIP3    H127966   2.223   1.100   4.308
 9334TIP3    H227967   2.365   1.048   4.302
 9335TIP3   OH227968   1.933   1.349   5.529
 9335TIP3    H127969   1.999   1.331   5.462
 9335TIP3    H227970   1.944   1.280   5.594
 9336TIP3   OH227971   0.172   5.467   0.472
 9336TIP3    H127972   0.184   5.538   0.535
 9336TIP3    H227973   0.082   5.479   0.441
 9337TIP3   OH227974   2.569   3.148   5.477
 9337TIP3    H127975   2.486   3.134   5.430
 9337TIP3    H227976   2.557   3.233   5.521
 9338TIP3   OH227977   2.816   0.196   2.987
 9338TIP3    H127978   2.735   0.175   3.033
 9338TIP3    H227979   2.876   0.223   3.057
 9339TIP3   OH227980   0.146   5.455   4.872
 9339TIP3    H127981   0.223   5.464   4.815
 9339TIP3    H227982   0.179   5.476   4.960
 9340TIP3   OH227983   7.124   5.442   0.451
 9340TIP3    H127984   7.110   5.491   0.532
 9340TIP3    H227985   7.036   5.425   0.418
 9341TIP3   OH227986   2.064   2.143   2.592
 9341TIP3    H127987   2.146   2.151   2.543
 9341TIP3    H227988   1.996   2.146   2.524
 9342TIP3   OH227989   6.222   1.280   0.808
 9342TIP3    H127990   6.178   1.231   0.877
 9342TIP3    H227991   6.225   1.220   0.734
 9343TIP3   OH227992   0.847   6.772   3.239
 9343TIP3    H127993   0.907   6.697   3.232
 9343TIP3    H227994   0.760   6.732   3.248
 9344TIP3   OH227995   4.386   1.796   4.803
 9344TIP3    H127996   4.438   1.876   4.808
 9344TIP3    H227997   4.328   1.810   4.728
 9345TIP3   OH227998   4.439   0.797   1.079
 9345TIP3    H127999   4.388   0.722   1.050
 9345TIP3    H228000   4.451   0.849   0.999
 9346TIP3   OH228001   1.962   4.258   3.590
 9346TIP3    H128002   2.037   4.303   3.549
 9346TIP3    H228003   1.955   4.175   3.542
 9347TIP3   OH228004   1.058   3.824   4.871
 9347TIP3    H128005   0.983   3.790   4.822
 9347TIP3    H228006   1.045   3.919   4.872
 9348TIP3   OH228007   1.418   6.478   4.162
 9348TIP3    H128008   1.415   6.525   4.245
 9348TIP3    H228009   1.509   6.487   4.133
 9349TIP3   OH228010   2.889   4.646   0.675
 9349TIP3    H128011   2.841   4.598   0.742
 9349TIP3    H228012   2.852   4.615   0.592
 9350TIP3   OH228013   2.417   0.941   2.796
 9350TIP3    H128014   2.375   0.996   2.863
 9350TIP3    H228015   2.459   0.871   2.846
 9351TIP3   OH228016   3.188   4.094   1.825
 9351TIP3    H128017   3.123   4.153   1.862
 9351TIP3    H228018   3.226   4.049   1.901
 9352TIP3   OH228019   0.845   0.259   2.148
 9352TIP3    H128020   0.884   0.188   2.198
 9352TIP3    H228021   0.897   0.336   2.171
 9353TIP3   OH228022   1.703   3.762   5.330
 9353TIP3    H128023   1.629   3.767   5.391
 9353TIP3    H228024   1.749   3.845   5.342
 9354TIP3   OH228025   6.337   5.764   4.651
 9354TIP3    H128026   6.293   5.791   4.732
 9354TIP3    H228027   6.296   5.680   4.629
 9355TIP3   OH228028   6.840   3.887   1.094
 9355TIP3    H128029   6.791   3.969   1.103
 9355TIP3    H228030   6.811   3.834   1.168
 9356TIP3   OH228031   4.714   0.436   5.635
 9356TIP3    H128032   4.629   0.405   5.665
 9356TIP3    H228033   4.764   0.449   5.716
 9357TIP3   OH228034   5.345   1.775   4.854
 9357TIP3    H128035   5.285   1.783   4.779
 9357TIP3    H228036   5.292   1.734   4.923
 9358TIP3   OH228037   1.633   4.776   0.231
 9358TIP3    H128038   1.625   4.841   0.301
 9358TIP3    H228039   1.664   4.826   0.155
 9359TIP3   OH228040   3.344   3.063   4.339
 9359TIP3    H128041   3.256   3.092   4.364
 9359TIP3    H228042   3.332   2.972   4.313
 9360TIP3   OH228043   4.294   0.642   5.511
 9360TIP3    H128044   4.313   0.652   5.418
 9360TIP3    H228045   4.209   0.599   5.514
 9361TIP3   OH228046   5.616   5.363   3.767
 9361TIP3    H128047   5.547   5.392   3.708
 9361TIP3    H228048   5.626   5.269   3.749
 9362TIP3   OH228049   5.449   3.136   1.428
 9362TIP3    H128050   5.399   3.132   1.510
 9362TIP3    H228051   5.401   3.077   1.369
 9363TIP3   OH228052   6.829   2.659   2.129
 9363TIP3    H128053   6.833   2.582   2.073
 9363TIP3    H228054   6.786   2.629   2.209
 9364TIP3   OH228055   3.153   4.076   2.920
 9364TIP3    H128056   3.091   4.063   2.849
 9364TIP3    H228057   3.102   4.065   3.000
 9365TIP3   OH228058   5.808   6.389   2.092
 9365TIP3    H128059   5.797   6.299   2.122
 9365TIP3    H228060   5.745   6.439   2.143
 9366TIP3   OH228061   5.146   0.622   1.976
 9366TIP3    H128062   5.212   0.680   1.938
 9366TIP3    H228063   5.152   0.637   2.070
 9367TIP3   OH228064   3.889   2.493   2.147
 9367TIP3    H128065   3.969   2.545   2.151
 9367TIP3    H228066   3.850   2.515   2.063
 9368TIP3   OH228067   2.683   2.961   5.276
 9368TIP3    H128068   2.638   2.946   5.192
 9368TIP3    H228069   2.625   3.019   5.324
 9369TIP3   OH228070   3.163   5.631   2.389
 9369TIP3    H128071   3.147   5.608   2.297
 9369TIP3    H228072   3.130   5.720   2.397
 9370TIP3   OH228073   0.777   6.405   5.365
 9370TIP3    H128074   0.834   6.379   5.292
 9370TIP3    H228075   0.832   6.395   5.443
 9371TIP3   OH228076   3.800   0.534   4.075
 9371TIP3    H128077   3.862   0.580   4.131
 9371TIP3    H228078   3.821   0.562   3.986
 9372TIP3   OH228079   4.177   0.923   5.816
 9372TIP3    H128080   4.258   0.916   5.867
 9372TIP3    H228081   4.172   1.015   5.790
 9373TIP3   OH228082   3.695   3.717   4.602
 9373TIP3    H128083   3.747   3.796   4.587
 9373TIP3    H228084   3.758   3.651   4.631
 9374TIP3   OH228085   1.652   1.508   4.543
 9374TIP3    H128086   1.579   1.464   4.586
 9374TIP3    H228087   1.695   1.557   4.613
 9375TIP3   OH228088   0.766   3.398   3.688
 9375TIP3    H128089   0.766   3.452   3.767
 9375TIP3    H228090   0.846   3.345   3.695
 9376TIP3   OH228091   0.504   4.333   2.126
 9376TIP3    H128092   0.519   4.389   2.201
 9376TIP3    H228093   0.424   4.285   2.148
 9377TIP3   OH228094   5.496   5.626   1.182
 9377TIP3    H128095   5.572   5.584   1.224
 9377TIP3    H228096   5.535   5.685   1.117
 9378TIP3   OH228097   2.527   1.439   3.492
 9378TIP3    H128098   2.481   1.357   3.507
 9378TIP3    H228099   2.517   1.488   3.574
 9379TIP3   OH228100   6.974   4.777   3.238
 9379TIP3    H128101   7.016   4.691   3.244
 9379TIP3    H228102   6.996   4.820   3.321
 9380TIP3   OH228103   5.270   2.238   5.770
 9380TIP3    H128104   5.246   2.320   5.812
 9380TIP3    H228105   5.364   2.229   5.786
 9381TIP3   OH228106   2.268   2.916   4.988
 9381TIP3    H128107   2.227   2.832   4.968
 9381TIP3    H228108   2.310   2.942   4.906
 9382TIP3   OH228109   3.814   0.206   3.606
 9382TIP3    H128110   3.891   0.212   3.549
 9382TIP3    H228111   3.740   0.196   3.546
 9383TIP3   OH228112   7.133   2.185   5.849
 9383TIP3    H128113   7.207   2.226   5.805
 9383TIP3    H228114   7.124   2.100   5.806
 9384TIP3   OH228115   4.311   0.893   3.687
 9384TIP3    H128116   4.244   0.827   3.704
 9384TIP3    H228117   4.391   0.857   3.724
 9385TIP3   OH228118   3.395   6.379   4.384
 9385TIP3    H128119   3.483   6.347   4.403
 9385TIP3    H228120   3.359   6.401   4.470
 9386TIP3   OH228121   2.422   1.284   0.543
 9386TIP3    H128122   2.379   1.334   0.612
 9386TIP3    H228123   2.395   1.193   0.559
 9387TIP3   OH228124   3.586   0.193   2.399
 9387TIP3    H128125   3.581   0.230   2.487
 9387TIP3    H228126   3.678   0.168   2.388
 9388TIP3   OH228127   0.803   2.494   1.453
 9388TIP3    H128128   0.831   2.403   1.455
 9388TIP3    H228129   0.882   2.544   1.432
 9389TIP3   OH228130   3.126   5.512   4.417
 9389TIP3    H128131   3.150   5.571   4.345
 9389TIP3    H228132   3.172   5.547   4.493
 9390TIP3   OH228133   5.379   2.708   1.659
 9390TIP3    H128134   5.388   2.721   1.565
 9390TIP3    H228135   5.312   2.772   1.686
 9391TIP3   OH228136   5.154   5.834   5.355
 9391TIP3    H128137   5.171   5.740   5.365
 9391TIP3    H228138   5.238   5.876   5.373
 9392TIP3   OH228139   6.442   2.892   4.219
 9392TIP3    H128140   6.482   2.942   4.148
 9392TIP3    H228141   6.497   2.911   4.295
 9393TIP3   OH228142   0.546   5.393   0.103
 9393TIP3    H128143   0.595   5.469   0.069
 9393TIP3    H228144   0.506   5.425   0.184
 9394TIP3   OH228145   6.179   2.216   2.238
 9394TIP3    H128146   6.204   2.249   2.324
 9394TIP3    H228147   6.085   2.233   2.231
 9395TIP3   OH228148   3.922   2.929   2.068
 9395TIP3    H128149   3.977   2.913   2.145
 9395TIP3    H228150   3.846   2.873   2.082
 9396TIP3   OH228151   1.244   1.660   5.250
 9396TIP3    H128152   1.281   1.600   5.314
 9396TIP3    H228153   1.288   1.636   5.168
 9397TIP3   OH228154   1.569   4.869   5.852
 9397TIP3    H128155   1.579   4.774   5.866
 9397TIP3    H228156   1.484   4.889   5.892
 9398TIP3   OH228157   1.971   4.213   0.048
 9398TIP3    H128158   1.991   4.148  -0.020
 9398TIP3    H228159   1.931   4.286   0.000
 9399TIP3   OH228160   6.916   5.212   3.583
 9399TIP3    H128161   6.974   5.188   3.654
 9399TIP3    H228162   6.931   5.306   3.570
 9400TIP3   OH228163   5.731   5.332   4.236
 9400TIP3    H128164   5.781   5.357   4.158
 9400TIP3    H228165   5.791   5.349   4.309
 9401TIP3   OH228166   4.378   6.346   2.830
 9401TIP3    H128167   4.326   6.303   2.898
 9401TIP3    H228168   4.456   6.378   2.875
 9402TIP3   OH228169   0.509   5.434   1.687
 9402TIP3    H128170   0.577   5.493   1.721
 9402TIP3    H228171   0.427   5.477   1.709
 9403TIP3   OH228172   5.851   6.676   0.997
 9403TIP3    H128173   5.757   6.691   0.989
 9403TIP3    H228174   5.863   6.586   0.967
 9404TIP3   OH228175   5.532   6.679   1.830
 9404TIP3    H128176   5.476   6.730   1.889
 9404TIP3    H228177   5.481   6.601   1.810
 9405TIP3   OH228178   1.613   3.428   2.151
 9405TIP3    H128179   1.544   3.400   2.090
 9405TIP3    H228180   1.571   3.494   2.206
 9406TIP3   OH228181   5.409   5.630   1.584
 9406TIP3    H128182   5.346   5.699   1.603
 9406TIP3    H228183   5.491   5.677   1.567
 9407TIP3   OH228184   1.688   6.395   4.038
 9407TIP3    H128185   1.721   6.447   3.965
 9407TIP3    H228186   1.692   6.305   4.008
 9408TIP3   OH228187  -0.011   4.638   4.504
 9408TIP3    H128188   0.078   4.668   4.488
 9408TIP3    H228189  -0.054   4.643   4.419
 9409TIP3   OH228190   4.207   0.359   5.872
 9409TIP3    H128191   4.268   0.412   5.820
 9409TIP3    H228192   4.261   0.286   5.903
 9410TIP3   OH228193   3.573   0.478   2.952
 9410TIP3    H128194   3.529   0.539   2.893
 9410TIP3    H228195   3.506   0.456   3.018
 9411TIP3   OH228196   4.073   4.234   1.752
 9411TIP3    H128197   4.089   4.328   1.762
 9411TIP3    H228198   4.141   4.192   1.806
 9412TIP3   OH228199   0.132   4.363   3.566
 9412TIP3    H128200   0.039   4.342   3.561
 9412TIP3    H228201   0.140   4.417   3.645
 9413TIP3   OH228202   1.892   1.202   5.052
 9413TIP3    H128203   1.800   1.207   5.078
 9413TIP3    H228204   1.897   1.251   4.970
 9414TIP3   OH228205   0.265   4.545   0.403
 9414TIP3    H128206   0.296   4.479   0.466
 9414TIP3    H228207   0.170   4.543   0.412
 9415TIP3   OH228208   5.045   2.622   1.846
 9415TIP3    H128209   5.070   2.701   1.798
 9415TIP3    H228210   5.060   2.644   1.938
 9416TIP3   OH228211   1.200   1.119   3.994
 9416TIP3    H128212   1.206   1.172   4.074
 9416TIP3    H228213   1.268   1.153   3.937
 9417TIP3   OH228214   2.717   1.541   1.569
 9417TIP3    H128215   2.740   1.449   1.555
 9417TIP3    H228216   2.638   1.537   1.623
 9418TIP3   OH228217   3.327   4.755   0.856
 9418TIP3    H128218   3.255   4.775   0.917
 9418TIP3    H228219   3.361   4.671   0.889
 9419TIP3   OH228220   7.088   1.113   0.177
 9419TIP3    H128221   7.145   1.062   0.234
 9419TIP3    H228222   7.018   1.053   0.151
 9420TIP3   OH228223   6.437   6.297   0.693
 9420TIP3    H128224   6.354   6.302   0.646
 9420TIP3    H228225   6.482   6.378   0.672
 9421TIP3   OH228226   4.591   6.661   4.510
 9421TIP3    H128227   4.663   6.723   4.521
 9421TIP3    H228228   4.524   6.692   4.571
 9422TIP3   OH228229   1.396   0.756   1.437
 9422TIP3    H128230   1.333   0.762   1.365
 9422TIP3    H228231   1.468   0.814   1.411
 9423TIP3   OH228232   4.210   3.385   3.421
 9423TIP3    H128233   4.212   3.480   3.417
 9423TIP3    H228234   4.191   3.357   3.332
 9424TIP3   OH228235   5.784   2.309   2.291
 9424TIP3    H128236   5.756   2.255   2.217
 9424TIP3    H228237   5.702   2.336   2.333
 9425TIP3   OH228238   0.202   1.634   0.102
 9425TIP3    H128239   0.239   1.602   0.020
 9425TIP3    H228240   0.138   1.700   0.074
 9426TIP3   OH228241   5.261   4.767   5.408
 9426TIP3    H128242   5.182   4.821   5.412
 9426TIP3    H228243   5.288   4.770   5.316
 9427TIP3   OH228244   6.459   3.083   2.003
 9427TIP3    H128245   6.387   3.094   2.065
 9427TIP3    H228246   6.438   3.142   1.931
 9428TIP3   OH228247   2.689   2.959   3.970
 9428TIP3    H128248   2.660   2.878   3.929
 9428TIP3    H228249   2.610   3.014   3.973
 9429TIP3   OH228250   3.208   6.216   1.624
 9429TIP3    H128251   3.293   6.259   1.637
 9429TIP3    H228252   3.159   6.236   1.704
 9430TIP3   OH228253   3.087   6.513   3.999
 9430TIP3    H128254   3.004   6.512   4.046
 9430TIP3    H228255   3.094   6.602   3.964
 9431TIP3   OH228256   6.149   6.309   5.668
 9431TIP3    H128257   6.238   6.313   5.633
 9431TIP3    H228258   6.161   6.300   5.763
 9432TIP3   OH228259   5.072   5.240   5.643
 9432TIP3    H128260   5.103   5.325   5.675
 9432TIP3    H228261   5.009   5.211   5.709
 9433TIP3   OH228262   4.975   3.627   4.492
 9433TIP3    H128263   4.904   3.571   4.462
 9433TIP3    H228264   5.054   3.573   4.487
 9434TIP3   OH228265   4.117   4.998   3.781
 9434TIP3    H128266   4.143   5.084   3.814
 9434TIP3    H228267   4.071   4.956   3.854
 9435TIP3   OH228268   0.981   0.234   2.785
 9435TIP3    H128269   0.986   0.151   2.738
 9435TIP3    H228270   1.006   0.213   2.875
 9436TIP3   OH228271   2.054   0.317   2.038
 9436TIP3    H128272   2.126   0.262   2.008
 9436TIP3    H228273   2.033   0.373   1.963
 9437TIP3   OH228274   5.195   5.735   2.153
 9437TIP3    H128275   5.223   5.655   2.109
 9437TIP3    H228276   5.243   5.735   2.236
 9438TIP3   OH228277   0.997   1.087   2.637
 9438TIP3    H128278   1.023   1.053   2.722
 9438TIP3    H228279   1.001   1.011   2.579
 9439TIP3   OH228280   2.396   6.644   2.440
 9439TIP3    H128281   2.398   6.555   2.406
 9439TIP3    H228282   2.311   6.679   2.412
 9440TIP3   OH228283   1.312   2.253   5.052
 9440TIP3    H128284   1.338   2.296   5.134
 9440TIP3    H228285   1.253   2.183   5.080
 9441TIP3   OH228286   4.442   0.504   2.176
 9441TIP3    H128287   4.530   0.520   2.210
 9441TIP3    H228288   4.435   0.562   2.100
 9442TIP3   OH228289   1.819   5.061   4.946
 9442TIP3    H128290   1.853   4.990   4.892
 9442TIP3    H228291   1.799   5.131   4.884
 9443TIP3   OH228292   5.732   0.755   0.610
 9443TIP3    H128293   5.659   0.732   0.667
 9443TIP3    H228294   5.785   0.816   0.662
 9444TIP3   OH228295   4.304   3.093   4.707
 9444TIP3    H128296   4.224   3.135   4.675
 9444TIP3    H228297   4.373   3.157   4.692
 9445TIP3   OH228298   4.104   3.715   3.339
 9445TIP3    H128299   4.150   3.678   3.264
 9445TIP3    H228300   4.011   3.703   3.317
 9446TIP3   OH228301   5.651   2.719   2.294
 9446TIP3    H128302   5.576   2.689   2.346
 9446TIP3    H228303   5.686   2.794   2.343
 9447TIP3   OH228304   7.091   6.228   1.475
 9447TIP3    H128305   7.091   6.318   1.505
 9447TIP3    H228306   7.000   6.211   1.450
 9448TIP3   OH228307   1.863   4.472   4.217
 9448TIP3    H128308   1.776   4.453   4.252
 9448TIP3    H228309   1.919   4.401   4.249
 9449TIP3   OH228310   3.779   1.426   4.806
 9449TIP3    H128311   3.740   1.510   4.831
 9449TIP3    H228312   3.729   1.361   4.855
 9450TIP3   OH228313   0.569   0.956   5.135
 9450TIP3    H128314   0.614   0.950   5.051
 9450TIP3    H228315   0.540   1.047   5.141
 9451TIP3   OH228316   5.740   1.565   2.925
 9451TIP3    H128317   5.768   1.646   2.968
 9451TIP3    H228318   5.811   1.503   2.942
 9452TIP3   OH228319   3.430   2.819   3.627
 9452TIP3    H128320   3.439   2.902   3.582
 9452TIP3    H228321   3.336   2.802   3.629
 9453TIP3   OH228322   5.929   2.491   3.534
 9453TIP3    H128323   5.873   2.417   3.560
 9453TIP3    H228324   5.899   2.564   3.589
 9454TIP3   OH228325   6.211   5.560   4.982
 9454TIP3    H128326   6.287   5.602   5.022
 9454TIP3    H228327   6.241   5.536   4.894
 9455TIP3   OH228328   1.684   4.187   1.222
 9455TIP3    H128329   1.666   4.230   1.306
 9455TIP3    H228330   1.689   4.094   1.244
 9456TIP3   OH228331   2.245   0.417   2.299
 9456TIP3    H128332   2.160   0.442   2.262
 9456TIP3    H228333   2.284   0.360   2.233
 9457TIP3   OH228334   5.056   1.959   1.454
 9457TIP3    H128335   4.965   1.985   1.470
 9457TIP3    H228336   5.057   1.928   1.364
 9458TIP3   OH228337   3.293   2.550   1.648
 9458TIP3    H128338   3.299   2.624   1.707
 9458TIP3    H228339   3.334   2.580   1.567
 9459TIP3   OH228340   3.367   6.408   3.818
 9459TIP3    H128341   3.324   6.475   3.765
 9459TIP3    H228342   3.370   6.446   3.906
 9460TIP3   OH228343   2.882   4.547   5.200
 9460TIP3    H128344   2.929   4.507   5.127
 9460TIP3    H228345   2.924   4.631   5.214
 9461TIP3   OH228346   5.874   3.713   1.029
 9461TIP3    H128347   5.791   3.722   0.983
 9461TIP3    H228348   5.854   3.730   1.121
 9462TIP3   OH228349   2.772   4.460   1.568
 9462TIP3    H128350   2.864   4.487   1.560
 9462TIP3    H228351   2.760   4.444   1.661
 9463TIP3   OH228352   4.179   2.145   5.440
 9463TIP3    H128353   4.157   2.112   5.353
 9463TIP3    H228354   4.189   2.067   5.494
 9464TIP3   OH228355   3.745   2.479   4.133
 9464TIP3    H128356   3.821   2.534   4.148
 9464TIP3    H228357   3.731   2.483   4.038
 9465TIP3   OH228358   0.795   1.319   2.097
 9465TIP3    H128359   0.836   1.259   2.035
 9465TIP3    H228360   0.791   1.269   2.179
 9466TIP3   OH228361   1.759   6.037   3.620
 9466TIP3    H128362   1.715   5.954   3.633
 9466TIP3    H228363   1.710   6.100   3.673
 9467TIP3   OH228364   2.424   2.522   3.711
 9467TIP3    H128365   2.336   2.557   3.697
 9467TIP3    H228366   2.452   2.493   3.624
 9468TIP3   OH228367   3.393   5.394   5.166
 9468TIP3    H128368   3.372   5.302   5.182
 9468TIP3    H228369   3.412   5.430   5.253
 9469TIP3   OH228370   6.368   5.906   1.068
 9469TIP3    H128371   6.430   5.854   1.018
 9469TIP3    H228372   6.291   5.850   1.078
 9470TIP3   OH228373   3.332   6.427   5.571
 9470TIP3    H128374   3.395   6.364   5.606
 9470TIP3    H228375   3.383   6.483   5.512
 9471TIP3   OH228376   1.100   0.059   3.473
 9471TIP3    H128377   1.095   0.104   3.388
 9471TIP3    H228378   1.016   0.080   3.515
 9472TIP3   OH228379   4.941   0.324   2.284
 9472TIP3    H128380   5.022   0.294   2.243
 9472TIP3    H228381   4.964   0.336   2.377
 9473TIP3   OH228382   0.440   2.991   3.439
 9473TIP3    H128383   0.393   3.068   3.410
 9473TIP3    H228384   0.508   3.025   3.498
 9474TIP3   OH228385   3.793   3.673   3.088
 9474TIP3    H128386   3.775   3.602   3.150
 9474TIP3    H228387   3.793   3.752   3.141
 9475TIP3   OH228388   0.603   3.546   5.000
 9475TIP3    H128389   0.637   3.499   5.076
 9475TIP3    H228390   0.670   3.610   4.979
 9476TIP3   OH228391   3.021   6.750   1.152
 9476TIP3    H128392   3.003   6.831   1.199
 9476TIP3    H228393   3.072   6.697   1.214
 9477TIP3   OH228394   0.973   4.873   5.391
 9477TIP3    H128395   0.909   4.866   5.321
 9477TIP3    H228396   0.977   4.786   5.430
 9478TIP3   OH228397   2.263   5.917   1.527
 9478TIP3    H128398   2.323   5.951   1.592
 9478TIP3    H228399   2.220   5.994   1.491
 9479TIP3   OH228400   3.835   1.404   1.765
 9479TIP3    H128401   3.848   1.495   1.791
 9479TIP3    H228402   3.915   1.380   1.719
 9480TIP3   OH228403   3.997   6.213   3.352
 9480TIP3    H128404   3.922   6.175   3.397
 9480TIP3    H228405   3.986   6.308   3.364
 9481TIP3   OH228406   5.868   5.877   5.279
 9481TIP3    H128407   5.774   5.893   5.289
 9481TIP3    H228408   5.909   5.939   5.339
 9482TIP3   OH228409   6.619   5.956   4.339
 9482TIP3    H128410   6.584   5.873   4.306
 9482TIP3    H228411   6.622   6.012   4.261
 9483TIP3   OH228412   1.709   6.167   4.365
 9483TIP3    H128413   1.719   6.072   4.367
 9483TIP3    H228414   1.728   6.195   4.455
 9484TIP3   OH228415   0.028   3.047   0.643
 9484TIP3    H128416   0.027   2.957   0.609
 9484TIP3    H228417   0.097   3.047   0.709
 9485TIP3   OH228418   3.489   3.853   0.116
 9485TIP3    H128419   3.478   3.913   0.043
 9485TIP3    H228420   3.566   3.800   0.092
 9486TIP3   OH228421   6.309   4.680   4.675
 9486TIP3    H128422   6.347   4.606   4.628
 9486TIP3    H228423   6.237   4.709   4.618
 9487TIP3   OH228424   6.369   2.409   4.697
 9487TIP3    H128425   6.282   2.373   4.711
 9487TIP3    H228426   6.422   2.335   4.668
 9488TIP3   OH228427   2.817   5.854   2.143
 9488TIP3    H128428   2.757   5.790   2.180
 9488TIP3    H228429   2.776   5.882   2.062
 9489TIP3   OH228430   4.973   5.821   5.818
 9489TIP3    H128431   4.906   5.886   5.796
 9489TIP3    H228432   4.923   5.740   5.832
 9490TIP3   OH228433   6.570   3.519   0.359
 9490TIP3    H128434   6.611   3.543   0.443
 9490TIP3    H228435   6.479   3.546   0.369
 9491TIP3   OH228436   2.225   6.280   5.818
 9491TIP3    H128437   2.175   6.204   5.786
 9491TIP3    H228438   2.309   6.243   5.846
 9492TIP3   OH228439   3.048   1.565   5.589
 9492TIP3    H128440   3.016   1.628   5.525
 9492TIP3    H228441   3.024   1.603   5.674
 9493TIP3   OH228442   2.303   1.626   1.507
 9493TIP3    H128443   2.322   1.716   1.533
 9493TIP3    H228444   2.374   1.574   1.544
 9494TIP3   OH228445   2.419   3.390   4.471
 9494TIP3    H128446   2.461   3.431   4.547
 9494TIP3    H228447   2.491   3.349   4.423
 9495TIP3   OH228448   5.121   2.088   0.891
 9495TIP3    H128449   5.181   2.136   0.834
 9495TIP3    H228450   5.138   2.123   0.978
 9496TIP3   OH228451   3.580   6.089   0.392
 9496TIP3    H128452   3.553   6.170   0.435
 9496TIP3    H228453   3.577   6.023   0.461
 9497TIP3   OH228454   6.039   3.462   1.032
 9497TIP3    H128455   6.073   3.472   1.121
 9497TIP3    H228456   5.998   3.545   1.011
 9498TIP3   OH228457   2.395   0.822   5.511
 9498TIP3    H128458   2.453   0.747   5.499
 9498TIP3    H228459   2.341   0.824   5.432
 9499TIP3   OH228460   0.476   4.360   3.615
 9499TIP3    H128461   0.381   4.355   3.627
 9499TIP3    H228462   0.502   4.270   3.596
 9500TIP3   OH228463   4.216   0.159   4.960
 9500TIP3    H128464   4.175   0.145   5.046
 9500TIP3    H228465   4.144   0.186   4.903
 9501TIP3   OH228466   2.447   5.082   0.032
 9501TIP3    H128467   2.444   5.070  -0.063
 9501TIP3    H228468   2.530   5.127   0.049
 9502TIP3   OH228469   2.862   0.912   3.286
 9502TIP3    H128470   2.902   0.892   3.371
 9502TIP3    H228471   2.886   1.003   3.269
 9503TIP3   OH228472   3.301   1.217   0.954
 9503TIP3    H128473   3.223   1.242   0.904
 9503TIP3    H228474   3.312   1.124   0.938
 9504TIP3   OH228475   2.640   3.050   0.537
 9504TIP3    H128476   2.619   2.973   0.591
 9504TIP3    H228477   2.574   3.048   0.467
 9505TIP3   OH228478   1.221   6.243   2.028
 9505TIP3    H128479   1.159   6.202   2.089
 9505TIP3    H228480   1.174   6.245   1.945
 9506TIP3   OH228481   0.366   1.756   5.534
 9506TIP3    H128482   0.432   1.788   5.473
 9506TIP3    H228483   0.283   1.766   5.487
 9507TIP3   OH228484   3.380   2.256   0.149
 9507TIP3    H128485   3.432   2.261   0.229
 9507TIP3    H228486   3.290   2.273   0.177
 9508TIP3   OH228487   1.888   1.106   3.911
 9508TIP3    H128488   1.953   1.046   3.949
 9508TIP3    H228489   1.816   1.105   3.974
 9509TIP3   OH228490   0.639   1.476   2.431
 9509TIP3    H128491   0.647   1.381   2.443
 9509TIP3    H228492   0.575   1.485   2.360
 9510TIP3   OH228493   1.166   1.244   3.463
 9510TIP3    H128494   1.200   1.273   3.378
 9510TIP3    H228495   1.073   1.268   3.462
 9511TIP3   OH228496   5.927   4.986   4.419
 9511TIP3    H128497   5.858   4.923   4.439
 9511TIP3    H228498   5.881   5.069   4.404
 9512TIP3   OH228499   6.288   1.678   2.371
 9512TIP3    H128500   6.274   1.690   2.277
 9512TIP3    H228501   6.332   1.758   2.399
 9513TIP3   OH228502   6.802   3.163   2.824
 9513TIP3    H128503   6.882   3.158   2.771
 9513TIP3    H228504   6.824   3.115   2.904
 9514TIP3   OH228505   0.918   1.597   0.376
 9514TIP3    H128506   0.955   1.549   0.450
 9514TIP3    H228507   0.988   1.657   0.349
 9515TIP3   OH228508   6.925  -0.002   0.899
 9515TIP3    H128509   7.018   0.007   0.921
 9515TIP3    H228510   6.902   0.081   0.857
 9516TIP3   OH228511   5.697   0.632   2.457
 9516TIP3    H128512   5.784   0.627   2.418
 9516TIP3    H228513   5.714   0.657   2.548
 9517TIP3   OH228514   5.010   5.029   1.201
 9517TIP3    H128515   4.979   5.089   1.132
 9517TIP3    H228516   5.015   4.944   1.158
 9518TIP3   OH228517   6.015   5.998   4.151
 9518TIP3    H128518   6.101   6.032   4.177
 9518TIP3    H228519   5.962   6.077   4.138
 9519TIP3   OH228520   4.893   2.122   0.499
 9519TIP3    H128521   4.986   2.124   0.478
 9519TIP3    H228522   4.889   2.143   0.592
 9520TIP3   OH228523   4.179   6.284   4.861
 9520TIP3    H128524   4.248   6.218   4.870
 9520TIP3    H228525   4.206   6.336   4.785
 9521TIP3   OH228526   7.111   5.590   1.508
 9521TIP3    H128527   7.158   5.654   1.453
 9521TIP3    H228528   7.077   5.526   1.445
 9522TIP3   OH228529   1.026   3.338   5.695
 9522TIP3    H128530   0.973   3.336   5.774
 9522TIP3    H228531   1.089   3.408   5.710
 9523TIP3   OH228532   2.471   1.213   1.985
 9523TIP3    H128533   2.417   1.156   1.929
 9523TIP3    H228534   2.540   1.244   1.927
 9524TIP3   OH228535   4.840   5.552   1.326
 9524TIP3    H128536   4.807   5.484   1.385
 9524TIP3    H228537   4.908   5.509   1.275
 9525TIP3   OH228538   2.318   3.909   1.336
 9525TIP3    H128539   2.334   3.821   1.302
 9525TIP3    H228540   2.381   3.919   1.408
 9526TIP3   OH228541   6.195   5.851   5.526
 9526TIP3    H128542   6.102   5.876   5.528
 9526TIP3    H228543   6.228   5.891   5.446
 9527TIP3   OH228544   3.730   4.551   5.525
 9527TIP3    H128545   3.821   4.569   5.551
 9527TIP3    H228546   3.704   4.477   5.580
 9528TIP3   OH228547   4.693   3.579   2.030
 9528TIP3    H128548   4.638   3.519   2.080
 9528TIP3    H228549   4.721   3.528   1.954
 9529TIP3   OH228550   6.714   0.851   0.790
 9529TIP3    H128551   6.772   0.777   0.805
 9529TIP3    H228552   6.633   0.812   0.758
 9530TIP3   OH228553   0.906   4.972   4.256
 9530TIP3    H128554   0.977   4.908   4.254
 9530TIP3    H228555   0.894   4.991   4.349
 9531TIP3   OH228556   1.331   6.417   3.906
 9531TIP3    H128557   1.244   6.379   3.920
 9531TIP3    H228558   1.369   6.422   3.994
 9532TIP3   OH228559   4.244   3.201   5.661
 9532TIP3    H128560   4.171   3.140   5.674
 9532TIP3    H228561   4.201   3.286   5.651
 9533TIP3   OH228562   4.336   5.593   3.553
 9533TIP3    H128563   4.366   5.506   3.577
 9533TIP3    H228564   4.417   5.644   3.540
 9534TIP3   OH228565   2.782   5.319   2.692
 9534TIP3    H128566   2.814   5.305   2.782
 9534TIP3    H228567   2.702   5.371   2.703
 9535TIP3   OH228568   4.800   2.787   5.169
 9535TIP3    H128569   4.827   2.854   5.232
 9535TIP3    H228570   4.875   2.778   5.110
 9536TIP3   OH228571   4.512   1.233   4.561
 9536TIP3    H128572   4.585   1.289   4.534
 9536TIP3    H228573   4.475   1.276   4.638
 9537TIP3   OH228574   0.208   4.507   4.831
 9537TIP3    H128575   0.127   4.557   4.846
 9537TIP3    H228576   0.179   4.425   4.791
 9538TIP3   OH228577   4.009   3.188   0.227
 9538TIP3    H128578   3.937   3.125   0.232
 9538TIP3    H228579   4.070   3.161   0.297
 9539TIP3   OH228580   4.356   4.612   2.101
 9539TIP3    H128581   4.352   4.517   2.103
 9539TIP3    H228582   4.288   4.638   2.038
 9540TIP3   OH228583   3.804   0.477   2.666
 9540TIP3    H128584   3.723   0.526   2.685
 9540TIP3    H228585   3.818   0.490   2.572
 9541TIP3   OH228586   2.456   1.753   1.910
 9541TIP3    H128587   2.367   1.717   1.899
 9541TIP3    H228588   2.458   1.828   1.851
 9542TIP3   OH228589   7.107   0.415   4.802
 9542TIP3    H128590   7.198   0.429   4.773
 9542TIP3    H228591   7.100   0.465   4.883
 9543TIP3   OH228592   2.614   5.149   4.137
 9543TIP3    H128593   2.613   5.054   4.148
 9543TIP3    H228594   2.676   5.164   4.066
 9544TIP3   OH228595   1.858   4.441   5.752
 9544TIP3    H128596   1.848   4.507   5.820
 9544TIP3    H228597   1.943   4.460   5.712
 9545TIP3   OH228598   4.164   6.191   3.928
 9545TIP3    H128599   4.136   6.273   3.887
 9545TIP3    H228600   4.125   6.122   3.875
 9546TIP3   OH228601   5.734   0.785   4.990
 9546TIP3    H128602   5.777   0.800   5.074
 9546TIP3    H228603   5.678   0.709   5.004
 9547TIP3   OH228604   1.804   6.519   1.343
 9547TIP3    H128605   1.808   6.594   1.403
 9547TIP3    H228606   1.791   6.559   1.256
 9548TIP3   OH228607   3.859   4.507   5.846
 9548TIP3    H128608   3.825   4.581   5.796
 9548TIP3    H228609   3.806   4.433   5.816
 9549TIP3   OH228610   6.649   5.156   2.759
 9549TIP3    H128611   6.679   5.193   2.842
 9549TIP3    H228612   6.717   5.093   2.735
 9550TIP3   OH228613   3.109   0.766   4.881
 9550TIP3    H128614   3.159   0.842   4.911
 9550TIP3    H228615   3.055   0.741   4.956
 9551TIP3   OH228616   3.358   1.260   4.532
 9551TIP3    H128617   3.416   1.222   4.599
 9551TIP3    H228618   3.383   1.217   4.451
 9552TIP3   OH228619   2.540   1.182   3.915
 9552TIP3    H128620   2.605   1.115   3.896
 9552TIP3    H228621   2.478   1.140   3.975
 9553TIP3   OH228622   0.003   1.804   0.426
 9553TIP3    H128623   0.005   1.839   0.515
 9553TIP3    H228624   0.069   1.734   0.427
 9554TIP3   OH228625   6.716   0.112   1.412
 9554TIP3    H128626   6.703   0.205   1.395
 9554TIP3    H228627   6.800   0.106   1.457
 9555TIP3   OH228628   4.088   5.797   2.296
 9555TIP3    H128629   4.122   5.866   2.353
 9555TIP3    H228630   3.993   5.806   2.303
 9556TIP3   OH228631   6.179   2.574   0.623
 9556TIP3    H128632   6.256   2.519   0.611
 9556TIP3    H228633   6.108   2.526   0.580
 9557TIP3   OH228634   0.760   4.031   2.114
 9557TIP3    H128635   0.790   3.979   2.189
 9557TIP3    H228636   0.675   3.995   2.092
 9558TIP3   OH228637   3.921   1.711   1.880
 9558TIP3    H128638   3.865   1.763   1.938
 9558TIP3    H228639   3.950   1.773   1.813
 9559TIP3   OH228640   2.937   6.008   3.503
 9559TIP3    H128641   2.866   5.981   3.561
 9559TIP3    H228642   2.955   6.099   3.527
 9560TIP3   OH228643   4.706   0.721   1.169
 9560TIP3    H128644   4.677   0.632   1.190
 9560TIP3    H228645   4.629   0.763   1.129
 9561TIP3   OH228646   6.945   5.606   1.739
 9561TIP3    H128647   7.014   5.593   1.673
 9561TIP3    H228648   6.883   5.665   1.697
 9562TIP3   OH228649   5.864   5.495   5.448
 9562TIP3    H128650   5.833   5.440   5.519
 9562TIP3    H228651   5.786   5.514   5.396
 9563TIP3   OH228652   4.852   4.081   3.662
 9563TIP3    H128653   4.804   4.117   3.587
 9563TIP3    H228654   4.823   4.133   3.737
 9564TIP3   OH228655   1.932   5.501   1.800
 9564TIP3    H128656   1.989   5.472   1.729
 9564TIP3    H228657   1.882   5.422   1.824
 9565TIP3   OH228658   1.949   6.293   4.261
 9565TIP3    H128659   1.886   6.313   4.192
 9565TIP3    H228660   1.899   6.245   4.327
 9566TIP3   OH228661   2.971   4.418   4.838
 9566TIP3    H128662   2.982   4.331   4.877
 9566TIP3    H228663   2.878   4.438   4.849
 9567TIP3   OH228664   5.866   6.154   5.871
 9567TIP3    H128665   5.934   6.135   5.806
 9567TIP3    H228666   5.869   6.080   5.931
 9568TIP3   OH228667   0.008   1.945   5.715
 9568TIP3    H128668   0.047   1.991   5.641
 9568TIP3    H228669   0.009   1.853   5.690
 9569TIP3   OH228670   7.079   3.508   2.484
 9569TIP3    H128671   7.092   3.476   2.395
 9569TIP3    H228672   7.097   3.432   2.540
 9570TIP3   OH228673   1.677   4.739   4.808
 9570TIP3    H128674   1.596   4.788   4.817
 9570TIP3    H228675   1.673   4.671   4.875
 9571TIP3   OH228676   0.713   2.934   3.675
 9571TIP3    H128677   0.722   2.933   3.771
 9571TIP3    H228678   0.674   3.019   3.656
 9572TIP3   OH228679   3.914   3.812   2.464
 9572TIP3    H128680   3.826   3.821   2.428
 9572TIP3    H228681   3.921   3.721   2.489
 9573TIP3   OH228682   4.290   2.951   1.000
 9573TIP3    H128683   4.264   2.941   0.908
 9573TIP3    H228684   4.208   2.971   1.045
 9574TIP3   OH228685   6.600   0.380   1.355
 9574TIP3    H128686   6.540   0.443   1.396
 9574TIP3    H228687   6.627   0.423   1.274
 9575TIP3   OH228688   6.079   0.218   5.488
 9575TIP3    H128689   6.101   0.274   5.413
 9575TIP3    H228690   6.012   0.159   5.454
 9576TIP3   OH228691   6.943   0.683   1.466
 9576TIP3    H128692   7.023   0.680   1.413
 9576TIP3    H228693   6.873   0.660   1.405
 9577TIP3   OH228694   1.475   6.386   2.661
 9577TIP3    H128695   1.423   6.439   2.722
 9577TIP3    H228696   1.522   6.325   2.718
 9578TIP3   OH228697   6.049   0.478   2.540
 9578TIP3    H128698   6.020   0.566   2.562
 9578TIP3    H228699   6.094   0.487   2.456
 9579TIP3   OH228700   0.225   6.099   3.636
 9579TIP3    H128701   0.142   6.108   3.590
 9579TIP3    H228702   0.203   6.108   3.729
 9580TIP3   OH228703   4.445   3.882   0.021
 9580TIP3    H128704   4.385   3.869  -0.052
 9580TIP3    H228705   4.407   3.833   0.093
 9581TIP3   OH228706   5.171   3.284   3.411
 9581TIP3    H128707   5.178   3.365   3.461
 9581TIP3    H228708   5.078   3.278   3.387
 9582TIP3   OH228709   0.872   3.396   5.468
 9582TIP3    H128710   0.909   3.341   5.537
 9582TIP3    H228711   0.943   3.408   5.405
 9583TIP3   OH228712   1.488   0.491   2.920
 9583TIP3    H128713   1.566   0.527   2.963
 9583TIP3    H228714   1.416   0.513   2.979
 9584TIP3   OH228715   1.527   2.996   4.110
 9584TIP3    H128716   1.543   3.086   4.084
 9584TIP3    H228717   1.590   2.945   4.060
 9585TIP3   OH228718   5.429   3.820   3.104
 9585TIP3    H128719   5.464   3.900   3.143
 9585TIP3    H228720   5.461   3.821   3.014
 9586TIP3   OH228721   1.002   6.367   5.496
 9586TIP3    H128722   1.009   6.450   5.449
 9586TIP3    H228723   1.025   6.387   5.586
 9587TIP3   OH228724   3.834   1.391   5.220
 9587TIP3    H128725   3.772   1.355   5.283
 9587TIP3    H228726   3.848   1.320   5.157
 9588TIP3   OH228727   3.599   5.414   5.691
 9588TIP3    H128728   3.628   5.324   5.673
 9588TIP3    H228729   3.503   5.406   5.698
 9589TIP3   OH228730   1.160   5.003   5.519
 9589TIP3    H128731   1.077   4.980   5.478
 9589TIP3    H228732   1.136   5.049   5.599
 9590TIP3   OH228733   4.536   3.565   3.998
 9590TIP3    H128734   4.510   3.584   3.908
 9590TIP3    H228735   4.626   3.532   3.990
 9591TIP3   OH228736   5.702   2.911   1.358
 9591TIP3    H128737   5.714   2.835   1.301
 9591TIP3    H228738   5.610   2.907   1.385
 9592TIP3   OH228739   0.189   3.821   3.375
 9592TIP3    H128740   0.131   3.882   3.328
 9592TIP3    H228741   0.277   3.854   3.356
 9593TIP3   OH228742   0.792   3.502   3.942
 9593TIP3    H128743   0.815   3.426   3.995
 9593TIP3    H228744   0.874   3.552   3.936
 9594TIP3   OH228745   3.921   4.744   4.109
 9594TIP3    H128746   3.975   4.665   4.105
 9594TIP3    H228747   3.856   4.732   4.040
 9595TIP3   OH228748   3.270   5.732   0.888
 9595TIP3    H128749   3.314   5.807   0.929
 9595TIP3    H228750   3.288   5.741   0.795
 9596TIP3   OH228751   2.634   5.374   1.647
 9596TIP3    H128752   2.601   5.437   1.583
 9596TIP3    H228753   2.588   5.395   1.728
 9597TIP3   OH228754   2.690   3.647   0.016
 9597TIP3    H128755   2.671   3.660   0.109
 9597TIP3    H228756   2.625   3.582  -0.013
 9598TIP3   OH228757   0.800   0.432   2.965
 9598TIP3    H128758   0.765   0.363   3.022
 9598TIP3    H228759   0.883   0.398   2.934
 9599TIP3   OH228760   5.214   2.058   5.419
 9599TIP3    H128761   5.219   2.024   5.509
 9599TIP3    H228762   5.297   2.105   5.408
 9600TIP3   OH228763   6.720   4.000   2.077
 9600TIP3    H128764   6.644   3.965   2.030
 9600TIP3    H228765   6.795   3.977   2.022
 9601TIP3   OH228766   4.136   0.467   1.530
 9601TIP3    H128767   4.109   0.408   1.600
 9601TIP3    H228768   4.173   0.543   1.576
 9602TIP3   OH228769   4.165   3.929   0.778
 9602TIP3    H128770   4.110   3.876   0.721
 9602TIP3    H228771   4.254   3.909   0.751
 9603TIP3   OH228772   2.685   2.461   1.461
 9603TIP3    H128773   2.755   2.525   1.471
 9603TIP3    H228774   2.607   2.505   1.496
 9604TIP3   OH228775   4.486   6.291   3.445
 9604TIP3    H128776   4.533   6.214   3.413
 9604TIP3    H228777   4.394   6.268   3.436
 9605TIP3   OH228778   4.822   3.205   2.160
 9605TIP3    H128779   4.829   3.289   2.206
 9605TIP3    H228780   4.771   3.224   2.082
 9606TIP3   OH228781   7.181   0.197   3.251
 9606TIP3    H128782   7.156   0.217   3.342
 9606TIP3    H228783   7.100   0.204   3.202
 9607TIP3   OH228784   6.060   0.400   1.260
 9607TIP3    H128785   5.995   0.350   1.211
 9607TIP3    H228786   6.136   0.342   1.267
 9608TIP3   OH228787   5.057   4.540   0.207
 9608TIP3    H128788   5.038   4.456   0.248
 9608TIP3    H228789   5.030   4.528   0.116
 9609TIP3   OH228790   4.917   4.832   0.358
 9609TIP3    H128791   4.915   4.841   0.263
 9609TIP3    H228792   4.861   4.903   0.390
 9610TIP3   OH228793   2.020   3.065   1.945
 9610TIP3    H128794   2.018   3.055   1.850
 9610TIP3    H228795   1.960   3.137   1.963
 9611TIP3   OH228796   1.268   3.703   5.284
 9611TIP3    H128797   1.263   3.612   5.312
 9611TIP3    H228798   1.301   3.699   5.194
 9612TIP3   OH228799   5.091   0.997   5.051
 9612TIP3    H128800   5.124   0.998   4.961
 9612TIP3    H228801   5.051   1.083   5.062
 9613TIP3   OH228802   6.844   4.177   3.503
 9613TIP3    H128803   6.830   4.097   3.452
 9613TIP3    H228804   6.769   4.232   3.481
 9614TIP3   OH228805   5.369   1.201   4.464
 9614TIP3    H128806   5.369   1.136   4.394
 9614TIP3    H228807   5.458   1.237   4.464
 9615TIP3   OH228808   1.135   4.972   2.949
 9615TIP3    H128809   1.220   4.931   2.930
 9615TIP3    H228810   1.155   5.037   3.017
 9616TIP3   OH228811   5.203   5.211   2.961
 9616TIP3    H128812   5.293   5.177   2.958
 9616TIP3    H228813   5.187   5.227   3.054
 9617TIP3   OH228814   1.950   6.475   4.642
 9617TIP3    H128815   1.859   6.448   4.644
 9617TIP3    H228816   1.953   6.547   4.578
 9618TIP3   OH228817   0.351   5.261   5.454
 9618TIP3    H128818   0.404   5.299   5.384
 9618TIP3    H228819   0.326   5.175   5.420
 9619TIP3   OH228820   4.179   2.337   1.221
 9619TIP3    H128821   4.271   2.362   1.218
 9619TIP3    H228822   4.160   2.327   1.314
 9620TIP3   OH228823   7.124   4.965   5.209
 9620TIP3    H128824   7.139   5.060   5.202
 9620TIP3    H228825   7.197   4.926   5.161
 9621TIP3   OH228826   4.296   6.513   5.520
 9621TIP3    H128827   4.237   6.444   5.491
 9621TIP3    H228828   4.268   6.533   5.610
 9622TIP3   OH228829   1.511   2.619   0.070
 9622TIP3    H128830   1.483   2.528   0.079
 9622TIP3    H228831   1.594   2.614   0.024
 9623TIP3   OH228832   6.137   1.454   5.369
 9623TIP3    H128833   6.143   1.462   5.465
 9623TIP3    H228834   6.130   1.544   5.338
 9624TIP3   OH228835   3.808   2.246   3.472
 9624TIP3    H128836   3.757   2.165   3.470
 9624TIP3    H228837   3.744   2.315   3.456
 9625TIP3   OH228838   4.879   0.749   0.778
 9625TIP3    H128839   4.864   0.823   0.837
 9625TIP3    H228840   4.793   0.731   0.740
 9626TIP3   OH228841   5.190   2.561   4.308
 9626TIP3    H128842   5.279   2.597   4.304
 9626TIP3    H228843   5.144   2.603   4.235
 9627TIP3   OH228844   6.376   0.544   2.839
 9627TIP3    H128845   6.318   0.607   2.883
 9627TIP3    H228846   6.372   0.567   2.746
 9628TIP3   OH228847   0.756   3.015   5.706
 9628TIP3    H128848   0.806   3.087   5.745
 9628TIP3    H228849   0.688   3.058   5.654
 9629TIP3   OH228850   6.690   6.667   5.770
 9629TIP3    H128851   6.753   6.716   5.716
 9629TIP3    H228852   6.608   6.715   5.761
 9630TIP3   OH228853   6.710   1.836   4.981
 9630TIP3    H128854   6.625   1.801   5.008
 9630TIP3    H228855   6.771   1.803   5.047
 9631TIP3   OH228856   2.317   0.846   2.139
 9631TIP3    H128857   2.409   0.821   2.137
 9631TIP3    H228858   2.314   0.925   2.193
 9632TIP3   OH228859   2.783   1.819   5.590
 9632TIP3    H128860   2.848   1.786   5.652
 9632TIP3    H228861   2.699   1.792   5.627
 9633TIP3   OH228862   0.555   3.564   1.815
 9633TIP3    H128863   0.590   3.650   1.839
 9633TIP3    H228864   0.563   3.560   1.720
 9634TIP3   OH228865   0.131   6.165   1.553
 9634TIP3    H128866   0.140   6.231   1.622
 9634TIP3    H228867   0.044   6.179   1.517
 9635TIP3   OH228868   5.813   1.660   4.093
 9635TIP3    H128869   5.857   1.580   4.123
 9635TIP3    H228870   5.811   1.651   3.998
 9636TIP3   OH228871   7.200   3.925   0.292
 9636TIP3    H128872   7.221   3.999   0.235
 9636TIP3    H228873   7.151   3.864   0.236
 9637TIP3   OH228874   4.882   6.528   5.023
 9637TIP3    H128875   4.894   6.433   5.029
 9637TIP3    H228876   4.829   6.551   5.099
 9638TIP3   OH228877   7.173   5.571   2.862
 9638TIP3    H128878   7.113   5.522   2.806
 9638TIP3    H228879   7.235   5.611   2.800
 9639TIP3   OH228880   1.174   4.453   2.668
 9639TIP3    H128881   1.195   4.360   2.680
 9639TIP3    H228882   1.152   4.460   2.574
 9640TIP3   OH228883   0.497   3.123   4.474
 9640TIP3    H128884   0.557   3.076   4.416
 9640TIP3    H228885   0.411   3.088   4.454
 9641TIP3   OH228886   1.266   0.271   0.476
 9641TIP3    H128887   1.173   0.258   0.494
 9641TIP3    H228888   1.309   0.252   0.560
 9642TIP3   OH228889   1.289   4.088   3.180
 9642TIP3    H128890   1.359   4.063   3.120
 9642TIP3    H228891   1.296   4.183   3.188
 9643TIP3   OH228892   0.084   1.223   0.474
 9643TIP3    H128893  -0.002   1.263   0.466
 9643TIP3    H228894   0.089   1.162   0.400
 9644TIP3   OH228895   1.417   0.189   4.000
 9644TIP3    H128896   1.401   0.177   3.906
 9644TIP3    H228897   1.346   0.246   4.029
 9645TIP3   OH228898   6.392   6.704   5.796
 9645TIP3    H128899   6.398   6.626   5.851
 9645TIP3    H228900   6.304   6.701   5.758
 9646TIP3   OH228901   3.842   4.720   4.731
 9646TIP3    H128902   3.930   4.750   4.707
 9646TIP3    H228903   3.856   4.641   4.782
 9647TIP3   OH228904   0.980   1.565   4.870
 9647TIP3    H128905   0.921   1.592   4.940
 9647TIP3    H228906   0.979   1.469   4.873
 9648TIP3   OH228907   4.670   3.107   2.687
 9648TIP3    H128908   4.744   3.050   2.670
 9648TIP3    H228909   4.694   3.155   2.767
 9649TIP3   OH228910   2.166   1.700   3.779
 9649TIP3    H128911   2.258   1.674   3.771
 9649TIP3    H228912   2.170   1.793   3.801
 9650TIP3   OH228913   0.969   1.831   4.756
 9650TIP3    H128914   1.035   1.899   4.741
 9650TIP3    H228915   1.017   1.749   4.746
 9651TIP3   OH228916   2.249   3.485   5.703
 9651TIP3    H128917   2.169   3.433   5.712
 9651TIP3    H228918   2.218   3.573   5.681
 9652TIP3   OH228919   0.746   0.969   1.966
 9652TIP3    H128920   0.803   1.046   1.959
 9652TIP3    H228921   0.696   0.969   1.885
 9653TIP3   OH228922   2.856   6.369   4.156
 9653TIP3    H128923   2.849   6.373   4.252
 9653TIP3    H228924   2.898   6.284   4.140
 9654TIP3   OH228925   0.666   3.845   5.472
 9654TIP3    H128926   0.618   3.867   5.391
 9654TIP3    H228927   0.600   3.853   5.541
 9655TIP3   OH228928   4.519   5.336   3.311
 9655TIP3    H128929   4.511   5.347   3.406
 9655TIP3    H228930   4.586   5.268   3.300
 9656TIP3   OH228931   1.338   0.008   4.238
 9656TIP3    H128932   1.333   0.064   4.161
 9656TIP3    H228933   1.298   0.060   4.308
 9657TIP3   OH228934   6.152   0.150   1.904
 9657TIP3    H128935   6.088   0.205   1.949
 9657TIP3    H228936   6.139   0.168   1.811
 9658TIP3   OH228937   5.062   5.218   3.203
 9658TIP3    H128938   5.046   5.272   3.280
 9658TIP3    H228939   5.030   5.131   3.227
 9659TIP3   OH228940   6.540   0.756   5.243
 9659TIP3    H128941   6.473   0.791   5.301
 9659TIP3    H228942   6.592   0.833   5.218
 9660TIP3   OH228943   4.141   1.564   2.539
 9660TIP3    H128944   4.081   1.605   2.477
 9660TIP3    H228945   4.228   1.583   2.505
 9661TIP3   OH228946   2.566   5.574   1.444
 9661TIP3    H128947   2.478   5.611   1.439
 9661TIP3    H228948   2.614   5.635   1.500
 9662TIP3   OH228949   3.819   2.094   4.211
 9662TIP3    H128950   3.747   2.143   4.250
 9662TIP3    H228951   3.830   2.134   4.124
 9663TIP3   OH228952   1.670   6.402   1.564
 9663TIP3    H128953   1.654   6.308   1.565
 9663TIP3    H228954   1.710   6.420   1.479
 9664TIP3   OH228955   4.172   1.335   2.792
 9664TIP3    H128956   4.111   1.261   2.800
 9664TIP3    H228957   4.242   1.315   2.855
 9665TIP3   OH228958   5.005   4.139   4.797
 9665TIP3    H128959   4.945   4.076   4.835
 9665TIP3    H228960   4.962   4.170   4.717
 9666TIP3   OH228961   5.832   0.496   2.893
 9666TIP3    H128962   5.911   0.459   2.854
 9666TIP3    H228963   5.857   0.513   2.984
 9667TIP3   OH228964   7.253   0.959   3.223
 9667TIP3    H128965   7.240   0.908   3.143
 9667TIP3    H228966   7.166   0.964   3.263
 9668TIP3   OH228967   5.296   2.872   2.606
 9668TIP3    H128968   5.218   2.908   2.564
 9668TIP3    H228969   5.261   2.819   2.678
 9669TIP3   OH228970   1.392   0.825   1.844
 9669TIP3    H128971   1.325   0.858   1.785
 9669TIP3    H228972   1.469   0.810   1.789
 9670TIP3   OH228973   3.744   0.676   3.053
 9670TIP3    H128974   3.835   0.645   3.052
 9670TIP3    H228975   3.695   0.610   3.005
 9671TIP3   OH228976   1.310   4.787   1.564
 9671TIP3    H128977   1.228   4.758   1.523
 9671TIP3    H228978   1.377   4.729   1.527
 9672TIP3   OH228979   4.951   4.973   3.277
 9672TIP3    H128980   4.961   4.918   3.354
 9672TIP3    H228981   4.896   4.922   3.217
 9673TIP3   OH228982   4.271   3.813   1.587
 9673TIP3    H128983   4.212   3.773   1.523
 9673TIP3    H228984   4.226   3.893   1.614
 9674TIP3   OH228985   2.577   2.745   3.516
 9674TIP3    H128986   2.566   2.652   3.535
 9674TIP3    H228987   2.614   2.782   3.596
 9675TIP3   OH228988   4.960   5.281   3.985
 9675TIP3    H128989   5.006   5.247   4.061
 9675TIP3    H228990   5.015   5.354   3.955
 9676TIP3   OH228991   6.383   5.439   1.008
 9676TIP3    H128992   6.381   5.355   1.053
 9676TIP3    H228993   6.345   5.501   1.071
 9677TIP3   OH228994   5.748   3.733   1.565
 9677TIP3    H128995   5.814   3.801   1.582
 9677TIP3    H228996   5.708   3.718   1.650
 9678TIP3   OH228997   2.087   4.630   0.790
 9678TIP3    H128998   2.104   4.704   0.732
 9678TIP3    H228999   2.003   4.651   0.832
 9679TIP3   OH229000   0.915   3.750   0.927
 9679TIP3    H129001   0.936   3.720   0.839
 9679TIP3    H229002   0.875   3.836   0.915
 9680TIP3   OH229003   6.233   2.457   3.806
 9680TIP3    H129004   6.138   2.444   3.810
 9680TIP3    H229005   6.254   2.449   3.713
 9681TIP3   OH229006   2.653   1.491   5.403
 9681TIP3    H129007   2.677   1.519   5.492
 9681TIP3    H229008   2.558   1.483   5.405
 9682TIP3   OH229009   1.629   0.326   3.347
 9682TIP3    H129010   1.550   0.309   3.297
 9682TIP3    H229011   1.617   0.415   3.383
 9683TIP3   OH229012   0.729   1.682   1.003
 9683TIP3    H129013   0.693   1.619   0.940
 9683TIP3    H229014   0.652   1.724   1.041
 9684TIP3   OH229015   0.455   1.742   1.655
 9684TIP3    H129016   0.503   1.679   1.709
 9684TIP3    H229017   0.377   1.695   1.627
 9685TIP3   OH229018   6.868   6.472   1.033
 9685TIP3    H129019   6.832   6.401   1.086
 9685TIP3    H229020   6.831   6.457   0.946
 9686TIP3   OH229021   4.547   2.630   1.137
 9686TIP3    H129022   4.568   2.610   1.045
 9686TIP3    H229023   4.559   2.724   1.144
 9687TIP3   OH229024   4.490   1.620   5.345
 9687TIP3    H129025   4.560   1.560   5.370
 9687TIP3    H229026   4.421   1.564   5.311
 9688TIP3   OH229027   4.669   6.628   5.669
 9688TIP3    H129028   4.615   6.636   5.747
 9688TIP3    H229029   4.621   6.675   5.601
 9689TIP3   OH229030   1.740   6.255   2.389
 9689TIP3    H129031   1.759   6.327   2.328
 9689TIP3    H229032   1.811   6.258   2.452
 9690TIP3   OH229033   0.203   5.756   0.311
 9690TIP3    H129034   0.132   5.817   0.293
 9690TIP3    H229035   0.195   5.737   0.405
 9691TIP3   OH229036   4.068   0.117   5.173
 9691TIP3    H129037   4.141   0.126   5.236
 9691TIP3    H229038   3.990   0.139   5.224
 9692TIP3   OH229039   3.938   0.696   0.727
 9692TIP3    H129040   3.975   0.767   0.674
 9692TIP3    H229041   3.864   0.664   0.676
 9693TIP3   OH229042   2.734   2.805   0.128
 9693TIP3    H129043   2.658   2.790   0.072
 9693TIP3    H229044   2.732   2.898   0.147
 9694TIP3   OH229045   2.448   3.251   2.814
 9694TIP3    H129046   2.481   3.266   2.725
 9694TIP3    H229047   2.397   3.170   2.807
 9695TIP3   OH229048   3.859   1.941   0.139
 9695TIP3    H129049   3.787   1.992   0.104
 9695TIP3    H229050   3.912   2.003   0.189
 9696TIP3   OH229051   0.269   2.846   5.515
 9696TIP3    H129052   0.203   2.859   5.447
 9696TIP3    H229053   0.328   2.780   5.478
 9697TIP3   OH229054   5.372   5.038   0.854
 9697TIP3    H129055   5.318   4.964   0.882
 9697TIP3    H229056   5.320   5.115   0.876
 9698TIP3   OH229057   3.446   2.140   3.648
 9698TIP3    H129058   3.482   2.185   3.723
 9698TIP3    H229059   3.522   2.120   3.593
 9699TIP3   OH229060   7.046   6.348   1.998
 9699TIP3    H129061   6.981   6.381   2.060
 9699TIP3    H229062   7.086   6.273   2.042
 9700TIP3   OH229063   4.259   2.396   0.144
 9700TIP3    H129064   4.216   2.462   0.089
 9700TIP3    H229065   4.188   2.358   0.196
 9701TIP3   OH229066   0.491   1.593   3.961
 9701TIP3    H129067   0.534   1.621   3.881
 9701TIP3    H229068   0.546   1.629   4.031
 9702TIP3   OH229069   6.167   4.405   4.119
 9702TIP3    H129070   6.155   4.442   4.206
 9702TIP3    H229071   6.117   4.461   4.060
 9703TIP3   OH229072   5.371   5.957   0.128
 9703TIP3    H129073   5.311   6.031   0.127
 9703TIP3    H229074   5.322   5.885   0.087
 9704TIP3   OH229075   6.300   3.161   1.580
 9704TIP3    H129076   6.207   3.143   1.564
 9704TIP3    H229077   6.342   3.075   1.575
 9705TIP3   OH229078   0.856   2.815   2.319
 9705TIP3    H129079   0.858   2.907   2.294
 9705TIP3    H229080   0.767   2.786   2.298
 9706TIP3   OH229081   2.541   4.747   0.364
 9706TIP3    H129082   2.455   4.710   0.381
 9706TIP3    H229083   2.555   4.736   0.270
 9707TIP3   OH229084   2.838   4.188   2.963
 9707TIP3    H129085   2.830   4.244   2.885
 9707TIP3    H229086   2.844   4.099   2.928
 9708TIP3   OH229087   6.894   5.480   2.297
 9708TIP3    H129088   6.913   5.567   2.333
 9708TIP3    H229089   6.815   5.493   2.245
 9709TIP3   OH229090   0.330   2.517   0.843
 9709TIP3    H129091   0.355   2.432   0.879
 9709TIP3    H229092   0.329   2.576   0.918
 9710TIP3   OH229093   4.120   2.653   1.421
 9710TIP3    H129094   4.098   2.743   1.446
 9710TIP3    H229095   4.170   2.662   1.340
 9711TIP3   OH229096   1.848   4.756   5.536
 9711TIP3    H129097   1.796   4.788   5.462
 9711TIP3    H229098   1.844   4.826   5.600
 9712TIP3   OH229099   4.762   3.590   5.248
 9712TIP3    H129100   4.677   3.550   5.232
 9712TIP3    H229101   4.793   3.552   5.330
 9713TIP3   OH229102   2.312   2.314   1.611
 9713TIP3    H129103   2.336   2.225   1.583
 9713TIP3    H229104   2.236   2.336   1.557
 9714TIP3   OH229105   0.746   3.745   1.604
 9714TIP3    H129106   0.832   3.733   1.562
 9714TIP3    H229107   0.698   3.666   1.581
 9715TIP3   OH229108   1.660   1.219   2.862
 9715TIP3    H129109   1.680   1.287   2.925
 9715TIP3    H229110   1.731   1.224   2.798
 9716TIP3   OH229111   4.588   5.474   0.826
 9716TIP3    H129112   4.673   5.482   0.870
 9716TIP3    H229113   4.526   5.517   0.886
 9717TIP3   OH229114   7.038   3.799   2.575
 9717TIP3    H129115   7.027   3.715   2.531
 9717TIP3    H229116   7.010   3.864   2.511
 9718TIP3   OH229117   1.292   6.048   4.498
 9718TIP3    H129118   1.248   5.977   4.453
 9718TIP3    H229119   1.325   6.105   4.428
 9719TIP3   OH229120   3.658   0.879   0.331
 9719TIP3    H129121   3.718   0.953   0.338
 9719TIP3    H229122   3.577   0.910   0.372
 9720TIP3   OH229123   4.188   2.330   2.434
 9720TIP3    H129124   4.275   2.349   2.401
 9720TIP3    H229125   4.201   2.316   2.528
 9721TIP3   OH229126   5.517   2.632   5.215
 9721TIP3    H129127   5.600   2.667   5.182
 9721TIP3    H229128   5.480   2.584   5.141
 9722TIP3   OH229129   7.196   5.527   2.156
 9722TIP3    H129130   7.118   5.557   2.201
 9722TIP3    H229131   7.244   5.607   2.134
 9723TIP3   OH229132   0.737   5.975   3.636
 9723TIP3    H129133   0.697   5.935   3.559
 9723TIP3    H229134   0.692   6.059   3.646
 9724TIP3   OH229135   4.099   6.132   1.910
 9724TIP3    H129136   4.105   6.058   1.970
 9724TIP3    H229137   4.005   6.149   1.903
 9725TIP3   OH229138   7.025   1.522   3.074
 9725TIP3    H129139   6.961   1.549   3.008
 9725TIP3    H229140   6.972   1.497   3.149
 9726TIP3   OH229141   4.534   2.915   1.190
 9726TIP3    H129142   4.616   2.965   1.187
 9726TIP3    H229143   4.467   2.976   1.158
 9727TIP3   OH229144   3.362   3.610   3.199
 9727TIP3    H129145   3.312   3.684   3.165
 9727TIP3    H229146   3.327   3.597   3.288
 9728TIP3   OH229147   2.117   0.181   4.032
 9728TIP3    H129148   2.054   0.227   4.089
 9728TIP3    H229149   2.062   0.124   3.978
 9729TIP3   OH229150   1.995   6.783   3.818
 9729TIP3    H129151   2.064   6.724   3.790
 9729TIP3    H229152   2.014   6.801   3.910
 9730TIP3   OH229153   3.942   1.864   3.392
 9730TIP3    H129154   4.020   1.876   3.338
 9730TIP3    H229155   3.893   1.793   3.350
 9731TIP3   OH229156   6.120   0.748   4.371
 9731TIP3    H129157   6.164   0.814   4.424
 9731TIP3    H229158   6.140   0.665   4.414
 9732TIP3   OH229159   0.098   3.985   3.613
 9732TIP3    H129160   0.124   3.921   3.547
 9732TIP3    H229161   0.094   4.068   3.566
 9733TIP3   OH229162   5.991   3.507   2.122
 9733TIP3    H129163   5.914   3.530   2.070
 9733TIP3    H229164   5.987   3.411   2.130
 9734TIP3   OH229165   5.809   2.463   1.165
 9734TIP3    H129166   5.749   2.415   1.108
 9734TIP3    H229167   5.806   2.417   1.248
 9735TIP3   OH229168   2.278   0.927   3.521
 9735TIP3    H129169   2.311   0.840   3.544
 9735TIP3    H229170   2.242   0.961   3.603
 9736TIP3   OH229171   0.089   5.031   4.995
 9736TIP3    H129172   0.010   5.034   4.941
 9736TIP3    H229173   0.079   5.102   5.058
 9737TIP3   OH229174   2.091   5.524   4.266
 9737TIP3    H129175   2.070   5.553   4.355
 9737TIP3    H229176   2.014   5.475   4.237
 9738TIP3   OH229177   2.205   4.001   1.654
 9738TIP3    H129178   2.283   4.052   1.633
 9738TIP3    H229179   2.143   4.066   1.690
 9739TIP3   OH229180   0.160   5.685   3.735
 9739TIP3    H129181   0.110   5.614   3.694
 9739TIP3    H229182   0.238   5.694   3.681
 9740TIP3   OH229183   1.039   6.245   3.641
 9740TIP3    H129184   1.015   6.332   3.609
 9740TIP3    H229185   1.110   6.217   3.584
 9741TIP3   OH229186   1.267   1.810   2.882
 9741TIP3    H129187   1.309   1.725   2.892
 9741TIP3    H229188   1.303   1.864   2.952
 9742TIP3   OH229189   3.094   3.067   0.687
 9742TIP3    H129190   3.152   2.991   0.682
 9742TIP3    H229191   3.154   3.141   0.698
 9743TIP3   OH229192   5.073   5.853   0.529
 9743TIP3    H129193   5.120   5.811   0.457
 9743TIP3    H229194   5.042   5.779   0.583
 9744TIP3   OH229195   6.194   0.785   3.636
 9744TIP3    H129196   6.132   0.768   3.707
 9744TIP3    H229197   6.178   0.715   3.573
 9745TIP3   OH229198   5.578   2.238   2.104
 9745TIP3    H129199   5.578   2.143   2.120
 9745TIP3    H229200   5.501   2.253   2.049
 9746TIP3   OH229201   6.451   2.471   2.331
 9746TIP3    H129202   6.460   2.394   2.276
 9746TIP3    H229203   6.365   2.463   2.371
 9747TIP3   OH229204   1.740   6.551   0.538
 9747TIP3    H129205   1.750   6.607   0.616
 9747TIP3    H229206   1.821   6.500   0.536
 9748TIP3   OH229207   0.347   6.355   5.656
 9748TIP3    H129208   0.404   6.431   5.647
 9748TIP3    H229209   0.322   6.333   5.567
 9749TIP3   OH229210   4.639   4.350   0.053
 9749TIP3    H129211   4.610   4.434   0.019
 9749TIP3    H229212   4.703   4.319  -0.011
   7.22173   6.80871   5.89651   0.00000   0.00000  -2.40725   0.00000  -2.40725  -3.40435
