Title
29212
    1ASP      N    1   2.224   1.692   3.403  0.2812  0.1250 -0.2679
    1ASP    HT1    2   2.284   1.716   3.321  1.6825 -0.9072  0.4153
    1ASP    HT2    3   2.193   1.593   3.398  0.3538 -0.1967  3.3920
    1ASP    HT3    4   2.285   1.699   3.487  0.8163 -0.3048 -0.6062
    1ASP     CA    5   2.106   1.782   3.400  0.1149  0.1920  0.1025
    1ASP     HA    6   2.143   1.880   3.428  0.2131  0.3714 -0.6426
    1ASP     CB    7   2.044   1.790   3.258  0.5082 -0.0118 -0.2014
    1ASP    HB1    8   1.947   1.846   3.257  0.7396  0.4735 -2.7066
    1ASP    HB2    9   2.026   1.692   3.210 -2.8320  0.9186 -1.1790
    1ASP     CG   10   2.143   1.846   3.156  0.5396 -0.7447 -0.1293
    1ASP    OD1   11   2.264   1.832   3.185  0.3409 -0.1956  0.9021
    1ASP    OD2   12   2.104   1.897   3.047 -0.4063  0.0314 -0.2118
    1ASP      C   13   2.002   1.743   3.500  0.7631 -0.2115 -0.1240
    1ASP      O   14   1.997   1.639   3.560 -0.1514 -1.1434 -0.8494
    2GLY      N   15   1.911   1.840   3.513  0.4224 -0.3264 -0.4726
    2GLY     HN   16   1.917   1.936   3.486 -1.6183  0.0697  0.3582
    2GLY     CA   17   1.785   1.819   3.588  0.0100 -0.3583  0.0798
    2GLY    HA1   18   1.750   1.916   3.621 -0.2092 -0.2191 -0.5573
    2GLY    HA2   19   1.802   1.746   3.666  0.5999  0.3542  0.6311
    2GLY      C   20   1.677   1.763   3.495 -0.2156  0.1318  0.0313
    2GLY      O   21   1.703   1.705   3.388 -0.1720 -0.5353 -0.4242
    3ASP      N   22   1.552   1.791   3.537 -0.3476  0.1760  0.2001
    3ASP     HN   23   1.524   1.859   3.604 -0.7446  0.0397  0.1775
    3ASP     CA   24   1.444   1.733   3.455 -0.1520  0.0516  0.1552
    3ASP     HA   25   1.465   1.634   3.419  0.2587  0.1579  0.0930
    3ASP     CB   26   1.302   1.751   3.516 -0.2128 -0.1344  0.1197
    3ASP    HB1   27   1.232   1.707   3.442  0.1789  1.0280 -0.9970
    3ASP    HB2   28   1.286   1.861   3.521 -2.7140 -0.3018 -1.9628
    3ASP     CG   29   1.300   1.674   3.645 -0.2764  0.2824 -0.3803
    3ASP    OD1   30   1.211   1.707   3.725 -0.4283  0.3074 -0.5569
    3ASP    OD2   31   1.374   1.572   3.664  0.2020 -0.3415  0.0415
    3ASP      C   32   1.434   1.803   3.318  0.1506 -0.0329  0.0671
    3ASP      O   33   1.453   1.922   3.296 -0.0648 -0.0696  0.1449
    4GLY      N   34   1.390   1.727   3.216  0.3321  0.1164  0.4607
    4GLY     HN   35   1.361   1.634   3.236  2.0951 -0.6147 -0.1754
    4GLY     CA   36   1.361   1.786   3.081 -0.1692 -0.7092 -0.3926
    4GLY    HA1   37   1.343   1.699   3.019  1.4011 -0.7282 -0.8470
    4GLY    HA2   38   1.453   1.831   3.047 -0.1676  1.6830  2.3271
    4GLY      C   39   1.247   1.884   3.070  0.4624 -0.1353 -0.0407
    4GLY      O   40   1.175   1.913   3.165  0.6583  0.0054 -0.0844
    5PRO      N   41   1.223   1.941   2.946  0.4926  0.1662  0.1708
    5PRO     CD   42   1.305   1.921   2.831 -0.3395  0.9146  0.0258
    5PRO    HD1   43   1.278   1.827   2.778  0.2735 -0.2735  1.7201
    5PRO    HD2   44   1.412   1.934   2.857 -0.3955  2.0993 -0.2854
    5PRO     CA   45   1.101   2.021   2.913 -0.2274  0.3375 -0.9776
    5PRO     HA   46   1.118   2.114   2.964  3.2803 -0.3203 -0.6778
    5PRO     CB   47   1.103   2.041   2.765 -0.4096  0.4117 -0.0036
    5PRO    HB1   48   1.072   2.142   2.731 -1.9544 -0.4583 -1.3488
    5PRO    HB2   49   1.050   1.958   2.712  2.5335 -1.8531  0.3739
    5PRO     CG   50   1.259   2.031   2.734  0.8806  0.3728 -0.3855
    5PRO    HG1   51   1.281   2.007   2.627  1.6877  0.2856 -0.2038
    5PRO    HG2   52   1.307   2.128   2.758  2.0040 -0.0824 -0.7419
    5PRO      C   53   0.968   1.970   2.976  0.3327  1.0749 -0.4925
    5PRO      O   54   0.942   1.850   2.965  0.4117  1.3260 -0.3803
    6GLY      N   55   0.896   2.060   3.044 -0.0901  0.2106  0.3032
    6GLY     HN   56   0.939   2.150   3.051  1.0330 -0.3982  2.1229
    6GLY     CA   57   0.766   2.043   3.111  0.1067 -0.1054 -0.0388
    6GLY    HA1   58   0.743   2.142   3.148 -0.4220 -0.2736  0.0900
    6GLY    HA2   59   0.787   1.972   3.190  0.2088 -0.9818 -0.8365
    6GLY      C   60   0.653   1.981   3.030  0.3944  0.5555 -0.8536
    6GLY      O   61   0.657   1.986   2.910  0.2392  0.3169 -0.4649
    7ASP      N   62   0.553   1.924   3.105 -0.3271  0.1371  0.0583
    7ASP     HN   63   0.559   1.920   3.205  1.1143 -0.7024 -0.0299
    7ASP     CA   64   0.452   1.848   3.042 -0.0062  0.3488  0.3860
    7ASP     HA   65   0.488   1.794   2.956 -0.5739  0.8780 -0.1925
    7ASP     CB   66   0.388   1.744   3.140  0.6106  0.1844  0.0443
    7ASP    HB1   67   0.295   1.702   3.094 -0.5975  0.4656  2.1095
    7ASP    HB2   68   0.355   1.798   3.231 -1.5354 -0.1891 -0.4324
    7ASP     CG   69   0.477   1.631   3.180 -0.9847 -0.0108  0.3006
    7ASP    OD1   70   0.529   1.559   3.088  0.3209 -0.1442 -0.1831
    7ASP    OD2   71   0.504   1.619   3.303  0.1184 -0.8711  0.3445
    7ASP      C   72   0.345   1.938   2.987  0.4881  0.3509 -0.1161
    7ASP      O   73   0.303   2.028   3.060  0.3578 -0.0039 -0.2219
    8PRO      N   74   0.299   1.934   2.863 -0.0996 -0.3427  0.1386
    8PRO     CD   75   0.346   1.841   2.757 -0.1274 -0.3065 -0.0198
    8PRO    HD1   76   0.363   1.736   2.791  1.1738 -1.1328 -2.8735
    8PRO    HD2   77   0.437   1.880   2.708 -0.6359  1.1253  0.1244
    8PRO     CA   78   0.181   2.009   2.818 -1.0966 -0.0444 -0.0564
    8PRO     HA   79   0.190   2.112   2.850  0.7060  0.6873 -2.5939
    8PRO     CB   80   0.183   1.994   2.668  0.4937 -0.2639  0.0235
    8PRO    HB1   81   0.258   2.061   2.621  0.6380 -1.1197 -1.0009
    8PRO    HB2   82   0.079   2.003   2.630  0.4219 -2.1774 -0.3493
    8PRO     CG   83   0.236   1.852   2.650 -0.4462 -0.1656 -0.3008
    8PRO    HG1   84   0.163   1.772   2.679 -0.1016 -0.4240 -0.1320
    8PRO    HG2   85   0.266   1.822   2.548  0.2382  0.7906 -0.3929
    8PRO      C   86   0.055   1.952   2.878  0.1006  0.5212  0.7708
    8PRO      O   87   0.057   1.844   2.941  0.1757  0.5143  0.2508
    9GLY      N   88  -0.061   2.029   2.866  0.7050  0.2379  0.1303
    9GLY     HN   89  -0.046   2.117   2.821 -2.0271  1.2439  0.9964
    9GLY     CA   90  -0.189   2.002   2.934  0.0384  0.2830 -0.0327
    9GLY    HA1   91  -0.225   1.904   2.909 -2.1069  0.7652  0.9172
    9GLY    HA2   92  -0.262   2.080   2.917 -0.9059 -0.5205  0.2577
    9GLY      C   93  -0.179   2.005   3.086 -0.5774  0.6372 -1.1397
    9GLY      O   94  -0.077   2.053   3.145  0.7273  0.4333  0.3112
   10ASP      N   95  -0.286   1.959   3.162  0.1645 -0.6915 -0.0461
   10ASP     HN   96  -0.368   1.920   3.120 -1.3697  0.9300  1.2894
   10ASP     CA   97  -0.281   1.966   3.308 -0.6386 -0.6680  0.3948
   10ASP     HA   98  -0.243   2.063   3.337 -0.0876 -0.9155  0.5231
   10ASP     CB   99  -0.410   1.920   3.375 -0.1440 -0.2447  0.0025
   10ASP    HB1  100  -0.392   1.932   3.484  1.0873  3.3118 -0.4597
   10ASP    HB2  101  -0.437   1.815   3.350 -1.4270  0.5877 -2.4693
   10ASP     CG  102  -0.528   2.006   3.340 -0.1447 -0.5414  0.0087
   10ASP    OD1  103  -0.638   1.950   3.309  0.0036 -0.2493  0.0753
   10ASP    OD2  104  -0.517   2.125   3.364 -0.1324 -0.3429 -0.1938
   10ASP      C  105  -0.180   1.867   3.367 -0.3169 -0.2410  1.1905
   10ASP      O  106  -0.178   1.747   3.336 -0.5504  0.1610  0.4447
   11GLY      N  107  -0.096   1.913   3.456 -0.1268 -0.1157  0.2588
   11GLY     HN  108  -0.123   2.005   3.484  0.0542 -0.2000  0.7371
   11GLY     CA  109  -0.001   1.837   3.532 -0.6225  0.1660  0.4024
   11GLY    HA1  110   0.058   1.907   3.588 -2.1067 -0.7630  3.3644
   11GLY    HA2  111   0.051   1.787   3.452  0.3573  2.9892 -0.8411
   11GLY      C  112  -0.065   1.727   3.622 -0.1682  0.2381  0.2750
   11GLY    OT1  113  -0.029   1.607   3.606  0.7546  0.2712 -0.4379
   11GLY    OT2  114  -0.143   1.770   3.710 -0.2856  0.3340  0.0415
   12LIT    LIT  115   3.164   3.423   1.420  0.4965 -0.1830  0.4923
   13LIT    LIT  116   4.748   2.837   5.090  0.1009  1.3922 -1.2183
   14LIT    LIT  117   5.793   6.708   0.500 -0.7588  0.5091 -0.6290
   15LIT    LIT  118   5.836   6.616   2.842  0.2613  0.0992 -0.8904
   16LIT    LIT  119   7.044   1.577   3.759  1.0719  0.5707  0.0833
   17LIT    LIT  120   0.859   0.971   1.026 -0.0188  0.2581 -0.1021
   18LIT    LIT  121   4.619   4.830   0.957  0.1597 -0.1544  0.8593
   19LIT    LIT  122   6.536   1.366   5.030 -0.4623 -0.9991 -0.5813
   20LIT    LIT  123   6.269   4.378   2.616 -0.6591  1.1737 -1.0749
   21LIT    LIT  124   0.512   4.471   1.872 -0.4949 -0.5527 -0.2158
   22LIT    LIT  125   4.099   2.326   0.105  0.2823  0.6442 -0.2102
   23LIT    LIT  126   1.882   3.161   1.628 -0.4615 -0.2349  0.5514
   24LIT    LIT  127   0.294   1.329   3.507 -0.3882 -1.3624 -0.6807
   25LIT    LIT  128   7.101   0.664   4.000  0.1663  0.6657 -0.6777
   26LIT    LIT  129   6.495   2.136   3.338 -0.1628  0.2179  1.5376
   27LIT    LIT  130   4.040   4.785   3.721 -0.1398  0.0394  0.3949
   28LIT    LIT  131   6.598   5.574   4.745 -0.3559 -0.0198 -0.6685
   29LIT    LIT  132   0.791   3.223   0.701 -0.6313  1.3399  0.7975
   30LIT    LIT  133   3.321   4.158   2.318  0.5159  1.1025  0.0354
   31LIT    LIT  134   1.357   5.946   2.054  0.9445 -0.0645 -0.7585
   32LIT    LIT  135   2.243   4.147   1.170  0.5490  1.1703  0.7900
   33LIT    LIT  136   5.247   0.431   1.942 -0.6975  0.2160  0.5880
   34LIT    LIT  137   3.790   2.027   5.354  0.3144 -0.2386  1.0490
   35LIT    LIT  138   1.340   5.002   2.742 -0.3710  0.6853  0.5715
   36LIT    LIT  139   3.195   1.139   4.263  0.5717 -0.0448 -1.1561
   37LIT    LIT  140   6.267   5.117   0.867 -0.0450 -0.3307  0.9306
   38LIT    LIT  141   1.490   4.288   0.172 -0.2974 -0.4761  1.2951
   39LIT    LIT  142   2.295   1.960   3.043 -0.9759  0.4206 -1.0833
   40LIT    LIT  143   3.490   3.641   3.083  0.1104 -1.1087 -0.2522
   41LIT    LIT  144   5.885   2.169   5.117  0.4093 -0.1903 -0.5837
   42LIT    LIT  145   1.212   1.557   3.827 -0.5821  0.9354 -0.0373
   43CLA    CLA  146   6.331   0.340   2.145  0.0284 -0.0366 -0.1578
   44CLA    CLA  147   0.932   1.501   2.211  0.0424  0.0062 -0.1461
   45CLA    CLA  148   3.969   0.527   0.104  0.3002  0.3047  0.0146
   46CLA    CLA  149   3.596   1.189   3.633 -0.5958 -0.1286  0.4279
   47CLA    CLA  150   1.219   2.265   0.210  0.0174 -0.1356  0.0601
   48CLA    CLA  151   0.898   4.348   1.622  0.5791  0.0530  0.2208
   49CLA    CLA  152   4.480   2.883   2.394  0.0892 -0.0293 -0.1453
   50CLA    CLA  153   1.171   1.223   4.115  0.1338 -0.1852  0.2306
   51CLA    CLA  154   0.749   3.836   0.336 -0.4070  0.1682 -0.4385
   52CLA    CLA  155   6.198   0.861   2.880  0.5967  0.1179  0.2971
   53CLA    CLA  156   4.288   6.352   5.216  0.2660 -0.2255  0.4937
   54CLA    CLA  157   0.626   2.113   4.715  0.3907  0.3115 -0.2181
   55CLA    CLA  158   2.113   2.427   4.126 -0.0985  0.4585  0.1822
   56CLA    CLA  159   6.468   5.363   5.573 -0.2608  0.1174 -0.1674
   57CLA    CLA  160   5.412   6.762   0.266 -0.0565 -0.1631  0.1409
   58CLA    CLA  161   0.578   4.535   2.319 -0.1857 -0.2617 -0.0786
   59CLA    CLA  162   6.045   4.088   2.163  0.1980  0.1766  0.1939
   60CLA    CLA  163   2.522   2.295   2.978 -0.1757  0.0241 -0.0467
   61CLA    CLA  164   0.625   1.855   5.696  0.3729 -0.0030  0.0607
   62CLA    CLA  165   4.937   3.360   0.866 -0.3672  0.1300  0.1185
   63CLA    CLA  166   2.412   0.009   5.310 -0.4321  0.1510  0.2724
   64CLA    CLA  167   1.556   6.570   2.906  0.3857 -0.4410 -0.1202
   65CLA    CLA  168   4.766   3.852   0.704  0.2498 -0.1977  0.2868
   66CLA    CLA  169   0.851   5.470   3.160 -0.3916  0.0071  0.1231
   67CLA    CLA  170   4.066   0.508   1.976  0.2518  0.2156  0.2346
   68CLA    CLA  171   1.046   5.383   2.711  0.0490 -0.3220 -0.1687
   69CLA    CLA  172   3.114   3.217   5.109  0.1391 -0.1713  0.1519
   70TIP3   OH2  173   3.511   4.245   0.114  0.5854 -0.5280  0.5416
   70TIP3    H1  174   3.571   4.170   0.104  2.3751  0.9009  0.1112
   70TIP3    H2  175   3.555   4.317   0.070 -1.6450  0.5379 -0.0846
   71TIP3   OH2  176   2.781   5.932   2.741  0.0198  0.6162  0.9151
   71TIP3    H1  177   2.864   5.900   2.776  0.1491 -0.3288 -0.2007
   71TIP3    H2  178   2.806   5.988   2.667 -0.3360 -0.1683  0.1825
   72TIP3   OH2  179   4.139   5.432   2.537  0.4254  0.3720 -0.2022
   72TIP3    H1  180   4.083   5.374   2.589  0.6368  0.3684  0.0241
   72TIP3    H2  181   4.088   5.511   2.526  0.5047  0.4966  0.2919
   73TIP3   OH2  182   3.535   1.806   0.268  0.3280  0.1730  0.1142
   73TIP3    H1  183   3.588   1.795   0.189 -0.1990  0.5400 -0.3027
   73TIP3    H2  184   3.451   1.765   0.246  0.6552 -1.0453  1.0165
   74TIP3   OH2  185   7.141   0.284   2.908 -0.4393 -0.4794 -0.1693
   74TIP3    H1  186   7.106   0.361   2.862  1.0933  0.3742  0.0442
   74TIP3    H2  187   7.172   0.319   2.992  0.6533 -1.2526 -0.2418
   75TIP3   OH2  188   1.147   6.547   4.565  0.1498 -0.2122  0.6595
   75TIP3    H1  189   1.160   6.487   4.492  0.6580 -0.4707  0.9570
   75TIP3    H2  190   1.224   6.604   4.562 -1.4339  2.0309 -1.1100
   76TIP3   OH2  191   6.885   1.938   0.190  0.1495 -1.0514 -0.1720
   76TIP3    H1  192   6.875   1.933   0.285  0.3104 -2.8366 -0.2275
   76TIP3    H2  193   6.979   1.939   0.175  0.1859  1.3634 -0.2777
   77TIP3   OH2  194   0.149   0.644   1.653  0.0301  0.2295  0.1003
   77TIP3    H1  195   0.056   0.629   1.641  0.1487  0.8090 -1.8498
   77TIP3    H2  196   0.158   0.740   1.651  0.7354  0.1621 -0.5981
   78TIP3   OH2  197   6.328   2.198   0.332  0.0365 -0.2078  0.6893
   78TIP3    H1  198   6.408   2.180   0.380  0.2704  0.0593  0.4060
   78TIP3    H2  199   6.258   2.191   0.397  0.4591  1.3578  1.3695
   79TIP3   OH2  200   3.562   2.795   2.447 -0.7437 -0.2521  0.3650
   79TIP3    H1  201   3.521   2.714   2.476 -2.2501 -0.6699 -2.5796
   79TIP3    H2  202   3.630   2.767   2.386 -1.1517  0.6721 -0.5501
   80TIP3   OH2  203   2.496   1.220   4.759  0.8408 -0.1775 -0.1553
   80TIP3    H1  204   2.431   1.218   4.830  0.3064 -0.4045 -0.6384
   80TIP3    H2  205   2.580   1.212   4.803  0.6028  1.0879  0.5541
   81TIP3   OH2  206   1.037   1.245   0.314 -0.6987 -0.8279  0.3303
   81TIP3    H1  207   0.962   1.303   0.301  1.3126  1.7734 -0.4971
   81TIP3    H2  208   1.032   1.182   0.242 -0.6207  1.0729 -1.4230
   82TIP3   OH2  209   4.408   3.253   0.061  0.2590  0.2151  0.3885
   82TIP3    H1  210   4.450   3.173   0.031  1.4294  0.7044  0.6326
   82TIP3    H2  211   4.322   3.252   0.021  0.4952 -0.8469 -0.1269
   83TIP3   OH2  212   3.553   3.004   1.678 -0.3397 -0.0728 -0.2325
   83TIP3    H1  213   3.468   3.041   1.700  0.2306  1.5843 -0.6614
   83TIP3    H2  214   3.603   3.009   1.760 -0.4205 -0.3704 -0.1643
   84TIP3   OH2  215   5.793   0.407   1.570  0.6481 -1.2269 -0.4160
   84TIP3    H1  216   5.803   0.501   1.557  0.8056 -1.3358 -1.1705
   84TIP3    H2  217   5.699   0.391   1.565  0.3915 -0.8155  2.0458
   85TIP3   OH2  218   3.540   6.619   3.884  0.3068  0.4828  0.1289
   85TIP3    H1  219   3.481   6.560   3.838 -0.7213  0.1674  1.7849
   85TIP3    H2  220   3.561   6.688   3.821 -0.1342 -0.5357 -1.1505
   86TIP3   OH2  221   2.962   6.060   2.013  0.0354 -0.5796 -0.4202
   86TIP3    H1  222   3.024   6.127   1.983 -0.6916 -0.1920 -1.1181
   86TIP3    H2  223   2.952   6.002   1.937 -1.1478 -0.1020 -0.6612
   87TIP3   OH2  224   3.954   1.637   0.613 -0.3999  0.7819 -0.0485
   87TIP3    H1  225   3.888   1.669   0.551 -1.0467  0.3501  0.4042
   87TIP3    H2  226   3.952   1.542   0.603 -0.0879  0.7480  0.2150
   88TIP3   OH2  227   4.607   0.702   4.583  0.4666  0.7361  0.2566
   88TIP3    H1  228   4.671   0.735   4.520 -1.7383  2.3039 -1.3180
   88TIP3    H2  229   4.564   0.630   4.537 -1.6089  2.3113 -0.4295
   89TIP3   OH2  230   5.503   4.417   2.409 -0.3819  0.5654 -0.2204
   89TIP3    H1  231   5.433   4.370   2.455 -0.3765  1.5601  0.8228
   89TIP3    H2  232   5.574   4.423   2.472 -0.5262  2.3180 -0.1826
   90TIP3   OH2  233   5.849   3.220   5.361  0.1726 -0.1095 -0.3384
   90TIP3    H1  234   5.937   3.187   5.379  1.2834  1.9827 -1.5119
   90TIP3    H2  235   5.806   3.148   5.315  1.8305 -0.6224 -1.1869
   91TIP3   OH2  236   2.217   1.670   2.060 -0.0118 -0.5986 -0.3613
   91TIP3    H1  237   2.271   1.749   2.051  0.0967 -0.7082 -0.6772
   91TIP3    H2  238   2.268   1.614   2.119 -0.5856 -0.0041  0.7289
   92TIP3   OH2  239   5.889   1.536   1.086  0.9670  0.0828 -0.3014
   92TIP3    H1  240   5.975   1.515   1.049  1.3523 -1.2926  1.2382
   92TIP3    H2  241   5.905   1.543   1.180 -0.4038  1.0438 -0.1111
   93TIP3   OH2  242   5.319   6.514   0.851 -0.4489 -0.3099 -0.4464
   93TIP3    H1  243   5.247   6.576   0.836 -1.0879 -1.0886 -0.6865
   93TIP3    H2  244   5.348   6.489   0.764  1.8022  1.8436 -0.4068
   94TIP3   OH2  245   2.153   0.195   5.393  0.3134 -0.2603  0.1799
   94TIP3    H1  246   2.217   0.131   5.361 -1.0633 -2.4524  1.5128
   94TIP3    H2  247   2.156   0.187   5.488 -0.8618  0.6888  0.3312
   95TIP3   OH2  248   6.314   5.932   4.704 -0.2790  0.1200  0.2072
   95TIP3    H1  249   6.331   6.025   4.718 -1.7487  0.3843  0.4480
   95TIP3    H2  250   6.245   5.931   4.638  1.5028 -0.9007 -1.7352
   96TIP3   OH2  251   1.679   3.271   1.243 -0.4237 -0.3276 -0.0092
   96TIP3    H1  252   1.622   3.345   1.219 -1.1500  0.2240  2.9979
   96TIP3    H2  253   1.732   3.305   1.315  0.3459 -2.2855  0.3989
   97TIP3   OH2  254   5.812   4.901   4.368 -0.7933  0.2386  0.5546
   97TIP3    H1  255   5.794   4.916   4.275 -2.2116 -0.1491  0.7430
   97TIP3    H2  256   5.823   4.806   4.374  1.2466  0.4327  0.4898
   98TIP3   OH2  257   2.220   3.049   5.100 -0.5578 -0.3351  0.3894
   98TIP3    H1  258   2.258   3.088   5.179  1.3088 -1.3191  0.0374
   98TIP3    H2  259   2.253   3.104   5.029 -1.0229 -0.3224  0.1840
   99TIP3   OH2  260   5.339   4.333   1.238  0.9057  0.1344 -0.3495
   99TIP3    H1  261   5.428   4.301   1.236  0.9725  0.2991 -2.0811
   99TIP3    H2  262   5.286   4.262   1.201  0.5156  0.4907 -0.4998
  100TIP3   OH2  263   0.496   3.270   4.059  0.1560 -0.5944  0.5998
  100TIP3    H1  264   0.436   3.345   4.063 -0.1349 -0.8359  0.8107
  100TIP3    H2  265   0.439   3.193   4.063  0.4221 -0.8328  0.0164
  101TIP3   OH2  266   2.665   4.498   0.684 -0.3899 -0.1171  0.6479
  101TIP3    H1  267   2.600   4.563   0.710 -1.0976  0.2202 -1.7917
  101TIP3    H2  268   2.620   4.414   0.690  0.4264 -0.4801  3.4692
  102TIP3   OH2  269   5.289   1.670   4.143  0.0285  0.6510  0.3671
  102TIP3    H1  270   5.280   1.587   4.097 -0.7415  1.6350 -1.3625
  102TIP3    H2  271   5.281   1.737   4.075  2.0191  2.1486  1.4914
  103TIP3   OH2  272   2.995   1.305   1.431  0.5704 -0.0035  0.2010
  103TIP3    H1  273   2.923   1.266   1.381  1.3456 -0.0081 -0.9448
  103TIP3    H2  274   3.001   1.250   1.510  1.6794 -2.3752 -1.3946
  104TIP3   OH2  275   6.355   2.467   3.635 -0.6807 -0.1490  0.2511
  104TIP3    H1  276   6.326   2.558   3.638  0.5087  0.2292  1.9067
  104TIP3    H2  277   6.421   2.461   3.704  1.6929 -1.4602 -1.9620
  105TIP3   OH2  278   3.485   0.720   2.264  0.3872  0.2785  0.1779
  105TIP3    H1  279   3.512   0.739   2.354  2.1700 -0.1936 -0.2182
  105TIP3    H2  280   3.392   0.743   2.261  0.4695  0.9613  1.9424
  106TIP3   OH2  281   6.820   0.980   3.980 -0.0481 -0.0609 -0.1738
  106TIP3    H1  282   6.763   0.921   4.028 -0.7158  0.7447  0.0343
  106TIP3    H2  283   6.883   1.012   4.045 -0.6533  0.6559  0.0687
  107TIP3   OH2  284   6.651   1.614   1.537 -0.1492  0.2721 -0.5189
  107TIP3    H1  285   6.678   1.623   1.445 -1.5214  1.4085 -0.8460
  107TIP3    H2  286   6.592   1.539   1.537  1.2746 -0.8910 -0.1908
  108TIP3   OH2  287   3.502   5.371   5.663  0.0410  0.1331 -0.6526
  108TIP3    H1  288   3.439   5.304   5.690  0.6596 -0.5194 -0.8202
  108TIP3    H2  289   3.499   5.370   5.568  0.6001 -0.1872 -0.6702
  109TIP3   OH2  290   5.411   4.225   2.066  0.7640 -0.0363  0.1470
  109TIP3    H1  291   5.384   4.179   1.986 -1.1707 -0.8028  1.1732
  109TIP3    H2  292   5.379   4.314   2.055 -1.8737 -0.7899  1.1010
  110TIP3   OH2  293   0.761   2.854   3.082 -0.0286  0.3379  0.2488
  110TIP3    H1  294   0.820   2.901   3.141  3.5231 -2.8388 -0.3286
  110TIP3    H2  295   0.683   2.837   3.134  0.8293  2.0294  2.2451
  111TIP3   OH2  296   1.036   1.927   0.983  0.3257 -0.7875 -0.2332
  111TIP3    H1  297   0.994   1.858   0.930  0.4563 -0.2903 -1.0090
  111TIP3    H2  298   1.118   1.945   0.937  0.8001 -0.8697  0.5720
  112TIP3   OH2  299   1.665   0.863   3.217  0.2587  0.1006  0.4214
  112TIP3    H1  300   1.741   0.848   3.161 -1.2596 -0.7429 -1.5033
  112TIP3    H2  301   1.670   0.794   3.283  1.0158 -0.0798  0.1840
  113TIP3   OH2  302   1.926   4.089   1.720  0.2917 -0.3458  0.1093
  113TIP3    H1  303   1.928   4.165   1.663  1.6216 -0.0686  0.4984
  113TIP3    H2  304   1.836   4.057   1.714 -0.3625  1.3985  0.1308
  114TIP3   OH2  305   4.201   3.851   2.705  0.0892  0.2231  0.2442
  114TIP3    H1  306   4.215   3.813   2.792 -1.0661  0.5874  0.6192
  114TIP3    H2  307   4.261   3.804   2.648  0.2313 -0.6529  1.0834
  115TIP3   OH2  308   1.019   4.609   2.655  0.8866  0.2462 -0.3385
  115TIP3    H1  309   0.949   4.580   2.596 -0.4385 -0.6460  1.5556
  115TIP3    H2  310   0.996   4.700   2.675  2.8624  1.5290 -3.1958
  116TIP3   OH2  311   7.055   2.591   3.853  0.5188  0.5285  0.1143
  116TIP3    H1  312   7.115   2.596   3.927 -0.8118 -0.6925  1.3411
  116TIP3    H2  313   7.021   2.502   3.856 -1.5777  1.2637 -0.3521
  117TIP3   OH2  314   6.076   0.790   5.694 -0.1504  0.2730 -0.0836
  117TIP3    H1  315   6.070   0.836   5.611  0.3350  0.4240 -0.0389
  117TIP3    H2  316   6.000   0.821   5.744 -1.5357 -1.2184 -1.1320
  118TIP3   OH2  317   6.012   2.193   3.486 -0.3236 -0.7757 -0.1777
  118TIP3    H1  318   5.935   2.179   3.542 -1.1026  0.6227 -0.8607
  118TIP3    H2  319   5.987   2.154   3.402  0.2581 -1.5098 -0.0264
  119TIP3   OH2  320   3.490   0.919   3.185  0.6430 -0.1032 -0.2562
  119TIP3    H1  321   3.539   0.999   3.166  0.4700  0.2247  0.6349
  119TIP3    H2  322   3.483   0.918   3.281 -0.6148 -0.4292 -0.3399
  120TIP3   OH2  323   4.530   3.108   0.869 -0.5645 -0.6730  0.1593
  120TIP3    H1  324   4.482   3.028   0.847 -0.4991 -0.3964 -1.1118
  120TIP3    H2  325   4.478   3.178   0.829 -0.4818 -0.1038  1.0320
  121TIP3   OH2  326   1.588   2.148   4.502  0.5570 -0.5553 -0.2207
  121TIP3    H1  327   1.662   2.206   4.519  1.0705 -1.8428  2.5153
  121TIP3    H2  328   1.599   2.121   4.411  1.1598  2.3254 -1.1123
  122TIP3   OH2  329   1.664   5.318   0.055  0.0445  0.7954  0.0285
  122TIP3    H1  330   1.651   5.351   0.145  0.6300 -0.0861  0.4411
  122TIP3    H2  331   1.759   5.314   0.044  0.0217  2.3886 -1.2096
  123TIP3   OH2  332   6.037   6.082   3.288  0.7222 -0.5053 -0.1605
  123TIP3    H1  333   6.017   6.022   3.359  0.3211 -0.5155 -0.2827
  123TIP3    H2  334   6.128   6.107   3.303  1.0840 -1.5787 -0.4233
  124TIP3   OH2  335   3.464   4.253   2.237  0.7448 -0.2944 -0.5097
  124TIP3    H1  336   3.549   4.210   2.246  0.5245 -0.7282 -0.4404
  124TIP3    H2  337   3.478   4.322   2.173  1.1115 -0.4709 -0.6205
  125TIP3   OH2  338   4.025   4.758   1.524  0.3030 -0.1145  0.0721
  125TIP3    H1  339   4.009   4.720   1.610  0.3607 -0.9875 -0.2948
  125TIP3    H2  340   4.062   4.687   1.473 -2.1420 -0.3723 -1.4591
  126TIP3   OH2  341   0.249   2.686   4.462  0.2858  0.0579 -0.0812
  126TIP3    H1  342   0.330   2.656   4.420 -0.4992  0.3717 -1.9149
  126TIP3    H2  343   0.278   2.748   4.528  1.4913  2.0011 -2.2966
  127TIP3   OH2  344   2.060   3.634   4.417  0.5809  0.2291  0.2502
  127TIP3    H1  345   2.082   3.617   4.326 -2.6264  0.9752 -0.7947
  127TIP3    H2  346   2.080   3.727   4.429  1.0818  0.1113  0.3596
  128TIP3   OH2  347   1.576   0.435   2.449  0.2016 -0.0992 -0.0921
  128TIP3    H1  348   1.516   0.501   2.483  2.9118  1.3945  2.1912
  128TIP3    H2  349   1.555   0.429   2.356 -2.2240  1.6455  0.2536
  129TIP3   OH2  350   6.528   5.163   4.781  0.0476  0.3321 -0.1375
  129TIP3    H1  351   6.445   5.179   4.737 -0.8980 -1.8453  0.7226
  129TIP3    H2  352   6.506   5.106   4.855  2.2455  0.0101  0.3422
  130TIP3   OH2  353   5.683   2.128   0.419  0.2562 -0.1701 -0.2836
  130TIP3    H1  354   5.652   2.214   0.389  0.1798 -0.0662  0.0861
  130TIP3    H2  355   5.697   2.078   0.339  1.4058  0.5578 -0.5534
  131TIP3   OH2  356   4.275   2.795   2.962 -0.0531  0.5009  0.4369
  131TIP3    H1  357   4.238   2.870   2.915  0.4996  1.5260  1.5970
  131TIP3    H2  358   4.202   2.760   3.013 -0.0751  0.8366  0.6335
  132TIP3   OH2  359   6.899   6.095   1.396 -0.2796  0.5784  0.0313
  132TIP3    H1  360   6.975   6.081   1.453 -0.6550  0.0333  0.4114
  132TIP3    H2  361   6.895   6.015   1.343 -0.2010  0.8895 -0.4492
  133TIP3   OH2  362   0.666   5.470   4.456  0.6919  0.3262  0.0876
  133TIP3    H1  363   0.726   5.447   4.385  0.6496 -0.5873  0.3299
  133TIP3    H2  364   0.718   5.460   4.535  0.7173  1.2704  0.1922
  134TIP3   OH2  365   0.891   6.471   1.749 -0.2948 -0.3594  0.2548
  134TIP3    H1  366   0.802   6.440   1.734 -0.1991 -0.3222 -0.4427
  134TIP3    H2  367   0.944   6.392   1.752 -0.4278 -0.4184  1.2778
  135TIP3   OH2  368   0.100   3.579   1.152 -0.4450 -0.0385 -0.1701
  135TIP3    H1  369   0.089   3.609   1.062  0.6701 -0.8319 -0.5872
  135TIP3    H2  370   0.018   3.534   1.173 -0.7801  0.3111 -0.7131
  136TIP3   OH2  371   3.371  -0.021   2.504 -0.2000  0.3908  0.1263
  136TIP3    H1  372   3.414   0.050   2.552  0.6744  1.9228 -2.6810
  136TIP3    H2  373   3.418  -0.025   2.420  0.7800 -4.5565  0.6203
  137TIP3   OH2  374   6.441   6.605   2.243  0.3032 -0.2644  0.4410
  137TIP3    H1  375   6.381   6.679   2.247  1.0075  0.3281  0.2168
  137TIP3    H2  376   6.488   6.607   2.327  0.0445 -0.7074  0.6032
  138TIP3   OH2  377   7.158   1.191   4.852 -0.4494 -0.2859 -0.2272
  138TIP3    H1  378   7.250   1.195   4.824 -0.8176  0.3551 -1.3802
  138TIP3    H2  379   7.156   1.243   4.932  0.3173 -0.8775  0.2006
  139TIP3   OH2  380   2.108   0.634  -0.037  0.1422  0.5471  0.1910
  139TIP3    H1  381   2.192   0.636   0.009  0.5959 -1.2524 -0.4609
  139TIP3    H2  382   2.043   0.626   0.033  0.6916 -0.2224  0.6380
  140TIP3   OH2  383   1.310   3.591   4.407 -0.0481 -0.1149  0.1365
  140TIP3    H1  384   1.281   3.500   4.413 -0.3891  0.0675  1.4388
  140TIP3    H2  385   1.308   3.623   4.497  0.6983  0.9946 -0.2250
  141TIP3   OH2  386   3.809   5.805   1.741 -0.5090 -0.2577  0.3287
  141TIP3    H1  387   3.881   5.867   1.730 -0.5362 -0.4561 -1.2316
  141TIP3    H2  388   3.730   5.857   1.723 -0.9706  0.3341  3.4479
  142TIP3   OH2  389   2.109   3.082   3.179  0.3138  0.2383  0.2993
  142TIP3    H1  390   2.035   3.134   3.208 -0.6540 -0.9871  0.1105
  142TIP3    H2  391   2.162   3.142   3.127 -0.5945  1.1046  0.3512
  143TIP3   OH2  392   3.317   1.908   5.550 -0.0388 -0.0361  0.3329
  143TIP3    H1  393   3.378   1.855   5.498  0.2597  0.4120  0.2206
  143TIP3    H2  394   3.255   1.844   5.586  1.0751 -0.6315  1.2699
  144TIP3   OH2  395   4.576   6.053   4.860  0.5851  0.0198 -0.1373
  144TIP3    H1  396   4.534   6.082   4.941  1.0067  0.3190 -0.0253
  144TIP3    H2  397   4.505   6.055   4.795  0.5293  1.0360 -0.0701
  145TIP3   OH2  398   0.506   2.595   1.360  0.0318  0.2415 -0.5078
  145TIP3    H1  399   0.466   2.559   1.281 -0.7636  2.3930 -1.1575
  145TIP3    H2  400   0.472   2.541   1.431 -2.1571  0.4624 -1.3020
  146TIP3   OH2  401   3.710   3.636   2.408  0.2984 -0.5912  0.1266
  146TIP3    H1  402   3.759   3.555   2.421 -1.1850 -1.3162  1.4963
  146TIP3    H2  403   3.619   3.612   2.423 -0.1805  1.3336  0.6020
  147TIP3   OH2  404   6.369   0.895   3.650  0.5831 -0.4237 -0.0285
  147TIP3    H1  405   6.411   0.981   3.648  1.3933 -0.7928  0.7357
  147TIP3    H2  406   6.354   0.874   3.558  1.3327  0.0685 -0.2704
  148TIP3   OH2  407   5.286   0.866   3.020  0.0030  0.9306 -0.0510
  148TIP3    H1  408   5.376   0.860   2.986 -0.3449 -1.9847 -0.8064
  148TIP3    H2  409   5.296   0.851   3.114  0.3839  1.5864  0.0173
  149TIP3   OH2  410   0.315   4.861   5.199  0.1924 -0.0856 -0.1090
  149TIP3    H1  411   0.334   4.815   5.117  0.2051 -0.0653 -0.1171
  149TIP3    H2  412   0.224   4.837   5.218  0.0950  0.1501 -0.2848
  150TIP3   OH2  413   1.291   5.646   2.265 -0.5050  0.0047 -0.2759
  150TIP3    H1  414   1.233   5.573   2.241 -0.4862  0.0493 -0.4631
  150TIP3    H2  415   1.322   5.625   2.353 -1.1715  0.2063  0.0176
  151TIP3   OH2  416   0.774   1.546   1.612 -0.1342  0.1951  0.6554
  151TIP3    H1  417   0.684   1.579   1.620 -0.1575  0.5130 -0.6247
  151TIP3    H2  418   0.769   1.482   1.541  1.1322  2.1794 -1.3424
  152TIP3   OH2  419   0.843   6.544   0.816  0.4256 -0.1665  0.3704
  152TIP3    H1  420   0.876   6.633   0.805  0.5932 -0.2409  0.2858
  152TIP3    H2  421   0.910   6.500   0.867  1.6481 -1.0212 -1.8350
  153TIP3   OH2  422   4.593   1.093   2.889  0.2914 -0.3683 -0.1935
  153TIP3    H1  423   4.573   1.186   2.902 -0.1826 -0.5873  0.6897
  153TIP3    H2  424   4.611   1.086   2.795  1.2103  0.7791 -0.1258
  154TIP3   OH2  425   0.184   0.613   2.386  0.2477  0.0452 -0.6844
  154TIP3    H1  426   0.243   0.686   2.365  0.3701  0.8192  1.9128
  154TIP3    H2  427   0.109   0.626   2.328  1.1499  1.0629 -1.6774
  155TIP3   OH2  428   4.172   2.372   3.282 -0.3935  0.4129  0.0834
  155TIP3    H1  429   4.218   2.438   3.334 -0.8593 -0.3154  1.4590
  155TIP3    H2  430   4.079   2.386   3.303 -0.5154 -0.5010  0.1656
  156TIP3   OH2  431   4.604   4.669   3.678 -0.1102  0.4192 -0.2443
  156TIP3    H1  432   4.621   4.710   3.763 -0.9220 -0.4537  0.3511
  156TIP3    H2  433   4.688   4.672   3.632  0.3022  1.0014  0.5413
  157TIP3   OH2  434   2.584   2.478   2.090 -0.2275 -0.2679  0.0227
  157TIP3    H1  435   2.560   2.457   2.000  0.6888 -0.0945 -0.2674
  157TIP3    H2  436   2.555   2.402   2.141 -0.5662 -0.4556 -0.4398
  158TIP3   OH2  437   2.072   3.634   2.880 -0.5044  0.7109 -0.4885
  158TIP3    H1  438   1.985   3.594   2.873 -0.1519  0.1013 -1.7764
  158TIP3    H2  439   2.072   3.677   2.965 -1.4289 -0.8134  0.3328
  159TIP3   OH2  440   0.098   0.055   4.980 -0.4148  0.2790  0.6536
  159TIP3    H1  441   0.143  -0.020   5.019  0.0870  0.7764  1.0452
  159TIP3    H2  442   0.016   0.062   5.028  0.0191  0.6364  1.3552
  160TIP3   OH2  443   3.565   2.503   2.471 -0.6086  0.0882  0.2383
  160TIP3    H1  444   3.562   2.408   2.484  0.8638  0.0899  0.8781
  160TIP3    H2  445   3.644   2.517   2.419 -2.3166  0.7683 -2.3006
  161TIP3   OH2  446   2.055   6.399   0.087  0.3242 -0.4848 -0.5768
  161TIP3    H1  447   2.132   6.402   0.143 -0.5083 -0.5449  0.5894
  161TIP3    H2  448   2.064   6.475   0.029  0.9341 -0.1360 -0.0312
  162TIP3   OH2  449   0.432   2.203   1.988 -0.6051  0.1234  0.2828
  162TIP3    H1  450   0.524   2.175   1.988 -0.4063  0.7547 -0.5703
  162TIP3    H2  451   0.397   2.166   2.069  0.2743 -0.5318  0.3881
  163TIP3   OH2  452   5.269   0.639   5.471  0.0502  0.6611  0.1369
  163TIP3    H1  453   5.176   0.651   5.450 -0.1311  0.3693  0.7421
  163TIP3    H2  454   5.309   0.724   5.454 -0.6747  1.3286  1.5566
  164TIP3   OH2  455   3.749   0.389   0.286 -0.2852 -0.0656  0.2902
  164TIP3    H1  456   3.797   0.309   0.309  0.5835  0.2768 -0.2709
  164TIP3    H2  457   3.802   0.429   0.217 -1.3039  0.4185 -0.2223
  165TIP3   OH2  458   6.142   5.183   4.289 -0.0322  0.1589  0.4681
  165TIP3    H1  459   6.234   5.167   4.309  0.1607 -0.1653 -0.6220
  165TIP3    H2  460   6.143   5.222   4.202 -0.9762 -0.5725  0.1194
  166TIP3   OH2  461   0.513   2.815   3.241  0.0254 -0.3084  0.6445
  166TIP3    H1  462   0.441   2.794   3.182 -0.3778  1.7813  0.3248
  166TIP3    H2  463   0.496   2.761   3.319 -2.2885  0.6046  0.8528
  167TIP3   OH2  464   3.027   1.785   3.415 -0.1802 -0.2032  0.0993
  167TIP3    H1  465   3.094   1.778   3.347  0.0324  0.9297  0.1645
  167TIP3    H2  466   2.989   1.698   3.421  2.3957 -1.3614  1.1826
  168TIP3   OH2  467   0.705   1.220   3.533  0.4991  0.0536 -0.0234
  168TIP3    H1  468   0.668   1.161   3.467  0.2231  1.3859 -1.1344
  168TIP3    H2  469   0.702   1.306   3.490  1.8151  0.7054  1.1529
  169TIP3   OH2  470   5.663   4.513   5.233  0.2889 -0.1180 -0.1267
  169TIP3    H1  471   5.724   4.503   5.305 -0.0174  0.6444  0.2558
  169TIP3    H2  472   5.718   4.535   5.157  0.4885  0.7751  0.2592
  170TIP3   OH2  473   1.707   0.073   0.126  0.5678 -0.1702 -0.2347
  170TIP3    H1  474   1.747   0.159   0.120  1.0105 -0.4116 -0.7907
  170TIP3    H2  475   1.761   0.017   0.071 -0.0967 -0.6651 -0.3978
  171TIP3   OH2  476   4.181   6.309   2.635  0.2177  0.4840 -0.5456
  171TIP3    H1  477   4.191   6.404   2.627 -1.9909  0.7297 -1.2410
  171TIP3    H2  478   4.131   6.296   2.715 -0.7208  0.0537 -1.1747
  172TIP3   OH2  479   2.184   0.511   2.676 -0.7350  0.2293 -0.7148
  172TIP3    H1  480   2.219   0.435   2.629 -1.7152  0.2799 -1.5454
  172TIP3    H2  481   2.257   0.573   2.677 -0.0771 -0.5119 -0.4451
  173TIP3   OH2  482   1.650   5.772   1.799  0.1493 -0.2123  0.1971
  173TIP3    H1  483   1.718   5.781   1.733  0.0737 -0.1942  0.1206
  173TIP3    H2  484   1.620   5.681   1.790  0.7723 -0.4893  0.8297
  174TIP3   OH2  485   5.423   0.552   2.274  0.1876 -0.4978 -0.3494
  174TIP3    H1  486   5.510   0.514   2.269  0.1621 -0.7131  0.5911
  174TIP3    H2  487   5.433   0.642   2.243  0.7086 -0.5683 -0.3846
  175TIP3   OH2  488   2.695   4.176   2.050 -0.3239 -0.4012  0.5365
  175TIP3    H1  489   2.708   4.085   2.077  3.0042 -0.2593 -0.1638
  175TIP3    H2  490   2.778   4.220   2.071 -2.3481  2.9749  2.4263
  176TIP3   OH2  491   1.393   0.565   1.087  0.5532 -0.1891  0.0355
  176TIP3    H1  492   1.473   0.579   1.138  0.6171  1.6751 -0.5206
  176TIP3    H2  493   1.385   0.642   1.031 -1.6166 -0.3409  0.0272
  177TIP3   OH2  494   0.614   6.189   1.037 -0.0390  0.1523  0.0908
  177TIP3    H1  495   0.555   6.114   1.049  0.9797 -0.3368  2.5303
  177TIP3    H2  496   0.701   6.150   1.028  0.5187  1.0115  1.5043
  178TIP3   OH2  497   0.738   0.788   3.951 -0.4074  0.0146 -0.0221
  178TIP3    H1  498   0.763   0.699   3.930  1.2204  0.6683 -0.9983
  178TIP3    H2  499   0.811   0.842   3.921 -1.1855  1.6501  0.8742
  179TIP3   OH2  500   2.888   1.620   3.737 -0.2775  1.3457 -0.6559
  179TIP3    H1  501   2.893   1.608   3.642 -0.1785 -1.8618 -0.3355
  179TIP3    H2  502   2.800   1.592   3.761  0.7504 -1.2415  0.4894
  180TIP3   OH2  503   3.979   5.722   3.548  0.1450 -0.5192 -0.1360
  180TIP3    H1  504   4.037   5.793   3.575 -1.3926  0.7204  0.0719
  180TIP3    H2  505   3.901   5.733   3.603 -0.2517 -2.1957 -0.3180
  181TIP3   OH2  506   4.686   2.656   0.022 -0.5354 -0.6918 -0.1473
  181TIP3    H1  507   4.722   2.568   0.035 -1.2111 -0.8384  0.9098
  181TIP3    H2  508   4.702   2.700   0.106 -0.2891  0.1677 -0.6385
  182TIP3   OH2  509   2.065   1.457   4.133  0.1707 -0.0348 -0.1363
  182TIP3    H1  510   2.004   1.411   4.192 -1.2391  0.8187 -0.8694
  182TIP3    H2  511   2.012   1.479   4.056  1.1708  1.5343 -0.4221
  183TIP3   OH2  512   2.607   4.112   5.549 -0.2332 -0.2471  0.0089
  183TIP3    H1  513   2.518   4.119   5.514 -0.1972  0.6688  0.0835
  183TIP3    H2  514   2.626   4.018   5.548 -0.6531 -0.3298 -1.3639
  184TIP3   OH2  515   4.904   2.620   4.308 -0.1213  0.1633  0.1902
  184TIP3    H1  516   4.901   2.544   4.366 -1.3606  1.8148  2.4743
  184TIP3    H2  517   4.991   2.657   4.321  1.3061 -1.8831 -2.5324
  185TIP3   OH2  518   3.019   3.885   0.297  0.2429  0.2820  0.6461
  185TIP3    H1  519   3.031   3.899   0.203 -0.5162 -1.2342  0.2903
  185TIP3    H2  520   3.092   3.932   0.338  0.0283  1.7917 -0.6150
  186TIP3   OH2  521   3.262   6.180   2.560  0.4430 -0.3791  0.1648
  186TIP3    H1  522   3.286   6.111   2.499  1.6739 -0.2672  0.4788
  186TIP3    H2  523   3.242   6.256   2.505 -2.3341 -1.3338 -0.2558
  187TIP3   OH2  524   2.671   1.374   1.908 -0.1420  0.4399 -0.0610
  187TIP3    H1  525   2.656   1.286   1.943 -4.4018 -0.1338 -2.6280
  187TIP3    H2  526   2.736   1.362   1.839 -1.0091 -0.8205 -0.6865
  188TIP3   OH2  527   4.583   1.222   4.321  0.2779  0.2034  0.1701
  188TIP3    H1  528   4.619   1.311   4.317 -0.3991  0.5006  0.6142
  188TIP3    H2  529   4.592   1.197   4.413 -0.4503  0.2020  0.2464
  189TIP3   OH2  530   1.240   6.251   5.370  0.1661  0.1483  0.0421
  189TIP3    H1  531   1.179   6.318   5.399  0.2003 -0.1468  0.8210
  189TIP3    H2  532   1.302   6.297   5.314 -0.7987  0.4389 -0.8213
  190TIP3   OH2  533   5.732   0.046   3.309  0.4678  0.0290  0.1829
  190TIP3    H1  534   5.659  -0.016   3.307  0.0518  0.4648  1.0337
  190TIP3    H2  535   5.742   0.068   3.402  1.3994  0.3140  0.0297
  191TIP3   OH2  536   2.639   1.374   2.547  0.2080 -0.4688  0.8286
  191TIP3    H1  537   2.646   1.457   2.593  1.8452 -0.2048  0.2002
  191TIP3    H2  538   2.697   1.315   2.596 -0.8847 -1.2237  1.2290
  192TIP3   OH2  539   1.687   0.619   2.100  0.4645 -0.3094  0.5562
  192TIP3    H1  540   1.701   0.624   2.195  0.3125  0.5005  0.5506
  192TIP3    H2  541   1.706   0.708   2.069 -1.1497 -0.1071  0.0718
  193TIP3   OH2  542   4.629   1.214   3.653  0.0600  0.4480  0.4287
  193TIP3    H1  543   4.707   1.249   3.609  1.3814 -3.1686 -0.4539
  193TIP3    H2  544   4.648   1.224   3.746  0.2107  2.2209  0.2400
  194TIP3   OH2  545   5.457   0.819   0.317 -0.4020 -0.5307 -0.3715
  194TIP3    H1  546   5.489   0.729   0.305  1.3762  0.0324 -0.1793
  194TIP3    H2  547   5.441   0.850   0.228 -1.5460 -1.1850 -0.4175
  195TIP3   OH2  548   3.293   1.084   1.051  0.2198 -0.4889 -0.6229
  195TIP3    H1  549   3.211   1.059   1.094 -0.0827  0.2718 -0.7298
  195TIP3    H2  550   3.274   1.078   0.957  0.2662 -0.2505 -0.6480
  196TIP3   OH2  551   2.308   3.922   3.974 -0.2451  0.2755 -0.0344
  196TIP3    H1  552   2.248   3.889   3.906 -0.2916 -0.0315  0.1520
  196TIP3    H2  553   2.383   3.863   3.970 -0.4523 -0.0320  0.4940
  197TIP3   OH2  554   2.613   4.487   4.936 -0.5167  0.3941 -0.1802
  197TIP3    H1  555   2.691   4.432   4.927  1.4276  2.7328  1.2076
  197TIP3    H2  556   2.540   4.426   4.928  1.4564 -2.1547 -0.0472
  198TIP3   OH2  557   0.117   1.462   3.228 -0.5251 -0.1143 -0.0141
  198TIP3    H1  558   0.093   1.551   3.201 -2.2415 -0.4424  0.2605
  198TIP3    H2  559   0.210   1.466   3.246 -0.2912  1.3026 -1.2886
  199TIP3   OH2  560   2.959   3.721   3.472 -0.2062 -0.3699  0.0848
  199TIP3    H1  561   2.956   3.629   3.500 -0.8309 -1.6121 -3.5570
  199TIP3    H2  562   2.868   3.746   3.463 -0.0300  0.2013 -0.1446
  200TIP3   OH2  563   4.690   0.195   3.655 -0.1586  0.2776  0.4361
  200TIP3    H1  564   4.659   0.285   3.661  2.0416  1.1506 -0.4880
  200TIP3    H2  565   4.753   0.186   3.726 -0.2377 -0.4885  0.4186
  201TIP3   OH2  566   2.990   6.645   5.000  0.3414  0.6911  0.6960
  201TIP3    H1  567   3.041   6.725   4.988 -1.2358  1.7506  0.8549
  201TIP3    H2  568   3.014   6.590   4.926  2.0105  0.9725  0.9810
  202TIP3   OH2  569   2.896   2.174   1.098 -0.0215 -0.0480  0.5535
  202TIP3    H1  570   2.913   2.221   1.180 -0.3130 -1.2657  1.3447
  202TIP3    H2  571   2.979   2.175   1.051  0.1300  0.7262  0.8393
  203TIP3   OH2  572   4.149   2.459   0.232  0.6041 -0.7147  0.0241
  203TIP3    H1  573   4.137   2.551   0.253  0.3086 -0.9513  0.9581
  203TIP3    H2  574   4.200   2.424   0.305  0.9326 -1.2343 -0.4459
  204TIP3   OH2  575   1.388   2.500   0.078  0.1969  0.5236  0.4796
  204TIP3    H1  576   1.346   2.427   0.123  0.8315 -0.6300 -0.7366
  204TIP3    H2  577   1.457   2.528   0.138 -0.7481  0.8829  1.4397
  205TIP3   OH2  578   0.903   3.160   1.203 -0.4372 -0.3501  0.2846
  205TIP3    H1  579   0.974   3.103   1.173 -0.5812 -0.4800  0.1895
  205TIP3    H2  580   0.943   3.214   1.272 -0.1153 -0.0727 -0.1150
  206TIP3   OH2  581   2.557   6.696   2.140 -0.0663 -0.2336 -0.5746
  206TIP3    H1  582   2.630   6.636   2.125  0.3558 -0.4530  1.9335
  206TIP3    H2  583   2.481   6.651   2.103  0.4857 -1.6505 -0.0614
  207TIP3   OH2  584   2.604   1.444   5.003 -0.5176  0.1669  0.1689
  207TIP3    H1  585   2.682   1.391   4.984  1.6988  3.1976 -0.0183
  207TIP3    H2  586   2.621   1.479   5.091 -1.1963  1.5826 -0.2415
  208TIP3   OH2  587   3.229   0.788   1.288  0.1972  0.1106  0.2480
  208TIP3    H1  588   3.223   0.865   1.232 -0.1475  0.4638  0.7623
  208TIP3    H2  589   3.319   0.792   1.323  0.2482  0.1660  0.1118
  209TIP3   OH2  590   5.057   2.278   1.539  0.1686  0.2820 -0.2315
  209TIP3    H1  591   5.059   2.214   1.468 -0.5031  0.3733 -0.3406
  209TIP3    H2  592   5.113   2.349   1.509  1.0503 -0.3163 -0.0430
  210TIP3   OH2  593   5.963   1.100   3.225  0.3975  0.2319  0.2534
  210TIP3    H1  594   5.868   1.101   3.223  0.3482  0.0159  1.7581
  210TIP3    H2  595   5.986   1.064   3.310  1.8352 -1.8586 -0.9075
  211TIP3   OH2  596   0.316   3.931   5.809  0.3583  0.1366 -0.0114
  211TIP3    H1  597   0.235   3.929   5.759 -0.4400 -3.2304  1.1669
  211TIP3    H2  598   0.292   3.971   5.893 -0.4274 -1.7678  0.7205
  212TIP3   OH2  599   4.459   5.720   3.142  0.0675  0.5393  0.1200
  212TIP3    H1  600   4.462   5.737   3.048  1.2919 -3.1712 -0.6904
  212TIP3    H2  601   4.539   5.761   3.176  0.6368  0.2336 -0.8271
  213TIP3   OH2  602   0.413   5.610   5.380  0.3743  0.5630  0.1518
  213TIP3    H1  603   0.396   5.554   5.304  1.9618 -1.2543  1.0398
  213TIP3    H2  604   0.387   5.697   5.352 -2.7184 -0.6188 -1.1672
  214TIP3   OH2  605   6.209   4.010   4.007 -0.0253  0.2860 -0.9269
  214TIP3    H1  606   6.268   3.948   3.964 -0.5663  0.8613 -2.5468
  214TIP3    H2  607   6.149   4.038   3.938 -1.1789  0.9491  0.3009
  215TIP3   OH2  608   6.609   6.359   1.656 -0.6065 -0.5264 -0.2341
  215TIP3    H1  609   6.692   6.345   1.611 -1.2295 -0.3973 -1.4718
  215TIP3    H2  610   6.591   6.452   1.647 -0.8307 -0.5285  0.1399
  216TIP3   OH2  611   2.938   1.874   2.709  0.1456  0.5982 -0.5420
  216TIP3    H1  612   2.936   1.964   2.677  0.0006  0.5889 -0.5588
  216TIP3    H2  613   2.981   1.824   2.639  0.2753  0.6630 -0.5093
  217TIP3   OH2  614   3.183   0.141   5.729 -0.0470  0.4750  0.3693
  217TIP3    H1  615   3.257   0.082   5.739  0.9646  1.3023 -1.5605
  217TIP3    H2  616   3.157   0.132   5.637 -1.4101  1.2666  0.6415
  218TIP3   OH2  617   0.294   4.214   3.350 -0.3581  0.1655 -0.3172
  218TIP3    H1  618   0.389   4.222   3.339 -0.3479  1.1262  0.4147
  218TIP3    H2  619   0.283   4.133   3.401  0.1725  0.8487  0.9149
  219TIP3   OH2  620   6.152   1.533   1.037 -0.6963 -0.0269 -0.4031
  219TIP3    H1  621   6.216   1.539   1.107  0.4997 -1.4575 -1.3096
  219TIP3    H2  622   6.201   1.552   0.957 -2.2113  2.3884 -0.8377
  220TIP3   OH2  623   2.341   4.756   0.173  0.5520 -0.1136  0.1369
  220TIP3    H1  624   2.380   4.842   0.160  1.2246 -0.3620  0.4444
  220TIP3    H2  625   2.413   4.701   0.205  0.1196 -0.7732  0.0156
  221TIP3   OH2  626   3.752   0.428   2.759  0.3694 -0.1348 -0.5310
  221TIP3    H1  627   3.715   0.516   2.766 -0.2460 -0.4529  0.4793
  221TIP3    H2  628   3.845   0.443   2.742  0.5066  0.7509  0.7874
  222TIP3   OH2  629   1.726   1.282   5.251  0.4004 -0.1473 -0.0886
  222TIP3    H1  630   1.768   1.199   5.271  1.8472  0.5812  0.0489
  222TIP3    H2  631   1.670   1.300   5.326  1.5592 -0.0824  0.7725
  223TIP3   OH2  632   6.518   6.443   2.644 -0.9438 -0.0789 -0.3221
  223TIP3    H1  633   6.600   6.405   2.678 -0.3228  1.1965 -0.3468
  223TIP3    H2  634   6.459   6.368   2.637 -0.3234 -0.7769  1.2797
  224TIP3   OH2  635   2.339   0.047   5.611  0.4992  0.0191  0.0676
  224TIP3    H1  636   2.375   0.031   5.524  0.8672 -0.4813  0.3050
  224TIP3    H2  637   2.415   0.068   5.665  0.7930 -2.9961  1.0463
  225TIP3   OH2  638   6.576   1.606   4.570 -0.0463  0.2097 -0.4904
  225TIP3    H1  639   6.536   1.667   4.508  0.5136 -0.5897 -1.6894
  225TIP3    H2  640   6.616   1.539   4.514 -1.0418 -1.5248  0.7564
  226TIP3   OH2  641   1.804   6.812   5.352  0.3117 -0.2222 -0.3122
  226TIP3    H1  642   1.848   6.750   5.410 -0.3252 -0.5798 -0.1994
  226TIP3    H2  643   1.855   6.809   5.271  0.6152 -0.4721 -0.1130
  227TIP3   OH2  644   5.531   3.230   2.319 -0.0356 -0.5641  0.5391
  227TIP3    H1  645   5.473   3.155   2.326 -0.7438 -0.5116 -3.0732
  227TIP3    H2  646   5.603   3.200   2.264  0.3311  1.0029  0.0985
  228TIP3   OH2  647   3.516   4.625   5.044  0.7326  0.2370 -0.4759
  228TIP3    H1  648   3.452   4.561   5.014 -1.7243  2.0065  0.5943
  228TIP3    H2  649   3.507   4.699   4.984  0.6894  1.0867  0.5393
  229TIP3   OH2  650   3.677   3.534   1.382 -0.1222 -0.5181 -0.4274
  229TIP3    H1  651   3.755   3.578   1.415 -0.7450  0.1008  0.2651
  229TIP3    H2  652   3.614   3.540   1.454 -0.7047 -1.2769 -0.8599
  230TIP3   OH2  653   5.348   5.697   5.451  0.0283  0.6149 -0.2761
  230TIP3    H1  654   5.402   5.770   5.420  1.8652 -1.1396 -1.4656
  230TIP3    H2  655   5.399   5.658   5.523  0.5164 -1.1607 -1.5162
  231TIP3   OH2  656   6.277   1.922   3.620 -0.4476 -0.1133  0.5755
  231TIP3    H1  657   6.322   1.909   3.703 -0.9411 -3.8311  0.4213
  231TIP3    H2  658   6.250   1.835   3.593 -1.7002  1.1290 -2.7559
  232TIP3   OH2  659   7.024   4.266   4.197  0.5005  0.4095  0.6365
  232TIP3    H1  660   7.049   4.180   4.230  1.3249  0.4026  0.0160
  232TIP3    H2  661   6.929   4.262   4.189  0.4818 -0.2552  1.1191
  233TIP3   OH2  662   6.920   0.551   0.093 -0.7990  0.0517 -0.0567
  233TIP3    H1  663   6.861   0.544   0.168 -1.3121 -0.6832 -0.5076
  233TIP3    H2  664   7.001   0.587   0.129 -1.2352  0.2776  0.7314
  234TIP3   OH2  665   3.772   2.627   2.300 -0.1469 -0.1258  0.5255
  234TIP3    H1  666   3.749   2.618   2.208  0.5983  0.5534  0.2570
  234TIP3    H2  667   3.866   2.608   2.303 -0.1780 -0.2034  1.1481
  235TIP3   OH2  668   3.081   3.151   2.062 -0.7059  0.1362  0.2184
  235TIP3    H1  669   3.164   3.143   2.109  0.1156 -0.8630 -1.3154
  235TIP3    H2  670   3.031   3.216   2.111  0.6099  0.0678  1.7064
  236TIP3   OH2  671   3.652   6.280   5.695 -0.0697  0.1692 -0.1754
  236TIP3    H1  672   3.654   6.186   5.713 -0.6094  0.3029  0.6028
  236TIP3    H2  673   3.569   6.311   5.730  0.4378  1.0761  0.2787
  237TIP3   OH2  674   3.653   2.654   3.301 -0.1540 -0.6718  0.5041
  237TIP3    H1  675   3.674   2.639   3.208 -2.5131 -0.7415 -0.0712
  237TIP3    H2  676   3.610   2.574   3.329 -0.8446 -0.0600  1.2168
  238TIP3   OH2  677   2.726   5.660   4.769  0.0969  0.0191  0.0346
  238TIP3    H1  678   2.712   5.636   4.861  0.4452 -2.4869 -0.4765
  238TIP3    H2  679   2.771   5.584   4.732 -0.3767  0.8076 -2.3085
  239TIP3   OH2  680   2.035   6.084   1.451  0.1724 -0.5630 -0.5589
  239TIP3    H1  681   2.003   6.174   1.465  0.2805 -0.5055 -0.6735
  239TIP3    H2  682   2.060   6.082   1.359  3.0089  0.2114  0.0776
  240TIP3   OH2  683   0.949   5.003   1.949 -0.0910  0.3539  0.3823
  240TIP3    H1  684   0.994   4.935   1.899 -1.3141 -1.2530  1.3649
  240TIP3    H2  685   0.877   5.032   1.891  0.5257  0.9623 -0.0989
  241TIP3   OH2  686   4.831   1.157   1.478  0.0270 -0.2497  0.1994
  241TIP3    H1  687   4.807   1.118   1.394 -0.3906  1.0947 -0.3244
  241TIP3    H2  688   4.757   1.213   1.501  1.8044  2.6183 -0.5733
  242TIP3   OH2  689   3.780   0.772   0.927  0.4623 -0.4498  0.3828
  242TIP3    H1  690   3.818   0.691   0.894  1.2074  0.1015 -0.1422
  242TIP3    H2  691   3.812   0.840   0.868  0.6769  0.3633  1.3891
  243TIP3   OH2  692   2.420   5.069   4.565 -0.6311 -0.4380  0.1622
  243TIP3    H1  693   2.430   4.999   4.501 -1.6592 -0.5172  0.0645
  243TIP3    H2  694   2.422   5.024   4.650 -1.0402 -0.5632  0.1085
  244TIP3   OH2  695   0.479   3.745   2.914  0.5401  0.4548  0.2686
  244TIP3    H1  696   0.555   3.767   2.861 -0.8598  1.0764 -1.6152
  244TIP3    H2  697   0.445   3.830   2.943 -0.4549  0.3384 -0.4782
  245TIP3   OH2  698   1.057   5.301   4.112 -0.1699  0.6303  0.0489
  245TIP3    H1  699   1.115   5.281   4.185 -0.1819  1.2923  0.2467
  245TIP3    H2  700   1.083   5.388   4.084 -2.5158  1.9423  1.6072
  246TIP3   OH2  701   0.840   2.903   4.362  0.1869 -0.0866  0.3144
  246TIP3    H1  702   0.869   2.892   4.453 -1.2300  0.8462  0.9216
  246TIP3    H2  703   0.857   2.819   4.321 -0.6782 -1.1000  1.9111
  247TIP3   OH2  704   4.164   1.235   0.169  0.1493 -1.3526  0.2256
  247TIP3    H1  705   4.203   1.147   0.168  0.0880 -1.4226 -2.1602
  247TIP3    H2  706   4.219   1.285   0.109 -1.5203 -0.5799 -0.7065
  248TIP3   OH2  707   2.155   5.802   5.627  1.2461  0.1577 -0.0732
  248TIP3    H1  708   2.238   5.803   5.580  0.5895  1.2161 -1.2741
  248TIP3    H2  709   2.092   5.840   5.566 -0.1664 -0.7355  0.7513
  249TIP3   OH2  710   7.209   0.945   3.817  0.3652 -0.8434 -0.0532
  249TIP3    H1  711   7.162   1.019   3.779  1.6196 -0.7115 -1.4606
  249TIP3    H2  712   7.168   0.931   3.902 -0.2474  1.1379  0.0271
  250TIP3   OH2  713   1.599   2.356   4.879  0.2732 -0.5322 -0.1519
  250TIP3    H1  714   1.646   2.438   4.868 -1.6564  0.6709 -0.0474
  250TIP3    H2  715   1.666   2.288   4.879  1.7140  0.7671 -3.0219
  251TIP3   OH2  716   3.508   4.831   3.679  0.0989  0.0157 -0.4007
  251TIP3    H1  717   3.549   4.866   3.600  1.9592 -0.3936  0.3541
  251TIP3    H2  718   3.487   4.740   3.656 -0.9826  0.3972 -0.9860
  252TIP3   OH2  719   6.904   3.868   4.009 -0.2576  0.3001 -0.5688
  252TIP3    H1  720   6.914   3.847   3.916 -1.7897 -1.1343 -0.4707
  252TIP3    H2  721   6.950   3.797   4.054 -0.3697  0.4356 -0.2407
  253TIP3   OH2  722   6.228   4.329   2.217  0.2013 -0.7405 -0.1381
  253TIP3    H1  723   6.201   4.320   2.309  0.5690 -0.2849  0.0196
  253TIP3    H2  724   6.181   4.260   2.171  0.0114 -0.9706  0.3959
  254TIP3   OH2  725   3.227   2.127   2.237 -0.0710  0.3287 -0.3422
  254TIP3    H1  726   3.301   2.185   2.218 -1.9310  3.1161  0.2860
  254TIP3    H2  727   3.195   2.157   2.322 -0.7131 -2.1607  0.3518
  255TIP3   OH2  728   0.166   6.162   5.174  0.3695  0.0509  0.0790
  255TIP3    H1  729   0.244   6.109   5.158 -0.9546 -2.2861  1.0021
  255TIP3    H2  730   0.113   6.153   5.095  0.6612  1.0522 -0.2541
  256TIP3   OH2  731   7.214   3.558   4.378 -0.4341  0.1854  0.3315
  256TIP3    H1  732   7.129   3.582   4.416  0.3478  0.5832  1.9289
  256TIP3    H2  733   7.260   3.515   4.450  1.4516  1.7772  0.1385
  257TIP3   OH2  734   6.462   1.356   1.465 -0.0403  0.5406  1.0610
  257TIP3    H1  735   6.469   1.262   1.482  0.5042  0.3391 -0.1968
  257TIP3    H2  736   6.445   1.394   1.551  0.0284 -0.6783  1.6373
  258TIP3   OH2  737   6.615   6.445   1.287 -0.6457  0.4380 -0.5401
  258TIP3    H1  738   6.534   6.468   1.241 -0.4315  1.3017 -0.5127
  258TIP3    H2  739   6.610   6.493   1.370 -0.6448 -0.4461 -0.0140
  259TIP3   OH2  740   6.085   5.678   2.673  0.1045 -0.1273  0.0707
  259TIP3    H1  741   6.055   5.588   2.679  1.8635 -0.9683 -2.3197
  259TIP3    H2  742   6.179   5.673   2.691  0.3712  1.0955 -0.8321
  260TIP3   OH2  743   5.765   4.598   1.495 -0.1399 -1.2551 -0.0489
  260TIP3    H1  744   5.742   4.584   1.403 -0.4548 -1.6977  0.0949
  260TIP3    H2  745   5.695   4.557   1.544  0.7180 -2.2305  0.3989
  261TIP3   OH2  746   5.016   1.460   2.476  0.0183  0.4105  0.0460
  261TIP3    H1  747   5.020   1.367   2.499 -3.4942 -0.4693 -2.2579
  261TIP3    H2  748   4.969   1.500   2.549  1.1611  0.3943  0.8345
  262TIP3   OH2  749   0.128   5.549   4.307  0.0348 -0.1533  0.6467
  262TIP3    H1  750   0.221   5.570   4.296  0.2836 -0.8191  1.3358
  262TIP3    H2  751   0.117   5.465   4.262 -0.0101 -0.5390  1.3626
  263TIP3   OH2  752   0.124   1.251   4.423  0.1753  0.2125  0.2486
  263TIP3    H1  753   0.098   1.233   4.514  0.4916 -0.1340  0.2717
  263TIP3    H2  754   0.164   1.169   4.393  1.3114  0.7458  0.2429
  264TIP3   OH2  755   4.993   6.457   2.402 -0.5182 -0.6014  0.0465
  264TIP3    H1  756   5.030   6.514   2.469 -1.3577 -1.1801  1.0385
  264TIP3    H2  757   5.001   6.369   2.439 -0.5324 -0.9839 -0.8399
  265TIP3   OH2  758   4.880   4.304   4.099  0.4007  0.4674 -0.3662
  265TIP3    H1  759   4.941   4.325   4.169  0.5612 -0.5674 -0.1845
  265TIP3    H2  760   4.861   4.389   4.058  0.3412  1.0734  0.8765
  266TIP3   OH2  761   4.398   6.470   3.849  0.2339  0.1216  0.1111
  266TIP3    H1  762   4.439   6.456   3.764 -0.5627 -2.2504  0.0533
  266TIP3    H2  763   4.346   6.392   3.864 -0.3819  0.8873  2.3874
  267TIP3   OH2  764   6.230   0.096   0.256 -0.2627  0.0022  0.2030
  267TIP3    H1  765   6.154   0.050   0.292  0.4231 -0.5098  1.0293
  267TIP3    H2  766   6.298   0.085   0.322  0.1700  1.5206  0.0444
  268TIP3   OH2  767   6.605   1.748   3.700  0.3413 -0.3520  0.5854
  268TIP3    H1  768   6.674   1.813   3.712  0.4830 -0.4637  0.3557
  268TIP3    H2  769   6.648   1.664   3.715  0.3436 -0.4462  0.0385
  269TIP3   OH2  770   5.203   3.964   1.957 -0.3772 -0.9214  0.0238
  269TIP3    H1  771   5.192   4.028   2.028  0.7059  0.4643 -0.9782
  269TIP3    H2  772   5.121   3.968   1.909 -0.5859 -0.8150  0.3802
  270TIP3   OH2  773   4.515   2.238   0.787 -0.0564 -0.0177  0.2215
  270TIP3    H1  774   4.534   2.269   0.875 -0.6716 -0.0004  0.3491
  270TIP3    H2  775   4.591   2.265   0.735  0.4492 -0.2957  0.8046
  271TIP3   OH2  776   5.115   4.525   3.222 -0.7140 -0.4332  0.1475
  271TIP3    H1  777   5.080   4.452   3.170 -0.1340  0.1317 -1.0928
  271TIP3    H2  778   5.207   4.531   3.195 -0.2893 -0.3651  1.5570
  272TIP3   OH2  779   4.997   2.785   3.369 -0.3554  0.1081 -0.0929
  272TIP3    H1  780   4.907   2.769   3.342 -0.6599 -0.3304  1.1559
  272TIP3    H2  781   5.004   2.881   3.375 -0.5401  0.1725 -0.7780
  273TIP3   OH2  782   1.619   2.213   1.510  0.7874  0.1082 -0.7150
  273TIP3    H1  783   1.694   2.166   1.473  0.5933  0.0073 -0.9808
  273TIP3    H2  784   1.544   2.156   1.494  0.6743  0.1431 -0.3204
  274TIP3   OH2  785   4.104   4.991   4.302 -0.1747 -0.3909  0.2156
  274TIP3    H1  786   4.017   4.952   4.293  0.0264 -0.6662 -0.5696
  274TIP3    H2  787   4.107   5.021   4.393 -1.5399  0.7108 -0.0714
  275TIP3   OH2  788   3.331   2.614   3.274  0.1862 -0.1468 -0.2944
  275TIP3    H1  789   3.405   2.557   3.296 -0.2898 -0.3662  0.8505
  275TIP3    H2  790   3.362   2.669   3.203  1.8790  0.5952  0.9641
  276TIP3   OH2  791   3.130   3.465   3.065  0.4675 -0.0602 -0.4288
  276TIP3    H1  792   3.035   3.461   3.073  0.5887  0.6456  1.9344
  276TIP3    H2  793   3.157   3.374   3.052 -0.4404 -0.4349  0.2039
  277TIP3   OH2  794   5.276   4.836   1.297 -0.1448  0.0402  0.1928
  277TIP3    H1  795   5.334   4.760   1.308 -0.1990  0.1148  1.0047
  277TIP3    H2  796   5.236   4.848   1.382 -1.6416 -0.2212 -0.4444
  278TIP3   OH2  797   4.753   0.309   0.254 -0.2087 -0.1198  0.2476
  278TIP3    H1  798   4.682   0.319   0.191  0.0941 -3.0241 -0.6913
  278TIP3    H2  799   4.826   0.358   0.216 -0.6578 -0.0735 -0.5636
  279TIP3   OH2  800   6.024   0.040   0.533 -0.5321  0.0054  0.4073
  279TIP3    H1  801   6.050   0.028   0.624  0.1310 -0.2712  0.1871
  279TIP3    H2  802   6.012   0.134   0.524 -1.9977 -0.0777  1.1418
  280TIP3   OH2  803   4.904   1.208   2.382 -0.4975  0.5428  0.6582
  280TIP3    H1  804   4.942   1.260   2.311 -0.5412  0.6197  0.6915
  280TIP3    H2  805   4.974   1.146   2.406 -1.6540 -1.9741 -1.9086
  281TIP3   OH2  806   6.933   5.018   1.164  0.2761 -0.0900  0.5131
  281TIP3    H1  807   6.957   5.110   1.153 -0.2147 -0.2121 -2.5731
  281TIP3    H2  808   6.972   4.992   1.248 -0.4163  3.1450  1.9984
  282TIP3   OH2  809   0.221   1.804   4.209  0.2928 -0.6711 -0.0776
  282TIP3    H1  810   0.220   1.872   4.277  2.2391 -0.2457 -0.4003
  282TIP3    H2  811   0.206   1.852   4.128  2.4626 -0.4185 -0.3976
  283TIP3   OH2  812   1.332   4.799   5.868  0.2050 -0.4143  0.2616
  283TIP3    H1  813   1.320   4.708   5.841 -2.0665  0.3331 -1.6230
  283TIP3    H2  814   1.312   4.851   5.790  0.8298  1.7473  1.4287
  284TIP3   OH2  815   0.181   3.633   4.169 -0.0203 -0.0778  0.0912
  284TIP3    H1  816   0.254   3.671   4.218  1.1587 -1.6691 -0.3458
  284TIP3    H2  817   0.125   3.593   4.236  0.8634 -1.0438  0.2840
  285TIP3   OH2  818   5.992   2.101   3.761 -0.2020 -0.1254  0.2031
  285TIP3    H1  819   5.987   2.007   3.777  0.3186 -0.1054  0.4985
  285TIP3    H2  820   6.070   2.112   3.706 -0.7222  0.0471 -0.5198
  286TIP3   OH2  821   2.831   6.006   3.794  0.0358 -0.1421  0.3218
  286TIP3    H1  822   2.927   6.011   3.794  0.0192  0.4313 -0.8059
  286TIP3    H2  823   2.813   5.913   3.809  0.8010 -0.4306 -0.4374
  287TIP3   OH2  824   5.492   3.237   5.447  0.5751 -0.5801  0.1167
  287TIP3    H1  825   5.450   3.322   5.457  0.5124 -0.6678  0.6611
  287TIP3    H2  826   5.419   3.175   5.443  0.6344 -0.7139  0.8731
  288TIP3   OH2  827   5.704   4.481   3.702  0.3641  0.5974 -0.0404
  288TIP3    H1  828   5.767   4.514   3.638  0.4253  0.5839  0.0129
  288TIP3    H2  829   5.619   4.495   3.661  0.4073  0.5095 -0.1619
  289TIP3   OH2  830   0.103   2.590   1.978  0.0185 -0.0934  0.1391
  289TIP3    H1  831   0.178   2.621   1.927  0.8290  0.8426  1.7805
  289TIP3    H2  832   0.114   2.496   1.983  0.7359 -0.0325 -0.1729
  290TIP3   OH2  833   3.429   1.618   1.569 -0.3179 -0.1978 -0.6915
  290TIP3    H1  834   3.349   1.603   1.519 -0.1467 -3.2086 -0.2227
  290TIP3    H2  835   3.409   1.586   1.657  0.8835  0.6449 -0.0741
  291TIP3   OH2  836   5.225   1.430   0.350  0.2196 -0.0026  0.1219
  291TIP3    H1  837   5.295   1.381   0.395  1.2559 -0.1632 -1.5803
  291TIP3    H2  838   5.162   1.362   0.324  1.4826 -0.4672 -1.9250
  292TIP3   OH2  839   3.928   0.977   4.196 -0.3230 -0.0819  0.4437
  292TIP3    H1  840   3.847   1.026   4.187  0.1965  0.4398 -2.3046
  292TIP3    H2  841   3.972   0.987   4.111  1.8910 -1.6252  1.3065
  293TIP3   OH2  842   6.774   4.354   5.825  0.0996 -0.4713 -0.3451
  293TIP3    H1  843   6.817   4.436   5.802  0.0714 -0.2832  0.2504
  293TIP3    H2  844   6.788   4.346   5.920 -0.9963 -0.5062 -0.1769
  294TIP3   OH2  845   6.514   5.789   5.584  0.1951  0.1477  0.2551
  294TIP3    H1  846   6.553   5.724   5.525 -2.3343 -1.2525 -0.0087
  294TIP3    H2  847   6.462   5.845   5.526  1.9844  2.2698  0.5336
  295TIP3   OH2  848   4.284   4.195   3.485  0.0175  0.3342  0.2195
  295TIP3    H1  849   4.286   4.148   3.402 -1.7375 -0.3459  0.5011
  295TIP3    H2  850   4.315   4.131   3.550 -0.8005  0.0820  0.3772
  296TIP3   OH2  851   6.345   3.488   1.784 -0.3143  0.0625  0.3534
  296TIP3    H1  852   6.345   3.567   1.839 -0.2230  1.0662 -1.0197
  296TIP3    H2  853   6.263   3.492   1.735 -0.2138 -0.5906  0.1173
  297TIP3   OH2  854   2.993   1.256   5.157 -0.6767 -0.7007  0.0511
  297TIP3    H1  855   2.954   1.182   5.110  0.2449  0.5037 -2.8030
  297TIP3    H2  856   2.920   1.294   5.206 -1.7682 -1.8751 -0.6060
  298TIP3   OH2  857   3.023   4.940   1.042  0.3171  0.2544  0.4856
  298TIP3    H1  858   3.103   4.888   1.039 -0.7685 -1.4641 -1.8396
  298TIP3    H2  859   3.040   5.013   0.982  0.1222 -0.2032 -0.1418
  299TIP3   OH2  860   0.808   3.421   2.887  0.0250 -0.6681 -0.2461
  299TIP3    H1  861   0.881   3.401   2.829 -0.8735 -0.7526 -1.3717
  299TIP3    H2  862   0.786   3.338   2.928 -0.0597 -0.8352 -0.6300
  300TIP3   OH2  863   2.361   6.266   4.596 -0.2878 -0.0864 -0.8832
  300TIP3    H1  864   2.401   6.348   4.625 -0.0801  0.1144 -1.7019
  300TIP3    H2  865   2.364   6.209   4.673 -2.4885  1.4107  0.4363
  301TIP3   OH2  866   5.827   4.626   4.501 -0.2931  0.3693 -0.4725
  301TIP3    H1  867   5.806   4.558   4.437 -1.1118  0.3012 -0.1461
  301TIP3    H2  868   5.742   4.655   4.534  0.1301  0.1318  0.8729
  302TIP3   OH2  869   1.354   0.544   0.020 -0.1748  0.1532 -0.2086
  302TIP3    H1  870   1.351   0.590   0.103  1.0987  1.8740 -1.0313
  302TIP3    H2  871   1.346   0.451   0.043  0.3817  0.5615  1.8406
  303TIP3   OH2  872   6.883   6.574   1.326  0.1689 -0.0820  0.5288
  303TIP3    H1  873   6.962   6.520   1.324  0.1421 -0.1154 -0.1329
  303TIP3    H2  874   6.812   6.512   1.341  0.1327 -0.2502 -0.2831
  304TIP3   OH2  875   3.434   4.915   5.823 -0.8855  0.1254 -0.1273
  304TIP3    H1  876   3.499   4.848   5.847 -1.3789  0.1190  1.3002
  304TIP3    H2  877   3.461   4.993   5.872 -1.1410  0.5480 -0.6537
  305TIP3   OH2  878   1.447   6.153   3.803 -0.1470  0.6352 -0.0440
  305TIP3    H1  879   1.357   6.185   3.807 -0.1766  0.4329  2.1239
  305TIP3    H2  880   1.439   6.058   3.801  0.0092  0.6078  0.4764
  306TIP3   OH2  881   0.891   0.164   1.734  0.0736 -0.4068 -0.1840
  306TIP3    H1  882   0.967   0.155   1.791 -0.2459  0.9423  0.4984
  306TIP3    H2  883   0.846   0.080   1.740  0.7336 -0.7187  0.5643
  307TIP3   OH2  884   1.431   4.839   4.794  0.1677  0.2190  0.3875
  307TIP3    H1  885   1.461   4.853   4.884 -0.3860 -0.6612  0.7336
  307TIP3    H2  886   1.445   4.745   4.779 -1.6269 -0.0680  0.2918
  308TIP3   OH2  887   3.625   6.181   0.551  0.4395  0.0835 -0.0112
  308TIP3    H1  888   3.697   6.131   0.590  0.4359 -0.4103 -0.6361
  308TIP3    H2  889   3.644   6.272   0.576  0.2051 -0.2496  1.5247
  309TIP3   OH2  890   0.824   6.776   2.872 -0.6627 -0.1529 -0.0893
  309TIP3    H1  891   0.812   6.751   2.963  0.5267  0.5752  0.2906
  309TIP3    H2  892   0.882   6.709   2.836  1.0407  0.9573  0.4419
  310TIP3   OH2  893   6.032   2.346   2.999 -0.0759 -0.4380 -0.4612
  310TIP3    H1  894   5.943   2.381   3.007  0.5704  2.2139 -3.0767
  310TIP3    H2  895   6.089   2.417   3.027  1.2721 -1.0887 -1.4262
  311TIP3   OH2  896   4.499  -0.034   0.953 -0.1305 -0.3669 -0.2307
  311TIP3    H1  897   4.477  -0.019   1.044 -0.3099 -1.4651 -0.0816
  311TIP3    H2  898   4.504   0.054   0.915 -0.5908  0.0803  0.7011
  312TIP3   OH2  899   7.113   3.650   0.092 -0.1928 -0.4843 -0.0922
  312TIP3    H1  900   7.195   3.678   0.053 -0.4198  1.2721  0.6197
  312TIP3    H2  901   7.097   3.712   0.164 -0.8867 -2.2769  1.4012
  313TIP3   OH2  902   2.935   4.646   5.007 -0.1775  0.3407 -0.4773
  313TIP3    H1  903   2.873   4.674   5.074  2.3534  1.4532  1.5928
  313TIP3    H2  904   2.919   4.705   4.933 -2.9587 -0.8471 -0.9355
  314TIP3   OH2  905   5.922   2.963   2.255 -0.1723  0.2830  0.0401
  314TIP3    H1  906   5.919   3.008   2.338 -3.6795  3.1224 -1.4077
  314TIP3    H2  907   5.956   3.028   2.193  1.2047 -1.3670 -1.0551
  315TIP3   OH2  908   4.425   5.938   5.360 -0.2424 -0.4782  0.8063
  315TIP3    H1  909   4.360   5.919   5.427 -1.1587  1.5302  0.5480
  315TIP3    H2  910   4.395   5.890   5.282 -1.0278 -0.1089  0.8827
  316TIP3   OH2  911   1.984   3.117   1.792  0.0217 -0.1416 -0.5461
  316TIP3    H1  912   2.074   3.124   1.822 -0.5066  0.4895  0.9961
  316TIP3    H2  913   1.937   3.076   1.865 -0.5899 -2.4671 -2.1233
  317TIP3   OH2  914   2.181   6.246   1.269 -0.0218  0.2184  0.3602
  317TIP3    H1  915   2.212   6.267   1.181  0.2321  1.0624  0.6409
  317TIP3    H2  916   2.261   6.240   1.323  0.0200 -2.3372  0.1677
  318TIP3   OH2  917   0.087   0.191   0.087  0.2847 -0.2483 -0.2039
  318TIP3    H1  918   0.123   0.161   0.170 -0.9873 -0.0668  0.4478
  318TIP3    H2  919   0.019   0.254   0.112  0.6984  0.7251 -1.4265
  319TIP3   OH2  920   4.782   1.223   3.212  0.0840 -0.3229  0.0393
  319TIP3    H1  921   4.765   1.255   3.123  0.6359  0.7814  0.3152
  319TIP3    H2  922   4.865   1.264   3.236 -1.3806  1.6428  2.1000
  320TIP3   OH2  923   4.250   4.806   1.877 -0.2954  0.1866  0.3977
  320TIP3    H1  924   4.336   4.778   1.848 -0.6427  1.0554 -1.6607
  320TIP3    H2  925   4.256   4.808   1.972  2.2444  1.0855  0.2954
  321TIP3   OH2  926   4.524   3.917   2.596  0.2606 -0.6245 -0.2944
  321TIP3    H1  927   4.479   3.948   2.518 -2.2067  0.5247  1.4815
  321TIP3    H2  928   4.522   3.821   2.588 -1.5149 -0.5698 -0.8428
  322TIP3   OH2  929   5.694   2.699   3.682 -0.1412  0.0945  0.4736
  322TIP3    H1  930   5.629   2.763   3.653 -1.4290 -0.5772  1.7583
  322TIP3    H2  931   5.704   2.715   3.776  0.9790 -0.3315  0.4450
  323TIP3   OH2  932   5.438   5.723   1.344 -0.0168 -0.5495  0.0702
  323TIP3    H1  933   5.450   5.674   1.262 -0.9695  0.7572 -0.8958
  323TIP3    H2  934   5.396   5.660   1.403 -0.6420 -1.1018 -0.9258
  324TIP3   OH2  935   5.914   5.860   0.341  0.4811 -0.1562  1.0323
  324TIP3    H1  936   5.906   5.941   0.291 -0.1452 -0.3367  0.8378
  324TIP3    H2  937   5.950   5.888   0.426  0.9750  0.2235  0.7061
  325TIP3   OH2  938   5.834   4.947   4.095 -0.0261  0.2880 -0.1068
  325TIP3    H1  939   5.741   4.970   4.092  0.3534  2.1257  0.5433
  325TIP3    H2  940   5.867   4.971   4.009  0.7801  4.6549  1.1331
  326TIP3   OH2  941   7.075   0.482   2.737  0.3280 -0.3974 -0.1469
  326TIP3    H1  942   7.033   0.412   2.687  2.7218 -2.6822  0.7879
  326TIP3    H2  943   7.161   0.492   2.696  0.6415  0.8618  0.7650
  327TIP3   OH2  944   1.935   3.526   5.745 -0.0367 -0.6152  0.3357
  327TIP3    H1  945   1.896   3.603   5.704 -1.1632  0.3919  3.0795
  327TIP3    H2  946   1.963   3.471   5.672 -0.0401  1.9475 -1.7194
  328TIP3   OH2  947   6.200   5.788   0.599 -1.0450  0.6901 -0.3943
  328TIP3    H1  948   6.254   5.792   0.520 -1.3634 -2.6272 -0.9252
  328TIP3    H2  949   6.137   5.859   0.589  1.6452  3.2195 -0.8782
  329TIP3   OH2  950   4.909   0.169   4.799 -0.0505  0.3476 -0.0151
  329TIP3    H1  951   4.977   0.163   4.867  2.0012  2.2810 -1.7134
  329TIP3    H2  952   4.942   0.115   4.727 -0.1152  1.5095 -0.9582
  330TIP3   OH2  953   0.737   2.484   1.610 -0.1426  0.0291  0.9695
  330TIP3    H1  954   0.755   2.554   1.547 -0.4024 -0.1331  0.7171
  330TIP3    H2  955   0.670   2.430   1.569 -2.3527  1.4373  2.4676
  331TIP3   OH2  956   5.730   5.678   1.919  0.3338  0.5317  0.1792
  331TIP3    H1  957   5.693   5.766   1.929  0.6385  0.6914 -0.0824
  331TIP3    H2  958   5.815   5.683   1.963 -0.1414  0.0306  1.2003
  332TIP3   OH2  959   3.048   1.821   2.954 -0.0772 -0.7439 -0.0088
  332TIP3    H1  960   3.034   1.834   2.861 -2.6818 -0.1772  0.4049
  332TIP3    H2  961   3.067   1.908   2.988  0.8803 -0.9512  0.0406
  333TIP3   OH2  962   6.526   6.246   5.191  0.4371 -0.1673 -0.0333
  333TIP3    H1  963   6.511   6.241   5.286  0.9288 -0.0414  0.0563
  333TIP3    H2  964   6.486   6.166   5.156  0.3841 -0.2901  0.3012
  334TIP3   OH2  965   6.904   2.192   1.406 -0.3892 -0.2301 -0.1003
  334TIP3    H1  966   6.819   2.233   1.422 -1.2881 -0.9711 -2.5388
  334TIP3    H2  967   6.945   2.248   1.340  1.3698  0.4984  1.5344
  335TIP3   OH2  968   5.800   2.964   1.767 -0.3927  0.1737  0.1711
  335TIP3    H1  969   5.861   2.896   1.797 -0.9320 -0.3421  0.1217
  335TIP3    H2  970   5.746   2.919   1.702 -0.5610  0.7374 -0.0809
  336TIP3   OH2  971   2.068   3.281   4.918  0.0357 -0.0976 -0.7937
  336TIP3    H1  972   2.155   3.301   4.952  0.0999 -0.2924 -0.8416
  336TIP3    H2  973   2.010   3.293   4.993  0.4245 -2.6233  0.0010
  337TIP3   OH2  974   3.659   1.145   5.528 -0.5115 -0.0452 -0.8782
  337TIP3    H1  975   3.714   1.222   5.545  0.6366 -0.5946 -2.0030
  337TIP3    H2  976   3.624   1.159   5.440 -3.3324  0.9297  0.2546
  338TIP3   OH2  977   5.722   1.802   1.316  0.4786 -0.2914 -0.2325
  338TIP3    H1  978   5.677   1.818   1.233 -0.0212  0.2717  0.1430
  338TIP3    H2  979   5.654   1.812   1.383  0.7077 -1.4853  0.1984
  339TIP3   OH2  980   5.277   0.639   1.637 -0.1371  0.4517 -0.0826
  339TIP3    H1  981   5.265   0.643   1.732  1.6589 -0.1911  0.2211
  339TIP3    H2  982   5.204   0.585   1.606 -0.4668  0.2484  0.9993
  340TIP3   OH2  983   1.602   0.644   5.316 -1.1366 -0.0992  0.5413
  340TIP3    H1  984   1.519   0.597   5.319 -1.8308  1.1207  1.6030
  340TIP3    H2  985   1.648   0.617   5.396 -0.2903 -1.1037 -0.2560
  341TIP3   OH2  986   6.299   0.090   5.732  0.4847  0.0049  0.8524
  341TIP3    H1  987   6.339   0.170   5.766  2.2159 -0.3944 -0.1509
  341TIP3    H2  988   6.278   0.110   5.641  1.0073 -0.6889  0.5712
  342TIP3   OH2  989   5.012   2.005   2.003 -0.0459 -0.0264 -0.3735
  342TIP3    H1  990   4.936   1.957   2.036 -0.7363  0.5042 -1.1575
  342TIP3    H2  991   5.088   1.956   2.037 -0.7059  0.0165  1.2893
  343TIP3   OH2  992   0.798   3.329   2.122 -0.6241 -0.1283 -0.6512
  343TIP3    H1  993   0.790   3.237   2.097 -1.9486 -0.7370  1.6741
  343TIP3    H2  994   0.864   3.330   2.191 -2.4295  0.1553  1.1926
  344TIP3   OH2  995   0.080   3.881   4.460  0.4568 -0.0852 -0.0800
  344TIP3    H1  996   0.080   3.824   4.537  0.9117  1.4645  1.1276
  344TIP3    H2  997   0.173   3.903   4.448  0.3579 -0.1145 -0.9325
  345TIP3   OH2  998   3.814   3.153   2.569 -0.1171 -0.4790  0.6939
  345TIP3    H1  999   3.878   3.124   2.504 -0.8756  1.1985 -0.9115
  345TIP3    H2 1000   3.859   3.221   2.619 -0.0896 -0.5343  0.7444
  346TIP3   OH2 1001   0.160   2.373   3.446 -0.0420 -0.3158 -0.1824
  346TIP3    H1 1002   0.130   2.407   3.530  0.7560  0.8099 -0.3262
  346TIP3    H2 1003   0.248   2.409   3.436  0.2497 -1.2351 -1.0571
  347TIP3   OH2 1004   5.987   1.505   5.288  0.4436 -0.3350 -0.3915
  347TIP3    H1 1005   5.921   1.573   5.271  0.3313  0.4620  2.5996
  347TIP3    H2 1006   5.941   1.423   5.273 -0.0369  0.2102 -2.0852
  348TIP3   OH2 1007   0.725   0.789   0.107  0.7246 -0.2453  0.3179
  348TIP3    H1 1008   0.753   0.735   0.181  0.0880 -0.0561  0.7036
  348TIP3    H2 1009   0.758   0.742   0.030 -0.7590 -1.7924  0.5755
  349TIP3   OH2 1010   4.366   6.325   0.972  0.3962 -0.4383 -0.0193
  349TIP3    H1 1011   4.432   6.258   0.990 -0.4288 -1.3046 -0.1422
  349TIP3    H2 1012   4.282   6.282   0.991 -0.2941 -0.1752 -2.1365
  350TIP3   OH2 1013   3.116   0.431   2.070  0.0428 -0.1755 -0.2487
  350TIP3    H1 1014   3.197   0.391   2.101  0.8923  2.2715  0.9864
  350TIP3    H2 1015   3.073   0.463   2.149  0.2271  2.6374 -1.1589
  351TIP3   OH2 1016   3.721   2.643   0.726 -0.7217  0.0710  0.3905
  351TIP3    H1 1017   3.748   2.557   0.758  1.4187  0.2239 -0.7976
  351TIP3    H2 1018   3.693   2.628   0.635  0.3485  0.6963 -0.0648
  352TIP3   OH2 1019   3.159   2.750   1.514 -0.4963 -0.5440  0.1642
  352TIP3    H1 1020   3.193   2.802   1.587  0.0876 -0.1978 -0.3424
  352TIP3    H2 1021   3.236   2.703   1.481 -0.2104  1.1520 -1.7536
  353TIP3   OH2 1022   6.778   4.951   0.098  0.0228 -0.5505  0.1159
  353TIP3    H1 1023   6.848   4.962   0.033  0.2672  1.2593  0.6087
  353TIP3    H2 1024   6.824   4.923   0.177  0.9730  4.0626  1.5493
  354TIP3   OH2 1025   7.172   2.907   1.652  0.3958  0.2471 -0.1193
  354TIP3    H1 1026   7.109   2.978   1.663  0.7899  0.6665 -0.4865
  354TIP3    H2 1027   7.226   2.934   1.578 -0.7857 -1.4510 -1.6862
  355TIP3   OH2 1028   4.837   3.053   0.881  0.1898  0.0667 -0.2225
  355TIP3    H1 1029   4.748   3.087   0.872  0.9259  1.5537 -2.7723
  355TIP3    H2 1030   4.885   3.124   0.923  0.5051 -0.1209 -0.2605
  356TIP3   OH2 1031   6.227   0.245   0.620 -0.6308 -0.0529 -0.2028
  356TIP3    H1 1032   6.156   0.270   0.678 -0.6289  1.3041 -0.7469
  356TIP3    H2 1033   6.298   0.219   0.678 -1.2250 -0.4612  0.3563
  357TIP3   OH2 1034   4.673   3.300   4.558 -0.0120  0.7642 -0.4800
  357TIP3    H1 1035   4.620   3.363   4.605  0.4847  0.6978  0.1801
  357TIP3    H2 1036   4.622   3.219   4.559 -0.2604  0.9170 -0.5775
  358TIP3   OH2 1037   5.494   2.499   1.955  0.1211  0.3699 -0.6030
  358TIP3    H1 1038   5.586   2.475   1.944  0.3505  0.6139  0.5976
  358TIP3    H2 1039   5.456   2.490   1.868  0.7386 -1.9507 -0.6978
  359TIP3   OH2 1040   0.822   2.408   0.209  0.2995  0.0352  0.5886
  359TIP3    H1 1041   0.779   2.493   0.219  2.2552  1.1530 -0.1070
  359TIP3    H2 1042   0.915   2.428   0.208  0.7897 -2.0645 -0.1912
  360TIP3   OH2 1043   6.763   0.517   0.617  0.3129 -0.5137  0.2203
  360TIP3    H1 1044   6.828   0.491   0.682 -0.2871 -1.9675  0.2858
  360TIP3    H2 1045   6.685   0.465   0.639 -0.4167  0.1572 -0.6912
  361TIP3   OH2 1046   3.572   2.350   4.672  0.2024 -0.0938  0.5565
  361TIP3    H1 1047   3.513   2.418   4.702 -0.4457 -0.5594  0.3530
  361TIP3    H2 1048   3.515   2.279   4.642  0.8170  0.1103 -1.2249
  362TIP3   OH2 1049   1.179   3.175   0.114 -0.2346  0.1505 -0.1720
  362TIP3    H1 1050   1.122   3.098   0.114 -0.8988  0.6177 -1.2890
  362TIP3    H2 1051   1.267   3.140   0.107 -0.5928 -0.4934 -1.7688
  363TIP3   OH2 1052   0.512   5.698   3.766  0.0636 -0.3486  0.6444
  363TIP3    H1 1053   0.476   5.781   3.796 -2.2431 -1.5374  1.3809
  363TIP3    H2 1054   0.607   5.708   3.775 -0.1722  2.0641  0.9735
  364TIP3   OH2 1055   4.414   5.285   0.485  0.6012 -0.5179  0.5757
  364TIP3    H1 1056   4.402   5.368   0.439 -0.0733 -0.2305  1.2512
  364TIP3    H2 1057   4.423   5.221   0.415  0.0433 -0.0242  0.0302
  365TIP3   OH2 1058   3.902   0.129   4.998  0.2845 -0.4436 -0.3855
  365TIP3    H1 1059   3.989   0.092   4.985  0.5219  0.5102 -1.6324
  365TIP3    H2 1060   3.847   0.086   4.932 -0.4913 -1.8501  1.0810
  366TIP3   OH2 1061   1.722   5.467   3.395 -0.2048  0.5400 -0.5888
  366TIP3    H1 1062   1.752   5.536   3.336 -0.4566 -1.0072 -2.6530
  366TIP3    H2 1063   1.669   5.409   3.340  0.9345 -1.9348  0.7314
  367TIP3   OH2 1064   7.029   2.943   4.884  0.3335 -0.2893  0.8625
  367TIP3    H1 1065   6.975   2.900   4.950 -2.5421  1.4823 -0.1391
  367TIP3    H2 1066   7.039   2.878   4.815  0.6344 -1.0787  1.6306
  368TIP3   OH2 1067   1.372   2.873   5.279  0.4239 -0.4055  0.1907
  368TIP3    H1 1068   1.431   2.846   5.209 -0.6621  0.2381 -1.0319
  368TIP3    H2 1069   1.411   2.953   5.314  1.6948 -1.4651  1.3064
  369TIP3   OH2 1070   3.307   3.290   3.949 -0.1544 -0.0636 -0.4190
  369TIP3    H1 1071   3.256   3.214   3.919  1.7271 -1.5660 -0.0363
  369TIP3    H2 1072   3.257   3.323   4.024 -2.3536  0.7544 -2.1168
  370TIP3   OH2 1073   1.444   6.061   1.290 -0.1710  0.1605 -0.5877
  370TIP3    H1 1074   1.429   6.156   1.292  0.3170  0.2680  2.0339
  370TIP3    H2 1075   1.403   6.029   1.371  2.9173 -1.2658  0.5760
  371TIP3   OH2 1076   4.361   5.135   2.049  0.2891  0.6439 -0.2470
  371TIP3    H1 1077   4.358   5.165   2.140  1.7671 -2.0298  0.8151
  371TIP3    H2 1078   4.279   5.087   2.037  0.5187  0.1846  0.0080
  372TIP3   OH2 1079   0.641   2.102   3.807  0.7642 -0.1633  0.3955
  372TIP3    H1 1080   0.651   2.107   3.902 -0.3545 -0.1373  0.5215
  372TIP3    H2 1081   0.648   2.008   3.787  2.1713 -0.0768  0.3413
  373TIP3   OH2 1082   5.138   2.081   1.337  0.4876 -1.1576 -0.1313
  373TIP3    H1 1083   5.179   2.045   1.258  1.7322  0.7349 -0.4250
  373TIP3    H2 1084   5.163   2.021   1.407  1.7029 -1.3982 -0.7473
  374TIP3   OH2 1085   2.208   1.873   4.115 -0.2806  0.1869  0.1950
  374TIP3    H1 1086   2.161   1.831   4.043 -0.8446 -1.3629  1.4122
  374TIP3    H2 1087   2.238   1.957   4.079 -3.5466  1.0633 -0.7736
  375TIP3   OH2 1088   1.837   2.851   2.687 -0.4420  0.0762 -0.3818
  375TIP3    H1 1089   1.892   2.787   2.642  1.5767  0.8622  0.8059
  375TIP3    H2 1090   1.812   2.807   2.768  2.4363  1.2335  1.2992
  376TIP3   OH2 1091   4.617   0.604   1.746 -0.6541 -0.0021 -0.3603
  376TIP3    H1 1092   4.569   0.595   1.828 -2.5278 -2.8645 -1.6161
  376TIP3    H2 1093   4.552   0.588   1.678  0.7081  2.7622 -2.5361
  377TIP3   OH2 1094   2.666   5.836   0.974 -0.1091 -0.4962 -0.1406
  377TIP3    H1 1095   2.706   5.749   0.971  2.1536  0.4747 -0.2223
  377TIP3    H2 1096   2.629   5.842   1.063 -0.1915 -1.4594 -0.0907
  378TIP3   OH2 1097   1.574   3.115   5.707 -0.0569  0.3138 -0.7701
  378TIP3    H1 1098   1.549   3.028   5.738  0.9006  0.5605  0.7916
  378TIP3    H2 1099   1.496   3.169   5.722 -0.1886  0.0287 -0.4072
  379TIP3   OH2 1100   4.664   4.595   4.951  0.3026  0.1685  0.0952
  379TIP3    H1 1101   4.606   4.558   5.018 -0.1570  1.8728  0.6987
  379TIP3    H2 1102   4.605   4.623   4.882  0.7496 -1.2416 -0.9065
  380TIP3   OH2 1103   6.659   3.560   4.815 -0.1239  0.3003  0.3896
  380TIP3    H1 1104   6.596   3.593   4.879 -1.1467  2.6916 -1.6737
  380TIP3    H2 1105   6.645   3.615   4.738  0.3391 -3.0304 -2.2731
  381TIP3   OH2 1106   3.915   3.447   2.404 -0.1456  0.1766  0.0948
  381TIP3    H1 1107   3.947   3.375   2.350  0.7307  0.4817  0.1853
  381TIP3    H2 1108   3.993   3.481   2.448 -0.5345  1.1655  0.0667
  382TIP3   OH2 1109   1.324   1.000   1.607  0.9902  0.1152 -0.1047
  382TIP3    H1 1110   1.411   0.961   1.613  0.8779 -0.0984  0.1467
  382TIP3    H2 1111   1.286   0.961   1.529  0.7251 -0.5906  0.3753
  383TIP3   OH2 1112   5.751   2.158   3.594 -0.0828 -0.2971 -0.3017
  383TIP3    H1 1113   5.790   2.091   3.650  0.7509  0.0501 -0.4564
  383TIP3    H2 1114   5.664   2.174   3.632 -0.3066 -1.4882 -0.2903
  384TIP3   OH2 1115   1.800   5.753   3.324 -0.3768  0.1641 -0.1980
  384TIP3    H1 1116   1.844   5.808   3.259  1.1002 -1.2351 -0.4545
  384TIP3    H2 1117   1.724   5.718   3.278 -0.3358  0.5799 -0.5953
  385TIP3   OH2 1118   0.361   1.373   3.343 -0.4752 -0.2735 -0.3848
  385TIP3    H1 1119   0.424   1.444   3.338  0.5402 -1.2252 -1.7207
  385TIP3    H2 1120   0.387   1.312   3.274 -0.9775 -2.2084  1.0429
  386TIP3   OH2 1121   2.513   2.389   0.020  0.0464  0.3019  0.1525
  386TIP3    H1 1122   2.503   2.306  -0.027 -0.7642  0.3134  0.2889
  386TIP3    H2 1123   2.499   2.366   0.112 -0.0118  0.5612  0.2093
  387TIP3   OH2 1124   6.901   5.287   2.233 -0.0921  0.0681 -0.0948
  387TIP3    H1 1125   6.812   5.270   2.265  0.5543 -1.4054  1.0431
  387TIP3    H2 1126   6.948   5.205   2.249  1.1267  0.3403 -1.9648
  388TIP3   OH2 1127   2.660   2.377   0.421  0.5086 -0.6461  0.2802
  388TIP3    H1 1128   2.599   2.332   0.362 -1.3293  0.5501  1.1734
  388TIP3    H2 1129   2.746   2.366   0.380 -0.1181 -3.2942 -0.4880
  389TIP3   OH2 1130   5.776   6.507   3.270 -0.7369 -0.2229 -0.3796
  389TIP3    H1 1131   5.776   6.522   3.364  1.9753 -0.9971 -0.1750
  389TIP3    H2 1132   5.806   6.417   3.260  0.6982  0.3726 -1.9860
  390TIP3   OH2 1133   6.581   3.344   3.904 -0.2911 -0.2137 -0.2653
  390TIP3    H1 1134   6.522   3.269   3.904 -0.4607 -0.0843 -0.7154
  390TIP3    H2 1135   6.620   3.344   3.816  0.2819 -0.2222 -0.0145
  391TIP3   OH2 1136   4.771   3.817   3.112  0.3091 -0.3729  0.3293
  391TIP3    H1 1137   4.690   3.851   3.076  1.8356  0.4638 -2.6567
  391TIP3    H2 1138   4.760   3.722   3.111 -0.1477 -0.3275 -1.4215
  392TIP3   OH2 1139   4.830   5.430   3.651 -0.0798  0.0400  0.2927
  392TIP3    H1 1140   4.855   5.400   3.738 -0.0529 -1.0046 -0.0611
  392TIP3    H2 1141   4.801   5.351   3.606  1.7220  0.1976 -1.2757
  393TIP3   OH2 1142   1.108   1.906   0.268  0.2739 -0.5981 -0.0240
  393TIP3    H1 1143   1.038   1.970   0.277  0.1295 -0.4680 -1.7338
  393TIP3    H2 1144   1.189   1.956   0.284  0.0523 -0.4648  0.6958
  394TIP3   OH2 1145   2.283   0.263   3.210  0.1397  0.3603 -0.1568
  394TIP3    H1 1146   2.355   0.263   3.273 -0.1316 -3.0539  0.3506
  394TIP3    H2 1147   2.231   0.185   3.233 -1.9430  0.9398 -2.4637
  395TIP3   OH2 1148   1.713   4.359   3.019 -0.0647  0.0727  0.0262
  395TIP3    H1 1149   1.745   4.306   3.092 -0.4220 -0.5797 -0.2756
  395TIP3    H2 1150   1.630   4.395   3.051 -0.0641  0.0453  0.0596
  396TIP3   OH2 1151   3.810   3.615   3.593  0.2579  0.1856 -0.3814
  396TIP3    H1 1152   3.735   3.674   3.580  1.0871  1.5168  0.5823
  396TIP3    H2 1153   3.774   3.542   3.643 -0.1849  1.4521  1.2487
  397TIP3   OH2 1154   1.265   1.406   2.930  0.0377 -0.0907  0.3145
  397TIP3    H1 1155   1.197   1.468   2.905  1.1309  0.7110 -0.8431
  397TIP3    H2 1156   1.266   1.408   3.026 -1.5360 -0.1236  0.3456
  398TIP3   OH2 1157   2.338   4.205   0.105 -0.0234  0.5587 -0.2902
  398TIP3    H1 1158   2.407   4.248   0.055 -1.7377  1.3689 -2.0791
  398TIP3    H2 1159   2.261   4.210   0.049 -1.2265 -1.5639  1.0232
  399TIP3   OH2 1160   2.551   6.020   1.442 -1.0736 -0.0486 -0.3934
  399TIP3    H1 1161   2.476   5.993   1.495 -0.2728  0.0598  0.8268
  399TIP3    H2 1162   2.567   5.946   1.383 -2.3917  0.1062 -0.9787
  400TIP3   OH2 1163   3.298   1.594   5.205  0.4783 -0.2127 -0.1716
  400TIP3    H1 1164   3.294   1.503   5.234  0.1906  0.6157  2.6533
  400TIP3    H2 1165   3.263   1.592   5.116 -1.3680 -2.5919  0.5072
  401TIP3   OH2 1166   2.927   4.043   1.807 -0.2633 -0.1632  0.1997
  401TIP3    H1 1167   2.910   3.961   1.760  1.1655 -0.1779 -0.3259
  401TIP3    H2 1168   2.856   4.101   1.780 -1.1117 -1.1024  0.3182
  402TIP3   OH2 1169   4.866   6.319   4.364  0.2984 -0.3305 -0.2199
  402TIP3    H1 1170   4.956   6.349   4.354  0.7077 -1.2393  0.5266
  402TIP3    H2 1171   4.818   6.396   4.393  1.1968 -0.2118  1.0398
  403TIP3   OH2 1172   6.714   2.081   0.811 -0.7520 -0.2547 -0.4795
  403TIP3    H1 1173   6.755   2.151   0.761 -0.7097 -0.1468 -0.2942
  403TIP3    H2 1174   6.780   2.055   0.875 -0.9089 -0.2013 -0.2958
  404TIP3   OH2 1175   7.173   4.148   5.498 -0.5661  0.1940  0.1873
  404TIP3    H1 1176   7.200   4.224   5.446 -0.8934  1.3503  1.6630
  404TIP3    H2 1177   7.094   4.176   5.543 -0.9065 -1.1652  0.4658
  405TIP3   OH2 1178   6.968   4.079   0.660 -0.1136 -0.3971 -0.0334
  405TIP3    H1 1179   6.909   4.153   0.670 -0.8753 -0.7632 -1.4391
  405TIP3    H2 1180   7.055   4.117   0.652 -0.3921  0.2865  0.1807
  406TIP3   OH2 1181   1.096   1.267   1.578 -0.0475 -0.1548 -0.0204
  406TIP3    H1 1182   1.167   1.252   1.640  0.7938  1.3379 -0.5648
  406TIP3    H2 1183   1.064   1.355   1.599 -2.4067 -1.1104  0.8199
  407TIP3   OH2 1184   5.389   2.143   1.802 -0.3646  0.0373  0.2395
  407TIP3    H1 1185   5.449   2.207   1.765 -0.0763 -1.2755 -1.6886
  407TIP3    H2 1186   5.302   2.179   1.786 -0.1836  0.4313  0.1385
  408TIP3   OH2 1187   4.222   5.853   4.916  0.7437  0.1731 -0.2355
  408TIP3    H1 1188   4.192   5.943   4.904  1.3028  0.6961  1.7899
  408TIP3    H2 1189   4.192   5.830   5.004  1.4624 -1.2819 -0.3382
  409TIP3   OH2 1190   3.448   3.331   2.729 -0.2937  0.2959 -0.2918
  409TIP3    H1 1191   3.394   3.259   2.697  0.0393  0.2035 -0.6623
  409TIP3    H2 1192   3.515   3.289   2.782 -0.3510  0.3711 -0.1609
  410TIP3   OH2 1193   4.535   2.432   2.745  0.4011 -0.2530  0.2163
  410TIP3    H1 1194   4.448   2.431   2.786 -0.3450  0.9181 -1.2191
  410TIP3    H2 1195   4.533   2.508   2.687  1.2965 -1.9052 -2.1338
  411TIP3   OH2 1196   0.986   3.611   2.349  0.0963 -0.7354  0.6706
  411TIP3    H1 1197   0.968   3.518   2.360 -1.1524 -0.8838 -1.8832
  411TIP3    H2 1198   1.064   3.615   2.294  1.7942 -0.1529  2.9492
  412TIP3   OH2 1199   5.353   5.185   5.239 -0.5451 -0.2190 -0.2113
  412TIP3    H1 1200   5.349   5.147   5.151 -0.1332  1.1875 -0.8589
  412TIP3    H2 1201   5.266   5.170   5.275 -0.3270 -2.0109 -0.3133
  413TIP3   OH2 1202   6.092   1.749   1.590  0.0450 -0.1025  0.7875
  413TIP3    H1 1203   6.152   1.679   1.616  0.3568  0.3943  1.4565
  413TIP3    H2 1204   6.150   1.819   1.559 -0.2401  0.0179  0.5220
  414TIP3   OH2 1205   1.960   0.920   2.168 -0.1328 -0.2605  0.1094
  414TIP3    H1 1206   1.987   0.863   2.240 -1.9219 -1.9421 -0.4924
  414TIP3    H2 1207   2.042   0.941   2.123  0.8436 -0.3897  1.7145
  415TIP3   OH2 1208   2.446   1.727   2.455 -0.0636 -0.0479 -0.4887
  415TIP3    H1 1209   2.506   1.754   2.385 -1.0736  0.4494 -1.1851
  415TIP3    H2 1210   2.359   1.742   2.419 -0.6279 -1.0646  0.3790
  416TIP3   OH2 1211   1.687   3.024   4.674  0.0507  0.4398 -0.1286
  416TIP3    H1 1212   1.602   3.009   4.632 -0.2779 -0.1536  0.6984
  416TIP3    H2 1213   1.701   3.118   4.668 -0.0931  0.3923 -1.3407
  417TIP3   OH2 1214   0.683   3.050   1.574 -0.4207  0.1284  0.0931
  417TIP3    H1 1215   0.644   2.974   1.533 -0.1468  0.6228 -1.1276
  417TIP3    H2 1216   0.664   3.122   1.514  1.9338  0.4708 -0.3429
  418TIP3   OH2 1217   6.051   3.553   3.435 -0.4160 -0.7426  0.1132
  418TIP3    H1 1218   6.051   3.544   3.530 -1.3239 -0.8639  0.1194
  418TIP3    H2 1219   5.958   3.551   3.411 -0.2183 -0.3575 -0.7421
  419TIP3   OH2 1220   6.434   3.174   5.389 -0.4851  0.0760 -0.4166
  419TIP3    H1 1221   6.512   3.213   5.429 -0.4473 -1.8008  1.5904
  419TIP3    H2 1222   6.450   3.179   5.295  1.2141  1.3616 -0.1147
  420TIP3   OH2 1223   0.808   3.873   2.927 -0.1888 -0.1933  0.1952
  420TIP3    H1 1224   0.764   3.877   2.842  1.6071  1.5105 -0.7268
  420TIP3    H2 1225   0.830   3.780   2.938  0.7382 -0.2876 -1.8961
  421TIP3   OH2 1226   5.428   4.798   1.052  0.1044  0.4274 -0.3102
  421TIP3    H1 1227   5.434   4.826   1.143  1.0384  0.6182 -0.4199
  421TIP3    H2 1228   5.338   4.817   1.026 -0.6115 -0.9622  0.9997
  422TIP3   OH2 1229   5.459   6.573   5.318 -0.1997 -0.1081  0.1811
  422TIP3    H1 1230   5.413   6.641   5.367  0.2230  1.1363 -1.0724
  422TIP3    H2 1231   5.528   6.620   5.271 -0.3360 -1.2765 -1.2768
  423TIP3   OH2 1232   6.852   1.132   5.334  0.0059 -0.4003 -0.0615
  423TIP3    H1 1233   6.919   1.193   5.302 -0.9865 -0.6809 -2.9968
  423TIP3    H2 1234   6.809   1.100   5.255 -0.7647 -3.5334  1.4537
  424TIP3   OH2 1235   6.022   1.662   4.661 -0.8284  0.2223 -0.2467
  424TIP3    H1 1236   6.066   1.737   4.621 -0.9125  0.9776  1.0395
  424TIP3    H2 1237   5.964   1.700   4.726 -1.5635 -0.9169 -0.2110
  425TIP3   OH2 1238   3.517   3.624   0.414  0.8905 -0.0019  0.0260
  425TIP3    H1 1239   3.448   3.677   0.373  0.8041 -0.7494 -0.8316
  425TIP3    H2 1240   3.583   3.612   0.345  1.0996 -0.6540  0.3244
  426TIP3   OH2 1241   5.355   2.861   2.990  0.6517  0.0275  0.2371
  426TIP3    H1 1242   5.291   2.854   3.061 -1.1332  0.2590 -1.2487
  426TIP3    H2 1243   5.412   2.785   3.002 -0.5868 -0.8349  1.0120
  427TIP3   OH2 1244   5.570   0.615   3.344 -0.0090 -0.0573 -0.5021
  427TIP3    H1 1245   5.622   0.549   3.298 -0.1498  1.0772 -2.4106
  427TIP3    H2 1246   5.572   0.588   3.436  1.9729 -1.3401 -0.8667
  428TIP3   OH2 1247   1.087   4.712   3.961 -0.3080 -0.8912  0.6098
  428TIP3    H1 1248   1.075   4.751   4.048  0.9580  0.0355  0.4012
  428TIP3    H2 1249   1.012   4.654   3.950 -3.8530  3.2782 -0.0778
  429TIP3   OH2 1250   3.256   1.130   4.455  0.1347 -0.8234  0.2473
  429TIP3    H1 1251   3.307   1.068   4.507  0.3832 -0.4481  0.4575
  429TIP3    H2 1252   3.256   1.211   4.507  1.2439 -0.1322 -0.7811
  430TIP3   OH2 1253   5.476   1.558   4.543  0.2144  0.0932 -0.1528
  430TIP3    H1 1254   5.400   1.525   4.591 -0.3336 -0.8143 -1.5602
  430TIP3    H2 1255   5.439   1.623   4.483  0.2305 -1.5012 -1.9881
  431TIP3   OH2 1256   0.986   6.060   4.836  0.0933 -0.3586  0.3688
  431TIP3    H1 1257   1.020   6.055   4.926  0.7946  0.3000  0.1548
  431TIP3    H2 1258   1.049   6.116   4.790 -0.4228 -0.4447 -0.4610
  432TIP3   OH2 1259   3.686   4.685   5.227  0.3823 -0.0780  0.3954
  432TIP3    H1 1260   3.627   4.652   5.159  1.6722 -0.2825 -0.6853
  432TIP3    H2 1261   3.676   4.780   5.223  0.4238 -0.0902 -0.0734
  433TIP3   OH2 1262   1.341   2.219   0.725  0.4421  0.1530 -0.3750
  433TIP3    H1 1263   1.286   2.183   0.795 -0.5580  2.2635 -0.0009
  433TIP3    H2 1264   1.301   2.186   0.645 -0.0057 -0.1476 -0.0364
  434TIP3   OH2 1265   2.763   5.053   0.895  0.5958  0.6515 -0.0237
  434TIP3    H1 1266   2.840   5.010   0.857  1.0464  0.4489  1.0806
  434TIP3    H2 1267   2.783   5.146   0.891  1.0149  0.5891  0.4808
  435TIP3   OH2 1268   5.777   1.045   1.960  0.5872  0.2580  0.5108
  435TIP3    H1 1269   5.833   1.083   2.028  1.6614 -0.7198  0.2145
  435TIP3    H2 1270   5.834   1.037   1.884 -0.7636  1.8814 -0.7222
  436TIP3   OH2 1271   1.599   3.756   4.737 -0.0784 -0.0033  0.4106
  436TIP3    H1 1272   1.631   3.798   4.817  0.4902  2.3430 -0.9597
  436TIP3    H2 1273   1.674   3.754   4.678 -1.1411  0.9680 -1.0692
  437TIP3   OH2 1274   3.626   0.980   0.401  0.1429  0.8021  0.2420
  437TIP3    H1 1275   3.656   0.974   0.310  0.1697  1.6787  0.1834
  437TIP3    H2 1276   3.548   1.035   0.396 -1.0363 -0.8085  0.5012
  438TIP3   OH2 1277   3.676   0.920   5.183  0.0571 -0.1111 -0.6108
  438TIP3    H1 1278   3.683   0.960   5.097 -2.2598 -0.2923 -0.9517
  438TIP3    H2 1279   3.663   0.993   5.243  2.0583  0.0493 -0.2866
  439TIP3   OH2 1280   1.758   6.313   5.244  0.1838  0.0329  0.3340
  439TIP3    H1 1281   1.704   6.375   5.195  0.3054  0.8459  1.1929
  439TIP3    H2 1282   1.771   6.355   5.329 -0.1277 -1.3997  1.1048
  440TIP3   OH2 1283   2.580   1.488   0.345 -0.2234 -0.1520 -0.3512
  440TIP3    H1 1284   2.547   1.500   0.257  0.0579 -0.5976 -0.5216
  440TIP3    H2 1285   2.652   1.551   0.353 -0.0256 -0.3491 -0.5606
  441TIP3   OH2 1286   3.735   4.279   4.469 -0.2810 -0.4889  0.1791
  441TIP3    H1 1287   3.722   4.227   4.389 -0.3265  0.0661 -0.1774
  441TIP3    H2 1288   3.753   4.214   4.537 -3.9899 -1.3139  0.5784
  442TIP3   OH2 1289   0.143   5.009   0.307  0.0078  0.1626 -0.3861
  442TIP3    H1 1290   0.089   5.086   0.327  1.4792  0.8598  1.0557
  442TIP3    H2 1291   0.173   4.978   0.392 -0.1012 -1.7056 -0.9978
  443TIP3   OH2 1292   3.928   3.928   2.748 -0.0719 -0.2517  0.0145
  443TIP3    H1 1293   3.883   4.013   2.746  1.8827  0.8437 -0.8267
  443TIP3    H2 1294   4.021   3.951   2.744  0.4941 -2.4554 -0.5329
  444TIP3   OH2 1295   4.379   4.673   5.334  0.5203  0.1953 -0.3569
  444TIP3    H1 1296   4.353   4.595   5.384  1.2576  0.6284  0.7315
  444TIP3    H2 1297   4.297   4.706   5.297 -0.6405  1.6645  3.1601
  445TIP3   OH2 1298   3.146   5.698   0.622  0.0018  0.0925 -0.2998
  445TIP3    H1 1299   3.122   5.672   0.533  1.4150 -0.9960 -0.4089
  445TIP3    H2 1300   3.236   5.667   0.632 -0.1294  0.1883  1.5158
  446TIP3   OH2 1301   5.885   6.199   3.893 -0.5271 -0.1394  0.0315
  446TIP3    H1 1302   5.979   6.198   3.909 -0.7089  2.0324  1.5568
  446TIP3    H2 1303   5.874   6.250   3.812 -0.4932  1.6393  1.1079
  447TIP3   OH2 1304   3.093   2.394   4.111  0.5365  0.5862  0.7383
  447TIP3    H1 1305   3.119   2.302   4.115  1.2429  0.8083  1.3707
  447TIP3    H2 1306   3.011   2.398   4.161  0.9723  0.4569  1.4725
  448TIP3   OH2 1307   3.900   3.657   1.458 -0.0655  0.4858 -0.5547
  448TIP3    H1 1308   3.985   3.650   1.414 -0.1884 -0.6671 -0.6304
  448TIP3    H2 1309   3.894   3.750   1.482  1.3335  0.5449 -0.3042
  449TIP3   OH2 1310   0.729   3.706   1.928  0.2132 -0.2507  0.3103
  449TIP3    H1 1311   0.697   3.774   1.988  0.5113 -1.0544  1.3961
  449TIP3    H2 1312   0.671   3.632   1.943 -0.8953  0.1041 -1.7503
  450TIP3   OH2 1313   5.630   4.997   4.597  0.1414 -0.2870 -0.4693
  450TIP3    H1 1314   5.644   5.075   4.650 -0.7638 -0.7370  0.4644
  450TIP3    H2 1315   5.692   5.005   4.525 -0.3827  1.6123 -0.7546
  451TIP3   OH2 1316   5.107   1.927   0.497 -0.7779  0.7083 -0.0965
  451TIP3    H1 1317   5.199   1.910   0.475 -1.0598 -2.0357  0.4631
  451TIP3    H2 1318   5.072   1.972   0.420  0.2297 -1.4299 -1.9333
  452TIP3   OH2 1319   4.072   3.766   5.737  0.3660  0.0303  0.1069
  452TIP3    H1 1320   4.147   3.759   5.678 -1.7082 -2.0632 -2.5465
  452TIP3    H2 1321   4.109   3.799   5.819  3.6904  1.6186 -1.8254
  453TIP3   OH2 1322   4.771   2.930   3.953  0.2587 -0.1622 -0.0933
  453TIP3    H1 1323   4.782   2.839   3.979  1.6689  0.1198  0.3830
  453TIP3    H2 1324   4.788   2.931   3.859  0.5867 -0.3425 -0.0372
  454TIP3   OH2 1325   2.802   4.878   1.416  0.2887 -0.1436  0.1169
  454TIP3    H1 1326   2.853   4.946   1.373 -0.8601 -0.2331 -1.4699
  454TIP3    H2 1327   2.867   4.828   1.466  1.9568 -0.7819 -2.4785
  455TIP3   OH2 1328   4.171   0.969   0.644  0.1271  0.6039 -0.1770
  455TIP3    H1 1329   4.148   1.042   0.587  1.1156  1.7213  0.7588
  455TIP3    H2 1330   4.257   0.994   0.679  0.4837 -1.0297  0.1690
  456TIP3   OH2 1331   6.402   1.913   2.850  0.6507  0.1571  0.2295
  456TIP3    H1 1332   6.377   1.871   2.768  0.7625 -0.3812  0.4642
  456TIP3    H2 1333   6.494   1.938   2.837 -0.0295  2.3135 -0.7032
  457TIP3   OH2 1334   7.177   5.222   4.385 -0.2684 -0.3366 -0.0238
  457TIP3    H1 1335   7.161   5.149   4.444  2.4247 -1.0471 -0.0189
  457TIP3    H2 1336   7.197   5.296   4.443 -2.8495  0.4608 -0.0316
  458TIP3   OH2 1337   6.794   4.846   2.577  0.2481  0.6244 -0.1932
  458TIP3    H1 1338   6.824   4.829   2.487 -0.9633  1.1163 -0.7022
  458TIP3    H2 1339   6.866   4.814   2.632  1.3961  1.1034 -1.3503
  459TIP3   OH2 1340   1.623   3.903   2.020 -0.0447  0.0316  0.6634
  459TIP3    H1 1341   1.560   3.939   2.082 -1.3665 -0.1461 -0.5094
  459TIP3    H2 1342   1.633   3.971   1.953 -1.2303 -1.0027 -0.6514
  460TIP3   OH2 1343   0.044   4.395   2.731 -0.0323 -0.0608  0.0387
  460TIP3    H1 1344  -0.042   4.425   2.701 -0.0252  1.4057  1.3654
  460TIP3    H2 1345   0.050   4.428   2.821  1.9231 -0.1566 -0.0282
  461TIP3   OH2 1346   5.133   1.226   3.548  0.4259 -0.7561  0.8348
  461TIP3    H1 1347   5.114   1.284   3.475 -1.8663 -1.0430  1.1318
  461TIP3    H2 1348   5.192   1.160   3.512  0.3292 -0.1751 -0.4099
  462TIP3   OH2 1349   1.314   5.564   1.739  0.3217  0.3855 -0.3915
  462TIP3    H1 1350   1.323   5.638   1.679 -0.2147  0.6150 -0.1966
  462TIP3    H2 1351   1.344   5.598   1.824 -0.5200  0.5773 -0.1621
  463TIP3   OH2 1352   0.611   0.280   0.286  0.3473 -0.6346  0.5471
  463TIP3    H1 1353   0.543   0.293   0.220 -0.5108 -0.3673  1.4526
  463TIP3    H2 1354   0.636   0.188   0.277 -1.2988 -1.1937  1.2339
  464TIP3   OH2 1355   6.895   3.423   5.244 -0.0089 -0.2821  0.0594
  464TIP3    H1 1356   6.934   3.433   5.157 -0.7977 -0.8125 -0.3714
  464TIP3    H2 1357   6.961   3.458   5.304 -0.0808  1.5816 -0.8609
  465TIP3   OH2 1358   2.304   1.860   4.790 -0.0901  0.1417  0.1712
  465TIP3    H1 1359   2.248   1.847   4.867  0.6695  0.0111  0.7075
  465TIP3    H2 1360   2.346   1.775   4.776 -0.4048  0.0952 -0.5432
  466TIP3   OH2 1361   0.304   1.759   5.746  0.1043 -0.1940  0.4668
  466TIP3    H1 1362   0.364   1.834   5.742 -0.5963  0.3367 -0.7306
  466TIP3    H2 1363   0.222   1.797   5.777 -0.0625 -0.6062  0.5259
  467TIP3   OH2 1364   0.132   0.995   1.650 -0.3045  1.0001  0.3264
  467TIP3    H1 1365   0.203   0.976   1.589 -0.5605  0.5767  0.1533
  467TIP3    H2 1366   0.063   1.033   1.595 -0.8815 -0.2116  0.1858
  468TIP3   OH2 1367   4.469   5.495   2.897 -0.6604  0.1101 -0.0482
  468TIP3    H1 1368   4.415   5.463   2.969 -1.4663  0.8080 -0.3338
  468TIP3    H2 1369   4.448   5.588   2.891 -0.3087  0.1393 -0.9344
  469TIP3   OH2 1370   2.470   4.879   4.366  0.5293  0.6811  0.1536
  469TIP3    H1 1371   2.477   4.922   4.281  2.9948  1.5587  0.6898
  469TIP3    H2 1372   2.556   4.838   4.379 -0.2239 -0.5396  1.6660
  470TIP3   OH2 1373   3.490   6.615   4.688  0.3750  0.0296  0.2118
  470TIP3    H1 1374   3.511   6.671   4.613  0.0932  0.2962  0.3294
  470TIP3    H2 1375   3.499   6.673   4.764 -1.5671  0.3873  0.2154
  471TIP3   OH2 1376   3.405   1.147   5.722 -0.0475 -0.4978 -0.3302
  471TIP3    H1 1377   3.433   1.140   5.630 -1.2293 -2.5619 -0.5847
  471TIP3    H2 1378   3.472   1.099   5.771  0.9596  1.1857  0.0304
  472TIP3   OH2 1379   4.021   2.001   3.976  0.0849 -0.3648 -0.2624
  472TIP3    H1 1380   4.035   1.918   4.021  2.9247 -1.0506 -2.1380
  472TIP3    H2 1381   4.041   2.068   4.042 -1.0423 -1.1331  0.9122
  473TIP3   OH2 1382   3.957   2.186   1.510 -0.2566 -0.6640 -0.0702
  473TIP3    H1 1383   4.023   2.176   1.578  2.4210  0.5507 -2.3248
  473TIP3    H2 1384   3.933   2.096   1.487  0.2531 -1.1107  1.0688
  474TIP3   OH2 1385   3.171   1.312   3.553  0.3246 -0.4672 -0.1674
  474TIP3    H1 1386   3.211   1.249   3.613  0.4671 -1.7047 -1.5132
  474TIP3    H2 1387   3.168   1.267   3.469  1.5612  1.7792 -1.5008
  475TIP3   OH2 1388   3.704   5.939   1.532 -0.5448  0.3744  0.7053
  475TIP3    H1 1389   3.661   6.014   1.491  1.6860  2.0852  1.2651
  475TIP3    H2 1390   3.762   5.905   1.464 -1.6213 -0.9872  0.4216
  476TIP3   OH2 1391   0.300   0.388   5.887 -0.0026 -0.5055  0.1016
  476TIP3    H1 1392   0.216   0.434   5.896 -0.4426 -0.4306 -3.1489
  476TIP3    H2 1393   0.364   0.457   5.870  0.6530 -0.6244  1.8841
  477TIP3   OH2 1394   3.381   0.045   2.126 -0.0204 -0.5432 -0.2030
  477TIP3    H1 1395   3.459   0.056   2.180  0.3348  0.2611 -0.8570
  477TIP3    H2 1396   3.406  -0.019   2.060  1.7633  2.8928 -3.2765
  478TIP3   OH2 1397   6.381   2.222   5.026 -0.1511  0.2825  0.0224
  478TIP3    H1 1398   6.461   2.171   5.039  0.7967  1.8679  0.7451
  478TIP3    H2 1399   6.359   2.209   4.934  0.0351 -1.4153  0.1896
  479TIP3   OH2 1400   2.383   6.070   5.160 -0.0814 -0.2967  0.4212
  479TIP3    H1 1401   2.362   5.980   5.184  0.5363 -0.3301  0.8867
  479TIP3    H2 1402   2.367   6.121   5.239  0.1430 -0.0964  0.3420
  480TIP3   OH2 1403   3.966   0.862   1.170 -0.1530 -0.3096 -0.1022
  480TIP3    H1 1404   4.050   0.892   1.136  0.0073 -1.8485 -1.1937
  480TIP3    H2 1405   3.902   0.884   1.102 -0.4334 -0.2303  0.1830
  481TIP3   OH2 1406   6.447   4.186   5.324  0.0616  0.1517  0.1363
  481TIP3    H1 1407   6.354   4.163   5.317  0.3966 -1.1080 -0.5171
  481TIP3    H2 1408   6.492   4.101   5.322  1.2178  0.7388  0.6332
  482TIP3   OH2 1409   4.384   1.869   2.655 -0.2047  0.6967  0.0976
  482TIP3    H1 1410   4.349   1.814   2.585 -0.0854  0.4062  0.2630
  482TIP3    H2 1411   4.338   1.952   2.645  0.8250  1.1374 -1.1935
  483TIP3   OH2 1412   1.259   1.622   1.061 -0.6154  0.3728  0.1668
  483TIP3    H1 1413   1.192   1.682   1.027 -1.1001  0.2472  0.8911
  483TIP3    H2 1414   1.317   1.678   1.113 -0.4591  0.3880 -0.0206
  484TIP3   OH2 1415   0.025   4.363   5.333 -0.4114  0.0502  0.9094
  484TIP3    H1 1416   0.039   4.423   5.260  0.3570  0.7840  1.6506
  484TIP3    H2 1417   0.008   4.420   5.408  0.1412 -0.6542  1.5831
  485TIP3   OH2 1418   0.204   4.165   1.405 -0.3995 -0.4007  0.1965
  485TIP3    H1 1419   0.292   4.144   1.437 -0.4256 -1.2357 -0.2532
  485TIP3    H2 1420   0.146   4.108   1.456 -0.5997 -0.4569 -0.0917
  486TIP3   OH2 1421   5.234   4.623  -0.001  0.2326  0.1103 -0.3052
  486TIP3    H1 1422   5.189   4.558   0.053 -1.8714  0.6908 -1.2671
  486TIP3    H2 1423   5.300   4.573  -0.049 -0.6842 -1.1554 -0.3040
  487TIP3   OH2 1424   0.093   4.417   1.497  0.1279  0.4877 -0.5708
  487TIP3    H1 1425   0.116   4.331   1.462  0.9536  0.2579  0.4755
  487TIP3    H2 1426   0.042   4.398   1.575 -0.3053  0.9601 -0.7380
  488TIP3   OH2 1427   3.227   0.939   1.715 -0.7242  0.3993 -0.1153
  488TIP3    H1 1428   3.278   0.924   1.636 -2.1834 -0.8468 -0.8865
  488TIP3    H2 1429   3.164   0.866   1.717  0.5961 -0.8920  3.3174
  489TIP3   OH2 1430   4.806   6.255   1.862 -0.0671  0.3056 -0.3462
  489TIP3    H1 1431   4.718   6.227   1.887 -0.9250  1.5316 -1.8931
  489TIP3    H2 1432   4.802   6.350   1.860  1.4245  0.3996 -0.0544
  490TIP3   OH2 1433   4.190   1.019   1.041 -0.3892 -0.1914 -0.6618
  490TIP3    H1 1434   4.243   1.059   1.110 -0.3438 -1.5118  0.0942
  490TIP3    H2 1435   4.241   0.944   1.012 -0.8186 -0.1616 -1.5263
  491TIP3   OH2 1436   4.636   5.151   2.032  0.5450 -0.5291  0.4089
  491TIP3    H1 1437   4.662   5.214   2.098  1.6056 -1.6168  1.0804
  491TIP3    H2 1438   4.540   5.152   2.033  0.5519 -0.0484  1.4797
  492TIP3   OH2 1439   3.229   4.441   5.283 -0.0541 -0.2908 -0.4078
  492TIP3    H1 1440   3.135   4.460   5.291  0.0889 -0.1505  1.3819
  492TIP3    H2 1441   3.272   4.524   5.307  0.5239 -0.7695  0.2634
  493TIP3   OH2 1442   7.191   3.569   4.886 -0.6361  0.2024 -0.2595
  493TIP3    H1 1443   7.135   3.498   4.855  0.5271 -0.1847 -1.5814
  493TIP3    H2 1444   7.150   3.598   4.968 -2.7020 -0.1050 -1.1228
  494TIP3   OH2 1445   5.122   4.735   4.361 -0.4139 -0.2358  0.0130
  494TIP3    H1 1446   5.053   4.715   4.423 -2.6559 -1.1841 -2.6061
  494TIP3    H2 1447   5.095   4.818   4.321 -0.0893 -0.6511 -1.0955
  495TIP3   OH2 1448   5.978   4.116   4.140  0.2071 -0.1228 -0.0265
  495TIP3    H1 1449   6.011   4.205   4.132  1.4230 -0.4814  0.7287
  495TIP3    H2 1450   6.033   4.065   4.081 -0.1132 -0.4611 -0.0319
  496TIP3   OH2 1451   5.876   1.411   0.458  0.4176  0.2317  0.2839
  496TIP3    H1 1452   5.790   1.423   0.500  1.3298 -1.6025  2.9522
  496TIP3    H2 1453   5.938   1.414   0.530  2.2191 -2.2288 -1.0410
  497TIP3   OH2 1454   6.124   1.445   4.547 -0.2774 -0.5285  0.7886
  497TIP3    H1 1455   6.089   1.523   4.591  1.2082  0.5590  0.1244
  497TIP3    H2 1456   6.061   1.427   4.477 -1.4151 -0.8524  1.8503
  498TIP3   OH2 1457   2.881   1.446   4.108  0.0995  0.0605 -0.3384
  498TIP3    H1 1458   2.822   1.473   4.038  1.4350 -1.6980 -2.2699
  498TIP3    H2 1459   2.966   1.482   4.082  0.3618  0.6367  1.2070
  499TIP3   OH2 1460   1.055   4.828   4.212  0.1740 -0.1023 -0.0880
  499TIP3    H1 1461   1.068   4.780   4.294 -3.3738 -1.2095 -0.0060
  499TIP3    H2 1462   1.062   4.921   4.237 -2.1544 -0.3563  1.8683
  500TIP3   OH2 1463   3.283   6.042   2.321 -0.0595  1.2587  0.0615
  500TIP3    H1 1464   3.211   5.980   2.317  0.4308  0.5473  1.6302
  500TIP3    H2 1465   3.353   6.001   2.270 -0.2122  1.2109 -0.1120
  501TIP3   OH2 1466   3.523   3.651   2.747  0.6915 -0.5476  0.2539
  501TIP3    H1 1467   3.516   3.585   2.816  1.2143 -0.4911  0.3650
  501TIP3    H2 1468   3.617   3.656   2.728  0.5425 -0.6603 -0.5628
  502TIP3   OH2 1469   1.575   2.793   5.042 -0.4012 -0.3367  0.4078
  502TIP3    H1 1470   1.494   2.742   5.044 -1.6225  1.5242  0.6946
  502TIP3    H2 1471   1.636   2.740   4.990 -2.4315 -0.9303 -1.4982
  503TIP3   OH2 1472   1.701   4.885   0.253 -0.4526  0.2433  0.3355
  503TIP3    H1 1473   1.669   4.975   0.262 -0.5866  0.1607  0.6868
  503TIP3    H2 1474   1.672   4.858   0.166 -2.0517 -0.1172  0.9513
  504TIP3   OH2 1475   1.400   2.758   2.806 -0.0081 -0.0952 -0.4809
  504TIP3    H1 1476   1.408   2.670   2.841 -1.1532  0.1333  0.4421
  504TIP3    H2 1477   1.457   2.812   2.861  1.3252 -0.3715 -1.5609
  505TIP3   OH2 1478   5.219   5.397   0.465  0.6107  0.0281 -0.2426
  505TIP3    H1 1479   5.157   5.324   0.471  0.2660  0.3335 -0.0714
  505TIP3    H2 1480   5.272   5.390   0.545  2.0662 -1.3610 -1.2618
  506TIP3   OH2 1481   1.006   1.773   0.482  0.5839 -0.1435  0.1886
  506TIP3    H1 1482   1.045   1.776   0.395  1.4956 -1.8228  0.4969
  506TIP3    H2 1483   0.997   1.680   0.501 -2.1219  0.1423  0.8176
  507TIP3   OH2 1484   6.657   2.106   3.642 -0.1003 -0.4277  0.6473
  507TIP3    H1 1485   6.692   2.104   3.553  2.4677  0.3947  1.5526
  507TIP3    H2 1486   6.620   2.194   3.651  0.5601 -0.1494  0.6954
  508TIP3   OH2 1487   4.681   1.805   0.276 -0.0343  0.3291 -0.1701
  508TIP3    H1 1488   4.620   1.879   0.280  1.0611  1.2707 -0.2643
  508TIP3    H2 1489   4.714   1.797   0.366 -1.1757 -0.9786  0.1687
  509TIP3   OH2 1490   0.784   6.637   1.184  0.2905  0.1475  0.0176
  509TIP3    H1 1491   0.756   6.652   1.275 -0.6747  0.4542 -0.3254
  509TIP3    H2 1492   0.820   6.721   1.156 -1.3164  0.6877 -0.5435
  510TIP3   OH2 1493   0.181   0.662   0.907 -0.0179  0.2717 -0.1317
  510TIP3    H1 1494   0.261   0.652   0.856  0.2321 -1.6584  0.5580
  510TIP3    H2 1495   0.211   0.684   0.995 -0.2151 -0.7902  0.2084
  511TIP3   OH2 1496   0.169   1.628   0.772 -0.4577  0.2674  0.3461
  511TIP3    H1 1497   0.156   1.702   0.831 -0.7176  0.9457 -0.5432
  511TIP3    H2 1498   0.081   1.607   0.740 -0.5387 -1.1075  1.3620
  512TIP3   OH2 1499   0.323   3.015   3.902  0.0045  0.1775  0.4327
  512TIP3    H1 1500   0.369   2.937   3.931 -1.2390 -1.2700 -1.3285
  512TIP3    H2 1501   0.273   3.043   3.979  0.9672 -0.3540  1.2733
  513TIP3   OH2 1502   5.951   2.135   3.188 -0.0649 -0.4521 -0.2888
  513TIP3    H1 1503   6.010   2.060   3.190  1.4724  0.7074 -0.5959
  513TIP3    H2 1504   5.987   2.193   3.121 -1.6719  0.2293 -0.6246
  514TIP3   OH2 1505   0.846   3.415   4.004  0.2489  0.3569  0.0635
  514TIP3    H1 1506   0.801   3.352   4.060  0.6332 -0.2051 -0.2503
  514TIP3    H2 1507   0.934   3.379   3.993  0.5185  1.0110 -0.0252
  515TIP3   OH2 1508   0.312   0.730   3.547  0.4987 -0.7813  0.1172
  515TIP3    H1 1509   0.323   0.711   3.641  3.8054  1.7295  0.4558
  515TIP3    H2 1510   0.269   0.816   3.545 -2.6975 -2.2666 -0.9164
  516TIP3   OH2 1511   5.277   5.820   2.015  0.0112  0.6894  0.2553
  516TIP3    H1 1512   5.359   5.798   2.058  0.1009  2.8382  1.3455
  516TIP3    H2 1513   5.272   5.760   1.941  1.9940 -0.2463  0.8036
  517TIP3   OH2 1514   1.093   1.163   4.571  0.3659 -0.1845  0.6392
  517TIP3    H1 1515   0.998   1.154   4.578  0.4777 -1.6569  0.6932
  517TIP3    H2 1516   1.126   1.132   4.656  0.8749  1.1635  0.9599
  518TIP3   OH2 1517   1.700   6.611   5.682  1.0188 -0.2111  0.3941
  518TIP3    H1 1518   1.669   6.638   5.769 -0.3962 -1.6931  0.3990
  518TIP3    H2 1519   1.787   6.574   5.698  0.8313 -0.3428  1.1617
  519TIP3   OH2 1520   5.005   3.611   5.295  0.4054 -0.3611  0.6107
  519TIP3    H1 1521   4.975   3.702   5.295  0.3920 -0.3598 -0.2709
  519TIP3    H2 1522   5.098   3.617   5.273  0.6502 -0.4968  1.5575
  520TIP3   OH2 1523   1.874   4.713   5.142  0.2240  0.4693  0.3545
  520TIP3    H1 1524   1.878   4.741   5.051  0.3238 -2.4377 -0.6573
  520TIP3    H2 1525   1.962   4.727   5.177  0.5962  0.2197 -0.4730
  521TIP3   OH2 1526   2.838   3.435   0.857 -0.1687 -0.3183 -0.1013
  521TIP3    H1 1527   2.931   3.413   0.845 -0.0080  0.6435 -0.7366
  521TIP3    H2 1528   2.833   3.471   0.946  0.2116  0.3283 -0.3369
  522TIP3   OH2 1529   0.136   3.958   0.164 -0.4731 -0.1572 -0.6362
  522TIP3    H1 1530   0.115   3.897   0.094  0.5449 -0.0462 -1.0401
  522TIP3    H2 1531   0.230   3.973   0.157 -0.7889  1.9616 -0.9582
  523TIP3   OH2 1532   2.246   0.285   4.637  0.0631 -0.2912  0.3258
  523TIP3    H1 1533   2.199   0.230   4.575  0.3067  0.3631 -0.4615
  523TIP3    H2 1534   2.178   0.334   4.682 -0.0602  0.2211 -0.3916
  524TIP3   OH2 1535   2.833   4.489   1.532 -0.5127 -0.4120  0.1984
  524TIP3    H1 1536   2.823   4.450   1.445  1.4426  1.1279 -0.8075
  524TIP3    H2 1537   2.771   4.562   1.532  0.6750  0.6327 -0.6159
  525TIP3   OH2 1538   2.597   3.727   1.156  0.3682  0.6289  0.2679
  525TIP3    H1 1539   2.641   3.791   1.212  1.3686  1.1741 -1.0833
  525TIP3    H2 1540   2.506   3.727   1.186  0.5953  1.8557  1.0342
  526TIP3   OH2 1541   4.086   1.165   3.993 -0.3032  0.1748 -0.1543
  526TIP3    H1 1542   4.154   1.222   3.956  0.5081 -0.5219  0.2352
  526TIP3    H2 1543   4.009   1.182   3.939 -0.3163  2.1882  0.3943
  527TIP3   OH2 1544   4.786   0.549   3.404  0.4635 -0.7719 -0.1173
  527TIP3    H1 1545   4.815   0.498   3.329  0.4647  0.0732 -0.7095
  527TIP3    H2 1546   4.694   0.525   3.416  0.3809 -0.6879 -0.5754
  528TIP3   OH2 1547   4.027   2.780   3.652  0.4747  0.2668  0.6856
  528TIP3    H1 1548   3.952   2.830   3.621  0.3391 -0.5604 -0.3799
  528TIP3    H2 1549   4.003   2.688   3.637  0.9531 -0.1157  2.0400
  529TIP3   OH2 1550   0.404   2.796   4.034 -0.3616  0.5930 -0.0485
  529TIP3    H1 1551   0.491   2.757   4.028  0.5051  2.0961  1.5612
  529TIP3    H2 1552   0.349   2.726   4.068  0.1798 -0.4120 -1.1781
  530TIP3   OH2 1553   4.849   2.660   5.116 -0.0659 -0.4693 -0.1292
  530TIP3    H1 1554   4.817   2.602   5.184 -0.3188 -0.7230 -0.4616
  530TIP3    H2 1555   4.926   2.616   5.080 -1.0130 -1.2601 -1.2791
  531TIP3   OH2 1556   0.226   6.356   4.741  0.7726  0.3124 -0.4066
  531TIP3    H1 1557   0.268   6.433   4.703  0.7770 -0.2474 -1.5914
  531TIP3    H2 1558   0.249   6.359   4.834  1.3671  1.3413 -0.5714
  532TIP3   OH2 1559   2.593   1.160   3.121 -0.2934 -0.2354 -0.4740
  532TIP3    H1 1560   2.582   1.255   3.113 -1.7395 -0.1891  1.4281
  532TIP3    H2 1561   2.511   1.123   3.089 -0.2183 -0.7809 -0.0443
  533TIP3   OH2 1562   3.720   4.129   1.306  0.7045  0.3029 -0.6730
  533TIP3    H1 1563   3.785   4.192   1.275  1.1931  1.0513  1.6338
  533TIP3    H2 1564   3.642   4.147   1.253  0.7145  3.1713  0.0928
  534TIP3   OH2 1565   4.557   4.368   2.957 -0.1994 -0.0248 -0.2499
  534TIP3    H1 1566   4.497   4.342   2.887 -1.2398  2.0113 -0.1957
  534TIP3    H2 1567   4.504   4.421   3.015  1.2199  0.2435  0.8611
  535TIP3   OH2 1568   6.194   6.131   0.888 -0.8325 -0.6444 -0.9934
  535TIP3    H1 1569   6.209   6.130   0.794 -2.5779 -0.8700 -1.3131
  535TIP3    H2 1570   6.099   6.133   0.897 -0.6910  0.1521  0.7709
  536TIP3   OH2 1571   4.377   2.505   5.625 -0.0582 -0.0630 -0.1489
  536TIP3    H1 1572   4.465   2.474   5.602 -0.0808  0.2165 -0.6340
  536TIP3    H2 1573   4.357   2.570   5.558 -0.8753 -0.5554 -0.3984
  537TIP3   OH2 1574   5.621   3.598   5.716  0.1865 -0.5295 -0.2295
  537TIP3    H1 1575   5.682   3.642   5.657  0.6780  0.7028  1.1338
  537TIP3    H2 1576   5.534   3.630   5.688  0.5002  1.0142  0.4385
  538TIP3   OH2 1577   2.881   3.144   5.321 -0.7665  0.2091  0.0033
  538TIP3    H1 1578   2.792   3.136   5.287 -0.4792  0.0318 -0.7098
  538TIP3    H2 1579   2.935   3.164   5.244  0.2394 -2.4390 -0.0646
  539TIP3   OH2 1580   6.425   4.269   1.649  0.0077  0.1822  0.6068
  539TIP3    H1 1581   6.375   4.332   1.597 -0.2411 -1.1403 -0.8377
  539TIP3    H2 1582   6.362   4.235   1.712 -0.1674  0.5580  0.6346
  540TIP3   OH2 1583   0.996   1.029   3.622 -0.5706  0.4450 -0.0659
  540TIP3    H1 1584   1.011   1.121   3.643  0.6086  0.7214 -1.8589
  540TIP3    H2 1585   0.995   1.027   3.526  1.6292 -1.6826 -0.1417
  541TIP3   OH2 1586   4.052   6.283   4.988  0.3185  0.1777  0.1396
  541TIP3    H1 1587   4.118   6.301   5.055  2.1599 -1.8568 -1.0222
  541TIP3    H2 1588   3.989   6.225   5.031  1.6045 -1.2925  0.1197
  542TIP3   OH2 1589   0.507   5.347   2.551  0.1788  0.1635 -0.0314
  542TIP3    H1 1590   0.590   5.324   2.594  0.0138  0.7754  0.6171
  542TIP3    H2 1591   0.465   5.409   2.610 -1.5460 -1.3994  0.4744
  543TIP3   OH2 1592   1.286   2.772   0.166  0.0062  0.4478 -0.1728
  543TIP3    H1 1593   1.216   2.708   0.172 -0.9627  1.2436 -2.0739
  543TIP3    H2 1594   1.360   2.732   0.212 -1.2139 -1.0804  0.5143
  544TIP3   OH2 1595   5.009   6.597   4.769 -0.8650  0.0161 -0.2128
  544TIP3    H1 1596   4.960   6.554   4.839 -1.8988  0.2784 -0.7624
  544TIP3    H2 1597   4.967   6.569   4.688 -0.4924  0.7207 -0.6700
  545TIP3   OH2 1598   0.592   0.320   1.222  0.0266 -0.0306 -0.1164
  545TIP3    H1 1599   0.563   0.321   1.313 -1.6370 -0.2412 -0.6197
  545TIP3    H2 1600   0.687   0.331   1.228 -0.1317  0.8283  1.5918
  546TIP3   OH2 1601   0.701   0.555   2.348  0.0395  0.6155  0.4466
  546TIP3    H1 1602   0.740   0.488   2.406 -0.5843  0.0227  0.1945
  546TIP3    H2 1603   0.608   0.532   2.345 -0.1496  1.4079  0.2213
  547TIP3   OH2 1604   3.923   3.540   0.880 -0.1533  0.4739  0.0831
  547TIP3    H1 1605   4.008   3.575   0.905  0.8603 -1.7455 -0.0479
  547TIP3    H2 1606   3.861   3.611   0.900  1.4590  1.4299  1.9967
  548TIP3   OH2 1607   2.747   0.998   0.561  0.3629  0.2328  0.3918
  548TIP3    H1 1608   2.797   0.924   0.527 -1.3509 -1.7285  1.8941
  548TIP3    H2 1609   2.777   1.008   0.651 -0.1581  0.7067  0.5146
  549TIP3   OH2 1610   4.604   4.080   3.219 -0.4471 -0.3419  0.0468
  549TIP3    H1 1611   4.602   4.161   3.270 -1.4481  0.4221 -1.1448
  549TIP3    H2 1612   4.634   4.013   3.280 -1.3148  0.5906  1.5329
  550TIP3   OH2 1613   5.290   0.966   4.257  0.2710 -0.2988 -0.0483
  550TIP3    H1 1614   5.368   0.943   4.308 -0.3425  0.5388  1.3456
  550TIP3    H2 1615   5.245   0.883   4.243  2.0939 -1.0169 -2.1367
  551TIP3   OH2 1616   0.728   1.235   2.174  0.1842  0.1938  0.0928
  551TIP3    H1 1617   0.760   1.305   2.231  0.9117  0.5711 -0.7586
  551TIP3    H2 1618   0.798   1.222   2.110  0.3874 -1.8157  0.6457
  552TIP3   OH2 1619   0.971   3.216   4.560 -0.3938 -0.0787 -0.5819
  552TIP3    H1 1620   0.966   3.229   4.654 -0.3245  0.9684 -0.7110
  552TIP3    H2 1621   0.970   3.305   4.523  1.1460 -0.3923 -1.4815
  553TIP3   OH2 1622   0.174   0.955   0.547  0.2273  0.8264  0.3596
  553TIP3    H1 1623   0.145   0.876   0.501  1.0764 -1.0317  2.8166
  553TIP3    H2 1624   0.216   1.008   0.479  0.3172 -1.1717 -1.2521
  554TIP3   OH2 1625   5.874   0.945   4.235 -0.3385 -0.2394 -0.3093
  554TIP3    H1 1626   5.876   0.948   4.140 -0.9184 -0.8140 -0.3455
  554TIP3    H2 1627   5.828   0.863   4.256 -0.1663 -0.1485  0.4591
  555TIP3   OH2 1628   0.091   6.635   2.474 -0.3951 -0.2286  0.1189
  555TIP3    H1 1629   0.068   6.551   2.436 -0.3518 -1.9430  3.4451
  555TIP3    H2 1630   0.183   6.624   2.501 -0.2586  1.0476  0.2233
  556TIP3   OH2 1631   6.523   3.913   4.109  0.0291 -0.9310 -0.5786
  556TIP3    H1 1632   6.563   3.868   4.034  1.3801  1.0187 -1.1177
  556TIP3    H2 1633   6.491   3.996   4.073 -1.2668 -0.8913  0.5974
  557TIP3   OH2 1634   2.874   1.586   2.346 -0.5909 -0.1613  0.5751
  557TIP3    H1 1635   2.909   1.579   2.257 -1.1630  0.8638  0.2454
  557TIP3    H2 1636   2.789   1.543   2.341 -0.4561 -0.4509  0.7365
  558TIP3   OH2 1637   5.183   1.737   4.396 -0.0342  0.1142  0.1131
  558TIP3    H1 1638   5.223   1.823   4.409  0.7060 -0.1508 -0.3595
  558TIP3    H2 1639   5.202   1.715   4.304  0.6970 -1.0052  0.5114
  559TIP3   OH2 1640   1.501   5.760   4.607 -1.2959 -0.1597 -0.1352
  559TIP3    H1 1641   1.519   5.670   4.633 -2.8948 -0.0320  1.6317
  559TIP3    H2 1642   1.518   5.812   4.686 -1.4883  0.9528 -0.7971
  560TIP3   OH2 1643   2.122   5.583   2.760  0.1459  0.0902 -0.6542
  560TIP3    H1 1644   2.138   5.490   2.781 -2.6497 -0.5327 -0.9225
  560TIP3    H2 1645   2.087   5.620   2.841  2.1268  1.2496 -0.2453
  561TIP3   OH2 1646   1.118   3.224   1.779 -1.0606 -0.5734  0.2250
  561TIP3    H1 1647   1.162   3.146   1.745  1.3514  0.8873 -0.2652
  561TIP3    H2 1648   1.112   3.282   1.703  0.3490  1.0073  1.2303
  562TIP3   OH2 1649   5.810   2.693   1.429  0.0341  0.3902  0.4622
  562TIP3    H1 1650   5.758   2.717   1.506 -0.3789  0.5073  0.1543
  562TIP3    H2 1651   5.790   2.761   1.364  0.3750  0.2934  0.2522
  563TIP3   OH2 1652   2.937   6.667   5.254  0.1486  0.4284 -0.0470
  563TIP3    H1 1653   2.977   6.659   5.168  1.3714 -1.2275  0.6246
  563TIP3    H2 1654   3.008   6.694   5.311  0.0543 -1.2386  0.9232
  564TIP3   OH2 1655   4.563   6.302   3.405 -0.1340 -0.0696  0.5630
  564TIP3    H1 1656   4.650   6.342   3.408 -0.1434  0.1020 -0.9027
  564TIP3    H2 1657   4.504   6.374   3.380 -0.5035 -0.4557  0.2964
  565TIP3   OH2 1658   5.057   6.596   3.867 -0.6436 -0.4867 -0.1593
  565TIP3    H1 1659   5.009   6.677   3.852  0.9476  0.4485 -0.4673
  565TIP3    H2 1660   5.138   6.606   3.816  0.3145 -1.5616  1.0704
  566TIP3   OH2 1661   4.277   2.160   0.896 -0.2837 -0.2699 -0.0496
  566TIP3    H1 1662   4.266   2.071   0.929  1.5274  0.1473  1.8730
  566TIP3    H2 1663   4.344   2.152   0.828  0.4265 -0.2934  0.6418
  567TIP3   OH2 1664   1.968   1.013   4.431  0.2653  0.0828 -0.4271
  567TIP3    H1 1665   1.985   0.925   4.397 -1.0320  0.3929 -1.9980
  567TIP3    H2 1666   1.886   1.005   4.479  1.1081  0.0705  1.0769
  568TIP3   OH2 1667   4.606   4.321   3.327 -0.0849  0.0183 -0.6121
  568TIP3    H1 1668   4.572   4.402   3.289  0.4339  0.7193  0.3835
  568TIP3    H2 1669   4.699   4.339   3.342 -0.0257 -0.6638 -0.1326
  569TIP3   OH2 1670   3.173   5.764   3.558  0.3009  0.1779 -0.4439
  569TIP3    H1 1671   3.165   5.857   3.537  0.3589  0.3512  0.2781
  569TIP3    H2 1672   3.086   5.739   3.589  0.6086  0.2959  0.5316
  570TIP3   OH2 1673   6.659   3.832   2.915 -0.4999  0.5409  0.4060
  570TIP3    H1 1674   6.663   3.927   2.926 -1.6101  0.7240 -0.5943
  570TIP3    H2 1675   6.729   3.812   2.853 -1.5747  0.9999 -0.9982
  571TIP3   OH2 1676   0.813   4.038   1.675 -0.2522 -0.0026  0.2577
  571TIP3    H1 1677   0.824   4.126   1.638  0.7541 -0.1977  0.0823
  571TIP3    H2 1678   0.729   4.043   1.721  0.0820  1.2508  0.7956
  572TIP3   OH2 1679   1.785   3.453   1.404 -0.5008 -0.0026 -0.2601
  572TIP3    H1 1680   1.716   3.478   1.465  2.2142  1.7952  2.3744
  572TIP3    H2 1681   1.853   3.415   1.460  0.8179 -1.4282 -2.6672
  573TIP3   OH2 1682   1.484   6.532   3.196 -0.0262 -0.5999  0.1192
  573TIP3    H1 1683   1.517   6.503   3.111 -0.5281 -0.7388 -0.0328
  573TIP3    H2 1684   1.543   6.602   3.223 -0.0894 -0.2944 -0.5256
  574TIP3   OH2 1685   4.261   0.167   3.002  0.3144 -0.2464 -0.1414
  574TIP3    H1 1686   4.236   0.077   3.019 -0.1238 -0.1411 -0.2151
  574TIP3    H2 1687   4.357   0.165   2.995  0.3551 -0.5884  0.5131
  575TIP3   OH2 1688   2.177   4.358   4.063  0.2041 -0.2590 -0.8856
  575TIP3    H1 1689   2.112   4.324   4.003  0.9053 -2.0630 -0.6942
  575TIP3    H2 1690   2.205   4.282   4.114  0.2252  1.0470  1.1642
  576TIP3   OH2 1691   3.109   6.498   2.679 -0.0959  0.2906  0.0234
  576TIP3    H1 1692   3.045   6.568   2.691 -1.6886 -1.0034 -0.4814
  576TIP3    H2 1693   3.105   6.447   2.760  0.9466  0.6712  0.3314
  577TIP3   OH2 1694   2.270   5.274   3.922 -0.0048 -0.4333 -0.5762
  577TIP3    H1 1695   2.236   5.345   3.976 -0.7234 -0.4815 -0.9547
  577TIP3    H2 1696   2.203   5.260   3.855 -0.0809 -1.7621 -0.2481
  578TIP3   OH2 1697   4.275   5.008   5.374  0.3409  0.2349 -0.4616
  578TIP3    H1 1698   4.181   5.003   5.359 -0.0288  0.3630  1.5953
  578TIP3    H2 1699   4.305   5.077   5.315 -0.7547 -0.1335 -1.4906
  579TIP3   OH2 1700   0.395   0.395   4.202  0.3211 -0.5867  0.0342
  579TIP3    H1 1701   0.301   0.402   4.216  0.5700  0.8428  1.2445
  579TIP3    H2 1702   0.432   0.387   4.291  1.4155  0.0689 -0.3458
  580TIP3   OH2 1703   1.547   0.470   3.200  0.1272 -0.3037  0.3484
  580TIP3    H1 1704   1.560   0.509   3.113 -1.2086  0.2466  0.3654
  580TIP3    H2 1705   1.452   0.456   3.206  0.3145 -1.3767  1.2925
  581TIP3   OH2 1706   6.478   1.091   1.495  0.0608  0.0955 -0.1368
  581TIP3    H1 1707   6.570   1.077   1.516  0.7811  1.3970 -2.0916
  581TIP3    H2 1708   6.473   1.077   1.400 -2.2769 -2.2820  0.2006
  582TIP3   OH2 1709   1.595   1.445   2.064  0.1572 -0.1046  0.0698
  582TIP3    H1 1710   1.656   1.422   1.994 -0.4471  1.5350 -1.0769
  582TIP3    H2 1711   1.508   1.429   2.026 -0.1613 -0.2300  0.8395
  583TIP3   OH2 1712   1.938   3.870   5.056 -0.1244  0.4313 -0.2596
  583TIP3    H1 1713   1.965   3.906   5.141  2.0267  0.1302 -0.7713
  583TIP3    H2 1714   1.994   3.793   5.044 -0.2847  0.5653 -2.0259
  584TIP3   OH2 1715   1.061   5.035   4.778 -0.1696 -0.4099  0.1609
  584TIP3    H1 1716   1.045   5.116   4.827  0.6067 -0.5419  0.6600
  584TIP3    H2 1717   0.978   5.015   4.735 -0.8072 -0.1482  1.2423
  585TIP3   OH2 1718   6.780   0.233   2.889 -0.0680 -0.1151 -0.2411
  585TIP3    H1 1719   6.738   0.318   2.901 -1.0971 -0.7981  1.3777
  585TIP3    H2 1720   6.777   0.193   2.976  1.0222 -1.5271 -0.8217
  586TIP3   OH2 1721   4.778   5.026   0.086  0.1205 -0.6643  0.1755
  586TIP3    H1 1722   4.802   5.074   0.007 -0.2028 -0.0219  0.4636
  586TIP3    H2 1723   4.783   5.090   0.156  1.3215 -1.4461  0.8440
  587TIP3   OH2 1724   6.755   4.110   3.969 -0.1186 -0.3607 -0.0183
  587TIP3    H1 1725   6.729   4.141   4.055 -3.2458 -3.0427  0.1951
  587TIP3    H2 1726   6.820   4.041   3.987  1.2900  0.9102 -0.0549
  588TIP3   OH2 1727   4.002   4.983   5.340  0.0632  0.3202 -0.4875
  588TIP3    H1 1728   3.966   5.011   5.425 -2.0713 -1.8222 -0.5472
  588TIP3    H2 1729   3.974   5.050   5.278 -0.9281  0.4373  0.0624
  589TIP3   OH2 1730   0.386   0.790   2.223  0.0811  0.1154  0.3121
  589TIP3    H1 1731   0.440   0.758   2.151  1.7079  1.8609  0.6940
  589TIP3    H2 1732   0.306   0.822   2.180  1.5888  2.4236 -0.9664
  590TIP3   OH2 1733   3.974   5.373   5.850 -0.4342  0.1361 -0.0565
  590TIP3    H1 1734   3.882   5.349   5.865  0.0963 -0.3971  3.1324
  590TIP3    H2 1735   3.995   5.335   5.765 -2.4032 -2.2114  0.3822
  591TIP3   OH2 1736   3.674   0.448   0.587 -0.4587 -0.0202 -0.5469
  591TIP3    H1 1737   3.703   0.432   0.497 -0.9405  0.3519 -0.7761
  591TIP3    H2 1738   3.661   0.542   0.591  1.2113  0.1985  0.4308
  592TIP3   OH2 1739   3.351   4.414   1.192  0.4468 -0.6280 -0.0585
  592TIP3    H1 1740   3.339   4.459   1.108 -1.9424 -1.4145 -0.2088
  592TIP3    H2 1741   3.263   4.403   1.226  1.3049 -1.0528  2.2167
  593TIP3   OH2 1742   5.738   3.360   5.733 -0.1280  0.2614  0.6412
  593TIP3    H1 1743   5.696   3.446   5.731  1.7228  1.3225 -3.1413
  593TIP3    H2 1744   5.821   3.376   5.778  1.5444  1.4209 -2.5075
  594TIP3   OH2 1745   5.873   1.628   5.659 -0.4893  0.2712  0.0370
  594TIP3    H1 1746   5.810   1.566   5.623 -0.9714 -0.4669  2.0259
  594TIP3    H2 1747   5.845   1.713   5.624 -0.4558 -0.4494 -1.8769
  595TIP3   OH2 1748   3.860   5.384   2.823 -0.1476 -0.3009  0.2445
  595TIP3    H1 1749   3.806   5.308   2.802 -0.6088 -0.5011  1.9718
  595TIP3    H2 1750   3.804   5.460   2.806 -0.3476 -0.4347  0.3076
  596TIP3   OH2 1751   3.572   6.146   3.600 -0.2293 -0.2800  0.3496
  596TIP3    H1 1752   3.640   6.206   3.632  0.2927 -0.5567 -0.2185
  596TIP3    H2 1753   3.509   6.141   3.672  0.5495 -0.3134  1.0500
  597TIP3   OH2 1754   1.335   5.470   0.827 -0.1092 -0.4103 -0.1194
  597TIP3    H1 1755   1.287   5.387   0.825  0.1713 -0.5644 -1.2155
  597TIP3    H2 1756   1.417   5.448   0.871  0.2024 -0.8588 -0.9034
  598TIP3   OH2 1757   4.225   6.475   1.389  0.1533 -0.7328 -0.3352
  598TIP3    H1 1758   4.134   6.450   1.402  0.3312 -0.7129  1.1857
  598TIP3    H2 1759   4.257   6.497   1.477  1.5687 -0.5518 -0.8569
  599TIP3   OH2 1760   4.709   6.775   5.854  0.5906  0.2016  0.2017
  599TIP3    H1 1761   4.675   6.765   5.765 -0.7541 -1.2650  0.8248
  599TIP3    H2 1762   4.660   6.848   5.890  0.4208  0.1650  0.0501
  600TIP3   OH2 1763   5.604   2.597   5.123 -0.4338  0.5480 -0.3375
  600TIP3    H1 1764   5.561   2.602   5.038 -0.0778  0.7308 -0.5113
  600TIP3    H2 1765   5.698   2.599   5.103 -0.3378  0.0185  0.0224
  601TIP3   OH2 1766   1.986   0.930   3.940 -0.5170 -0.0352  0.0987
  601TIP3    H1 1767   2.039   0.859   3.904 -0.9887 -1.0151  1.2951
  601TIP3    H2 1768   1.899   0.893   3.950 -0.2752 -0.0946  2.8643
  602TIP3   OH2 1769   6.789   1.155   2.216 -0.2074 -0.1658  0.1226
  602TIP3    H1 1770   6.852   1.199   2.273  1.7861 -2.1688 -0.3630
  602TIP3    H2 1771   6.793   1.203   2.134  1.3232 -0.6954 -0.1467
  603TIP3   OH2 1772   4.554   0.830   0.741 -0.8057  0.3710 -0.0759
  603TIP3    H1 1773   4.541   0.916   0.781 -0.6554  0.6244 -0.5613
  603TIP3    H2 1774   4.634   0.796   0.782  0.8369  1.7253 -1.9494
  604TIP3   OH2 1775   0.152   2.945   2.363  0.1981 -0.6608 -0.4058
  604TIP3    H1 1776   0.094   3.000   2.416 -0.2043  0.5104 -1.9826
  604TIP3    H2 1777   0.239   2.982   2.375 -0.1682  0.8771 -2.0146
  605TIP3   OH2 1778   0.614   4.128   2.784 -0.2805  0.1958 -0.0415
  605TIP3    H1 1779   0.611   4.121   2.879 -0.3030  0.3676 -0.0303
  605TIP3    H2 1780   0.676   4.199   2.767  0.1173 -0.1717 -0.1652
  606TIP3   OH2 1781   2.203   4.644   2.434 -0.3342  0.0627 -0.8525
  606TIP3    H1 1782   2.248   4.613   2.356 -2.5220 -1.3219 -1.6527
  606TIP3    H2 1783   2.128   4.694   2.401 -0.7992  0.2237  0.3655
  607TIP3   OH2 1784   2.178   6.237   1.990  0.3237 -0.6351 -0.2265
  607TIP3    H1 1785   2.272   6.249   2.003  0.8550 -1.4919 -2.7969
  607TIP3    H2 1786   2.169   6.213   1.898 -2.5441  0.6623 -0.3931
  608TIP3   OH2 1787   0.226   6.693   2.829 -0.2361 -0.3869  0.4850
  608TIP3    H1 1788   0.248   6.778   2.791 -2.9305  0.0488 -0.3578
  608TIP3    H2 1789   0.278   6.630   2.778 -1.4901  0.4528 -2.0083
  609TIP3   OH2 1790   5.914   1.201   5.633  0.1451 -0.1083  0.3479
  609TIP3    H1 1791   5.865   1.220   5.552 -0.4166  0.4154  0.8012
  609TIP3    H2 1792   5.988   1.262   5.631  1.8920 -2.0959 -1.2337
  610TIP3   OH2 1793   5.103   2.260   0.050 -0.2022  0.5402  0.1588
  610TIP3    H1 1794   5.116   2.350   0.020 -2.3506  0.5682 -0.8892
  610TIP3    H2 1795   5.103   2.208  -0.030  1.4813 -0.4932  0.7903
  611TIP3   OH2 1796   0.500   5.532   0.650  0.4214 -0.7158  0.2262
  611TIP3    H1 1797   0.443   5.605   0.627  1.3151 -0.0145  0.2060
  611TIP3    H2 1798   0.450   5.454   0.623 -0.2705 -0.1008 -0.3323
  612TIP3   OH2 1799   2.555   1.819   1.779 -0.4495 -0.0965 -0.3285
  612TIP3    H1 1800   2.527   1.815   1.687  1.2978  0.6780 -0.9215
  612TIP3    H2 1801   2.581   1.910   1.792 -1.5983  0.0387  1.2464
  613TIP3   OH2 1802   7.169   1.482   4.376  0.1873  0.4571 -0.5401
  613TIP3    H1 1803   7.197   1.479   4.467  1.1952 -0.3344 -0.8508
  613TIP3    H2 1804   7.210   1.405   4.336 -0.1696  0.8357 -1.6744
  614TIP3   OH2 1805   0.482   6.225   0.199  0.3967  0.2086 -0.1301
  614TIP3    H1 1806   0.430   6.169   0.141  0.6365 -1.0854  0.8725
  614TIP3    H2 1807   0.497   6.304   0.147 -1.5557  0.1523 -0.8988
  615TIP3   OH2 1808   2.159   0.345   1.037  0.5469 -0.5165 -0.6320
  615TIP3    H1 1809   2.085   0.286   1.022  0.1906 -0.1438 -0.3447
  615TIP3    H2 1810   2.231   0.286   1.062 -0.2640 -0.7290  1.3970
  616TIP3   OH2 1811   4.816   2.681   4.037  0.0611  0.5787 -0.5546
  616TIP3    H1 1812   4.806   2.688   4.132 -0.5805  1.2510 -0.6624
  616TIP3    H2 1813   4.894   2.627   4.025  1.0102  1.6892  0.3648
  617TIP3   OH2 1814   5.754   3.563   2.657 -0.4677 -0.0598  0.6335
  617TIP3    H1 1815   5.788   3.480   2.691 -1.0713  0.2486  2.0515
  617TIP3    H2 1816   5.666   3.542   2.626  0.2063 -0.4164 -1.1467
  618TIP3   OH2 1817   3.044   1.027   5.360 -0.5255  0.0903 -0.6822
  618TIP3    H1 1818   3.124   0.974   5.361  0.1190  0.9829  1.1624
  618TIP3    H2 1819   3.057   1.089   5.288  0.6775  0.5081 -0.1354
  619TIP3   OH2 1820   0.206   4.653   1.400  0.4035 -0.1249  0.4075
  619TIP3    H1 1821   0.115   4.670   1.376 -0.0281 -2.5299  0.0511
  619TIP3    H2 1822   0.201   4.574   1.454  2.3825 -1.0998 -0.7551
  620TIP3   OH2 1823   4.247   0.189   1.390 -0.1007  0.0373 -0.1823
  620TIP3    H1 1824   4.254   0.282   1.409  2.0847  0.0391 -0.7442
  620TIP3    H2 1825   4.279   0.145   1.469  1.2831 -0.1387 -0.8091
  621TIP3   OH2 1826   4.268   3.352   2.186 -0.0565 -0.6385 -0.2581
  621TIP3    H1 1827   4.178   3.369   2.212  0.0156  2.0606 -1.4227
  621TIP3    H2 1828   4.263   3.277   2.126 -1.4078 -0.9731  0.2503
  622TIP3   OH2 1829   4.585   6.760   5.569  0.3457  0.2032 -0.2739
  622TIP3    H1 1830   4.606   6.711   5.490 -0.3438  0.0266 -0.3550
  622TIP3    H2 1831   4.563   6.848   5.537 -0.5871 -0.0501 -0.3547
  623TIP3   OH2 1832   0.163   2.245   0.863  0.0238 -0.2941  1.1827
  623TIP3    H1 1833   0.120   2.222   0.781  0.3942  0.4574  0.7650
  623TIP3    H2 1834   0.126   2.185   0.928  0.7038 -1.8019  0.2262
  624TIP3   OH2 1835   5.899   2.663   5.859  1.0508 -0.8281  0.3370
  624TIP3    H1 1836   5.907   2.756   5.839 -1.0752 -0.6218  0.2025
  624TIP3    H2 1837   5.934   2.654   5.947 -0.1343  0.4263  0.9721
  625TIP3   OH2 1838   7.148   0.808   1.508  0.4609 -0.1873  0.1558
  625TIP3    H1 1839   7.143   0.897   1.472 -0.0267 -0.1441  0.3212
  625TIP3    H2 1840   7.225   0.770   1.467 -0.3534 -0.3184 -1.3149
  626TIP3   OH2 1841   7.192   4.923   3.392 -0.4199 -0.2015 -0.1180
  626TIP3    H1 1842   7.150   5.005   3.368 -0.7318 -0.6484 -1.1787
  626TIP3    H2 1843   7.123   4.873   3.436 -0.1347  0.2190  0.8398
  627TIP3   OH2 1844   7.061   6.290   2.218 -0.1519  0.3294 -0.1501
  627TIP3    H1 1845   7.059   6.196   2.204 -0.7542  0.4077 -0.6116
  627TIP3    H2 1846   7.152   6.310   2.239 -0.3509 -0.6301  1.8348
  628TIP3   OH2 1847   3.445   2.908   4.942  1.0207 -0.2522 -0.1120
  628TIP3    H1 1848   3.483   2.897   4.855  0.2230  0.4741 -0.5671
  628TIP3    H2 1849   3.455   2.822   4.984  1.6386 -0.5344 -0.8174
  629TIP3   OH2 1850   1.712   2.160   5.490 -0.2601 -0.0074 -0.2163
  629TIP3    H1 1851   1.642   2.210   5.450 -1.8498 -0.9241  1.2430
  629TIP3    H2 1852   1.704   2.178   5.584  1.3790 -0.2426 -0.0021
  630TIP3   OH2 1853   2.067   0.653   2.894 -0.5930 -0.4826 -0.0312
  630TIP3    H1 1854   2.106   0.582   2.843 -1.3241 -0.9037 -0.0273
  630TIP3    H2 1855   2.009   0.698   2.833 -1.2711 -0.8252  0.3423
  631TIP3   OH2 1856   4.081   4.943   3.121 -0.5933  0.0318  0.1355
  631TIP3    H1 1857   4.094   4.990   3.039 -2.2383 -1.4534 -1.0764
  631TIP3    H2 1858   3.986   4.941   3.133 -0.3958  0.7892  2.4812
  632TIP3   OH2 1859   3.172   1.858   2.234  0.7184 -0.3506 -0.3052
  632TIP3    H1 1860   3.208   1.946   2.249 -0.7036  0.3124 -0.5733
  632TIP3    H2 1861   3.191   1.841   2.141  0.2204  0.0708 -0.4927
  633TIP3   OH2 1862   2.878   1.963   1.296  0.4085  0.1869  0.0065
  633TIP3    H1 1863   2.915   1.886   1.253  1.4966  0.2671  0.7587
  633TIP3    H2 1864   2.928   2.037   1.259 -0.4448  0.5274 -0.5135
  634TIP3   OH2 1865   3.570   0.313   3.237  0.1280  0.3121  0.6605
  634TIP3    H1 1866   3.561   0.221   3.263  0.7334 -0.7609 -2.4377
  634TIP3    H2 1867   3.614   0.355   3.310 -1.0319 -1.6141  2.5744
  635TIP3   OH2 1868   3.286   2.212   0.150  0.4709 -0.2708  0.3740
  635TIP3    H1 1869   3.275   2.156   0.073  0.9337 -0.5413  0.4993
  635TIP3    H2 1870   3.241   2.166   0.221  1.0103 -0.5766  0.5189
  636TIP3   OH2 1871   0.655   4.349   1.805  0.4170  0.4869 -0.5769
  636TIP3    H1 1872   0.710   4.352   1.726  1.8458 -1.4143  0.2674
  636TIP3    H2 1873   0.654   4.257   1.830 -0.3012  0.9901  1.4411
  637TIP3   OH2 1874   2.666   4.408   1.013  0.4730  1.0876  0.4189
  637TIP3    H1 1875   2.699   4.497   1.010  2.7527  0.3245  0.9593
  637TIP3    H2 1876   2.649   4.386   0.921  1.9959  1.3728  0.0381
  638TIP3   OH2 1877   0.746   0.592   5.003 -0.4107 -0.5900 -0.1402
  638TIP3    H1 1878   0.684   0.520   5.006 -0.0405 -0.9339 -0.5358
  638TIP3    H2 1879   0.831   0.550   4.991  0.0665 -0.2090  1.6107
  639TIP3   OH2 1880   2.556   1.785   3.494 -0.4674  0.0347 -0.4025
  639TIP3    H1 1881   2.525   1.860   3.546 -1.6249 -0.4236 -0.3952
  639TIP3    H2 1882   2.537   1.810   3.404  3.5047  1.7774 -0.9631
  640TIP3   OH2 1883   7.172   5.668   0.391  0.2568 -0.5053  0.0006
  640TIP3    H1 1884   7.228   5.678   0.467  2.4819 -1.8986 -1.3312
  640TIP3    H2 1885   7.132   5.754   0.378  4.0588  1.3935 -0.4024
  641TIP3   OH2 1886   3.534   2.202   2.522 -0.2658  0.1065  0.1286
  641TIP3    H1 1887   3.451   2.239   2.551 -0.5484 -0.3487 -0.0890
  641TIP3    H2 1888   3.520   2.107   2.523  0.2471  0.0248  0.0860
  642TIP3   OH2 1889   1.614   3.689   1.804 -0.2132 -0.4392 -0.3533
  642TIP3    H1 1890   1.689   3.642   1.840  1.3236  0.5780 -2.0451
  642TIP3    H2 1891   1.564   3.717   1.881  2.1672  0.4438  0.9796
  643TIP3   OH2 1892   4.018   4.218   1.592  0.1024  0.4784 -0.4941
  643TIP3    H1 1893   3.933   4.240   1.630  0.1395 -0.2739  0.0469
  643TIP3    H2 1894   4.004   4.135   1.546  0.8354 -0.3767  0.7545
  644TIP3   OH2 1895   0.197   3.290   2.450  0.0119 -0.0806  0.3201
  644TIP3    H1 1896   0.260   3.221   2.431  0.8603  0.2305  1.8010
  644TIP3    H2 1897   0.142   3.254   2.520 -2.5397 -0.9381 -1.9665
  645TIP3   OH2 1898   2.730   5.560   1.059 -0.1560  0.6800 -0.0358
  645TIP3    H1 1899   2.708   5.505   0.983  1.9126 -0.5728  0.1874
  645TIP3    H2 1900   2.658   5.545   1.121  0.4018 -1.9950  0.0914
  646TIP3   OH2 1901   0.617   6.416   4.956  0.3469 -0.0234  0.1726
  646TIP3    H1 1902   0.619   6.324   4.982  0.4222  0.3407  1.5082
  646TIP3    H2 1903   0.527   6.429   4.925  1.0237 -1.1782 -2.5974
  647TIP3   OH2 1904   0.178   5.360   2.566 -0.4944 -0.3359  0.2911
  647TIP3    H1 1905   0.180   5.298   2.493  1.7120 -1.8953  1.5318
  647TIP3    H2 1906   0.156   5.444   2.526 -1.1817 -1.4575 -1.8555
  648TIP3   OH2 1907   2.095   5.015   5.834  0.5846 -0.5401  0.0062
  648TIP3    H1 1908   2.186   4.987   5.819 -0.3144 -3.6887 -0.4838
  648TIP3    H2 1909   2.084   5.013   5.929  1.3127  1.0920  0.1526
  649TIP3   OH2 1910   6.925   1.542   1.545 -0.9879  0.4385 -0.1980
  649TIP3    H1 1911   6.874   1.587   1.611  0.1600 -1.4666  2.1351
  649TIP3    H2 1912   6.862   1.485   1.501 -1.4755  0.5420  0.3565
  650TIP3   OH2 1913   0.016   0.525   3.426 -0.3126  0.6107  0.0674
  650TIP3    H1 1914   0.090   0.501   3.481 -0.1686  1.0313  0.0637
  650TIP3    H2 1915  -0.061   0.508   3.480 -0.1828  0.7916  0.3112
  651TIP3   OH2 1916   0.160   6.078   4.077 -0.8847  0.1213 -0.3472
  651TIP3    H1 1917   0.097   6.005   4.079 -1.5124  0.6396 -0.8113
  651TIP3    H2 1918   0.219   6.061   4.150 -0.5612 -1.2634 -0.8991
  652TIP3   OH2 1919   5.700   6.395   4.017  0.2363 -0.1914 -0.5509
  652TIP3    H1 1920   5.767   6.334   3.988 -0.0020 -1.3241  1.1321
  652TIP3    H2 1921   5.738   6.437   4.094 -0.5781 -0.0846 -0.1972
  653TIP3   OH2 1922   0.229   3.565   2.145 -0.5531 -0.1421 -0.0487
  653TIP3    H1 1923   0.273   3.541   2.226  0.2753  1.3057 -0.0485
  653TIP3    H2 1924   0.136   3.562   2.166 -0.3548  0.0085  0.8810
  654TIP3   OH2 1925   3.537   0.506   0.136  0.0367 -0.1464 -0.8288
  654TIP3    H1 1926   3.446   0.509   0.166  0.2014  2.3420 -0.3865
  654TIP3    H2 1927   3.580   0.447   0.197 -0.9028  0.1585  0.1666
  655TIP3   OH2 1928   2.475   3.461   0.257  0.4011 -0.2489 -0.2793
  655TIP3    H1 1929   2.553   3.406   0.259  0.7507  0.2538  0.5202
  655TIP3    H2 1930   2.412   3.412   0.205  1.2188 -0.7044 -0.8515
  656TIP3   OH2 1931   0.707   3.820   3.725  0.2899 -0.2812  0.1302
  656TIP3    H1 1932   0.616   3.831   3.752 -0.0723  1.3221 -1.5109
  656TIP3    H2 1933   0.753   3.897   3.760  0.9794 -0.9578  0.7454
  657TIP3   OH2 1934   1.581   4.126   1.839  0.5763  0.1086 -0.0067
  657TIP3    H1 1935   1.598   4.155   1.749  0.7042 -0.1881 -0.0798
  657TIP3    H2 1936   1.626   4.190   1.894 -1.4289  1.6502 -0.0683
  658TIP3   OH2 1937   0.690   2.628   0.308 -0.1616  0.6668 -0.0937
  658TIP3    H1 1938   0.628   2.592   0.372 -1.8798 -0.6119 -2.3117
  658TIP3    H2 1939   0.651   2.712   0.282  0.4388  1.0993  0.3715
  659TIP3   OH2 1940   3.972   2.135   3.755 -1.1381  0.2662 -0.1249
  659TIP3    H1 1941   3.980   2.086   3.837 -0.8576  0.8176  0.1869
  659TIP3    H2 1942   3.951   2.224   3.783 -1.9987  0.2500 -0.6988
  660TIP3   OH2 1943   4.725   2.361   0.664 -0.6416  0.8458  0.0859
  660TIP3    H1 1944   4.756   2.365   0.754  0.1860  2.0423 -0.2205
  660TIP3    H2 1945   4.753   2.444   0.625 -1.0270  0.3795 -1.2606
  661TIP3   OH2 1946   5.054   0.344   5.333 -0.0977  0.3927  0.0677
  661TIP3    H1 1947   4.963   0.370   5.320 -0.7335 -1.4226  0.5922
  661TIP3    H2 1948   5.059   0.256   5.294  1.1095 -0.0326  1.1298
  662TIP3   OH2 1949   1.334   3.501   3.624 -0.4336 -0.0201  0.3362
  662TIP3    H1 1950   1.400   3.569   3.626 -1.5650  1.3184 -2.3636
  662TIP3    H2 1951   1.281   3.517   3.702 -0.7900  2.3985 -0.3143
  663TIP3   OH2 1952   5.532   5.119   1.072  0.1550  0.1419 -0.3181
  663TIP3    H1 1953   5.472   5.115   1.146 -1.6087 -0.7139 -1.7246
  663TIP3    H2 1954   5.565   5.030   1.063  1.1385  0.4585  0.0137
  664TIP3   OH2 1955   6.787   1.625   4.746  0.4331 -0.4381  0.4162
  664TIP3    H1 1956   6.839   1.682   4.689 -0.6326  0.2233  0.0833
  664TIP3    H2 1957   6.713   1.598   4.692  0.5270 -1.5549  0.8115
  665TIP3   OH2 1958   6.186   5.857   4.019 -0.6719 -0.4128  0.1304
  665TIP3    H1 1959   6.146   5.826   3.938  0.0952 -0.8525 -0.0944
  665TIP3    H2 1960   6.258   5.913   3.990 -0.9280  0.1288  0.5209
  666TIP3   OH2 1961   7.130   6.801   5.004  0.1627 -0.5509 -0.4110
  666TIP3    H1 1962   7.066   6.733   4.983  1.1570 -1.4709 -0.5613
  666TIP3    H2 1963   7.149   6.788   5.097 -0.8090  0.5457 -0.0490
  667TIP3   OH2 1964   2.055   0.711   1.630  0.0589  0.4149  0.1374
  667TIP3    H1 1965   1.988   0.749   1.687 -2.5838 -1.1960 -1.6771
  667TIP3    H2 1966   2.092   0.639   1.681  1.7998  2.3551  1.8117
  668TIP3   OH2 1967   2.197   0.570   0.901 -0.0533  0.2548 -0.0665
  668TIP3    H1 1968   2.240   0.613   0.974 -1.3820 -0.4269  1.1767
  668TIP3    H2 1969   2.182   0.480   0.930 -2.6483  0.5447 -0.1960
  669TIP3   OH2 1970   3.141   0.162   5.451 -0.0579 -0.3792  0.1550
  669TIP3    H1 1971   3.090   0.213   5.388 -1.7589 -0.9544  1.0281
  669TIP3    H2 1972   3.204   0.114   5.397  0.7551  1.6427 -0.7977
  670TIP3   OH2 1973   3.117   3.908   4.152  0.1522  0.3290  0.6053
  670TIP3    H1 1974   3.042   3.949   4.110  0.9345 -0.2765 -1.5230
  670TIP3    H2 1975   3.152   3.975   4.211  0.4581  2.2219 -1.5782
  671TIP3   OH2 1976   4.636   6.659   4.595  0.1612  0.1295 -0.0814
  671TIP3    H1 1977   4.578   6.609   4.653 -0.8036 -0.5784 -1.6014
  671TIP3    H2 1978   4.646   6.744   4.639 -1.0181 -0.1710  0.8302
  672TIP3   OH2 1979   6.367   2.643   1.025  0.2948 -0.4754 -0.4405
  672TIP3    H1 1980   6.441   2.703   1.033  0.7665 -0.9286 -1.2459
  672TIP3    H2 1981   6.358   2.604   1.112  0.7844 -0.1534 -0.2435
  673TIP3   OH2 1982   5.224   4.700   4.902 -0.2742 -0.7669  0.1126
  673TIP3    H1 1983   5.177   4.675   4.982  0.5702 -0.6668  0.6556
  673TIP3    H2 1984   5.274   4.778   4.928  0.8642 -1.3777 -0.1972
  674TIP3   OH2 1985   4.458   2.249   3.646 -0.5448 -0.1922 -0.1264
  674TIP3    H1 1986   4.388   2.314   3.654  0.8879  1.4425 -0.2140
  674TIP3    H2 1987   4.431   2.193   3.574 -1.5651  0.6692 -0.4302
  675TIP3   OH2 1988   4.047   0.348   0.816  0.8009  0.0266  0.0002
  675TIP3    H1 1989   3.987   0.411   0.777 -0.1969 -0.1182  1.2513
  675TIP3    H2 1990   4.059   0.378   0.906  1.8493 -0.4950  0.0544
  676TIP3   OH2 1991   4.102   1.917   4.578  0.1552  0.3255 -0.1112
  676TIP3    H1 1992   4.070   1.850   4.517  0.1621 -0.2851  0.5369
  676TIP3    H2 1993   4.035   1.985   4.576 -0.9258 -0.6597  0.7718
  677TIP3   OH2 1994   2.590   6.412   3.269 -0.4699 -0.0179  0.2947
  677TIP3    H1 1995   2.514   6.389   3.217 -0.2997  0.0073  0.0350
  677TIP3    H2 1996   2.611   6.332   3.318  1.0512 -0.9669 -1.7363
  678TIP3   OH2 1997   6.668   4.384   2.540 -0.0016  0.5939  0.3942
  678TIP3    H1 1998   6.760   4.398   2.520 -0.2874 -0.5166 -2.0345
  678TIP3    H2 1999   6.628   4.470   2.526  0.2668  0.4740 -1.4639
  679TIP3   OH2 2000   4.621   4.117   3.839  0.5470  0.0411  0.0809
  679TIP3    H1 2001   4.633   4.188   3.902  2.1567  0.6792 -0.8942
  679TIP3    H2 2002   4.589   4.161   3.760  0.9892 -0.3996 -0.3470
  680TIP3   OH2 2003   2.155   6.182   4.441 -0.0006 -0.1140  0.1233
  680TIP3    H1 2004   2.114   6.135   4.514  1.0420  0.5284  1.1531
  680TIP3    H2 2005   2.240   6.209   4.475  1.9950 -2.6287 -2.3796
  681TIP3   OH2 2006   2.255   0.018   3.017 -0.1108  0.6213  0.5950
  681TIP3    H1 2007   2.292   0.102   2.988  0.5588 -0.0150 -0.4472
  681TIP3    H2 2008   2.167   0.040   3.047 -0.2632  1.5800 -0.4876
  682TIP3   OH2 2009   3.076   3.550   1.529  0.2421  0.0456 -0.3215
  682TIP3    H1 2010   2.981   3.536   1.531  0.0322  1.2274 -1.1903
  682TIP3    H2 2011   3.087   3.645   1.523  1.5081 -0.0238  0.4239
  683TIP3   OH2 2012   7.139   0.397   2.068  0.4495  0.3195  0.4884
  683TIP3    H1 2013   7.116   0.388   2.160  0.8996 -0.5125  0.5253
  683TIP3    H2 2014   7.080   0.465   2.035 -1.2409 -0.9046  0.8674
  684TIP3   OH2 2015   6.535   1.795   5.539  0.2353  0.2841 -0.1468
  684TIP3    H1 2016   6.558   1.861   5.474 -0.0571  0.7319  0.2023
  684TIP3    H2 2017   6.617   1.747   5.554 -0.2987 -1.8111 -3.0420
  685TIP3   OH2 2018   4.003   0.995   0.306  0.2908 -0.8407 -0.5335
  685TIP3    H1 2019   3.917   0.986   0.265 -0.5517 -0.9150  1.1334
  685TIP3    H2 2020   4.031   0.906   0.324 -1.8598 -0.9524  3.7622
  686TIP3   OH2 2021   3.652   0.919   2.419 -0.8724 -0.1503  0.5004
  686TIP3    H1 2022   3.619   1.005   2.442 -2.3417 -0.4621 -0.3314
  686TIP3    H2 2023   3.707   0.934   2.342 -0.5265  0.1329  0.8004
  687TIP3   OH2 2024   5.939   0.609   1.863  0.3395  0.0025 -0.3772
  687TIP3    H1 2025   6.008   0.554   1.826  0.9423  1.6646 -1.8549
  687TIP3    H2 2026   5.882   0.547   1.910  1.4792 -1.7320 -1.1660
  688TIP3   OH2 2027   0.687   1.746   2.158 -0.3250  0.3695 -0.3745
  688TIP3    H1 2028   0.772   1.786   2.175 -0.5469  1.3501 -1.4565
  688TIP3    H2 2029   0.704   1.651   2.162  0.6230  0.5523  0.2742
  689TIP3   OH2 2030   2.969   6.145   1.599  0.7850  0.4208 -0.2765
  689TIP3    H1 2031   3.036   6.093   1.642  0.3489  0.3543  0.3350
  689TIP3    H2 2032   2.887   6.120   1.642  0.2710  0.0489 -1.4105
  690TIP3   OH2 2033   3.270   3.764   3.425 -0.1718 -0.4990 -0.1629
  690TIP3    H1 2034   3.178   3.740   3.436 -0.6547  0.3866 -1.8980
  690TIP3    H2 2035   3.287   3.752   3.331  1.2128  0.2402 -0.0341
  691TIP3   OH2 2036  -0.010   0.762   1.184  0.1628  0.0718  0.0110
  691TIP3    H1 2037   0.062   0.776   1.246 -2.2793 -0.0873  3.1432
  691TIP3    H2 2038  -0.013   0.666   1.174 -0.0200  0.0343  0.4103
  692TIP3   OH2 2039   3.746   5.745   2.673  0.6750  0.0528  0.2292
  692TIP3    H1 2040   3.687   5.742   2.748 -1.9635 -0.7266 -1.7335
  692TIP3    H2 2041   3.747   5.837   2.647  0.1700  0.0482  0.1778
  693TIP3   OH2 2042   0.050   5.823   5.671  0.1650 -0.3515 -0.2052
  693TIP3    H1 2043   0.045   5.815   5.766 -0.8138  1.6022 -0.0402
  693TIP3    H2 2044   0.135   5.787   5.647 -0.4047 -2.8018  1.1435
  694TIP3   OH2 2045   0.227   5.757   1.598 -0.4546 -0.4640  0.6099
  694TIP3    H1 2046   0.285   5.818   1.641 -0.5468  2.4734 -2.9240
  694TIP3    H2 2047   0.275   5.674   1.596  2.1771  0.9788  0.7572
  695TIP3   OH2 2048   1.576   4.711   5.478 -0.0102 -0.1797 -0.1984
  695TIP3    H1 2049   1.623   4.751   5.551 -0.6106  0.7961 -0.3362
  695TIP3    H2 2050   1.520   4.644   5.519 -0.4308  0.4402  0.2612
  696TIP3   OH2 2051   5.280   3.612   5.882 -0.0110 -0.2875 -0.3394
  696TIP3    H1 2052   5.318   3.646   5.801  1.6306 -0.4965  0.3105
  696TIP3    H2 2053   5.343   3.635   5.950 -2.0166  1.1641  1.1528
  697TIP3   OH2 2054   0.931   1.178   3.942 -0.1399 -0.0382  0.2934
  697TIP3    H1 2055   0.917   1.086   3.920 -0.6158  0.4688 -1.7626
  697TIP3    H2 2056   1.001   1.177   4.006 -0.7576 -1.8821  1.0070
  698TIP3   OH2 2057   3.430   4.124   0.381 -0.0944 -0.0510  0.4041
  698TIP3    H1 2058   3.342   4.160   0.373  0.4373  1.1737 -0.3914
  698TIP3    H2 2059   3.469   4.136   0.294  0.2689 -2.2478  0.2190
  699TIP3   OH2 2060   5.054   1.076   4.370 -0.5769  0.3457 -0.9379
  699TIP3    H1 2061   4.982   1.093   4.309 -0.5685 -1.5639 -1.5426
  699TIP3    H2 2062   5.123   1.041   4.315 -0.1634 -0.3702  0.0252
  700TIP3   OH2 2063   6.616   5.741   5.834  0.0956  0.5180  0.2311
  700TIP3    H1 2064   6.608   5.756   5.740  0.3438 -0.0321  0.1198
  700TIP3    H2 2065   6.708   5.717   5.846 -0.3259 -1.1630  0.3563
  701TIP3   OH2 2066   1.781   1.211   5.738 -0.4337  0.1907 -0.0406
  701TIP3    H1 2067   1.815   1.190   5.651 -0.5478  0.0531 -0.0534
  701TIP3    H2 2068   1.689   1.232   5.724 -0.6594 -0.6262  0.1493
  702TIP3   OH2 2069   0.730   2.197   0.061  0.1672  0.1922  0.3062
  702TIP3    H1 2070   0.644   2.212   0.020  0.4075  0.6381 -0.0488
  702TIP3    H2 2071   0.737   2.267   0.126 -0.8255 -1.3295  2.1708
  703TIP3   OH2 2072   4.100   2.150   2.016  0.2854 -0.1287 -0.3581
  703TIP3    H1 2073   4.086   2.056   2.027 -0.8579  0.1465  0.6217
  703TIP3    H2 2074   4.156   2.175   2.090  0.3907  0.0160 -0.4851
  704TIP3   OH2 2075   1.919   5.064   4.870  0.7015 -0.2956 -0.2444
  704TIP3    H1 2076   1.841   5.043   4.922  0.5768  0.1364 -0.2549
  704TIP3    H2 2077   1.902   5.151   4.835  0.7237 -0.6348 -1.1231
  705TIP3   OH2 2078   0.842   4.511   0.021 -0.2636  0.0923 -0.6649
  705TIP3    H1 2079   0.833   4.494   0.115 -0.8841  0.1865 -0.6999
  705TIP3    H2 2080   0.888   4.594   0.016 -0.1225  0.0288 -0.4459
  706TIP3   OH2 2081   1.697   2.601   3.983 -0.4592  0.0524  0.0415
  706TIP3    H1 2082   1.657   2.602   4.070  0.7932 -1.7941  0.7305
  706TIP3    H2 2083   1.752   2.679   3.981  0.2832 -0.3928  1.3619
  707TIP3   OH2 2084   5.046   0.142   2.371  0.2884 -0.2353 -0.5727
  707TIP3    H1 2085   5.008   0.223   2.335 -0.0746  0.8176  1.9512
  707TIP3    H2 2086   4.996   0.072   2.329 -0.4455  0.9053 -1.6966
  708TIP3   OH2 2087   0.228   1.281   2.101 -0.1210  0.3414 -0.7452
  708TIP3    H1 2088   0.312   1.327   2.096  0.2642 -0.3234 -0.4367
  708TIP3    H2 2089   0.237   1.208   2.041  0.2162 -0.8181  0.6589
  709TIP3   OH2 2090   3.580   0.178   2.961 -0.3546 -0.4370 -0.2573
  709TIP3    H1 2091   3.568   0.240   3.033  1.1889  0.3404 -0.6431
  709TIP3    H2 2092   3.673   0.157   2.962 -0.4636 -1.0906 -1.4921
  710TIP3   OH2 2093   0.861   6.249   5.182  0.1997  0.4312  0.2300
  710TIP3    H1 2094   0.779   6.210   5.152  0.0321  0.6855  0.3548
  710TIP3    H2 2095   0.921   6.175   5.189 -0.2745  0.1044  1.0018
  711TIP3   OH2 2096   7.019   1.137   4.620 -0.3315 -0.2716 -0.3485
  711TIP3    H1 2097   7.059   1.123   4.705  2.3506 -1.4790 -1.6903
  711TIP3    H2 2098   7.031   1.231   4.603  2.1435 -0.5732 -0.6914
  712TIP3   OH2 2099   1.827   1.315   3.149 -0.0427 -0.0275  0.4904
  712TIP3    H1 2100   1.852   1.255   3.219  0.1512 -0.3253  0.1710
  712TIP3    H2 2101   1.871   1.280   3.071 -0.6448  0.0223  0.1227
  713TIP3   OH2 2102   5.797   2.226   5.699 -0.4412  0.5635  0.0120
  713TIP3    H1 2103   5.756   2.215   5.613 -1.0871 -0.8387  0.4558
  713TIP3    H2 2104   5.750   2.165   5.756 -0.1301  1.5685  1.4077
  714TIP3   OH2 2105   3.768   4.730   3.190 -0.4745  0.4107 -0.4308
  714TIP3    H1 2106   3.826   4.657   3.167 -0.2046 -0.7338  3.2042
  714TIP3    H2 2107   3.779   4.793   3.119  2.5106 -1.2798 -1.6579
  715TIP3   OH2 2108   5.366   6.290   2.058  0.3863  0.0879 -0.4355
  715TIP3    H1 2109   5.393   6.341   2.135  0.2367 -1.3560  0.6150
  715TIP3    H2 2110   5.387   6.346   1.984  2.2795  0.7745  0.5576
  716TIP3   OH2 2111   7.175   1.502   3.878 -0.0741  0.3322 -0.1596
  716TIP3    H1 2112   7.173   1.535   3.968  0.6477  2.5308 -0.8878
  716TIP3    H2 2113   7.261   1.462   3.869 -0.2142 -0.0470  0.1794
  717TIP3   OH2 2114   6.624   4.227   5.556 -0.1388 -0.3031 -0.2861
  717TIP3    H1 2115   6.538   4.203   5.521 -0.2469  0.9545 -0.9278
  717TIP3    H2 2116   6.605   4.289   5.626  0.2016 -1.0425  0.4859
  718TIP3   OH2 2117   4.279   4.486   1.872 -0.3661 -0.3126 -0.0497
  718TIP3    H1 2118   4.201   4.498   1.817 -0.4342 -1.0740 -0.1268
  718TIP3    H2 2119   4.329   4.566   1.859 -0.1666 -0.6551 -1.5882
  719TIP3   OH2 2120   2.171   1.763   5.051  0.0063 -0.1611 -0.0712
  719TIP3    H1 2121   2.219   1.684   5.025 -1.5916 -1.0748 -0.3880
  719TIP3    H2 2122   2.091   1.731   5.091 -1.4281  1.2640 -1.6057
  720TIP3   OH2 2123   2.966   3.113   4.169 -0.2541  0.2969  0.1368
  720TIP3    H1 2124   2.958   3.116   4.265 -2.5444  0.2093 -0.0049
  720TIP3    H2 2125   2.937   3.025   4.146 -0.9455  0.7380 -0.7158
  721TIP3   OH2 2126   5.505   5.397   0.009  0.2591  0.1820  0.0661
  721TIP3    H1 2127   5.586   5.414   0.058 -1.6503 -0.1555  3.7074
  721TIP3    H2 2128   5.488   5.303   0.024 -1.7150  0.6393  1.0429
  722TIP3   OH2 2129   0.377   2.858   5.354 -0.3529  0.6698 -0.1021
  722TIP3    H1 2130   0.447   2.851   5.289 -0.2432  1.5696 -0.0918
  722TIP3    H2 2131   0.300   2.886   5.304 -0.8046 -0.5923 -0.1630
  723TIP3   OH2 2132   1.702   2.605   4.858  0.1455 -0.1701 -0.0387
  723TIP3    H1 2133   1.630   2.655   4.819 -0.9553 -0.3509  1.6961
  723TIP3    H2 2134   1.779   2.631   4.806 -0.7583  1.6858 -0.5508
  724TIP3   OH2 2135   3.805   5.432   4.263 -0.0167 -0.3639  0.3273
  724TIP3    H1 2136   3.797   5.406   4.172  2.1038 -0.5103  0.1242
  724TIP3    H2 2137   3.898   5.419   4.284 -0.1165  1.1692  2.0322
  725TIP3   OH2 2138   4.860   0.253   3.419 -0.5361 -0.2197  0.2213
  725TIP3    H1 2139   4.811   0.196   3.360  0.1340 -0.7164  0.1334
  725TIP3    H2 2140   4.793   0.297   3.471 -1.2047  1.0024 -1.5822
  726TIP3   OH2 2141   4.055   1.771   2.864 -0.0066  0.2440  0.0168
  726TIP3    H1 2142   4.148   1.779   2.841 -0.0423  0.1589 -0.1647
  726TIP3    H2 2143   4.052   1.698   2.926 -0.0780 -0.4598 -0.7870
  727TIP3   OH2 2144   6.310   6.208   2.408  0.2978  0.2431  0.8990
  727TIP3    H1 2145   6.330   6.152   2.483 -0.1699  0.7756  1.4285
  727TIP3    H2 2146   6.252   6.154   2.353  1.2298 -0.4241  0.5269
  728TIP3   OH2 2147   1.152   1.670   4.472  0.3882 -0.3665 -0.1388
  728TIP3    H1 2148   1.060   1.683   4.450  0.6851  1.9466 -0.2983
  728TIP3    H2 2149   1.167   1.576   4.462 -1.2106 -0.4095 -2.9845
  729TIP3   OH2 2150   0.498   1.404   5.474  0.3448  0.1134 -0.2304
  729TIP3    H1 2151   0.545   1.487   5.484 -0.0853  0.4961 -1.2784
  729TIP3    H2 2152   0.503   1.364   5.561 -1.6182  2.4030  1.0905
  730TIP3   OH2 2153   1.206   2.813   5.762 -0.4848  0.4370 -0.0220
  730TIP3    H1 2154   1.152   2.761   5.821 -0.6872 -0.9450 -1.3693
  730TIP3    H2 2155   1.176   2.789   5.674  1.2296  0.8439 -0.7565
  731TIP3   OH2 2156   5.174   3.716   4.579 -0.4237 -0.4430  0.1683
  731TIP3    H1 2157   5.236   3.782   4.609  1.8304 -2.2984 -0.1019
  731TIP3    H2 2158   5.229   3.651   4.534 -2.6785 -1.8475 -0.7142
  732TIP3   OH2 2159   0.621   3.975   2.101 -0.0172  0.5297 -0.1232
  732TIP3    H1 2160   0.559   3.939   2.164 -0.9013  0.4190 -1.0303
  732TIP3    H2 2161   0.609   4.070   2.107  1.3175  0.6491  1.2646
  733TIP3   OH2 2162   6.646   6.077   2.360 -0.0868  0.1907 -0.4248
  733TIP3    H1 2163   6.643   6.006   2.296  1.4887  1.7106 -2.3124
  733TIP3    H2 2164   6.636   6.034   2.445  0.2441 -2.1942 -1.5361
  734TIP3   OH2 2165   1.620   3.711   0.365 -0.6844  0.0960 -0.4750
  734TIP3    H1 2166   1.540   3.699   0.416 -1.8588  0.4910 -2.1717
  734TIP3    H2 2167   1.591   3.740   0.279  1.1610 -1.5242 -1.7411
  735TIP3   OH2 2168   3.696   0.077   2.679  0.0409 -0.2011 -0.1860
  735TIP3    H1 2169   3.726   0.115   2.761  0.2403 -0.6088 -0.0689
  735TIP3    H2 2170   3.651   0.149   2.634 -0.3103 -0.0520  0.3988
  736TIP3   OH2 2171   3.211   4.433   3.530 -0.3907 -0.4792  0.2314
  736TIP3    H1 2172   3.121   4.412   3.553 -0.2501 -0.0438  1.2146
  736TIP3    H2 2173   3.207   4.522   3.494 -0.2304 -0.0891  1.1588
  737TIP3   OH2 2174   6.145   5.513   3.258  0.2163 -0.5473  0.1573
  737TIP3    H1 2175   6.134   5.425   3.223 -0.6553 -0.6748  0.7269
  737TIP3    H2 2176   6.069   5.562   3.226  0.6259 -0.0225 -0.0513
  738TIP3   OH2 2177   1.294   2.089   1.837  0.3215 -0.1360  0.2247
  738TIP3    H1 2178   1.240   2.160   1.874 -0.5208 -0.1207 -0.9951
  738TIP3    H2 2179   1.245   2.010   1.858  0.4550 -0.2240  0.1987
  739TIP3   OH2 2180   2.805   0.740   1.574 -0.0731 -0.2002  0.4632
  739TIP3    H1 2181   2.777   0.672   1.635  1.9427 -1.2880  0.2843
  739TIP3    H2 2182   2.900   0.727   1.565 -0.0149  1.0500 -1.5356
  740TIP3   OH2 2183   2.046   3.958   0.589 -0.0293 -0.2471 -0.0584
  740TIP3    H1 2184   1.976   3.903   0.556  1.3178 -2.3027  0.3070
  740TIP3    H2 2185   2.085   3.997   0.511  0.3823 -1.6147 -0.5668
  741TIP3   OH2 2186   3.778   4.186   2.217  0.3559  0.1047  0.0082
  741TIP3    H1 2187   3.792   4.092   2.225  0.3165  0.0931 -0.0640
  741TIP3    H2 2188   3.858   4.218   2.176  0.6832  0.2059  0.7117
  742TIP3   OH2 2189   5.627   4.640   1.900 -0.0133 -0.2493  0.0809
  742TIP3    H1 2190   5.614   4.578   1.828 -1.5055  0.6991 -0.5215
  742TIP3    H2 2191   5.607   4.589   1.979  0.8711 -1.0861 -0.2186
  743TIP3   OH2 2192   3.027   5.085   4.359 -0.4746  0.1227 -0.3453
  743TIP3    H1 2193   2.943   5.105   4.401 -0.9053 -1.3599 -0.4453
  743TIP3    H2 2194   3.027   5.137   4.279  0.3058  2.9220  1.3319
  744TIP3   OH2 2195   4.495   5.631   4.417  0.3344  0.0188  0.3681
  744TIP3    H1 2196   4.529   5.671   4.336  0.6801  0.4848  0.7394
  744TIP3    H2 2197   4.555   5.661   4.485 -1.2780  1.5329  1.1885
  745TIP3   OH2 2198   2.561   4.071   4.011  0.3602  0.6464  0.3269
  745TIP3    H1 2199   2.591   4.154   4.048 -0.0185  2.0918 -2.3430
  745TIP3    H2 2200   2.465   4.078   4.008  0.3789  0.6382 -0.9549
  746TIP3   OH2 2201   4.769   2.891   5.513  0.5288  0.4722 -0.3006
  746TIP3    H1 2202   4.724   2.820   5.558  0.7334  0.7336  0.3207
  746TIP3    H2 2203   4.862   2.873   5.524  0.5816  0.6785 -0.3980
  747TIP3   OH2 2204   0.114   2.762   1.050 -0.0839  0.0724 -0.6707
  747TIP3    H1 2205   0.204   2.730   1.041  0.9687  3.2431 -3.2401
  747TIP3    H2 2206   0.122   2.840   1.105 -1.5539 -0.4271  0.3131
  748TIP3   OH2 2207   2.863   5.950   5.874  0.2466  0.5804 -0.0295
  748TIP3    H1 2208   2.782   6.000   5.879  0.6176  1.2778 -0.7889
  748TIP3    H2 2209   2.835   5.858   5.870 -0.5485  0.8519 -1.0481
  749TIP3   OH2 2210   1.489   2.517   3.844  0.0421 -0.6261 -0.3141
  749TIP3    H1 2211   1.576   2.553   3.860 -0.1893  1.3239 -2.8954
  749TIP3    H2 2212   1.438   2.590   3.811 -3.1588 -1.2704  2.5629
  750TIP3   OH2 2213   1.407   6.325   5.746  0.4138 -0.2740 -0.0478
  750TIP3    H1 2214   1.386   6.407   5.700 -2.1007 -0.5203  0.5447
  750TIP3    H2 2215   1.408   6.349   5.838 -1.8791 -1.1162  0.2636
  751TIP3   OH2 2216   3.385   1.854   5.243  0.7888  0.2561  0.4188
  751TIP3    H1 2217   3.415   1.873   5.154 -0.0403  2.0086  0.4610
  751TIP3    H2 2218   3.358   1.762   5.240  1.5295  0.0586 -0.9124
  752TIP3   OH2 2219   4.589   5.360   0.156  0.1650  0.1356  0.2963
  752TIP3    H1 2220   4.519   5.420   0.183 -0.5441 -0.8589  0.7590
  752TIP3    H2 2221   4.669   5.399   0.190  0.0099  1.8672 -1.1639
  753TIP3   OH2 2222   5.037   3.841   1.349 -0.3718 -0.6857 -0.0605
  753TIP3    H1 2223   5.004   3.855   1.261 -1.3948 -0.1867  0.3803
  753TIP3    H2 2224   5.100   3.769   1.341 -0.8419 -0.9880 -1.0982
  754TIP3   OH2 2225   0.101   6.278   1.597  0.4345  0.5954 -0.0040
  754TIP3    H1 2226   0.101   6.373   1.583  0.2493  0.7928  1.2640
  754TIP3    H2 2227   0.051   6.265   1.678 -0.0386 -0.6362 -0.4644
  755TIP3   OH2 2228   2.245   5.834   1.358 -0.0244  0.1678  0.6153
  755TIP3    H1 2229   2.204   5.892   1.294 -0.5862 -0.2211  0.6096
  755TIP3    H2 2230   2.244   5.748   1.317 -2.2115 -0.5076  1.8533
  756TIP3   OH2 2231   2.849   2.591   2.412 -0.4718  0.2700 -0.1487
  756TIP3    H1 2232   2.799   2.509   2.412  1.0613 -0.7579 -2.2814
  756TIP3    H2 2233   2.884   2.597   2.323  2.0928  1.5935  0.8602
  757TIP3   OH2 2234   0.721   3.524   4.285 -0.6305 -0.4758 -0.1772
  757TIP3    H1 2235   0.767   3.607   4.300 -0.6112 -0.8303  2.2066
  757TIP3    H2 2236   0.764   3.486   4.208 -0.2246  1.4163 -0.9328
  758TIP3   OH2 2237   6.750   0.934   3.492 -0.5979  0.6008  0.6377
  758TIP3    H1 2238   6.805   0.978   3.427  2.1153 -2.8144  0.3812
  758TIP3    H2 2239   6.670   0.912   3.443  0.4874  0.0014 -0.9389
  759TIP3   OH2 2240   0.658   3.423   2.417  0.5451  0.4349  0.2544
  759TIP3    H1 2241   0.753   3.425   2.400  0.4977  1.0067  0.0568
  759TIP3    H2 2242   0.651   3.422   2.512  0.7455  0.5716  0.2719
  760TIP3   OH2 2243   3.101   1.447   5.486  0.0040 -0.2788  0.1909
  760TIP3    H1 2244   3.193   1.474   5.485 -0.4983  1.5591  0.5796
  760TIP3    H2 2245   3.053   1.524   5.517 -1.9634 -0.3104 -2.4437
  761TIP3   OH2 2246   0.505   3.722   0.188 -0.1243  0.2238  0.2333
  761TIP3    H1 2247   0.454   3.803   0.194  0.4279  0.8015 -1.8534
  761TIP3    H2 2248   0.594   3.750   0.211 -0.3656 -0.4285  2.2001
  762TIP3   OH2 2249   1.166   5.662   0.980  0.4019  0.1921  0.2664
  762TIP3    H1 2250   1.221   5.706   1.045 -0.3015  0.9492  0.3687
  762TIP3    H2 2251   1.222   5.593   0.944  1.1629  0.4632  0.8965
  763TIP3   OH2 2252   6.895   6.176   2.493  0.4106  0.2667  1.0148
  763TIP3    H1 2253   6.916   6.269   2.490  0.4988  0.2190  0.0107
  763TIP3    H2 2254   6.828   6.164   2.426  1.1590 -0.5827  0.4003
  764TIP3   OH2 2255   0.268   4.327   0.010 -0.1622 -0.2444 -0.4915
  764TIP3    H1 2256   0.362   4.307   0.019  0.3143  1.0998 -1.9666
  764TIP3    H2 2257   0.265   4.422   0.005 -1.6617 -0.2622 -0.2516
  765TIP3   OH2 2258   1.103   5.155   5.692 -0.0755 -0.1016 -0.0374
  765TIP3    H1 2259   1.065   5.082   5.741  0.3288 -0.5053 -0.3064
  765TIP3    H2 2260   1.186   5.120   5.659 -0.0969  0.3325 -0.5647
  766TIP3   OH2 2261   3.663   6.159   4.998 -0.3817 -0.4405 -0.9356
  766TIP3    H1 2262   3.586   6.104   5.013  0.9609 -2.6071 -1.5320
  766TIP3    H2 2263   3.662   6.221   5.070 -1.0914 -2.3122  0.7731
  767TIP3   OH2 2264   1.260   2.743   0.858 -0.0357  0.9860 -0.3692
  767TIP3    H1 2265   1.184   2.781   0.814  0.9500  2.5276 -0.8193
  767TIP3    H2 2266   1.257   2.650   0.835 -0.9047  1.3097 -1.6810
  768TIP3   OH2 2267   3.393   6.282   5.766 -0.6017 -0.0207  0.5056
  768TIP3    H1 2268   3.351   6.340   5.702  0.8256  0.8229  0.3016
  768TIP3    H2 2269   3.339   6.203   5.765 -2.3568  1.1162  0.4781
  769TIP3   OH2 2270   5.200   6.753   1.590  0.1521 -0.2531 -0.4390
  769TIP3    H1 2271   5.253   6.691   1.640 -0.4800  0.6879  1.4983
  769TIP3    H2 2272   5.112   6.714   1.590 -0.3573  0.8054  1.2025
  770TIP3   OH2 2273   7.079   1.430   2.985  1.0392 -0.1627 -0.5324
  770TIP3    H1 2274   7.152   1.482   3.018 -0.4274  1.3280  0.5873
  770TIP3    H2 2275   7.009   1.495   2.971 -0.0460 -1.5174 -1.5956
  771TIP3   OH2 2276   2.893   1.281   5.447  0.2434 -0.4429  0.7195
  771TIP3    H1 2277   2.947   1.203   5.435 -1.8978 -1.8116 -0.6874
  771TIP3    H2 2278   2.956   1.353   5.449  2.0912 -1.5586 -4.0259
  772TIP3   OH2 2279   4.940   4.443   1.055  0.4094  0.0673 -0.2013
  772TIP3    H1 2280   4.926   4.462   0.962 -2.2439  0.3278  0.1643
  772TIP3    H2 2281   4.960   4.350   1.058  1.0683  0.1760 -1.0657
  773TIP3   OH2 2282   5.138   1.887   2.621 -0.2377 -0.2634  0.0748
  773TIP3    H1 2283   5.095   1.942   2.686  0.6945 -0.3654  0.8126
  773TIP3    H2 2284   5.163   1.947   2.551  0.3665  0.1835  0.6610
  774TIP3   OH2 2285   0.204   4.965   3.546 -0.2610  0.7933  0.0708
  774TIP3    H1 2286   0.122   4.943   3.501 -0.0763 -1.6388  0.8046
  774TIP3    H2 2287   0.270   4.965   3.477 -0.4008 -0.3536 -0.0864
  775TIP3   OH2 2288   1.250   0.366   5.812 -0.6576  0.4908  0.2605
  775TIP3    H1 2289   1.281   0.335   5.897 -2.5130 -0.3504  0.6608
  775TIP3    H2 2290   1.298   0.312   5.748 -0.8769 -0.4211  0.8446
  776TIP3   OH2 2291   4.082   4.746   4.765 -0.0028  0.1529  0.0723
  776TIP3    H1 2292   3.988   4.756   4.749  0.0908  2.2000  0.4681
  776TIP3    H2 2293   4.123   4.790   4.691  0.6579 -0.8522 -0.1672
  777TIP3   OH2 2294   0.633   4.882   1.168 -0.5288  0.1237  0.0956
  777TIP3    H1 2295   0.549   4.877   1.123  0.1756  1.2292 -1.4432
  777TIP3    H2 2296   0.621   4.950   1.234 -0.4833  1.3108 -1.0690
  778TIP3   OH2 2297   1.589   3.539   5.468 -0.0239  0.1540 -0.6017
  778TIP3    H1 2298   1.620   3.509   5.553  1.7384  2.2804 -0.3942
  778TIP3    H2 2299   1.637   3.486   5.404  0.4694  0.1781 -0.2566
  779TIP3   OH2 2300   2.476   1.148   2.529 -0.3719 -0.0642  0.3016
  779TIP3    H1 2301   2.523   1.231   2.514  0.9428 -0.6979  0.7470
  779TIP3    H2 2302   2.443   1.155   2.618 -1.1095  0.3647  0.0045
  780TIP3   OH2 2303   5.012   2.414   3.834  0.4061  0.4452 -0.1130
  780TIP3    H1 2304   4.987   2.483   3.773 -0.0202 -0.2817 -0.7805
  780TIP3    H2 2305   5.070   2.457   3.897 -0.1532  1.4836 -0.2925
  781TIP3   OH2 2306   1.708   3.062   3.750 -0.9741 -0.0782 -0.2633
  781TIP3    H1 2307   1.735   3.084   3.660  0.8379 -0.9890  0.0039
  781TIP3    H2 2308   1.660   2.980   3.740 -1.3852  0.1834 -0.4685
  782TIP3   OH2 2309   7.203   3.158   4.867 -0.5173  0.0116 -0.2510
  782TIP3    H1 2310   7.168   3.071   4.886  1.3815 -0.7423  0.0407
  782TIP3    H2 2311   7.179   3.210   4.944 -1.6034 -0.2557 -0.3926
  783TIP3   OH2 2312   0.585   1.649   5.458 -0.4681 -0.2670  0.3080
  783TIP3    H1 2313   0.561   1.700   5.382  1.7619 -0.6120 -0.7175
  783TIP3    H2 2314   0.601   1.713   5.527 -1.0702  0.1428  0.0724
  784TIP3   OH2 2315   4.384   0.367   2.800  0.4095  0.1260 -0.4676
  784TIP3    H1 2316   4.476   0.343   2.815  0.5021  2.0292  2.9362
  784TIP3    H2 2317   4.335   0.287   2.818  1.2676 -0.4290 -0.5232
  785TIP3   OH2 2318   3.823   0.936   2.833  0.5531 -0.4599 -0.0452
  785TIP3    H1 2319   3.795   1.027   2.821 -0.5428 -0.9992 -2.0481
  785TIP3    H2 2320   3.747   0.894   2.874  1.1559 -0.4363  1.1197
  786TIP3   OH2 2321   5.900   1.940   1.490 -0.4243  0.2939 -0.9218
  786TIP3    H1 2322   5.954   1.946   1.412 -1.1248 -1.6561 -1.6294
  786TIP3    H2 2323   5.811   1.927   1.457 -0.5603 -1.9801  0.1046
  787TIP3   OH2 2324   6.278   2.491   1.845  0.0235  0.0113  0.6046
  787TIP3    H1 2325   6.336   2.554   1.889 -0.9811  1.4397 -0.0502
  787TIP3    H2 2326   6.257   2.426   1.913  0.3199  0.9097  1.5761
  788TIP3   OH2 2327   5.877   1.091   0.592  0.4177  0.5831  0.1702
  788TIP3    H1 2328   5.835   1.174   0.570  0.0329  0.6302  1.0403
  788TIP3    H2 2329   5.806   1.035   0.622  0.5334 -0.3888 -1.2846
  789TIP3   OH2 2330   5.332   3.731   2.077  0.0975  0.8208  0.6518
  789TIP3    H1 2331   5.309   3.810   2.029  0.6104  1.3898  1.3333
  789TIP3    H2 2332   5.355   3.668   2.009  2.6699  2.1875  0.1492
  790TIP3   OH2 2333   0.291   1.440   1.787  0.2000 -0.1193  0.5203
  790TIP3    H1 2334   0.272   1.347   1.783  0.3948 -0.1292 -0.3801
  790TIP3    H2 2335   0.386   1.445   1.800  0.2582 -0.0451  0.0703
  791TIP3   OH2 2336   4.472   5.785   2.878  0.2096 -0.3823 -0.0264
  791TIP3    H1 2337   4.401   5.802   2.817  0.8955  0.4114 -0.6307
  791TIP3    H2 2338   4.551   5.813   2.832  0.7008  0.6911  1.3768
  792TIP3   OH2 2339   3.624   4.064   5.085 -0.2922  0.1410  0.2329
  792TIP3    H1 2340   3.620   4.045   4.991 -0.3862 -0.7498  0.4071
  792TIP3    H2 2341   3.558   4.006   5.124 -0.4864  0.7445  0.8167
  793TIP3   OH2 2342   3.027   3.624   2.570  0.1091  1.0786 -0.1918
  793TIP3    H1 2343   3.075   3.696   2.528  1.5443  1.1919  1.5359
  793TIP3    H2 2344   3.095   3.573   2.615 -1.0046 -0.8023 -0.5467
  794TIP3   OH2 2345   4.019   0.783   2.118 -0.3640 -0.2183 -0.7355
  794TIP3    H1 2346   4.092   0.822   2.167 -0.0612  0.0730 -1.4033
  794TIP3    H2 2347   4.055   0.703   2.081  0.6664  1.4335 -3.6987
  795TIP3   OH2 2348   1.653   5.649   2.177 -0.3868  0.4696  0.9348
  795TIP3    H1 2349   1.703   5.567   2.168 -1.5883 -0.4395  2.1538
  795TIP3    H2 2350   1.650   5.664   2.271 -0.3361  1.8481  0.7278
  796TIP3   OH2 2351   6.836   1.108   0.050 -0.3491  0.3326  0.4971
  796TIP3    H1 2352   6.835   1.012   0.057  0.0566  0.3807  1.3993
  796TIP3    H2 2353   6.751   1.131   0.013  0.6030 -0.5466 -2.4999
  797TIP3   OH2 2354   6.196   3.474   0.062  0.1466  0.2553  0.0744
  797TIP3    H1 2355   6.290   3.472   0.042  0.3476  0.1746  0.9968
  797TIP3    H2 2356   6.158   3.411   0.000  0.9135 -0.8767  0.7060
  798TIP3   OH2 2357   3.314   5.348   4.988 -0.5803  0.7369 -0.0525
  798TIP3    H1 2358   3.363   5.411   4.935 -2.0544  0.3285 -2.0106
  798TIP3    H2 2359   3.276   5.400   5.058 -1.4186  1.9968 -1.3786
  799TIP3   OH2 2360   2.355   2.938   3.291  0.0306 -0.5065  0.2137
  799TIP3    H1 2361   2.323   3.027   3.276  0.8803 -0.0938  0.8000
  799TIP3    H2 2362   2.276   2.887   3.309 -0.7883 -0.4498 -2.6834
  800TIP3   OH2 2363   6.039   6.131   2.874  0.2047  0.5230  0.3664
  800TIP3    H1 2364   6.049   6.191   2.801 -1.7721  0.1543 -0.2786
  800TIP3    H2 2365   5.950   6.147   2.906  0.0417 -1.2459  0.9152
  801TIP3   OH2 2366   1.949   3.181   5.376 -0.0836  0.0809 -0.2547
  801TIP3    H1 2367   1.973   3.205   5.286  0.3005 -1.5632 -0.6112
  801TIP3    H2 2368   1.972   3.258   5.427 -0.7322  1.2349 -1.6108
  802TIP3   OH2 2369   2.149   2.836   5.632 -0.1057 -0.0621 -0.4329
  802TIP3    H1 2370   2.135   2.881   5.549 -0.1368  1.5858  0.4178
  802TIP3    H2 2371   2.238   2.802   5.627 -0.6576 -1.3972 -1.7476
  803TIP3   OH2 2372   6.846   0.925   3.092  0.2246  0.0933 -0.3391
  803TIP3    H1 2373   6.936   0.893   3.081  0.3146  0.5531 -1.0269
  803TIP3    H2 2374   6.852   1.019   3.074 -0.7356 -0.1974 -2.5134
  804TIP3   OH2 2375   4.269   4.387   1.211 -0.0261  0.5671  0.1540
  804TIP3    H1 2376   4.246   4.330   1.138  0.9774  1.3705 -0.8351
  804TIP3    H2 2377   4.364   4.377   1.220  0.0275  1.3592  0.5865
  805TIP3   OH2 2378   3.578   2.995   3.128 -0.1722 -1.3874 -0.4615
  805TIP3    H1 2379   3.493   2.953   3.117 -0.1241 -1.4143 -0.7259
  805TIP3    H2 2380   3.608   2.965   3.214 -0.9050 -0.5353  0.1111
  806TIP3   OH2 2381   2.890   5.615   0.750 -0.3099 -0.5519  0.3567
  806TIP3    H1 2382   2.973   5.604   0.705  0.5598 -0.5934  1.9042
  806TIP3    H2 2383   2.913   5.649   0.836 -2.1615  4.1805 -0.6936
  807TIP3   OH2 2384   4.924   0.575   4.249  0.1375 -0.1206  0.1591
  807TIP3    H1 2385   4.965   0.505   4.198  0.7993  0.4963 -0.1808
  807TIP3    H2 2386   4.955   0.560   4.339  0.8689  0.1585 -0.0414
  808TIP3   OH2 2387   2.322   6.479   2.885  0.2438 -0.3950 -0.7799
  808TIP3    H1 2388   2.356   6.430   2.810 -0.8440 -0.7368 -1.0586
  808TIP3    H2 2389   2.337   6.421   2.960 -1.6692 -1.5218 -1.1958
  809TIP3   OH2 2390   5.795   5.477   1.213 -0.1868 -0.0995 -0.3047
  809TIP3    H1 2391   5.774   5.557   1.261 -1.7994  0.2085 -1.4338
  809TIP3    H2 2392   5.885   5.489   1.183 -0.1406  0.9387  0.2132
  810TIP3   OH2 2393   4.844   2.154   0.408 -0.5537 -0.2742 -0.4916
  810TIP3    H1 2394   4.815   2.169   0.497 -0.6542  4.3303 -1.0713
  810TIP3    H2 2395   4.940   2.146   0.414 -0.7138 -2.3824  0.1306
  811TIP3   OH2 2396   1.353   5.474   4.432  0.8736 -0.5431  0.4556
  811TIP3    H1 2397   1.439   5.513   4.418  0.7410 -0.4409 -0.1178
  811TIP3    H2 2398   1.307   5.537   4.488  1.4572 -1.0109  1.4708
  812TIP3   OH2 2399   4.913   6.378   3.822 -0.1493  0.9818 -0.2862
  812TIP3    H1 2400   4.863   6.372   3.904 -0.0821  3.0961 -0.0208
  812TIP3    H2 2401   4.961   6.461   3.830 -0.4078  1.4136 -2.5996
  813TIP3   OH2 2402   0.723   4.591   2.038  0.0798  0.1974 -0.2888
  813TIP3    H1 2403   0.700   4.573   2.130  2.4282  0.0319  0.3364
  813TIP3    H2 2404   0.764   4.511   2.008 -0.0439  0.5003 -1.2896
  814TIP3   OH2 2405   4.724   2.561   1.128  0.1732 -0.0860 -0.2643
  814TIP3    H1 2406   4.722   2.623   1.200 -0.6288 -0.8174  0.3583
  814TIP3    H2 2407   4.649   2.585   1.073 -0.0172 -0.3695 -0.1307
  815TIP3   OH2 2408   4.197   3.964   4.855  0.2083  0.2367 -0.3895
  815TIP3    H1 2409   4.277   3.951   4.805 -0.2095 -1.8900 -0.6121
  815TIP3    H2 2410   4.178   3.878   4.893 -0.7225  1.2451  1.5852
  816TIP3   OH2 2411   4.906   5.671   1.379 -0.1981 -0.2041  0.2429
  816TIP3    H1 2412   4.850   5.700   1.451 -0.4273  1.5327 -0.5843
  816TIP3    H2 2413   4.990   5.714   1.394 -1.0455  2.5561 -1.9215
  817TIP3   OH2 2414   5.574   5.168   0.777  0.1229 -0.3831 -0.0661
  817TIP3    H1 2415   5.607   5.218   0.851 -1.9000 -1.2442  1.4986
  817TIP3    H2 2416   5.537   5.088   0.815 -1.5118 -0.5945 -1.9031
  818TIP3   OH2 2417   0.695   6.433   2.092 -0.5376  0.0207  0.4902
  818TIP3    H1 2418   0.651   6.348   2.086 -2.3493  0.7263  2.5797
  818TIP3    H2 2419   0.765   6.419   2.155 -0.5409 -0.0360  0.4817
  819TIP3   OH2 2420   3.322   5.134   1.733  0.1127 -0.2233 -0.4829
  819TIP3    H1 2421   3.362   5.049   1.753 -1.8965 -1.4175 -1.2092
  819TIP3    H2 2422   3.290   5.165   1.818 -0.9981 -1.2464 -0.4956
  820TIP3   OH2 2423   1.955   2.287   1.313  0.3260 -0.2955 -0.2565
  820TIP3    H1 2424   1.974   2.368   1.361 -1.0279 -0.5668  0.7840
  820TIP3    H2 2425   2.013   2.222   1.352  0.6805 -0.0571 -0.3847
  821TIP3   OH2 2426   2.186   1.408   3.424  0.6057 -0.1355 -0.2256
  821TIP3    H1 2427   2.267   1.385   3.471 -0.3077 -0.8755  1.0616
  821TIP3    H2 2428   2.116   1.379   3.483 -0.6387  2.8051 -0.1177
  822TIP3   OH2 2429   6.140   4.905   2.580 -0.6366  0.1309 -0.0645
  822TIP3    H1 2430   6.162   4.818   2.612  0.5251  0.0306 -1.0824
  822TIP3    H2 2431   6.064   4.892   2.524 -0.0491 -0.3591 -0.7712
  823TIP3   OH2 2432   1.255   1.894   4.633  0.2204  0.2451  0.4907
  823TIP3    H1 2433   1.351   1.898   4.630  0.6036 -3.1433  2.7021
  823TIP3    H2 2434   1.233   1.822   4.573 -1.0819  1.4804 -0.5848
  824TIP3   OH2 2435   5.409   3.209   1.366  0.1203 -0.3793  0.2311
  824TIP3    H1 2436   5.468   3.196   1.440 -1.4127 -0.2653  1.5492
  824TIP3    H2 2437   5.421   3.132   1.311 -0.5140 -1.7793  1.9505
  825TIP3   OH2 2438   2.867   0.329   4.433 -0.0372  0.1679  0.3950
  825TIP3    H1 2439   2.783   0.296   4.464 -0.7706  1.3807 -0.1980
  825TIP3    H2 2440   2.865   0.423   4.455  1.2926  0.1622  0.6329
  826TIP3   OH2 2441   1.229   2.170   4.572 -0.0247  0.3768  0.2059
  826TIP3    H1 2442   1.142   2.208   4.582 -0.3198 -0.4632  0.9478
  826TIP3    H2 2443   1.213   2.076   4.566  0.6956  0.3219 -1.4611
  827TIP3   OH2 2444   3.540   0.548   4.589 -0.7907 -0.2055 -0.2105
  827TIP3    H1 2445   3.515   0.590   4.507  0.8960  1.2774 -0.0107
  827TIP3    H2 2446   3.520   0.612   4.657 -0.0233 -0.5016  0.3083
  828TIP3   OH2 2447   1.920   2.841   0.424 -0.1833  0.2794 -0.2297
  828TIP3    H1 2448   1.979   2.860   0.497 -0.5488 -0.4840  0.2831
  828TIP3    H2 2449   1.928   2.916   0.366  1.6985 -0.0299 -0.4374
  829TIP3   OH2 2450   0.607   2.006   3.390  0.0647 -0.4103  0.3034
  829TIP3    H1 2451   0.677   2.069   3.409 -0.9541  0.2309  2.2006
  829TIP3    H2 2452   0.644   1.921   3.414  0.5565 -0.2040  0.2816
  830TIP3   OH2 2453   3.093   1.992   3.913  0.2851  0.2106 -0.5322
  830TIP3    H1 2454   3.130   1.953   3.834 -0.6335 -0.3414 -0.7055
  830TIP3    H2 2455   3.002   2.010   3.891  0.5344  1.9696 -0.2640
  831TIP3   OH2 2456   4.390   2.021   1.975 -0.2260  0.0815  0.9484
  831TIP3    H1 2457   4.381   1.980   1.889 -2.7796 -0.6306  1.4765
  831TIP3    H2 2458   4.340   1.965   2.034  2.2691 -0.0154  3.1689
  832TIP3   OH2 2459   2.451   5.434   5.126 -0.2953 -0.4003 -0.5136
  832TIP3    H1 2460   2.492   5.397   5.048  1.3837  1.3654 -0.5312
  832TIP3    H2 2461   2.368   5.386   5.134 -0.5082 -0.6852 -3.3421
  833TIP3   OH2 2462   3.709   5.172   3.528  0.1697  0.2940  0.1068
  833TIP3    H1 2463   3.671   5.238   3.586  0.1595 -1.0608  1.7069
  833TIP3    H2 2464   3.787   5.214   3.492 -0.6131  1.6753 -0.0557
  834TIP3   OH2 2465   2.053   2.093   3.491 -0.1244 -0.2638 -0.2766
  834TIP3    H1 2466   2.118   2.108   3.422  0.7767  1.3516  0.8736
  834TIP3    H2 2467   2.081   2.148   3.564 -1.3388 -1.5212  1.2275
  835TIP3   OH2 2468   4.530   4.972   3.402 -0.0792  0.2634 -0.0718
  835TIP3    H1 2469   4.515   5.064   3.425 -0.4492 -0.0412  0.9818
  835TIP3    H2 2470   4.618   4.971   3.364  0.2824  0.9349  0.7080
  836TIP3   OH2 2471   3.920   4.495   1.378 -0.4274 -0.1690 -0.1068
  836TIP3    H1 2472   3.856   4.549   1.331 -0.3032 -0.3934 -0.5439
  836TIP3    H2 2473   3.891   4.497   1.469 -0.3700  0.7048 -0.1028
  837TIP3   OH2 2474   2.187   1.947   0.954 -0.0791  0.3817 -0.4326
  837TIP3    H1 2475   2.247   2.002   1.004  2.1858 -0.6714 -1.8247
  837TIP3    H2 2476   2.223   1.859   0.962 -0.4583 -0.0258 -2.6395
  838TIP3   OH2 2477   6.292   5.201   0.147 -0.3151  0.2954  0.2454
  838TIP3    H1 2478   6.277   5.249   0.066  1.1755  1.9824  0.8933
  838TIP3    H2 2479   6.363   5.141   0.127 -2.2090 -1.8164 -0.5778
  839TIP3   OH2 2480   2.192   0.784   3.116  0.2719  0.0160  0.2424
  839TIP3    H1 2481   2.158   0.732   3.044 -0.4665 -0.6394  1.0419
  839TIP3    H2 2482   2.248   0.724   3.165 -1.2701 -0.3143  1.6701
  840TIP3   OH2 2483   6.739   6.194   0.468  0.6212 -0.4530 -0.4617
  840TIP3    H1 2484   6.741   6.289   0.458  0.1508 -0.7082 -4.9901
  840TIP3    H2 2485   6.648   6.170   0.447 -0.2559 -1.8851  3.8841
  841TIP3   OH2 2486   1.990   4.850   5.659 -0.6431  0.3677  0.5526
  841TIP3    H1 2487   1.899   4.850   5.689 -0.4932 -0.7744  1.0994
  841TIP3    H2 2488   2.038   4.897   5.727 -0.5608 -0.7288  1.2895
  842TIP3   OH2 2489   3.136   2.960   5.285 -0.1169 -0.5072  0.5221
  842TIP3    H1 2490   3.050   2.955   5.327 -1.1913 -2.0801 -1.6167
  842TIP3    H2 2491   3.134   3.042   5.235 -1.1537 -1.3529 -0.9116
  843TIP3   OH2 2492   2.440   4.149   0.489 -0.2378 -0.3711 -0.0607
  843TIP3    H1 2493   2.445   4.238   0.455  3.1608  0.1281  1.3427
  843TIP3    H2 2494   2.507   4.101   0.439 -1.1513 -1.8221  0.0538
  844TIP3   OH2 2495   7.225   0.425   3.169  0.3630  0.3915 -0.3042
  844TIP3    H1 2496   7.142   0.462   3.138 -1.1214 -1.5112  1.2063
  844TIP3    H2 2497   7.243   0.472   3.251  0.3732  0.2907 -0.2481
  845TIP3   OH2 2498   1.139   6.608  -0.001 -0.7774 -0.6770 -0.9657
  845TIP3    H1 2499   1.173   6.518   0.000  1.8791  0.2447 -0.4346
  845TIP3    H2 2500   1.169   6.646   0.081  0.9195  1.5847 -2.5112
  846TIP3   OH2 2501   2.443   6.426   5.170 -0.1553 -0.0501  0.1172
  846TIP3    H1 2502   2.364   6.388   5.207 -1.9522  1.8733 -1.5113
  846TIP3    H2 2503   2.490   6.462   5.245 -1.6583  0.2399  0.9637
  847TIP3   OH2 2504   1.793   0.726   5.075 -0.2194  0.0237  0.2989
  847TIP3    H1 2505   1.730   0.684   5.133  0.6882 -1.0815  0.5294
  847TIP3    H2 2506   1.871   0.738   5.129 -0.3131  1.6851  0.1205
  848TIP3   OH2 2507   2.762   6.498   2.009 -0.0865 -0.6729  0.5904
  848TIP3    H1 2508   2.744   6.434   2.078  0.2401 -0.1487  1.1702
  848TIP3    H2 2509   2.752   6.449   1.928 -1.3445 -1.0821  0.9791
  849TIP3   OH2 2510   0.105   6.361   2.306  0.0244  0.0310 -0.3076
  849TIP3    H1 2511   0.143   6.288   2.354  0.2975  0.3765  0.0092
  849TIP3    H2 2512   0.176   6.391   2.248 -0.5180 -0.8309 -1.4546
  850TIP3   OH2 2513   4.657   0.753   0.073 -0.1778  0.6655  0.1136
  850TIP3    H1 2514   4.591   0.796   0.128 -2.3571 -0.2673 -1.6220
  850TIP3    H2 2515   4.664   0.664   0.108  2.1414  1.4174  1.8486
  851TIP3   OH2 2516   6.002   0.528   2.382  0.5907  0.6099 -0.0001
  851TIP3    H1 2517   6.072   0.581   2.421  0.1501  1.1526  0.0661
  851TIP3    H2 2518   5.957   0.588   2.322  0.7145  0.0243 -0.6916
  852TIP3   OH2 2519   5.575   2.398   2.333 -0.3740 -0.0112 -0.0137
  852TIP3    H1 2520   5.549   2.306   2.345 -0.0863  0.1446  2.1678
  852TIP3    H2 2521   5.493   2.447   2.342 -0.6719 -0.0517 -2.0145
  853TIP3   OH2 2522   3.547   6.391   4.172  0.3653 -0.0943  0.1436
  853TIP3    H1 2523   3.506   6.355   4.251 -1.7925  0.6926 -0.5505
  853TIP3    H2 2524   3.491   6.362   4.100 -0.2385  2.7695 -0.6556
  854TIP3   OH2 2525   6.302   2.303   4.460 -0.5593  0.0845  0.1023
  854TIP3    H1 2526   6.275   2.298   4.368 -0.5475  1.3552  0.0020
  854TIP3    H2 2527   6.352   2.384   4.465  0.4997 -0.6052  0.9799
  855TIP3   OH2 2528   5.407   3.986   0.229 -0.0847  0.1101 -0.0248
  855TIP3    H1 2529   5.331   3.941   0.265  2.4626 -3.2261  1.6879
  855TIP3    H2 2530   5.459   4.011   0.305  1.5302  0.4746 -1.1817
  856TIP3   OH2 2531   7.105   2.067   1.585  0.6665 -0.1413 -0.1055
  856TIP3    H1 2532   7.011   2.074   1.603  0.5281 -3.4192  1.1343
  856TIP3    H2 2533   7.143   2.148   1.619 -1.6475  1.1767 -0.4751
  857TIP3   OH2 2534   3.140   6.111   3.044 -0.6620 -0.0506 -0.2012
  857TIP3    H1 2535   3.139   6.152   2.958  0.2842 -0.7594 -0.5674
  857TIP3    H2 2536   3.228   6.074   3.052 -0.5027  0.5770  1.3511
  858TIP3   OH2 2537   2.511   6.009   4.229 -0.3930 -0.3606  0.0195
  858TIP3    H1 2538   2.484   6.097   4.202  2.7372  0.3243 -1.3312
  858TIP3    H2 2539   2.512   6.012   4.324 -1.2258  0.7549  0.0158
  859TIP3   OH2 2540   1.963   5.723   1.752  0.3343  0.0935  0.2992
  859TIP3    H1 2541   1.944   5.794   1.812  0.0706 -0.4038  0.8173
  859TIP3    H2 2542   1.931   5.644   1.797 -3.0334  0.0265 -1.8172
  860TIP3   OH2 2543   5.875   2.970   2.858 -0.0991 -0.1209  0.2573
  860TIP3    H1 2544   5.856   2.887   2.900 -0.5149 -0.3971 -0.4690
  860TIP3    H2 2545   5.933   2.948   2.785  2.4730  0.6049  1.9480
  861TIP3   OH2 2546   1.254   4.094   5.175  0.4080 -0.0080  0.8480
  861TIP3    H1 2547   1.184   4.149   5.212 -0.4300 -0.4010 -0.1136
  861TIP3    H2 2548   1.225   4.005   5.192  1.0112 -0.1705  1.0333
  862TIP3   OH2 2549   0.596   6.078   4.123  0.1908  0.1976 -0.1376
  862TIP3    H1 2550   0.597   6.115   4.211  0.5336  0.4311 -0.2370
  862TIP3    H2 2551   0.582   6.153   4.065 -0.2364  0.0182 -0.2696
  863TIP3   OH2 2552   2.086   2.253   0.216  0.0603 -0.0788 -0.1281
  863TIP3    H1 2553   2.136   2.176   0.244  0.4618 -0.1380 -0.9787
  863TIP3    H2 2554   1.998   2.220   0.200 -0.2929  0.0366  1.4362
  864TIP3   OH2 2555   4.296   1.718   4.226 -0.4745 -0.3459 -0.3114
  864TIP3    H1 2556   4.275   1.659   4.153 -1.0692 -2.4254  1.4477
  864TIP3    H2 2557   4.383   1.691   4.254 -0.2373  0.4665 -0.2439
  865TIP3   OH2 2558   1.069   4.813   3.096 -0.3779 -1.0367  0.1610
  865TIP3    H1 2559   1.058   4.728   3.054  1.9748 -1.0570 -0.6094
  865TIP3    H2 2560   1.115   4.794   3.178 -1.6565 -0.6660  0.9794
  866TIP3   OH2 2561   6.907   1.395   5.734  0.4056 -0.1889  0.4262
  866TIP3    H1 2562   6.924   1.476   5.783 -1.0874 -0.6514  1.7789
  866TIP3    H2 2563   6.912   1.326   5.800  3.0124 -1.4493 -0.9272
  867TIP3   OH2 2564   2.700   1.435   5.757 -0.2468  0.4377  0.4360
  867TIP3    H1 2565   2.750   1.353   5.761 -1.6448 -0.4263  0.9730
  867TIP3    H2 2566   2.675   1.443   5.665  1.9216  1.5662 -0.1066
  868TIP3   OH2 2567   4.622   1.278   3.936 -0.2913  0.4514  0.2526
  868TIP3    H1 2568   4.563   1.345   3.970 -0.5193 -0.2626  1.3510
  868TIP3    H2 2569   4.710   1.309   3.959 -0.4252  0.1435  1.2706
  869TIP3   OH2 2570   4.139   5.103   2.916  0.2421  0.9011 -0.2480
  869TIP3    H1 2571   4.198   5.040   2.874 -0.5633  1.4651 -2.3275
  869TIP3    H2 2572   4.105   5.156   2.845 -5.3285 -1.4132  0.1753
  870TIP3   OH2 2573   6.217   3.189   4.443 -0.4222  0.2536  0.2036
  870TIP3    H1 2574   6.303   3.159   4.471 -0.8582 -0.9007  0.3523
  870TIP3    H2 2575   6.193   3.257   4.506  0.4830  0.7591  0.0084
  871TIP3   OH2 2576   3.729   5.847   0.504 -0.2314  0.3130 -0.3363
  871TIP3    H1 2577   3.719   5.753   0.491 -1.2776  0.4673 -0.6639
  871TIP3    H2 2578   3.698   5.887   0.423 -1.0653  0.9968  0.3036
  872TIP3   OH2 2579   2.485   3.525   2.046  0.1567 -0.3640 -0.6780
  872TIP3    H1 2580   2.414   3.588   2.041 -1.0244 -1.4929  0.8010
  872TIP3    H2 2581   2.477   3.473   1.965  0.8978  1.0494 -1.7108
  873TIP3   OH2 2582   3.267   4.511   5.778 -0.3586  0.3391  1.0167
  873TIP3    H1 2583   3.351   4.471   5.756 -0.8636 -0.1751 -0.0046
  873TIP3    H2 2584   3.255   4.581   5.714 -0.5327  0.6813  1.4116
  874TIP3   OH2 2585   0.168   3.161   4.660 -0.1841 -0.1183  0.6356
  874TIP3    H1 2586   0.119   3.118   4.730  0.7462  0.0976  1.4537
  874TIP3    H2 2587   0.259   3.157   4.690  0.4054 -1.2221 -1.2082
  875TIP3   OH2 2588   4.730   4.503   1.225 -0.0090 -0.0349  0.1259
  875TIP3    H1 2589   4.804   4.469   1.174  0.4566  1.6377 -0.3658
  875TIP3    H2 2590   4.769   4.566   1.285 -0.7657 -0.8326  1.5021
  876TIP3   OH2 2591   6.539   5.136   0.548  0.2625 -0.1874  0.4767
  876TIP3    H1 2592   6.611   5.193   0.521 -1.5794  1.8347 -0.4065
  876TIP3    H2 2593   6.467   5.158   0.490 -1.4409 -1.3354  2.0400
  877TIP3   OH2 2594   4.706   1.039   1.248 -0.8854  0.1865  0.3410
  877TIP3    H1 2595   4.773   0.978   1.215 -0.0507  0.6825  1.0729
  877TIP3    H2 2596   4.697   1.104   1.179 -1.1591 -0.2925 -0.0803
  878TIP3   OH2 2597   4.747   2.615   0.829 -0.0123  0.0014 -0.2507
  878TIP3    H1 2598   4.713   2.692   0.783 -2.8394 -0.1834  1.2841
  878TIP3    H2 2599   4.803   2.651   0.897 -0.2547  0.6443 -0.3759
  879TIP3   OH2 2600   2.587   6.451   0.969 -0.0086 -0.0828  0.1505
  879TIP3    H1 2601   2.582   6.430   0.876  0.5750  0.4811 -0.0222
  879TIP3    H2 2602   2.560   6.543   0.974  2.6178  0.7852  0.1235
  880TIP3   OH2 2603   2.661   2.350   3.338 -0.0299 -0.2737  0.3659
  880TIP3    H1 2604   2.572   2.348   3.304  0.6241 -1.9267 -1.4790
  880TIP3    H2 2605   2.681   2.443   3.348 -1.9410  0.1364  0.8983
  881TIP3   OH2 2606   5.107   6.691   0.810 -0.2647  0.0461  0.3121
  881TIP3    H1 2607   5.106   6.688   0.906 -0.3105 -0.4252  0.2984
  881TIP3    H2 2608   5.109   6.785   0.789 -1.2564  0.1786  0.7677
  882TIP3   OH2 2609   6.584   5.224   1.867  0.3421  0.2033  0.0549
  882TIP3    H1 2610   6.523   5.244   1.796 -2.2834 -0.7508  1.8681
  882TIP3    H2 2611   6.604   5.309   1.907 -1.1652  0.4128  0.4207
  883TIP3   OH2 2612   1.570   5.968   3.453  0.0797  0.6352 -0.4658
  883TIP3    H1 2613   1.589   5.897   3.514 -0.9518  0.1217 -0.7159
  883TIP3    H2 2614   1.639   5.963   3.387  0.0947 -0.0592 -0.4053
  884TIP3   OH2 2615   7.106   5.566   3.245 -0.4054  0.2685  0.3866
  884TIP3    H1 2616   7.155   5.483   3.234 -0.5604  0.1706  0.4380
  884TIP3    H2 2617   7.020   5.548   3.207  0.1243  0.9615 -1.2387
  885TIP3   OH2 2618   0.905   5.837   0.562  0.1604  0.6294  0.4049
  885TIP3    H1 2619   0.846   5.763   0.553 -0.0329  0.9849 -1.8965
  885TIP3    H2 2620   0.872   5.885   0.638 -2.6024  0.8494 -0.8010
  886TIP3   OH2 2621   0.997   6.015   5.143 -0.2084 -0.0002 -0.1543
  886TIP3    H1 2622   1.076   5.991   5.192  0.5554  1.0295 -0.8291
  886TIP3    H2 2623   0.943   5.936   5.146 -0.9065  0.3991  3.5892
  887TIP3   OH2 2624   1.265   1.870   0.551 -0.2775 -0.1984  0.6778
  887TIP3    H1 2625   1.355   1.874   0.519 -0.6635 -0.4038 -0.4730
  887TIP3    H2 2626   1.237   1.780   0.534 -0.8837  0.0191  0.4718
  888TIP3   OH2 2627   6.484   4.666   0.219 -0.7685 -0.6725  0.1451
  888TIP3    H1 2628   6.459   4.588   0.268  1.7545 -1.0688  0.9945
  888TIP3    H2 2629   6.430   4.736   0.256  0.4308 -1.1167  3.0618
  889TIP3   OH2 2630   7.103   5.151   3.791 -0.0267  0.3865 -0.2357
  889TIP3    H1 2631   7.052   5.195   3.859  0.0114 -0.3980  0.3119
  889TIP3    H2 2632   7.047   5.080   3.760  0.5860 -0.2696  0.1303
  890TIP3   OH2 2633   5.157   1.301   5.787  0.3848 -0.0003  0.0391
  890TIP3    H1 2634   5.108   1.273   5.709  2.3472  0.4117 -1.4019
  890TIP3    H2 2635   5.164   1.396   5.777  3.2728 -0.2368 -0.9706
  891TIP3   OH2 2636   1.809   2.865   4.030 -0.1710 -0.0277  0.6990
  891TIP3    H1 2637   1.783   2.873   4.121 -0.0322  0.8269  0.6722
  891TIP3    H2 2638   1.904   2.852   4.033 -0.4105 -2.1528  0.7527
  892TIP3   OH2 2639   0.186   1.337   5.544 -0.0525  0.4821  0.8148
  892TIP3    H1 2640   0.093   1.342   5.564 -0.6466 -0.1892 -1.4283
  892TIP3    H2 2641   0.219   1.424   5.564 -0.4308 -0.0530  4.4627
  893TIP3   OH2 2642   0.310   2.745   3.097  0.1649 -0.3163 -0.0173
  893TIP3    H1 2643   0.323   2.655   3.065  2.4014 -0.7093  1.7591
  893TIP3    H2 2644   0.324   2.800   3.021 -0.3920 -1.4107 -0.9511
  894TIP3   OH2 2645   4.363   0.091   2.649  0.8166 -0.1560  0.0614
  894TIP3    H1 2646   4.411   0.016   2.684  2.5519  0.9741  0.2343
  894TIP3    H2 2647   4.430   0.143   2.603 -0.8395 -0.0993 -2.4651
  895TIP3   OH2 2648   1.423   3.624   4.143 -0.0850  0.3238  0.1861
  895TIP3    H1 2649   1.504   3.581   4.172  1.5982  2.5858 -0.8787
  895TIP3    H2 2650   1.364   3.618   4.218  0.9417 -1.6230  0.8960
  896TIP3   OH2 2651   7.103   0.276   1.315 -0.6970 -0.8531  0.0416
  896TIP3    H1 2652   7.165   0.245   1.381  0.0306 -0.9834 -0.6793
  896TIP3    H2 2653   7.073   0.196   1.271 -0.4700 -0.7026 -0.3908
  897TIP3   OH2 2654   6.273   3.897   3.071 -0.1469 -0.9306 -0.5623
  897TIP3    H1 2655   6.207   3.851   3.124  0.6477 -1.5331 -0.0681
  897TIP3    H2 2656   6.295   3.975   3.122 -0.1237 -0.9820 -0.4939
  898TIP3   OH2 2657   2.517   2.047   5.200  0.2274  0.5494  0.2510
  898TIP3    H1 2658   2.513   1.952   5.196  0.4187  0.4990  1.0984
  898TIP3    H2 2659   2.448   2.071   5.262  0.7150  0.9053  0.6635
  899TIP3   OH2 2660   4.534   0.729   3.849 -0.4414 -0.4786 -0.7110
  899TIP3    H1 2661   4.506   0.820   3.846 -0.5490 -0.4597  0.5143
  899TIP3    H2 2662   4.569   0.717   3.937  1.6624 -1.0289 -1.5573
  900TIP3   OH2 2663   1.185   3.603   3.867  0.2797 -0.1099 -0.2595
  900TIP3    H1 2664   1.142   3.521   3.891  1.1152 -0.2564  0.7910
  900TIP3    H2 2665   1.153   3.667   3.930 -0.4073  0.4090 -1.1055
  901TIP3   OH2 2666   0.276   3.993   4.640  0.0561  0.5378 -0.0210
  901TIP3    H1 2667   0.183   3.969   4.647  0.0065  0.6237 -0.3729
  901TIP3    H2 2668   0.322   3.923   4.686 -0.2322  0.9198  0.8679
  902TIP3   OH2 2669   0.901   5.715   3.332  0.2649 -0.5296 -0.1890
  902TIP3    H1 2670   0.872   5.629   3.302  0.6352 -0.7568  0.1005
  902TIP3    H2 2671   0.957   5.748   3.261  0.7860 -0.8810  0.0495
  903TIP3   OH2 2672   0.670   5.198   3.218  0.1132  0.1281  0.1977
  903TIP3    H1 2673   0.591   5.232   3.260 -1.1035 -1.5232 -0.6229
  903TIP3    H2 2674   0.717   5.275   3.188 -0.5696  1.2035  1.7596
  904TIP3   OH2 2675   5.637   3.812   3.920 -0.5977 -0.1072 -0.2766
  904TIP3    H1 2676   5.651   3.825   3.826 -1.7948  1.2851 -0.2972
  904TIP3    H2 2677   5.691   3.880   3.961  0.9091 -1.5003  0.1337
  905TIP3   OH2 2678   6.594   5.021   2.282 -0.4818  0.4502 -0.1021
  905TIP3    H1 2679   6.650   5.000   2.208 -1.4291  0.5457 -0.8576
  905TIP3    H2 2680   6.645   5.083   2.335  1.4683 -1.8887  0.9758
  906TIP3   OH2 2681   2.751   1.040   0.867 -0.3151 -0.2412  0.0425
  906TIP3    H1 2682   2.756   0.960   0.920 -0.0841 -0.5129 -0.3876
  906TIP3    H2 2683   2.827   1.091   0.894  0.1056 -0.6233 -0.4202
  907TIP3   OH2 2684   6.171   4.483   4.392 -0.3851  0.9698 -0.2591
  907TIP3    H1 2685   6.130   4.569   4.407 -0.2779  1.0915 -0.6435
  907TIP3    H2 2686   6.230   4.472   4.467  1.2576  2.2435 -1.2714
  908TIP3   OH2 2687   6.078   5.944   2.022 -0.0969  0.0566 -0.3094
  908TIP3    H1 2688   5.983   5.946   2.014 -0.1335 -1.1320 -0.4538
  908TIP3    H2 2689   6.110   5.988   1.943 -0.5239  0.3415 -0.3276
  909TIP3   OH2 2690   2.882   2.375   0.041  0.2039  0.1055 -0.1066
  909TIP3    H1 2691   2.844   2.331  -0.035 -0.0205  0.3446 -0.1378
  909TIP3    H2 2692   2.910   2.461   0.008  0.5772  0.0126 -0.0336
  910TIP3   OH2 2693   5.385   5.709   2.547 -0.4495 -0.0248 -0.2006
  910TIP3    H1 2694   5.434   5.780   2.506  0.1739 -0.5127 -0.3254
  910TIP3    H2 2695   5.419   5.705   2.636 -0.6315 -0.0361 -0.1307
  911TIP3   OH2 2696   0.545   1.691   3.942 -0.1894 -0.0749  0.1230
  911TIP3    H1 2697   0.572   1.604   3.970 -2.1949 -0.3912  1.3028
  911TIP3    H2 2698   0.534   1.741   4.024 -1.1548  0.6015 -0.3954
  912TIP3   OH2 2699   0.097   3.337   2.862  0.1803 -0.2681  0.1002
  912TIP3    H1 2700   0.067   3.388   2.786  0.6472 -0.4633 -0.2239
  912TIP3    H2 2701   0.189   3.363   2.872  0.1153 -0.2341  0.6106
  913TIP3   OH2 2702   2.962   5.705   0.994 -0.3996  1.0127  0.5818
  913TIP3    H1 2703   2.887   5.662   1.035  0.9744 -1.7859  0.4361
  913TIP3    H2 2704   3.018   5.730   1.067  0.6667 -1.2953  0.6667
  914TIP3   OH2 2705   3.991   6.211   1.334 -0.3531  0.9061 -0.3516
  914TIP3    H1 2706   4.005   6.288   1.278 -1.9876  1.6815  0.2532
  914TIP3    H2 2707   3.973   6.247   1.421 -1.9981 -0.0820 -0.2297
  915TIP3   OH2 2708   4.685   0.683   5.188  0.0346  0.5218 -0.4722
  915TIP3    H1 2709   4.627   0.681   5.112 -0.7453  0.8040  0.0907
  915TIP3    H2 2710   4.691   0.775   5.212  2.7720  0.8341 -1.9950
  916TIP3   OH2 2711   2.557   2.690   1.671  0.2356  0.2287  0.4130
  916TIP3    H1 2712   2.651   2.676   1.675  0.4816  0.4979 -2.3443
  916TIP3    H2 2713   2.537   2.747   1.746  2.0180 -0.7755  1.7285
  917TIP3   OH2 2714   0.417   3.307   2.826  0.3517 -0.6927  0.3880
  917TIP3    H1 2715   0.439   3.390   2.784 -1.7893  0.4255  1.2875
  917TIP3    H2 2716   0.498   3.280   2.870  0.5715  2.2027  2.0791
  918TIP3   OH2 2717   4.114   5.245   5.615  0.2716 -0.4345  0.2161
  918TIP3    H1 2718   4.079   5.163   5.648  0.9484 -0.8194 -0.0098
  918TIP3    H2 2719   4.041   5.284   5.566 -0.6828  0.0554  1.9535
  919TIP3   OH2 2720   7.201   4.704   1.619  0.5612 -0.1975  0.0766
  919TIP3    H1 2721   7.109   4.723   1.603  0.5113 -0.9198 -0.5655
  919TIP3    H2 2722   7.235   4.677   1.533  1.3329 -0.0725  0.3354
  920TIP3   OH2 2723   0.664   1.147   2.933 -0.3771 -0.3782 -0.2025
  920TIP3    H1 2724   0.759   1.136   2.938 -0.0111  1.1094 -2.5538
  920TIP3    H2 2725   0.629   1.058   2.933  0.8775 -0.9416  1.7855
  921TIP3   OH2 2726   2.968   6.408   5.407  0.0531  0.6742  0.3070
  921TIP3    H1 2727   2.901   6.472   5.385 -1.0842 -0.5844 -0.0051
  921TIP3    H2 2728   2.972   6.410   5.503 -1.5034 -0.2669  0.4187
  922TIP3   OH2 2729   2.656   1.560   1.555  0.2335  0.2209 -0.3702
  922TIP3    H1 2730   2.568   1.585   1.527 -0.3136  0.5760  1.5170
  922TIP3    H2 2731   2.699   1.643   1.575 -0.0584 -0.0602  1.5911
  923TIP3   OH2 2732   3.487   4.901   2.101  0.5066  0.0159 -0.8626
  923TIP3    H1 2733   3.549   4.831   2.119 -1.9698 -1.9479  0.7357
  923TIP3    H2 2734   3.540   4.981   2.101  3.1365 -1.6127 -0.6529
  924TIP3   OH2 2735   0.971   0.425   5.099  0.4343  0.1602 -0.5068
  924TIP3    H1 2736   1.036   0.493   5.120  1.1347 -0.7055  0.2081
  924TIP3    H2 2737   1.018   0.365   5.042 -0.0205  0.0019 -0.7131
  925TIP3   OH2 2738   5.227   0.100   2.934  0.1235 -0.0854 -0.0732
  925TIP3    H1 2739   5.313   0.134   2.960  0.7399 -1.3423 -0.3941
  925TIP3    H2 2740   5.170   0.177   2.936  1.4087  0.9387 -0.5834
  926TIP3   OH2 2741   2.244   4.087   1.844  0.1148  0.7146 -0.1746
  926TIP3    H1 2742   2.155   4.053   1.851  1.1408 -2.2036  0.4198
  926TIP3    H2 2743   2.282   4.072   1.931  1.4966  0.8625 -0.7245
  927TIP3   OH2 2744   6.683   3.609   5.469 -0.3912  0.1595  0.3020
  927TIP3    H1 2745   6.625   3.585   5.541 -1.4974  1.6247 -0.0352
  927TIP3    H2 2746   6.663   3.547   5.400 -0.4742 -0.2616  0.6970
  928TIP3   OH2 2747   2.144   4.151   2.174  0.7059 -0.2310 -0.5729
  928TIP3    H1 2748   2.093   4.137   2.254 -1.5635  0.5902 -1.7761
  928TIP3    H2 2749   2.170   4.063   2.147 -1.0508 -0.8170 -0.4681
  929TIP3   OH2 2750   2.827   6.576   2.739  0.2738 -0.4557  0.2071
  929TIP3    H1 2751   2.781   6.597   2.658 -1.7437 -0.3325  1.3337
  929TIP3    H2 2752   2.816   6.654   2.794  1.1579 -0.7414  0.8153
  930TIP3   OH2 2753   1.815   6.051   4.868 -0.3002 -0.6463 -0.3865
  930TIP3    H1 2754   1.758   6.065   4.944 -0.8462  1.6725 -1.1221
  930TIP3    H2 2755   1.904   6.051   4.905 -0.3441  3.0693  0.1569
  931TIP3   OH2 2756   5.286   1.308   1.409 -0.0129  0.4735 -0.1658
  931TIP3    H1 2757   5.301   1.228   1.458 -0.1520 -0.0457 -0.9525
  931TIP3    H2 2758   5.193   1.328   1.425  0.0472  0.5340  0.1108
  932TIP3   OH2 2759   6.096   6.746   0.228 -0.2819 -0.2760 -0.2453
  932TIP3    H1 2760   6.111   6.758   0.134 -1.4839 -2.4407 -0.7979
  932TIP3    H2 2761   6.079   6.652   0.237 -0.6676 -0.0380  2.0828
  933TIP3   OH2 2762   5.727   3.159   1.969 -0.2972 -0.1663  0.2858
  933TIP3    H1 2763   5.719   3.094   2.039  0.5189  0.0306  0.5683
  933TIP3    H2 2764   5.742   3.108   1.890 -0.5050 -0.3581  0.3698
  934TIP3   OH2 2765   5.086   1.424   4.916  0.3480  0.3393 -0.1812
  934TIP3    H1 2766   5.078   1.333   4.945  0.1552  0.3823 -0.0958
  934TIP3    H2 2767   5.008   1.467   4.952 -0.9841 -0.0318 -2.4124
  935TIP3   OH2 2768   3.218   4.183   3.930  0.5456 -0.0122  0.9582
  935TIP3    H1 2769   3.165   4.167   3.851 -0.2725 -0.6405  1.6051
  935TIP3    H2 2770   3.157   4.168   4.002  1.4237  0.0209  1.7193
  936TIP3   OH2 2771   3.566   4.384   4.806 -0.3958 -0.4788 -0.5404
  936TIP3    H1 2772   3.591   4.396   4.897 -0.3741 -0.7859 -0.5076
  936TIP3    H2 2773   3.643   4.411   4.756 -1.0658  1.6337 -0.5372
  937TIP3   OH2 2774   6.176   3.036   5.604  0.3429  0.4356 -0.5832
  937TIP3    H1 2775   6.218   2.968   5.657  0.4172  1.0057  0.1082
  937TIP3    H2 2776   6.169   2.997   5.517  0.3256 -0.4814 -0.1910
  938TIP3   OH2 2777   5.750   4.347   0.081 -0.1872  0.1006  0.1958
  938TIP3    H1 2778   5.841   4.325   0.064  0.1052 -1.0841  2.8369
  938TIP3    H2 2779   5.724   4.289   0.153 -1.9238  2.8480  1.9627
  939TIP3   OH2 2780   5.071   1.847   5.439 -0.9789 -0.2568 -0.0380
  939TIP3    H1 2781   5.015   1.856   5.517 -1.0979  1.0125 -0.2438
  939TIP3    H2 2782   5.011   1.817   5.370 -0.8509 -1.4972  0.3665
  940TIP3   OH2 2783   5.133   5.345   4.609 -0.3631 -0.2675 -0.7162
  940TIP3    H1 2784   5.081   5.269   4.584  0.2674 -0.6917 -0.7521
  940TIP3    H2 2785   5.169   5.378   4.526 -1.1574  0.4693 -0.7846
  941TIP3   OH2 2786   4.047   1.108   3.262 -0.8422 -0.2044 -0.2583
  941TIP3    H1 2787   3.974   1.053   3.290 -0.9821 -0.9702 -2.0443
  941TIP3    H2 2788   4.123   1.074   3.310 -1.3750 -0.3481  0.4916
  942TIP3   OH2 2789   0.616   1.462   0.642  0.2426 -0.4933  0.2547
  942TIP3    H1 2790   0.663   1.413   0.575  2.1271  0.8778  0.4804
  942TIP3    H2 2791   0.581   1.538   0.596  0.4814 -0.1794  0.5862
  943TIP3   OH2 2792   4.505   0.287   1.703  0.0862  0.1297  0.2663
  943TIP3    H1 2793   4.432   0.346   1.722  0.4692  0.7883 -0.2494
  943TIP3    H2 2794   4.553   0.331   1.633  0.6943 -0.5383  0.2553
  944TIP3   OH2 2795   4.506   3.429   4.247 -0.1142  0.2686  0.4421
  944TIP3    H1 2796   4.459   3.433   4.164 -0.1280 -0.5611  0.4023
  944TIP3    H2 2797   4.443   3.393   4.309  0.8000 -2.0712  0.1077
  945TIP3   OH2 2798   2.019   4.792   2.304 -0.1880  0.0851 -0.4814
  945TIP3    H1 2799   1.925   4.811   2.313 -0.0246  0.1335  1.8081
  945TIP3    H2 2800   2.046   4.843   2.227 -2.0736 -0.1630 -1.3787
  946TIP3   OH2 2801   3.948   4.092   4.885  0.0717 -0.0310 -0.7891
  946TIP3    H1 2802   4.036   4.057   4.893  0.0195  0.1378  0.8997
  946TIP3    H2 2803   3.896   4.042   4.949 -0.7053  0.9080 -0.6521
  947TIP3   OH2 2804   2.923   5.309   0.107  0.6222 -0.4821 -0.0467
  947TIP3    H1 2805   2.944   5.307   0.014  1.7308  1.2313  0.1314
  947TIP3    H2 2806   2.832   5.337   0.111 -0.1734 -2.7205 -0.6380
  948TIP3   OH2 2807   1.765   6.725   3.090  0.5214 -0.1265  0.3122
  948TIP3    H1 2808   1.713   6.678   3.024 -1.1986  0.8036  0.9284
  948TIP3    H2 2809   1.699   6.765   3.147  1.9564 -0.6119  2.4009
  949TIP3   OH2 2810   1.369   4.133   2.890  0.4776  0.2598 -0.3757
  949TIP3    H1 2811   1.327   4.061   2.843  0.8822 -0.2342  0.0084
  949TIP3    H2 2812   1.388   4.097   2.977  1.9795  0.3606 -0.6337
  950TIP3   OH2 2813   1.845   2.167   0.092 -0.0158  0.0661  0.5214
  950TIP3    H1 2814   1.797   2.239   0.051 -0.5519 -0.0071  0.9981
  950TIP3    H2 2815   1.835   2.094   0.032  0.4985  0.3747  0.0519
  951TIP3   OH2 2816   5.883   4.379   4.814  0.7013 -0.5843  0.7077
  951TIP3    H1 2817   5.892   4.342   4.901 -0.3806 -1.4623  0.4702
  951TIP3    H2 2818   5.789   4.379   4.797  0.8952 -0.5529 -0.5131
  952TIP3   OH2 2819   6.180   2.009   3.145 -0.4827 -0.1324 -0.5247
  952TIP3    H1 2820   6.222   1.932   3.108 -0.8242 -0.3598 -0.4418
  952TIP3    H2 2821   6.250   2.053   3.193 -0.5415 -1.0188  0.4214
  953TIP3   OH2 2822   6.300   5.235   3.298  0.7956 -0.4730 -0.3684
  953TIP3    H1 2823   6.390   5.203   3.288  0.6765 -0.5697 -1.2427
  953TIP3    H2 2824   6.261   5.222   3.212  0.4932  1.2531 -0.5236
  954TIP3   OH2 2825   3.145   6.619   4.684  0.4916 -0.3409 -0.3213
  954TIP3    H1 2826   3.183   6.677   4.617  1.5770 -1.4085 -0.6656
  954TIP3    H2 2827   3.221   6.577   4.724 -0.2929 -2.7939 -1.2476
  955TIP3   OH2 2828   3.165   5.749   1.180  0.1338  0.1139 -0.1871
  955TIP3    H1 2829   3.243   5.758   1.125  0.2091  1.8360  0.1415
  955TIP3    H2 2830   3.165   5.657   1.207  0.5039 -0.6020 -2.4247
  956TIP3   OH2 2831   2.801   2.881   0.745  0.0036  0.3235  0.1230
  956TIP3    H1 2832   2.773   2.844   0.661 -1.1014 -0.2237  0.7233
  956TIP3    H2 2833   2.758   2.966   0.749  1.0652  0.9117 -0.4133
  957TIP3   OH2 2834   2.404   5.524   4.620  0.5911 -0.0860 -0.2037
  957TIP3    H1 2835   2.459   5.531   4.542  0.8388 -1.4958 -0.1881
  957TIP3    H2 2836   2.360   5.439   4.610  1.4222 -0.7822  1.6902
  958TIP3   OH2 2837   5.623   1.933   3.150  0.4636  0.0125 -0.1302
  958TIP3    H1 2838   5.674   2.000   3.106 -1.0612  0.9318 -0.5883
  958TIP3    H2 2839   5.590   1.877   3.080 -1.4550  1.1143 -0.1765
  959TIP3   OH2 2840   3.102   0.489   4.611  0.1956  0.6398  0.6339
  959TIP3    H1 2841   3.104   0.481   4.706 -1.2794 -2.2678  0.5154
  959TIP3    H2 2842   3.021   0.447   4.584  1.1480  0.2676 -2.0061
  960TIP3   OH2 2843   1.538   0.133   2.791  0.0896 -0.3034 -0.0614
  960TIP3    H1 2844   1.619   0.184   2.786 -0.8168  1.2661  0.3196
  960TIP3    H2 2845   1.505   0.149   2.880 -1.0081 -0.2653 -0.4518
  961TIP3   OH2 2846   0.925   2.604   3.023  0.2547 -0.4238  0.3644
  961TIP3    H1 2847   0.862   2.670   2.994  0.9150 -0.0417 -0.2107
  961TIP3    H2 2848   0.928   2.615   3.118  2.2810  2.1849  0.1066
  962TIP3   OH2 2849   2.624   1.715   0.959  0.4981  0.0679  0.3971
  962TIP3    H1 2850   2.579   1.781   0.907  0.0692 -0.6631 -0.1594
  962TIP3    H2 2851   2.626   1.752   1.048 -0.9453  0.2335  0.3772
  963TIP3   OH2 2852   1.960   5.331   5.245  0.1305  0.7351 -0.5052
  963TIP3    H1 2853   1.963   5.423   5.270  0.4423  0.2020  1.6601
  963TIP3    H2 2854   2.052   5.308   5.232  0.4524 -0.0384  2.3998
  964TIP3   OH2 2855   2.208   6.211   3.310  0.4631 -0.1191 -0.2806
  964TIP3    H1 2856   2.140   6.276   3.326 -0.4062 -0.7863 -1.0827
  964TIP3    H2 2857   2.250   6.198   3.395 -0.4183  0.3113  0.2332
  965TIP3   OH2 2858   3.020   0.770   5.589 -0.9565  0.1047 -0.3859
  965TIP3    H1 2859   2.936   0.783   5.634 -0.2271  1.0291  0.7601
  965TIP3    H2 2860   3.086   0.800   5.652  0.2004 -0.0142 -1.5040
  966TIP3   OH2 2861   6.547   2.370   3.850  0.5843  0.0729  0.2348
  966TIP3    H1 2862   6.545   2.450   3.903 -0.1747  1.4966 -1.8350
  966TIP3    H2 2863   6.635   2.369   3.812  0.3106  0.4209 -0.4241
  967TIP3   OH2 2864   0.801   5.328   4.220 -0.7061  0.0212 -0.4373
  967TIP3    H1 2865   0.887   5.302   4.188  1.2400  2.3323  2.3659
  967TIP3    H2 2866   0.770   5.393   4.157  0.4326  0.4477 -0.5815
  968TIP3   OH2 2867   0.525   1.103   0.947 -0.5222  0.1269  0.2478
  968TIP3    H1 2868   0.577   1.183   0.943  0.5788 -0.5850 -0.0659
  968TIP3    H2 2869   0.459   1.114   0.879 -1.4367  1.4595  1.2948
  969TIP3   OH2 2870   1.470   4.917   2.230 -0.0273  0.2720 -0.8703
  969TIP3    H1 2871   1.522   4.873   2.298  0.6454  1.3402 -0.6610
  969TIP3    H2 2872   1.395   4.859   2.216 -0.7025  0.4755  1.4888
  970TIP3   OH2 2873   6.289   2.967   2.423  0.3510  0.1690  0.0096
  970TIP3    H1 2874   6.249   2.887   2.457  1.1751 -1.0786 -1.7927
  970TIP3    H2 2875   6.382   2.958   2.442  0.5043  0.5169 -0.5443
  971TIP3   OH2 2876   5.841   0.531   3.523 -0.2986  0.8043  0.6634
  971TIP3    H1 2877   5.905   0.465   3.495 -0.9935 -0.0668  1.0738
  971TIP3    H2 2878   5.835   0.591   3.449  0.5427  0.5614  0.3816
  972TIP3   OH2 2879   6.041   0.497   3.769 -0.1188  0.0232 -0.1993
  972TIP3    H1 2880   6.088   0.579   3.781  1.1016 -0.1572 -2.9891
  972TIP3    H2 2881   5.971   0.518   3.707 -0.7173 -0.7436  0.1998
  973TIP3   OH2 2882   3.385   6.689   5.807  0.0634 -0.0914 -0.2922
  973TIP3    H1 2883   3.383   6.783   5.793  0.2235 -0.1597 -0.8081
  973TIP3    H2 2884   3.470   6.673   5.848 -0.1971  0.0500  0.3200
  974TIP3   OH2 2885   4.023   0.242   2.813 -0.2724 -0.1454 -0.0954
  974TIP3    H1 2886   4.094   0.207   2.866  0.5345  0.6139 -0.6492
  974TIP3    H2 2887   3.946   0.191   2.838 -0.2382  1.0123  2.7478
  975TIP3   OH2 2888   6.283   5.498   1.574  0.0464  0.0047  0.3997
  975TIP3    H1 2889   6.203   5.500   1.521  0.4093  0.1720 -0.1517
  975TIP3    H2 2890   6.257   5.454   1.655 -0.3472 -0.9263 -0.2084
  976TIP3   OH2 2891   2.163   4.317   3.025  0.2427  0.2737 -0.0590
  976TIP3    H1 2892   2.104   4.368   2.970  2.5035  1.0149 -1.9567
  976TIP3    H2 2893   2.247   4.322   2.981  1.6680 -1.0835  2.2991
  977TIP3   OH2 2894   3.427   0.557   1.300  0.7600  0.7874  0.4101
  977TIP3    H1 2895   3.368   0.501   1.250  0.0678  1.2578  0.6953
  977TIP3    H2 2896   3.399   0.547   1.391  1.2980  0.8031  0.5837
  978TIP3   OH2 2897   4.127   3.547   1.095  0.2875  0.2446 -0.4647
  978TIP3    H1 2898   4.126   3.471   1.154 -0.2749  1.0673  0.6212
  978TIP3    H2 2899   4.187   3.609   1.137  0.1277  0.7172 -0.9226
  979TIP3   OH2 2900   6.533   2.606   1.674 -0.5270  0.1741 -0.0140
  979TIP3    H1 2901   6.593   2.646   1.612  1.6176 -2.6239  0.0460
  979TIP3    H2 2902   6.477   2.549   1.621  0.8824 -1.7230  0.4223
  980TIP3   OH2 2903   1.595   5.670   3.163 -0.3340 -0.1751 -0.0647
  980TIP3    H1 2904   1.598   5.577   3.140  0.4292 -0.3640  0.7522
  980TIP3    H2 2905   1.502   5.687   3.180 -0.6613 -0.4687 -1.4270
  981TIP3   OH2 2906   1.373   5.549   4.946  0.6713 -0.1840 -0.1433
  981TIP3    H1 2907   1.308   5.497   4.992  0.5549 -0.5565 -0.7227
  981TIP3    H2 2908   1.418   5.487   4.888 -0.8291  0.6693 -2.3696
  982TIP3   OH2 2909   4.689   3.062   1.446  0.0247 -0.4988 -0.4621
  982TIP3    H1 2910   4.686   3.071   1.351  0.7439 -0.6301 -0.5033
  982TIP3    H2 2911   4.781   3.074   1.469 -0.3954  1.5291  0.4292
  983TIP3   OH2 2912   5.275   1.625   2.469 -0.4156  0.4732  0.0772
  983TIP3    H1 2913   5.223   1.623   2.388  0.0326  0.0026 -0.2045
  983TIP3    H2 2914   5.211   1.620   2.539 -0.8394  1.2520 -0.2380
  984TIP3   OH2 2915   6.203   1.391   1.815 -0.4640 -0.1855 -0.1247
  984TIP3    H1 2916   6.222   1.428   1.902 -1.1470 -0.7411  0.2682
  984TIP3    H2 2917   6.112   1.413   1.799 -0.0870  0.6967 -1.1093
  985TIP3   OH2 2918   2.415   1.617   1.424 -0.1911  0.1583 -0.1860
  985TIP3    H1 2919   2.320   1.622   1.414 -0.2580 -1.3686 -0.6689
  985TIP3    H2 2920   2.445   1.566   1.348  1.2947  2.4054 -1.1989
  986TIP3   OH2 2921   6.729   1.035   0.299 -0.0171 -0.3101 -0.0690
  986TIP3    H1 2922   6.785   1.065   0.227 -0.6479 -0.5804 -0.6853
  986TIP3    H2 2923   6.652   1.090   0.294  0.3140  0.2737  0.9818
  987TIP3   OH2 2924   2.510   3.950   1.452  0.2592 -0.1005  0.0731
  987TIP3    H1 2925   2.419   3.972   1.475  0.7275  2.2956 -0.1119
  987TIP3    H2 2926   2.563   3.997   1.517  1.3951 -0.1632 -0.7815
  988TIP3   OH2 2927   3.144   1.383   2.745  0.2194  0.2480 -0.1161
  988TIP3    H1 2928   3.095   1.427   2.815  2.6816 -0.2714  2.0631
  988TIP3    H2 2929   3.119   1.291   2.753  1.0514  0.0725  0.6207
  989TIP3   OH2 2930   0.526   4.874   2.008  0.3852 -0.0050 -0.1036
  989TIP3    H1 2931   0.608   4.848   2.051  0.0431  1.6293  1.7132
  989TIP3    H2 2932   0.474   4.913   2.079 -2.1323 -1.3208 -1.1219
  990TIP3   OH2 2933   1.952   4.248   0.514 -0.4489 -0.8998  0.1517
  990TIP3    H1 2934   1.864   4.211   0.524 -0.5033 -0.5466  1.0736
  990TIP3    H2 2935   1.965   4.300   0.593  0.1562 -0.0471 -0.4847
  991TIP3   OH2 2936   1.109   0.656   2.621 -0.2373 -0.7916 -0.3591
  991TIP3    H1 2937   1.033   0.682   2.570 -0.8490 -1.9196 -0.0367
  991TIP3    H2 2938   1.139   0.737   2.661 -0.9522 -0.2468 -0.8959
  992TIP3   OH2 2939   1.140   4.163   4.916 -0.5691  0.6823 -0.5759
  992TIP3    H1 2940   1.047   4.171   4.935 -0.3539  4.0698 -0.1676
  992TIP3    H2 2941   1.179   4.137   5.000 -1.1942 -2.2260 -1.1075
  993TIP3   OH2 2942   2.170   5.094   4.249 -0.0678  0.2075 -0.0476
  993TIP3    H1 2943   2.138   5.076   4.338 -0.8051  0.9624 -0.1459
  993TIP3    H2 2944   2.100   5.145   4.208  0.2446 -0.1801 -1.0892
  994TIP3   OH2 2945   4.197   6.373   4.606 -0.5718 -0.5447 -0.6630
  994TIP3    H1 2946   4.194   6.398   4.514  1.7916 -1.1495 -0.9551
  994TIP3    H2 2947   4.205   6.278   4.605 -0.0075 -0.5178  0.1559
  995TIP3   OH2 2948   4.732   1.755   5.476 -0.0011 -0.0280 -0.1340
  995TIP3    H1 2949   4.650   1.764   5.524 -0.3471 -0.6948 -0.5791
  995TIP3    H2 2950   4.721   1.809   5.399  0.2718  0.4692  0.1717
  996TIP3   OH2 2951   6.643   6.029   3.347  0.2305 -0.1348  0.1102
  996TIP3    H1 2952   6.614   6.073   3.267  0.4258  1.4878  0.8843
  996TIP3    H2 2953   6.717   5.974   3.319 -1.3429 -1.6913 -1.2597
  997TIP3   OH2 2954   4.712   1.478   4.807  0.3606  0.4019 -0.8741
  997TIP3    H1 2955   4.718   1.542   4.877 -0.2927  0.8123 -1.1726
  997TIP3    H2 2956   4.749   1.398   4.843 -0.0451  0.5850 -0.0369
  998TIP3   OH2 2957   5.618   5.227   5.304  0.5931  0.1826 -0.1111
  998TIP3    H1 2958   5.643   5.134   5.310  0.5393  0.1999  0.4835
  998TIP3    H2 2959   5.538   5.226   5.253  1.1885  0.0152 -1.0701
  999TIP3   OH2 2960   0.082   6.118   1.056 -0.4770 -0.6039 -0.2133
  999TIP3    H1 2961   0.124   6.086   1.136 -0.1725  0.4863  0.0815
  999TIP3    H2 2962   0.150   6.170   1.013 -0.3480 -1.9014 -1.6488
 1000TIP3   OH2 2963   5.304   2.267   3.568  0.3797 -0.1417  0.1277
 1000TIP3    H1 2964   5.214   2.289   3.542  0.3028  1.0592  1.3135
 1000TIP3    H2 2965   5.314   2.305   3.655  1.4890 -1.7458  0.7536
 1001TIP3   OH2 2966   2.471   2.285   2.259 -0.0708  0.5605 -0.1072
 1001TIP3    H1 2967   2.433   2.206   2.221 -0.7003  0.3832  0.8518
 1001TIP3    H2 2968   2.402   2.350   2.251 -0.3247  0.4361  0.9929
 1002TIP3   OH2 2969   3.888   5.973   2.514  0.0887 -0.5479  0.5003
 1002TIP3    H1 2970   3.804   6.012   2.535 -0.9353 -2.1100 -0.5310
 1002TIP3    H2 2971   3.948   6.048   2.508 -1.2509  0.6067  0.9910
 1003TIP3   OH2 2972   1.372   2.432   2.112 -0.1493  0.2631  0.2281
 1003TIP3    H1 2973   1.365   2.342   2.143 -0.6371  0.4482  0.6749
 1003TIP3    H2 2974   1.457   2.463   2.143  0.3263 -0.2629 -0.5232
 1004TIP3   OH2 2975   0.042   6.476   4.206 -0.4614  0.0472  0.2340
 1004TIP3    H1 2976   0.090   6.553   4.177  0.1813 -0.3675  0.1945
 1004TIP3    H2 2977   0.025   6.492   4.299  0.9610 -0.4162  0.5919
 1005TIP3   OH2 2978   4.128   3.310   0.487  0.1901 -0.7157  0.2372
 1005TIP3    H1 2979   4.188   3.382   0.506  0.8727 -1.4249  0.8595
 1005TIP3    H2 2980   4.181   3.247   0.439 -0.4019 -0.8011 -0.3103
 1006TIP3   OH2 2981   6.542   2.189   4.466  0.0038 -0.0885 -0.3403
 1006TIP3    H1 2982   6.564   2.186   4.372  0.4662  1.0470 -0.2797
 1006TIP3    H2 2983   6.448   2.206   4.468  0.2928  1.6476 -0.6148
 1007TIP3   OH2 2984   7.057   4.689   5.328  0.0327  0.2023  0.0065
 1007TIP3    H1 2985   7.036   4.633   5.403 -0.7957 -2.7225 -2.2117
 1007TIP3    H2 2986   6.983   4.749   5.321  0.3328  0.8248  1.7256
 1008TIP3   OH2 2987   6.858   5.372   3.558 -0.2021  0.4290  0.0936
 1008TIP3    H1 2988   6.893   5.456   3.589  1.0381  0.2990 -0.8360
 1008TIP3    H2 2989   6.768   5.370   3.588  1.0864 -0.1961  4.6850
 1009TIP3   OH2 2990   5.370   1.775   0.784 -0.0544  0.0040 -0.7457
 1009TIP3    H1 2991   5.396   1.861   0.818  0.3497 -0.8639  1.2452
 1009TIP3    H2 2992   5.352   1.791   0.691 -1.2347  2.5075 -0.1807
 1010TIP3   OH2 2993   2.782   4.734   5.189  0.5030  0.0746 -0.1171
 1010TIP3    H1 2994   2.845   4.767   5.253 -0.1537  0.1280  0.5126
 1010TIP3    H2 2995   2.736   4.811   5.157  0.0199 -0.0623  0.2286
 1011TIP3   OH2 2996   4.351   2.198   3.166  0.4220  0.6425  0.4886
 1011TIP3    H1 2997   4.289   2.245   3.222 -0.4391 -1.6158  1.5357
 1011TIP3    H2 2998   4.303   2.185   3.084  0.5706  1.2810  0.2869
 1012TIP3   OH2 2999   1.359   1.182   0.555 -0.3773  0.6236 -0.0404
 1012TIP3    H1 3000   1.454   1.168   0.547 -0.7036 -2.1110  0.1952
 1012TIP3    H2 3001   1.333   1.131   0.631 -2.1840  0.5731 -0.6494
 1013TIP3   OH2 3002   6.625   0.093   2.674  0.2506  0.5170 -0.2343
 1013TIP3    H1 3003   6.566   0.118   2.745 -0.3422 -0.8008 -0.2272
 1013TIP3    H2 3004   6.712   0.101   2.711  0.0972  2.3107 -0.1821
 1014TIP3   OH2 3005   3.619   1.762   3.857 -0.2341 -0.6353  0.0710
 1014TIP3    H1 3006   3.535   1.722   3.881 -1.1242 -0.3175 -2.2275
 1014TIP3    H2 3007   3.617   1.765   3.761  1.8264  0.6475  0.0174
 1015TIP3   OH2 3008   1.964   2.287   1.773 -0.5831 -0.5976  0.0320
 1015TIP3    H1 3009   2.030   2.248   1.717 -0.7070 -0.3284 -0.3039
 1015TIP3    H2 3010   1.948   2.221   1.840  1.3683  0.0445  1.2150
 1016TIP3   OH2 3011   4.464   2.953   3.503  0.8370 -0.0326 -0.0563
 1016TIP3    H1 3012   4.374   2.932   3.529  0.3396  1.0451 -0.8124
 1016TIP3    H2 3013   4.507   2.868   3.495  0.4863 -0.5011  2.3351
 1017TIP3   OH2 3014   5.453   6.439   3.534  0.2769  0.1255 -0.7636
 1017TIP3    H1 3015   5.514   6.371   3.507 -0.0924  0.1850 -1.7862
 1017TIP3    H2 3016   5.367   6.402   3.519  0.0359  0.0826  0.5732
 1018TIP3   OH2 3017   3.751   4.381   0.581 -0.3514 -0.0030 -0.0315
 1018TIP3    H1 3018   3.681   4.316   0.582 -0.8285  0.5132  1.4803
 1018TIP3    H2 3019   3.713   4.459   0.620  1.4404 -0.1472  2.2340
 1019TIP3   OH2 3020   6.904   4.203   5.038  0.2803 -0.3700  0.4363
 1019TIP3    H1 3021   6.834   4.233   5.097 -1.9725 -1.2426 -1.6091
 1019TIP3    H2 3022   6.916   4.111   5.059 -0.3296 -0.6124 -0.2358
 1020TIP3   OH2 3023   5.546   4.747   1.299 -0.4011 -0.3002  0.2156
 1020TIP3    H1 3024   5.506   4.789   1.375 -0.6078 -0.5234  0.2330
 1020TIP3    H2 3025   5.620   4.803   1.277 -0.6743  0.0719  0.2344
 1021TIP3   OH2 3026   3.749   5.791   5.024  0.5185  0.4378 -0.1175
 1021TIP3    H1 3027   3.744   5.789   4.928 -1.5112 -2.4754 -0.0811
 1021TIP3    H2 3028   3.658   5.797   5.052  1.0584  0.8580  1.6859
 1022TIP3   OH2 3029   6.374   5.274   3.806 -0.7160 -0.5165 -0.3827
 1022TIP3    H1 3030   6.398   5.182   3.792  1.3003  0.0015 -0.6377
 1022TIP3    H2 3031   6.320   5.295   3.729 -0.2624 -1.1847 -0.9068
 1023TIP3   OH2 3032   3.054   3.830   5.587  0.3926 -0.6410 -0.8657
 1023TIP3    H1 3033   3.099   3.910   5.562 -1.8969  1.6543  1.7710
 1023TIP3    H2 3034   3.089   3.809   5.674 -0.3741 -1.4342 -0.7367
 1024TIP3   OH2 3035   0.693   4.612   5.787  0.3247  0.3130  0.2088
 1024TIP3    H1 3036   0.732   4.532   5.822 -1.0768  0.4425  2.2331
 1024TIP3    H2 3037   0.611   4.583   5.747  0.4515  0.5842 -0.2594
 1025TIP3   OH2 3038   5.938   5.693   4.187  0.2280 -0.1348 -0.2305
 1025TIP3    H1 3039   5.981   5.740   4.115 -0.2153  2.5148  1.0812
 1025TIP3    H2 3040   5.934   5.758   4.258 -1.7274 -1.7825  1.2795
 1026TIP3   OH2 3041   6.643   1.807   3.110  0.3255  0.0278 -0.3201
 1026TIP3    H1 3042   6.567   1.823   3.054  0.5942  1.2847 -0.3502
 1026TIP3    H2 3043   6.622   1.851   3.192  0.7030 -0.2639 -0.0654
 1027TIP3   OH2 3044   4.744   2.137   3.283  0.2334  0.3435 -0.3253
 1027TIP3    H1 3045   4.730   2.080   3.208 -0.1013 -0.7315  0.5262
 1027TIP3    H2 3046   4.835   2.120   3.310 -0.2346 -0.7111  0.6544
 1028TIP3   OH2 3047   7.006   1.062   4.175  0.2036 -0.2207 -0.3254
 1028TIP3    H1 3048   7.045   1.149   4.170 -1.2102  0.5076  0.7433
 1028TIP3    H2 3049   7.035   1.028   4.259 -2.5859  0.9621  1.2311
 1029TIP3   OH2 3050   0.690   6.310   1.599  0.2258  0.0137 -0.0064
 1029TIP3    H1 3051   0.718   6.258   1.675  1.9795  0.7355 -0.1055
 1029TIP3    H2 3052   0.619   6.364   1.632  1.2053  0.5867  1.2522
 1030TIP3   OH2 3053   2.696   2.855   1.470  0.0679  0.3158 -0.3401
 1030TIP3    H1 3054   2.617   2.803   1.484 -0.2151  1.0494  1.0467
 1030TIP3    H2 3055   2.693   2.880   1.378 -0.7399 -0.5725 -0.5710
 1031TIP3   OH2 3056   4.413   6.198   1.691 -0.2987  0.0717  0.4582
 1031TIP3    H1 3057   4.468   6.247   1.629  0.2151 -0.5023  0.4611
 1031TIP3    H2 3058   4.416   6.250   1.771 -1.2890  1.0368 -0.0893
 1032TIP3   OH2 3059   2.703   5.267   0.508 -1.0615  0.5032  0.3237
 1032TIP3    H1 3060   2.734   5.357   0.495 -0.3830  0.2755  0.2948
 1032TIP3    H2 3061   2.783   5.216   0.518 -1.4155 -0.2015 -0.3485
 1033TIP3   OH2 3062   1.849   6.452   4.374  0.0105  0.2633 -0.2577
 1033TIP3    H1 3063   1.787   6.473   4.304  0.2225 -0.9716 -0.8539
 1033TIP3    H2 3064   1.800   6.464   4.455 -0.1925  1.8823 -0.5903
 1034TIP3   OH2 3065   1.705   4.100   0.954 -0.2016  0.2970  0.1386
 1034TIP3    H1 3066   1.693   4.085   1.048  1.6315 -1.3671  0.1722
 1034TIP3    H2 3067   1.741   4.189   0.949  0.1162  0.2341  1.0584
 1035TIP3   OH2 3068   6.726   0.378   0.946 -0.2824 -0.3730  0.2114
 1035TIP3    H1 3069   6.806   0.332   0.921  0.7758  1.2676  0.4277
 1035TIP3    H2 3070   6.746   0.417   1.031 -1.2475  0.2076  0.1899
 1036TIP3   OH2 3071   2.739   1.690   4.694 -0.6807 -0.4655  0.0067
 1036TIP3    H1 3072   2.652   1.674   4.732 -0.1457  0.7216  1.7876
 1036TIP3    H2 3073   2.767   1.603   4.663 -2.0771 -1.0457  0.2850
 1037TIP3   OH2 3074   1.820   2.272   3.423  0.6925 -0.6389 -0.2897
 1037TIP3    H1 3075   1.888   2.232   3.477 -0.3859 -1.3068  0.6142
 1037TIP3    H2 3076   1.738   2.248   3.466 -0.0896  0.8569 -0.8652
 1038TIP3   OH2 3077   6.963   1.514   5.106  0.3221 -0.5698  0.3181
 1038TIP3    H1 3078   6.893   1.458   5.072 -1.2773 -0.1586  2.6829
 1038TIP3    H2 3079   7.035   1.454   5.124 -0.9078 -1.7103  1.6364
 1039TIP3   OH2 3080   2.739   0.953   5.576  0.1035 -0.1694  0.5172
 1039TIP3    H1 3081   2.657   0.985   5.615  0.7784  1.7586  0.4432
 1039TIP3    H2 3082   2.798   1.028   5.579  1.0213 -0.7075 -1.9210
 1040TIP3   OH2 3083   4.522   1.583   2.519 -0.4093  0.4985  0.0421
 1040TIP3    H1 3084   4.602   1.551   2.479  0.8272  3.3359  0.0002
 1040TIP3    H2 3085   4.549   1.620   2.603 -2.0938 -0.5431  1.1052
 1041TIP3   OH2 3086   4.848   6.175   4.833  0.3921  0.1543  0.0055
 1041TIP3    H1 3087   4.824   6.253   4.884  0.1984  0.4080 -0.4727
 1041TIP3    H2 3088   4.770   6.121   4.833 -0.2468  1.0194 -1.6251
 1042TIP3   OH2 3089   0.085   2.876   4.314  0.3892 -0.3721 -0.1119
 1042TIP3    H1 3090   0.152   2.931   4.355 -0.8097  0.2089  1.1554
 1042TIP3    H2 3091   0.111   2.786   4.334  0.1747 -0.1132  1.4093
 1043TIP3   OH2 3092   5.209   3.224   0.849 -0.6726 -0.6877  0.1606
 1043TIP3    H1 3093   5.172   3.144   0.812 -1.2645 -0.5062  0.3546
 1043TIP3    H2 3094   5.133   3.277   0.873 -0.3317  0.6406 -1.4685
 1044TIP3   OH2 3095   2.677   3.491   3.322  0.4837  0.0926 -0.2761
 1044TIP3    H1 3096   2.619   3.555   3.362 -0.6528 -0.5185 -0.8895
 1044TIP3    H2 3097   2.740   3.468   3.390 -0.9222 -0.3515  0.9014
 1045TIP3   OH2 3098   1.824   1.322   1.489  0.3606  0.6589  0.3069
 1045TIP3    H1 3099   1.840   1.310   1.395 -1.5488  0.7221 -0.0775
 1045TIP3    H2 3100   1.908   1.351   1.524  1.3059 -0.0575 -1.2497
 1046TIP3   OH2 3101   2.747   4.673   0.160  0.2946 -0.2646  0.1895
 1046TIP3    H1 3102   2.827   4.725   0.158 -0.1526  0.5295  1.6511
 1046TIP3    H2 3103   2.698   4.701   0.083  0.4093  0.9370  0.5361
 1047TIP3   OH2 3104   3.946   6.271   3.286 -1.0929  0.1805  0.0989
 1047TIP3    H1 3105   4.010   6.262   3.215 -0.4258  0.7834  0.6007
 1047TIP3    H2 3106   3.966   6.199   3.346 -2.1702 -0.8086 -0.6859
 1048TIP3   OH2 3107   2.378   6.149   5.835 -0.1714 -0.3129 -0.2197
 1048TIP3    H1 3108   2.357   6.056   5.827  0.7381 -0.4656 -1.1573
 1048TIP3    H2 3109   2.376   6.166   5.929  1.2124 -1.6984  0.1167
 1049TIP3   OH2 3110   5.409   2.038   4.877 -0.1145 -0.3818  0.0519
 1049TIP3    H1 3111   5.487   2.057   4.825  0.5615 -2.2886  0.3138
 1049TIP3    H2 3112   5.443   2.004   4.960 -1.2275  0.1614  0.7655
 1050TIP3   OH2 3113   0.119   1.082   1.212  0.7054  0.4147 -0.1860
 1050TIP3    H1 3114   0.114   0.990   1.237  1.3697  0.3109 -0.4071
 1050TIP3    H2 3115   0.211   1.105   1.223  0.4202  1.2659  0.5740
 1051TIP3   OH2 3116   5.701   5.679   0.325  0.3447  0.2932 -0.0365
 1051TIP3    H1 3117   5.778   5.735   0.340  1.3139 -1.1692  0.6492
 1051TIP3    H2 3118   5.660   5.715   0.247  2.3586  0.4548 -1.0791
 1052TIP3   OH2 3119   0.578   4.301   1.201 -0.1830 -0.0321 -0.7549
 1052TIP3    H1 3120   0.489   4.333   1.218 -0.1907 -0.2310 -0.4149
 1052TIP3    H2 3121   0.624   4.377   1.164 -0.0973  0.4918  0.3887
 1053TIP3   OH2 3122   5.387   3.805   5.666 -0.2371  0.3700  0.2478
 1053TIP3    H1 3123   5.380   3.891   5.706  0.7305 -0.0121  1.2734
 1053TIP3    H2 3124   5.419   3.822   5.577  1.5956  0.9821  0.9919
 1054TIP3   OH2 3125   6.180   2.259   1.963  0.3644 -0.2958  0.0409
 1054TIP3    H1 3126   6.227   2.214   2.032 -0.9074  0.2390  1.3013
 1054TIP3    H2 3127   6.087   2.250   1.986  0.0342  2.8249  0.3260
 1055TIP3   OH2 3128   5.279   3.334   5.768  0.5044 -0.4728  0.4764
 1055TIP3    H1 3129   5.369   3.303   5.779  0.8746 -0.3002 -1.6074
 1055TIP3    H2 3130   5.283   3.427   5.790  0.9945 -0.3316 -0.1641
 1056TIP3   OH2 3131   6.017   2.787   1.820  0.2643 -0.5240  0.5765
 1056TIP3    H1 3132   6.022   2.728   1.896 -0.2797  1.3764  2.1914
 1056TIP3    H2 3133   6.107   2.821   1.811  0.7083 -1.9323 -0.7016
 1057TIP3   OH2 3134   1.613   6.152   2.359 -0.7485 -1.1038 -0.0896
 1057TIP3    H1 3135   1.695   6.128   2.400 -0.5695 -1.1144 -0.4505
 1057TIP3    H2 3136   1.601   6.245   2.380 -0.2431 -0.8942 -0.7094
 1058TIP3   OH2 3137   1.375   3.201   4.881  0.1941 -0.2663 -0.0076
 1058TIP3    H1 3138   1.462   3.235   4.902  0.5912  0.0053 -1.8964
 1058TIP3    H2 3139   1.315   3.273   4.902  0.8558  1.0801 -2.3700
 1059TIP3   OH2 3140   6.541   1.544   0.424  0.4572 -0.2660 -0.5147
 1059TIP3    H1 3141   6.533   1.449   0.414  3.2773 -0.5412 -1.0820
 1059TIP3    H2 3142   6.559   1.576   0.336  0.4027  0.6817 -0.1910
 1060TIP3   OH2 3143   0.178   0.654   3.249 -0.5127  0.0486  0.0294
 1060TIP3    H1 3144   0.150   0.744   3.231  0.2721  0.2858 -0.0149
 1060TIP3    H2 3145   0.125   0.628   3.324 -0.0458  0.9029  0.6840
 1061TIP3   OH2 3146   0.511   4.662   1.827  0.2739  0.1739 -1.1411
 1061TIP3    H1 3147   0.440   4.702   1.777 -0.5466  0.0488 -0.1140
 1061TIP3    H2 3148   0.521   4.719   1.904  0.6384 -0.3332 -0.8066
 1062TIP3   OH2 3149   1.070   0.507   0.740 -0.5943 -0.1532 -0.0812
 1062TIP3    H1 3150   1.054   0.464   0.824 -0.1408  0.5158  0.3563
 1062TIP3    H2 3151   1.156   0.476   0.712 -0.0484  0.8117  0.4712
 1063TIP3   OH2 3152   5.732   3.394   1.528 -0.0189  0.2074 -0.2461
 1063TIP3    H1 3153   5.690   3.308   1.519  1.8215 -0.7827 -0.0372
 1063TIP3    H2 3154   5.745   3.404   1.622  0.9428  0.0831 -0.3544
 1064TIP3   OH2 3155   5.746   2.552   0.181  0.6681 -0.5059 -0.5574
 1064TIP3    H1 3156   5.682   2.614   0.148 -0.2008 -0.8361  0.4454
 1064TIP3    H2 3157   5.697   2.470   0.193  1.4923 -1.0324 -0.6732
 1065TIP3   OH2 3158   3.425   2.740   3.681  0.0909  0.5578  0.2428
 1065TIP3    H1 3159   3.405   2.646   3.689  0.7909  0.4065  0.2899
 1065TIP3    H2 3160   3.395   2.778   3.764 -1.1225  0.5607 -0.1696
 1066TIP3   OH2 3161   4.566   4.149   4.598  0.2772  0.3586  0.2789
 1066TIP3    H1 3162   4.636   4.190   4.649  2.6456 -1.7930 -1.0231
 1066TIP3    H2 3163   4.583   4.177   4.508 -2.3002  2.0155  0.1878
 1067TIP3   OH2 3164   0.928   4.702   0.842  0.1545  0.2071  0.2125
 1067TIP3    H1 3165   0.929   4.790   0.879 -0.2183  0.3642 -0.1395
 1067TIP3    H2 3166   0.845   4.697   0.795  0.6763  0.0723 -0.7280
 1068TIP3   OH2 3167   6.737   5.189   2.438  0.5880 -0.0411 -0.2433
 1068TIP3    H1 3168   6.682   5.247   2.491 -0.7148 -0.7908 -0.7232
 1068TIP3    H2 3169   6.801   5.154   2.500  0.1568  0.3940  0.4691
 1069TIP3   OH2 3170   3.009   0.537   5.862 -0.6049 -0.0552 -0.2798
 1069TIP3    H1 3171   3.028   0.560   5.953  1.0807 -1.9323 -0.0827
 1069TIP3    H2 3172   3.096   0.523   5.822 -1.3391 -3.4104 -0.9776
 1070TIP3   OH2 3173   3.577   3.205   0.406 -0.1333 -0.1047 -0.3303
 1070TIP3    H1 3174   3.553   3.121   0.445  0.7789  0.1222  0.7685
 1070TIP3    H2 3175   3.520   3.269   0.450  1.1770  0.2051  0.9876
 1071TIP3   OH2 3176   5.476   3.995   4.141 -0.0689 -0.1181  0.2798
 1071TIP3    H1 3177   5.563   3.976   4.107 -0.0329  2.4301 -1.3504
 1071TIP3    H2 3178   5.484   4.083   4.179 -1.6311 -0.3803  1.3254
 1072TIP3   OH2 3179   5.320   1.304   1.088 -0.2966  0.4369  0.2083
 1072TIP3    H1 3180   5.407   1.342   1.076  0.0713 -0.3284  0.4009
 1072TIP3    H2 3181   5.327   1.253   1.168 -1.3032  1.4147  0.9450
 1073TIP3   OH2 3182   1.647   5.669   4.014  0.0149 -0.0581  0.4936
 1073TIP3    H1 3183   1.638   5.599   3.949 -1.0777  0.4770  0.0570
 1073TIP3    H2 3184   1.558   5.687   4.042  0.3338  0.8477  0.9435
 1074TIP3   OH2 3185   2.078   1.761   3.877  0.1515  0.6127  0.1109
 1074TIP3    H1 3186   2.126   1.762   3.795  0.9267 -0.5965  0.5260
 1074TIP3    H2 3187   2.040   1.674   3.882 -0.8522  1.0570  0.5055
 1075TIP3   OH2 3188   4.091   2.853   2.438  0.0646 -0.2706 -0.0145
 1075TIP3    H1 3189   4.096   2.817   2.527  0.2085 -2.0213 -0.6875
 1075TIP3    H2 3190   4.182   2.872   2.415  0.2344 -1.4837 -0.4084
 1076TIP3   OH2 3191   2.132   5.336   3.458  0.6223 -0.0418  0.1954
 1076TIP3    H1 3192   2.140   5.428   3.482 -1.2947  0.4065 -0.7425
 1076TIP3    H2 3193   2.220   5.311   3.428  1.0890  1.5366  0.1902
 1077TIP3   OH2 3194   3.451   0.264   5.552 -0.2153 -0.3965  0.0854
 1077TIP3    H1 3195   3.470   0.302   5.638  1.2734 -0.8618 -0.0178
 1077TIP3    H2 3196   3.536   0.253   5.511 -0.7738 -1.7382 -0.7888
 1078TIP3   OH2 3197   2.555   6.607   0.021  0.9152 -0.1217 -0.2775
 1078TIP3    H1 3198   2.615   6.533   0.023 -0.1356 -1.0083 -0.7960
 1078TIP3    H2 3199   2.472   6.571  -0.009  0.4666  1.3360 -0.8987
 1079TIP3   OH2 3200   6.248   1.141   4.300  0.4555 -0.2120 -0.3613
 1079TIP3    H1 3201   6.330   1.188   4.316  0.4581 -0.3368  0.0031
 1079TIP3    H2 3202   6.235   1.088   4.379 -0.3178  0.3056 -0.1244
 1080TIP3   OH2 3203   6.987   5.441   2.021  0.2398 -0.0695  0.7773
 1080TIP3    H1 3204   7.034   5.370   1.976  0.8564  0.2589  0.8915
 1080TIP3    H2 3205   6.982   5.412   2.112  1.0885  0.3344  0.9565
 1081TIP3   OH2 3206   0.299   2.023   4.349 -0.4486 -0.6553  0.5810
 1081TIP3    H1 3207   0.301   2.105   4.301  0.3296 -0.4946  0.8643
 1081TIP3    H2 3208   0.326   2.047   4.438 -0.4301 -1.1765  0.7206
 1082TIP3   OH2 3209   4.389   0.525   4.461 -0.0212  0.4614  0.4289
 1082TIP3    H1 3210   4.329   0.458   4.430 -0.8589  1.4076 -0.0572
 1082TIP3    H2 3211   4.455   0.533   4.392 -0.6253  0.9982 -0.0986
 1083TIP3   OH2 3212   1.695   2.955   0.050 -0.2036 -0.1594  0.5614
 1083TIP3    H1 3213   1.641   2.891   0.004  0.1153  1.0969 -1.7208
 1083TIP3    H2 3214   1.762   2.979  -0.014  0.1171  1.8876  1.6036
 1084TIP3   OH2 3215   4.876   5.099   3.566 -0.3116 -0.1017  0.1087
 1084TIP3    H1 3216   4.971   5.095   3.575 -0.4639 -0.8444  1.7296
 1084TIP3    H2 3217   4.860   5.087   3.473  1.1023 -1.8951  0.0548
 1085TIP3   OH2 3218   0.497   2.838   2.614  0.1599 -0.2439 -0.0735
 1085TIP3    H1 3219   0.498   2.889   2.695 -2.4035 -0.2656  0.0639
 1085TIP3    H2 3220   0.581   2.792   2.613  0.8973  0.9662  1.7653
 1086TIP3   OH2 3221   1.233   0.839   1.401 -0.0326 -0.1904 -0.1375
 1086TIP3    H1 3222   1.156   0.795   1.435 -0.1868 -1.3664 -1.8700
 1086TIP3    H2 3223   1.289   0.769   1.368  0.6550  0.7847 -1.1487
 1087TIP3   OH2 3224   1.042   0.664   1.507  0.6464 -1.0240 -0.2207
 1087TIP3    H1 3225   1.046   0.643   1.601  2.9940  0.8984  0.1994
 1087TIP3    H2 3226   0.949   0.656   1.485 -0.0051 -1.3135  2.3227
 1088TIP3   OH2 3227   2.905   1.416   1.735 -0.3340  0.8822 -0.1059
 1088TIP3    H1 3228   2.841   1.419   1.664 -0.6685 -0.9156  0.0923
 1088TIP3    H2 3229   2.957   1.338   1.718 -0.0118  0.7749  1.2717
 1089TIP3   OH2 3230   3.272   3.724   5.061  0.3128 -0.5355  0.7113
 1089TIP3    H1 3231   3.300   3.791   5.123 -2.5224  0.1449  1.3884
 1089TIP3    H2 3232   3.187   3.694   5.094 -1.2623 -0.2817 -2.6730
 1090TIP3   OH2 3233   2.070   0.509   3.722 -0.7253 -0.1912 -0.9388
 1090TIP3    H1 3234   2.003   0.465   3.775  0.7858  0.5338  1.7484
 1090TIP3    H2 3235   2.071   0.459   3.640 -1.5556 -2.9534  0.5844
 1091TIP3   OH2 3236   4.613   2.383   4.130  0.4224 -0.2928 -0.4766
 1091TIP3    H1 3237   4.673   2.344   4.067 -0.2433  0.0093 -1.3086
 1091TIP3    H2 3238   4.636   2.342   4.213  1.8287 -0.1253 -0.7653
 1092TIP3   OH2 3239   0.838   6.430   4.311 -0.3716  0.7404  0.0202
 1092TIP3    H1 3240   0.860   6.490   4.383  0.1995  1.2152 -0.5345
 1092TIP3    H2 3241   0.810   6.349   4.354  0.0005  1.0062  0.7728
 1093TIP3   OH2 3242   4.880   2.384   1.248 -0.0573  0.1428 -0.0734
 1093TIP3    H1 3243   4.814   2.366   1.316  0.2634  1.1385  0.5227
 1093TIP3    H2 3244   4.832   2.431   1.180 -0.0661  0.5089  0.1784
 1094TIP3   OH2 3245   6.861   0.195   2.198  0.0598 -0.3807  0.0356
 1094TIP3    H1 3246   6.914   0.250   2.256 -0.8807 -1.0311  1.5603
 1094TIP3    H2 3247   6.781   0.246   2.184  0.4583 -0.0316 -1.0962
 1095TIP3   OH2 3248   1.240   2.670   1.810  0.0601  0.2658 -0.1887
 1095TIP3    H1 3249   1.230   2.579   1.837  1.8250 -0.2622 -1.1528
 1095TIP3    H2 3250   1.247   2.719   1.892 -0.2549 -0.5452  0.3361
 1096TIP3   OH2 3251   2.860   2.518   2.093 -0.1398 -0.6873 -0.2839
 1096TIP3    H1 3252   2.769   2.496   2.111  0.5031 -1.0255  3.2529
 1096TIP3    H2 3253   2.901   2.434   2.071 -0.0356 -1.1620  1.5916
 1097TIP3   OH2 3254   4.553   3.788   1.985 -0.0338 -0.1955 -0.3506
 1097TIP3    H1 3255   4.563   3.863   2.043  2.7307  0.6682 -1.7558
 1097TIP3    H2 3256   4.467   3.799   1.945 -0.3886  1.2449  0.7644
 1098TIP3   OH2 3257   4.893   1.626   1.395  0.0674  0.4891 -0.7214
 1098TIP3    H1 3258   4.862   1.689   1.329 -0.0636  1.3643  0.1623
 1098TIP3    H2 3259   4.813   1.584   1.427 -0.0227  1.2181  0.0267
 1099TIP3   OH2 3260   3.915   6.106   0.445 -0.3880 -0.4226 -0.6008
 1099TIP3    H1 3261   3.960   6.189   0.457 -2.4959  0.5718  0.9487
 1099TIP3    H2 3262   3.883   6.108   0.355 -0.0857  0.2596 -0.6928
 1100TIP3   OH2 3263   2.959   6.308   0.209 -0.2317  0.0300 -0.4532
 1100TIP3    H1 3264   2.929   6.395   0.236 -0.0129  0.5780 -1.8621
 1100TIP3    H2 3265   3.051   6.320   0.189 -0.1887 -0.5451 -0.6115
 1101TIP3   OH2 3266   4.156   6.696   4.857 -0.2809 -0.1578  0.1954
 1101TIP3    H1 3267   4.244   6.697   4.819  0.1817  0.7791  1.2245
 1101TIP3    H2 3268   4.098   6.677   4.783  0.5172  2.1274 -1.1247
 1102TIP3   OH2 3269   1.532   0.379   1.825 -0.6568 -0.6737 -0.1282
 1102TIP3    H1 3270   1.448   0.397   1.867 -0.2064 -1.1679  1.0071
 1102TIP3    H2 3271   1.546   0.285   1.837  1.2583 -0.1989  2.0253
 1103TIP3   OH2 3272   2.880   1.744   5.129  0.5072 -0.0852  0.1830
 1103TIP3    H1 3273   2.815   1.795   5.080  1.0178 -0.2260 -0.6800
 1103TIP3    H2 3274   2.930   1.699   5.061 -0.8040 -2.8790  0.9169
 1104TIP3   OH2 3275   1.405   5.090   0.417 -0.0010  0.1157  0.3747
 1104TIP3    H1 3276   1.447   5.163   0.463  0.4901 -0.5148  0.9406
 1104TIP3    H2 3277   1.449   5.087   0.332 -0.6654  1.0582 -0.0190
 1105TIP3   OH2 3278   6.182   6.783   3.212  0.1188  0.1978  0.1451
 1105TIP3    H1 3279   6.277   6.789   3.203  0.0578 -1.2520 -2.2304
 1105TIP3    H2 3280   6.169   6.720   3.283  0.9123  0.5433  0.6080
 1106TIP3   OH2 3281   1.557   2.425   0.739  0.3991  0.5411  0.3544
 1106TIP3    H1 3282   1.475   2.390   0.704 -0.1677  0.5385  1.6263
 1106TIP3    H2 3283   1.609   2.347   0.759  0.5524  0.5323 -0.0671
 1107TIP3   OH2 3284   3.002   3.176   4.414  0.4496 -0.6608 -0.7476
 1107TIP3    H1 3285   2.921   3.222   4.434  0.1926 -0.9669 -1.0703
 1107TIP3    H2 3286   3.021   3.123   4.492  0.0761 -0.9637 -0.8611
 1108TIP3   OH2 3287   1.366   6.714   3.494 -0.8455  0.4160  0.0351
 1108TIP3    H1 3288   1.427   6.746   3.561 -1.7925  2.3551  0.0342
 1108TIP3    H2 3289   1.401   6.628   3.469  3.4658  2.4221 -1.8372
 1109TIP3   OH2 3290   0.830   3.906   5.336  0.0039  0.1317 -0.0312
 1109TIP3    H1 3291   0.901   3.889   5.399  0.9684 -0.4707 -1.2386
 1109TIP3    H2 3292   0.795   3.819   5.317  0.3429  0.1962 -1.0074
 1110TIP3   OH2 3293   3.879   5.426   1.291 -0.2678  0.1907  0.3544
 1110TIP3    H1 3294   3.851   5.335   1.300 -0.1927  0.1801  0.4710
 1110TIP3    H2 3295   3.874   5.462   1.379 -0.7831  0.4391  0.2305
 1111TIP3   OH2 3296   0.989   4.852   3.726  0.1481 -0.0891  0.4155
 1111TIP3    H1 3297   1.023   4.791   3.791  2.2908  0.3615 -0.2124
 1111TIP3    H2 3298   1.062   4.910   3.707 -1.3112  1.5956 -0.2931
 1112TIP3   OH2 3299   6.866   3.194   5.373 -0.0227  0.0143 -0.1802
 1112TIP3    H1 3300   6.823   3.240   5.445 -0.7012  0.6754 -0.9905
 1112TIP3    H2 3301   6.872   3.259   5.303  2.3542 -0.0373 -0.1013
 1113TIP3   OH2 3302   0.518   4.544   4.325  0.0955 -0.0172  0.1715
 1113TIP3    H1 3303   0.612   4.533   4.340  0.2203 -0.8628 -1.0645
 1113TIP3    H2 3304   0.478   4.533   4.411  1.0509 -0.5251  0.5681
 1114TIP3   OH2 3305   0.258   4.810   2.497 -0.5367 -0.0226  0.0334
 1114TIP3    H1 3306   0.294   4.832   2.583  0.8958  0.9257 -0.7721
 1114TIP3    H2 3307   0.215   4.726   2.511  3.5205 -2.2690  0.7660
 1115TIP3   OH2 3308   6.763   1.359   1.395  0.0791  0.0146  0.3757
 1115TIP3    H1 3309   6.670   1.362   1.415  0.1914 -0.1458  0.9389
 1115TIP3    H2 3310   6.767   1.328   1.304 -0.3784 -1.4952  0.8284
 1116TIP3   OH2 3311   1.642   5.330   5.098  0.4678 -0.3059 -0.2355
 1116TIP3    H1 3312   1.695   5.405   5.073  0.2543 -0.2656 -0.5750
 1116TIP3    H2 3313   1.619   5.288   5.015 -0.9131  0.2789 -0.1652
 1117TIP3   OH2 3314   4.311   2.500   5.181  0.1858 -0.2905  0.1070
 1117TIP3    H1 3315   4.386   2.539   5.225  0.6891 -0.4549 -0.5925
 1117TIP3    H2 3316   4.238   2.514   5.241  0.9853 -1.1381  1.3208
 1118TIP3   OH2 3317   0.480   6.707   3.328  0.0923  0.0515  0.1804
 1118TIP3    H1 3318   0.557   6.757   3.355 -0.8033  1.5594  0.0260
 1118TIP3    H2 3319   0.516   6.629   3.286  1.5309  0.4804  0.5507
 1119TIP3   OH2 3320   3.540   4.203   1.130  0.0264 -0.2586 -0.0061
 1119TIP3    H1 3321   3.475   4.267   1.158 -0.7621 -1.0610  0.0541
 1119TIP3    H2 3322   3.579   4.242   1.052  0.5134  0.8850  0.7825
 1120TIP3   OH2 3323   3.084   4.971   5.072  0.5225 -0.8743 -0.1186
 1120TIP3    H1 3324   3.151   5.036   5.093 -0.6049  1.4841 -3.1513
 1120TIP3    H2 3325   3.089   4.961   4.977 -2.6460 -1.4518 -0.3181
 1121TIP3   OH2 3326   5.277   5.140   0.213 -0.2486  0.6760  0.6069
 1121TIP3    H1 3327   5.195   5.125   0.260 -0.3743  0.3236  0.2758
 1121TIP3    H2 3328   5.342   5.148   0.283 -0.2696 -0.8484  0.8400
 1122TIP3   OH2 3329   5.329   6.513   0.575  0.2186 -0.0093  0.0290
 1122TIP3    H1 3330   5.384   6.478   0.505 -0.6576  0.2787 -0.8435
 1122TIP3    H2 3331   5.295   6.595   0.539 -1.5450 -0.6542  0.1164
 1123TIP3   OH2 3332   2.753   0.628   5.809 -0.1310 -0.0453  0.0174
 1123TIP3    H1 3333   2.756   0.691   5.881  0.6704 -0.8082  0.6659
 1123TIP3    H2 3334   2.842   0.594   5.802 -0.2967 -0.3064 -1.0525
 1124TIP3   OH2 3335   0.523   5.273   3.665 -0.3586  0.7821 -0.3196
 1124TIP3    H1 3336   0.475   5.241   3.742 -1.8618  2.0338 -0.7053
 1124TIP3    H2 3337   0.566   5.353   3.695 -0.4873  0.9662 -0.6222
 1125TIP3   OH2 3338   5.074   1.089   0.613  0.0954  0.3120  0.0612
 1125TIP3    H1 3339   5.147   1.125   0.663  1.0528  0.8439 -1.6147
 1125TIP3    H2 3340   5.000   1.145   0.635  0.8545  1.4601 -0.2169
 1126TIP3   OH2 3341   2.597   3.037   4.042  0.3615  0.1244 -0.1588
 1126TIP3    H1 3342   2.595   2.948   4.077  3.1012  0.4854  1.1735
 1126TIP3    H2 3343   2.584   3.093   4.119 -0.5957  0.9094 -0.8707
 1127TIP3   OH2 3344   0.820   6.339   4.046  0.1409 -0.1806  0.0254
 1127TIP3    H1 3345   0.810   6.381   4.131 -0.0015  1.9684 -1.0074
 1127TIP3    H2 3346   0.733   6.341   4.007  0.6578  1.1778 -1.1689
 1128TIP3   OH2 3347   1.848   2.541   5.086  0.1306  0.2368  0.3689
 1128TIP3    H1 3348   1.798   2.590   5.021  2.1627  0.9169 -0.7778
 1128TIP3    H2 3349   1.887   2.468   5.038  1.4134  0.5719  0.8379
 1129TIP3   OH2 3350   7.009   4.030   4.726  0.2462  0.3367  0.3918
 1129TIP3    H1 3351   7.072   4.028   4.798 -0.2245 -1.6916  0.8081
 1129TIP3    H2 3352   6.959   3.949   4.735 -0.7092  0.6604 -1.4482
 1130TIP3   OH2 3353   2.284   5.202   2.211 -0.2452 -0.0866  0.0031
 1130TIP3    H1 3354   2.349   5.206   2.282 -1.0147 -0.3311  0.7363
 1130TIP3    H2 3355   2.315   5.131   2.155 -0.1038 -0.4961  0.5891
 1131TIP3   OH2 3356   5.561   2.368   1.692  0.1529 -0.3012  0.0661
 1131TIP3    H1 3357   5.600   2.331   1.613  0.2001 -0.6842  0.2695
 1131TIP3    H2 3358   5.636   2.391   1.747  0.1273  0.1553 -0.0795
 1132TIP3   OH2 3359   6.601   5.061   4.119 -0.8211 -0.0601 -0.7089
 1132TIP3    H1 3360   6.548   5.108   4.183  0.1210  0.4243 -0.2657
 1132TIP3    H2 3361   6.595   5.114   4.039  0.1084  0.7402 -0.2582
 1133TIP3   OH2 3362   2.645   4.514   0.329 -0.0118  0.0025  0.0634
 1133TIP3    H1 3363   2.677   4.587   0.277  0.0400 -1.0358 -1.4466
 1133TIP3    H2 3364   2.690   4.522   0.413  0.8170  1.0691 -0.4571
 1134TIP3   OH2 3365   3.097   6.162   3.911  0.1619  0.0282  0.1839
 1134TIP3    H1 3366   3.053   6.242   3.884  3.2998  2.3505  1.3433
 1134TIP3    H2 3367   3.052   6.135   3.991 -1.4375  0.1221 -0.6567
 1135TIP3   OH2 3368   5.124   6.425   4.257  0.1700  0.4813  0.2449
 1135TIP3    H1 3369   5.190   6.438   4.325  1.0907 -2.7178  0.1109
 1135TIP3    H2 3370   5.163   6.463   4.178  1.0881  0.2154  0.5549
 1136TIP3   OH2 3371   1.418   4.254   0.961 -0.3563  0.1328 -0.2329
 1136TIP3    H1 3372   1.369   4.308   1.023  0.2406 -0.2309  0.5739
 1136TIP3    H2 3373   1.509   4.267   0.985  0.0466  1.3514 -2.1595
 1137TIP3   OH2 3374   2.850   3.641   2.316 -0.3483  0.2575 -0.2901
 1137TIP3    H1 3375   2.804   3.558   2.302 -0.3282  0.1510  0.2333
 1137TIP3    H2 3376   2.903   3.625   2.395 -0.3110  0.7521 -0.2169
 1138TIP3   OH2 3377   6.556   4.313   0.947  0.2350 -0.2882 -0.5469
 1138TIP3    H1 3378   6.538   4.383   1.010  1.2551 -0.4571 -0.0372
 1138TIP3    H2 3379   6.499   4.242   0.974  0.2445 -0.1551 -0.1669
 1139TIP3   OH2 3380   2.989   0.389   0.783 -0.4520  0.1575 -0.1602
 1139TIP3    H1 3381   2.947   0.475   0.786  0.4274  0.6057 -0.2982
 1139TIP3    H2 3382   2.923   0.329   0.818 -0.4761  1.1325  1.5965
 1140TIP3   OH2 3383   4.661   0.782   4.864  0.0897  0.3278 -0.6812
 1140TIP3    H1 3384   4.752   0.772   4.890  0.7725 -0.0812 -3.0022
 1140TIP3    H2 3385   4.663   0.779   4.768 -2.4780 -0.7574 -0.7841
 1141TIP3   OH2 3386   0.029   3.463   3.885  0.4020  0.3216 -0.2943
 1141TIP3    H1 3387   0.053   3.471   3.977  3.0454  1.4124 -0.9650
 1141TIP3    H2 3388   0.084   3.391   3.852 -0.5952 -0.1408 -0.9962
 1142TIP3   OH2 3389   5.984   0.189   4.172 -0.2872 -0.0853  0.2945
 1142TIP3    H1 3390   5.989   0.219   4.081 -2.0152  1.2420  0.5864
 1142TIP3    H2 3391   5.932   0.109   4.169  1.1661 -1.0481 -0.0581
 1143TIP3   OH2 3392   7.010   3.646   5.069 -0.3915 -0.1063 -0.2933
 1143TIP3    H1 3393   6.950   3.599   5.012 -1.2391  1.9125 -1.1114
 1143TIP3    H2 3394   6.977   3.735   5.072  0.5096  0.2177  2.1552
 1144TIP3   OH2 3395   3.626   4.951   3.931  0.1720 -0.5024 -0.1258
 1144TIP3    H1 3396   3.620   4.857   3.912  1.3035 -1.0173  1.7927
 1144TIP3    H2 3397   3.717   4.973   3.908  0.5529 -0.3920  1.4144
 1145TIP3   OH2 3398   1.786   3.309   4.689  0.2870 -0.3520 -0.3904
 1145TIP3    H1 3399   1.868   3.287   4.732 -0.5911 -2.7290  0.2409
 1145TIP3    H2 3400   1.737   3.358   4.754  1.3139  1.4666 -0.9229
 1146TIP3   OH2 3401   2.092   5.778   3.937 -0.1487  0.1003 -0.4750
 1146TIP3    H1 3402   2.040   5.839   3.884 -0.6638  0.9906  1.0067
 1146TIP3    H2 3403   2.139   5.834   3.998  0.8374 -0.8740 -0.3181
 1147TIP3   OH2 3404   5.980   0.572   1.356 -0.2008  0.3655  0.0602
 1147TIP3    H1 3405   6.041   0.629   1.403 -1.7425  1.7676  0.4855
 1147TIP3    H2 3406   5.898   0.580   1.405 -0.7381 -1.4556 -0.4841
 1148TIP3   OH2 3407   4.825   5.468   0.286 -0.2872  0.3552 -0.0037
 1148TIP3    H1 3408   4.921   5.471   0.279  0.2510 -2.7494  3.1014
 1148TIP3    H2 3409   4.806   5.515   0.366 -0.8854 -1.7449  1.1664
 1149TIP3   OH2 3410   1.865   3.388   3.391 -0.1546 -0.6655  0.2350
 1149TIP3    H1 3411   1.914   3.412   3.470 -0.0549  0.4529 -0.1390
 1149TIP3    H2 3412   1.867   3.468   3.337 -2.2640 -0.6296  0.1335
 1150TIP3   OH2 3413   0.393   2.561   1.064 -0.6981  0.1297  0.3398
 1150TIP3    H1 3414   0.427   2.487   1.013 -1.4386  1.8970 -3.0747
 1150TIP3    H2 3415   0.462   2.627   1.060 -1.8421  1.3463 -1.0273
 1151TIP3   OH2 3416   4.847   1.529   5.849 -0.2420 -0.2794  0.0916
 1151TIP3    H1 3417   4.877   1.461   5.910  0.5964 -0.2049 -0.2319
 1151TIP3    H2 3418   4.845   1.608   5.902 -0.5587 -0.4201  0.2944
 1152TIP3   OH2 3419   3.251   3.919   0.482 -0.2112 -0.4675  0.2775
 1152TIP3    H1 3420   3.187   3.959   0.541  0.1909 -0.9480  1.0641
 1152TIP3    H2 3421   3.303   3.992   0.449 -1.5866  0.0125 -0.9266
 1153TIP3   OH2 3422   0.783   4.658   3.892 -0.4061  0.3080 -0.3145
 1153TIP3    H1 3423   0.780   4.563   3.889  1.2400  0.2170  0.0620
 1153TIP3    H2 3424   0.714   4.686   3.831 -0.3327 -1.1171 -1.1024
 1154TIP3   OH2 3425   1.911   5.285   0.331 -0.7162  0.5013 -0.6933
 1154TIP3    H1 3426   1.862   5.213   0.371 -0.4527  0.4529 -0.4548
 1154TIP3    H2 3427   2.003   5.264   0.349 -0.6815  1.4718  0.3560
 1155TIP3   OH2 3428   2.181   4.876   2.088 -0.3318 -0.9178  0.4182
 1155TIP3    H1 3429   2.271   4.906   2.078 -0.4207 -0.9506 -0.6918
 1155TIP3    H2 3430   2.189   4.789   2.128  0.0482 -0.4015  1.4933
 1156TIP3   OH2 3431   4.408   5.762   0.395  0.4558 -0.3272 -0.3270
 1156TIP3    H1 3432   4.435   5.854   0.405  2.5014 -0.8081 -0.7736
 1156TIP3    H2 3433   4.356   5.743   0.472 -1.7688  1.7515 -1.1912
 1157TIP3   OH2 3434   5.608   3.539   5.109 -0.1444  0.1946 -0.0622
 1157TIP3    H1 3435   5.547   3.572   5.043 -1.0969 -0.5800  0.3991
 1157TIP3    H2 3436   5.630   3.451   5.079  0.6431  0.4084 -0.1385
 1158TIP3   OH2 3437   3.095   1.045   0.254 -0.1144  0.2321  0.0759
 1158TIP3    H1 3438   3.129   1.078   0.338 -1.5988 -0.5707  1.0466
 1158TIP3    H2 3439   3.019   1.101   0.236  0.0337  0.2194 -0.5928
 1159TIP3   OH2 3440   5.627   6.281   0.843 -0.3709  0.0367 -0.4642
 1159TIP3    H1 3441   5.598   6.219   0.777  0.7448 -0.3736 -0.5969
 1159TIP3    H2 3442   5.630   6.230   0.924 -0.7889  0.2868 -0.2872
 1160TIP3   OH2 3443   0.478   6.140   1.371 -0.6004 -0.1082 -0.0023
 1160TIP3    H1 3444   0.385   6.119   1.367 -0.5213 -0.5656  0.4605
 1160TIP3    H2 3445   0.484   6.228   1.334 -1.3868  0.4011  1.0279
 1161TIP3   OH2 3446   5.138   2.850   4.781 -0.3054 -0.1799 -0.1715
 1161TIP3    H1 3447   5.092   2.766   4.772 -0.9798  0.2607 -0.9914
 1161TIP3    H2 3448   5.071   2.916   4.762  0.4051  0.5160 -0.2879
 1162TIP3   OH2 3449   0.671   0.937   2.209  0.7328 -0.2140 -0.6746
 1162TIP3    H1 3450   0.665   1.033   2.208  0.1237 -0.2529 -1.3810
 1162TIP3    H2 3451   0.584   0.907   2.234  0.8680 -0.5893 -0.6420
 1163TIP3   OH2 3452   1.695   5.029   2.009  0.5871 -0.2871 -0.5633
 1163TIP3    H1 3453   1.670   5.080   2.086 -0.4017 -1.9654  0.2988
 1163TIP3    H2 3454   1.628   5.049   1.944  1.6869  1.4994 -1.2192
 1164TIP3   OH2 3455   2.900   5.736   3.633  0.4052  0.5454  0.0841
 1164TIP3    H1 3456   2.818   5.757   3.587  0.9859  1.4216 -0.5807
 1164TIP3    H2 3457   2.887   5.647   3.665  0.0142 -0.1559 -1.8886
 1165TIP3   OH2 3458   5.401   4.529   5.530  0.3286 -0.1085  0.9742
 1165TIP3    H1 3459   5.312   4.499   5.549  0.1305  0.5487  1.1217
 1165TIP3    H2 3460   5.399   4.554   5.438  0.4920 -0.5223  0.8532
 1166TIP3   OH2 3461   3.850   3.177   4.498  0.1654  0.2681  0.0308
 1166TIP3    H1 3462   3.765   3.199   4.461 -0.5671 -0.7719  1.0289
 1166TIP3    H2 3463   3.881   3.258   4.539  0.2423  0.9821 -1.3577
 1167TIP3   OH2 3464   3.355   4.489   2.482 -0.0893 -0.1162  0.3580
 1167TIP3    H1 3465   3.367   4.396   2.461 -3.1264 -0.3271 -1.0095
 1167TIP3    H2 3466   3.290   4.489   2.552 -1.6128  0.9348 -0.9741
 1168TIP3   OH2 3467   6.206   4.412   1.886 -0.1742  0.2300 -0.2461
 1168TIP3    H1 3468   6.119   4.434   1.852  0.0447 -1.3124 -1.9752
 1168TIP3    H2 3469   6.212   4.317   1.878  0.6401 -0.0631  2.5374
 1169TIP3   OH2 3470   2.992   4.805   0.132 -0.5819 -0.2915  0.0162
 1169TIP3    H1 3471   3.047   4.727   0.125 -0.7202 -0.8178  3.1780
 1169TIP3    H2 3472   3.015   4.858   0.056  0.4684 -2.8063 -1.5455
 1170TIP3   OH2 3473   4.236   1.056   4.198  0.1678 -0.0322  0.0880
 1170TIP3    H1 3474   4.286   0.975   4.189  0.4561  0.1212  0.3045
 1170TIP3    H2 3475   4.208   1.077   4.109  1.4615  0.4978 -0.2163
 1171TIP3   OH2 3476   5.838   2.461   5.419 -0.3251 -0.6652 -0.1410
 1171TIP3    H1 3477   5.861   2.436   5.509  1.4896 -3.0813 -1.1572
 1171TIP3    H2 3478   5.869   2.551   5.410  2.0911 -1.3173  0.8774
 1172TIP3   OH2 3479   4.416   5.700   4.819 -0.0703 -0.3157 -0.1666
 1172TIP3    H1 3480   4.347   5.754   4.858 -0.9229 -0.2778 -1.6296
 1172TIP3    H2 3481   4.372   5.618   4.795  0.3715 -0.2889 -1.1286
 1173TIP3   OH2 3482   0.513   0.938   3.978 -0.1695  0.1437 -0.2542
 1173TIP3    H1 3483   0.577   0.871   3.953 -1.4793 -1.1805 -0.2076
 1173TIP3    H2 3484   0.560   1.021   3.968  1.1680 -0.7016 -1.3626
 1174TIP3   OH2 3485   5.367   4.245   0.175  0.1767 -0.0504 -0.3343
 1174TIP3    H1 3486   5.438   4.279   0.230 -0.5259  0.3190  0.3642
 1174TIP3    H2 3487   5.365   4.151   0.193  0.0604  0.0424  0.1641
 1175TIP3   OH2 3488   5.748   2.477   3.967 -0.3356 -0.6566  0.0163
 1175TIP3    H1 3489   5.815   2.493   3.901 -1.2826 -1.0441 -1.0728
 1175TIP3    H2 3490   5.769   2.390   4.002 -0.1839 -0.7055 -0.1999
 1176TIP3   OH2 3491   5.088   4.850   1.500 -0.6196  0.3284  0.3837
 1176TIP3    H1 3492   5.089   4.912   1.572  0.9753 -1.2259  1.7979
 1176TIP3    H2 3493   4.998   4.853   1.466 -0.6129  3.2706  0.4311
 1177TIP3   OH2 3494   1.579   1.989   5.032  0.2199 -0.2931  0.0892
 1177TIP3    H1 3495   1.541   2.075   5.050  2.6092  0.8774 -0.1398
 1177TIP3    H2 3496   1.673   2.001   5.044  0.6788 -2.7541 -0.5046
 1178TIP3   OH2 3497   7.196   4.035   3.884 -0.0357 -0.5568 -0.2008
 1178TIP3    H1 3498   7.211   3.941   3.869  0.2398 -0.6619  0.6607
 1178TIP3    H2 3499   7.226   4.050   3.973 -0.6250  0.2431 -0.1258
 1179TIP3   OH2 3500   0.270   2.974   4.917 -0.2017 -0.1874 -0.9702
 1179TIP3    H1 3501   0.330   3.012   4.853 -1.5105  0.3523 -1.9217
 1179TIP3    H2 3502   0.279   2.880   4.905  1.3235 -0.1654 -0.2428
 1180TIP3   OH2 3503   6.418   5.390   5.890 -0.0892 -0.3237  0.8572
 1180TIP3    H1 3504   6.468   5.418   5.813 -1.1035  0.8144  0.5876
 1180TIP3    H2 3505   6.347   5.337   5.854  0.3921 -1.2119  1.1715
 1181TIP3   OH2 3506   4.376   6.286   2.139 -0.4517 -0.1683 -0.0965
 1181TIP3    H1 3507   4.359   6.227   2.212 -0.7794  0.3720  0.2645
 1181TIP3    H2 3508   4.414   6.364   2.179  2.6187 -1.1464 -0.7903
 1182TIP3   OH2 3509   5.178   5.913   5.491 -0.1588 -0.0918  0.1272
 1182TIP3    H1 3510   5.202   5.822   5.475 -0.6115 -0.1594 -0.1656
 1182TIP3    H2 3511   5.121   5.937   5.418 -0.4396  0.2763  0.4619
 1183TIP3   OH2 3512   0.359   4.858   3.756 -0.4231  0.1320 -0.0893
 1183TIP3    H1 3513   0.445   4.865   3.713 -0.8614 -1.6380 -1.3618
 1183TIP3    H2 3514   0.302   4.913   3.702 -0.0243  1.8145  1.1155
 1184TIP3   OH2 3515   3.164   5.266   1.561  0.0281 -0.5704  0.0886
 1184TIP3    H1 3516   3.104   5.195   1.539 -2.5555  0.3161  3.3300
 1184TIP3    H2 3517   3.241   5.223   1.597 -1.3467 -1.8267  1.6791
 1185TIP3   OH2 3518   5.532   6.431   3.123  0.1520 -0.0985 -0.3640
 1185TIP3    H1 3519   5.555   6.377   3.199 -1.9309  0.3613  0.6710
 1185TIP3    H2 3520   5.465   6.490   3.156 -0.4257  0.4834 -2.4596
 1186TIP3   OH2 3521   0.520   6.781   0.211 -0.2879 -0.0463  0.2063
 1186TIP3    H1 3522   0.589   6.754   0.150  1.1567  1.3278  1.1521
 1186TIP3    H2 3523   0.565   6.836   0.275 -1.9291 -0.6590  1.9862
 1187TIP3   OH2 3524   4.476   5.377   3.828  0.2838 -0.0380 -0.7577
 1187TIP3    H1 3525   4.533   5.420   3.892  0.9166  3.6826 -3.4716
 1187TIP3    H2 3526   4.530   5.307   3.792  1.1141 -0.0413  0.4058
 1188TIP3   OH2 3527   5.649   1.211   1.148  0.3653  0.6295 -1.0399
 1188TIP3    H1 3528   5.726   1.182   1.098  0.2770  0.1142 -0.8768
 1188TIP3    H2 3529   5.660   1.306   1.153  1.7939  0.4380  0.2803
 1189TIP3   OH2 3530   4.208   0.601   3.277  0.0738  0.3103 -0.0238
 1189TIP3    H1 3531   4.251   0.684   3.258 -1.4031  1.5367  1.5829
 1189TIP3    H2 3532   4.128   0.602   3.224  0.0538 -0.0958 -0.0076
 1190TIP3   OH2 3533   2.668   5.191   4.730  0.5593  0.0196  0.1833
 1190TIP3    H1 3534   2.743   5.163   4.782 -0.0933  0.4333  1.3678
 1190TIP3    H2 3535   2.593   5.146   4.770  0.2002 -0.7032 -1.2242
 1191TIP3   OH2 3536   5.496   6.756   3.031 -0.6536 -0.5535  0.4676
 1191TIP3    H1 3537   5.439   6.808   3.088  0.0915  0.7612  0.0497
 1191TIP3    H2 3538   5.583   6.762   3.072 -0.2467 -0.1474 -0.4092
 1192TIP3   OH2 3539   2.697   1.818   2.819  0.4303 -0.2962 -0.3492
 1192TIP3    H1 3540   2.780   1.833   2.774 -0.5049  1.6959 -1.6054
 1192TIP3    H2 3541   2.643   1.893   2.793 -1.7325 -1.4820  0.4861
 1193TIP3   OH2 3542   6.945   5.581   5.702  0.5311 -0.1845 -0.6149
 1193TIP3    H1 3543   6.978   5.619   5.621  0.8008  0.4974 -0.2045
 1193TIP3    H2 3544   6.856   5.553   5.682  0.7255 -0.3493 -1.2417
 1194TIP3   OH2 3545   6.326   2.915   4.921 -0.0271 -0.1848  0.5436
 1194TIP3    H1 3546   6.272   2.841   4.894 -0.5247 -0.2671  1.6945
 1194TIP3    H2 3547   6.379   2.936   4.844 -1.1385 -0.5974 -0.3702
 1195TIP3   OH2 3548   5.511   5.949   2.436  0.3767 -0.6884 -0.3340
 1195TIP3    H1 3549   5.533   6.021   2.377 -0.0711 -0.6496 -0.4578
 1195TIP3    H2 3550   5.596   5.917   2.467  0.5660  1.1989  1.3164
 1196TIP3   OH2 3551   6.099   2.774   2.107  0.3704 -0.1030  0.1473
 1196TIP3    H1 3552   6.190   2.801   2.122 -0.0693  1.4148  0.2774
 1196TIP3    H2 3553   6.047   2.842   2.150 -0.8418 -0.0854 -1.2980
 1197TIP3   OH2 3554   3.962   3.754   5.000 -0.1794  0.2533 -0.2917
 1197TIP3    H1 3555   3.932   3.824   5.059 -1.1258 -0.6834  0.3988
 1197TIP3    H2 3556   4.057   3.758   5.004 -0.2228  0.6747  0.7700
 1198TIP3   OH2 3557   4.792   6.420   3.346  0.0690 -0.2702 -0.3904
 1198TIP3    H1 3558   4.835   6.364   3.281  1.5967  2.5706 -2.0472
 1198TIP3    H2 3559   4.792   6.507   3.306 -0.3922  1.3374  2.8024
 1199TIP3   OH2 3560   3.461   0.035   3.915 -0.4125 -0.6941  0.2279
 1199TIP3    H1 3561   3.378  -0.013   3.917 -0.6877 -0.2058  0.8971
 1199TIP3    H2 3562   3.506   0.003   3.837 -1.2665 -0.9127 -0.1792
 1200TIP3   OH2 3563   7.188   2.762   0.220  0.6475  0.0461 -0.3266
 1200TIP3    H1 3564   7.112   2.703   0.229  0.2761  0.1060 -2.5738
 1200TIP3    H2 3565   7.189   2.812   0.302 -0.5644 -1.2986  0.5624
 1201TIP3   OH2 3566   2.725   4.400   3.665  0.1250 -0.1041 -0.0074
 1201TIP3    H1 3567   2.630   4.411   3.659 -0.0960 -1.5340  0.3721
 1201TIP3    H2 3568   2.760   4.487   3.651 -1.1350  0.1074 -2.2867
 1202TIP3   OH2 3569   0.930   1.714   3.577  0.2827  0.4716  0.8841
 1202TIP3    H1 3570   1.018   1.697   3.611  0.5117  1.7885  1.0319
 1202TIP3    H2 3571   0.943   1.729   3.483  0.1508  0.2478  0.8294
 1203TIP3   OH2 3572   2.955   4.616   3.879  0.1936  0.0657 -0.1380
 1203TIP3    H1 3573   3.009   4.595   3.955 -1.3752  1.1128  1.3219
 1203TIP3    H2 3574   2.978   4.706   3.857 -0.8055  0.4659  0.3963
 1204TIP3   OH2 3575   5.533   6.162   3.673  0.0614  0.0995  0.6667
 1204TIP3    H1 3576   5.550   6.099   3.743  0.1569  1.5098  1.9694
 1204TIP3    H2 3577   5.452   6.206   3.700 -2.1975 -1.9822 -2.1286
 1205TIP3   OH2 3578   0.137   3.860   0.477  0.0472  0.3377  0.4396
 1205TIP3    H1 3579   0.195   3.930   0.447  0.0334  1.1988  2.2602
 1205TIP3    H2 3580   0.192   3.782   0.476  0.0267  0.3016 -1.7461
 1206TIP3   OH2 3581   6.691   5.499   1.448  0.0008 -0.2556 -0.0155
 1206TIP3    H1 3582   6.652   5.412   1.447 -0.9315  0.1494 -1.2689
 1206TIP3    H2 3583   6.616   5.559   1.445  0.6581  0.5759 -0.2750
 1207TIP3   OH2 3584   0.076   2.838   2.082 -0.5201  0.5021 -0.5398
 1207TIP3    H1 3585   0.070   2.748   2.052 -0.3120  0.1540  0.4265
 1207TIP3    H2 3586   0.170   2.852   2.100 -0.8049  0.1585  1.4692
 1208TIP3   OH2 3587   3.493   5.130   5.017 -0.1176 -0.1541 -0.3676
 1208TIP3    H1 3588   3.472   5.102   5.106 -0.1575 -0.8514 -0.5846
 1208TIP3    H2 3589   3.438   5.206   5.002 -0.0568  0.0170  0.2278
 1209TIP3   OH2 3590   2.963   0.011   3.618  0.1250 -0.0913 -0.0877
 1209TIP3    H1 3591   3.034  -0.012   3.558  0.2937  1.2061 -0.4156
 1209TIP3    H2 3592   2.920   0.086   3.577 -0.9562 -0.3637  0.4968
 1210TIP3   OH2 3593  -0.009   6.356   2.912  0.1830 -0.2161 -0.1055
 1210TIP3    H1 3594   0.022   6.331   2.825 -2.0767 -2.6642 -0.3268
 1210TIP3    H2 3595   0.006   6.450   2.917  0.8453 -0.0998 -2.9381
 1211TIP3   OH2 3596   4.961   3.739   4.754 -0.1296 -0.0854 -0.7528
 1211TIP3    H1 3597   4.878   3.750   4.709  0.2267 -1.6155 -1.8432
 1211TIP3    H2 3598   5.027   3.752   4.687  0.5714  1.7032  0.2240
 1212TIP3   OH2 3599   5.155   2.747   3.997 -0.0090 -0.0628  0.2384
 1212TIP3    H1 3600   5.177   2.654   3.993  1.4330  0.2974 -1.2551
 1212TIP3    H2 3601   5.205   2.781   4.071  1.6907  0.0233 -0.8994
 1213TIP3   OH2 3602   2.527   4.943   0.156  0.0098 -0.4258 -0.1064
 1213TIP3    H1 3603   2.570   5.028   0.143  1.2758 -0.9771  0.3475
 1213TIP3    H2 3604   2.564   4.910   0.237 -1.4061 -0.8727  0.3717
 1214TIP3   OH2 3605   2.978   0.820   1.845 -0.3136  0.1572  0.0653
 1214TIP3    H1 3606   2.920   0.772   1.904  0.5181  0.7215  1.3976
 1214TIP3    H2 3607   3.052   0.761   1.829 -0.7571 -0.1817 -0.8437
 1215TIP3   OH2 3608   4.578   3.518   1.510  0.3110  0.1745 -0.5179
 1215TIP3    H1 3609   4.630   3.535   1.589 -0.6689 -0.8890  0.3914
 1215TIP3    H2 3610   4.643   3.509   1.440  1.3774 -1.1201  0.5727
 1216TIP3   OH2 3611   2.760   2.393   3.863 -0.2604 -0.1109  0.3096
 1216TIP3    H1 3612   2.853   2.371   3.861  0.0181  1.0001  0.4431
 1216TIP3    H2 3613   2.722   2.345   3.789  0.8147  1.1182 -1.0975
 1217TIP3   OH2 3614   4.204   1.318   3.115  0.3015 -0.2188 -0.2115
 1217TIP3    H1 3615   4.201   1.304   3.210  0.3495 -1.9312 -0.4227
 1217TIP3    H2 3616   4.141   1.255   3.080 -0.2500  0.8912 -1.2883
 1218TIP3   OH2 3617   2.530   4.606   5.191  0.5120 -0.2938  0.3658
 1218TIP3    H1 3618   2.565   4.556   5.117  3.5545  1.6166  0.3506
 1218TIP3    H2 3619   2.590   4.679   5.201 -1.0047  0.6956  3.4431
 1219TIP3   OH2 3620   2.473   2.166   2.535  0.0777  0.1817 -0.1210
 1219TIP3    H1 3621   2.440   2.255   2.523 -0.8522 -0.3861 -2.1940
 1219TIP3    H2 3622   2.415   2.111   2.482  0.9623 -1.5977  0.6618
 1220TIP3   OH2 3623   6.052   5.872   3.457  0.5254 -0.3099  0.3193
 1220TIP3    H1 3624   6.032   5.923   3.535 -0.7603 -0.2539 -0.0316
 1220TIP3    H2 3625   6.148   5.865   3.457  0.5272 -0.7624  2.1833
 1221TIP3   OH2 3626   0.754   5.280   2.666 -1.2773  0.7619 -0.6350
 1221TIP3    H1 3627   0.838   5.323   2.683 -1.3994  1.5702 -1.9629
 1221TIP3    H2 3628   0.720   5.259   2.753  0.5712 -0.1493 -0.0783
 1222TIP3   OH2 3629   1.697   2.636   0.142 -0.1270  0.1980 -0.2710
 1222TIP3    H1 3630   1.766   2.611   0.205  0.1651  1.4723 -0.0526
 1222TIP3    H2 3631   1.628   2.673   0.197 -0.7244 -0.5051 -0.5461
 1223TIP3   OH2 3632   2.066   1.421   1.018  0.0151  0.4387 -0.3930
 1223TIP3    H1 3633   2.137   1.485   1.025  0.8700 -0.6403  1.6941
 1223TIP3    H2 3634   2.060   1.402   0.924  1.6317  1.4665 -0.7527
 1224TIP3   OH2 3635   3.203   0.839   0.400 -0.0750  0.7479 -0.1035
 1224TIP3    H1 3636   3.162   0.896   0.336  0.0983  1.9645  0.8343
 1224TIP3    H2 3637   3.234   0.898   0.469 -2.4964 -0.6333  2.4082
 1225TIP3   OH2 3638   1.002   4.463   0.962 -0.2405 -0.3136  0.0490
 1225TIP3    H1 3639   1.049   4.390   0.920  3.0797  1.6815 -0.0625
 1225TIP3    H2 3640   0.987   4.525   0.891 -1.0799  0.0527  0.5358
 1226TIP3   OH2 3641   0.221   0.634   4.025  0.4975 -0.0095  0.4534
 1226TIP3    H1 3642   0.287   0.590   3.972  0.0259 -0.9630  0.6341
 1226TIP3    H2 3643   0.270   0.679   4.094  0.9821 -0.3205  0.3090
 1227TIP3   OH2 3644   5.150   2.873   2.693  1.0583 -0.2448 -0.5248
 1227TIP3    H1 3645   5.141   2.944   2.631  1.4701 -0.0034 -0.3172
 1227TIP3    H2 3646   5.214   2.905   2.757  0.2858 -0.2982  0.2898
 1228TIP3   OH2 3647   4.117   6.624   4.101 -0.0025  0.7532  0.4605
 1228TIP3    H1 3648   4.192   6.648   4.048 -1.5268  1.9563 -1.3059
 1228TIP3    H2 3649   4.046   6.609   4.038 -1.4947  0.6188  2.0706
 1229TIP3   OH2 3650   7.066   6.427   4.499 -0.2957  1.2094 -0.2285
 1229TIP3    H1 3651   6.987   6.439   4.447 -0.5393  3.4444  0.5272
 1229TIP3    H2 3652   7.036   6.429   4.590  0.6577  2.9112  0.0949
 1230TIP3   OH2 3653   5.317   4.923   4.139  0.0949  0.1561  0.6719
 1230TIP3    H1 3654   5.225   4.907   4.117  0.2416 -0.2745  0.3682
 1230TIP3    H2 3655   5.318   4.927   4.235 -0.2748  0.3793  0.6675
 1231TIP3   OH2 3656   3.566   4.702   2.960 -0.1521 -0.4785 -0.2644
 1231TIP3    H1 3657   3.571   4.797   2.966 -0.5671 -0.4490 -0.3423
 1231TIP3    H2 3658   3.576   4.683   2.866  0.6481 -0.5613 -0.1676
 1232TIP3   OH2 3659   0.267   4.735   1.690 -0.4315  0.0444 -0.2529
 1232TIP3    H1 3660   0.265   4.825   1.725 -2.5349  0.0467 -0.2249
 1232TIP3    H2 3661   0.205   4.737   1.617  2.0714 -0.5750 -2.5205
 1233TIP3   OH2 3662   4.824   6.030   4.590  0.3520 -0.3677 -0.1388
 1233TIP3    H1 3663   4.866   6.071   4.665 -1.6742  1.3091  0.1665
 1233TIP3    H2 3664   4.873   6.060   4.514  2.0078 -1.5486  0.4079
 1234TIP3   OH2 3665   3.109   6.310   2.222  0.3085 -0.0230  0.0172
 1234TIP3    H1 3666   3.038   6.258   2.259 -1.0048  0.9571 -1.0140
 1234TIP3    H2 3667   3.161   6.337   2.297 -1.7156  1.0997  1.0887
 1235TIP3   OH2 3668   3.073   5.473   1.242 -0.2914  0.3125 -0.1652
 1235TIP3    H1 3669   2.979   5.457   1.250  0.0181 -1.0621  0.9368
 1235TIP3    H2 3670   3.102   5.493   1.331  0.8482 -1.6635 -0.0263
 1236TIP3   OH2 3671   7.166   4.704   1.328 -0.5174  0.2773 -0.5508
 1236TIP3    H1 3672   7.211   4.683   1.246 -0.6773 -1.5813 -0.2203
 1236TIP3    H2 3673   7.105   4.631   1.341 -0.3218  0.3977  1.3403
 1237TIP3   OH2 3674   3.043   6.439   1.661 -0.0198 -0.1029  0.2428
 1237TIP3    H1 3675   3.066   6.364   1.716 -3.2846  0.1721  2.2695
 1237TIP3    H2 3676   3.019   6.401   1.576 -1.0318 -1.3370  1.0434
 1238TIP3   OH2 3677   2.321   1.033   3.030  0.7256  0.4580 -0.0523
 1238TIP3    H1 3678   2.229   1.059   3.038 -0.0540 -1.5706 -1.5597
 1238TIP3    H2 3679   2.324   0.945   3.068  2.1115  0.5698  0.1442
 1239TIP3   OH2 3680   4.302   4.560   5.735 -0.4037 -0.1516 -0.0538
 1239TIP3    H1 3681   4.329   4.499   5.666 -2.2304 -0.6822 -0.3694
 1239TIP3    H2 3682   4.290   4.643   5.690 -1.0700 -0.3681 -0.2946
 1240TIP3   OH2 3683   4.981   2.977   2.268 -0.3346 -0.5303  0.1556
 1240TIP3    H1 3684   4.984   2.939   2.180 -0.1680 -1.4971  0.5640
 1240TIP3    H2 3685   4.889   2.999   2.281 -0.5605 -1.4104  0.1445
 1241TIP3   OH2 3686   5.199   5.334   1.571 -0.1357  0.7445  0.1395
 1241TIP3    H1 3687   5.121   5.281   1.556  0.8406 -0.5745 -0.4135
 1241TIP3    H2 3688   5.172   5.397   1.638 -1.1728 -0.8411  1.2830
 1242TIP3   OH2 3689   6.232   3.494   5.237  0.3790 -0.7005 -0.3307
 1242TIP3    H1 3690   6.268   3.459   5.319  1.4667  1.3200  0.1276
 1242TIP3    H2 3691   6.152   3.539   5.263  2.0357  2.2238  0.2150
 1243TIP3   OH2 3692   5.890   5.416   3.591 -0.1551  0.3493 -0.1953
 1243TIP3    H1 3693   5.843   5.387   3.513 -1.1609 -1.8944  1.1476
 1243TIP3    H2 3694   5.825   5.468   3.640  0.0445  0.5960 -0.1888
 1244TIP3   OH2 3695   5.142   5.606   5.268  0.1775 -0.3314 -0.2471
 1244TIP3    H1 3696   5.189   5.689   5.279  0.1803 -0.3416 -0.1794
 1244TIP3    H2 3697   5.084   5.601   5.344  1.4409 -1.2315  0.6839
 1245TIP3   OH2 3698   6.482   4.021   0.909  0.0350  0.2095  0.3288
 1245TIP3    H1 3699   6.460   3.955   0.843 -1.0156  1.0368 -0.1760
 1245TIP3    H2 3700   6.560   3.987   0.952 -0.6826 -1.5512  0.3256
 1246TIP3   OH2 3701   3.067   6.401   0.495 -0.1530  0.0901  0.6407
 1246TIP3    H1 3702   3.159   6.397   0.470 -0.2387 -1.1026  0.4632
 1246TIP3    H2 3703   3.041   6.309   0.504 -1.0160  0.4348  1.8284
 1247TIP3   OH2 3704   1.868   2.350   5.374  0.4413 -0.3663 -0.2176
 1247TIP3    H1 3705   1.809   2.275   5.374  2.3606 -1.9443 -0.7317
 1247TIP3    H2 3706   1.836   2.406   5.303 -1.6460 -0.1082  0.8565
 1248TIP3   OH2 3707   1.497   1.177   5.785 -0.0104  0.5484 -0.1758
 1248TIP3    H1 3708   1.544   1.118   5.844 -1.7587 -0.2298  0.5159
 1248TIP3    H2 3709   1.462   1.121   5.716 -3.3685  0.2788  1.5279
 1249TIP3   OH2 3710   1.940   5.468   3.176 -0.1325 -0.9091  0.1047
 1249TIP3    H1 3711   2.010   5.479   3.240 -1.7949 -0.8495  2.0155
 1249TIP3    H2 3712   1.908   5.379   3.191  0.3405 -1.4076 -1.6409
 1250TIP3   OH2 3713   3.541   5.535   3.428 -0.5429  0.7268  0.3857
 1250TIP3    H1 3714   3.554   5.461   3.489 -1.3572  0.7121  0.5578
 1250TIP3    H2 3715   3.626   5.546   3.386 -0.6921 -1.0839 -0.5078
 1251TIP3   OH2 3716   5.243   4.638   2.230  0.6091 -0.5440  0.2010
 1251TIP3    H1 3717   5.208   4.710   2.178 -1.1116 -0.1096  1.8597
 1251TIP3    H2 3718   5.323   4.673   2.269  0.9296 -0.2696 -0.7004
 1252TIP3   OH2 3719   6.458   1.818   0.829 -0.3595 -0.1213  0.4638
 1252TIP3    H1 3720   6.496   1.788   0.911  0.4361 -1.7321 -0.4386
 1252TIP3    H2 3721   6.425   1.906   0.848  2.5790  0.8256  1.6809
 1253TIP3   OH2 3722   3.020   6.317   4.321  0.1064  0.2958  0.3557
 1253TIP3    H1 3723   3.017   6.403   4.280  0.7027  0.3061  0.3244
 1253TIP3    H2 3724   2.944   6.271   4.286  0.7793  0.1888 -1.0285
 1254TIP3   OH2 3725   0.147   1.088   2.593 -0.1531  0.3311 -0.2622
 1254TIP3    H1 3726   0.173   1.174   2.626 -0.7093  0.5966 -0.5028
 1254TIP3    H2 3727   0.189   1.082   2.507 -1.8520  1.2961 -1.2169
 1255TIP3   OH2 3728   0.377   3.741   5.166  0.1190  0.0808 -0.0690
 1255TIP3    H1 3729   0.295   3.777   5.200  0.0684  0.9824 -1.1043
 1255TIP3    H2 3730   0.367   3.646   5.177 -0.9197  0.1948  0.1217
 1256TIP3   OH2 3731   7.175   0.245   3.876 -0.0831 -0.1774 -0.3351
 1256TIP3    H1 3732   7.208   0.272   3.790  0.4122 -1.7685 -0.6820
 1256TIP3    H2 3733   7.218   0.304   3.938 -1.2815  1.7299 -1.2155
 1257TIP3   OH2 3734   1.733   2.303   4.166 -0.2538 -0.0198  0.2841
 1257TIP3    H1 3735   1.720   2.210   4.149  0.8464 -0.0869 -0.2617
 1257TIP3    H2 3736   1.743   2.342   4.079  0.5092  0.4108  0.5534
 1258TIP3   OH2 3737   3.847   4.444   5.243 -0.3193 -0.7088 -0.1410
 1258TIP3    H1 3738   3.811   4.532   5.232  0.1491 -0.5106 -0.1221
 1258TIP3    H2 3739   3.836   4.425   5.336 -0.4952 -0.7046 -0.1608
 1259TIP3   OH2 3740   3.417   3.366   2.233  0.1862 -0.3149  0.1689
 1259TIP3    H1 3741   3.468   3.417   2.170  0.2000  0.8946  1.1245
 1259TIP3    H2 3742   3.461   3.380   2.317 -1.9151  1.1442  1.1240
 1260TIP3   OH2 3743   2.653   5.870   3.278  0.3815 -0.4165 -0.3444
 1260TIP3    H1 3744   2.742   5.836   3.267  0.5892 -0.4436  1.2161
 1260TIP3    H2 3745   2.599   5.792   3.290  0.4988 -0.3304  0.8767
 1261TIP3   OH2 3746   2.671   6.223   3.908  0.2494 -0.0607  0.0487
 1261TIP3    H1 3747   2.637   6.134   3.910  0.4466 -0.1226  1.0156
 1261TIP3    H2 3748   2.758   6.215   3.868 -0.2001 -0.1192 -0.9633
 1262TIP3   OH2 3749   4.321   3.814   3.429 -0.1695 -0.1704 -0.3641
 1262TIP3    H1 3750   4.305   3.878   3.358  0.3004 -0.5932 -0.8576
 1262TIP3    H2 3751   4.290   3.858   3.508 -2.4568 -0.3872 -1.0644
 1263TIP3   OH2 3752   5.844   5.298   5.161 -0.1312  0.4028 -0.1989
 1263TIP3    H1 3753   5.758   5.301   5.204  0.2468 -0.1791  0.6340
 1263TIP3    H2 3754   5.904   5.333   5.227  0.3253  0.4194 -0.6257
 1264TIP3   OH2 3755   2.787   5.286   1.896  0.0422  0.4885 -0.8024
 1264TIP3    H1 3756   2.871   5.318   1.864  0.2944 -0.1856 -0.8181
 1264TIP3    H2 3757   2.761   5.220   1.832  0.2673 -0.4501  0.0621
 1265TIP3   OH2 3758   6.535   0.753   3.847 -0.0659  0.6747 -0.1441
 1265TIP3    H1 3759   6.578   0.835   3.870  1.5456  0.3874 -1.8917
 1265TIP3    H2 3760   6.474   0.778   3.776  0.5698  0.3562 -0.8135
 1266TIP3   OH2 3761   6.189   6.677   5.356  0.2690 -0.0754  0.2602
 1266TIP3    H1 3762   6.273   6.724   5.361  0.5339 -0.3748 -1.0539
 1266TIP3    H2 3763   6.196   6.609   5.422  1.6910 -1.0450 -0.8281
 1267TIP3   OH2 3764   2.696   2.451   5.029  0.5978  0.6182  0.1394
 1267TIP3    H1 3765   2.728   2.364   5.005  2.2660  1.5694 -1.3322
 1267TIP3    H2 3766   2.664   2.488   4.946  0.5084  1.6422  0.6157
 1268TIP3   OH2 3767   3.571   6.457   3.463  0.7540 -0.0460 -0.1206
 1268TIP3    H1 3768   3.647   6.491   3.510  0.5936 -0.0794  0.1657
 1268TIP3    H2 3769   3.604   6.438   3.375  0.7821  1.0713 -0.3574
 1269TIP3   OH2 3770   4.317   0.805   0.940 -0.3492  0.4127  0.0507
 1269TIP3    H1 3771   4.382   0.765   0.998  0.9999  2.1206 -0.2048
 1269TIP3    H2 3772   4.339   0.772   0.853 -0.6284  0.0163  0.1272
 1270TIP3   OH2 3773   2.146   5.437   1.914  0.1339  0.1904  0.6048
 1270TIP3    H1 3774   2.190   5.391   1.843 -0.7069 -2.1792  1.4996
 1270TIP3    H2 3775   2.053   5.432   1.891  0.0078  1.3122  0.8323
 1271TIP3   OH2 3776   0.002   6.119   0.433 -0.0015  0.4728  0.2711
 1271TIP3    H1 3777  -0.030   6.206   0.408  0.3738  0.3920 -0.5046
 1271TIP3    H2 3778   0.097   6.126   0.426 -0.0276 -0.4122 -1.2035
 1272TIP3   OH2 3779   4.343   2.893   2.117 -0.1100  0.5905 -0.5037
 1272TIP3    H1 3780   4.354   2.982   2.084  2.6293  0.6516  0.3724
 1272TIP3    H2 3781   4.384   2.893   2.204 -2.5541 -0.8550  0.7808
 1273TIP3   OH2 3782   6.874   3.713   2.278  0.3296  0.3372 -0.1717
 1273TIP3    H1 3783   6.849   3.635   2.228  1.4569 -1.0709  1.3601
 1273TIP3    H2 3784   6.908   3.774   2.212  1.5019 -1.3303 -1.1868
 1274TIP3   OH2 3785   4.669   1.744   4.957  0.4089 -0.5655 -0.3607
 1274TIP3    H1 3786   4.629   1.777   4.877  0.6001 -2.3084 -1.2117
 1274TIP3    H2 3787   4.596   1.733   5.018  0.5188  3.1975  0.7258
 1275TIP3   OH2 3788   1.671   4.025   3.827 -0.2527 -0.3200 -0.1543
 1275TIP3    H1 3789   1.622   4.005   3.907  0.4573  0.1450  0.4208
 1275TIP3    H2 3790   1.685   3.941   3.785  0.1941 -0.6931  0.7155
 1276TIP3   OH2 3791   0.574   0.769   1.647  0.2769  0.0739 -0.3029
 1276TIP3    H1 3792   0.599   0.853   1.685  2.7511 -0.3537 -0.7711
 1276TIP3    H2 3793   0.634   0.706   1.687 -2.2045 -1.7171  0.8310
 1277TIP3   OH2 3794   3.726   3.219   3.530  0.4892 -0.0613 -0.2260
 1277TIP3    H1 3795   3.689   3.304   3.507  0.9121  0.2832  0.3570
 1277TIP3    H2 3796   3.650   3.163   3.543  0.0633  0.9939  2.3643
 1278TIP3   OH2 3797   0.056   5.261   5.285  0.7687 -0.4698 -0.2271
 1278TIP3    H1 3798   0.059   5.334   5.347 -1.5246  0.7745 -1.4476
 1278TIP3    H2 3799   0.033   5.186   5.339 -0.3322  0.4240  0.6061
 1279TIP3   OH2 3800   4.416   3.474   1.993 -0.4235 -0.0622  0.1763
 1279TIP3    H1 3801   4.364   3.433   2.062 -0.5177  0.2297  0.2782
 1279TIP3    H2 3802   4.503   3.434   2.001 -0.3309  0.2386  0.7001
 1280TIP3   OH2 3803   1.113   3.007   5.250 -0.2256  0.0223 -0.1485
 1280TIP3    H1 3804   1.150   3.090   5.219  0.0076  0.4186  1.1238
 1280TIP3    H2 3805   1.189   2.959   5.285 -0.6089  0.0148  0.6946
 1281TIP3   OH2 3806   1.907   3.470   4.020  0.0360 -0.0229 -0.2074
 1281TIP3    H1 3807   1.833   3.527   4.039  0.9934  1.0117  0.5941
 1281TIP3    H2 3808   1.870   3.382   4.015 -1.0946  0.3391  1.2563
 1282TIP3   OH2 3809   4.753   0.749   5.533 -0.1628  0.6062  0.1525
 1282TIP3    H1 3810   4.661   0.778   5.538 -0.8088 -1.1338 -0.7811
 1282TIP3    H2 3811   4.757   0.675   5.594  0.6082  0.6218  0.1224
 1283TIP3   OH2 3812   2.234   3.618   0.071  0.5004 -0.0032 -0.3618
 1283TIP3    H1 3813   2.303   3.682   0.055  0.0797  0.5578  0.0399
 1283TIP3    H2 3814   2.224   3.617   0.166  0.6870 -0.8666 -0.3436
 1284TIP3   OH2 3815   2.712   5.370   2.848  0.1622  0.5253 -0.6636
 1284TIP3    H1 3816   2.754   5.294   2.809 -0.9535 -0.0956 -0.6975
 1284TIP3    H2 3817   2.769   5.443   2.826  0.9168 -0.2027 -1.1833
 1285TIP3   OH2 3818   3.571   6.179   1.490 -0.3173 -0.0226  0.1541
 1285TIP3    H1 3819   3.596   6.242   1.422  0.0834 -1.4993 -1.1303
 1285TIP3    H2 3820   3.480   6.157   1.470 -0.3970 -0.0044  0.4861
 1286TIP3   OH2 3821   1.134   1.371   3.829 -0.0283 -0.1430 -0.2146
 1286TIP3    H1 3822   1.091   1.332   3.752  0.3438 -1.2626  0.1301
 1286TIP3    H2 3823   1.115   1.310   3.900  0.3509  0.4483  0.4027
 1287TIP3   OH2 3824   6.174   4.476   0.679 -0.1907 -0.7315  0.2594
 1287TIP3    H1 3825   6.232   4.405   0.704  0.7822  0.3749  1.2771
 1287TIP3    H2 3826   6.094   4.460   0.729 -0.0893 -1.2690  0.2528
 1288TIP3   OH2 3827   6.928   3.503   3.322 -0.0034 -0.1097  0.2430
 1288TIP3    H1 3828   7.023   3.511   3.315  0.0963 -0.0502  1.4457
 1288TIP3    H2 3829   6.897   3.594   3.320 -0.0213 -0.1216 -0.0009
 1289TIP3   OH2 3830   3.501   0.243   0.637 -0.3171  0.4389  0.0142
 1289TIP3    H1 3831   3.417   0.285   0.653 -0.3424  0.1488  0.6828
 1289TIP3    H2 3832   3.562   0.315   0.620 -1.0366  0.5854 -2.2487
 1290TIP3   OH2 3833   3.044   0.938   0.005 -0.5119  0.4096 -0.3509
 1290TIP3    H1 3834   3.131   0.948  -0.035 -0.2426 -1.2987 -0.2605
 1290TIP3    H2 3835   3.058   0.960   0.097 -0.3184  0.7946 -0.4714
 1291TIP3   OH2 3836   3.121   2.769   5.072 -0.4650 -0.2346 -0.1805
 1291TIP3    H1 3837   3.126   2.812   5.157 -0.0495 -2.0754  0.7748
 1291TIP3    H2 3838   3.033   2.731   5.070 -0.5746  0.0478 -0.6880
 1292TIP3   OH2 3839   0.092   1.569   2.879  0.0302  0.2217 -0.1630
 1292TIP3    H1 3840   0.089   1.663   2.898 -0.3871  0.3193 -0.7069
 1292TIP3    H2 3841   0.182   1.543   2.902 -0.1001  0.5741  0.7911
 1293TIP3   OH2 3842   0.986   2.508   2.440  0.5826  0.3371 -0.5562
 1293TIP3    H1 3843   0.954   2.592   2.407 -1.1034  0.1980  0.6097
 1293TIP3    H2 3844   1.009   2.526   2.532  1.5937 -0.1590 -0.6969
 1294TIP3   OH2 3845   4.366   2.240   1.717  0.0868  0.2420 -0.2706
 1294TIP3    H1 3846   4.320   2.322   1.702 -0.3212  0.1428  0.4281
 1294TIP3    H2 3847   4.430   2.260   1.785  1.0652  0.3676 -1.1970
 1295TIP3   OH2 3848   4.819   4.325   4.443 -0.6866 -0.6258 -0.3485
 1295TIP3    H1 3849   4.914   4.314   4.441 -0.6236 -0.4408  0.8469
 1295TIP3    H2 3850   4.786   4.254   4.388  0.1324 -0.7945 -0.6407
 1296TIP3   OH2 3851   2.361   4.649   1.513  0.0821 -0.4252  0.0900
 1296TIP3    H1 3852   2.330   4.640   1.603 -0.3427 -1.6081 -0.1498
 1296TIP3    H2 3853   2.454   4.627   1.518  0.3960  0.9238  0.4546
 1297TIP3   OH2 3854   0.915   3.242   0.543  0.2564 -0.3524 -0.3331
 1297TIP3    H1 3855   0.927   3.317   0.485  1.8288 -0.4656 -0.2125
 1297TIP3    H2 3856   0.969   3.173   0.503  0.2393 -0.8552  0.4981
 1298TIP3   OH2 3857   0.848   3.074   1.791  0.4194  0.0911  0.5100
 1298TIP3    H1 3858   0.893   3.154   1.764  0.5612  0.3089  1.3492
 1298TIP3    H2 3859   0.794   3.049   1.716  0.3296  1.0076  0.2671
 1299TIP3   OH2 3860   3.242   2.791   4.351  0.3097 -1.0194  0.1293
 1299TIP3    H1 3861   3.206   2.879   4.363 -1.1468 -1.8861  2.7257
 1299TIP3    H2 3862   3.330   2.796   4.387 -0.0955 -0.8313  1.1153
 1300TIP3   OH2 3863   1.992   4.180   0.025  0.5696  0.2971  0.5924
 1300TIP3    H1 3864   2.069   4.182  -0.032  0.1014  0.6286 -0.0366
 1300TIP3    H2 3865   2.014   4.115   0.092  0.2097 -1.9083 -1.3007
 1301TIP3   OH2 3866   5.654   2.533   1.247 -0.4636  0.1509  0.1003
 1301TIP3    H1 3867   5.570   2.545   1.202 -1.2344  0.9314  1.6798
 1301TIP3    H2 3868   5.663   2.610   1.302  0.7347 -0.4881  0.8369
 1302TIP3   OH2 3869   1.183   3.564   3.094 -0.1698 -0.9677  0.1431
 1302TIP3    H1 3870   1.187   3.536   3.185 -0.0400 -1.8720 -0.1314
 1302TIP3    H2 3871   1.271   3.598   3.076  0.0470 -1.5209  0.1341
 1303TIP3   OH2 3872   4.746   0.975   2.137  0.0888 -0.5700  0.4063
 1303TIP3    H1 3873   4.826   0.954   2.185  0.4486  0.2067  0.1723
 1303TIP3    H2 3874   4.684   1.002   2.204  1.0342  1.8959  0.3751
 1304TIP3   OH2 3875   1.506   5.949   1.937 -0.1736  0.2628  0.4389
 1304TIP3    H1 3876   1.534   5.873   1.886  0.7536 -0.9185  2.6095
 1304TIP3    H2 3877   1.578   6.011   1.930 -0.6252  0.7009 -0.7288
 1305TIP3   OH2 3878   3.589   5.373   0.269  0.0421 -0.2606  0.2975
 1305TIP3    H1 3879   3.651   5.436   0.232 -0.3134 -0.6754 -1.0528
 1305TIP3    H2 3880   3.527   5.426   0.319 -0.1519  0.4464 -0.6789
 1306TIP3   OH2 3881   0.973   1.911   1.246  0.1924 -0.0570  0.5503
 1306TIP3    H1 3882   0.910   1.982   1.234  0.6889  0.3055  0.0484
 1306TIP3    H2 3883   1.020   1.906   1.163 -0.2535 -1.3940  0.3546
 1307TIP3   OH2 3884   4.804   6.065   3.653  0.2517 -0.0958 -0.2350
 1307TIP3    H1 3885   4.807   5.972   3.677  2.0431  0.0114  0.0659
 1307TIP3    H2 3886   4.777   6.065   3.561 -0.0639 -0.8826 -0.1506
 1308TIP3   OH2 3887   3.598   6.250   0.875 -0.3426 -1.0003 -0.3995
 1308TIP3    H1 3888   3.674   6.213   0.828  1.9616  0.2010  2.1179
 1308TIP3    H2 3889   3.586   6.191   0.950  0.0184  0.3839  0.7875
 1309TIP3   OH2 3890   3.514   0.262   4.969  0.0509  0.2711 -0.3746
 1309TIP3    H1 3891   3.556   0.348   4.979  0.1797  0.1754 -0.0735
 1309TIP3    H2 3892   3.549   0.210   5.042 -0.1982  0.0315 -0.4261
 1310TIP3   OH2 3893   4.015   5.173   1.602  0.1658  0.7519  0.1884
 1310TIP3    H1 3894   3.984   5.119   1.530 -0.0503 -0.6419  1.2831
 1310TIP3    H2 3895   4.097   5.132   1.630 -0.5691  0.2494  1.7617
 1311TIP3   OH2 3896   2.406   5.264   3.380  0.0655  0.4425 -0.4878
 1311TIP3    H1 3897   2.477   5.263   3.445  0.2962 -0.2645 -0.7339
 1311TIP3    H2 3898   2.397   5.356   3.356 -0.7067  0.8666  1.2617
 1312TIP3   OH2 3899   3.733   5.436   2.011  0.3916 -0.3015 -0.2787
 1312TIP3    H1 3900   3.790   5.360   2.010  0.0916 -0.6139  1.7250
 1312TIP3    H2 3901   3.788   5.507   2.043  1.0762  0.7622 -3.5293
 1313TIP3   OH2 3902   1.917   6.464   5.037 -0.1740  0.3103 -0.1973
 1313TIP3    H1 3903   1.826   6.465   5.008 -0.0432  1.0566 -0.5949
 1313TIP3    H2 3904   1.967   6.446   4.958 -0.0320 -1.3878  0.2301
 1314TIP3   OH2 3905   0.506   2.933   4.525  0.0080 -0.2238  0.0159
 1314TIP3    H1 3906   0.518   2.844   4.559 -0.2877 -0.0671  0.5393
 1314TIP3    H2 3907   0.579   2.945   4.464 -1.3267 -1.7471 -2.0292
 1315TIP3   OH2 3908   1.390   6.234   2.668 -0.0672 -0.1363 -0.0934
 1315TIP3    H1 3909   1.390   6.267   2.578  3.7987  0.3216 -0.0754
 1315TIP3    H2 3910   1.374   6.311   2.722 -0.0136  0.0375 -0.3229
 1316TIP3   OH2 3911   1.055   6.146   2.365  0.0472 -0.1633  0.3172
 1316TIP3    H1 3912   1.065   6.119   2.456  1.5574  0.0123  0.2324
 1316TIP3    H2 3913   1.042   6.065   2.316  1.1588 -0.4573  0.4782
 1317TIP3   OH2 3914   4.447   4.809   2.419 -0.2680  0.0297 -0.0977
 1317TIP3    H1 3915   4.369   4.757   2.441  0.0940 -0.4842 -0.0043
 1317TIP3    H2 3916   4.501   4.804   2.498 -0.0885  0.2906 -0.2049
 1318TIP3   OH2 3917   2.631   2.103   4.558 -0.7013  0.3689  0.0878
 1318TIP3    H1 3918   2.559   2.139   4.507  0.0408  0.6794 -0.7712
 1318TIP3    H2 3919   2.691   2.068   4.493  1.5181  3.0197  0.5298
 1319TIP3   OH2 3920   2.158   0.676   0.307  0.2462  0.6780 -0.0419
 1319TIP3    H1 3921   2.140   0.769   0.316 -0.1624  0.5109  0.9453
 1319TIP3    H2 3922   2.126   0.636   0.388  0.2609 -0.3462 -0.5148
 1320TIP3   OH2 3923   6.408   3.250   0.314 -0.2539 -0.3997  0.4136
 1320TIP3    H1 3924   6.425   3.159   0.291 -1.2952 -0.7089  0.8201
 1320TIP3    H2 3925   6.395   3.250   0.409 -1.0628  0.0266  0.3203
 1321TIP3   OH2 3926   5.732   1.958   2.259  0.3649 -0.4905 -0.1960
 1321TIP3    H1 3927   5.738   1.924   2.170 -0.4371 -0.6703 -0.1935
 1321TIP3    H2 3928   5.820   1.990   2.279  0.5783 -0.5525 -1.0082
 1322TIP3   OH2 3929   0.799   3.800   2.402 -0.3646 -0.1793 -0.1547
 1322TIP3    H1 3930   0.713   3.776   2.368 -0.9264 -0.2997  1.2685
 1322TIP3    H2 3931   0.856   3.726   2.378 -0.7385 -0.2819 -0.7540
 1323TIP3   OH2 3932   0.763   0.913   1.428 -0.1971  0.3869 -0.0063
 1323TIP3    H1 3933   0.751   0.820   1.444 -0.6767  0.4250 -0.1305
 1323TIP3    H2 3934   0.817   0.943   1.502 -1.7496  0.4043  1.1750
 1324TIP3   OH2 3935   5.851   0.780   0.736  0.0378 -0.7268  0.1791
 1324TIP3    H1 3936   5.837   0.720   0.662  0.1943  0.0604 -0.5001
 1324TIP3    H2 3937   5.777   0.763   0.794  0.3970 -2.0130  0.3018
 1325TIP3   OH2 3938   2.952   4.657   4.581  0.7867 -0.0859  0.7208
 1325TIP3    H1 3939   3.003   4.737   4.567  1.9601 -0.9486 -0.2015
 1325TIP3    H2 3940   3.017   4.586   4.575 -0.1828 -1.0985  1.7412
 1326TIP3   OH2 3941   6.767   4.298   4.786 -0.9837  0.2250 -0.0834
 1326TIP3    H1 3942   6.679   4.311   4.820 -1.2048 -1.4276  0.0471
 1326TIP3    H2 3943   6.808   4.236   4.847  0.1694  0.7232 -0.3108
 1327TIP3   OH2 3944   7.104   1.522   2.459 -0.1295  0.2147 -0.1560
 1327TIP3    H1 3945   7.170   1.456   2.440 -1.7041 -0.6982 -2.9693
 1327TIP3    H2 3946   7.129   1.598   2.406 -0.8944  0.1536 -0.6105
 1328TIP3   OH2 3947   0.383   6.784   4.359 -0.3746  0.2219 -0.6033
 1328TIP3    H1 3948   0.369   6.802   4.452  0.7793 -0.2994 -0.3037
 1328TIP3    H2 3949   0.471   6.745   4.356 -0.9177 -0.9897 -1.7512
 1329TIP3   OH2 3950   3.554   1.673   5.541 -0.2940  0.3064 -0.5747
 1329TIP3    H1 3951   3.546   1.697   5.634 -0.0329  0.2656 -0.5404
 1329TIP3    H2 3952   3.641   1.703   5.516 -0.9482  1.7393 -1.2367
 1330TIP3   OH2 3953   5.931   2.026   2.572  0.4452  0.2544  0.4934
 1330TIP3    H1 3954   5.952   2.006   2.481 -0.9169 -1.7743  0.5444
 1330TIP3    H2 3955   5.867   2.098   2.567 -0.4480 -0.5561 -0.2587
 1331TIP3   OH2 3956   4.772   5.498   5.184  0.0437  0.7484 -0.1935
 1331TIP3    H1 3957   4.705   5.548   5.230 -0.1911 -0.9905  1.4885
 1331TIP3    H2 3958   4.748   5.505   5.091 -0.8235  2.4495  0.1280
 1332TIP3   OH2 3959   6.637   0.782   1.339  0.4169  0.1903  0.9906
 1332TIP3    H1 3960   6.625   0.716   1.407  2.0202 -1.9269 -0.6388
 1332TIP3    H2 3961   6.731   0.800   1.340  0.5387 -0.1191 -0.7859
 1333TIP3   OH2 3962   5.537   2.179   3.975 -0.6059  0.2081 -0.1540
 1333TIP3    H1 3963   5.503   2.175   4.065 -0.6297 -0.4134 -0.1844
 1333TIP3    H2 3964   5.623   2.137   3.980 -1.3258 -1.4000 -0.7345
 1334TIP3   OH2 3965   5.144   0.591   5.099  0.0800 -0.4729 -0.4739
 1334TIP3    H1 3966   5.132   0.519   5.037  1.3789  0.3401 -1.7277
 1334TIP3    H2 3967   5.122   0.553   5.184 -0.7061 -1.9177 -1.2783
 1335TIP3   OH2 3968   4.048   2.524   2.516  0.4063  0.0362  0.3919
 1335TIP3    H1 3969   4.089   2.596   2.563 -0.9922  1.2878 -0.2286
 1335TIP3    H2 3970   4.021   2.562   2.433 -1.5251 -0.8392  0.5603
 1336TIP3   OH2 3971   0.548   2.258   5.134 -0.4489 -0.6203 -0.6109
 1336TIP3    H1 3972   0.560   2.344   5.174  0.3494 -0.4707 -1.1523
 1336TIP3    H2 3973   0.482   2.215   5.189  0.0388 -0.1279  0.3860
 1337TIP3   OH2 3974   1.181   4.804   5.337 -0.6450 -0.3107 -0.1808
 1337TIP3    H1 3975   1.258   4.861   5.344 -1.4030  0.6849  0.3840
 1337TIP3    H2 3976   1.202   4.742   5.267  1.5937 -1.5252  1.4413
 1338TIP3   OH2 3977   5.014   4.142   1.628 -0.0715  0.5048  0.3159
 1338TIP3    H1 3978   4.978   4.206   1.689 -1.8752 -0.8806  0.7757
 1338TIP3    H2 3979   4.993   4.057   1.666  0.6739 -0.3918 -1.1655
 1339TIP3   OH2 3980   3.281   2.214   3.938  0.5835 -0.6708 -0.5371
 1339TIP3    H1 3981   3.349   2.266   3.981 -1.1800  0.9039  0.4761
 1339TIP3    H2 3982   3.300   2.124   3.964  1.6729 -0.1480  0.5678
 1340TIP3   OH2 3983   0.472   2.716   1.715  0.3202  0.0120  0.0541
 1340TIP3    H1 3984   0.492   2.722   1.808  0.3353 -0.4288  0.0840
 1340TIP3    H2 3985   0.542   2.660   1.680 -0.6717 -1.3059  0.1046
 1341TIP3   OH2 3986   1.110   5.476   0.118  0.6790  0.3148 -0.0418
 1341TIP3    H1 3987   1.049   5.546   0.140 -1.2201 -1.2327 -0.1275
 1341TIP3    H2 3988   1.151   5.505   0.036 -0.5322  1.0311 -0.4204
 1342TIP3   OH2 3989   0.321   4.118   4.982  0.4923 -0.0853 -0.0890
 1342TIP3    H1 3990   0.314   4.197   4.929  1.0521  0.9919  1.3753
 1342TIP3    H2 3991   0.277   4.140   5.064  0.2503 -1.4654  0.1795
 1343TIP3   OH2 3992   6.068   5.114   0.902  0.0837  0.2790 -0.3323
 1343TIP3    H1 3993   6.028   5.148   0.982  0.8903  0.2011  0.1207
 1343TIP3    H2 3994   6.027   5.029   0.888 -0.0896  0.3110 -0.0185
 1344TIP3   OH2 3995   3.854   1.244   4.824 -0.2621 -0.0129 -0.1227
 1344TIP3    H1 3996   3.853   1.318   4.764 -1.3203  0.6198  0.6303
 1344TIP3    H2 3997   3.930   1.192   4.798 -1.7530 -0.8115 -3.2315
 1345TIP3   OH2 3998   0.694   4.984  -0.013  0.4989  0.0974  0.8012
 1345TIP3    H1 3999   0.777   5.003   0.029 -0.5183  1.3293  2.3844
 1345TIP3    H2 4000   0.644   4.935   0.053 -1.8988  3.7969  2.1136
 1346TIP3   OH2 4001   6.790   3.341   3.700  0.2789  0.0925 -0.6119
 1346TIP3    H1 4002   6.807   3.393   3.621  0.9985  0.8725  0.0258
 1346TIP3    H2 4003   6.876   3.336   3.743 -0.0218 -0.6798 -0.0903
 1347TIP3   OH2 4004   1.697   3.188   0.874 -0.1173 -0.8526  0.4162
 1347TIP3    H1 4005   1.763   3.257   0.883  0.2259 -1.0385 -0.5152
 1347TIP3    H2 4006   1.614   3.230   0.895  0.2957 -0.6121  1.6124
 1348TIP3   OH2 4007   6.528   2.861   5.136 -0.1228  0.1950 -0.2720
 1348TIP3    H1 4008   6.480   2.781   5.115 -1.2901  0.5651  0.8354
 1348TIP3    H2 4009   6.534   2.860   5.232  3.0900 -0.3803 -0.3811
 1349TIP3   OH2 4010   7.041   1.003   2.645  0.5183 -0.4031 -0.3276
 1349TIP3    H1 4011   7.048   1.083   2.697  1.9402  0.9665 -2.4872
 1349TIP3    H2 4012   6.947   0.987   2.639  0.2402  0.6518  0.7859
 1350TIP3   OH2 4013   0.358   4.584   4.557 -0.1993  0.1347  0.1143
 1350TIP3    H1 4014   0.343   4.567   4.650 -3.6685 -0.5371 -0.4068
 1350TIP3    H2 4015   0.324   4.672   4.543  1.8127  0.9001 -0.2998
 1351TIP3   OH2 4016   2.342   3.865   5.349  0.5256 -0.4851  0.0595
 1351TIP3    H1 4017   2.302   3.829   5.270  2.9713  0.3240 -1.6569
 1351TIP3    H2 4018   2.367   3.788   5.400  0.0995 -1.0678 -0.5892
 1352TIP3   OH2 4019   0.567   0.378   2.757 -0.8141  0.9432 -0.4423
 1352TIP3    H1 4020   0.645   0.396   2.810  0.2770  0.4149 -1.8127
 1352TIP3    H2 4021   0.516   0.317   2.810 -0.7716  1.9954  0.8671
 1353TIP3   OH2 4022   1.781   2.197   3.732  0.3389 -0.1715 -0.7995
 1353TIP3    H1 4023   1.820   2.274   3.773  0.8766 -0.5382 -0.6106
 1353TIP3    H2 4024   1.838   2.125   3.758 -1.1440 -0.9341  0.5518
 1354TIP3   OH2 4025   6.229   3.896   5.161  0.5592 -0.5930  0.0299
 1354TIP3    H1 4026   6.319   3.873   5.184  0.9854  0.8934 -0.0599
 1354TIP3    H2 4027   6.207   3.970   5.218  0.6244  1.2811 -2.2467
 1355TIP3   OH2 4028   3.453   4.005   0.915  0.2519  0.1793 -0.3720
 1355TIP3    H1 4029   3.548   4.015   0.908  0.0743  1.7545 -1.1104
 1355TIP3    H2 4030   3.418   4.089   0.884 -1.3627 -0.1007  0.5717
 1356TIP3   OH2 4031   0.110   3.577   5.730  0.3766  0.0089  0.1588
 1356TIP3    H1 4032   0.055   3.523   5.674  0.8019  0.7337 -0.9988
 1356TIP3    H2 4033   0.064   3.660   5.737  0.1714 -0.1789  1.1668
 1357TIP3   OH2 4034   2.711   1.687   0.164  0.6485  0.0145  0.3944
 1357TIP3    H1 4035   2.733   1.700   0.072  0.5156  0.4489  0.4206
 1357TIP3    H2 4036   2.643   1.752   0.181 -1.7684 -2.1830 -0.0896
 1358TIP3   OH2 4037   5.065   5.395   5.505  0.6527  0.5187  0.3155
 1358TIP3    H1 4038   5.110   5.369   5.585  2.6395 -0.0899 -0.9231
 1358TIP3    H2 4039   4.973   5.400   5.530  1.0373 -0.9742  2.2937
 1359TIP3   OH2 4040  -0.006   3.339   5.147  0.8641 -0.5210 -0.2442
 1359TIP3    H1 4041   0.065   3.403   5.155  2.1101 -1.6918 -1.3951
 1359TIP3    H2 4042   0.026   3.263   5.195  0.5984 -1.2271 -1.1751
 1360TIP3   OH2 4043   6.328   0.102   1.258  0.4692 -0.1776  0.3291
 1360TIP3    H1 4044   6.315   0.173   1.321 -1.0726 -1.3193  1.3750
 1360TIP3    H2 4045   6.349   0.026   1.313 -0.1579 -1.0322 -0.5941
 1361TIP3   OH2 4046   2.080   6.146   4.943 -0.1689  0.7685  0.0840
 1361TIP3    H1 4047   2.137   6.221   4.929  0.8507 -0.1425 -0.8405
 1361TIP3    H2 4048   2.100   6.116   5.032  0.1130  1.0300  0.1090
 1362TIP3   OH2 4049   3.780   4.103   4.671 -0.3911  0.3404  0.0526
 1362TIP3    H1 4050   3.693   4.090   4.708 -1.0184 -2.8826 -2.1203
 1362TIP3    H2 4051   3.839   4.092   4.745 -1.7300  1.6420  1.3986
 1363TIP3   OH2 4052   5.579   0.103   2.232  0.0784  0.2433  0.5195
 1363TIP3    H1 4053   5.488   0.119   2.256 -0.5528 -1.2276 -0.7951
 1363TIP3    H2 4054   5.582   0.011   2.207  1.8686  0.3497  0.2199
 1364TIP3   OH2 4055   3.126   3.710   5.354  0.5273  0.4683 -0.5133
 1364TIP3    H1 4056   3.108   3.743   5.442 -1.9830  1.5480 -1.3551
 1364TIP3    H2 4057   3.051   3.655   5.333  0.5712  1.0746 -2.3926
 1365TIP3   OH2 4058   2.906   4.088   5.404  0.2646  0.3688  0.1778
 1365TIP3    H1 4059   2.836   4.050   5.351  0.1923  0.7686 -0.0256
 1365TIP3    H2 4060   2.980   4.095   5.344  0.3001  0.4691  0.2317
 1366TIP3   OH2 4061   0.568   1.589   1.320 -0.1383  0.5377  0.0169
 1366TIP3    H1 4062   0.619   1.508   1.319  0.8694  1.1622 -0.7807
 1366TIP3    H2 4063   0.479   1.560   1.339  0.3288 -0.6790  0.4931
 1367TIP3   OH2 4064   6.695   1.846   1.678 -0.1278 -0.8686  0.4105
 1367TIP3    H1 4065   6.681   1.755   1.654 -0.5082 -1.1955  1.8032
 1367TIP3    H2 4066   6.780   1.847   1.723  0.5847 -0.2636 -0.8756
 1368TIP3   OH2 4067   3.667   5.564   3.891 -0.3780  0.2920 -0.4537
 1368TIP3    H1 4068   3.749   5.515   3.889 -0.3918  0.2602 -0.3103
 1368TIP3    H2 4069   3.687   5.642   3.944 -0.1987  0.7371 -1.1712
 1369TIP3   OH2 4070   1.139   1.426   1.238 -0.1546 -0.2253 -0.2026
 1369TIP3    H1 4071   1.181   1.501   1.197 -0.0427 -0.8332 -1.2333
 1369TIP3    H2 4072   1.105   1.459   1.321  0.3704  0.8202 -0.3978
 1370TIP3   OH2 4073   4.520   1.707   0.658 -0.1537  0.3432  0.2102
 1370TIP3    H1 4074   4.512   1.676   0.567 -0.8960  0.3480  0.2649
 1370TIP3    H2 4075   4.603   1.670   0.689  0.0252  0.2071 -0.4173
 1371TIP3   OH2 4076   0.025   5.372   5.012 -0.0083 -0.2633 -0.0070
 1371TIP3    H1 4077  -0.011   5.408   4.931 -0.2862 -0.9922 -0.2190
 1371TIP3    H2 4078   0.027   5.277   4.997 -1.5975 -0.5758  1.4256
 1372TIP3   OH2 4079   0.845   1.634   5.713  0.0429  0.5743  0.4339
 1372TIP3    H1 4080   0.930   1.677   5.720  0.3506  0.9145 -3.1278
 1372TIP3    H2 4081   0.783   1.706   5.703 -0.0881  0.3215 -0.7693
 1373TIP3   OH2 4082   4.338   4.003   3.673 -0.7112  0.2646  0.3517
 1373TIP3    H1 4083   4.423   3.965   3.697 -0.8999 -0.4397 -0.0496
 1373TIP3    H2 4084   4.303   4.037   3.755  0.3265  1.3242  0.3677
 1374TIP3   OH2 4085   6.029   3.976   1.878  0.2706  0.8970  0.5466
 1374TIP3    H1 4086   6.022   3.982   1.973 -2.7527 -2.5030  0.7810
 1374TIP3    H2 4087   5.949   4.018   1.845 -1.1847 -2.0332 -0.0030
 1375TIP3   OH2 4088   1.109   3.349   2.016  0.0899  0.0945  0.5871
 1375TIP3    H1 4089   1.123   3.425   1.960 -0.7504 -0.7293 -0.8168
 1375TIP3    H2 4090   1.107   3.275   1.955 -3.0104 -0.6287  1.4107
 1376TIP3   OH2 4091   0.467   4.945   3.380 -0.2850 -0.4497 -0.4146
 1376TIP3    H1 4092   0.455   4.858   3.342 -0.3874 -0.1832 -1.0200
 1376TIP3    H2 4093   0.560   4.964   3.370 -0.0361 -0.9620  0.7935
 1377TIP3   OH2 4094   4.649   3.428   0.867 -0.4822  0.0639  0.3207
 1377TIP3    H1 4095   4.615   3.369   0.934  1.3434 -0.8605  0.5048
 1377TIP3    H2 4096   4.744   3.414   0.869 -0.1563  1.7550 -0.8379
 1378TIP3   OH2 4097   5.804   2.039   5.242  0.4395  0.4724  0.0785
 1378TIP3    H1 4098   5.712   2.052   5.267  0.0090  0.0560 -1.2427
 1378TIP3    H2 4099   5.817   1.945   5.248  1.1181  0.6206  1.3243
 1379TIP3   OH2 4100   3.502   1.284   3.971 -0.5662 -0.1485 -0.1915
 1379TIP3    H1 4101   3.533   1.268   3.882  0.0484  1.3200 -0.2681
 1379TIP3    H2 4102   3.570   1.337   4.011 -1.9243  1.2206  0.3868
 1380TIP3   OH2 4103   4.748   3.348   3.632 -0.1912 -0.2703 -0.0346
 1380TIP3    H1 4104   4.657   3.354   3.662 -0.1286  0.7134 -0.0074
 1380TIP3    H2 4105   4.799   3.338   3.712 -0.3165 -1.4801 -0.0926
 1381TIP3   OH2 4106   6.319   4.619   3.871 -0.5929  0.3808 -0.6640
 1381TIP3    H1 4107   6.228   4.595   3.852 -0.5205 -1.8147  1.2419
 1381TIP3    H2 4108   6.319   4.644   3.963  0.8609 -0.7305 -0.3102
 1382TIP3   OH2 4109   5.092   1.916   4.131 -0.0011 -0.4954  0.4789
 1382TIP3    H1 4110   5.060   1.950   4.215  0.8880 -0.2567  0.7355
 1382TIP3    H2 4111   5.044   1.834   4.118 -1.0306  0.0643  0.6242
 1383TIP3   OH2 4112   3.671   5.278   3.190  0.3344  0.1635 -0.0070
 1383TIP3    H1 4113   3.691   5.363   3.229  1.3899 -0.0169 -0.1109
 1383TIP3    H2 4114   3.740   5.265   3.124  0.1814 -0.7595 -0.0025
 1384TIP3   OH2 4115   5.386   3.348   5.017  0.7181 -0.6534  0.8197
 1384TIP3    H1 4116   5.379   3.443   5.020 -1.5380 -0.5511 -2.6980
 1384TIP3    H2 4117   5.335   3.318   5.093 -1.5732  0.9780  0.0347
 1385TIP3   OH2 4118   3.980   0.245   4.407 -0.5289 -0.0021  0.1761
 1385TIP3    H1 4119   3.893   0.272   4.437 -0.8718  0.6930 -1.3109
 1385TIP3    H2 4120   4.021   0.327   4.377  0.2413 -0.4650 -0.0528
 1386TIP3   OH2 4121   7.195   0.810   4.084  0.4001  0.4866  0.2785
 1386TIP3    H1 4122   7.263   0.802   4.151  1.1324  0.5867 -0.4342
 1386TIP3    H2 4123   7.138   0.881   4.115 -0.4463 -0.7850  1.7751
 1387TIP3   OH2 4124   5.744   1.344   5.868  0.1495 -0.0300  0.2065
 1387TIP3    H1 4125   5.734   1.346   5.773  0.2013  1.9653  0.2022
 1387TIP3    H2 4126   5.838   1.332   5.882  0.0211 -1.3568  0.0440
 1388TIP3   OH2 4127   5.121   0.773   3.950  0.0952 -0.4458  0.0219
 1388TIP3    H1 4128   5.204   0.754   3.994 -0.0441  2.1806  1.6326
 1388TIP3    H2 4129   5.138   0.853   3.900 -1.5529  0.4554  0.8179
 1389TIP3   OH2 4130   2.304   1.429   5.557  0.4179 -0.1345 -0.2295
 1389TIP3    H1 4131   2.320   1.382   5.476  0.5372 -0.5050  0.0050
 1389TIP3    H2 4132   2.341   1.373   5.625 -0.0718 -0.0347  0.1242
 1390TIP3   OH2 4133  -0.010   0.080   4.318  0.2300 -0.2383 -0.6530
 1390TIP3    H1 4134   0.045   0.058   4.243  1.8095  1.1428  0.0241
 1390TIP3    H2 4135   0.052   0.094   4.389 -1.1964 -1.0384  0.8067
 1391TIP3   OH2 4136   4.819   0.172   3.009  0.0555  0.4376  0.4796
 1391TIP3    H1 4137   4.877   0.235   2.967 -0.8751  1.0861  0.1239
 1391TIP3    H2 4138   4.845   0.087   2.974  1.3376  0.6135  0.9746
 1392TIP3   OH2 4139   2.407   6.310   3.098 -0.0793 -0.0937 -0.1857
 1392TIP3    H1 4140   2.442   6.234   3.052 -0.0129  1.1328 -2.3173
 1392TIP3    H2 4141   2.346   6.273   3.162  0.9122 -1.9735 -0.2433
 1393TIP3   OH2 4142   6.508   3.080   3.872 -0.0427  0.5278  0.3190
 1393TIP3    H1 4143   6.459   3.057   3.793 -0.9611  2.9717  0.0718
 1393TIP3    H2 4144   6.483   3.015   3.937 -0.8890 -0.3206 -0.8274
 1394TIP3   OH2 4145   0.160   3.172   3.515 -0.4473  0.2732 -0.0921
 1394TIP3    H1 4146   0.199   3.116   3.448 -0.1695 -0.7194  0.8617
 1394TIP3    H2 4147   0.121   3.244   3.467 -0.5202 -0.5765 -1.3493
 1395TIP3   OH2 4148   3.844   5.431   2.375  0.6714  0.3407  0.2761
 1395TIP3    H1 4149   3.879   5.512   2.412 -1.4320  1.1939  0.5340
 1395TIP3    H2 4150   3.852   5.444   2.280  2.2426 -0.0738  0.3260
 1396TIP3   OH2 4151   4.308   3.203   4.362 -0.0342 -0.0392 -0.5895
 1396TIP3    H1 4152   4.227   3.207   4.413 -0.1288  0.3421 -0.7691
 1396TIP3    H2 4153   4.293   3.132   4.299  0.4527 -1.1892  0.5309
 1397TIP3   OH2 4154   1.411   6.323   1.212  0.0453  0.4817  0.2367
 1397TIP3    H1 4155   1.433   6.392   1.150 -0.4630  0.2555 -0.2060
 1397TIP3    H2 4156   1.324   6.346   1.244  0.2784  0.5681  0.8391
 1398TIP3   OH2 4157   1.051   0.804   0.077  0.1403  0.3978  0.7065
 1398TIP3    H1 4158   0.975   0.755   0.046 -0.4179  1.2715  0.6606
 1398TIP3    H2 4159   1.083   0.754   0.152 -0.4410 -0.0047  0.6923
 1399TIP3   OH2 4160   4.312   6.658   2.037  0.0635  0.1146 -1.0603
 1399TIP3    H1 4161   4.244   6.725   2.045  0.0812  0.0659 -0.4222
 1399TIP3    H2 4162   4.385   6.692   2.090  0.6172  0.2723 -1.9157
 1400TIP3   OH2 4163   4.588   3.873   5.637 -0.2180  0.5575 -0.7393
 1400TIP3    H1 4164   4.673   3.843   5.671 -0.1543  0.0037 -1.3699
 1400TIP3    H2 4165   4.554   3.931   5.705 -0.2818 -0.8576  0.4958
 1401TIP3   OH2 4166   4.704   0.154   5.245 -0.3040 -0.3723 -0.5928
 1401TIP3    H1 4167   4.753   0.112   5.316  1.6177  0.5319 -1.3325
 1401TIP3    H2 4168   4.671   0.235   5.284 -0.3930 -0.5187 -0.3613
 1402TIP3   OH2 4169   0.596   3.067   3.773 -0.2185  0.2023 -0.4224
 1402TIP3    H1 4170   0.527   3.070   3.839  2.4489  0.9659  2.5864
 1402TIP3    H2 4171   0.603   3.157   3.741  0.3298  0.4304  0.3384
 1403TIP3   OH2 4172   0.056   4.464   0.477 -0.2761  0.0165  0.4052
 1403TIP3    H1 4173   0.063   4.536   0.539  1.0083  0.6036 -0.3802
 1403TIP3    H2 4174  -0.039   4.451   0.466 -0.5200  0.9650  1.2451
 1404TIP3   OH2 4175   3.642   5.987   1.998 -0.2992 -0.0261  0.6487
 1404TIP3    H1 4176   3.681   6.026   1.920 -0.3830 -1.9281 -0.4064
 1404TIP3    H2 4177   3.676   6.039   2.070  2.9169 -0.5274 -0.3198
 1405TIP3   OH2 4178   6.062   1.418   5.586 -0.2107  0.3047  0.1265
 1405TIP3    H1 4179   6.045   1.492   5.644  0.6198 -0.7397  1.7454
 1405TIP3    H2 4180   6.061   1.457   5.498 -0.9250  2.0211  0.8408
 1406TIP3   OH2 4181   5.168   1.557   1.102 -0.0510 -0.6142  0.3447
 1406TIP3    H1 4182   5.222   1.625   1.145  1.8768  0.0058 -2.7568
 1406TIP3    H2 4183   5.223   1.479   1.106  0.1284 -0.5589 -0.8612
 1407TIP3   OH2 4184   0.063   3.700   4.664  0.2420 -0.3356 -0.2394
 1407TIP3    H1 4185   0.006   3.682   4.738  1.1015  1.4705  0.9399
 1407TIP3    H2 4186   0.100   3.615   4.640 -2.4456 -1.4936 -0.7242
 1408TIP3   OH2 4187   5.445   3.115   0.959 -0.1447 -0.1960 -0.3927
 1408TIP3    H1 4188   5.499   3.181   0.916 -1.0000  1.3189  0.7359
 1408TIP3    H2 4189   5.357   3.129   0.923 -0.1049 -1.6426 -1.1214
 1409TIP3   OH2 4190   6.546   2.452   5.702  0.2684 -0.0266  0.1423
 1409TIP3    H1 4191   6.530   2.529   5.757  3.0014 -0.0073  1.0652
 1409TIP3    H2 4192   6.501   2.472   5.620 -1.2363  1.3795  1.2476
 1410TIP3   OH2 4193   1.146   5.599   2.019 -0.0061  0.1490 -0.2254
 1410TIP3    H1 4194   1.083   5.612   2.090  0.7500 -0.3489  0.5596
 1410TIP3    H2 4195   1.110   5.528   1.967  0.1407 -0.4672  0.5038
 1411TIP3   OH2 4196   3.357   3.052   0.721 -0.5127  0.1494 -0.1870
 1411TIP3    H1 4197   3.288   2.990   0.744  0.1765 -0.3596  0.5613
 1411TIP3    H2 4198   3.434   2.998   0.704 -0.0168  0.7651  0.0430
 1412TIP3   OH2 4199   7.107   5.690   4.383 -0.4109  0.3383 -0.2316
 1412TIP3    H1 4200   7.191   5.644   4.379 -0.0197  0.7835  1.7462
 1412TIP3    H2 4201   7.048   5.628   4.425 -0.7057  0.5572 -0.3199
 1413TIP3   OH2 4202   1.984   6.380   3.373 -0.5674  0.1649  0.2259
 1413TIP3    H1 4203   1.915   6.313   3.375 -0.4860 -0.0075 -1.6425
 1413TIP3    H2 4204   1.944   6.454   3.329  0.5473 -0.1146 -1.3566
 1414TIP3   OH2 4205   0.952   0.156   5.558 -0.2886  0.3294  0.4227
 1414TIP3    H1 4206   0.866   0.116   5.571  0.0946 -0.3770  0.8566
 1414TIP3    H2 4207   0.936   0.227   5.496 -0.9179 -0.8158 -0.8051
 1415TIP3   OH2 4208   6.330   4.833   4.901 -0.1765  0.1436  0.4322
 1415TIP3    H1 4209   6.245   4.827   4.944 -0.7631  0.3116 -0.6740
 1415TIP3    H2 4210   6.344   4.927   4.887  0.6024  0.1857  1.3864
 1416TIP3   OH2 4211   0.501   3.227   1.477 -0.1533 -0.3019 -0.0398
 1416TIP3    H1 4212   0.435   3.296   1.470  0.7169  0.5792  0.1951
 1416TIP3    H2 4213   0.506   3.190   1.389 -0.3619  0.1900 -0.2648
 1417TIP3   OH2 4214   4.229   5.814   5.647  0.1889 -0.5289  0.5523
 1417TIP3    H1 4215   4.171   5.884   5.617  1.1379  0.6755  1.3749
 1417TIP3    H2 4216   4.242   5.833   5.740 -1.2790 -3.1132  1.3771
 1418TIP3   OH2 4217   3.814   2.879   2.960  0.0099 -0.1596 -0.2446
 1418TIP3    H1 4218   3.743   2.826   2.923 -0.8681  2.0952 -2.0504
 1418TIP3    H2 4219   3.769   2.948   3.009  0.9951  0.4150 -0.1137
 1419TIP3   OH2 4220   7.186   6.574   5.589  0.2967  0.6117  0.8877
 1419TIP3    H1 4221   7.145   6.661   5.597 -0.7760  0.0168  2.1718
 1419TIP3    H2 4222   7.271   6.592   5.550 -0.2490  2.1526  0.3002
 1420TIP3   OH2 4223   2.328   1.867   2.873  0.3755 -0.0427 -0.0553
 1420TIP3    H1 4224   2.265   1.807   2.834 -0.6926  1.2023 -0.3176
 1420TIP3    H2 4225   2.402   1.867   2.813 -0.4153  0.3320 -1.0499
 1421TIP3   OH2 4226   0.399   0.627   0.732  0.5799  0.0976  0.1789
 1421TIP3    H1 4227   0.407   0.533   0.718  1.1590 -0.2675  2.5104
 1421TIP3    H2 4228   0.415   0.666   0.646  0.5264 -1.9084 -0.7896
 1422TIP3   OH2 4229   0.185   1.759   1.023  0.1741 -0.0234 -0.7519
 1422TIP3    H1 4230   0.264   1.788   1.068  0.1323  1.4144 -1.5538
 1422TIP3    H2 4231   0.168   1.672   1.058  0.3152  0.8947  1.7841
 1423TIP3   OH2 4232   2.216   2.448   0.675 -0.2248 -0.2771  0.2097
 1423TIP3    H1 4233   2.169   2.384   0.620 -0.9501 -1.6161  2.2670
 1423TIP3    H2 4234   2.234   2.521   0.616 -1.1438 -1.5293 -1.7450
 1424TIP3   OH2 4235   6.605   1.062   2.646  0.1694  0.7524 -0.0133
 1424TIP3    H1 4236   6.631   1.079   2.736 -0.6354 -0.1884  0.4209
 1424TIP3    H2 4237   6.531   1.001   2.654 -0.7623  1.6813 -1.2579
 1425TIP3   OH2 4238   6.534   2.169   2.905  0.3856 -0.5404 -0.0711
 1425TIP3    H1 4239   6.610   2.210   2.947  0.6124 -2.2610  1.3347
 1425TIP3    H2 4240   6.571   2.098   2.853 -0.1179 -0.0969 -1.0469
 1426TIP3   OH2 4241   1.248   4.712   0.563  0.6914 -0.1495  0.0776
 1426TIP3    H1 4242   1.335   4.675   0.554  0.1953 -1.3359  0.0793
 1426TIP3    H2 4243   1.232   4.714   0.657  1.0604  0.9321  0.1377
 1427TIP3   OH2 4244   6.436   5.937   4.293 -0.6301  0.3051 -0.0937
 1427TIP3    H1 4245   6.408   6.021   4.330  1.9099  0.9725  0.5088
 1427TIP3    H2 4246   6.500   5.960   4.226  0.0069 -1.1158 -0.0164
 1428TIP3   OH2 4247   4.733   0.874   4.418 -0.9373 -0.0056 -0.0908
 1428TIP3    H1 4248   4.680   0.875   4.338  0.9403 -0.5406 -1.4342
 1428TIP3    H2 4249   4.803   0.936   4.400 -1.2576  0.9550  1.7752
 1429TIP3   OH2 4250   3.148   0.109   2.277 -0.0873  0.2927 -0.3885
 1429TIP3    H1 4251   3.176   0.169   2.347 -1.7638  2.7068 -1.6263
 1429TIP3    H2 4252   3.229   0.066   2.249  1.2139  1.8537  0.7421
 1430TIP3   OH2 4253   3.977   2.403   4.335  0.2315 -0.0461  0.2548
 1430TIP3    H1 4254   4.039   2.476   4.336 -1.2659  1.2840  1.0117
 1430TIP3    H2 4255   3.913   2.425   4.402 -0.7102 -1.6906 -0.0450
 1431TIP3   OH2 4256   0.843   0.097   1.174 -0.2900 -0.5541  0.1903
 1431TIP3    H1 4257   0.772   0.129   1.118 -0.9827 -0.6781  0.9891
 1431TIP3    H2 4258   0.803   0.029   1.228  0.1248  0.2069  1.4989
 1432TIP3   OH2 4259   3.121   5.779   1.614  0.4975  0.0444 -0.0566
 1432TIP3    H1 4260   3.107   5.698   1.566  0.0411 -0.4855  0.9443
 1432TIP3    H2 4261   3.177   5.754   1.688 -0.3067  0.4650  0.7135
 1433TIP3   OH2 4262   1.612   1.782   0.672 -0.6622 -0.2140 -0.0673
 1433TIP3    H1 4263   1.583   1.863   0.715  0.5028  1.5355 -2.3451
 1433TIP3    H2 4264   1.563   1.780   0.590  0.4076 -1.0420 -0.7028
 1434TIP3   OH2 4265   5.757   2.836   1.057  0.1878 -0.2318 -0.0288
 1434TIP3    H1 4266   5.760   2.757   1.003  1.4682  0.1378 -0.5349
 1434TIP3    H2 4267   5.841   2.879   1.041 -0.3160  1.0211  0.5610
 1435TIP3   OH2 4268   2.458   1.426   3.116  0.4523 -0.4690  0.3876
 1435TIP3    H1 4269   2.372   1.385   3.119  1.6248 -3.0574  0.7560
 1435TIP3    H2 4270   2.476   1.439   3.023 -0.6368  0.9299  0.3277
 1436TIP3   OH2 4271   0.940   1.348   4.894 -0.6716  0.0343  0.0384
 1436TIP3    H1 4272   0.974   1.407   4.826  2.8407 -1.0713  0.6101
 1436TIP3    H2 4273   0.923   1.266   4.848 -0.1877 -0.1232  0.1298
 1437TIP3   OH2 4274   5.446   0.901   1.639 -0.1572 -0.2265  0.7143
 1437TIP3    H1 4275   5.456   0.898   1.544 -0.1851  0.1833  0.6944
 1437TIP3    H2 4276   5.533   0.882   1.673 -0.6464 -2.9885  0.6782
 1438TIP3   OH2 4277   1.890   3.851   4.272 -0.5499 -0.6563 -0.7970
 1438TIP3    H1 4278   1.844   3.934   4.285  1.4399  0.4482 -0.4923
 1438TIP3    H2 4279   1.825   3.784   4.295 -1.2416  0.8569  2.1091
 1439TIP3   OH2 4280   2.860   0.381   4.017  0.2269 -0.4303 -0.7391
 1439TIP3    H1 4281   2.792   0.448   4.003 -0.2642 -0.7135  0.2221
 1439TIP3    H2 4282   2.843   0.348   4.105  2.5120  0.5182  0.1212
 1440TIP3   OH2 4283   5.266   1.666   5.031 -0.5967 -0.4075 -0.0550
 1440TIP3    H1 4284   5.298   1.642   5.118 -1.0480  0.0073  0.2264
 1440TIP3    H2 4285   5.223   1.586   4.999 -0.7655 -0.4417  0.2567
 1441TIP3   OH2 4286   0.615   3.093   0.382 -0.1001 -0.6023 -0.3969
 1441TIP3    H1 4287   0.688   3.056   0.331  1.6725  1.0609  0.7871
 1441TIP3    H2 4288   0.570   3.151   0.320 -0.7638 -2.0004 -1.2747
 1442TIP3   OH2 4289   3.813   4.971   3.035 -0.8814 -0.1999 -0.1136
 1442TIP3    H1 4290   3.872   5.002   2.966  0.1259 -1.0036  0.3696
 1442TIP3    H2 4291   3.727   4.967   2.993 -0.3637 -0.2203 -1.1965
 1443TIP3   OH2 4292   4.074   6.701   0.954  0.5612  0.4558  0.2656
 1443TIP3    H1 4293   4.150   6.679   1.007  0.4299 -1.2497 -0.1995
 1443TIP3    H2 4294   3.999   6.678   1.008  0.4267 -1.6309 -0.7075
 1444TIP3   OH2 4295   6.892   3.262   2.657 -0.0934 -0.3201 -0.5498
 1444TIP3    H1 4296   6.921   3.289   2.745 -0.1299 -1.7992 -0.0519
 1444TIP3    H2 4297   6.808   3.306   2.645 -0.6607 -1.0113  0.6659
 1445TIP3   OH2 4298   3.900   4.080   5.409 -0.1884 -0.3329 -0.0768
 1445TIP3    H1 4299   3.883   4.033   5.490 -0.0023  1.0965  0.8395
 1445TIP3    H2 4300   3.870   4.169   5.427  0.5711  0.1984 -1.3052
 1446TIP3   OH2 4301   3.164   6.243   5.092 -0.6966  0.1824  0.1716
 1446TIP3    H1 4302   3.102   6.250   5.019  1.0534 -0.3381 -1.4389
 1446TIP3    H2 4303   3.238   6.298   5.066  0.9840 -1.8557  0.3920
 1447TIP3   OH2 4304   5.239   3.414   3.832 -0.3653 -0.1512 -0.0300
 1447TIP3    H1 4305   5.219   3.322   3.848  0.8240 -0.7642 -1.8176
 1447TIP3    H2 4306   5.231   3.456   3.918 -0.7623 -1.9452  0.8407
 1448TIP3   OH2 4307   6.398   6.462   0.347 -0.0490  0.5673  0.3736
 1448TIP3    H1 4308   6.380   6.368   0.350  0.3414  0.4115 -1.3336
 1448TIP3    H2 4309   6.490   6.469   0.373  1.6770 -0.1939 -4.4847
 1449TIP3   OH2 4310   4.844   6.266   2.208  0.1554 -0.1175  0.5343
 1449TIP3    H1 4311   4.835   6.232   2.118  1.5447  1.2276 -0.1579
 1449TIP3    H2 4312   4.800   6.351   2.206 -0.7519 -0.5416  1.4577
 1450TIP3   OH2 4313   5.344   0.898   5.916 -0.3802 -0.5509 -0.3908
 1450TIP3    H1 4314   5.345   0.838   5.841  0.6379 -0.3594 -0.5505
 1450TIP3    H2 4315   5.384   0.979   5.883  0.2506 -0.5218  0.4007
 1451TIP3   OH2 4316   0.079   2.090   0.607 -0.0776  0.5315  0.4040
 1451TIP3    H1 4317  -0.013   2.094   0.636  0.1448 -0.2570  1.2881
 1451TIP3    H2 4318   0.074   2.095   0.512 -1.0977 -0.1385  0.3967
 1452TIP3   OH2 4319   4.300   0.601   5.680  0.3206 -0.0503  0.0188
 1452TIP3    H1 4320   4.277   0.687   5.645  0.1737  0.1536  0.6120
 1452TIP3    H2 4321   4.231   0.543   5.649  0.3042  0.0874 -0.2059
 1453TIP3   OH2 4322   7.091   0.073   2.010  0.3764 -0.2338  0.1629
 1453TIP3    H1 4323   7.087   0.168   2.021  1.5218 -0.1010 -0.4247
 1453TIP3    H2 4324   7.000   0.045   2.014  0.0454  0.8442  0.6782
 1454TIP3   OH2 4325   3.146   5.808   3.146  0.2511  0.4453 -0.3900
 1454TIP3    H1 4326   3.199   5.886   3.132  2.3239 -0.8572 -0.3844
 1454TIP3    H2 4327   3.197   5.755   3.207 -2.6712  0.4803  2.3655
 1455TIP3   OH2 4328   6.171   5.766   3.725 -0.5605  0.0484 -0.2644
 1455TIP3    H1 4329   6.229   5.831   3.686 -0.3703  0.6490  0.9649
 1455TIP3    H2 4330   6.197   5.683   3.685  1.1467  0.3104  0.2294
 1456TIP3   OH2 4331   4.580   1.585   0.141  0.3256  0.0800  0.3680
 1456TIP3    H1 4332   4.535   1.524   0.200 -1.4787  0.9771 -0.0140
 1456TIP3    H2 4333   4.616   1.651   0.200 -0.7793  0.5381  0.5656
 1457TIP3   OH2 4334   2.789   6.178   4.310 -0.4990 -0.7971  0.0832
 1457TIP3    H1 4335   2.721   6.191   4.243 -0.8158  0.7866  0.6494
 1457TIP3    H2 4336   2.762   6.235   4.382  2.1763  1.0702 -0.2359
 1458TIP3   OH2 4337   6.461   2.738   1.921  0.1561 -0.2649 -0.3187
 1458TIP3    H1 4338   6.475   2.701   1.834 -1.5987 -2.0900  0.1024
 1458TIP3    H2 4339   6.387   2.798   1.910  1.5211  1.4484 -0.5322
 1459TIP3   OH2 4340   2.849   6.650   0.904  0.5311 -0.2827  0.8590
 1459TIP3    H1 4341   2.755   6.651   0.921 -0.0564  2.3038 -1.7937
 1459TIP3    H2 4342   2.858   6.598   0.824  1.6786 -2.1495  2.1284
 1460TIP3   OH2 4343   5.362   3.939   4.619 -0.0632 -0.4325 -0.1590
 1460TIP3    H1 4344   5.431   3.970   4.560 -1.8958  1.9927 -1.2159
 1460TIP3    H2 4345   5.332   4.018   4.663 -2.9739 -1.1371 -0.6709
 1461TIP3   OH2 4346   3.699   2.287   1.505 -0.3750  0.3337  0.2881
 1461TIP3    H1 4347   3.795   2.285   1.505 -0.3567  0.7509  1.3550
 1461TIP3    H2 4348   3.674   2.206   1.549 -0.5707 -0.6383 -1.5097
 1462TIP3   OH2 4349   6.909   0.681   3.948 -0.4477  0.0122  0.0278
 1462TIP3    H1 4350   6.824   0.713   3.978 -1.0106 -0.4750 -1.0053
 1462TIP3    H2 4351   6.889   0.603   3.898  0.2906  1.4463 -2.6904
 1463TIP3   OH2 4352   3.565   0.190   1.465 -0.2315 -0.2223  0.2253
 1463TIP3    H1 4353   3.477   0.215   1.436 -0.7342 -2.3695 -0.2875
 1463TIP3    H2 4354   3.568   0.215   1.558 -0.5367  1.8583 -0.2679
 1464TIP3   OH2 4355   4.277   5.466   4.756 -0.3106 -0.0554  0.1417
 1464TIP3    H1 4356   4.183   5.455   4.744 -0.3137 -1.3108  1.0715
 1464TIP3    H2 4357   4.313   5.460   4.667 -1.1352  0.9468 -0.2747
 1465TIP3   OH2 4358   3.739   6.206   4.735 -0.1504  0.0295 -0.4857
 1465TIP3    H1 4359   3.718   6.180   4.825  0.0522 -0.4150 -0.5645
 1465TIP3    H2 4360   3.788   6.288   4.745  0.5095 -0.4002 -0.1414
 1466TIP3   OH2 4361   6.919   5.947   4.368 -0.3818 -0.3231 -0.4910
 1466TIP3    H1 4362   6.913   6.036   4.333  0.4867  0.0863  0.3656
 1466TIP3    H2 4363   6.992   5.950   4.430 -0.8839 -1.4221  0.1883
 1467TIP3   OH2 4364   4.538   2.134   5.471 -0.0735 -0.4426  0.7542
 1467TIP3    H1 4365   4.567   2.088   5.392 -2.2792 -1.7043  0.5851
 1467TIP3    H2 4366   4.450   2.164   5.450  0.8620  3.0718  1.2598
 1468TIP3   OH2 4367   4.770   6.324   4.049  0.0878  0.3789 -0.1934
 1468TIP3    H1 4368   4.690   6.274   4.035  0.3946 -0.3170  0.4400
 1468TIP3    H2 4369   4.751   6.380   4.124  0.3400 -0.1416  0.2695
 1469TIP3   OH2 4370   1.016   1.016   1.118  0.1896 -0.2337 -0.2766
 1469TIP3    H1 4371   1.020   1.081   1.188  1.5082  0.7538 -1.2154
 1469TIP3    H2 4372   1.108   1.004   1.091 -0.3842  0.9667 -3.1670
 1470TIP3   OH2 4373   6.635   0.232   4.492 -0.4569  0.4143 -0.3497
 1470TIP3    H1 4374   6.544   0.208   4.511 -0.2363  0.3521  0.6843
 1470TIP3    H2 4375   6.661   0.175   4.420 -1.2918  0.5543 -0.7683
 1471TIP3   OH2 4376   1.301   3.021   3.135  0.1495  0.0326 -0.1712
 1471TIP3    H1 4377   1.307   2.954   3.202  0.2679  0.0563 -0.1583
 1471TIP3    H2 4378   1.372   3.000   3.073  0.4777  0.4096  0.0717
 1472TIP3   OH2 4379   2.979   0.559   2.274 -0.0565 -0.2435 -0.2598
 1472TIP3    H1 4380   2.888   0.586   2.282  0.2237  0.3154  1.6605
 1472TIP3    H2 4381   3.008   0.544   2.365  1.7631 -0.3436 -0.8114
 1473TIP3   OH2 4382   1.422   4.185   3.506  0.1559  0.3986 -0.2700
 1473TIP3    H1 4383   1.397   4.232   3.586  0.7652  1.1987 -0.5386
 1473TIP3    H2 4384   1.514   4.208   3.492  0.4291 -0.7603 -0.5043
 1474TIP3   OH2 4385   0.917   3.624   3.054 -0.0141  0.5086 -0.6387
 1474TIP3    H1 4386   1.004   3.590   3.073  0.3989  0.2708 -2.7098
 1474TIP3    H2 4387   0.861   3.546   3.049  0.0758  0.4766 -1.2518
 1475TIP3   OH2 4388   1.420   0.048   3.582  0.1971  0.6491  0.0511
 1475TIP3    H1 4389   1.475   0.122   3.609  0.9151  0.9481 -2.0732
 1475TIP3    H2 4390   1.334   0.085   3.567  0.7484  1.2843 -1.8055
 1476TIP3   OH2 4391   3.924   1.213   2.638 -0.5711 -0.4906  0.3523
 1476TIP3    H1 4392   3.896   1.230   2.548  0.9521  1.5038  0.1919
 1476TIP3    H2 4393   3.976   1.133   2.632 -1.6161 -1.1487 -0.2691
 1477TIP3   OH2 4394   3.124   2.720   3.457 -0.7284 -0.3583 -1.0088
 1477TIP3    H1 4395   3.179   2.651   3.494  0.7830  0.6680 -1.2560
 1477TIP3    H2 4396   3.035   2.699   3.487 -0.4940 -2.9642 -1.9262
 1478TIP3   OH2 4397   3.839   4.712   0.928 -0.3982 -0.3965  0.5375
 1478TIP3    H1 4398   3.752   4.751   0.923 -0.4774 -0.5437  0.7372
 1478TIP3    H2 4399   3.851   4.671   0.842 -0.5115 -0.3432  0.4952
 1479TIP3   OH2 4400   3.032   0.813   4.509 -0.1600 -0.2232 -0.3295
 1479TIP3    H1 4401   3.127   0.825   4.505 -0.3761  1.3497 -1.7627
 1479TIP3    H2 4402   3.020   0.742   4.572  1.9647 -0.5397 -0.1920
 1480TIP3   OH2 4403   0.241   1.124   3.858  0.1397  0.2249  0.1057
 1480TIP3    H1 4404   0.186   1.053   3.828  0.6689 -0.2594  0.2589
 1480TIP3    H2 4405   0.326   1.107   3.818  0.4312  0.4276  0.6251
 1481TIP3   OH2 4406   6.494   2.907   5.815  0.4095  0.3369  0.3498
 1481TIP3    H1 4407   6.531   2.991   5.787  1.8920 -0.1758  0.7114
 1481TIP3    H2 4408   6.440   2.928   5.891  0.4167  1.0093  0.1759
 1482TIP3   OH2 4409   4.073   1.197   3.550  0.0684 -0.0114 -0.5238
 1482TIP3    H1 4410   4.134   1.137   3.593  2.4368  1.9060 -1.0004
 1482TIP3    H2 4411   4.128   1.254   3.496 -2.5611 -1.5461 -5.4412
 1483TIP3   OH2 4412   6.027   2.189   1.544 -0.2274  0.0260 -0.2360
 1483TIP3    H1 4413   6.036   2.108   1.493  0.9377  0.5920 -0.9671
 1483TIP3    H2 4414   6.005   2.159   1.633 -0.6964 -1.0414 -0.6898
 1484TIP3   OH2 4415   0.327   2.559   4.158 -0.6708 -0.3587 -0.1772
 1484TIP3    H1 4416   0.415   2.582   4.189  0.1338 -0.6047 -2.1201
 1484TIP3    H2 4417   0.303   2.482   4.210 -1.1165  1.4733  2.5564
 1485TIP3   OH2 4418   0.050   1.881   2.092  0.1016  0.1947  0.2679
 1485TIP3    H1 4419   0.045   1.900   1.998  1.7498  0.3212  0.1748
 1485TIP3    H2 4420   0.102   1.953   2.128  1.3587 -0.9685  0.8855
 1486TIP3   OH2 4421   1.856   3.427   2.977  0.3103  0.8086  0.0744
 1486TIP3    H1 4422   1.856   3.340   3.017 -0.2347  0.3434 -0.8820
 1486TIP3    H2 4423   1.860   3.409   2.883 -1.3371  1.7558 -0.2185
 1487TIP3   OH2 4424   1.609   4.841   1.736 -0.1046  0.4333 -0.0848
 1487TIP3    H1 4425   1.545   4.867   1.802  0.4291  0.5458  0.3951
 1487TIP3    H2 4426   1.561   4.780   1.679 -0.3303 -0.3470  0.9136
 1488TIP3   OH2 4427   6.491   3.913   5.338 -0.0961  0.2513 -0.0042
 1488TIP3    H1 4428   6.454   3.825   5.326  0.6484  0.3062 -3.5596
 1488TIP3    H2 4429   6.586   3.898   5.346  0.0153  0.7225 -0.4317
 1489TIP3   OH2 4430   1.945   5.816   5.084  0.6285 -0.2748 -0.2951
 1489TIP3    H1 4431   2.027   5.846   5.046  0.0564 -0.0895 -1.4286
 1489TIP3    H2 4432   1.905   5.896   5.120  0.8715 -0.3440  0.1408
 1490TIP3   OH2 4433   4.117   2.288   1.313 -0.1103 -0.1343 -0.4708
 1490TIP3    H1 4434   4.077   2.241   1.386 -1.9912  0.4950 -1.0579
 1490TIP3    H2 4435   4.197   2.238   1.294 -0.1441 -0.9337  1.2832
 1491TIP3   OH2 4436   5.328   1.293   3.921  0.4287 -0.3070  0.1287
 1491TIP3    H1 4437   5.381   1.364   3.957  1.0059 -1.3084  1.3470
 1491TIP3    H2 4438   5.372   1.213   3.951 -1.3670 -1.1765  0.5442
 1492TIP3   OH2 4439   1.777   0.807   3.840  0.1648 -0.0512  0.1885
 1492TIP3    H1 4440   1.757   0.723   3.798  1.8955  0.0552 -0.9727
 1492TIP3    H2 4441   1.707   0.865   3.811  0.6251 -0.3270 -1.5998
 1493TIP3   OH2 4442   0.076   1.985   1.859 -0.0661 -0.2949  0.2867
 1493TIP3    H1 4443   0.095   1.937   1.779 -2.0815  0.9614 -1.0242
 1493TIP3    H2 4444   0.009   2.048   1.834 -0.6847  0.2182  2.9532
 1494TIP3   OH2 4445   4.369   2.615   4.582 -0.0274  0.2255  0.1520
 1494TIP3    H1 4446   4.274   2.628   4.573 -0.0673  0.3419  0.6562
 1494TIP3    H2 4447   4.406   2.650   4.501 -0.5060 -1.0230 -0.6266
 1495TIP3   OH2 4448   2.212   5.895   1.948  0.1501  0.2251 -0.6700
 1495TIP3    H1 4449   2.253   5.816   1.913  0.9166  0.4623 -0.3331
 1495TIP3    H2 4450   2.222   5.888   2.042  1.3720  1.3140 -0.6938
 1496TIP3   OH2 4451   5.882   4.154   2.658  0.2046  0.0843  0.3800
 1496TIP3    H1 4452   5.818   4.082   2.662 -0.0052  0.2874  0.7819
 1496TIP3    H2 4453   5.954   4.125   2.713 -1.1026  1.3459  2.9350
 1497TIP3   OH2 4454   2.384   6.060   2.852  0.0549 -0.2714  0.0193
 1497TIP3    H1 4455   2.322   6.075   2.924  0.2219  0.0600  0.0982
 1497TIP3    H2 4456   2.470   6.058   2.895  0.0644 -1.1734 -0.0321
 1498TIP3   OH2 4457   3.274   4.017   5.853  0.4349 -0.4464  0.8818
 1498TIP3    H1 4458   3.209   3.947   5.859 -0.4420  0.3464  0.8155
 1498TIP3    H2 4459   3.352   3.974   5.817  0.1361 -1.5259  1.4805
 1499TIP3   OH2 4460   2.067   0.800   2.391 -0.6578 -0.0251  0.3406
 1499TIP3    H1 4461   2.059   0.711   2.358 -0.5162 -0.4512  1.4090
 1499TIP3    H2 4462   2.146   0.799   2.444 -0.7379  0.6954  0.4828
 1500TIP3   OH2 4463   2.957   3.455   3.495  0.0353  0.3032 -0.5777
 1500TIP3    H1 4464   2.914   3.373   3.519  0.8523 -0.4998 -1.7231
 1500TIP3    H2 4465   3.029   3.463   3.559 -0.5452  0.5759  0.0525
 1501TIP3   OH2 4466   3.835   0.046   2.957  0.9168  0.3133 -0.5152
 1501TIP3    H1 4467   3.864  -0.036   2.916  0.6305  0.1926 -0.4816
 1501TIP3    H2 4468   3.862   0.036   3.049 -0.9217 -0.6573 -0.0209
 1502TIP3   OH2 4469   3.618   2.908   0.761  0.4187  0.7787 -0.0699
 1502TIP3    H1 4470   3.670   2.828   0.762  2.1038  1.8163  0.5129
 1502TIP3    H2 4471   3.608   2.930   0.668 -0.6336 -0.4212 -0.2659
 1503TIP3   OH2 4472   2.526   0.436   3.712 -0.2993 -0.1832  0.5732
 1503TIP3    H1 4473   2.600   0.384   3.745  0.8481  1.7064  1.1629
 1503TIP3    H2 4474   2.568   0.507   3.664 -1.8259  0.0809 -0.4032
 1504TIP3   OH2 4475   1.811   2.646   3.167 -0.4680 -0.0889 -0.0241
 1504TIP3    H1 4476   1.812   2.725   3.220 -1.8255  0.2865 -0.5171
 1504TIP3    H2 4477   1.815   2.677   3.077 -1.7841 -0.5220 -0.2503
 1505TIP3   OH2 4478   2.801   6.666   3.774 -0.2162 -0.4369 -0.4236
 1505TIP3    H1 4479   2.867   6.735   3.762 -0.8548  0.2727  0.0762
 1505TIP3    H2 4480   2.759   6.658   3.688 -1.1081  0.8158 -0.1270
 1506TIP3   OH2 4481   1.976   5.420   0.732 -0.1253  0.3948  0.9724
 1506TIP3    H1 4482   1.980   5.431   0.637  0.6035  0.8884  1.0467
 1506TIP3    H2 4483   1.899   5.471   0.759 -0.2594  0.3592  0.6617
 1507TIP3   OH2 4484   4.616   6.705   2.725 -0.0437  0.0193  0.5065
 1507TIP3    H1 4485   4.617   6.757   2.806 -0.4391  2.0297 -0.6972
 1507TIP3    H2 4486   4.607   6.770   2.656  0.8028 -1.6047 -1.2089
 1508TIP3   OH2 4487   3.808   0.377   3.513  0.0995  0.0447 -0.2037
 1508TIP3    H1 4488   3.854   0.420   3.585  1.7205 -0.5420 -0.8373
 1508TIP3    H2 4489   3.755   0.310   3.556  0.7263 -0.0256  0.4912
 1509TIP3   OH2 4490   2.966   0.416   5.601 -0.2105 -0.4253  0.3052
 1509TIP3    H1 4491   2.933   0.332   5.631 -0.9900  0.6986  2.8079
 1509TIP3    H2 4492   2.986   0.465   5.681 -0.6313  2.1116 -1.0216
 1510TIP3   OH2 4493   7.139   6.325   5.352 -0.6618  0.6630  0.8250
 1510TIP3    H1 4494   7.081   6.310   5.278 -1.5435  1.8163  1.2485
 1510TIP3    H2 4495   7.153   6.419   5.354  1.0255  0.4489  0.9136
 1511TIP3   OH2 4496   1.208   0.405   1.528  0.2127 -0.1490 -0.5958
 1511TIP3    H1 4497   1.151   0.480   1.543 -1.1182 -1.1109 -0.5771
 1511TIP3    H2 4498   1.263   0.401   1.606 -2.2578 -1.3253  1.2354
 1512TIP3   OH2 4499   4.527   4.977   0.868 -0.0139  0.0834 -0.7443
 1512TIP3    H1 4500   4.524   4.943   0.779  0.6728  0.6008 -0.9744
 1512TIP3    H2 4501   4.448   5.031   0.875 -0.0147  0.1302 -1.0806
 1513TIP3   OH2 4502   5.742   4.027   2.120  0.0037  0.5151  0.4569
 1513TIP3    H1 4503   5.719   4.117   2.144 -0.2617  0.4403  0.4929
 1513TIP3    H2 4504   5.837   4.023   2.127  0.3981  1.6934 -2.5842
 1514TIP3   OH2 4505   4.942   4.749   4.576  0.3433  0.0565 -0.0928
 1514TIP3    H1 4506   4.991   4.695   4.638  1.0285 -0.8140 -1.3544
 1514TIP3    H2 4507   4.860   4.768   4.621 -0.2570 -2.6695  0.1408
 1515TIP3   OH2 4508   0.700   2.130   1.970 -0.3998 -0.3126 -0.3364
 1515TIP3    H1 4509   0.744   2.083   2.040 -0.4897  0.2481  0.1027
 1515TIP3    H2 4510   0.765   2.191   1.936 -0.6080 -0.0121 -0.1949
 1516TIP3   OH2 4511   5.130   6.197   5.155 -0.0736  0.1924  0.3545
 1516TIP3    H1 4512   5.222   6.173   5.158  0.1129  0.8066 -0.1556
 1516TIP3    H2 4513   5.083   6.114   5.149  0.5327 -0.0673 -1.1177
 1517TIP3   OH2 4514   1.835   3.228   3.173  0.3040  0.3653  0.0925
 1517TIP3    H1 4515   1.757   3.183   3.207  1.6805 -1.9276  0.4495
 1517TIP3    H2 4516   1.870   3.275   3.249  0.9749 -1.2271  0.8310
 1518TIP3   OH2 4517   0.876   0.066   3.547 -0.0688 -0.0394  0.1371
 1518TIP3    H1 4518   0.930   0.059   3.625 -1.7460 -1.3316  1.2523
 1518TIP3    H2 4519   0.820  -0.012   3.549 -2.1699  1.3557 -0.7779
 1519TIP3   OH2 4520   0.521   4.513   3.861 -0.7294 -0.1655  0.2523
 1519TIP3    H1 4521   0.516   4.514   3.956  1.3343 -2.5872  0.5069
 1519TIP3    H2 4522   0.448   4.458   3.834 -0.0561 -1.3012  0.6601
 1520TIP3   OH2 4523   2.748   0.249   0.491 -0.1690 -0.4591  0.4779
 1520TIP3    H1 4524   2.828   0.301   0.489 -0.4349  0.0402  1.5733
 1520TIP3    H2 4525   2.689   0.299   0.549 -1.4436 -0.5696 -0.6669
 1521TIP3   OH2 4526   5.370   3.308   4.291  0.0568 -0.5072 -0.2647
 1521TIP3    H1 4527   5.275   3.315   4.299  0.1450 -1.3247  3.5858
 1521TIP3    H2 4528   5.389   3.216   4.310  1.6734  0.1602  1.7756
 1522TIP3   OH2 4529   0.858   1.264   4.241 -0.2147  0.2193  0.4455
 1522TIP3    H1 4530   0.951   1.242   4.230  0.4545  2.4012  1.1646
 1522TIP3    H2 4531   0.843   1.335   4.178 -1.5967 -0.5635 -0.1420
 1523TIP3   OH2 4532   5.809   4.904   2.754 -0.2385  0.5835  0.4688
 1523TIP3    H1 4533   5.893   4.870   2.724 -1.1772 -0.9595 -0.4999
 1523TIP3    H2 4534   5.798   4.986   2.704  0.9499  1.1541  1.0873
 1524TIP3   OH2 4535   0.798   5.742   4.619 -0.0446  0.3261  0.3213
 1524TIP3    H1 4536   0.888   5.748   4.652 -0.2182  0.2186  0.8118
 1524TIP3    H2 4537   0.775   5.650   4.630  0.0248  0.2056 -0.4453
 1525TIP3   OH2 4538   3.983   2.892   3.332  0.1371 -0.0908  0.0905
 1525TIP3    H1 4539   4.072   2.866   3.358 -0.3434 -1.6121  0.3062
 1525TIP3    H2 4540   3.966   2.843   3.252 -0.9355 -0.7627  0.6998
 1526TIP3   OH2 4541   3.129   6.000   0.413 -0.6234  0.1844  0.0811
 1526TIP3    H1 4542   3.066   6.064   0.446 -1.8844 -1.3754  0.8385
 1526TIP3    H2 4543   3.094   5.972   0.329  1.1349  2.0984 -1.3927
 1527TIP3   OH2 4544   5.040   1.542   5.370 -0.3250 -0.0485  0.3896
 1527TIP3    H1 4545   5.133   1.564   5.366 -0.6371  1.3940  0.6792
 1527TIP3    H2 4546   5.016   1.555   5.461 -0.5486 -1.6032  0.5692
 1528TIP3   OH2 4547   4.364   6.001   0.882 -0.4224  0.4931  0.6868
 1528TIP3    H1 4548   4.434   6.054   0.921  1.3951 -1.6048  0.4713
 1528TIP3    H2 4549   4.381   6.006   0.788 -1.2259  0.8215  0.5563
 1529TIP3   OH2 4550   5.687   4.898   2.287 -0.5114  0.3126 -0.6073
 1529TIP3    H1 4551   5.735   4.967   2.241 -1.0301  1.1362  0.0432
 1529TIP3    H2 4552   5.753   4.854   2.340 -0.0482 -0.1582 -1.5762
 1530TIP3   OH2 4553   3.363   3.365   5.227  0.3496  0.1277  0.1596
 1530TIP3    H1 4554   3.416   3.341   5.150  0.0056  2.1724 -0.7983
 1530TIP3    H2 4555   3.278   3.323   5.212  1.0165 -1.5098  0.7016
 1531TIP3   OH2 4556   3.214   4.160   1.842 -0.2269 -0.0073  0.0632
 1531TIP3    H1 4557   3.174   4.239   1.877 -0.6195 -0.7211  1.2697
 1531TIP3    H2 4558   3.147   4.121   1.786  0.1231  0.7317 -0.8824
 1532TIP3   OH2 4559   0.745   0.549   3.090  0.2614 -0.3405  0.1929
 1532TIP3    H1 4560   0.699   0.468   3.069 -0.5319 -0.1053  0.9605
 1532TIP3    H2 4561   0.728   0.607   3.016  0.5808 -0.7670 -0.2190
 1533TIP3   OH2 4562   2.007   5.588   0.342  0.0330 -0.2763 -0.0253
 1533TIP3    H1 4563   1.954   5.652   0.295  0.2152  0.3597  0.6290
 1533TIP3    H2 4564   1.970   5.503   0.317  0.3026  0.0194 -1.5510
 1534TIP3   OH2 4565   2.708   2.539   3.089  0.1753 -0.2888  0.1898
 1534TIP3    H1 4566   2.674   2.456   3.055  0.0446  0.5563 -1.9243
 1534TIP3    H2 4567   2.631   2.583   3.125 -0.7358  0.7564 -2.7592
 1535TIP3   OH2 4568   1.908   0.458   4.408  0.0958 -0.0256 -0.0088
 1535TIP3    H1 4569   1.965   0.457   4.485  0.7652  1.0623 -0.4718
 1535TIP3    H2 4570   1.842   0.524   4.428  1.3436  1.6410 -1.0710
 1536TIP3   OH2 4571   4.565   1.308   3.343 -0.2464  0.3777 -0.1144
 1536TIP3    H1 4572   4.618   1.259   3.280 -1.6274 -1.4513  0.0325
 1536TIP3    H2 4573   4.627   1.342   3.406  0.8817 -0.5479 -0.6798
 1537TIP3   OH2 4574   1.778   4.379   1.354 -0.3293  0.2623  0.2565
 1537TIP3    H1 4575   1.712   4.427   1.304  0.9203  0.9460 -0.7865
 1537TIP3    H2 4576   1.857   4.382   1.300  0.6530 -0.2709  1.5994
 1538TIP3   OH2 4577   6.898   1.210   3.043  0.5213 -0.3424  0.6680
 1538TIP3    H1 4578   6.837   1.228   2.972 -1.0769 -0.4402  1.9707
 1538TIP3    H2 4579   6.958   1.284   3.042  0.5065 -0.3173 -0.7344
 1539TIP3   OH2 4580   2.552   6.415   4.038 -0.0331 -0.1701 -0.0803
 1539TIP3    H1 4581   2.480   6.464   3.999  0.1941  1.8828  1.8712
 1539TIP3    H2 4582   2.560   6.337   3.983 -1.8048  0.9402 -2.0909
 1540TIP3   OH2 4583   3.261   4.927   5.412  0.0104 -0.2848  0.0679
 1540TIP3    H1 4584   3.237   4.892   5.327 -0.2180  0.4929 -0.1953
 1540TIP3    H2 4585   3.181   4.920   5.464  0.5031 -1.9903  0.6520
 1541TIP3   OH2 4586   1.775   0.273   5.182 -0.0716  0.1656  0.6096
 1541TIP3    H1 4587   1.861   0.315   5.185 -0.5251  1.0653  1.2374
 1541TIP3    H2 4588   1.758   0.246   5.272 -0.0141 -0.9472  0.3136
 1542TIP3   OH2 4589   0.546   2.180   5.619 -0.0750  0.5330 -0.4914
 1542TIP3    H1 4590   0.567   2.086   5.616  3.0336  1.1187 -0.3225
 1542TIP3    H2 4591   0.508   2.193   5.706 -0.0584 -0.4832 -0.3118
 1543TIP3   OH2 4592   1.275   0.908   4.785 -0.1575  0.1073 -0.9841
 1543TIP3    H1 4593   1.256   0.846   4.715 -1.7438  2.1780 -2.4984
 1543TIP3    H2 4594   1.207   0.890   4.851 -1.4419  1.0274 -2.0066
 1544TIP3   OH2 4595   3.509   2.350   0.226  0.0015 -0.2231  0.6284
 1544TIP3    H1 4596   3.519   2.342   0.321 -1.2161  1.9352  1.0206
 1544TIP3    H2 4597   3.436   2.293   0.204 -1.3319  1.0798  1.4539
 1545TIP3   OH2 4598   4.467   2.134   5.752  0.4514 -0.1532 -0.2478
 1545TIP3    H1 4599   4.443   2.147   5.661  0.5064  1.4388 -0.0609
 1545TIP3    H2 4600   4.561   2.151   5.756  0.7291 -1.6107 -0.1263
 1546TIP3   OH2 4601   6.196   3.325   2.837  0.2872  0.3787 -0.0125
 1546TIP3    H1 4602   6.210   3.257   2.772  3.3189  1.8425 -1.0711
 1546TIP3    H2 4603   6.121   3.375   2.804 -0.4794 -1.0137 -0.4371
 1547TIP3   OH2 4604   4.598   5.291   2.997 -0.2997 -0.0927  0.3164
 1547TIP3    H1 4605   4.587   5.376   2.955 -0.0035  0.8967  2.1512
 1547TIP3    H2 4606   4.561   5.229   2.935  3.6599  0.7284 -3.3208
 1548TIP3   OH2 4607   6.152   5.559   3.947 -0.2879 -0.1448 -0.0008
 1548TIP3    H1 4608   6.240   5.538   3.978 -0.7933 -3.0472 -0.2209
 1548TIP3    H2 4609   6.166   5.615   3.871  1.3627 -0.4286  0.0528
 1549TIP3   OH2 4610   1.675   0.655   3.414 -1.0236 -0.1742  0.1972
 1549TIP3    H1 4611   1.754   0.604   3.397 -0.5759  0.5710 -0.0002
 1549TIP3    H2 4612   1.605   0.606   3.370 -0.6514 -0.7488  0.2257
 1550TIP3   OH2 4613   6.833   0.123   0.513  0.0057 -0.3265  0.6478
 1550TIP3    H1 4614   6.844   0.067   0.436  1.4315  0.6911  0.0656
 1550TIP3    H2 4615   6.793   0.065   0.579  1.0318 -1.9272 -0.0586
 1551TIP3   OH2 4616   2.423   6.125   4.890  0.5309 -0.1587 -0.5873
 1551TIP3    H1 4617   2.394   6.097   4.977 -0.4350 -0.5364 -1.0289
 1551TIP3    H2 4618   2.417   6.047   4.836 -2.0404  0.7948 -1.7925
 1552TIP3   OH2 4619   6.473   4.933   1.242 -0.6410  0.1650 -0.5659
 1552TIP3    H1 4620   6.392   4.922   1.293 -0.3958 -0.4252 -0.2906
 1552TIP3    H2 4621   6.539   4.887   1.293 -0.2731  0.0440 -1.1478
 1553TIP3   OH2 4622   4.378   6.680   4.027  0.1218  0.0733 -0.4236
 1553TIP3    H1 4623   4.455   6.725   4.061  0.0743 -1.1403  1.4260
 1553TIP3    H2 4624   4.413   6.603   3.982  0.0472  0.2801 -0.8399
 1554TIP3   OH2 4625   5.954   3.894   2.417 -0.4673  0.4336  0.6013
 1554TIP3    H1 4626   6.038   3.885   2.462 -0.0410 -0.7428 -0.3912
 1554TIP3    H2 4627   5.972   3.953   2.344 -1.1106  2.1758  1.7766
 1555TIP3   OH2 4628   5.166   5.766   1.423 -0.4275 -0.1533 -0.7899
 1555TIP3    H1 4629   5.121   5.850   1.435  0.5706  0.1436  1.4752
 1555TIP3    H2 4630   5.246   5.789   1.375  0.2242  0.3746  0.4925
 1556TIP3   OH2 4631   5.416   0.856   3.275  0.0078 -0.1113  0.5727
 1556TIP3    H1 4632   5.476   0.893   3.210 -0.6821  0.9200  0.5073
 1556TIP3    H2 4633   5.467   0.787   3.318  1.2661  0.7818  0.5699
 1557TIP3   OH2 4634   0.298   0.114   0.664 -0.1619 -0.1813  0.2892
 1557TIP3    H1 4635   0.203   0.113   0.652 -0.0957 -1.9229 -0.5112
 1557TIP3    H2 4636   0.332   0.067   0.587  1.2935 -0.1520  0.8796
 1558TIP3   OH2 4637   1.700   3.195   1.653 -0.0909  0.0357 -0.3030
 1558TIP3    H1 4638   1.625   3.200   1.594  0.2824 -0.2831 -0.8150
 1558TIP3    H2 4639   1.666   3.224   1.737 -1.2469 -1.7265 -0.0997
 1559TIP3   OH2 4640   3.117   0.739   1.555  0.1334 -0.4552  0.0686
 1559TIP3    H1 4641   3.160   0.765   1.473  0.3359 -0.5297  0.1492
 1559TIP3    H2 4642   3.140   0.647   1.566 -0.4501 -0.6280 -0.1327
 1560TIP3   OH2 4643   6.162   0.865   5.084 -0.1353 -0.1275 -0.0982
 1560TIP3    H1 4644   6.233   0.865   5.020  0.9413  0.9564  1.0121
 1560TIP3    H2 4645   6.138   0.773   5.094 -1.8376 -0.1942 -3.5671
 1561TIP3   OH2 4646   1.931   5.907   1.947  0.2062  0.0611 -0.2142
 1561TIP3    H1 4647   1.909   5.874   2.033  0.6558 -0.0665 -0.1478
 1561TIP3    H2 4648   2.024   5.928   1.951  0.3949 -0.5992 -0.8743
 1562TIP3   OH2 4649   7.037   3.241   1.533 -0.3288  0.6642  1.0895
 1562TIP3    H1 4650   7.017   3.297   1.458  0.2412  1.0864  1.2386
 1562TIP3    H2 4651   7.132   3.249   1.543 -0.1997 -0.5648  0.9367
 1563TIP3   OH2 4652   5.700   4.818   2.981  0.7388 -0.1861 -0.6999
 1563TIP3    H1 4653   5.749   4.841   2.902  1.8346 -1.4121 -0.4187
 1563TIP3    H2 4654   5.706   4.723   2.986 -1.0893 -0.3019 -0.2335
 1564TIP3   OH2 4655   7.180   2.726   2.657 -0.0288  0.1638  0.3090
 1564TIP3    H1 4656   7.267   2.696   2.682 -0.2263  0.6722  1.7283
 1564TIP3    H2 4657   7.177   2.716   2.562  2.3341  2.0339 -0.0582
 1565TIP3   OH2 4658   1.520   6.515   1.441  0.7696  0.4388  0.3983
 1565TIP3    H1 4659   1.538   6.586   1.379 -0.1153  0.2189 -0.1271
 1565TIP3    H2 4660   1.571   6.441   1.409  2.3689  1.0433  1.4248
 1566TIP3   OH2 4661   2.590   0.763   3.657 -0.3091  0.3346  0.4546
 1566TIP3    H1 4662   2.656   0.705   3.620 -0.3983  0.5851 -0.1152
 1566TIP3    H2 4663   2.611   0.768   3.750  0.0324 -0.1622  0.4070
 1567TIP3   OH2 4664   3.322   3.067   5.548  0.5249 -0.4506 -0.4925
 1567TIP3    H1 4665   3.238   3.047   5.507  0.6868 -1.2398 -0.4587
 1567TIP3    H2 4666   3.306   3.148   5.597 -0.3346 -0.8221 -0.1336
 1568TIP3   OH2 4667   2.916   1.588   1.332 -0.7942 -0.3511  0.4907
 1568TIP3    H1 4668   2.866   1.640   1.395 -0.7492  0.4522 -0.1153
 1568TIP3    H2 4669   2.945   1.512   1.381 -1.0480  0.0896  1.3476
 1569TIP3   OH2 4670   3.132   2.914   0.540  0.2235 -0.2733 -0.0030
 1569TIP3    H1 4671   3.120   2.928   0.634 -0.9531  1.4078 -0.3553
 1569TIP3    H2 4672   3.088   2.831   0.522 -0.6849  0.0341  0.7255
 1570TIP3   OH2 4673   2.359   1.363   1.833  0.2608  0.1491 -0.5696
 1570TIP3    H1 4674   2.444   1.358   1.875  0.4865 -0.2735 -1.0642
 1570TIP3    H2 4675   2.352   1.453   1.802 -0.6895  1.0481  1.9446
 1571TIP3   OH2 4676   4.487   2.874   0.421  0.7261 -0.2833 -0.1320
 1571TIP3    H1 4677   4.424   2.923   0.368  1.4751 -0.4149 -1.1496
 1571TIP3    H2 4678   4.546   2.941   0.456  0.2407 -0.1979  0.5640
 1572TIP3   OH2 4679   5.609   5.704   2.736  0.0265  0.2955  0.0252
 1572TIP3    H1 4680   5.620   5.612   2.760  1.9136  0.1665 -1.1267
 1572TIP3    H2 4681   5.543   5.737   2.797  0.7859 -1.2955  1.8157
 1573TIP3   OH2 4682   4.130   4.657   0.529 -0.7961 -0.6274  0.4285
 1573TIP3    H1 4683   4.166   4.595   0.466  1.2700  0.1925  0.7301
 1573TIP3    H2 4684   4.091   4.726   0.476  0.2986 -0.2999  0.0345
 1574TIP3   OH2 4685   1.302   5.217   2.758 -1.0794  0.2343 -0.5051
 1574TIP3    H1 4686   1.216   5.259   2.752 -1.9417 -1.4449 -0.5137
 1574TIP3    H2 4687   1.358   5.282   2.800 -2.9308  0.5955  1.5852
 1575TIP3   OH2 4688   5.973   2.711   2.877  0.7964 -0.6978  0.1014
 1575TIP3    H1 4689   5.987   2.672   2.964  0.1944 -0.7288  0.1865
 1575TIP3    H2 4690   6.026   2.657   2.818 -0.3471 -1.9467  0.1523
 1576TIP3   OH2 4691   2.378   6.351   1.109  0.0253 -0.3264  0.0658
 1576TIP3    H1 4692   2.419   6.292   1.172 -0.1482 -0.5705 -0.0523
 1576TIP3    H2 4693   2.451   6.400   1.071  0.2094 -0.7843 -0.1691
 1577TIP3   OH2 4694   0.548   3.744   0.766  0.0044 -0.1345 -0.0520
 1577TIP3    H1 4695   0.478   3.683   0.745  1.1253 -0.8010 -2.1316
 1577TIP3    H2 4696   0.612   3.692   0.815  0.4233 -0.3474 -0.8103
 1578TIP3   OH2 4697   0.800   6.010   0.333 -0.1797  0.4485 -0.4057
 1578TIP3    H1 4698   0.832   5.946   0.397  0.0155  1.8972  1.0234
 1578TIP3    H2 4699   0.716   5.976   0.304  1.0273 -1.7206 -1.6402
 1579TIP3   OH2 4700   1.842   2.080   1.999  0.1179  0.2648  0.2655
 1579TIP3    H1 4701   1.886   2.033   1.929  1.3219  1.3332  0.2910
 1579TIP3    H2 4702   1.753   2.094   1.967  0.8115  1.2487 -1.3004
 1580TIP3   OH2 4703   7.020   2.863   0.480  0.1385  0.0593  0.4133
 1580TIP3    H1 4704   7.008   2.943   0.532  0.1810  0.1876  0.2260
 1580TIP3    H2 4705   7.055   2.799   0.542 -2.7793 -0.7671  1.3690
 1581TIP3   OH2 4706   0.848   4.516   2.463  0.5874 -0.3492 -0.5607
 1581TIP3    H1 4707   0.873   4.424   2.466 -0.0891 -0.5120  2.1239
 1581TIP3    H2 4708   0.755   4.514   2.441  0.9174 -0.1804 -2.0773
 1582TIP3   OH2 4709   2.126   4.803   4.990  0.3671 -0.0949 -0.2371
 1582TIP3    H1 4710   2.069   4.770   4.921 -2.5474  1.8783  1.0049
 1582TIP3    H2 4711   2.181   4.729   5.014 -1.3138 -2.0017 -1.9213
 1583TIP3   OH2 4712   0.559   2.289   3.281  0.6185 -0.5584 -0.6426
 1583TIP3    H1 4713   0.544   2.279   3.375  0.4396 -0.3433 -0.6474
 1583TIP3    H2 4714   0.650   2.318   3.274  0.7151 -0.8351 -0.5515
 1584TIP3   OH2 4715   0.726   5.960   1.611 -0.5963 -0.0339  0.4845
 1584TIP3    H1 4716   0.694   5.978   1.523  1.3321  1.6232  0.0523
 1584TIP3    H2 4717   0.796   5.896   1.599 -0.8820 -0.4433  0.9370
 1585TIP3   OH2 4718   6.941   1.824   4.553 -0.2430 -0.1186  0.3251
 1585TIP3    H1 4719   6.890   1.883   4.497  0.3242 -0.1841 -0.2736
 1585TIP3    H2 4720   7.024   1.870   4.566  0.5566 -1.1604 -0.8903
 1586TIP3   OH2 4721   0.676   0.335   3.887  0.2103  0.1816  0.1989
 1586TIP3    H1 4722   0.621   0.289   3.823  1.1557  0.3664 -0.7644
 1586TIP3    H2 4723   0.661   0.288   3.969 -1.6419  0.4383  0.0478
 1587TIP3   OH2 4724   4.258   4.719   4.496  0.1672  0.3586 -0.0941
 1587TIP3    H1 4725   4.219   4.803   4.471 -0.3001 -0.1626 -1.1990
 1587TIP3    H2 4726   4.216   4.655   4.438 -0.5399 -0.8617  1.6688
 1588TIP3   OH2 4727   2.592   6.589   1.444  0.3192  0.0778 -0.0308
 1588TIP3    H1 4728   2.647   6.524   1.401  2.0713  0.2902  1.7144
 1588TIP3    H2 4729   2.648   6.625   1.513 -0.0204  4.4338 -1.7126
 1589TIP3   OH2 4730   1.611   2.641   5.870 -0.5767 -0.0815 -0.3445
 1589TIP3    H1 4731   1.706   2.650   5.871 -0.6227  0.8757  1.6600
 1589TIP3    H2 4732   1.594   2.551   5.896 -0.2370 -0.7212 -2.2265
 1590TIP3   OH2 4733   1.697   2.420   4.472 -0.2466 -0.1741 -0.5125
 1590TIP3    H1 4734   1.762   2.472   4.425  1.9851 -2.5299 -0.2914
 1590TIP3    H2 4735   1.748   2.378   4.542 -1.8896 -2.5364 -0.6383
 1591TIP3   OH2 4736   6.626   1.769   4.982  0.4743  0.3315  0.0483
 1591TIP3    H1 4737   6.655   1.733   4.899  0.1963 -0.9908  0.4960
 1591TIP3    H2 4738   6.589   1.855   4.960  0.1765 -0.1031 -1.2273
 1592TIP3   OH2 4739   3.901   2.941   3.888 -0.2186  0.2913  0.1608
 1592TIP3    H1 4740   3.819   2.894   3.887 -0.1630  0.1989 -0.2564
 1592TIP3    H2 4741   3.919   2.961   3.796  1.1811 -1.3573  0.0203
 1593TIP3   OH2 4742   0.453   5.919   0.316  0.2136  0.4974  0.1403
 1593TIP3    H1 4743   0.465   5.989   0.381  1.5850 -0.5643  1.0786
 1593TIP3    H2 4744   0.365   5.886   0.332  0.3330  0.6187  1.1049
 1594TIP3   OH2 4745   4.734   5.298   3.248 -0.1287 -0.3570  0.4491
 1594TIP3    H1 4746   4.804   5.363   3.239  0.8780 -1.4462  0.0702
 1594TIP3    H2 4747   4.678   5.312   3.173 -0.7682  1.0223  1.1481
 1595TIP3   OH2 4748   1.810   1.324   4.682 -0.0251  0.2375  0.3648
 1595TIP3    H1 4749   1.747   1.371   4.737 -0.1594 -1.6588  1.9400
 1595TIP3    H2 4750   1.827   1.383   4.609 -3.4704  0.9649 -0.0395
 1596TIP3   OH2 4751   5.888   2.719   3.424 -0.2492 -0.0479 -0.2406
 1596TIP3    H1 4752   5.819   2.763   3.373 -0.6084 -1.5271 -1.0856
 1596TIP3    H2 4753   5.848   2.705   3.510 -0.5795  0.1508 -0.3582
 1597TIP3   OH2 4754   6.749   3.176   1.975 -0.0590  0.5416 -0.0008
 1597TIP3    H1 4755   6.822   3.118   1.957  0.8586  1.6600 -0.0024
 1597TIP3    H2 4756   6.744   3.179   2.071 -0.2782  0.2702 -0.0009
 1598TIP3   OH2 4757   6.474   6.724   4.687 -0.4752 -0.1765  0.0367
 1598TIP3    H1 4758   6.547   6.740   4.747  0.3349 -0.6802 -0.7763
 1598TIP3    H2 4759   6.429   6.808   4.680 -0.7363 -0.1646  1.5128
 1599TIP3   OH2 4760   2.437   4.520   4.034  0.3276 -0.0919 -0.2134
 1599TIP3    H1 4761   2.521   4.497   4.075  0.4992  0.7325 -0.0746
 1599TIP3    H2 4762   2.378   4.448   4.057  1.3023 -1.3033 -1.3382
 1600TIP3   OH2 4763   3.169   5.239   4.776  0.0515  0.4587  0.1241
 1600TIP3    H1 4764   3.234   5.243   4.705  2.5927 -2.7578  1.9841
 1600TIP3    H2 4765   3.213   5.282   4.850 -0.5061 -0.5178  1.0349
 1601TIP3   OH2 4766   4.592   3.930   5.231  0.3511  0.0024  0.7232
 1601TIP3    H1 4767   4.528   3.930   5.302  0.3750 -1.9679  0.7798
 1601TIP3    H2 4768   4.568   3.855   5.176  0.5374  1.2633 -1.2029
 1602TIP3   OH2 4769   1.778   6.618   1.130  0.9598  0.5170 -0.1669
 1602TIP3    H1 4770   1.855   6.649   1.178  0.8612 -0.3323  0.5787
 1602TIP3    H2 4771   1.705   6.667   1.168  1.1759  1.7414 -1.2680
 1603TIP3   OH2 4772   5.774   3.515   3.062  0.1797  0.1084 -0.6099
 1603TIP3    H1 4773   5.766   3.420   3.057 -0.6799  0.1813 -0.7197
 1603TIP3    H2 4774   5.796   3.533   3.154 -2.6141 -0.0244  0.1524
 1604TIP3   OH2 4775   6.160   1.795   1.922  0.5903 -0.0734 -0.1721
 1604TIP3    H1 4776   6.074   1.838   1.915  0.7720  0.6732  1.6888
 1604TIP3    H2 4777   6.221   1.857   1.882  0.3079 -0.6044 -1.4976
 1605TIP3   OH2 4778   6.367   6.452   1.140 -0.1693 -0.3121 -0.2191
 1605TIP3    H1 4779   6.400   6.500   1.064  2.5181  1.0616  1.6474
 1605TIP3    H2 4780   6.385   6.360   1.120  0.1312 -0.0065 -1.4085
 1606TIP3   OH2 4781   3.679   2.736   4.792 -0.4464  0.0306 -0.4470
 1606TIP3    H1 4782   3.598   2.693   4.765 -0.7622  0.2075  0.1921
 1606TIP3    H2 4783   3.724   2.669   4.845 -1.0053  0.5070  0.6702
 1607TIP3   OH2 4784   1.317   1.074   3.862  0.5518  0.5124  0.0303
 1607TIP3    H1 4785   1.392   1.132   3.849  0.6816  0.4322  0.3938
 1607TIP3    H2 4786   1.271   1.111   3.938  0.6080  0.1709  0.2344
 1608TIP3   OH2 4787   0.754   0.377   1.633  0.2207  0.1690  0.0663
 1608TIP3    H1 4788   0.746   0.408   1.723  2.1992 -0.1097  0.3822
 1608TIP3    H2 4789   0.818   0.306   1.637  0.4696  0.2573 -1.5810
 1609TIP3   OH2 4790   4.503   1.008   3.929  0.1992 -0.2737 -0.1603
 1609TIP3    H1 4791   4.567   1.014   3.858  0.1163  0.4742 -0.1773
 1609TIP3    H2 4792   4.488   1.098   3.957 -1.8284 -0.2783 -1.0332
 1610TIP3   OH2 4793   0.619   6.269   0.766  0.0389 -0.1153  0.4351
 1610TIP3    H1 4794   0.605   6.260   0.861 -1.9739  0.6515  0.2588
 1610TIP3    H2 4795   0.582   6.355   0.745  0.5917 -0.2194 -1.0418
 1611TIP3   OH2 4796   2.564   6.260   2.762 -0.0107 -0.3041  0.0333
 1611TIP3    H1 4797   2.507   6.184   2.762  0.5320 -0.7182  0.7147
 1611TIP3    H2 4798   2.527   6.318   2.696  0.7729 -2.0551 -2.0741
 1612TIP3   OH2 4799   1.296   0.971   5.845 -0.5740  0.8496  0.3589
 1612TIP3    H1 4800   1.360   0.912   5.805  0.2128  1.1575  1.1556
 1612TIP3    H2 4801   1.240   0.998   5.772 -0.3212 -0.0753 -0.1946
 1613TIP3   OH2 4802   3.514   0.618   4.335  0.5084 -0.3378 -0.2616
 1613TIP3    H1 4803   3.598   0.610   4.290  1.7786  2.6141  1.3662
 1613TIP3    H2 4804   3.487   0.708   4.321 -1.1848 -0.5273  1.3328
 1614TIP3   OH2 4805   2.316   4.103   3.149  0.2427  0.1977  0.1703
 1614TIP3    H1 4806   2.333   4.146   3.232  0.2011 -0.7609  0.6923
 1614TIP3    H2 4807   2.269   4.168   3.097 -1.4120  0.1822  1.5682
 1615TIP3   OH2 4808   2.870   2.842   3.526 -0.3324 -0.0315  0.0165
 1615TIP3    H1 4809   2.831   2.877   3.606  1.4104 -1.0777  1.3944
 1615TIP3    H2 4810   2.913   2.917   3.485  0.5400  0.1235  1.1795
 1616TIP3   OH2 4811   4.780   0.236   0.725  0.1731  0.1953  0.9680
 1616TIP3    H1 4812   4.808   0.300   0.660  0.2601 -0.4368  0.3743
 1616TIP3    H2 4813   4.807   0.274   0.809 -0.5807  1.3517  0.7081
 1617TIP3   OH2 4814   1.469   0.976   0.102  0.6590  0.5436 -0.2409
 1617TIP3    H1 4815   1.559   0.998   0.079  1.8404 -3.5456 -0.4322
 1617TIP3    H2 4816   1.434   0.932   0.025 -1.3613  1.5168  0.0386
 1618TIP3   OH2 4817   6.614   3.685   1.401  0.0872 -0.1470 -0.4493
 1618TIP3    H1 4818   6.544   3.716   1.458  2.4829 -0.0073  2.6605
 1618TIP3    H2 4819   6.658   3.764   1.371  1.1200 -0.2751  0.6624
 1619TIP3   OH2 4820   7.193   4.505   2.971 -0.0551  0.0258  0.6139
 1619TIP3    H1 4821   7.115   4.561   2.981 -0.5072 -0.2488 -1.1154
 1619TIP3    H2 4822   7.170   4.423   3.015 -0.2149  0.4115  1.2656
 1620TIP3   OH2 4823   2.892   5.967   5.498 -0.1046  0.5294 -0.5439
 1620TIP3    H1 4824   2.930   5.965   5.410 -0.4421 -0.0610 -0.6835
 1620TIP3    H2 4825   2.935   6.040   5.541  3.1432 -1.6257  0.1909
 1621TIP3   OH2 4826   2.113   4.738   5.308  0.3634  0.1494 -0.2672
 1621TIP3    H1 4827   2.195   4.776   5.276 -0.2979  1.0659 -0.9064
 1621TIP3    H2 4828   2.119   4.749   5.403  2.0143 -1.9497 -0.0577
 1622TIP3   OH2 4829   0.415   2.862   1.425  0.8055  0.1297  0.2692
 1622TIP3    H1 4830   0.463   2.779   1.419  0.9505  0.1566  0.9922
 1622TIP3    H2 4831   0.326   2.836   1.449  0.6422  0.1343 -0.3063
 1623TIP3   OH2 4832   0.141   1.664   0.282  0.1272 -0.2404  0.4002
 1623TIP3    H1 4833   0.098   1.624   0.358 -1.8687  0.6107 -0.2289
 1623TIP3    H2 4834   0.170   1.590   0.229 -0.1627 -0.8371  1.0557
 1624TIP3   OH2 4835   1.090   1.779   5.728  0.1824  0.3670  0.0360
 1624TIP3    H1 4836   1.125   1.832   5.657  1.5278 -0.2162  0.2296
 1624TIP3    H2 4837   1.167   1.741   5.770 -0.4912  1.3174  2.3188
 1625TIP3   OH2 4838   2.148   3.964   5.706  0.0697 -0.3104 -0.4017
 1625TIP3    H1 4839   2.118   3.964   5.798  0.3960  0.2313 -0.2924
 1625TIP3    H2 4840   2.081   4.014   5.660 -0.1081 -0.6051 -0.4700
 1626TIP3   OH2 4841   5.920   5.061   3.022  0.3906 -0.2211 -0.0729
 1626TIP3    H1 4842   5.831   5.076   2.990  0.3021  1.1621  0.7448
 1626TIP3    H2 4843   5.976   5.112   2.964  0.6130 -0.6740 -0.2642
 1627TIP3   OH2 4844   6.296   6.472   0.065 -0.5982  0.3767  1.1704
 1627TIP3    H1 4845   6.385   6.438   0.075 -0.6896 -0.3842 -0.2855
 1627TIP3    H2 4846   6.308   6.559   0.027 -0.4464  0.9691  2.5205
 1628TIP3   OH2 4847   3.207   1.108   0.504  0.2706  0.1700 -0.5159
 1628TIP3    H1 4848   3.280   1.155   0.462  0.8477  0.3695  0.6774
 1628TIP3    H2 4849   3.162   1.176   0.554 -1.3471  0.2543 -1.9948
 1629TIP3   OH2 4850   1.274   0.941   1.076  0.2266 -0.5756  0.1443
 1629TIP3    H1 4851   1.366   0.940   1.100  0.7586  1.2820 -1.5228
 1629TIP3    H2 4852   1.263   0.864   1.019  1.4266  0.5343 -1.6878
 1630TIP3   OH2 4853   4.438   6.712   3.168  0.6420 -0.0002 -0.2304
 1630TIP3    H1 4854   4.495   6.770   3.117  0.4025 -0.0319 -0.5367
 1630TIP3    H2 4855   4.352   6.754   3.163  0.0933 -1.2250 -1.8338
 1631TIP3   OH2 4856   2.270   0.754   5.606  0.3169 -0.3331  0.0809
 1631TIP3    H1 4857   2.238   0.695   5.538  0.7252 -0.2033 -0.2293
 1631TIP3    H2 4858   2.354   0.716   5.633  0.5286  0.0445 -0.0424
 1632TIP3   OH2 4859   3.415   1.401   2.588 -0.2755 -0.7202  0.1384
 1632TIP3    H1 4860   3.337   1.393   2.643 -0.9108 -0.9628 -0.7910
 1632TIP3    H2 4861   3.382   1.402   2.499  0.5832  1.5333 -0.2274
 1633TIP3   OH2 4862   4.602   0.760   3.302 -0.0795  0.0111  0.1415
 1633TIP3    H1 4863   4.519   0.805   3.285 -0.1759 -0.3036 -0.2254
 1633TIP3    H2 4864   4.590   0.718   3.387  0.3007  1.3435  0.8938
 1634TIP3   OH2 4865   5.802   5.821   5.354 -0.5619 -0.0384 -0.3481
 1634TIP3    H1 4866   5.828   5.754   5.291 -0.5310 -1.4550  1.0853
 1634TIP3    H2 4867   5.883   5.867   5.375 -0.3040 -0.5275 -0.2630
 1635TIP3   OH2 4868   7.023   0.358   2.327  0.2395  0.3389 -0.6490
 1635TIP3    H1 4869   7.072   0.303   2.388 -2.5123 -0.9082  0.6264
 1635TIP3    H2 4870   6.997   0.435   2.379  0.5304  0.8222 -1.2031
 1636TIP3   OH2 4871   2.002   6.184   0.644  0.0860 -0.1669 -0.1579
 1636TIP3    H1 4872   2.062   6.221   0.710  2.5102 -0.8762 -1.8184
 1636TIP3    H2 4873   2.012   6.089   0.654 -1.7665 -0.3426  0.3298
 1637TIP3   OH2 4874   7.028   6.324   5.110 -0.4521 -0.1219 -0.2010
 1637TIP3    H1 4875   6.969   6.270   5.057  0.3588 -0.4688 -0.7561
 1637TIP3    H2 4876   7.012   6.413   5.080 -0.7273 -0.2083 -0.3164
 1638TIP3   OH2 4877   7.023   2.111   1.941  0.2836 -0.6716 -0.4198
 1638TIP3    H1 4878   7.081   2.181   1.970  0.1535 -0.3161 -1.0037
 1638TIP3    H2 4879   6.948   2.116   2.000  0.0690 -0.0210 -0.7367
 1639TIP3   OH2 4880   5.784   1.850   2.737 -0.3214  0.6769 -0.2376
 1639TIP3    H1 4881   5.810   1.862   2.828 -0.2087 -0.9154 -0.0321
 1639TIP3    H2 4882   5.845   1.906   2.688 -0.5298  1.7270  0.6605
 1640TIP3   OH2 4883   6.457   0.116   2.891 -0.1334  0.1272 -0.3974
 1640TIP3    H1 4884   6.467   0.204   2.928 -1.2009  0.0367  0.1291
 1640TIP3    H2 4885   6.363   0.108   2.873  0.1504 -0.3840 -1.7708
 1641TIP3   OH2 4886   2.172   3.912   4.430 -0.0991  0.1717 -0.0073
 1641TIP3    H1 4887   2.150   3.971   4.502 -0.1553 -0.8408  0.8257
 1641TIP3    H2 4888   2.266   3.896   4.441 -0.2359 -0.4774  0.2190
 1642TIP3   OH2 4889   2.626   4.447   2.704  0.0275 -0.4911 -0.5610
 1642TIP3    H1 4890   2.542   4.410   2.680 -0.3615 -0.2747  0.4313
 1642TIP3    H2 4891   2.676   4.373   2.739 -1.1590  0.0135  2.5254
 1643TIP3   OH2 4892   4.083   2.587   1.484  0.2439  0.4197 -0.1573
 1643TIP3    H1 4893   4.028   2.631   1.418  1.4397 -0.4002 -1.7593
 1643TIP3    H2 4894   4.104   2.503   1.445  0.6101 -0.2903  1.5131
 1644TIP3   OH2 4895   4.668   5.901   2.246  0.2712  0.9727 -0.3343
 1644TIP3    H1 4896   4.656   5.947   2.163  2.0280  2.9785  0.4115
 1644TIP3    H2 4897   4.621   5.955   2.310  1.7238  1.3833  0.4388
 1645TIP3   OH2 4898   3.610   1.436   2.945 -0.6601  0.3552  0.2098
 1645TIP3    H1 4899   3.609   1.519   2.992 -0.9357 -0.1456  1.1049
 1645TIP3    H2 4900   3.531   1.390   2.975 -0.6168 -0.1541 -0.4235
 1646TIP3   OH2 4901   3.956   3.441   3.326  0.2313 -0.6046  0.2218
 1646TIP3    H1 4902   3.875   3.424   3.277  0.3897 -0.7238 -0.0005
 1646TIP3    H2 4903   3.944   3.529   3.362 -0.0727 -0.6920  0.3388
 1647TIP3   OH2 4904   1.301   5.119   5.184  0.0601  0.1989 -1.2958
 1647TIP3    H1 4905   1.331   5.056   5.249 -0.2955 -0.3015 -1.6003
 1647TIP3    H2 4906   1.217   5.149   5.217  0.3252  0.6762 -1.0478
 1648TIP3   OH2 4907   5.924   6.137   0.869 -0.2861  0.3771  0.3468
 1648TIP3    H1 4908   5.846   6.110   0.918  0.2056 -0.2017  0.8257
 1648TIP3    H2 4909   5.914   6.232   0.858 -0.8331  0.3777  0.7997
 1649TIP3   OH2 4910   0.376   4.668   5.005  0.4975  0.3295 -0.0964
 1649TIP3    H1 4911   0.400   4.595   4.948  0.6126  0.7190 -0.5550
 1649TIP3    H2 4912   0.426   4.742   4.970  2.6338  0.0483  2.0593
 1650TIP3   OH2 4913   2.577   3.010   3.419 -0.0848  0.3914  0.2707
 1650TIP3    H1 4914   2.499   2.978   3.374  0.4195  0.5398 -0.7254
 1650TIP3    H2 4915   2.649   2.995   3.358  0.4291  1.8265  0.4728
 1651TIP3   OH2 4916   0.756   5.095   4.723 -0.1709  0.3038  0.3939
 1651TIP3    H1 4917   0.685   5.043   4.684  1.6302 -0.2951 -2.4413
 1651TIP3    H2 4918   0.779   5.158   4.655  0.8985  1.6320  1.9261
 1652TIP3   OH2 4919   4.851   5.427   2.448  0.4175  0.1879 -0.0810
 1652TIP3    H1 4920   4.905   5.497   2.484 -0.9312  0.6800  1.1371
 1652TIP3    H2 4921   4.804   5.392   2.524  0.1450 -1.2258 -0.8573
 1653TIP3   OH2 4922   4.282   2.277   5.457 -0.3299  0.0290  0.5331
 1653TIP3    H1 4923   4.265   2.292   5.364  3.9033 -3.4180 -1.1754
 1653TIP3    H2 4924   4.212   2.219   5.485 -0.3747 -0.8786 -1.3009
 1654TIP3   OH2 4925   7.082   3.835   1.785  0.3930  0.3070 -0.1335
 1654TIP3    H1 4926   6.988   3.839   1.803  0.5360 -1.0554  1.0561
 1654TIP3    H2 4927   7.111   3.927   1.788 -1.1919  0.9578 -2.3971
 1655TIP3   OH2 4928   5.370   5.765   2.877 -0.3221  1.2663  0.4693
 1655TIP3    H1 4929   5.317   5.737   2.952  0.6650  1.3360  1.2107
 1655TIP3    H2 4930   5.368   5.860   2.879 -0.8479  1.2705 -0.0052
 1656TIP3   OH2 4931   3.582   1.296   2.247 -0.1549  0.1237  0.0145
 1656TIP3    H1 4932   3.487   1.303   2.245 -0.2028 -0.5111 -0.4364
 1656TIP3    H2 4933   3.603   1.281   2.339 -0.4537  0.6964  0.1771
 1657TIP3   OH2 4934   2.180   1.562   2.323  0.0169  0.3335  0.2572
 1657TIP3    H1 4935   2.167   1.657   2.324 -0.2405  0.2991  0.2642
 1657TIP3    H2 4936   2.272   1.551   2.300 -0.0332  0.5791 -0.0786
 1658TIP3   OH2 4937   3.248   0.209   4.973 -0.4084  0.5810 -0.4297
 1658TIP3    H1 4938   3.340   0.227   4.953 -0.8708  2.9460 -0.6948
 1658TIP3    H2 4939   3.236   0.242   5.062 -0.5859 -1.4650  0.3489
 1659TIP3   OH2 4940   5.337   5.356   1.209 -0.2662 -0.1267  0.1844
 1659TIP3    H1 4941   5.346   5.422   1.278  1.5413 -0.1395  0.0080
 1659TIP3    H2 4942   5.357   5.273   1.252  2.4757  0.0285 -0.6152
 1660TIP3   OH2 4943   3.793   5.762   2.026  0.1658 -0.5772  0.4335
 1660TIP3    H1 4944   3.803   5.755   1.931  1.2276 -0.4866  0.5306
 1660TIP3    H2 4945   3.720   5.823   2.038 -0.1339 -0.7688 -0.3183
 1661TIP3   OH2 4946   0.934   0.299   3.256  0.7242  0.5571  0.2502
 1661TIP3    H1 4947   0.992   0.229   3.284  1.4839  0.5024 -1.3413
 1661TIP3    H2 4948   0.957   0.314   3.164 -0.5605  1.7607  0.0885
 1662TIP3   OH2 4949   4.529   4.384   1.084  0.0334 -0.3137 -0.0613
 1662TIP3    H1 4950   4.574   4.323   1.025  1.0976  0.5191 -0.1555
 1662TIP3    H2 4951   4.600   4.439   1.119 -0.8244  0.4916  0.4528
 1663TIP3   OH2 4952   2.096   5.539   5.761  0.3067 -0.8228 -0.5186
 1663TIP3    H1 4953   2.003   5.550   5.781  0.5063  0.0558 -0.0178
 1663TIP3    H2 4954   2.121   5.620   5.715  0.4630 -1.7284 -2.0949
 1664TIP3   OH2 4955   5.476   5.263   4.063 -0.4583 -0.3724 -0.5259
 1664TIP3    H1 4956   5.423   5.340   4.084  1.0159 -0.4027  4.3463
 1664TIP3    H2 4957   5.556   5.299   4.025 -0.1792  0.5117  0.8235
 1665TIP3   OH2 4958   4.387   6.112   5.058  0.0899 -0.4404 -0.4265
 1665TIP3    H1 4959   4.323   6.085   4.992  0.0484  1.1629 -1.0914
 1665TIP3    H2 4960   4.346   6.186   5.102  1.1337  0.0669 -0.2839
 1666TIP3   OH2 4961   0.139   0.544   1.946 -0.1142 -0.3013  0.5522
 1666TIP3    H1 4962   0.080   0.483   1.991 -2.5536  3.3331  2.8249
 1666TIP3    H2 4963   0.093   0.564   1.864 -0.1831 -0.2116  0.6130
 1667TIP3   OH2 4964   0.122   0.185   4.556 -0.1173  0.0794 -0.1794
 1667TIP3    H1 4965   0.052   0.233   4.600  0.0247  0.1577 -0.0376
 1667TIP3    H2 4966   0.171   0.144   4.627  0.8754  1.2436 -0.1746
 1668TIP3   OH2 4967   6.100   6.447   1.200  0.6763  0.0524 -0.1060
 1668TIP3    H1 4968   6.180   6.486   1.166  0.2639  1.5452  0.5321
 1668TIP3    H2 4969   6.122   6.419   1.289  0.7200 -0.3159 -0.2326
 1669TIP3   OH2 4970   4.697   5.885   5.606 -0.2851 -0.1736  0.3613
 1669TIP3    H1 4971   4.778   5.834   5.606 -0.5951 -0.6767  1.0669
 1669TIP3    H2 4972   4.681   5.905   5.514  0.0102 -1.0868  0.1050
 1670TIP3   OH2 4973   6.214   1.913   1.105  0.2431 -0.5704 -1.0764
 1670TIP3    H1 4974   6.204   1.904   1.011  0.9757 -0.2987 -1.1878
 1670TIP3    H2 4975   6.124   1.923   1.138  0.0372  0.1781 -1.8288
 1671TIP3   OH2 4976   0.556   1.929   0.723  0.4426 -0.2432 -0.0875
 1671TIP3    H1 4977   0.471   1.972   0.722  1.1393  1.1598 -1.0304
 1671TIP3    H2 4978   0.590   1.945   0.811  0.0335 -0.2338  0.0722
 1672TIP3   OH2 4979   5.304   0.475   3.272  0.4274 -0.1102 -0.1946
 1672TIP3    H1 4980   5.285   0.406   3.335 -1.4662  1.3670  0.9832
 1672TIP3    H2 4981   5.373   0.527   3.314 -0.0713  0.2461  0.2067
 1673TIP3   OH2 4982   7.042   3.684   0.716  0.5204 -0.2528 -0.0076
 1673TIP3    H1 4983   7.077   3.750   0.775 -0.2347 -0.5450  0.7749
 1673TIP3    H2 4984   7.000   3.734   0.646  0.8997  0.0859  0.0021
 1674TIP3   OH2 4985   1.697   4.738   5.719 -0.5393  0.3816  0.2757
 1674TIP3    H1 4986   1.696   4.676   5.792 -0.7458  0.9873  0.7876
 1674TIP3    H2 4987   1.645   4.812   5.749  0.0711  1.0011 -0.1702
 1675TIP3   OH2 4988   3.397   3.269   4.513  0.1188  0.2221  0.3488
 1675TIP3    H1 4989   3.410   3.282   4.607 -1.0548  1.3090  0.3909
 1675TIP3    H2 4990   3.434   3.348   4.473 -1.7898  1.0454  0.1298
 1676TIP3   OH2 4991   0.592   5.928   5.779 -0.1303 -0.5867 -0.1620
 1676TIP3    H1 4992   0.658   5.862   5.797 -0.6195 -1.7232 -2.2327
 1676TIP3    H2 4993   0.522   5.911   5.842  0.6439 -0.6748  0.6865
 1677TIP3   OH2 4994   0.723   0.919   4.490 -0.4465 -0.2812  0.3219
 1677TIP3    H1 4995   0.729   1.004   4.446 -1.8387 -0.5379 -0.4154
 1677TIP3    H2 4996   0.643   0.879   4.455 -0.6906 -1.2233  1.8487
 1678TIP3   OH2 4997   6.986   3.510   4.524  0.0420 -0.0320 -0.8542
 1678TIP3    H1 4998   7.004   3.416   4.536 -0.8670  0.0189  1.6557
 1678TIP3    H2 4999   6.899   3.513   4.486 -0.3538 -0.2406  0.0044
 1679TIP3   OH2 5000   7.005   4.997   1.431  0.2847 -0.1236  0.7715
 1679TIP3    H1 5001   6.980   4.924   1.488  0.1765 -0.6607  0.0555
 1679TIP3    H2 5002   7.070   5.045   1.481  0.1586 -0.5527  1.3682
 1680TIP3   OH2 5003   1.897   1.506   5.787  0.4567  0.0880  0.3919
 1680TIP3    H1 5004   1.849   1.565   5.845  1.8362 -2.3199  4.3743
 1680TIP3    H2 5005   1.831   1.442   5.757  0.2502 -0.5519  2.1128
 1681TIP3   OH2 5006   1.897   4.045   5.609  0.2334  0.2115 -0.8611
 1681TIP3    H1 5007   1.854   4.075   5.689  1.3082  1.8988 -0.8705
 1681TIP3    H2 5008   1.835   4.066   5.539 -0.1735 -0.1082 -0.6004
 1682TIP3   OH2 5009   5.778   2.467   4.679  0.6502 -0.4216 -0.5716
 1682TIP3    H1 5010   5.819   2.500   4.599  1.3175 -0.3825 -0.2162
 1682TIP3    H2 5011   5.709   2.408   4.647  0.1619  0.4530 -1.1870
 1683TIP3   OH2 5012   7.183   4.072   1.510 -0.2094  0.0682  0.2320
 1683TIP3    H1 5013   7.183   4.064   1.605  1.3092 -2.3177  0.1354
 1683TIP3    H2 5014   7.094   4.048   1.484 -0.4411  0.0344  1.0191
 1684TIP3   OH2 5015   6.841   4.526   1.489 -0.1090 -0.3030 -0.4577
 1684TIP3    H1 5016   6.845   4.574   1.406 -2.1360 -0.7552 -0.8549
 1684TIP3    H2 5017   6.849   4.434   1.463  0.6681 -0.3742  0.0081
 1685TIP3   OH2 5018   2.243   0.749   5.901  0.3882 -0.2437 -0.0432
 1685TIP3    H1 5019   2.190   0.711   5.832 -0.2425 -0.5489  0.5960
 1685TIP3    H2 5020   2.225   0.843   5.896  2.3271  0.0792 -1.9388
 1686TIP3   OH2 5021   1.702   6.268   3.428 -0.6277 -0.0127 -0.2332
 1686TIP3    H1 5022   1.697   6.207   3.502 -2.1169  0.3432 -0.0121
 1686TIP3    H2 5023   1.696   6.212   3.351 -0.1147 -0.2904 -0.0797
 1687TIP3   OH2 5024   2.989   6.203   0.842  0.0939  0.2454 -0.3700
 1687TIP3    H1 5025   3.040   6.155   0.776  0.2573  1.3162 -1.0532
 1687TIP3    H2 5026   2.987   6.145   0.918 -1.4410 -1.7348 -1.8070
 1688TIP3   OH2 5027   6.794   2.800   4.745  0.0688  0.6195  0.7179
 1688TIP3    H1 5028   6.765   2.853   4.670  0.2092  0.9530  0.8986
 1688TIP3    H2 5029   6.761   2.847   4.821  0.8666  0.8775  0.9179
 1689TIP3   OH2 5030   0.118   3.149   2.117  0.1295  0.0798  0.4862
 1689TIP3    H1 5031   0.121   3.060   2.152  2.1003  0.3261  1.0965
 1689TIP3    H2 5032   0.123   3.137   2.022 -0.9774 -0.4830  0.4868
 1690TIP3   OH2 5033   6.660   1.629   2.759 -0.1101  0.2295 -1.0050
 1690TIP3    H1 5034   6.576   1.584   2.747 -0.3879  0.7145 -0.9280
 1690TIP3    H2 5035   6.707   1.616   2.677  0.1503 -0.8806 -0.6948
 1691TIP3   OH2 5036   3.029   4.549   1.035 -0.2711  0.6186  0.2953
 1691TIP3    H1 5037   2.998   4.492   1.106  1.6177  0.1656  0.8169
 1691TIP3    H2 5038   3.113   4.511   1.009 -0.4765  1.3398 -1.5588
 1692TIP3   OH2 5039   4.835   0.670   0.661  0.2689 -0.0545 -0.0759
 1692TIP3    H1 5040   4.822   0.585   0.619 -1.4483  0.6793 -1.1318
 1692TIP3    H2 5041   4.787   0.663   0.744 -2.1974  0.6888 -1.3431
 1693TIP3   OH2 5042   1.045   0.802   1.966 -0.2522 -0.0021 -0.4620
 1693TIP3    H1 5043   1.068   0.892   1.943  0.8065  0.2285  1.2824
 1693TIP3    H2 5044   1.059   0.798   2.061  0.3586 -2.1800 -0.5992
 1694TIP3   OH2 5045   6.477   1.374   5.879  0.1682  0.4794  0.4911
 1694TIP3    H1 5046   6.528   1.433   5.824  0.5368 -0.6305 -0.3995
 1694TIP3    H2 5047   6.395   1.360   5.831  0.2122  0.0292  0.5392
 1695TIP3   OH2 5048   2.655   6.114   5.186  0.8261  0.0786  0.0718
 1695TIP3    H1 5049   2.654   6.161   5.270  1.3808 -0.5411  0.4382
 1695TIP3    H2 5050   2.563   6.106   5.163  0.4008 -2.3118  2.1289
 1696TIP3   OH2 5051   1.636   2.034   2.991 -0.3056 -0.1870 -0.4962
 1696TIP3    H1 5052   1.668   1.955   2.949  0.5248  0.1420 -0.5042
 1696TIP3    H2 5053   1.668   2.027   3.081  1.0924  0.8406 -0.8790
 1697TIP3   OH2 5054   4.985   3.841   1.089  0.4637 -0.4775 -0.4334
 1697TIP3    H1 5055   5.071   3.859   1.050  0.0855 -0.8340 -1.4508
 1697TIP3    H2 5056   4.946   3.776   1.032 -0.4617 -0.3831  0.0764
 1698TIP3   OH2 5057   2.879   1.125   3.079  0.4290  0.1075 -0.5187
 1698TIP3    H1 5058   2.866   1.042   3.033 -0.2410  1.4379 -2.9070
 1698TIP3    H2 5059   2.792   1.147   3.113  0.6734 -0.2875  0.3965
 1699TIP3   OH2 5060   1.120   2.141   5.328  0.2654  0.5617  0.4897
 1699TIP3    H1 5061   1.182   2.195   5.377 -0.3225  0.6385  1.1606
 1699TIP3    H2 5062   1.131   2.168   5.237  2.8514 -1.0042  0.2195
 1700TIP3   OH2 5063   6.806   2.361   3.735 -0.1271 -0.4652 -0.4395
 1700TIP3    H1 5064   6.861   2.358   3.657  1.3362 -0.3674  0.5514
 1700TIP3    H2 5065   6.831   2.283   3.785 -1.7542 -1.0606 -0.5034
 1701TIP3   OH2 5066   0.540   4.474   2.616 -0.2422  0.2598 -0.6955
 1701TIP3    H1 5067   0.516   4.384   2.596  3.0347 -0.6845 -1.0019
 1701TIP3    H2 5068   0.531   4.521   2.532  0.1574 -0.3342 -1.0773
 1702TIP3   OH2 5069   2.436   6.632   4.969  0.2563 -0.1665  0.2295
 1702TIP3    H1 5070   2.464   6.543   4.989 -0.5139  0.0163  2.5028
 1702TIP3    H2 5071   2.511   6.687   4.992  0.7634 -0.2099 -1.2586
 1703TIP3   OH2 5072   1.087   0.565   4.062  0.4094 -0.0780 -0.1677
 1703TIP3    H1 5073   1.082   0.650   4.020 -0.3888  1.1943  2.2813
 1703TIP3    H2 5074   0.997   0.532   4.061  0.6665 -0.7841 -0.8641
 1704TIP3   OH2 5075   3.409   1.121   2.123 -0.1018  0.4236  0.1167
 1704TIP3    H1 5076   3.499   1.154   2.121 -0.3842  1.2645  0.7934
 1704TIP3    H2 5077   3.402   1.066   2.044  1.0215  0.2812  0.1025
 1705TIP3   OH2 5078   6.855   2.486   4.122  0.2823 -0.8720  0.0464
 1705TIP3    H1 5079   6.941   2.521   4.146  0.7100 -1.4342 -0.6213
 1705TIP3    H2 5080   6.801   2.564   4.109  0.9639 -0.4715 -0.4918
 1706TIP3   OH2 5081   1.234   5.800   1.356 -0.3111 -0.1099 -0.2323
 1706TIP3    H1 5082   1.251   5.877   1.411  1.8712 -0.6623 -0.0591
 1706TIP3    H2 5083   1.221   5.837   1.268 -0.9520  0.5500  0.1200
 1707TIP3   OH2 5084   1.547   6.383   0.162 -0.9464  0.6100 -0.9845
 1707TIP3    H1 5085   1.625   6.419   0.204 -0.3793 -1.5222 -0.1053
 1707TIP3    H2 5086   1.477   6.445   0.183 -0.0469  1.1382  0.5797
 1708TIP3   OH2 5087   1.421   5.159   1.246 -0.4889  0.1526 -0.1715
 1708TIP3    H1 5088   1.464   5.152   1.161 -1.9496  2.1231 -1.1336
 1708TIP3    H2 5089   1.460   5.236   1.286 -0.7296 -0.0250  0.4105
 1709TIP3   OH2 5090   3.942   5.260   4.056 -0.5027  0.0527 -0.2286
 1709TIP3    H1 5091   3.950   5.321   3.983  0.0752 -1.9179 -1.9086
 1709TIP3    H2 5092   3.989   5.303   4.128  0.7254  1.1712 -1.6264
 1710TIP3   OH2 5093   5.729   6.442   5.317  0.1550  0.0476  0.3163
 1710TIP3    H1 5094   5.695   6.476   5.399  0.8024 -1.2369  1.1530
 1710TIP3    H2 5095   5.699   6.504   5.250 -0.4419  1.0672  1.5022
 1711TIP3   OH2 5096   4.206   2.192   2.268  0.0880  0.6457  0.2319
 1711TIP3    H1 5097   4.273   2.124   2.267 -0.2994  0.2312 -2.2158
 1711TIP3    H2 5098   4.138   2.157   2.327 -0.6184 -1.6910 -1.7952
 1712TIP3   OH2 5099   2.819   3.378   4.449 -0.2132  0.1589  0.1799
 1712TIP3    H1 5100   2.751   3.394   4.383  0.3731  0.4310 -0.3722
 1712TIP3    H2 5101   2.815   3.454   4.507 -0.6243 -0.0029  0.3625
 1713TIP3   OH2 5102   6.562   6.724   2.917 -0.7706  0.1088  0.6528
 1713TIP3    H1 5103   6.583   6.751   2.828 -1.1750 -3.5736 -0.7362
 1713TIP3    H2 5104   6.642   6.740   2.967  0.7384 -1.0293 -1.2677
 1714TIP3   OH2 5105   0.991   1.790   5.211  0.1397 -0.0751  0.7174
 1714TIP3    H1 5106   0.923   1.729   5.239 -0.2636 -0.0326 -0.1405
 1714TIP3    H2 5107   0.943   1.869   5.186  0.3784 -0.4478 -1.0156
 1715TIP3   OH2 5108   1.092   0.149   1.509 -0.0231  0.0490 -0.2783
 1715TIP3    H1 5109   1.140   0.232   1.504 -0.0731  0.0948 -0.0436
 1715TIP3    H2 5110   1.021   0.167   1.571  0.8694 -0.6039  0.9839
 1716TIP3   OH2 5111   3.976   6.224   4.086 -0.3542  0.3537  0.0290
 1716TIP3    H1 5112   4.041   6.180   4.140 -0.7068 -0.1879  0.0173
 1716TIP3    H2 5113   3.917   6.266   4.149 -0.0842  0.7277  0.0408
 1717TIP3   OH2 5114   7.196   3.667   3.371  0.6670 -0.3017  0.0681
 1717TIP3    H1 5115   7.172   3.690   3.461  1.2639 -0.4872  0.2765
 1717TIP3    H2 5116   7.262   3.732   3.346 -0.8932  0.9865 -0.9479
 1718TIP3   OH2 5117   2.067   1.897   5.811  0.5848 -0.0920 -0.3693
 1718TIP3    H1 5118   2.122   1.871   5.884  0.6253 -0.1148 -0.4085
 1718TIP3    H2 5119   2.073   1.993   5.810 -0.1858 -0.0191  0.2676
 1719TIP3   OH2 5120   5.162   4.429   1.858 -0.0473 -0.1389 -0.5097
 1719TIP3    H1 5121   5.180   4.514   1.899 -0.2316  0.3907 -1.4986
 1719TIP3    H2 5122   5.158   4.448   1.765  1.2909 -1.4761 -0.8706
 1720TIP3   OH2 5123   5.991   1.990   1.759  0.0523 -0.1625  0.6043
 1720TIP3    H1 5124   6.005   1.917   1.699 -1.0222  0.8484 -0.9736
 1720TIP3    H2 5125   5.896   2.002   1.761  0.2255  2.4601 -0.9289
 1721TIP3   OH2 5126   1.694   0.639   4.412 -0.2398  0.7198  0.1476
 1721TIP3    H1 5127   1.695   0.674   4.323 -0.0213  0.3363 -0.0059
 1721TIP3    H2 5128   1.678   0.714   4.468  0.2363  1.0591 -0.1699
 1722TIP3   OH2 5129   1.248   0.231   3.347 -0.0580 -0.0628 -0.1248
 1722TIP3    H1 5130   1.215   0.203   3.432 -0.5056  2.1741  0.4985
 1722TIP3    H2 5131   1.227   0.158   3.288  0.2821 -1.6747  1.6333
 1723TIP3   OH2 5132   5.971   1.576   1.886 -0.3929  0.2337  0.0549
 1723TIP3    H1 5133   5.895   1.627   1.855  0.3923  1.7521  0.5007
 1723TIP3    H2 5134   6.033   1.643   1.915  0.2971 -1.0387  1.6180
 1724TIP3   OH2 5135   5.062   2.494   5.071  0.4991 -0.0684  0.7377
 1724TIP3    H1 5136   5.080   2.419   5.128  2.2502  0.8659  1.4904
 1724TIP3    H2 5137   5.130   2.558   5.093  0.1854  1.0122 -1.1954
 1725TIP3   OH2 5138   3.019   0.657   1.169 -0.5723  0.2573 -1.1138
 1725TIP3    H1 5139   3.047   0.681   1.080 -0.8478  0.7421 -1.0759
 1725TIP3    H2 5140   3.072   0.712   1.226 -0.9726  0.5385 -1.0108
 1726TIP3   OH2 5141   6.173   3.781   4.624 -0.3644  0.3912 -0.4712
 1726TIP3    H1 5142   6.084   3.801   4.595 -0.4606 -0.2277 -0.6112
 1726TIP3    H2 5143   6.186   3.839   4.699 -0.3212  1.5715 -1.3747
 1727TIP3   OH2 5144   2.199   3.029   1.384 -0.4926  0.3207  0.0849
 1727TIP3    H1 5145   2.253   2.957   1.351  1.2527  1.1489  1.0050
 1727TIP3    H2 5146   2.243   3.058   1.464 -1.5232  1.9723  0.1085
 1728TIP3   OH2 5147   5.526   2.440   4.903 -0.0855 -0.3706  0.4308
 1728TIP3    H1 5148   5.610   2.462   4.864  0.1851 -1.8396  0.1137
 1728TIP3    H2 5149   5.466   2.507   4.870  0.2549 -1.2132 -2.1274
 1729TIP3   OH2 5150   5.006   2.180   0.974  0.2722 -0.2276 -0.3304
 1729TIP3    H1 5151   5.085   2.230   0.957  0.0291  0.8920  1.5526
 1729TIP3    H2 5152   5.036   2.098   1.014  0.5657 -0.7970 -1.6731
 1730TIP3   OH2 5153   3.410   0.892   1.502  0.0871 -0.0401  0.3303
 1730TIP3    H1 5154   3.466   0.950   1.450 -0.1212  0.6449  0.8410
 1730TIP3    H2 5155   3.472   0.839   1.553  0.2807  0.4868  0.6535
 1731TIP3   OH2 5156   1.031   1.547   4.742  0.1658 -0.4981 -0.5137
 1731TIP3    H1 5157   1.069   1.526   4.656  2.0073 -0.4913  0.2537
 1731TIP3    H2 5158   1.027   1.642   4.743 -1.7026 -0.5134 -1.2998
 1732TIP3   OH2 5159   5.716   6.422   2.466 -0.1766  0.3350  0.1005
 1732TIP3    H1 5160   5.632   6.409   2.421  0.0178  1.0371 -0.4902
 1732TIP3    H2 5161   5.723   6.348   2.526 -1.2388  0.2902  0.1861
 1733TIP3   OH2 5162   0.490   5.916   1.772  0.3635  0.2281  0.3416
 1733TIP3    H1 5163   0.457   6.003   1.751 -0.2703 -0.0198  0.2829
 1733TIP3    H2 5164   0.565   5.904   1.712  0.0441  0.4693 -0.1103
 1734TIP3   OH2 5165   5.936   4.440   3.548  0.4243 -0.2682 -0.2287
 1734TIP3    H1 5166   5.914   4.347   3.556  1.3384 -0.4768 -0.0111
 1734TIP3    H2 5167   5.875   4.474   3.484  0.4865 -1.1645 -0.7763
 1735TIP3   OH2 5168   5.142   2.822   0.838 -0.3995 -0.1326 -0.3587
 1735TIP3    H1 5169   5.228   2.782   0.822 -0.2402  0.7276 -1.7803
 1735TIP3    H2 5170   5.126   2.877   0.762 -1.2806  1.3678  0.8422
 1736TIP3   OH2 5171   2.607   3.662   0.401 -0.0470  0.3606  0.3247
 1736TIP3    H1 5172   2.671   3.672   0.331  0.5411  0.2204  0.8356
 1736TIP3    H2 5173   2.557   3.584   0.376  0.4600  0.0397  0.2903
 1737TIP3   OH2 5174   5.472   2.983   5.309 -0.1876 -0.1116 -0.3912
 1737TIP3    H1 5175   5.536   2.913   5.317 -0.5167 -0.4203 -0.3945
 1737TIP3    H2 5176   5.523   3.063   5.305  0.1772 -0.3073  0.1747
 1738TIP3   OH2 5177   0.016   3.958   2.537 -0.0483  0.1422  0.2397
 1738TIP3    H1 5178   0.058   4.043   2.533 -1.4452  0.8448 -0.4380
 1738TIP3    H2 5179   0.016   3.935   2.630  1.5987  0.1933  0.2713
 1739TIP3   OH2 5180   3.902   1.459   2.200  1.3595 -0.0773 -0.8421
 1739TIP3    H1 5181   3.930   1.425   2.285 -1.8492 -1.3704 -0.1370
 1739TIP3    H2 5182   3.841   1.393   2.167 -0.9601  2.4484 -2.0091
 1740TIP3   OH2 5183   6.368   0.652   4.530 -0.6377  0.7304  0.2875
 1740TIP3    H1 5184   6.458   0.619   4.526 -0.5966  0.6759  1.4238
 1740TIP3    H2 5185   6.376   0.746   4.514 -0.1642  1.0195  2.0378
 1741TIP3   OH2 5186   7.010   5.154   0.464 -0.1752 -0.4587 -0.8156
 1741TIP3    H1 5187   6.976   5.178   0.378 -1.6626  1.5013  0.2399
 1741TIP3    H2 5188   6.936   5.115   0.509  0.8138 -2.2177 -0.6449
 1742TIP3   OH2 5189   1.669   1.742   2.184  0.0851  0.0470  0.1327
 1742TIP3    H1 5190   1.655   1.649   2.168  0.7443 -0.3416  1.6152
 1742TIP3    H2 5191   1.623   1.786   2.112 -2.2382 -1.3220  0.6776
 1743TIP3   OH2 5192   3.278   2.384   4.602 -0.3727  0.1416  0.4907
 1743TIP3    H1 5193   3.344   2.385   4.533 -0.2114  0.6961  0.6492
 1743TIP3    H2 5194   3.253   2.475   4.612 -2.2841 -0.1963 -0.6235
 1744TIP3   OH2 5195   6.863   3.726   3.742  0.4986 -0.6370 -0.1845
 1744TIP3    H1 5196   6.817   3.706   3.824  2.3926  2.4188  1.8542
 1744TIP3    H2 5197   6.821   3.671   3.676 -3.8176 -0.4220  2.0461
 1745TIP3   OH2 5198   3.533   2.339   5.313  0.2311  0.3680 -0.1476
 1745TIP3    H1 5199   3.478   2.274   5.356  1.2808 -1.1140 -0.9411
 1745TIP3    H2 5200   3.527   2.417   5.369 -1.2565 -0.3110  0.6995
 1746TIP3   OH2 5201   6.222   2.582   4.372  0.4966  0.0569  0.6364
 1746TIP3    H1 5202   6.232   2.575   4.277  1.0147 -1.0778  0.7558
 1746TIP3    H2 5203   6.272   2.660   4.396  0.6726  0.1373  0.0145
 1747TIP3   OH2 5204   3.548   3.497   2.969  0.6413  0.1175 -0.4092
 1747TIP3    H1 5205   3.535   3.402   2.959  2.1854 -0.4469  2.1437
 1747TIP3    H2 5206   3.641   3.510   2.950  0.6540  0.9499  0.2098
 1748TIP3   OH2 5207   0.500   5.335   1.011  0.3315 -0.2447 -0.1487
 1748TIP3    H1 5208   0.437   5.335   1.083 -0.6886 -0.3809 -1.0196
 1748TIP3    H2 5209   0.574   5.387   1.044 -0.3056  0.0678  0.8278
 1749TIP3   OH2 5210   5.945   5.271   1.905  0.5176  0.3592 -0.0416
 1749TIP3    H1 5211   6.001   5.340   1.943  1.4471 -0.6262  0.4267
 1749TIP3    H2 5212   5.857   5.308   1.908  0.3986  0.1592  3.6226
 1750TIP3   OH2 5213   0.587   1.566   5.805 -0.1863 -0.4612 -0.0221
 1750TIP3    H1 5214   0.574   1.659   5.786 -0.5409 -0.5642 -0.2688
 1750TIP3    H2 5215   0.679   1.550   5.783  0.2287  0.1296  1.2259
 1751TIP3   OH2 5216   0.386   6.132   1.685 -0.5042 -0.0944 -0.0384
 1751TIP3    H1 5217   0.364   6.223   1.704 -2.1809 -0.8024  1.7618
 1751TIP3    H2 5218   0.396   6.129   1.590 -2.3286  1.5991 -0.3513
 1752TIP3   OH2 5219   5.716   4.331   1.995  0.1497 -0.0791  0.2494
 1752TIP3    H1 5220   5.635   4.379   2.012  0.5053  0.7343 -0.3015
 1752TIP3    H2 5221   5.768   4.343   2.075  0.4334  0.8785 -0.0640
 1753TIP3   OH2 5222   0.195   6.134   1.362  0.2721  0.0969 -0.3319
 1753TIP3    H1 5223   0.128   6.072   1.391  0.8800 -0.6101 -0.4237
 1753TIP3    H2 5224   0.185   6.210   1.420 -0.9949  0.2573 -0.7252
 1754TIP3   OH2 5225   4.968   4.293   2.363 -0.4731  0.0963  0.5808
 1754TIP3    H1 5226   4.939   4.258   2.448 -1.0494 -0.1442  0.2878
 1754TIP3    H2 5227   5.033   4.359   2.386  0.6210 -1.1346  1.1558
 1755TIP3   OH2 5228   0.699   4.086   3.078 -0.4405 -0.0137  0.2130
 1755TIP3    H1 5229   0.686   4.034   3.157  0.2063  1.0849  1.0627
 1755TIP3    H2 5230   0.757   4.033   3.024  1.5196  0.4648  1.7563
 1756TIP3   OH2 5231   4.557   4.423   3.860  0.7418 -0.1386  0.0916
 1756TIP3    H1 5232   4.544   4.378   3.776 -1.2916  1.4036 -0.5060
 1756TIP3    H2 5233   4.640   4.469   3.850  0.8859 -0.5621 -0.8100
 1757TIP3   OH2 5234   2.261   6.021   2.450  0.2381 -0.0315 -0.0981
 1757TIP3    H1 5235   2.244   5.995   2.359  0.5598 -0.1524 -0.1258
 1757TIP3    H2 5236   2.348   6.060   2.448 -0.1381  0.8359 -0.0076
 1758TIP3   OH2 5237   3.254   0.371   0.713 -0.2336  0.0347 -0.3590
 1758TIP3    H1 5238   3.258   0.461   0.747  0.5610 -0.3665  0.6973
 1758TIP3    H2 5239   3.162   0.347   0.720 -0.1780  0.1445  1.1379
 1759TIP3   OH2 5240   4.864   3.839   5.689 -0.1263 -0.1765 -0.5497
 1759TIP3    H1 5241   4.915   3.829   5.608 -0.8148 -1.2663 -0.8842
 1759TIP3    H2 5242   4.928   3.827   5.759  0.6349  1.5792 -0.8913
 1760TIP3   OH2 5243   6.745   0.028   4.644  0.2337 -0.0746 -0.1137
 1760TIP3    H1 5244   6.718  -0.031   4.574 -0.3206  1.3407 -1.1536
 1760TIP3    H2 5245   6.714   0.114   4.616  2.3261  0.9816  0.5812
 1761TIP3   OH2 5246   5.403   5.599   1.065 -0.3077  0.5118 -0.3326
 1761TIP3    H1 5247   5.468   5.531   1.046 -0.5092  0.0342  0.5771
 1761TIP3    H2 5248   5.321   5.551   1.074 -0.6845  1.0422 -0.9403
 1762TIP3   OH2 5249   1.185   5.887   4.225 -0.0244 -0.0245  0.6747
 1762TIP3    H1 5250   1.262   5.898   4.169 -0.1654 -0.4417  0.3947
 1762TIP3    H2 5251   1.141   5.972   4.222 -0.8154 -0.4492 -1.0364
 1763TIP3   OH2 5252   5.000   4.407   2.805 -0.4824  0.1132 -0.0115
 1763TIP3    H1 5253   5.002   4.344   2.733 -0.0797  0.8942 -0.6939
 1763TIP3    H2 5254   4.906   4.416   2.825 -0.5362 -0.8246  0.2212
 1764TIP3   OH2 5255   3.020   6.005   0.165  0.2885 -0.0648 -0.0402
 1764TIP3    H1 5256   2.971   5.955   0.100  0.5188  0.7481 -0.8541
 1764TIP3    H2 5257   3.008   6.097   0.140  1.2964  0.2029  0.4070
 1765TIP3   OH2 5258   5.125   6.038   3.500 -0.1231 -0.4690  0.3299
 1765TIP3    H1 5259   5.056   6.039   3.566 -0.7377 -0.4658 -0.3012
 1765TIP3    H2 5260   5.183   6.110   3.523 -0.9034  0.1844  0.2672
 1766TIP3   OH2 5261   0.454   0.997   3.725 -0.1196  0.2492 -0.0111
 1766TIP3    H1 5262   0.450   0.938   3.800 -0.9380 -0.6525 -0.7231
 1766TIP3    H2 5263   0.539   0.978   3.684 -0.1715 -0.0961  0.0369
 1767TIP3   OH2 5264   6.477   1.092   1.912  0.9691  0.3185  0.3014
 1767TIP3    H1 5265   6.410   1.117   1.848  0.0751 -0.8436  0.7417
 1767TIP3    H2 5266   6.458   1.144   1.990 -0.8912 -1.5948  1.2216
 1768TIP3   OH2 5267   4.595   6.090   2.436 -0.9809 -0.1109  0.1112
 1768TIP3    H1 5268   4.563   6.180   2.444  0.9524  0.5799  0.5758
 1768TIP3    H2 5269   4.602   6.060   2.527  1.2247  0.3793  0.1561
 1769TIP3   OH2 5270   6.420   4.422   5.466  0.1138  0.0516 -0.2640
 1769TIP3    H1 5271   6.446   4.475   5.391  3.7456 -1.3876 -0.1992
 1769TIP3    H2 5272   6.452   4.335   5.447 -0.2804 -0.7447  2.2694
 1770TIP3   OH2 5273   4.567   3.300   0.382  0.2688 -0.5456 -0.4711
 1770TIP3    H1 5274   4.547   3.392   0.361 -0.9105 -0.1998  1.8212
 1770TIP3    H2 5275   4.611   3.267   0.304 -0.3284  1.6317 -1.8360
 1771TIP3   OH2 5276   1.530   6.748   5.522  0.2596  0.2085 -0.1250
 1771TIP3    H1 5277   1.570   6.831   5.498  0.0540  0.0823 -0.9189
 1771TIP3    H2 5278   1.584   6.715   5.594  1.0963  0.4225 -0.6500
 1772TIP3   OH2 5279   0.519   4.988   5.350  0.0164  0.0750 -0.2909
 1772TIP3    H1 5280   0.598   4.979   5.297  0.4303 -1.6361  0.5349
 1772TIP3    H2 5281   0.449   4.954   5.294  0.2651 -0.6330 -0.1880
 1773TIP3   OH2 5282   0.220   1.499   3.560  0.1095 -0.5284  0.1173
 1773TIP3    H1 5283   0.135   1.525   3.597 -0.9665 -0.5397 -2.1991
 1773TIP3    H2 5284   0.264   1.582   3.542 -1.2340 -0.3225 -2.5997
 1774TIP3   OH2 5285   6.353   3.422   4.824  0.7234 -0.7232 -0.0106
 1774TIP3    H1 5286   6.329   3.341   4.780  1.3165 -1.0177  0.1925
 1774TIP3    H2 5287   6.363   3.486   4.754  0.3312 -0.8491 -0.1782
 1775TIP3   OH2 5288   5.614   6.405   1.623  0.0955 -0.4757  0.2082
 1775TIP3    H1 5289   5.550   6.477   1.622 -0.8686 -1.3126  0.2396
 1775TIP3    H2 5290   5.616   6.376   1.714  0.8142 -0.2212  0.2822
 1776TIP3   OH2 5291   3.334   0.837   4.518 -0.2346 -0.3524  0.5432
 1776TIP3    H1 5292   3.407   0.824   4.579 -0.8354 -0.7339  1.1968
 1776TIP3    H2 5293   3.375   0.873   4.439  0.6193 -0.2847  1.0030
 1777TIP3   OH2 5294   0.160   0.966   4.612  0.2443 -0.3991 -0.1417
 1777TIP3    H1 5295   0.094   0.919   4.663 -0.8683  0.3144 -0.8815
 1777TIP3    H2 5296   0.204   1.022   4.675 -2.6689  2.2428 -0.1945
 1778TIP3   OH2 5297   4.543   4.504   5.172 -0.1366  0.4103  0.4410
 1778TIP3    H1 5298   4.474   4.438   5.183 -0.8778  0.7246 -1.7935
 1778TIP3    H2 5299   4.499   4.587   5.189 -0.1143  0.5512 -0.1672
 1779TIP3   OH2 5300   3.685   5.160   2.320  0.3513 -0.1026 -0.2936
 1779TIP3    H1 5301   3.728   5.230   2.368 -0.7570 -0.2471  0.9361
 1779TIP3    H2 5302   3.657   5.201   2.238 -0.2824  0.8883  0.4055
 1780TIP3   OH2 5303   4.698   3.614   3.454  0.4788  0.0639 -0.0180
 1780TIP3    H1 5304   4.709   3.527   3.491  0.9125  0.0882 -0.0838
 1780TIP3    H2 5305   4.610   3.613   3.415  0.5000 -0.3548 -0.0588
 1781TIP3   OH2 5306   6.171   5.202   1.401 -0.1816 -0.1667  0.4101
 1781TIP3    H1 5307   6.126   5.286   1.406  0.6988  0.4912 -1.5938
 1781TIP3    H2 5308   6.250   5.220   1.350  0.7478 -1.9419  1.1214
 1782TIP3   OH2 5309   6.711   1.646   4.251 -0.1419  0.2771 -0.0755
 1782TIP3    H1 5310   6.800   1.610   4.248  0.3020  1.1586  1.4432
 1782TIP3    H2 5311   6.704   1.698   4.171  0.3810 -0.4969 -0.6464
 1783TIP3   OH2 5312   4.041   5.218   4.541  0.2589  0.2223 -0.6276
 1783TIP3    H1 5313   4.055   5.288   4.605  2.4171 -0.1845 -0.5922
 1783TIP3    H2 5314   3.956   5.181   4.565  1.0104  0.0326  2.0902
 1784TIP3   OH2 5315   0.991   5.062   3.989  0.0683  0.4138  0.0558
 1784TIP3    H1 5316   0.992   5.151   4.025 -1.2542 -0.2500  1.8590
 1784TIP3    H2 5317   1.083   5.046   3.966  0.4671  1.9586  0.4025
 1785TIP3   OH2 5318   6.492   5.309   1.606 -0.2746  0.2359 -0.0079
 1785TIP3    H1 5319   6.477   5.229   1.556 -0.5945 -1.5209  2.6686
 1785TIP3    H2 5320   6.413   5.361   1.591 -1.5851 -1.4297  0.6505
 1786TIP3   OH2 5321   2.715   5.480   4.143  0.0412  0.2592 -0.2064
 1786TIP3    H1 5322   2.682   5.533   4.216 -1.3846 -0.6615 -0.1389
 1786TIP3    H2 5323   2.702   5.390   4.172 -0.7546 -0.1224 -1.6835
 1787TIP3   OH2 5324   1.033   0.435   3.032  0.2850 -0.2478  0.4952
 1787TIP3    H1 5325   1.027   0.436   2.936 -0.2277 -0.4388  0.5221
 1787TIP3    H2 5326   1.003   0.522   3.059 -3.1632 -1.3478  0.6547
 1788TIP3   OH2 5327   2.455   3.061   1.540 -0.4252 -0.2727  0.3762
 1788TIP3    H1 5328   2.521   3.076   1.607  0.1663 -0.3377 -0.1862
 1788TIP3    H2 5329   2.469   2.970   1.512  1.5485  0.6789 -2.1616
 1789TIP3   OH2 5330   3.619   6.025   0.317  0.5631 -0.2938 -0.0703
 1789TIP3    H1 5331   3.618   6.081   0.395 -0.0217 -1.8361  1.0959
 1789TIP3    H2 5332   3.703   6.043   0.276  1.3566 -0.2028  1.5177
 1790TIP3   OH2 5333   6.418   4.205   3.010  0.2481  0.3730  0.0096
 1790TIP3    H1 5334   6.504   4.246   3.000  1.7215 -2.1060  1.4531
 1790TIP3    H2 5335   6.412   4.187   3.104 -1.8998  0.5081 -0.0611
 1791TIP3   OH2 5336   5.024   0.952   2.433  0.2476 -0.0440  0.8654
 1791TIP3    H1 5337   4.931   0.932   2.447  0.0535  1.0598  1.2057
 1791TIP3    H2 5338   5.066   0.930   2.516  0.3228 -0.7014  0.6571
 1792TIP3   OH2 5339   6.767   1.677   1.280  0.0012  0.0719 -0.0636
 1792TIP3    H1 5340   6.804   1.747   1.332  0.6224 -0.3457  0.0678
 1792TIP3    H2 5341   6.817   1.678   1.199 -0.2205  0.0020 -0.2044
 1793TIP3   OH2 5342   5.097   5.342   3.351 -0.0769 -0.6029  0.2397
 1793TIP3    H1 5343   5.173   5.325   3.295 -0.0413 -0.8229  0.3532
 1793TIP3    H2 5344   5.104   5.277   3.421  1.3803  1.3281  2.0188
 1794TIP3   OH2 5345   2.872   3.334   4.024 -0.3112  0.2383 -0.0962
 1794TIP3    H1 5346   2.800   3.341   4.087  0.5565 -0.6371  1.0377
 1794TIP3    H2 5347   2.923   3.259   4.055  3.0074  2.7766  1.1961
 1795TIP3   OH2 5348   0.276   1.162   2.865  0.2328 -0.1322  0.2139
 1795TIP3    H1 5349   0.243   1.204   2.785  1.8674  0.2343 -0.3049
 1795TIP3    H2 5350   0.294   1.072   2.839  0.7863 -0.0073  0.1611
 1796TIP3   OH2 5351   6.649   5.567   2.712  0.3528 -0.3593  0.5270
 1796TIP3    H1 5352   6.617   5.545   2.624 -1.1432 -0.3769  1.0515
 1796TIP3    H2 5353   6.735   5.605   2.697  0.0352 -0.1794 -0.9764
 1797TIP3   OH2 5354   6.418   0.635   2.996  0.4809 -0.1759 -0.0253
 1797TIP3    H1 5355   6.345   0.685   2.959  1.4701  0.4512 -1.2279
 1797TIP3    H2 5356   6.482   0.701   3.022  1.3412 -0.7538 -0.6086
 1798TIP3   OH2 5357   2.016   1.298   2.359 -0.1441  0.0788  0.5417
 1798TIP3    H1 5358   2.086   1.233   2.354 -0.7650 -0.6213  0.9331
 1798TIP3    H2 5359   2.057   1.379   2.326  0.8867 -0.2829  0.8820
 1799TIP3   OH2 5360   2.269   3.597   0.355  0.0914  0.2114 -0.2005
 1799TIP3    H1 5361   2.359   3.574   0.333  0.6428  0.9698  1.1326
 1799TIP3    H2 5362   2.276   3.647   0.436 -1.4150  1.3807 -0.7226
 1800TIP3   OH2 5363   4.079   0.750   0.778 -0.3737 -0.1624  0.1852
 1800TIP3    H1 5364   4.100   0.833   0.735  0.3064 -0.3126  0.2197
 1800TIP3    H2 5365   4.147   0.740   0.845  0.1165 -1.2062 -0.4409
 1801TIP3   OH2 5366   4.171   5.786   5.223 -0.0664 -0.2196  0.2638
 1801TIP3    H1 5367   4.102   5.853   5.222  0.6546  0.5273  0.1903
 1801TIP3    H2 5368   4.132   5.713   5.273  0.0466  1.2285  2.6368
 1802TIP3   OH2 5369   4.501   2.559   3.956  0.1186 -0.3647 -0.3149
 1802TIP3    H1 5370   4.562   2.556   3.882  2.6420  0.7133  1.5980
 1802TIP3    H2 5371   4.530   2.489   4.014 -0.7644 -0.1076  0.4607
 1803TIP3   OH2 5372   0.851   5.211   2.417 -0.3779  0.6776  0.0570
 1803TIP3    H1 5373   0.825   5.238   2.505  1.2550  1.2903  0.3834
 1803TIP3    H2 5374   0.839   5.116   2.416 -0.3146  0.6492  0.9879
 1804TIP3   OH2 5375   5.568   2.678   2.967  0.1854  0.2963 -0.1923
 1804TIP3    H1 5376   5.627   2.684   2.891  1.4469 -3.0453  0.3613
 1804TIP3    H2 5377   5.508   2.607   2.945 -1.0028  0.8927  0.9866
 1805TIP3   OH2 5378   5.795   5.955   1.990  0.0698 -0.3148 -0.0100
 1805TIP3    H1 5379   5.723   6.014   1.971 -2.0475 -2.1704  1.6929
 1805TIP3    H2 5380   5.830   5.931   1.904 -0.4882  1.5771 -0.8156
 1806TIP3   OH2 5381   5.601   0.408   4.951 -0.0030 -0.1523 -0.5369
 1806TIP3    H1 5382   5.662   0.433   4.882 -2.4908  1.8237 -2.1814
 1806TIP3    H2 5383   5.569   0.490   4.986  1.5290 -1.0661  3.5037
 1807TIP3   OH2 5384   2.922   2.140   2.663  0.0107  0.2905 -0.1267
 1807TIP3    H1 5385   2.868   2.214   2.693  1.5288  0.9500  1.1419
 1807TIP3    H2 5386   2.986   2.181   2.605  0.6037 -0.0957  0.2556
 1808TIP3   OH2 5387   1.225   4.689   0.026 -0.6122 -0.5691  0.0761
 1808TIP3    H1 5388   1.239   4.638   0.106 -3.5014 -2.6633 -0.6150
 1808TIP3    H2 5389   1.286   4.651  -0.037 -0.1759 -0.6848  0.5547
 1809TIP3   OH2 5390   0.371   4.958   2.267 -0.5553  0.3357 -0.3674
 1809TIP3    H1 5391   0.392   5.019   2.338  1.7828 -0.3630 -0.3602
 1809TIP3    H2 5392   0.331   4.883   2.312  1.0026 -0.1501  0.3182
 1810TIP3   OH2 5393   0.843   1.559   1.010 -0.3882  0.2585  0.1979
 1810TIP3    H1 5394   0.826   1.474   0.970 -2.4768  0.2715  0.9361
 1810TIP3    H2 5395   0.884   1.611   0.941  1.6903 -1.5415 -0.0348
 1811TIP3   OH2 5396   2.942   1.799   4.082  0.5870  0.0204  0.2853
 1811TIP3    H1 5397   3.009   1.746   4.038 -0.2671  0.1285 -1.2495
 1811TIP3    H2 5398   2.943   1.882   4.034 -0.9454 -0.1559 -0.1025
 1812TIP3   OH2 5399   1.953   1.512   3.858 -0.1144  0.3981  0.1724
 1812TIP3    H1 5400   2.002   1.444   3.812 -1.2198  0.3464 -0.9880
 1812TIP3    H2 5401   1.868   1.473   3.876 -1.5739  2.0546 -2.4031
 1813TIP3   OH2 5402   0.976   6.535   2.707  0.1725 -0.1327  0.6167
 1813TIP3    H1 5403   0.965   6.584   2.626  1.5963 -1.7186 -0.6320
 1813TIP3    H2 5404   1.025   6.593   2.765 -1.2337  1.1789  0.5457
 1814TIP3   OH2 5405   3.030   1.300   0.628 -0.1075 -0.3526  0.4722
 1814TIP3    H1 5406   2.946   1.293   0.584  1.6251  1.2577 -3.6081
 1814TIP3    H2 5407   3.022   1.378   0.683 -1.2168 -0.1079 -0.0102
 1815TIP3   OH2 5408   0.034   5.088   5.059  0.1819 -0.0956 -0.1361
 1815TIP3    H1 5409  -0.038   5.033   5.091  1.9906 -1.3615  2.0773
 1815TIP3    H2 5410   0.060   5.140   5.135  2.7996 -1.0721 -0.2705
 1816TIP3   OH2 5411   0.776   5.344   0.861 -0.0362  0.1545  0.0678
 1816TIP3    H1 5412   0.855   5.311   0.904 -1.1499 -3.6205 -0.4021
 1816TIP3    H2 5413   0.725   5.384   0.932  0.6999 -0.7411  1.1392
 1817TIP3   OH2 5414   4.664   5.276   4.736 -0.5659  0.0992 -0.4006
 1817TIP3    H1 5415   4.612   5.206   4.775 -1.8377  2.4422  2.5327
 1817TIP3    H2 5416   4.602   5.347   4.721  0.9881  1.2985 -1.5156
 1818TIP3   OH2 5417   2.136   2.500   1.379 -0.2984  0.1459  0.2449
 1818TIP3    H1 5418   2.184   2.563   1.433  0.5644 -0.6847  0.4807
 1818TIP3    H2 5419   2.200   2.431   1.361 -1.1901 -0.6130 -0.0924
 1819TIP3   OH2 5420   1.661   5.659   2.459  0.1638  0.3183  0.4627
 1819TIP3    H1 5421   1.741   5.646   2.510  0.0437  1.0869  0.8545
 1819TIP3    H2 5422   1.605   5.712   2.515  0.4935  2.2191 -0.9170
 1820TIP3   OH2 5423   3.366   2.623   0.819 -0.1508 -0.0784 -0.2525
 1820TIP3    H1 5424   3.394   2.648   0.731  0.8153  1.1975  0.3872
 1820TIP3    H2 5425   3.444   2.634   0.873 -1.8056  4.0043  1.6894
 1821TIP3   OH2 5426   6.677   6.464   0.405 -0.4344 -0.3810 -0.3414
 1821TIP3    H1 5427   6.747   6.494   0.348 -0.3435 -0.6616 -0.3801
 1821TIP3    H2 5428   6.687   6.515   0.485 -0.7713  0.2577 -0.7033
 1822TIP3   OH2 5429   0.870   2.155   3.497 -0.9901  0.4698  0.1263
 1822TIP3    H1 5430   0.894   2.247   3.511  0.6706 -0.2371  2.5593
 1822TIP3    H2 5431   0.945   2.117   3.451 -0.9951  0.0078  0.4957
 1823TIP3   OH2 5432   2.036   6.021   4.159 -0.0824 -0.2022  0.0561
 1823TIP3    H1 5433   2.009   6.105   4.194  1.8190 -0.8292  3.5636
 1823TIP3    H2 5434   1.969   5.959   4.190  0.2383 -0.4015  0.3653
 1824TIP3   OH2 5435   3.803   2.439   0.866  0.0858  0.5871 -0.1480
 1824TIP3    H1 5436   3.881   2.394   0.897  0.4643  1.3869  0.0986
 1824TIP3    H2 5437   3.753   2.372   0.819  1.7097  0.4515 -1.7670
 1825TIP3   OH2 5438   2.000   4.283   2.677 -0.3349  0.3828  0.1990
 1825TIP3    H1 5439   2.012   4.349   2.745 -0.9580  0.1969  0.5011
 1825TIP3    H2 5440   1.910   4.253   2.689 -0.5055  0.4568 -0.8078
 1826TIP3   OH2 5441   2.230   5.186   1.797 -0.5647 -0.4760 -0.2589
 1826TIP3    H1 5442   2.193   5.133   1.726  1.0701 -1.2309 -0.6068
 1826TIP3    H2 5443   2.192   5.150   1.877 -1.3409 -0.5621 -0.6578
 1827TIP3   OH2 5444   4.660   4.756   3.103  0.4342  0.8385 -0.5152
 1827TIP3    H1 5445   4.679   4.832   3.158 -0.3433  0.2754  0.5692
 1827TIP3    H2 5446   4.691   4.782   3.016  0.1386  2.4135 -0.1934
 1828TIP3   OH2 5447   4.451   5.860   1.741  0.0979  0.2173 -0.4729
 1828TIP3    H1 5448   4.356   5.875   1.747  0.2733  1.2705 -0.1383
 1828TIP3    H2 5449   4.482   5.928   1.681  0.9464  1.3504  1.1740
 1829TIP3   OH2 5450   5.386   2.681   4.831 -0.2157 -0.3634  0.2920
 1829TIP3    H1 5451   5.322   2.692   4.901  0.4975  0.7283  0.8056
 1829TIP3    H2 5452   5.395   2.769   4.793  0.5016 -0.6386 -0.1912
 1830TIP3   OH2 5453   1.812   3.224   3.941  0.6253 -0.0364 -0.1564
 1830TIP3    H1 5454   1.789   3.174   3.863 -0.8153  1.9238 -1.0528
 1830TIP3    H2 5455   1.747   3.197   4.007  0.8829 -0.5360 -0.0984
 1831TIP3   OH2 5456   5.474   1.563   0.299 -0.2914 -0.4138 -0.2118
 1831TIP3    H1 5457   5.511   1.520   0.222 -3.4473  0.7550 -2.5876
 1831TIP3    H2 5458   5.398   1.509   0.323 -1.7036  1.3415 -0.5096
 1832TIP3   OH2 5459   7.138   1.302   4.119 -0.2159  0.0770 -0.1185
 1832TIP3    H1 5460   7.206   1.244   4.151  0.6792  1.3545  0.3815
 1832TIP3    H2 5461   7.163   1.320   4.028 -0.6746 -0.5512 -0.3791
 1833TIP3   OH2 5462   6.058   5.549   0.669 -0.7032 -0.3519 -0.2415
 1833TIP3    H1 5463   5.965   5.567   0.651 -0.2864  0.8394 -1.3972
 1833TIP3    H2 5464   6.104   5.625   0.632  0.6483 -0.3427  1.3692
 1834TIP3   OH2 5465   6.908   5.543   1.018  0.3840  0.3463 -0.3998
 1834TIP3    H1 5466   6.998   5.510   1.026 -0.0045 -1.1763 -1.7116
 1834TIP3    H2 5467   6.858   5.490   1.081  0.4326  1.4193  0.5705
 1835TIP3   OH2 5468   3.175   5.572   1.849 -0.1589  0.2821 -0.0554
 1835TIP3    H1 5469   3.218   5.629   1.912 -1.9318  1.6515  0.0187
 1835TIP3    H2 5470   3.245   5.542   1.791  1.2291  0.3818  1.4913
 1836TIP3   OH2 5471   3.088   2.273   2.465  0.2598  0.1204 -0.0384
 1836TIP3    H1 5472   3.122   2.350   2.419  0.4004  0.3106  0.3805
 1836TIP3    H2 5473   3.006   2.253   2.420  0.4514  0.2365 -0.4455
 1837TIP3   OH2 5474   1.395   1.316   4.594 -0.3106 -0.5350  0.0600
 1837TIP3    H1 5475   1.431   1.376   4.659  0.3577  1.3149 -1.9042
 1837TIP3    H2 5476   1.320   1.362   4.557 -1.2286 -1.9331  0.0985
 1838TIP3   OH2 5477   2.302   2.807   5.049 -0.7785 -1.0199 -0.3904
 1838TIP3    H1 5478   2.227   2.752   5.025 -1.3056  0.3081 -1.9278
 1838TIP3    H2 5479   2.265   2.893   5.067  0.2175 -0.7257  0.3980
 1839TIP3   OH2 5480   3.056   1.785   1.933  0.1314  0.0538  0.2702
 1839TIP3    H1 5481   3.080   1.717   1.869 -1.8913 -0.3386 -0.1340
 1839TIP3    H2 5482   3.036   1.736   2.013  0.4266  0.3393  0.5197
 1840TIP3   OH2 5483   3.695   6.365   2.236  0.1100 -0.2276 -0.2404
 1840TIP3    H1 5484   3.652   6.387   2.153 -0.6447  0.4748  0.3193
 1840TIP3    H2 5485   3.702   6.448   2.282 -2.1613 -0.9799  1.6361
 1841TIP3   OH2 5486   7.073   2.610   4.229 -0.0498 -0.6574  0.3570
 1841TIP3    H1 5487   7.151   2.636   4.181  0.5441 -0.9902  1.1258
 1841TIP3    H2 5488   7.062   2.677   4.296 -0.0820 -0.9357  0.6291
 1842TIP3   OH2 5489   4.285   2.149   2.673 -0.1133  0.6967 -0.1301
 1842TIP3    H1 5490   4.204   2.190   2.642  1.3188  2.3053 -2.0857
 1842TIP3    H2 5491   4.352   2.183   2.614  1.9128 -1.0608  1.0232
 1843TIP3   OH2 5492   1.579   4.572   2.101  0.0821 -0.0323 -0.3864
 1843TIP3    H1 5493   1.634   4.582   2.179  1.3144 -0.6236 -1.1455
 1843TIP3    H2 5494   1.528   4.493   2.117  0.6276 -0.3787 -0.3445
 1844TIP3   OH2 5495   2.638   0.186   0.249 -0.1273 -0.1159 -0.3241
 1844TIP3    H1 5496   2.650   0.226   0.335 -3.1102 -1.2430  0.7340
 1844TIP3    H2 5497   2.726   0.155   0.225  0.9410  0.9252  1.9001
 1845TIP3   OH2 5498   4.618   0.698   1.343 -0.7035  0.6359  0.1447
 1845TIP3    H1 5499   4.543   0.743   1.382 -0.7314  0.5624  0.1760
 1845TIP3    H2 5500   4.692   0.757   1.360 -0.4880  0.0098  1.4442
 1846TIP3   OH2 5501   7.026   3.078   0.045 -0.6973 -0.0833  0.5415
 1846TIP3    H1 5502   7.000   3.022   0.118 -3.0875  1.3846  0.9630
 1846TIP3    H2 5503   7.023   3.021  -0.032  0.9389 -1.4318  1.4142
 1847TIP3   OH2 5504   6.556   3.522   5.693 -0.3010 -0.3844  0.1268
 1847TIP3    H1 5505   6.479   3.579   5.696 -0.0306 -0.0373  0.8951
 1847TIP3    H2 5506   6.581   3.512   5.785  0.5977 -0.4578 -0.1179
 1848TIP3   OH2 5507   0.715   0.992   3.683  0.5412  0.1602 -0.0241
 1848TIP3    H1 5508   0.796   0.940   3.691  0.3214 -0.3130 -0.8414
 1848TIP3    H2 5509   0.739   1.066   3.627  0.8752  1.0133  1.2040
 1849TIP3   OH2 5510   4.462   5.036   3.718 -0.5438 -0.2230 -0.3524
 1849TIP3    H1 5511   4.540   5.085   3.742 -0.5219 -0.3320 -0.1925
 1849TIP3    H2 5512   4.484   4.993   3.636 -0.0873 -1.0165  0.1677
 1850TIP3   OH2 5513   3.341   5.668   3.791 -0.2241  0.8529  0.1747
 1850TIP3    H1 5514   3.300   5.593   3.834 -0.4273 -0.2293 -1.8051
 1850TIP3    H2 5515   3.283   5.689   3.718  1.2822  1.1135 -0.9947
 1851TIP3   OH2 5516   0.776   1.170   1.759 -0.1572 -0.2238 -0.1784
 1851TIP3    H1 5517   0.832   1.106   1.715 -1.7372 -1.4557 -0.4795
 1851TIP3    H2 5518   0.836   1.222   1.812  1.7540  0.7842 -3.0701
 1852TIP3   OH2 5519   0.941   5.831   5.388 -1.1277  0.4528  0.0401
 1852TIP3    H1 5520   0.942   5.901   5.453 -0.4859 -0.7782  1.4151
 1852TIP3    H2 5521   0.859   5.784   5.406  0.4146 -1.7034  2.0809
 1853TIP3   OH2 5522   1.139   2.795   1.161  0.3894 -0.3455  0.5827
 1853TIP3    H1 5523   1.220   2.748   1.183 -0.2145 -1.1845  1.0717
 1853TIP3    H2 5524   1.112   2.757   1.077 -1.1640 -2.3907  1.9072
 1854TIP3   OH2 5525   5.328   6.676   5.600  0.1834 -0.2968  0.1071
 1854TIP3    H1 5526   5.276   6.597   5.594 -1.8808  0.9733  0.2680
 1854TIP3    H2 5527   5.359   6.678   5.691 -1.2884 -0.0430  0.6283
 1855TIP3   OH2 5528   3.030   1.742   2.488  0.1102 -0.0734  0.7664
 1855TIP3    H1 5529   3.086   1.789   2.426  0.6977  0.0852  1.4071
 1855TIP3    H2 5530   2.978   1.684   2.433 -0.6955  1.3617 -0.0640
 1856TIP3   OH2 5531   0.118   6.546   1.551 -0.2508 -0.5355  0.4636
 1856TIP3    H1 5532   0.137   6.620   1.608 -1.2432  0.0008  0.1201
 1856TIP3    H2 5533   0.191   6.545   1.488  0.1886 -0.3642  0.9615
 1857TIP3   OH2 5534   2.805   1.694   4.301 -0.7299  0.2031  0.2750
 1857TIP3    H1 5535   2.799   1.606   4.263  1.2002 -0.2683  0.9513
 1857TIP3    H2 5536   2.868   1.740   4.245 -1.1586  0.9094  0.3657
 1858TIP3   OH2 5537   4.785   4.949   4.374 -0.1460  0.4843  0.3706
 1858TIP3    H1 5538   4.811   4.885   4.441 -0.5746  0.2317  0.2942
 1858TIP3    H2 5539   4.775   5.031   4.422  0.1608  0.4412  0.5112
 1859TIP3   OH2 5540   2.414   1.816   0.409 -0.0152  0.0525 -0.3118
 1859TIP3    H1 5541   2.439   1.831   0.500  0.2333 -1.5092 -0.0857
 1859TIP3    H2 5542   2.481   1.860   0.358 -0.9778  2.2453  0.2105
 1860TIP3   OH2 5543   2.839   5.095   4.011 -0.3312 -0.4407 -0.0309
 1860TIP3    H1 5544   2.785   5.056   4.080 -0.8136  1.6754  0.8504
 1860TIP3    H2 5545   2.921   5.046   4.015 -0.2252 -0.1859  2.2707
 1861TIP3   OH2 5546   7.099   2.647   1.649 -0.9616  0.3875 -0.6672
 1861TIP3    H1 5547   7.105   2.742   1.658  0.5332  0.3292 -0.8628
 1861TIP3    H2 5548   7.100   2.614   1.739 -1.2030  0.5276 -0.6108
 1862TIP3   OH2 5549   3.673   2.343   3.121 -0.8336  0.1982  0.4013
 1862TIP3    H1 5550   3.710   2.256   3.136  0.6471  0.9518  1.4628
 1862TIP3    H2 5551   3.588   2.327   3.081 -0.2837 -1.7052 -0.1164
 1863TIP3   OH2 5552   2.797   5.416   4.653  0.5345 -0.3015 -0.4835
 1863TIP3    H1 5553   2.744   5.337   4.638  0.1606 -0.4357  1.3446
 1863TIP3    H2 5554   2.828   5.407   4.743 -0.5155  2.2155  0.1978
 1864TIP3   OH2 5555   2.771   6.429   0.003  0.2728  0.1440  0.5693
 1864TIP3    H1 5556   2.825   6.449   0.079 -0.1113  0.6608  0.7119
 1864TIP3    H2 5557   2.822   6.460  -0.072  0.2077  0.5569  0.6960
 1865TIP3   OH2 5558   5.229   3.545   0.384 -0.0561  0.1389  0.5131
 1865TIP3    H1 5559   5.166   3.538   0.456 -1.3177  2.8478 -0.1899
 1865TIP3    H2 5560   5.284   3.620   0.408 -1.0357  1.6342 -1.6179
 1866TIP3   OH2 5561   1.436   6.659   4.155 -0.2912 -0.7314  0.2996
 1866TIP3    H1 5562   1.508   6.722   4.158  0.6099 -1.7367  0.1929
 1866TIP3    H2 5563   1.357   6.714   4.156  0.4626  0.4189 -0.2408
 1867TIP3   OH2 5564   5.488   4.243   4.246 -0.0851  0.1366  0.1502
 1867TIP3    H1 5565   5.567   4.298   4.248  0.7228 -0.9982  0.0096
 1867TIP3    H2 5566   5.424   4.297   4.199  1.2440  0.2826 -1.6401
 1868TIP3   OH2 5567   1.472   6.301   1.823 -0.0513 -0.2966 -0.2115
 1868TIP3    H1 5568   1.450   6.299   1.916  1.1199 -0.0204  0.0893
 1868TIP3    H2 5569   1.567   6.293   1.821 -0.0880 -0.6029 -1.4048
 1869TIP3   OH2 5570   1.269   2.532   4.105 -0.0229 -0.2294 -0.1985
 1869TIP3    H1 5571   1.319   2.559   4.182 -0.9745 -2.2265  1.2493
 1869TIP3    H2 5572   1.333   2.524   4.035  1.1347  0.2548  0.7732
 1870TIP3   OH2 5573   0.519   0.972   5.060 -0.2791  0.0383  0.2333
 1870TIP3    H1 5574   0.603   1.011   5.083 -0.5910 -0.0703  1.7052
 1870TIP3    H2 5575   0.458   1.007   5.126 -1.1512 -0.7602 -0.1235
 1871TIP3   OH2 5576   1.226   6.330   0.002  0.1824  0.6409 -0.6852
 1871TIP3    H1 5577   1.286   6.256  -0.001  1.6147  1.7249  0.3592
 1871TIP3    H2 5578   1.220   6.354   0.094  1.0127  2.7950 -1.1249
 1872TIP3   OH2 5579   5.824   4.624   5.039 -0.2779  0.2660  0.6063
 1872TIP3    H1 5580   5.914   4.594   5.050 -0.1492 -0.0758 -1.0543
 1872TIP3    H2 5581   5.832   4.715   5.011 -0.4259  0.2017  0.3441
 1873TIP3   OH2 5582   2.453   4.148   2.760 -0.1538 -0.0426  0.8403
 1873TIP3    H1 5583   2.434   4.180   2.672 -1.4859 -0.9179  0.7809
 1873TIP3    H2 5584   2.414   4.213   2.819 -0.1732  0.0097  0.7693
 1874TIP3   OH2 5585   0.572   0.745   0.929  0.2824  0.1079  0.2318
 1874TIP3    H1 5586   0.586   0.833   0.893 -0.8907 -0.0954 -0.7735
 1874TIP3    H2 5587   0.539   0.694   0.855  2.4949 -1.6368  0.3512
 1875TIP3   OH2 5588   1.281   0.719   5.133  0.1108 -0.0117 -0.2386
 1875TIP3    H1 5589   1.270   0.639   5.081 -0.0935  0.4849 -0.9902
 1875TIP3    H2 5590   1.257   0.694   5.222  0.5103 -0.9010 -0.3686
 1876TIP3   OH2 5591   2.206   3.401   2.935  0.1828 -0.7036  0.5004
 1876TIP3    H1 5592   2.145   3.472   2.915 -1.4654 -1.5426  2.2751
 1876TIP3    H2 5593   2.267   3.440   2.997 -0.8462 -0.8614  1.6372
 1877TIP3   OH2 5594   0.701   5.810   4.109  0.1493  0.4869 -0.5938
 1877TIP3    H1 5595   0.672   5.899   4.091 -1.4851  0.2861  0.7928
 1877TIP3    H2 5596   0.711   5.807   4.204  1.7729 -0.3897 -0.7482
 1878TIP3   OH2 5597   4.918   3.009   2.870 -0.3422 -0.1877 -0.5573
 1878TIP3    H1 5598   4.937   2.941   2.935  0.1874 -1.6198 -2.1284
 1878TIP3    H2 5599   4.999   3.015   2.818 -0.6240  1.1869 -0.8665
 1879TIP3   OH2 5600   7.005   3.532   2.448 -0.1815  0.2488  0.2165
 1879TIP3    H1 5601   7.021   3.469   2.377 -1.3870 -2.4073  2.1105
 1879TIP3    H2 5602   6.957   3.603   2.407  0.2613 -0.5902 -1.8727
 1880TIP3   OH2 5603   0.353   5.992   5.057  0.0558  0.0628  0.3412
 1880TIP3    H1 5604   0.357   5.977   4.963 -0.3006  1.1745  0.1426
 1880TIP3    H2 5605   0.431   5.947   5.091 -0.5856 -1.6066 -0.2792
 1881TIP3   OH2 5606   5.760   6.547   3.003  0.3599 -0.4242  0.7028
 1881TIP3    H1 5607   5.810   6.511   3.076  1.3515 -0.0857  0.2167
 1881TIP3    H2 5608   5.668   6.532   3.026  0.6842 -1.0791  1.6127
 1882TIP3   OH2 5609   6.717   5.167   1.398  0.5622 -0.4283 -0.1955
 1882TIP3    H1 5610   6.701   5.128   1.484 -2.7492 -0.5140 -0.7080
 1882TIP3    H2 5611   6.728   5.092   1.339 -0.2397 -0.4999 -0.2777
 1883TIP3   OH2 5612   5.840   1.400   3.294 -0.4046 -0.4848 -0.4345
 1883TIP3    H1 5613   5.806   1.376   3.208 -0.2781 -1.9333 -0.1081
 1883TIP3    H2 5614   5.801   1.337   3.354  0.3446 -0.1629  0.4185
 1884TIP3   OH2 5615   2.767   3.822   1.374 -0.1618 -0.7241 -0.0374
 1884TIP3    H1 5616   2.798   3.806   1.463 -1.4268 -0.8119  0.4106
 1884TIP3    H2 5617   2.755   3.917   1.370 -0.3622 -0.7487 -0.0240
 1885TIP3   OH2 5618   2.173   6.549   0.552 -0.1298 -0.2146 -0.1761
 1885TIP3    H1 5619   2.103   6.607   0.583  0.9774  1.2613 -0.3190
 1885TIP3    H2 5620   2.208   6.508   0.631 -1.4830 -1.4134 -0.1497
 1886TIP3   OH2 5621   0.079   3.368   1.682  0.3778  0.1583 -0.4250
 1886TIP3    H1 5622   0.018   3.440   1.665  0.2550  0.0287 -0.5368
 1886TIP3    H2 5623   0.158   3.392   1.634  0.4083  0.3165 -0.2979
 1887TIP3   OH2 5624   6.371   3.158   4.162 -0.3482  0.1370 -0.2457
 1887TIP3    H1 5625   6.393   3.245   4.129  0.9154  0.0366  0.2777
 1887TIP3    H2 5626   6.323   3.174   4.243 -1.9234  0.3508 -1.1750
 1888TIP3   OH2 5627   5.105   2.235   0.552 -0.0350 -0.1640 -0.1222
 1888TIP3    H1 5628   5.119   2.323   0.588  0.6501 -0.6001  0.7126
 1888TIP3    H2 5629   5.062   2.187   0.623  1.6297 -1.1314  0.2813
 1889TIP3   OH2 5630   3.321   3.552   4.842 -0.0569 -0.0103  0.4643
 1889TIP3    H1 5631   3.247   3.516   4.794  1.8548 -2.9209 -0.5773
 1889TIP3    H2 5632   3.281   3.608   4.909 -3.3130 -2.8080  1.1448
 1890TIP3   OH2 5633   3.207   5.493   5.589  0.2251  0.0538 -0.2945
 1890TIP3    H1 5634   3.186   5.577   5.548  2.6772  0.2806 -1.2746
 1890TIP3    H2 5635   3.276   5.514   5.653  0.4552 -1.1183 -0.1358
 1891TIP3   OH2 5636   3.930   2.194   3.407  0.0206  0.0007 -0.3321
 1891TIP3    H1 5637   4.006   2.216   3.461 -1.0232  0.2444  1.0856
 1891TIP3    H2 5638   3.968   2.162   3.325  1.7217 -2.0102  1.1341
 1892TIP3   OH2 5639   3.654   5.211   0.062  0.1273  0.4107 -0.2391
 1892TIP3    H1 5640   3.624   5.266   0.134  2.3431  1.5008 -0.0782
 1892TIP3    H2 5641   3.680   5.129   0.104  0.0066  0.4967  0.0025
 1893TIP3   OH2 5642   2.630   4.836   2.443  0.2409 -0.1745  0.0199
 1893TIP3    H1 5643   2.661   4.745   2.440  0.2117 -0.1996  0.5071
 1893TIP3    H2 5644   2.542   4.831   2.478 -0.0528 -0.0258 -0.6708
 1894TIP3   OH2 5645   5.530   0.077   4.950 -0.1185  0.2010 -0.0544
 1894TIP3    H1 5646   5.502   0.068   4.859 -0.7784  2.0558 -0.0851
 1894TIP3    H2 5647   5.505   0.167   4.973 -1.8366 -0.8444  2.5821
 1895TIP3   OH2 5648   2.643   1.351   2.246  0.1588  0.5754  0.2706
 1895TIP3    H1 5649   2.647   1.256   2.236  0.1814  0.6663 -0.6778
 1895TIP3    H2 5650   2.700   1.370   2.321  0.0543 -0.1643  0.5420
 1896TIP3   OH2 5651   6.451   0.777   2.707  0.7339 -0.8629 -0.3139
 1896TIP3    H1 5652   6.389   0.810   2.772 -0.4767 -2.8032 -0.3898
 1896TIP3    H2 5653   6.535   0.773   2.753  0.5626  0.6354  0.1764
 1897TIP3   OH2 5654   1.636   0.125   5.706  0.7530 -0.1352 -0.0293
 1897TIP3    H1 5655   1.715   0.122   5.761 -0.3238  3.4546  2.1203
 1897TIP3    H2 5656   1.565   0.101   5.766 -0.2658  2.0830 -0.2384
 1898TIP3   OH2 5657   1.136   6.125   2.630 -0.0836 -0.2197 -0.3090
 1898TIP3    H1 5658   1.226   6.157   2.633 -0.1025 -0.2337  0.5310
 1898TIP3    H2 5659   1.133   6.054   2.694 -1.2190  1.1756  1.2655
 1899TIP3   OH2 5660   0.611   0.060   5.262 -0.5415 -0.3921 -0.0205
 1899TIP3    H1 5661   0.705   0.077   5.256 -0.9393  2.3848  0.1410
 1899TIP3    H2 5662   0.576   0.090   5.177 -1.4858  0.7518  0.7363
 1900TIP3   OH2 5663   5.543   1.304   4.582  0.0236 -0.2516  0.0155
 1900TIP3    H1 5664   5.536   1.395   4.552  0.4530 -1.1070 -2.9518
 1900TIP3    H2 5665   5.628   1.275   4.550 -0.8890 -2.2235 -0.7464
 1901TIP3   OH2 5666   0.347   4.935   1.424 -0.0656 -0.6699  0.2339
 1901TIP3    H1 5667   0.384   4.857   1.383  0.2367 -0.1010 -0.5953
 1901TIP3    H2 5668   0.269   4.954   1.373  0.0143 -0.2737  0.2561
 1902TIP3   OH2 5669   0.093   6.107   5.743 -0.2196 -0.1335 -0.3387
 1902TIP3    H1 5670   0.080   6.042   5.674  0.2524  1.2417 -1.7775
 1902TIP3    H2 5671   0.013   6.102   5.795 -0.0010 -2.1551 -0.1395
 1903TIP3   OH2 5672   6.587   2.678   2.732 -0.6401 -0.6027  0.2835
 1903TIP3    H1 5673   6.634   2.668   2.649  1.9762  1.4126  1.3625
 1903TIP3    H2 5674   6.637   2.625   2.794 -0.5545  0.4872  1.1885
 1904TIP3   OH2 5675   4.474   5.077   2.363  0.1176 -0.3934  0.7233
 1904TIP3    H1 5676   4.437   4.997   2.400 -1.2415  0.5100  1.3979
 1904TIP3    H2 5677   4.399   5.136   2.354  1.0625  0.7407  0.0769
 1905TIP3   OH2 5678   0.054   2.679   2.944 -0.1452 -0.1172 -0.1944
 1905TIP3    H1 5679   0.013   2.765   2.939 -1.2035 -0.5750  0.4388
 1905TIP3    H2 5680   0.148   2.698   2.952 -0.1818  0.9346 -1.8056
 1906TIP3   OH2 5681   4.500   1.016   3.153 -0.0364 -0.3251 -0.3200
 1906TIP3    H1 5682   4.569   1.037   3.215 -1.0916  1.2239  0.3830
 1906TIP3    H2 5683   4.541   1.028   3.067  0.7162 -0.0009  0.0733
 1907TIP3   OH2 5684   2.138   3.789   1.394  0.0865 -0.2852 -0.1489
 1907TIP3    H1 5685   2.075   3.847   1.352  0.4035  1.5491  1.7679
 1907TIP3    H2 5686   2.084   3.734   1.452 -0.0871 -1.1879 -1.1324
 1908TIP3   OH2 5687   3.632   4.926   0.896 -0.4291 -0.3429 -0.7288
 1908TIP3    H1 5688   3.575   4.995   0.930 -0.3742 -0.6508  0.0282
 1908TIP3    H2 5689   3.715   4.970   0.879 -0.2853 -0.2785  0.0887
 1909TIP3   OH2 5690   2.269   6.031   3.695  0.7650  0.1093 -0.0067
 1909TIP3    H1 5691   2.289   6.081   3.774 -0.9907  1.0150 -0.0765
 1909TIP3    H2 5692   2.176   6.009   3.705  0.9656 -1.2669 -1.0202
 1910TIP3   OH2 5693   6.917   1.585   4.431  0.1077  0.0368 -0.6451
 1910TIP3    H1 5694   6.933   1.663   4.485  0.4681  0.1613 -0.9281
 1910TIP3    H2 5695   6.996   1.532   4.445 -0.2644 -0.4135 -0.2219
 1911TIP3   OH2 5696   7.140   0.179   3.249  0.9394  0.0211  0.0199
 1911TIP3    H1 5697   7.190   0.125   3.188 -0.1709  0.5608 -1.4238
 1911TIP3    H2 5698   7.158   0.269   3.222 -0.0373  0.2480  0.0795
 1912TIP3   OH2 5699   5.319   1.853   1.440  0.7679 -0.2936 -0.0179
 1912TIP3    H1 5700   5.245   1.804   1.473  0.2399  0.7460  0.3857
 1912TIP3    H2 5701   5.371   1.874   1.517 -0.1483  1.6164  0.1308
 1913TIP3   OH2 5702   3.926   0.855   5.305  0.3768 -0.4118 -0.5358
 1913TIP3    H1 5703   3.838   0.855   5.269  0.8404  1.7785 -1.8447
 1913TIP3    H2 5704   3.979   0.808   5.241  0.8407  1.7963 -1.8736
 1914TIP3   OH2 5705   0.297   4.262   4.737 -0.6511  0.2564 -0.1128
 1914TIP3    H1 5706   0.321   4.181   4.692  2.2729 -0.5081  2.4244
 1914TIP3    H2 5707   0.206   4.250   4.762 -0.6835 -1.6473 -0.9919
 1915TIP3   OH2 5708   5.392   1.554   1.659 -0.1257 -0.3979  0.3197
 1915TIP3    H1 5709   5.301   1.527   1.659 -1.5052  3.6330 -0.6500
 1915TIP3    H2 5710   5.415   1.567   1.567  1.1792 -0.6132  0.5853
 1916TIP3   OH2 5711   5.958   2.739   5.443  0.3180  0.1205 -0.2500
 1916TIP3    H1 5712   5.931   2.805   5.506  0.7698 -0.4911  0.5970
 1916TIP3    H2 5713   5.937   2.777   5.358  0.2614  1.2069  0.2393
 1917TIP3   OH2 5714   0.238   0.033   5.878 -0.4968  0.1714 -0.0930
 1917TIP3    H1 5715   0.221   0.099   5.811 -0.2591 -0.3222 -0.6530
 1917TIP3    H2 5716   0.152   0.006   5.909 -0.9528 -2.6330 -3.2069
 1918TIP3   OH2 5717   5.974   0.707   0.341 -0.1746  0.1501  0.5530
 1918TIP3    H1 5718   5.976   0.612   0.325 -1.4539  0.3870 -1.5091
 1918TIP3    H2 5719   5.885   0.723   0.374 -0.5814  0.8009 -0.7928
 1919TIP3   OH2 5720   4.755   5.138   2.499 -0.2692  0.4008 -0.8495
 1919TIP3    H1 5721   4.777   5.114   2.589  2.6551  1.9877 -1.0306
 1919TIP3    H2 5722   4.667   5.103   2.486 -0.3658 -0.8163  2.2470
 1920TIP3   OH2 5723   1.884   1.819   2.741  0.0967 -0.4912  0.5580
 1920TIP3    H1 5724   1.804   1.820   2.792 -0.8498  0.1124 -0.8650
 1920TIP3    H2 5725   1.920   1.731   2.754 -1.4715 -1.2211  0.2267
 1921TIP3   OH2 5726   1.616   0.488   0.265  0.9009 -0.3845 -1.0944
 1921TIP3    H1 5727   1.600   0.548   0.192  1.7382  0.5450 -0.5391
 1921TIP3    H2 5728   1.547   0.422   0.257 -0.0752  0.6599 -1.7151
 1922TIP3   OH2 5729   1.936   6.373   1.341 -0.1703 -0.6798  0.1390
 1922TIP3    H1 5730   1.903   6.389   1.253 -0.0830 -3.7893 -0.5507
 1922TIP3    H2 5731   2.032   6.375   1.332 -0.1083  1.4767  0.7415
 1923TIP3   OH2 5732   2.881   5.198   5.313 -0.1659  0.1030 -0.3151
 1923TIP3    H1 5733   2.907   5.246   5.234  2.0121 -1.3059 -0.5306
 1923TIP3    H2 5734   2.938   5.233   5.381 -0.1990 -0.5435  0.0451
 1924TIP3   OH2 5735   0.992   0.057   3.808 -0.3264 -0.1743  0.3165
 1924TIP3    H1 5736   0.900   0.049   3.832 -0.1168  0.7602  1.5429
 1924TIP3    H2 5737   1.033   0.098   3.884  1.2816 -1.3889  0.1632
 1925TIP3   OH2 5738   2.478   0.920   4.730 -0.0664  0.2428  0.3001
 1925TIP3    H1 5739   2.397   0.905   4.681  1.4122 -2.0617 -1.6956
 1925TIP3    H2 5740   2.496   1.013   4.719 -0.9179  0.2181 -1.8009
 1926TIP3   OH2 5741   3.943   2.347   5.693 -0.1513  0.6379  0.0167
 1926TIP3    H1 5742   3.920   2.313   5.779 -0.2339 -0.1548 -0.3094
 1926TIP3    H2 5743   3.963   2.439   5.708 -0.6553  0.6279  0.7989
 1927TIP3   OH2 5744   2.496   5.666   0.704  0.2159  0.4132  0.1467
 1927TIP3    H1 5745   2.502   5.755   0.668 -1.8163  0.6868  0.3764
 1927TIP3    H2 5746   2.456   5.614   0.635 -1.9043  0.5129  1.2115
 1928TIP3   OH2 5747   1.549   0.187   0.835 -0.8774 -0.1546 -0.3917
 1928TIP3    H1 5748   1.588   0.195   0.922 -2.8766  0.5361  0.5056
 1928TIP3    H2 5749   1.481   0.254   0.833 -1.8109 -1.0877 -1.9598
 1929TIP3   OH2 5750   6.978   2.339   3.099  0.2113  0.2824  0.3424
 1929TIP3    H1 5751   7.068   2.308   3.091  0.0200 -0.3974  0.7565
 1929TIP3    H2 5752   6.965   2.396   3.023  0.5668 -0.6771 -0.4553
 1930TIP3   OH2 5753   3.380   5.104   3.755 -0.2683 -0.5728 -0.0753
 1930TIP3    H1 5754   3.360   5.087   3.847  1.3642 -0.4754  0.3282
 1930TIP3    H2 5755   3.453   5.045   3.736 -0.3591 -0.3270 -1.2066
 1931TIP3   OH2 5756   3.334   5.461   0.388 -0.4029  0.6727 -0.2303
 1931TIP3    H1 5757   3.246   5.476   0.353 -0.2796  2.1350  0.0041
 1931TIP3    H2 5758   3.328   5.487   0.480  0.4566  1.5781 -0.4087
 1932TIP3   OH2 5759   1.349   5.135   2.310  0.6111  0.0642 -0.6225
 1932TIP3    H1 5760   1.264   5.091   2.310 -0.6309  2.3453 -0.1446
 1932TIP3    H2 5761   1.408   5.072   2.267 -1.4156 -1.3182 -1.5427
 1933TIP3   OH2 5762   3.377   5.091   2.684 -0.5062 -0.0048 -0.0282
 1933TIP3    H1 5763   3.408   5.064   2.597 -0.0689  0.2225  0.0520
 1933TIP3    H2 5764   3.287   5.118   2.671 -0.6122 -0.4849 -0.3124
 1934TIP3   OH2 5765   3.169   1.225   5.837 -0.1484 -0.2413  0.3281
 1934TIP3    H1 5766   3.108   1.204   5.766 -0.0877 -2.1982  0.7901
 1934TIP3    H2 5767   3.247   1.172   5.818  0.3361  0.1343  1.2030
 1935TIP3   OH2 5768   3.945   1.176   1.291 -0.2460  0.1044  0.0184
 1935TIP3    H1 5769   3.927   1.097   1.239  2.0886  0.0065 -0.7232
 1935TIP3    H2 5770   3.896   1.162   1.372 -0.5924 -1.6977 -0.4522
 1936TIP3   OH2 5771   3.358   4.133   2.701 -0.0836  0.3366 -0.0427
 1936TIP3    H1 5772   3.310   4.126   2.783 -0.5592  2.0999 -0.1378
 1936TIP3    H2 5773   3.419   4.058   2.703 -1.1390 -0.5427  1.1764
 1937TIP3   OH2 5774   6.530   2.074   3.963  0.3139 -0.3871 -0.2846
 1937TIP3    H1 5775   6.488   1.991   3.941  0.6737 -0.2422 -1.6360
 1937TIP3    H2 5776   6.534   2.121   3.879  1.7653  0.2459  0.1200
 1938TIP3   OH2 5777   0.636   5.546   4.068  0.2889  0.7413 -0.1430
 1938TIP3    H1 5778   0.549   5.531   4.104  0.1012  0.5693 -0.6580
 1938TIP3    H2 5779   0.654   5.638   4.086 -0.6587  1.2073 -1.4040
 1939TIP3   OH2 5780   1.923   2.349   4.605 -0.1219 -0.1807 -0.5249
 1939TIP3    H1 5781   1.937   2.335   4.511  1.6202  0.5834 -0.4092
 1939TIP3    H2 5782   1.982   2.420   4.628 -1.5927  0.6498  0.8790
 1940TIP3   OH2 5783   4.853   1.288   0.571 -0.3939  0.2056  0.0801
 1940TIP3    H1 5784   4.773   1.262   0.527 -0.4799  1.8857 -0.8239
 1940TIP3    H2 5785   4.909   1.321   0.501  0.4596  0.5601  0.9153
 1941TIP3   OH2 5786   4.884   0.225   3.861  0.0346  0.7397 -1.0334
 1941TIP3    H1 5787   4.953   0.198   3.921  0.4377  1.7044 -1.0562
 1941TIP3    H2 5788   4.866   0.316   3.883 -2.0447  0.1928 -0.2488
 1942TIP3   OH2 5789   6.657   2.357   5.410  0.4735 -0.1560 -0.5658
 1942TIP3    H1 5790   6.608   2.300   5.470  0.0944  1.1278  0.3835
 1942TIP3    H2 5791   6.605   2.437   5.405  0.6097 -0.1343 -2.4731
 1943TIP3   OH2 5792   0.763   6.727   3.111  0.2544  0.4070  0.0566
 1943TIP3    H1 5793   0.773   6.799   3.172 -2.4988 -0.2346  1.4305
 1943TIP3    H2 5794   0.762   6.649   3.166 -0.5907 -0.3323 -0.9729
 1944TIP3   OH2 5795   0.773   4.217   0.674  0.3939  0.3300 -0.0190
 1944TIP3    H1 5796   0.757   4.208   0.580  1.2197 -0.3801 -0.0995
 1944TIP3    H2 5797   0.753   4.131   0.711 -2.0868  1.1822  0.8116
 1945TIP3   OH2 5798   4.595   5.907   1.986 -0.2451 -0.3795  0.1859
 1945TIP3    H1 5799   4.544   5.898   1.906  0.4515 -2.0633 -0.1264
 1945TIP3    H2 5800   4.664   5.841   1.978  0.9767  0.6770  1.3376
 1946TIP3   OH2 5801   5.993   5.003   1.318  0.8889  0.2513 -0.2273
 1946TIP3    H1 5802   6.055   5.057   1.367 -0.1224  0.7691  0.5107
 1946TIP3    H2 5803   5.974   4.930   1.376  0.9848 -0.0315 -0.5500
 1947TIP3   OH2 5804   6.821   5.726   3.835  0.1860  0.0967 -0.2847
 1947TIP3    H1 5805   6.887   5.795   3.847 -0.5594  0.7294  0.2788
 1947TIP3    H2 5806   6.759   5.763   3.772 -0.5514  0.1967  0.4828
 1948TIP3   OH2 5807   5.440   1.610   2.238 -0.1680 -0.3638 -0.1523
 1948TIP3    H1 5808   5.386   1.662   2.178  0.9276 -0.0601 -0.9143
 1948TIP3    H2 5809   5.416   1.641   2.325  0.2676  1.2437 -0.5797
 1949TIP3   OH2 5810   1.051   6.595   0.581 -0.4161  0.6469  0.6294
 1949TIP3    H1 5811   1.019   6.505   0.582  0.1822  0.3782 -0.8110
 1949TIP3    H2 5812   1.100   6.605   0.663  2.3560 -1.4871 -0.5921
 1950TIP3   OH2 5813   2.607   6.732   2.934  0.4144  0.1500  0.3829
 1950TIP3    H1 5814   2.620   6.644   2.969  0.3903  0.4778  1.2619
 1950TIP3    H2 5815   2.689   6.778   2.952  0.1713  0.5114  0.5926
 1951TIP3   OH2 5816   2.936   5.383   3.952  0.6082 -0.6081 -0.2712
 1951TIP3    H1 5817   2.874   5.426   4.011  1.9802 -0.2257  0.9499
 1951TIP3    H2 5818   2.889   5.307   3.919 -0.2267 -0.8334  1.3155
 1952TIP3   OH2 5819   0.775   3.793   4.223  0.0807  0.0973 -0.4927
 1952TIP3    H1 5820   0.711   3.829   4.284 -0.1023  0.0329 -0.6464
 1952TIP3    H2 5821   0.843   3.861   4.218  0.8670 -0.5407  0.9469
 1953TIP3   OH2 5822   0.068   1.621   5.265 -0.9100 -0.0525 -0.1392
 1953TIP3    H1 5823   0.149   1.614   5.315 -0.9088  0.1127 -0.1163
 1953TIP3    H2 5824   0.014   1.549   5.296 -0.7872 -0.1380 -0.1249
 1954TIP3   OH2 5825   0.202   0.698   2.804 -1.1488  0.1118  0.1344
 1954TIP3    H1 5826   0.163   0.625   2.755  2.0949 -0.5747 -1.7331
 1954TIP3    H2 5827   0.131   0.761   2.813 -3.0228 -1.5235 -1.8483
 1955TIP3   OH2 5828   2.172   2.968   0.256 -0.1553 -0.2819 -0.0407
 1955TIP3    H1 5829   2.087   3.009   0.240 -0.3738 -1.7310 -3.7988
 1955TIP3    H2 5830   2.226   2.996   0.182  2.2286 -0.5179  1.4991
 1956TIP3   OH2 5831   5.616   0.205   3.628  0.3780  0.5128  0.1482
 1956TIP3    H1 5832   5.634   0.184   3.720 -1.1974  1.4249  0.7146
 1956TIP3    H2 5833   5.541   0.151   3.605  1.3793 -0.4692 -0.9633
 1957TIP3   OH2 5834   3.020   0.035   3.874 -0.1788  0.3186  0.2231
 1957TIP3    H1 5835   2.986   0.042   3.785 -0.2585  1.8038  0.3442
 1957TIP3    H2 5836   3.088  -0.032   3.869 -1.5780 -1.1099 -0.4959
 1958TIP3   OH2 5837   3.074   0.912   3.793  0.9235  0.4303  0.6410
 1958TIP3    H1 5838   3.132   0.846   3.831  0.4374  0.5271  1.5818
 1958TIP3    H2 5839   3.099   0.993   3.838  0.5581  0.6123  0.5139
 1959TIP3   OH2 5840   3.738   6.280   2.752 -0.0980  0.3221 -0.1917
 1959TIP3    H1 5841   3.800   6.352   2.769  1.0747 -0.7166  0.0836
 1959TIP3    H2 5842   3.749   6.221   2.827  0.1024 -0.9052 -1.1622
 1960TIP3   OH2 5843   3.812   3.913   1.187  0.0389  0.2733  0.1699
 1960TIP3    H1 5844   3.785   3.992   1.232 -0.5874 -0.3931  0.9944
 1960TIP3    H2 5845   3.894   3.887   1.230  0.3708  0.5853 -0.2570
 1961TIP3   OH2 5846   4.421   2.961   5.266 -0.1655 -0.0275 -0.1709
 1961TIP3    H1 5847   4.362   3.016   5.216 -0.5355  0.6743  0.9976
 1961TIP3    H2 5848   4.424   3.001   5.353  1.0992 -0.7307  0.1451
 1962TIP3   OH2 5849   0.101   4.234   2.510  0.2244  0.3602 -0.4376
 1962TIP3    H1 5850   0.071   4.267   2.595 -1.1047  0.3070 -0.8633
 1962TIP3    H2 5851   0.155   4.304   2.474 -0.7700  1.1732 -0.3766
 1963TIP3   OH2 5852   0.220   6.460   3.147 -0.0317 -0.2127 -0.4019
 1963TIP3    H1 5853   0.216   6.552   3.170  2.4631 -0.0779 -0.2375
 1963TIP3    H2 5854   0.276   6.456   3.070  1.3198 -1.6872  0.5801
 1964TIP3   OH2 5855   5.805   2.082   3.956 -0.5632  0.2110  0.3202
 1964TIP3    H1 5856   5.857   2.134   3.894 -1.3759  2.7676  1.6488
 1964TIP3    H2 5857   5.869   2.046   4.017 -0.1190  1.4317  0.6038
 1965TIP3   OH2 5858   4.529   1.810   0.921  0.4049 -0.0272  0.4249
 1965TIP3    H1 5859   4.546   1.779   0.832  1.6167  0.8520  0.3255
 1965TIP3    H2 5860   4.580   1.890   0.929  2.0935 -1.2209  2.6532
 1966TIP3   OH2 5861   0.804   1.679   3.114  0.5969  0.0211  0.1996
 1966TIP3    H1 5862   0.738   1.622   3.073  0.4664  0.4907 -0.2540
 1966TIP3    H2 5863   0.811   1.753   3.055 -0.1643  1.1034  1.4028
 1967TIP3   OH2 5864   2.515   3.877   0.518 -0.0671  0.8325 -0.5508
 1967TIP3    H1 5865   2.539   3.792   0.479 -0.2251  0.9368 -0.8790
 1967TIP3    H2 5866   2.470   3.854   0.599 -0.2096  0.5975 -0.6944
 1968TIP3   OH2 5867   5.297   5.707   0.158 -0.1053 -0.1248  0.9193
 1968TIP3    H1 5868   5.352   5.770   0.112 -0.9895  0.4878  0.6567
 1968TIP3    H2 5869   5.317   5.720   0.250 -0.9738  1.2546  0.9442
 1969TIP3   OH2 5870   4.461   3.054   5.512 -0.1048  0.1049 -0.0307
 1969TIP3    H1 5871   4.430   3.034   5.600  1.6549 -1.2565  0.3248
 1969TIP3    H2 5872   4.546   3.097   5.525 -0.7634  1.8568 -1.0338
 1970TIP3   OH2 5873   5.771   1.109   0.892 -0.0946  0.3925  0.5794
 1970TIP3    H1 5874   5.702   1.108   0.825 -1.3763  0.4031  1.8657
 1970TIP3    H2 5875   5.853   1.102   0.842 -1.0353 -0.0447 -0.9554
 1971TIP3   OH2 5876   0.854   4.046   3.755 -0.0385  0.2810  0.1173
 1971TIP3    H1 5877   0.848   4.077   3.846 -1.9190 -1.9563  0.8575
 1971TIP3    H2 5878   0.927   3.984   3.756 -0.3710 -0.1109  0.2322
 1972TIP3   OH2 5879   0.311   5.373   2.802  0.0804  0.3588 -0.2026
 1972TIP3    H1 5880   0.366   5.450   2.787  1.7961 -1.1791 -2.7185
 1972TIP3    H2 5881   0.264   5.362   2.719 -3.3722  0.9859  1.5047
 1973TIP3   OH2 5882   6.100   5.368   5.310  0.3142 -0.3589 -0.3263
 1973TIP3    H1 5883   6.055   5.351   5.393 -1.2942 -2.5001 -1.5281
 1973TIP3    H2 5884   6.103   5.464   5.304 -1.7234 -0.1220  1.0916
 1974TIP3   OH2 5885   5.798   0.418   2.017 -0.7489 -0.2809 -0.4306
 1974TIP3    H1 5886   5.828   0.331   2.042  0.5841  0.7805  2.0028
 1974TIP3    H2 5887   5.722   0.402   1.960  1.0805 -3.0022 -2.3708
 1975TIP3   OH2 5888   2.625   6.127   3.365 -0.4185 -0.9306 -0.5673
 1975TIP3    H1 5889   2.651   6.042   3.330  0.8760 -1.6683  1.9551
 1975TIP3    H2 5890   2.536   6.113   3.398  0.1890 -1.6837  0.8345
 1976TIP3   OH2 5891   1.011   3.923   3.450  0.0227  0.7416 -0.1280
 1976TIP3    H1 5892   0.921   3.955   3.464  0.2569  0.4345  2.5309
 1976TIP3    H2 5893   1.031   3.873   3.529  3.3301  2.6154  0.3716
 1977TIP3   OH2 5894   2.825   6.307   2.673 -0.5876 -0.1224  0.5497
 1977TIP3    H1 5895   2.837   6.401   2.686 -0.3676 -0.0931  0.1545
 1977TIP3    H2 5896   2.752   6.284   2.731 -0.3156  0.1933  1.0275
 1978TIP3   OH2 5897   1.181   4.154   5.693 -0.2905 -0.1151  0.7078
 1978TIP3    H1 5898   1.177   4.075   5.747 -0.4386 -0.9549 -0.4989
 1978TIP3    H2 5899   1.093   4.164   5.657  0.1099 -0.3053 -0.3764
 1979TIP3   OH2 5900   0.496   4.476   5.646 -0.0700 -0.1081 -0.2949
 1979TIP3    H1 5901   0.563   4.469   5.579 -1.7793  0.6226 -2.1987
 1979TIP3    H2 5902   0.426   4.417   5.618 -0.7318  0.0058  0.9956
 1980TIP3   OH2 5903   6.599   5.411   2.488 -0.0618  0.5826  0.0563
 1980TIP3    H1 5904   6.646   5.413   2.405 -0.5019 -1.1720 -0.2942
 1980TIP3    H2 5905   6.511   5.382   2.464  0.2638 -1.6680  1.2514
 1981TIP3   OH2 5906   2.301   1.494   5.036  0.1240 -0.1675 -0.8296
 1981TIP3    H1 5907   2.286   1.494   5.131 -1.1797 -1.8282 -0.9931
 1981TIP3    H2 5908   2.371   1.430   5.023 -2.3517 -3.0314 -1.2352
 1982TIP3   OH2 5909   1.818   4.294   3.275 -0.0705  0.1046 -0.2202
 1982TIP3    H1 5910   1.897   4.347   3.261  0.7625 -0.9990  0.1290
 1982TIP3    H2 5911   1.770   4.340   3.343  0.2809  0.7788 -0.4165
 1983TIP3   OH2 5912   0.592   6.219   5.733  0.1735  0.1293 -0.4799
 1983TIP3    H1 5913   0.560   6.139   5.692  2.4983 -0.6515 -0.9366
 1983TIP3    H2 5914   0.585   6.286   5.665 -2.7800  0.6618  0.2307
 1984TIP3   OH2 5915   3.875   0.489   5.406 -0.4114  0.4660  0.1156
 1984TIP3    H1 5916   3.888   0.552   5.335 -0.0049 -1.2988 -1.4572
 1984TIP3    H2 5917   3.802   0.525   5.457 -0.3012  2.0986 -0.8071
 1985TIP3   OH2 5918   4.907   2.904   0.374 -0.0205  0.7084  0.3933
 1985TIP3    H1 5919   4.945   2.916   0.461  0.1645  0.6210  0.3254
 1985TIP3    H2 5920   4.905   2.992   0.337  0.1570  0.7079  0.3811
 1986TIP3   OH2 5921   1.156   4.582   4.703  0.0452 -0.0302  0.5090
 1986TIP3    H1 5922   1.135   4.645   4.773  2.3434  1.4155  0.0178
 1986TIP3    H2 5923   1.072   4.547   4.676 -1.2269  1.8583  1.7524
 1987TIP3   OH2 5924   6.747   2.529   4.652 -0.2610 -0.1356 -0.1719
 1987TIP3    H1 5925   6.782   2.602   4.703 -0.2920 -1.5643  2.0131
 1987TIP3    H2 5926   6.815   2.509   4.588  1.1249 -0.1689  1.2567
 1988TIP3   OH2 5927   2.346   3.916   2.054 -0.8791  0.5361  0.1414
 1988TIP3    H1 5928   2.341   3.843   1.992  0.7749  0.5042 -0.0096
 1988TIP3    H2 5929   2.354   3.874   2.140  1.7671  0.4286 -0.0774
 1989TIP3   OH2 5930   5.482   5.163   3.661 -0.3502  0.4760  0.3582
 1989TIP3    H1 5931   5.576   5.155   3.648 -0.0618  0.1913  2.3722
 1989TIP3    H2 5932   5.456   5.083   3.707 -1.7957  0.0295 -1.1291
 1990TIP3   OH2 5933   5.334   4.795   2.683 -0.3072  0.1891 -0.2299
 1990TIP3    H1 5934   5.253   4.745   2.692 -0.3872  0.6467  3.1301
 1990TIP3    H2 5935   5.397   4.733   2.648 -0.8771 -1.8294  2.0272
 1991TIP3   OH2 5936   5.430   4.868   0.224  0.4613 -0.6024  0.1233
 1991TIP3    H1 5937   5.399   4.918   0.148 -1.8558  0.0048  1.3362
 1991TIP3    H2 5938   5.414   4.777   0.201 -0.3235 -0.4180 -0.1012
 1992TIP3   OH2 5939   1.014   0.624   0.306 -0.0636  0.3832 -0.3322
 1992TIP3    H1 5940   1.089   0.571   0.277 -0.2537  0.3079 -0.6873
 1992TIP3    H2 5941   0.962   0.565   0.359 -1.4555 -0.4818 -2.5434
 1993TIP3   OH2 5942   5.645   1.069   3.147 -0.8461 -0.1244  0.5246
 1993TIP3    H1 5943   5.593   1.026   3.079 -2.7933  2.7339  0.0107
 1993TIP3    H2 5944   5.662   1.156   3.113  1.8255  0.0449  2.0117
 1994TIP3   OH2 5945   5.487   3.501   0.152  0.7875 -0.1979  0.0066
 1994TIP3    H1 5946   5.439   3.531   0.075  0.4209 -0.3022  0.1936
 1994TIP3    H2 5947   5.549   3.572   0.172  0.6241 -0.0108 -0.1596
 1995TIP3   OH2 5948   1.963   5.748   0.859  0.1213 -0.0747 -0.1943
 1995TIP3    H1 5949   1.935   5.837   0.843 -0.1041  0.2161  1.5752
 1995TIP3    H2 5950   2.058   5.755   0.870  0.2603 -0.2546 -1.2196
 1996TIP3   OH2 5951   5.445   4.209   5.005 -0.1802 -0.6695  0.5566
 1996TIP3    H1 5952   5.426   4.303   5.004  0.0071 -0.6193 -0.8963
 1996TIP3    H2 5953   5.517   4.200   5.067  1.3512  0.5190 -0.9168
 1997TIP3   OH2 5954   5.362   1.720   1.198 -0.3039 -0.1910 -0.0413
 1997TIP3    H1 5955   5.440   1.745   1.149 -0.6885  0.0314 -0.5585
 1997TIP3    H2 5956   5.338   1.799   1.247 -0.9643  0.1846 -0.9275
 1998TIP3   OH2 5957   1.993   4.299   1.526 -0.3760  0.0716  0.2258
 1998TIP3    H1 5958   1.909   4.323   1.486 -0.5767  0.4897  0.8891
 1998TIP3    H2 5959   2.033   4.383   1.550  1.3189  0.0616 -2.2134
 1999TIP3   OH2 5960   5.810   3.481   0.871 -0.0139  0.5208 -0.3882
 1999TIP3    H1 5961   5.848   3.531   0.799  0.1730  0.1764 -0.5304
 1999TIP3    H2 5962   5.869   3.496   0.945 -0.1920  0.8526 -0.3075
 2000TIP3   OH2 5963   2.833   3.540   1.131 -0.1944  0.0171  0.1988
 2000TIP3    H1 5964   2.742   3.569   1.129 -0.2104 -0.0664 -1.0673
 2000TIP3    H2 5965   2.838   3.481   1.207 -1.3429 -0.4541 -0.0775
 2001TIP3   OH2 5966   2.338   6.404   2.621  0.4019 -0.3234  0.9432
 2001TIP3    H1 5967   2.260   6.359   2.588  0.6763  0.1196 -0.3655
 2001TIP3    H2 5968   2.361   6.466   2.552  1.0845  0.5656  1.9374
 2002TIP3   OH2 5969   5.251   2.969   1.599 -0.2533 -0.1646 -0.2707
 2002TIP3    H1 5970   5.163   2.975   1.636 -0.3558 -0.0242 -0.5365
 2002TIP3    H2 5971   5.308   3.002   1.669 -0.3044 -1.2322  0.2898
 2003TIP3   OH2 5972   5.179   6.785   3.217 -0.0288 -0.0403 -0.2147
 2003TIP3    H1 5973   5.165   6.868   3.263  0.6439  0.0715 -0.1990
 2003TIP3    H2 5974   5.131   6.721   3.269 -0.9958  0.4213 -0.5202
 2004TIP3   OH2 5975   0.642   6.604   4.479  0.2605 -0.1678 -0.2364
 2004TIP3    H1 5976   0.618   6.671   4.542  1.0369  0.0032 -0.1125
 2004TIP3    H2 5977   0.729   6.629   4.448  1.6059 -2.2699  1.4925
 2005TIP3   OH2 5978   2.243   1.007   0.110  0.0444 -0.3164 -0.0544
 2005TIP3    H1 5979   2.291   1.079   0.151  0.8051 -0.6304 -0.3857
 2005TIP3    H2 5980   2.224   1.039   0.021 -0.8485  0.0188  0.2379
 2006TIP3   OH2 5981   6.303   1.568   1.984  1.1134  0.2453  0.1674
 2006TIP3    H1 5982   6.244   1.633   1.945  0.6713  0.0652  0.5236
 2006TIP3    H2 5983   6.297   1.583   2.078  0.5519 -0.6819  0.2958
 2007TIP3   OH2 5984   0.408   3.030   2.427 -0.0860 -0.3830 -0.0521
 2007TIP3    H1 5985   0.397   2.991   2.513  0.6567  0.3678  0.3909
 2007TIP3    H2 5986   0.495   3.068   2.428 -0.3596  0.3031 -0.8616
 2008TIP3   OH2 5987   0.855   0.555   3.871 -0.1976 -0.4768 -0.4421
 2008TIP3    H1 5988   0.793   0.484   3.855  0.0387 -1.1708  1.4889
 2008TIP3    H2 5989   0.900   0.566   3.787  1.1332 -3.9807 -0.3964
 2009TIP3   OH2 5990   6.388   1.462   3.208 -0.2716 -0.3738 -0.2674
 2009TIP3    H1 5991   6.458   1.425   3.261 -1.0586 -1.4267  0.0675
 2009TIP3    H2 5992   6.387   1.555   3.232 -0.0549 -0.6686  0.9522
 2010TIP3   OH2 5993   0.270   4.742   5.637 -0.0201  0.8959  0.0055
 2010TIP3    H1 5994   0.256   4.783   5.552 -1.7984  0.8753  0.2407
 2010TIP3    H2 5995   0.363   4.752   5.654  0.4437  0.6029 -2.0825
 2011TIP3   OH2 5996   2.699   6.129   2.105 -0.2192  0.4450  0.1534
 2011TIP3    H1 5997   2.651   6.048   2.121  0.5690  0.2191  1.4820
 2011TIP3    H2 5998   2.791   6.106   2.114  0.1038  1.1405 -1.1306
 2012TIP3   OH2 5999   5.957   0.688   3.327 -0.3175 -0.3069 -0.6895
 2012TIP3    H1 6000   5.946   0.699   3.232  0.7109 -0.8017 -0.8881
 2012TIP3    H2 6001   5.985   0.774   3.358 -2.4910  0.3846 -0.5025
 2013TIP3   OH2 6002   6.893   1.622   2.894 -0.1631  0.5351  0.2668
 2013TIP3    H1 6003   6.830   1.606   2.824 -0.8717  2.4921  0.3868
 2013TIP3    H2 6004   6.977   1.636   2.849  0.0068 -1.0418  0.0385
 2014TIP3   OH2 6005   5.160   5.351   2.580 -0.2904  0.2476  0.1277
 2014TIP3    H1 6006   5.094   5.336   2.512  0.3365  2.3908 -1.0263
 2014TIP3    H2 6007   5.119   5.416   2.638 -0.2181 -0.4279  0.9498
 2015TIP3   OH2 6008   2.366   2.289   3.552  0.6877  0.5797  0.1163
 2015TIP3    H1 6009   2.386   2.381   3.568 -2.1789  1.4122 -0.4341
 2015TIP3    H2 6010   2.350   2.283   3.458 -1.5558  0.1461  0.4630
 2016TIP3   OH2 6011   3.813   2.688   4.557  0.1932 -0.6322 -0.0223
 2016TIP3    H1 6012   3.769   2.724   4.635 -1.2458 -0.0057 -1.0807
 2016TIP3    H2 6013   3.825   2.763   4.500 -0.6730 -1.4004 -1.2610
 2017TIP3   OH2 6014   3.054   6.198   2.764 -0.0304  0.4542 -0.1854
 2017TIP3    H1 6015   2.972   6.243   2.741  0.2761  1.1118 -0.0371
 2017TIP3    H2 6016   3.093   6.175   2.680 -1.0310 -1.1267 -0.2480
 2018TIP3   OH2 6017   2.391   3.308   5.817  0.8227  0.3368  0.1504
 2018TIP3    H1 6018   2.341   3.371   5.868 -1.0454  0.2729 -1.4960
 2018TIP3    H2 6019   2.474   3.353   5.799 -0.5087  2.4721 -1.1329
 2019TIP3   OH2 6020   0.854   2.965   3.326 -0.0645  0.2853  0.2804
 2019TIP3    H1 6021   0.942   3.000   3.343 -0.4909  1.7661 -0.3469
 2019TIP3    H2 6022   0.796   3.018   3.381 -0.6614 -0.0007 -0.0654
 2020TIP3   OH2 6023   3.792   2.781   5.132  0.8859  0.3054 -0.3357
 2020TIP3    H1 6024   3.803   2.706   5.190  0.2774  1.6181  1.5834
 2020TIP3    H2 6025   3.706   2.767   5.091  0.7929 -0.0577 -0.0252
 2021TIP3   OH2 6026   3.871   0.904   3.827 -0.3377  0.3297  0.2679
 2021TIP3    H1 6027   3.925   0.853   3.887 -0.1712  1.7078  1.3160
 2021TIP3    H2 6028   3.848   0.841   3.758  2.0518 -0.4676  0.0991
 2022TIP3   OH2 6029   5.942   4.816   1.535 -0.2720 -0.1205  0.4642
 2022TIP3    H1 6030   6.015   4.790   1.592  0.3201  0.2366 -0.1190
 2022TIP3    H2 6031   5.886   4.738   1.531 -1.4544  0.4817  3.2103
 2023TIP3   OH2 6032   6.188   2.202   2.410 -0.1583  0.2206 -0.2662
 2023TIP3    H1 6033   6.254   2.265   2.379 -0.2051 -0.0893 -1.0081
 2023TIP3    H2 6034   6.217   2.180   2.499  1.2076 -0.5205 -0.8575
 2024TIP3   OH2 6035   5.756   0.835   2.614 -0.0227  0.8943  0.1111
 2024TIP3    H1 6036   5.772   0.797   2.528  1.2807  0.3532  0.5654
 2024TIP3    H2 6037   5.740   0.760   2.671 -0.1853  1.1990  0.4730
 2025TIP3   OH2 6038   3.959   1.449   5.806  0.1431 -0.1802  0.0006
 2025TIP3    H1 6039   4.028   1.393   5.769 -0.3431 -1.0102  0.3296
 2025TIP3    H2 6040   3.891   1.388   5.834 -0.7788  0.6388 -0.4083
 2026TIP3   OH2 6041   1.129   1.470   0.819 -0.1749  0.2666  0.2395
 2026TIP3    H1 6042   1.151   1.544   0.876 -1.9620 -0.0442  1.4327
 2026TIP3    H2 6043   1.204   1.411   0.825  0.9073  1.5771 -0.0559
 2027TIP3   OH2 6044   5.090   6.559   5.912 -0.3554  0.2331  1.3418
 2027TIP3    H1 6045   5.048   6.554   5.826  1.8207 -1.2182  0.2871
 2027TIP3    H2 6046   5.096   6.653   5.930  2.2066  0.8190 -1.7541
 2028TIP3   OH2 6047   4.342   5.714   0.659 -0.3551 -0.4771  0.2341
 2028TIP3    H1 6048   4.249   5.712   0.682 -0.5314 -1.2454 -0.5205
 2028TIP3    H2 6049   4.375   5.628   0.685  0.4008  0.1516  1.4702
 2029TIP3   OH2 6050   3.140   5.947   0.726 -0.2857  0.1483 -0.6058
 2029TIP3    H1 6051   3.107   5.859   0.711 -1.2656  0.4156 -0.0899
 2029TIP3    H2 6052   3.186   5.969   0.645 -0.3456 -0.6942 -0.8786
 2030TIP3   OH2 6053   5.924   3.704   0.357 -0.1261  0.8251 -0.5380
 2030TIP3    H1 6054   5.986   3.718   0.285  0.3653  1.1146 -0.0699
 2030TIP3    H2 6055   5.968   3.741   0.433  0.0889 -0.9216  0.2482
 2031TIP3   OH2 6056   0.015   2.311   2.731  0.2993  0.0723  0.3663
 2031TIP3    H1 6057  -0.023   2.361   2.804  1.0139  0.6105  0.3810
 2031TIP3    H2 6058   0.106   2.341   2.727  0.7183 -1.1545  0.3052
 2032TIP3   OH2 6059   6.749   2.899   1.747  0.0389  0.2000 -0.5191
 2032TIP3    H1 6060   6.789   2.883   1.832 -0.0406 -2.8266 -0.9320
 2032TIP3    H2 6061   6.775   2.823   1.694 -3.2101 -0.1012 -1.9218
 2033TIP3   OH2 6062   4.469   5.479   0.704 -0.3099  0.1318  0.2350
 2033TIP3    H1 6063   4.531   5.424   0.657 -1.2777  0.0522 -1.0130
 2033TIP3    H2 6064   4.509   5.492   0.790  2.0130  1.0748 -0.8834
 2034TIP3   OH2 6065   5.338   2.920   1.282 -0.1599 -0.3360 -0.0113
 2034TIP3    H1 6066   5.293   2.903   1.365  1.5234  0.2273  1.0662
 2034TIP3    H2 6067   5.269   2.948   1.223 -1.3003  0.0169  1.4249
 2035TIP3   OH2 6068   5.931   6.421   4.623  0.3528  0.7823 -0.4120
 2035TIP3    H1 6069   5.922   6.352   4.689 -1.3667  2.3114  1.1019
 2035TIP3    H2 6070   6.014   6.463   4.645  1.8128 -1.1940 -1.8406
 2036TIP3   OH2 6071   5.834   6.716   4.517  0.0691  0.1877 -0.2224
 2036TIP3    H1 6072   5.876   6.644   4.563  0.8111  0.9139  0.2584
 2036TIP3    H2 6073   5.758   6.676   4.474  0.4930 -0.8782 -0.0037
 2037TIP3   OH2 6074   5.023   5.913   2.952  0.1070  0.4353  0.4610
 2037TIP3    H1 6075   4.932   5.941   2.951  0.3784  1.3578 -0.2724
 2037TIP3    H2 6076   5.040   5.881   2.863  0.1464 -0.9756  0.9525
 2038TIP3   OH2 6077   2.229   5.172   2.591  0.0073  0.2009  0.0667
 2038TIP3    H1 6078   2.182   5.089   2.588 -1.6732  1.1284  0.0937
 2038TIP3    H2 6079   2.316   5.151   2.555  0.1605 -1.8717  1.4779
 2039TIP3   OH2 6080   5.120   0.740   0.168 -0.2188 -0.0203 -0.2191
 2039TIP3    H1 6081   5.176   0.798   0.116  0.9585 -0.1949  0.7957
 2039TIP3    H2 6082   5.128   0.773   0.258  0.3622 -1.6394  0.3528
 2040TIP3   OH2 6083   2.050   5.243   5.650  0.1509  0.5405 -0.4340
 2040TIP3    H1 6084   1.956   5.260   5.648  0.3958  2.6425  1.5174
 2040TIP3    H2 6085   2.063   5.188   5.727  0.4550 -0.4547 -1.1810
 2041TIP3   OH2 6086   6.841   4.652   1.248 -0.0902 -0.2155 -0.1232
 2041TIP3    H1 6087   6.863   4.609   1.165 -0.3043 -1.1323  0.2833
 2041TIP3    H2 6088   6.822   4.742   1.224 -1.7660 -0.8394 -1.3305
 2042TIP3   OH2 6089   2.548   0.847   2.968 -0.2582 -0.2006  0.3458
 2042TIP3    H1 6090   2.607   0.865   3.041  0.3695  2.2712 -0.6810
 2042TIP3    H2 6091   2.575   0.761   2.935  0.8590 -0.3823  1.6595
 2043TIP3   OH2 6092   1.647   5.692   3.579 -0.2799  0.1038 -0.0287
 2043TIP3    H1 6093   1.668   5.633   3.651  2.2531  2.1999  1.1447
 2043TIP3    H2 6094   1.717   5.678   3.515  0.4380  1.7826  0.3167
 2044TIP3   OH2 6095   2.413   1.256   5.323  0.2518 -0.0366  0.1558
 2044TIP3    H1 6096   2.369   1.253   5.238  0.3799 -2.9245  0.0989
 2044TIP3    H2 6097   2.405   1.167   5.358  2.5647  0.3458  1.9356
 2045TIP3   OH2 6098   2.518   3.180   4.282 -0.5022 -0.1144 -0.4507
 2045TIP3    H1 6099   2.470   3.196   4.363  1.3756 -1.2381  0.9769
 2045TIP3    H2 6100   2.577   3.255   4.273 -0.3373 -0.2485 -0.4966
 2046TIP3   OH2 6101   4.426   5.720   5.158 -0.0339  0.1399 -0.6347
 2046TIP3    H1 6102   4.349   5.759   5.202  0.1750  0.9651 -0.9721
 2046TIP3    H2 6103   4.389   5.660   5.093 -0.3656 -0.3301 -0.0207
 2047TIP3   OH2 6104   6.466   2.482   0.540 -0.4513 -0.0033  0.3961
 2047TIP3    H1 6105   6.494   2.391   0.528  1.5011  0.5682  0.3836
 2047TIP3    H2 6106   6.389   2.475   0.597 -0.8458 -1.6970 -0.2584
 2048TIP3   OH2 6107   1.462   1.058   4.685  0.0835  0.0548 -0.6929
 2048TIP3    H1 6108   1.427   1.143   4.659 -1.1261 -0.3224 -0.3704
 2048TIP3    H2 6109   1.387   1.012   4.722  0.9385 -0.7974  0.0300
 2049TIP3   OH2 6110   3.118   3.429   4.643 -0.1350 -0.5037  0.6818
 2049TIP3    H1 6111   3.169   3.348   4.651 -1.8437 -1.7677 -0.3250
 2049TIP3    H2 6112   3.113   3.445   4.549  1.8206  1.9616  0.9015
 2050TIP3   OH2 6113   3.981   5.042   4.788  0.1897  0.5901 -0.4799
 2050TIP3    H1 6114   3.916   5.112   4.796 -0.0123  0.2627  1.2354
 2050TIP3    H2 6115   3.961   4.983   4.861  1.7486 -0.0855 -0.5556
 2051TIP3   OH2 6116   3.775   0.598   1.167 -0.1328  0.1770  0.1366
 2051TIP3    H1 6117   3.792   0.661   1.096 -1.9386  0.3317 -0.2068
 2051TIP3    H2 6118   3.703   0.637   1.216  0.1833 -0.6062  1.2516
 2052TIP3   OH2 6119   3.023   2.364   1.731 -0.4779  0.0577  0.1013
 2052TIP3    H1 6120   3.103   2.399   1.691 -0.6438  1.0662  0.6040
 2052TIP3    H2 6121   3.054   2.303   1.798 -0.1992 -1.8925 -1.7038
 2053TIP3   OH2 6122   2.894   3.122   2.358  0.2842 -0.0956  0.0254
 2053TIP3    H1 6123   2.925   3.131   2.448 -1.3182  2.2672  0.4375
 2053TIP3    H2 6124   2.819   3.062   2.365  0.8655 -0.8284  0.0567
 2054TIP3   OH2 6125   4.200   3.794   2.973  0.1117 -0.3237  0.9775
 2054TIP3    H1 6126   4.190   3.736   3.048  1.7272 -1.1467  0.6135
 2054TIP3    H2 6127   4.142   3.868   2.991  0.2426 -0.6398  2.8755
 2055TIP3   OH2 6128   6.981   5.824   1.563  0.4038 -0.4205  0.1602
 2055TIP3    H1 6129   7.007   5.831   1.655 -2.4115 -3.1502  1.3363
 2055TIP3    H2 6130   6.887   5.838   1.563  0.5377  1.2538 -2.6722
 2056TIP3   OH2 6131   5.663   2.617   3.232  0.4818 -0.3192 -0.1979
 2056TIP3    H1 6132   5.635   2.594   3.143  0.9954 -1.3894 -0.1091
 2056TIP3    H2 6133   5.649   2.537   3.283  0.7267  0.1053  0.5543
 2057TIP3   OH2 6134   6.343   0.015   2.208  0.9443  0.2154 -0.4770
 2057TIP3    H1 6135   6.299   0.093   2.175 -1.0894 -0.0476  1.3805
 2057TIP3    H2 6136   6.403  -0.010   2.138  0.3414  2.3787 -1.8708
 2058TIP3   OH2 6137   5.446   1.385   2.752 -0.7846  0.3638 -0.4764
 2058TIP3    H1 6138   5.426   1.379   2.658 -0.3099  0.7331 -0.6070
 2058TIP3    H2 6139   5.523   1.442   2.756  0.6434 -1.4740 -0.0541
 2059TIP3   OH2 6140   3.348   5.591   4.580 -0.5002 -0.0516 -0.5261
 2059TIP3    H1 6141   3.254   5.605   4.590  0.0478  2.7346  2.0201
 2059TIP3    H2 6142   3.374   5.647   4.507 -0.8294 -1.2889 -1.6370
 2060TIP3   OH2 6143   5.611   2.294   0.217  0.3040 -0.4490  0.1354
 2060TIP3    H1 6144   5.629   2.229   0.149  2.4582 -1.1539  1.2947
 2060TIP3    H2 6145   5.518   2.283   0.236  0.5046 -2.9339  0.0053
 2061TIP3   OH2 6146   4.634   2.194   4.347  0.2582 -0.5464  0.4211
 2061TIP3    H1 6147   4.611   2.170   4.437  0.0680 -0.0139  0.5211
 2061TIP3    H2 6148   4.691   2.123   4.317 -1.4163 -1.8550  0.1979
 2062TIP3   OH2 6149   3.525   0.833   0.846  0.0314 -0.3064 -0.1034
 2062TIP3    H1 6150   3.538   0.813   0.753 -1.3141 -2.1322  0.0341
 2062TIP3    H2 6151   3.611   0.818   0.885  0.7814  1.1165 -1.1144
 2063TIP3   OH2 6152   5.083   0.407   4.098 -0.7942 -0.2945 -0.6904
 2063TIP3    H1 6153   5.084   0.448   4.011 -0.2784  1.0208 -0.0808
 2063TIP3    H2 6154   5.108   0.316   4.081  0.0948  0.1388 -1.8407
 2064TIP3   OH2 6155   0.556   5.307   0.126  0.1398  0.0558 -0.1816
 2064TIP3    H1 6156   0.569   5.385   0.179  0.3763 -1.1688  1.6453
 2064TIP3    H2 6157   0.643   5.271   0.114 -0.1322 -0.9013  0.5819
 2065TIP3   OH2 6158   2.870   3.580   5.319 -0.4485 -0.0112  0.0987
 2065TIP3    H1 6159   2.830   3.502   5.356 -2.2484 -0.0893 -1.8419
 2065TIP3    H2 6160   2.828   3.591   5.234  3.5153 -0.0090 -2.1430
 2066TIP3   OH2 6161   5.530   0.048   2.641 -0.2899  0.0497  0.1026
 2066TIP3    H1 6162   5.510   0.019   2.730 -1.5880  0.7732  0.0740
 2066TIP3    H2 6163   5.497  -0.022   2.584  2.0039 -1.1946  0.1953
 2067TIP3   OH2 6164   4.370   6.002   3.805 -0.3873 -0.0960 -0.0875
 2067TIP3    H1 6165   4.328   5.968   3.726 -0.2228 -0.2729 -0.0975
 2067TIP3    H2 6166   4.454   6.038   3.775 -1.0703  1.4382 -0.2871
 2068TIP3   OH2 6167   0.254   4.841   4.663  0.5101 -0.3709 -0.0502
 2068TIP3    H1 6168   0.306   4.801   4.732  1.5373 -1.6503 -1.5000
 2068TIP3    H2 6169   0.229   4.926   4.698  1.1686 -0.8862  1.7922
 2069TIP3   OH2 6170   0.824   5.375   2.176  0.1266 -0.2509 -0.1454
 2069TIP3    H1 6171   0.897   5.335   2.128  0.0767 -0.3020 -0.1780
 2069TIP3    H2 6172   0.855   5.379   2.267 -0.6430 -2.2557  0.2705
 2070TIP3   OH2 6173   1.614   5.595   4.372 -0.2330  0.2843 -0.3237
 2070TIP3    H1 6174   1.706   5.578   4.351 -0.3717 -0.1101 -0.6145
 2070TIP3    H2 6175   1.616   5.675   4.425  0.2298  0.5857 -0.7914
 2071TIP3   OH2 6176   2.426   0.211   4.878  0.1129 -0.4637 -0.4374
 2071TIP3    H1 6177   2.369   0.224   4.803 -1.4987  1.9429  1.0694
 2071TIP3    H2 6178   2.369   0.169   4.944  0.4789  0.5388  0.5490
 2072TIP3   OH2 6179   6.142   3.351   0.842  0.1484  0.2252 -0.3952
 2072TIP3    H1 6180   6.229   3.372   0.877  0.3357 -0.0014 -0.7275
 2072TIP3    H2 6181   6.085   3.419   0.880  0.5568  0.6862 -0.5899
 2073TIP3   OH2 6182   6.330   3.183   0.580  0.3438  0.2958  0.6240
 2073TIP3    H1 6183   6.374   3.225   0.654 -0.5143  0.0585  1.2815
 2073TIP3    H2 6184   6.328   3.090   0.602 -1.5314  0.4278  1.1997
 2074TIP3   OH2 6185   5.507   0.055   5.740 -0.4254 -0.3784  0.1953
 2074TIP3    H1 6186   5.509  -0.031   5.783 -1.4574 -0.2307  0.5809
 2074TIP3    H2 6187   5.565   0.046   5.665 -1.3290 -1.7498 -0.3670
 2075TIP3   OH2 6188   1.449   0.152   4.897  0.4041 -0.6967  0.3430
 2075TIP3    H1 6189   1.367   0.120   4.860 -0.6161  1.1155  0.8899
 2075TIP3    H2 6190   1.469   0.092   4.969 -0.1212 -1.4848 -0.1601
 2076TIP3   OH2 6191   1.250   1.999   0.012 -0.4928 -0.1146  0.1956
 2076TIP3    H1 6192   1.195   2.027  -0.061  1.9303 -0.4363 -1.8803
 2076TIP3    H2 6193   1.273   2.081   0.057 -0.4652  0.3169 -0.5865
 2077TIP3   OH2 6194   0.120   4.145   4.115 -0.1310 -0.5540  0.0823
 2077TIP3    H1 6195   0.058   4.084   4.154  0.3540 -1.0447  0.0965
 2077TIP3    H2 6196   0.148   4.201   4.188  0.0312 -0.8340  0.2361
 2078TIP3   OH2 6197   5.000   0.267   4.475  0.8457  0.4619  0.0636
 2078TIP3    H1 6198   5.077   0.325   4.480  0.3063  1.2654 -0.6339
 2078TIP3    H2 6199   4.945   0.295   4.549  2.0159 -1.3764  1.7496
 2079TIP3   OH2 6200   3.059   4.886   2.236  0.2886  0.0102  0.2854
 2079TIP3    H1 6201   3.007   4.805   2.241 -0.0114  0.2356  0.9604
 2079TIP3    H2 6202   3.110   4.886   2.317  0.5377  0.3374  0.1310
 2080TIP3   OH2 6203   0.835   4.168   4.241 -0.5763 -0.3712  0.4010
 2080TIP3    H1 6204   0.860   4.098   4.301  0.1555 -0.2300  0.2757
 2080TIP3    H2 6205   0.740   4.164   4.236 -0.6969 -0.0369  2.0014
 2081TIP3   OH2 6206   1.216   4.650   5.124 -0.0217  0.1587 -0.0573
 2081TIP3    H1 6207   1.200   4.593   5.049 -1.0215  0.2213  0.0942
 2081TIP3    H2 6208   1.261   4.726   5.087  0.0389 -0.0883 -0.4934
 2082TIP3   OH2 6209   0.109   2.354   5.682 -0.5102 -0.1818  0.2431
 2082TIP3    H1 6210   0.113   2.351   5.777 -2.0418 -0.6941  0.3236
 2082TIP3    H2 6211   0.021   2.387   5.663 -0.7419 -1.3965 -0.9866
 2083TIP3   OH2 6212   3.685   6.109   3.901 -0.5893  0.1266 -0.9286
 2083TIP3    H1 6213   3.632   6.029   3.902  0.1309 -0.3596 -0.5997
 2083TIP3    H2 6214   3.773   6.080   3.926 -0.0903  0.8656 -1.7688
 2084TIP3   OH2 6215   7.028   0.630   5.015  0.0949  0.1426  0.8557
 2084TIP3    H1 6216   6.983   0.691   4.957  1.4077 -0.0714 -0.4522
 2084TIP3    H2 6217   6.982   0.637   5.098 -1.5248  0.8437 -0.0603
 2085TIP3   OH2 6218   0.227   3.812   3.664  0.2660 -0.3725  0.4129
 2085TIP3    H1 6219   0.262   3.725   3.684 -1.1975 -1.3271 -0.8946
 2085TIP3    H2 6220   0.153   3.823   3.723  0.1121 -0.2464  0.1970
 2086TIP3   OH2 6221   4.534   2.052   0.256  0.3708  0.4542  0.1426
 2086TIP3    H1 6222   4.620   2.094   0.250  0.2080  0.8067  0.2199
 2086TIP3    H2 6223   4.499   2.081   0.341 -0.0703  0.7977 -0.1482
 2087TIP3   OH2 6224   6.554   2.341   2.065  0.2955 -0.2118 -0.5944
 2087TIP3    H1 6225   6.572   2.265   2.010 -0.8769 -0.4346 -0.6940
 2087TIP3    H2 6226   6.503   2.307   2.138  1.5848  0.1347  0.4954
 2088TIP3   OH2 6227   2.415   1.851   2.032 -0.5484 -0.7192 -0.1395
 2088TIP3    H1 6228   2.485   1.843   2.096  0.8409 -0.5247 -1.5787
 2088TIP3    H2 6229   2.458   1.840   1.947 -2.5353 -2.3799 -1.0237
 2089TIP3   OH2 6230   5.780   0.623   3.834  0.1334 -0.3954 -0.2360
 2089TIP3    H1 6231   5.730   0.694   3.873 -0.0525  0.2392 -1.5865
 2089TIP3    H2 6232   5.866   0.628   3.875 -0.5637 -0.8415  1.3375
 2090TIP3   OH2 6233   6.863   6.334   3.334  0.6292  0.5671  0.1170
 2090TIP3    H1 6234   6.883   6.300   3.421  2.3707  0.0290 -0.4294
 2090TIP3    H2 6235   6.919   6.282   3.276 -2.8012 -1.4318 -1.7677
 2091TIP3   OH2 6236   7.078   0.973   4.416 -0.0214  0.2198 -0.2182
 2091TIP3    H1 6237   7.054   1.036   4.484  0.6281 -0.3084  0.5050
 2091TIP3    H2 6238   7.095   0.891   4.463  0.8880 -0.0352 -0.9601
 2092TIP3   OH2 6239   3.971   1.482   0.925  0.3826 -0.4908 -0.3543
 2092TIP3    H1 6240   3.910   1.556   0.918  0.6013 -0.0884  1.4813
 2092TIP3    H2 6241   3.942   1.421   0.858 -1.1693  0.3095 -0.4632
 2093TIP3   OH2 6242   6.662   6.403   4.997 -0.7834  0.6615  0.5571
 2093TIP3    H1 6243   6.599   6.363   5.056 -0.9277 -0.0321 -0.0505
 2093TIP3    H2 6244   6.729   6.336   4.982 -1.6464  0.1520 -1.4033
 2094TIP3   OH2 6245   5.615   0.612   1.863 -0.7912  0.0866  0.0552
 2094TIP3    H1 6246   5.645   0.669   1.792 -1.8858 -0.4342 -0.8426
 2094TIP3    H2 6247   5.650   0.653   1.942  2.2032 -0.4157 -0.8784
 2095TIP3   OH2 6248   3.749   5.245   4.611  1.2042 -0.2059 -0.2528
 2095TIP3    H1 6249   3.684   5.186   4.649  1.6509 -0.6983 -0.2423
 2095TIP3    H2 6250   3.728   5.245   4.517  1.1618 -0.3272 -0.2436
 2096TIP3   OH2 6251   3.153   0.670   5.341  0.5490  0.0454 -0.1066
 2096TIP3    H1 6252   3.209   0.608   5.387  1.9810  1.1602 -0.2560
 2096TIP3    H2 6253   3.123   0.730   5.410  2.4703  1.5499 -0.4778
 2097TIP3   OH2 6254   2.965   5.202   3.583 -0.3895  0.2431  0.0985
 2097TIP3    H1 6255   2.970   5.182   3.489  1.2463  0.0695  0.1937
 2097TIP3    H2 6256   3.019   5.135   3.625 -1.8057 -0.2149  1.2756
 2098TIP3   OH2 6257   4.999   1.396   3.319 -0.1680  0.4632 -0.0611
 2098TIP3    H1 6258   5.077   1.352   3.284  0.0364 -2.1592  3.2148
 2098TIP3    H2 6259   5.034   1.471   3.367  0.0741  0.6968 -0.5897
 2099TIP3   OH2 6260   0.415   2.116   4.938  0.1710 -0.6105 -0.4206
 2099TIP3    H1 6261   0.464   2.167   5.004  0.4727 -1.8455  0.3434
 2099TIP3    H2 6262   0.474   2.111   4.863  0.0510  0.3299 -0.5927
 2100TIP3   OH2 6263   1.225   4.802   2.165 -0.5522  0.4344 -0.3493
 2100TIP3    H1 6264   1.171   4.861   2.217  0.3438  0.6278  0.3788
 2100TIP3    H2 6265   1.172   4.722   2.158 -1.2349  0.8641 -0.2694
 2101TIP3   OH2 6266   5.160   5.718   4.144  0.4229 -1.1481 -0.0255
 2101TIP3    H1 6267   5.193   5.784   4.206  1.1372 -1.4227 -0.1069
 2101TIP3    H2 6268   5.086   5.679   4.189 -1.7597  1.5158 -1.0207
 2102TIP3   OH2 6269   1.346   1.274   1.751 -0.0992  0.1814  0.1437
 2102TIP3    H1 6270   1.415   1.322   1.704 -0.5315 -0.3008 -1.0089
 2102TIP3    H2 6271   1.366   1.182   1.737 -1.1168  0.0301 -0.4474
 2103TIP3   OH2 6272   2.131   1.052   4.637 -0.4608  0.1274  0.0510
 2103TIP3    H1 6273   2.055   1.059   4.580 -1.0019  0.7010  0.8305
 2103TIP3    H2 6274   2.168   0.966   4.617 -0.7013  0.2837 -1.0784
 2104TIP3   OH2 6275   3.658   4.122   4.237 -0.2266 -0.3318  0.1389
 2104TIP3    H1 6276   3.588   4.160   4.184  0.2556 -0.5958 -0.7167
 2104TIP3    H2 6277   3.635   4.030   4.244  0.3316 -0.5479 -0.6724
 2105TIP3   OH2 6278   4.033   5.895   0.581  0.3524 -0.5903 -0.0667
 2105TIP3    H1 6279   4.092   5.956   0.624  1.1671 -1.4168  0.0151
 2105TIP3    H2 6280   3.983   5.949   0.520  0.6050  0.2556  0.4584
 2106TIP3   OH2 6281   0.658   5.462   3.416  0.0597 -0.2709 -0.1105
 2106TIP3    H1 6282   0.592   5.394   3.411 -1.4235  1.1908 -1.4638
 2106TIP3    H2 6283   0.693   5.469   3.328 -1.9408  2.6295 -0.8142
 2107TIP3   OH2 6284   2.109   2.374   2.995  0.2865  0.3388 -0.4517
 2107TIP3    H1 6285   2.151   2.288   2.993 -2.0010 -0.8587 -1.7273
 2107TIP3    H2 6286   2.072   2.380   3.083  0.6945  0.1563 -0.2639
 2108TIP3   OH2 6287   6.577   2.217   0.517 -0.3684 -0.5311 -0.3923
 2108TIP3    H1 6288   6.628   2.156   0.571  1.1568  1.2437  0.2935
 2108TIP3    H2 6289   6.630   2.229   0.438  0.9597  2.1324  0.7724
 2109TIP3   OH2 6290   4.832   4.799   3.576 -0.4051  0.5532  0.0587
 2109TIP3    H1 6291   4.872   4.773   3.492  0.8660  0.2323  0.7427
 2109TIP3    H2 6292   4.820   4.893   3.569  1.9957  0.9602  0.4044
 2110TIP3   OH2 6293   6.287   5.178   5.153 -0.3722 -0.1028 -0.3065
 2110TIP3    H1 6294   6.351   5.147   5.217  2.3989 -0.7758 -3.1316
 2110TIP3    H2 6295   6.206   5.189   5.203  1.1482 -2.0718  2.9273
 2111TIP3   OH2 6296   3.138   4.578   2.248  0.3448 -0.6262 -0.0510
 2111TIP3    H1 6297   3.226   4.588   2.211  0.3103 -1.9430 -0.5294
 2111TIP3    H2 6298   3.145   4.613   2.337  1.4492 -1.0592  0.0431
 2112TIP3   OH2 6299   4.062   2.123   5.580  0.2186 -0.7227 -0.2092
 2112TIP3    H1 6300   4.001   2.191   5.609 -0.3894 -1.2971 -0.0944
 2112TIP3    H2 6301   4.110   2.099   5.659  0.3576 -0.5008 -0.2265
 2113TIP3   OH2 6302   0.409   1.909   1.796  0.3642 -0.4272 -0.0011
 2113TIP3    H1 6303   0.356   1.832   1.775  0.8169 -0.7695  0.1003
 2113TIP3    H2 6304   0.351   1.963   1.850 -0.5134  0.0616 -1.3812
 2114TIP3   OH2 6305   6.871   3.368   1.323  0.6571  0.5972 -0.3491
 2114TIP3    H1 6306   6.883   3.369   1.228 -0.6286 -0.7420 -0.5648
 2114TIP3    H2 6307   6.780   3.340   1.336  1.1566 -0.4191  1.2959
 2115TIP3   OH2 6308   2.550   0.218   0.697 -0.5867  0.2723 -0.0011
 2115TIP3    H1 6309   2.509   0.268   0.768 -0.6028 -0.9326  0.8575
 2115TIP3    H2 6310   2.481   0.211   0.631 -0.6318  1.2363 -0.0736
 2116TIP3   OH2 6311   3.060   5.270   4.161  0.3004 -0.0789 -0.7800
 2116TIP3    H1 6312   2.993   5.284   4.095  0.6886  0.4236 -1.0737
 2116TIP3    H2 6313   3.093   5.358   4.181  0.8081 -0.3111 -0.5731
 2117TIP3   OH2 6314   4.544   4.787   1.134 -0.3986 -0.3507  0.0111
 2117TIP3    H1 6315   4.582   4.716   1.187  0.4668 -0.3305 -0.5543
 2117TIP3    H2 6316   4.470   4.818   1.185  1.6288  1.1250  2.2869
 2118TIP3   OH2 6317   3.399   5.565   2.462  0.2285 -0.1514  0.2390
 2118TIP3    H1 6318   3.368   5.544   2.374 -0.0040  2.4391 -0.4021
 2118TIP3    H2 6319   3.390   5.660   2.468  2.8332  0.1008  2.0520
 2119TIP3   OH2 6320   6.895   6.574   0.282 -0.0017  0.1359 -0.0755
 2119TIP3    H1 6321   6.933   6.660   0.263 -0.0096 -0.4345 -3.2108
 2119TIP3    H2 6322   6.893   6.529   0.197 -1.0462 -2.5614  1.2476
 2120TIP3   OH2 6323   1.441   5.975   4.106  0.0641  0.2448 -0.4092
 2120TIP3    H1 6324   1.530   6.004   4.085 -0.0245  0.9703  0.1407
 2120TIP3    H2 6325   1.385   6.048   4.079 -0.5753 -0.9285 -2.4311
 2121TIP3   OH2 6326   2.029   2.398   0.882 -0.4758  0.1267  0.0308
 2121TIP3    H1 6327   2.101   2.394   0.819  0.2647  0.9314  0.7898
 2121TIP3    H2 6328   2.000   2.308   0.891  0.1318 -0.1449 -0.6433
 2122TIP3   OH2 6329   1.076   5.298   3.021  0.0681  0.1401  0.0830
 2122TIP3    H1 6330   1.073   5.327   2.929  2.2331  0.5957  0.0956
 2122TIP3    H2 6331   1.007   5.348   3.064 -0.2894  0.7075 -1.1057
 2123TIP3   OH2 6332   4.963   5.227   0.204 -0.4948 -0.3568 -0.2179
 2123TIP3    H1 6333   4.996   5.252   0.117 -0.5333 -1.7710 -0.6711
 2123TIP3    H2 6334   4.907   5.300   0.230  0.2351  0.4992 -0.9794
 2124TIP3   OH2 6335   2.097   3.568   3.834  0.0649  0.0776  0.3715
 2124TIP3    H1 6336   2.044   3.522   3.899  1.6513 -1.0619  0.9286
 2124TIP3    H2 6337   2.092   3.660   3.860 -3.0927  0.3314 -0.6990
 2125TIP3   OH2 6338   6.429   1.190   2.167  0.2625  0.0016 -0.1115
 2125TIP3    H1 6339   6.465   1.245   2.237  0.8191 -0.4426 -0.0385
 2125TIP3    H2 6340   6.344   1.229   2.148 -0.5377 -0.7037  1.7755
 2126TIP3   OH2 6341   2.374   2.343   0.275 -0.2461 -0.4987  0.9358
 2126TIP3    H1 6342   2.292   2.392   0.281 -0.2505  0.0102 -1.8008
 2126TIP3    H2 6343   2.349   2.252   0.288 -1.7197 -0.6103 -1.9359
 2127TIP3   OH2 6344   5.841   4.580   4.093 -0.8632  0.3964  0.1888
 2127TIP3    H1 6345   5.895   4.658   4.079  0.9423 -0.4463  1.9618
 2127TIP3    H2 6346   5.753   4.607   4.067 -0.4775  3.2915  1.4993
 2128TIP3   OH2 6347   5.324   2.678   3.738  0.1533  0.5012 -0.3021
 2128TIP3    H1 6348   5.390   2.626   3.785 -1.6285 -1.4772  0.1896
 2128TIP3    H2 6349   5.255   2.694   3.803 -1.1693 -0.0258 -1.5092
 2129TIP3   OH2 6350   2.211   3.278   4.664  0.8430  0.0110 -0.2578
 2129TIP3    H1 6351   2.182   3.208   4.722 -0.5648  0.1012 -0.8193
 2129TIP3    H2 6352   2.150   3.350   4.681  2.3670  1.1946  0.4479
 2130TIP3   OH2 6353   2.876   3.427   4.793 -0.4666  0.3082  0.3414
 2130TIP3    H1 6354   2.946   3.461   4.737 -0.6942 -1.0458 -0.8193
 2130TIP3    H2 6355   2.899   3.335   4.806 -0.6273  0.4975  2.1901
 2131TIP3   OH2 6356   5.091   0.444   5.664 -0.0939  0.3242  0.0866
 2131TIP3    H1 6357   5.046   0.428   5.581  0.7314  0.5788 -0.4208
 2131TIP3    H2 6358   5.181   0.416   5.648  0.2410  1.0491  0.6702
 2132TIP3   OH2 6359   4.433   0.573   4.971 -0.0093 -0.0827  0.3440
 2132TIP3    H1 6360   4.415   0.526   5.053  0.6081  1.4821  1.4148
 2132TIP3    H2 6361   4.437   0.665   4.996  1.6070  0.3231 -1.1989
 2133TIP3   OH2 6362   6.626   5.831   5.117 -0.4548  0.5744  0.1450
 2133TIP3    H1 6363   6.640   5.753   5.170 -0.9945 -0.5873 -1.3450
 2133TIP3    H2 6364   6.706   5.841   5.066  0.5233  2.3400  1.8763
 2134TIP3   OH2 6365   7.151   2.439   2.256  0.2408 -0.0860  0.0924
 2134TIP3    H1 6366   7.247   2.436   2.250  0.2389 -1.1855  0.3012
 2134TIP3    H2 6367   7.132   2.409   2.345 -0.3016 -0.0925 -0.0253
 2135TIP3   OH2 6368   0.920   2.576   4.720  0.2069 -0.1507  0.3420
 2135TIP3    H1 6369   0.937   2.630   4.797 -0.1997  1.2451 -0.5261
 2135TIP3    H2 6370   0.856   2.512   4.750 -2.6082  2.4830  0.3458
 2136TIP3   OH2 6371   3.309   2.269   2.653  0.8717  0.1331  0.6345
 2136TIP3    H1 6372   3.225   2.288   2.611  1.1420 -0.9757 -0.5186
 2136TIP3    H2 6373   3.321   2.339   2.717 -0.0118  1.4115 -0.5305
 2137TIP3   OH2 6374   3.116   4.342   5.599  0.0877  0.4137 -0.0551
 2137TIP3    H1 6375   3.071   4.386   5.527 -0.7471  0.2579  0.3586
 2137TIP3    H2 6376   3.127   4.409   5.666  0.0556  0.3375  0.0272
 2138TIP3   OH2 6377   3.749   3.007   1.854 -0.3644 -0.4387  0.1618
 2138TIP3    H1 6378   3.721   3.000   1.945 -0.2647 -2.4337  0.0952
 2138TIP3    H2 6379   3.821   3.070   1.855 -0.1809 -0.6452  1.5172
 2139TIP3   OH2 6380   3.876   6.513   5.798 -0.0043 -0.1935 -0.0790
 2139TIP3    H1 6381   3.917   6.437   5.756 -1.7141 -0.6767 -0.9471
 2139TIP3    H2 6382   3.836   6.478   5.877 -2.2539 -0.6276 -1.3173
 2140TIP3   OH2 6383   0.504   4.211   5.229 -0.4062  0.1716 -0.8380
 2140TIP3    H1 6384   0.409   4.218   5.242 -0.4197 -0.4508 -0.5675
 2140TIP3    H2 6385   0.522   4.117   5.230  0.4268  0.2982  0.7966
 2141TIP3   OH2 6386   1.086   4.493   5.734  0.3554  0.7293 -0.1559
 2141TIP3    H1 6387   1.036   4.510   5.654  1.5026 -2.9076 -1.8453
 2141TIP3    H2 6388   1.064   4.403   5.758  1.7936  0.9524  2.3335
 2142TIP3   OH2 6389   6.925   3.282   4.255  0.4414 -0.2258  0.2183
 2142TIP3    H1 6390   6.894   3.218   4.191  1.3528 -0.2903 -0.1716
 2142TIP3    H2 6391   6.906   3.367   4.216 -0.3782 -0.2527  0.5441
 2143TIP3   OH2 6392   4.252   3.770   5.066 -0.3002 -0.6149 -0.3497
 2143TIP3    H1 6393   4.235   3.685   5.107 -1.4390  0.1890  0.9502
 2143TIP3    H2 6394   4.212   3.833   5.126 -1.4331  0.6875 -2.3579
 2144TIP3   OH2 6395   1.051   6.638   0.294  0.3158  0.1058 -0.4236
 2144TIP3    H1 6396   0.963   6.620   0.260 -0.6903  0.5846  1.7174
 2144TIP3    H2 6397   1.044   6.618   0.388  2.0685  1.5818  0.0665
 2145TIP3   OH2 6398   1.104   6.419   5.104 -0.1562  0.2694 -0.0344
 2145TIP3    H1 6399   1.100   6.425   5.008 -1.6451 -1.3395 -0.1244
 2145TIP3    H2 6400   1.030   6.362   5.127 -0.0799  0.9635  2.1145
 2146TIP3   OH2 6401   3.845   1.027   3.529 -0.4573 -0.2869  0.3274
 2146TIP3    H1 6402   3.907   1.100   3.528  0.1652 -0.8146 -0.1913
 2146TIP3    H2 6403   3.766   1.064   3.568  0.3818  0.2221  1.6187
 2147TIP3   OH2 6404   3.359   2.200   4.915  0.3661  0.3575 -0.3559
 2147TIP3    H1 6405   3.287   2.261   4.928  1.3506  1.9006 -1.8077
 2147TIP3    H2 6406   3.347   2.168   4.825  0.6171 -0.5981 -0.0630
 2148TIP3   OH2 6407   5.297   5.984   5.735 -0.0972  0.0707  0.0799
 2148TIP3    H1 6408   5.210   6.005   5.769  0.0006 -0.9372  0.9868
 2148TIP3    H2 6409   5.284   5.972   5.641 -1.2065 -1.4070  0.3955
 2149TIP3   OH2 6410   2.057   2.900   2.905 -0.7114 -1.0085 -0.4456
 2149TIP3    H1 6411   2.087   2.988   2.881  0.7485 -1.8598 -1.9958
 2149TIP3    H2 6412   2.131   2.862   2.952  0.2835 -2.6939 -3.1591
 2150TIP3   OH2 6413   3.106   1.244   3.074  0.0279  0.1876  0.4439
 2150TIP3    H1 6414   3.019   1.204   3.070 -0.1568  0.5625  0.6770
 2150TIP3    H2 6415   3.092   1.327   3.120  0.3865  0.5766 -0.1411
 2151TIP3   OH2 6416   2.118   3.125   2.463  0.1178 -0.2065  0.4802
 2151TIP3    H1 6417   2.186   3.101   2.526  1.0308  0.7572 -0.0923
 2151TIP3    H2 6418   2.039   3.136   2.516  0.9874  1.1244  1.5790
 2152TIP3   OH2 6419   5.816   5.801   0.885  0.3924 -0.6627 -0.4739
 2152TIP3    H1 6420   5.756   5.728   0.868 -2.0211  0.9355  0.4892
 2152TIP3    H2 6421   5.787   5.871   0.827 -0.1931  0.8771  1.5228
 2153TIP3   OH2 6422   3.186   2.949   4.838 -0.2203  0.2460  0.1104
 2153TIP3    H1 6423   3.278   2.943   4.864 -0.4388 -2.1470  0.5651
 2153TIP3    H2 6424   3.138   2.907   4.909 -1.4064 -0.9325 -1.3333
 2154TIP3   OH2 6425   7.071   1.691   1.982  0.5585  0.5777 -0.1549
 2154TIP3    H1 6426   7.116   1.621   1.935  1.8830  2.7414 -2.3370
 2154TIP3    H2 6427   7.140   1.745   2.018 -0.2913  2.2080 -0.8304
 2155TIP3   OH2 6428   3.215   4.085   5.588 -0.2505 -0.1101  0.4661
 2155TIP3    H1 6429   3.230   4.075   5.682  1.0748  0.7917  0.3767
 2155TIP3    H2 6430   3.174   4.171   5.579  1.0892  0.5151  0.1100
 2156TIP3   OH2 6431   0.110   1.867   4.594 -0.9649 -0.0878  0.2537
 2156TIP3    H1 6432   0.197   1.901   4.574 -1.3377  1.1261  0.6159
 2156TIP3    H2 6433   0.053   1.944   4.594 -1.8514 -0.7157  1.0815
 2157TIP3   OH2 6434   2.149   4.036   1.039 -1.4277 -0.1111  0.1434
 2157TIP3    H1 6435   2.169   3.942   1.044  0.8910  0.3401  0.7251
 2157TIP3    H2 6436   2.092   4.044   0.963  1.0231 -1.6367 -2.0194
 2158TIP3   OH2 6437   2.065   0.615   4.069  0.1575 -0.2863 -0.0446
 2158TIP3    H1 6438   2.035   0.524   4.060 -2.3374  0.5567 -1.1173
 2158TIP3    H2 6439   2.145   0.619   4.016  0.4210 -1.8943  0.1772
 2159TIP3   OH2 6440   6.738   6.675   5.228  0.3767 -0.1667  0.0622
 2159TIP3    H1 6441   6.656   6.671   5.179 -0.2310 -0.5299  1.0692
 2159TIP3    H2 6442   6.726   6.749   5.288  1.5500  0.9923 -1.0431
 2160TIP3   OH2 6443   5.583   4.326   0.331  0.2135  0.1334  0.4942
 2160TIP3    H1 6444   5.556   4.279   0.410  0.4281  0.9190  1.0396
 2160TIP3    H2 6445   5.654   4.382   0.360 -0.0976  0.8635 -0.1329
 2161TIP3   OH2 6446   0.457   5.130   2.765  0.1892  0.0381 -0.4427
 2161TIP3    H1 6447   0.428   5.073   2.836  0.1149  0.3738 -0.1972
 2161TIP3    H2 6448   0.423   5.217   2.789  1.4968  0.4747 -0.0801
 2162TIP3   OH2 6449   0.462   3.065   2.098 -0.1560 -0.1657  0.0711
 2162TIP3    H1 6450   0.412   3.085   2.178 -0.0927  0.2193  0.0190
 2162TIP3    H2 6451   0.452   3.144   2.044  1.2608  0.2938  0.4388
 2163TIP3   OH2 6452   5.157   6.121   3.076  0.3960  0.5655  0.1553
 2163TIP3    H1 6453   5.119   6.055   3.018  0.1313 -0.7286  1.7148
 2163TIP3    H2 6454   5.251   6.115   3.061  0.3298  0.2104 -0.1177
 2164TIP3   OH2 6455   4.232   0.517   4.118 -0.1571 -0.0453  0.5785
 2164TIP3    H1 6456   4.236   0.426   4.087 -1.7983  0.6270 -1.8691
 2164TIP3    H2 6457   4.171   0.514   4.192  0.1341 -0.9762  0.7996
 2165TIP3   OH2 6458   2.170   2.471   2.742 -0.3648  0.7649  0.2489
 2165TIP3    H1 6459   2.134   2.421   2.815  0.4296 -0.7415 -0.3398
 2165TIP3    H2 6460   2.252   2.506   2.775  0.8766 -1.3816 -0.3851
 2166TIP3   OH2 6461   5.991   0.795   1.561  0.5981  0.4464  0.4462
 2166TIP3    H1 6462   6.079   0.810   1.525  0.6917  0.9672  0.8739
 2166TIP3    H2 6463   6.002   0.807   1.655  0.3759 -0.9975  0.6808
 2167TIP3   OH2 6464   5.378   5.768   0.738  0.0998  0.4519  0.3908
 2167TIP3    H1 6465   5.338   5.799   0.657  0.1713  1.4513  0.7273
 2167TIP3    H2 6466   5.307   5.724   0.785 -0.0954  0.4254  0.0707
 2168TIP3   OH2 6467   2.017   2.635   1.976  0.5407 -0.5850  0.1641
 2168TIP3    H1 6468   1.986   2.655   1.887 -0.3246  0.8780  0.7658
 2168TIP3    H2 6469   2.111   2.647   1.971  0.4377  0.0965 -0.4168
 2169TIP3   OH2 6470   0.577   5.482   3.006 -0.3641 -0.4638 -0.1551
 2169TIP3    H1 6471   0.510   5.524   3.060 -0.8938  0.7025 -1.6666
 2169TIP3    H2 6472   0.659   5.503   3.050 -0.5214  2.8442 -1.1637
 2170TIP3   OH2 6473   4.128   3.171   2.661  0.1548  0.2979  0.2899
 2170TIP3    H1 6474   4.223   3.161   2.672  0.5424  1.7205 -1.3053
 2170TIP3    H2 6475   4.090   3.105   2.718  2.1356 -1.1550  0.0186
 2171TIP3   OH2 6476   1.201   3.649   2.174  0.3711 -0.2228 -0.5326
 2171TIP3    H1 6477   1.239   3.617   2.092 -0.5581 -0.0754 -1.0312
 2171TIP3    H2 6478   1.146   3.723   2.148 -0.5792 -0.6767  0.1071
 2172TIP3   OH2 6479   6.263   1.617   5.229  0.4230  0.2160 -0.1931
 2172TIP3    H1 6480   6.177   1.575   5.238  0.3888  0.0117 -1.2980
 2172TIP3    H2 6481   6.288   1.641   5.318  1.8647 -4.8951  1.1090
 2173TIP3   OH2 6482   0.596   3.605   5.386 -0.8777  0.0041 -0.2509
 2173TIP3    H1 6483   0.600   3.525   5.437  1.4581  0.4142  0.3237
 2173TIP3    H2 6484   0.618   3.577   5.296  1.4293  0.1211  0.2102
 2174TIP3   OH2 6485   0.923   0.827   0.450  0.0709 -0.1633  0.1293
 2174TIP3    H1 6486   0.944   0.769   0.377  0.0400 -1.5511  1.1826
 2174TIP3    H2 6487   0.850   0.784   0.495 -0.0062  0.7316  0.9020
 2175TIP3   OH2 6488   1.222   5.853   5.265 -0.5381 -0.1707 -0.5485
 2175TIP3    H1 6489   1.302   5.864   5.317 -0.6218 -0.5988 -0.3255
 2175TIP3    H2 6490   1.153   5.840   5.329 -0.6983 -0.3560 -0.7582
 2176TIP3   OH2 6491   2.199   5.325   2.830  0.1359 -0.2014  0.4506
 2176TIP3    H1 6492   2.217   5.271   2.907  2.9572 -0.3100 -0.1858
 2176TIP3    H2 6493   2.211   5.265   2.756 -0.8226  0.3175 -0.1346
 2177TIP3   OH2 6494   7.051   4.553   2.177  0.2828 -0.6162 -0.1007
 2177TIP3    H1 6495   7.138   4.530   2.145  0.3932 -0.7639  0.3007
 2177TIP3    H2 6496   7.030   4.635   2.132  1.5511  0.6204  1.4086
 2178TIP3   OH2 6497   5.425   1.946   4.461 -1.2817 -0.0873  0.0043
 2178TIP3    H1 6498   5.438   2.025   4.409 -0.1812 -0.4715 -0.3209
 2178TIP3    H2 6499   5.398   1.979   4.547  1.3383  0.7959  0.5783
 2179TIP3   OH2 6500   3.371   2.611   1.754 -0.2166  0.4138 -0.1523
 2179TIP3    H1 6501   3.456   2.655   1.758  0.4730 -0.8695 -0.2015
 2179TIP3    H2 6502   3.307   2.682   1.749  0.9756  1.4065 -2.9929
 2180TIP3   OH2 6503   1.271   1.614   0.549  0.3645  0.1639  0.6792
 2180TIP3    H1 6504   1.313   1.598   0.634  0.6040 -0.7466  0.4056
 2180TIP3    H2 6505   1.243   1.527   0.520  0.2530  0.4713 -0.1551
 2181TIP3   OH2 6506   4.324   4.809   2.142  0.1064  0.3522  0.0512
 2181TIP3    H1 6507   4.375   4.853   2.210 -0.7106 -0.4611  1.2433
 2181TIP3    H2 6508   4.367   4.724   2.131 -0.8592 -0.2803  0.9630
 2182TIP3   OH2 6509   1.077   3.594   0.485  0.4498  0.0217  0.3949
 2182TIP3    H1 6510   1.130   3.668   0.457  2.4071 -1.1360  0.8396
 2182TIP3    H2 6511   1.017   3.630   0.550  0.2157  1.4946 -0.6054
 2183TIP3   OH2 6512   3.636   3.751   3.817  0.0417 -0.0814 -0.0814
 2183TIP3    H1 6513   3.556   3.714   3.780 -0.2018  0.7293 -0.3860
 2183TIP3    H2 6514   3.673   3.681   3.870  0.0337 -1.0370 -1.3057
 2184TIP3   OH2 6515   7.098   2.475   2.914 -0.2440 -0.0122 -0.3524
 2184TIP3    H1 6516   7.030   2.524   2.867 -0.1339 -1.0995 -1.7129
 2184TIP3    H2 6517   7.171   2.536   2.920 -0.6962  0.5548 -0.4927
 2185TIP3   OH2 6518   7.225   6.234   4.372 -0.3107 -0.0127  0.0005
 2185TIP3    H1 6519   7.188   6.306   4.423 -0.0172  0.6718 -0.7246
 2185TIP3    H2 6520   7.219   6.264   4.281  2.5788  0.4177 -0.1276
 2186TIP3   OH2 6521   1.829   3.816   3.347  0.0467 -0.2777  0.0562
 2186TIP3    H1 6522   1.856   3.749   3.285  1.7631  0.4932 -0.0735
 2186TIP3    H2 6523   1.735   3.827   3.331  0.3117 -0.5816 -1.9380
 2187TIP3   OH2 6524   2.911   5.800   3.301 -0.3074 -0.3162 -0.3539
 2187TIP3    H1 6525   2.905   5.709   3.333 -1.0083 -0.0298  0.3623
 2187TIP3    H2 6526   2.998   5.805   3.262 -0.0623 -1.1643  0.0376
 2188TIP3   OH2 6527   6.595   0.338   1.977 -0.8613 -0.1648 -0.2254
 2188TIP3    H1 6528   6.526   0.337   2.043  2.2085 -0.8490  3.3024
 2188TIP3    H2 6529   6.608   0.431   1.959 -2.3071 -0.0035 -0.6260
 2189TIP3   OH2 6530   6.181   2.406   3.375  0.7843  0.5949 -0.8376
 2189TIP3    H1 6531   6.093   2.375   3.393  1.4416 -0.3551  1.0092
 2189TIP3    H2 6532   6.211   2.443   3.458  3.2438 -2.0747 -0.3506
 2190TIP3   OH2 6533   3.750   3.272   0.603  0.4895  0.4051 -0.2426
 2190TIP3    H1 6534   3.790   3.351   0.566  1.1081  0.4589  0.5009
 2190TIP3    H2 6535   3.691   3.240   0.535  0.9721  0.9623 -0.9367
 2191TIP3   OH2 6536   7.094   2.490   5.600  0.6204  0.1521 -0.1854
 2191TIP3    H1 6537   7.005   2.462   5.621  0.9664  1.1570  3.3520
 2191TIP3    H2 6538   7.084   2.577   5.562  0.0676 -0.0836 -0.5849
 2192TIP3   OH2 6539   0.623   5.542   1.480  0.2490 -0.6698  0.0207
 2192TIP3    H1 6540   0.701   5.588   1.511 -0.5185  0.7611 -0.1096
 2192TIP3    H2 6541   0.648   5.450   1.483  2.1062 -0.2386 -0.4545
 2193TIP3   OH2 6542   0.198   0.231   1.882 -0.0220 -0.1814 -0.0053
 2193TIP3    H1 6543   0.194   0.305   1.821 -1.5007  0.2264  0.5214
 2193TIP3    H2 6544   0.227   0.270   1.964 -1.2012 -0.0806  0.3804
 2194TIP3   OH2 6545   4.793   3.903   2.262 -0.6994 -0.5275 -0.6453
 2194TIP3    H1 6546   4.800   3.808   2.255 -1.9732 -0.6826 -0.0320
 2194TIP3    H2 6547   4.813   3.923   2.353  0.4945 -0.0906 -0.9811
 2195TIP3   OH2 6548   5.534   6.157   1.513  0.2986  0.0746 -0.3065
 2195TIP3    H1 6549   5.616   6.196   1.543 -0.1386  1.3902 -0.7511
 2195TIP3    H2 6550   5.482   6.231   1.482  0.0256 -0.9975 -2.6150
 2196TIP3   OH2 6551   1.074   2.919   1.882  0.0076 -0.3964  0.6254
 2196TIP3    H1 6552   1.001   2.974   1.853  0.5971  0.2694  0.3689
 2196TIP3    H2 6553   1.152   2.966   1.852  0.5879 -0.5178  1.8911
 2197TIP3   OH2 6554   7.052   3.069   3.497 -0.3019 -0.3042  0.0815
 2197TIP3    H1 6555   6.996   3.033   3.566 -0.5293 -1.9726 -0.9181
 2197TIP3    H2 6556   6.990   3.107   3.434 -0.5779 -3.4407 -1.7644
 2198TIP3   OH2 6557   4.817   1.089   1.750  0.3137  0.1866 -0.0973
 2198TIP3    H1 6558   4.792   1.000   1.775 -3.3159  0.8714 -0.8327
 2198TIP3    H2 6559   4.813   1.089   1.655 -1.9845  1.6049 -0.0760
 2199TIP3   OH2 6560   4.174   3.675   1.399  0.0950  0.0099 -0.5219
 2199TIP3    H1 6561   4.217   3.760   1.386  0.0333  0.1981  0.4012
 2199TIP3    H2 6562   4.234   3.612   1.360  3.0535 -0.1246  3.5421
 2200TIP3   OH2 6563   5.499   1.732   4.299  0.2326  0.3546  0.2884
 2200TIP3    H1 6564   5.420   1.709   4.250  0.2058  0.2936  0.3597
 2200TIP3    H2 6565   5.480   1.818   4.337  0.0612  0.1788  0.6038
 2201TIP3   OH2 6566   4.196   4.986   2.466 -0.0551 -0.6319 -0.4825
 2201TIP3    H1 6567   4.176   4.998   2.373  1.6336 -1.4002 -0.9800
 2201TIP3    H2 6568   4.177   4.894   2.483  0.0453 -0.5977 -0.1770
 2202TIP3   OH2 6569   6.555   2.545   3.255 -0.2372  0.8325 -0.1729
 2202TIP3    H1 6570   6.630   2.588   3.216 -0.4058  1.5868  0.3236
 2202TIP3    H2 6571   6.518   2.609   3.316 -0.1803 -0.1840  0.9840
 2203TIP3   OH2 6572   4.014   6.211   2.438 -0.5045 -0.9262 -0.3343
 2203TIP3    H1 6573   4.076   6.245   2.503 -0.2066 -2.3445  0.1486
 2203TIP3    H2 6574   4.051   6.237   2.354 -0.1163 -0.3666 -0.0025
 2204TIP3   OH2 6575   1.947   5.194   4.141 -0.4180 -0.7871 -0.1678
 2204TIP3    H1 6576   1.875   5.178   4.079  0.2110 -1.7148 -0.6805
 2204TIP3    H2 6577   1.910   5.256   4.205 -2.3230 -2.6579  0.6851
 2205TIP3   OH2 6578   5.052   0.491   1.124  0.7363 -0.0122  0.2371
 2205TIP3    H1 6579   5.023   0.567   1.174 -0.9702  0.6612 -1.6386
 2205TIP3    H2 6580   5.128   0.524   1.074  0.1001  0.4524 -0.4500
 2206TIP3   OH2 6581   0.270   4.268   3.907  1.0083  0.3611 -0.0929
 2206TIP3    H1 6582   0.214   4.220   3.968 -0.6628  1.6901 -0.4868
 2206TIP3    H2 6583   0.212   4.333   3.868  2.5074  0.8461 -1.6479
 2207TIP3   OH2 6584   1.507   0.768   2.609 -0.1660  0.0001  0.0616
 2207TIP3    H1 6585   1.455   0.844   2.583  0.7524  0.1873 -1.3700
 2207TIP3    H2 6586   1.598   0.795   2.593  0.3123 -0.7121  1.4149
 2208TIP3   OH2 6587   4.135   1.900   2.154 -0.1829  0.2964  0.2276
 2208TIP3    H1 6588   4.093   1.814   2.147  0.4732 -0.0729  0.7263
 2208TIP3    H2 6589   4.218   1.883   2.198 -0.2473  1.2568  0.7622
 2209TIP3   OH2 6590   6.151   3.344   1.424 -0.2425 -0.0162  0.2370
 2209TIP3    H1 6591   6.196   3.272   1.380 -0.9095  0.7612 -1.8450
 2209TIP3    H2 6592   6.078   3.365   1.366  0.4520  2.9255  0.2614
 2210TIP3   OH2 6593   6.101   6.287   2.110 -0.5198 -0.0879  0.2172
 2210TIP3    H1 6594   6.160   6.219   2.145 -0.1287  0.4923  0.7052
 2210TIP3    H2 6595   6.156   6.364   2.100 -1.7100  1.3284  3.3226
 2211TIP3   OH2 6596   4.001   0.201   2.054 -0.3161  0.0632 -0.1062
 2211TIP3    H1 6597   3.997   0.287   2.011 -0.2586 -0.4261 -1.1223
 2211TIP3    H2 6598   4.007   0.139   1.982 -0.8923 -0.8357  0.6041
 2212TIP3   OH2 6599   6.130   3.796   3.278 -0.2454  0.1357 -0.3209
 2212TIP3    H1 6600   6.102   3.723   3.332 -1.5646  0.1476 -0.9571
 2212TIP3    H2 6601   6.057   3.813   3.219  0.3297  1.4712 -0.7102
 2213TIP3   OH2 6602   6.296   4.944   0.961 -0.6198  0.1330 -0.7977
 2213TIP3    H1 6603   6.323   4.863   0.917  1.2569  0.2828 -0.0313
 2213TIP3    H2 6604   6.320   4.931   1.053 -0.8119  1.3239 -0.5627
 2214TIP3   OH2 6605   4.823   1.975   2.622  0.1261 -0.1717  0.4606
 2214TIP3    H1 6606   4.755   1.909   2.631  1.5401 -1.6103  1.0036
 2214TIP3    H2 6607   4.870   1.973   2.706  0.8721  0.7511  0.0815
 2215TIP3   OH2 6608   3.310   3.105   2.683 -0.1868 -0.7520  0.3686
 2215TIP3    H1 6609   3.381   3.082   2.624 -1.9038  0.5078 -2.3777
 2215TIP3    H2 6610   3.244   3.037   2.670 -0.4344 -0.6734  1.1491
 2216TIP3   OH2 6611   1.442   2.438   5.643 -0.3263  0.1058 -0.5756
 2216TIP3    H1 6612   1.477   2.437   5.554 -0.6588 -0.1138 -0.7081
 2216TIP3    H2 6613   1.494   2.504   5.688 -0.7515  0.8930 -1.1910
 2217TIP3   OH2 6614   6.179   6.002   0.194  0.2757 -0.4615 -0.1293
 2217TIP3    H1 6615   6.198   6.065   0.125 -1.4707  0.8626  0.5273
 2217TIP3    H2 6616   6.083   5.999   0.199  0.3496 -0.9673  1.8181
 2218TIP3   OH2 6617   2.978   3.214   0.670 -0.1056  0.0855  0.1595
 2218TIP3    H1 6618   2.983   3.305   0.699 -1.1297  0.2046  0.0029
 2218TIP3    H2 6619   2.942   3.219   0.581 -1.5016 -0.5284  0.6616
 2219TIP3   OH2 6620   4.693   3.743   2.795 -0.1011  0.5136 -0.1833
 2219TIP3    H1 6621   4.684   3.838   2.789  0.3601  0.4893 -2.0491
 2219TIP3    H2 6622   4.787   3.727   2.783  0.1764 -0.0890  2.3548
 2220TIP3   OH2 6623   6.321   1.776   3.062 -0.7530  0.4000  0.6010
 2220TIP3    H1 6624   6.357   1.834   2.995 -0.2940  0.1546  0.6287
 2220TIP3    H2 6625   6.305   1.694   3.015 -0.1838  0.1438  0.8426
 2221TIP3   OH2 6626   4.507   3.508   0.067  0.7665  0.3379  0.3001
 2221TIP3    H1 6627   4.602   3.493   0.063  0.6552 -0.4514  0.5955
 2221TIP3    H2 6628   4.468   3.421   0.064  0.0389  0.6595  0.1034
 2222TIP3   OH2 6629   3.165   0.907   0.748 -0.2209  0.2194  0.1729
 2222TIP3    H1 6630   3.167   0.954   0.664  0.7401  0.4649  0.3259
 2222TIP3    H2 6631   3.240   0.848   0.745 -0.5604 -0.2484  0.6012
 2223TIP3   OH2 6632   6.289   4.805   5.326 -0.0967 -0.2374  0.2326
 2223TIP3    H1 6633   6.339   4.872   5.278 -1.4815  0.4113 -0.3484
 2223TIP3    H2 6634   6.260   4.849   5.406 -1.2670 -0.0364 -0.2933
 2224TIP3   OH2 6635   6.485   5.502   3.209 -0.5390  0.2973 -0.0566
 2224TIP3    H1 6636   6.449   5.424   3.252  0.3571  0.6286  1.3696
 2224TIP3    H2 6637   6.481   5.482   3.116 -0.8912 -1.2100  0.2540
 2225TIP3   OH2 6638   5.093   6.572   0.224  0.1881 -0.4776  0.5062
 2225TIP3    H1 6639   5.080   6.590   0.131  0.7524 -2.7577 -0.0933
 2225TIP3    H2 6640   5.187   6.587   0.239 -0.1573  1.3278  1.1229
 2226TIP3   OH2 6641   3.995   2.749   4.146 -0.5177 -0.0304  0.3459
 2226TIP3    H1 6642   4.001   2.726   4.053 -0.0883  0.4224  0.2587
 2226TIP3    H2 6643   4.074   2.712   4.185 -0.1072  0.7760  0.3092
 2227TIP3   OH2 6644   7.041   4.369   1.171 -0.1540  0.0272 -0.3553
 2227TIP3    H1 6645   6.991   4.344   1.249 -1.1763  1.5566 -0.4789
 2227TIP3    H2 6646   6.982   4.350   1.098 -1.2852  3.1871 -0.4278
 2228TIP3   OH2 6647   5.053   4.991   4.270 -0.5468 -0.3292 -0.0080
 2228TIP3    H1 6648   4.964   5.015   4.296 -0.8297  1.8470 -2.6011
 2228TIP3    H2 6649   5.098   5.075   4.259  1.6250 -1.3697  0.4381
 2229TIP3   OH2 6650   6.238   3.097   0.093  0.9837  0.5004 -0.5933
 2229TIP3    H1 6651   6.186   3.165   0.050  0.7719  0.4980 -0.3411
 2229TIP3    H2 6652   6.205   3.095   0.183  2.3967  1.4791 -0.0280
 2230TIP3   OH2 6653   3.144   2.378   3.360  0.3039  0.2511  0.0762
 2230TIP3    H1 6654   3.235   2.406   3.350  0.1361  0.4858 -0.9321
 2230TIP3    H2 6655   3.095   2.440   3.307 -0.2549 -0.9383 -0.8180
 2231TIP3   OH2 6656   1.887   4.668   3.425 -0.4172 -0.6381 -0.0983
 2231TIP3    H1 6657   1.853   4.738   3.480 -1.9712 -0.9009 -0.6801
 2231TIP3    H2 6658   1.979   4.660   3.450 -0.5608  0.6804  0.9287
 2232TIP3   OH2 6659   5.075   3.015   0.644  0.4124 -0.2595  0.5476
 2232TIP3    H1 6660   4.997   3.069   0.658  1.5576  1.2931  1.2853
 2232TIP3    H2 6661   5.109   3.044   0.560  0.5839 -0.4050  0.5668
 2233TIP3   OH2 6662   3.443   3.391   0.554  0.0457 -0.8980  0.1295
 2233TIP3    H1 6663   3.428   3.398   0.648 -0.2963  1.0505 -0.0364
 2233TIP3    H2 6664   3.455   3.481   0.525 -1.1472 -1.3381 -1.9052
 2234TIP3   OH2 6665   6.705   4.703   3.187  0.2788 -0.0658 -0.5867
 2234TIP3    H1 6666   6.674   4.759   3.116  1.4375 -1.0229 -1.9191
 2234TIP3    H2 6667   6.728   4.764   3.257  0.4968  1.0507 -1.5863
 2235TIP3   OH2 6668   0.706   1.455   3.366  0.5203  0.3584 -0.2874
 2235TIP3    H1 6669   0.618   1.483   3.341 -0.1728 -0.6581  0.8396
 2235TIP3    H2 6670   0.741   1.411   3.289  0.4779  1.7165 -1.0979
 2236TIP3   OH2 6671   3.180   6.020   3.491  0.1510  0.3336  0.1951
 2236TIP3    H1 6672   3.136   6.058   3.415  0.3060  2.7452  1.2300
 2236TIP3    H2 6673   3.273   6.027   3.471  0.1834  0.4100  0.3785
 2237TIP3   OH2 6674   1.120   0.170   0.153  0.0494 -0.0262  0.2322
 2237TIP3    H1 6675   1.083   0.082   0.161 -1.0651  0.3712 -0.3059
 2237TIP3    H2 6676   1.105   0.194   0.061  2.0447  0.0055 -0.1224
 2238TIP3   OH2 6677   0.943   6.225   1.438  0.3045 -0.1171  0.7527
 2238TIP3    H1 6678   0.873   6.189   1.383 -1.4387 -2.6479  4.2117
 2238TIP3    H2 6679   0.901   6.295   1.488  1.3869  1.0091  0.1356
 2239TIP3   OH2 6680   1.625   1.064   0.547 -0.7965 -0.5177 -0.4898
 2239TIP3    H1 6681   1.618   0.987   0.603  0.2793 -1.7185 -1.9289
 2239TIP3    H2 6682   1.629   1.029   0.458  0.5768  1.1442 -1.1402
 2240TIP3   OH2 6683   4.346   2.520   3.407 -0.4731 -0.0774  0.4284
 2240TIP3    H1 6684   4.420   2.461   3.392  0.6290  1.4889 -0.4983
 2240TIP3    H2 6685   4.374   2.576   3.480  0.1971  1.9018 -1.2471
 2241TIP3   OH2 6686   3.552   6.460   0.043  0.8289  0.2695  0.0243
 2241TIP3    H1 6687   3.616   6.394   0.016  1.0707  0.0945  0.9998
 2241TIP3    H2 6688   3.515   6.427   0.125 -0.4744  0.4001 -0.4779
 2242TIP3   OH2 6689   6.756   6.684   0.619 -0.5423 -0.5040 -0.1044
 2242TIP3    H1 6690   6.667   6.663   0.649  0.0078 -0.8968  1.3365
 2242TIP3    H2 6691   6.752   6.776   0.593 -1.2167 -0.3436  0.5544
 2243TIP3   OH2 6692   0.954   6.586   1.981 -0.1582 -0.2352 -0.4112
 2243TIP3    H1 6693   0.927   6.569   2.071 -0.9404 -0.2008 -0.6358
 2243TIP3    H2 6694   0.934   6.505   1.934 -1.2294  0.2840 -0.8804
 2244TIP3   OH2 6695   4.457   2.850   3.840 -0.1279 -0.0575  0.0195
 2244TIP3    H1 6696   4.376   2.851   3.892 -0.4806 -2.1199 -0.4164
 2244TIP3    H2 6697   4.513   2.786   3.882  0.1740 -0.6758 -1.2692
 2245TIP3   OH2 6698   5.255   4.388   4.166 -0.2067  0.1968  0.6051
 2245TIP3    H1 6699   5.194   4.360   4.235 -0.4572 -0.7387  0.0188
 2245TIP3    H2 6700   5.219   4.472   4.135 -0.1842  0.5375  1.4833
 2246TIP3   OH2 6701   3.426   3.837   0.681 -0.4203 -0.5373  0.1431
 2246TIP3    H1 6702   3.406   3.900   0.750  1.6127 -0.1186  0.3930
 2246TIP3    H2 6703   3.375   3.867   0.606  0.2876  1.2729  0.3357
 2247TIP3   OH2 6704   6.166   2.217   1.050 -0.3678 -0.1903  0.7405
 2247TIP3    H1 6705   6.230   2.183   1.113  0.2521 -0.1124  0.1664
 2247TIP3    H2 6706   6.219   2.259   0.983 -0.9170 -1.6130 -0.6505
 2248TIP3   OH2 6707   1.728   2.899   0.985 -0.9579  0.0728  0.2686
 2248TIP3    H1 6708   1.756   2.986   0.957 -1.2571 -0.1643 -0.8341
 2248TIP3    H2 6709   1.751   2.842   0.912  2.0673 -1.3677  2.1673
 2249TIP3   OH2 6710   3.040   0.515   4.213 -0.2087 -0.0757  0.2088
 2249TIP3    H1 6711   2.979   0.451   4.175 -0.7570  0.2109  0.5928
 2249TIP3    H2 6712   3.106   0.462   4.258 -0.4394 -0.3749  0.1976
 2250TIP3   OH2 6713   5.218   4.079   3.459 -1.1665  0.0467  0.6623
 2250TIP3    H1 6714   5.234   4.172   3.447 -0.0099 -0.1935  0.1889
 2250TIP3    H2 6715   5.133   4.063   3.418 -0.6133  0.5930 -0.7652
 2251TIP3   OH2 6716   3.112   5.237   3.190 -0.3636 -0.3526 -0.1088
 2251TIP3    H1 6717   3.026   5.242   3.147 -1.0242 -2.1133  0.9137
 2251TIP3    H2 6718   3.175   5.258   3.121 -1.4216 -2.3670 -1.8139
 2252TIP3   OH2 6719   1.304   1.418   0.005  0.1143 -0.1799 -0.6950
 2252TIP3    H1 6720   1.316   1.360   0.080 -0.7707 -0.2176 -0.5653
 2252TIP3    H2 6721   1.389   1.460  -0.007  0.2238 -0.0395  0.4443
 2253TIP3   OH2 6722   2.056   6.317   0.401  0.2420  0.0832 -0.1056
 2253TIP3    H1 6723   2.082   6.387   0.461 -0.4163  0.0060  0.2784
 2253TIP3    H2 6724   2.013   6.252   0.457  1.8810 -1.2118 -0.2462
 2254TIP3   OH2 6725   2.582   0.409   4.655  0.0524  0.5210  0.2474
 2254TIP3    H1 6726   2.517   0.479   4.649 -0.3383  0.2880  1.5964
 2254TIP3    H2 6727   2.547   0.349   4.721 -0.3933 -1.7794 -1.9197
 2255TIP3   OH2 6728   5.567   0.429   0.553 -0.6924 -0.0259 -0.3170
 2255TIP3    H1 6729   5.616   0.402   0.631 -1.2709 -0.8109 -0.2155
 2255TIP3    H2 6730   5.477   0.439   0.584 -1.0753 -1.0874 -1.0424
 2256TIP3   OH2 6731   0.598   3.509   2.078 -0.3341 -0.0131 -0.3380
 2256TIP3    H1 6732   0.525   3.448   2.070 -0.8902  0.6630 -0.5020
 2256TIP3    H2 6733   0.676   3.453   2.080 -0.8976 -0.7840  0.6592
 2257TIP3   OH2 6734   2.485   5.993   0.282 -0.5713  0.0852 -0.6554
 2257TIP3    H1 6735   2.577   6.018   0.284  0.0130 -1.8269  1.5637
 2257TIP3    H2 6736   2.437   6.075   0.294  1.0028  0.8082  1.3054
 2258TIP3   OH2 6737   0.772   0.583   4.539  0.1638 -0.3235  0.2289
 2258TIP3    H1 6738   0.737   0.618   4.621  0.7414  0.8940 -0.0114
 2258TIP3    H2 6739   0.819   0.657   4.500  1.7786 -1.4719 -0.1372
 2259TIP3   OH2 6740   2.417   2.642   5.426 -0.0366  0.1951 -0.7772
 2259TIP3    H1 6741   2.494   2.609   5.380  0.7367 -0.7695  1.1391
 2259TIP3    H2 6742   2.343   2.618   5.370  1.0256  1.7665 -3.0170
 2260TIP3   OH2 6743   2.220   1.970   4.532 -0.0978  0.0159 -0.2053
 2260TIP3    H1 6744   2.228   1.907   4.460  0.0087  0.9184 -1.0100
 2260TIP3    H2 6745   2.235   1.919   4.611  0.3259 -0.8998 -0.8643
 2261TIP3   OH2 6746   6.921   5.348   5.867 -0.2040  0.0883 -0.3850
 2261TIP3    H1 6747   6.926   5.392   5.952  1.2993 -0.7938  0.0297
 2261TIP3    H2 6748   6.951   5.415   5.805  0.9294  0.0621  0.0934
 2262TIP3   OH2 6749   4.489   0.272   2.497 -0.3440  0.0234 -0.3671
 2262TIP3    H1 6750   4.553   0.268   2.425  0.1264  1.4604 -0.0738
 2262TIP3    H2 6751   4.419   0.329   2.464 -0.0903  0.7546  0.3091
 2263TIP3   OH2 6752   0.423   5.951   3.930 -0.3102 -0.1075 -0.0061
 2263TIP3    H1 6753   0.386   6.014   3.868  1.8960  0.3239 -0.9963
 2263TIP3    H2 6754   0.485   6.003   3.982 -0.2109 -0.9909  0.7801
 2264TIP3   OH2 6755   6.987   3.589   1.409  0.3530 -0.5427 -0.5353
 2264TIP3    H1 6756   6.935   3.653   1.361 -0.4527 -0.4937  0.3879
 2264TIP3    H2 6757   6.973   3.507   1.362 -1.3837 -0.7471  0.2632
 2265TIP3   OH2 6758   3.274   0.024   0.755 -0.2932  0.2018  0.1495
 2265TIP3    H1 6759   3.308   0.114   0.751  1.4984 -0.1052  3.9389
 2265TIP3    H2 6760   3.184   0.033   0.786 -0.0983  0.6675  0.5783
 2266TIP3   OH2 6761   1.563   2.691   4.512  0.0724  0.1203  0.0588
 2266TIP3    H1 6762   1.531   2.613   4.466  1.2194 -0.3038 -0.0593
 2266TIP3    H2 6763   1.507   2.699   4.589 -1.2991  0.3059 -0.9194
 2267TIP3   OH2 6764   0.010   4.446   4.470  0.3348  0.4218 -0.1200
 2267TIP3    H1 6765   0.009   4.537   4.500  2.2318 -0.2310  2.1678
 2267TIP3    H2 6766   0.078   4.445   4.402 -0.3856  0.8698 -0.8712
 2268TIP3   OH2 6767   2.158   5.188   5.382  0.1040  0.2111 -0.4552
 2268TIP3    H1 6768   2.188   5.105   5.418  2.6071  2.3797  3.1279
 2268TIP3    H2 6769   2.083   5.212   5.437 -0.5040  0.4091 -1.3610
 2269TIP3   OH2 6770   2.288   3.956   3.542  0.6394 -0.4037  0.0750
 2269TIP3    H1 6771   2.313   4.047   3.561 -0.4580  0.0666 -0.6119
 2269TIP3    H2 6772   2.345   3.903   3.597  1.5257  0.6938  0.2514
 2270TIP3   OH2 6773   4.384   0.353   3.602 -0.0310 -0.5642 -0.1514
 2270TIP3    H1 6774   4.346   0.432   3.564  0.0223 -0.7583 -0.6144
 2270TIP3    H2 6775   4.451   0.326   3.539  0.5817 -0.4634  0.4523
 2271TIP3   OH2 6776   2.156   1.680   2.764  0.2450  0.0102  0.4990
 2271TIP3    H1 6777   2.134   1.635   2.845  0.0567 -1.3113 -0.2621
 2271TIP3    H2 6778   2.110   1.632   2.696  0.4054  1.0914 -0.4126
 2272TIP3   OH2 6779   2.850   2.861   5.426 -0.5396  0.1372  0.4452
 2272TIP3    H1 6780   2.908   2.862   5.503  1.3897  0.2071 -0.9388
 2272TIP3    H2 6781   2.825   2.952   5.414 -1.1589  0.0776  1.1830
 2273TIP3   OH2 6782   2.881   5.217   2.430  0.1018 -0.6359  0.4720
 2273TIP3    H1 6783   2.886   5.186   2.340  2.0579  1.7653 -0.3591
 2273TIP3    H2 6784   2.812   5.283   2.429 -0.1636 -0.9022  0.8551
 2274TIP3   OH2 6785   6.178   6.370   3.403  0.4657  0.5628 -0.0260
 2274TIP3    H1 6786   6.125   6.438   3.444  0.0315 -0.2672  0.8317
 2274TIP3    H2 6787   6.176   6.391   3.310 -0.7794  0.9680  0.0716
 2275TIP3   OH2 6788   1.091   0.884   2.239 -0.1066 -0.1548 -0.2329
 2275TIP3    H1 6789   1.032   0.831   2.292 -0.0445  0.0407  0.0349
 2275TIP3    H2 6790   1.101   0.966   2.289 -0.0090  0.0107 -0.5213
 2276TIP3   OH2 6791   2.582   1.614   2.704  0.5564  0.2622 -0.5968
 2276TIP3    H1 6792   2.616   1.693   2.746 -2.6872  2.3871 -1.6207
 2276TIP3    H2 6793   2.547   1.644   2.620 -0.2378 -2.4152 -1.3517
 2277TIP3   OH2 6794   3.379   1.809   3.475  0.2270  0.5917  0.4654
 2277TIP3    H1 6795   3.450   1.863   3.510  0.6095  1.4234 -1.4575
 2277TIP3    H2 6796   3.299   1.858   3.492  0.2405  0.3038  1.4099
 2278TIP3   OH2 6797   2.743   1.979   3.215  0.4684  0.8610  0.0061
 2278TIP3    H1 6798   2.769   1.931   3.294 -1.0212  1.6857  1.0471
 2278TIP3    H2 6799   2.749   1.915   3.145  0.6730 -0.2246  0.9900
 2279TIP3   OH2 6800   0.035   3.217   3.132  0.0837  0.6081 -0.2777
 2279TIP3    H1 6801   0.058   3.268   3.054 -0.5424  0.6184 -0.4595
 2279TIP3    H2 6802   0.020   3.283   3.200  0.9289  0.5878 -0.0559
 2280TIP3   OH2 6803   3.955   1.288   4.446 -0.1087  0.3854  0.3761
 2280TIP3    H1 6804   4.001   1.204   4.452 -1.0117 -0.0386  1.6816
 2280TIP3    H2 6805   4.007   1.339   4.384 -0.5302 -1.7640 -1.8957
 2281TIP3   OH2 6806   2.350   4.304   1.123  0.3026  0.1675 -0.0492
 2281TIP3    H1 6807   2.310   4.388   1.147  1.1578  0.5438  0.0844
 2281TIP3    H2 6808   2.443   4.324   1.110  0.1858 -0.3484 -2.0506
 2282TIP3   OH2 6809   6.463   6.111   4.896  0.3236 -0.0047  0.0839
 2282TIP3    H1 6810   6.481   6.056   4.972 -0.5175 -0.2667  0.1041
 2282TIP3    H2 6811   6.542   6.105   4.842  0.9664  0.2567  0.9682
 2283TIP3   OH2 6812   6.980   5.152   1.812  0.4107 -0.1915  0.8601
 2283TIP3    H1 6813   7.032   5.138   1.732  0.5526 -1.8243  1.1976
 2283TIP3    H2 6814   7.045   5.161   1.881  0.3077 -1.7270  1.2055
 2284TIP3   OH2 6815   6.132   3.398   0.543  0.0386  0.1178  0.4958
 2284TIP3    H1 6816   6.175   3.314   0.558  1.1465  0.1585 -1.8316
 2284TIP3    H2 6817   6.040   3.377   0.529  0.2292 -0.6524  0.3803
 2285TIP3   OH2 6818   3.670   0.282   5.364 -0.2009 -0.3886 -0.0931
 2285TIP3    H1 6819   3.744   0.315   5.313  0.3723 -0.7956  0.4759
 2285TIP3    H2 6820   3.617   0.233   5.301 -0.3856  0.5231 -0.6663
 2286TIP3   OH2 6821   6.540   3.649   0.480 -0.1640 -0.0502  0.0480
 2286TIP3    H1 6822   6.587   3.567   0.489  0.8885  0.4497 -0.6423
 2286TIP3    H2 6823   6.455   3.625   0.444  0.1220 -0.8419 -0.1076
 2287TIP3   OH2 6824   5.056   2.310   2.376 -0.5298  0.2811  0.7684
 2287TIP3    H1 6825   5.004   2.335   2.299  2.4192  0.2371 -1.4587
 2287TIP3    H2 6826   4.993   2.304   2.447 -3.3564  1.1282 -1.4566
 2288TIP3   OH2 6827   6.530   5.757   4.736  0.0721 -0.8675  0.0206
 2288TIP3    H1 6828   6.452   5.809   4.717  0.0314 -0.6663  0.7186
 2288TIP3    H2 6829   6.593   5.782   4.668  0.8125  1.6846  1.4897
 2289TIP3   OH2 6830   7.135   6.111   0.840  0.4042 -0.1982 -0.0940
 2289TIP3    H1 6831   7.047   6.096   0.875  0.3316  0.0534 -0.1675
 2289TIP3    H2 6832   7.191   6.109   0.917  0.1805  0.8773  0.1109
 2290TIP3   OH2 6833   3.881   2.624   1.655 -0.0132 -0.5311  0.6560
 2290TIP3    H1 6834   3.944   2.590   1.592 -2.5178  0.6063 -2.7546
 2290TIP3    H2 6835   3.850   2.706   1.617 -2.3228 -0.1730  2.9754
 2291TIP3   OH2 6836   6.968   2.498   0.919 -0.5725 -0.5438  0.4640
 2291TIP3    H1 6837   6.949   2.491   1.013 -1.1122 -2.0808  0.2684
 2291TIP3    H2 6838   7.047   2.445   0.906 -0.4454 -0.2624  0.0599
 2292TIP3   OH2 6839   4.878   3.408   3.133 -0.2954 -0.8294 -0.2308
 2292TIP3    H1 6840   4.795   3.456   3.140 -1.6437 -3.1405  0.9574
 2292TIP3    H2 6841   4.867   3.355   3.054  1.4548  1.1552 -1.9267
 2293TIP3   OH2 6842   0.683   5.683   0.894  0.4440 -0.0496 -0.4609
 2293TIP3    H1 6843   0.627   5.748   0.851  0.1512 -0.3802 -0.5866
 2293TIP3    H2 6844   0.760   5.732   0.921  1.3095 -0.1000 -2.6350
 2294TIP3   OH2 6845   3.688   5.809   5.416  0.1456 -0.1126 -0.1224
 2294TIP3    H1 6846   3.738   5.887   5.440  0.6035 -0.2949 -0.4604
 2294TIP3    H2 6847   3.610   5.812   5.472 -0.6899  1.4844 -1.2912
 2295TIP3   OH2 6848   4.766   0.352   2.397  0.6856  0.0739  0.0585
 2295TIP3    H1 6849   4.859   0.369   2.378  0.9878  0.1349  1.4649
 2295TIP3    H2 6850   4.763   0.260   2.423  0.5659  0.3612  1.1242
 2296TIP3   OH2 6851   0.664   1.258   3.891 -0.0891  0.9257 -0.4337
 2296TIP3    H1 6852   0.753   1.237   3.920 -0.4553 -0.4091 -0.1810
 2296TIP3    H2 6853   0.654   1.208   3.810 -1.4453 -1.0396  0.8622
 2297TIP3   OH2 6854   2.251   1.668   1.053 -0.4542  0.7115 -0.1821
 2297TIP3    H1 6855   2.263   1.663   0.958 -1.7240 -2.3168 -0.2898
 2297TIP3    H2 6856   2.310   1.602   1.088 -2.1525 -0.3283  0.8398
 2298TIP3   OH2 6857   7.139   2.142   1.231  0.1630 -0.3255  0.2043
 2298TIP3    H1 6858   7.147   2.049   1.253  2.1443 -0.0657  0.7859
 2298TIP3    H2 6859   7.137   2.186   1.316 -1.4144  0.1717 -0.0485
 2299TIP3   OH2 6860   5.065   2.202   4.530  0.1872  0.2255  0.3293
 2299TIP3    H1 6861   5.110   2.213   4.614 -0.7732 -1.7652  1.1726
 2299TIP3    H2 6862   4.982   2.248   4.541  0.9874  1.9485 -0.4176
 2300TIP3   OH2 6863   0.770   4.376   2.735 -0.0428 -0.3011 -0.5428
 2300TIP3    H1 6864   0.813   4.397   2.652  1.7110  1.0854  0.6358
 2300TIP3    H2 6865   0.690   4.429   2.735  0.9773  1.3040 -0.5190
 2301TIP3   OH2 6866   5.089   6.321   1.937 -0.2306  0.2099 -0.0625
 2301TIP3    H1 6867   5.148   6.250   1.912  0.7193  1.3418 -1.2286
 2301TIP3    H2 6868   5.001   6.284   1.926  0.1766 -0.2095 -2.7642
 2302TIP3   OH2 6869   2.193   0.883   1.006 -0.5518  0.1540 -0.2111
 2302TIP3    H1 6870   2.282   0.903   0.977 -0.3129 -2.0180 -1.1382
 2302TIP3    H2 6871   2.204   0.852   1.096 -0.5122  0.8789  0.0383
 2303TIP3   OH2 6872   0.584   6.293   3.919  0.3351 -0.2045  0.0568
 2303TIP3    H1 6873   0.493   6.321   3.932 -0.6023 -2.5600 -0.8634
 2303TIP3    H2 6874   0.611   6.339   3.840 -0.7971 -1.0335 -0.8450
 2304TIP3   OH2 6875   6.900   3.010   1.281  0.4908  0.3037  0.3880
 2304TIP3    H1 6876   6.969   3.057   1.235 -0.4775  0.9965 -0.4026
 2304TIP3    H2 6877   6.888   3.057   1.363  2.5744 -1.2292  1.6849
 2305TIP3   OH2 6878   4.809   3.876   2.568  0.0089 -0.0991  0.1014
 2305TIP3    H1 6879   4.716   3.893   2.582 -0.1603  1.1486 -2.0277
 2305TIP3    H2 6880   4.854   3.926   2.637 -0.7790  3.8610 -1.9195
 2306TIP3   OH2 6881   1.628   5.168   4.836  0.4303  0.3003  0.1851
 2306TIP3    H1 6882   1.647   5.112   4.911 -0.4511  0.1273  0.2853
 2306TIP3    H2 6883   1.533   5.170   4.830  0.4654  1.1505 -0.3049
 2307TIP3   OH2 6884   2.306   2.500   4.755  0.0726 -0.7562 -0.0495
 2307TIP3    H1 6885   2.339   2.412   4.771  3.2335 -0.0897 -1.9954
 2307TIP3    H2 6886   2.359   2.533   4.682 -3.1216  1.6456 -1.5560
 2308TIP3   OH2 6887   5.999   0.677   4.015  0.1065  0.1130  0.6199
 2308TIP3    H1 6888   6.034   0.627   4.088  3.5842  1.8971  0.3868
 2308TIP3    H2 6889   6.025   0.767   4.033 -3.4381  1.4968 -0.3637
 2309TIP3   OH2 6890   1.308   2.740   2.110  0.3894  0.4414 -0.5516
 2309TIP3    H1 6891   1.337   2.654   2.080 -0.7701  0.0722 -0.6477
 2309TIP3    H2 6892   1.377   2.768   2.172 -0.5019 -1.7735  1.6034
 2310TIP3   OH2 6893   5.734   2.087   1.758  0.4253  0.3087  0.3305
 2310TIP3    H1 6894   5.646   2.051   1.770  0.6698 -1.2685 -1.9808
 2310TIP3    H2 6895   5.740   2.158   1.822 -3.5291  2.3992 -1.2811
 2311TIP3   OH2 6896   2.832   0.522   4.626  0.0907  0.0338 -0.0735
 2311TIP3    H1 6897   2.751   0.472   4.635 -0.0387 -0.1432 -1.8870
 2311TIP3    H2 6898   2.868   0.526   4.715 -1.3888 -0.7376  0.5904
 2312TIP3   OH2 6899   2.995   6.664   3.372  0.2315  0.4492  0.2708
 2312TIP3    H1 6900   3.040   6.623   3.299 -0.8765 -1.0483  0.3820
 2312TIP3    H2 6901   2.967   6.590   3.427  0.1109  1.4823  1.6457
 2313TIP3   OH2 6902   4.265   6.071   1.445 -0.0735 -0.4715 -0.2971
 2313TIP3    H1 6903   4.317   6.133   1.495  0.2738 -0.5621 -0.5425
 2313TIP3    H2 6904   4.203   6.125   1.395 -1.2067 -0.4334  1.0941
 2314TIP3   OH2 6905   4.607   6.420   2.759 -0.6212  0.8667  0.5086
 2314TIP3    H1 6906   4.611   6.515   2.757 -0.6819  0.8594 -0.2215
 2314TIP3    H2 6907   4.539   6.397   2.696  0.2850  0.3029 -0.3136
 2315TIP3   OH2 6908   4.570   2.847   5.027 -0.3754  0.4471  0.7566
 2315TIP3    H1 6909   4.500   2.882   5.082 -1.2153 -0.5849  0.3882
 2315TIP3    H2 6910   4.524   2.810   4.951  0.6732  0.8303 -0.0791
 2316TIP3   OH2 6911   2.973   6.499   1.090 -0.1029 -0.7070  0.1639
 2316TIP3    H1 6912   2.951   6.579   1.041  0.4980 -1.1371 -0.8350
 2316TIP3    H2 6913   2.889   6.468   1.124 -0.3606  0.2849  0.4826
 2317TIP3   OH2 6914   4.846   3.914   4.175  0.4010  0.3424 -0.1747
 2317TIP3    H1 6915   4.899   3.954   4.106 -1.2180  0.6611 -1.3036
 2317TIP3    H2 6916   4.909   3.886   4.241  2.0885 -0.5141 -2.0383
 2318TIP3   OH2 6917   3.714   5.521   4.672  0.4935  1.2961  0.1371
 2318TIP3    H1 6918   3.761   5.582   4.616  0.6353  0.4622 -0.6691
 2318TIP3    H2 6919   3.740   5.434   4.641 -0.3911  0.8179  0.6795
 2319TIP3   OH2 6920   3.577   1.315   1.661  0.0971 -0.3287 -0.7713
 2319TIP3    H1 6921   3.605   1.238   1.710 -3.7628 -0.3257  1.8735
 2319TIP3    H2 6922   3.625   1.388   1.702 -1.7450 -0.5522  2.0447
 2320TIP3   OH2 6923   4.215   3.520   5.197  0.4612  0.4295  0.1431
 2320TIP3    H1 6924   4.307   3.494   5.200 -0.2051 -2.1389  0.9795
 2320TIP3    H2 6925   4.167   3.438   5.183 -1.6788  1.8118 -1.3044
 2321TIP3   OH2 6926   7.186   6.631   2.894 -0.0964 -0.1419  0.4771
 2321TIP3    H1 6927   7.277   6.658   2.885 -0.6222  1.7934  0.4582
 2321TIP3    H2 6928   7.147   6.697   2.950 -1.5234 -0.8656  0.3842
 2322TIP3   OH2 6929   4.787   6.523   1.901  0.0397  0.5101 -0.4120
 2322TIP3    H1 6930   4.852   6.594   1.901  2.1277 -1.2695 -0.1558
 2322TIP3    H2 6931   4.760   6.516   1.992 -2.0695  2.4860 -0.7953
 2323TIP3   OH2 6932   3.247   4.277   4.703  0.1498  0.6734 -0.0311
 2323TIP3    H1 6933   3.250   4.238   4.790 -1.8975  0.8648  0.1844
 2323TIP3    H2 6934   3.266   4.370   4.717  0.5061  0.5837  0.0957
 2324TIP3   OH2 6935   1.502   5.351   2.243 -0.1034  0.0436 -0.0973
 2324TIP3    H1 6936   1.462   5.267   2.266  0.2635  0.1648  1.0487
 2324TIP3    H2 6937   1.451   5.415   2.292  1.5212  0.1915  1.5263
 2325TIP3   OH2 6938   5.310   0.878   4.857  0.3999 -0.5305 -0.5980
 2325TIP3    H1 6939   5.389   0.829   4.881 -0.9089 -1.4057  2.4644
 2325TIP3    H2 6940   5.340   0.945   4.796  3.4140 -1.1735  0.0454
 2326TIP3   OH2 6941   6.116   3.500   2.448 -0.0041 -0.1523  0.3176
 2326TIP3    H1 6942   6.125   3.589   2.483  0.7773  0.7103 -1.8822
 2326TIP3    H2 6943   6.199   3.458   2.471 -0.5027 -0.4664  1.6471
 2327TIP3   OH2 6944   6.004   2.514   1.747 -0.4475  0.8432  0.5177
 2327TIP3    H1 6945   6.016   2.581   1.680 -0.7558  0.5308  0.1406
 2327TIP3    H2 6946   6.092   2.491   1.775 -0.1359 -0.7195 -1.4955
 2328TIP3   OH2 6947   5.757   6.694   1.843  0.1908  0.7876  0.4138
 2328TIP3    H1 6948   5.841   6.673   1.884  0.5148  1.8818  0.3386
 2328TIP3    H2 6949   5.773   6.687   1.749 -0.1239 -0.1419  0.4188
 2329TIP3   OH2 6950   1.608   6.549   2.598 -0.1243 -0.2211 -0.1210
 2329TIP3    H1 6951   1.602   6.547   2.693  0.2704  0.6916 -0.0643
 2329TIP3    H2 6952   1.662   6.626   2.579  0.9910 -1.2063 -1.0340
 2330TIP3   OH2 6953   0.493   1.214   2.002  0.3150  0.4569 -0.0995
 2330TIP3    H1 6954   0.515   1.279   1.935 -0.1924 -0.9169 -1.6334
 2330TIP3    H2 6955   0.572   1.208   2.055  1.3600  0.3557 -1.6005
 2331TIP3   OH2 6956   4.020   5.920   1.951  0.0949  0.0915  0.7764
 2331TIP3    H1 6957   4.040   5.981   2.022  1.8271  0.0516  0.3740
 2331TIP3    H2 6958   3.952   5.863   1.986  0.7165  0.2490  2.2963
 2332TIP3   OH2 6959   5.171   4.959   5.070 -0.5735 -0.6319  0.0321
 2332TIP3    H1 6960   5.162   5.053   5.055  0.5960 -0.4282  0.5121
 2332TIP3    H2 6961   5.096   4.936   5.125 -1.4171 -0.1929 -0.8899
 2333TIP3   OH2 6962   2.833   0.311   3.718 -0.6165  0.3599  0.0018
 2333TIP3    H1 6963   2.858   0.347   3.803 -0.2787 -0.0304  0.0738
 2333TIP3    H2 6964   2.762   0.250   3.738 -0.8107  0.5711 -0.0473
 2334TIP3   OH2 6965   6.428   2.199   3.163  0.0630  0.3950 -0.7380
 2334TIP3    H1 6966   6.389   2.286   3.170 -2.4122 -0.7103  0.2494
 2334TIP3    H2 6967   6.444   2.187   3.070  1.5114  2.2939 -0.8006
 2335TIP3   OH2 6968   0.533   4.234   4.497 -0.1100  0.0787 -0.0406
 2335TIP3    H1 6969   0.591   4.304   4.527 -0.9230  1.4310 -1.4963
 2335TIP3    H2 6970   0.447   4.258   4.532 -0.3117 -0.4363 -0.1776
 2336TIP3   OH2 6971   3.159   6.473   3.193 -0.6452 -0.0329 -0.3121
 2336TIP3    H1 6972   3.116   6.482   3.108 -0.7567 -1.8272 -0.4942
 2336TIP3    H2 6973   3.109   6.405   3.238 -0.4474  0.7330  1.1186
 2337TIP3   OH2 6974   6.410   0.070   3.292  0.2097  0.1737  0.3739
 2337TIP3    H1 6975   6.500   0.100   3.307  0.8954  0.0444 -2.7022
 2337TIP3    H2 6976   6.369   0.141   3.243 -0.3722 -0.9831 -0.8878
 2338TIP3   OH2 6977   0.514   5.014   4.596  0.1921 -0.4310  0.5252
 2338TIP3    H1 6978   0.472   4.981   4.516  2.0616 -1.1232 -0.2156
 2338TIP3    H2 6979   0.523   5.108   4.581  1.5775 -0.7189 -0.6209
 2339TIP3   OH2 6980   5.977   5.106   3.875  0.1419  0.4099  0.0176
 2339TIP3    H1 6981   6.036   5.031   3.871  0.0296  0.0773  2.7888
 2339TIP3    H2 6982   6.030   5.179   3.841  0.9289 -0.5352 -0.8401
 2340TIP3   OH2 6983   4.207   3.515   4.310 -0.2426  0.4933 -0.1763
 2340TIP3    H1 6984   4.123   3.531   4.352 -0.3422  2.0467 -0.8593
 2340TIP3    H2 6985   4.195   3.434   4.262 -0.5666 -0.5664  1.6049
 2341TIP3   OH2 6986   5.119   3.945   5.242  0.5257  0.2259 -0.2695
 2341TIP3    H1 6987   5.038   3.970   5.198 -0.4902 -1.0756  0.7785
 2341TIP3    H2 6988   5.141   4.020   5.297 -0.9309 -0.0496  0.7360
 2342TIP3   OH2 6989   5.468   5.784   2.219  0.0340 -0.0749 -0.2401
 2342TIP3    H1 6990   5.496   5.821   2.303 -1.0969  0.6458 -0.1477
 2342TIP3    H2 6991   5.519   5.704   2.209 -0.0461 -0.3493  1.3131
 2343TIP3   OH2 6992   4.256   6.670   5.119  0.1249 -0.1885 -0.0529
 2343TIP3    H1 6993   4.273   6.576   5.132 -0.8044 -0.4215 -0.4699
 2343TIP3    H2 6994   4.229   6.677   5.028 -1.7615  0.1920  0.5053
 2344TIP3   OH2 6995   1.797   1.835   1.106 -0.4972  0.2441 -0.3913
 2344TIP3    H1 6996   1.710   1.796   1.093 -1.2386  1.7569 -0.1841
 2344TIP3    H2 6997   1.803   1.901   1.037  0.3609  0.3782 -0.1948
 2345TIP3   OH2 6998   7.136   0.190   4.747  0.0490 -0.0092 -0.0006
 2345TIP3    H1 6999   7.111   0.263   4.804 -2.3812 -0.5394 -0.2632
 2345TIP3    H2 7000   7.178   0.127   4.805  2.5961  1.7022  0.1576
 2346TIP3   OH2 7001   0.872   2.219   5.421 -0.1228  0.6623  0.1636
 2346TIP3    H1 7002   0.955   2.205   5.376  0.7784  1.6663  1.4322
 2346TIP3    H2 7003   0.843   2.132   5.447  1.2428  0.4112  0.9055
 2347TIP3   OH2 7004   3.756   6.105   1.769  0.0519  0.2723 -0.5958
 2347TIP3    H1 7005   3.731   6.189   1.732  0.3428  0.2476 -0.8589
 2347TIP3    H2 7006   3.789   6.055   1.694 -1.7558 -0.7261 -0.7704
 2348TIP3   OH2 7007   4.547   5.648   5.606 -0.5674  0.4730 -0.3406
 2348TIP3    H1 7008   4.623   5.646   5.663 -0.9733  2.3656  0.3455
 2348TIP3    H2 7009   4.482   5.701   5.654 -1.5353  0.6828 -1.8076
 2349TIP3   OH2 7010   6.385   5.557   5.351  0.2668 -0.3352 -0.1304
 2349TIP3    H1 7011   6.416   5.494   5.417 -0.3267 -1.3784 -0.8163
 2349TIP3    H2 7012   6.459   5.615   5.336  1.5175 -2.0370 -0.8621
 2350TIP3   OH2 7013   2.963   0.774   3.571  0.2249  0.3204 -0.2621
 2350TIP3    H1 7014   2.998   0.801   3.656  1.3182  0.6302 -0.8003
 2350TIP3    H2 7015   2.949   0.680   3.580 -2.7404  0.7889  1.3142
 2351TIP3   OH2 7016   2.643   4.308   4.103 -0.2907  0.2663  0.3089
 2351TIP3    H1 7017   2.732   4.307   4.068  0.0028  1.3170  0.9851
 2351TIP3    H2 7018   2.654   4.306   4.198 -1.0090 -0.2202  0.3906
 2352TIP3   OH2 7019   1.972   6.700   5.527 -0.3984  0.3895 -0.0106
 2352TIP3    H1 7020   1.975   6.750   5.609  0.8162 -0.3021  0.3962
 2352TIP3    H2 7021   1.960   6.609   5.556 -1.3326  0.2855 -0.6779
 2353TIP3   OH2 7022   1.717   2.525   0.522 -0.3058  0.4708  0.6457
 2353TIP3    H1 7023   1.688   2.497   0.609 -0.1699 -1.8416  0.0167
 2353TIP3    H2 7024   1.669   2.469   0.461  0.8637  0.8479 -0.6975
 2354TIP3   OH2 7025   1.062   6.158   4.239  0.0473 -0.3620  0.5848
 2354TIP3    H1 7026   0.973   6.157   4.273 -0.1491  1.4602  0.2399
 2354TIP3    H2 7027   1.098   6.242   4.268  1.7459 -1.1617  0.9155
 2355TIP3   OH2 7028   6.429   6.187   1.752  0.0168  0.5889  0.1151
 2355TIP3    H1 7029   6.504   6.232   1.713  1.1606 -1.6005 -0.3900
 2355TIP3    H2 7030   6.451   6.177   1.844 -1.1304  2.6920  0.6836
 2356TIP3   OH2 7031   2.540   6.080   4.510  0.4112 -0.0258 -0.7878
 2356TIP3    H1 7032   2.487   6.160   4.510  0.0853 -0.1728 -2.7478
 2356TIP3    H2 7033   2.484   6.014   4.549  1.0075  0.8474  1.6807
 2357TIP3   OH2 7034   5.107   3.862   0.276  0.1112  0.4248  0.4115
 2357TIP3    H1 7035   5.037   3.909   0.231 -0.0516 -0.3947 -0.2284
 2357TIP3    H2 7036   5.105   3.895   0.365 -0.1671  1.4265  0.0515
 2358TIP3   OH2 7037   5.022   1.610   1.996  0.2330 -0.4638 -0.3496
 2358TIP3    H1 7038   5.093   1.563   1.953  0.3638 -0.5923  0.0103
 2358TIP3    H2 7039   4.996   1.677   1.932 -0.6134 -1.6383 -1.2612
 2359TIP3   OH2 7040   4.343   1.838   2.934  0.0905  0.2662  0.2116
 2359TIP3    H1 7041   4.407   1.843   2.863 -1.2729 -0.4102 -1.1257
 2359TIP3    H2 7042   4.364   1.756   2.979 -0.5388 -0.5949 -0.9890
 2360TIP3   OH2 7043   0.233   0.218   5.688  0.1258 -0.0468 -0.0493
 2360TIP3    H1 7044   0.164   0.270   5.647  1.4442  1.4453 -0.4843
 2360TIP3    H2 7045   0.270   0.277   5.754 -0.1263 -1.4364  1.3976
 2361TIP3   OH2 7046   0.722   6.722   0.048  0.0061 -0.0063 -0.1233
 2361TIP3    H1 7047   0.795   6.744  -0.011 -1.9839  1.8665 -2.0563
 2361TIP3    H2 7048   0.762   6.719   0.135  2.1915  2.3347 -0.9060
 2362TIP3   OH2 7049   2.379   4.285   2.538  0.3654  0.4293 -0.3305
 2362TIP3    H1 7050   2.372   4.282   2.442 -2.1562  0.6980 -0.2000
 2362TIP3    H2 7051   2.315   4.350   2.565 -1.4667 -2.0220  1.7099
 2363TIP3   OH2 7052   5.612   0.499   4.168 -0.1355  0.9209 -0.1364
 2363TIP3    H1 7053   5.640   0.431   4.229  2.1671  0.1704 -1.9371
 2363TIP3    H2 7054   5.516   0.498   4.175 -0.1032 -1.4704  0.9470
 2364TIP3   OH2 7055   2.689   6.696   5.833  0.7035 -0.4080  0.1666
 2364TIP3    H1 7056   2.608   6.684   5.883  0.1468 -0.0192 -0.6182
 2364TIP3    H2 7057   2.720   6.783   5.859  0.7594 -0.4724  0.3153
 2365TIP3   OH2 7058   4.958   1.250   5.296 -0.0884 -0.2089  0.0832
 2365TIP3    H1 7059   4.996   1.337   5.283 -1.8811  0.8731  1.6289
 2365TIP3    H2 7060   4.866   1.260   5.274 -0.2853 -1.8027  0.0553
 2366TIP3   OH2 7061   3.788   0.402   1.359  1.0292 -0.1561  0.0256
 2366TIP3    H1 7062   3.769   0.479   1.305 -1.2664  0.3443  1.3854
 2366TIP3    H2 7063   3.716   0.342   1.341  0.8363 -0.4548  1.6343
 2367TIP3   OH2 7064   6.263   6.448   3.135  0.1594  0.5705 -0.2848
 2367TIP3    H1 7065   6.278   6.537   3.102  1.3370  0.2364 -0.6982
 2367TIP3    H2 7066   6.307   6.391   3.071  0.9577 -0.1958  0.9041
 2368TIP3   OH2 7067   5.848   4.060   0.372 -0.0959 -0.1497 -0.4628
 2368TIP3    H1 7068   5.920   3.997   0.367 -0.0147 -0.0474 -0.6093
 2368TIP3    H2 7069   5.797   4.044   0.293 -0.9413 -1.0631  0.2374
 2369TIP3   OH2 7070   3.784   1.693   1.651 -0.2333 -0.0160 -0.5654
 2369TIP3    H1 7071   3.830   1.718   1.731  3.2381 -1.4787 -1.9000
 2369TIP3    H2 7072   3.714   1.634   1.681  0.8412 -0.3570  1.4085
 2370TIP3   OH2 7073   1.606   6.380   3.749 -0.2351  0.3116 -0.2251
 2370TIP3    H1 7074   1.564   6.458   3.785  0.1507 -1.2282  4.1402
 2370TIP3    H2 7075   1.535   6.318   3.736 -0.5776  1.2648 -3.9323
 2371TIP3   OH2 7076   0.105   3.874   0.752 -0.5374  0.0679 -0.6561
 2371TIP3    H1 7077   0.196   3.901   0.755  0.2645 -2.1099 -2.4174
 2371TIP3    H2 7078   0.082   3.875   0.659 -2.9171  2.2110 -0.1652
 2372TIP3   OH2 7079   5.040   3.207   5.810 -0.4152  0.4617 -0.6548
 2372TIP3    H1 7080   5.129   3.244   5.816  0.2444 -1.0963 -0.4211
 2372TIP3    H2 7081   4.984   3.273   5.851  0.6884  1.2970 -0.4406
 2373TIP3   OH2 7082   0.085   5.255   0.868  0.3060 -0.0331 -0.3689
 2373TIP3    H1 7083   0.089   5.342   0.908  1.0245 -0.3061  0.1737
 2373TIP3    H2 7084   0.175   5.234   0.846  1.1658 -2.8067  4.3564
 2374TIP3   OH2 7085   4.343   2.603   2.497  0.1962 -0.1388 -0.0967
 2374TIP3    H1 7086   4.325   2.555   2.415 -0.9854 -0.1528  0.1469
 2374TIP3    H2 7087   4.373   2.689   2.468  0.9743 -0.5447 -0.5392
 2375TIP3   OH2 7088   1.606   5.434   5.854  0.4524  0.0999 -0.0318
 2375TIP3    H1 7089   1.560   5.509   5.891 -0.4996 -1.1172  1.3371
 2375TIP3    H2 7090   1.582   5.435   5.761 -0.4582  0.8378  0.1971
 2376TIP3   OH2 7091   4.619   5.308   1.669  0.3300 -0.5168 -0.5886
 2376TIP3    H1 7092   4.524   5.316   1.680  0.0342 -3.0191 -0.7319
 2376TIP3    H2 7093   4.655   5.377   1.725 -1.5519  1.2182 -1.3763
 2377TIP3   OH2 7094   6.439   1.492   1.688  0.5454 -0.3479 -0.3701
 2377TIP3    H1 7095   6.470   1.570   1.735 -0.2082 -0.4306  0.2772
 2377TIP3    H2 7096   6.372   1.455   1.745  1.1503 -1.6869 -0.5017
 2378TIP3   OH2 7097   0.142   2.468   0.549 -0.1283 -0.0195  0.1014
 2378TIP3    H1 7098   0.184   2.382   0.550  0.0294  0.0327  1.8108
 2378TIP3    H2 7099   0.130   2.489   0.642 -0.6559  1.5647 -0.2989
 2379TIP3   OH2 7100   0.073   6.370   3.890 -0.3725  0.3327 -0.4667
 2379TIP3    H1 7101   0.137   6.360   3.961  0.4588 -0.2594 -1.2733
 2379TIP3    H2 7102   0.030   6.453   3.908 -0.5485 -0.0564  1.0197
 2380TIP3   OH2 7103   3.923   1.343   1.791  0.1748  0.1614  0.2466
 2380TIP3    H1 7104   3.994   1.375   1.734  0.2592  0.5850  0.5807
 2380TIP3    H2 7105   3.871   1.421   1.811 -0.4443 -0.1647 -0.0697
 2381TIP3   OH2 7106   4.419   6.206   0.651  0.0500 -0.1372  0.6230
 2381TIP3    H1 7107   4.487   6.217   0.585  0.1225  0.5873  0.8176
 2381TIP3    H2 7108   4.451   6.254   0.727 -0.3369 -0.4156  0.9676
 2382TIP3   OH2 7109   2.268   1.883   0.057 -0.6550  0.2570 -0.5982
 2382TIP3    H1 7110   2.193   1.823   0.061 -1.5274  1.1571 -2.3805
 2382TIP3    H2 7111   2.277   1.905  -0.036  2.9596 -1.1685 -0.7572
 2383TIP3   OH2 7112   1.633   4.713   4.552  0.0564  0.4544 -0.2621
 2383TIP3    H1 7113   1.685   4.743   4.478  0.2717  1.0834  0.1373
 2383TIP3    H2 7114   1.615   4.792   4.602 -3.2329  0.7271 -1.5693
 2384TIP3   OH2 7115   6.453   1.309   4.381  0.3925 -0.0075 -0.2536
 2384TIP3    H1 7116   6.541   1.272   4.387  0.4899  0.3572  0.7691
 2384TIP3    H2 7117   6.463   1.386   4.325 -0.0347 -2.0929 -3.4577
 2385TIP3   OH2 7118   1.601   2.650   1.976 -0.2788  0.4564 -0.6690
 2385TIP3    H1 7119   1.610   2.556   1.992  0.8865  0.4506 -1.2556
 2385TIP3    H2 7120   1.658   2.691   2.040  0.8732  0.6416 -1.7632
 2386TIP3   OH2 7121   0.164   5.675   3.293 -0.0713  0.4717  0.3328
 2386TIP3    H1 7122   0.076   5.647   3.270  0.1996 -0.7337  0.7212
 2386TIP3    H2 7123   0.197   5.607   3.351  1.3849  0.5238 -0.3840
 2387TIP3   OH2 7124   4.974   1.168   2.807  0.1122 -0.3165  0.1447
 2387TIP3    H1 7125   5.050   1.217   2.774  0.0062 -0.2559 -0.0096
 2387TIP3    H2 7126   5.012   1.092   2.851  0.3559  0.7508  1.8305
 2388TIP3   OH2 7127   7.059   6.666   2.639 -0.1960  0.2529 -0.0456
 2388TIP3    H1 7128   7.079   6.664   2.732  0.3104 -0.8488 -0.1592
 2388TIP3    H2 7129   7.144   6.654   2.596 -0.3981  0.9350 -0.6606
 2389TIP3   OH2 7130   2.070   5.112   2.006  0.4711  0.3276  0.6325
 2389TIP3    H1 7131   2.089   5.019   2.020 -1.9574 -0.2792  0.3604
 2389TIP3    H2 7132   2.041   5.144   2.092  1.4360  0.9068  0.7606
 2390TIP3   OH2 7133   5.586   6.108   1.901 -0.2035 -0.0273 -0.1112
 2390TIP3    H1 7134   5.590   6.202   1.882 -1.0886  0.3198  1.2824
 2390TIP3    H2 7135   5.531   6.072   1.832 -1.5707  0.8381  0.4736
 2391TIP3   OH2 7136   1.634   1.810   5.694 -0.1586  0.2829  0.0898
 2391TIP3    H1 7137   1.549   1.823   5.737  0.4428  1.2711  1.0534
 2391TIP3    H2 7138   1.613   1.799   5.601 -1.4591 -1.3411  0.5414
 2392TIP3   OH2 7139   6.705   5.540   5.582  0.3440  0.0449 -0.3258
 2392TIP3    H1 7140   6.627   5.493   5.614  0.4928 -0.9845 -1.3758
 2392TIP3    H2 7141   6.687   5.554   5.489  1.7402 -0.9720 -0.7856
 2393TIP3   OH2 7142   5.761   0.372   4.001  0.9267 -0.1863 -0.2369
 2393TIP3    H1 7143   5.712   0.433   4.056 -0.8184 -1.2614 -0.5280
 2393TIP3    H2 7144   5.808   0.428   3.939 -0.8478  0.8887 -0.6813
 2394TIP3   OH2 7145   5.628   5.579   2.305 -0.0082 -0.0418  0.3157
 2394TIP3    H1 7146   5.711   5.559   2.347 -0.1603 -0.1426  0.5704
 2394TIP3    H2 7147   5.569   5.509   2.332 -0.5140  0.6760  1.1289
 2395TIP3   OH2 7148   0.971   5.241   1.021 -0.0069 -0.0432  0.0812
 2395TIP3    H1 7149   0.907   5.242   1.092 -1.5807  2.4217 -1.2174
 2395TIP3    H2 7150   1.050   5.280   1.060  0.1459 -1.4006  1.2071
 2396TIP3   OH2 7151   6.405   2.719   2.948 -0.0788  0.2281 -0.7189
 2396TIP3    H1 7152   6.495   2.738   2.974 -0.0488  0.3420 -0.8977
 2396TIP3    H2 7153   6.414   2.664   2.870 -0.1490 -1.7346  0.5769
 2397TIP3   OH2 7154   0.598   1.848   3.714 -0.3717  0.5133  0.3351
 2397TIP3    H1 7155   0.582   1.790   3.789 -2.9091  0.5756 -0.0613
 2397TIP3    H2 7156   0.615   1.788   3.641 -1.0406  0.2992  0.3404
 2398TIP3   OH2 7157   4.422   0.691   2.402  0.3601 -0.0574  0.2893
 2398TIP3    H1 7158   4.367   0.633   2.454  0.8408  0.1667  1.0712
 2398TIP3    H2 7159   4.499   0.638   2.381  0.4149  0.0312  0.2685
 2399TIP3   OH2 7160   6.940   3.994   3.549  0.0326  0.2473  0.0365
 2399TIP3    H1 7161   6.873   3.938   3.511  1.3675 -2.5850  1.5587
 2399TIP3    H2 7162   6.895   4.044   3.617 -1.1375  0.9677 -1.2100
 2400TIP3   OH2 7163   0.939   5.812   0.953  0.0141  0.3853  0.2031
 2400TIP3    H1 7164   1.017   5.758   0.965  0.4157  1.0871  0.8751
 2400TIP3    H2 7165   0.924   5.851   1.039  0.1085  1.8204 -0.3987
 2401TIP3   OH2 7166   3.461   6.558   1.121 -0.0378 -0.1614  0.1081
 2401TIP3    H1 7167   3.414   6.640   1.104  1.1628  0.5250 -0.0119
 2401TIP3    H2 7168   3.516   6.546   1.044  1.4136  0.0903  1.0740
 2402TIP3   OH2 7169   3.040   4.898   5.593  0.0380  0.1258 -0.3110
 2402TIP3    H1 7170   3.023   4.986   5.627 -0.5800 -0.3950  0.7764
 2402TIP3    H2 7171   2.993   4.895   5.510  0.0196  0.7934 -0.3370
 2403TIP3   OH2 7172   6.107   0.330   1.649  0.0972  0.1179 -0.0088
 2403TIP3    H1 7173   6.015   0.352   1.636 -0.4900 -1.6639  0.7621
 2403TIP3    H2 7174   6.148   0.349   1.565 -0.8669  1.3320 -0.2450
 2404TIP3   OH2 7175   5.137   5.107   3.613  0.6545  0.3064 -0.5962
 2404TIP3    H1 7176   5.135   5.017   3.644 -0.6980  0.4410 -0.2190
 2404TIP3    H2 7177   5.200   5.151   3.670 -1.3430  0.4207  1.6776
 2405TIP3   OH2 7178   1.682   3.818   2.753  0.0150 -0.5621 -0.4572
 2405TIP3    H1 7179   1.697   3.875   2.828 -0.6170  0.8609 -1.3684
 2405TIP3    H2 7180   1.631   3.745   2.788  0.2469 -0.2311  0.6099
 2406TIP3   OH2 7181   0.356   0.679   5.841  0.1436 -0.3050 -0.1499
 2406TIP3    H1 7182   0.434   0.677   5.896 -0.9251 -1.7560  1.4086
 2406TIP3    H2 7183   0.329   0.771   5.841  0.0025 -0.2923  2.0910
 2407TIP3   OH2 7184   6.434   4.599   5.235 -0.1199  0.6080  0.5739
 2407TIP3    H1 7185   6.368   4.662   5.264 -1.4325  0.5694 -2.0494
 2407TIP3    H2 7186   6.502   4.653   5.194 -0.6951  0.4181 -0.6587
 2408TIP3   OH2 7187   6.836   5.652   0.306  0.0281 -0.7047 -0.0251
 2408TIP3    H1 7188   6.872   5.591   0.371  0.8756 -0.4288 -0.2300
 2408TIP3    H2 7189   6.764   5.695   0.352  1.2566  0.2282  1.0913
 2409TIP3   OH2 7190   1.699   0.561   3.677  0.0854 -0.6358  0.3166
 2409TIP3    H1 7191   1.646   0.482   3.675  0.7895 -1.0956 -1.3344
 2409TIP3    H2 7192   1.671   0.611   3.601 -0.0365  0.5229  1.0901
 2410TIP3   OH2 7193   2.550   4.656   3.304 -0.5571 -0.0925 -0.3795
 2410TIP3    H1 7194   2.493   4.586   3.274 -0.4855 -0.7807  0.9763
 2410TIP3    H2 7195   2.627   4.610   3.339 -0.1292  0.7078 -0.2577
 2411TIP3   OH2 7196   5.110   4.566   5.145  0.1038  0.6727 -0.4837
 2411TIP3    H1 7197   5.052   4.498   5.178  0.6346 -0.2110 -1.3595
 2411TIP3    H2 7198   5.174   4.578   5.215  1.3199 -1.3118 -1.1925
 2412TIP3   OH2 7199   0.139   1.412   0.074 -0.0143 -0.2268 -0.3301
 2412TIP3    H1 7200   0.056   1.386   0.115 -0.5262  0.1919 -1.0916
 2412TIP3    H2 7201   0.188   1.330   0.066 -0.0039 -0.3574  0.8866
 2413TIP3   OH2 7202   0.215   0.822   1.319  0.7682 -0.7757 -0.3203
 2413TIP3    H1 7203   0.256   0.843   1.403  0.9503 -3.2087  0.2684
 2413TIP3    H2 7204   0.287   0.790   1.265  0.9082  1.9820 -1.9588
 2414TIP3   OH2 7205   3.028   3.843   3.065 -0.5101  0.5211 -0.2536
 2414TIP3    H1 7206   3.027   3.758   3.110  0.2699  0.4485 -0.3649
 2414TIP3    H2 7207   3.089   3.831   2.993  0.1143  1.3747  0.1194
 2415TIP3   OH2 7208   0.915   0.831   0.905  0.0023 -0.0614 -0.1783
 2415TIP3    H1 7209   0.938   0.751   0.953  1.1772  1.0438  1.2062
 2415TIP3    H2 7210   0.987   0.842   0.843  0.9162  0.9372  1.0002
 2416TIP3   OH2 7211   6.389   1.230   3.638  0.1963  0.6417  0.0974
 2416TIP3    H1 7212   6.373   1.324   3.630  1.8997  1.0469  0.9549
 2416TIP3    H2 7213   6.483   1.220   3.623  0.3433 -0.6971  1.6230
 2417TIP3   OH2 7214   4.288   3.983   1.361  0.3665 -0.8322  0.1727
 2417TIP3    H1 7215   4.338   4.004   1.440 -0.3424  1.8408  0.0130
 2417TIP3    H2 7216   4.327   4.037   1.293 -1.3186 -0.3213 -0.4388
 2418TIP3   OH2 7217   2.766   3.782   2.979  0.4103 -0.1521  0.2380
 2418TIP3    H1 7218   2.822   3.859   2.984  0.5423 -0.2593  0.3981
 2418TIP3    H2 7219   2.808   3.725   2.915  1.0127 -0.6623  1.0716
 2419TIP3   OH2 7220   2.794   6.161   1.203 -0.3926 -0.1722 -0.1812
 2419TIP3    H1 7221   2.809   6.102   1.277 -0.6221  0.4453  0.3733
 2419TIP3    H2 7222   2.823   6.112   1.126 -1.2355 -1.2664  0.1864
 2420TIP3   OH2 7223   5.164   4.463   2.448 -0.1479  0.5052  0.3906
 2420TIP3    H1 7224   5.232   4.410   2.489 -0.2755  1.2717  1.6426
 2420TIP3    H2 7225   5.210   4.511   2.378  0.6111  0.9807  1.1890
 2421TIP3   OH2 7226   5.197   2.337   2.653  0.1682  0.3219 -0.5806
 2421TIP3    H1 7227   5.248   2.402   2.605 -0.3133  0.9597 -0.2328
 2421TIP3    H2 7228   5.106   2.368   2.648  0.0807  0.3069  0.5856
 2422TIP3   OH2 7229   0.135   5.638   2.461 -0.2201  0.1388 -0.2605
 2422TIP3    H1 7230   0.160   5.676   2.546 -1.4048  0.0091  0.1598
 2422TIP3    H2 7231   0.186   5.688   2.397  0.7657  0.1729  0.5196
 2423TIP3   OH2 7232   1.540   1.435   4.318  0.5340 -0.0104  0.6566
 2423TIP3    H1 7233   1.584   1.371   4.375 -0.1010 -0.7203  0.3706
 2423TIP3    H2 7234   1.535   1.391   4.233  1.0701  0.8595  0.1598
 2424TIP3   OH2 7235   5.590   3.925   1.829 -0.2895 -0.4214 -0.1473
 2424TIP3    H1 7236   5.593   3.830   1.836  3.0497 -0.7516 -3.1276
 2424TIP3    H2 7237   5.675   3.954   1.864 -1.5128  1.6043  1.3580
 2425TIP3   OH2 7238   6.655   3.393   0.460  0.6495 -0.6681 -0.1061
 2425TIP3    H1 7239   6.622   3.303   0.458 -0.0255 -0.4235 -0.0908
 2425TIP3    H2 7240   6.744   3.387   0.425  0.4459 -1.2725 -0.5278
 2426TIP3   OH2 7241   7.134   2.000   3.828 -0.2695 -0.3027 -0.1931
 2426TIP3    H1 7242   7.155   2.068   3.764 -1.3907  0.1800 -0.0766
 2426TIP3    H2 7243   7.126   1.920   3.777 -0.5361 -0.0419 -0.5604
 2427TIP3   OH2 7244   2.935   1.688   5.408  0.0848  0.0932 -0.4224
 2427TIP3    H1 7245   2.928   1.711   5.315  1.1958  0.0774 -0.5218
 2427TIP3    H2 7246   2.993   1.754   5.445 -1.9456  1.3192  0.7372
 2428TIP3   OH2 7247   2.814   2.654   1.700 -0.5403 -0.5859 -0.0355
 2428TIP3    H1 7248   2.873   2.585   1.671 -1.6741 -1.3970 -0.4787
 2428TIP3    H2 7249   2.855   2.690   1.779 -0.7522 -2.8788  1.1804
 2429TIP3   OH2 7250   5.349   2.353   0.234  0.5284  0.0597  0.0037
 2429TIP3    H1 7251   5.303   2.411   0.294  0.4336  0.9753 -0.9123
 2429TIP3    H2 7252   5.280   2.301   0.193  0.4855  0.1782 -0.0755
 2430TIP3   OH2 7253   2.087   3.130   1.159 -0.6146 -0.0111 -0.2830
 2430TIP3    H1 7254   2.162   3.117   1.216  1.3008  2.3762 -2.0667
 2430TIP3    H2 7255   2.069   3.043   1.121  0.7776 -0.7476  0.6886
 2431TIP3   OH2 7256   4.964   5.819   4.853 -0.2868 -0.4176  0.4574
 2431TIP3    H1 7257   5.024   5.751   4.884 -0.4726 -0.5946  0.4331
 2431TIP3    H2 7258   4.881   5.773   4.840 -0.2745 -0.2981 -0.0746
 2432TIP3   OH2 7259   5.548   2.744   2.113  0.0466 -0.3282 -0.2332
 2432TIP3    H1 7260   5.535   2.656   2.078  2.8053 -0.3609 -1.4406
 2432TIP3    H2 7261   5.636   2.742   2.150  0.7586  2.2498 -1.5540
 2433TIP3   OH2 7262   4.155   2.564   0.729  0.8202  0.5604 -0.1131
 2433TIP3    H1 7263   4.087   2.614   0.775 -0.3067 -0.5842 -0.4638
 2433TIP3    H2 7264   4.176   2.618   0.653 -0.8924  0.2416 -0.8681
 2434TIP3   OH2 7265   6.513   6.683   5.060  0.1798  0.0026  0.5222
 2434TIP3    H1 7266   6.460   6.612   5.026 -0.5277  0.6466  0.2404
 2434TIP3    H2 7267   6.473   6.705   5.145  0.9311 -0.5102  1.0205
 2435TIP3   OH2 7268   2.903   1.074   1.913 -0.1452 -0.3510  0.3201
 2435TIP3    H1 7269   2.808   1.076   1.926 -0.1516  0.3810  0.1582
 2435TIP3    H2 7270   2.923   0.980   1.904 -0.8560 -0.5087  0.2998
 2436TIP3   OH2 7271   1.716   1.608   5.041 -0.1915 -0.2687  0.2609
 2436TIP3    H1 7272   1.796   1.560   5.061  0.2323  0.4782  0.4132
 2436TIP3    H2 7273   1.705   1.597   4.946  0.0906 -0.3799  0.2403
 2437TIP3   OH2 7274   1.700   2.171   2.271  0.3402 -0.1014  0.3489
 2437TIP3    H1 7275   1.780   2.122   2.290  0.9405  0.7304  0.0779
 2437TIP3    H2 7276   1.726   2.232   2.202  0.0955  1.7368  1.7984
 2438TIP3   OH2 7277   6.004   6.687   2.857  0.0208  0.1489  0.0667
 2438TIP3    H1 7278   6.075   6.675   2.921 -0.5447 -0.6309  0.5694
 2438TIP3    H2 7279   6.001   6.781   2.841 -1.3925  0.7344  3.0419
 2439TIP3   OH2 7280   5.934   3.021   2.524  0.0842 -0.5141  0.0278
 2439TIP3    H1 7281   6.007   2.997   2.580 -0.6634 -0.2680  1.1372
 2439TIP3    H2 7282   5.919   3.114   2.543  0.4085 -0.1620 -1.2817
 2440TIP3   OH2 7283   3.194   2.697   4.592  0.0824 -0.3759  0.1557
 2440TIP3    H1 7284   3.179   2.688   4.498 -1.1383 -1.8122  0.4473
 2440TIP3    H2 7285   3.209   2.791   4.605  0.1788 -0.1386 -1.4441
 2441TIP3   OH2 7286   2.076   6.423   5.278  0.2935 -0.3278  0.4824
 2441TIP3    H1 7287   2.055   6.461   5.363 -2.0839  0.7084 -0.4777
 2441TIP3    H2 7288   1.992   6.417   5.233  1.2568 -2.3634 -1.2112
 2442TIP3   OH2 7289   3.859   5.208   0.978  0.2340 -0.0395  0.8261
 2442TIP3    H1 7290   3.866   5.292   0.934  0.2386  0.3544  1.5590
 2442TIP3    H2 7291   3.865   5.143   0.908 -1.0234  0.5892  0.0933
 2443TIP3   OH2 7292   7.001   3.481   4.049 -0.3869  0.0717 -0.1351
 2443TIP3    H1 7293   6.913   3.479   4.011 -0.8475  0.8315  0.8417
 2443TIP3    H2 7294   7.060   3.475   3.974 -1.2322 -2.6549 -0.6971
 2444TIP3   OH2 7295   2.080   6.232   2.267 -0.1029 -0.2324 -0.0877
 2444TIP3    H1 7296   1.990   6.206   2.246 -0.0998 -0.9037  0.6852
 2444TIP3    H2 7297   2.127   6.226   2.183 -0.3040 -1.9350 -0.1105
 2445TIP3   OH2 7298   1.370   4.822   0.283  0.5638  0.4454  0.0591
 2445TIP3    H1 7299   1.419   4.904   0.293  2.5832 -0.6046 -0.6318
 2445TIP3    H2 7300   1.411   4.762   0.346 -0.2056 -0.3111 -0.1532
 2446TIP3   OH2 7301   6.092   0.031   3.738 -0.5762 -0.3373 -0.5071
 2446TIP3    H1 7302   6.131  -0.007   3.816 -0.4511  0.1208 -0.3458
 2446TIP3    H2 7303   6.149   0.004   3.666  2.0809  3.0464  0.0456
 2447TIP3   OH2 7304   6.248   0.347   0.376  0.0755  0.1153 -0.1337
 2447TIP3    H1 7305   6.252   0.271   0.318 -0.4217 -0.0853  0.0849
 2447TIP3    H2 7306   6.243   0.310   0.464 -0.5197  0.3891 -0.0471
 2448TIP3   OH2 7307   6.824   0.386   1.273  0.5381 -0.2690  0.0144
 2448TIP3    H1 7308   6.916   0.366   1.254  0.3857 -2.1040  0.9674
 2448TIP3    H2 7309   6.828   0.459   1.336  1.4941 -1.8777  1.9196
 2449TIP3   OH2 7310   6.242   5.988   2.652 -0.1262  0.1163  0.1235
 2449TIP3    H1 7311   6.242   5.947   2.739  0.6416 -1.0241 -0.3911
 2449TIP3    H2 7312   6.150   5.991   2.628 -0.2991 -0.1556  0.7122
 2450TIP3   OH2 7313   1.386   0.783   4.333  0.8652 -0.2443 -0.1460
 2450TIP3    H1 7314   1.472   0.796   4.373 -0.0322  0.0344  1.7821
 2450TIP3    H2 7315   1.348   0.870   4.327  1.2254 -0.1784 -2.3292
 2451TIP3   OH2 7316   6.902   5.003   4.843 -0.4776  0.3089  0.2249
 2451TIP3    H1 7317   6.821   4.954   4.855 -0.4377 -0.0017 -0.6530
 2451TIP3    H2 7318   6.876   5.083   4.797 -0.0942 -0.6907 -1.9079
 2452TIP3   OH2 7319   1.573   2.615   2.562 -0.5106  0.5965 -0.2050
 2452TIP3    H1 7320   1.484   2.581   2.567  0.0287 -1.0846 -1.0847
 2452TIP3    H2 7321   1.624   2.559   2.620  0.3685 -0.0162 -1.5024
 2453TIP3   OH2 7322   2.733   2.661   3.973 -0.1327  0.2743 -0.7789
 2453TIP3    H1 7323   2.706   2.569   3.978 -0.9387  0.5581  0.9278
 2453TIP3    H2 7324   2.802   2.662   3.907  1.3814 -1.9721  0.6157
 2454TIP3   OH2 7325   7.103   5.975   2.783 -0.2263  0.4196 -0.4658
 2454TIP3    H1 7326   7.187   5.975   2.829 -0.4070 -0.7683 -0.1098
 2454TIP3    H2 7327   7.127   5.984   2.691  0.2346  0.8881 -0.3100
 2455TIP3   OH2 7328   3.404   6.433   3.687 -0.6489  0.4236 -0.2359
 2455TIP3    H1 7329   3.343   6.391   3.626 -1.4320  2.1203 -0.6857
 2455TIP3    H2 7330   3.479   6.457   3.632 -1.2393  1.7113 -0.5215
 2456TIP3   OH2 7331   1.869   4.617   2.661  0.0772 -0.2134 -0.3642
 2456TIP3    H1 7332   1.829   4.538   2.625 -0.3169  0.1017 -0.6214
 2456TIP3    H2 7333   1.804   4.685   2.646 -0.7446 -0.3258  2.1886
 2457TIP3   OH2 7334   4.071   2.995   0.238 -0.0669  0.1511 -0.1359
 2457TIP3    H1 7335   4.032   2.999   0.325  0.1146  0.8488 -0.0827
 2457TIP3    H2 7336   4.004   3.031   0.180  0.6114  1.7002  0.0035
 2458TIP3   OH2 7337   5.885   3.034   3.252 -0.6588 -0.0977 -0.3082
 2458TIP3    H1 7338   5.919   3.066   3.335 -0.3704 -0.0523 -0.4423
 2458TIP3    H2 7339   5.794   3.010   3.271 -1.4052  2.2289 -0.5223
 2459TIP3   OH2 7340   3.224   5.414   3.492 -0.2702  0.5163  0.3407
 2459TIP3    H1 7341   3.297   5.408   3.430 -1.1190 -0.0614 -0.6287
 2459TIP3    H2 7342   3.164   5.477   3.453 -1.2416 -0.5282  0.1062
 2460TIP3   OH2 7343   1.759   2.441   1.952 -0.4513 -0.2442  0.3273
 2460TIP3    H1 7344   1.806   2.371   1.998  0.4147  0.5073  0.6116
 2460TIP3    H2 7345   1.824   2.479   1.894 -0.3543  1.5628  1.5490
 2461TIP3   OH2 7346   3.300   5.701   2.037 -0.1918  0.2503 -0.3662
 2461TIP3    H1 7347   3.281   5.659   2.121  0.7193 -0.9113 -0.7119
 2461TIP3    H2 7348   3.355   5.776   2.060 -0.2595  0.1614  0.1095
 2462TIP3   OH2 7349   0.131   0.946   3.495 -0.1204 -0.1050  0.0790
 2462TIP3    H1 7350   0.063   0.909   3.551  0.9448 -2.8751 -0.3040
 2462TIP3    H2 7351   0.107   0.919   3.407  0.1389  1.1092 -0.3815
 2463TIP3   OH2 7352   6.737   6.373   2.806  0.1071  0.0356  0.1401
 2463TIP3    H1 7353   6.802   6.417   2.861  0.0573  1.6254 -1.0040
 2463TIP3    H2 7354   6.775   6.287   2.788  1.5591  0.6643  0.0866
 2464TIP3   OH2 7355   1.512   2.895   2.232 -0.4615  0.2575 -0.0307
 2464TIP3    H1 7356   1.507   2.926   2.322 -0.4237 -1.2486  0.5118
 2464TIP3    H2 7357   1.530   2.974   2.181  0.5210  1.0021  1.3830
 2465TIP3   OH2 7358   3.329   5.686   3.341  0.9868  0.4937 -0.4272
 2465TIP3    H1 7359   3.402   5.633   3.372 -0.3821 -0.1384  1.9628
 2465TIP3    H2 7360   3.288   5.719   3.421 -0.3094  2.2692 -1.7512
 2466TIP3   OH2 7361   6.414   5.984   5.165 -0.9434 -0.0241  0.3856
 2466TIP3    H1 7362   6.344   5.918   5.167  0.7490 -1.9250  0.1118
 2466TIP3    H2 7363   6.493   5.934   5.146  0.6193  1.9622  1.3215
 2467TIP3   OH2 7364   0.838   5.631   1.658 -0.5548  0.2385 -0.2292
 2467TIP3    H1 7365   0.921   5.625   1.611 -0.4398  0.3721 -0.0469
 2467TIP3    H2 7366   0.839   5.557   1.719 -0.8839 -0.1712 -0.7160
 2468TIP3   OH2 7367   7.208   5.966   1.473  0.7899 -0.4009 -0.5825
 2468TIP3    H1 7368   7.135   5.926   1.518  0.9382 -0.2185 -0.1762
 2468TIP3    H2 7369   7.187   5.958   1.380 -0.5352  1.0697 -0.4578
 2469TIP3   OH2 7370   6.168   2.722   2.426  0.3710  0.6695  0.5819
 2469TIP3    H1 7371   6.122   2.695   2.506 -0.7816 -0.8314 -0.5208
 2469TIP3    H2 7372   6.098   2.750   2.367  0.9736 -0.2898 -0.6291
 2470TIP3   OH2 7373   4.789   2.073   5.592  0.0451  0.2668 -0.2648
 2470TIP3    H1 7374   4.815   2.054   5.502 -1.7860  0.4414 -0.8723
 2470TIP3    H2 7375   4.697   2.047   5.596 -0.0883  0.8861  1.3752
 2471TIP3   OH2 7376   4.325   3.101   4.111 -0.0325 -0.2976  0.0361
 2471TIP3    H1 7377   4.306   3.194   4.097 -3.1501 -0.3954  2.6015
 2471TIP3    H2 7378   4.421   3.098   4.119  0.0961  3.1506  2.2594
 2472TIP3   OH2 7379   3.919   1.943   0.815 -0.3477 -0.2823  0.2424
 2472TIP3    H1 7380   3.833   1.969   0.782 -0.4537 -0.8900  0.0308
 2472TIP3    H2 7381   3.979   1.956   0.742 -0.0579  1.1674  0.7130
 2473TIP3   OH2 7382   0.143   6.605   1.833 -0.0821  0.0558 -0.3107
 2473TIP3    H1 7383   0.201   6.587   1.907 -1.7647  0.1186  1.0937
 2473TIP3    H2 7384   0.090   6.526   1.824  0.0767  0.0691 -1.4280
 2474TIP3   OH2 7385   7.046   4.483   3.544 -0.7414 -0.6274  0.1293
 2474TIP3    H1 7386   7.102   4.428   3.600 -1.0424 -1.0981 -0.0259
 2474TIP3    H2 7387   6.957   4.462   3.572 -1.1355 -3.2618 -2.5809
 2475TIP3   OH2 7388   5.400   6.124   1.141 -0.1996 -0.6000  0.2444
 2475TIP3    H1 7389   5.340   6.141   1.068  0.1629 -0.7018 -0.0835
 2475TIP3    H2 7390   5.449   6.046   1.114 -0.2765 -0.8193  0.7327
 2476TIP3   OH2 7391   3.077   4.941   3.282  0.0517  0.1634  0.2318
 2476TIP3    H1 7392   3.036   5.015   3.237 -0.8961 -0.5180 -0.0438
 2476TIP3    H2 7393   3.153   4.980   3.326  0.5374  0.9976 -1.2579
 2477TIP3   OH2 7394   0.752   3.217   4.170 -0.5412  0.3124  0.1222
 2477TIP3    H1 7395   0.749   3.162   4.248  0.8658  1.5651  1.1019
 2477TIP3    H2 7396   0.660   3.230   4.146 -1.0266  0.3008  1.8607
 2478TIP3   OH2 7397   2.245   1.519   5.295  0.0286  0.1664 -0.7156
 2478TIP3    H1 7398   2.280   1.545   5.380  2.4740 -2.6461 -0.7367
 2478TIP3    H2 7399   2.180   1.452   5.315 -0.1523  0.2458 -1.0247
 2479TIP3   OH2 7400   0.351   5.509   1.551 -0.3451 -0.2400  0.4068
 2479TIP3    H1 7401   0.333   5.497   1.458  1.5604 -1.0600  0.0890
 2479TIP3    H2 7402   0.446   5.523   1.555 -0.3734 -0.3207  2.2432
 2480TIP3   OH2 7403   2.737   4.373   1.295  0.0842  0.3931 -0.1719
 2480TIP3    H1 7404   2.718   4.382   1.201  0.9230  1.0111 -0.2911
 2480TIP3    H2 7405   2.652   4.355   1.334 -0.3493  0.5589 -1.0055
 2481TIP3   OH2 7406   6.260   5.711   1.951 -0.1442  0.7396  0.1686
 2481TIP3    H1 7407   6.338   5.747   1.908  0.9089 -0.2022  1.2296
 2481TIP3    H2 7408   6.230   5.782   2.007  0.5763  0.7684  0.5326
 2482TIP3   OH2 7409   1.188   0.422   0.247 -0.1244 -0.0172  0.4055
 2482TIP3    H1 7410   1.266   0.382   0.284  0.2169 -0.1133 -0.3900
 2482TIP3    H2 7411   1.140   0.349   0.208  0.2216  0.2551 -0.5566
 2483TIP3   OH2 7412   4.565   3.318   2.666  0.7893  0.4801 -0.4490
 2483TIP3    H1 7413   4.652   3.279   2.666  0.7358  0.3545 -0.0382
 2483TIP3    H2 7414   4.507   3.247   2.692  1.0154  1.4933  3.3626
 2484TIP3   OH2 7415   6.151   6.052   4.477 -0.3057 -0.2077  0.5137
 2484TIP3    H1 7416   6.240   6.053   4.440 -0.2831 -0.9754  0.5303
 2484TIP3    H2 7417   6.148   6.130   4.533 -0.6212  1.4728 -1.7016
 2485TIP3   OH2 7418   0.083   3.923   5.633 -0.2729 -0.2266  0.1725
 2485TIP3    H1 7419   0.026   3.848   5.653  0.6216 -1.3105 -1.1456
 2485TIP3    H2 7420   0.033   3.975   5.570 -1.1920  0.7050  1.6302
 2486TIP3   OH2 7421   6.135   0.185   3.469 -0.7096 -0.3976 -0.1855
 2486TIP3    H1 7422   6.164   0.196   3.379 -0.2655  0.6803  0.0817
 2486TIP3    H2 7423   6.042   0.163   3.462 -0.2478 -2.3554 -0.9762
 2487TIP3   OH2 7424   5.289   3.345   2.738  0.4495 -0.1581  0.4207
 2487TIP3    H1 7425   5.372   3.331   2.692  0.4993 -1.8807  0.9714
 2487TIP3    H2 7426   5.264   3.258   2.770 -2.0187  0.1477 -0.4769
 2488TIP3   OH2 7427   2.307   5.870   5.864  0.0718 -0.0555 -0.0979
 2488TIP3    H1 7428   2.292   5.860   5.770 -0.0891  1.5970 -0.2751
 2488TIP3    H2 7429   2.243   5.811   5.905  0.6251 -1.3254 -1.0184
 2489TIP3   OH2 7430   5.869   4.291   3.237 -0.1291 -0.5125 -0.2267
 2489TIP3    H1 7431   5.883   4.211   3.287  0.3896  0.5467  1.3942
 2489TIP3    H2 7432   5.778   4.314   3.252 -0.6914 -1.5047 -1.8411
 2490TIP3   OH2 7433   4.677   6.426   5.827  0.0613 -0.4494  0.5208
 2490TIP3    H1 7434   4.673   6.421   5.732 -0.2961 -0.4997  0.5376
 2490TIP3    H2 7435   4.636   6.345   5.857  1.2844 -1.0198  0.7051
 2491TIP3   OH2 7436   5.571   5.011   4.135 -0.0717  0.2133  0.1062
 2491TIP3    H1 7437   5.568   5.105   4.151  1.9922  0.0501  1.9922
 2491TIP3    H2 7438   5.480   4.982   4.143 -0.6366  1.9262  0.2078
 2492TIP3   OH2 7439   0.367   4.500   2.874  0.4725  0.1955  0.5119
 2492TIP3    H1 7440   0.410   4.532   2.795  0.4468 -0.1445  0.3611
 2492TIP3    H2 7441   0.333   4.580   2.916  0.5942  0.3890  0.2482
 2493TIP3   OH2 7442   4.095   6.588   5.613  0.2722  0.3240 -0.2927
 2493TIP3    H1 7443   4.171   6.621   5.660  0.3931  0.1989 -0.4029
 2493TIP3    H2 7444   4.020   6.625   5.661  0.4036  0.6613 -0.3422
 2494TIP3   OH2 7445   0.572   4.292   3.200 -0.2224  0.1048 -0.6263
 2494TIP3    H1 7446   0.611   4.375   3.173  0.5874  0.4118  1.2805
 2494TIP3    H2 7447   0.619   4.226   3.149  0.4863  0.7063 -0.7763
 2495TIP3   OH2 7448   5.190   3.793   3.601 -0.1473 -0.3490  0.0958
 2495TIP3    H1 7449   5.221   3.879   3.571 -1.2994 -0.3225 -1.1283
 2495TIP3    H2 7450   5.101   3.786   3.566 -0.0861 -2.0356  0.1909
 2496TIP3   OH2 7451   4.694   5.775   4.569  0.0819  0.0683  0.0839
 2496TIP3    H1 7452   4.690   5.765   4.664 -0.3160  0.2518  0.0857
 2496TIP3    H2 7453   4.749   5.852   4.556 -1.4709  1.2359  0.2275
 2497TIP3   OH2 7454   0.206   5.119   5.623  0.7385  0.0429 -0.1104
 2497TIP3    H1 7455   0.187   5.162   5.706 -3.2677 -1.0024 -0.3126
 2497TIP3    H2 7456   0.265   5.047   5.646  1.5661  1.1610  1.3959
 2498TIP3   OH2 7457   0.308   2.058   3.767 -0.3607  0.0546 -0.3554
 2498TIP3    H1 7458   0.303   2.059   3.671 -0.9193 -0.3160 -0.3383
 2498TIP3    H2 7459   0.400   2.042   3.787 -0.1766  0.5142 -0.8283
 2499TIP3   OH2 7460   4.789   4.048   0.956 -0.5677  0.3956 -0.2086
 2499TIP3    H1 7461   4.722   4.102   0.914  0.2983 -0.0141 -2.2586
 2499TIP3    H2 7462   4.804   3.977   0.894  1.8864  0.5870  0.0659
 2500TIP3   OH2 7463   6.076   6.271   2.594  0.1115  0.5804  0.0569
 2500TIP3    H1 7464   6.133   6.336   2.635 -1.7299  1.4284  1.4088
 2500TIP3    H2 7465   6.082   6.290   2.500 -1.3536  3.6589  0.4587
 2501TIP3   OH2 7466   1.491   4.582   4.843  0.5438  0.2090 -0.6684
 2501TIP3    H1 7467   1.497   4.514   4.910  1.1680  0.4019 -0.5190
 2501TIP3    H2 7468   1.504   4.535   4.760  1.2908  0.1852 -0.5449
 2502TIP3   OH2 7469   0.420   3.437   0.357 -0.4148  0.0774 -0.1838
 2502TIP3    H1 7470   0.499   3.489   0.345 -0.6624  0.0470 -2.4061
 2502TIP3    H2 7471   0.436   3.356   0.308 -1.0298 -0.8585  1.0846
 2503TIP3   OH2 7472   2.933   5.946   4.371  0.0733 -0.4319  0.3179
 2503TIP3    H1 7473   2.976   5.923   4.454 -0.3616 -0.8760  0.4205
 2503TIP3    H2 7474   2.901   6.035   4.385  1.4282  0.1163  0.0496
 2504TIP3   OH2 7475   3.242   2.014   0.811 -0.1977 -0.4185  0.4104
 2504TIP3    H1 7476   3.211   2.063   0.886 -0.2060  0.7816 -0.3514
 2504TIP3    H2 7477   3.337   2.031   0.809 -0.2422 -0.2025 -0.0126
 2505TIP3   OH2 7478   0.647   2.629   4.961  0.0729 -0.3277 -0.5214
 2505TIP3    H1 7479   0.643   2.558   4.896 -2.2238 -0.3550 -0.4210
 2505TIP3    H2 7480   0.598   2.595   5.036  1.6075  0.2054  0.7733
 2506TIP3   OH2 7481   3.148   5.178   0.505 -0.4461  0.3231  0.0521
 2506TIP3    H1 7482   3.139   5.197   0.412 -1.3805  0.4922  0.1737
 2506TIP3    H2 7483   3.234   5.213   0.528 -0.8863  1.7404 -0.3875
 2507TIP3   OH2 7484   4.049   5.686   4.778  0.1325  0.1907  0.1997
 2507TIP3    H1 7485   4.073   5.707   4.688 -0.9418  1.2942  0.1522
 2507TIP3    H2 7486   4.111   5.735   4.831  0.6504 -0.3166  0.0767
 2508TIP3   OH2 7487   6.606   6.139   1.470 -0.1396  0.3049  0.0585
 2508TIP3    H1 7488   6.605   6.224   1.515  1.1782  0.4223 -0.1018
 2508TIP3    H2 7489   6.692   6.135   1.428 -0.9472 -0.2426 -1.6213
 2509TIP3   OH2 7490   1.026   1.182   2.096  0.2902 -0.1286 -0.1519
 2509TIP3    H1 7491   1.100   1.176   2.156 -1.2015 -1.5183  1.6340
 2509TIP3    H2 7492   1.045   1.118   2.028  1.0310  0.0074 -0.0810
 2510TIP3   OH2 7493   3.036   5.650   4.880  0.4459  0.4307  0.1977
 2510TIP3    H1 7494   3.004   5.563   4.905 -1.0930  1.3536  1.6476
 2510TIP3    H2 7495   3.075   5.637   4.794  0.1753 -1.6790  0.3426
 2511TIP3   OH2 7496   5.200   3.350   5.224 -0.3072  0.3939  0.2181
 2511TIP3    H1 7497   5.124   3.305   5.185 -1.0036  2.1435 -0.5307
 2511TIP3    H2 7498   5.186   3.341   5.318 -0.5351 -0.7626  0.0920
 2512TIP3   OH2 7499   5.711   4.372   2.635  0.1173  0.1093  0.3300
 2512TIP3    H1 7500   5.736   4.315   2.562  2.9204  2.5347 -0.8035
 2512TIP3    H2 7501   5.792   4.389   2.682 -1.2406  0.4202  2.7291
 2513TIP3   OH2 7502   3.204   0.873   2.010 -0.3546  0.3468 -0.1139
 2513TIP3    H1 7503   3.246   0.805   1.958 -2.3559 -0.6863 -0.4677
 2513TIP3    H2 7504   3.148   0.919   1.948 -3.0227 -1.1068  1.0501
 2514TIP3   OH2 7505   6.052   1.425   3.694 -0.4979  0.0468  0.5680
 2514TIP3    H1 7506   6.076   1.429   3.601  0.5996  0.9017  0.8698
 2514TIP3    H2 7507   5.957   1.415   3.694 -0.5041 -0.0094 -0.6446
 2515TIP3   OH2 7508   2.762   1.454   1.157 -0.1870 -0.0843  0.5623
 2515TIP3    H1 7509   2.712   1.515   1.103  2.4962  2.4998  0.7333
 2515TIP3    H2 7510   2.808   1.509   1.220  2.2727 -2.2780  0.8664
 2516TIP3   OH2 7511   2.421   4.999   2.107  0.4838  0.2042  0.1311
 2516TIP3    H1 7512   2.447   5.070   2.048 -0.6650  1.9534  1.5898
 2516TIP3    H2 7513   2.504   4.964   2.140  1.0899  0.8672 -0.6316
 2517TIP3   OH2 7514   1.945   3.396   2.683 -0.0576  0.2906  0.8835
 2517TIP3    H1 7515   1.966   3.465   2.620  0.4075  0.1680  0.8977
 2517TIP3    H2 7516   1.885   3.338   2.636 -0.9812  1.0574  1.0969
 2518TIP3   OH2 7517   5.259   5.394   4.373  0.6713 -0.2943  0.1097
 2518TIP3    H1 7518   5.253   5.325   4.307  2.5491 -0.4654  0.0762
 2518TIP3    H2 7519   5.316   5.460   4.334  1.8854 -0.4318  1.5568
 2519TIP3   OH2 7520   2.146   0.038   3.299  0.8269 -0.0924  0.5165
 2519TIP3    H1 7521   2.109   0.038   3.387 -1.4898  0.8976 -0.3808
 2519TIP3    H2 7522   2.207  -0.037   3.299  1.1677  0.1017  3.0138
 2520TIP3   OH2 7523  -0.004   5.912   2.291  0.4172 -0.3709  0.3651
 2520TIP3    H1 7524  -0.050   5.897   2.208 -0.2876  1.7983  0.2955
 2520TIP3    H2 7525   0.057   5.838   2.298  0.1104 -0.9212 -1.8056
 2521TIP3   OH2 7526   1.738   3.433   0.063 -0.0182 -0.3516  0.5630
 2521TIP3    H1 7527   1.683   3.387  -0.001 -0.3099  1.6932 -0.7433
 2521TIP3    H2 7528   1.680   3.445   0.139 -0.9361  0.5243 -0.2522
 2522TIP3   OH2 7529   4.295   1.636   1.637 -0.0645 -0.0667 -0.3247
 2522TIP3    H1 7530   4.248   1.702   1.586 -0.2662  0.2802  0.2964
 2522TIP3    H2 7531   4.356   1.687   1.691  0.0762 -0.4149 -0.1520
 2523TIP3   OH2 7532   6.869   2.581   5.317 -0.3088 -0.2157 -0.0528
 2523TIP3    H1 7533   6.934   2.522   5.279 -0.7792 -0.0459 -1.1438
 2523TIP3    H2 7534   6.819   2.526   5.378 -0.3595 -0.8040 -0.6173
 2524TIP3   OH2 7535   7.094   5.715   3.462  0.4008 -0.0381 -0.0901
 2524TIP3    H1 7536   7.119   5.666   3.384  2.8977  1.0796 -0.0759
 2524TIP3    H2 7537   7.063   5.649   3.524  0.5050 -1.1830 -1.2256
 2525TIP3   OH2 7538   4.764   2.937   3.677 -0.3384 -0.3574 -0.4302
 2525TIP3    H1 7539   4.773   3.020   3.630  2.0265 -0.0123  0.5089
 2525TIP3    H2 7540   4.712   2.882   3.618 -0.7131  1.2962 -1.7250
 2526TIP3   OH2 7541   2.426   0.940   5.284 -0.0277 -1.1414  0.1161
 2526TIP3    H1 7542   2.480   0.922   5.361 -0.9267  1.1094  1.3712
 2526TIP3    H2 7543   2.488   0.947   5.211  1.3512  0.6518  1.3902
 2527TIP3   OH2 7544   0.182   0.373   0.554  0.1069 -0.2302  0.2181
 2527TIP3    H1 7545   0.131   0.454   0.557 -0.1365 -0.2101 -2.3357
 2527TIP3    H2 7546   0.266   0.396   0.594 -0.8995  0.4446  2.0982
 2528TIP3   OH2 7547   6.741   4.608   4.914 -0.3184  0.1831 -0.3288
 2528TIP3    H1 7548   6.777   4.536   4.862  1.5779  1.9156 -1.5337
 2528TIP3    H2 7549   6.769   4.589   5.004  1.1095 -0.0514 -0.8028
 2529TIP3   OH2 7550   3.621   4.589   0.703  0.4899 -0.4477 -0.1511
 2529TIP3    H1 7551   3.605   4.539   0.783  0.0638  1.4708  1.0435
 2529TIP3    H2 7552   3.538   4.634   0.686  1.2212  0.8505 -0.4015
 2530TIP3   OH2 7553   4.990   1.836   5.699 -0.2327  0.3113 -0.4001
 2530TIP3    H1 7554   5.043   1.895   5.752 -0.9371 -1.2112  2.1589
 2530TIP3    H2 7555   4.906   1.831   5.744 -1.0185 -0.7699 -1.8913
 2531TIP3   OH2 7556   2.926   5.677   5.446 -0.3143  0.7423 -0.3405
 2531TIP3    H1 7557   2.899   5.739   5.513  0.8343  2.4332 -1.3518
 2531TIP3    H2 7558   3.005   5.716   5.408 -0.3431 -0.6553 -1.9760
 2532TIP3   OH2 7559   0.643   2.619   4.183 -0.3858 -0.0532 -0.0745
 2532TIP3    H1 7560   0.665   2.622   4.090  0.0005  2.3957  0.0343
 2532TIP3    H2 7561   0.727   2.616   4.228 -0.5693 -1.0781  0.2355
 2533TIP3   OH2 7562   2.521   6.099   1.068  0.4943  0.5477 -0.3578
 2533TIP3    H1 7563   2.532   6.179   1.018 -0.7326  1.7721  1.2120
 2533TIP3    H2 7564   2.580   6.109   1.143 -0.4366  0.4984  0.4038
 2534TIP3   OH2 7565   1.362   3.982   3.818 -0.0286 -0.1961 -0.8210
 2534TIP3    H1 7566   1.422   3.969   3.745  1.6484  1.2424  0.2306
 2534TIP3    H2 7567   1.308   4.056   3.793  1.4723  1.1987 -0.1063
 2535TIP3   OH2 7568   1.148   6.218   3.743 -0.2883  0.2370 -0.6430
 2535TIP3    H1 7569   1.139   6.134   3.699 -1.2647 -0.1605  0.2594
 2535TIP3    H2 7570   1.073   6.222   3.802  0.5197  1.1105  0.3690
 2536TIP3   OH2 7571   5.415   3.354   1.806 -0.0463  0.5037 -0.6972
 2536TIP3    H1 7572   5.504   3.380   1.781  0.0311 -0.1117 -1.0880
 2536TIP3    H2 7573   5.407   3.381   1.898 -0.2855  2.6552 -1.3108
 2537TIP3   OH2 7574   0.634   1.848   5.227 -0.0654  0.1782  0.0385
 2537TIP3    H1 7575   0.556   1.868   5.175 -0.9289 -0.9334  0.8454
 2537TIP3    H2 7576   0.652   1.756   5.208  1.8858  0.7621 -1.1644
 2538TIP3   OH2 7577   3.144   3.790   4.467  0.5503 -0.1096 -1.2642
 2538TIP3    H1 7578   3.124   3.861   4.405  1.3917  0.6580 -0.6703
 2538TIP3    H2 7579   3.238   3.797   4.482  0.3524 -0.2249  0.1580
 2539TIP3   OH2 7580   0.836   2.734   1.879  0.5282  0.3373 -0.3315
 2539TIP3    H1 7581   0.880   2.650   1.887 -1.1387 -0.4154  1.7987
 2539TIP3    H2 7582   0.907   2.798   1.882  1.7096 -0.9234 -0.5106
 2540TIP3   OH2 7583   4.928   4.663   4.874 -0.6565 -0.1489  0.4383
 2540TIP3    H1 7584   4.852   4.673   4.932  0.5190 -0.4047  2.0602
 2540TIP3    H2 7585   4.966   4.751   4.869 -0.8745 -0.0810 -0.1444
 2541TIP3   OH2 7586   0.453   3.842   0.436 -0.2891 -0.1432  0.3439
 2541TIP3    H1 7587   0.545   3.821   0.416 -0.3504 -1.6857  1.4904
 2541TIP3    H2 7588   0.431   3.785   0.509 -1.5393  1.7351  1.5320
 2542TIP3   OH2 7589   4.311   0.386   0.755 -0.2165  0.2124  1.0232
 2542TIP3    H1 7590   4.303   0.477   0.729  0.1409  0.0246  0.2073
 2542TIP3    H2 7591   4.221   0.353   0.758 -0.2993  0.3775  0.4873
 2543TIP3   OH2 7592   1.692   1.664   4.209  0.3654  0.0063  0.0796
 2543TIP3    H1 7593   1.728   1.592   4.157  0.6258  0.0928  0.1393
 2543TIP3    H2 7594   1.607   1.631   4.240  1.2713 -0.9853  1.6158
 2544TIP3   OH2 7595   2.044   4.108   0.291 -0.3021  0.2060 -0.5634
 2544TIP3    H1 7596   2.128   4.098   0.335 -0.8714 -0.0488  0.5085
 2544TIP3    H2 7597   1.991   4.158   0.353 -0.7131  1.0173 -1.5408
 2545TIP3   OH2 7598   3.338   3.532   5.440 -0.2165 -0.1979 -0.2558
 2545TIP3    H1 7599   3.326   3.455   5.384 -0.4112 -0.9014  0.7322
 2545TIP3    H2 7600   3.330   3.607   5.380 -0.3075 -0.9306 -1.1799
 2546TIP3   OH2 7601   0.753   1.143   5.079  0.1141  0.0087  0.1629
 2546TIP3    H1 7602   0.787   1.209   5.140 -1.7461  0.9805  0.1928
 2546TIP3    H2 7603   0.710   1.193   5.010  1.8436 -1.0826 -1.8321
 2547TIP3   OH2 7604   1.730   4.000   4.602 -0.0487  0.4399 -0.1163
 2547TIP3    H1 7605   1.791   3.981   4.673 -0.9694 -1.9006  0.1148
 2547TIP3    H2 7606   1.647   4.019   4.645 -0.8389 -1.8591 -0.4993
 2548TIP3   OH2 7607   4.931   5.794   2.300  0.2622 -0.1969  0.6346
 2548TIP3    H1 7608   5.010   5.817   2.348  0.3468  0.5244  0.1528
 2548TIP3    H2 7609   4.859   5.824   2.356  0.2445 -2.3058  1.8550
 2549TIP3   OH2 7610   5.584   6.633   3.938 -0.4531 -0.0453  0.0446
 2549TIP3    H1 7611   5.628   6.554   3.968 -1.2003 -0.3654  0.3021
 2549TIP3    H2 7612   5.604   6.698   4.005 -1.7084 -0.6285  1.0250
 2550TIP3   OH2 7613   6.779   2.829   3.371  0.1285  0.5215 -0.0612
 2550TIP3    H1 7614   6.857   2.806   3.421 -0.0115  1.9590  0.8662
 2550TIP3    H2 7615   6.782   2.771   3.295  1.3548 -0.4024  0.6462
 2551TIP3   OH2 7616   4.181   0.261   2.252  0.0542 -0.1060  0.0033
 2551TIP3    H1 7617   4.110   0.236   2.193 -0.4803  2.9843 -0.8505
 2551TIP3    H2 7618   4.259   0.263   2.197  0.5273 -1.7779  0.5479
 2552TIP3   OH2 7619   1.889   1.357   1.213 -0.8822 -0.2688 -0.7208
 2552TIP3    H1 7620   1.805   1.396   1.190 -0.4525  0.3629 -1.2407
 2552TIP3    H2 7621   1.944   1.370   1.136 -0.7371 -1.9551 -0.9301
 2553TIP3   OH2 7622   2.321   6.168   3.922 -0.0309  0.7404 -0.2460
 2553TIP3    H1 7623   2.378   6.229   3.875 -0.1218  1.1893  0.2232
 2553TIP3    H2 7624   2.278   6.222   3.988 -1.5766  0.5744 -1.0758
 2554TIP3   OH2 7625   1.799   5.834   1.567  0.1719  0.9853  0.1134
 2554TIP3    H1 7626   1.881   5.797   1.601 -1.9940 -2.0884  2.5594
 2554TIP3    H2 7627   1.766   5.766   1.509  0.0279  2.9092 -2.1950
 2555TIP3   OH2 7628   2.356   2.637   5.694  0.4218 -0.1011  0.3679
 2555TIP3    H1 7629   2.296   2.563   5.698  0.5854 -0.2761 -0.3738
 2555TIP3    H2 7630   2.392   2.635   5.605 -0.1794  1.3504  0.0761
 2556TIP3   OH2 7631   2.208   1.088   2.320  0.2974 -0.0970 -0.2545
 2556TIP3    H1 7632   2.168   1.005   2.346 -0.8336  0.5433  0.1071
 2556TIP3    H2 7633   2.293   1.088   2.365 -0.1610 -0.5722  0.6425
 2557TIP3   OH2 7634   3.791   1.620   5.305 -0.4386  0.3380  0.3540
 2557TIP3    H1 7635   3.870   1.597   5.354 -1.2906 -2.7809  0.4626
 2557TIP3    H2 7636   3.824   1.658   5.223  1.2464 -1.5430  0.0894
 2558TIP3   OH2 7637   2.723   4.151   5.058 -0.4834  0.0120 -0.2382
 2558TIP3    H1 7638   2.676   4.123   4.979 -1.9192  0.6735  0.3484
 2558TIP3    H2 7639   2.813   4.120   5.044 -0.9047 -0.6594 -1.7260
 2559TIP3   OH2 7640   1.285   1.423   2.001 -0.3728  0.0867  0.7555
 2559TIP3    H1 7641   1.289   1.366   1.924  2.1445 -0.0317  0.9039
 2559TIP3    H2 7642   1.277   1.512   1.965 -1.0585 -0.1040  0.4293
 2560TIP3   OH2 7643   0.566   2.355   0.976  0.3503  0.2345  0.5090
 2560TIP3    H1 7644   0.646   2.399   0.946  0.5782  0.0186  0.7929
 2560TIP3    H2 7645   0.595   2.302   1.050 -0.1824  0.6726  1.0396
 2561TIP3   OH2 7646   3.511   2.728   5.800 -0.1388  0.2168 -0.0320
 2561TIP3    H1 7647   3.554   2.798   5.751  0.5927  0.5776  1.0963
 2561TIP3    H2 7648   3.432   2.709   5.749 -1.6050  3.4720  0.7744
 2562TIP3   OH2 7649   3.331   6.388   4.696  0.2402  0.1521 -0.2036
 2562TIP3    H1 7650   3.395   6.455   4.671 -1.3159  1.3412 -1.1602
 2562TIP3    H2 7651   3.354   6.313   4.641  0.9549  0.4747 -0.3664
 2563TIP3   OH2 7652   0.049   6.333   1.895 -0.0749  0.6100 -0.2029
 2563TIP3    H1 7653   0.059   6.263   1.959  0.6254  0.2188 -0.7217
 2563TIP3    H2 7654  -0.036   6.372   1.914 -1.0900 -1.2250 -0.7329
 2564TIP3   OH2 7655   6.235   6.457   2.712 -0.3548  0.5480 -0.2581
 2564TIP3    H1 7656   6.253   6.456   2.806  1.4430 -2.5071 -0.4820
 2564TIP3    H2 7657   6.289   6.528   2.678  1.0624 -0.0057  0.7404
 2565TIP3   OH2 7658   0.105   4.548   1.817 -0.0071 -0.5623 -0.1400
 2565TIP3    H1 7659   0.042   4.585   1.755  0.0324 -1.7152 -0.9113
 2565TIP3    H2 7660   0.191   4.570   1.781  0.0168 -1.4254 -0.6447
 2566TIP3   OH2 7661   5.884   2.670   5.080  0.0043 -0.0983 -0.5603
 2566TIP3    H1 7662   5.896   2.738   5.013 -1.4330  0.5793 -0.1743
 2566TIP3    H2 7663   5.871   2.590   5.029 -2.4121  0.6177 -1.2187
 2567TIP3   OH2 7664   6.934   4.523   4.248  0.0002  0.0632 -0.2111
 2567TIP3    H1 7665   6.977   4.441   4.223 -0.9462 -1.1101  1.7740
 2567TIP3    H2 7666   6.978   4.550   4.329  0.1915  1.4576 -0.7533
 2568TIP3   OH2 7667   4.198   6.683   2.918 -0.1924  0.3643 -0.3520
 2568TIP3    H1 7668   4.146   6.764   2.917 -2.0931 -0.7754  0.1902
 2568TIP3    H2 7669   4.178   6.644   3.003  2.8324  0.5806  0.5705
 2569TIP3   OH2 7670   5.821   5.412   4.558 -0.2699  0.0266  0.4064
 2569TIP3    H1 7671   5.844   5.416   4.465  0.8352 -1.1340  0.6115
 2569TIP3    H2 7672   5.816   5.504   4.585  0.1887  0.3665 -0.6092
 2570TIP3   OH2 7673   2.092   2.567   1.105 -0.0011 -0.4785  0.1121
 2570TIP3    H1 7674   2.089   2.502   1.175  2.0283 -2.7324 -1.7532
 2570TIP3    H2 7675   2.043   2.528   1.033  1.3007  0.0219 -1.0758
 2571TIP3   OH2 7676   1.609   5.096   1.572 -0.0026 -0.3346 -0.1902
 2571TIP3    H1 7677   1.545   5.156   1.612 -3.6822 -2.5724 -2.1271
 2571TIP3    H2 7678   1.624   5.030   1.639 -2.8185 -1.7642 -0.7882
 2572TIP3   OH2 7679   1.183   4.472   1.665 -0.0538 -0.1411  0.4619
 2572TIP3    H1 7680   1.150   4.552   1.625  0.3655 -0.1319  0.1261
 2572TIP3    H2 7681   1.106   4.416   1.677 -0.2014 -0.0886 -0.2272
 2573TIP3   OH2 7682   4.301   4.503   0.378  0.3842  0.1797  0.6533
 2573TIP3    H1 7683   4.362   4.570   0.343 -0.9352  1.0456 -0.0802
 2573TIP3    H2 7684   4.335   4.483   0.465  1.0770  1.5009  0.7219
 2574TIP3   OH2 7685   1.959   1.024   5.835  0.4570  0.4162  0.1563
 2574TIP3    H1 7686   1.921   0.963   5.897  2.7223  1.2479  2.5293
 2574TIP3    H2 7687   1.888   1.084   5.813 -0.3778  0.1779  2.0702
 2575TIP3   OH2 7688   2.461   2.901   5.526 -0.1273  0.3471 -0.5442
 2575TIP3    H1 7689   2.471   2.806   5.521 -1.6568 -0.0201  1.9113
 2575TIP3    H2 7690   2.529   2.929   5.588 -1.2789  0.4590  0.7233
 2576TIP3   OH2 7691   2.913   5.102   0.588  0.2161 -0.1378 -0.1986
 2576TIP3    H1 7692   2.913   5.047   0.510 -1.4413 -0.2970 -0.1078
 2576TIP3    H2 7693   2.999   5.146   0.585  1.1319 -1.8636 -0.8461
 2577TIP3   OH2 7694   0.753   0.643   2.087  0.8714 -0.1094 -0.4845
 2577TIP3    H1 7695   0.737   0.619   2.178  1.5932  3.0342  0.5868
 2577TIP3    H2 7696   0.848   0.645   2.079  0.8131 -0.9125 -1.4919
 2578TIP3   OH2 7697   5.352   6.152   0.531  0.2822  0.1649  0.6054
 2578TIP3    H1 7698   5.300   6.102   0.469  0.0677  1.2186 -0.0878
 2578TIP3    H2 7699   5.416   6.089   0.565 -0.2979 -0.6950  0.1461
 2579TIP3   OH2 7700   5.773   5.713   1.404  0.6555  0.1265  0.5616
 2579TIP3    H1 7701   5.695   5.751   1.445 -0.0933  0.5864 -1.2108
 2579TIP3    H2 7702   5.820   5.672   1.477 -0.8354  0.5099  1.8037
 2580TIP3   OH2 7703   6.477   5.891   2.875 -0.1764 -0.2384 -0.5290
 2580TIP3    H1 7704   6.390   5.908   2.909  0.2743  0.0002  0.5674
 2580TIP3    H2 7705   6.531   5.963   2.909  0.7273 -1.1323  0.0116
 2581TIP3   OH2 7706   1.142   2.427   5.555  0.2682  0.3872 -0.0663
 2581TIP3    H1 7707   1.230   2.407   5.587  0.9695 -2.4955 -3.2298
 2581TIP3    H2 7708   1.156   2.482   5.477 -0.4063 -2.0814 -2.0537
 2582TIP3   OH2 7709   7.154   4.656   4.951  0.5053  0.0535  0.0073
 2582TIP3    H1 7710   7.123   4.569   4.924  0.8603 -0.9035  2.4002
 2582TIP3    H2 7711   7.130   4.714   4.879 -2.1748 -1.5544 -0.5412
 2583TIP3   OH2 7712   3.761   0.601   1.926 -0.0495 -0.1266  0.5385
 2583TIP3    H1 7713   3.709   0.574   2.001 -1.0596 -0.2063 -0.1670
 2583TIP3    H2 7714   3.848   0.565   1.942  0.2005  1.2240  2.4392
 2584TIP3   OH2 7715   4.303   1.875   0.170  0.2908  0.0295 -0.5960
 2584TIP3    H1 7716   4.313   1.932   0.247 -1.4227 -1.2173  0.6401
 2584TIP3    H2 7717   4.362   1.912   0.105  0.1896  2.4447  0.5681
 2585TIP3   OH2 7718   4.730   3.660   5.102  0.9298  0.8629  0.2290
 2585TIP3    H1 7719   4.779   3.709   5.168  2.5573 -0.3459 -0.0023
 2585TIP3    H2 7720   4.788   3.588   5.078 -0.3219  0.2939 -1.2912
 2586TIP3   OH2 7721   2.192   4.780   1.721  0.4429 -0.3456 -0.2914
 2586TIP3    H1 7722   2.131   4.735   1.779  0.4252 -0.1680 -0.1719
 2586TIP3    H2 7723   2.140   4.849   1.679  0.2675 -0.9426 -1.0855
 2587TIP3   OH2 7724   0.652   2.463   2.041  0.0050  0.4300  1.2066
 2587TIP3    H1 7725   0.673   2.384   2.090 -0.2855 -0.1962  0.3373
 2587TIP3    H2 7726   0.709   2.459   1.964 -2.1966 -0.5561 -0.4512
 2588TIP3   OH2 7727   4.050   4.570   5.854  0.1049  0.0332  0.0646
 2588TIP3    H1 7728   4.129   4.561   5.801  0.2557 -0.4095  0.3607
 2588TIP3    H2 7729   4.082   4.590   5.942 -0.1615  1.2769 -0.1131
 2589TIP3   OH2 7730   4.455   6.311   2.513 -0.6392 -0.3104  0.0145
 2589TIP3    H1 7731   4.468   6.378   2.446  0.3136 -0.5928 -0.1000
 2589TIP3    H2 7732   4.365   6.280   2.499  0.1061 -1.6319 -2.3045
 2590TIP3   OH2 7733   5.609   5.691   1.652 -0.3741  0.3487  0.2992
 2590TIP3    H1 7734   5.670   5.701   1.725 -0.4862 -1.4236  0.6760
 2590TIP3    H2 7735   5.550   5.620   1.679  0.2187 -1.0931 -1.9006
 2591TIP3   OH2 7736   0.517   1.623   1.645 -0.0919 -0.6482 -0.3265
 2591TIP3    H1 7737   0.493   1.531   1.636 -0.7374 -0.5920  0.6293
 2591TIP3    H2 7738   0.435   1.668   1.663  0.5520 -0.3382  2.2566
 2592TIP3   OH2 7739   2.753   0.778   3.880  0.1344 -0.4193 -0.1668
 2592TIP3    H1 7740   2.750   0.798   3.973  1.6099  2.2116 -0.5706
 2592TIP3    H2 7741   2.819   0.709   3.872 -0.1674 -0.8241  0.7371
 2593TIP3   OH2 7742   6.740   2.616   5.008  0.2232 -0.5061  0.1883
 2593TIP3    H1 7743   6.798   2.539   5.000 -0.9588 -1.6167  1.6248
 2593TIP3    H2 7744   6.800   2.690   5.010  1.5540 -1.5390  0.6246
 2594TIP3   OH2 7745   2.246   6.229   5.324  0.4144 -0.3527  0.7376
 2594TIP3    H1 7746   2.200   6.300   5.280 -1.0807 -1.3601  0.6010
 2594TIP3    H2 7747   2.226   6.242   5.417  0.3859 -0.4232  0.7410
 2595TIP3   OH2 7748   2.973   3.864   5.183  0.0678  0.4444 -0.4819
 2595TIP3    H1 7749   2.906   3.848   5.249 -0.2284 -0.1135 -0.9111
 2595TIP3    H2 7750   3.049   3.814   5.212 -0.2577 -0.2828 -0.8671
 2596TIP3   OH2 7751   0.967   5.952   1.853  0.3859 -0.8811  0.2703
 2596TIP3    H1 7752   0.940   5.905   1.773 -0.3521 -0.3268  0.1862
 2596TIP3    H2 7753   0.971   6.044   1.826 -1.1423 -0.5082  1.1744
 2597TIP3   OH2 7754   4.405   2.824   5.713  0.4069  0.1561 -0.4148
 2597TIP3    H1 7755   4.394   2.839   5.806  0.2243  1.7418 -0.6684
 2597TIP3    H2 7756   4.492   2.785   5.705  1.3206  1.9735  0.2568
 2598TIP3   OH2 7757   3.100   0.132   2.561  0.1161  0.0434  0.6620
 2598TIP3    H1 7758   3.088   0.058   2.620  3.2742 -1.9816 -0.9661
 2598TIP3    H2 7759   3.152   0.195   2.611 -0.1660 -0.0917  1.1265
 2599TIP3   OH2 7760   5.068   4.216   0.505  0.7013  0.5960 -0.2857
 2599TIP3    H1 7761   4.977   4.242   0.489  0.2151  0.0576  1.4063
 2599TIP3    H2 7762   5.117   4.299   0.504  0.7566  0.6656 -4.0963
 2600TIP3   OH2 7763   0.320   5.996   2.605  0.0941 -0.8779  0.2855
 2600TIP3    H1 7764   0.324   5.905   2.633 -2.7348 -0.9314  0.8448
 2600TIP3    H2 7765   0.379   6.001   2.530  2.5265 -2.4281  1.9724
 2601TIP3   OH2 7766   0.729   4.505   4.901 -0.1565  0.2536  0.0461
 2601TIP3    H1 7767   0.675   4.429   4.923  0.1626 -0.2999 -1.0079
 2601TIP3    H2 7768   0.770   4.531   4.984 -1.5501  0.3170  0.7495
 2602TIP3   OH2 7769   6.709   1.403   4.417  0.5590  0.4724 -0.4023
 2602TIP3    H1 7770   6.699   1.419   4.324  0.6241 -1.0102 -0.6855
 2602TIP3    H2 7771   6.796   1.437   4.438  0.2760  1.4367 -0.7105
 2603TIP3   OH2 7772   6.084   4.380   3.034 -0.3008 -0.2005 -0.2542
 2603TIP3    H1 7773   6.103   4.369   3.127 -0.2526  1.0070 -0.1073
 2603TIP3    H2 7774   6.059   4.293   3.004  1.2618 -0.9589  0.5204
 2604TIP3   OH2 7775   4.632   6.670   3.544 -0.0718  0.0236  0.3659
 2604TIP3    H1 7776   4.569   6.618   3.494 -0.3639 -0.7310  1.4943
 2604TIP3    H2 7777   4.580   6.741   3.582  0.0019  0.1398  0.2508
 2605TIP3   OH2 7778   4.650   6.572   1.668  0.1033  0.7940  0.0752
 2605TIP3    H1 7779   4.596   6.499   1.639  0.5947  0.8608 -1.0439
 2605TIP3    H2 7780   4.666   6.554   1.761 -0.1315 -0.2943 -0.0815
 2606TIP3   OH2 7781   2.035   1.732   0.440  0.0307 -0.0540 -0.3012
 2606TIP3    H1 7782   2.021   1.724   0.534  1.9289  1.9543  0.2505
 2606TIP3    H2 7783   2.110   1.676   0.422 -1.4959 -1.9646 -1.0643
 2607TIP3   OH2 7784   6.484   3.351   5.060  0.4966  0.2183  0.1806
 2607TIP3    H1 7785   6.427   3.397   4.998  0.2627 -0.9861 -0.5447
 2607TIP3    H2 7786   6.434   3.273   5.085  1.2813 -0.1758  0.5633
 2608TIP3   OH2 7787   0.036   2.580   5.343 -0.7004 -0.3100  0.2602
 2608TIP3    H1 7788   0.112   2.562   5.398 -0.0461  1.5139  0.0287
 2608TIP3    H2 7789  -0.025   2.627   5.400 -0.4963  0.5820 -0.2219
 2609TIP3   OH2 7790   3.479   4.252   4.064  0.3156  0.0103 -0.0962
 2609TIP3    H1 7791   3.542   4.293   4.005  1.0173 -0.6144  0.1975
 2609TIP3    H2 7792   3.432   4.189   4.009  1.9422 -1.5925  0.2858
 2610TIP3   OH2 7793   6.958   2.663   2.794 -0.1007 -0.5785 -0.1542
 2610TIP3    H1 7794   7.019   2.709   2.736  0.2703  0.5678  1.0883
 2610TIP3    H2 7795   6.896   2.731   2.821 -0.2082 -1.0600  0.8618
 2611TIP3   OH2 7796   6.490   6.479   3.752  0.6732 -0.3261 -0.1317
 2611TIP3    H1 7797   6.395   6.469   3.759  0.3149  0.6819 -2.5236
 2611TIP3    H2 7798   6.505   6.573   3.757  1.7710 -0.5496  1.7716
 2612TIP3   OH2 7799   3.479   2.924   0.036  0.2488  0.6747 -0.1097
 2612TIP3    H1 7800   3.465   3.013   0.069  1.7164  1.5247 -1.5757
 2612TIP3    H2 7801   3.392   2.886   0.029 -0.4228  2.0651  0.3970
 2613TIP3   OH2 7802   6.351   3.371   2.459  0.2328  0.0440 -0.0216
 2613TIP3    H1 7803   6.441   3.391   2.487 -0.5544  1.0383  2.0566
 2613TIP3    H2 7804   6.321   3.304   2.520 -1.3145  1.7165  1.1580
 2614TIP3   OH2 7805   2.834   3.417   1.841  0.2399  0.1587 -0.3449
 2614TIP3    H1 7806   2.901   3.392   1.778  1.3909 -0.2547  0.9793
 2614TIP3    H2 7807   2.881   3.422   1.925 -0.7609  2.7879  0.1719
 2615TIP3   OH2 7808   2.816   1.280   3.655 -0.5640  0.1145 -0.5672
 2615TIP3    H1 7809   2.813   1.198   3.607 -1.4264  0.2246 -0.7278
 2615TIP3    H2 7810   2.774   1.344   3.597  0.2307  0.7090 -0.5119
 2616TIP3   OH2 7811   2.026   5.109   4.521 -0.3488  0.1068  0.1190
 2616TIP3    H1 7812   1.988   5.030   4.558  0.3822  0.5223  1.8609
 2616TIP3    H2 7813   1.969   5.180   4.553 -0.3329  0.3930 -0.4678
 2617TIP3   OH2 7814   6.023   4.947   4.812 -0.4344 -0.2572 -0.5378
 2617TIP3    H1 7815   5.982   4.862   4.830  0.5482 -0.6896 -0.2602
 2617TIP3    H2 7816   5.973   5.009   4.865  0.3151 -1.0179  1.1495
 2618TIP3   OH2 7817   4.790   2.855   3.199 -0.1530 -0.3568 -0.2572
 2618TIP3    H1 7818   4.753   2.767   3.207 -2.6812  0.6499  0.0332
 2618TIP3    H2 7819   4.716   2.914   3.217  1.1092  1.8523 -1.8131
 2619TIP3   OH2 7820   0.439   4.023   1.448 -0.2950 -0.3268  0.1281
 2619TIP3    H1 7821   0.497   4.095   1.474 -0.9276  0.5389 -0.7835
 2619TIP3    H2 7822   0.461   3.952   1.508  0.5880  0.5128  0.8349
 2620TIP3   OH2 7823   4.282   1.307   3.801 -0.5564  0.2578 -0.0067
 2620TIP3    H1 7824   4.268   1.225   3.753 -0.7843  0.5404 -0.4264
 2620TIP3    H2 7825   4.351   1.352   3.751 -1.0527  0.7203 -0.2831
 2621TIP3   OH2 7826   4.183   2.063   5.826 -0.4833  0.6220  0.3892
 2621TIP3    H1 7827   4.275   2.081   5.842 -0.0306 -0.8493 -0.3909
 2621TIP3    H2 7828   4.145   2.051   5.913  0.3697 -0.0928  0.6744
 2622TIP3   OH2 7829   5.494   6.329   4.200 -0.0423 -0.1138  0.5179
 2622TIP3    H1 7830   5.522   6.387   4.129  1.2017 -0.8033  0.4275
 2622TIP3    H2 7831   5.523   6.374   4.280  1.9040 -1.0565  0.4090
 2623TIP3   OH2 7832   4.903   2.018   1.219 -0.1067 -0.2015 -0.1176
 2623TIP3    H1 7833   4.983   2.055   1.257  0.8541 -0.6664 -1.5672
 2623TIP3    H2 7834   4.836   2.084   1.235  0.2389 -0.3210  2.2082
 2624TIP3   OH2 7835   0.193   3.835   3.157 -0.0569  0.0442  0.0683
 2624TIP3    H1 7836   0.124   3.890   3.194 -0.9089 -1.3315  0.5739
 2624TIP3    H2 7837   0.256   3.898   3.121 -1.3431  1.3388 -0.0269
 2625TIP3   OH2 7838   6.625   0.038   1.708  0.0223 -0.0722  0.4993
 2625TIP3    H1 7839   6.679   0.106   1.669 -0.1000 -0.9318 -1.2590
 2625TIP3    H2 7840   6.618   0.063   1.800  2.6378  0.5762  0.6129
 2626TIP3   OH2 7841   3.324   0.366   1.764  0.3336 -0.3268 -0.3474
 2626TIP3    H1 7842   3.391   0.426   1.731 -1.1549  2.1659  0.8769
 2626TIP3    H2 7843   3.355   0.340   1.850  0.2677 -0.1109 -0.2592
 2627TIP3   OH2 7844   6.104   4.711   0.271 -0.5872 -0.4917  0.5861
 2627TIP3    H1 7845   6.180   4.757   0.306 -0.2827  0.0255 -0.6971
 2627TIP3    H2 7846   6.051   4.780   0.232 -0.3357 -1.1647 -0.9895
 2628TIP3   OH2 7847   2.623   6.443   0.684  0.7020  0.2858 -0.0380
 2628TIP3    H1 7848   2.566   6.502   0.635  1.3282 -0.7878 -2.1568
 2628TIP3    H2 7849   2.686   6.411   0.619  1.5437 -1.2566  1.4628
 2629TIP3   OH2 7850   2.931   6.370   1.425 -0.4663 -0.0352 -0.4407
 2629TIP3    H1 7851   2.937   6.284   1.467 -0.3391  0.5297  0.7221
 2629TIP3    H2 7852   2.868   6.357   1.354 -1.6858 -0.7121  0.7267
 2630TIP3   OH2 7853   2.341   5.120   0.498  0.4156 -0.5423  0.7179
 2630TIP3    H1 7854   2.259   5.089   0.459  0.0545  1.4692 -0.2781
 2630TIP3    H2 7855   2.408   5.061   0.465 -0.2532 -0.4310 -0.9007
 2631TIP3   OH2 7856   2.925   2.717   1.926  0.3376  0.2818  0.0552
 2631TIP3    H1 7857   2.900   2.635   1.970 -0.3303  0.7637  0.5948
 2631TIP3    H2 7858   2.925   2.782   1.996  0.0077  0.9129 -0.5266
 2632TIP3   OH2 7859   3.496   1.068   0.068  0.0879  0.0946  0.4062
 2632TIP3    H1 7860   3.482   0.975   0.046 -2.0915  0.4311  0.1365
 2632TIP3    H2 7861   3.568   1.095   0.011  0.7431 -1.3937  0.4569
 2633TIP3   OH2 7862   1.565   1.295   5.492 -0.3068  0.3817  0.4835
 2633TIP3    H1 7863   1.521   1.378   5.478  0.0030  0.4492 -0.1317
 2633TIP3    H2 7864   1.496   1.235   5.520 -0.7500  0.5383 -0.2521
 2634TIP3   OH2 7865   5.778   4.258   3.913  0.6320  0.2678  0.2114
 2634TIP3    H1 7866   5.730   4.303   3.844  0.8459 -1.8951 -1.4856
 2634TIP3    H2 7867   5.843   4.321   3.943 -0.5012  1.7982 -0.4448
 2635TIP3   OH2 7868   7.177   4.023   4.951  0.8348  0.1792  0.1074
 2635TIP3    H1 7869   7.188   4.083   5.024  0.8832  0.8719 -0.4541
 2635TIP3    H2 7870   7.257   3.972   4.950  1.3518  0.9693 -0.1673
 2636TIP3   OH2 7871   2.940   1.528   3.480  0.1501 -0.0991  0.2798
 2636TIP3    H1 7872   2.858   1.488   3.450 -0.1008  0.3795  0.3289
 2636TIP3    H2 7873   3.005   1.459   3.467  0.4338  0.6636 -3.2104
 2637TIP3   OH2 7874   2.197   4.932   5.505  0.2751  0.1304  0.3316
 2637TIP3    H1 7875   2.265   4.884   5.552  1.1272  0.1251 -0.8518
 2637TIP3    H2 7876   2.115   4.910   5.550  0.9293 -0.6656  1.1520
 2638TIP3   OH2 7877   2.345   4.301   1.644  0.2396 -0.0863  0.1147
 2638TIP3    H1 7878   2.358   4.386   1.686 -1.3243  0.5927 -0.6862
 2638TIP3    H2 7879   2.310   4.245   1.714  1.2199 -0.0700  0.6295
 2639TIP3   OH2 7880   2.473   5.297   5.809  0.0167  0.2840  0.1639
 2639TIP3    H1 7881   2.547   5.348   5.777  0.3656 -1.3074 -1.7498
 2639TIP3    H2 7882   2.404   5.311   5.744  0.2425 -1.8504 -0.6505
 2640TIP3   OH2 7883   1.738   6.810   4.958  0.1547 -0.0605 -0.0227
 2640TIP3    H1 7884   1.777   6.803   4.871 -0.9450 -0.8956 -0.4639
 2640TIP3    H2 7885   1.779   6.740   5.009  2.3255  1.6781  0.7849
 2641TIP3   OH2 7886   1.638   6.506   5.383 -0.2466 -0.2620 -0.5619
 2641TIP3    H1 7887   1.649   6.538   5.473  0.2335  0.4963 -0.8860
 2641TIP3    H2 7888   1.544   6.491   5.375 -0.4155  0.5473 -0.2222
 2642TIP3   OH2 7889   1.205   0.841   2.811 -0.3981  0.2236  0.1625
 2642TIP3    H1 7890   1.244   0.913   2.859 -1.0198 -0.0600  1.1159
 2642TIP3    H2 7891   1.273   0.773   2.810 -1.1070 -0.5977  2.5599
 2643TIP3   OH2 7892   5.824   0.684   4.538  0.1579 -0.6669 -0.3170
 2643TIP3    H1 7893   5.814   0.702   4.445  1.8708 -1.6678 -0.7549
 2643TIP3    H2 7894   5.902   0.628   4.543  0.3492 -0.3095  1.7527
 2644TIP3   OH2 7895   2.089   5.030   0.459  0.0896 -0.5024 -0.3543
 2644TIP3    H1 7896   2.034   5.018   0.537 -1.3653 -0.3338 -1.3034
 2644TIP3    H2 7897   2.040   4.987   0.389  2.9873 -3.8375 -0.6121
 2645TIP3   OH2 7898   1.804   1.102   2.297  0.0053 -0.0874  0.0529
 2645TIP3    H1 7899   1.866   1.167   2.332 -1.0881  0.5451  0.8786
 2645TIP3    H2 7900   1.857   1.048   2.239  1.3314  0.4565  0.7020
 2646TIP3   OH2 7901   5.153   1.190   2.114  0.1239 -0.0415 -0.4348
 2646TIP3    H1 7902   5.194   1.274   2.131 -0.3922 -0.1767  1.8706
 2646TIP3    H2 7903   5.097   1.205   2.038  1.5793  1.1091 -1.3382
 2647TIP3   OH2 7904   4.641   4.265   5.449 -0.0269  0.0031  0.2204
 2647TIP3    H1 7905   4.557   4.263   5.402 -0.0760  0.2848  0.2932
 2647TIP3    H2 7906   4.702   4.219   5.391  0.0188  0.7439 -0.3256
 2648TIP3   OH2 7907   5.807   4.126   1.798 -0.2561 -0.0654  0.2617
 2648TIP3    H1 7908   5.721   4.144   1.761  0.0737 -0.2895 -0.6473
 2648TIP3    H2 7909   5.824   4.200   1.856  0.0359  1.4002 -1.5709
 2649TIP3   OH2 7910   1.600   1.748   3.889 -0.0908 -0.4197  0.5676
 2649TIP3    H1 7911   1.523   1.756   3.834  0.4403  0.4432 -0.0807
 2649TIP3    H2 7912   1.569   1.771   3.977 -0.5376  0.1320  0.2774
 2650TIP3   OH2 7913   5.151   5.353   5.900 -0.4353 -0.2806 -0.2547
 2650TIP3    H1 7914   5.229   5.377   5.950 -0.8592 -1.4644  1.0453
 2650TIP3    H2 7915   5.176   5.367   5.809  1.1633 -0.2714  0.1543
 2651TIP3   OH2 7916   3.139   1.846   3.677 -0.4296 -0.0532  0.4268
 2651TIP3    H1 7917   3.193   1.768   3.675 -0.9781 -0.5043  1.8393
 2651TIP3    H2 7918   3.050   1.815   3.665 -0.5344  0.5232 -0.4009
 2652TIP3   OH2 7919   2.320   3.309   5.505  0.0040 -0.1561 -0.0223
 2652TIP3    H1 7920   2.315   3.221   5.468 -0.9515 -0.9264  1.8088
 2652TIP3    H2 7921   2.356   3.296   5.593  1.2477  1.4858 -0.2301
 2653TIP3   OH2 7922   1.293   3.022   1.696 -0.0760  0.6579  0.0338
 2653TIP3    H1 7923   1.360   2.996   1.760  0.2466 -0.9991 -0.9331
 2653TIP3    H2 7924   1.343   3.065   1.626 -0.1237  0.1851 -0.2905
 2654TIP3   OH2 7925   4.854   2.448   2.175  0.1106 -0.3930 -0.5521
 2654TIP3    H1 7926   4.945   2.474   2.164  0.1130 -0.8633 -1.7613
 2654TIP3    H2 7927   4.803   2.521   2.141  0.0043  0.1441  0.7099
 2655TIP3   OH2 7928   0.212   1.531   4.637  0.0715  0.8827  0.3505
 2655TIP3    H1 7929   0.270   1.607   4.628  1.0521 -0.0588 -2.4485
 2655TIP3    H2 7930   0.124   1.566   4.625  0.3958  1.7765  0.5241
 2656TIP3   OH2 7931   1.610   3.689   5.874 -0.2583 -0.5503 -0.1415
 2656TIP3    H1 7932   1.534   3.738   5.905  1.4139  1.0238  1.7199
 2656TIP3    H2 7933   1.637   3.735   5.794 -0.5183 -0.3499 -0.1161
 2657TIP3   OH2 7934   7.144   2.824   1.312  0.2552 -0.7832 -0.1522
 2657TIP3    H1 7935   7.069   2.850   1.258  0.6794 -2.1190 -1.4300
 2657TIP3    H2 7936   7.175   2.907   1.350  0.1184  0.2571 -2.1812
 2658TIP3   OH2 7937   3.093   1.126   2.652 -0.6965 -0.4072  0.1032
 2658TIP3    H1 7938   3.133   1.041   2.633  0.4349  0.1199  0.0469
 2658TIP3    H2 7939   3.068   1.160   2.566  2.7799  1.1745 -0.4778
 2659TIP3   OH2 7940   6.809   3.879   4.883  0.0495  0.5697 -0.2193
 2659TIP3    H1 7941   6.717   3.898   4.863  0.1276  0.6228 -0.5384
 2659TIP3    H2 7942   6.831   3.807   4.823 -0.0417 -0.0527  0.4789
 2660TIP3   OH2 7943   5.980   6.015   2.542 -0.3654 -0.4386 -0.1646
 2660TIP3    H1 7944   5.926   6.000   2.464  0.3232 -0.4687 -0.6367
 2660TIP3    H2 7945   6.022   6.099   2.527 -1.3931  0.2866  0.8584
 2661TIP3   OH2 7946   5.207   4.545   0.536  0.3390  0.1005 -0.1810
 2661TIP3    H1 7947   5.159   4.565   0.456  0.2853  1.3260  0.1255
 2661TIP3    H2 7948   5.295   4.524   0.507  0.1536 -0.0821 -0.6086
 2662TIP3   OH2 7949   0.127   0.494   2.647 -0.3621  0.0179  0.9109
 2662TIP3    H1 7950   0.161   0.405   2.656  0.8086  0.4082  0.5535
 2662TIP3    H2 7951   0.144   0.517   2.555 -1.1423  0.4177  0.8600
 2663TIP3   OH2 7952   5.716   1.593   2.140 -0.6512  0.4100  0.0804
 2663TIP3    H1 7953   5.706   1.502   2.112 -1.0225  1.3484 -3.2974
 2663TIP3    H2 7954   5.637   1.612   2.189 -0.3647 -1.1795  1.2318
 2664TIP3   OH2 7955   4.563   0.459   1.482 -0.3559  0.2825 -0.0040
 2664TIP3    H1 7956   4.603   0.532   1.435  0.2078  0.0646  0.1347
 2664TIP3    H2 7957   4.480   0.444   1.435  0.0966  0.2085 -0.8096
 2665TIP3   OH2 7958   3.393   1.614   1.854  0.3740  0.0075 -0.1078
 2665TIP3    H1 7959   3.398   1.697   1.902  0.7823  0.9144 -1.6489
 2665TIP3    H2 7960   3.301   1.588   1.862  0.2848  0.4753  0.5760
 2666TIP3   OH2 7961   3.021   2.458   1.290  0.2105 -0.8525  0.2644
 2666TIP3    H1 7962   3.061   2.514   1.223  0.4195  0.4772  1.4392
 2666TIP3    H2 7963   2.960   2.516   1.336  0.0848 -1.7168  1.2216
 2667TIP3   OH2 7964   3.426   1.726   0.920  0.7467 -0.1259 -0.6565
 2667TIP3    H1 7965   3.377   1.676   0.985  3.6760 -1.5350  0.6519
 2667TIP3    H2 7966   3.454   1.805   0.966  0.8026  0.0504 -0.9844
 2668TIP3   OH2 7967   4.338   2.700   1.893  0.2841  0.1341 -0.6822
 2668TIP3    H1 7968   4.344   2.750   1.974  1.0650 -0.4227 -0.3821
 2668TIP3    H2 7969   4.257   2.730   1.852 -0.5979 -0.2210  0.7396
 2669TIP3   OH2 7970   1.823   0.604   3.136  0.4484  0.1154  0.4324
 2669TIP3    H1 7971   1.882   0.530   3.152  1.0560  0.8956  1.9441
 2669TIP3    H2 7972   1.880   0.680   3.132 -0.0476  0.4562 -2.2015
 2670TIP3   OH2 7973   2.186   2.178   5.767  0.1078  0.1227  0.1098
 2670TIP3    H1 7974   2.269   2.169   5.721 -1.0002  0.8586 -2.2313
 2670TIP3    H2 7975   2.170   2.272   5.771  0.2957  0.1014  2.3961
 2671TIP3   OH2 7976   5.098   3.321   4.333  0.0505  0.0994  0.0486
 2671TIP3    H1 7977   5.006   3.342   4.315  0.4091  0.0860 -2.1634
 2671TIP3    H2 7978   5.095   3.244   4.389 -1.2971 -0.1427 -0.3274
 2672TIP3   OH2 7979   7.212   4.652   4.202  0.7289  0.1091  0.2193
 2672TIP3    H1 7980   7.237   4.711   4.274 -0.1293  0.5228  0.1914
 2672TIP3    H2 7981   7.123   4.679   4.179  1.1202  0.2482 -1.2684
 2673TIP3   OH2 7982   2.412   3.793   2.286 -0.4442 -0.4338  0.5571
 2673TIP3    H1 7983   2.397   3.875   2.333 -0.3714 -1.4375  2.4365
 2673TIP3    H2 7984   2.497   3.762   2.317 -0.5125 -1.2547 -0.0365
 2674TIP3   OH2 7985   6.193   6.158   5.524 -0.1569 -0.0669 -0.1108
 2674TIP3    H1 7986   6.146   6.158   5.608 -2.4129 -0.4452 -1.2864
 2674TIP3    H2 7987   6.240   6.242   5.523 -0.9928  0.4531  1.0672
 2675TIP3   OH2 7988   0.821   2.800   0.916 -0.0137  0.2120 -0.5168
 2675TIP3    H1 7989   0.901   2.831   0.874  0.1935 -0.6283 -0.7462
 2675TIP3    H2 7990   0.839   2.804   1.009  1.1030 -2.0442 -0.5884
 2676TIP3   OH2 7991   3.987   1.322   5.089 -0.2288 -0.5307  0.1165
 2676TIP3    H1 7992   3.959   1.241   5.045 -1.5343 -0.7382  1.2506
 2676TIP3    H2 7993   3.922   1.388   5.061  0.0010 -0.2261  0.2928
 2677TIP3   OH2 7994   0.649   0.746   5.250  0.4046  0.5640 -0.1908
 2677TIP3    H1 7995   0.650   0.686   5.176  0.2089  2.0097 -1.4146
 2677TIP3    H2 7996   0.571   0.800   5.236  0.6162  1.1586  0.8234
 2678TIP3   OH2 7997   3.698   5.663   1.209 -0.4340  0.9151  0.1871
 2678TIP3    H1 7998   3.774   5.609   1.233 -1.1745 -0.1519  0.2072
 2678TIP3    H2 7999   3.736   5.737   1.162  0.6360  0.4472  0.2766
 2679TIP3   OH2 8000   4.190   6.239   3.106 -0.3298 -1.0370 -0.4586
 2679TIP3    H1 8001   4.158   6.307   3.047  0.4741  1.5681  1.8631
 2679TIP3    H2 8002   4.264   6.200   3.060  1.5263  2.2390 -0.5789
 2680TIP3   OH2 8003   7.146   6.521   0.922  0.1607 -0.0131 -0.1766
 2680TIP3    H1 8004   7.154   6.454   0.854  2.2097  0.6767 -0.6852
 2680TIP3    H2 8005   7.222   6.507   0.979 -0.8611  0.1890  1.3115
 2681TIP3   OH2 8006   1.624   4.621   1.540  0.0950 -0.1878 -0.0493
 2681TIP3    H1 8007   1.676   4.671   1.478 -0.7119 -2.0080 -2.3179
 2681TIP3    H2 8008   1.688   4.563   1.583  0.3073 -0.9165 -1.2934
 2682TIP3   OH2 8009   5.703   1.535   2.459  0.2376 -0.2319 -0.0008
 2682TIP3    H1 8010   5.638   1.605   2.452 -0.0693 -0.1127  2.7489
 2682TIP3    H2 8011   5.776   1.565   2.406 -1.3168  0.3464 -1.9513
 2683TIP3   OH2 8012   3.428   1.433   3.340 -0.0051  1.3500  0.1133
 2683TIP3    H1 8013   3.431   1.432   3.436  1.4257  0.4227  0.0944
 2683TIP3    H2 8014   3.499   1.492   3.314 -2.3330  4.1038 -0.4050
 2684TIP3   OH2 8015   1.377   5.778   5.695 -0.2251 -0.1829  0.5858
 2684TIP3    H1 8016   1.369   5.687   5.667 -0.9522  0.6597 -2.3219
 2684TIP3    H2 8017   1.470   5.788   5.716  0.5821 -0.8921 -2.1834
 2685TIP3   OH2 8018   2.673   6.768   5.548 -0.6607  0.5711 -0.0252
 2685TIP3    H1 8019   2.657   6.726   5.632 -0.8801 -0.3481 -0.5180
 2685TIP3    H2 8020   2.768   6.783   5.546 -0.3781 -1.0587 -0.3521
 2686TIP3   OH2 8021   2.232   5.004   0.029  0.1403  0.1528 -0.0930
 2686TIP3    H1 8022   2.199   5.050   0.107  2.5213  1.3774  0.2764
 2686TIP3    H2 8023   2.220   5.067  -0.042 -1.6655 -0.8208 -0.7283
 2687TIP3   OH2 8024   0.910   3.638   3.324  0.4856 -0.7864 -0.4770
 2687TIP3    H1 8025   0.953   3.712   3.280 -0.1451 -0.3155 -0.3134
 2687TIP3    H2 8026   0.817   3.647   3.301  0.1165 -0.4443  1.0617
 2688TIP3   OH2 8027   3.034   2.974   1.392  0.5172 -0.5300 -0.0164
 2688TIP3    H1 8028   3.064   2.901   1.445  0.3179  0.4052  1.4429
 2688TIP3    H2 8029   3.046   2.945   1.302 -0.2705 -2.6429  0.4963
 2689TIP3   OH2 8030   5.853   6.416   5.645  0.3798 -0.7340  0.0793
 2689TIP3    H1 8031   5.881   6.386   5.732  1.1319 -0.0777  0.0739
 2689TIP3    H2 8032   5.839   6.336   5.595 -0.3374 -1.1281  0.8834
 2690TIP3   OH2 8033   2.661   4.923   5.028  0.2148 -0.2642 -0.5133
 2690TIP3    H1 8034   2.610   4.871   4.965  0.3111 -1.8746  0.6769
 2690TIP3    H2 8035   2.598   4.985   5.064 -0.1928 -0.2946 -1.1490
 2691TIP3   OH2 8036   6.878   4.557   2.405 -0.7836 -0.4687  0.2953
 2691TIP3    H1 8037   6.858   4.641   2.364 -0.6133 -0.0157  1.1014
 2691TIP3    H2 8038   6.966   4.536   2.375 -1.0576 -0.6534 -0.3789
 2692TIP3   OH2 8039   5.321   4.705   3.437 -0.2593 -0.0481 -0.1458
 2692TIP3    H1 8040   5.278   4.634   3.485  0.3093 -0.7804 -0.7088
 2692TIP3    H2 8041   5.389   4.736   3.496 -0.8534  0.4013  0.3184
 2693TIP3   OH2 8042   6.041   5.995   0.569 -0.1822  0.4205  0.4071
 2693TIP3    H1 8043   5.976   6.024   0.632  1.0493 -0.6347  2.2500
 2693TIP3    H2 8044   6.115   6.054   0.581  0.0682  0.2095 -0.0548
 2694TIP3   OH2 8045   2.784   2.699   0.987  0.0458 -0.4335 -0.0008
 2694TIP3    H1 8046   2.708   2.653   0.952 -0.8772  0.8891  0.2059
 2694TIP3    H2 8047   2.804   2.766   0.922  1.0453 -0.7711 -0.0522
 2695TIP3   OH2 8048   3.488   4.021   2.418  0.1969 -0.0662 -0.1470
 2695TIP3    H1 8049   3.485   4.001   2.512  0.9240  0.3633 -0.0247
 2695TIP3    H2 8050   3.532   3.946   2.379  0.5664  0.0883 -0.0376
 2696TIP3   OH2 8051   6.083   5.315   3.757 -0.0053 -0.0490 -0.0625
 2696TIP3    H1 8052   6.037   5.366   3.691  1.1205 -0.3352 -1.1005
 2696TIP3    H2 8053   6.104   5.378   3.826 -0.6026  0.3945 -0.2768
 2697TIP3   OH2 8054   2.816   4.804   4.145  1.4202  0.1000 -0.1833
 2697TIP3    H1 8055   2.793   4.846   4.228 -3.1048  0.9770 -1.6319
 2697TIP3    H2 8056   2.835   4.713   4.169 -0.5134  0.1415  1.8042
 2698TIP3   OH2 8057   1.246   3.958   1.242 -0.5974 -0.1436  0.1305
 2698TIP3    H1 8058   1.232   3.955   1.148 -4.0302  2.0108  0.4024
 2698TIP3    H2 8059   1.213   3.874   1.274  1.2864 -1.2076 -0.5444
 2699TIP3   OH2 8060   0.500   6.494   0.146 -0.1641  0.2534 -0.2709
 2699TIP3    H1 8061   0.570   6.540   0.100 -0.2850  0.4880 -0.2248
 2699TIP3    H2 8062   0.452   6.564   0.191 -0.6270  0.1318 -0.5737
 2700TIP3   OH2 8063   4.078   1.709   4.403 -0.5106 -0.2096  0.3547
 2700TIP3    H1 8064   4.062   1.627   4.450  0.8768 -0.1161  1.0478
 2700TIP3    H2 8065   4.162   1.695   4.360 -0.0136  1.0226  0.8837
 2701TIP3   OH2 8066   6.689   0.110   0.895  0.1271 -0.4453 -0.0457
 2701TIP3    H1 8067   6.659   0.109   0.986  2.9928 -2.2382  1.0280
 2701TIP3    H2 8068   6.692   0.203   0.872  0.5320  0.1491  2.1634
 2702TIP3   OH2 8069   4.373   5.177   5.559 -0.2640 -0.3429 -0.1233
 2702TIP3    H1 8070   4.351   5.088   5.531  0.6494 -0.6790  0.2124
 2702TIP3    H2 8071   4.289   5.224   5.556 -0.9987 -1.5293  0.8884
 2703TIP3   OH2 8072   4.992   6.709   1.095  0.3709 -0.6989  0.1352
 2703TIP3    H1 8073   4.933   6.733   1.023  0.1115 -1.3057  0.1389
 2703TIP3    H2 8074   5.037   6.790   1.117 -1.4053  0.0982  1.0056
 2704TIP3   OH2 8075   1.895   1.096   5.466  0.0741  0.2208 -0.0945
 2704TIP3    H1 8076   1.896   1.061   5.377 -0.8781  0.7406 -0.3167
 2704TIP3    H2 8077   1.978   1.068   5.503  0.2218 -0.5202 -0.9475
 2705TIP3   OH2 8078   4.282   6.088   2.312  0.3820 -0.0458 -0.2254
 2705TIP3    H1 8079   4.308   6.020   2.250 -0.8501 -1.0681  0.3344
 2705TIP3    H2 8080   4.233   6.041   2.380 -0.0992  1.3363  0.4231
 2706TIP3   OH2 8081   3.190   2.467   2.286 -0.5181  0.4094  0.2114
 2706TIP3    H1 8082   3.163   2.556   2.266  1.3181  0.8401 -0.6110
 2706TIP3    H2 8083   3.255   2.446   2.219 -0.3880 -1.2933  0.8061
 2707TIP3   OH2 8084   3.618   1.075   0.976 -0.4518 -0.2161 -0.0258
 2707TIP3    H1 8085   3.687   1.045   0.917 -0.1967  0.6236 -0.1752
 2707TIP3    H2 8086   3.547   1.012   0.964  1.6170 -3.4987  3.0247
 2708TIP3   OH2 8087   1.036   2.389   4.218  0.3928 -0.1777  0.9507
 2708TIP3    H1 8088   1.077   2.305   4.239  0.2098 -0.3241  0.7255
 2708TIP3    H2 8089   1.104   2.438   4.172  0.3057 -0.4398  0.5316
 2709TIP3   OH2 8090   3.541   1.174   5.286 -0.2331 -0.3059 -0.6289
 2709TIP3    H1 8091   3.463   1.230   5.288 -0.6987 -0.9523  0.8459
 2709TIP3    H2 8092   3.587   1.200   5.207 -1.5662  0.6220 -1.1412
 2710TIP3   OH2 8093   1.538   5.768   2.694  0.4568 -0.2663 -0.0170
 2710TIP3    H1 8094   1.522   5.853   2.735  1.4251 -0.4948  0.8792
 2710TIP3    H2 8095   1.451   5.733   2.676  0.0106  1.4400 -1.5805
 2711TIP3   OH2 8096   4.246   4.430   3.192 -0.1959  0.4931  0.2647
 2711TIP3    H1 8097   4.215   4.502   3.138  1.4622 -0.3535 -1.9651
 2711TIP3    H2 8098   4.336   4.455   3.215  0.9810 -1.4318 -1.8417
 2712TIP3   OH2 8099   6.190   1.499   1.444 -0.0369 -0.0509  0.4119
 2712TIP3    H1 8100   6.218   1.471   1.530  0.3383  0.1353  0.3502
 2712TIP3    H2 8101   6.149   1.421   1.405  4.4016 -1.8879 -1.2990
 2713TIP3   OH2 8102   0.258   2.490   5.505 -0.2310  0.1829 -0.1983
 2713TIP3    H1 8103   0.215   2.450   5.580 -1.0970 -0.4646 -1.0074
 2713TIP3    H2 8104   0.277   2.417   5.446  1.2430  0.5591 -0.2478
 2714TIP3   OH2 8105   0.047   5.937   3.184 -0.2336 -0.0024  0.2277
 2714TIP3    H1 8106   0.092   6.020   3.199  0.0394  0.3923 -2.2483
 2714TIP3    H2 8107   0.110   5.870   3.213  1.0078  0.6059 -0.9444
 2715TIP3   OH2 8108   1.006   6.042   3.581 -0.2729  0.5697  0.4572
 2715TIP3    H1 8109   0.963   6.029   3.497 -0.6020  2.3759  0.2949
 2715TIP3    H2 8110   0.934   6.049   3.644 -0.1103  0.9205  0.6086
 2716TIP3   OH2 8111   6.012   5.106   1.631  0.0034  0.0160 -0.3051
 2716TIP3    H1 8112   6.019   5.011   1.639 -1.1071 -0.1122 -0.6886
 2716TIP3    H2 8113   6.075   5.130   1.563  0.2224 -0.4520 -0.2686
 2717TIP3   OH2 8114   4.030   6.674   4.583  0.0044 -0.1280  0.0987
 2717TIP3    H1 8115   4.032   6.768   4.563  0.3162 -0.1268  0.1262
 2717TIP3    H2 8116   4.113   6.641   4.548 -0.2397 -0.4471 -0.1813
 2718TIP3   OH2 8117   2.234   3.142   4.407  0.1978 -1.2596  0.1617
 2718TIP3    H1 8118   2.286   3.066   4.434 -2.4484 -3.0786  0.4958
 2718TIP3    H2 8119   2.219   3.191   4.488  0.2029 -1.5009  0.3099
 2719TIP3   OH2 8120   1.798   0.940   3.574 -0.4155  0.1450 -0.4487
 2719TIP3    H1 8121   1.711   0.916   3.604 -0.2111  0.7462  0.6846
 2719TIP3    H2 8122   1.856   0.875   3.613 -0.0667  1.3496  1.1320
 2720TIP3   OH2 8123   2.329   6.524   2.120 -0.1660 -0.5111  0.6228
 2720TIP3    H1 8124   2.255   6.494   2.067  0.5098 -1.2395  0.0850
 2720TIP3    H2 8125   2.290   6.589   2.180 -1.1788 -0.6596  0.1466
 2721TIP3   OH2 8126   2.707   3.663   4.534  0.0035  0.1233 -0.0176
 2721TIP3    H1 8127   2.643   3.620   4.591 -2.3400  1.3626 -1.5692
 2721TIP3    H2 8128   2.776   3.693   4.594 -0.4936 -1.8318  1.6362
 2722TIP3   OH2 8129   2.947   3.012   0.033  0.9015  0.1172  0.0646
 2722TIP3    H1 8130   2.858   3.045   0.034  0.4859 -0.9447 -0.3539
 2722TIP3    H2 8131   2.968   2.994   0.125  0.4137 -0.2953  0.0994
 2723TIP3   OH2 8132   0.436   2.274   3.042  0.4978  0.1603  0.1870
 2723TIP3    H1 8133   0.387   2.192   3.036  0.4500  0.1724  0.3992
 2723TIP3    H2 8134   0.481   2.269   3.126  0.2688  0.4737  0.3319
 2724TIP3   OH2 8135   1.325   0.748   0.901 -0.3207  0.3264  0.1679
 2724TIP3    H1 8136   1.250   0.766   0.844 -0.6637  1.2831  0.8953
 2724TIP3    H2 8137   1.400   0.746   0.841 -0.8028  0.2194 -0.4533
 2725TIP3   OH2 8138   5.451   1.341   1.832  0.6192  0.5248  0.0222
 2725TIP3    H1 8139   5.399   1.289   1.772  1.7634  1.9503 -2.3317
 2725TIP3    H2 8140   5.467   1.423   1.786  2.5788  1.2257  1.7782
 2726TIP3   OH2 8141   5.073   0.518   1.911 -0.1759 -0.1954 -0.0656
 2726TIP3    H1 8142   5.054   0.610   1.928 -0.3864 -0.2429 -0.0350
 2726TIP3    H2 8143   4.989   0.481   1.885  0.3026  0.0783 -2.1506
 2727TIP3   OH2 8144   6.844   4.336   5.418  0.2892 -0.7344  0.0730
 2727TIP3    H1 8145   6.802   4.312   5.336  0.0200  0.7860 -0.2592
 2727TIP3    H2 8146   6.778   4.319   5.485  0.5178 -1.9938  0.0076
 2728TIP3   OH2 8147   5.627   2.691   0.610 -0.3891 -0.2979 -0.4896
 2728TIP3    H1 8148   5.578   2.663   0.533 -0.0906  0.0112 -0.7928
 2728TIP3    H2 8149   5.672   2.771   0.583  2.2152 -1.7911 -1.0342
 2729TIP3   OH2 8150   4.673   4.507   1.618  0.3160  0.4850  0.2820
 2729TIP3    H1 8151   4.740   4.507   1.687  0.2348  1.0187  0.3629
 2729TIP3    H2 8152   4.695   4.431   1.564  0.0976 -0.2175  1.1692
 2730TIP3   OH2 8153   1.127   0.086   3.143  0.2357 -0.2841 -0.3258
 2730TIP3    H1 8154   1.051   0.041   3.180  0.0586 -0.4590 -0.8955
 2730TIP3    H2 8155   1.196   0.019   3.142  0.3838 -0.1433  0.1316
 2731TIP3   OH2 8156   6.519   4.539   0.742  0.0126  0.0284 -0.3829
 2731TIP3    H1 8157   6.556   4.467   0.794 -1.4237 -0.5710 -0.1494
 2731TIP3    H2 8158   6.592   4.570   0.689  0.9203 -0.9183  0.2757
 2732TIP3   OH2 8159   1.461   4.190   5.755 -0.4561  0.5676  0.1735
 2732TIP3    H1 8160   1.430   4.148   5.836  1.1358 -1.9446 -0.3957
 2732TIP3    H2 8161   1.382   4.197   5.701 -1.0840 -0.1643  0.9575
 2733TIP3   OH2 8162   6.960   5.911   4.712 -0.5002  0.1590  0.3225
 2733TIP3    H1 8163   6.997   5.823   4.698 -1.4287 -0.3492  0.9429
 2733TIP3    H2 8164   7.002   5.965   4.645 -0.5891 -0.9540 -0.6677
 2734TIP3   OH2 8165   4.892   5.714   5.538 -0.0937 -0.0577  0.1813
 2734TIP3    H1 8166   4.858   5.629   5.511 -1.5765 -0.4157  2.8762
 2734TIP3    H2 8167   4.901   5.763   5.456 -1.8266 -1.8614 -1.1762
 2735TIP3   OH2 8168   6.274   2.121   2.649 -0.6562  0.3831  0.3366
 2735TIP3    H1 8169   6.288   2.027   2.638  1.0809  0.6331  0.1111
 2735TIP3    H2 8170   6.354   2.153   2.691 -1.1117  1.7989  0.1863
 2736TIP3   OH2 8171   3.318   5.254   2.433  0.2478  0.6445 -0.2781
 2736TIP3    H1 8172   3.332   5.333   2.487  2.9869 -0.7387  1.2897
 2736TIP3    H2 8173   3.401   5.243   2.387 -0.8791 -0.1488 -2.2166
 2737TIP3   OH2 8174   2.583   3.262   3.206 -0.2030  0.3212  0.0530
 2737TIP3    H1 8175   2.616   3.195   3.266  2.5004 -0.1562 -1.7445
 2737TIP3    H2 8176   2.604   3.345   3.249  2.3420  0.0022 -0.3855
 2738TIP3   OH2 8177   0.382   2.477   2.029  0.1783  0.1837 -0.0788
 2738TIP3    H1 8178   0.471   2.502   2.054 -0.5119  0.1412  2.6829
 2738TIP3    H2 8179   0.391   2.389   1.992  1.1330 -0.4401  1.5534
 2739TIP3   OH2 8180   4.247   0.596   3.537 -0.4847  0.2685  0.3812
 2739TIP3    H1 8181   4.170   0.625   3.586 -2.5738 -3.5999 -0.2191
 2739TIP3    H2 8182   4.222   0.601   3.445  1.1234  1.6341 -0.0378
 2740TIP3   OH2 8183   0.469   3.072   1.250 -0.3928 -0.0820 -0.3875
 2740TIP3    H1 8184   0.415   3.037   1.180 -0.3736 -1.9829  0.4684
 2740TIP3    H2 8185   0.480   2.999   1.311  1.4516  0.8231  0.4783
 2741TIP3   OH2 8186   1.804   2.957   5.627 -0.3071 -0.3027  0.1370
 2741TIP3    H1 8187   1.727   3.006   5.598 -0.3592 -0.0614  0.6786
 2741TIP3    H2 8188   1.774   2.866   5.629 -0.6515 -0.1847  0.5700
 2742TIP3   OH2 8189   4.447   1.633   1.100 -0.2482 -0.0811 -0.2940
 2742TIP3    H1 8190   4.375   1.593   1.052  0.0036 -2.0236  0.8532
 2742TIP3    H2 8191   4.485   1.695   1.037 -1.1846 -1.0251 -1.8822
 2743TIP3   OH2 8192   3.876   1.692   4.840  0.6633 -0.1469 -0.4351
 2743TIP3    H1 8193   3.868   1.759   4.773  0.7635  1.0569  0.7151
 2743TIP3    H2 8194   3.884   1.741   4.922 -0.7316 -1.5636  0.6118
 2744TIP3   OH2 8195   5.706   0.660   1.468 -0.4978  0.2426  0.5445
 2744TIP3    H1 8196   5.734   0.748   1.443 -1.5702  0.6581  0.7462
 2744TIP3    H2 8197   5.671   0.622   1.388  2.1128 -0.9183 -0.1321
 2745TIP3   OH2 8198   4.824   0.434   1.611  0.0156  0.0063  0.4095
 2745TIP3    H1 8199   4.738   0.476   1.599 -0.9658 -1.8056  0.6620
 2745TIP3    H2 8200   4.821   0.399   1.700  0.7287 -0.7118  0.1594
 2746TIP3   OH2 8201   5.208   2.205   2.086  0.8082  0.0522 -0.0840
 2746TIP3    H1 8202   5.243   2.217   1.998 -0.4358 -0.4319 -0.6836
 2746TIP3    H2 8203   5.121   2.168   2.071  0.8031 -0.5752  1.3739
 2747TIP3   OH2 8204   1.499   5.095   1.844 -0.1914 -0.3285  0.2592
 2747TIP3    H1 8205   1.405   5.075   1.852 -0.4690  0.5900 -0.6050
 2747TIP3    H2 8206   1.506   5.189   1.860  0.6385 -0.4432  0.6474
 2748TIP3   OH2 8207   5.226   5.872   3.330 -0.3170 -0.2689 -0.3186
 2748TIP3    H1 8208   5.316   5.861   3.361  0.0300  2.1483 -0.3467
 2748TIP3    H2 8209   5.190   5.940   3.386 -1.9449 -0.7254 -0.7592
 2749TIP3   OH2 8210   2.657   6.728   2.586 -0.0442 -0.1200 -0.3415
 2749TIP3    H1 8211   2.571   6.687   2.582 -0.8059  1.2505  1.0953
 2749TIP3    H2 8212   2.644   6.816   2.552 -0.1506  1.4400  3.3235
 2750TIP3   OH2 8213   4.282   5.866   2.634  0.5892  0.1187  0.0186
 2750TIP3    H1 8214   4.354   5.924   2.609  1.0920 -1.2144 -1.8896
 2750TIP3    H2 8215   4.294   5.789   2.578 -1.0150 -1.1041  1.2791
 2751TIP3   OH2 8216   0.965   4.109   5.238 -0.0591 -0.3216  0.3092
 2751TIP3    H1 8217   0.887   4.057   5.259  1.1521 -2.1679  0.4701
 2751TIP3    H2 8218   0.975   4.168   5.312 -1.9765  0.8512 -0.2771
 2752TIP3   OH2 8219   3.127   6.756   4.444 -0.0210  0.2941 -0.1093
 2752TIP3    H1 8220   3.135   6.828   4.382 -0.4114  1.5169  1.1972
 2752TIP3    H2 8221   3.165   6.681   4.399  0.0128  1.2079 -1.6795
 2753TIP3   OH2 8222   3.496   2.314   5.861  0.7277  0.2778 -0.4929
 2753TIP3    H1 8223   3.403   2.337   5.869  0.9235  0.4171  2.0295
 2753TIP3    H2 8224   3.496   2.231   5.813 -0.7240  0.1051 -0.2400
 2754TIP3   OH2 8225   1.906   1.842   4.289  0.0610 -0.3743  0.0363
 2754TIP3    H1 8226   1.841   1.783   4.251  0.0176  0.3627 -1.0911
 2754TIP3    H2 8227   1.921   1.908   4.221  1.1351  0.1226  0.7274
 2755TIP3   OH2 8228   0.838   5.191   4.481 -0.1030 -0.1937 -0.0594
 2755TIP3    H1 8229   0.907   5.138   4.442 -1.9872 -2.8397 -0.0458
 2755TIP3    H2 8230   0.773   5.200   4.412 -1.3419 -0.8926  0.9634
 2756TIP3   OH2 8231   4.305   0.619   0.048 -0.1193  0.5694  0.1119
 2756TIP3    H1 8232   4.214   0.597   0.072 -0.7600  0.7605 -1.9518
 2756TIP3    H2 8233   4.298   0.699  -0.003  1.3578  1.1202  0.7082
 2757TIP3   OH2 8234   3.372   3.431   1.415  0.2831 -0.1685 -0.4506
 2757TIP3    H1 8235   3.436   3.456   1.482 -0.4466 -1.2796  0.7390
 2757TIP3    H2 8236   3.418   3.367   1.361  0.4666 -0.2681 -0.1802
 2758TIP3   OH2 8237   4.300   6.729   0.678 -0.2964  0.5339 -0.1931
 2758TIP3    H1 8238   4.286   6.771   0.763  0.2186  1.2246 -0.4356
 2758TIP3    H2 8239   4.333   6.642   0.699 -0.2730  0.6657  0.3196
 2759TIP3   OH2 8240   0.434   1.257   3.632 -0.3389 -0.2350  0.3659
 2759TIP3    H1 8241   0.464   1.173   3.667  0.0680 -0.1013  0.3416
 2759TIP3    H2 8242   0.495   1.321   3.668  0.1610 -0.1099 -0.6735
 2760TIP3   OH2 8243   3.947   3.905   1.987  0.0066  0.1171  0.3622
 2760TIP3    H1 8244   4.013   3.952   1.936  0.5636  1.5525  2.2767
 2760TIP3    H2 8245   3.991   3.883   2.069 -1.6535  0.4475  1.3971
 2761TIP3   OH2 8246   6.952   5.082   5.774 -0.0242  0.0765  0.7826
 2761TIP3    H1 8247   6.967   5.023   5.848 -0.5521 -2.3540 -0.9365
 2761TIP3    H2 8248   6.926   5.165   5.815 -2.7167 -1.8231  3.3435
 2762TIP3   OH2 8249   1.935   4.562   4.197 -0.0587  0.1493 -0.4813
 2762TIP3    H1 8250   1.912   4.639   4.249 -0.3156 -0.0745 -0.2611
 2762TIP3    H2 8251   2.025   4.578   4.169 -0.1568  0.5908 -0.5469
 2763TIP3   OH2 8252   3.810   2.544   3.793  0.3014  0.2821 -0.0394
 2763TIP3    H1 8253   3.780   2.528   3.703  1.5577  2.7080 -0.9838
 2763TIP3    H2 8254   3.749   2.609   3.828 -0.3315 -0.8329  1.0029
 2764TIP3   OH2 8255   5.509   4.390   2.838  1.1658 -0.1215  0.4012
 2764TIP3    H1 8256   5.559   4.385   2.756  2.2723  0.3389  1.0141
 2764TIP3    H2 8257   5.494   4.299   2.863 -0.1430 -0.2804 -0.8555
 2765TIP3   OH2 8258   0.311   2.260   4.218 -0.5505  0.2163 -0.1722
 2765TIP3    H1 8259   0.401   2.227   4.210  0.2162  2.1502 -0.3613
 2765TIP3    H2 8260   0.284   2.277   4.128 -1.1514 -0.4397 -0.1185
 2766TIP3   OH2 8261   3.535   6.081   5.485  0.0732  0.3842  0.3347
 2766TIP3    H1 8262   3.493   6.007   5.528  0.9351 -0.3603 -0.0711
 2766TIP3    H2 8263   3.462   6.138   5.459 -0.6760 -0.6916 -0.0355
 2767TIP3   OH2 8264   0.430   4.706   3.226  0.1997  0.0741  0.4616
 2767TIP3    H1 8265   0.361   4.686   3.163  0.4047 -1.6073  0.7292
 2767TIP3    H2 8266   0.502   4.647   3.203  1.9349  2.3799 -0.3633
 2768TIP3   OH2 8267  -0.002   1.616   5.621  0.4420 -0.1402 -0.3476
 2768TIP3    H1 8268  -0.021   1.709   5.619  1.1180  0.0466  0.8069
 2768TIP3    H2 8269   0.079   1.607   5.569  1.1407  0.1389  0.6626
 2769TIP3   OH2 8270   4.898   3.480   0.347  0.1515 -0.1178  0.7541
 2769TIP3    H1 8271   4.849   3.561   0.354 -0.2466 -0.3654  0.8848
 2769TIP3    H2 8272   4.973   3.491   0.406  0.2544  0.2603  0.5566
 2770TIP3   OH2 8273   6.547   5.471   4.593  0.2851 -1.0296 -0.0101
 2770TIP3    H1 8274   6.470   5.414   4.594 -2.2134  2.0512 -0.6841
 2770TIP3    H2 8275   6.571   5.478   4.501  1.7459 -2.3241  0.2357
 2771TIP3   OH2 8276   4.141   6.796   5.362 -0.1653  0.2808 -0.1624
 2771TIP3    H1 8277   4.085   6.731   5.405 -1.7749  1.2998 -0.6679
 2771TIP3    H2 8278   4.182   6.747   5.290 -0.1353 -0.5586  0.4073
 2772TIP3   OH2 8279   0.760   5.834   4.367 -0.0857 -0.1991 -0.1119
 2772TIP3    H1 8280   0.830   5.774   4.340  1.0910  0.0035  2.2443
 2772TIP3    H2 8281   0.755   5.824   4.462 -1.3559  1.8546  0.0923
 2773TIP3   OH2 8282   6.270   0.463   5.507  0.0607 -0.1284 -0.6932
 2773TIP3    H1 8283   6.239   0.552   5.524  0.9912 -0.3217  2.7115
 2773TIP3    H2 8284   6.340   0.473   5.443 -1.2500  1.2863 -1.9665
 2774TIP3   OH2 8285   5.628   4.219   5.206 -0.0427  0.2340  0.0288
 2774TIP3    H1 8286   5.613   4.155   5.277  2.4793  0.0517  0.4960
 2774TIP3    H2 8287   5.625   4.304   5.249 -0.2186  0.2329  0.0194
 2775TIP3   OH2 8288   4.083   5.771   1.283 -0.0394 -0.3003  0.6886
 2775TIP3    H1 8289   4.014   5.828   1.317 -1.3722 -0.4551 -1.5483
 2775TIP3    H2 8290   4.151   5.773   1.350 -1.7033  0.7957  2.4521
 2776TIP3   OH2 8291   4.884   3.791   1.585 -0.0916  0.0097  0.1704
 2776TIP3    H1 8292   4.938   3.713   1.599  0.5085  0.2562 -0.6981
 2776TIP3    H2 8293   4.909   3.822   1.498 -1.6205  0.1441 -0.2534
 2777TIP3   OH2 8294   2.878   5.340   0.839 -0.1318  0.0333  0.1305
 2777TIP3    H1 8295   2.933   5.414   0.866 -2.2273  1.3897  0.9872
 2777TIP3    H2 8296   2.790   5.377   0.835 -1.3636 -2.5843  1.2080
 2778TIP3   OH2 8297   1.482   2.006   2.247 -0.2110  0.2148  0.5165
 2778TIP3    H1 8298   1.407   2.065   2.251  0.0042  0.4292  1.9195
 2778TIP3    H2 8299   1.558   2.063   2.254 -0.0050 -0.2085  2.1575
 2779TIP3   OH2 8300   3.008   4.969   1.727 -0.3124  0.3686  0.4268
 2779TIP3    H1 8301   3.068   4.983   1.654 -0.6707  1.3772  0.3091
 2779TIP3    H2 8302   3.027   5.040   1.788 -1.3247  0.6688  0.4166
 2780TIP3   OH2 8303   5.877   5.905   2.803  0.1675  0.3242  0.1044
 2780TIP3    H1 8304   5.869   5.863   2.718  1.0387 -0.9647  0.6349
 2780TIP3    H2 8305   5.958   5.954   2.799  2.2712 -2.7281  1.3405
 2781TIP3   OH2 8306   1.460   3.792   5.436  0.5296  0.4729  0.1395
 2781TIP3    H1 8307   1.367   3.798   5.414  0.7981  0.2871 -1.1303
 2781TIP3    H2 8308   1.479   3.698   5.435  0.3176  0.3692  2.3090
 2782TIP3   OH2 8309   4.002   6.490   5.371  0.2712  0.8080 -0.2995
 2782TIP3    H1 8310   4.080   6.484   5.317 -0.1157 -0.7978 -0.7436
 2782TIP3    H2 8311   4.035   6.508   5.459  1.3248 -1.4373 -0.1611
 2783TIP3   OH2 8312   6.223   2.466   0.674 -0.2454 -1.0556  0.5364
 2783TIP3    H1 8313   6.135   2.503   0.665  0.9833  1.5679 -2.8552
 2783TIP3    H2 8314   6.210   2.371   0.666 -2.6732 -0.6657 -1.2877
 2784TIP3   OH2 8315   5.667   1.327   3.081 -0.4229 -0.6257  0.2192
 2784TIP3    H1 8316   5.579   1.305   3.051 -1.0505 -0.0261  1.5237
 2784TIP3    H2 8317   5.690   1.406   3.032 -0.8365 -0.4696  0.2739
 2785TIP3   OH2 8318   0.462   0.759   0.440 -0.0585 -0.0124  0.3122
 2785TIP3    H1 8319   0.403   0.694   0.402  0.6468 -1.0462  0.9462
 2785TIP3    H2 8320   0.441   0.840   0.393 -0.0578 -0.9651 -1.4131
 2786TIP3   OH2 8321   3.224   3.417   4.203  0.3905  0.0077 -0.2579
 2786TIP3    H1 8322   3.311   3.444   4.234  0.9127 -1.5390 -0.2734
 2786TIP3    H2 8323   3.163   3.463   4.260  1.2459  0.6211  0.1791
 2787TIP3   OH2 8324   4.801   4.492   3.440  0.3295 -0.0650  0.0313
 2787TIP3    H1 8325   4.866   4.545   3.394 -0.8459 -0.7513 -2.6217
 2787TIP3    H2 8326   4.739   4.555   3.475  0.2650  0.4133 -0.9373
 2788TIP3   OH2 8327   2.199   3.604   2.301  0.0505 -0.1115 -0.1633
 2788TIP3    H1 8328   2.269   3.660   2.266  1.6055 -2.2424 -0.6956
 2788TIP3    H2 8329   2.220   3.595   2.394 -0.3279  0.3558 -0.0307
 2789TIP3   OH2 8330   5.921   3.886   5.325  0.0758 -0.2352  0.2021
 2789TIP3    H1 8331   5.933   3.921   5.237  2.7525 -3.0783 -0.7707
 2789TIP3    H2 8332   5.855   3.817   5.315 -1.3319  0.9535  0.9789
 2790TIP3   OH2 8333   1.099   3.700   1.325  0.3402  0.2647 -0.5867
 2790TIP3    H1 8334   1.092   3.758   1.401  0.8823  0.8220 -0.9521
 2790TIP3    H2 8335   1.011   3.700   1.286 -0.3914 -1.2868  0.9166
 2791TIP3   OH2 8336   0.529   6.372   4.240  0.2482  0.2509  0.1675
 2791TIP3    H1 8337   0.487   6.375   4.326  1.5755 -0.4862  0.8762
 2791TIP3    H2 8338   0.584   6.451   4.237 -1.4983  1.4921 -0.9681
 2792TIP3   OH2 8339   2.410   2.410   3.268  0.5275  0.2862  0.2348
 2792TIP3    H1 8340   2.338   2.472   3.255 -0.0095 -0.3635  0.0393
 2792TIP3    H2 8341   2.454   2.407   3.183  0.8639  0.7735  0.3885
 2793TIP3   OH2 8342   0.591   1.445   4.085  0.1484 -0.7663 -0.2213
 2793TIP3    H1 8343   0.609   1.384   4.013 -1.8169 -0.7765 -0.7670
 2793TIP3    H2 8344   0.522   1.401   4.136  1.1233 -0.5084  1.3829
 2794TIP3   OH2 8345   2.010   2.442   2.195 -0.0999  0.2670  0.1967
 2794TIP3    H1 8346   1.939   2.459   2.256 -0.2388  0.5334 -0.0368
 2794TIP3    H2 8347   1.987   2.492   2.117 -0.8172 -1.4428 -0.7481
 2795TIP3   OH2 8348   3.649   0.692   4.985  0.3431  0.2282  0.5407
 2795TIP3    H1 8349   3.675   0.609   5.025 -0.6236 -0.2126  0.2964
 2795TIP3    H2 8350   3.625   0.747   5.059  1.0551  0.3255  0.7097
 2796TIP3   OH2 8351   2.676   4.892   2.194  0.0216 -0.3963  0.0564
 2796TIP3    H1 8352   2.674   4.892   2.290  0.0082 -0.6046  0.0566
 2796TIP3    H2 8353   2.674   4.799   2.170  3.8794 -0.6358 -0.0432
 2797TIP3   OH2 8354   2.962   4.467   5.388  0.6683  0.5549 -0.3760
 2797TIP3    H1 8355   2.878   4.429   5.362  1.0084  0.2392 -1.0247
 2797TIP3    H2 8356   2.940   4.557   5.413  0.0074  0.2369  0.2764
 2798TIP3   OH2 8357   5.577   6.663   2.062  0.4921  0.0438 -0.5001
 2798TIP3    H1 8358   5.504   6.673   2.000  1.1800 -1.4589 -1.6043
 2798TIP3    H2 8359   5.655   6.684   2.010  0.9096  1.2548  0.5670
 2799TIP3   OH2 8360   5.366   0.242   0.094 -0.2775  0.5346  0.1821
 2799TIP3    H1 8361   5.448   0.195   0.110 -0.3190 -0.2617 -1.7040
 2799TIP3    H2 8362   5.387   0.305   0.024 -1.3798 -0.0996 -0.7612
 2800TIP3   OH2 8363   0.928   6.671   4.471 -0.1611 -0.6757  0.1176
 2800TIP3    H1 8364   0.917   6.761   4.503  0.4866 -0.6469  0.2661
 2800TIP3    H2 8365   1.005   6.639   4.517  0.3315 -0.9018 -0.8545
 2801TIP3   OH2 8366   2.036   2.501   3.635  0.4340 -0.4796 -0.3948
 2801TIP3    H1 8367   2.072   2.480   3.721  1.4349 -1.7092 -1.0829
 2801TIP3    H2 8368   2.063   2.591   3.618  1.1441 -0.5945  0.1164
 2802TIP3   OH2 8369   6.733   2.624   3.654  0.5664  0.1709 -0.5186
 2802TIP3    H1 8370   6.754   2.538   3.690  2.0274  0.7522  0.1016
 2802TIP3    H2 8371   6.796   2.635   3.582 -0.3168  0.2899 -1.2888
 2803TIP3   OH2 8372   5.903   6.305   5.140  0.2939  0.3462 -0.0404
 2803TIP3    H1 8373   5.857   6.358   5.205  1.7691  0.7197  0.7503
 2803TIP3    H2 8374   5.953   6.242   5.192 -0.0203 -0.6525 -0.9061
 2804TIP3   OH2 8375   0.846   2.123   0.839  0.0183  0.2303 -0.3463
 2804TIP3    H1 8376   0.797   2.072   0.903 -0.8365  0.8117 -0.5189
 2804TIP3    H2 8377   0.882   2.057   0.779  1.0894 -0.3448  0.8644
 2805TIP3   OH2 8378   0.762   3.085   2.049  0.3228  0.3864 -0.4673
 2805TIP3    H1 8379   0.668   3.073   2.039  0.4074  0.4674 -1.5145
 2805TIP3    H2 8380   0.799   3.057   1.965  1.5077 -2.4775  0.8865
 2806TIP3   OH2 8381   0.473   5.589   2.762 -0.2950  0.5304  0.2420
 2806TIP3    H1 8382   0.527   5.625   2.692  0.1206  1.9824  1.2611
 2806TIP3    H2 8383   0.536   5.558   2.827 -0.6778 -0.7975  0.0086
 2807TIP3   OH2 8384   4.868   4.273   3.228  0.6736 -0.1811 -0.4469
 2807TIP3    H1 8385   4.884   4.367   3.219  0.3211  0.0983  1.3834
 2807TIP3    H2 8386   4.860   4.241   3.138  2.4540  1.2272 -1.1702
 2808TIP3   OH2 8387   2.507   0.435   2.096 -0.0797 -0.0868 -0.1132
 2808TIP3    H1 8388   2.593   0.477   2.085 -0.2552 -0.0279 -1.5104
 2808TIP3    H2 8389   2.447   0.508   2.113 -0.6087  0.5468 -3.8213
 2809TIP3   OH2 8390   6.095   2.011   0.090 -0.0273 -0.3539  0.3958
 2809TIP3    H1 8391   6.106   2.090   0.144  0.3397 -0.4125  0.4140
 2809TIP3    H2 8392   6.055   1.947   0.148  0.7442 -0.5487  0.7338
 2810TIP3   OH2 8393   1.033   0.728   5.695 -0.0292 -0.6230  0.4348
 2810TIP3    H1 8394   1.109   0.672   5.711 -0.0628 -0.5579  0.8553
 2810TIP3    H2 8395   0.987   0.686   5.623 -1.3762 -2.5164  2.2820
 2811TIP3   OH2 8396   3.821   0.901   3.252  0.2153  0.1424  0.1347
 2811TIP3    H1 8397   3.774   0.970   3.205  1.5960  1.1021  0.1180
 2811TIP3    H2 8398   3.759   0.871   3.319 -0.1094  2.0405  0.7435
 2812TIP3   OH2 8399   3.927   5.549   4.994 -0.5399 -0.4759 -0.0970
 2812TIP3    H1 8400   3.861   5.603   5.037 -0.6691 -0.1803 -0.6609
 2812TIP3    H2 8401   3.978   5.610   4.940  1.2724 -0.3974  1.5642
 2813TIP3   OH2 8402   6.466   4.503   1.899 -0.3966  0.0687 -0.0559
 2813TIP3    H1 8403   6.464   4.598   1.887 -1.7101 -0.2228 -3.3929
 2813TIP3    H2 8404   6.374   4.477   1.900 -0.0750 -1.1656  1.5613
 2814TIP3   OH2 8405   2.182   4.603   3.450 -0.1035  0.0088 -0.0593
 2814TIP3    H1 8406   2.270   4.612   3.485 -0.0171 -0.3128 -0.1904
 2814TIP3    H2 8407   2.145   4.528   3.495  0.2132 -0.7711 -1.0637
 2815TIP3   OH2 8408   3.609   0.991   3.872  0.2497  0.2269  0.3114
 2815TIP3    H1 8409   3.613   1.062   3.808  0.5678  0.3090  0.4251
 2815TIP3    H2 8410   3.679   0.931   3.846  0.1879  0.1122  0.4087
 2816TIP3   OH2 8411   3.968   1.922   5.373 -0.2325  0.1189  0.6959
 2816TIP3    H1 8412   3.994   1.830   5.362 -1.6742 -0.1557 -0.9052
 2816TIP3    H2 8413   4.028   1.956   5.439  3.7391 -0.6124 -2.1117
 2817TIP3   OH2 8414   3.358   2.831   3.092  0.3317 -0.2315  0.1913
 2817TIP3    H1 8415   3.274   2.813   3.133  0.7782 -0.0431  1.2203
 2817TIP3    H2 8416   3.365   2.767   3.021 -1.3985  0.7989 -0.9906
 2818TIP3   OH2 8417   3.310   0.650   3.339  0.2104  0.1609  0.4956
 2818TIP3    H1 8418   3.328   0.679   3.249  0.8689  1.0180  0.8900
 2818TIP3    H2 8419   3.259   0.721   3.377 -1.6738 -1.0008  0.2712
 2819TIP3   OH2 8420   0.050   6.205   3.266 -0.3774 -0.9838 -0.5736
 2819TIP3    H1 8421   0.017   6.270   3.329  0.9457 -0.5750 -0.2562
 2819TIP3    H2 8422   0.051   6.252   3.182  1.6514 -0.1521 -0.1472
 2820TIP3   OH2 8423   3.177   2.082   0.370 -0.3095  0.0150 -0.3383
 2820TIP3    H1 8424   3.173   1.987   0.359 -2.3160 -0.0692  0.5488
 2820TIP3    H2 8425   3.153   2.096   0.462  0.9359  1.3533 -0.1896
 2821TIP3   OH2 8426   1.993   5.610   5.283  0.2189  0.0982 -0.9420
 2821TIP3    H1 8427   1.952   5.666   5.217 -1.3836  0.0681 -0.0281
 2821TIP3    H2 8428   2.086   5.634   5.281 -0.2780  2.2033 -1.1323
 2822TIP3   OH2 8429   6.826   5.511   0.745 -0.0358  0.3070  0.4029
 2822TIP3    H1 8430   6.735   5.533   0.722 -1.2451 -1.9192  2.5484
 2822TIP3    H2 8431   6.829   5.521   0.840  1.9619  0.2145  0.3742
 2823TIP3   OH2 8432   2.197   3.296   4.179  0.1965 -0.3090 -0.0921
 2823TIP3    H1 8433   2.131   3.238   4.141 -0.5053  0.3535  0.1005
 2823TIP3    H2 8434   2.227   3.249   4.257 -0.1583 -0.5469 -0.0933
 2824TIP3   OH2 8435   2.062   6.762   4.440  0.1481  0.6693 -0.4256
 2824TIP3    H1 8436   2.071   6.688   4.500 -0.2295  0.2314 -0.9112
 2824TIP3    H2 8437   1.998   6.734   4.375 -0.5449  1.6936 -0.2008
 2825TIP3   OH2 8438   4.039   0.686   4.871  0.3194  0.2618  0.0943
 2825TIP3    H1 8439   3.968   0.647   4.821 -0.2672 -0.1675  1.2239
 2825TIP3    H2 8440   4.118   0.641   4.841 -0.1733 -0.8241  0.3991
 2826TIP3   OH2 8441   4.194   0.097   0.088 -0.1263 -0.0815  0.1021
 2826TIP3    H1 8442   4.153   0.011   0.097  0.7800 -0.3483  2.1490
 2826TIP3    H2 8443   4.267   0.096   0.150  0.6609  1.7426 -0.7078
 2827TIP3   OH2 8444   6.099   4.817   3.058  0.3417  0.5850  0.5124
 2827TIP3    H1 8445   6.044   4.895   3.050  0.1003  0.3427 -0.1860
 2827TIP3    H2 8446   6.051   4.759   3.116  0.8092  1.1993  1.5491
 2828TIP3   OH2 8447   6.250   2.071   2.149  0.0658 -0.1487  0.3401
 2828TIP3    H1 8448   6.234   2.114   2.232 -0.8491  1.5870 -0.6773
 2828TIP3    H2 8449   6.310   1.999   2.170  1.2628  1.3020  2.1962
 2829TIP3   OH2 8450   6.659   0.107   3.388 -0.7790  0.3541 -0.5054
 2829TIP3    H1 8451   6.664   0.172   3.458 -0.0819  0.7348 -0.8928
 2829TIP3    H2 8452   6.679   0.024   3.432  0.0562  0.6426 -0.3052
 2830TIP3   OH2 8453   3.688   4.214   3.661 -0.5981  0.1499 -0.0270
 2830TIP3    H1 8454   3.679   4.173   3.575  0.8251  0.9784 -0.6082
 2830TIP3    H2 8455   3.598   4.221   3.693 -1.1763 -0.0600 -1.4967
 2831TIP3   OH2 8456   3.234   5.002   2.055  0.2148 -0.3044  0.6618
 2831TIP3    H1 8457   3.325   4.976   2.070  0.8344 -0.0987 -2.1165
 2831TIP3    H2 8458   3.182   4.934   2.097  1.6249 -0.3953  2.3683
 2832TIP3   OH2 8459   6.414   0.120   0.787 -0.2634 -0.0121 -0.2047
 2832TIP3    H1 8460   6.481   0.166   0.737  0.2544 -0.2438  0.2616
 2832TIP3    H2 8461   6.461   0.048   0.829 -1.1362 -1.2260 -1.2464
 2833TIP3   OH2 8462   4.701   5.151   3.764 -0.2311 -0.2605  0.4593
 2833TIP3    H1 8463   4.766   5.132   3.831  0.0778 -0.1264  0.1993
 2833TIP3    H2 8464   4.751   5.155   3.682 -0.5220  0.1117  0.2953
 2834TIP3   OH2 8465   5.474   0.607   5.108  0.2739  0.0147  0.0214
 2834TIP3    H1 8466   5.430   0.565   5.181 -2.7475  1.6144 -0.7158
 2834TIP3    H2 8467   5.477   0.700   5.133  0.9138  0.3169 -1.1179
 2835TIP3   OH2 8468   0.740   1.581   4.584  0.6678  0.2517  0.3583
 2835TIP3    H1 8469   0.768   1.626   4.504 -0.3999  0.3069  0.0007
 2835TIP3    H2 8470   0.729   1.652   4.648  0.8077  0.2916  0.3381
 2836TIP3   OH2 8471   1.059   1.925   5.486  0.3862 -0.2973  0.4667
 2836TIP3    H1 8472   0.973   1.935   5.446 -0.2437 -1.0824  1.5724
 2836TIP3    H2 8473   1.117   1.977   5.431 -1.0372  1.4529  0.5248
 2837TIP3   OH2 8474   2.199   5.861   4.972  0.8327 -0.2241  0.1156
 2837TIP3    H1 8475   2.270   5.798   4.960  1.2486  0.4153 -0.8736
 2837TIP3    H2 8476   2.171   5.883   4.883 -0.5078 -0.3480  0.4855
 2838TIP3   OH2 8477   3.462   1.996   1.060 -0.0001  0.3514  0.1369
 2838TIP3    H1 8478   3.528   2.060   1.087 -1.9932  2.2978  0.7150
 2838TIP3    H2 8479   3.404   1.989   1.136 -2.7679  1.9147 -1.6752
 2839TIP3   OH2 8480   1.353   2.473   3.193  0.2905  0.0784 -0.1181
 2839TIP3    H1 8481   1.338   2.381   3.171  0.8947 -0.7249  2.4788
 2839TIP3    H2 8482   1.448   2.482   3.194  0.3256 -0.0613  2.3203
 2840TIP3   OH2 8483   3.198   6.475   5.241 -0.1686 -0.4676 -0.6086
 2840TIP3    H1 8484   3.181   6.498   5.150 -0.5387 -0.1939 -0.4758
 2840TIP3    H2 8485   3.111   6.462   5.279 -0.1119  1.0664  0.1159
 2841TIP3   OH2 8486   6.678   4.294   5.196  0.4536 -0.1178 -0.3483
 2841TIP3    H1 8487   6.600   4.258   5.237  1.7124 -0.6284  1.7401
 2841TIP3    H2 8488   6.645   4.349   5.124 -1.8042 -0.0460  0.6840
 2842TIP3   OH2 8489   2.214   0.142   1.502  0.2150 -0.2647  0.7408
 2842TIP3    H1 8490   2.277   0.165   1.570  1.2313  1.5201 -0.6819
 2842TIP3    H2 8491   2.266   0.099   1.435 -0.5807 -1.1053  0.6544
 2843TIP3   OH2 8492   2.163   1.287   4.800  0.1518 -0.1149 -0.1404
 2843TIP3    H1 8493   2.081   1.315   4.760  0.0464  0.5243  0.5001
 2843TIP3    H2 8494   2.193   1.214   4.745  0.1289  0.8651 -1.4852
 2844TIP3   OH2 8495   4.597   4.709   1.423 -0.1168 -0.0899  0.0586
 2844TIP3    H1 8496   4.631   4.643   1.483 -2.0811 -1.0884  0.1475
 2844TIP3    H2 8497   4.525   4.750   1.471 -1.3605 -0.5173 -1.3618
 2845TIP3   OH2 8498   5.029   0.800   1.956 -0.3425  0.6093  0.2831
 2845TIP3    H1 8499   5.118   0.829   1.936  0.4519 -1.9330 -0.3120
 2845TIP3    H2 8500   5.009   0.841   2.040  1.9847  0.1323  1.1596
 2846TIP3   OH2 8501   5.140   3.289   1.340 -0.0281  0.4354  0.1505
 2846TIP3    H1 8502   5.224   3.242   1.337  1.3471  2.7426  0.2093
 2846TIP3    H2 8503   5.116   3.299   1.248 -0.7213 -0.9348  0.1484
 2847TIP3   OH2 8504   1.269   2.621   4.485  0.7179  0.0552  0.5298
 2847TIP3    H1 8505   1.309   2.555   4.428  1.8258  1.4240 -0.3365
 2847TIP3    H2 8506   1.220   2.678   4.425 -1.9589 -1.0812  1.4695
 2848TIP3   OH2 8507   1.680   5.869   4.453  0.6177 -0.0246 -0.1218
 2848TIP3    H1 8508   1.619   5.856   4.526  1.3969 -0.1603  0.5163
 2848TIP3    H2 8509   1.642   5.941   4.403  0.1498  0.1708  0.4986
 2849TIP3   OH2 8510   1.845   2.266   2.565  0.1919  0.2006 -0.3742
 2849TIP3    H1 8511   1.859   2.249   2.658 -0.2286  0.9021 -0.1742
 2849TIP3    H2 8512   1.816   2.182   2.530 -0.6637  0.1723  0.3438
 2850TIP3   OH2 8513   5.959   1.296   1.624  0.3649 -0.1272 -0.6233
 2850TIP3    H1 8514   5.898   1.370   1.619 -0.2221 -0.5083  0.5536
 2850TIP3    H2 8515   5.985   1.280   1.534 -1.2479  0.0783 -1.1495
 2851TIP3   OH2 8516   2.612   1.783   2.211 -0.4222 -0.3243 -0.6605
 2851TIP3    H1 8517   2.698   1.819   2.236 -0.6664  0.3717 -0.8144
 2851TIP3    H2 8518   2.633   1.719   2.143 -0.1065  0.6799 -1.5514
 2852TIP3   OH2 8519   0.248   6.637   4.150 -0.3706 -0.1255  0.9884
 2852TIP3    H1 8520   0.277   6.700   4.085  0.3617 -1.5269 -0.0795
 2852TIP3    H2 8521   0.275   6.675   4.234 -0.5546  1.2817  0.4418
 2853TIP3   OH2 8522   0.279   1.895   0.329 -0.0928 -0.5146  0.3244
 2853TIP3    H1 8523   0.230   1.815   0.311  1.3292 -1.1024 -1.1950
 2853TIP3    H2 8524   0.212   1.961   0.348 -1.4552 -1.3226 -1.4245
 2854TIP3   OH2 8525   5.628   3.419   4.318  0.2155 -0.0529 -0.3877
 2854TIP3    H1 8526   5.654   3.492   4.262 -2.2966  1.0830 -0.2123
 2854TIP3    H2 8527   5.541   3.394   4.287 -0.3469 -0.7938  1.6135
 2855TIP3   OH2 8528   4.094   5.337   1.821 -0.5602  0.2428 -0.6962
 2855TIP3    H1 8529   4.183   5.355   1.791 -0.3346  2.7745  1.1422
 2855TIP3    H2 8530   4.068   5.259   1.772  1.8708  0.6184 -2.8587
 2856TIP3   OH2 8531   1.029   6.132   0.804 -0.7648  0.0076 -0.1522
 2856TIP3    H1 8532   1.024   6.190   0.729 -0.8787  0.8641  0.4997
 2856TIP3    H2 8533   1.118   6.096   0.800 -1.0871 -0.6980 -1.2214
 2857TIP3   OH2 8534   4.274   2.008   4.779  0.0749 -0.1768 -0.0391
 2857TIP3    H1 8535   4.221   1.936   4.748  1.7849 -0.9969 -1.1778
 2857TIP3    H2 8536   4.227   2.087   4.752 -0.7818 -0.8661 -0.5762
 2858TIP3   OH2 8537   1.571   5.934   0.217 -0.4410 -0.1366 -0.2164
 2858TIP3    H1 8538   1.631   5.912   0.288  0.2489 -0.5271 -0.8990
 2858TIP3    H2 8539   1.516   6.003   0.252  1.5184  1.4534 -0.1146
 2859TIP3   OH2 8540   3.871   4.216   5.765 -0.2796 -0.0655 -0.3855
 2859TIP3    H1 8541   3.863   4.123   5.742  1.8422 -0.3457 -0.1666
 2859TIP3    H2 8542   3.939   4.249   5.707 -0.4358  1.1611  0.1112
 2860TIP3   OH2 8543   6.719   1.004   5.115  0.7273  0.0114  0.2909
 2860TIP3    H1 8544   6.635   0.987   5.074  0.0310  0.8486  1.3092
 2860TIP3    H2 8545   6.754   0.917   5.136 -1.1406 -0.3523  2.2790
 2861TIP3   OH2 8546   2.101   1.342   3.701  0.0639 -0.1687  0.1549
 2861TIP3    H1 8547   2.039   1.270   3.706 -0.9152  0.7363  2.0857
 2861TIP3    H2 8548   2.168   1.321   3.766  0.5500 -0.0003 -0.2784
 2862TIP3   OH2 8549   1.051   2.143   5.714  0.6017  0.1724 -0.0728
 2862TIP3    H1 8550   1.052   2.064   5.660 -0.1379  0.2477 -0.2080
 2862TIP3    H2 8551   0.989   2.201   5.670 -0.5847 -0.0479  1.2331
 2863TIP3   OH2 8552   3.802   6.525   0.550  0.4749 -0.4044  0.7891
 2863TIP3    H1 8553   3.867   6.585   0.588 -0.3636  0.6767  0.5773
 2863TIP3    H2 8554   3.721   6.546   0.597 -0.3345  0.1876 -0.8070
 2864TIP3   OH2 8555   6.143   6.519   0.642  0.0347  0.0221  0.3299
 2864TIP3    H1 8556   6.192   6.598   0.664  0.1247 -0.0228  0.2912
 2864TIP3    H2 8557   6.210   6.450   0.635  0.0641  0.1350 -0.6037
 2865TIP3   OH2 8558   1.946   6.712   5.149  0.3420  0.3334 -0.3700
 2865TIP3    H1 8559   2.037   6.726   5.122  0.5488 -1.2200 -0.5838
 2865TIP3    H2 8560   1.937   6.617   5.151 -1.0730  0.4705  0.3820
 2866TIP3   OH2 8561   6.562   6.354   3.531  0.6473  0.1284 -0.3239
 2866TIP3    H1 8562   6.534   6.416   3.464 -2.0474 -0.5262  0.0765
 2866TIP3    H2 8563   6.541   6.397   3.614 -1.8879 -1.4340 -0.0450
 2867TIP3   OH2 8564   5.555   3.383   3.892 -0.2822  0.3810 -0.0536
 2867TIP3    H1 8565   5.470   3.371   3.851 -0.3198  0.6997 -0.0752
 2867TIP3    H2 8566   5.543   3.459   3.949 -0.4216 -0.4566  1.0612
 2868TIP3   OH2 8567   7.149   5.360   0.652 -0.3407  0.0412  0.3019
 2868TIP3    H1 8568   7.174   5.295   0.718  0.4436  0.0625  0.0389
 2868TIP3    H2 8569   7.092   5.313   0.592 -0.2742 -0.2402  0.4583
 2869TIP3   OH2 8570   2.734   0.280   5.782 -0.0601  0.4968  0.9523
 2869TIP3    H1 8571   2.770   0.227   5.711 -2.8160  1.0499 -1.0023
 2869TIP3    H2 8572   2.777   0.246   5.861  1.3670 -1.7625 -0.6733
 2870TIP3   OH2 8573   5.274   4.090   1.109  0.3512 -0.2240  0.4835
 2870TIP3    H1 8574   5.336   4.041   1.163  0.6078 -1.4230 -0.8446
 2870TIP3    H2 8575   5.305   4.077   1.020 -1.2835 -0.0709 -0.1280
 2871TIP3   OH2 8576   3.679   3.403   4.753  0.0259  0.2936 -0.0729
 2871TIP3    H1 8577   3.597   3.387   4.800  1.0853  0.6254  2.0089
 2871TIP3    H2 8578   3.734   3.447   4.816  2.2058 -0.8812 -1.0505
 2872TIP3   OH2 8579   4.257   0.452   1.461 -0.3903  0.1829 -0.1301
 2872TIP3    H1 8580   4.163   0.469   1.464 -0.8665 -1.7994 -1.4393
 2872TIP3    H2 8581   4.288   0.467   1.550 -2.1370 -0.0738  0.5432
 2873TIP3   OH2 8582   3.578   6.330   5.224  0.3630 -0.3814 -0.4030
 2873TIP3    H1 8583   3.505   6.272   5.243  1.2928 -0.7687  2.4814
 2873TIP3    H2 8584   3.608   6.360   5.310  3.0217  0.4526 -1.5183
 2874TIP3   OH2 8585   6.026   4.846   3.572 -0.6101 -0.2227 -0.0215
 2874TIP3    H1 8586   6.085   4.790   3.522  0.1255 -0.7987  1.4340
 2874TIP3    H2 8587   6.070   4.931   3.575 -0.5002 -0.2780 -0.0631
 2875TIP3   OH2 8588   1.412   3.660   2.349  0.8366  0.8458  0.5487
 2875TIP3    H1 8589   1.372   3.624   2.428 -2.3198 -2.4843 -2.1912
 2875TIP3    H2 8590   1.338   3.687   2.295  2.8721  3.2939 -1.2139
 2876TIP3   OH2 8591   2.427   1.776   5.227 -0.0104  0.5321 -0.5714
 2876TIP3    H1 8592   2.502   1.717   5.219 -0.2959 -0.2286  1.5879
 2876TIP3    H2 8593   2.365   1.746   5.160  0.8662  0.0163 -1.1679
 2877TIP3   OH2 8594   2.482   5.264   0.708 -0.5016  0.3929 -0.0578
 2877TIP3    H1 8595   2.424   5.234   0.637  0.8070 -0.8730 -0.6421
 2877TIP3    H2 8596   2.567   5.274   0.666  0.2705 -0.2662  1.3093
 2878TIP3   OH2 8597   2.628   1.950   0.259  0.3610 -0.2707  0.4088
 2878TIP3    H1 8598   2.643   1.985   0.171  0.5654  0.4367  0.7213
 2878TIP3    H2 8599   2.704   1.979   0.309  0.3874 -0.9180  0.7487
 2879TIP3   OH2 8600   2.745   4.658   1.089  0.0146  0.4311  0.7571
 2879TIP3    H1 8601   2.834   4.690   1.074 -0.7071  1.7713 -1.0541
 2879TIP3    H2 8602   2.691   4.737   1.096 -1.2513 -0.3484  0.2205
 2880TIP3   OH2 8603   4.576   6.346   1.511  0.6887 -0.5137 -0.0139
 2880TIP3    H1 8604   4.655   6.307   1.471  1.3420  0.7118  0.0399
 2880TIP3    H2 8605   4.519   6.364   1.436  1.6155  1.1127 -0.3760
 2881TIP3   OH2 8606   6.873   1.350   0.429 -0.0011 -0.0080 -0.4815
 2881TIP3    H1 8607   6.930   1.394   0.493  0.7657  0.0250 -1.1623
 2881TIP3    H2 8608   6.859   1.263   0.466 -0.9153  0.5432  0.5133
 2882TIP3   OH2 8609   1.722   5.778   0.657 -0.3403 -0.3431  0.2521
 2882TIP3    H1 8610   1.746   5.820   0.574  0.0211 -0.5055  0.2747
 2882TIP3    H2 8611   1.783   5.815   0.721 -0.3433 -0.5327  0.3659
 2883TIP3   OH2 8612   4.833   4.885   1.388 -0.0101  0.4252 -0.0983
 2883TIP3    H1 8613   4.805   4.971   1.422  1.0298  0.7330 -0.0033
 2883TIP3    H2 8614   4.756   4.829   1.399 -0.3019  1.0214  1.0159
 2884TIP3   OH2 8615   1.982   1.640   2.974 -0.2205  0.5172  0.3286
 2884TIP3    H1 8616   1.997   1.732   2.996 -1.3995  0.8895 -0.3071
 2884TIP3    H2 8617   1.922   1.608   3.041  0.7561 -0.0156  0.9711
 2885TIP3   OH2 8618   6.780   0.142   5.105 -0.2683 -0.3468 -0.8523
 2885TIP3    H1 8619   6.775   0.046   5.101  0.1415 -0.4779  0.9209
 2885TIP3    H2 8620   6.779   0.162   5.198  0.6549  1.3393 -1.1682
 2886TIP3   OH2 8621   3.972   5.343   0.492  0.1673 -0.2792  0.4981
 2886TIP3    H1 8622   4.006   5.277   0.431  1.7362  0.5359  0.4388
 2886TIP3    H2 8623   3.914   5.295   0.550  0.5186 -1.5249 -0.1577
 2887TIP3   OH2 8624   4.396   0.224   4.363 -0.8892 -0.6187 -0.3202
 2887TIP3    H1 8625   4.461   0.227   4.293 -0.3011 -0.5974  0.2052
 2887TIP3    H2 8626   4.421   0.148   4.415 -1.0269 -0.3628  0.1281
 2888TIP3   OH2 8627   2.559   2.913   1.849 -0.4796  0.4044  0.2704
 2888TIP3    H1 8628   2.503   2.969   1.903 -0.8717  0.0916  0.1908
 2888TIP3    H2 8629   2.648   2.935   1.875 -0.6756 -0.8566  2.1690
 2889TIP3   OH2 8630   4.656   5.863   5.110 -0.3290  0.1124 -0.2137
 2889TIP3    H1 8631   4.581   5.806   5.125 -0.3401  0.3316  0.5899
 2889TIP3    H2 8632   4.656   5.878   5.015 -1.1507 -0.0783 -0.2483
 2890TIP3   OH2 8633   6.231   5.703   4.904  0.0111  0.0465  0.4627
 2890TIP3    H1 8634   6.265   5.614   4.902 -0.9047 -0.3112 -1.5488
 2890TIP3    H2 8635   6.269   5.745   4.826 -0.8306  0.9142  0.4943
 2891TIP3   OH2 8636   3.625   0.800   2.958 -0.0029  0.0792 -0.0552
 2891TIP3    H1 8637   3.580   0.850   3.025 -2.1672 -1.8993  0.1029
 2891TIP3    H2 8638   3.621   0.709   2.989  0.9902 -0.6037 -1.7762
 2892TIP3   OH2 8639   7.131   3.148   5.482  0.0517 -0.2823  0.2343
 2892TIP3    H1 8640   7.050   3.157   5.432 -0.6616  2.1614  1.6387
 2892TIP3    H2 8641   7.200   3.145   5.416 -0.9683  1.2623 -0.9627
 2893TIP3   OH2 8642   4.670   1.729   2.968 -0.0659 -0.0418 -0.1018
 2893TIP3    H1 8643   4.639   1.662   3.030 -1.0189 -0.2314 -0.7612
 2893TIP3    H2 8644   4.762   1.744   2.992  0.5601 -2.4833 -0.7139
 2894TIP3   OH2 8645   5.140   3.059   3.126 -0.0616 -0.1157  0.1310
 2894TIP3    H1 8646   5.134   2.965   3.112  0.7434 -0.2825  0.8129
 2894TIP3    H2 8647   5.087   3.076   3.203 -0.7708  0.1009 -0.3993
 2895TIP3   OH2 8648   0.608   6.607   5.866  0.0430 -0.2546 -0.1107
 2895TIP3    H1 8649   0.552   6.663   5.812  1.3184 -0.4334 -1.7033
 2895TIP3    H2 8650   0.629   6.661   5.942 -2.1986 -0.1664  0.5392
 2896TIP3   OH2 8651   2.216   0.624   4.325 -0.3693  0.0970 -0.2552
 2896TIP3    H1 8652   2.283   0.664   4.270 -0.9578 -0.4400 -1.3761
 2896TIP3    H2 8653   2.134   0.662   4.294 -0.6338  0.6164  0.9895
 2897TIP3   OH2 8654   2.011   0.053   3.802 -0.0093 -0.1891 -0.0470
 2897TIP3    H1 8655   1.928   0.091   3.832  0.5388  1.3825 -0.4189
 2897TIP3    H2 8656   2.076   0.085   3.864  0.4281 -0.8939 -0.1318
 2898TIP3   OH2 8657   2.180   4.765   3.186  0.7289  0.2846 -0.4125
 2898TIP3    H1 8658   2.203   4.708   3.259 -0.5711 -1.1258 -1.0407
 2898TIP3    H2 8659   2.153   4.847   3.227 -0.9693 -0.8103  0.7928
 2899TIP3   OH2 8660   3.235   3.498   2.755  0.3239 -0.1325 -0.3555
 2899TIP3    H1 8661   3.203   3.454   2.834  0.5986  1.4946  0.7026
 2899TIP3    H2 8662   3.325   3.468   2.745  1.4393  2.0965  1.9172
 2900TIP3   OH2 8663   3.054   4.958   4.055 -0.0808 -0.1440 -0.4172
 2900TIP3    H1 8664   3.010   4.880   4.088 -2.1406  1.0229 -0.2159
 2900TIP3    H2 8665   3.146   4.944   4.073 -0.4552 -2.3378 -0.0204
 2901TIP3   OH2 8666   2.023   0.784   3.688 -0.1397 -0.4109 -0.0202
 2901TIP3    H1 8667   2.016   0.693   3.718 -1.1242 -0.4438 -0.2943
 2901TIP3    H2 8668   2.092   0.783   3.623  0.4475 -0.7910  0.5931
 2902TIP3   OH2 8669   1.274   4.989   4.618 -0.5553  0.8962  0.2280
 2902TIP3    H1 8670   1.320   4.936   4.683  0.0049  1.8948  0.6727
 2902TIP3    H2 8671   1.186   5.002   4.655 -0.4279  0.9671  0.5071
 2903TIP3   OH2 8672   1.770   5.320   3.617 -0.0481  0.5524  0.6450
 2903TIP3    H1 8673   1.796   5.354   3.531  0.8213  1.0724  1.1018
 2903TIP3    H2 8674   1.676   5.300   3.607 -0.5779  2.9018  0.2712
 2904TIP3   OH2 8675   3.197   5.989   4.210  0.1301 -0.3256  0.5133
 2904TIP3    H1 8676   3.150   6.055   4.260 -0.6234 -0.2455 -0.2735
 2904TIP3    H2 8677   3.129   5.941   4.163  0.6722 -1.5841  0.9578
 2905TIP3   OH2 8678   3.071   3.542   5.081  0.6098 -0.1797 -0.3404
 2905TIP3    H1 8679   2.977   3.551   5.067  0.6284  1.0517  0.1307
 2905TIP3    H2 8680   3.087   3.448   5.081 -0.7947 -0.4550  0.5799
 2906TIP3   OH2 8681   6.762   1.633   5.548 -0.1102 -0.2413  0.7480
 2906TIP3    H1 8682   6.771   1.552   5.499 -1.2158  0.3621 -0.4997
 2906TIP3    H2 8683   6.805   1.699   5.493 -1.1767  0.4106  0.6766
 2907TIP3   OH2 8684   4.908   5.888   0.891  0.0054 -0.2015 -0.4185
 2907TIP3    H1 8685   4.981   5.836   0.926 -1.1355 -0.4484  1.7594
 2907TIP3    H2 8686   4.841   5.884   0.959 -2.4212 -0.6672 -2.6726
 2908TIP3   OH2 8687   4.417   3.170   5.071 -0.2020  1.0790  0.2457
 2908TIP3    H1 8688   4.456   3.166   4.984  0.8040  0.0774  0.7235
 2908TIP3    H2 8689   4.491   3.183   5.130 -0.7256  0.3707  1.0765
 2909TIP3   OH2 8690   5.667   5.392   1.949 -0.3482 -0.0738  0.2765
 2909TIP3    H1 8691   5.710   5.477   1.949  1.5777 -0.9923 -0.2210
 2909TIP3    H2 8692   5.577   5.410   1.977  0.3120  1.9434  1.2437
 2910TIP3   OH2 8693   6.892   2.151   2.543 -0.2780  0.7423  0.2870
 2910TIP3    H1 8694   6.888   2.058   2.566  0.5838  0.6448  0.0814
 2910TIP3    H2 8695   6.832   2.194   2.604 -2.3124 -0.1841 -0.9312
 2911TIP3   OH2 8696   3.445   0.284   4.706 -0.4638 -0.5083  0.1225
 2911TIP3    H1 8697   3.485   0.365   4.675 -1.9468  0.2294  0.0575
 2911TIP3    H2 8698   3.449   0.290   4.802  2.6105 -2.0292  0.2104
 2912TIP3   OH2 8699   1.581   2.566   2.275 -0.0630 -0.3993  0.1517
 2912TIP3    H1 8700   1.613   2.555   2.365 -0.9208  1.1610  0.6802
 2912TIP3    H2 8701   1.636   2.634   2.238  1.4955 -2.2576 -1.1823
 2913TIP3   OH2 8702   3.583   3.907   1.527 -0.3837  0.2982 -0.4218
 2913TIP3    H1 8703   3.589   3.926   1.433  0.3229  0.1134 -0.4162
 2913TIP3    H2 8704   3.673   3.913   1.559 -0.6813  0.8345  0.3416
 2914TIP3   OH2 8705   6.393   1.738   3.318 -0.2548 -0.1939 -0.8984
 2914TIP3    H1 8706   6.348   1.746   3.234 -1.2845  1.6723 -0.2275
 2914TIP3    H2 8707   6.448   1.817   3.323 -0.8093  0.1354  0.4980
 2915TIP3   OH2 8708   1.500   4.863   3.591  0.2815 -0.1127  0.0177
 2915TIP3    H1 8709   1.419   4.811   3.590 -0.0869  0.4435 -1.0613
 2915TIP3    H2 8710   1.519   4.876   3.684 -0.6118 -0.6427  0.2945
 2916TIP3   OH2 8711   3.314   5.298   2.932  0.1925  0.4359 -0.0414
 2916TIP3    H1 8712   3.240   5.263   2.882  0.5390  1.1779 -1.1096
 2916TIP3    H2 8713   3.293   5.390   2.944  1.0986  0.7451 -0.6859
 2917TIP3   OH2 8714   5.655   3.219   4.530 -0.2239  0.0532 -0.2877
 2917TIP3    H1 8715   5.643   3.264   4.614  1.1739 -0.2548  0.1053
 2917TIP3    H2 8716   5.665   3.290   4.466 -1.9035  0.2967 -0.3296
 2918TIP3   OH2 8717   4.287   6.765   1.381  0.0478  0.1486 -0.0359
 2918TIP3    H1 8718   4.290   6.736   1.289  2.9537 -0.2290  0.0833
 2918TIP3    H2 8719   4.274   6.684   1.430 -1.4941  0.3494 -0.0685
 2919TIP3   OH2 8720   4.317   2.943   4.652 -0.0012  0.3266  0.2780
 2919TIP3    H1 8721   4.316   2.849   4.666  1.2519 -0.0028 -1.4451
 2919TIP3    H2 8722   4.297   2.981   4.737  1.7837 -1.4650  1.5957
 2920TIP3   OH2 8723   1.064   2.921   0.135  0.3932  0.3972  0.3668
 2920TIP3    H1 8724   1.139   2.863   0.145 -1.9902 -2.8013  1.0471
 2920TIP3    H2 8725   1.049   2.925   0.040  0.3113 -0.5490  0.3306
 2921TIP3   OH2 8726   2.382   2.372   4.270  0.6604  0.0609  0.3960
 2921TIP3    H1 8727   2.315   2.375   4.202  0.1040 -1.0659  0.8631
 2921TIP3    H2 8728   2.465   2.373   4.223  0.2913  0.0514 -0.2632
 2922TIP3   OH2 8729   2.694   2.869   2.798 -0.2004 -0.2566  0.1216
 2922TIP3    H1 8730   2.662   2.854   2.709 -1.3052  0.7426  0.3252
 2922TIP3    H2 8731   2.625   2.920   2.840  1.8295  2.4599  0.4319
 2923TIP3   OH2 8732   1.129   6.805   5.391 -0.0485  0.0211  0.3727
 2923TIP3    H1 8733   1.163   6.718   5.411  1.0368  0.2790 -0.2813
 2923TIP3    H2 8734   1.162   6.860   5.463 -0.6464 -0.0762  0.7294
 2924TIP3   OH2 8735   3.552   1.958   2.302  0.0559 -0.1665 -0.5016
 2924TIP3    H1 8736   3.644   1.937   2.321  0.1842  0.2225 -0.6959
 2924TIP3    H2 8737   3.503   1.914   2.371  0.3607 -0.6949 -0.6131
 2925TIP3   OH2 8738   5.500   1.071   3.810 -0.1643  0.1506  0.1571
 2925TIP3    H1 8739   5.513   1.063   3.905  0.3927 -0.8324  0.0112
 2925TIP3    H2 8740   5.422   1.018   3.792  0.3497 -0.5456 -0.0685
 2926TIP3   OH2 8741   0.195   3.166   1.849  0.3163  0.2692  0.4028
 2926TIP3    H1 8742   0.169   3.236   1.789 -0.1847  1.3490  1.8125
 2926TIP3    H2 8743   0.244   3.104   1.795 -2.0717  0.0018 -1.6061
 2927TIP3   OH2 8744   0.256   0.578   5.228  0.5569 -0.4225 -0.6945
 2927TIP3    H1 8745   0.174   0.529   5.238  0.5795 -0.3044  0.0941
 2927TIP3    H2 8746   0.312   0.545   5.298  0.7002  0.4744 -0.3869
 2928TIP3   OH2 8747   0.888   3.573   0.694  0.1190  0.1612 -0.2025
 2928TIP3    H1 8748   0.946   3.584   0.769  1.0078  0.4667 -0.9155
 2928TIP3    H2 8749   0.811   3.528   0.729  0.5749  0.1892  0.8576
 2929TIP3   OH2 8750   2.036   0.494   2.006 -0.7392  0.2429  0.6657
 2929TIP3    H1 8751   2.074   0.501   1.919 -0.4610  0.6676  0.8185
 2929TIP3    H2 8752   1.942   0.481   1.991 -0.5420 -0.8220  0.2847
 2930TIP3   OH2 8753   2.113   6.778   4.859 -0.7327 -0.4957 -0.0056
 2930TIP3    H1 8754   2.185   6.831   4.825 -3.5292  3.1841 -0.7490
 2930TIP3    H2 8755   2.135   6.764   4.951  1.6347 -0.9819 -0.5696
 2931TIP3   OH2 8756   6.507   6.760   4.422  0.1943  0.1573  0.0696
 2931TIP3    H1 8757   6.411   6.753   4.425  0.1317  1.1165  1.8243
 2931TIP3    H2 8758   6.534   6.750   4.513  1.5739  2.0002 -0.0810
 2932TIP3   OH2 8759   2.959   0.001   2.812  0.3371  0.1709 -0.2508
 2932TIP3    H1 8760   2.918  -0.000   2.898 -2.5832 -0.6678 -1.5205
 2932TIP3    H2 8761   3.053   0.010   2.830 -0.3663  4.0273  2.8632
 2933TIP3   OH2 8762   6.939   0.634   2.495 -0.3739 -0.0980 -0.4433
 2933TIP3    H1 8763   7.022   0.681   2.499  0.1570 -1.0813  1.2899
 2933TIP3    H2 8764   6.876   0.697   2.460  0.8890  0.9733 -0.8316
 2934TIP3   OH2 8765   5.231   2.105   2.431  0.3913 -0.0661  0.4419
 2934TIP3    H1 8766   5.325   2.114   2.441  0.1050  1.2000  2.5161
 2934TIP3    H2 8767   5.202   2.188   2.394  0.0705 -0.3873 -0.0400
 2935TIP3   OH2 8768   5.488   2.934   3.588  0.6805  0.6519  0.1135
 2935TIP3    H1 8769   5.447   2.868   3.532 -0.4913  0.3778  1.2318
 2935TIP3    H2 8770   5.427   3.008   3.585  0.1369  0.3095  1.6700
 2936TIP3   OH2 8771   1.291   4.223   3.764  0.1458 -0.4346  1.3963
 2936TIP3    H1 8772   1.225   4.271   3.814  1.4762  1.4604  1.4322
 2936TIP3    H2 8773   1.374   4.248   3.804  1.1427 -0.0517 -0.7592
 2937TIP3   OH2 8774   5.062   0.521   1.531 -0.1135 -0.0283  0.1190
 2937TIP3    H1 8775   5.065   0.484   1.443 -0.1166  0.2483  0.0025
 2937TIP3    H2 8776   4.970   0.514   1.557 -0.6291  2.1537 -0.8772
 2938TIP3   OH2 8777   4.720   5.902   1.116  0.0198  0.2024  0.2718
 2938TIP3    H1 8778   4.637   5.888   1.162 -0.8273 -1.7003 -1.6942
 2938TIP3    H2 8779   4.763   5.816   1.118  1.1093  0.7183 -0.3254
 2939TIP3   OH2 8780   2.674   4.958   0.642 -0.0440 -0.0283 -0.0699
 2939TIP3    H1 8781   2.736   5.030   0.639 -0.5164  0.3543 -1.8652
 2939TIP3    H2 8782   2.601   4.991   0.694  0.8859 -0.2142  1.4090
 2940TIP3   OH2 8783   5.639   5.541   3.316 -0.0225 -0.2935 -0.2135
 2940TIP3    H1 8784   5.647   5.573   3.405  1.7612  1.4406 -0.9238
 2940TIP3    H2 8785   5.683   5.456   3.317  0.0060 -0.2734  0.5390
 2941TIP3   OH2 8786   0.500   4.872   5.621  0.1077 -0.0794 -0.0176
 2941TIP3    H1 8787   0.522   4.905   5.534 -0.1340 -1.2041 -0.5348
 2941TIP3    H2 8788   0.569   4.904   5.678  1.3919 -0.9829 -1.0175
 2942TIP3   OH2 8789   0.784   2.837   4.867  0.3366 -0.0584  0.6188
 2942TIP3    H1 8790   0.731   2.761   4.892 -1.9063  1.0637 -0.4058
 2942TIP3    H2 8791   0.874   2.812   4.888 -0.5110 -2.3152  1.8819
 2943TIP3   OH2 8792   3.001   1.471   5.829 -0.3290 -0.9851 -0.1247
 2943TIP3    H1 8793   3.055   1.415   5.773  0.0133 -0.3285 -0.4549
 2943TIP3    H2 8794   2.928   1.414   5.855  0.3042 -1.7590  0.0061
 2944TIP3   OH2 8795   5.192   6.059   2.154 -0.1242  0.1071 -0.2257
 2944TIP3    H1 8796   5.239   6.001   2.094 -0.1271 -0.7973  0.6242
 2944TIP3    H2 8797   5.212   6.147   2.122  1.0846 -0.3007 -0.6664
 2945TIP3   OH2 8798   3.604   0.481   3.748 -0.5246 -0.3344  0.1980
 2945TIP3    H1 8799   3.546   0.448   3.817 -1.8840 -0.5186 -0.9888
 2945TIP3    H2 8800   3.557   0.463   3.666 -0.1877  2.2524 -0.6674
 2946TIP3   OH2 8801   2.388   0.883   3.447 -0.0825  0.4227 -0.3668
 2946TIP3    H1 8802   2.436   0.832   3.513 -0.9567  0.9759  0.7387
 2946TIP3    H2 8803   2.393   0.973   3.479  0.8869  0.9692 -1.9471
 2947TIP3   OH2 8804   2.827   3.275   2.780 -0.2595 -0.0633 -0.3203
 2947TIP3    H1 8805   2.774   3.276   2.700  0.1097 -3.8841 -0.7776
 2947TIP3    H2 8806   2.770   3.234   2.846  0.9448 -1.1718  0.0675
 2948TIP3   OH2 8807   4.936   2.084   1.756  0.1549 -0.2227 -0.0206
 2948TIP3    H1 8808   4.967   2.062   1.843  1.4418  0.9988 -0.1358
 2948TIP3    H2 8809   4.954   2.178   1.746 -0.7324 -0.1485 -1.2921
 2949TIP3   OH2 8810   5.874   5.934   1.726 -0.0627 -0.2249  0.3064
 2949TIP3    H1 8811   5.966   5.915   1.710  0.1609 -0.1791  1.4420
 2949TIP3    H2 8812   5.854   6.008   1.668  0.3240 -0.9006 -0.7055
 2950TIP3   OH2 8813   1.530   0.222   3.045  0.2825  0.0585 -0.2332
 2950TIP3    H1 8814   1.570   0.308   3.038  0.8627 -0.1658  0.2298
 2950TIP3    H2 8815   1.439   0.239   3.070  0.7140  0.5044  1.1128
 2951TIP3   OH2 8816   3.542   3.958   3.970 -0.0214  0.2748  0.2001
 2951TIP3    H1 8817   3.555   3.898   3.896 -0.2443  0.5766 -0.0870
 2951TIP3    H2 8818   3.600   4.032   3.950  0.1080  0.2420  0.4558
 2952TIP3   OH2 8819   3.114   0.178   4.728  0.2868 -0.4158  0.1142
 2952TIP3    H1 8820   3.166   0.226   4.793  0.6376 -0.5806 -0.0391
 2952TIP3    H2 8821   3.138   0.219   4.645 -0.5660  0.1528  0.1387
 2953TIP3   OH2 8822   1.057   0.588   1.795 -0.5875  0.2253 -0.7220
 2953TIP3    H1 8823   1.082   0.503   1.832  1.1170  0.5673 -1.0009
 2953TIP3    H2 8824   1.066   0.650   1.868 -0.5046  0.3789 -0.8623
 2954TIP3   OH2 8825   6.280   0.648   5.786 -0.2431 -0.1228 -0.1075
 2954TIP3    H1 8826   6.325   0.729   5.810 -0.5827  0.8427 -2.3932
 2954TIP3    H2 8827   6.192   0.676   5.760 -0.5571 -1.2920 -0.3857
 2955TIP3   OH2 8828   1.436   0.070   1.693  0.4738  0.5691 -0.0569
 2955TIP3    H1 8829   1.479   0.096   1.612 -1.4145  0.3719 -1.1675
 2955TIP3    H2 8830   1.451  -0.025   1.698 -0.4412  0.3742 -0.8346
 2956TIP3   OH2 8831   6.607   0.418   5.462  0.1930 -0.1789 -0.0672
 2956TIP3    H1 8832   6.597   0.347   5.525 -1.4759  0.7970  0.8334
 2956TIP3    H2 8833   6.583   0.497   5.510  0.4028  0.8024 -1.4908
 2957TIP3   OH2 8834   5.982   0.852   5.461  0.4391  0.0307  0.0881
 2957TIP3    H1 8835   5.905   0.902   5.488  0.1762  0.0856 -0.7263
 2957TIP3    H2 8836   6.048   0.919   5.442  0.2646  0.0520 -0.4668
 2958TIP3   OH2 8837   0.207   2.729   0.458 -0.2476 -0.0934 -0.5969
 2958TIP3    H1 8838   0.149   2.753   0.530 -0.7017 -0.6949 -0.7499
 2958TIP3    H2 8839   0.191   2.635   0.444  0.5663 -0.2165 -0.8180
 2959TIP3   OH2 8840   5.769   3.246   2.984  0.0620  0.7457  0.4376
 2959TIP3    H1 8841   5.820   3.165   2.988 -0.0064  0.6516 -0.4461
 2959TIP3    H2 8842   5.678   3.218   2.990  0.0677  0.8097  0.7992
 2960TIP3   OH2 8843   6.706   5.497   1.989 -0.0924  0.4018 -0.0710
 2960TIP3    H1 8844   6.698   5.538   1.902  0.0374  0.5366 -0.0208
 2960TIP3    H2 8845   6.797   5.470   1.993 -0.5120 -1.2121 -0.6830
 2961TIP3   OH2 8846   1.710   0.182   4.231  0.0469  0.5120  0.2694
 2961TIP3    H1 8847   1.732   0.126   4.306  0.0016 -0.9318 -0.7706
 2961TIP3    H2 8848   1.623   0.216   4.252  0.2189  0.4845  1.0761
 2962TIP3   OH2 8849   6.205   0.094   4.344 -0.2089 -0.9520  0.3402
 2962TIP3    H1 8850   6.144   0.147   4.291  0.5015 -1.1491 -0.6984
 2962TIP3    H2 8851   6.150   0.024   4.379 -1.2115  0.5143  1.8855
 2963TIP3   OH2 8852   1.062   2.331   1.655 -0.3585  0.2371 -0.2757
 2963TIP3    H1 8853   1.031   2.395   1.590  1.3513 -1.6865 -3.2023
 2963TIP3    H2 8854   1.141   2.370   1.691  0.9438 -0.3122 -2.3911
 2964TIP3   OH2 8855   6.147   5.738   1.667  0.6073 -0.2590 -0.6863
 2964TIP3    H1 8856   6.212   5.737   1.736  1.5714 -2.1288 -1.5411
 2964TIP3    H2 8857   6.197   5.753   1.586 -0.2344 -0.0624 -1.1890
 2965TIP3   OH2 8858   3.868   6.291   5.212 -0.5913 -1.2609  0.0666
 2965TIP3    H1 8859   3.784   6.327   5.238 -0.7699 -1.3160 -0.4250
 2965TIP3    H2 8860   3.932   6.357   5.238 -0.8146 -1.0740  0.1419
 2966TIP3   OH2 8861   4.346   4.430   5.503  0.3943 -0.6538 -0.3470
 2966TIP3    H1 8862   4.309   4.390   5.424 -2.7136 -1.6664  1.4320
 2966TIP3    H2 8863   4.371   4.355   5.558  2.7583  0.0316 -0.3755
 2967TIP3   OH2 8864   0.231   3.100   2.805  0.5151 -0.0114  0.0035
 2967TIP3    H1 8865   0.303   3.158   2.827 -0.5511  1.5678 -0.4637
 2967TIP3    H2 8866   0.152   3.151   2.825 -0.4897 -0.4576 -2.4251
 2968TIP3   OH2 8867   2.794   1.252   0.506 -0.0097  0.1516 -0.4303
 2968TIP3    H1 8868   2.709   1.295   0.500 -0.3136 -0.5719 -1.6788
 2968TIP3    H2 8869   2.775   1.158   0.499  1.0152  0.0590 -2.7916
 2969TIP3   OH2 8870   2.400   2.774   0.165 -0.4558  0.3536  0.8234
 2969TIP3    H1 8871   2.306   2.791   0.171 -0.9995 -2.1520  0.2301
 2969TIP3    H2 8872   2.411   2.685   0.199  1.7843  0.7470  1.2843
 2970TIP3   OH2 8873   2.892   0.113   5.604  0.3064  0.2746 -0.0311
 2970TIP3    H1 8874   2.980   0.116   5.568  0.9355  1.2594  1.4700
 2970TIP3    H2 8875   2.883   0.024   5.640  0.9656  0.3835  0.4200
 2971TIP3   OH2 8876   6.190   1.533   3.033 -0.2429 -0.1633  0.4862
 2971TIP3    H1 8877   6.124   1.465   3.020  0.2129 -1.1612  2.8583
 2971TIP3    H2 8878   6.267   1.486   3.066  0.9717  1.2220 -0.2517
 2972TIP3   OH2 8879   0.448   0.767   1.166  0.5005  0.4180  0.3193
 2972TIP3    H1 8880   0.503   0.756   1.088  1.0081  2.4458  0.3339
 2972TIP3    H2 8881   0.460   0.858   1.191  0.0918 -0.0899  2.6063
 2973TIP3   OH2 8882   1.373   4.421   1.169 -0.3332 -0.5905  0.3126
 2973TIP3    H1 8883   1.380   4.435   1.264 -0.1030 -3.5842  0.8420
 2973TIP3    H2 8884   1.283   4.449   1.148  0.4802  2.7805  0.7576
 2974TIP3   OH2 8885   1.157   3.206   2.970 -0.0881  0.3025 -1.1827
 2974TIP3    H1 8886   1.191   3.122   3.000 -1.6114 -0.4425 -1.4356
 2974TIP3    H2 8887   1.214   3.232   2.899  1.5964  0.4745  0.1676
 2975TIP3   OH2 8888   2.009   1.337   4.403  0.4526 -0.3772  1.1979
 2975TIP3    H1 8889   2.093   1.294   4.384  0.6003  0.5934 -0.5811
 2975TIP3    H2 8890   2.034   1.426   4.429 -0.0313  0.6118 -1.4362
 2976TIP3   OH2 8891   2.774   2.039   2.023 -0.0839  0.3197  0.3618
 2976TIP3    H1 8892   2.857   2.057   1.980  0.1671 -0.1668  0.6406
 2976TIP3    H2 8893   2.798   2.001   2.107 -0.5771  1.0004  0.8174
 2977TIP3   OH2 8894   2.919   3.185   3.605 -0.1142  0.5309 -0.2114
 2977TIP3    H1 8895   2.873   3.128   3.667  1.8326  0.8152  1.6231
 2977TIP3    H2 8896   2.969   3.125   3.550  0.2382  0.3526  0.2915
 2978TIP3   OH2 8897   3.467   5.901   3.874 -0.1513  0.4581 -0.4873
 2978TIP3    H1 8898   3.431   5.812   3.871 -1.8390  0.9744  1.6555
 2978TIP3    H2 8899   3.415   5.949   3.810  0.2002  0.1036 -1.0510
 2979TIP3   OH2 8900   5.504   6.663   1.612  0.5168  0.4897 -0.0754
 2979TIP3    H1 8901   5.481   6.732   1.551  0.2369  0.7824  0.3568
 2979TIP3    H2 8902   5.600   6.657   1.607  0.4220 -0.3807 -1.5002
 2980TIP3   OH2 8903   3.622   4.465   3.102  0.4811 -0.1139 -0.3294
 2980TIP3    H1 8904   3.609   4.542   3.046  0.5895  0.0213 -0.1671
 2980TIP3    H2 8905   3.639   4.501   3.189 -1.7708 -0.3295  0.2575
 2981TIP3   OH2 8906   5.483   4.603   0.206  0.7418  0.3905  0.4616
 2981TIP3    H1 8907   5.499   4.635   0.117  0.7693  2.0173  1.0154
 2981TIP3    H2 8908   5.522   4.515   0.207 -0.9669 -0.5029 -1.6874
 2982TIP3   OH2 8909   5.564   4.537   2.136  0.1997 -0.8409 -0.6234
 2982TIP3    H1 8910   5.647   4.528   2.182 -0.1484 -0.3137  0.1256
 2982TIP3    H2 8911   5.498   4.536   2.205 -0.2793  0.9380 -1.0152
 2983TIP3   OH2 8912   0.211   5.694   5.008  0.3664  0.4430  0.3080
 2983TIP3    H1 8913   0.127   5.650   4.995 -0.4780  1.8077  0.9136
 2983TIP3    H2 8914   0.211   5.765   4.945  0.2714  1.5143  1.4713
 2984TIP3   OH2 8915   3.452   5.891   2.175  0.3795 -0.0316 -0.0873
 2984TIP3    H1 8916   3.530   5.927   2.133  0.8745  0.2686  1.0635
 2984TIP3    H2 8917   3.486   5.831   2.242 -0.4049 -0.7968 -0.3553
 2985TIP3   OH2 8918   4.330   3.502   0.488 -0.4365 -0.1742  0.1732
 2985TIP3    H1 8919   4.292   3.589   0.501  0.7519  0.8971 -2.6086
 2985TIP3    H2 8920   4.420   3.510   0.520  1.0864  1.1410 -3.7823
 2986TIP3   OH2 8921   5.380   3.475   1.441 -0.2524 -0.2950  0.1972
 2986TIP3    H1 8922   5.402   3.383   1.425  0.6284  0.1774 -1.5147
 2986TIP3    H2 8923   5.291   3.485   1.406  0.9794  0.2868 -3.1599
 2987TIP3   OH2 8924   7.004   0.265   4.268 -0.1063 -0.2843  0.1741
 2987TIP3    H1 8925   7.093   0.230   4.277 -0.3602 -0.9848  0.0757
 2987TIP3    H2 8926   6.978   0.287   4.357 -0.4267 -1.6316  0.4483
 2988TIP3   OH2 8927   1.006   4.752   0.428 -0.0397 -0.0282 -0.1921
 2988TIP3    H1 8928   1.080   4.717   0.478  0.1823 -2.4702 -2.0532
 2988TIP3    H2 8929   1.040   4.831   0.386  1.2333 -0.6036 -0.2969
 2989TIP3   OH2 8930   6.051   2.368   3.775  0.0553  0.4398 -0.3829
 2989TIP3    H1 8931   5.983   2.405   3.719 -0.0334 -0.5773 -0.9811
 2989TIP3    H2 8932   6.025   2.276   3.786  0.0209  0.6323  1.4128
 2990TIP3   OH2 8933   3.574   5.018   3.219  0.6473 -0.5811  0.1642
 2990TIP3    H1 8934   3.641   4.952   3.204 -0.1095 -0.8337 -2.7009
 2990TIP3    H2 8935   3.618   5.101   3.204  0.3803 -0.7489 -1.7868
 2991TIP3   OH2 8936   3.329   3.852   1.621  0.0548 -0.3960  0.0403
 2991TIP3    H1 8937   3.285   3.817   1.544  1.0173 -0.9000 -0.2951
 2991TIP3    H2 8938   3.414   3.882   1.589  0.4849 -0.6468  0.9062
 2992TIP3   OH2 8939   2.873   0.584   2.710 -0.0359  0.2653  0.0939
 2992TIP3    H1 8940   2.882   0.492   2.687  3.0758  0.0095  1.7427
 2992TIP3    H2 8941   2.920   0.630   2.640 -1.3718  0.6069 -0.5960
 2993TIP3   OH2 8942   1.491   6.738   5.259 -0.0039  0.1370 -0.3952
 2993TIP3    H1 8943   1.516   6.829   5.240  0.4009  0.0571 -0.2588
 2993TIP3    H2 8944   1.530   6.721   5.345  0.4088 -0.3500 -0.6728
 2994TIP3   OH2 8945   2.273   4.627   5.868  0.1447  0.0002 -0.4776
 2994TIP3    H1 8946   2.184   4.596   5.884  0.2031  0.0648 -0.0247
 2994TIP3    H2 8947   2.326   4.547   5.865  0.2479  0.0266  0.3916
 2995TIP3   OH2 8948   4.344   2.911   0.160  0.2574  0.5045  0.0808
 2995TIP3    H1 8949   4.250   2.921   0.174  0.6014  2.5967  1.4684
 2995TIP3    H2 8950   4.353   2.893   0.067 -1.5336 -0.6198  0.0664
 2996TIP3   OH2 8951   5.743   0.943   5.570 -0.5972 -0.2843  0.0452
 2996TIP3    H1 8952   5.779   1.020   5.614  1.1661 -1.4370  0.7175
 2996TIP3    H2 8953   5.704   0.892   5.640  0.4655 -1.1740  0.0146
 2997TIP3   OH2 8954   1.295   5.243   3.217  0.3073 -0.1399  0.3924
 2997TIP3    H1 8955   1.221   5.255   3.157 -0.1575 -0.8197  0.8102
 2997TIP3    H2 8956   1.262   5.274   3.302  0.5478 -0.3235  0.5524
 2998TIP3   OH2 8957   6.380   5.864   0.366  0.3414 -0.0009  0.3551
 2998TIP3    H1 8958   6.325   5.920   0.311  0.6280  1.1886  1.2707
 2998TIP3    H2 8959   6.413   5.797   0.305  0.5979  1.2404 -0.9208
 2999TIP3   OH2 8960   4.095   2.754   2.701 -0.9142 -0.0799 -0.4341
 2999TIP3    H1 8961   4.138   2.696   2.764  0.3969  1.1054 -0.2022
 2999TIP3    H2 8962   4.033   2.805   2.753 -1.0798 -0.3046 -0.4084
 3000TIP3   OH2 8963   1.765   0.674   1.530  0.0928 -0.2219  0.6904
 3000TIP3    H1 8964   1.801   0.726   1.603 -2.4886  2.3269  0.3170
 3000TIP3    H2 8965   1.796   0.719   1.451 -2.3812  1.0259  0.3560
 3001TIP3   OH2 8966   3.258   2.504   3.887  0.7223  0.5930  0.3333
 3001TIP3    H1 8967   3.237   2.419   3.927 -1.9195  0.3604 -1.2865
 3001TIP3    H2 8968   3.198   2.565   3.929  1.9508  1.5071  0.8019
 3002TIP3   OH2 8969   3.137   4.988   1.489  0.0508 -0.2322  0.2371
 3002TIP3    H1 8970   3.225   5.006   1.457  0.1500  3.8632  2.1663
 3002TIP3    H2 8971   3.080   5.012   1.415  0.4817 -0.1816 -0.0829
 3003TIP3   OH2 8972   4.654   6.447   3.700  0.1484 -0.4224 -0.2519
 3003TIP3    H1 8973   4.652   6.513   3.630 -1.6461  1.0038  1.0245
 3003TIP3    H2 8974   4.746   6.424   3.709  0.6963  1.0816 -1.5278
 3004TIP3   OH2 8975   7.128   6.352   1.254 -0.4930  0.5457 -0.3353
 3004TIP3    H1 8976   7.176   6.429   1.224  1.9554 -0.8144 -0.1269
 3004TIP3    H2 8977   7.125   6.294   1.178 -1.1921  0.2938 -0.1270
 3005TIP3   OH2 8978   2.862   4.759   3.336  0.1504 -0.3608  0.2710
 3005TIP3    H1 8979   2.782   4.801   3.369  0.2725 -0.8766  1.2538
 3005TIP3    H2 8980   2.901   4.824   3.279 -1.2692 -0.2991 -0.6953
 3006TIP3   OH2 8981   5.677   2.097   4.759  0.2614 -0.4023  0.2656
 3006TIP3    H1 8982   5.754   2.068   4.711  0.9446  0.9174  0.5070
 3006TIP3    H2 8983   5.639   2.167   4.706  0.0890 -0.0334  0.8575
 3007TIP3   OH2 8984   6.623   3.306   3.465  0.1782 -0.1453 -0.8015
 3007TIP3    H1 8985   6.666   3.275   3.545 -0.7013 -0.0685 -0.2879
 3007TIP3    H2 8986   6.578   3.386   3.492 -0.1063 -0.1045 -1.3858
 3008TIP3   OH2 8987   2.742   0.649   2.025  0.2713  0.0436  0.1482
 3008TIP3    H1 8988   2.755   0.637   2.119  1.3125  0.9973  0.1348
 3008TIP3    H2 8989   2.680   0.722   2.019  1.9184  1.4979  0.0947
 3009TIP3   OH2 8990   0.825   2.219   1.400  0.6843  0.1255 -0.2344
 3009TIP3    H1 8991   0.809   2.302   1.445  3.6361  0.4835  0.3101
 3009TIP3    H2 8992   0.790   2.153   1.460 -0.9711  0.8674 -0.3133
 3010TIP3   OH2 8993   6.625   2.954   1.258  0.3195 -0.4109 -0.0972
 3010TIP3    H1 8994   6.603   2.894   1.329 -1.7156 -1.5519 -1.6290
 3010TIP3    H2 8995   6.721   2.958   1.260  0.3406 -0.4782  2.6093
 3011TIP3   OH2 8996   5.806   0.515   4.794 -0.4032  0.2757 -0.3164
 3011TIP3    H1 8997   5.837   0.578   4.728  0.1617 -0.4292 -0.7412
 3011TIP3    H2 8998   5.885   0.484   4.837 -0.5334 -1.1263 -1.0238
 3012TIP3   OH2 8999   5.803   0.277   5.304 -0.6396  0.2850  0.3146
 3012TIP3    H1 9000   5.722   0.319   5.278 -1.2091 -1.1626 -0.3211
 3012TIP3    H2 9001   5.855   0.348   5.344 -2.1697  1.2322  0.6894
 3013TIP3   OH2 9002   1.834   3.579   3.624  0.3724  0.1137  0.2119
 3013TIP3    H1 9003   1.740   3.588   3.606 -0.1045 -1.4852  1.7563
 3013TIP3    H2 9004   1.869   3.666   3.606 -0.9272  0.1419 -2.8937
 3014TIP3   OH2 9005   1.371   4.462   2.414 -0.1455  0.3382  0.3304
 3014TIP3    H1 9006   1.346   4.553   2.427 -2.6094  0.2503 -2.5671
 3014TIP3    H2 9007   1.296   4.411   2.444 -0.6083 -0.4099 -1.8753
 3015TIP3   OH2 9008   2.456   5.458   4.326 -0.2045 -0.7011  0.3322
 3015TIP3    H1 9009   2.467   5.553   4.321 -1.0077 -0.4981  1.7929
 3015TIP3    H2 9010   2.375   5.440   4.277 -0.6928 -0.4579  1.0245
 3016TIP3   OH2 9011   1.069   1.661   2.455 -0.0878  0.1147 -0.4776
 3016TIP3    H1 9012   1.030   1.601   2.391 -2.9110 -1.3615  2.3269
 3016TIP3    H2 9013   1.069   1.612   2.537  0.5088  2.8971  1.3187
 3017TIP3   OH2 9014   3.628   2.537   0.072 -0.3263  0.1408 -0.1509
 3017TIP3    H1 9015   3.577   2.541  -0.009  1.4081  0.9489 -1.2590
 3017TIP3    H2 9016   3.588   2.466   0.122  0.2055 -2.2889 -2.9032
 3018TIP3   OH2 9017   2.776   2.597   5.362  0.3401  0.1541  0.1570
 3018TIP3    H1 9018   2.793   2.676   5.412  1.3115 -0.8927  1.5778
 3018TIP3    H2 9019   2.798   2.526   5.422 -0.8179 -1.2109 -0.9506
 3019TIP3   OH2 9020   4.110   0.798   5.538  0.5226 -1.1500 -0.4289
 3019TIP3    H1 9021   4.107   0.704   5.521  1.1526 -1.0434 -1.1531
 3019TIP3    H2 9022   4.111   0.839   5.451 -0.0961 -0.4574 -0.1244
 3020TIP3   OH2 9023   2.782   3.020   3.779 -0.0074  0.4524 -0.0525
 3020TIP3    H1 9024   2.689   2.996   3.772 -0.3072  1.4912  0.1513
 3020TIP3    H2 9025   2.791   3.055   3.868  0.4842  0.7269 -0.2055
 3021TIP3   OH2 9026   3.891   0.112   1.408  0.2727 -0.0456 -0.8642
 3021TIP3    H1 9027   3.857   0.082   1.492  0.8816 -1.5840 -1.1282
 3021TIP3    H2 9028   3.861   0.203   1.401  0.2105  0.1197  0.9971
 3022TIP3   OH2 9029   1.750   2.203   1.076  0.3977  0.4909  0.2183
 3022TIP3    H1 9030   1.799   2.185   1.156 -0.7797 -0.8495  0.6774
 3022TIP3    H2 9031   1.753   2.298   1.067  0.7730  0.6450  1.7191
 3023TIP3   OH2 9032   3.673   0.117   5.123  0.3563 -0.0223 -0.6012
 3023TIP3    H1 9033   3.757   0.151   5.093  0.5320  0.9437  0.8773
 3023TIP3    H2 9034   3.691   0.026   5.145  0.8356 -0.0150 -0.9486
 3024TIP3   OH2 9035   5.779   3.355   3.741  0.5237  0.5017 -0.2798
 3024TIP3    H1 9036   5.706   3.347   3.802  0.5505  1.4780 -0.1131
 3024TIP3    H2 9037   5.755   3.296   3.669  0.5759 -0.8026  0.7218
 3025TIP3   OH2 9038   0.889   4.525   0.316  0.3126 -0.2121 -0.8278
 3025TIP3    H1 9039   0.923   4.615   0.321 -3.7491  1.5205 -0.3814
 3025TIP3    H2 9040   0.897   4.492   0.406  0.1790  0.4505 -0.5633
 3026TIP3   OH2 9041   6.670   1.305   4.103  0.0826  0.1833 -0.2345
 3026TIP3    H1 9042   6.727   1.308   4.026 -0.8868 -0.8990 -1.0293
 3026TIP3    H2 9043   6.581   1.308   4.067 -0.3792  0.5737  0.9039
 3027TIP3   OH2 9044   5.858   0.608   2.755  0.0355  0.4071  0.7313
 3027TIP3    H1 9045   5.848   0.527   2.705 -1.2989  0.4033  0.9876
 3027TIP3    H2 9046   5.945   0.640   2.730 -0.0391 -0.3098 -0.5323
 3028TIP3   OH2 9047   4.613   5.611   1.680 -0.3327 -0.4299  0.0501
 3028TIP3    H1 9048   4.676   5.678   1.654 -1.0107 -0.3478 -1.5154
 3028TIP3    H2 9049   4.538   5.660   1.713 -0.8905 -0.3584 -1.2375
 3029TIP3   OH2 9050   2.795   2.138   5.265 -0.0158 -0.0182 -0.0167
 3029TIP3    H1 9051   2.711   2.093   5.268 -0.7024  1.2511  2.0620
 3029TIP3    H2 9052   2.849   2.091   5.329 -0.5847  1.6828  1.8129
 3030TIP3   OH2 9053   5.959   0.848   3.088 -0.5771 -0.5538 -0.0937
 3030TIP3    H1 9054   5.965   0.938   3.120 -0.3831 -0.4640 -0.3812
 3030TIP3    H2 9055   6.024   0.843   3.018  0.0277 -1.1596  0.4916
 3031TIP3   OH2 9056   5.166   5.876   2.424 -0.4231  0.0383  0.3142
 3031TIP3    H1 9057   5.187   5.941   2.356 -0.4156 -0.0446  0.2372
 3031TIP3    H2 9058   5.251   5.845   2.454 -0.3766  1.1745  1.4333
 3032TIP3   OH2 9059   4.009   3.376   1.499 -0.1879  0.2235  0.3275
 3032TIP3    H1 9060   4.053   3.375   1.584  0.0897 -1.8780  0.2205
 3032TIP3    H2 9061   3.955   3.455   1.501 -0.6042 -0.0463  2.6610
 3033TIP3   OH2 9062   4.646   5.759   0.163  0.4806  0.1541  0.3060
 3033TIP3    H1 9063   4.678   5.704   0.091 -3.0579 -0.6252 -0.9214
 3033TIP3    H2 9064   4.651   5.702   0.240  0.8755 -0.3603 -0.0878
 3034TIP3   OH2 9065   6.938   0.124   2.592  0.3579  0.0304 -0.4264
 3034TIP3    H1 9066   6.913   0.214   2.609  1.6746  0.0030  2.1426
 3034TIP3    H2 9067   7.021   0.131   2.544  1.4450  0.2545  1.4214
 3035TIP3   OH2 9068   2.850   2.158   5.816 -0.1059 -0.4779  0.7242
 3035TIP3    H1 9069   2.850   2.219   5.890  2.1313  0.7299 -0.1982
 3035TIP3    H2 9070   2.923   2.099   5.834  1.4082  0.7314 -1.1583
 3036TIP3   OH2 9071   4.036   0.265   2.491  0.0976  0.2319  0.1721
 3036TIP3    H1 9072   4.033   0.358   2.512 -0.9748  0.8005 -2.0834
 3036TIP3    H2 9073   4.106   0.257   2.426  1.0455 -0.7982  1.2755
 3037TIP3   OH2 9074   2.137   2.521   4.559  0.2482 -0.0313  0.3281
 3037TIP3    H1 9075   2.105   2.605   4.593 -2.4440 -1.8592  2.7204
 3037TIP3    H2 9076   2.181   2.480   4.634 -0.3066 -1.5990 -0.1680
 3038TIP3   OH2 9077   3.751   2.128   0.394  0.2887 -0.0498  0.1911
 3038TIP3    H1 9078   3.774   2.089   0.310  0.4496 -0.4691  0.4225
 3038TIP3    H2 9079   3.668   2.086   0.418  0.1783  0.1618  0.1830
 3039TIP3   OH2 9080   5.590   2.825   1.290  0.3867 -0.1899  0.0390
 3039TIP3    H1 9081   5.632   2.870   1.216  0.1144 -0.4089 -0.2518
 3039TIP3    H2 9082   5.499   2.853   1.286  0.5397  0.4638  0.8059
 3040TIP3   OH2 9083   7.122   1.897   5.637  0.5649  0.5476  0.5523
 3040TIP3    H1 9084   7.200   1.937   5.674  1.1635  0.0699 -0.1626
 3040TIP3    H2 9085   7.102   1.951   5.560  1.4655 -0.5610 -0.5070
 3041TIP3   OH2 9086   3.359   6.388   4.996  0.0344 -0.0616  0.6154
 3041TIP3    H1 9087   3.369   6.351   4.908 -0.1052  2.1550 -0.3900
 3041TIP3    H2 9088   3.447   6.388   5.033  0.2025 -0.3616  0.2126
 3042TIP3   OH2 9089   1.095   3.619   4.215 -0.4580  0.4081 -0.0666
 3042TIP3    H1 9090   1.084   3.701   4.167 -0.3134  1.2919  1.3495
 3042TIP3    H2 9091   1.163   3.639   4.280 -1.3243 -0.4319  1.1394
 3043TIP3   OH2 9092   0.481   0.107   1.928 -0.8052  0.1404 -0.0813
 3043TIP3    H1 9093   0.399   0.118   1.880 -0.4029 -0.9818 -1.0897
 3043TIP3    H2 9094   0.507   0.017   1.909 -0.2988 -0.1443  1.7627
 3044TIP3   OH2 9095   3.256   0.454   5.490  0.9451 -0.5024 -0.3132
 3044TIP3    H1 9096   3.176   0.409   5.516  0.5625 -0.0574 -0.7059
 3044TIP3    H2 9097   3.324   0.386   5.493  0.5785 -0.8528  0.1406
 3045TIP3   OH2 9098   4.258   6.586   2.678  0.5394 -0.5020 -0.2314
 3045TIP3    H1 9099   4.336   6.630   2.646 -1.4925  1.3259 -3.1737
 3045TIP3    H2 9100   4.230   6.638   2.754  0.0181  1.3936 -1.6493
 3046TIP3   OH2 9101   3.992   6.294   5.671  0.3525 -0.0816  0.2736
 3046TIP3    H1 9102   3.929   6.264   5.605 -0.9805  2.8781  0.0439
 3046TIP3    H2 9103   4.069   6.319   5.621  0.7769 -1.3299  0.2796
 3047TIP3   OH2 9104   1.371   2.802   4.138 -0.0165  0.7046  0.0323
 3047TIP3    H1 9105   1.440   2.741   4.164 -0.7533 -0.0812  0.1914
 3047TIP3    H2 9106   1.416   2.867   4.084  0.9087  0.4142  0.4302
 3048TIP3   OH2 9107   2.376   6.068   1.805 -0.4443  0.2041  0.2559
 3048TIP3    H1 9108   2.401   5.998   1.744  1.0039  1.5571 -0.7758
 3048TIP3    H2 9109   2.356   6.022   1.886  0.8223 -1.4044 -0.2802
 3049TIP3   OH2 9110   3.675   2.151   1.122  0.1149  0.1257  0.0613
 3049TIP3    H1 9111   3.770   2.138   1.121  0.4598  2.2584 -0.9911
 3049TIP3    H2 9112   3.661   2.221   1.186 -0.8175 -0.5569  0.6179
 3050TIP3   OH2 9113   2.292   4.617   2.138 -0.1039  0.0965 -0.1441
 3050TIP3    H1 9114   2.373   4.588   2.181  0.1731  0.0614 -0.6791
 3050TIP3    H2 9115   2.277   4.552   2.069  0.3556  1.0198 -1.1597
 3051TIP3   OH2 9116   1.150   6.387   1.302  0.3041 -0.3043  0.6793
 3051TIP3    H1 9117   1.107   6.312   1.343 -0.8378  0.0917  0.2362
 3051TIP3    H2 9118   1.163   6.450   1.373  1.2831 -0.9025  1.0578
 3052TIP3   OH2 9119   6.632   3.945   3.683  0.5644  0.0817 -0.6374
 3052TIP3    H1 9120   6.640   3.931   3.588  2.0214  1.2091 -0.7136
 3052TIP3    H2 9121   6.692   4.017   3.701  0.1636 -0.0027  1.1306
 3053TIP3   OH2 9122   2.983   3.679   1.832 -0.3096  0.5144  0.2231
 3053TIP3    H1 9123   3.065   3.706   1.873  0.1467 -1.0779  0.4283
 3053TIP3    H2 9124   2.939   3.625   1.898 -1.1331  0.6726 -0.1797
 3054TIP3   OH2 9125   1.213   1.711   5.405 -0.5070 -0.0259  0.0382
 3054TIP3    H1 9126   1.270   1.782   5.375 -0.9823  0.1597 -0.4423
 3054TIP3    H2 9127   1.129   1.754   5.422 -1.7028 -0.8844 -3.0143
 3055TIP3   OH2 9128   5.621   2.862   4.259 -0.1470  0.6140 -0.3106
 3055TIP3    H1 9129   5.688   2.822   4.314  0.5050  0.8340 -0.9251
 3055TIP3    H2 9130   5.665   2.938   4.220 -1.0364  1.3090  0.0003
 3056TIP3   OH2 9131   6.735   0.752   2.342 -0.2868 -0.0752  0.7011
 3056TIP3    H1 9132   6.685   0.812   2.287 -1.1187 -0.0172  1.5130
 3056TIP3    H2 9133   6.804   0.719   2.284 -0.9365  0.2450 -0.2796
 3057TIP3   OH2 9134   6.551   1.657   1.948 -0.1761 -0.1827  0.0462
 3057TIP3    H1 9135   6.474   1.601   1.943 -0.8761  0.3550  3.1308
 3057TIP3    H2 9136   6.519   1.744   1.923  0.1077 -0.4415 -1.3033
 3058TIP3   OH2 9137   0.328   5.491   5.719 -0.1323  0.2742  0.6287
 3058TIP3    H1 9138   0.322   5.401   5.750 -1.2737 -0.3376 -1.2500
 3058TIP3    H2 9139   0.403   5.491   5.659 -1.4903 -0.0422 -1.1522
 3059TIP3   OH2 9140   2.657   0.295   1.767  0.0843  0.2307  0.1215
 3059TIP3    H1 9141   2.703   0.267   1.846  0.0184  0.1798  0.1417
 3059TIP3    H2 9142   2.673   0.226   1.703 -1.3319 -0.6197  0.6336
 3060TIP3   OH2 9143   0.902   4.309   2.047 -0.1955 -0.8150  0.0746
 3060TIP3    H1 9144   0.974   4.261   2.007  0.3584 -0.8771  1.1138
 3060TIP3    H2 9145   0.855   4.244   2.099 -0.8009 -0.6987 -0.3130
 3061TIP3   OH2 9146   6.910   2.993   2.258  0.4429  0.3801 -0.3329
 3061TIP3    H1 9147   6.975   2.975   2.191  1.4060  0.0196  0.6784
 3061TIP3    H2 9148   6.935   3.077   2.295  0.0059  0.5083 -0.3159
 3062TIP3   OH2 9149   6.587   5.752   3.657 -0.7060 -0.7108 -0.1779
 3062TIP3    H1 9150   6.519   5.814   3.633  0.0722 -0.0367 -0.6794
 3062TIP3    H2 9151   6.602   5.701   3.578 -1.1915 -1.4151  0.1701
 3063TIP3   OH2 9152   6.897   1.179   0.877 -0.0559 -1.0283 -0.0062
 3063TIP3    H1 9153   6.935   1.232   0.807 -1.3987 -0.0488 -0.0414
 3063TIP3    H2 9154   6.943   1.096   0.873  1.5446 -0.1625 -0.5079
 3064TIP3   OH2 9155   4.380   3.687   2.464 -0.1681 -0.3073  0.0205
 3064TIP3    H1 9156   4.415   3.668   2.377 -0.8587  2.0168 -0.8264
 3064TIP3    H2 9157   4.357   3.601   2.499  1.7832 -1.4702 -1.3326
 3065TIP3   OH2 9158   5.416   3.546   3.228 -0.1445 -0.1209  0.7493
 3065TIP3    H1 9159   5.465   3.479   3.277 -1.3756 -1.6023  0.0630
 3065TIP3    H2 9160   5.382   3.498   3.152 -3.4131  0.5627  1.6568
 3066TIP3   OH2 9161   5.422   5.816   3.923 -0.2155 -0.1356 -0.0280
 3066TIP3    H1 9162   5.499   5.766   3.951  0.8875  0.0864 -2.4547
 3066TIP3    H2 9163   5.418   5.889   3.985  1.4550 -0.2241  0.2298
 3067TIP3   OH2 9164   2.980   5.057   1.285  0.1499 -0.1443  0.5230
 3067TIP3    H1 9165   2.931   5.138   1.273 -1.0413 -0.9276 -0.1597
 3067TIP3    H2 9166   3.021   5.040   1.200 -0.1271 -0.5661  0.4671
 3068TIP3   OH2 9167   5.128  -0.001   3.249  0.4692 -0.0010  0.3166
 3068TIP3    H1 9168   5.213  -0.025   3.213 -0.3277  0.4070 -2.0126
 3068TIP3    H2 9169   5.100   0.075   3.198 -1.0758  0.1901  1.3667
 3069TIP3   OH2 9170   0.101   1.499   1.146 -0.3570 -0.1781 -0.2040
 3069TIP3    H1 9171   0.157   1.460   1.079  2.1445 -0.3179  1.8355
 3069TIP3    H2 9172   0.012   1.485   1.113  0.5713 -3.4071 -1.8008
 3070TIP3   OH2 9173   3.894   0.586   3.714  0.1961  0.4921 -0.4453
 3070TIP3    H1 9174   3.803   0.599   3.690  0.3024  0.7708 -0.6961
 3070TIP3    H2 9175   3.943   0.646   3.658  0.7200 -1.1783 -1.8787
 3071TIP3   OH2 9176   3.793   5.165   1.250  0.1726  1.1686  0.1194
 3071TIP3    H1 9177   3.839   5.094   1.295 -0.4148  0.1919 -0.7420
 3071TIP3    H2 9178   3.830   5.165   1.161  0.8887  2.6505  0.3864
 3072TIP3   OH2 9179   2.329   3.689   1.204  0.1996  0.5644  0.1468
 3072TIP3    H1 9180   2.272   3.746   1.257  0.0261  0.1743  0.3890
 3072TIP3    H2 9181   2.303   3.706   1.114  0.6155  1.3616  0.1747
 3073TIP3   OH2 9182   5.983   2.017   5.622 -0.3425  0.1548  0.2530
 3073TIP3    H1 9183   5.966   2.108   5.645  1.0353  0.2163  1.1346
 3073TIP3    H2 9184   6.043   1.986   5.689  0.3141 -0.9830 -0.8180
 3074TIP3   OH2 9185   4.454   1.841   3.724 -0.3248  0.2921 -0.0320
 3074TIP3    H1 9186   4.414   1.890   3.796 -2.8013 -0.9392 -0.4807
 3074TIP3    H2 9187   4.521   1.787   3.767 -0.1824  1.2332  0.9811
 3075TIP3   OH2 9188   0.531   1.909   0.270  0.1870 -0.0820  0.0995
 3075TIP3    H1 9189   0.446   1.892   0.309  0.7330  0.5996  1.6859
 3075TIP3    H2 9190   0.594   1.876   0.335  1.1413 -0.6590 -1.0791
 3076TIP3   OH2 9191   5.884   1.133   4.867  0.1689 -0.0449  0.4926
 3076TIP3    H1 9192   5.906   1.192   4.939  0.6925  0.0582  0.2472
 3076TIP3    H2 9193   5.822   1.071   4.906  0.4231  0.0288  1.0259
 3077TIP3   OH2 9194   4.421   2.587   0.279 -0.2059  0.1553 -0.2931
 3077TIP3    H1 9195   4.420   2.597   0.184  1.8454 -1.0174 -0.4934
 3077TIP3    H2 9196   4.433   2.676   0.312  0.9780  0.3723 -1.2359
 3078TIP3   OH2 9197   5.299   2.327   5.693 -0.0038 -0.5180 -0.8601
 3078TIP3    H1 9198   5.318   2.234   5.700 -0.5792 -0.5135  1.9342
 3078TIP3    H2 9199   5.383   2.371   5.704 -0.0826 -0.7065  0.7703
 3079TIP3   OH2 9200   3.249   1.388   4.663 -0.1598  0.1308  0.9329
 3079TIP3    H1 9201   3.224   1.480   4.671  0.2966  0.3457  0.0509
 3079TIP3    H2 9202   3.344   1.387   4.675 -0.0583 -0.1120  0.1794
 3080TIP3   OH2 9203   4.464   3.121   3.762  0.6077 -0.5073 -0.1036
 3080TIP3    H1 9204   4.453   3.036   3.804  0.2831 -0.3398  0.1627
 3080TIP3    H2 9205   4.505   3.102   3.678  1.6754 -0.8132  0.4693
 3081TIP3   OH2 9206   1.993   5.765   3.500  0.1219 -0.8928 -0.4364
 3081TIP3    H1 9207   1.912   5.776   3.450 -0.7203  0.0672  1.0526
 3081TIP3    H2 9208   1.994   5.841   3.559  3.2426  0.3648 -1.9098
 3082TIP3   OH2 9209   5.338   4.283   2.578  0.0538 -0.0179  0.1540
 3082TIP3    H1 9210   5.332   4.288   2.674  0.9626  0.6967  0.1773
 3082TIP3    H2 9211   5.313   4.192   2.558 -0.7194 -0.0168  1.0090
 3083TIP3   OH2 9212   4.084   5.146   0.312  0.0839  0.4595 -0.4118
 3083TIP3    H1 9213   4.091   5.074   0.249  1.3034 -0.0347  0.2493
 3083TIP3    H2 9214   4.118   5.109   0.394 -0.9418  1.2602  0.3998
 3084TIP3   OH2 9215   3.808   4.440   3.428 -0.3979  0.4071 -0.5105
 3084TIP3    H1 9216   3.883   4.386   3.453  0.3708  1.0088 -1.4362
 3084TIP3    H2 9217   3.781   4.482   3.509  1.0632  1.1329 -0.3697
 3085TIP3   OH2 9218   4.970   2.634   3.644  0.1595  0.2167  0.1810
 3085TIP3    H1 9219   5.048   2.648   3.590  0.2007  0.0508  0.1993
 3085TIP3    H2 9220   4.909   2.701   3.614 -0.5824 -1.1379 -1.5229
 3086TIP3   OH2 9221   2.713   4.310   2.981 -0.0483  0.4929  0.2479
 3086TIP3    H1 9222   2.748   4.265   3.058 -0.9321  1.3988  1.2097
 3086TIP3    H2 9223   2.777   4.379   2.962 -0.3968  0.9874  0.8713
 3087TIP3   OH2 9224   3.963   3.105   1.538  0.1841  0.7333  0.1640
 3087TIP3    H1 9225   3.995   3.191   1.511  0.4226  0.7204  0.4099
 3087TIP3    H2 9226   3.972   3.051   1.459 -1.2300  1.2706 -0.4003
 3088TIP3   OH2 9227   1.164   5.983   5.527  0.1504 -0.6335 -0.7241
 3088TIP3    H1 9228   1.171   5.904   5.580 -1.1215 -0.0157  0.4227
 3088TIP3    H2 9229   1.082   6.024   5.554  0.4888  0.8011 -1.6930
 3089TIP3   OH2 9230   5.930   4.014   5.092 -0.1706  0.0810 -0.3649
 3089TIP3    H1 9231   5.920   4.096   5.044  0.7394 -0.0870 -0.8671
 3089TIP3    H2 9232   5.958   3.951   5.026 -1.3014 -0.7577 -0.0704
 3090TIP3   OH2 9233   5.678   0.663   0.904 -0.2486 -0.0794  0.0598
 3090TIP3    H1 9234   5.712   0.727   0.966  0.5322 -0.2773 -0.1495
 3090TIP3    H2 9235   5.682   0.580   0.951 -1.8948  0.0916  0.5730
 3091TIP3   OH2 9236   5.622   0.022   5.224 -0.0971  0.2745  0.0341
 3091TIP3    H1 9237   5.632   0.114   5.248  1.8120  0.4635 -1.3188
 3091TIP3    H2 9238   5.583   0.025   5.137 -1.1968 -0.2749  0.4806
 3092TIP3   OH2 9239   3.690   1.312   4.473 -0.0577  0.3064  0.1987
 3092TIP3    H1 9240   3.668   1.270   4.390 -1.4459 -0.3377  0.8565
 3092TIP3    H2 9241   3.782   1.290   4.488  0.0809  0.0644 -0.9335
 3093TIP3   OH2 9242   6.174   5.612   4.536 -0.3419 -0.4683  0.2683
 3093TIP3    H1 9243   6.138   5.523   4.533  0.5465 -0.9052  1.7387
 3093TIP3    H2 9244   6.215   5.623   4.450 -2.7525 -0.4430 -0.9509
 3094TIP3   OH2 9245   4.746   5.222   0.878 -0.1672  0.1610  0.0095
 3094TIP3    H1 9246   4.733   5.277   0.801 -1.6571 -0.7173 -0.4120
 3094TIP3    H2 9247   4.737   5.132   0.845 -0.1273 -0.2507  1.0697
 3095TIP3   OH2 9248   1.402   3.042   3.755  0.3033 -0.7569 -0.0414
 3095TIP3    H1 9249   1.340   3.108   3.724  0.4618 -0.2805  0.6370
 3095TIP3    H2 9250   1.357   2.958   3.740 -1.0029 -0.3814  1.4867
 3096TIP3   OH2 9251   4.930   3.695   3.947 -0.2336  0.3622  0.2323
 3096TIP3    H1 9252   4.865   3.746   3.995 -1.6166  0.8566 -2.0412
 3096TIP3    H2 9253   4.921   3.606   3.982 -2.2046  0.4019 -0.0520
 3097TIP3   OH2 9254   6.564   6.603   1.505  0.2191  0.3133 -1.0538
 3097TIP3    H1 9255   6.587   6.695   1.512  0.4124  0.1708  0.8300
 3097TIP3    H2 9256   6.474   6.602   1.473 -0.2025  1.2295  0.0360
 3098TIP3   OH2 9257   1.613   2.459   3.250 -0.1435  0.1338 -0.1239
 3098TIP3    H1 9258   1.657   2.376   3.233 -1.7843 -0.9328  0.5982
 3098TIP3    H2 9259   1.661   2.523   3.198  2.1606 -0.9613  0.5546
 3099TIP3   OH2 9260   6.045   4.375   4.134 -0.4939 -0.0046 -0.7819
 3099TIP3    H1 9261   6.085   4.409   4.214  0.4967 -0.7393 -0.9470
 3099TIP3    H2 9262   5.990   4.447   4.103 -0.1747  0.6255  0.0669
 3100TIP3   OH2 9263   6.844   3.449   4.963  0.2616  0.6558 -0.9496
 3100TIP3    H1 9264   6.781   3.469   4.894 -0.5840  0.2668 -0.3140
 3100TIP3    H2 9265   6.790   3.420   5.037  1.2813 -1.7235 -1.0643
 3101TIP3   OH2 9266   6.378   5.612   2.257 -0.3028 -0.6215  0.1383
 3101TIP3    H1 9267   6.456   5.604   2.313  0.5769  2.8516 -0.3328
 3101TIP3    H2 9268   6.332   5.689   2.291 -1.3816 -0.2307 -2.0257
 3102TIP3   OH2 9269   4.564   3.157   3.286  0.0190 -0.3486  0.1769
 3102TIP3    H1 9270   4.544   3.068   3.256 -1.0686 -0.2772  0.6373
 3102TIP3    H2 9271   4.570   3.208   3.205 -1.8116 -0.3737 -0.0291
 3103TIP3   OH2 9272   3.374   6.330   3.964  0.2002 -0.1605  0.6145
 3103TIP3    H1 9273   3.387   6.365   3.876  2.1376 -1.3538  0.3440
 3103TIP3    H2 9274   3.338   6.242   3.949  1.1992 -0.6416  0.9465
 3104TIP3   OH2 9275   1.645   0.680   1.253  0.0433 -0.3467  0.1914
 3104TIP3    H1 9276   1.687   0.758   1.288 -0.8784 -0.3583  1.3758
 3104TIP3    H2 9277   1.711   0.641   1.195  1.0851  0.4627  0.8082
 3105TIP3   OH2 9278   6.051   1.203   1.074  0.1286 -0.1941  0.1996
 3105TIP3    H1 9279   6.100   1.281   1.048 -2.4075  1.1343 -0.9542
 3105TIP3    H2 9280   6.032   1.158   0.992 -0.4529 -0.7524  0.6264
 3106TIP3   OH2 9281   5.720   5.430   0.160 -0.1589  0.8651 -0.4863
 3106TIP3    H1 9282   5.727   5.503   0.222 -1.2650 -0.7288  1.6536
 3106TIP3    H2 9283   5.767   5.358   0.202 -1.1753 -0.3556 -1.3390
 3107TIP3   OH2 9284   4.764   0.081   2.449  0.2319 -0.7188  0.0230
 3107TIP3    H1 9285   4.780   0.061   2.541 -0.5854 -1.5664 -0.0032
 3107TIP3    H2 9286   4.709   0.008   2.418 -1.4020  0.6960 -0.5434
 3108TIP3   OH2 9287   0.607   4.381   4.103  0.3768  0.2401 -0.0980
 3108TIP3    H1 9288   0.579   4.291   4.121  0.7731  0.2862  0.8293
 3108TIP3    H2 9289   0.574   4.432   4.177 -0.3457  0.9778 -0.9076
 3109TIP3   OH2 9290   0.799   4.582   4.377 -0.4923 -0.1331 -0.5236
 3109TIP3    H1 9291   0.798   4.618   4.288 -0.8261 -0.3423 -0.6061
 3109TIP3    H2 9292   0.815   4.658   4.433 -2.1066  0.3217 -0.6280
 3110TIP3   OH2 9293   2.883   6.092   3.380 -0.6573  0.0308 -0.1767
 3110TIP3    H1 9294   2.873   5.998   3.362 -0.1739  0.2140 -1.5090
 3110TIP3    H2 9295   2.794   6.122   3.397 -1.1033 -0.2940 -1.7785
 3111TIP3   OH2 9296   6.424   0.006   2.481  0.2599 -0.2354 -0.7075
 3111TIP3    H1 9297   6.436   0.032   2.390  0.6523  0.2830 -0.5154
 3111TIP3    H2 9298   6.505   0.031   2.525 -0.4008  0.6940  0.0379
 3112TIP3   OH2 9299   5.022   2.067   3.314 -0.0429 -0.5215  0.2462
 3112TIP3    H1 9300   5.059   2.027   3.235  1.5301  0.4137  0.4743
 3112TIP3    H2 9301   5.062   2.019   3.386 -0.6558 -0.6571  0.5075
 3113TIP3   OH2 9302   1.060   0.451   2.093  0.4583 -0.5434 -0.3591
 3113TIP3    H1 9303   1.111   0.431   2.172  0.9335  1.1136 -0.2153
 3113TIP3    H2 9304   0.976   0.408   2.108  1.1904 -1.8646  0.1775
 3114TIP3   OH2 9305   2.617   6.065   5.582 -0.2071  0.0230 -0.4185
 3114TIP3    H1 9306   2.626   6.119   5.660 -1.8820 -2.0454  1.3324
 3114TIP3    H2 9307   2.704   6.029   5.566  0.1385  0.4367  0.5242
 3115TIP3   OH2 9308   3.704   4.548   3.664 -0.5606 -0.0551 -0.2509
 3115TIP3    H1 9309   3.610   4.560   3.650 -0.4733 -1.1615 -2.0223
 3115TIP3    H2 9310   3.712   4.461   3.704 -0.2291 -0.4297 -1.1189
 3116TIP3   OH2 9311   1.857   2.039   5.114  0.0887 -0.1309  0.2272
 3116TIP3    H1 9312   1.952   2.046   5.120 -0.0315  2.1105  0.4629
 3116TIP3    H2 9313   1.837   1.951   5.145  2.0578 -0.5381  0.4533
 3117TIP3   OH2 9314   2.578   5.549   3.129  0.3626  0.2572  0.2275
 3117TIP3    H1 9315   2.489   5.579   3.149  0.7441  0.6673  1.3691
 3117TIP3    H2 9316   2.601   5.595   3.049 -0.0425  1.0086  0.5296
 3118TIP3   OH2 9317   1.490   2.224   3.885  0.1674 -0.6014  0.4004
 3118TIP3    H1 9318   1.484   2.318   3.866  0.1854 -0.1544  2.3248
 3118TIP3    H2 9319   1.562   2.193   3.832  0.4649  0.5891  0.0809
 3119TIP3   OH2 9320   3.167   0.623   1.864  0.4019  0.2717  0.0009
 3119TIP3    H1 9321   3.145   0.568   1.939 -0.4211 -0.0315 -0.4452
 3119TIP3    H2 9322   3.213   0.564   1.804  0.1360  0.2441 -0.1774
 3120TIP3   OH2 9323   4.540   2.123   2.809 -0.5355  0.3227  0.0620
 3120TIP3    H1 9324   4.444   2.128   2.800 -0.5484  0.5308  0.2970
 3120TIP3    H2 9325   4.573   2.183   2.742 -0.6098  1.2735  0.8582
 3121TIP3   OH2 9326   4.083   5.949   3.216  0.1413 -0.0347  0.1532
 3121TIP3    H1 9327   4.082   5.855   3.197 -1.2432  0.4919 -3.2414
 3121TIP3    H2 9328   4.137   5.986   3.146 -0.8088  1.8396  0.3578
 3122TIP3   OH2 9329   2.584   3.967   3.756  0.6576 -0.3042  0.2446
 3122TIP3    H1 9330   2.516   4.030   3.732 -0.6565 -1.6314  0.3086
 3122TIP3    H2 9331   2.612   3.993   3.843  0.7310  0.6726 -0.0657
 3123TIP3   OH2 9332   2.421   4.032   1.199 -0.3240 -0.4761  0.4652
 3123TIP3    H1 9333   2.493   4.020   1.136 -0.4518  1.9362 -0.2547
 3123TIP3    H2 9334   2.455   3.997   1.281  1.8501  0.9122  0.2272
 3124TIP3   OH2 9335   3.225   3.815   1.368 -0.0055  0.2411 -0.0788
 3124TIP3    H1 9336   3.157   3.785   1.308  1.2246  0.1735 -1.4932
 3124TIP3    H2 9337   3.299   3.838   1.311  1.6514 -0.9801  1.4676
 3125TIP3   OH2 9338   4.911   3.300   3.851  0.8847  0.1231  0.1417
 3125TIP3    H1 9339   4.973   3.242   3.897 -0.7365 -3.1849 -1.5519
 3125TIP3    H2 9340   4.834   3.302   3.907  0.9592  0.7988  0.2341
 3126TIP3   OH2 9341   6.078   5.264   3.117 -0.2746 -0.0824 -0.1588
 3126TIP3    H1 9342   6.076   5.276   3.022  0.6321  0.2223 -0.1509
 3126TIP3    H2 9343   6.009   5.200   3.135  0.2070 -0.8965 -1.1348
 3127TIP3   OH2 9344   5.034   4.693   1.143 -0.6066 -0.0098 -0.2317
 3127TIP3    H1 9345   5.005   4.604   1.122 -1.2896  0.2301 -0.3413
 3127TIP3    H2 9346   5.105   4.681   1.206  0.3003 -0.6859 -1.3382
 3128TIP3   OH2 9347   1.863   6.507   2.845 -0.3678 -0.7633  0.2462
 3128TIP3    H1 9348   1.784   6.547   2.881  0.3202  2.4309 -1.4258
 3128TIP3    H2 9349   1.832   6.427   2.802 -2.4312 -0.4129  0.9643
 3129TIP3   OH2 9350   6.964   4.653   3.085  0.5833  0.3751 -0.0016
 3129TIP3    H1 9351   7.009   4.588   3.139 -0.4987 -0.6485 -0.2820
 3129TIP3    H2 9352   6.873   4.648   3.113  0.6467  2.6437  0.7911
 3130TIP3   OH2 9353   0.184   3.563   5.065  0.0287 -0.0571  0.4509
 3130TIP3    H1 9354   0.130   3.546   4.989 -0.1053 -0.0373  0.5412
 3130TIP3    H2 9355   0.144   3.640   5.107  0.8153  0.6916 -0.1327
 3131TIP3   OH2 9356   5.103   1.631   3.425  0.6439 -0.3209 -0.0077
 3131TIP3    H1 9357   5.111   1.610   3.518  1.3911  1.5750  0.4105
 3131TIP3    H2 9358   5.180   1.685   3.406 -0.1417  0.3775 -1.3999
 3132TIP3   OH2 9359   0.680   1.751   3.439 -0.6879  0.0043 -0.3775
 3132TIP3    H1 9360   0.622   1.701   3.381  0.4581  0.2835 -1.8395
 3132TIP3    H2 9361   0.767   1.712   3.425 -0.5122 -0.6083  1.9724
 3133TIP3   OH2 9362   3.904   2.331   0.076 -0.2579  0.6309  0.2643
 3133TIP3    H1 9363   3.847   2.269   0.031 -1.0160  0.4178  1.4656
 3133TIP3    H2 9364   3.845   2.380   0.134  0.7399  0.5242  1.4045
 3134TIP3   OH2 9365   1.813   6.292   4.713  0.1158  0.2504 -0.6538
 3134TIP3    H1 9366   1.804   6.214   4.767  0.7259 -0.4921 -1.6065
 3134TIP3    H2 9367   1.881   6.344   4.756 -0.3651  0.3208  0.0360
 3135TIP3   OH2 9368   3.049   0.175   0.423 -0.1866 -0.3805  0.1522
 3135TIP3    H1 9369   3.081   0.137   0.505 -2.9539 -0.1338  1.4661
 3135TIP3    H2 9370   3.011   0.259   0.449 -2.5575 -0.9909 -1.0269
 3136TIP3   OH2 9371   3.709   5.559   1.546  0.2763  0.0716 -0.1664
 3136TIP3    H1 9372   3.745   5.495   1.607  1.1016 -0.1082 -0.8224
 3136TIP3    H2 9373   3.742   5.644   1.576  0.3821  0.0241 -0.1500
 3137TIP3   OH2 9374   0.330   2.553   3.783  0.4731  0.1994  0.2452
 3137TIP3    H1 9375   0.418   2.549   3.822  0.5229  0.7534  0.1956
 3137TIP3    H2 9376   0.287   2.624   3.830  1.0444  1.9180 -1.7139
 3138TIP3   OH2 9377   3.270   0.644   4.020  0.1692  0.2285 -0.3215
 3138TIP3    H1 9378   3.325   0.572   3.988  1.0955  0.3532  0.8987
 3138TIP3    H2 9379   3.201   0.602   4.070  0.9890  0.1678  0.8041
 3139TIP3   OH2 9380   3.354   2.585   1.400  0.0133  0.2197  0.4774
 3139TIP3    H1 9381   3.323   2.586   1.310  0.1567 -1.7082  0.3541
 3139TIP3    H2 9382   3.437   2.632   1.398 -0.6912  1.4815 -0.0790
 3140TIP3   OH2 9383   4.939   1.680   3.085 -0.4135 -0.2959 -0.2667
 3140TIP3    H1 9384   4.937   1.709   3.176  0.3492 -0.5772 -0.1512
 3140TIP3    H2 9385   5.006   1.611   3.084 -0.2740 -0.1555 -1.0793
 3141TIP3   OH2 9386   0.942   1.127   2.923 -0.3792  0.7210 -0.2017
 3141TIP3    H1 9387   0.952   1.131   3.018  0.4983  2.8139 -0.3201
 3141TIP3    H2 9388   1.019   1.079   2.892  0.0960  1.3044  0.0625
 3142TIP3   OH2 9389   4.449   5.511   3.476  0.4605  0.1616  0.3134
 3142TIP3    H1 9390   4.394   5.589   3.478  0.6282  0.3052 -0.3866
 3142TIP3    H2 9391   4.524   5.534   3.532  0.5958  0.5752 -0.0251
 3143TIP3   OH2 9392   0.809   5.142   1.776 -0.0850 -0.2919  0.2550
 3143TIP3    H1 9393   0.815   5.130   1.681 -0.9865 -0.8560  0.2531
 3143TIP3    H2 9394   0.718   5.121   1.797 -0.5065  1.9085  0.9611
 3144TIP3   OH2 9395   2.341   0.317   2.509  0.5691  0.3383 -0.1398
 3144TIP3    H1 9396   2.384   0.232   2.521  0.1455  0.3066  1.3053
 3144TIP3    H2 9397   2.276   0.301   2.440  1.0474 -0.2836 -0.4657
 3145TIP3   OH2 9398   6.096   2.562   1.134 -0.6548 -0.0152 -0.1328
 3145TIP3    H1 9399   6.183   2.536   1.161  1.1816  1.9851 -3.3749
 3145TIP3    H2 9400   6.078   2.642   1.184  0.1197  0.4436 -0.5647
 3146TIP3   OH2 9401   6.369   0.298   3.565  0.2360  1.0219  0.2366
 3146TIP3    H1 9402   6.273   0.298   3.559  0.2163  1.6112  0.5261
 3146TIP3    H2 9403   6.388   0.251   3.646  0.2713 -0.7228 -0.7116
 3147TIP3   OH2 9404   1.061   6.314   2.938  0.3507 -0.1766  0.2671
 3147TIP3    H1 9405   1.100   6.370   2.871  2.3358  0.0985  1.5723
 3147TIP3    H2 9406   0.992   6.368   2.977 -0.2773 -0.0508 -0.9844
 3148TIP3   OH2 9407   5.896   4.896   0.818 -0.3442 -0.0783 -0.5238
 3148TIP3    H1 9408   5.805   4.900   0.849 -0.6155 -0.9917 -1.1335
 3148TIP3    H2 9409   5.888   4.895   0.722  0.2045 -1.5325 -0.5857
 3149TIP3   OH2 9410   0.466   3.863   1.667  0.2243 -0.0150 -0.3338
 3149TIP3    H1 9411   0.486   3.790   1.726  0.4074 -0.2653 -0.7070
 3149TIP3    H2 9412   0.376   3.886   1.688  0.2402 -0.1985 -0.0558
 3150TIP3   OH2 9413   6.947   4.765   1.578  0.2235  0.4397 -0.4160
 3150TIP3    H1 9414   6.886   4.793   1.646  0.2769  1.2521 -0.6832
 3150TIP3    H2 9415   6.918   4.677   1.554 -1.7141  1.3127 -1.4990
 3151TIP3   OH2 9416   2.510   1.594   4.449  0.0308 -0.6876 -0.3564
 3151TIP3    H1 9417   2.509   1.689   4.461  0.3844 -0.7378  0.0781
 3151TIP3    H2 9418   2.545   1.583   4.360 -1.2132 -0.3784 -0.9141
 3152TIP3   OH2 9419   5.266   1.903   0.174  0.3488  0.0848 -0.2667
 3152TIP3    H1 9420   5.227   1.983   0.211  0.7681 -0.6764  2.0034
 3152TIP3    H2 9421   5.295   1.853   0.251 -1.1659 -2.9269 -1.4958
 3153TIP3   OH2 9422   3.645   0.223   1.803 -0.2377 -0.0091  0.5510
 3153TIP3    H1 9423   3.659   0.191   1.892 -1.5477 -2.8709 -0.1562
 3153TIP3    H2 9424   3.713   0.180   1.751 -0.6891  0.0882 -0.1349
 3154TIP3   OH2 9425   3.918   1.917   4.341  0.0398 -0.3934  0.1936
 3154TIP3    H1 9426   3.973   1.994   4.325  0.2203 -0.5730 -0.0471
 3154TIP3    H2 9427   3.979   1.844   4.348 -0.2449 -0.9192 -2.0022
 3155TIP3   OH2 9428   0.248   0.831   1.860  0.0146  0.0688 -0.7130
 3155TIP3    H1 9429   0.291   0.750   1.889  1.7577  1.1399 -0.1854
 3155TIP3    H2 9430   0.302   0.862   1.787  0.0463  1.3551 -0.1567
 3156TIP3   OH2 9431   1.786   4.365   5.492  0.2057 -0.0502  0.1445
 3156TIP3    H1 9432   1.875   4.337   5.471  0.5475 -0.3057  1.7321
 3156TIP3    H2 9433   1.798   4.431   5.561 -0.8666 -1.8405  2.1785
 3157TIP3   OH2 9434   1.098   3.318   3.905  0.0152  0.3674 -0.2690
 3157TIP3    H1 9435   1.127   3.275   3.824  0.8698  1.5750 -0.6271
 3157TIP3    H2 9436   1.134   3.263   3.975  2.1920  1.1379 -0.7121
 3158TIP3   OH2 9437   3.011   2.538   2.623  0.6843 -0.1340 -0.3776
 3158TIP3    H1 9438   2.991   2.630   2.642  0.5516 -0.0552 -0.9042
 3158TIP3    H2 9439   2.954   2.515   2.550  1.2168 -0.4386 -0.7044
 3159TIP3   OH2 9440   0.225   6.407   3.401  0.4539 -0.0726 -0.3586
 3159TIP3    H1 9441   0.219   6.403   3.305  2.7367  3.5324 -0.8542
 3159TIP3    H2 9442   0.158   6.470   3.426  2.0281  1.6065 -0.1105
 3160TIP3   OH2 9443   3.808   1.705   0.907  0.0807 -0.2277 -0.5596
 3160TIP3    H1 9444   3.767   1.759   0.975 -2.0180  1.6451 -3.1125
 3160TIP3    H2 9445   3.850   1.767   0.848  2.1814 -1.8218 -0.8458
 3161TIP3   OH2 9446   5.390   4.859   2.068  0.5044  0.0955 -0.1250
 3161TIP3    H1 9447   5.481   4.841   2.044  0.3669 -0.2259 -0.4230
 3161TIP3    H2 9448   5.395   4.905   2.151  0.9125 -0.6608  0.2782
 3162TIP3   OH2 9449   6.672   0.753   4.406 -0.2418  0.1173 -0.4290
 3162TIP3    H1 9450   6.661   0.660   4.426 -0.7408 -0.2736 -2.2958
 3162TIP3    H2 9451   6.667   0.797   4.491  0.9997 -1.6297  0.6282
 3163TIP3   OH2 9452   3.744   5.244   0.617  0.1193 -0.2095 -0.2040
 3163TIP3    H1 9453   3.701   5.314   0.568 -0.0180 -0.3719 -0.3148
 3163TIP3    H2 9454   3.695   5.165   0.595 -1.1774  0.0145  1.7184
 3164TIP3   OH2 9455   4.279   3.388   0.941 -0.1186  0.1926 -0.2528
 3164TIP3    H1 9456   4.235   3.353   0.864  0.6143  2.4426 -1.7948
 3164TIP3    H2 9457   4.217   3.452   0.977  0.4898  0.8971 -0.4264
 3165TIP3   OH2 9458   4.916   2.791   1.005  0.1928 -0.1430  0.0876
 3165TIP3    H1 9459   4.877   2.869   0.965  0.0586  0.1361  0.7557
 3165TIP3    H2 9460   5.003   2.784   0.965  0.1013  0.1977 -0.1694
 3166TIP3   OH2 9461   0.497   1.680   2.468 -0.5489  0.0311  0.3191
 3166TIP3    H1 9462   0.439   1.699   2.394 -1.0998 -0.7948  0.5243
 3166TIP3    H2 9463   0.539   1.597   2.445  0.1392  0.3460  0.4234
 3167TIP3   OH2 9464   4.571   1.098   2.362  0.6105  0.2357 -0.3425
 3167TIP3    H1 9465   4.563   1.177   2.416  1.1666  0.3092 -0.3616
 3167TIP3    H2 9466   4.497   1.104   2.301  1.7411  1.7815 -1.6676
 3168TIP3   OH2 9467   2.625   1.631   1.982  0.5071  0.9687  0.0914
 3168TIP3    H1 9468   2.629   1.680   1.899 -0.8828 -0.0660 -0.6289
 3168TIP3    H2 9469   2.639   1.540   1.956  1.1057  0.7419  1.1592
 3169TIP3   OH2 9470   6.302   6.132   3.416 -0.1985 -0.0183  0.3982
 3169TIP3    H1 9471   6.267   6.221   3.411 -0.4504 -0.1273  0.1956
 3169TIP3    H2 9472   6.379   6.140   3.472 -1.0514  0.0841  1.6177
 3170TIP3   OH2 9473   5.145   2.224   3.087 -0.4478  0.7723  0.1051
 3170TIP3    H1 9474   5.092   2.179   3.153  0.0297  0.2651  0.1560
 3170TIP3    H2 9475   5.226   2.172   3.082 -1.5413 -0.9197 -2.9227
 3171TIP3   OH2 9476   0.497   2.822   0.402 -0.1749 -0.0231  0.1119
 3171TIP3    H1 9477   0.511   2.904   0.448 -1.1417  1.0526 -1.4217
 3171TIP3    H2 9478   0.407   2.798   0.420  0.2346 -1.0362  0.9352
 3172TIP3   OH2 9479   6.434   6.010   3.876  0.9175  0.0897  0.4291
 3172TIP3    H1 9480   6.449   6.064   3.799  0.5753  0.2915  0.4985
 3172TIP3    H2 9481   6.427   6.073   3.948  0.3967 -0.0305  0.4944
 3173TIP3   OH2 9482   1.991   5.204   2.245 -0.0340  0.4476 -0.4447
 3173TIP3    H1 9483   1.991   5.178   2.337  0.0629 -1.8007 -1.0284
 3173TIP3    H2 9484   2.077   5.245   2.232  1.1600 -1.8025 -0.1430
 3174TIP3   OH2 9485   6.841   0.174   1.481  0.4675 -0.0507 -0.4516
 3174TIP3    H1 9486   6.856   0.246   1.421 -1.4141  0.5839 -0.2379
 3174TIP3    H2 9487   6.794   0.108   1.429 -0.3062  0.0952  0.0324
 3175TIP3   OH2 9488   4.262   3.291   5.865  0.0054  0.1934 -0.6199
 3175TIP3    H1 9489   4.224   3.206   5.884  1.0295 -0.0771  0.3363
 3175TIP3    H2 9490   4.348   3.271   5.828  1.2828  0.7591  1.8029
 3176TIP3   OH2 9491   2.813   3.475   1.534  0.1209 -0.3766  0.5682
 3176TIP3    H1 9492   2.766   3.440   1.459 -1.5593 -1.6870  2.1256
 3176TIP3    H2 9493   2.763   3.553   1.560 -0.7941 -1.2890  1.7071
 3177TIP3   OH2 9494   3.174   3.925   2.608 -0.0927 -0.3970 -0.6609
 3177TIP3    H1 9495   3.227   3.998   2.642  0.7084 -1.6118  0.7691
 3177TIP3    H2 9496   3.092   3.967   2.580  1.0198  1.3162 -1.5815
 3178TIP3   OH2 9497   4.131   5.858   3.893 -0.5868 -0.0484 -0.4122
 3178TIP3    H1 9498   4.095   5.947   3.886  1.0039  0.6330 -0.4201
 3178TIP3    H2 9499   4.225   5.869   3.875 -0.3323 -1.7091 -0.2195
 3179TIP3   OH2 9500   6.124   4.658   1.694 -0.4468  0.1723  0.3130
 3179TIP3    H1 9501   6.215   4.632   1.702 -0.4030  0.4416  0.7070
 3179TIP3    H2 9502   6.089   4.602   1.624  0.4166  1.1132 -0.9238
 3180TIP3   OH2 9503   0.829   5.463   4.674  0.3300  0.5827 -0.3052
 3180TIP3    H1 9504   0.911   5.415   4.665 -1.1480 -1.9918 -1.3610
 3180TIP3    H2 9505   0.801   5.448   4.764  0.0239 -0.3866 -0.5449
 3181TIP3   OH2 9506   1.200   6.256   0.536 -0.0004 -0.2976 -1.0276
 3181TIP3    H1 9507   1.241   6.292   0.615 -0.3902 -1.8013 -0.1063
 3181TIP3    H2 9508   1.114   6.296   0.534 -0.6464 -1.5148  0.3055
 3182TIP3   OH2 9509   3.350   1.624   4.408 -0.5314  0.0202 -0.4127
 3182TIP3    H1 9510   3.411   1.614   4.334  0.5404  0.0419  0.4375
 3182TIP3    H2 9511   3.279   1.563   4.389 -0.0351 -0.3283 -1.2283
 3183TIP3   OH2 9512   5.208   2.474   4.006  0.4567 -1.0645  0.1685
 3183TIP3    H1 9513   5.262   2.399   3.978 -1.3587 -2.4061  0.0751
 3183TIP3    H2 9514   5.174   2.447   4.091 -0.7760 -0.6697 -0.1808
 3184TIP3   OH2 9515   6.594   3.573   1.938  0.5323 -0.0959 -0.4402
 3184TIP3    H1 9516   6.592   3.488   1.893 -0.7540 -0.8615  0.9473
 3184TIP3    H2 9517   6.675   3.571   1.989 -0.1776 -1.1596  0.7142
 3185TIP3   OH2 9518   1.343   3.443   1.604 -0.5805 -0.0497 -0.1347
 3185TIP3    H1 9519   1.361   3.406   1.690  1.3499 -1.0503 -0.9264
 3185TIP3    H2 9520   1.425   3.483   1.577 -0.1299 -2.4252 -2.7754
 3186TIP3   OH2 9521   6.932   2.435   4.463 -0.0862 -0.2735  0.2209
 3186TIP3    H1 9522   6.899   2.359   4.415  0.4503 -0.9735  0.9434
 3186TIP3    H2 9523   6.931   2.506   4.398 -0.6585 -0.8654 -0.4430
 3187TIP3   OH2 9524   3.176   5.186   5.239  0.0657 -0.4009  0.7681
 3187TIP3    H1 9525   3.199   5.189   5.332  0.1720 -1.6292  0.7926
 3187TIP3    H2 9526   3.196   5.274   5.207  2.3888 -0.6523  1.3628
 3188TIP3   OH2 9527   5.171   4.835   3.754  0.2814  0.2000 -0.1665
 3188TIP3    H1 9528   5.092   4.850   3.806  0.0659  0.4550 -0.5611
 3188TIP3    H2 9529   5.210   4.756   3.791 -0.7064 -0.5164 -0.6465
 3189TIP3   OH2 9530   1.581   5.116   5.551 -0.1597  0.2082 -0.4252
 3189TIP3    H1 9531   1.506   5.159   5.509  1.0375  0.7016 -2.1684
 3189TIP3    H2 9532   1.645   5.106   5.481  0.8066 -1.6777  0.6338
 3190TIP3   OH2 9533   6.452   0.968   1.247  0.5656 -0.5292  0.4038
 3190TIP3    H1 9534   6.418   0.920   1.172 -0.8811 -1.2695  1.4583
 3190TIP3    H2 9535   6.508   0.905   1.292 -0.2627 -0.8304  1.0566
 3191TIP3   OH2 9536   5.033   3.066   3.378  0.6112  0.3854  0.4718
 3191TIP3    H1 9537   5.080   3.107   3.450 -0.1335  1.2784  0.4651
 3191TIP3    H2 9538   4.941   3.083   3.396  0.3958  0.3322 -0.5124
 3192TIP3   OH2 9539   5.770   5.251   0.554 -0.7579 -0.3574 -0.3909
 3192TIP3    H1 9540   5.746   5.201   0.632  0.6328 -1.0524 -0.3828
 3192TIP3    H2 9541   5.740   5.340   0.573 -1.1411 -0.6790  0.5981
 3193TIP3   OH2 9542   4.188   3.199   2.974  0.2211  0.1569 -0.3873
 3193TIP3    H1 9543   4.238   3.276   2.948  1.3494 -0.2394  0.5389
 3193TIP3    H2 9544   4.178   3.206   3.068  1.6482 -1.5376 -0.0541
 3194TIP3   OH2 9545   6.581   4.675   2.529  0.4997  0.4727 -0.2299
 3194TIP3    H1 9546   6.540   4.687   2.443  0.5063 -0.0476 -0.3109
 3194TIP3    H2 9547   6.646   4.745   2.535 -0.4557  1.3577 -0.0588
 3195TIP3   OH2 9548   4.870   2.281   2.564 -0.3366  0.4673 -0.1823
 3195TIP3    H1 9549   4.863   2.364   2.612  0.8852  0.2280  0.4473
 3195TIP3    H2 9550   4.785   2.240   2.576  0.3878 -0.3886  3.3552
 3196TIP3   OH2 9551   1.896   3.127   4.434  0.3826  0.1276 -0.3118
 3196TIP3    H1 9552   1.899   3.222   4.449  1.1082 -0.1078  1.2600
 3196TIP3    H2 9553   1.954   3.113   4.360  1.8657  0.7334  0.6805
 3197TIP3   OH2 9554   0.187   5.240   3.001  0.0098 -0.2512  0.1846
 3197TIP3    H1 9555   0.237   5.158   3.006 -0.2674 -0.4517 -0.2784
 3197TIP3    H2 9556   0.228   5.288   2.929  2.1559  1.3783  2.3589
 3198TIP3   OH2 9557   2.954   3.559   2.074 -0.0718 -0.4335  0.1516
 3198TIP3    H1 9558   3.011   3.500   2.123 -1.8434 -0.4332  2.3309
 3198TIP3    H2 9559   2.885   3.583   2.135 -0.7275  2.0478 -1.4090
 3199TIP3   OH2 9560   1.384   1.898   5.303  0.9004  0.0152 -0.2219
 3199TIP3    H1 9561   1.401   1.835   5.233  0.6663  0.9066 -1.1007
 3199TIP3    H2 9562   1.471   1.923   5.335  1.0641  0.5934 -1.1000
 3200TIP3   OH2 9563   5.630   0.626   2.495  0.5475 -0.0218  0.0220
 3200TIP3    H1 9564   5.557   0.686   2.480  0.2637 -0.4909 -0.4670
 3200TIP3    H2 9565   5.608   0.547   2.446  1.5673 -0.0257 -0.4651
 3201TIP3   OH2 9566   6.579   5.541   0.589 -0.2827  0.0839  0.2421
 3201TIP3    H1 9567   6.484   5.529   0.591 -0.3618  0.4928 -0.5091
 3201TIP3    H2 9568   6.591   5.632   0.562  0.3155 -0.2052 -0.5207
 3202TIP3   OH2 9569   1.067   0.044   0.400 -0.1969  0.2349  0.2950
 3202TIP3    H1 9570   1.138   0.014   0.343  0.2952  1.3808  0.2774
 3202TIP3    H2 9571   1.047   0.133   0.368 -0.2199  0.7157  1.6042
 3203TIP3   OH2 9572   2.528   0.889   5.797 -0.5623 -0.5778  0.4617
 3203TIP3    H1 9573   2.488   0.957   5.743  1.1327  2.2445  2.4109
 3203TIP3    H2 9574   2.526   0.810   5.744  0.1732  1.7255 -3.3385
 3204TIP3   OH2 9575   4.904   2.494   3.085 -0.0793 -0.8512  0.3348
 3204TIP3    H1 9576   4.822   2.447   3.069  0.3407 -1.2221 -0.8562
 3204TIP3    H2 9577   4.936   2.517   2.998  0.9094 -0.4142  0.7961
 3205TIP3   OH2 9578   1.139   3.611   1.855 -0.0074  0.6971  0.5710
 3205TIP3    H1 9579   1.222   3.657   1.845  0.0924  0.3830 -0.1048
 3205TIP3    H2 9580   1.075   3.667   1.811 -0.2573  1.1818  1.5112
 3206TIP3   OH2 9581   3.666   4.682   2.159  0.3730 -0.5033  0.2732
 3206TIP3    H1 9582   3.708   4.649   2.080  0.5661  1.2250 -0.3844
 3206TIP3    H2 9583   3.738   4.719   2.211 -0.2045  2.4608 -0.8528
 3207TIP3   OH2 9584   4.741   2.319   0.950 -0.0377  0.5704 -0.5256
 3207TIP3    H1 9585   4.750   2.399   1.002 -1.0261 -1.6285  3.4496
 3207TIP3    H2 9586   4.829   2.281   0.951 -0.4534 -0.4976  1.6181
 3208TIP3   OH2 9587   5.212   3.796   3.879  0.2596  0.6316  0.3132
 3208TIP3    H1 9588   5.204   3.818   3.787 -0.1756  0.7001  0.3636
 3208TIP3    H2 9589   5.124   3.765   3.904  0.9621 -1.7902  0.0712
 3209TIP3   OH2 9590   6.175   2.425   4.942  0.1689  0.3013  0.8061
 3209TIP3    H1 9591   6.158   2.477   5.021 -1.1423 -1.0878  1.4874
 3209TIP3    H2 9592   6.207   2.341   4.974  1.2420  0.2951 -0.2321
 3210TIP3   OH2 9593   4.685   1.967   1.719 -0.2579  0.3649 -0.2928
 3210TIP3    H1 9594   4.764   2.021   1.721 -0.0515  0.2124 -2.3262
 3210TIP3    H2 9595   4.709   1.887   1.766  0.6456  0.5251 -0.4774
 3211TIP3   OH2 9596   6.466   3.004   0.209 -0.2059  0.0600  0.0534
 3211TIP3    H1 9597   6.423   2.927   0.245 -1.6872  0.8542  0.0626
 3211TIP3    H2 9598   6.414   3.026   0.132 -0.5845  1.7700  0.7576
 3212TIP3   OH2 9599   3.803   5.971   3.547  0.0232  0.0101 -0.0076
 3212TIP3    H1 9600   3.805   5.909   3.620  0.1765 -0.6092 -0.5244
 3212TIP3    H2 9601   3.716   6.011   3.550 -0.8696 -1.7601 -0.9026
 3213TIP3   OH2 9602   4.171   2.262   4.729  0.5932 -0.4320  0.3890
 3213TIP3    H1 9603   4.171   2.290   4.821  2.4621  1.7889 -0.1971
 3213TIP3    H2 9604   4.079   2.264   4.704  0.2325  1.0021  1.6579
 3214TIP3   OH2 9605   0.466   5.287   4.482  0.2122 -0.1812  0.0208
 3214TIP3    H1 9606   0.476   5.231   4.404 -0.8215  0.6793 -0.7625
 3214TIP3    H2 9607   0.524   5.361   4.466 -0.2724  0.1753 -0.1150
 3215TIP3   OH2 9608   6.613   6.610   2.455  0.1746 -0.7544 -0.1510
 3215TIP3    H1 9609   6.681   6.565   2.405 -1.4751 -0.8762 -2.4592
 3215TIP3    H2 9610   6.575   6.542   2.511 -0.4203 -1.6029 -1.5357
 3216TIP3   OH2 9611   1.657   5.311   0.854  0.4354 -0.7341  0.5549
 3216TIP3    H1 9612   1.715   5.382   0.883 -0.5912 -0.1898  1.3377
 3216TIP3    H2 9613   1.594   5.302   0.925 -0.4333 -1.3175 -0.2751
 3217TIP3   OH2 9614   3.940   6.257   2.130  0.0562  0.1494 -0.1585
 3217TIP3    H1 9615   3.968   6.295   2.046  0.3536  0.7334  0.2029
 3217TIP3    H2 9616   3.860   6.303   2.152 -0.4919 -0.6013 -0.5341
 3218TIP3   OH2 9617   1.622   1.232   4.457  0.2814 -0.3048  0.0636
 3218TIP3    H1 9618   1.671   1.167   4.507 -0.2873 -1.9735 -1.4757
 3218TIP3    H2 9619   1.537   1.237   4.500  0.4041 -0.3901  0.3180
 3219TIP3   OH2 9620   2.085   2.913   3.588  0.0108  0.3150 -0.8869
 3219TIP3    H1 9621   2.010   2.889   3.642  0.9437 -0.5535  0.0885
 3219TIP3    H2 9622   2.083   3.009   3.585  0.5091  0.4906  1.6743
 3220TIP3   OH2 9623   4.294   3.272   5.457  0.0172  0.3279 -0.1753
 3220TIP3    H1 9624   4.376   3.321   5.457  0.6037 -0.6173  0.2163
 3220TIP3    H2 9625   4.321   3.180   5.457 -1.0355 -0.0025  0.2911
 3221TIP3   OH2 9626   5.911   5.942   1.364 -0.3082 -0.0655 -0.2961
 3221TIP3    H1 9627   5.861   5.862   1.374 -1.6590  0.7623 -0.2156
 3221TIP3    H2 9628   5.953   5.934   1.278 -1.7037 -0.1878 -0.9845
 3222TIP3   OH2 9629   3.356   5.377   4.341 -0.5464  0.7197 -0.3884
 3222TIP3    H1 9630   3.436   5.429   4.342 -0.4654  0.5940  0.7633
 3222TIP3    H2 9631   3.318   5.393   4.255  2.4914 -1.9605 -2.4839
 3223TIP3   OH2 9632   5.269   1.460   4.704 -0.2348 -0.5083  0.7393
 3223TIP3    H1 9633   5.192   1.476   4.650  0.8074 -1.6236 -1.2108
 3223TIP3    H2 9634   5.234   1.424   4.785 -1.8471  0.8761  0.7201
 3224TIP3   OH2 9635   5.359   5.145   1.703  0.1152  0.3703 -0.3855
 3224TIP3    H1 9636   5.314   5.157   1.787 -1.0569 -1.2727 -0.7464
 3224TIP3    H2 9637   5.327   5.217   1.648 -0.3966  0.4749  0.0428
 3225TIP3   OH2 9638   4.028   4.355   4.813 -0.0759 -0.1531  0.5630
 3225TIP3    H1 9639   4.003   4.276   4.861  0.5067 -1.5323 -1.2598
 3225TIP3    H2 9640   4.121   4.342   4.792  0.3885  1.6347  1.2754
 3226TIP3   OH2 9641   1.552   4.059   5.209 -0.0340  0.0935  0.0653
 3226TIP3    H1 9642   1.558   3.969   5.177  0.8296 -0.6404  2.1391
 3226TIP3    H2 9643   1.459   4.081   5.199 -0.3689 -1.2319  0.0232
 3227TIP3   OH2 9644   3.603   1.529   0.829  0.5202  0.0699  0.4216
 3227TIP3    H1 9645   3.668   1.599   0.825  1.2302 -0.5480  0.9758
 3227TIP3    H2 9646   3.596   1.507   0.921 -2.0119  1.5015  0.6903
 3228TIP3   OH2 9647   2.705   4.714   5.511  0.3049 -0.2884  0.2057
 3228TIP3    H1 9648   2.636   4.660   5.551  0.3035  0.6389  1.5249
 3228TIP3    H2 9649   2.766   4.731   5.583 -0.4924  2.7587  0.3076
 3229TIP3   OH2 9650   6.507   6.096   2.066 -0.1761  0.1218  0.3050
 3229TIP3    H1 9651   6.534   6.029   2.129 -3.3349 -1.4528  0.2318
 3229TIP3    H2 9652   6.463   6.162   2.119 -1.6064 -0.5160 -0.0221
 3230TIP3   OH2 9653   2.896   2.902   2.144  0.1190  0.5752  0.2992
 3230TIP3    H1 9654   2.890   2.934   2.234 -2.4563  1.5606 -0.1239
 3230TIP3    H2 9655   2.898   2.982   2.090 -0.5332  0.0206 -0.5786
 3231TIP3   OH2 9656   6.223   4.853   1.332  0.2856  0.5836 -0.8951
 3231TIP3    H1 9657   6.155   4.920   1.328  0.8160  1.3535  1.4225
 3231TIP3    H2 9658   6.178   4.772   1.305 -1.7986  0.9224  1.1822
 3232TIP3   OH2 9659   5.620   5.458   5.442 -0.2197 -0.5848  0.0483
 3232TIP3    H1 9660   5.671   5.504   5.375 -2.3085 -0.1390 -1.3385
 3232TIP3    H2 9661   5.598   5.374   5.401 -2.3572  0.0886 -0.2905
 3233TIP3   OH2 9662   0.280   5.358   3.860 -0.0389  0.1028  0.1795
 3233TIP3    H1 9663   0.232   5.292   3.810  1.1727 -0.4858 -0.2413
 3233TIP3    H2 9664   0.345   5.307   3.910  0.6089  0.9303  0.1963
 3234TIP3   OH2 9665   3.712   5.819   4.043  0.2061 -0.4827 -0.0246
 3234TIP3    H1 9666   3.649   5.887   4.067 -1.4474 -1.6765 -0.7219
 3234TIP3    H2 9667   3.751   5.792   4.126  1.0855  1.4373  0.2348
 3235TIP3   OH2 9668   5.803   1.595   0.024 -0.0337  0.0133 -0.3817
 3235TIP3    H1 9669   5.751   1.522   0.057  2.3672 -2.0070 -0.8116
 3235TIP3    H2 9670   5.872   1.608   0.089 -0.4741  2.0446 -0.2510
 3236TIP3   OH2 9671   5.812   0.177   4.883  0.6501 -1.0293  0.4785
 3236TIP3    H1 9672   5.825   0.258   4.932  1.4039 -0.5081 -0.5505
 3236TIP3    H2 9673   5.722   0.152   4.901  0.6224 -0.3335  1.3532
 3237TIP3   OH2 9674   3.587   1.464   1.109 -0.1103 -0.3276 -0.5908
 3237TIP3    H1 9675   3.571   1.527   1.178 -0.1181 -0.1612 -0.7438
 3237TIP3    H2 9676   3.678   1.437   1.121 -0.0035 -0.0362 -0.7269
 3238TIP3   OH2 9677   7.001   4.109   2.489 -0.2422 -0.3574 -0.3246
 3238TIP3    H1 9678   7.000   4.161   2.409  0.1360  1.3856  0.7436
 3238TIP3    H2 9679   7.089   4.071   2.492  0.0580  0.3276 -0.2812
 3239TIP3   OH2 9680   0.239   3.613   1.881  0.1476 -0.1712  0.7572
 3239TIP3    H1 9681   0.248   3.584   1.972  2.3629 -0.5005  0.4809
 3239TIP3    H2 9682   0.159   3.570   1.851  0.6298 -1.9795  1.8683
 3240TIP3   OH2 9683   0.176   6.708   4.997 -0.3767 -0.0897  0.0988
 3240TIP3    H1 9684   0.132   6.640   5.046 -0.0283  0.3090  0.9796
 3240TIP3    H2 9685   0.106   6.765   4.965 -0.5018  1.0930  2.3011
 3241TIP3   OH2 9686   6.993   6.716   1.050  0.3070 -0.1802  0.0413
 3241TIP3    H1 9687   6.958   6.697   1.137  1.7525  1.2542  1.0029
 3241TIP3    H2 9688   7.053   6.644   1.032  1.2813  0.3438  1.0268
 3242TIP3   OH2 9689   5.057   5.071   4.668  0.2525  0.1743  0.6867
 3242TIP3    H1 9690   5.151   5.056   4.678  0.2744 -0.3324 -0.2126
 3242TIP3    H2 9691   5.017   5.022   4.739  0.6359  0.0031  0.7849
 3243TIP3   OH2 9692   0.676   4.522   1.497 -0.0301 -0.5347 -0.0305
 3243TIP3    H1 9693   0.763   4.484   1.485  0.6033  1.2700 -1.6483
 3243TIP3    H2 9694   0.692   4.606   1.540 -0.7517  0.6754 -2.0145
 3244TIP3   OH2 9695   6.715   3.431   4.126  0.7274 -0.1710  0.7254
 3244TIP3    H1 9696   6.667   3.447   4.207  0.3280 -0.0975  0.4729
 3244TIP3    H2 9697   6.649   3.400   4.064  1.3534 -2.3018  1.0345
 3245TIP3   OH2 9698   4.472   2.601   0.758 -0.1745 -0.2202  0.1189
 3245TIP3    H1 9699   4.558   2.560   0.762 -0.0519 -0.1354 -1.2420
 3245TIP3    H2 9700   4.430   2.563   0.681 -0.4388  1.4517 -0.6153
 3246TIP3   OH2 9701   1.517   2.562   5.337 -0.3014  0.2029  0.0973
 3246TIP3    H1 9702   1.515   2.551   5.242 -1.4612 -0.5933  0.2036
 3246TIP3    H2 9703   1.534   2.474   5.372  1.1592  0.6565  0.6108
 3247TIP3   OH2 9704   4.194   5.809   1.523  0.3732 -0.1892 -0.0667
 3247TIP3    H1 9705   4.228   5.894   1.495  1.0510 -0.9221 -1.5259
 3247TIP3    H2 9706   4.204   5.809   1.618  2.1552  0.6053 -0.2298
 3248TIP3   OH2 9707   3.249   2.918   2.046  0.3962  0.4548  0.5966
 3248TIP3    H1 9708   3.279   2.831   2.073 -0.0389  0.0404 -0.2178
 3248TIP3    H2 9709   3.203   2.952   2.123 -1.1375 -0.8462  0.2964
 3249TIP3   OH2 9710   1.964   6.652   0.715  0.6693 -0.0562  0.3862
 3249TIP3    H1 9711   1.974   6.592   0.789  0.2151 -0.0190  0.4844
 3249TIP3    H2 9712   2.032   6.718   0.727  0.3639  0.1605  0.9848
 3250TIP3   OH2 9713   6.054   1.278   1.357  0.5004  0.0063  0.0892
 3250TIP3    H1 9714   6.024   1.282   1.266 -0.8719 -0.5630  0.4855
 3250TIP3    H2 9715   6.125   1.214   1.355  2.2524  1.8511 -0.9874
 3251TIP3   OH2 9716   7.113   5.636   4.069 -0.0084 -0.4275 -0.0140
 3251TIP3    H1 9717   7.158   5.642   3.985 -1.3230 -2.5635 -0.9410
 3251TIP3    H2 9718   7.153   5.560   4.112 -1.6352 -1.4236 -0.2085
 3252TIP3   OH2 9719   5.591   4.310   3.248 -0.0406 -0.2391 -0.4145
 3252TIP3    H1 9720   5.587   4.331   3.341  1.1288  1.0107 -0.5940
 3252TIP3    H2 9721   5.526   4.368   3.208  0.8505  0.6998 -0.5563
 3253TIP3   OH2 9722   2.433   5.734   4.812 -0.0390 -0.3166  0.2913
 3253TIP3    H1 9723   2.528   5.746   4.807 -0.2095  0.4293 -1.7353
 3253TIP3    H2 9724   2.414   5.665   4.748 -1.1121  1.3083 -1.2176
 3254TIP3   OH2 9725   5.872   5.523   3.922  0.3229 -0.1121  0.2690
 3254TIP3    H1 9726   5.964   5.519   3.949  0.2956 -0.8275  0.2923
 3254TIP3    H2 9727   5.842   5.432   3.927 -0.7195  0.2693  1.4105
 3255TIP3   OH2 9728   2.406   4.204   3.671  0.1428  0.2334 -0.1183
 3255TIP3    H1 9729   2.429   4.294   3.697  0.3039  1.0937 -2.8824
 3255TIP3    H2 9730   2.325   4.185   3.719  0.2504  1.7774  0.7311
 3256TIP3   OH2 9731   5.272   0.247   3.414 -0.0529 -0.3932  0.6323
 3256TIP3    H1 9732   5.236   0.219   3.330 -0.5886 -0.8103  0.9974
 3256TIP3    H2 9733   5.199   0.243   3.475 -0.5199  3.0309  0.4811
 3257TIP3   OH2 9734   0.550   4.588   0.233 -0.0126  0.2436 -0.1477
 3257TIP3    H1 9735   0.624   4.527   0.231 -0.3926 -0.2333 -0.0832
 3257TIP3    H2 9736   0.589   4.675   0.225  0.5348 -0.0163 -0.3258
 3258TIP3   OH2 9737   1.020   1.087   5.317  0.1089  0.5551  0.1279
 3258TIP3    H1 9738   0.956   1.016   5.314 -1.9948  2.3880 -2.2796
 3258TIP3    H2 9739   1.092   1.056   5.262 -0.6240  0.1124 -0.6166
 3259TIP3   OH2 9740   1.847   3.802   0.496  0.6773  0.6940 -0.5960
 3259TIP3    H1 9741   1.802   3.781   0.414  1.7978  0.9759 -1.3025
 3259TIP3    H2 9742   1.901   3.726   0.515  0.3532  0.5903 -0.0542
 3260TIP3   OH2 9743   3.652   0.487   2.455 -0.2067 -0.2411 -0.0581
 3260TIP3    H1 9744   3.711   0.488   2.379 -0.7384 -1.2414 -0.5008
 3260TIP3    H2 9745   3.702   0.531   2.524 -0.4903  2.5851 -1.5135
 3261TIP3   OH2 9746   1.221   2.802   0.495 -0.3593 -0.0891 -0.0929
 3261TIP3    H1 9747   1.270   2.863   0.439  0.4924 -2.0520 -1.6486
 3261TIP3    H2 9748   1.288   2.756   0.545 -0.9135 -0.2396  0.5243
 3262TIP3   OH2 9749   2.452   5.660   2.577 -0.3215 -0.1541  0.6082
 3262TIP3    H1 9750   2.466   5.743   2.623 -0.9055 -0.4507  1.3463
 3262TIP3    H2 9751   2.432   5.597   2.647 -1.9128 -0.4704 -0.0887
 3263TIP3   OH2 9752   5.392   5.558   1.729  0.2195  0.1638 -0.0805
 3263TIP3    H1 9753   5.339   5.636   1.746  1.4824  0.9330  0.4729
 3263TIP3    H2 9754   5.382   5.504   1.807 -0.7436 -0.3150 -0.5090
 3264TIP3   OH2 9755   1.242   4.758   3.570  0.3572  0.3168  0.5934
 3264TIP3    H1 9756   1.229   4.686   3.630  1.6259  0.8450  1.5407
 3264TIP3    H2 9757   1.235   4.719   3.483 -0.9444 -0.5530  1.0607
 3265TIP3   OH2 9758   3.710   3.047   2.139  0.1236 -0.1733  0.5605
 3265TIP3    H1 9759   3.746   3.127   2.100  0.7887  0.3090  2.0802
 3265TIP3    H2 9760   3.618   3.068   2.156 -0.7109 -1.0007 -2.2336
 3266TIP3   OH2 9761   4.709   2.337   2.995  0.3987  0.1864  0.0015
 3266TIP3    H1 9762   4.715   2.243   3.011 -0.4355  0.3671  1.5904
 3266TIP3    H2 9763   4.692   2.345   2.901  0.3269 -1.2511 -0.1181
 3267TIP3   OH2 9764   5.289   0.906   3.793  0.0605  0.6230  0.4579
 3267TIP3    H1 9765   5.326   0.823   3.764 -0.1567  0.3252  1.0207
 3267TIP3    H2 9766   5.251   0.944   3.713 -0.3249 -0.0739  0.3026
 3268TIP3   OH2 9767   2.764   0.886  -0.007 -0.4269 -0.2562 -0.3436
 3268TIP3    H1 9768   2.700   0.943   0.035  0.7233  0.3003  0.7168
 3268TIP3    H2 9769   2.842   0.940  -0.017  0.3806 -1.3542 -0.1924
 3269TIP3   OH2 9770   3.863   3.914   1.583  0.1521 -0.5970  0.3172
 3269TIP3    H1 9771   3.941   3.890   1.633  0.4435  0.0337  0.1854
 3269TIP3    H2 9772   3.898   3.955   1.504 -0.2596  2.2349  1.4832
 3270TIP3   OH2 9773   3.507   3.453   4.346  0.0616 -0.3263  0.0940
 3270TIP3    H1 9774   3.568   3.405   4.289 -0.3433  0.3139 -0.9146
 3270TIP3    H2 9775   3.532   3.545   4.335  0.8918 -0.2760  2.0798
 3271TIP3   OH2 9776   6.263   0.404   3.943  0.2184  0.4178 -0.2513
 3271TIP3    H1 9777   6.196   0.462   3.906 -1.6059 -0.5007  1.4066
 3271TIP3    H2 9778   6.218   0.320   3.955  1.9923 -0.5502 -0.0241
 3272TIP3   OH2 9779   3.083   1.365   3.811 -0.2218 -0.1098 -0.3162
 3272TIP3    H1 9780   3.166   1.318   3.815 -0.1813 -0.0706 -0.7033
 3272TIP3    H2 9781   3.055   1.359   3.720 -1.5607 -1.6871  0.1419
 3273TIP3   OH2 9782   4.015   5.370   4.771 -0.4321 -0.0481 -0.4601
 3273TIP3    H1 9783   4.044   5.323   4.849 -0.3371  1.1558  0.2455
 3273TIP3    H2 9784   3.951   5.433   4.803 -1.2465 -0.3150 -1.5239
 3274TIP3   OH2 9785   6.475   0.082   1.970  0.2229 -0.0930 -0.3023
 3274TIP3    H1 9786   6.514   0.169   1.975  0.6457 -0.3459  1.2202
 3274TIP3    H2 9787   6.384   0.098   1.946  0.3123  0.7636 -0.0936
 3275TIP3   OH2 9788   6.049   4.667   1.240  0.3018  0.0582  0.2549
 3275TIP3    H1 9789   6.037   4.590   1.296  0.8999  0.6260  1.2126
 3275TIP3    H2 9790   6.056   4.633   1.152 -2.2363 -0.7648  0.2925
 3276TIP3   OH2 9791   6.273   0.628   0.843 -0.0179 -0.0151  0.1616
 3276TIP3    H1 9792   6.181   0.611   0.859 -0.2287  0.5344 -0.4249
 3276TIP3    H2 9793   6.319   0.561   0.893 -0.7333 -0.3135  0.4284
 3277TIP3   OH2 9794   2.345   2.858   4.433 -0.4113  0.9128  0.2875
 3277TIP3    H1 9795   2.251   2.843   4.432 -0.3914  0.1838  2.8330
 3277TIP3    H2 9796   2.374   2.839   4.343 -2.6189  0.9309 -0.4814
 3278TIP3   OH2 9797   2.769   6.246   3.620 -0.6516  0.1579  0.0093
 3278TIP3    H1 9798   2.738   6.163   3.656 -1.6878  0.6008  0.1674
 3278TIP3    H2 9799   2.720   6.256   3.538  0.5215 -0.0689 -0.7442
 3279TIP3   OH2 9800   4.710   3.150   5.573  0.4564 -0.2167 -0.6062
 3279TIP3    H1 9801   4.748   3.083   5.517 -0.0196 -0.1867 -0.9703
 3279TIP3    H2 9802   4.783   3.210   5.591  1.3239 -1.6608  1.0434
 3280TIP3   OH2 9803   6.614   2.546   1.209 -0.6105  0.3568  0.4124
 3280TIP3    H1 9804   6.524   2.546   1.242 -0.1500  3.1089  1.9971
 3280TIP3    H2 9805   6.611   2.601   1.131 -0.1886  1.1066  0.9180
 3281TIP3   OH2 9806   6.705   3.922   1.562 -0.6424 -0.7262 -0.3840
 3281TIP3    H1 9807   6.630   3.981   1.560 -1.7317 -2.0341  0.2735
 3281TIP3    H2 9808   6.685   3.860   1.632  0.7411 -1.5115 -0.6477
 3282TIP3   OH2 9809   6.694   3.614   3.545  0.2257  0.0542  0.6937
 3282TIP3    H1 9810   6.601   3.592   3.536  0.7065 -1.6251 -0.7945
 3282TIP3    H2 9811   6.702   3.701   3.506 -0.2838 -1.0145 -2.0076
 3283TIP3   OH2 9812   5.794   5.276   1.652  0.0569  0.2211  0.1466
 3283TIP3    H1 9813   5.844   5.354   1.678 -0.3251  1.3728 -2.2991
 3283TIP3    H2 9814   5.854   5.203   1.668  0.8242  1.1052  1.4893
 3284TIP3   OH2 9815   7.117   5.393   1.639  0.1175 -0.2764 -0.4962
 3284TIP3    H1 9816   7.077   5.434   1.562  0.6691 -1.3683 -1.3818
 3284TIP3    H2 9817   7.124   5.465   1.702  0.8469  0.9669 -1.9163
 3285TIP3   OH2 9818   5.916   1.032   1.717  0.1216  0.2470 -0.1852
 3285TIP3    H1 9819   5.949   1.113   1.676  1.3261 -0.9474 -1.6907
 3285TIP3    H2 9820   5.992   0.997   1.764  0.0538 -0.7672 -0.8115
 3286TIP3   OH2 9821   0.233   3.615   0.354 -0.6535  0.3752  0.1135
 3286TIP3    H1 9822   0.284   3.676   0.301 -0.1557  0.0075  0.1626
 3286TIP3    H2 9823   0.288   3.537   0.360 -1.2022 -0.0055  0.2128
 3287TIP3   OH2 9824   5.644   6.428   4.677  0.1207 -0.7556 -0.0675
 3287TIP3    H1 9825   5.610   6.343   4.650  0.3876 -1.1703  0.8631
 3287TIP3    H2 9826   5.737   6.413   4.693  0.6572  0.2087 -1.9093
 3288TIP3   OH2 9827   6.491   2.314   3.437 -0.2386  0.9283 -0.3327
 3288TIP3    H1 9828   6.521   2.398   3.403  1.1673  1.6562  2.3631
 3288TIP3    H2 9829   6.432   2.337   3.509 -1.2391 -0.4468 -0.6675
 3289TIP3   OH2 9830   4.788   1.321   2.959 -0.1340 -0.1941  0.9670
 3289TIP3    H1 9831   4.860   1.273   2.917 -0.0926 -0.5975  1.4905
 3289TIP3    H2 9832   4.732   1.349   2.886  0.2597 -0.3534  0.5984
 3290TIP3   OH2 9833   0.594   5.873   5.118 -0.1872  0.4476  0.8112
 3290TIP3    H1 9834   0.656   5.839   5.054  0.7945  2.2924  0.6950
 3290TIP3    H2 9835   0.632   5.853   5.203 -1.2085 -1.4940  0.8656
 3291TIP3   OH2 9836   1.558   0.761   0.486 -0.0559 -0.3909  0.0610
 3291TIP3    H1 9837   1.528   0.770   0.576  0.4711 -2.4228  0.4944
 3291TIP3    H2 9838   1.483   0.726   0.439 -0.2225  0.3500 -0.2494
 3292TIP3   OH2 9839   4.650   5.699   0.919  0.0813 -0.0678 -0.3113
 3292TIP3    H1 9840   4.605   5.632   0.970  0.5504 -0.2362 -0.1087
 3292TIP3    H2 9841   4.740   5.697   0.952  0.4529 -0.3620 -1.3233
 3293TIP3   OH2 9842   5.792   2.379   1.487 -0.1398 -0.3830  0.2281
 3293TIP3    H1 9843   5.868   2.335   1.524  0.5525  0.5883  0.0084
 3293TIP3    H2 9844   5.824   2.465   1.461 -1.2175 -0.1049 -0.2642
 3294TIP3   OH2 9845   7.004   0.513   3.571  0.0953 -0.8774 -0.0116
 3294TIP3    H1 9846   6.938   0.527   3.503  1.0072 -0.4350 -0.8451
 3294TIP3    H2 9847   6.954   0.501   3.652 -0.9927 -0.5653 -0.6163
 3295TIP3   OH2 9848   1.914   4.947   0.658  0.5264 -0.0046 -0.6072
 3295TIP3    H1 9849   1.869   4.992   0.730  0.6372  1.4491 -1.4184
 3295TIP3    H2 9850   1.910   4.855   0.682  1.5626  0.5075  1.8531
 3296TIP3   OH2 9851   2.341   0.125   1.145 -0.3371  0.1096 -0.1052
 3296TIP3    H1 9852   2.353   0.089   1.233 -1.5980  2.9410  1.3325
 3296TIP3    H2 9853   2.275   0.068   1.104 -0.7431 -0.4369  1.2678
 3297TIP3   OH2 9854   0.765   2.758   5.777 -0.7543 -0.0807  0.0430
 3297TIP3    H1 9855   0.817   2.833   5.750 -0.9211  0.5066  1.2780
 3297TIP3    H2 9856   0.815   2.719   5.849 -2.3250  0.9624  1.7973
 3298TIP3   OH2 9857   6.050   3.366   4.174 -0.0183  0.4731 -0.0434
 3298TIP3    H1 9858   5.987   3.402   4.113  0.6488  0.9000 -0.4935
 3298TIP3    H2 9859   6.019   3.277   4.192 -0.1536  0.2956 -1.0976
 3299TIP3   OH2 9860   0.800   5.993   3.772  0.1808  0.2847  0.1356
 3299TIP3    H1 9861   0.720   6.001   3.719 -0.2422 -0.3959  0.6455
 3299TIP3    H2 9862   0.790   5.909   3.817  0.7988  0.5789  0.8412
 3300TIP3   OH2 9863   5.655   0.154   3.883  0.6773 -0.3826 -0.1532
 3300TIP3    H1 9864   5.696   0.232   3.921 -0.4189  0.7837 -1.2939
 3300TIP3    H2 9865   5.674   0.084   3.946  0.5441  1.0704  1.5617
 3301TIP3   OH2 9866   6.994   6.245   3.066  0.6874  0.1040 -0.2736
 3301TIP3    H1 9867   6.944   6.324   3.045 -1.1714 -0.3240  2.1212
 3301TIP3    H2 9868   7.081   6.260   3.028 -0.0685  2.6121 -1.1725
 3302TIP3   OH2 9869   1.821   4.871   3.992  0.1831  0.4831 -0.0475
 3302TIP3    H1 9870   1.797   4.957   3.960 -0.2550  0.9790  1.5297
 3302TIP3    H2 9871   1.915   4.877   4.009  0.6323 -0.0940 -2.0760
 3303TIP3   OH2 9872   2.007   4.631   4.830 -0.3812 -0.2357 -0.0061
 3303TIP3    H1 9873   1.989   4.563   4.894 -0.0908 -0.8989 -0.6153
 3303TIP3    H2 9874   1.996   4.588   4.745  0.9612  0.1598 -0.4074
 3304TIP3   OH2 9875   2.980   4.909   5.322 -0.0483  0.4626 -0.1478
 3304TIP3    H1 9876   2.921   4.984   5.313  1.5067  1.9064  1.0209
 3304TIP3    H2 9877   3.035   4.913   5.244  0.1504  0.6556  0.0010
 3305TIP3   OH2 9878   2.524   5.896   2.670  0.2332 -0.0625  0.3587
 3305TIP3    H1 9879   2.617   5.896   2.694 -0.0088  0.8125  1.3604
 3305TIP3    H2 9880   2.480   5.941   2.743 -0.7968  0.8409 -0.7820
 3306TIP3   OH2 9881   4.812   2.717   2.442  0.1563  0.9879  0.5340
 3306TIP3    H1 9882   4.757   2.657   2.392 -0.5163  1.0043  1.2315
 3306TIP3    H2 9883   4.769   2.802   2.434  0.3184  1.0898  0.7183
 3307TIP3   OH2 9884   2.153   0.397   0.188 -0.2028 -0.0912 -0.0455
 3307TIP3    H1 9885   2.200   0.449   0.253 -1.3406 -0.8985  1.5293
 3307TIP3    H2 9886   2.121   0.460   0.124 -0.3037  0.9601  1.0101
 3308TIP3   OH2 9887   4.744   3.207   1.719  0.2041 -0.3892  0.7132
 3308TIP3    H1 9888   4.758   3.127   1.667  0.1717 -0.1666  0.3599
 3308TIP3    H2 9889   4.826   3.218   1.768  0.7290  0.0983 -0.2504
 3309TIP3   OH2 9890   4.048   3.223   3.472 -0.7519 -0.7560 -0.3971
 3309TIP3    H1 9891   4.010   3.291   3.416 -0.2973 -0.1700 -0.0089
 3309TIP3    H2 9892   4.023   3.141   3.430 -0.4803 -0.3329 -1.4206
 3310TIP3   OH2 9893   1.430   5.701   4.163 -0.2600  0.6932 -0.5526
 3310TIP3    H1 9894   1.488   5.679   4.236  0.1430  1.5800 -0.5862
 3310TIP3    H2 9895   1.450   5.793   4.144 -1.0740  0.7605 -1.1286
 3311TIP3   OH2 9896   0.389   0.774   4.193 -0.6113  0.0238  0.3996
 3311TIP3    H1 9897   0.430   0.833   4.130 -0.3070 -2.1377 -1.5618
 3311TIP3    H2 9898   0.462   0.740   4.245 -0.3195 -1.0022 -0.6261
 3312TIP3   OH2 9899   2.942  -0.022   4.672  0.0935  0.2306 -0.2413
 3312TIP3    H1 9900   3.006   0.041   4.705 -0.7830  1.4380 -0.7562
 3312TIP3    H2 9901   2.860   0.028   4.666 -1.5046 -1.7765  2.4388
 3313TIP3   OH2 9902   3.651   3.174   5.114  0.4014  0.0471  0.1417
 3313TIP3    H1 9903   3.620   3.243   5.055  0.2765  0.0852  0.2507
 3313TIP3    H2 9904   3.571   3.126   5.138  0.6353 -0.9125 -0.9161
 3314TIP3   OH2 9905   3.170   5.923   2.690  0.3905  0.8887 -0.1705
 3314TIP3    H1 9906   3.094   5.957   2.643 -0.1601  0.7573  0.5993
 3314TIP3    H2 9907   3.176   5.977   2.768 -0.6123 -0.8175  1.1750
 3315TIP3   OH2 9908   1.336   2.476   2.559 -0.0555 -0.5091 -0.3431
 3315TIP3    H1 9909   1.384   2.394   2.549  0.4741 -0.0707 -1.6707
 3315TIP3    H2 9910   1.245   2.454   2.537 -1.0414 -1.7745  4.0074
 3316TIP3   OH2 9911   5.235   6.124   2.632  0.0553 -0.0521  0.3589
 3316TIP3    H1 9912   5.149   6.088   2.612 -0.0059  1.4571 -2.5767
 3316TIP3    H2 9913   5.216   6.211   2.668  0.3437 -0.2260  0.9415
 3317TIP3   OH2 9914   0.260   5.729   2.697 -0.1020 -0.1076 -0.4854
 3317TIP3    H1 9915   0.210   5.722   2.778 -0.4314 -0.3788 -0.7069
 3317TIP3    H2 9916   0.345   5.690   2.718  0.4725  1.4490  0.2423
 3318TIP3   OH2 9917   1.032   5.781   4.748  0.2653 -0.0730  0.0089
 3318TIP3    H1 9918   1.094   5.748   4.813  1.1180  1.5481  0.0590
 3318TIP3    H2 9919   1.004   5.865   4.782  0.3564  0.5878 -1.4628
 3319TIP3   OH2 9920   1.210   3.364   4.299  0.3432 -0.0603 -0.1057
 3319TIP3    H1 9921   1.224   3.323   4.214 -0.1788  3.4764 -2.1274
 3319TIP3    H2 9922   1.127   3.412   4.289 -0.8892 -1.1525  3.2023
 3320TIP3   OH2 9923   2.789   4.708   1.817 -0.1479 -0.0053 -0.1819
 3320TIP3    H1 9924   2.884   4.702   1.807  0.1615  2.8913  0.2115
 3320TIP3    H2 9925   2.776   4.724   1.910 -1.0611 -0.4918 -0.2145
 3321TIP3   OH2 9926   0.367   0.112   1.382  0.0767 -0.2910  0.0021
 3321TIP3    H1 9927   0.394   0.044   1.444  1.9070 -1.1676 -1.6380
 3321TIP3    H2 9928   0.430   0.183   1.395 -1.1308  0.6550  0.9088
 3322TIP3   OH2 9929   2.691   5.615   2.432 -0.3079 -0.2020 -0.1359
 3322TIP3    H1 9930   2.685   5.522   2.409 -1.1269  0.2162 -1.7116
 3322TIP3    H2 9931   2.612   5.632   2.483 -0.3452 -0.2895 -0.1644
 3323TIP3   OH2 9932   3.357   5.636   0.119  0.5176  0.6456 -0.9850
 3323TIP3    H1 9933   3.286   5.578   0.144 -0.1914  2.2822  1.1487
 3323TIP3    H2 9934   3.398   5.594   0.043 -1.3503 -1.4155 -0.9351
 3324TIP3   OH2 9935   6.176   6.233   0.037  0.0401  0.3827  0.4612
 3324TIP3    H1 9936   6.186   6.210  -0.056 -1.1674  0.3886  0.3116
 3324TIP3    H2 9937   6.206   6.324   0.042 -1.0611  0.8133 -0.1992
 3325TIP3   OH2 9938   1.688   4.781   0.569  0.1052  0.9822 -0.0625
 3325TIP3    H1 9939   1.688   4.836   0.491 -0.2599  2.3067  0.8254
 3325TIP3    H2 9940   1.667   4.842   0.640  0.8866 -0.0951  1.1269
 3326TIP3   OH2 9941   1.727   6.173   0.394  0.0427 -0.3503 -0.2037
 3326TIP3    H1 9942   1.674   6.206   0.467  0.4805  0.0125 -0.0426
 3326TIP3    H2 9943   1.738   6.249   0.337  2.5499  0.3355  1.0427
 3327TIP3   OH2 9944   6.381   4.443   5.760  0.5571  0.3802 -0.0111
 3327TIP3    H1 9945   6.384   4.350   5.785  2.1709  0.5940  0.7141
 3327TIP3    H2 9946   6.386   4.442   5.665 -0.2446 -0.2906 -0.0588
 3328TIP3   OH2 9947   3.829   2.069   2.557  0.2236  0.4724 -0.4883
 3328TIP3    H1 9948   3.765   2.139   2.564  0.9423  1.0221  1.0126
 3328TIP3    H2 9949   3.836   2.033   2.645 -0.9042 -2.2570 -1.3970
 3329TIP3   OH2 9950   1.987   1.502   0.081  0.6190 -0.3832 -0.1213
 3329TIP3    H1 9951   1.989   1.551  -0.001  1.0046  0.3280  0.3051
 3329TIP3    H2 9952   2.052   1.433   0.069  0.0023 -0.8730 -0.7616
 3330TIP3   OH2 9953   5.482   2.366   2.967  0.2356 -0.2035 -0.4583
 3330TIP3    H1 9954   5.393   2.389   2.996 -0.1104 -2.4597  0.4570
 3330TIP3    H2 9955   5.468   2.310   2.891  1.0011  1.0620 -1.5903
 3331TIP3   OH2 9956   4.379   5.683   2.420  0.2979  0.8196 -0.5508
 3331TIP3    H1 9957   4.448   5.734   2.378  1.0135  1.4888  1.3200
 3331TIP3    H2 9958   4.420   5.597   2.435  0.6732  1.1501  0.3695
 3332TIP3   OH2 9959   4.308   3.779   1.111 -0.7313  0.1521 -0.1389
 3332TIP3    H1 9960   4.356   3.700   1.136 -0.5106  0.8553  1.8060
 3332TIP3    H2 9961   4.371   3.850   1.122 -1.4195  0.7825 -0.1835
 3333TIP3   OH2 9962   2.339   3.230   3.679 -0.5859 -0.5547  0.1150
 3333TIP3    H1 9963   2.377   3.302   3.730  0.3601 -0.6037 -0.4949
 3333TIP3    H2 9964   2.245   3.247   3.682 -0.3154  1.7777 -1.5089
 3334TIP3   OH2 9965   1.058   2.924   2.159 -0.2619  0.1076 -0.1803
 3334TIP3    H1 9966   1.104   2.846   2.128  0.7067  1.1738 -1.5216
 3334TIP3    H2 9967   1.006   2.953   2.085  1.7647  2.4502 -0.8103
 3335TIP3   OH2 9968   3.073   3.512   3.982  0.1458 -0.1493 -0.3430
 3335TIP3    H1 9969   3.000   3.450   3.977  1.2204 -1.4947  0.0192
 3335TIP3    H2 9970   3.129   3.478   4.051  1.2868  0.6647 -0.8365
 3336TIP3   OH2 9971   4.579   0.477   3.094 -0.2716 -0.0068  0.3379
 3336TIP3    H1 9972   4.507   0.440   3.145 -0.2451  0.2359  0.5546
 3336TIP3    H2 9973   4.541   0.555   3.053  0.3220  1.1197  1.8399
 3337TIP3   OH2 9974   2.881   1.066   5.005 -0.3944  0.1611  0.0462
 3337TIP3    H1 9975   2.851   0.976   5.021  1.5743 -0.3453  1.1467
 3337TIP3    H2 9976   2.964   1.056   4.959 -0.6273  1.4571 -0.6885
 3338TIP3   OH2 9977   5.761   1.103   3.736  0.0959 -0.3463  0.3394
 3338TIP3    H1 9978   5.797   1.023   3.698 -0.0720  0.3003 -1.2874
 3338TIP3    H2 9979   5.667   1.085   3.746 -0.7847  0.8321 -3.7722
 3339TIP3   OH2 9980   0.347   6.135   2.955 -0.2712 -0.2353 -0.1782
 3339TIP3    H1 9981   0.341   6.199   3.026 -0.2073 -0.3567 -0.0620
 3339TIP3    H2 9982   0.393   6.061   2.994  1.4720  0.4284 -0.8567
 3340TIP3   OH2 9983   5.426   0.108   1.784  0.2393 -0.7906 -0.1823
 3340TIP3    H1 9984   5.463   0.031   1.741  0.5861 -0.9429  0.3709
 3340TIP3    H2 9985   5.480   0.119   1.862 -1.4665 -1.6151  1.2043
 3341TIP3   OH2 9986   3.600   0.609   5.391  0.0560  0.4838 -0.2055
 3341TIP3    H1 9987   3.590   0.556   5.470 -1.0376  0.6646 -0.2046
 3341TIP3    H2 9988   3.645   0.688   5.421  1.8685 -0.4770 -0.2411
 3342TIP3   OH2 9989   2.721   2.363   2.369 -0.3365 -0.1478  0.4350
 3342TIP3    H1 9990   2.637   2.331   2.337 -0.2033  1.8068 -2.2399
 3342TIP3    H2 9991   2.781   2.289   2.359 -1.5895 -1.4346  1.9791
 3343TIP3   OH2 9992   1.345   2.435   1.012  0.2910  0.6467  0.1985
 3343TIP3    H1 9993   1.306   2.432   0.924 -0.5121 -3.5825  0.4713
 3343TIP3    H2 9994   1.283   2.485   1.064  0.4789  2.7207 -1.4160
 3344TIP3   OH2 9995   6.044   3.659   5.487  0.4884 -0.4340 -0.6638
 3344TIP3    H1 9996   6.037   3.707   5.404 -0.1645  1.0060  0.1887
 3344TIP3    H2 9997   5.963   3.608   5.492  0.6656 -0.7584 -1.0431
 3345TIP3   OH2 9998   3.732   4.986   0.223  0.4116 -0.3555  0.1291
 3345TIP3    H1 9999   3.740   4.900   0.181  0.1357  0.0948 -0.8690
 3345TIP3    H210000   3.801   4.987   0.290  1.1289 -0.9369 -0.5956
 3346TIP3   OH210001   0.991   4.767   4.846 -0.1451  0.5047 -0.3770
 3346TIP3    H110002   1.042   4.849   4.841 -0.6705  0.7882 -1.2640
 3346TIP3    H210003   0.900   4.795   4.844 -0.3351 -0.1379 -1.5682
 3347TIP3   OH210004   2.920   4.111   0.940  0.2276  0.3069 -0.0538
 3347TIP3    H110005   2.984   4.095   1.010 -0.6632 -0.3185  0.6330
 3347TIP3    H210006   2.943   4.047   0.873 -0.5097 -0.8570  0.7739
 3348TIP3   OH210007   6.356   4.782   3.155  0.3894  0.0572 -0.1627
 3348TIP3    H110008   6.348   4.859   3.099 -0.3879 -0.6662 -1.0843
 3348TIP3    H210009   6.265   4.757   3.174  0.5699  1.2338  2.8243
 3349TIP3   OH210010   5.323   2.912   2.071 -0.0920  0.8523 -0.0424
 3349TIP3    H110011   5.385   2.839   2.074 -0.0034  0.9354  2.8285
 3349TIP3    H210012   5.247   2.877   2.024  1.2513  0.0829 -1.7639
 3350TIP3   OH210013   0.859   3.466   1.302  0.0427  0.1017  0.2891
 3350TIP3    H110014   0.787   3.466   1.366 -0.7958 -2.3752 -0.5454
 3350TIP3    H210015   0.937   3.449   1.355  0.2230  3.2433  1.2669
 3351TIP3   OH210016   1.671   1.423   1.043 -0.0803  0.4310  0.3750
 3351TIP3    H110017   1.584   1.392   1.068  0.2100 -1.0240 -0.3162
 3351TIP3    H210018   1.709   1.351   0.993  1.6681  0.8907  0.9643
 3352TIP3   OH210019   3.000   1.550   2.952  0.2220  0.2373 -0.1262
 3352TIP3    H110020   2.956   1.504   3.024 -0.3630 -0.1036 -0.6851
 3352TIP3    H210021   2.985   1.642   2.970 -0.3598  0.1378 -0.0807
 3353TIP3   OH210022   2.146   2.601   4.964  0.3764 -0.8140  0.7643
 3353TIP3    H110023   2.197   2.572   4.889  1.3564  0.7736  0.7542
 3353TIP3    H210024   2.064   2.551   4.959  0.9448 -1.6604 -0.6110
 3354TIP3   OH210025   3.670   2.739   3.924 -0.8185  0.4877  0.1788
 3354TIP3    H110026   3.578   2.725   3.901 -0.7384 -1.0717  0.6608
 3354TIP3    H210027   3.679   2.699   4.011  0.2592  0.8105  0.2316
 3355TIP3   OH210028   2.155   6.313   0.850  0.5359  0.1241  0.1420
 3355TIP3    H110029   2.243   6.328   0.884  1.1909 -0.5940 -1.1376
 3355TIP3    H210030   2.106   6.392   0.873  2.0391  1.3813 -0.7520
 3356TIP3   OH210031   1.621   2.943   0.435  0.5002  0.2405 -0.1767
 3356TIP3    H110032   1.708   2.903   0.444  0.8163  0.0859 -2.9353
 3356TIP3    H210033   1.639   3.032   0.406 -0.2735  0.9687  1.4897
 3357TIP3   OH210034   4.334   4.274   4.740  0.2874  0.0273  0.2314
 3357TIP3    H110035   4.306   4.223   4.664  1.0659 -0.2157  0.0992
 3357TIP3    H210036   4.368   4.355   4.703 -1.8718  1.1042  0.4995
 3358TIP3   OH210037   0.659   6.121   5.378  0.0377 -0.3158 -0.7780
 3358TIP3    H110038   0.719   6.062   5.423  0.8740  0.8217 -0.3500
 3358TIP3    H210039   0.571   6.090   5.403  0.4351 -1.7587 -1.1012
 3359TIP3   OH210040   0.980   1.000   4.917  0.1605  0.0762  0.0014
 3359TIP3    H110041   0.904   1.035   4.963 -0.7005 -0.1388 -1.1935
 3359TIP3    H210042   1.055   1.025   4.971 -0.8073 -0.3850  1.6228
 3360TIP3   OH210043   0.182   2.939   5.160  0.1429 -0.9864  0.1382
 3360TIP3    H110044   0.219   2.967   5.077  0.6484 -0.6268  0.4756
 3360TIP3    H210045   0.127   2.864   5.139  0.1522 -0.8025 -0.5369
 3361TIP3   OH210046   5.942   3.148   4.009 -0.1878  0.2319  0.5784
 3361TIP3    H110047   6.033   3.149   3.978 -0.4413 -0.5871 -0.2220
 3361TIP3    H210048   5.889   3.159   3.930 -0.8215 -0.6677  0.8616
 3362TIP3   OH210049   2.741   1.009   3.568 -0.1147  0.1759 -0.3256
 3362TIP3    H110050   2.810   0.991   3.632 -2.7369 -0.5731  2.5416
 3362TIP3    H210051   2.695   0.926   3.557 -0.5498  0.6132 -2.2510
 3363TIP3   OH210052   4.040   5.316   2.097  0.4871 -0.2434  0.0660
 3363TIP3    H110053   4.055   5.325   2.003  3.4970 -1.2060  0.3481
 3363TIP3    H210054   4.012   5.404   2.125  1.1000  0.4887 -1.4858
 3364TIP3   OH210055   2.437   2.344   3.836 -0.0164 -0.0861 -0.1015
 3364TIP3    H110056   2.377   2.418   3.822 -2.0093 -1.6089  0.0274
 3364TIP3    H210057   2.463   2.318   3.748 -0.6917 -0.3116 -0.2385
 3365TIP3   OH210058   2.467   0.900   0.984 -0.4589 -0.1038  0.0179
 3365TIP3    H110059   2.561   0.882   0.983 -0.7356 -1.6611 -0.7949
 3365TIP3    H210060   2.456   0.965   1.053  1.0826 -0.6760  0.8569
 3366TIP3   OH210061   0.118   3.858   2.832 -0.0028 -0.5440 -0.2940
 3366TIP3    H110062   0.097   3.948   2.858 -0.3590 -0.8804  0.6265
 3366TIP3    H210063   0.143   3.814   2.914  1.9110 -0.8305 -0.9783
 3367TIP3   OH210064   6.944   2.034   4.890  0.1839  0.4915 -0.0223
 3367TIP3    H110065   6.927   1.947   4.924  0.5608  0.1773 -0.6291
 3367TIP3    H210066   6.923   2.029   4.797  0.8397  0.8612 -0.2034
 3368TIP3   OH210067   2.154   4.668   2.713 -0.0464  0.5409 -0.3780
 3368TIP3    H110068   2.068   4.709   2.722 -0.9560 -0.7401 -2.5861
 3368TIP3    H210069   2.167   4.660   2.618  1.5550 -1.2224 -0.0684
 3369TIP3   OH210070   6.747   4.641   5.668  0.4405  0.3307 -0.5693
 3369TIP3    H110071   6.819   4.590   5.630  1.6415  1.3192  0.3147
 3369TIP3    H210072   6.668   4.596   5.638  1.3649  0.0055 -2.7107
 3370TIP3   OH210073   4.860   5.661   1.104  0.5811 -0.0735  0.5827
 3370TIP3    H110074   4.869   5.569   1.080 -0.4355  0.3108 -1.4658
 3370TIP3    H210075   4.879   5.663   1.198  1.0879 -2.2810  0.5814
 3371TIP3   OH210076   4.103   4.599   3.722  0.6077  0.5596  0.1631
 3371TIP3    H110077   4.186   4.578   3.680  0.8143  0.1751  0.7477
 3371TIP3    H210078   4.064   4.514   3.742 -0.1463  0.7265 -0.5067
 3372TIP3   OH210079   2.601   3.185   1.988  0.5984  0.6506  0.3692
 3372TIP3    H110080   2.583   3.242   1.913  1.4852 -0.3519 -0.6481
 3372TIP3    H210081   2.689   3.151   1.971  0.6626  0.1035  1.6872
 3373TIP3   OH210082   4.362   0.773   2.104  0.2264 -0.1803 -0.1565
 3373TIP3    H110083   4.317   0.836   2.160 -0.3881 -0.0513 -0.7790
 3373TIP3    H210084   4.430   0.735   2.160  1.2173  1.6704 -0.0082
 3374TIP3   OH210085   5.296   6.554   4.044 -0.5418  0.1295 -0.1147
 3374TIP3    H110086   5.259   6.613   3.978 -0.0143  1.6805  0.9180
 3374TIP3    H210087   5.373   6.516   4.001 -0.5033  0.7130 -0.5733
 3375TIP3   OH210088   3.250   0.888   2.667  0.4134  0.1002  0.4197
 3375TIP3    H110089   3.333   0.846   2.646  0.6792  0.8075  0.0052
 3375TIP3    H210090   3.224   0.851   2.751  1.0892 -0.2115  0.4947
 3376TIP3   OH210091   0.663   2.532   2.521  0.2630 -0.1688 -0.2812
 3376TIP3    H110092   0.586   2.494   2.479 -0.3643 -0.1278  0.7938
 3376TIP3    H210093   0.699   2.461   2.574  0.0385  0.2630  0.4606
 3377TIP3   OH210094   3.090   2.039   1.650  0.1573  0.0545  0.0815
 3377TIP3    H110095   3.146   1.981   1.598 -2.6554 -1.4165 -1.5142
 3377TIP3    H210096   3.048   2.096   1.586  0.2023  1.5024  1.2909
 3378TIP3   OH210097   6.582   3.352   1.743  0.5058 -0.0091  1.1707
 3378TIP3    H110098   6.497   3.397   1.744  0.4854 -0.0158  0.2316
 3378TIP3    H210099   6.637   3.404   1.685  1.1003 -0.1121  1.6262
 3379TIP3   OH210100   2.676   4.723   2.818  0.4856  1.0787  0.2714
 3379TIP3    H110101   2.615   4.652   2.796  1.1354  0.7391 -0.4708
 3379TIP3    H210102   2.634   4.769   2.891  0.2588 -0.3507  1.0853
 3380TIP3   OH210103   1.824   4.464   3.776 -0.1671  0.6250 -0.0089
 3380TIP3    H110104   1.743   4.479   3.728  0.2223  1.2818 -0.4760
 3380TIP3    H210105   1.857   4.551   3.796  0.6778  0.3776 -0.2591
 3381TIP3   OH210106   5.604   5.251   2.348 -0.7014  0.5798  0.3944
 3381TIP3    H110107   5.549   5.178   2.321  0.3758  0.4744 -1.6778
 3381TIP3    H210108   5.688   5.236   2.304 -0.0081  2.3422  1.0195
 3382TIP3   OH210109   2.409   6.427   1.574 -0.2162  0.4765 -0.2922
 3382TIP3    H110110   2.406   6.460   1.664 -1.8928 -0.5578  0.0740
 3382TIP3    H210111   2.462   6.491   1.526 -1.0311  2.1607  0.9791
 3383TIP3   OH210112   6.880   2.174   1.049  0.1178  0.4621  0.3205
 3383TIP3    H110113   6.893   2.230   1.126 -0.0959 -1.1271  1.5745
 3383TIP3    H210114   6.968   2.161   1.014  0.1268  1.9268 -0.2891
 3384TIP3   OH210115   5.817   6.236   3.241  0.0118 -1.0785  0.2949
 3384TIP3    H110116   5.828   6.239   3.146  1.4958  2.0073  0.4185
 3384TIP3    H210117   5.884   6.175   3.272 -0.9006 -2.5941 -0.6126
 3385TIP3   OH210118   2.727   0.809   5.341  0.5063 -0.2872  0.0438
 3385TIP3    H110119   2.775   0.848   5.414  0.3521 -1.5423  0.8431
 3385TIP3    H210120   2.707   0.720   5.370  0.3062 -0.7655 -1.4740
 3386TIP3   OH210121   2.090   1.128   0.950  0.0474 -0.2381 -0.0719
 3386TIP3    H110122   2.120   1.147   0.861  0.7412 -0.2504  0.1566
 3386TIP3    H210123   2.114   1.036   0.964  1.9052  0.3376  0.8902
 3387TIP3   OH210124   5.007   1.996   4.383 -0.5110  0.2281 -0.3879
 3387TIP3    H110125   5.036   2.081   4.417 -1.3823  0.3477  0.0950
 3387TIP3    H210126   4.983   1.946   4.461  1.0739 -0.8938 -0.5817
 3388TIP3   OH210127   0.265   1.706   1.690 -0.0806 -0.4378 -0.4102
 3388TIP3    H110128   0.181   1.752   1.686 -0.1735 -0.7069 -2.3091
 3388TIP3    H210129   0.244   1.622   1.731 -0.5088 -0.0547  0.1727
 3389TIP3   OH210130   4.901   3.464   1.165  0.2336 -0.7357  0.4383
 3389TIP3    H110131   4.910   3.439   1.073 -1.8232  0.1856 -0.0708
 3389TIP3    H210132   4.826   3.523   1.166  1.9372  1.5626  2.3192
 3390TIP3   OH210133   0.366   6.361   2.182  0.1265  0.4485  0.2647
 3390TIP3    H110134   0.424   6.369   2.257 -0.0006  2.0897  0.2205
 3390TIP3    H210135   0.359   6.450   2.147  1.4097 -0.4946 -2.6492
 3391TIP3   OH210136   3.446   2.120   4.280 -0.1154 -0.0389  0.2680
 3391TIP3    H110137   3.460   2.213   4.294 -0.6172  0.1037 -0.1288
 3391TIP3    H210138   3.368   2.100   4.332  0.0921 -0.2750  0.4905
 3392TIP3   OH210139   6.481   6.548   3.279  0.3389  0.0162  0.2300
 3392TIP3    H110140   6.506   6.638   3.259  1.6076  0.2622  2.5526
 3392TIP3    H210141   6.393   6.539   3.245  0.3336  2.0167 -0.4061
 3393TIP3   OH210142   5.742   1.552   5.006 -0.5703 -0.6340  0.0257
 3393TIP3    H110143   5.679   1.591   5.067 -1.0250  0.3386 -1.0322
 3393TIP3    H210144   5.693   1.481   4.964 -1.1463  0.3927 -1.1074
 3394TIP3   OH210145   3.554   6.802   1.304  0.0627  0.0505 -0.1689
 3394TIP3    H110146   3.509   6.827   1.385  0.2792 -0.4275  0.0999
 3394TIP3    H210147   3.634   6.759   1.333 -0.6766 -1.7098 -0.5862
 3395TIP3   OH210148   5.257   0.253   4.693  0.2903  0.1455 -1.3770
 3395TIP3    H110149   5.210   0.170   4.702 -0.9810  1.0712  1.1790
 3395TIP3    H210150   5.346   0.233   4.723 -0.1190 -0.2081 -0.3647
 3396TIP3   OH210151   6.866   2.875   5.655 -0.7952  0.5019  0.2036
 3396TIP3    H110152   6.892   2.843   5.742  3.3892  1.1607 -0.5911
 3396TIP3    H210153   6.876   2.970   5.661  1.8645  0.4364 -1.4839
 3397TIP3   OH210154   0.833   1.980   1.565 -0.6755  0.4158  1.0066
 3397TIP3    H110155   0.817   1.913   1.499  0.3487 -0.1907  1.3468
 3397TIP3    H210156   0.783   1.950   1.641 -0.2582  0.0521  1.1423
 3398TIP3   OH210157   4.649   5.926   5.910  0.8710  0.6623 -0.2746
 3398TIP3    H110158   4.740   5.907   5.888  0.1409 -1.5386 -1.7049
 3398TIP3    H210159   4.616   5.975   5.834  0.0275 -1.4983 -1.3923
 3399TIP3   OH210160   4.089   3.075   5.550 -0.1083 -0.5720 -0.1445
 3399TIP3    H110161   4.122   3.156   5.588 -0.9015 -0.8094  1.0993
 3399TIP3    H210162   4.042   3.103   5.471  1.4816 -0.0719 -0.9647
 3400TIP3   OH210163   3.124   3.316   2.533  0.5971 -0.3296  0.3270
 3400TIP3    H110164   3.201   3.360   2.569  0.0312  0.6888  0.3283
 3400TIP3    H210165   3.120   3.233   2.581  0.4353  0.5543  1.9300
 3401TIP3   OH210166   0.184   5.582   1.996 -0.3026  0.1790  0.1339
 3401TIP3    H110167   0.259   5.631   1.962 -0.0086 -0.7895 -0.6551
 3401TIP3    H210168   0.170   5.617   2.084 -0.7736  2.4021 -0.7677
 3402TIP3   OH210169   0.706   0.289   0.871  0.5800  0.3044  0.1101
 3402TIP3    H110170   0.613   0.272   0.864  0.4649  0.5385  0.9655
 3402TIP3    H210171   0.748   0.205   0.851  0.1317 -0.1783  1.1550
 3403TIP3   OH210172   6.390   0.149   4.543  0.0774  0.1962 -0.7803
 3403TIP3    H110173   6.332   0.157   4.467  0.7315  0.9666 -1.2095
 3403TIP3    H210174   6.355   0.211   4.607  1.2962  1.8210 -1.6227
 3404TIP3   OH210175   2.725   0.526   1.051  0.1990  0.1989 -0.5622
 3404TIP3    H110176   2.810   0.533   1.008 -0.4153  1.9898 -1.5966
 3404TIP3    H210177   2.737   0.572   1.135  0.8250 -1.5349  0.3681
 3405TIP3   OH210178   5.610   3.293   0.818 -0.1503 -0.3851 -0.8330
 3405TIP3    H110179   5.680   3.348   0.852 -0.3567 -0.2766 -0.5790
 3405TIP3    H210180   5.605   3.316   0.725 -1.8046  1.8076 -0.3071
 3406TIP3   OH210181   0.549   0.186   2.182  0.0034 -0.1425 -0.3593
 3406TIP3    H110182   0.494   0.265   2.185  0.4621  0.2039 -0.8596
 3406TIP3    H210183   0.531   0.148   2.095  3.4022  2.0961 -2.2616
 3407TIP3   OH210184   7.109   0.041   0.576  0.2393  0.5474 -0.1569
 3407TIP3    H110185   7.145   0.119   0.619 -1.1343 -0.5898  3.3680
 3407TIP3    H210186   7.017   0.062   0.562  0.4015  0.4216 -1.6120
 3408TIP3   OH210187   3.468   3.065   2.244  0.2771  0.0885  0.2111
 3408TIP3    H110188   3.421   3.145   2.264  0.0704  0.0862 -0.2562
 3408TIP3    H210189   3.456   3.010   2.321 -0.5228  0.0716  0.0730
 3409TIP3   OH210190   6.623   2.080   4.936 -0.1202  0.3814 -0.1554
 3409TIP3    H110191   6.637   2.139   4.862  0.3557 -1.5291 -1.6969
 3409TIP3    H210192   6.682   2.111   5.004  3.0116 -0.4631 -2.2771
 3410TIP3   OH210193   4.352   3.257   3.521 -0.0491  0.9334 -0.5315
 3410TIP3    H110194   4.436   3.296   3.547 -0.5809  2.7467 -1.3911
 3410TIP3    H210195   4.375   3.168   3.492  1.2641  0.6764  1.1243
 3411TIP3   OH210196   0.136   2.062   5.717 -0.0521  0.2356  0.0216
 3411TIP3    H110197   0.145   2.065   5.622 -1.6298  0.9506 -0.1323
 3411TIP3    H210198   0.129   2.153   5.744  3.7409  0.3606  1.2749
 3412TIP3   OH210199   6.628   1.400   0.866 -0.4175 -0.1075 -0.2363
 3412TIP3    H110200   6.608   1.375   0.957 -0.9960 -0.1067 -0.3602
 3412TIP3    H210201   6.623   1.319   0.817  0.6007 -0.2300 -0.1584
 3413TIP3   OH210202   4.097   0.106   1.772 -0.1735 -0.0634 -0.0352
 3413TIP3    H110203   4.163   0.080   1.709  0.9224  0.8620  0.6928
 3413TIP3    H210204   4.064   0.190   1.740  0.1864  0.2741  0.4623
 3414TIP3   OH210205   0.750   4.042   4.643 -0.1055  0.2938  0.0478
 3414TIP3    H110206   0.729   4.098   4.569 -0.0492 -0.1622 -0.3195
 3414TIP3    H210207   0.669   4.037   4.694 -0.1578  0.5706 -0.0074
 3415TIP3   OH210208   6.390   2.252   1.267 -0.4287  0.2044 -0.2187
 3415TIP3    H110209   6.413   2.168   1.307 -0.0714 -0.2166 -1.2974
 3415TIP3    H210210   6.452   2.262   1.194 -0.9627  1.0437 -0.5657
 3416TIP3   OH210211   5.708   2.663   5.651 -0.0636  0.3059  0.3963
 3416TIP3    H110212   5.736   2.713   5.573 -0.1288  1.0084  0.8178
 3416TIP3    H210213   5.785   2.665   5.708  0.2066 -0.7597  0.0943
 3417TIP3   OH210214   1.797   0.426   1.915  0.5098  0.6597 -0.5713
 3417TIP3    H110215   1.761   0.509   1.947 -0.4469  0.0744 -0.0872
 3417TIP3    H210216   1.720   0.375   1.891  0.9282 -1.0494  1.4716
 3418TIP3   OH210217   4.775   6.068   1.639 -0.3426  0.4948 -0.1828
 3418TIP3    H110218   4.780   6.128   1.714  0.4555  2.2295 -1.5320
 3418TIP3    H210219   4.783   6.126   1.563 -1.8042 -1.1374 -1.6379
 3419TIP3   OH210220   2.658   1.174   5.233 -0.0556 -0.2839 -0.3533
 3419TIP3    H110221   2.709   1.145   5.309 -0.3055  1.2003  0.4282
 3419TIP3    H210222   2.590   1.231   5.270 -0.9849 -0.5687 -1.5804
 3420TIP3   OH210223   0.642   6.135   5.025 -0.1332 -0.0109  0.3506
 3420TIP3    H110224   0.683   6.115   4.941 -1.7533  1.4171 -0.8518
 3420TIP3    H210225   0.605   6.052   5.054  0.4423 -0.5241 -0.3379
 3421TIP3   OH210226   1.868   1.939   2.238 -0.8868 -0.1888 -0.2285
 3421TIP3    H110227   1.815   1.862   2.219 -0.9613  0.0309 -0.9224
 3421TIP3    H210228   1.875   1.986   2.155  0.5532 -0.3088 -0.2063
 3422TIP3   OH210229   4.283   1.591   0.702  0.1632 -0.0710 -0.0039
 3422TIP3    H110230   4.367   1.637   0.703 -0.0629  0.3595  1.0855
 3422TIP3    H210231   4.248   1.605   0.614  1.5132 -0.7916 -0.6781
 3423TIP3   OH210232   4.882   1.857   5.223 -0.1889  0.7300  0.4997
 3423TIP3    H110233   4.894   1.871   5.129 -2.7579  0.8264  0.1128
 3423TIP3    H210234   4.819   1.923   5.250  0.7990  0.9735  2.4378
 3424TIP3   OH210235   3.735   1.637   3.632  0.1021 -0.2663 -0.8510
 3424TIP3    H110236   3.797   1.630   3.559  0.5256 -0.2237 -0.5003
 3424TIP3    H210237   3.776   1.588   3.703 -0.3882 -0.4484 -0.6950
 3425TIP3   OH210238   4.233   0.974   2.273  0.2001 -0.5915  0.4070
 3425TIP3    H110239   4.204   1.061   2.247  1.2687  0.2068  1.7433
 3425TIP3    H210240   4.248   0.981   2.367  1.2911 -1.9364  0.3623
 3426TIP3   OH210241   2.782   0.783   4.373 -0.1727  0.5178 -0.3715
 3426TIP3    H110242   2.875   0.763   4.388 -0.4632 -0.7743 -0.1988
 3426TIP3    H210243   2.737   0.746   4.450 -0.8397  1.0670 -0.4921
 3427TIP3   OH210244   1.824   0.210   3.549 -0.0644  0.3996 -0.1263
 3427TIP3    H110245   1.791   0.226   3.461  0.9270  0.1015 -0.5631
 3427TIP3    H210246   1.745   0.197   3.602 -0.6547 -0.1142 -1.1030
 3428TIP3   OH210247   3.476   1.984   0.471 -0.3798 -0.1282 -0.2548
 3428TIP3    H110248   3.485   1.917   0.539 -0.4297 -0.4167 -0.5299
 3428TIP3    H210249   3.472   1.935   0.389 -1.8310  0.1268 -0.3649
 3429TIP3   OH210250   1.277   0.391   1.891  0.0472 -0.0077  0.1309
 3429TIP3    H110251   1.213   0.409   1.959  0.8814  0.0945  0.9078
 3429TIP3    H210252   1.253   0.304   1.858 -0.6094  0.1193  0.2683
 3430TIP3   OH210253   6.066   4.281   4.615 -0.1703 -0.1971 -0.3742
 3430TIP3    H110254   6.135   4.342   4.640  0.5672 -1.1492 -0.0192
 3430TIP3    H210255   5.986   4.316   4.654  0.4429 -0.0766  0.7848
 3431TIP3   OH210256   0.044   1.215   3.149 -0.1213  0.5591 -0.5631
 3431TIP3    H110257   0.062   1.303   3.179  0.1746  1.0334 -2.0388
 3431TIP3    H210258  -0.012   1.227   3.072 -0.8654 -0.5834 -0.2336
 3432TIP3   OH210259   0.257   5.586   3.671 -0.2123  0.1289 -0.3988
 3432TIP3    H110260   0.338   5.627   3.701 -1.4072  1.4219  1.3105
 3432TIP3    H210261   0.253   5.504   3.720 -0.5485  0.6933  0.5552
 3433TIP3   OH210262   7.206   3.231   4.114 -0.3833  0.2272  0.3611
 3433TIP3    H110263   7.166   3.298   4.169  0.1229 -0.2993  1.4106
 3433TIP3    H210264   7.142   3.160   4.111 -0.2507  0.0948  0.6073
 3434TIP3   OH210265   1.844   5.122   3.816 -0.2088 -0.4475 -0.6658
 3434TIP3    H110266   1.784   5.168   3.756 -1.2781 -0.7692  0.1437
 3434TIP3    H210267   1.929   5.162   3.798 -1.1310  2.1171  0.2009
 3435TIP3   OH210268   4.659   0.564   4.322  0.4455  0.2226 -0.5715
 3435TIP3    H110269   4.635   0.563   4.230  0.2957  2.4440 -0.6047
 3435TIP3    H210270   4.755   0.574   4.322  0.4767 -0.0798 -0.4890
 3436TIP3   OH210271   4.892   2.749   4.616 -0.1374 -0.3197 -0.2218
 3436TIP3    H110272   4.857   2.678   4.669 -0.9235 -1.9790 -2.7773
 3436TIP3    H210273   4.846   2.827   4.646 -0.4841 -1.1465  1.5164
 3437TIP3   OH210274   1.478   2.990   4.483  0.0462  0.1909 -0.3650
 3437TIP3    H110275   1.389   3.006   4.454 -0.6150 -1.7628  0.4118
 3437TIP3    H210276   1.489   2.895   4.478  1.5381  0.2288  1.0248
 3438TIP3   OH210277   1.627   6.489   5.079  0.0987  0.6035  0.0927
 3438TIP3    H110278   1.627   6.581   5.102 -0.1847  0.5865  0.1687
 3438TIP3    H210279   1.542   6.457   5.109  1.3217 -0.3852  2.8699
 3439TIP3   OH210280   7.085   0.549   4.165 -0.1524 -0.3796  0.0796
 3439TIP3    H110281   7.013   0.580   4.220 -0.6796 -1.8877  0.2875
 3439TIP3    H210282   7.087   0.455   4.180 -0.6477 -0.9421 -2.8798
 3440TIP3   OH210283   4.060   2.621   3.896 -0.1189  0.1775  0.3199
 3440TIP3    H110284   3.968   2.616   3.871  0.2537 -1.9740 -0.8309
 3440TIP3    H210285   4.098   2.682   3.833 -0.4260 -0.3377 -0.3812
 3441TIP3   OH210286   0.809   5.722   5.712 -0.0989 -0.2011 -0.2767
 3441TIP3    H110287   0.904   5.735   5.718 -0.2277  0.7179  0.0761
 3441TIP3    H210288   0.793   5.637   5.752  0.3173  0.7625  2.0512
 3442TIP3   OH210289   2.344   0.227   0.136 -0.2914  0.0007  0.3918
 3442TIP3    H110290   2.427   0.255   0.174 -0.6749 -1.8534  2.8824
 3442TIP3    H210291   2.278   0.281   0.181 -0.6490 -1.1597  1.3115
 3443TIP3   OH210292   2.879   2.838   4.115  0.1478  0.6566  0.3456
 3443TIP3    H110293   2.896   2.818   4.207 -0.5062 -0.9560  0.1370
 3443TIP3    H210294   2.804   2.785   4.091 -0.3725  1.8577 -0.8543
 3444TIP3   OH210295   6.982   2.014   2.261  0.1315 -0.7950  0.1918
 3444TIP3    H110296   6.919   2.083   2.283  0.6441 -0.8122  1.8351
 3444TIP3    H210297   6.933   1.954   2.205 -0.7133  0.1879 -0.1691
 3445TIP3   OH210298   1.609   0.978   1.010  0.4423 -0.4201  0.0234
 3445TIP3    H110299   1.580   0.959   1.100  0.3390 -3.0693 -0.5019
 3445TIP3    H210300   1.672   1.050   1.021  1.3732 -1.4595  2.3983
 3446TIP3   OH210301   3.871   3.523   0.605 -0.9947 -0.0148  0.0317
 3446TIP3    H110302   3.896   3.533   0.697  2.8823  3.0765 -1.0659
 3446TIP3    H210303   3.790   3.573   0.596 -0.5624  1.0145  1.5052
 3447TIP3   OH210304   1.030   0.738   2.995  0.0734 -0.5875 -0.1296
 3447TIP3    H110305   0.942   0.727   2.961  0.2894 -1.7795 -0.3370
 3447TIP3    H210306   1.083   0.757   2.917  0.0606 -0.2459 -0.0545
 3448TIP3   OH210307   4.901   6.103   0.044  0.5272 -0.2661  0.4103
 3448TIP3    H110308   4.851   6.088  -0.036  1.6579 -0.3639 -0.2980
 3448TIP3    H210309   4.859   6.180   0.084  0.8601  0.7250 -1.0454
 3449TIP3   OH210310   6.929   5.646   1.845  0.3609  0.0887 -0.1263
 3449TIP3    H110311   6.994   5.645   1.775  0.0163 -0.1517 -0.4455
 3449TIP3    H210312   6.966   5.590   1.913  0.2277 -0.5216 -0.5481
 3450TIP3   OH210313   6.661   6.046   4.691  0.0909  0.2044  0.1789
 3450TIP3    H110314   6.710   5.965   4.699  0.3765  0.4298  0.7563
 3450TIP3    H210315   6.699   6.089   4.614  0.7264  0.3206  0.5467
 3451TIP3   OH210316   2.533   3.459   0.780 -0.5047 -0.5672  0.1423
 3451TIP3    H110317   2.625   3.484   0.790 -0.4133 -1.3289  1.4408
 3451TIP3    H210318   2.531   3.367   0.806 -1.3429 -1.0873 -1.6110
 3452TIP3   OH210319   5.611   0.510   4.556  0.5319 -0.1808 -0.0477
 3452TIP3    H110320   5.655   0.435   4.518 -0.2322 -0.7235  0.0978
 3452TIP3    H210321   5.681   0.566   4.590  1.0900 -1.1355  0.4035
 3453TIP3   OH210322   5.987   0.422   4.985 -0.2417  0.0454 -0.4399
 3453TIP3    H110323   5.986   0.366   5.062 -0.8009  0.6910  0.0321
 3453TIP3    H210324   6.057   0.485   5.002 -0.6134  0.4256 -0.2675
 3454TIP3   OH210325   3.793   3.951   3.698  0.2872  0.1582  0.0720
 3454TIP3    H110326   3.761   4.039   3.719  0.7632  1.2483 -3.1647
 3454TIP3    H210327   3.723   3.893   3.727 -1.0521  1.7924  0.3111
 3455TIP3   OH210328   1.505   5.427   1.311 -0.4604 -0.1200 -0.4021
 3455TIP3    H110329   1.597   5.426   1.338 -0.3216  0.3682 -0.8362
 3455TIP3    H210330   1.465   5.496   1.365  0.1894  2.0541 -2.5490
 3456TIP3   OH210331   0.369   3.538   0.036 -0.3781  0.4805 -0.6259
 3456TIP3    H110332   0.410   3.562  -0.047 -2.5137  1.4979 -1.4726
 3456TIP3    H210333   0.420   3.586   0.102  2.4918 -1.7497 -1.0236
 3457TIP3   OH210334   2.368   4.309   2.233  0.4571  0.0491  0.5724
 3457TIP3    H110335   2.279   4.280   2.217  0.7342  0.0734 -1.2584
 3457TIP3    H210336   2.420   4.229   2.236  0.3832  0.0243  1.7768
 3458TIP3   OH210337   6.098   1.921   5.401  0.2410 -0.6095  0.0158
 3458TIP3    H110338   6.029   1.890   5.342  0.2254 -2.2631  0.8651
 3458TIP3    H210339   6.050   1.955   5.477  0.3083  0.2106 -0.3013
 3459TIP3   OH210340   4.224   1.793   5.626 -0.2870  0.1995 -0.5053
 3459TIP3    H110341   4.223   1.698   5.632 -1.0098  0.2859  1.1129
 3459TIP3    H210342   4.244   1.823   5.714 -4.6080  1.5731  0.2456
 3460TIP3   OH210343   5.494   6.358   5.609 -0.5578 -0.1329  0.4903
 3460TIP3    H110344   5.556   6.326   5.674 -1.1240  0.6943  1.4632
 3460TIP3    H210345   5.529   6.442   5.581 -1.0229  0.1542  0.7517
 3461TIP3   OH210346   1.105   1.634   2.861 -0.2887 -0.1394 -0.1637
 3461TIP3    H110347   1.032   1.609   2.918 -1.2056  0.6481 -0.9666
 3461TIP3    H210348   1.091   1.727   2.844  0.7819 -0.0351 -0.5288
 3462TIP3   OH210349   1.600   3.866   5.658  0.5152  0.0226 -0.1225
 3462TIP3    H110350   1.558   3.851   5.574 -0.0144 -2.4372  0.5063
 3462TIP3    H210351   1.579   3.957   5.679 -3.0635 -0.4988 -0.6991
 3463TIP3   OH210352   5.608   1.942   0.607 -0.0979 -0.8400 -0.0438
 3463TIP3    H110353   5.534   1.994   0.640  0.6039  0.5131 -0.5097
 3463TIP3    H210354   5.635   1.988   0.527  1.2939 -1.2616  0.1665
 3464TIP3   OH210355   2.894   0.338   2.480 -0.3221 -0.2692 -0.0475
 3464TIP3    H110356   2.917   0.247   2.459 -0.6007 -0.2796 -0.3041
 3464TIP3    H210357   2.979   0.381   2.495 -0.0712 -0.1701 -1.5705
 3465TIP3   OH210358   5.968   3.436   5.133  0.1449 -0.4060  0.4580
 3465TIP3    H110359   5.931   3.515   5.172  1.0497  0.3483 -0.1619
 3465TIP3    H210360   5.974   3.374   5.205  1.1931  0.7367  1.4038
 3466TIP3   OH210361   2.701   3.260   5.653  0.1388  0.0723 -0.1733
 3466TIP3    H110362   2.774   3.236   5.710  1.1801  2.4429 -0.4243
 3466TIP3    H210363   2.675   3.347   5.681 -2.3198 -0.4960 -0.4316
 3467TIP3   OH210364   5.052   1.649   2.277  0.3525  0.0237  0.5096
 3467TIP3    H110365   5.034   1.574   2.335 -0.7070 -0.1301  0.0014
 3467TIP3    H210366   5.037   1.615   2.189  0.4856  0.6711  0.2373
 3468TIP3   OH210367   5.384   4.807   5.181 -0.2592 -0.1588 -0.6805
 3468TIP3    H110368   5.346   4.746   5.244  0.5914 -0.5173 -0.4966
 3468TIP3    H210369   5.312   4.865   5.157 -1.0044 -1.0321 -0.6159
 3469TIP3   OH210370   6.174   0.850   0.719  0.0906  0.5287  0.3689
 3469TIP3    H110371   6.209   0.773   0.763 -0.4286 -0.2796 -0.5839
 3469TIP3    H210372   6.081   0.852   0.742 -0.1679  0.1485 -0.5893
 3470TIP3   OH210373   2.653   5.833   1.734  0.2783 -0.4957  0.2495
 3470TIP3    H110374   2.729   5.784   1.703  0.4351 -1.1591  1.6036
 3470TIP3    H210375   2.584   5.767   1.740  0.3833 -0.4890  1.7142
 3471TIP3   OH210376   4.717   2.295   5.246  0.2642  0.1822  0.0497
 3471TIP3    H110377   4.671   2.233   5.189  0.9523 -0.3445  0.0493
 3471TIP3    H210378   4.805   2.257   5.256  0.2600  0.4431  1.1922
 3472TIP3   OH210379   2.871   4.967   3.074 -0.6115  0.4972  0.3581
 3472TIP3    H110380   2.923   4.923   3.007  0.1460  0.5117  0.9219
 3472TIP3    H210381   2.781   4.960   3.043 -0.4459 -0.8991  0.1222
 3473TIP3   OH210382   4.562   1.586   5.810  0.1554 -0.1212 -0.0808
 3473TIP3    H110383   4.554   1.645   5.735  1.4931  1.7926  1.2015
 3473TIP3    H210384   4.655   1.592   5.835 -0.5443  0.5309  2.6464
 3474TIP3   OH210385   1.159   0.284   2.566  0.3696 -0.1502 -0.1208
 3474TIP3    H110386   1.122   0.265   2.480  1.2368 -1.0877 -0.3032
 3474TIP3    H210387   1.253   0.295   2.551  0.3529  1.0799  0.5055
 3475TIP3   OH210388   3.382   2.690   0.532 -0.4242 -0.8958 -0.0381
 3475TIP3    H110389   3.449   2.640   0.486 -1.5527 -2.4706 -0.0824
 3475TIP3    H210390   3.331   2.732   0.463 -0.2743 -0.7680 -0.0709
 3476TIP3   OH210391   2.421   1.263   4.237  0.4526  0.6513  0.0807
 3476TIP3    H110392   2.451   1.296   4.322  0.0079 -0.8721  0.8873
 3476TIP3    H210393   2.336   1.224   4.256  0.2110  0.5493 -1.1428
 3477TIP3   OH210394   2.733   2.684   0.258 -0.3189 -0.1360  0.0001
 3477TIP3    H110395   2.713   2.651   0.171 -0.0755  0.2911 -0.2152
 3477TIP3    H210396   2.693   2.770   0.261  1.7056  0.8737 -0.5456
 3478TIP3   OH210397   0.257   5.776   1.292 -0.1908 -0.2286 -0.1612
 3478TIP3    H110398   0.196   5.749   1.224 -0.6985  1.1931 -0.3018
 3478TIP3    H210399   0.205   5.779   1.372  0.4319 -2.0128  0.3502
 3479TIP3   OH210400   0.858   0.519   0.542 -0.0728 -0.1133  0.4267
 3479TIP3    H110401   0.810   0.440   0.568 -0.4282  0.5200  1.7791
 3479TIP3    H210402   0.926   0.529   0.609  2.6843 -1.5332 -1.9469
 3480TIP3   OH210403   2.602   3.084   5.266  0.3049  0.4629  0.0726
 3480TIP3    H110404   2.533   3.077   5.332 -0.2057  1.1242 -0.3837
 3480TIP3    H210405   2.596   3.002   5.217 -1.2975  1.1874 -1.0436
 3481TIP3   OH210406   0.786   2.386   2.750  0.0515 -0.5611  0.3975
 3481TIP3    H110407   0.710   2.327   2.753  0.2771 -0.8341  2.3375
 3481TIP3    H210408   0.755   2.468   2.788  0.1734  0.0425 -0.7879
 3482TIP3   OH210409   0.011   0.236   0.739 -0.2149  0.2645 -0.4029
 3482TIP3    H110410  -0.004   0.294   0.813 -0.6584 -0.3396 -0.0045
 3482TIP3    H210411   0.071   0.284   0.682 -0.6546  1.1501 -0.1393
 3483TIP3   OH210412   2.891   1.284   0.229  0.3999  1.0360  0.5643
 3483TIP3    H110413   2.974   1.330   0.219  0.1795  1.7419  1.7053
 3483TIP3    H210414   2.868   1.297   0.321 -1.3570  1.5087  0.0867
 3484TIP3   OH210415   5.660   4.071   3.154 -0.0557  0.4042 -0.3630
 3484TIP3    H110416   5.617   4.156   3.164 -0.8311  0.0951 -0.9455
 3484TIP3    H210417   5.595   4.007   3.184  1.1337  0.0937  1.7055
 3485TIP3   OH210418   5.529   2.357   0.515  0.4282  0.2495  0.7139
 3485TIP3    H110419   5.488   2.400   0.591 -1.0137  1.5988 -0.7548
 3485TIP3    H210420   5.563   2.429   0.462  0.2319 -0.5747 -0.5657
 3486TIP3   OH210421   3.363   1.453   0.699  0.2190  0.0715 -0.4031
 3486TIP3    H110422   3.292   1.456   0.763  0.6296 -1.2280  0.1452
 3486TIP3    H210423   3.429   1.513   0.734 -0.3238  0.7912 -0.5873
 3487TIP3   OH210424   2.428   2.105   5.649  0.1806  0.2226  0.0548
 3487TIP3    H110425   2.421   2.025   5.597  1.1965 -0.3801  0.7925
 3487TIP3    H210426   2.403   2.175   5.590 -0.7340 -0.6373 -0.6089
 3488TIP3   OH210427   0.341   3.658   2.589 -0.0020  0.2578  0.4959
 3488TIP3    H110428   0.346   3.753   2.600  0.2823  0.4862 -1.3945
 3488TIP3    H210429   0.273   3.644   2.523 -0.7423 -0.9428  1.4424
 3489TIP3   OH210430   6.724   1.275   2.810 -0.2152 -0.0908 -0.3612
 3489TIP3    H110431   6.739   1.341   2.743 -0.1741  0.0812 -0.1826
 3489TIP3    H210432   6.629   1.272   2.820 -0.1839  0.4332  0.1206
 3490TIP3   OH210433   1.949   4.068   3.094  0.3799 -0.1711 -0.4426
 3490TIP3    H110434   2.007   4.114   3.034 -2.8061  0.7955 -3.0853
 3490TIP3    H210435   1.932   4.131   3.164 -0.8271  1.2545 -1.9508
 3491TIP3   OH210436   4.098   4.606   1.141  0.1269  0.2413  0.2985
 3491TIP3    H110437   4.031   4.573   1.201 -1.9287 -0.0180 -1.9796
 3491TIP3    H210438   4.160   4.533   1.131 -1.7846 -1.3151 -1.0100
 3492TIP3   OH210439   5.245   1.142   0.844 -0.4730  0.1440  0.8687
 3492TIP3    H110440   5.199   1.167   0.924  1.4365 -0.3621  2.1936
 3492TIP3    H210441   5.321   1.093   0.874  1.5071  1.7813 -1.1120
 3493TIP3   OH210442   3.985   3.339   4.279  0.0213  0.1776 -0.0569
 3493TIP3    H110443   3.949   3.392   4.350  0.6982  0.7234 -0.1131
 3493TIP3    H210444   3.942   3.254   4.289 -0.4113  0.4598  0.5772
 3494TIP3   OH210445   7.206   0.601   4.416 -0.7039  0.0609 -0.0010
 3494TIP3    H110446   7.272   0.667   4.393  1.3820 -1.5452  1.0880
 3494TIP3    H210447   7.129   0.626   4.364  0.6015  2.2359 -1.0486
 3495TIP3   OH210448   6.604   0.221   2.257  0.0162  0.1126 -0.5322
 3495TIP3    H110449   6.513   0.220   2.228  0.3845 -0.2487 -1.7374
 3495TIP3    H210450   6.625   0.313   2.268 -0.3047  0.2352 -0.9155
 3496TIP3   OH210451   6.522   5.760   3.940 -0.5834 -0.6697  0.1690
 3496TIP3    H110452   6.488   5.847   3.918 -0.0874 -0.6759 -0.6977
 3496TIP3    H210453   6.572   5.734   3.862 -1.2184 -1.9922  0.1861
 3497TIP3   OH210454   1.237   3.240   3.666 -0.4330  0.1986 -0.0901
 3497TIP3    H110455   1.270   3.323   3.632 -1.9838  0.7947 -0.1822
 3497TIP3    H210456   1.143   3.243   3.651 -1.7420  1.3726  5.7940
 3498TIP3   OH210457   5.002   4.067   4.002  0.3978 -0.4198 -0.0860
 3498TIP3    H110458   4.971   4.154   4.028  0.3642 -0.6765  0.7513
 3498TIP3    H210459   5.020   4.076   3.908  0.8668  0.6284  0.0867
 3499TIP3   OH210460   4.055   5.331   5.086  0.0824 -0.2621  0.0005
 3499TIP3    H110461   4.003   5.403   5.052  0.3359 -0.4808 -0.9000
 3499TIP3    H210462   4.069   5.351   5.178 -0.5598  0.4057 -0.0452
 3500TIP3   OH210463   6.367   5.301   2.392 -0.1434 -0.2273  0.1977
 3500TIP3    H110464   6.363   5.328   2.300 -0.6422 -2.5231 -0.5174
 3500TIP3    H210465   6.344   5.208   2.391  1.0331 -0.6207  2.5186
 3501TIP3   OH210466   3.421   6.558   2.281 -0.4660  0.2816 -0.5536
 3501TIP3    H110467   3.351   6.590   2.224 -0.6059  0.1057 -0.4841
 3501TIP3    H210468   3.460   6.637   2.319 -0.5300  0.3872 -0.7075
 3502TIP3   OH210469   1.745   0.850   2.502  0.8234 -0.2116  0.4121
 3502TIP3    H110470   1.769   0.787   2.434  1.8047  0.1446  0.4164
 3502TIP3    H210471   1.749   0.935   2.458  2.1154  0.0888  1.0585
 3503TIP3   OH210472   5.468   3.933   1.250  0.2535 -0.0351  0.0494
 3503TIP3    H110473   5.488   3.894   1.335 -1.0830  1.2239  1.0058
 3503TIP3    H210474   5.494   4.025   1.259 -0.8058  0.3413 -0.5511
 3504TIP3   OH210475   0.323   2.435   4.870  0.4937  0.3769 -0.4307
 3504TIP3    H110476   0.331   2.383   4.790 -0.8360 -0.0568 -0.3055
 3504TIP3    H210477   0.396   2.406   4.925  0.3617 -0.6341 -0.7668
 3505TIP3   OH210478   2.834   1.822   0.662 -0.2964  0.5078  0.0414
 3505TIP3    H110479   2.851   1.839   0.755 -1.7245 -1.4087  0.7258
 3505TIP3    H210480   2.886   1.744   0.642 -1.7065 -0.4518 -0.0830
 3506TIP3   OH210481   3.018   0.601   3.883 -0.1688  0.0819  0.6558
 3506TIP3    H110482   2.996   0.509   3.901  0.4248 -0.4632 -1.1743
 3506TIP3    H210483   3.110   0.599   3.858 -0.5994  0.8782 -1.1763
 3507TIP3   OH210484   3.368   0.094   0.147 -0.4083 -0.3678 -0.4689
 3507TIP3    H110485   3.418   0.016   0.171 -0.4773  0.0879  1.2779
 3507TIP3    H210486   3.435   0.161   0.131 -0.3601 -0.6823 -1.7120
 3508TIP3   OH210487   3.633   1.901   4.230 -0.1662 -0.3797 -0.1451
 3508TIP3    H110488   3.722   1.907   4.263 -0.7697  0.0206  1.5178
 3508TIP3    H210489   3.593   1.984   4.254 -0.5866  0.0828 -2.2376
 3509TIP3   OH210490  -0.022   6.269   3.633 -0.2455  0.1153 -0.1530
 3509TIP3    H110491   0.039   6.199   3.610  0.8025  0.4991  1.2910
 3509TIP3    H210492  -0.012   6.278   3.728 -0.0477  2.4912 -0.3427
 3510TIP3   OH210493   1.709   1.588   1.555  0.0601  0.0421 -0.2335
 3510TIP3    H110494   1.713   1.658   1.490  1.0277 -0.4125 -0.6921
 3510TIP3    H210495   1.741   1.510   1.508 -1.2144 -0.7762  0.1872
 3511TIP3   OH210496   5.071   6.024   5.837  0.8360 -0.0569 -0.6055
 3511TIP3    H110497   5.017   6.074   5.776 -1.0392 -0.7663  0.4190
 3511TIP3    H210498   5.017   5.949   5.862  0.8544  0.9663  3.0714
 3512TIP3   OH210499   0.212   3.260   3.774  0.0313 -0.4987 -0.2540
 3512TIP3    H110500   0.170   3.247   3.689 -2.9941 -0.2863  1.0803
 3512TIP3    H210501   0.243   3.173   3.799  3.2201 -0.2028 -2.4949
 3513TIP3   OH210502   2.731   0.183   4.182  0.4569 -0.8344 -0.2545
 3513TIP3    H110503   2.746   0.133   4.262  2.5155  1.3467  0.8884
 3513TIP3    H210504   2.674   0.255   4.210  1.2889  0.0115 -0.6902
 3514TIP3   OH210505   0.265   1.599   5.527 -0.2278  0.1833 -0.1680
 3514TIP3    H110506   0.348   1.569   5.489 -0.5267 -0.5982 -0.2015
 3514TIP3    H210507   0.292   1.663   5.594  0.4843 -1.1838  0.8938
 3515TIP3   OH210508   5.993   3.123   0.697 -0.1848 -0.2720  0.5975
 3515TIP3    H110509   5.940   3.189   0.654 -0.3435 -0.3317  0.6996
 3515TIP3    H210510   6.045   3.171   0.762 -1.1055 -0.3849  1.4380
 3516TIP3   OH210511   5.379   2.105   0.619  0.1194  0.6911  0.4504
 3516TIP3    H110512   5.428   2.182   0.591  0.0812  0.9017  0.9554
 3516TIP3    H210513   5.287   2.128   0.605  0.0275  1.2700  1.8837
 3517TIP3   OH210514   6.501   2.466   0.047  0.2772 -0.3680  0.1483
 3517TIP3    H110515   6.449   2.519   0.107  1.3737  0.4919  0.3699
 3517TIP3    H210516   6.461   2.379   0.052 -0.3675 -0.0382  1.2535
 3518TIP3   OH210517   2.130   5.569   1.040 -0.3316 -0.4435 -0.1892
 3518TIP3    H110518   2.035   5.560   1.027 -0.6896  1.0052  1.1939
 3518TIP3    H210519   2.159   5.622   0.966 -0.4689 -1.4349 -0.9735
 3519TIP3   OH210520   1.125   6.520   5.388  0.3455 -0.1482 -0.4092
 3519TIP3    H110521   1.037   6.490   5.412 -0.6531  2.0147 -1.1890
 3519TIP3    H210522   1.124   6.524   5.293  0.8271  1.1930 -0.3718
 3520TIP3   OH210523   1.655   6.759   4.365  0.1651 -0.4734 -0.0422
 3520TIP3    H110524   1.584   6.747   4.428 -0.7114 -1.6092 -1.2123
 3520TIP3    H210525   1.677   6.853   4.371 -1.2578 -0.1575  0.5191
 3521TIP3   OH210526   4.310   6.486   0.486  0.3573 -0.1747  0.0381
 3521TIP3    H110527   4.312   6.580   0.468 -0.7004 -0.0173  0.6980
 3521TIP3    H210528   4.351   6.446   0.410  1.5554  0.8662  0.1018
 3522TIP3   OH210529   5.005   4.961   3.102  0.5928  0.0826  0.5640
 3522TIP3    H110530   5.086   4.935   3.147  1.4857  0.6298 -0.6644
 3522TIP3    H210531   5.032   4.975   3.011 -1.6036 -3.3658 -0.8260
 3523TIP3   OH210532   5.525   6.193   4.580 -0.0533 -0.3615  0.2042
 3523TIP3    H110533   5.450   6.170   4.525 -0.3964  1.7251 -0.3088
 3523TIP3    H210534   5.507   6.151   4.664 -2.4698  1.0490  0.4896
 3524TIP3   OH210535   0.929   5.623   2.178  0.1476 -0.8761 -0.2443
 3524TIP3    H110536   0.882   5.541   2.190  0.1298 -0.9140 -0.5493
 3524TIP3    H210537   0.908   5.676   2.255 -0.9498 -0.6228 -0.7008
 3525TIP3   OH210538   0.265   0.461   3.486  0.1020 -0.1465  0.2921
 3525TIP3    H110539   0.276   0.554   3.507  0.4562 -0.3286  0.9331
 3525TIP3    H210540   0.342   0.439   3.433  1.3443 -0.6748  2.2362
 3526TIP3   OH210541   5.527   5.026   2.702 -0.0287  0.2079  0.3388
 3526TIP3    H110542   5.455   5.085   2.723 -0.0081 -0.0721  1.2614
 3526TIP3    H210543   5.485   4.950   2.663 -0.1883  0.2674  0.3945
 3527TIP3   OH210544   5.672   3.768   1.162 -0.3011 -0.3495 -0.0913
 3527TIP3    H110545   5.604   3.828   1.194 -0.7402 -1.3858  0.9536
 3527TIP3    H210546   5.649   3.683   1.197  0.3235 -1.1698 -1.5529
 3528TIP3   OH210547   6.310   2.984   3.677 -0.5256 -0.1240 -0.1811
 3528TIP3    H110548   6.291   2.893   3.697 -0.3305 -0.1111  0.0747
 3528TIP3    H210549   6.246   3.008   3.610 -1.6527  0.0304  0.9106
 3529TIP3   OH210550   5.465   6.438   0.137 -0.1445  0.4234  0.6213
 3529TIP3    H110551   5.448   6.532   0.132 -0.8391  0.2774  0.1456
 3529TIP3    H210552   5.392   6.397   0.090  1.3208 -0.2362 -1.2427
 3530TIP3   OH210553   0.867   5.901   0.086  0.1930 -0.4253 -0.3552
 3530TIP3    H110554   0.942   5.944   0.045  0.5063  0.4481  1.0525
 3530TIP3    H210555   0.844   5.958   0.160 -1.5984 -0.8939 -0.4950
 3531TIP3   OH210556   4.491   6.352   4.118  0.0695 -0.1142  0.2150
 3531TIP3    H110557   4.422   6.287   4.106  0.1268 -0.1069 -0.1521
 3531TIP3    H210558   4.488   6.406   4.039  1.7573 -1.2798 -0.6982
 3532TIP3   OH210559   2.297   0.589   4.730  0.1523  0.3238  0.4773
 3532TIP3    H110560   2.272   0.506   4.770  2.3989 -0.6480  0.0383
 3532TIP3    H210561   2.367   0.622   4.786 -0.5963  1.8747  0.5444
 3533TIP3   OH210562   4.796   1.758   1.152 -0.0096 -0.2087  0.1310
 3533TIP3    H110563   4.722   1.816   1.168 -0.5294 -0.2992 -1.7186
 3533TIP3    H210564   4.872   1.817   1.147 -0.0266 -0.0553  1.4141
 3534TIP3   OH210565   2.104   0.173   5.652  0.1048  0.2131  0.0533
 3534TIP3    H110566   2.179   0.117   5.671  1.2371  1.3270 -0.9169
 3534TIP3    H210567   2.068   0.195   5.738  1.8140  0.8448  0.6542
 3535TIP3   OH210568   5.432   5.757   4.996 -0.1235  0.5063 -0.2760
 3535TIP3    H110569   5.512   5.806   5.018 -0.2894  1.4209 -1.5902
 3535TIP3    H210570   5.458   5.665   5.000  0.5758  0.7371  0.8561
 3536TIP3   OH210571   0.400   3.335   1.963  0.0377  0.5745  0.0217
 3536TIP3    H110572   0.457   3.316   1.888  0.7622  0.7804  0.5180
 3536TIP3    H210573   0.317   3.292   1.940 -0.2599  1.9016 -1.6004
 3537TIP3   OH210574   4.389   5.270   4.247 -0.4662  0.1097  0.1467
 3537TIP3    H110575   4.400   5.199   4.183  0.3846  0.1327  0.2662
 3537TIP3    H210576   4.343   5.339   4.199 -0.4048 -0.1275 -0.2541
 3538TIP3   OH210577   0.672   4.825   0.240 -0.4599 -0.1082  0.3007
 3538TIP3    H110578   0.612   4.863   0.304  0.9864  1.1833  0.9687
 3538TIP3    H210579   0.757   4.866   0.259 -0.2407  1.7055 -3.4743
 3539TIP3   OH210580   0.555   3.355   4.488 -0.6722 -0.1968 -0.3787
 3539TIP3    H110581   0.606   3.378   4.410 -1.8252 -0.9241 -1.3840
 3539TIP3    H210582   0.597   3.276   4.522  0.2160  0.4734  0.1276
 3540TIP3   OH210583   4.674   2.672   5.700 -0.1520 -0.1705  0.1914
 3540TIP3    H110584   4.687   2.597   5.642  0.7428 -0.4898  0.7834
 3540TIP3    H210585   4.732   2.656   5.774  0.3980  1.3218  0.1303
 3541TIP3   OH210586   4.234   4.351   0.723 -0.4058 -0.3514 -0.2440
 3541TIP3    H110587   4.149   4.392   0.705 -0.6664 -0.4269  0.7382
 3541TIP3    H210588   4.283   4.416   0.772  0.2742 -0.1554 -1.1610
 3542TIP3   OH210589   5.879   2.451   4.926  0.0766  0.0707  0.1065
 3542TIP3    H110590   5.972   2.433   4.911 -0.0103  0.5214 -1.1661
 3542TIP3    H210591   5.839   2.443   4.839 -1.3235 -1.3991  0.8401
 3543TIP3   OH210592   6.791   6.254   0.778 -0.5376 -0.0453  0.0155
 3543TIP3    H110593   6.754   6.190   0.839 -0.4859 -0.4253 -0.3486
 3543TIP3    H210594   6.809   6.204   0.699 -0.9142  0.5069 -0.4321
 3544TIP3   OH210595   6.819   0.489   5.290  0.3799 -0.1528  0.3567
 3544TIP3    H110596   6.897   0.434   5.302 -0.1580 -0.7056  1.5296
 3544TIP3    H210597   6.759   0.459   5.358 -0.5232  0.8620  0.0228
 3545TIP3   OH210598   0.298   6.265   0.931  0.3929  0.1339  0.0622
 3545TIP3    H110599   0.325   6.352   0.961  0.7382 -0.5792  1.9167
 3545TIP3    H210600   0.379   6.214   0.929 -0.0304 -0.5710  0.5256
 3546TIP3   OH210601   5.126   2.315   5.332 -0.5501 -0.5828  0.4950
 3546TIP3    H110602   5.090   2.227   5.340 -1.8156 -0.2339 -1.0229
 3546TIP3    H210603   5.068   2.370   5.385 -0.9200 -0.3682 -0.1266
 3547TIP3   OH210604   5.993   2.451   2.413 -0.3193  0.0413 -0.0751
 3547TIP3    H110605   6.051   2.476   2.341  3.0054  0.1376  2.3971
 3547TIP3    H210606   6.026   2.366   2.443 -2.2595 -0.4926  0.7595
 3548TIP3   OH210607   5.078   5.499   1.771 -0.4310 -0.2573 -0.4230
 3548TIP3    H110608   4.990   5.518   1.803  0.9026  0.5792  3.2923
 3548TIP3    H210609   5.116   5.585   1.752 -0.0182 -0.5066 -0.7432
 3549TIP3   OH210610   0.497   5.770   3.478 -0.0473 -0.1157 -0.3249
 3549TIP3    H110611   0.443   5.820   3.539 -0.6435 -1.3526  0.1974
 3549TIP3    H210612   0.536   5.701   3.532 -0.2231 -0.9515 -1.2450
 3550TIP3   OH210613   1.308   0.510   4.697  0.2186 -0.1472 -0.1128
 3550TIP3    H110614   1.243   0.575   4.671  1.6071  0.4510 -2.3279
 3550TIP3    H210615   1.267   0.426   4.678 -0.9131  0.0827  1.1217
 3551TIP3   OH210616   5.945   4.726   2.084  0.2017 -0.0472 -0.0337
 3551TIP3    H110617   6.000   4.739   2.006 -0.3321  0.6248 -0.3109
 3551TIP3    H210618   5.868   4.780   2.068 -0.0701 -0.1687  0.8173
 3552TIP3   OH210619   0.113   0.049   3.101  0.0087  0.7619 -0.1918
 3552TIP3    H110620   0.163  -0.028   3.128  1.7146  1.2314 -1.7748
 3552TIP3    H210621   0.163   0.123   3.135 -1.4721  1.2200  1.0883
 3553TIP3   OH210622   7.056   4.429   3.268  0.0571 -0.3856 -0.0891
 3553TIP3    H110623   7.112   4.353   3.255  0.4810 -0.2713  0.9923
 3553TIP3    H210624   7.061   4.447   3.362 -1.9100 -0.4702  0.0808
 3554TIP3   OH210625   4.002   4.993   1.391 -0.3249 -0.8956  0.3517
 3554TIP3    H110626   4.029   4.966   1.304  1.5094 -1.1464  0.9633
 3554TIP3    H210627   3.992   4.912   1.440 -2.6057 -0.8386  0.0825
 3555TIP3   OH210628   3.901   3.391   5.625  0.3250  0.3803  0.2474
 3555TIP3    H110629   3.919   3.459   5.560  0.4047  0.7558  0.6574
 3555TIP3    H210630   3.807   3.378   5.621  0.2168  1.0013  0.6388
 3556TIP3   OH210631   4.393   0.048   3.425 -0.2887 -0.1338  0.2391
 3556TIP3    H110632   4.450  -0.029   3.420 -0.1028  0.1002 -2.0368
 3556TIP3    H210633   4.451   0.119   3.451 -0.4647 -0.6923  2.3926
 3557TIP3   OH210634   4.653   0.901   4.139 -0.4158 -0.2269 -0.1595
 3557TIP3    H110635   4.588   0.933   4.077 -1.0162 -1.4480 -0.1901
 3557TIP3    H210636   4.719   0.859   4.083  1.1799  2.2062 -0.2444
 3558TIP3   OH210637   3.545   5.190   2.065  0.4370 -0.5572 -0.2822
 3558TIP3    H110638   3.593   5.194   1.983  0.9253 -0.9596 -0.0201
 3558TIP3    H210639   3.488   5.267   2.063 -1.4949 -1.9305 -2.1714
 3559TIP3   OH210640   1.925   5.809   4.311 -0.0628  0.0975  0.0090
 3559TIP3    H110641   1.870   5.739   4.277 -0.9248  0.6679  0.1856
 3559TIP3    H210642   1.872   5.850   4.379  0.7921  0.3382  0.5467
 3560TIP3   OH210643   5.757   6.001   0.667 -0.3511  0.8418 -0.0551
 3560TIP3    H110644   5.760   5.954   0.584  5.8323 -0.6428  0.5214
 3560TIP3    H210645   5.744   6.093   0.642  2.6242  0.6430 -3.0216
 3561TIP3   OH210646   4.632   5.308   5.677  0.7619  0.4370  0.2996
 3561TIP3    H110647   4.669   5.223   5.653  1.1644  1.2670 -2.3312
 3561TIP3    H210648   4.539   5.299   5.661  0.6667  0.2150  0.9565
 3562TIP3   OH210649   1.433   4.522   1.784  0.2539 -0.0248  0.2551
 3562TIP3    H110650   1.341   4.515   1.759  0.2357 -0.4726  0.4286
 3562TIP3    H210651   1.437   4.600   1.839  0.1666  0.5621 -0.5598
 3563TIP3   OH210652   4.674   4.541   4.488  0.3281 -0.0553 -0.5572
 3563TIP3    H110653   4.730   4.463   4.485 -0.7914 -0.9227  0.2854
 3563TIP3    H210654   4.699   4.586   4.569 -1.4416 -1.4778  0.8762
 3564TIP3   OH210655   3.464   3.872   4.232  0.2387  0.6951 -0.1505
 3564TIP3    H110656   3.462   3.917   4.147  0.8952  1.7080  0.3500
 3564TIP3    H210657   3.546   3.822   4.231  0.9611  1.8353  0.4274
 3565TIP3   OH210658   5.857   6.057   2.253 -0.1239 -0.2156  0.0983
 3565TIP3    H110659   5.772   6.096   2.274  0.3360  1.0208 -0.2842
 3565TIP3    H210660   5.838   5.993   2.185 -0.8703 -0.5838  0.6345
 3566TIP3   OH210661   6.749   1.982   0.433 -0.0778 -0.6195 -0.0353
 3566TIP3    H110662   6.706   2.025   0.359  0.6707  0.2621  0.0199
 3566TIP3    H210663   6.681   1.930   0.474 -0.4985 -1.1464 -1.3659
 3567TIP3   OH210664   4.488   2.330   0.028  0.1076 -0.9098 -0.6970
 3567TIP3    H110665   4.548   2.289  -0.035 -0.9669 -2.8127 -0.5775
 3567TIP3    H210666   4.536   2.329   0.111  0.7864 -0.2129 -1.0713
 3568TIP3   OH210667   1.497   0.323   5.144 -0.1196  0.7178 -0.0795
 3568TIP3    H110668   1.511   0.336   5.050 -0.6601  0.8607 -0.1437
 3568TIP3    H210669   1.583   0.300   5.178  0.1955  1.2500 -0.5099
 3569TIP3   OH210670   0.553   2.025   1.425 -0.0673 -0.6415 -0.4553
 3569TIP3    H110671   0.619   1.958   1.443 -1.3643 -2.1089 -0.9589
 3569TIP3    H210672   0.484   1.979   1.378 -0.9795  1.0851 -0.9012
 3570TIP3   OH210673   4.199   6.004   2.945 -0.5565 -0.4145  0.2157
 3570TIP3    H110674   4.285   6.022   2.908 -0.8289  0.3639 -0.0635
 3570TIP3    H210675   4.168   5.927   2.897  0.8280 -1.9890  1.7500
 3571TIP3   OH210676   6.461   5.409   2.127  0.4550 -0.5122  0.5475
 3571TIP3    H110677   6.418   5.481   2.172 -0.4793 -1.0192  0.4875
 3571TIP3    H210678   6.516   5.451   2.060 -1.3230  0.1126 -0.5774
 3572TIP3   OH210679   1.294   0.037   1.336 -0.0394  0.0551  0.1956
 3572TIP3    H110680   1.237   0.044   1.413  0.6752 -0.7964  0.8284
 3572TIP3    H210681   1.258   0.100   1.273 -0.2669  1.2463  1.4649
 3573TIP3   OH210682   5.821   1.291   2.514  0.0067  0.1026  0.5429
 3573TIP3    H110683   5.754   1.348   2.477 -1.2613 -0.2777  2.1151
 3573TIP3    H210684   5.794   1.203   2.488 -0.6337 -0.1250  1.9187
 3574TIP3   OH210685   1.712   6.080   3.208  0.0201  0.0036  0.3295
 3574TIP3    H110686   1.729   6.131   3.129 -1.8229  2.6248  1.4604
 3574TIP3    H210687   1.628   6.038   3.191  1.2532 -2.3256 -0.3625
 3575TIP3   OH210688   4.034   4.367   5.559  0.4107 -0.0435 -0.0344
 3575TIP3    H110689   4.057   4.460   5.566  1.4364 -0.2294 -0.8035
 3575TIP3    H210690   4.092   4.333   5.492  0.8205 -1.4986  1.0181
 3576TIP3   OH210691   3.825   1.009   0.797  0.7464 -0.0826  0.0500
 3576TIP3    H110692   3.883   1.085   0.808  0.3389  0.0983  0.9710
 3576TIP3    H210693   3.841   0.980   0.707 -1.3651  2.9809 -1.4686
 3577TIP3   OH210694   6.543   5.137   3.259 -0.1191  0.2635  0.7213
 3577TIP3    H110695   6.613   5.201   3.272 -0.2180  0.9877 -1.7948
 3577TIP3    H210696   6.584   5.067   3.208 -0.8766 -0.0042  0.4645
 3578TIP3   OH210697   2.136   0.360   0.556  0.1351  0.4663  0.0123
 3578TIP3    H110698   2.134   0.456   0.565 -0.6297  0.4227  0.4036
 3578TIP3    H210699   2.051   0.332   0.588  0.6653 -0.4239  0.6571
 3579TIP3   OH210700   0.888   1.188   5.600 -0.1282 -0.9145 -0.0137
 3579TIP3    H110701   0.835   1.128   5.548 -1.7958 -0.1559  0.7333
 3579TIP3    H210702   0.924   1.250   5.537  1.8955 -2.8022 -0.8481
 3580TIP3   OH210703   1.350   3.497   5.869  0.3605 -0.0132  0.2798
 3580TIP3    H110704   1.411   3.530   5.936 -2.8675  2.5852  2.1899
 3580TIP3    H210705   1.360   3.557   5.795  0.8678 -0.3031  0.1023
 3581TIP3   OH210706   3.045   2.611   0.493  0.4398 -0.2837  0.3793
 3581TIP3    H110707   3.044   2.585   0.585  2.6399  1.7709  1.0939
 3581TIP3    H210708   3.092   2.541   0.449  1.7275 -0.0401  1.3191
 3582TIP3   OH210709   5.559   3.401   3.466  0.3677 -0.6163  0.0857
 3582TIP3    H110710   5.474   3.434   3.496  0.9973 -0.4620  1.8467
 3582TIP3    H210711   5.568   3.316   3.509  2.2450  0.5444  2.2389
 3583TIP3   OH210712   3.212   4.191   2.487  0.4688 -0.0089  0.0858
 3583TIP3    H110713   3.118   4.197   2.502  0.5493 -1.1860  1.3144
 3583TIP3    H210714   3.249   4.173   2.574  1.8777  0.8475 -0.3079
 3584TIP3   OH210715   2.901   3.838   4.645 -0.4746 -0.2186 -0.5424
 3584TIP3    H110716   2.884   3.925   4.681  0.4767 -0.8639  1.5944
 3584TIP3    H210717   2.993   3.840   4.620  0.2621 -1.3126  1.8330
 3585TIP3   OH210718   1.107   4.145   3.265  0.7278 -0.4047  0.4895
 3585TIP3    H110719   1.091   4.069   3.320 -2.0688  0.1559  0.5566
 3585TIP3    H210720   1.103   4.111   3.175 -1.4040 -0.2431  0.4918
 3586TIP3   OH210721   6.722   6.519   4.742 -0.3215 -0.0703  0.1447
 3586TIP3    H110722   6.785   6.447   4.739 -0.0717  0.1602 -0.5639
 3586TIP3    H210723   6.677   6.508   4.825 -1.4154 -2.0129 -0.6204
 3587TIP3   OH210724   0.972   1.010   1.634  0.1920  0.6636 -0.6223
 3587TIP3    H110725   1.005   1.088   1.590 -0.6693  1.1036 -0.5219
 3587TIP3    H210726   1.047   0.952   1.640  0.7367  1.2991 -1.1168
 3588TIP3   OH210727   2.444   1.692   3.860 -0.3429  0.3352 -0.0166
 3588TIP3    H110728   2.385   1.643   3.916 -3.1838  4.0076  0.5912
 3588TIP3    H210729   2.529   1.686   3.903 -0.8897 -2.4722  0.8759
 3589TIP3   OH210730   3.145   2.008   5.302  0.4811  0.1972 -0.0144
 3589TIP3    H110731   3.206   1.934   5.311 -1.8212 -1.7787  0.1693
 3589TIP3    H210732   3.102   1.993   5.218 -0.6350  0.8432  0.4234
 3590TIP3   OH210733   1.450   5.987   3.103  0.0702  0.4938  0.1442
 3590TIP3    H110734   1.417   5.897   3.108  0.7027  0.2297 -0.3612
 3590TIP3    H210735   1.396   6.028   3.034  0.2901  0.2815 -0.1552
 3591TIP3   OH210736   6.166   0.753   3.785 -0.0548 -0.3751  0.3322
 3591TIP3    H110737   6.207   0.762   3.872  1.4374 -1.5933 -0.1951
 3591TIP3    H210738   6.230   0.791   3.725 -0.1116 -1.4712 -0.4360
 3592TIP3   OH210739   6.585   2.672   3.891 -0.2298  0.5489 -0.1691
 3592TIP3    H110740   6.630   2.672   3.807  0.5047  0.1789  0.2142
 3592TIP3    H210741   6.645   2.717   3.950 -1.6144  2.6698 -0.2743
 3593TIP3   OH210742   6.998   4.089   3.285  0.5298 -0.0412  0.2792
 3593TIP3    H110743   7.076   4.142   3.270 -0.5144  1.5367  0.1126
 3593TIP3    H210744   6.997   4.071   3.379 -0.0521  1.8890  0.6854
 3594TIP3   OH210745   2.255   2.131   2.955 -0.2299 -0.9288 -0.2488
 3594TIP3    H110746   2.332   2.186   2.939 -1.3532  1.0601  0.8358
 3594TIP3    H210747   2.213   2.123   2.870 -0.1879  0.1239 -0.3713
 3595TIP3   OH210748   1.179   3.361   0.714  0.5927  0.0463 -0.1249
 3595TIP3    H110749   1.219   3.359   0.627  1.0745 -0.3507  0.1032
 3595TIP3    H210750   1.115   3.432   0.709  0.6579  0.0610 -0.7862
 3596TIP3   OH210751   2.245   5.757   0.851 -0.2752 -0.1531  0.3293
 3596TIP3    H110752   2.322   5.721   0.808  0.4181 -0.4381  1.7354
 3596TIP3    H210753   2.280   5.821   0.913 -1.3008  0.9724 -0.2038
 3597TIP3   OH210754   2.376   0.863   0.492 -0.0181 -0.3226 -0.5621
 3597TIP3    H110755   2.347   0.826   0.576  1.2255  0.6922  0.3513
 3597TIP3    H210756   2.298   0.903   0.456 -0.5012 -0.4687  0.2832
 3598TIP3   OH210757   2.665   4.749   4.817  0.1655  0.2375  0.0305
 3598TIP3    H110758   2.578   4.754   4.777  0.5086  0.1440 -0.7433
 3598TIP3    H210759   2.665   4.665   4.863  0.0142  0.0008 -0.3902
 3599TIP3   OH210760   0.125   2.270   1.941 -0.5608  0.7178  0.0178
 3599TIP3    H110761   0.213   2.236   1.955 -0.3119  1.8472  1.4108
 3599TIP3    H210762   0.075   2.239   2.017 -0.7974  1.8903  0.3567
 3600TIP3   OH210763   3.164   3.052   3.984  0.5431 -0.0217 -0.2774
 3600TIP3    H110764   3.240   3.059   4.042  1.1180 -1.4468 -0.8034
 3600TIP3    H210765   3.089   3.071   4.040  1.1340 -0.7709  0.7973
 3601TIP3   OH210766   2.924   0.528   3.051 -0.0629  0.4886  0.3431
 3601TIP3    H110767   2.927   0.503   2.958  1.8596  0.2623  0.4334
 3601TIP3    H210768   2.975   0.608   3.056  0.7501 -0.0753  1.3691
 3602TIP3   OH210769   4.233   2.489   2.034 -0.4438  0.1129 -0.3532
 3602TIP3    H110770   4.188   2.470   1.951  1.0316 -1.1790 -0.9089
 3602TIP3    H210771   4.294   2.560   2.013 -0.3301  0.0346 -0.2865
 3603TIP3   OH210772   4.420   5.680   1.957 -0.4685  0.1797 -0.5616
 3603TIP3    H110773   4.448   5.604   2.009  1.3147  2.1794  1.5827
 3603TIP3    H210774   4.495   5.701   1.902 -0.6551  0.8751 -0.5612
 3604TIP3   OH210775   5.901   4.068   0.878 -0.0528  0.1320 -0.1785
 3604TIP3    H110776   5.873   3.986   0.918  0.4100  0.4138  0.7655
 3604TIP3    H210777   5.827   4.095   0.823 -0.5622 -0.4611  0.2101
 3605TIP3   OH210778   1.412   5.746   1.091 -0.1029 -0.3149  0.2330
 3605TIP3    H110779   1.483   5.782   1.037  0.4991 -1.0327  0.5224
 3605TIP3    H210780   1.456   5.714   1.170 -0.8029 -0.4410  0.5790
 3606TIP3   OH210781   7.056   2.821   0.982 -0.0158 -0.1809 -0.1987
 3606TIP3    H110782   7.140   2.774   0.988  0.8106  1.3133  0.5568
 3606TIP3    H210783   7.081   2.912   0.967 -1.5224  0.2512 -0.1901
 3607TIP3   OH210784   3.206   2.847   2.584 -0.5949 -0.0338  0.5571
 3607TIP3    H110785   3.255   2.769   2.558 -2.0178 -0.7355 -0.1358
 3607TIP3    H210786   3.138   2.814   2.642 -1.1811  0.7021  0.3014
 3608TIP3   OH210787   1.132   5.871   2.366 -0.0474 -0.7527  0.2485
 3608TIP3    H110788   1.172   5.808   2.306 -0.5702  0.5587 -1.5810
 3608TIP3    H210789   1.206   5.921   2.401  0.1266  0.6254 -1.9034
 3609TIP3   OH210790   3.628   0.027   0.553  0.3884 -0.3222  0.4106
 3609TIP3    H110791   3.564  -0.040   0.533 -1.0586  1.6227 -2.0107
 3609TIP3    H210792   3.577   0.103   0.581  1.5694  1.2205 -1.3591
 3610TIP3   OH210793   1.193   5.872   1.980 -0.3921  0.0883 -0.0486
 3610TIP3    H110794   1.178   5.778   1.990 -1.9031  0.2648 -0.4854
 3610TIP3    H210795   1.124   5.902   1.921  0.4949  1.3601 -0.4898
 3611TIP3   OH210796   2.072   2.692   2.613  0.0477 -0.2384 -0.7000
 3611TIP3    H110797   2.066   2.611   2.663 -0.8368 -0.9854 -1.9437
 3611TIP3    H210798   2.166   2.702   2.595  0.1988 -0.8124 -0.2478
 3612TIP3   OH210799   2.269   6.581   5.554  0.1058 -0.2307  0.0671
 3612TIP3    H110800   2.183   6.619   5.568 -1.2733 -2.3112 -1.9606
 3612TIP3    H210801   2.319   6.648   5.507 -1.0373  0.3592 -0.3348
 3613TIP3   OH210802   2.225   6.674   0.268  0.2984  0.9621 -0.2219
 3613TIP3    H110803   2.312   6.700   0.236  0.4505 -0.4007 -0.9954
 3613TIP3    H210804   2.242   6.632   0.353  0.4400  0.5225 -0.4609
 3614TIP3   OH210805   4.328   6.683   5.695 -0.3151  0.0865  0.5522
 3614TIP3    H110806   4.343   6.746   5.766 -1.7665  0.3048  0.7011
 3614TIP3    H210807   4.405   6.692   5.638  0.7183  0.1481  1.9066
 3615TIP3   OH210808   6.657   0.282   3.596 -0.0217  0.6905 -0.1776
 3615TIP3    H110809   6.580   0.253   3.645 -1.8729  1.7190 -2.2909
 3615TIP3    H210810   6.664   0.375   3.616 -0.1741  0.8910 -1.0393
 3616TIP3   OH210811   0.648   2.621   3.480  0.0914 -0.0077 -0.2165
 3616TIP3    H110812   0.662   2.686   3.549  1.5873 -0.0990 -0.3925
 3616TIP3    H210813   0.561   2.585   3.497  0.0570  0.6431  1.0557
 3617TIP3   OH210814   4.298   2.496   3.784 -0.0276 -0.1247 -0.1015
 3617TIP3    H110815   4.361   2.530   3.848 -1.1844  1.2688  0.3499
 3617TIP3    H210816   4.302   2.558   3.712 -1.0572  0.1191  0.0441
 3618TIP3   OH210817   5.947   6.584   3.830  0.8165 -0.0437  0.0824
 3618TIP3    H110818   5.998   6.664   3.825  1.3273 -0.2960  0.9776
 3618TIP3    H210819   5.856   6.612   3.818  1.0910  0.4891 -0.8531
 3619TIP3   OH210820   0.748   5.029   5.642 -0.6925 -0.1573  0.1989
 3619TIP3    H110821   0.752   5.123   5.625 -0.5712 -0.2267 -0.1787
 3619TIP3    H210822   0.833   4.996   5.612 -0.3646 -0.2483  1.2185
 3620TIP3   OH210823   5.167   6.513   5.294 -0.3692  0.1928  0.0701
 3620TIP3    H110824   5.248   6.493   5.247 -0.7182  0.3578 -0.6195
 3620TIP3    H210825   5.186   6.491   5.385 -0.6332 -3.2582 -0.5449
 3621TIP3   OH210826   1.812   1.259   2.554  0.5979  0.4822  0.4510
 3621TIP3    H110827   1.729   1.263   2.507  1.3193 -1.4211 -1.1575
 3621TIP3    H210828   1.867   1.325   2.512  1.6496 -2.0093 -2.4947
 3622TIP3   OH210829   0.160   1.185   5.810  0.5649 -0.0536 -0.3144
 3622TIP3    H110830   0.194   1.199   5.722  2.5296  0.0284  0.4202
 3622TIP3    H210831   0.097   1.256   5.823  0.6956  0.2767 -1.4224
 3623TIP3   OH210832   6.596   0.187   5.604  0.3320 -0.2039  0.1228
 3623TIP3    H110833   6.649   0.174   5.683  0.0855  1.2265  0.5349
 3623TIP3    H210834   6.514   0.141   5.622  0.2467  0.1808  0.7354
 3624TIP3   OH210835   4.774   0.032   5.502 -0.0651  0.3747  0.2052
 3624TIP3    H110836   4.868   0.050   5.494  0.4914 -1.6888  1.3167
 3624TIP3    H210837   4.755   0.050   5.594 -0.0304 -2.0194  0.7314
 3625TIP3   OH210838   3.991   3.138   1.092 -0.1957  0.7228  0.7739
 3625TIP3    H110839   3.971   3.063   1.037  1.2419 -0.3163  1.6106
 3625TIP3    H210840   4.018   3.206   1.031 -0.3966  0.1946  0.0871
 3626TIP3   OH210841   1.649   4.841   2.934  0.6943  0.9425  0.1130
 3626TIP3    H110842   1.699   4.807   2.860 -0.1296 -0.2600  0.0936
 3626TIP3    H210843   1.694   4.807   3.011  0.0129 -0.0191  0.0985
 3627TIP3   OH210844   6.415   5.662   1.092 -0.6945  0.4368 -0.7693
 3627TIP3    H110845   6.338   5.681   1.145 -0.3048 -1.3509  0.5370
 3627TIP3    H210846   6.386   5.674   1.002 -1.4612  3.2501 -0.2276
 3628TIP3   OH210847   6.136   3.281   5.700 -0.1321  0.2737  0.4771
 3628TIP3    H110848   6.060   3.267   5.757 -0.4560  1.7889  0.4700
 3628TIP3    H210849   6.158   3.194   5.667 -1.7767 -0.2247  0.5948
 3629TIP3   OH210850   2.223   0.480   5.524  0.5867  0.3511 -0.5865
 3629TIP3    H110851   2.268   0.437   5.597 -1.2649 -1.3074 -0.3617
 3629TIP3    H210852   2.254   0.434   5.446 -1.8803 -2.0381 -0.2996
 3630TIP3   OH210853   1.459   1.972   3.754 -0.5586  0.2568 -0.7987
 3630TIP3    H110854   1.486   2.035   3.820  0.5865  1.7828 -2.6037
 3630TIP3    H210855   1.364   1.983   3.748 -0.7135 -0.1226  0.7512
 3631TIP3   OH210856   6.350   2.927   1.159 -0.3050  0.0394 -0.2721
 3631TIP3    H110857   6.444   2.922   1.178 -0.2945 -1.0288 -0.5547
 3631TIP3    H210858   6.346   2.970   1.074 -0.1123  0.7406  0.0694
 3632TIP3   OH210859   3.952   6.265   3.655 -0.0830 -0.0109  0.1783
 3632TIP3    H110860   3.921   6.327   3.589 -0.9283 -1.7268 -1.1210
 3632TIP3    H210861   3.992   6.194   3.605 -0.1300 -1.0469  1.5368
 3633TIP3   OH210862   1.486   3.298   3.036  0.4390  0.1332  0.0706
 3633TIP3    H110863   1.417   3.307   2.971  0.9434  0.2109 -0.4622
 3633TIP3    H210864   1.559   3.257   2.988 -0.2541 -2.8810  1.3298
 3634TIP3   OH210865   6.099   1.716   0.781  0.3173 -0.4517  0.2676
 3634TIP3    H110866   6.014   1.701   0.822  0.3309 -1.2182  0.0337
 3634TIP3    H210867   6.128   1.800   0.815 -0.6195 -0.0964  0.1993
 3635TIP3   OH210868   2.705   3.370   1.320  0.2778  0.2266  0.0588
 3635TIP3    H110869   2.656   3.362   1.238 -1.0926  0.4406  0.8307
 3635TIP3    H210870   2.763   3.294   1.321 -1.0630 -0.8404 -0.2179
 3636TIP3   OH210871   1.316   2.349   2.836  0.3390 -0.5041 -0.0305
 3636TIP3    H110872   1.350   2.381   2.753  0.5865 -0.7145 -0.0116
 3636TIP3    H210873   1.225   2.377   2.838  0.8737  1.3523  0.5470
 3637TIP3   OH210874   4.553   3.050   4.589  0.2415  0.4982  0.6349
 3637TIP3    H110875   4.469   3.011   4.616  0.0087  0.5789  0.0475
 3637TIP3    H210876   4.580   2.998   4.513  0.2583  1.0581  0.2506
 3638TIP3   OH210877   3.207   2.138   4.412 -0.0770  0.3792  0.2015
 3638TIP3    H110878   3.139   2.171   4.470 -0.7381  0.2552 -0.4739
 3638TIP3    H210879   3.160   2.113   4.332  0.8616  1.0581 -0.5994
 3639TIP3   OH210880   1.585   1.544   5.850  1.0640  0.3085  0.0148
 3639TIP3    H110881   1.501   1.498   5.850  0.8073  0.7148  1.3656
 3639TIP3    H210882   1.570   1.621   5.795  0.1924  0.9445  1.0948
 3640TIP3   OH210883   7.022   5.703   0.768  0.2397 -0.0832 -0.8596
 3640TIP3    H110884   7.101   5.673   0.814 -0.3294 -0.3621 -0.0332
 3640TIP3    H210885   6.964   5.626   0.769 -0.4741  0.4496 -0.4637
 3641TIP3   OH210886   6.797   4.636   0.246 -0.2252 -0.3544  0.3055
 3641TIP3    H110887   6.702   4.647   0.235 -0.0568  1.3640  0.3626
 3641TIP3    H210888   6.826   4.717   0.288  1.4258 -0.3910 -0.6827
 3642TIP3   OH210889   4.445   4.900   5.155 -0.3160  0.0537 -0.3753
 3642TIP3    H110890   4.434   4.842   5.080 -0.2897 -0.4169 -0.0170
 3642TIP3    H210891   4.371   4.880   5.212  0.3294 -0.4665  0.2952
 3643TIP3   OH210892   4.647   3.836   4.899 -0.5140 -0.4846  0.6214
 3643TIP3    H110893   4.687   3.785   4.969  1.3958 -1.3986 -1.0457
 3643TIP3    H210894   4.617   3.771   4.836 -2.1832  0.3259  0.5305
 3644TIP3   OH210895   4.752   3.231   0.189  0.0921 -0.2420  0.4336
 3644TIP3    H110896   4.837   3.200   0.158 -0.9520 -2.3509 -0.5173
 3644TIP3    H210897   4.743   3.318   0.151  0.8781 -0.9017 -1.3963
 3645TIP3   OH210898   6.758   5.302   3.305 -0.6518  0.4853  0.2183
 3645TIP3    H110899   6.776   5.381   3.254 -1.4705  1.2462  1.0594
 3645TIP3    H210900   6.828   5.298   3.371  0.6074 -0.6897 -1.1186
 3646TIP3   OH210901   1.492   3.063   0.691 -0.3329 -0.1244  0.0739
 3646TIP3    H110902   1.516   3.001   0.621  1.7418  0.2344  0.4282
 3646TIP3    H210903   1.573   3.079   0.738 -1.3668  0.9361  1.5687
 3647TIP3   OH210904   3.439   2.071   5.771  0.4165  0.1421  0.7135
 3647TIP3    H110905   3.390   2.066   5.853 -1.2293 -0.9047 -0.2845
 3647TIP3    H210906   3.469   1.982   5.755 -1.1831 -0.1521 -0.8989
 3648TIP3   OH210907   7.022   4.950   5.101 -0.0554 -0.1768  0.4724
 3648TIP3    H110908   6.968   4.979   5.027  3.3060  0.8411 -1.8575
 3648TIP3    H210909   7.056   4.865   5.074  0.9604  0.0575  0.9447
 3649TIP3   OH210910   6.279   2.225   3.832 -0.0022 -0.4618  0.3702
 3649TIP3    H110911   6.371   2.251   3.825 -0.0534  0.0914  1.4128
 3649TIP3    H210912   6.232   2.288   3.777  0.3212 -1.3070 -0.8860
 3650TIP3   OH210913   0.099   1.069   0.194  0.2929  0.2137  0.2142
 3650TIP3    H110914   0.167   1.085   0.129  0.9856 -2.3068  0.2065
 3650TIP3    H210915   0.133   1.107   0.275  0.3522  1.5514 -0.4143
 3651TIP3   OH210916   0.128   5.215   3.642 -0.1248 -0.1653 -0.5297
 3651TIP3    H110917   0.165   5.127   3.632 -0.4063 -0.1860 -1.5109
 3651TIP3    H210918   0.058   5.205   3.706  1.2683 -0.2072  1.0511
 3652TIP3   OH210919   4.470   4.864   0.617  0.0776 -0.1545 -0.3214
 3652TIP3    H110920   4.454   4.774   0.645  0.5391 -0.1947 -0.1780
 3652TIP3    H210921   4.408   4.879   0.545 -0.1034 -0.5340 -0.2428
 3653TIP3   OH210922   3.387   5.817   2.535 -0.7573 -0.9414 -0.5782
 3653TIP3    H110923   3.433   5.824   2.618  0.4029 -0.2008 -1.2577
 3653TIP3    H210924   3.306   5.867   2.548 -1.5486 -2.4641  0.7061
 3654TIP3   OH210925   3.774   6.535   4.519 -0.0555 -0.4550  0.0939
 3654TIP3    H110926   3.853   6.589   4.526 -1.7802  2.3446 -0.5038
 3654TIP3    H210927   3.768   6.491   4.604  1.5392  0.1510  0.5598
 3655TIP3   OH210928   6.494   6.625   0.621  0.4194  0.0006  0.5016
 3655TIP3    H110929   6.481   6.668   0.537  2.3977 -0.8183 -0.2789
 3655TIP3    H210930   6.423   6.659   0.677 -0.4942  1.1088 -1.2509
 3656TIP3   OH210931   4.654   1.321   5.150  0.0893 -0.4801  0.0028
 3656TIP3    H110932   4.665   1.375   5.228 -0.6674 -1.4463  0.8072
 3656TIP3    H210933   4.563   1.334   5.124  0.1333 -0.7215 -0.2777
 3657TIP3   OH210934   0.053   4.516   1.155  0.3134 -0.2946 -0.8862
 3657TIP3    H110935  -0.011   4.446   1.172 -0.2051 -0.3273 -2.7080
 3657TIP3    H210936   0.050   4.527   1.060  0.7856  1.8437 -0.6872
 3658TIP3   OH210937   6.637   6.553   2.062  0.3743 -0.5535 -0.7925
 3658TIP3    H110938   6.565   6.569   2.123  0.3573  0.5246 -1.0647
 3658TIP3    H210939   6.708   6.518   2.116  0.3860  0.4514 -0.1342
 3659TIP3   OH210940   1.748   2.853   1.409 -0.4031 -0.4286 -0.3735
 3659TIP3    H110941   1.787   2.824   1.327 -0.0546  0.2025 -0.4361
 3659TIP3    H210942   1.717   2.773   1.451  1.6441 -1.0728  0.0343
 3660TIP3   OH210943   2.977   2.525   3.190 -0.1448  0.2392 -0.4022
 3660TIP3    H110944   2.972   2.477   3.107  0.8996  2.7411 -2.0502
 3660TIP3    H210945   2.887   2.552   3.208 -0.6652 -1.7649  0.2852
 3661TIP3   OH210946   1.102   3.134   3.374 -0.5171 -0.0701  0.4986
 3661TIP3    H110947   1.049   3.200   3.330 -0.2629  0.3474  0.8124
 3661TIP3    H210948   1.190   3.148   3.340 -0.4394 -0.1693  0.6601
 3662TIP3   OH210949  -0.001   0.838   0.788 -0.0371  0.2288  0.3546
 3662TIP3    H110950   0.060   0.872   0.723  2.0924  0.4540  2.3174
 3662TIP3    H210951   0.033   0.751   0.810 -0.0783  0.5537  1.8439
 3663TIP3   OH210952   6.830   6.089   2.037 -0.4593 -0.1636  0.0611
 3663TIP3    H110953   6.869   6.170   2.003  0.1664 -0.2546  0.5487
 3663TIP3    H210954   6.744   6.116   2.069 -0.9117  0.0066 -1.2004
 3664TIP3   OH210955   1.430   6.403   4.579  0.4386  0.6678  0.0724
 3664TIP3    H110956   1.508   6.454   4.601  0.9140 -0.9344  2.3572
 3664TIP3    H210957   1.373   6.411   4.655  1.0831 -3.1351  1.1483
 3665TIP3   OH210958   0.197   0.471   1.411  0.3483  0.2030  0.2798
 3665TIP3    H110959   0.241   0.502   1.491  0.7661 -0.2117  0.2103
 3665TIP3    H210960   0.260   0.487   1.341 -0.2304  1.0893 -0.0681
 3666TIP3   OH210961   6.582   3.027   3.379 -0.1017 -0.1635  0.1293
 3666TIP3    H110962   6.596   3.064   3.292  0.3235  3.0841  1.4380
 3666TIP3    H210963   6.657   2.969   3.392 -0.8474 -1.7382 -2.0883
 3667TIP3   OH210964   1.127   1.733   0.081  0.1776 -0.1047  0.0265
 3667TIP3    H110965   1.079   1.768   0.157  0.0544 -1.1121  0.4234
 3667TIP3    H210966   1.150   1.811   0.030  1.0688  0.6801  1.5614
 3668TIP3   OH210967   1.500   6.025   2.804  0.3839 -0.1135 -0.4630
 3668TIP3    H110968   1.462   6.104   2.767 -1.3386 -1.5028 -1.8287
 3668TIP3    H210969   1.542   6.054   2.885 -1.8343  1.9105  0.0772
 3669TIP3   OH210970   5.253   5.878   4.354  0.3179  0.1658 -0.0032
 3669TIP3    H110971   5.337   5.900   4.315 -1.0818  1.6459 -2.4571
 3669TIP3    H210972   5.219   5.962   4.387 -0.6970 -0.1448 -0.2056
 3670TIP3   OH210973   3.363   0.071   1.074  0.2975 -0.3204 -0.3452
 3670TIP3    H110974   3.413   0.097   1.151 -0.0529  1.9225 -0.8018
 3670TIP3    H210975   3.429   0.061   1.005  0.3717  0.3155 -0.3765
 3671TIP3   OH210976   3.610   4.447   0.962  0.2136 -0.3870 -0.0686
 3671TIP3    H110977   3.702   4.471   0.956  0.7181 -1.6195  1.8413
 3671TIP3    H210978   3.567   4.526   0.996  0.5475  0.1492 -0.8481
 3672TIP3   OH210979   2.318   2.159   0.645  0.0554 -0.0599 -0.6268
 3672TIP3    H110980   2.278   2.216   0.580  0.9476  2.0399  0.5673
 3672TIP3    H210981   2.412   2.162   0.626  0.4034  1.0754  1.0489
 3673TIP3   OH210982   4.919   1.679   0.141 -0.0526  0.1680 -0.5714
 3673TIP3    H110983   4.944   1.650   0.228 -0.7360  4.5154  1.3377
 3673TIP3    H210984   4.827   1.706   0.150 -0.1684  0.6831 -2.6736
 3674TIP3   OH210985   4.156   0.182   3.393  0.0927 -0.5361  0.1324
 3674TIP3    H110986   4.245   0.157   3.419 -0.9063 -2.3825  2.1365
 3674TIP3    H210987   4.134   0.255   3.451  0.1704 -0.3214 -0.1075
 3675TIP3   OH210988   4.777   5.810   1.580  0.1673 -0.2402  0.1832
 3675TIP3    H110989   4.823   5.782   1.660  3.4553  0.7600 -1.1964
 3675TIP3    H210990   4.772   5.905   1.587  1.1724 -0.0669 -1.0873
 3676TIP3   OH210991   6.335   2.462   1.522  0.2648 -0.5427 -0.1859
 3676TIP3    H110992   6.293   2.488   1.604  0.2485  0.5909 -0.5297
 3676TIP3    H210993   6.341   2.367   1.526  0.9832 -0.4553  1.4840
 3677TIP3   OH210994   0.648   6.374   0.396  0.3541  0.2118  0.5644
 3677TIP3    H110995   0.572   6.394   0.451 -0.1932  2.6489 -0.9147
 3677TIP3    H210996   0.619   6.395   0.307  2.1815 -0.6211 -0.2879
 3678TIP3   OH210997   5.356   4.142   0.455  0.0895  0.3921  0.6800
 3678TIP3    H110998   5.262   4.144   0.469 -0.1993  0.6861 -1.0008
 3678TIP3    H210999   5.395   4.151   0.542 -1.4336  1.2944  1.2937
 3679TIP3   OH211000   3.678   0.376   4.424  0.2734 -0.1751  0.0693
 3679TIP3    H111001   3.652   0.291   4.460 -2.2789 -0.8058 -2.8677
 3679TIP3    H211002   3.616   0.438   4.463 -0.3875 -0.3389 -0.6897
 3680TIP3   OH211003   0.587   0.358   5.072  0.0572  0.2187 -0.1657
 3680TIP3    H111004   0.492   0.341   5.072  0.0910  0.0286 -0.0724
 3680TIP3    H211005   0.626   0.279   5.035  0.2256  0.0161  0.4365
 3681TIP3   OH211006   1.519   4.392   5.038 -0.3307  0.3764  0.9066
 3681TIP3    H111007   1.579   4.318   5.028 -0.8205 -0.0491  1.0936
 3681TIP3    H211008   1.559   4.446   5.107  1.2037  1.4776 -0.7480
 3682TIP3   OH211009   1.601   0.197   4.680  0.1287  0.1026  0.1948
 3682TIP3    H111010   1.580   0.290   4.671  1.3315  0.3440 -0.2575
 3682TIP3    H211011   1.565   0.173   4.766 -0.6234  0.8530  0.1020
 3683TIP3   OH211012   6.487   1.095   3.237  0.9117 -0.5753 -0.2296
 3683TIP3    H111013   6.542   1.173   3.223  1.7728 -1.2631 -0.7610
 3683TIP3    H211014   6.411   1.109   3.180 -0.8341  1.6034  2.3842
 3684TIP3   OH211015   0.679   1.455   4.857  0.1176 -0.2856 -0.5945
 3684TIP3    H111016   0.761   1.423   4.894  0.0870  1.5526  1.1914
 3684TIP3    H211017   0.700   1.470   4.764  1.9789  0.6329 -0.0799
 3685TIP3   OH211018   4.839   1.800   3.736 -0.2986  0.4416 -0.2204
 3685TIP3    H111019   4.870   1.863   3.801 -1.9552  1.2715 -0.2112
 3685TIP3    H211020   4.759   1.764   3.774  0.1009 -0.9847 -0.6616
 3686TIP3   OH211021   4.334   0.089   1.971 -0.3843  0.5166 -0.1906
 3686TIP3    H111022   4.427   0.082   1.949 -0.4872 -1.4907 -0.1699
 3686TIP3    H211023   4.289   0.089   1.887 -0.4391 -0.0647 -0.1614
 3687TIP3   OH211024   6.183   4.702   2.814 -0.6723 -0.3816  0.0840
 3687TIP3    H111025   6.113   4.637   2.815 -0.0264 -1.0819  0.3036
 3687TIP3    H211026   6.171   4.752   2.895 -0.0733 -1.4212  0.8309
 3688TIP3   OH211027   4.127   1.056   5.242 -0.4739  0.6265 -0.2897
 3688TIP3    H111028   4.072   0.993   5.289 -1.2611  0.2468 -1.6636
 3688TIP3    H211029   4.120   1.030   5.150  1.8069  0.7394 -0.5434
 3689TIP3   OH211030   1.835   6.111   1.081  0.3070  0.1132 -0.3426
 3689TIP3    H111031   1.781   6.187   1.059  0.6128  0.4235 -0.0284
 3689TIP3    H211032   1.782   6.062   1.144  1.2452  1.5368  1.6458
 3690TIP3   OH211033   3.053   5.544   0.357  0.0946  0.0343 -0.2914
 3690TIP3    H111034   3.002   5.478   0.311  0.4512 -0.8023  0.4643
 3690TIP3    H211035   3.013   5.627   0.333 -1.1407 -0.5443 -0.3091
 3691TIP3   OH211036   0.431   5.617   3.236  0.2330 -0.1225  0.3513
 3691TIP3    H111037   0.364   5.559   3.271 -0.3421  0.6922  0.6320
 3691TIP3    H211038   0.454   5.674   3.309 -0.0627  0.7613 -0.2328
 3692TIP3   OH211039   3.471   2.269   0.473 -0.2034  0.2419 -0.4971
 3692TIP3    H111040   3.389   2.306   0.506 -0.2053  0.3447 -0.6163
 3692TIP3    H211041   3.457   2.175   0.476 -0.0030  0.2243  0.3192
 3693TIP3   OH211042   2.500   5.382   1.277 -0.9061  0.0947 -0.5100
 3693TIP3    H111043   2.465   5.310   1.225  1.7902 -1.0626 -0.8630
 3693TIP3    H211044   2.550   5.339   1.346 -0.7883  1.6484  0.4215
 3694TIP3   OH211045   5.022   6.173   2.374  0.1500  0.3937 -0.6005
 3694TIP3    H111046   4.971   6.227   2.313  2.1403  0.8446 -1.9570
 3694TIP3    H211047   5.084   6.126   2.318  1.3077 -0.0555  0.9960
 3695TIP3   OH211048   7.087   2.717   0.710  0.1558 -0.2574  0.2415
 3695TIP3    H111049   7.105   2.628   0.739 -0.3892 -0.6603 -0.6027
 3695TIP3    H211050   7.164   2.767   0.736  0.0392 -0.7537  1.6206
 3696TIP3   OH211051   1.922   3.091   0.656  0.6206  0.0387 -0.1485
 3696TIP3    H111052   1.982   3.136   0.595  2.4163 -0.4474  1.1677
 3696TIP3    H211053   1.853   3.154   0.673  1.2153  0.9692 -1.0677
 3697TIP3   OH211054   5.844   1.759   5.269  0.0974  0.4333 -0.1025
 3697TIP3    H111055   5.764   1.727   5.227  0.6146  1.0693 -1.6208
 3697TIP3    H211056   5.821   1.765   5.362 -1.1609 -0.7597 -0.3031
 3698TIP3   OH211057   3.495   5.185   0.773  0.5689 -0.0976  0.1682
 3698TIP3    H111058   3.458   5.206   0.687 -1.7650 -0.8935  0.8992
 3698TIP3    H211059   3.556   5.257   0.791  0.3322  0.6285 -1.6737
 3699TIP3   OH211060   1.498   0.970   1.258 -0.7831 -0.2017 -0.8238
 3699TIP3    H111061   1.532   1.045   1.306 -2.1353 -0.5042  0.6750
 3699TIP3    H211062   1.506   0.896   1.318 -2.4543 -0.6088 -1.0586
 3700TIP3   OH211063   2.318   6.494   4.319  0.2230  0.4841 -0.6902
 3700TIP3    H111064   2.250   6.490   4.252 -0.3079 -0.0309 -0.1291
 3700TIP3    H211065   2.361   6.578   4.303 -0.9677  1.1288 -0.6443
 3701TIP3   OH211066   0.189   1.371   3.940  0.0180 -0.5440 -0.1679
 3701TIP3    H111067   0.262   1.379   4.002  0.3148  0.2763 -0.6077
 3701TIP3    H211068   0.222   1.312   3.872  0.7340  0.7305 -0.9766
 3702TIP3   OH211069   4.911   4.587   1.451 -0.9337  0.0642  0.1279
 3702TIP3    H111070   4.955   4.657   1.403 -1.4149  0.4232  0.2047
 3702TIP3    H211071   4.974   4.562   1.519 -0.6259  0.1837 -0.1063
 3703TIP3   OH211072   3.556   0.914   4.307 -0.0638  0.2407 -0.0945
 3703TIP3    H111073   3.591   0.993   4.264 -1.1373  1.3319  0.9523
 3703TIP3    H211074   3.624   0.889   4.369  0.4832  0.0561 -0.7557
 3704TIP3   OH211075   1.798   0.151   3.946  0.2473  0.1811  0.1931
 3704TIP3    H111076   1.775   0.175   4.036 -0.4022 -0.5489  0.2310
 3704TIP3    H211077   1.780   0.230   3.895 -3.0774 -0.4887  0.1151
 3705TIP3   OH211078   1.065   2.120   4.236  0.1760  0.3412  0.3307
 3705TIP3    H111079   1.019   2.037   4.247  0.8636  0.2227  3.2506
 3705TIP3    H211080   1.157   2.098   4.249  0.4213  1.4713  0.6385
 3706TIP3   OH211081   2.043   0.394   3.238 -0.1310  0.3613  0.9031
 3706TIP3    H111082   2.134   0.367   3.228 -0.5382 -1.1408  1.0284
 3706TIP3    H211083   2.024   0.383   3.331 -0.8156 -0.6734  0.6592
 3707TIP3   OH211084   3.139   3.366   1.818 -0.0911  0.5815 -0.5307
 3707TIP3    H111085   3.105   3.449   1.782 -1.2465  1.1472  1.7043
 3707TIP3    H211086   3.205   3.393   1.882 -0.0591 -0.2552 -0.2040
 3708TIP3   OH211087   5.854   2.825   4.429 -0.0120  0.5654 -0.0193
 3708TIP3    H111088   5.857   2.740   4.384 -0.4919  0.4437  0.1753
 3708TIP3    H211089   5.929   2.873   4.394 -0.6630  0.6702 -1.3594
 3709TIP3   OH211090   2.532   3.867   3.151  0.1237  0.1725 -0.3435
 3709TIP3    H111091   2.486   3.852   3.068  0.5465  0.1942 -0.5860
 3709TIP3    H211092   2.624   3.851   3.130  0.1494 -0.5943  0.3199
 3710TIP3   OH211093   6.422   4.150   2.078 -0.1273 -0.4781 -0.1520
 3710TIP3    H111094   6.475   4.086   2.125 -1.3817 -1.9285 -0.6338
 3710TIP3    H211095   6.381   4.202   2.146 -0.4642 -1.3436  0.3247
 3711TIP3   OH211096   1.039   6.536   4.836  0.8887  0.0927 -0.2911
 3711TIP3    H111097   0.944   6.527   4.850  1.1089 -2.3264  0.1755
 3711TIP3    H211098   1.049   6.540   4.741  0.3442 -0.3610 -0.3743
 3712TIP3   OH211099   4.759   5.266   2.251  0.1150 -0.1913  0.5048
 3712TIP3    H111100   4.796   5.340   2.299 -0.3879 -0.4659  1.3350
 3712TIP3    H211101   4.751   5.197   2.316  0.1333 -0.8251 -0.1565
 3713TIP3   OH211102   6.867   2.432   1.191  0.3156  0.6200  0.3111
 3713TIP3    H111103   6.926   2.491   1.238 -0.4171  1.3535  0.3232
 3713TIP3    H211104   6.784   2.479   1.186 -0.3451 -0.4876  0.4889
 3714TIP3   OH211105   6.249   3.367   5.475 -0.3646  0.2497  0.0310
 3714TIP3    H111106   6.308   3.294   5.457  0.9832  1.3540 -0.1608
 3714TIP3    H211107   6.217   3.351   5.564 -1.0582 -1.1997 -0.4456
 3715TIP3   OH211108   5.148   1.917   3.091 -0.1491  0.1041 -0.6529
 3715TIP3    H111109   5.224   1.971   3.066 -0.4436  0.8424  0.0284
 3715TIP3    H211110   5.185   1.831   3.108  0.4418  0.2809 -1.0024
 3716TIP3   OH211111   1.508   3.777   1.396 -0.1164 -0.4189 -0.2004
 3716TIP3    H111112   1.491   3.749   1.306 -2.7229  0.9967 -0.2389
 3716TIP3    H211113   1.558   3.858   1.386  0.7290 -0.9428 -0.3081
 3717TIP3   OH211114   0.161   4.711   3.866 -0.2671 -0.6559 -0.3002
 3717TIP3    H111115   0.230   4.754   3.815  0.0318 -0.0190  0.6172
 3717TIP3    H211116   0.188   4.723   3.957 -1.3051 -0.8872  0.0485
 3718TIP3   OH211117   2.157   2.142   4.013  0.1900  0.2531  0.0270
 3718TIP3    H111118   2.126   2.225   4.051 -1.7380 -1.5158  2.7392
 3718TIP3    H211119   2.197   2.167   3.930 -0.2772  3.8842  0.7165
 3719TIP3   OH211120   3.008   0.040   0.661  0.6044 -0.4392  0.1556
 3719TIP3    H111121   2.962   0.080   0.735  0.2148 -1.0381  0.2475
 3719TIP3    H211122   2.938   0.011   0.602  0.8856 -0.6935 -0.0569
 3720TIP3   OH211123   3.568   3.777   1.778 -0.0731 -0.0112 -0.5504
 3720TIP3    H111124   3.502   3.840   1.806  0.3648  1.2437 -2.1652
 3720TIP3    H211125   3.592   3.805   1.690  3.2186  0.1346  0.2448
 3721TIP3   OH211126   0.843   2.211   2.507 -0.3605 -0.1531 -0.1467
 3721TIP3    H111127   0.866   2.280   2.569  0.6774 -1.2855  0.7904
 3721TIP3    H211128   0.805   2.142   2.562  0.2000 -1.0106 -0.8218
 3722TIP3   OH211129   3.297   4.807   3.895  0.0932  0.3434 -0.5308
 3722TIP3    H111130   3.383   4.827   3.857  0.1490 -0.5592 -0.9029
 3722TIP3    H211131   3.316   4.791   3.987  0.3535 -0.0385 -0.6483
 3723TIP3   OH211132   0.673   3.100   1.064 -0.3110  0.4410 -0.3957
 3723TIP3    H111133   0.765   3.111   1.087 -0.1895  1.1393 -1.1434
 3723TIP3    H211134   0.627   3.104   1.148  0.4578 -1.7008  0.1808
 3724TIP3   OH211135   3.761   2.527   5.240  0.3277  0.0979 -0.6399
 3724TIP3    H111136   3.778   2.530   5.334 -0.9960 -0.8977 -0.3319
 3724TIP3    H211137   3.692   2.461   5.230  2.2840 -1.8513 -2.6084
 3725TIP3   OH211138   5.746   6.184   2.608  0.0508  0.0426  0.1714
 3725TIP3    H111139   5.798   6.104   2.611 -1.0199 -0.8606 -2.3159
 3725TIP3    H211140   5.657   6.156   2.629 -0.4077  0.4701 -1.1120
 3726TIP3   OH211141   3.501   0.370   5.797  0.0251  0.0966  0.2506
 3726TIP3    H111142   3.534   0.332   5.878  0.0190  2.5663  1.4862
 3726TIP3    H211143   3.531   0.461   5.799 -1.1362  0.5845 -1.8689
 3727TIP3   OH211144   4.946   1.916   2.859  0.0749 -1.0521  0.0338
 3727TIP3    H111145   4.985   2.004   2.856 -0.8352 -0.6277  0.1272
 3727TIP3    H211146   5.017   1.859   2.887  0.7115 -0.3588 -0.1324
 3728TIP3   OH211147   1.955   2.125   3.129 -0.4997  0.2199 -0.1171
 3728TIP3    H111148   2.007   2.052   3.094  1.9840  2.0722 -0.5368
 3728TIP3    H211149   1.881   2.082   3.172 -0.1493 -2.4607 -1.8863
 3729TIP3   OH211150   2.261   1.581   0.388  0.3791 -0.3433 -0.2887
 3729TIP3    H111151   2.272   1.559   0.296  0.6599 -0.3102 -0.2638
 3729TIP3    H211152   2.330   1.644   0.407 -0.7251  0.9816 -0.4858
 3730TIP3   OH211153   4.959   0.663   5.737  0.6421  0.0280 -0.3735
 3730TIP3    H111154   5.017   0.719   5.788  0.0611 -0.2776  0.6452
 3730TIP3    H211155   5.016   0.590   5.710  1.2305  0.7530 -1.1459
 3731TIP3   OH211156   4.728   4.723   0.305 -0.8500  0.0552  0.1937
 3731TIP3    H111157   4.804   4.741   0.250 -1.2690  0.9593 -0.1038
 3731TIP3    H211158   4.656   4.706   0.244 -0.9326 -0.6670  0.4738
 3732TIP3   OH211159   5.182   6.397   2.686 -0.1656 -0.4670 -0.0257
 3732TIP3    H111160   5.189   6.479   2.636 -0.9288  0.4653  1.3424
 3732TIP3    H211161   5.147   6.424   2.771 -1.2042 -2.3367  0.1699
 3733TIP3   OH211162   0.670   5.207   0.665 -0.6196 -0.4674  0.3596
 3733TIP3    H111163   0.757   5.179   0.638 -0.8741  0.3946 -1.5489
 3733TIP3    H211164   0.686   5.279   0.725 -0.0108 -0.6068  0.3749
 3734TIP3   OH211165   2.261   3.994   1.584  0.3499 -0.4617 -0.2338
 3734TIP3    H111166   2.253   4.021   1.675 -1.1648  1.1976 -0.8081
 3734TIP3    H211167   2.198   3.923   1.574  0.7177 -0.8366  0.0550
 3735TIP3   OH211168   6.344   6.712   2.653  0.1121 -0.4769 -0.0938
 3735TIP3    H111169   6.434   6.685   2.670  0.3317 -0.2710 -0.9069
 3735TIP3    H211170   6.342   6.805   2.676  0.6119  0.0016 -1.8471
 3736TIP3   OH211171   3.917   0.537   4.081 -0.4228 -0.0576 -0.3510
 3736TIP3    H111172   3.853   0.467   4.072 -1.5777  0.9870 -0.5913
 3736TIP3    H211173   3.865   0.617   4.079  0.9742  0.8757 -1.4712
 3737TIP3   OH211174   3.299   5.595   2.979  0.6818  0.6078  0.4985
 3737TIP3    H111175   3.272   5.633   3.062 -0.8443 -1.6889  1.1299
 3737TIP3    H211176   3.259   5.651   2.912 -0.7085  0.6592  1.3559
 3738TIP3   OH211177   3.604   6.125   1.153  0.2505  0.7707 -0.1065
 3738TIP3    H111178   3.529   6.086   1.198 -0.6103  0.7543 -1.5115
 3738TIP3    H211179   3.614   6.211   1.193  1.9997 -0.6375  2.8447
 3739TIP3   OH211180   6.031   3.643   3.708 -0.7049 -0.2144  0.2309
 3739TIP3    H111181   5.991   3.658   3.793 -2.1855 -0.2397 -0.4376
 3739TIP3    H211182   6.046   3.731   3.673  1.5043 -0.1406  1.1860
 3740TIP3   OH211183   4.511   4.562   3.250 -0.8412  0.0871  0.1180
 3740TIP3    H111184   4.474   4.615   3.321 -2.4215  1.6987 -1.7878
 3740TIP3    H211185   4.557   4.624   3.194  0.4767 -1.1652 -0.2569
 3741TIP3   OH211186   2.946   3.215   3.174 -0.8247  0.5111 -0.1944
 3741TIP3    H111187   2.905   3.300   3.159  1.8677  1.7089 -1.5372
 3741TIP3    H211188   3.020   3.214   3.114 -1.2442 -3.2094 -0.8380
 3742TIP3   OH211189   3.045   4.353   2.987  0.1480 -0.8647  0.1792
 3742TIP3    H111190   2.993   4.416   3.037 -0.6943 -0.9685 -0.5374
 3742TIP3    H211191   3.135   4.382   2.997  0.0800 -1.2043  2.2341
 3743TIP3   OH211192   7.028   5.915   2.075 -0.0548  0.0808 -0.2079
 3743TIP3    H111193   7.052   5.931   1.984 -2.4372 -1.1997 -1.1418
 3743TIP3    H211194   6.953   5.973   2.091 -0.7648 -0.9587  0.3560
 3744TIP3   OH211195   6.138   0.701   4.372  0.1108 -0.1935 -0.1539
 3744TIP3    H111196   6.206   0.662   4.426 -0.7696 -1.5891 -0.0098
 3744TIP3    H211197   6.088   0.627   4.338  0.3428  0.6345 -2.5317
 3745TIP3   OH211198   7.093   4.372   0.020  0.3951 -0.2917 -0.6936
 3745TIP3    H111199   7.148   4.445  -0.007  1.6128 -1.9584 -3.0588
 3745TIP3    H211200   7.152   4.314   0.069  0.6323 -1.7228 -2.5771
 3746TIP3   OH211201   5.787   1.985   4.486 -0.1467 -0.2818  0.4067
 3746TIP3    H111202   5.856   2.026   4.434  0.7446 -1.2060  0.8121
 3746TIP3    H211203   5.718   1.963   4.424  0.6464 -0.8372 -0.2896
 3747TIP3   OH211204   2.344   1.051   1.617 -0.3707  0.1678 -0.1119
 3747TIP3    H111205   2.375   1.142   1.609 -1.4596  0.4700 -1.2713
 3747TIP3    H211206   2.404   1.001   1.563 -0.2060  0.3152 -0.0667
 3748TIP3   OH211207   4.842   0.491   3.907 -0.7538 -0.1801 -0.0781
 3748TIP3    H111208   4.792   0.496   3.825  0.2899  1.1221 -0.6832
 3748TIP3    H211209   4.841   0.581   3.941  1.0942 -0.1139 -0.0989
 3749TIP3   OH211210   1.378   6.614   1.957  0.1745  0.0809  0.1278
 3749TIP3    H111211   1.450   6.628   1.895 -0.8216  0.2828 -1.0230
 3749TIP3    H211212   1.394   6.677   2.027  0.8170  0.5150 -0.3979
 3750TIP3   OH211213   0.469   3.925   3.863  0.1558  0.6250  0.0840
 3750TIP3    H111214   0.416   3.853   3.828  0.2806  0.4530  0.2493
 3750TIP3    H211215   0.498   3.894   3.949  2.4380 -0.2500 -0.9290
 3751TIP3   OH211216   1.518   0.640   4.035 -0.3237 -0.5646 -0.3341
 3751TIP3    H111217   1.477   0.631   3.949 -1.8003 -0.0566  0.3029
 3751TIP3    H211218   1.477   0.572   4.088 -1.0079  0.5163  0.5465
 3752TIP3   OH211219   6.546   4.737   3.759  0.4341  0.2055  0.4970
 3752TIP3    H111220   6.568   4.675   3.690 -0.3166  0.3261  0.1349
 3752TIP3    H211221   6.479   4.693   3.811 -1.6917  1.4410 -1.0029
 3753TIP3   OH211222   2.539   1.857   0.661 -0.1451  0.0856  0.1236
 3753TIP3    H111223   2.627   1.821   0.652  0.2364  0.6422  1.3937
 3753TIP3    H211224   2.550   1.951   0.650 -0.6994  0.1019 -0.3686
 3754TIP3   OH211225   4.770   6.401   0.072 -0.3107 -0.5596 -0.2337
 3754TIP3    H111226   4.735   6.484   0.103  0.6908  0.0039 -0.5619
 3754TIP3    H211227   4.695   6.356   0.033 -0.6052  0.7768 -1.2916
 3755TIP3   OH211228   6.196   2.743   0.845 -0.1825  0.4464 -0.2597
 3755TIP3    H111229   6.250   2.727   0.922 -0.6372  0.2502  0.0252
 3755TIP3    H211230   6.154   2.659   0.828 -0.0126  0.4649 -0.7815
 3756TIP3   OH211231   0.679   3.125   5.685  0.1780 -0.2194 -0.1566
 3756TIP3    H111232   0.769   3.096   5.700  0.1168 -0.1915  0.2899
 3756TIP3    H211233   0.637   3.050   5.642 -0.1161 -1.0285  1.4562
 3757TIP3   OH211234   3.569   3.422   3.409 -0.0102  0.1536 -0.1548
 3757TIP3    H111235   3.473   3.424   3.408 -0.0685  0.4033  2.0203
 3757TIP3    H211236   3.595   3.510   3.382 -0.3606  0.0165 -0.9832
 3758TIP3   OH211237   3.296   5.058   4.351  0.1147 -0.0112 -0.1612
 3758TIP3    H111238   3.332   5.111   4.422  0.7853  0.3099 -0.7285
 3758TIP3    H211239   3.202   5.078   4.352  0.4526  1.7590 -0.8099
 3759TIP3   OH211240   7.175   3.385   2.277  0.0118 -0.3158  0.5788
 3759TIP3    H111241   7.151   3.381   2.185 -0.5401 -1.0754  0.7488
 3759TIP3    H211242   7.259   3.339   2.282 -0.3308 -0.9535  0.5691
 3760TIP3   OH211243   0.450   4.128   2.379  0.1514  0.4664  0.2823
 3760TIP3    H111244   0.459   4.072   2.456 -1.4041 -0.9170 -0.4906
 3760TIP3    H211245   0.363   4.109   2.345 -0.1844  2.9248 -0.3950
 3761TIP3   OH211246   5.843   6.264   4.837  0.9440  0.3296  0.4333
 3761TIP3    H111247   5.828   6.172   4.814  0.0487  1.1242 -2.6076
 3761TIP3    H211248   5.832   6.266   4.932 -0.4052 -2.4624  0.4564
 3762TIP3   OH211249   2.228   1.305   3.150  0.7300 -0.3193  0.0570
 3762TIP3    H111250   2.179   1.291   3.231 -0.2663 -0.3872 -0.5447
 3762TIP3    H211251   2.167   1.283   3.080  1.3078  0.5026 -0.7397
 3763TIP3   OH211252   1.475   4.730   3.235  0.2791  0.4608 -0.2255
 3763TIP3    H111253   1.440   4.819   3.240 -0.4734  0.1342  0.6419
 3763TIP3    H211254   1.404   4.675   3.267  0.8053 -0.4408 -0.5763
 3764TIP3   OH211255   6.465   3.248   2.027  0.1781 -0.5822 -0.5623
 3764TIP3    H111256   6.515   3.232   1.948  1.6049  0.7520  0.0084
 3764TIP3    H211257   6.508   3.195   2.094  0.3399 -0.0494 -0.2373
 3765TIP3   OH211258   5.401   3.505   5.483 -0.0200  0.1894  0.6258
 3765TIP3    H111259   5.326   3.541   5.436 -0.7589  0.3938  1.9024
 3765TIP3    H211260   5.475   3.559   5.455 -0.5050  0.5493  0.0167
 3766TIP3   OH211261   0.481   1.896   0.013  0.6284  0.2291  0.6670
 3766TIP3    H111262   0.419   1.967  -0.005 -0.7552 -1.1064 -0.1374
 3766TIP3    H211263   0.482   1.889   0.108  0.8958  1.3908  0.7718
 3767TIP3   OH211264   1.878   4.798   1.675  0.1897 -0.1499  1.2568
 3767TIP3    H111265   1.906   4.731   1.738 -0.1638 -0.4734  1.0728
 3767TIP3    H211266   1.783   4.802   1.684 -0.1473 -1.7953 -0.7878
 3768TIP3   OH211267   3.178   6.650   3.745  0.1015  1.0153  0.4357
 3768TIP3    H111268   3.224   6.612   3.670  0.0565  0.1792  0.8225
 3768TIP3    H211269   3.141   6.731   3.711 -0.4384  0.3482 -0.6280
 3769TIP3   OH211270   5.455   2.821   0.876  0.6061  0.3687  0.2842
 3769TIP3    H111271   5.546   2.792   0.886  0.0866 -1.2084  0.7234
 3769TIP3    H211272   5.458   2.915   0.890  2.1495  0.3168  0.4600
 3770TIP3   OH211273   1.527   6.480   3.493  0.3974 -0.6469  0.0630
 3770TIP3    H111274   1.553   6.400   3.539  1.7419 -0.1346  0.2497
 3770TIP3    H211275   1.591   6.488   3.422  0.3688  0.3335  0.1377
 3771TIP3   OH211276   5.616   5.915   5.117 -0.4363 -0.3769  0.2157
 3771TIP3    H111277   5.592   5.886   5.206 -1.2824 -0.2077  0.0473
 3771TIP3    H211278   5.654   6.002   5.130 -0.7010 -0.2868  0.3933
 3772TIP3   OH211279   1.650   0.484   2.941  0.0637 -0.2739 -0.1704
 3772TIP3    H111280   1.707   0.535   2.998 -1.0525  2.5331 -1.4115
 3772TIP3    H211281   1.710   0.428   2.891  1.5674  1.2788 -0.1717
 3773TIP3   OH211282   5.953   6.817   5.302 -0.1761 -0.4744 -0.3424
 3773TIP3    H111283   5.882   6.780   5.356 -0.4907 -1.6094 -1.4751
 3773TIP3    H211284   6.016   6.746   5.294 -0.4611 -0.5760 -2.0046
 3774TIP3   OH211285   6.419   2.407   2.593  0.1398 -0.3439 -0.3752
 3774TIP3    H111286   6.418   2.350   2.670  1.2596 -0.0818 -0.1448
 3774TIP3    H211287   6.467   2.485   2.621  0.8647 -0.3804 -1.4111
 3775TIP3   OH211288   2.087   4.928   2.596  0.6236 -0.0602 -0.2140
 3775TIP3    H111289   2.014   4.926   2.657  1.1696  2.2652  0.6144
 3775TIP3    H211290   2.046   4.948   2.511  0.3119  2.4495  0.4458
 3776TIP3   OH211291   2.613   3.498   5.749 -0.0422 -0.1760 -0.1121
 3776TIP3    H111292   2.697   3.541   5.767 -0.7115  1.8526 -1.5937
 3776TIP3    H211293   2.552   3.536   5.813 -0.4436  0.4821 -0.8708
 3777TIP3   OH211294   2.873   3.463   0.438  0.0474  0.6313  0.4292
 3777TIP3    H111295   2.848   3.521   0.366  0.6776  0.4941  0.0887
 3777TIP3    H211296   2.968   3.465   0.439  0.4557 -3.5993 -2.3958
 3778TIP3   OH211297   1.451   4.713   4.294  0.0937  0.2023  0.3188
 3778TIP3    H111298   1.464   4.739   4.385  0.8467 -2.4275  1.0398
 3778TIP3    H211299   1.374   4.656   4.296  0.6407 -0.5969 -0.5200
 3779TIP3   OH211300   2.987   6.649   0.452 -0.2979  0.0319  0.9128
 3779TIP3    H111301   2.967   6.686   0.538  2.1065  1.1314  1.1003
 3779TIP3    H211302   3.026   6.563   0.471 -2.3906 -1.0092  0.7018
 3780TIP3   OH211303   3.732   3.904   2.289  0.1664  0.1861  0.2078
 3780TIP3    H111304   3.717   3.840   2.220 -1.0304  0.3214  0.3111
 3780TIP3    H211305   3.774   3.855   2.360  1.3404  0.0301 -0.5693
 3781TIP3   OH211306   6.494   2.481   4.568  0.0551 -0.3652 -0.0728
 3781TIP3    H111307   6.588   2.499   4.580  0.3011 -1.0944 -0.8054
 3781TIP3    H211308   6.451   2.535   4.634  1.0621 -0.8753  1.0400
 3782TIP3   OH211309   4.024   6.351   1.591 -0.2391 -0.5768 -0.1243
 3782TIP3    H111310   4.060   6.278   1.641  0.1314 -0.3809 -0.1026
 3782TIP3    H211311   3.974   6.401   1.656 -0.5675 -0.8576 -0.1583
 3783TIP3   OH211312   4.282   1.503   5.733  0.3204 -0.0434  0.0746
 3783TIP3    H111313   4.315   1.497   5.823 -0.0136 -0.0603  0.1974
 3783TIP3    H211314   4.263   1.413   5.708  0.7896 -0.0794 -0.1572
 3784TIP3   OH211315   6.684   6.276   2.186  0.2231  0.4486  0.2883
 3784TIP3    H111316   6.684   6.232   2.271  0.9390  0.4830  0.3086
 3784TIP3    H211317   6.591   6.286   2.165  0.0409 -0.4319  0.6132
 3785TIP3   OH211318   0.388   5.617   4.335  0.2444  0.3901 -0.2739
 3785TIP3    H111319   0.405   5.695   4.282 -0.1981  0.2315 -0.6535
 3785TIP3    H211320   0.422   5.545   4.282  0.4080  0.2926 -0.0406
 3786TIP3   OH211321   2.391   4.086   5.107  0.2246  0.1697 -0.0933
 3786TIP3    H111322   2.347   4.163   5.072  1.3074  0.7058 -0.3231
 3786TIP3    H211323   2.397   4.102   5.202 -0.2723 -0.0129 -0.0301
 3787TIP3   OH211324   0.546   3.636   3.566 -0.1480 -0.0799 -0.0644
 3787TIP3    H111325   0.579   3.634   3.476  1.8522  0.0009  0.6228
 3787TIP3    H211326   0.594   3.707   3.608 -2.2444  0.9927  0.6784
 3788TIP3   OH211327   3.981   3.600   1.762 -0.0664  0.6633 -0.1368
 3788TIP3    H111328   3.993   3.553   1.844  0.2750 -0.9315 -1.0527
 3788TIP3    H211329   3.888   3.590   1.741 -0.6081  2.7440  0.9720
 3789TIP3   OH211330   6.657   6.080   2.969 -0.0239  0.1131 -0.1261
 3789TIP3    H111331   6.721   6.094   2.899 -1.9159  0.3995 -1.8777
 3789TIP3    H211332   6.675   6.151   3.032  1.2514  0.2802 -0.6369
 3790TIP3   OH211333   0.157   5.991   1.760  0.9735  1.0054  0.0089
 3790TIP3    H111334   0.227   6.051   1.733  0.6242  1.2105 -0.4437
 3790TIP3    H211335   0.116   5.964   1.678  0.0098  1.5022  0.3120
 3791TIP3   OH211336   3.330   0.927   3.929 -0.1047  0.2082  0.2354
 3791TIP3    H111337   3.409   0.917   3.876  0.3142  1.9347  0.4910
 3791TIP3    H211338   3.313   0.839   3.963  1.0042 -0.4321 -0.8012
 3792TIP3   OH211339   2.607   4.050   4.813 -0.1618  0.2383 -0.5192
 3792TIP3    H111340   2.539   4.105   4.776 -0.1850 -1.0648 -2.5755
 3792TIP3    H211341   2.560   3.979   4.857 -0.1112  0.7693  0.4279
 3793TIP3   OH211342   6.812   1.093   0.543  0.2593 -0.7353 -0.7576
 3793TIP3    H111343   6.898   1.052   0.529  1.5918  2.3616 -2.8635
 3793TIP3    H211344   6.759   1.064   0.469  0.6847  0.0761 -1.3911
 3794TIP3   OH211345   3.706   4.537   0.311  0.0345 -0.2043 -0.0145
 3794TIP3    H111346   3.691   4.510   0.401 -2.1382 -1.4664 -0.6922
 3794TIP3    H211347   3.755   4.465   0.272  0.8438  0.2765  0.0693
 3795TIP3   OH211348   0.439   1.678   0.623 -0.5289 -1.5354  0.6022
 3795TIP3    H111349   0.491   1.739   0.676  0.8779 -2.7692  0.6894
 3795TIP3    H211350   0.348   1.703   0.641 -0.0015  0.7671  0.3278
 3796TIP3   OH211351   1.247   5.633   2.753 -0.1088  0.1721  0.6415
 3796TIP3    H111352   1.228   5.589   2.670  0.8959 -0.2357  0.6123
 3796TIP3    H211353   1.195   5.585   2.818  0.4444 -0.6311  0.5016
 3797TIP3   OH211354   0.082   2.472   3.699  0.2129 -0.5162 -0.2959
 3797TIP3    H111355   0.047   2.557   3.672  3.1685  0.2168 -2.2824
 3797TIP3    H211356   0.164   2.492   3.744 -0.6087 -2.2445  2.2352
 3798TIP3   OH211357   5.408   2.676   3.481 -0.2283 -0.0558  0.0694
 3798TIP3    H111358   5.346   2.653   3.551 -0.1076 -0.3181  0.0935
 3798TIP3    H211359   5.483   2.619   3.496  0.1145  0.4222  0.1728
 3799TIP3   OH211360   6.641   0.854   1.919  0.3936  0.1046 -0.2488
 3799TIP3    H111361   6.604   0.925   1.865  1.3046  0.1097 -0.8937
 3799TIP3    H211362   6.616   0.877   2.008  0.1568  0.9229 -0.5107
 3800TIP3   OH211363   3.847   6.691   2.894 -0.2444 -0.6723  0.4231
 3800TIP3    H111364   3.773   6.737   2.855 -0.1557 -1.3542 -0.5933
 3800TIP3    H211365   3.877   6.631   2.826  1.5615 -0.0671  0.6390
 3801TIP3   OH211366   3.354   6.130   2.843 -0.6417 -0.7068 -0.3811
 3801TIP3    H111367   3.351   6.200   2.908  2.5285  0.2759 -1.1301
 3801TIP3    H211368   3.304   6.165   2.769 -1.9168 -0.6917  0.4522
 3802TIP3   OH211369   1.131   3.047   2.504 -0.5106 -0.1489  0.5424
 3802TIP3    H111370   1.149   3.001   2.586  0.9861  0.3926  0.5475
 3802TIP3    H211371   1.112   2.977   2.442  2.1675 -0.8924  0.4418
 3803TIP3   OH211372   3.017   1.110   0.864  0.3681  0.0806  0.0648
 3803TIP3    H111373   3.072   1.032   0.864  0.0304 -0.1720  1.2609
 3803TIP3    H211374   3.045   1.158   0.786 -0.3235 -1.8503 -1.4580
 3804TIP3   OH211375   4.812   4.026   2.027  0.1432  0.3349  0.1939
 3804TIP3    H111376   4.852   3.978   2.100  0.6073 -1.5634 -1.2240
 3804TIP3    H211377   4.719   4.002   2.031 -0.2300  1.8563  1.3293
 3805TIP3   OH211378   4.171   2.371   0.521  0.3218 -0.1998  0.3184
 3805TIP3    H111379   4.083   2.356   0.486  0.6154  0.4422 -0.7739
 3805TIP3    H211380   4.157   2.428   0.597 -0.2030 -0.0200  0.0968
 3806TIP3   OH211381   5.144   2.357   4.250  0.4725 -0.0918 -0.7104
 3806TIP3    H111382   5.160   2.270   4.212 -0.7440 -1.2403  1.2630
 3806TIP3    H211383   5.155   2.345   4.344  1.2867  2.1743 -0.4533
 3807TIP3   OH211384   6.075   5.280   4.629  0.0607 -0.2161 -0.0479
 3807TIP3    H111385   6.045   5.204   4.579  0.2360 -0.7422  0.6202
 3807TIP3    H211386   5.999   5.337   4.634 -0.4285 -0.8906  0.4271
 3808TIP3   OH211387   1.872   2.384   3.917 -0.2592  0.2723  0.4823
 3808TIP3    H111388   1.832   2.470   3.911  0.2432  0.4316 -0.9519
 3808TIP3    H211389   1.950   2.396   3.971  0.4245  0.9866 -0.6172
 3809TIP3   OH211390   0.781   3.968   0.781  0.1694  0.2968 -0.6782
 3809TIP3    H111391   0.698   3.922   0.799 -1.9011  2.4455 -3.6754
 3809TIP3    H211392   0.833   3.904   0.733 -0.9547 -0.2545 -1.2111
 3810TIP3   OH211393   1.191   6.520   3.749 -0.2455  0.8329 -0.2821
 3810TIP3    H111394   1.208   6.428   3.726 -0.2600  0.7365  0.0903
 3810TIP3    H211395   1.125   6.516   3.818  0.0531  1.1075  0.0202
 3811TIP3   OH211396   6.288   6.515   5.045  0.6179  0.0437 -0.5817
 3811TIP3    H111397   6.293   6.473   5.130 -0.7104  1.3803  0.1973
 3811TIP3    H211398   6.195   6.518   5.024  0.7099  1.8182 -0.9591
 3812TIP3   OH211399   0.976   3.976   4.082  0.3364  0.1186  0.6555
 3812TIP3    H111400   1.071   3.979   4.085  0.3721 -0.9955  2.0509
 3812TIP3    H211401   0.948   4.067   4.092  1.2259  0.6867 -1.5197
 3813TIP3   OH211402   4.601   5.204   1.122  0.7043  0.5452 -0.4276
 3813TIP3    H111403   4.635   5.199   1.033  1.5721 -0.8124 -0.0529
 3813TIP3    H211404   4.678   5.221   1.176  0.4043  0.0216  0.1832
 3814TIP3   OH211405   6.141   3.585   4.941  0.1367  0.1468 -0.2464
 3814TIP3    H111406   6.079   3.543   5.000 -1.0257  1.9241 -0.1359
 3814TIP3    H211407   6.191   3.513   4.903 -2.5058 -1.4262 -0.9566
 3815TIP3   OH211408   6.015   3.827   5.737  0.0435 -0.1496  0.3374
 3815TIP3    H111409   6.010   3.845   5.831 -0.8693 -1.4367  0.5738
 3815TIP3    H211410   6.044   3.735   5.733 -0.3905 -0.2493 -0.6163
 3816TIP3   OH211411   6.467   5.470   2.945  0.1071  0.6655  0.4497
 3816TIP3    H111412   6.387   5.500   2.902  0.1829  2.8534  1.6460
 3816TIP3    H211413   6.536   5.526   2.910  1.3235 -1.6230 -1.0536
 3817TIP3   OH211414   0.931   3.325   2.444  0.3801  0.0849 -0.0047
 3817TIP3    H111415   0.919   3.268   2.520  1.4271 -1.0409 -0.6624
 3817TIP3    H211416   0.978   3.272   2.380  0.2721  1.2835 -1.1314
 3818TIP3   OH211417   5.763   5.269   3.993  0.8255  0.6913  0.0489
 3818TIP3    H111418   5.770   5.238   4.084  0.2349  1.1428  0.2558
 3818TIP3    H211419   5.824   5.214   3.945  0.3713 -0.2865  0.5393
 3819TIP3   OH211420   3.417   4.184   4.497  0.2390 -0.1172  0.4469
 3819TIP3    H111421   3.356   4.222   4.561  0.9190  0.6599  0.6498
 3819TIP3    H211422   3.501   4.227   4.516  0.7227 -0.7751 -0.1823
 3820TIP3   OH211423   5.785   0.807   2.334 -0.2558 -0.1162  0.0908
 3820TIP3    H111424   5.847   0.780   2.266 -1.2539  0.1861 -0.9705
 3820TIP3    H211425   5.711   0.748   2.322 -0.6790  0.3229  0.5552
 3821TIP3   OH211426   1.831   6.064   5.779  0.3129 -0.2062  0.6141
 3821TIP3    H111427   1.901   6.022   5.729  0.9741  0.0489  1.3143
 3821TIP3    H211428   1.788   5.993   5.825 -0.2918 -0.4436 -0.2829
 3822TIP3   OH211429   6.455   1.974   4.606  0.2967  0.1023 -0.2839
 3822TIP3    H111430   6.447   1.918   4.529  0.9552  0.7375 -0.8213
 3822TIP3    H211431   6.517   2.042   4.580  1.6084 -0.4467  1.2643
 3823TIP3   OH211432   2.649   3.202   2.537 -0.0927  0.2011 -0.0864
 3823TIP3    H111433   2.565   3.229   2.575 -0.7415 -1.2167 -0.4315
 3823TIP3    H211434   2.626   3.171   2.449  0.3994 -2.2462  0.5648
 3824TIP3   OH211435   0.993   3.859   0.941 -0.1552  0.3932 -0.0625
 3824TIP3    H111436   0.916   3.892   0.894  0.5856  1.0594 -0.8413
 3824TIP3    H211437   0.982   3.891   1.031 -1.1652 -0.1759  0.0355
 3825TIP3   OH211438   6.552   0.741   5.367 -0.5782 -0.4615 -0.0122
 3825TIP3    H111439   6.498   0.703   5.436  0.0331 -0.4869  0.4553
 3825TIP3    H211440   6.618   0.792   5.413 -0.4971 -0.0237 -0.5969
 3826TIP3   OH211441   2.749   2.357   1.638  0.3993 -0.3700  0.2932
 3826TIP3    H111442   2.832   2.347   1.685  0.3503 -0.7944  0.2908
 3826TIP3    H211443   2.744   2.280   1.582  1.5549  1.1759 -2.1361
 3827TIP3   OH211444   6.720   3.754   0.288  0.3410  0.2957  0.1259
 3827TIP3    H111445   6.650   3.732   0.350 -1.0240 -1.8107 -1.9939
 3827TIP3    H211446   6.801   3.740   0.338 -0.6910  0.4089  1.9378
 3828TIP3   OH211447   1.688   3.672   4.378 -0.4798  0.3857  0.0376
 3828TIP3    H111448   1.662   3.594   4.425 -0.7371 -0.4051 -1.3638
 3828TIP3    H211449   1.606   3.718   4.359 -0.5258 -0.1025 -0.9813
 3829TIP3   OH211450   0.767   0.376   5.296  0.1215  0.5271  0.0524
 3829TIP3    H111451   0.832   0.351   5.231 -0.0237 -0.9905  0.4383
 3829TIP3    H211452   0.683   0.370   5.251 -0.0894 -1.7113  0.6331
 3830TIP3   OH211453   6.218   4.330   3.925  0.0174  0.8598 -0.2453
 3830TIP3    H111454   6.312   4.318   3.932  0.0082 -0.0375 -1.3278
 3830TIP3    H211455   6.189   4.343   4.015  1.0262 -0.1855  0.2649
 3831TIP3   OH211456   6.436   3.471   2.797  0.4127  0.2353  0.1773
 3831TIP3    H111457   6.360   3.419   2.825  0.6915  0.4045  1.2974
 3831TIP3    H211458   6.427   3.553   2.845  0.3975  0.9237 -0.9857
 3832TIP3   OH211459   4.937   3.049   4.347  0.2472 -0.6498 -0.2955
 3832TIP3    H111460   4.950   3.081   4.437  1.1855 -1.3988 -0.1480
 3832TIP3    H211461   5.021   3.008   4.324  0.3502  0.3776 -1.8826
 3833TIP3   OH211462   6.141   5.562   3.523 -0.5004  0.5441 -0.0812
 3833TIP3    H111463   6.173   5.552   3.433  0.6310  0.8048  0.2687
 3833TIP3    H211464   6.053   5.599   3.514 -0.2964  0.8054 -1.0795
 3834TIP3   OH211465   3.223   4.981   4.808  0.2462 -0.3574  0.2938
 3834TIP3    H111466   3.226   4.955   4.716 -1.4930 -0.2955  0.1957
 3834TIP3    H211467   3.210   5.076   4.806 -2.4954 -0.6541  0.5153
 3835TIP3   OH211468   3.972   6.471   3.482 -0.1510 -0.2094 -0.8222
 3835TIP3    H111469   3.921   6.547   3.512 -0.5216 -0.6368 -0.3510
 3835TIP3    H211470   3.923   6.436   3.408  0.0413  0.0336 -1.0651
 3836TIP3   OH211471   4.490   4.287   5.699  0.0662 -0.0311  0.0998
 3836TIP3    H111472   4.523   4.219   5.758  1.0995  0.3063 -0.0527
 3836TIP3    H211473   4.544   4.279   5.620  1.2658  1.8843  0.6397
 3837TIP3   OH211474   6.311   6.126   4.083  0.2341  0.5389 -0.0053
 3837TIP3    H111475   6.363   6.196   4.123 -0.4143 -0.5374  2.9369
 3837TIP3    H211476   6.223   6.162   4.078  0.2106  0.4904  0.0544
 3838TIP3   OH211477   6.320   4.017   2.832  0.1060  0.3931 -0.0245
 3838TIP3    H111478   6.355   4.100   2.866 -0.6291  0.2422  1.1591
 3838TIP3    H211479   6.324   3.957   2.907 -1.0627 -0.1125 -0.3425
 3839TIP3   OH211480   3.753   6.404   3.969  0.1394  0.2099  0.1518
 3839TIP3    H111481   3.725   6.330   3.915 -1.7217  0.2523  0.9934
 3839TIP3    H211482   3.692   6.405   4.042  0.7086  2.0350  0.6552
 3840TIP3   OH211483   0.015   1.321   2.258 -0.3368 -0.3696  0.0963
 3840TIP3    H111484  -0.068   1.274   2.246  0.2955 -1.5348  0.1136
 3840TIP3    H211485   0.073   1.284   2.192  0.2079  0.3768  0.1404
 3841TIP3   OH211486   0.926   6.298   3.296  0.6258  0.2813 -0.5182
 3841TIP3    H111487   0.985   6.223   3.287  1.7063  1.1550 -0.8682
 3841TIP3    H211488   0.974   6.359   3.351 -0.0393  0.9243 -0.6507
 3842TIP3   OH211489   4.237   3.506   5.634 -0.4265  0.2349  0.3242
 3842TIP3    H111490   4.206   3.485   5.722  0.8649  0.0447  0.7524
 3842TIP3    H211491   4.234   3.423   5.587 -1.2363  0.3611  0.1427
 3843TIP3   OH211492   3.846   3.157   3.273  0.2665  0.3296  0.7775
 3843TIP3    H111493   3.807   3.070   3.285 -1.7429  0.7688 -1.7246
 3843TIP3    H211494   3.852   3.193   3.361 -2.4936 -0.8814  1.5500
 3844TIP3   OH211495   0.715   3.156   3.454 -0.2094 -0.8262 -0.2417
 3844TIP3    H111496   0.646   3.126   3.395  0.1374  0.1603 -1.1793
 3844TIP3    H211497   0.671   3.214   3.516 -0.0742  0.7702 -1.5731
 3845TIP3   OH211498   2.571   5.006   1.340  0.3975 -0.3159  0.6678
 3845TIP3    H111499   2.643   4.954   1.377 -0.7172 -2.2451  0.1999
 3845TIP3    H211500   2.495   4.984   1.394 -0.6811 -1.2124 -1.1446
 3846TIP3   OH211501   5.343   3.563   4.407 -0.2103  0.3399  0.4155
 3846TIP3    H111502   5.347   3.474   4.374 -0.8948  0.8209 -1.0849
 3846TIP3    H211503   5.363   3.618   4.331 -1.8379  1.5174  0.7702
 3847TIP3   OH211504   6.770   1.207   1.120  0.1055  0.3881 -0.0293
 3847TIP3    H111505   6.690   1.154   1.113  1.0753 -1.1153 -0.2960
 3847TIP3    H211506   6.814   1.194   1.036  2.1115 -1.3973  1.1790
 3848TIP3   OH211507   2.832   3.563   2.815  0.4107 -0.1749  0.2565
 3848TIP3    H111508   2.854   3.470   2.821 -0.1887 -0.3114  0.4284
 3848TIP3    H211509   2.889   3.597   2.746  1.0828 -0.5285  0.6262
 3849TIP3   OH211510   5.132   0.160   4.951  0.0449  0.0916  0.1666
 3849TIP3    H111511   5.168   0.077   4.922  0.5344  0.7955 -1.3130
 3849TIP3    H211512   5.203   0.223   4.939  0.1434  0.5368  2.5066
 3850TIP3   OH211513   6.455   2.531   5.445  0.0924 -0.1583  0.3858
 3850TIP3    H111514   6.363   2.514   5.426 -0.1807  0.2843  1.2975
 3850TIP3    H211515   6.457   2.621   5.477  0.8478 -0.1614  0.3615
 3851TIP3   OH211516   2.891   1.871   1.723  0.4803 -0.0529 -1.0070
 3851TIP3    H111517   2.937   1.817   1.787 -1.1269  1.3709  1.5725
 3851TIP3    H211518   2.931   1.958   1.733 -0.4414  0.4072 -1.1908
 3852TIP3   OH211519   0.555   2.254   2.794  0.1802 -0.0768  0.2254
 3852TIP3    H111520   0.579   2.165   2.820  1.5662  0.5796  1.3191
 3852TIP3    H211521   0.488   2.281   2.857 -1.1300 -0.7334 -0.8321
 3853TIP3   OH211522   3.211   1.693   3.241 -0.0145  0.1048 -0.1976
 3853TIP3    H111523   3.292   1.720   3.284 -0.8482  2.3777  0.0909
 3853TIP3    H211524   3.239   1.666   3.153  1.2503 -1.0944  0.5250
 3854TIP3   OH211525   3.007   1.023   1.211  0.4645 -0.0197 -0.2612
 3854TIP3    H111526   2.916   1.053   1.217  0.4786  0.1247 -0.7097
 3854TIP3    H211527   3.050   1.060   1.288  0.0663 -0.3604  0.1273
 3855TIP3   OH211528   1.940   3.090   1.446  0.3108 -0.0277  0.0742
 3855TIP3    H111529   1.887   3.015   1.420  0.4570 -1.1327  2.6889
 3855TIP3    H211530   2.026   3.074   1.407  0.4821 -1.5346  0.9735
 3856TIP3   OH211531   1.529   5.237   0.604  0.7456  0.1265  0.0911
 3856TIP3    H111532   1.559   5.300   0.669 -1.7658 -1.0963  2.7060
 3856TIP3    H211533   1.439   5.263   0.586  0.3327 -1.4771 -0.3209
 3857TIP3   OH211534   6.562   0.412   4.046  0.0569 -0.3228 -0.1144
 3857TIP3    H111535   6.593   0.327   4.076  0.7068 -1.2302 -3.0131
 3857TIP3    H211536   6.481   0.393   4.000  0.1479  0.6419 -0.6996
 3858TIP3   OH211537   6.835   5.180   0.712  0.0891  0.1839  0.0992
 3858TIP3    H111538   6.762   5.189   0.650 -0.8490  1.1293  1.2995
 3858TIP3    H211539   6.832   5.259   0.765  0.5625 -0.8196  1.6883
 3859TIP3   OH211540   0.297   5.101   5.058  0.4434  0.1656  0.7653
 3859TIP3    H111541   0.207   5.082   5.031  0.6148  1.4113 -0.8721
 3859TIP3    H211542   0.320   5.030   5.118 -0.2027 -2.6126 -2.0179
 3860TIP3   OH211543   1.539   4.462   4.561 -0.0173 -0.0897 -0.1213
 3860TIP3    H111544   1.603   4.401   4.596 -0.0463 -0.2499 -0.3402
 3860TIP3    H211545   1.578   4.548   4.573 -0.5996 -0.0184  1.5317
 3861TIP3   OH211546   6.063   6.264   4.178  0.2192 -0.0266  0.1201
 3861TIP3    H111547   6.085   6.282   4.269 -0.7769  0.0512  0.3541
 3861TIP3    H211548   6.024   6.176   4.180  1.3909 -0.5900 -0.4328
 3862TIP3   OH211549   1.047   1.821   4.779  0.0775  0.2935 -0.8418
 3862TIP3    H111550   1.083   1.858   4.859  0.2944 -0.6781 -0.4786
 3862TIP3    H211551   1.117   1.828   4.715  0.9132 -1.4694 -0.1761
 3863TIP3   OH211552   6.208   0.544   3.284  0.1805  0.0428  0.1829
 3863TIP3    H111553   6.114   0.550   3.300  0.1334 -0.2468  0.0132
 3863TIP3    H211554   6.218   0.555   3.190  0.0548 -2.7516 -0.2255
 3864TIP3   OH211555   5.783   3.664   1.635 -0.0579  0.1535  0.8242
 3864TIP3    H111556   5.841   3.611   1.691  1.2028 -1.2631 -1.6581
 3864TIP3    H211557   5.758   3.605   1.564  0.1163  2.4349 -1.2472
 3865TIP3   OH211558   4.020   1.482   4.162 -0.0812 -0.2444  0.6466
 3865TIP3    H111559   4.025   1.577   4.178 -0.7309 -0.0226 -0.3815
 3865TIP3    H211560   4.104   1.461   4.120 -0.0916 -0.0533  0.5281
 3866TIP3   OH211561   4.195   1.263   5.620  0.1813 -0.4841 -0.2593
 3866TIP3    H111562   4.184   1.173   5.650 -0.2414 -0.8756 -1.5356
 3866TIP3    H211563   4.177   1.260   5.526 -0.9357  1.1328 -0.1490
 3867TIP3   OH211564   5.170   0.949   2.689 -0.1269 -0.4734  0.4004
 3867TIP3    H111565   5.229   0.884   2.726  0.0066 -0.7774 -0.3238
 3867TIP3    H211566   5.083   0.923   2.719  0.1810  0.7280  2.5729
 3868TIP3   OH211567   5.461   4.331   4.653  0.0382 -0.6968 -0.0103
 3868TIP3    H111568   5.544   4.316   4.609 -0.5289  0.4297 -1.5125
 3868TIP3    H211569   5.480   4.396   4.720  0.3818 -0.5375 -0.2639
 3869TIP3   OH211570   3.377   5.238   4.559 -0.0630 -0.1623 -0.5039
 3869TIP3    H111571   3.340   5.288   4.486 -0.3269 -1.9697 -1.6779
 3869TIP3    H211572   3.460   5.281   4.578 -1.0366  1.7326 -0.2902
 3870TIP3   OH211573   5.321   2.500   1.738  0.7147 -0.0237 -0.5135
 3870TIP3    H111574   5.398   2.460   1.697  1.3691  1.1660 -0.5017
 3870TIP3    H211575   5.312   2.585   1.693 -0.8499 -0.3112 -0.8026
 3871TIP3   OH211576   1.870   1.095   1.691  0.4453  0.4849 -0.8978
 3871TIP3    H111577   1.950   1.095   1.639 -0.1737  1.7600 -1.9031
 3871TIP3    H211578   1.860   1.005   1.721  2.7743  0.5020  0.0885
 3872TIP3   OH211579   6.462   1.373   3.942 -0.4567 -0.9846 -0.3204
 3872TIP3    H111580   6.432   1.460   3.971  1.1823 -0.5066  0.0423
 3872TIP3    H211581   6.426   1.364   3.854 -0.7935 -0.0008 -0.3029
 3873TIP3   OH211582   6.707   2.777   4.096  0.2682 -0.3495  0.6037
 3873TIP3    H111583   6.736   2.866   4.076 -3.5547  1.1554  0.8500
 3873TIP3    H211584   6.697   2.776   4.191  2.3513 -1.9027  0.8908
 3874TIP3   OH211585   5.299   1.170   4.973 -0.0298  0.5068  0.0063
 3874TIP3    H111586   5.223   1.114   4.987  0.2760 -0.1405 -0.8400
 3874TIP3    H211587   5.305   1.178   4.878 -1.1227  3.4432  0.0743
 3875TIP3   OH211588   1.924   0.169   2.030  0.5352  0.0569 -0.1233
 3875TIP3    H111589   2.011   0.165   2.070  0.7700  0.5802 -0.5698
 3875TIP3    H211590   1.934   0.124   1.946 -0.0644 -1.4192  0.5712
 3876TIP3   OH211591   6.623   3.238   1.412  0.2758  0.5525 -0.6718
 3876TIP3    H111592   6.579   3.173   1.357 -2.0671 -0.2754  1.9489
 3876TIP3    H211593   6.691   3.189   1.458  0.6875  0.7078 -1.1148
 3877TIP3   OH211594   3.396   5.794   4.926  0.5478 -0.0216  0.3213
 3877TIP3    H111595   3.396   5.710   4.880 -0.6356  0.6768 -1.0605
 3877TIP3    H211596   3.416   5.773   5.017  0.0180 -1.8257  0.0462
 3878TIP3   OH211597   5.921   4.466   1.845  0.1317  0.6434 -0.2136
 3878TIP3    H111598   5.889   4.532   1.783 -0.2095  0.3728 -0.3249
 3878TIP3    H211599   5.842   4.425   1.880  0.3335  0.5338  0.1232
 3879TIP3   OH211600   0.568   2.295   1.502 -0.5869 -0.3330 -0.1884
 3879TIP3    H111601   0.496   2.281   1.564 -0.2632 -1.0570  0.0431
 3879TIP3    H211602   0.589   2.207   1.470  0.4429 -0.1795  0.0345
 3880TIP3   OH211603   6.602   6.442   0.097 -0.2406 -0.3476 -0.2885
 3880TIP3    H111604   6.622   6.434   0.190 -0.4520 -1.7166 -0.3280
 3880TIP3    H211605   6.677   6.403   0.053  0.4224  1.3853 -0.7715
 3881TIP3   OH211606   0.579   4.589   1.047  0.0559 -0.3196  0.1332
 3881TIP3    H111607   0.529   4.617   1.124 -0.4933  0.4815 -0.4899
 3881TIP3    H211608   0.529   4.624   0.973  1.5889  0.5957 -0.5025
 3882TIP3   OH211609   3.068   4.050   1.208 -0.3935 -0.9457 -0.0517
 3882TIP3    H111610   3.032   3.982   1.264 -1.1435  0.2615  0.9773
 3882TIP3    H211611   3.162   4.051   1.228 -0.6167 -0.6830  1.0402
 3883TIP3   OH211612   0.927   2.363   0.700 -0.1174  0.1960 -0.2428
 3883TIP3    H111613   0.952   2.335   0.612 -2.4781 -1.7457 -0.4197
 3883TIP3    H211614   0.867   2.294   0.731 -3.5763  3.3139  0.7698
 3884TIP3   OH211615   4.428   4.223   5.252  0.7109  0.2733 -0.2816
 3884TIP3    H111616   4.419   4.195   5.161  1.8694  0.1963 -0.3885
 3884TIP3    H211617   4.341   4.208   5.291 -0.0693  1.1715 -1.5971
 3885TIP3   OH211618   7.179   6.777   1.708 -0.6437 -0.4660  0.1986
 3885TIP3    H111619   7.140   6.717   1.644  0.9078 -0.1121 -1.1549
 3885TIP3    H211620   7.235   6.720   1.762 -3.3536 -1.0843  2.5637
 3886TIP3   OH211621   3.008   1.659   0.271 -0.5186  0.6562 -0.3050
 3886TIP3    H111622   3.052   1.580   0.239 -0.4517  0.5488  0.0432
 3886TIP3    H211623   2.915   1.643   0.256 -0.5430  0.3168  0.1719
 3887TIP3   OH211624   3.084   2.103   0.615 -0.4375  0.0923  0.0774
 3887TIP3    H111625   2.999   2.112   0.658 -0.7855 -0.7946 -0.4002
 3887TIP3    H211626   3.140   2.062   0.682 -0.1188  1.4497  0.6865
 3888TIP3   OH211627   4.653   3.313   2.014 -0.2774  0.1689  0.3629
 3888TIP3    H111628   4.732   3.358   2.042  0.5601 -1.8638  1.4536
 3888TIP3    H211629   4.674   3.279   1.926 -0.6749  1.2997 -0.1814
 3889TIP3   OH211630   4.117   4.735   5.271  0.2475 -0.3609 -0.2522
 3889TIP3    H111631   4.065   4.814   5.278 -0.4580 -0.9027  1.0419
 3889TIP3    H211632   4.053   4.665   5.255  0.3602 -1.1909  2.3723
 3890TIP3   OH211633   6.705   4.105   2.820  0.4682 -0.5752 -0.6575
 3890TIP3    H111634   6.796   4.133   2.817 -0.0072  1.0700 -0.3524
 3890TIP3    H211635   6.655   4.185   2.831 -1.0776 -1.3742 -1.5019
 3891TIP3   OH211636   6.312   0.711   4.029 -0.6179 -0.8269 -0.0529
 3891TIP3    H111637   6.392   0.737   3.982  0.7080  0.1019  2.5217
 3891TIP3    H211638   6.329   0.620   4.055  1.3673  0.3303  3.4862
 3892TIP3   OH211639   6.856   1.151   3.310  0.1345 -0.5072  0.0764
 3892TIP3    H111640   6.777   1.205   3.312  1.0836  1.0007 -0.8076
 3892TIP3    H211641   6.892   1.164   3.222  2.7205  0.9560  1.2352
 3893TIP3   OH211642   1.558   4.287   3.836  0.4152  0.2802 -0.0758
 3893TIP3    H111643   1.583   4.290   3.928  1.6690  0.6477 -0.4128
 3893TIP3    H211644   1.602   4.209   3.802  1.0012  0.8497 -0.6483
 3894TIP3   OH211645   2.913   2.214   2.269  0.3071 -0.2330 -0.1142
 3894TIP3    H111646   2.847   2.145   2.257  0.2771 -0.2935  0.3916
 3894TIP3    H211647   2.954   2.223   2.183  0.4611 -1.0306 -0.1230
 3895TIP3   OH211648   4.426   0.229   0.952  0.5767  0.3859 -0.9409
 3895TIP3    H111649   4.393   0.298   0.895 -0.1648  0.3040 -0.6140
 3895TIP3    H211650   4.357   0.215   1.017  1.9512  1.4516  0.8622
 3896TIP3   OH211651   6.495   4.606   2.967  0.4807  0.6099  0.2230
 3896TIP3    H111652   6.525   4.532   3.019  2.2387  1.2005  0.1064
 3896TIP3    H211653   6.430   4.649   3.022  0.0613 -0.5221  0.6379
 3897TIP3   OH211654   1.847   0.209   3.060  0.1107 -0.2757  0.0483
 3897TIP3    H111655   1.922   0.267   3.053  1.0834 -1.6581 -1.5901
 3897TIP3    H211656   1.797   0.224   2.980 -0.9809  0.0628  0.7628
 3898TIP3   OH211657   2.445   6.473   4.729 -1.0979  0.7512 -0.9901
 3898TIP3    H111658   2.527   6.518   4.708 -0.5825 -0.0806 -0.8275
 3898TIP3    H211659   2.394   6.537   4.779  0.0967  0.7726  0.2583
 3899TIP3   OH211660   7.183   2.655   5.848 -0.3844 -0.2189 -0.7030
 3899TIP3    H111661   7.180   2.586   5.782 -0.0172  0.7934 -1.8009
 3899TIP3    H211662   7.276   2.672   5.862 -0.4678  1.0785 -1.5590
 3900TIP3   OH211663   4.405   6.274   1.277  0.6352  0.2224 -0.2701
 3900TIP3    H111664   4.344   6.318   1.337  0.7333  2.3750 -1.6086
 3900TIP3    H211665   4.353   6.204   1.238  0.5932 -1.2595  2.2756
 3901TIP3   OH211666   2.393   4.212   4.737 -0.2526  0.2884 -0.8527
 3901TIP3    H111667   2.402   4.269   4.661  0.6793  0.5137 -0.5826
 3901TIP3    H211668   2.347   4.265   4.802  1.3516  1.0647 -0.2976
 3902TIP3   OH211669   2.702   0.899   3.190 -0.0030 -0.6454 -0.2923
 3902TIP3    H111670   2.791   0.916   3.223 -0.0447 -2.2535  0.7380
 3902TIP3    H211671   2.652   0.977   3.214  0.1168 -1.4742  3.0513
 3903TIP3   OH211672   3.747   2.677   4.261  0.8978 -0.2483 -0.4506
 3903TIP3    H111673   3.838   2.694   4.235  0.6986  0.1929 -0.8814
 3903TIP3    H211674   3.754   2.627   4.342  1.5228  0.6263  0.0504
 3904TIP3   OH211675   6.379   4.498   1.520 -0.2635  0.1011  0.1943
 3904TIP3    H111676   6.300   4.513   1.469 -0.5341  0.0310  0.5859
 3904TIP3    H211677   6.422   4.583   1.524 -1.0109  0.4618  1.1172
 3905TIP3   OH211678   3.176   0.246   3.273 -0.4714  0.3017  0.9806
 3905TIP3    H111679   3.251   0.303   3.255 -0.0312 -0.4326  0.4304
 3905TIP3    H211680   3.110   0.273   3.209  0.3232 -0.8631 -0.4030
 3906TIP3   OH211681   3.833   5.163   5.183  0.5330 -0.1446  0.2709
 3906TIP3    H111682   3.909   5.210   5.148  0.0521  0.4362 -0.0026
 3906TIP3    H211683   3.779   5.144   5.107  1.0202 -1.7187  0.2923
 3907TIP3   OH211684   2.166   2.630   0.268  0.1025 -0.3272  0.6356
 3907TIP3    H111685   2.177   2.592   0.181 -1.3407  0.8242 -0.1062
 3907TIP3    H211686   2.072   2.625   0.285 -0.0135  1.8476  0.9417
 3908TIP3   OH211687   6.384   4.196   4.153  0.1562 -0.2649  0.4436
 3908TIP3    H111688   6.324   4.135   4.109 -1.2589  1.1401  0.3539
 3908TIP3    H211689   6.381   4.170   4.245 -1.2665  0.3034  0.5791
 3909TIP3   OH211690   1.843   4.200   4.460  0.6319  0.1629 -0.6278
 3909TIP3    H111691   1.781   4.141   4.503  0.2301  0.0579 -1.3461
 3909TIP3    H211692   1.928   4.176   4.497  0.5910 -1.4418 -1.5168
 3910TIP3   OH211693   4.324   2.436   2.278  0.4231  0.1934 -0.0003
 3910TIP3    H111694   4.276   2.468   2.202  0.3332  1.0095  0.3899
 3910TIP3    H211695   4.285   2.350   2.297 -0.5441  0.6146 -0.0009
 3911TIP3   OH211696   3.800   3.461   4.494  0.2833  0.1224 -0.0024
 3911TIP3    H111697   3.801   3.556   4.494  2.4401  0.1725  1.3497
 3911TIP3    H211698   3.741   3.437   4.565 -0.8533  0.3980 -0.8251
 3912TIP3   OH211699   5.237   5.865   5.189 -0.0882  0.2047  0.1250
 3912TIP3    H111700   5.276   5.825   5.111 -1.9133  1.9150 -1.8064
 3912TIP3    H211701   5.276   5.953   5.192 -1.3324  0.7674  0.0828
 3913TIP3   OH211702   7.069   0.678   1.930  0.0946  0.1397 -0.1508
 3913TIP3    H111703   7.084   0.613   1.861  0.5281  0.0035  0.0699
 3913TIP3    H211704   7.053   0.759   1.883  0.1497 -0.0020 -0.4164
 3914TIP3   OH211705   5.866   5.147   4.939  0.3669  0.1839  0.5709
 3914TIP3    H111706   5.881   5.215   5.005  0.4739  0.7753 -0.0517
 3914TIP3    H211707   5.829   5.194   4.865  3.5957  0.2220 -1.2156
 3915TIP3   OH211708   6.418   3.670   4.967  0.0875  0.2093 -0.1155
 3915TIP3    H111709   6.359   3.630   4.902 -0.0736 -0.1533  0.2441
 3915TIP3    H211710   6.372   3.659   5.050  0.3077  0.6403  0.0642
 3916TIP3   OH211711   6.271   5.689   4.284 -0.3062  0.2425 -0.2201
 3916TIP3    H111712   6.234   5.747   4.218  2.0621  0.0460 -1.8548
 3916TIP3    H211713   6.337   5.742   4.329 -0.6984 -0.1252  0.8215
 3917TIP3   OH211714   5.196   6.746   2.263 -0.0926  0.1589 -0.0861
 3917TIP3    H111715   5.265   6.801   2.226  0.7403 -0.5741  0.3602
 3917TIP3    H211716   5.189   6.672   2.203 -1.7534  1.0905 -1.1146
 3918TIP3   OH211717   2.225   1.924   1.245  0.2835 -0.1732  0.4311
 3918TIP3    H111718   2.255   1.845   1.199 -0.6869 -0.4017  0.1478
 3918TIP3    H211719   2.145   1.896   1.290  0.6800  0.3099  1.4510
 3919TIP3   OH211720   0.356   6.525   1.392 -0.9000  0.4959  0.4293
 3919TIP3    H111721   0.445   6.498   1.412 -1.3073 -1.2365  0.1406
 3919TIP3    H211722   0.365   6.590   1.322  0.1109 -0.6345 -0.5471
 3920TIP3   OH211723   2.776   1.163   1.167 -0.4956 -0.0542 -0.5297
 3920TIP3    H111724   2.684   1.147   1.143 -0.8631 -1.6079  1.5690
 3920TIP3    H211725   2.781   1.258   1.177 -2.4565 -0.0316  1.1006
 3921TIP3   OH211726   4.224   5.370   3.030 -0.4189 -0.5152 -0.1200
 3921TIP3    H111727   4.287   5.384   3.100 -0.2321  0.3598 -0.4473
 3921TIP3    H211728   4.211   5.275   3.027  0.3868 -0.6455  0.3787
 3922TIP3   OH211729   3.288   1.469   2.348  0.3383 -0.3436 -0.3370
 3922TIP3    H111730   3.228   1.543   2.346  0.5413 -0.1584  0.2862
 3922TIP3    H211731   3.233   1.393   2.328  0.0925 -0.0540 -0.7724
 3923TIP3   OH211732   1.352   0.547   2.544  0.6333 -0.3750  0.3224
 3923TIP3    H111733   1.257   0.544   2.551  0.5367 -1.5824 -1.1065
 3923TIP3    H211734   1.375   0.638   2.563 -0.8586  0.0843  0.0168
 3924TIP3   OH211735   2.895   2.236   4.734 -0.1262  0.2056  0.1965
 3924TIP3    H111736   2.907   2.331   4.729  0.2998  0.2879  2.1019
 3924TIP3    H211737   2.845   2.222   4.814 -0.9433 -1.1359 -0.5139
 3925TIP3   OH211738   2.979   1.478   4.983 -0.1893  0.2364 -0.2378
 3925TIP3    H111739   2.985   1.437   4.897  0.3518  1.0656 -0.6135
 3925TIP3    H211740   2.974   1.405   5.045 -5.3278 -0.5131 -1.1509
 3926TIP3   OH211741   3.788   3.857   4.191 -0.2411  0.0260  0.2026
 3926TIP3    H111742   3.860   3.844   4.130 -0.7350 -0.0769 -0.3727
 3926TIP3    H211743   3.828   3.894   4.269  0.2174  1.5243 -0.7038
 3927TIP3   OH211744   3.702   0.718   0.105 -0.4395  0.2886 -0.0666
 3927TIP3    H111745   3.632   0.653   0.115  0.2615 -0.1870  2.5623
 3927TIP3    H211746   3.782   0.666   0.108  0.1015  1.1343  0.2589
 3928TIP3   OH211747   3.876   1.182   3.842  0.3423 -0.2337  0.2611
 3928TIP3    H111748   3.837   1.212   3.760  1.2037  2.1899  0.6289
 3928TIP3    H211749   3.871   1.087   3.839 -1.3879 -0.1317 -1.7132
 3929TIP3   OH211750   1.008   5.931   2.923 -0.1457  0.0953  0.1111
 3929TIP3    H111751   0.993   5.846   2.882 -1.4884  1.3181 -2.0758
 3929TIP3    H211752   0.923   5.956   2.958  0.3658  0.3527  1.2313
 3930TIP3   OH211753   4.692   0.967   5.230  0.5159  0.0548 -0.0559
 3930TIP3    H111754   4.620   0.994   5.172 -0.1394  0.1082  0.7638
 3930TIP3    H211755   4.679   1.018   5.310  0.1109 -1.5784  0.9770
 3931TIP3   OH211756   3.232   0.466   1.098  0.1291  0.0334  0.0536
 3931TIP3    H111757   3.167   0.530   1.126 -1.3828 -1.1189 -0.6378
 3931TIP3    H211758   3.181   0.399   1.052  1.7492 -1.2033 -0.0384
 3932TIP3   OH211759   4.773   1.004   3.822 -0.2557 -0.4488 -0.3973
 3932TIP3    H111760   4.801   0.942   3.755 -0.6885  0.5176 -1.5180
 3932TIP3    H211761   4.827   1.082   3.807  0.2531 -0.5134  0.9558
 3933TIP3   OH211762   3.094   2.964   3.744  0.4224 -0.2746  0.8179
 3933TIP3    H111763   3.127   2.874   3.745 -1.2676 -0.9438  2.0028
 3933TIP3    H211764   3.112   2.997   3.832  0.2436  0.2423  0.6629
 3934TIP3   OH211765   1.801   3.876   1.314  0.2655  0.6021  0.6129
 3934TIP3    H111766   1.784   3.843   1.226 -1.4472  0.7962  0.8347
 3934TIP3    H211767   1.838   3.801   1.361 -2.4471 -0.7544  0.7746
 3935TIP3   OH211768   0.152   6.738   2.201  0.2180 -0.2088 -0.4183
 3935TIP3    H111769   0.091   6.691   2.258 -1.9515  0.1145 -2.3738
 3935TIP3    H211770   0.123   6.829   2.204  0.4927 -0.0752 -1.5233
 3936TIP3   OH211771   5.289   3.464   2.991  0.0287 -0.1319  0.3523
 3936TIP3    H111772   5.198   3.495   2.993  0.2328  0.6281 -0.9596
 3936TIP3    H211773   5.306   3.446   2.899  1.1438 -0.4778  0.6144
 3937TIP3   OH211774   5.620   6.762   4.187  0.0059 -0.5392  0.5080
 3937TIP3    H111775   5.548   6.723   4.237 -0.3374  0.2008  0.6027
 3937TIP3    H211776   5.638   6.844   4.233 -1.7116  1.2178 -1.7363
 3938TIP3   OH211777   5.396   0.691   3.673 -0.1873 -0.3812 -0.0778
 3938TIP3    H111778   5.458   0.628   3.637 -0.3111  0.3888 -1.7077
 3938TIP3    H211779   5.312   0.667   3.635 -0.8518 -1.1253  1.7490
 3939TIP3   OH211780   4.494   4.032   1.186 -0.2215 -0.2673  0.4826
 3939TIP3    H111781   4.580   3.992   1.169 -0.9027 -1.8096  0.5226
 3939TIP3    H211782   4.515   4.117   1.223  1.3098 -0.9180  1.2268
 3940TIP3   OH211783   2.111   3.324   5.888 -0.1534  0.0906  0.3389
 3940TIP3    H111784   2.076   3.408   5.859 -0.2830  0.1364  0.6303
 3940TIP3    H211785   2.071   3.260   5.829  0.3827  0.2825 -0.2523
 3941TIP3   OH211786   7.087   0.814   3.540  0.1256 -0.9551  0.4734
 3941TIP3    H111787   7.069   0.727   3.506  0.4335 -0.4014 -1.1942
 3941TIP3    H211788   7.028   0.823   3.615 -1.5600 -1.7593 -0.6885
 3942TIP3   OH211789   5.318   5.310   2.219 -0.2719 -0.3537 -0.3673
 3942TIP3    H111790   5.352   5.221   2.231  0.1387 -0.3522 -1.4528
 3942TIP3    H211791   5.341   5.355   2.301  2.1234 -0.4294 -0.9122
 3943TIP3   OH211792   5.730   3.907   2.926 -0.2395  0.5023  0.0059
 3943TIP3    H111793   5.683   3.828   2.954 -1.2204  0.7141 -1.0143
 3943TIP3    H211794   5.762   3.887   2.839  3.0054 -0.2307  1.2176
 3944TIP3   OH211795   0.653   6.496   5.324 -0.3866 -0.2977 -0.2966
 3944TIP3    H111796   0.725   6.466   5.380  0.0928  1.0194 -0.1761
 3944TIP3    H211797   0.696   6.526   5.244 -1.1283 -2.8886 -1.7678
 3945TIP3   OH211798   7.069   3.334   2.038  0.1564  0.0574  0.2548
 3945TIP3    H111799   7.140   3.283   1.999  1.0981  2.0392 -0.7318
 3945TIP3    H211800   7.009   3.351   1.965 -0.9027 -0.7987  0.8872
 3946TIP3   OH211801   4.467   1.725   2.268 -0.2995  0.3888 -0.1371
 3946TIP3    H111802   4.556   1.702   2.240 -0.2513  1.3478 -0.8189
 3946TIP3    H211803   4.458   1.684   2.354  0.4983 -0.4239 -0.4180
 3947TIP3   OH211804   5.149   5.664   4.972 -0.7103 -0.6606 -0.6498
 3947TIP3    H111805   5.181   5.644   5.060 -0.3806  0.4672 -0.4997
 3947TIP3    H211806   5.199   5.606   4.915 -0.6577 -1.1341 -0.1273
 3948TIP3   OH211807   5.739   2.105   2.989  0.3999 -0.2826 -0.1169
 3948TIP3    H111808   5.820   2.104   2.938 -0.3258 -0.1546 -1.3150
 3948TIP3    H211809   5.750   2.179   3.049  2.0981 -1.6652  1.3466
 3949TIP3   OH211810   6.553   4.518   3.540  0.0383  0.2465 -0.0831
 3949TIP3    H111811   6.481   4.469   3.580  0.9722 -0.9684  0.1754
 3949TIP3    H211812   6.511   4.579   3.480 -1.1966 -0.5956 -0.0945
 3950TIP3   OH211813   6.637   4.603   4.581 -0.4263  0.1870 -0.2000
 3950TIP3    H111814   6.577   4.675   4.600 -0.3535 -0.1860  1.6290
 3950TIP3    H211815   6.649   4.606   4.486 -1.0883  2.0493 -0.2674
 3951TIP3   OH211816   1.450   5.606   3.435  0.1619 -0.0970 -0.3684
 3951TIP3    H111817   1.406   5.531   3.476  0.1803  0.1357  0.0819
 3951TIP3    H211818   1.521   5.628   3.495 -0.7549  1.2337  0.2904
 3952TIP3   OH211819   3.590   4.140   0.614 -0.1211  0.5959  0.1532
 3952TIP3    H111820   3.546   4.125   0.530  0.5964 -0.7362 -0.0173
 3952TIP3    H211821   3.520   4.164   0.674 -1.1004 -1.2684 -0.1589
 3953TIP3   OH211822   5.202   3.994   4.206 -0.4108 -0.9550  0.5499
 3953TIP3    H111823   5.293   3.974   4.185  0.0433 -0.1752  1.6988
 3953TIP3    H211824   5.165   4.025   4.124  1.1309  1.3723  0.6386
 3954TIP3   OH211825   6.895   6.691   1.582 -0.4625  0.8724  0.2679
 3954TIP3    H111826   6.935   6.763   1.533  1.2271  0.4479  0.9470
 3954TIP3    H211827   6.870   6.627   1.516 -1.8574  1.9714 -0.3318
 3955TIP3   OH211828   1.207   6.602   3.140 -0.4002  0.4690 -0.7157
 3955TIP3    H111829   1.294   6.566   3.126 -0.0131  1.4029 -0.7629
 3955TIP3    H211830   1.163   6.537   3.196  0.8839  0.7619  0.7039
 3956TIP3   OH211831   6.669   3.716   0.032 -0.3893 -0.0473 -0.0017
 3956TIP3    H111832   6.698   3.729   0.122  0.8466  0.3192 -0.4367
 3956TIP3    H211833   6.734   3.761  -0.021 -0.6292 -0.9804 -1.1257
 3957TIP3   OH211834   3.397   4.254   3.438  0.1962  0.1091  0.1480
 3957TIP3    H111835   3.330   4.307   3.482  1.2786  1.2054  0.5281
 3957TIP3    H211836   3.380   4.164   3.467  0.4127  0.6898  2.2123
 3958TIP3   OH211837   1.085   3.368   1.538 -0.3848  0.3816  0.2952
 3958TIP3    H111838   1.127   3.311   1.474 -2.3406 -1.1254  0.2640
 3958TIP3    H211839   1.156   3.422   1.573  1.0043  0.1426 -1.9596
 3959TIP3   OH211840   0.773   4.763   3.279 -0.3970 -0.3961  0.1164
 3959TIP3    H111841   0.761   4.855   3.301 -2.4494 -0.3994 -0.7276
 3959TIP3    H211842   0.819   4.725   3.354  0.5984  1.3120  0.4110
 3960TIP3   OH211843   4.719   1.109   2.645  0.0913  0.5128  0.1804
 3960TIP3    H111844   4.796   1.166   2.645  1.0248 -0.7025 -0.3351
 3960TIP3    H211845   4.686   1.113   2.556  0.5392 -0.2080 -0.0324
 3961TIP3   OH211846   1.024   4.647   1.530  0.1223  0.0428  0.0675
 3961TIP3    H111847   0.984   4.565   1.559  0.7786 -0.1853  0.3414
 3961TIP3    H211848   0.960   4.685   1.470  0.3234 -1.2325 -0.9740
 3962TIP3   OH211849   0.418   2.238   0.775  0.3784 -0.1993  0.2964
 3962TIP3    H111850   0.471   2.287   0.839  0.7380  0.1942 -0.2941
 3962TIP3    H211851   0.329   2.244   0.809  0.5701 -0.0202  0.7824
 3963TIP3   OH211852   5.268   4.532   4.545 -0.4850  0.5847  0.1833
 3963TIP3    H111853   5.345   4.475   4.557  0.2026  1.2190 -0.9553
 3963TIP3    H211854   5.196   4.484   4.586  0.1610 -0.8965 -0.3072
 3964TIP3   OH211855   0.067   2.631   4.050  0.3453 -0.4991 -0.4605
 3964TIP3    H111856   0.084   2.695   3.981 -0.5191  0.1815 -0.0670
 3964TIP3    H211857   0.153   2.594   4.071  0.6937 -0.3034 -1.4975
 3965TIP3   OH211858   2.770   2.574   1.415  0.0040 -0.2461  0.8900
 3965TIP3    H111859   2.732   2.518   1.483  0.0366 -0.8917  0.3830
 3965TIP3    H211860   2.760   2.663   1.450 -2.9406 -0.2520  0.3650
 3966TIP3   OH211861   4.272   3.788   0.193 -0.5064 -0.7231 -0.1078
 3966TIP3    H111862   4.295   3.766   0.283 -2.5594  2.9663  1.5725
 3966TIP3    H211863   4.335   3.855   0.167 -1.2646 -0.1450 -0.5216
 3967TIP3   OH211864   0.915   4.154   1.079  0.2151  0.8046 -0.1145
 3967TIP3    H111865   0.824   4.144   1.108  0.0272  1.7463 -0.3698
 3967TIP3    H211866   0.961   4.191   1.154  0.5298 -0.2295  0.2208
 3968TIP3   OH211867   1.528   1.552   0.027 -0.5241 -0.0147  0.2454
 3968TIP3    H111868   1.606   1.517   0.071 -0.1274 -0.4626 -0.7884
 3968TIP3    H211869   1.472   1.582   0.098 -0.5279 -2.0296  1.1600
 3969TIP3   OH211870   5.526   1.760   4.961 -0.0024 -0.1725 -0.3278
 3969TIP3    H111871   5.550   1.809   5.040 -1.4736 -0.3417  0.2469
 3969TIP3    H211872   5.437   1.730   4.978  0.4153 -2.0095 -1.1876
 3970TIP3   OH211873   3.399   2.998   4.136 -0.2202 -0.3093  0.7111
 3970TIP3    H111874   3.492   2.993   4.160 -0.1198 -0.3526  0.3291
 3970TIP3    H211875   3.355   3.024   4.217 -0.2049 -2.7077  1.5601
 3971TIP3   OH211876   3.086   3.877   3.686 -0.2579 -0.1154  0.3733
 3971TIP3    H111877   3.048   3.836   3.608  0.3488  0.3797 -0.1956
 3971TIP3    H211878   3.059   3.821   3.759  1.9617 -2.5843 -0.5310
 3972TIP3   OH211879   2.571   4.850   1.724  0.2828 -0.0482 -0.3355
 3972TIP3    H111880   2.647   4.794   1.740  0.2818  0.3745  1.2716
 3972TIP3    H211881   2.499   4.806   1.770 -0.0702  0.4374 -0.4144
 3973TIP3   OH211882   3.181   5.529   1.506 -0.3260 -0.1992 -0.0813
 3973TIP3    H111883   3.178   5.434   1.518  0.0181 -0.1240  0.6220
 3973TIP3    H211884   3.273   5.548   1.487 -0.6593 -0.1866 -1.8951
 3974TIP3   OH211885   3.359   6.062   4.986  0.2405  0.3473  0.4822
 3974TIP3    H111886   3.294   6.093   4.923  0.8343 -0.0058 -0.3304
 3974TIP3    H211887   3.378   5.972   4.958 -1.3392 -0.7589  2.6907
 3975TIP3   OH211888   1.931   3.939   4.790 -0.0181 -0.1753 -0.0500
 3975TIP3    H111889   1.931   3.861   4.734  0.1840 -0.8602  0.8774
 3975TIP3    H211890   1.935   3.904   4.879 -0.7648  0.8809  0.4125
 3976TIP3   OH211891   5.074   1.846  -0.013 -0.0876 -0.9701 -0.3722
 3976TIP3    H111892   5.148   1.876   0.039  0.5704  0.8843 -2.2477
 3976TIP3    H211893   5.031   1.781   0.042  1.2034  0.0564  1.9883
 3977TIP3   OH211894   1.919   4.198   5.259 -0.1288  0.3039  0.0854
 3977TIP3    H111895   1.856   4.270   5.261  0.4634  0.8915 -1.2880
 3977TIP3    H211896   1.970   4.208   5.339 -0.8028  0.7034  0.4786
 3978TIP3   OH211897   5.390   4.653   4.286 -0.2614  0.2883  0.4480
 3978TIP3    H111898   5.352   4.698   4.211  0.4772 -2.2109 -1.5726
 3978TIP3    H211899   5.315   4.615   4.332 -0.5826 -0.1884 -0.4519
 3979TIP3   OH211900   2.329   4.117   5.448 -0.5376  0.4571  0.1855
 3979TIP3    H111901   2.288   4.108   5.534 -2.2332  0.8408 -0.5429
 3979TIP3    H211902   2.336   4.027   5.416  0.2994  0.2927  0.7780
 3980TIP3   OH211903   0.102   4.272   2.147 -0.3204  0.5266  0.4539
 3980TIP3    H111904   0.144   4.190   2.173 -0.5573  0.6300  1.1916
 3980TIP3    H211905   0.161   4.340   2.176 -1.2050  0.6910  1.9569
 3981TIP3   OH211906   4.087   4.161   2.181 -0.2013 -0.2891  0.5781
 3981TIP3    H111907   4.170   4.189   2.142  0.2709  0.0992  1.8025
 3981TIP3    H211908   4.102   4.069   2.203 -0.5350 -0.5621 -0.3066
 3982TIP3   OH211909   3.305   0.396   0.248  0.1562  0.4589  0.0626
 3982TIP3    H111910   3.283   0.321   0.304  0.3840 -0.6532 -1.2745
 3982TIP3    H211911   3.221   0.439   0.232 -0.2007 -0.3733 -0.3361
 3983TIP3   OH211912   5.746   1.907   3.407 -0.5342  0.0207 -0.2019
 3983TIP3    H111913   5.788   1.854   3.339  0.1964  0.3164  0.0087
 3983TIP3    H211914   5.679   1.957   3.360 -0.1929  0.0503 -0.6678
 3984TIP3   OH211915   5.811   2.154   1.269 -0.0002  0.1509  0.0158
 3984TIP3    H111916   5.765   2.152   1.353  0.6255 -0.0650  0.3609
 3984TIP3    H211917   5.843   2.244   1.262 -1.0173  0.4855 -0.5342
 3985TIP3   OH211918   7.186   3.411   5.564  0.1564  0.3532  0.2053
 3985TIP3    H111919   7.209   3.324   5.533  2.1907  0.8366  0.2218
 3985TIP3    H211920   7.175   3.463   5.485  0.2116  0.3758  0.2122
 3986TIP3   OH211921   5.872   3.540   3.953  0.0577  0.3555 -0.3149
 3986TIP3    H111922   5.813   3.580   4.017  0.2260  1.3878 -0.7759
 3986TIP3    H211923   5.820   3.538   3.872  0.6578  1.3122 -0.7344
 3987TIP3   OH211924   5.514   6.509   4.411 -0.3976 -0.5090  0.0769
 3987TIP3    H111925   5.421   6.528   4.417 -0.6633 -1.1439 -1.4530
 3987TIP3    H211926   5.542   6.492   4.501 -1.8675 -0.7649  0.4999
 3988TIP3   OH211927   6.700   2.483   1.842 -0.2744 -0.0872  0.4528
 3988TIP3    H111928   6.675   2.552   1.781 -2.4793 -1.7297 -0.6727
 3988TIP3    H211929   6.621   2.467   1.895  0.3450 -1.3284  1.0577
 3989TIP3   OH211930   0.153   2.220   2.393 -0.1563 -0.0813  0.0190
 3989TIP3    H111931   0.111   2.254   2.472  1.7887  1.2022  0.5844
 3989TIP3    H211932   0.179   2.297   2.344  1.4692 -0.7809 -0.3000
 3990TIP3   OH211933   7.178   2.330   1.040 -0.0055  0.4871 -0.5362
 3990TIP3    H111934   7.161   2.254   1.095  0.0965 -0.0164 -1.1885
 3990TIP3    H211935   7.244   2.379   1.087  0.3579 -0.1341 -0.3893
 3991TIP3   OH211936   2.757   2.361   5.525  0.1259  0.6109 -0.5786
 3991TIP3    H111937   2.749   2.266   5.527  0.8420  0.5272 -1.1047
 3991TIP3    H211938   2.727   2.390   5.611  2.9598 -0.3847  0.8855
 3992TIP3   OH211939   1.097   1.525   4.204  0.2261  1.0623  0.2743
 3992TIP3    H111940   1.145   1.471   4.142 -1.1751 -0.1334  0.1847
 3992TIP3    H211941   1.008   1.529   4.169 -0.2879  1.4051  1.5532
 3993TIP3   OH211942   0.168   2.295   4.637 -0.4106 -0.1252 -0.2953
 3993TIP3    H111943   0.128   2.373   4.598 -0.8253  1.3184  2.7789
 3993TIP3    H211944   0.097   2.254   4.686 -0.0763 -2.2696 -1.4815
 3994TIP3   OH211945   5.950   5.211  -0.024 -0.2038 -0.1183  0.3546
 3994TIP3    H111946   5.864   5.180   0.002  0.2210 -2.2851 -0.6390
 3994TIP3    H211947   6.007   5.189   0.050 -0.3812  0.8534  0.7974
 3995TIP3   OH211948   0.458   1.279   2.340 -0.2219  0.3626  0.3632
 3995TIP3    H111949   0.501   1.205   2.382  1.0404  0.9026  0.0758
 3995TIP3    H211950   0.529   1.338   2.316 -1.0495  0.8156 -1.0848
 3996TIP3   OH211951   3.944   0.116   4.132  0.0306  0.0557  0.0580
 3996TIP3    H111952   3.970   0.140   4.221 -0.2168 -1.4487  0.5641
 3996TIP3    H211953   3.867   0.169   4.114 -0.0569  0.2016  0.8319
 3997TIP3   OH211954   0.766   1.046   0.405 -0.3898  0.6944 -0.3394
 3997TIP3    H111955   0.741   1.035   0.313 -0.1254 -0.9258 -0.2461
 3997TIP3    H211956   0.832   0.979   0.420 -2.4485 -1.0546  1.7634
 3998TIP3   OH211957   5.149   5.839   3.883  0.0427 -0.0630 -0.3845
 3998TIP3    H111958   5.245   5.832   3.881 -0.0228 -0.9931 -1.3602
 3998TIP3    H211959   5.124   5.802   3.968  0.5359 -0.0370 -0.2264
 3999TIP3   OH211960   5.651   0.551   5.400  0.0515  0.4027  0.1979
 3999TIP3    H111961   5.606   0.469   5.421  0.0077  0.1703 -0.7603
 3999TIP3    H211962   5.728   0.551   5.457  0.7045 -0.9062 -0.6114
 4000TIP3   OH211963   0.505   3.218   0.179 -0.7570  0.7377  0.6181
 4000TIP3    H111964   0.573   3.235   0.114 -1.0057 -1.3738 -0.3010
 4000TIP3    H211965   0.423   3.242   0.136 -1.0012 -1.4124 -0.2568
 4001TIP3   OH211966   0.824   6.605   5.098  0.4388 -0.7248 -0.0349
 4001TIP3    H111967   0.844   6.516   5.067 -2.5280 -1.6344  0.3122
 4001TIP3    H211968   0.749   6.632   5.045  0.8700  1.3271  0.3387
 4002TIP3   OH211969   6.407   6.324   5.466 -0.1474 -0.2192 -0.0368
 4002TIP3    H111970   6.435   6.277   5.545 -2.2738 -0.2051  0.8005
 4002TIP3    H211971   6.460   6.404   5.466  0.7576 -0.7958  0.6865
 4003TIP3   OH211972   6.964   1.654   1.105 -0.7202 -0.0331  0.5035
 4003TIP3    H111973   6.972   1.620   1.015 -0.8985 -0.1047  0.5151
 4003TIP3    H211974   6.984   1.578   1.160 -2.3134 -0.4560  0.5498
 4004TIP3   OH211975   6.599   4.505   1.161 -0.9375 -0.1115 -0.3417
 4004TIP3    H111976   6.534   4.574   1.171 -0.1771  0.4072  1.6066
 4004TIP3    H211977   6.675   4.536   1.210  0.1849 -1.4146 -1.1831
 4005TIP3   OH211978   5.927   1.477   3.998  0.1412 -0.1968 -0.3606
 4005TIP3    H111979   5.984   1.492   3.922  0.2470 -0.8165 -0.4148
 4005TIP3    H211980   5.863   1.548   3.995  1.0756  0.6769 -0.1347
 4006TIP3   OH211981   3.798   3.669   2.797 -0.7971  0.1304  0.1478
 4006TIP3    H111982   3.825   3.743   2.743 -1.6609  1.5616  1.5541
 4006TIP3    H211983   3.872   3.609   2.795 -1.2710 -0.5391 -3.5951
 4007TIP3   OH211984   0.554   3.950   5.234 -0.9141 -0.1986 -0.5347
 4007TIP3    H111985   0.490   3.881   5.212 -1.2273 -0.4152  0.9539
 4007TIP3    H211986   0.638   3.915   5.205 -1.0927 -1.1707  0.0561
 4008TIP3   OH211987   5.886   0.170   2.109 -0.0528  0.2519 -0.5888
 4008TIP3    H111988   5.918   0.082   2.091  0.5131  0.2602  0.3091
 4008TIP3    H211989   5.939   0.200   2.183 -2.0898  0.2769  0.9449
 4009TIP3   OH211990   3.825   6.641   1.059 -0.0678  0.2598  0.6470
 4009TIP3    H111991   3.801   6.731   1.080  0.3181  0.9042 -1.5068
 4009TIP3    H211992   3.765   6.615   0.989  0.3789 -0.8604  0.6571
 4010TIP3   OH211993   0.991   5.631   2.920  0.8278 -0.0204  0.1490
 4010TIP3    H111994   0.946   5.589   2.994 -0.2601  0.5040 -0.1960
 4010TIP3    H211995   0.982   5.568   2.849  1.5616 -0.3672  0.3527
 4011TIP3   OH211996   5.599   3.767   0.276 -0.3063 -0.2375 -0.0500
 4011TIP3    H111997   5.678   3.773   0.330 -0.1151  2.0225 -0.4838
 4011TIP3    H211998   5.625   3.804   0.192 -2.0083  1.3150  0.0536
 4012TIP3   OH211999   0.928   3.437   0.336 -0.1953  0.6200  0.0642
 4012TIP3    H112000   0.925   3.496   0.260 -0.5127  1.5248  0.7598
 4012TIP3    H212001   0.996   3.475   0.392  0.8344 -0.6796 -0.2681
 4013TIP3   OH212002   2.862   5.197   2.698  0.7532 -0.4792  0.1649
 4013TIP3    H112003   2.854   5.225   2.607  0.5352 -0.8045  0.0847
 4013TIP3    H212004   2.819   5.112   2.702 -2.0976  0.8844  1.2482
 4014TIP3   OH212005   3.524   1.001   1.268 -0.5606  0.5029 -0.6427
 4014TIP3    H112006   3.515   0.915   1.227  0.1373 -0.2938  0.7962
 4014TIP3    H212007   3.510   1.064   1.196  0.8704 -0.8051 -2.1649
 4015TIP3   OH212008   4.158   5.408   0.215  0.4066  0.1496  0.4856
 4015TIP3    H112009   4.116   5.346   0.155  1.3247 -1.3911  1.3590
 4015TIP3    H212010   4.112   5.395   0.298  1.9269 -0.8975  1.2131
 4016TIP3   OH212011   0.090   6.482   5.134 -0.0951  0.1215 -0.0711
 4016TIP3    H112012   0.072   6.532   5.214  0.1739 -0.3678  0.3032
 4016TIP3    H212013   0.009   6.435   5.116  0.8741 -2.6466  2.0208
 4017TIP3   OH212014   4.702   4.764   4.688  0.3122  0.3272 -0.2032
 4017TIP3    H112015   4.694   4.796   4.778  0.9819  0.0238 -0.0279
 4017TIP3    H212016   4.622   4.793   4.645 -0.0206  0.4671  0.4947
 4018TIP3   OH212017   3.757   0.454   5.667  0.3292  0.8879 -0.2264
 4018TIP3    H112018   3.755   0.495   5.754  2.9725  1.0671 -0.1789
 4018TIP3    H212019   3.782   0.364   5.683  1.2609  1.0311 -0.8152
 4019TIP3   OH212020   0.815   4.714   4.147 -0.0750  0.2221 -0.2981
 4019TIP3    H112021   0.817   4.693   4.053  0.8161 -0.8548 -0.0701
 4019TIP3    H212022   0.894   4.765   4.161 -0.6090  1.0470 -0.2647
 4020TIP3   OH212023   0.176   5.787   0.126  0.1252  0.2308  0.4141
 4020TIP3    H112024   0.087   5.798   0.160 -0.7789 -2.2444 -0.8622
 4020TIP3    H212025   0.170   5.810   0.034  1.0431  0.8772  0.5025
 4021TIP3   OH212026   1.309   2.637   3.640  0.1699 -0.6232  0.2542
 4021TIP3    H112027   1.367   2.601   3.573 -0.9738  0.4089 -1.3485
 4021TIP3    H212028   1.260   2.561   3.671  0.5493 -1.0806 -0.2332
 4022TIP3   OH212029   4.206   1.293   2.187  0.3788  0.2868 -0.1636
 4022TIP3    H112030   4.191   1.366   2.127 -0.3735  0.4336  0.1844
 4022TIP3    H212031   4.290   1.257   2.161  1.9670  2.7556  1.1617
 4023TIP3   OH212032   5.760   5.540   4.313  0.4094 -0.3635 -0.3061
 4023TIP3    H112033   5.761   5.453   4.273 -1.2990 -0.5546  0.0044
 4023TIP3    H212034   5.826   5.589   4.264  2.2169 -2.1083  0.2328
 4024TIP3   OH212035   6.422   3.704   2.983  0.2645  0.1764 -0.1455
 4024TIP3    H112036   6.496   3.755   2.952 -0.0726  0.1377 -1.0456
 4024TIP3    H212037   6.357   3.769   3.011 -0.2335  0.2830 -1.4505
 4025TIP3   OH212038  -0.009   5.628   1.796  0.6859  0.4309  0.2586
 4025TIP3    H112039   0.050   5.621   1.871  0.7984  1.4498  0.2766
 4025TIP3    H212040   0.024   5.703   1.746  1.8314 -1.3569 -1.8961
 4026TIP3   OH212041   4.366   6.427   0.211 -0.3782 -0.3474  0.1197
 4026TIP3    H112042   4.323   6.478   0.142 -0.0877  0.7260  0.6927
 4026TIP3    H212043   4.446   6.393   0.170  0.0529  0.7084  0.0461
 4027TIP3   OH212044   6.464   1.934   0.289  0.6382  0.1904  0.3254
 4027TIP3    H112045   6.447   1.849   0.328  1.1818 -0.9527 -1.7869
 4027TIP3    H212046   6.384   1.984   0.305  0.2882 -0.7177  1.5457
 4028TIP3   OH212047   2.414   3.456   1.293  0.0851 -0.0152 -0.6768
 4028TIP3    H112048   2.480   3.426   1.230  1.4133  2.3294 -0.5260
 4028TIP3    H212049   2.391   3.544   1.263 -2.4994 -0.4780 -0.2872
 4029TIP3   OH212050   3.731   6.535   3.695  0.0259  0.5955 -0.1148
 4029TIP3    H112051   3.681   6.534   3.776 -1.3074  2.3500 -0.8495
 4029TIP3    H212052   3.822   6.525   3.722 -0.5879 -2.2704  1.3043
 4030TIP3   OH212053   0.359   0.982   0.335 -0.5629 -0.5357 -0.1162
 4030TIP3    H112054   0.392   1.072   0.328  2.5371 -1.6105 -1.2622
 4030TIP3    H212055   0.369   0.946   0.247 -0.5138 -2.3476  0.5896
 4031TIP3   OH212056   5.167   6.135   4.657 -0.3197  0.1550  0.3388
 4031TIP3    H112057   5.162   6.213   4.712 -0.9852 -0.2145  0.8095
 4031TIP3    H212058   5.174   6.063   4.719  0.2450 -0.1756 -0.0943
 4032TIP3   OH212059   4.867   1.389   2.175  0.2031 -0.0819  0.5224
 4032TIP3    H112060   4.861   1.324   2.105  2.2544 -1.3939  1.4895
 4032TIP3    H212061   4.858   1.473   2.129  3.4874 -0.7740 -1.7544
 4033TIP3   OH212062   2.320   4.643   2.950  0.3888 -0.0563 -0.3133
 4033TIP3    H112063   2.262   4.666   3.023 -0.0615 -1.2006 -0.2896
 4033TIP3    H212064   2.262   4.643   2.874  0.7308  0.5176 -0.5757
 4034TIP3   OH212065   3.914   5.048   2.364 -0.7540  0.0621 -0.3272
 4034TIP3    H112066   3.825   5.080   2.352 -0.3286  0.9794 -1.1960
 4034TIP3    H212067   3.949   5.099   2.437 -0.1848  1.4190 -1.5023
 4035TIP3   OH212068   2.593   0.810   0.742  0.2914  0.0523  0.1541
 4035TIP3    H112069   2.615   0.889   0.693 -0.8786 -0.6624 -1.6204
 4035TIP3    H212070   2.515   0.833   0.791 -1.3942 -0.5425 -2.0715
 4036TIP3   OH212071   0.242   2.319   1.391 -0.6996 -0.1344  0.2647
 4036TIP3    H112072   0.252   2.357   1.478  2.6319 -0.2326  0.0400
 4036TIP3    H212073   0.222   2.393   1.334  2.1525  0.8770  0.4051
 4037TIP3   OH212074   1.066   2.095   2.346 -0.0570  0.0808  0.0446
 4037TIP3    H112075   1.037   2.027   2.407 -0.1572 -1.5962 -1.8088
 4037TIP3    H212076   1.019   2.173   2.374 -1.5800 -1.1026  0.9300
 4038TIP3   OH212077   4.812   4.107   0.406 -0.1240  0.3294 -0.1346
 4038TIP3    H112078   4.748   4.046   0.442 -0.0503 -0.2002 -0.8759
 4038TIP3    H212079   4.844   4.063   0.327  2.2057 -0.1013  0.9648
 4039TIP3   OH212080   2.811   1.185   2.768  0.3755 -0.2609 -0.1500
 4039TIP3    H112081   2.892   1.189   2.718  1.4990  0.8630  1.6515
 4039TIP3    H212082   2.839   1.180   2.860 -1.5830  0.2402  0.5330
 4040TIP3   OH212083   5.948   0.118   3.153 -0.3729 -0.2059 -0.0649
 4040TIP3    H112084   5.887   0.067   3.100 -2.7802  0.5356  1.8195
 4040TIP3    H212085   5.914   0.111   3.242  0.7647  2.4183  0.6664
 4041TIP3   OH212086   6.129   0.387   2.727 -0.3078 -0.0226 -0.2412
 4041TIP3    H112087   6.189   0.410   2.656 -0.8134  0.8259 -0.3998
 4041TIP3    H212088   6.068   0.325   2.687 -0.3752  0.1760 -0.4480
 4042TIP3   OH212089   0.162   0.825   4.334  0.0097  0.1568 -0.3515
 4042TIP3    H112090   0.173   0.873   4.416 -1.7893 -2.0737  1.3043
 4042TIP3    H212091   0.245   0.838   4.287  0.6965  2.3323  1.3161
 4043TIP3   OH212092   0.025   4.702   0.151 -0.6478  0.0770 -0.0796
 4043TIP3    H112093   0.013   4.642   0.077  0.1724 -0.3508  0.1276
 4043TIP3    H212094   0.117   4.692   0.175 -0.1843  2.2910 -0.7815
 4044TIP3   OH212095   2.828   1.882   4.505 -0.0826  0.4508  0.1217
 4044TIP3    H112096   2.799   1.844   4.588 -0.4416  2.4874  0.9982
 4044TIP3    H212097   2.788   1.827   4.438 -2.1106  0.3787  1.3122
 4045TIP3   OH212098   0.298   5.382   5.188 -0.2134 -0.1979  0.3833
 4045TIP3    H112099   0.204   5.380   5.168 -0.8159  0.4457  2.8422
 4045TIP3    H212100   0.308   5.323   5.262  1.5651 -1.1040 -0.5131
 4046TIP3   OH212101   4.534   2.648   2.996  0.1210  0.2922  0.1211
 4046TIP3    H112102   4.461   2.708   2.978  0.5021  0.4447 -0.9742
 4046TIP3    H212103   4.580   2.641   2.913  2.3158  1.4454  1.1658
 4047TIP3   OH212104   1.522   1.919   4.629  0.3470  0.4228 -0.4732
 4047TIP3    H112105   1.543   1.860   4.556  4.2875  1.2448 -0.2065
 4047TIP3    H212106   1.554   2.004   4.601 -1.7729  1.6896  0.6992
 4048TIP3   OH212107   6.224   0.708   1.422 -0.4187 -0.0147  0.3757
 4048TIP3    H112108   6.295   0.703   1.486  0.6237  1.4691 -0.5834
 4048TIP3    H212109   6.268   0.717   1.338 -1.6215  3.0756 -0.0816
 4049TIP3   OH212110   5.555   3.607   1.902  0.3817 -0.5253  0.4786
 4049TIP3    H112111   5.613   3.659   1.957  0.4270  0.8138 -0.7663
 4049TIP3    H212112   5.614   3.553   1.849  0.4727  0.1075 -0.0818
 4050TIP3   OH212113   4.437   2.682   5.326 -0.3010  0.2088  0.7672
 4050TIP3    H112114   4.471   2.769   5.303  0.7797 -0.4429 -0.2326
 4050TIP3    H212115   4.350   2.699   5.363 -1.0973  1.5884 -1.4918
 4051TIP3   OH212116   1.644   4.327   0.637  0.0949  0.3004  0.2318
 4051TIP3    H112117   1.597   4.399   0.678 -0.4010 -0.0910  0.3537
 4051TIP3    H212118   1.600   4.248   0.668 -0.9843  0.0080 -1.8443
 4052TIP3   OH212119   4.059   5.980   0.912 -0.4695  0.7710 -0.7160
 4052TIP3    H112120   4.151   5.960   0.930 -1.0842 -1.2833  0.5558
 4052TIP3    H212121   4.061   6.058   0.857  2.0979 -0.1343 -2.0768
 4053TIP3   OH212122   0.324   2.701   0.192  0.0200 -0.2324 -0.8635
 4053TIP3    H112123   0.304   2.734   0.280  1.4451 -1.8529  0.1439
 4053TIP3    H212124   0.358   2.612   0.207  0.7089 -0.4003 -3.0296
 4054TIP3   OH212125   5.054   3.595   3.011 -0.0286 -0.2369  0.1904
 4054TIP3    H112126   5.007   3.519   3.046 -0.1889  0.0334  0.5687
 4054TIP3    H212127   5.053   3.659   3.083  1.7588 -0.5769  0.5739
 4055TIP3   OH212128   1.787   3.624   1.178 -0.7832  0.1824 -0.0858
 4055TIP3    H112129   1.805   3.577   1.259 -0.2558  1.0875  0.3449
 4055TIP3    H212130   1.705   3.586   1.146 -0.8840 -0.3425  0.7529
 4056TIP3   OH212131   5.448   1.005   0.951 -0.3237  0.0282 -0.2752
 4056TIP3    H112132   5.489   1.044   0.873  2.0476  1.8029  1.6877
 4056TIP3    H212133   5.471   0.913   0.946  1.0389  0.3668 -1.0258
 4057TIP3   OH212134   1.960   5.177   1.178 -0.6110  0.8805 -0.4571
 4057TIP3    H112135   1.913   5.163   1.260  0.5686  0.8730  0.2406
 4057TIP3    H212136   1.998   5.092   1.157  0.6313  1.2928 -0.0014
 4058TIP3   OH212137   3.312   3.111   3.324  0.2006 -0.9498 -0.0515
 4058TIP3    H112138   3.277   3.122   3.412  0.8095  0.0833  0.0854
 4058TIP3    H212139   3.354   3.025   3.324 -0.7119 -1.4031  0.3335
 4059TIP3   OH212140   5.436   4.686   5.760 -0.2482  0.0583  0.0151
 4059TIP3    H112141   5.358   4.649   5.801 -1.0458  1.6429  0.0171
 4059TIP3    H212142   5.435   4.653   5.671  0.7344 -2.3005  0.8020
 4060TIP3   OH212143   1.448   2.694   4.753 -0.2916  0.3004  0.3190
 4060TIP3    H112144   1.419   2.784   4.768  0.0365  0.7299 -1.3693
 4060TIP3    H212145   1.367   2.643   4.753 -0.5201  0.6572  0.9209
 4061TIP3   OH212146   4.822   2.327   4.619 -0.1874 -0.7154 -0.3764
 4061TIP3    H112147   4.778   2.407   4.591 -1.1646 -0.7743  0.9249
 4061TIP3    H212148   4.754   2.260   4.613  0.1041 -1.0830  0.3386
 4062TIP3   OH212149  -0.013   4.953   2.454  0.4854  0.3506  0.6690
 4062TIP3    H112150   0.079   4.927   2.463  0.5977  0.8436  1.0374
 4062TIP3    H212151  -0.049   4.945   2.542  0.2565  0.4535  0.5854
 4063TIP3   OH212152   3.801   2.115   3.083 -0.1029  0.2219  0.4331
 4063TIP3    H112153   3.867   2.065   3.133  0.0247 -0.7615 -0.6839
 4063TIP3    H212154   3.793   2.068   3.000 -0.3940  1.7622 -0.4463
 4064TIP3   OH212155   6.424   3.650   3.284 -0.1537  0.1585  0.0907
 4064TIP3    H112156   6.362   3.722   3.296  0.8994  1.3596 -1.4006
 4064TIP3    H212157   6.428   3.637   3.190  0.5471 -1.1062  0.2708
 4065TIP3   OH212158   5.073   6.069   0.359 -0.2841  0.4177 -0.3337
 4065TIP3    H112159   5.059   6.156   0.323  1.1903  1.1968  0.8878
 4065TIP3    H212160   4.985   6.037   0.381 -0.7997  1.8061 -0.2952
 4066TIP3   OH212161   1.085   3.031   1.038  0.1558  0.0935  0.3007
 4066TIP3    H112162   1.152   3.033   0.969  0.3820 -0.6946  0.4823
 4066TIP3    H212163   1.109   2.955   1.092 -1.0053 -0.3179  0.2552
 4067TIP3   OH212164   3.629   3.206   5.767 -0.4220 -0.0696  0.1616
 4067TIP3    H112165   3.723   3.209   5.785 -0.5137  0.1271  0.6205
 4067TIP3    H212166   3.611   3.288   5.721 -0.1278 -0.7203 -1.1663
 4068TIP3   OH212167   3.492   2.416   3.368  0.3284  0.0926 -0.0810
 4068TIP3    H112168   3.563   2.353   3.358 -0.1778 -0.3343 -1.1628
 4068TIP3    H212169   3.431   2.374   3.428  0.2451 -0.2213 -0.3842
 4069TIP3   OH212170   0.509   3.091   3.241 -0.4179 -0.2107 -0.3425
 4069TIP3    H112171   0.419   3.123   3.240 -0.3752 -0.0455  0.7110
 4069TIP3    H212172   0.500   2.997   3.256 -0.4047 -0.1152  0.2996
 4070TIP3   OH212173   6.187   1.491   4.976  0.6366 -0.1721  0.3741
 4070TIP3    H112174   6.246   1.525   4.909 -1.4973 -0.4113 -1.7695
 4070TIP3    H212175   6.213   1.400   4.987  0.7928 -0.2297 -0.3990
 4071TIP3   OH212176   6.201   2.361   5.589 -0.1769 -0.1092  0.4599
 4071TIP3    H112177   6.259   2.287   5.573 -1.8931 -1.2755 -0.7002
 4071TIP3    H212178   6.131   2.325   5.645 -0.9130  0.6849  0.0649
 4072TIP3   OH212179   3.256   1.676   4.657 -0.2149  0.5197 -0.0634
 4072TIP3    H112180   3.210   1.751   4.620 -1.1442  0.5620  1.1094
 4072TIP3    H212181   3.315   1.647   4.588 -0.4085  1.8457 -0.8082
 4073TIP3   OH212182   0.804   6.302   2.335 -0.6002  0.1432 -0.6476
 4073TIP3    H112183   0.884   6.251   2.346  0.1840  1.7044  1.5593
 4073TIP3    H212184   0.773   6.318   2.424 -0.7300  3.4816 -1.1519
 4074TIP3   OH212185   0.819   4.957   2.392 -0.3497 -0.2932  0.0642
 4074TIP3    H112186   0.800   4.930   2.302  0.1919 -0.6313  0.0413
 4074TIP3    H212187   0.772   4.894   2.447  1.8757 -2.1257  0.0200
 4075TIP3   OH212188   1.067   2.739   4.912  0.0672 -0.6320 -0.2105
 4075TIP3    H112189   1.092   2.742   5.004 -0.7317 -0.5153  0.0132
 4075TIP3    H212190   1.136   2.689   4.869  1.8341  1.4793 -0.0160
 4076TIP3   OH212191   2.571   6.708   4.577 -0.4358  0.3165 -0.0385
 4076TIP3    H112192   2.603   6.665   4.498 -0.5198 -1.8405  1.0150
 4076TIP3    H212193   2.488   6.747   4.551  0.0497  0.6002 -1.2581
 4077TIP3   OH212194   4.933   5.259   1.523 -0.5451 -0.4266 -0.0323
 4077TIP3    H112195   4.890   5.181   1.557 -0.9469 -0.6784 -1.0869
 4077TIP3    H212196   4.899   5.331   1.577 -2.1034 -0.6506 -0.6770
 4078TIP3   OH212197   5.640   6.626   0.426 -0.3197 -0.0379 -0.0323
 4078TIP3    H112198   5.609   6.537   0.410 -0.1378  0.1408 -1.4744
 4078TIP3    H212199   5.572   6.682   0.388  0.5758  0.3932 -1.0451
 4079TIP3   OH212200   4.981   5.010   1.154 -0.3862  0.2079 -0.1243
 4079TIP3    H112201   5.054   4.955   1.124 -0.9524 -1.3811  1.2371
 4079TIP3    H212202   4.947   4.964   1.231 -2.1769  1.4513 -0.1173
 4080TIP3   OH212203   4.438   2.176   0.489 -0.9410  0.2014 -0.1572
 4080TIP3    H112204   4.458   2.198   0.580 -1.1205  0.0909 -0.0901
 4080TIP3    H212205   4.366   2.235   0.466 -2.5587 -1.4031  0.5479
 4081TIP3   OH212206   6.299   4.195   5.002  0.3193  0.0096 -0.1444
 4081TIP3    H112207   6.269   4.117   5.049  0.8646 -0.8012 -1.1019
 4081TIP3    H212208   6.220   4.245   4.984  0.0032 -0.1367  0.7972
 4082TIP3   OH212209   6.281   6.603   4.063  0.0910  0.4172 -0.2025
 4082TIP3    H112210   6.347   6.575   4.126  1.4754  0.0556 -1.7454
 4082TIP3    H212211   6.328   6.659   4.001 -0.8832 -0.3307 -1.6871
 4083TIP3   OH212212   6.398   3.865   0.671  0.1988 -0.0499  0.2317
 4083TIP3    H112213   6.433   3.884   0.584  0.8110  2.7481  0.9981
 4083TIP3    H212214   6.342   3.788   0.658  0.0319  0.4615 -2.6779
 4084TIP3   OH212215   7.126   1.346   5.552 -0.2106  0.4109  0.3903
 4084TIP3    H112216   7.062   1.414   5.577  0.3087  0.9888  0.1672
 4084TIP3    H212217   7.119   1.281   5.622 -0.5790  0.7871  0.7132
 4085TIP3   OH212218   4.551   0.329   3.392  0.6824 -0.1682  0.3054
 4085TIP3    H112219   4.617   0.269   3.358  0.2539 -0.9774  0.8782
 4085TIP3    H212220   4.497   0.352   3.316  1.5530  0.4331 -0.1494
 4086TIP3   OH212221   0.711   1.784   4.742 -0.5300  0.2468 -0.2725
 4086TIP3    H112222   0.766   1.762   4.817 -2.0905 -1.2974  0.4940
 4086TIP3    H212223   0.710   1.879   4.739  1.4180  0.3155  0.2221
 4087TIP3   OH212224   3.676   4.919   3.493  0.6762  0.3933  0.8929
 4087TIP3    H112225   3.663   5.013   3.499 -3.4667  0.1918 -1.4014
 4087TIP3    H212226   3.714   4.905   3.406 -1.9246 -0.0700 -0.2776
 4088TIP3   OH212227   6.963   5.558   1.475  0.7242 -0.0890  0.3470
 4088TIP3    H112228   6.958   5.650   1.501  0.3584  0.6439 -2.0535
 4088TIP3    H212229   6.873   5.536   1.449  1.2413 -0.3141 -1.4252
 4089TIP3   OH212230   0.657   5.477   0.331 -0.2423 -0.2870 -0.0288
 4089TIP3    H112231   0.629   5.553   0.279 -2.2198 -1.7530 -1.2425
 4089TIP3    H212232   0.709   5.515   0.402 -1.0312  2.1924 -0.6628
 4090TIP3   OH212233   2.339   3.136   0.404 -0.2208  0.2196 -0.1489
 4090TIP3    H112234   2.354   3.161   0.313 -0.6279  0.9389 -0.0272
 4090TIP3    H212235   2.276   3.064   0.399 -1.6800  1.4771 -0.3694
 4091TIP3   OH212236   5.226   2.767   1.833  0.2757 -0.3909 -0.0151
 4091TIP3    H112237   5.143   2.813   1.825  0.5007  0.0576  0.1766
 4091TIP3    H212238   5.202   2.675   1.845 -0.2131 -0.1866  0.6149
 4092TIP3   OH212239   6.011   0.594   0.866  0.2294  0.4240  0.0364
 4092TIP3    H112240   6.009   0.625   0.956 -2.5262 -0.2383  0.2792
 4092TIP3    H212241   5.944   0.647   0.821 -0.2313 -0.9669 -0.9779
 4093TIP3   OH212242   3.525   4.539   1.381 -0.3258  0.4011  0.1831
 4093TIP3    H112243   3.516   4.459   1.329  0.4173  0.5594 -0.2052
 4093TIP3    H212244   3.452   4.594   1.354  0.7611  1.0232 -1.6936
 4094TIP3   OH212245   6.965   1.693   0.372 -0.3571 -0.1162 -0.6718
 4094TIP3    H112246   6.911   1.638   0.316  0.0889 -0.2467 -0.9757
 4094TIP3    H212247   7.021   1.742   0.312  0.5748 -0.7227 -0.3240
 4095TIP3   OH212248   5.622   1.505   1.147 -0.3933  0.0005 -0.4006
 4095TIP3    H112249   5.717   1.519   1.150 -0.5595  1.0588  1.5822
 4095TIP3    H212250   5.595   1.540   1.062  0.8726  0.5783 -0.5847
 4096TIP3   OH212251   1.774   0.077   1.483  0.0278 -0.1670 -0.3036
 4096TIP3    H112252   1.718   0.154   1.491 -1.1240 -0.9166 -0.7647
 4096TIP3    H212253   1.843   0.103   1.423 -0.6482  0.3591 -0.8769
 4097TIP3   OH212254   1.113   1.306   5.772 -0.3898  0.2020 -0.3518
 4097TIP3    H112255   1.123   1.380   5.712  0.4838 -0.3335 -0.8983
 4097TIP3    H212256   1.056   1.245   5.726 -0.0993 -0.0035 -0.4442
 4098TIP3   OH212257   0.240   0.215   0.327 -0.1595  0.1022 -0.6591
 4098TIP3    H112258   0.229   0.262   0.409  0.6239  0.5839 -0.8215
 4098TIP3    H212259   0.247   0.123   0.353 -1.4739  0.0684 -0.3238
 4099TIP3   OH212260   0.529   0.760   1.982 -0.2938 -0.3415  0.0263
 4099TIP3    H112261   0.605   0.710   2.014  0.4534  0.4852 -0.4097
 4099TIP3    H212262   0.565   0.817   1.914 -1.3147  0.0653 -0.1863
 4100TIP3   OH212263   0.354   6.545   0.933  0.1548  0.1197 -0.2303
 4100TIP3    H112264   0.294   6.569   0.863  0.7407  2.3591 -0.0548
 4100TIP3    H212265   0.435   6.591   0.912  0.3684  0.8408  1.8673
 4101TIP3   OH212266   2.546   2.598   0.532  0.3991  0.2001  0.0801
 4101TIP3    H112267   2.593   2.525   0.492  0.5594 -0.0929  0.7973
 4101TIP3    H212268   2.607   2.672   0.526  0.0491  0.4214 -1.0931
 4102TIP3   OH212269   4.535   0.115   2.958 -0.1842 -1.0285  0.0870
 4102TIP3    H112270   4.545   0.022   2.939  0.2553 -0.7786 -1.0211
 4102TIP3    H212271   4.615   0.139   3.005  1.1335 -0.6321 -2.1812
 4103TIP3   OH212272   1.582   1.727   1.926  0.4184 -0.0800 -0.4871
 4103TIP3    H112273   1.490   1.702   1.913 -0.0144  1.3490 -0.3847
 4103TIP3    H212274   1.593   1.805   1.870  0.9339  1.0797  1.1449
 4104TIP3   OH212275   6.060   5.133   5.905 -0.3283  0.1625  0.1772
 4104TIP3    H112276   6.132   5.140   5.842 -0.0379  0.8319  0.5590
 4104TIP3    H212277   5.990   5.186   5.868 -0.7396 -0.7104 -0.3268
 4105TIP3   OH212278   4.869   0.117   1.970 -0.6221  0.1285  0.2078
 4105TIP3    H112279   4.931   0.095   1.900 -0.4443 -1.6130  0.8767
 4105TIP3    H212280   4.905   0.075   2.048 -3.2640 -2.1211  0.3657
 4106TIP3   OH212281   1.345   6.089   3.453 -0.1558  1.1610 -0.0065
 4106TIP3    H112282   1.439   6.072   3.460 -0.1038  1.8356  1.3430
 4106TIP3    H212283   1.306   6.035   3.522 -0.8840  0.1740 -1.1491
 4107TIP3   OH212284   3.197   0.770   2.269  0.5809 -0.4339 -0.1124
 4107TIP3    H112285   3.208   0.805   2.181 -1.1209  2.1399  0.5770
 4107TIP3    H212286   3.113   0.723   2.267  1.0983 -1.3849 -0.1167
 4108TIP3   OH212287   5.303   2.285   5.042 -0.2820 -0.7164  0.5253
 4108TIP3    H112288   5.360   2.341   4.990 -0.8484 -0.8624 -0.2705
 4108TIP3    H212289   5.295   2.330   5.126  0.9131 -0.6449  0.6125
 4109TIP3   OH212290   2.444   5.447   2.748 -0.7967  0.3275 -0.4037
 4109TIP3    H112291   2.520   5.391   2.760  0.4618  1.7956 -1.1709
 4109TIP3    H212292   2.369   5.390   2.766  0.4910 -0.8226  1.6544
 4110TIP3   OH212293   4.152   3.328   1.267 -0.4013 -0.9323  0.2652
 4110TIP3    H112294   4.186   3.246   1.231 -0.8362 -0.4107 -1.4440
 4110TIP3    H212295   4.080   3.301   1.324  0.1953 -1.7898  0.6350
 4111TIP3   OH212296   2.858   3.648   5.800 -0.2293  0.0152  0.4268
 4111TIP3    H112297   2.804   3.697   5.862 -1.6601 -1.1032  0.1155
 4111TIP3    H212298   2.841   3.690   5.715 -1.2693 -0.8242  0.1992
 4112TIP3   OH212299   7.234   0.540   4.705  0.1946 -0.1168 -0.0382
 4112TIP3    H112300   7.220   0.566   4.614  2.4979  0.9573 -0.1726
 4112TIP3    H212301   7.148   0.516   4.737 -1.1100  1.8753 -1.7896
 4113TIP3   OH212302   3.269   4.794   2.610 -0.1853  0.5250 -0.2993
 4113TIP3    H112303   3.272   4.783   2.705  0.3605  0.2783 -0.3363
 4113TIP3    H212304   3.244   4.885   2.597  1.0815  0.9580  0.1084
 4114TIP3   OH212305   4.519   6.798   1.698 -0.2092  0.1568  0.0055
 4114TIP3    H112306   4.576   6.721   1.696 -1.6109 -0.9446  0.3846
 4114TIP3    H212307   4.486   6.806   1.609  1.0652  1.2416 -0.3953
 4115TIP3   OH212308   2.915   4.074   2.509 -0.1349  0.0638 -0.1385
 4115TIP3    H112309   2.864   4.005   2.467 -0.4604  0.2616 -0.0717
 4115TIP3    H212310   2.880   4.080   2.598  1.6790 -1.5215  0.7506
 4116TIP3   OH212311   1.809   1.584   3.175  0.1576 -0.1189 -0.1040
 4116TIP3    H112312   1.768   1.612   3.257 -0.4507 -0.6080 -0.2397
 4116TIP3    H212313   1.804   1.489   3.176  1.0306 -0.1753 -0.2639
 4117TIP3   OH212314   1.784   4.819   1.128 -0.0508  0.0848  0.3980
 4117TIP3    H112315   1.820   4.830   1.216  1.3963  0.1740 -0.1743
 4117TIP3    H212316   1.748   4.730   1.128  0.3137 -0.0712  0.9421
 4118TIP3   OH212317   2.331   2.622   0.973 -0.0263 -0.5739 -0.0111
 4118TIP3    H112318   2.251   2.599   1.020  0.9848 -0.5232  1.8484
 4118TIP3    H212319   2.358   2.541   0.930 -1.1588 -0.5383 -0.8367
 4119TIP3   OH212320   6.917   5.219   2.667  0.5146 -0.1224 -0.1549
 4119TIP3    H112321   6.859   5.245   2.739  0.2359 -1.2268  0.0301
 4119TIP3    H212322   7.005   5.218   2.706  0.2708 -1.5121  0.4090
 4120TIP3   OH212323   6.526   3.400   4.361  0.2976 -0.8451  0.6058
 4120TIP3    H112324   6.457   3.429   4.301 -0.0225 -0.2218  1.2548
 4120TIP3    H212325   6.482   3.336   4.418  0.2424 -0.4306  1.0348
 4121TIP3   OH212326   1.420   4.070   1.419  0.5161  0.1876 -0.4044
 4121TIP3    H112327   1.336   4.073   1.464  0.5613 -0.0207 -0.3037
 4121TIP3    H212328   1.398   4.045   1.330  0.4977 -0.1800 -0.3008
 4122TIP3   OH212329   7.184   6.611   3.887  0.1218 -0.2591 -0.2695
 4122TIP3    H112330   7.108   6.621   3.945 -1.0027  1.4928 -1.8911
 4122TIP3    H212331   7.146   6.610   3.799  2.0274  2.4570 -1.2502
 4123TIP3   OH212332   3.384   6.368   1.741 -0.1754  0.1700 -0.4543
 4123TIP3    H112333   3.476   6.390   1.756  0.1821 -0.7711 -1.2369
 4123TIP3    H212334   3.382   6.329   1.654 -1.2523 -0.1877 -0.2799
 4124TIP3   OH212335   5.613   5.099   1.814  0.3173 -0.2110  0.2252
 4124TIP3    H112336   5.535   5.110   1.760 -0.4266 -0.1628  1.2712
 4124TIP3    H212337   5.647   5.187   1.827  0.6175 -0.2406 -0.3085
 4125TIP3   OH212338   6.120   3.556   5.732  0.3223  0.1823  0.0310
 4125TIP3    H112339   6.111   3.461   5.737 -0.4506  0.2551  0.1662
 4125TIP3    H212340   6.106   3.577   5.639  0.2922  0.1864  0.0365
 4126TIP3   OH212341   3.873   1.196   1.543 -0.4219  0.2029  0.0106
 4126TIP3    H112342   3.782   1.171   1.523 -0.3820  0.4770 -0.5333
 4126TIP3    H212343   3.864   1.267   1.607 -0.6978  1.8347 -1.7280
 4127TIP3   OH212344   0.993   2.281   4.617 -0.3186 -0.1173  0.1483
 4127TIP3    H112345   0.938   2.264   4.541 -2.0646 -1.4747  1.6322
 4127TIP3    H212346   0.994   2.377   4.625  0.0533  0.0583 -1.6417
 4128TIP3   OH212347   3.255   3.801   1.878  0.4100  0.1172  0.7351
 4128TIP3    H112348   3.289   3.884   1.910  0.4134  0.4219 -0.0232
 4128TIP3    H212349   3.268   3.805   1.783  1.5932 -1.2869  0.7962
 4129TIP3   OH212350   4.566   2.359   3.273 -0.3194  0.2576 -0.0818
 4129TIP3    H112351   4.622   2.287   3.303  0.6417  0.1455 -2.0138
 4129TIP3    H212352   4.502   2.317   3.216 -1.4327  0.6020  0.8866
 4130TIP3   OH212353   0.771   4.962   3.859  0.1190  0.6367 -0.0828
 4130TIP3    H112354   0.845   4.921   3.813  0.2769  0.6694  0.1447
 4130TIP3    H212355   0.811   5.026   3.917 -0.2007  2.3100 -1.6114
 4131TIP3   OH212356   7.135   3.458   0.865  0.4685  0.1040  0.9903
 4131TIP3    H112357   7.079   3.381   0.853 -1.1498  1.1027  1.7315
 4131TIP3    H212358   7.104   3.520   0.798  1.3586  0.3306  0.7793
 4132TIP3   OH212359   0.911  -0.000   5.818 -0.5774  0.5925 -0.5892
 4132TIP3    H112360   0.887   0.093   5.823  1.0383  0.9859  0.5098
 4132TIP3    H212361   0.828  -0.047   5.832 -1.0301  1.8796  1.5175
 4133TIP3   OH212362   0.651   6.265   3.048  0.3297 -0.3122 -0.1735
 4133TIP3    H112363   0.654   6.356   3.020 -2.0270  0.1841  0.9651
 4133TIP3    H212364   0.629   6.269   3.141  1.4421 -2.0341  0.2068
 4134TIP3   OH212365   4.326   6.140   4.528 -0.2651  0.4581  0.3370
 4134TIP3    H112366   4.404   6.171   4.484 -0.9278 -1.5397 -2.5446
 4134TIP3    H212367   4.346   6.049   4.552 -1.3935  0.1917  0.3280
 4135TIP3   OH212368   3.338   1.359   1.083  0.3850 -0.0151 -0.1677
 4135TIP3    H112369   3.425   1.397   1.099  0.4161 -0.6165  1.3457
 4135TIP3    H212370   3.350   1.265   1.103 -0.6790 -0.0336  0.4411
 4136TIP3   OH212371   4.879   1.539   5.570  0.1518  0.4301 -0.4171
 4136TIP3    H112372   4.845   1.625   5.548  0.1004  0.7156  0.7069
 4136TIP3    H212373   4.905   1.546   5.662 -1.0382 -1.1107  0.0851
 4137TIP3   OH212374   1.345   3.195   2.792 -0.5039  0.3761  0.0211
 4137TIP3    H112375   1.320   3.102   2.796  0.7649 -0.0657 -1.2948
 4137TIP3    H212376   1.356   3.212   2.698  1.5749  1.1875  0.3607
 4138TIP3   OH212377   0.619   3.173   2.984 -0.1207  0.0734 -0.9030
 4138TIP3    H112378   0.706   3.143   2.957 -0.4408  0.4192 -2.4249
 4138TIP3    H212379   0.608   3.139   3.073  0.3970 -2.4503 -1.7450
 4139TIP3   OH212380   1.429   5.866   2.215 -0.1366  0.2946  0.2280
 4139TIP3    H112381   1.421   5.778   2.251  1.3967  0.9458  2.3523
 4139TIP3    H212382   1.423   5.924   2.291  1.7558  1.8508 -0.7109
 4140TIP3   OH212383   4.461   3.091   2.808 -1.1928 -0.6203  0.1624
 4140TIP3    H112384   4.542   3.041   2.801 -0.4268  0.4072  1.3192
 4140TIP3    H212385   4.396   3.036   2.764  0.2751 -1.0592 -1.5986
 4141TIP3   OH212386   6.183   4.801   1.932 -0.1744 -0.0509  0.0017
 4141TIP3    H112387   6.128   4.879   1.928 -1.5743 -1.0556 -1.0919
 4141TIP3    H212388   6.184   4.767   1.843  2.2512 -0.0917 -0.0185
 4142TIP3   OH212389   0.091   4.861   4.344  0.7624  1.2176  0.4859
 4142TIP3    H112390   0.057   4.838   4.431 -0.1153 -1.8179 -0.5219
 4142TIP3    H212391   0.018   4.908   4.303 -1.0961 -2.0191 -0.3414
 4143TIP3   OH212392   2.370   5.766   3.046 -0.9299 -0.2249 -0.4225
 4143TIP3    H112393   2.315   5.759   3.123  0.9441  0.3728  1.0506
 4143TIP3    H212394   2.345   5.849   3.006 -0.0736  0.8199  1.1158
 4144TIP3   OH212395   2.016   3.804   3.141 -0.0404 -0.0827  1.0065
 4144TIP3    H112396   2.001   3.893   3.111  2.8437  0.0643 -0.3636
 4144TIP3    H212397   2.085   3.811   3.207  2.2695 -1.3695 -1.0591
 4145TIP3   OH212398   4.850   0.837   1.480  0.8977 -0.5404 -0.8583
 4145TIP3    H112399   4.831   0.799   1.566 -1.8247 -1.0119 -1.5578
 4145TIP3    H212400   4.848   0.931   1.494  1.5522 -0.6129 -0.2235
 4146TIP3   OH212401   2.604   0.804   0.322  0.5499  0.3075  0.1502
 4146TIP3    H112402   2.536   0.833   0.382  0.4596  2.5405 -0.8915
 4146TIP3    H212403   2.564   0.733   0.271 -0.0808 -0.1495  1.2643
 4147TIP3   OH212404   1.491   0.214   2.136 -0.4263 -0.1863 -0.0826
 4147TIP3    H112405   1.572   0.199   2.088  0.5199  1.4614  0.9329
 4147TIP3    H212406   1.473   0.307   2.125 -0.7310  0.0292  1.8695
 4148TIP3   OH212407   5.074   5.992   1.229 -0.0857  0.1648  0.0606
 4148TIP3    H112408   5.150   6.029   1.273 -0.6442  0.6873  0.6259
 4148TIP3    H212409   5.109   5.927   1.168  0.7904  0.3163  0.3968
 4149TIP3   OH212410   3.456   5.805   5.581  0.0905  0.1564 -0.2855
 4149TIP3    H112411   3.463   5.767   5.668 -0.8034 -2.0427 -1.0957
 4149TIP3    H212412   3.364   5.831   5.574 -0.1222 -0.7495 -0.9644
 4150TIP3   OH212413   1.762   1.051   4.631 -0.6274 -0.0372 -0.0728
 4150TIP3    H112414   1.790   1.122   4.689  0.4003 -0.7310  0.2929
 4150TIP3    H212415   1.775   0.971   4.681  0.4360 -0.6693 -1.3059
 4151TIP3   OH212416   1.958   5.400   1.411 -0.3429  0.1099 -0.0418
 4151TIP3    H112417   1.992   5.485   1.439 -1.3329 -0.4237  3.1666
 4151TIP3    H212418   2.035   5.353   1.380  0.4735  1.5888 -0.3940
 4152TIP3   OH212419   2.725   6.518   3.040 -0.1512  0.1056 -0.0098
 4152TIP3    H112420   2.726   6.436   2.992  0.8304  0.1098 -0.0181
 4152TIP3    H212421   2.723   6.492   3.132 -2.4465  0.0958  0.0059
 4153TIP3   OH212422   0.973   1.751   3.316 -0.3517  0.4107  0.1306
 4153TIP3    H112423   0.894   1.724   3.268 -0.1331 -0.3872  0.1971
 4153TIP3    H212424   1.017   1.812   3.257 -1.3836  1.4471  0.3992
 4154TIP3   OH212425   6.363   2.522   0.277 -0.0280  0.2268 -0.2820
 4154TIP3    H112426   6.417   2.547   0.352  0.0093 -0.6715  0.0056
 4154TIP3    H212427   6.321   2.441   0.305 -0.3390  0.1119 -1.0790
 4155TIP3   OH212428   0.285   2.420   2.696  0.4599  0.5389  0.2655
 4155TIP3    H112429   0.337   2.385   2.624 -3.2705 -1.2113 -1.8700
 4155TIP3    H212430   0.261   2.508   2.667 -1.0200 -0.1558 -0.7619
 4156TIP3   OH212431   5.745   2.413   3.002  0.1233  0.1109 -0.1612
 4156TIP3    H112432   5.740   2.490   3.058 -0.9205 -1.1228  1.5238
 4156TIP3    H212433   5.654   2.381   2.997  0.7413 -1.8831  0.4859
 4157TIP3   OH212434   3.622   5.486   2.611 -0.3964  0.1536 -0.4553
 4157TIP3    H112435   3.682   5.561   2.614  0.8055 -0.8252  1.7383
 4157TIP3    H212436   3.557   5.512   2.545  1.9372  1.5934 -2.4115
 4158TIP3   OH212437   0.641   3.795   4.969 -0.8234 -0.3555  0.3371
 4158TIP3    H112438   0.649   3.704   4.996  0.7466  0.2676  2.1069
 4158TIP3    H212439   0.722   3.813   4.921 -0.3559  0.5497  1.4338
 4159TIP3   OH212440   0.642   2.038   4.085  0.9090  0.3097  0.0092
 4159TIP3    H112441   0.597   2.113   4.124 -0.7187 -0.0523 -1.0613
 4159TIP3    H212442   0.607   1.962   4.131 -0.2803 -0.0415 -1.4151
 4160TIP3   OH212443   3.322   4.663   1.793  0.0419 -0.4486  0.0098
 4160TIP3    H112444   3.250   4.628   1.742 -2.1465  0.9640  1.9186
 4160TIP3    H212445   3.333   4.601   1.865  0.3399 -0.3396  0.0624
 4161TIP3   OH212446   0.898   2.684   3.303  0.4753  0.3052  0.2669
 4161TIP3    H112447   0.846   2.652   3.376  0.2930  0.2430  0.1118
 4161TIP3    H212448   0.877   2.777   3.297 -0.8405 -0.0301 -0.7859
 4162TIP3   OH212449   1.398   5.038   4.369  0.3336  0.0253  0.4395
 4162TIP3    H112450   1.387   5.004   4.458 -0.1228 -0.9487  0.0265
 4162TIP3    H212451   1.491   5.027   4.351 -0.1658 -3.9562 -0.7576
 4163TIP3   OH212452   5.415   5.256   4.636 -0.0861 -0.5724  0.0091
 4163TIP3    H112453   5.407   5.169   4.675  0.4320 -0.5288  0.2216
 4163TIP3    H212454   5.328   5.276   4.604 -0.7400 -0.2799  1.8591
 4164TIP3   OH212455   0.316   1.426   0.954  0.0303  0.3091  0.0573
 4164TIP3    H112456   0.292   1.472   0.874  0.2164 -2.4121 -1.6742
 4164TIP3    H212457   0.412   1.421   0.951  0.0616  0.5011  0.6466
 4165TIP3   OH212458   0.846   2.039   5.055  0.2607 -0.0225 -0.1669
 4165TIP3    H112459   0.894   2.083   4.984  0.6277 -0.5825 -0.2719
 4165TIP3    H212460   0.760   2.021   5.018 -1.0513  3.3275  0.8374
 4166TIP3   OH212461   2.696   2.920   1.212  0.2758  0.0310  0.1274
 4166TIP3    H112462   2.660   2.979   1.146 -1.3304  0.3652  1.2329
 4166TIP3    H212463   2.736   2.849   1.161 -1.2573  0.0658 -1.2149
 4167TIP3   OH212464   3.954   0.671   3.179  0.1467  0.2460 -0.7681
 4167TIP3    H112465   3.886   0.604   3.186  1.5064 -1.1062  0.1440
 4167TIP3    H212466   3.913   0.750   3.215 -1.1193 -0.3733 -0.7917
 4168TIP3   OH212467   3.618   3.552   5.400  0.0963 -0.1511  0.0944
 4168TIP3    H112468   3.532   3.550   5.358 -0.3866  0.1354  1.0391
 4168TIP3    H212469   3.669   3.486   5.353 -1.1079 -1.4338  0.5111
 4169TIP3   OH212470   4.949   1.308   0.877 -0.2196 -0.6176 -0.4152
 4169TIP3    H112471   4.912   1.308   0.788  0.5760  0.4570 -0.7688
 4169TIP3    H212472   4.905   1.380   0.921 -0.1891 -0.7857 -0.1069
 4170TIP3   OH212473   5.920   0.394   0.318 -0.1655 -0.1573 -0.5187
 4170TIP3    H112474   5.864   0.339   0.263  2.5200 -1.5289 -2.1318
 4170TIP3    H212475   6.004   0.347   0.321  0.6833  1.3125  2.4775
 4171TIP3   OH212476   3.086   5.682   4.570  0.1480  0.7249 -0.0531
 4171TIP3    H112477   3.027   5.630   4.515  1.2664 -1.1288  0.4204
 4171TIP3    H212478   3.042   5.767   4.578 -1.4660  0.0734 -1.3491
 4172TIP3   OH212479   6.858   6.463   2.167  0.1538  0.4432 -0.6792
 4172TIP3    H112480   6.800   6.388   2.155  1.8855 -0.9892 -0.6419
 4172TIP3    H212481   6.906   6.443   2.248 -0.2253  2.2446  0.0442
 4173TIP3   OH212482   6.508   6.081   3.591  0.5102  0.3700  0.1932
 4173TIP3    H112483   6.557   6.036   3.522 -0.8368  1.7469 -1.7629
 4173TIP3    H212484   6.541   6.171   3.589  0.1509  0.5299  1.0899
 4174TIP3   OH212485   6.391   6.190   1.092  0.2917 -0.3732 -0.2292
 4174TIP3    H112486   6.315   6.176   1.035  0.6135 -0.6146 -0.6037
 4174TIP3    H212487   6.459   6.134   1.055  1.4299  1.6524 -1.3889
 4175TIP3   OH212488   0.277   6.320   0.669 -0.2258  0.6011 -0.0107
 4175TIP3    H112489   0.189   6.358   0.660 -0.9795 -1.2947 -1.0327
 4175TIP3    H212490   0.282   6.294   0.761 -1.7347 -1.5224 -0.4782
 4176TIP3   OH212491   4.027   3.123   4.853  0.1396  0.0868  0.0412
 4176TIP3    H112492   4.035   3.188   4.783 -0.9512  1.2858  0.9683
 4176TIP3    H212493   3.935   3.095   4.849  0.0514  0.2059  0.9957
 4177TIP3   OH212494   1.215   5.334   1.097  0.1461 -0.0347  0.5861
 4177TIP3    H112495   1.287   5.383   1.137  0.0892  0.1559  0.4599
 4177TIP3    H212496   1.258   5.263   1.049  0.3115  0.5311 -0.1267
 4178TIP3   OH212497   1.073   4.996   2.273 -0.2601  0.1662 -0.6644
 4178TIP3    H112498   1.080   5.076   2.325 -0.5921  0.4189 -1.0056
 4178TIP3    H212499   1.002   4.947   2.314  0.4019 -0.2772 -0.0301
 4179TIP3   OH212500   4.509   6.034   0.396  0.3236 -0.2799 -0.3812
 4179TIP3    H112501   4.563   6.008   0.470  0.8735  0.2848 -0.5776
 4179TIP3    H212502   4.516   6.129   0.393 -0.1735 -0.2495 -0.7970
 4180TIP3   OH212503   3.337   0.620   0.716  0.3218  0.1606  0.5338
 4180TIP3    H112504   3.420   0.597   0.758  1.1846  1.4726 -0.3888
 4180TIP3    H212505   3.352   0.606   0.623 -0.9811 -0.9432  0.4437
 4181TIP3   OH212506   1.460   3.389   0.906 -0.1673  0.6393 -0.2684
 4181TIP3    H112507   1.366   3.385   0.926 -0.4920 -0.0528 -1.7660
 4181TIP3    H212508   1.464   3.422   0.816  1.1469  2.5370  0.4214
 4182TIP3   OH212509   6.879   4.266   1.388  0.2773 -0.3600 -0.5729
 4182TIP3    H112510   6.784   4.267   1.376  0.1914  0.7111  0.0555
 4182TIP3    H212511   6.895   4.185   1.436 -0.6509  0.5874  1.4719
 4183TIP3   OH212512   3.792   2.010   0.153  0.0440 -0.4168 -0.1370
 4183TIP3    H112513   3.740   1.941   0.113 -0.7614  1.1328 -1.9039
 4183TIP3    H212514   3.882   1.992   0.124  0.0980 -1.5855  0.7175
 4184TIP3   OH212515   3.159   3.513   3.705  0.4024  0.6413  0.8056
 4184TIP3    H112516   3.125   3.517   3.795 -1.1077 -0.4850  0.3409
 4184TIP3    H212517   3.239   3.461   3.712 -0.3496 -0.4956  1.3640
 4185TIP3   OH212518   3.675   0.686   3.375  0.0395  0.2085  0.4599
 4185TIP3    H112519   3.628   0.607   3.349 -2.0473  1.3270  0.6491
 4185TIP3    H212520   3.759   0.654   3.409 -0.1414 -1.7902 -0.8140
 4186TIP3   OH212521   5.701   0.421   1.054 -0.2281  0.1665  0.2148
 4186TIP3    H112522   5.659   0.335   1.056 -1.1622  0.5151 -1.6971
 4186TIP3    H212523   5.786   0.408   1.095 -0.2116 -1.7591 -0.3443
 4187TIP3   OH212524   5.713   5.002   1.482  0.0556 -0.2901 -0.2660
 4187TIP3    H112525   5.792   4.985   1.532 -1.1316 -1.9696  1.1486
 4187TIP3    H212526   5.726   5.090   1.446  2.8165 -0.7460 -0.6583
 4188TIP3   OH212527   1.322   1.310   5.078  0.0733 -0.0417  0.6260
 4188TIP3    H112528   1.391   1.334   5.016  0.8503 -2.4120  0.4999
 4188TIP3    H212529   1.356   1.233   5.124 -1.3464  0.4089  2.5660
 4189TIP3   OH212530   3.723   0.305   4.166  0.1305  0.2087 -0.2687
 4189TIP3    H112531   3.636   0.276   4.136 -0.0395  0.5554 -0.1257
 4189TIP3    H212532   3.710   0.326   4.258  0.3335  0.3911 -0.2816
 4190TIP3   OH212533   1.397   5.981   2.459 -1.0547 -0.7088 -0.1041
 4190TIP3    H112534   1.358   5.979   2.546  0.2873 -0.0309  0.5379
 4190TIP3    H212535   1.450   6.061   2.458  0.0702 -1.4353 -1.0465
 4191TIP3   OH212536   6.893   1.773   5.730 -0.0773 -0.4158 -0.3091
 4191TIP3    H112537   6.846   1.717   5.669 -0.1225 -0.2238 -0.4523
 4191TIP3    H212538   6.964   1.811   5.679 -1.1817  1.1634 -0.7422
 4192TIP3   OH212539   6.832   3.524   2.087 -0.1969 -0.5060 -0.5382
 4192TIP3    H112540   6.845   3.572   2.006  1.5105  2.2776  1.1898
 4192TIP3    H212541   6.891   3.448   2.080 -1.0135 -1.0120 -2.3257
 4193TIP3   OH212542   0.047   6.070   4.937  0.9629  0.2398  0.5351
 4193TIP3    H112543   0.105   6.005   4.896  2.2222  0.0306  2.5366
 4193TIP3    H212544  -0.020   6.017   4.981  0.9093  0.3605  0.5980
 4194TIP3   OH212545   5.901   1.012   5.837  0.0451  0.0208 -0.2050
 4194TIP3    H112546   5.922   1.081   5.775  1.9913  0.6238  1.0404
 4194TIP3    H212547   5.819   1.040   5.877  0.0656  0.8645 -0.7306
 4195TIP3   OH212548   4.395   0.035   5.779  0.6637 -0.2586  0.6108
 4195TIP3    H112549   4.370   0.111   5.831 -0.9091 -0.4294  0.1438
 4195TIP3    H212550   4.380  -0.040   5.837 -1.2889 -0.4648 -0.1013
 4196TIP3   OH212551   5.510   0.523   0.264 -0.7284 -0.0882  0.0782
 4196TIP3    H112552   5.417   0.500   0.265 -0.4329 -1.4302 -0.3981
 4196TIP3    H212553   5.545   0.485   0.345 -0.2937 -1.0931 -0.5561
 4197TIP3   OH212554   3.101   0.961   4.253  0.7743  0.4496  0.1300
 4197TIP3    H112555   3.068   0.928   4.336  1.5887 -0.4077  0.1310
 4197TIP3    H212556   3.066   0.901   4.187 -1.2546  2.0864 -0.3698
 4198TIP3   OH212557   4.746   2.945   5.247 -0.0468 -0.8045  0.2012
 4198TIP3    H112558   4.697   3.028   5.250  1.3152  0.0954 -1.0352
 4198TIP3    H212559   4.752   2.918   5.339 -1.0565  0.1477  0.5710
 4199TIP3   OH212560   1.172   6.013   0.223  0.1903 -0.3348  0.2813
 4199TIP3    H112561   1.163   5.929   0.269 -0.8901  0.0841  0.8883
 4199TIP3    H212562   1.250   6.053   0.263  0.4223 -0.8325  0.3402
 4200TIP3   OH212563   2.364   3.492   3.820  0.2333  0.7071 -0.0591
 4200TIP3    H112564   2.397   3.479   3.909  0.7251  0.3628 -0.2857
 4200TIP3    H212565   2.269   3.501   3.831  0.0949 -0.8879  0.3601
 4201TIP3   OH212566   1.465   2.856   1.441  0.5167  1.2097 -0.0391
 4201TIP3    H112567   1.560   2.850   1.439  0.4755  0.6026 -1.6086
 4201TIP3    H212568   1.444   2.925   1.378 -0.0412  2.3848  1.3790
 4202TIP3   OH212569   0.669   6.502   2.887  0.0863  0.3980  0.0407
 4202TIP3    H112570   0.616   6.452   2.825 -0.8730 -0.9400  1.8131
 4202TIP3    H212571   0.679   6.588   2.847  0.5929 -0.7575 -2.5023
 4203TIP3   OH212572   3.197   4.234   0.441 -0.0318 -0.3443  0.1097
 4203TIP3    H112573   3.149   4.237   0.524  0.1579  0.2330  0.2070
 4203TIP3    H212574   3.133   4.262   0.376  0.3407  1.1219  0.3345
 4204TIP3   OH212575   6.304   5.330   3.548 -0.5438 -0.0324 -0.1554
 4204TIP3    H112576   6.304   5.298   3.458  1.7405  0.1855 -0.2860
 4204TIP3    H212577   6.260   5.415   3.544 -1.3081 -0.4506 -0.8796
 4205TIP3   OH212578   3.390   3.911   4.486  0.1810 -0.3088 -0.0509
 4205TIP3    H112579   3.424   3.888   4.399 -0.8673 -0.6349 -0.3891
 4205TIP3    H212580   3.395   4.006   4.489 -0.5104 -0.2437 -0.7883
 4206TIP3   OH212581   6.381   1.845   3.857 -0.9088 -0.1560 -0.3003
 4206TIP3    H112582   6.446   1.819   3.792 -1.8373  0.1886 -1.3850
 4206TIP3    H212583   6.315   1.776   3.855 -0.3285 -0.8027  1.2126
 4207TIP3   OH212584   0.032   0.891   2.782 -0.1677 -0.0363 -0.3174
 4207TIP3    H112585  -0.059   0.908   2.759 -0.0417  1.7299  0.3632
 4207TIP3    H212586   0.083   0.949   2.725  0.3523  1.0761  1.2064
 4208TIP3   OH212587   4.355   0.388   3.222 -0.2175 -0.0501 -0.0375
 4208TIP3    H112588   4.284   0.447   3.247 -1.5806 -1.4298 -0.5250
 4208TIP3    H212589   4.316   0.328   3.158  2.1850  1.1055 -2.8535
 4209TIP3   OH212590   1.048   3.836   2.065  0.4050 -0.6649  0.1587
 4209TIP3    H112591   0.991   3.864   1.993  0.7579  2.5946  0.9554
 4209TIP3    H212592   0.998   3.857   2.144  0.7523 -2.4779  0.9062
 4210TIP3   OH212593   2.880   4.688   5.734 -0.0734  0.1247 -0.4135
 4210TIP3    H112594   2.950   4.716   5.675  0.7181  0.5847  0.6943
 4210TIP3    H212595   2.887   4.748   5.809  1.0119 -2.2963  1.5975
 4211TIP3   OH212596   1.911   3.034   0.253  0.1594 -0.1625 -0.6236
 4211TIP3    H112597   1.832   3.022   0.201 -0.8366 -0.0992  0.8185
 4211TIP3    H212598   1.906   3.124   0.285  1.9457  0.5881 -2.2664
 4212TIP3   OH212599   0.040   5.893   0.716 -0.3086  0.0811  0.3339
 4212TIP3    H112600  -0.005   5.809   0.713 -1.0824  0.4936 -1.3125
 4212TIP3    H212601  -0.025   5.954   0.752 -0.4682  0.3362 -0.3639
 4213TIP3   OH212602   2.735   5.815   2.255 -0.2731  0.0623 -0.6678
 4213TIP3    H112603   2.730   5.739   2.313 -0.5312  2.0255  2.0378
 4213TIP3    H212604   2.825   5.815   2.224 -0.4120 -1.6224 -1.2220
 4214TIP3   OH212605   1.554   6.300   0.586 -0.1788 -0.0609  0.7629
 4214TIP3    H112606   1.479   6.281   0.643  0.9360 -0.3107  2.1936
 4214TIP3    H212607   1.630   6.295   0.643  0.9092  0.7032 -0.5497
 4215TIP3   OH212608   0.883   1.979   3.725 -0.3035 -0.0421  0.0755
 4215TIP3    H112609   0.880   1.895   3.679  0.3433 -0.5117  0.8628
 4215TIP3    H212610   0.884   2.044   3.655  2.5500 -0.7788 -0.7016
 4216TIP3   OH212611   4.528   6.730   2.183 -0.1957 -0.2019 -0.7376
 4216TIP3    H112612   4.614   6.771   2.178 -0.6634  0.6671 -2.7870
 4216TIP3    H212613   4.476   6.791   2.236  0.0287  0.1043 -0.8668
 4217TIP3   OH212614   2.125   2.729   0.800 -0.0275 -0.4592  0.4464
 4217TIP3    H112615   2.206   2.691   0.834 -0.4861 -0.3148  1.7581
 4217TIP3    H212616   2.068   2.654   0.785 -0.2523 -0.4371  1.1771
 4218TIP3   OH212617   1.026   3.293   5.838  0.2932 -0.4556 -0.1899
 4218TIP3    H112618   1.054   3.203   5.853  0.2994 -0.8609 -2.3315
 4218TIP3    H212619   0.937   3.296   5.873  0.3818 -1.2225  0.1191
 4219TIP3   OH212620   0.849   3.232   0.891 -0.2244  0.0163  0.3682
 4219TIP3    H112621   0.849   3.311   0.945  0.3558 -0.9309  1.8508
 4219TIP3    H212622   0.862   3.161   0.954  1.7852 -1.0778 -1.1662
 4220TIP3   OH212623   0.514   4.351   0.577 -0.0212 -0.0585  0.3603
 4220TIP3    H112624   0.435   4.312   0.538 -0.6193 -0.1322  1.5838
 4220TIP3    H212625   0.575   4.278   0.585 -0.3781 -0.3253  0.7358
 4221TIP3   OH212626   0.838   1.394   0.150  0.1440 -0.3925 -0.2674
 4221TIP3    H112627   0.870   1.373   0.063 -0.3335  0.1628 -0.5867
 4221TIP3    H212628   0.767   1.457   0.135  0.1284 -0.2052  0.5243
 4222TIP3   OH212629   1.620   2.800   5.445 -0.3693  0.0036 -0.2193
 4222TIP3    H112630   1.599   2.711   5.418 -2.1148  0.9692 -2.3262
 4222TIP3    H212631   1.550   2.823   5.506  0.3293 -0.1751  0.6770
 4223TIP3   OH212632   5.023   5.740   2.051 -0.1609  0.1930  0.1175
 4223TIP3    H112633   4.975   5.770   2.129  2.6763 -0.9598  2.4512
 4223TIP3    H212634   5.103   5.793   2.050  0.8772 -1.3314 -0.7360
 4224TIP3   OH212635   2.005   1.109   1.210 -0.2141 -0.2313  0.1847
 4224TIP3    H112636   1.976   1.199   1.224 -0.1019 -0.3161  1.0284
 4224TIP3    H212637   2.019   1.102   1.116 -1.4219  0.2657 -0.0475
 4225TIP3   OH212638   2.609   6.747   0.288  0.0329 -0.2507  0.7077
 4225TIP3    H112639   2.653   6.818   0.242 -1.3348  1.0745  1.3614
 4225TIP3    H212640   2.655   6.668   0.260  1.5329  0.8667 -0.1158
 4226TIP3   OH212641   3.162   5.520   4.162 -0.5992  0.2072 -0.2539
 4226TIP3    H112642   3.212   5.513   4.081  1.2551  1.5128  0.6877
 4226TIP3    H212643   3.106   5.596   4.149 -1.2394 -0.3462 -0.7623
 4227TIP3   OH212644   4.904   5.688   1.821  0.7369 -0.9056  0.0073
 4227TIP3    H112645   4.822   5.665   1.866 -0.4201  0.7290 -1.1748
 4227TIP3    H212646   4.962   5.718   1.892 -0.5633  0.3015  0.5885
 4228TIP3   OH212647   0.767   4.952   5.161 -0.3191  0.4250 -0.0447
 4228TIP3    H112648   0.831   4.940   5.231  0.3092 -1.5378 -0.8789
 4228TIP3    H212649   0.804   5.021   5.106  1.2999 -0.8717 -0.6708
 4229TIP3   OH212650   3.616   6.800   5.437 -0.0638 -0.2319 -0.6223
 4229TIP3    H112651   3.549   6.743   5.400 -0.3942  1.0457 -2.0884
 4229TIP3    H212652   3.654   6.749   5.509  0.3055 -2.6883 -2.4336
 4230TIP3   OH212653   1.930   5.148   0.891  0.3994 -0.5093 -0.3075
 4230TIP3    H112654   1.888   5.230   0.866  1.6291  0.1622 -0.2433
 4230TIP3    H212655   1.955   5.161   0.983 -0.2447 -1.3249 -0.0010
 4231TIP3   OH212656   6.433   1.788   4.394  0.0500 -0.0264 -0.6193
 4231TIP3    H112657   6.475   1.806   4.310 -1.0904 -0.9498 -1.4128
 4231TIP3    H212658   6.361   1.729   4.373 -0.9667  0.6188  0.8507
 4232TIP3   OH212659   1.235   3.081   0.793 -0.2523  0.2351  0.2881
 4232TIP3    H112660   1.213   3.171   0.769 -0.4057  0.1154 -0.0308
 4232TIP3    H212661   1.327   3.072   0.771 -0.0793  0.4917  0.8732
 4233TIP3   OH212662   4.818   3.403   1.420  0.1007  0.2170 -0.1516
 4233TIP3    H112663   4.850   3.405   1.330 -0.2812  1.3119 -0.2746
 4233TIP3    H212664   4.822   3.310   1.444  0.6544 -0.0325 -1.1258
 4234TIP3   OH212665   1.027   1.529   1.471  0.3018 -0.2721  0.3961
 4234TIP3    H112666   1.065   1.616   1.458  1.6849 -0.8345  0.5000
 4234TIP3    H212667   0.950   1.544   1.525 -0.5527  1.0978 -1.1200
 4235TIP3   OH212668   2.840   2.750   2.985  0.1904 -0.6298 -0.1999
 4235TIP3    H112669   2.801   2.676   3.031 -0.7846  0.2253  0.4100
 4235TIP3    H212670   2.771   2.780   2.924  0.1711  0.3737  0.2828
 4236TIP3   OH212671   1.099   5.370   4.633 -0.0789 -0.3258  0.4597
 4236TIP3    H112672   1.096   5.305   4.563 -1.9761 -0.4526  0.5824
 4236TIP3    H212673   1.116   5.453   4.590 -2.7376 -0.1492 -0.4491
 4237TIP3   OH212674   5.667   4.435   5.720 -0.0872 -0.5989 -0.1339
 4237TIP3    H112675   5.584   4.477   5.741  0.2098 -0.4902  0.8715
 4237TIP3    H212676   5.721   4.505   5.684 -0.5740 -0.7673 -1.2188
 4238TIP3   OH212677   4.990   4.418   4.781  0.1542  0.7758 -0.0938
 4238TIP3    H112678   4.979   4.496   4.835 -2.0738  1.6897 -1.7256
 4238TIP3    H212679   4.906   4.409   4.734  0.7846 -1.8892 -0.8766
 4239TIP3   OH212680   1.815   6.426   0.252  0.1358  0.2756  0.2785
 4239TIP3    H112681   1.838   6.519   0.257  0.3254  0.3579 -1.4655
 4239TIP3    H212682   1.891   6.384   0.213 -0.3216 -0.4419  0.1378
 4240TIP3   OH212683   6.982   2.013   5.894 -0.1737  0.1690 -0.1092
 4240TIP3    H112684   7.050   1.986   5.834 -0.1457  1.5426 -0.7221
 4240TIP3    H212685   6.950   2.096   5.860 -1.1152  0.3022  1.0018
 4241TIP3   OH212686   6.345   3.216   3.475  0.2123  0.0801  0.3090
 4241TIP3    H112687   6.303   3.241   3.393  1.7325  3.1790  0.3262
 4241TIP3    H212688   6.418   3.161   3.448  1.0573  1.5489 -0.5724
 4242TIP3   OH212689   2.553   3.445   5.165  0.2178  0.1572  0.3135
 4242TIP3    H112690   2.587   3.446   5.255 -1.9534 -0.7114  1.2006
 4242TIP3    H212691   2.606   3.380   5.120  0.1118 -0.7800  1.4984
 4243TIP3   OH212692   1.464   5.193   5.888  0.8155 -0.2163 -0.1687
 4243TIP3    H112693   1.534   5.258   5.882  1.5350 -0.6477  2.4252
 4243TIP3    H212694   1.384   5.244   5.896  0.9530  0.2904 -1.6910
 4244TIP3   OH212695   1.567   1.856   2.595 -0.1505 -0.1587  0.2475
 4244TIP3    H112696   1.615   1.844   2.513  0.8289 -0.1039  0.7967
 4244TIP3    H212697   1.477   1.830   2.574  0.0772 -0.1242 -0.8451
 4245TIP3   OH212698   6.107   2.831   1.243  0.2455  0.0462 -0.4360
 4245TIP3    H112699   6.189   2.832   1.194  1.0513 -3.4851  0.5606
 4245TIP3    H212700   6.133   2.853   1.333 -0.3956  1.3864 -0.5434
 4246TIP3   OH212701   3.643   6.097   2.562  0.0108  0.0637 -0.1242
 4246TIP3    H112702   3.580   6.052   2.617  0.1441 -0.5309 -0.4527
 4246TIP3    H212703   3.677   6.168   2.617 -0.8448  0.3167  0.0932
 4247TIP3   OH212704   0.579   6.724   0.986  0.1595 -0.1500  0.1637
 4247TIP3    H112705   0.606   6.653   0.928  1.1926  0.1162  0.2847
 4247TIP3    H212706   0.622   6.704   1.070 -0.9404 -0.2869  0.7142
 4248TIP3   OH212707   6.417   5.123   5.399 -0.2848 -0.0418 -0.3044
 4248TIP3    H112708   6.359   5.069   5.454  0.2594 -0.6672 -0.3294
 4248TIP3    H212709   6.430   5.203   5.450  1.3857 -1.1831  1.2094
 4249TIP3   OH212710   5.939   3.194   1.658  0.1243  0.4354  0.2557
 4249TIP3    H112711   5.897   3.116   1.694 -1.5255  0.6108 -1.1715
 4249TIP3    H212712   5.951   3.174   1.565  0.5101  1.5305  0.0490
 4250TIP3   OH212713   1.904   3.774   1.558  0.5750  0.0866 -0.3175
 4250TIP3    H112714   1.944   3.750   1.641  0.0954 -1.5784 -0.5195
 4250TIP3    H212715   1.828   3.827   1.582 -0.0196 -1.0403  0.3810
 4251TIP3   OH212716   6.834   2.406   0.100  0.5620  1.0236 -0.1225
 4251TIP3    H112717   6.765   2.473   0.108  0.4790  0.9419 -0.1583
 4251TIP3    H212718   6.797   2.340   0.042  0.6499  0.9523 -0.0972
 4252TIP3   OH212719   5.117   1.340   4.325 -0.3623 -0.0324 -0.0252
 4252TIP3    H112720   5.096   1.378   4.410 -1.0212  0.4259 -0.3844
 4252TIP3    H212721   5.101   1.246   4.336  0.4826 -0.1155  0.6286
 4253TIP3   OH212722   1.348   2.592   5.101 -0.4063  0.2333  0.0689
 4253TIP3    H112723   1.298   2.584   5.182 -1.0269 -0.3997 -0.3701
 4253TIP3    H212724   1.326   2.514   5.050  0.5634  0.2448 -0.3937
 4254TIP3   OH212725   0.714   5.836   4.875 -0.2853 -0.2769 -0.4290
 4254TIP3    H112726   0.683   5.909   4.821  1.7362 -0.6369 -2.2108
 4254TIP3    H212727   0.720   5.762   4.815  1.8910 -0.7405  0.2604
 4255TIP3   OH212728   6.314   1.638   5.733 -0.1330  0.3575  0.0134
 4255TIP3    H112729   6.292   1.647   5.640 -0.7881  2.3671  0.3031
 4255TIP3    H212730   6.409   1.652   5.736 -0.1728  0.7475 -0.3327
 4256TIP3   OH212731   3.448   4.137   3.754  0.3074  0.2709  0.1369
 4256TIP3    H112732   3.414   4.062   3.705  0.9966 -1.5529  2.2598
 4256TIP3    H212733   3.371   4.184   3.783 -0.2286 -0.5678  0.1237
 4257TIP3   OH212734   0.997   0.718   1.169 -0.1259  0.1857  0.3793
 4257TIP3    H112735   1.068   0.659   1.195  0.7576 -0.5118 -3.1321
 4257TIP3    H212736   1.037   0.805   1.171  0.6000 -0.1055 -0.7167
 4258TIP3   OH212737   7.170   3.950   4.234  0.0927 -0.2233 -0.0785
 4258TIP3    H112738   7.132   3.863   4.227  1.6893 -0.8777 -1.5050
 4258TIP3    H212739   7.210   3.952   4.320  1.2284 -1.4611 -0.5425
 4259TIP3   OH212740   6.235   5.021   3.991  0.6023  0.1206  0.4259
 4259TIP3    H112741   6.296   5.005   3.919 -0.8443  2.7587 -1.5682
 4259TIP3    H212742   6.272   5.096   4.037 -0.3063  0.7318  0.1769
 4260TIP3   OH212743   2.920   3.379   0.008 -0.4544 -0.0832 -0.3617
 4260TIP3    H112744   2.824   3.375   0.015 -0.4699  0.4291 -0.2578
 4260TIP3    H212745   2.950   3.321   0.078 -0.6793  1.1737  0.8167
 4261TIP3   OH212746   6.657   0.511   3.800  0.6319  0.4232 -0.4102
 4261TIP3    H112747   6.625   0.468   3.879 -0.2132  0.6962 -0.5915
 4261TIP3    H212748   6.619   0.599   3.803 -1.1708 -0.2207 -2.1379
 4262TIP3   OH212749   4.965   1.639   4.078  0.1611 -0.1095  0.1060
 4262TIP3    H112750   5.046   1.593   4.102 -0.2686 -0.6472  0.5508
 4262TIP3    H212751   4.939   1.601   3.995 -0.3904 -0.9408  0.6512
 4263TIP3   OH212752   6.129   6.566   4.754 -0.6376 -0.3638  0.2436
 4263TIP3    H112753   6.221   6.570   4.779 -0.6420 -0.3456  0.2553
 4263TIP3    H212754   6.103   6.656   4.737 -0.6413 -0.3727  0.1978
 4264TIP3   OH212755   7.219   3.463   2.619  0.1395  0.2446  0.3578
 4264TIP3    H112756   7.141   3.487   2.569 -0.0071  0.6752  0.7914
 4264TIP3    H212757   7.283   3.437   2.552 -0.8482 -1.5693  0.0503
 4265TIP3   OH212758   0.804   5.729   3.865 -0.3213 -0.2630  0.0643
 4265TIP3    H112759   0.786   5.744   3.957  0.4618 -0.2938  0.2280
 4265TIP3    H212760   0.894   5.698   3.862  0.1383  1.0781 -0.8359
 4266TIP3   OH212761   5.605   4.485   4.836 -0.2649  0.1902 -0.0838
 4266TIP3    H112762   5.612   4.570   4.793 -1.7792  0.6624  0.5515
 4266TIP3    H212763   5.567   4.504   4.921  1.2960 -0.9064  0.9122
 4267TIP3   OH212764   2.216   5.167   3.072 -0.4517 -0.4875 -0.0394
 4267TIP3    H112765   2.152   5.183   3.141  1.3144  0.3120  1.5073
 4267TIP3    H212766   2.301   5.176   3.115  0.7509 -2.3509 -1.8000
 4268TIP3   OH212767   2.735   4.287   4.775  0.4410  0.2441 -0.1058
 4268TIP3    H112768   2.828   4.277   4.759  0.6721  0.6107  0.9194
 4268TIP3    H212769   2.700   4.198   4.770  0.4861  0.2908 -2.3992
 4269TIP3   OH212770   6.370   4.202   1.123  0.9386 -0.0866  0.6561
 4269TIP3    H112771   6.300   4.146   1.090  0.5916  0.1180  1.0306
 4269TIP3    H212772   6.437   4.140   1.154 -0.4888 -0.4403  3.3948
 4270TIP3   OH212773   0.936   2.989   5.745 -0.2806 -0.0381  0.2305
 4270TIP3    H112774   1.010   2.996   5.806 -0.7713 -1.3617  1.0198
 4270TIP3    H212775   0.970   2.938   5.671  0.2342  1.3319 -0.5174
 4271TIP3   OH212776   3.044   2.323   3.815 -0.6315 -0.7226  0.4371
 4271TIP3    H112777   3.119   2.271   3.787  1.5621  2.0288  0.7870
 4271TIP3    H212778   3.047   2.320   3.911 -0.6774 -0.2246  0.4558
 4272TIP3   OH212779   1.150   4.140   1.517  0.0045  0.1954  0.2855
 4272TIP3    H112780   1.092   4.201   1.472  0.1969 -0.1399 -0.4296
 4272TIP3    H212781   1.168   4.182   1.602  0.4422  1.3042 -0.3389
 4273TIP3   OH212782   3.266   4.969   0.740 -0.0174 -0.9985  0.0782
 4273TIP3    H112783   3.232   5.056   0.761  0.3801 -1.4056  2.8922
 4273TIP3    H212784   3.193   4.924   0.698 -0.5807  0.3520 -0.4297
 4274TIP3   OH212785   3.128   6.108   1.210  0.0723  0.4650 -0.3908
 4274TIP3    H112786   3.139   6.199   1.183  3.2756  0.0865 -0.7582
 4274TIP3    H212787   3.136   6.058   1.130  0.2653 -0.2423  0.0642
 4275TIP3   OH212788   4.368   5.388   4.497 -0.4720  0.2225 -0.0615
 4275TIP3    H112789   4.374   5.322   4.429  0.4882  1.3645 -1.1398
 4275TIP3    H212790   4.396   5.469   4.454 -1.1391  1.2384  1.3361
 4276TIP3   OH212791   0.494   1.656   4.878  0.2902 -0.7079 -0.6440
 4276TIP3    H112792   0.541   1.573   4.867  1.3898 -0.1970  0.0312
 4276TIP3    H212793   0.554   1.722   4.843  0.0421 -0.0455  0.1625
 4277TIP3   OH212794   4.300   4.427   3.972 -0.3773  0.0353  0.0456
 4277TIP3    H112795   4.306   4.510   4.020 -0.8930  0.0420  0.1118
 4277TIP3    H212796   4.377   4.426   3.916  0.1245  0.1255  0.7265
 4278TIP3   OH212797   0.279   2.757   5.602  0.1463 -0.4360 -0.4914
 4278TIP3    H112798   0.290   2.665   5.578 -0.4849 -0.3632 -1.1263
 4278TIP3    H212799   0.310   2.806   5.525  2.4366 -0.0343  0.6233
 4279TIP3   OH212800   3.668   5.825   4.332  0.7233  0.6311 -0.0014
 4279TIP3    H112801   3.572   5.833   4.331  0.7516  1.2788  0.9031
 4279TIP3    H212802   3.686   5.764   4.404  0.8858 -1.9571 -2.0992
 4280TIP3   OH212803   3.111   5.683   2.798 -0.1170  0.1628  0.4885
 4280TIP3    H112804   3.130   5.768   2.758  0.5639  1.4285  3.2457
 4280TIP3    H212805   3.016   5.676   2.796 -0.1584  0.7769 -0.1623
 4281TIP3   OH212806   1.738   4.299   1.990  0.3254 -0.6289 -0.4613
 4281TIP3    H112807   1.826   4.335   1.980 -0.1758  0.8745  0.1687
 4281TIP3    H212808   1.732   4.275   2.083 -0.0385 -0.3851 -0.4188
 4282TIP3   OH212809   4.336   2.296   4.275  0.3732 -0.2778 -0.3204
 4282TIP3    H112810   4.381   2.285   4.191 -0.1237 -1.8568 -0.4124
 4282TIP3    H212811   4.392   2.252   4.339  0.1661 -0.1105 -0.0206
 4283TIP3   OH212812   4.607   1.509   4.095 -0.0383 -0.2519  0.3542
 4283TIP3    H112813   4.601   1.581   4.158  1.3277  1.5195 -1.4082
 4283TIP3    H212814   4.668   1.447   4.135 -1.3752 -0.5813  1.9850
 4284TIP3   OH212815   2.254   5.744   2.181 -0.6123  0.4744  0.5514
 4284TIP3    H112816   2.307   5.699   2.115  0.6368  2.3762  0.1615
 4284TIP3    H212817   2.242   5.679   2.251  1.0422 -0.4988  0.0003
 4285TIP3   OH212818   4.562   6.367   5.033 -0.1623  0.1070  0.2105
 4285TIP3    H112819   4.616   6.296   5.067 -0.1275  0.9775  2.1369
 4285TIP3    H212820   4.495   6.380   5.100 -0.7021  1.3014 -0.5206
 4286TIP3   OH212821   2.761   2.948   3.237 -0.2885 -0.0627  0.2204
 4286TIP3    H112822   2.846   2.949   3.280 -0.0403 -0.8962 -0.2258
 4286TIP3    H212823   2.767   2.877   3.172 -1.1818  0.1271 -0.0929
 4287TIP3   OH212824   5.858   5.206   0.299  0.3150  0.0242  0.3661
 4287TIP3    H112825   5.788   5.190   0.363 -0.6810  0.3628 -0.5980
 4287TIP3    H212826   5.894   5.120   0.280 -1.3959 -0.4849 -0.8116
 4288TIP3   OH212827   2.617   4.853   3.921  0.0888  0.3193  0.2037
 4288TIP3    H112828   2.691   4.847   3.983 -1.2116 -0.0834  1.7883
 4288TIP3    H212829   2.545   4.809   3.966 -1.0888  0.5543 -1.3791
 4289TIP3   OH212830   4.475   1.442   3.631 -0.5607 -0.0561 -0.0395
 4289TIP3    H112831   4.529   1.511   3.669 -2.4174  0.3910  2.0565
 4289TIP3    H212832   4.518   1.360   3.655  0.1306  0.3224  0.0110
 4290TIP3   OH212833   1.774   4.886   3.565 -0.7216 -0.1085 -0.2347
 4290TIP3    H112834   1.808   4.880   3.655  0.6462 -1.5493 -0.8005
 4290TIP3    H212835   1.682   4.861   3.572 -0.7448  0.2248  0.8281
 4291TIP3   OH212836   2.923   0.908   3.331 -0.6326  0.2814 -0.0968
 4291TIP3    H112837   2.965   0.990   3.359 -0.4343  0.6329 -1.3728
 4291TIP3    H212838   2.950   0.844   3.397  0.2172  0.9715  0.2478
 4292TIP3   OH212839   4.795   5.441   5.503 -0.1903 -0.4429 -0.4225
 4292TIP3    H112840   4.765   5.431   5.413 -0.9307  0.1059 -0.2462
 4292TIP3    H212841   4.723   5.409   5.557 -0.6721  1.2711  0.0133
 4293TIP3   OH212842   5.844   0.011   2.920 -0.8952 -0.3575  0.3590
 4293TIP3    H112843   5.817  -0.055   2.855  1.6644 -1.0681 -0.0912
 4293TIP3    H212844   5.915   0.059   2.876 -1.2869  1.3094  1.4818
 4294TIP3   OH212845   1.455   6.478   0.991  0.6191 -0.0118 -0.3390
 4294TIP3    H112846   1.439   6.560   1.037  1.0496  0.4458 -0.9846
 4294TIP3    H212847   1.515   6.501   0.919 -0.8835 -0.4739 -1.8150
 4295TIP3   OH212848   5.925   0.173   4.621  0.2768  0.1489 -0.6307
 4295TIP3    H112849   5.894   0.213   4.703  1.0706  2.2966 -1.2967
 4295TIP3    H212850   6.009   0.134   4.645 -0.4134 -1.0072 -0.0088
 4296TIP3   OH212851   3.912   4.517   2.636  0.1983 -0.1011 -0.2010
 4296TIP3    H112852   3.889   4.436   2.591 -0.3642 -0.3105  0.4325
 4296TIP3    H212853   3.924   4.490   2.728 -0.0384  0.5372  0.0217
 4297TIP3   OH212854   0.428   0.506   1.926  0.0806  0.1793 -0.1680
 4297TIP3    H112855   0.436   0.601   1.934 -0.8779  0.2093  0.6514
 4297TIP3    H212856   0.337   0.488   1.951  0.1900 -0.9289 -0.5460
 4298TIP3   OH212857   1.137   4.764   4.485  0.3317 -0.1682 -0.5127
 4298TIP3    H112858   1.114   4.701   4.554 -0.6458  1.1362  0.4051
 4298TIP3    H212859   1.194   4.827   4.528 -1.7578  1.7054 -0.3294
 4299TIP3   OH212860   5.276   4.204   4.799  0.1281  0.5740 -0.6526
 4299TIP3    H112861   5.337   4.187   4.872  1.2338  2.8885 -0.9532
 4299TIP3    H212862   5.330   4.243   4.731 -1.1391 -0.3521 -2.2754
 4300TIP3   OH212863   2.728   6.121   0.233 -0.1719 -0.1192  0.0037
 4300TIP3    H112864   2.817   6.155   0.238  0.3644 -1.4645  0.1151
 4300TIP3    H212865   2.695   6.150   0.148  0.2227  0.7269  0.1332
 4301TIP3   OH212866   4.205   1.756   1.232  0.0734 -0.1305 -0.4509
 4301TIP3    H112867   4.277   1.707   1.191 -1.8053 -1.5402 -2.2899
 4301TIP3    H212868   4.168   1.808   1.161 -2.5947 -1.7865 -0.3991
 4302TIP3   OH212869   6.799   3.967   1.166  0.2312 -0.1455  0.4702
 4302TIP3    H112870   6.711   3.992   1.195 -0.0013  0.4819 -0.6968
 4302TIP3    H212871   6.798   3.984   1.071  1.6975  0.1453  0.4883
 4303TIP3   OH212872   3.765   1.271   5.846  0.1401 -0.1370 -0.5073
 4303TIP3    H112873   3.740   1.277   5.938 -1.1940 -0.0656 -0.8577
 4303TIP3    H212874   3.760   1.178   5.825  1.3528 -0.2642 -0.2759
 4304TIP3   OH212875   4.922   6.677   1.589 -0.3217  0.1430  0.1022
 4304TIP3    H112876   4.852   6.612   1.597 -1.5235  1.4552  0.5009
 4304TIP3    H212877   4.934   6.709   1.678 -0.6770  1.4158 -0.2951
 4305TIP3   OH212878   4.452   1.209   2.104  0.2071  0.3710  0.0715
 4305TIP3    H112879   4.457   1.148   2.029 -0.4838 -0.3907  0.6249
 4305TIP3    H212880   4.515   1.277   2.083  2.0860 -1.2686  0.0892
 4306TIP3   OH212881   6.327   3.368   3.104  0.9154  0.2406 -0.1378
 4306TIP3    H112882   6.281   3.451   3.118 -0.7218 -0.4506 -1.1636
 4306TIP3    H212883   6.282   3.328   3.029  1.6844 -1.5752  0.3203
 4307TIP3   OH212884   5.971   6.709   2.291 -0.0782  0.4094  0.4538
 4307TIP3    H112885   5.957   6.615   2.301 -1.4370  0.6474  1.1357
 4307TIP3    H212886   6.063   6.723   2.314  0.2898 -0.8052 -0.1996
 4308TIP3   OH212887   3.611   2.690   1.371  0.1226 -0.1342 -0.4605
 4308TIP3    H112888   3.610   2.766   1.313 -1.8471  0.8936  0.8142
 4308TIP3    H212889   3.694   2.698   1.419 -0.6765  2.0942  0.6817
 4309TIP3   OH212890   1.699   5.463   0.322 -0.4624  0.1419  0.8421
 4309TIP3    H112891   1.760   5.391   0.336  1.2184  1.0995 -0.9750
 4309TIP3    H212892   1.652   5.472   0.405 -1.2269 -3.3896  0.9464
 4310TIP3   OH212893   3.682   2.136   4.816  0.4155  0.5285 -0.1305
 4310TIP3    H112894   3.623   2.206   4.788 -1.3087 -0.6809  0.2913
 4310TIP3    H212895   3.631   2.056   4.804  1.8397 -0.5379  0.6693
 4311TIP3   OH212896   4.298   0.492   1.181  0.0120 -0.3863 -0.0658
 4311TIP3    H112897   4.214   0.489   1.136  0.1439  0.9574 -0.4274
 4311TIP3    H212898   4.278   0.475   1.273 -0.5509 -0.8363 -0.2722
 4312TIP3   OH212899   0.111   4.372   3.517 -0.5246  0.0394  0.3353
 4312TIP3    H112900   0.162   4.311   3.465  1.6651  0.6742  1.6161
 4312TIP3    H212901   0.099   4.448   3.460 -2.3656 -1.0994 -0.8884
 4313TIP3   OH212902   1.046   4.084   0.036 -0.0718  0.2059 -0.3737
 4313TIP3    H112903   1.040   4.164   0.088  0.0425  0.6422 -1.0276
 4313TIP3    H212904   1.050   4.014   0.101 -4.0832  0.3605  0.3018
 4314TIP3   OH212905   2.277   2.648   0.502  0.0200  0.2427 -0.1425
 4314TIP3    H112906   2.373   2.644   0.503  0.1508  2.3414 -0.1058
 4314TIP3    H212907   2.254   2.651   0.409 -0.0340 -0.4806 -0.1561
 4315TIP3   OH212908   2.321   0.782   1.678 -0.0566  0.1414  0.4984
 4315TIP3    H112909   2.341   0.875   1.677 -0.4860  0.2680  1.6632
 4315TIP3    H212910   2.240   0.774   1.628 -0.3270  0.4809  0.8744
 4316TIP3   OH212911   4.051   2.474   5.363  0.2977 -0.1126  0.2593
 4316TIP3    H112912   4.007   2.389   5.356 -0.3603  0.1601  0.9086
 4316TIP3    H212913   3.981   2.538   5.356  0.4828  0.3234  1.8239
 4317TIP3   OH212914   2.472   4.484   5.466  0.3942  1.4333  0.3485
 4317TIP3    H112915   2.528   4.430   5.521  0.6345  0.6991 -0.5952
 4317TIP3    H212916   2.529   4.516   5.397 -0.5129 -0.1392 -1.2096
 4318TIP3   OH212917   0.105   2.877   0.727  0.1746 -0.2189  1.1040
 4318TIP3    H112918   0.056   2.918   0.799 -0.2759 -1.9877  1.8635
 4318TIP3    H212919   0.177   2.831   0.771 -0.9319 -2.5279  0.6415
 4319TIP3   OH212920   4.746   4.488   2.795  0.4439  0.5366 -0.1398
 4319TIP3    H112921   4.695   4.492   2.714  1.4021  1.5646 -0.7180
 4319TIP3    H212922   4.681   4.470   2.864 -0.3248 -0.8899 -1.1709
 4320TIP3   OH212923   5.495   2.733   1.777 -0.0741 -0.3279 -0.5232
 4320TIP3    H112924   5.509   2.651   1.824  1.6917  0.8088  1.0834
 4320TIP3    H212925   5.403   2.754   1.793 -0.0722 -1.0739  0.6206
 4321TIP3   OH212926   6.789   5.958   3.624  0.2611 -0.1963 -0.5183
 4321TIP3    H112927   6.838   5.965   3.542  0.8147 -0.7318 -0.2424
 4321TIP3    H212928   6.699   5.943   3.597 -0.0623  2.2502 -1.0633
 4322TIP3   OH212929   6.013   5.995   4.976 -0.8167  0.2538 -0.3836
 4322TIP3    H112930   6.034   6.086   4.956 -1.9018  0.3554 -1.1406
 4322TIP3    H212931   6.058   5.978   5.059  0.5371  1.0423 -0.9242
 4323TIP3   OH212932   5.788   4.506   0.379  0.0940 -0.0146 -0.2916
 4323TIP3    H112933   5.848   4.527   0.450 -0.8253 -1.0290  0.8175
 4323TIP3    H212934   5.744   4.589   0.360  3.5607  1.4801 -2.9560
 4324TIP3   OH212935   2.774   5.831   4.056 -0.7372 -0.7660  0.4150
 4324TIP3    H112936   2.691   5.876   4.038  0.8079  0.7770 -5.1274
 4324TIP3    H212937   2.758   5.740   4.031 -0.8591 -0.4794 -0.6116
 4325TIP3   OH212938   1.524   6.697   1.235 -0.7184 -0.4593  0.1085
 4325TIP3    H112939   1.484   6.760   1.294 -1.3648 -0.8310  0.0672
 4325TIP3    H212940   1.495   6.724   1.148 -0.7217 -0.6128  0.0620
 4326TIP3   OH212941   5.007   3.196   5.007  0.8445  0.3366 -0.2840
 4326TIP3    H112942   4.987   3.252   4.932  0.9505  1.3930  0.4710
 4326TIP3    H212943   4.955   3.231   5.079 -0.7848 -1.8391 -0.2778
 4327TIP3   OH212944   4.346   5.962   3.507  0.1316 -0.1017  0.2231
 4327TIP3    H112945   4.333   5.880   3.459 -0.2598 -0.4857  0.9600
 4327TIP3    H212946   4.263   6.009   3.498 -0.3872 -0.7194  1.5076
 4328TIP3   OH212947   0.363   1.223   4.569 -0.1674 -0.5757 -0.0135
 4328TIP3    H112948   0.453   1.254   4.566  0.1835 -1.5795 -0.2764
 4328TIP3    H212949   0.332   1.245   4.656 -0.4633  1.8903 -0.6730
 4329TIP3   OH212950   3.336   4.789   5.183 -0.1244 -0.6749  0.0183
 4329TIP3    H112951   3.274   4.783   5.110  1.3311  1.8172 -1.5706
 4329TIP3    H212952   3.378   4.703   5.186 -1.5726 -1.4550 -0.7650
 4330TIP3   OH212953   3.937   3.310   2.187  0.2735  0.0144 -0.1763
 4330TIP3    H112954   3.958   3.236   2.244  1.4683  0.1399 -0.4126
 4330TIP3    H212955   3.864   3.279   2.133  0.4703 -0.8425  0.0257
 4331TIP3   OH212956   0.175   1.343   2.681  0.0274 -0.1749 -0.0232
 4331TIP3    H112957   0.159   1.418   2.738  1.6586 -0.9060  1.5175
 4331TIP3    H212958   0.189   1.381   2.594  2.7786  1.6150  1.0461
 4332TIP3   OH212959   2.060   6.455   4.818  0.3580  0.2086  0.5614
 4332TIP3    H112960   2.091   6.499   4.738  2.3135 -1.6912  0.1900
 4332TIP3    H212961   2.140   6.437   4.868 -0.5285 -1.4123  1.4547
 4333TIP3   OH212962   1.620   3.407   4.482 -0.3611 -0.4556  0.4167
 4333TIP3    H112963   1.536   3.379   4.519 -0.9446 -0.5335 -0.9186
 4333TIP3    H212964   1.684   3.346   4.519 -1.2770 -2.1091 -0.5903
 4334TIP3   OH212965   3.935   1.433   3.501 -0.3043 -0.2036 -0.4899
 4334TIP3    H112966   3.967   1.347   3.527 -0.5621 -0.2144 -0.1953
 4334TIP3    H212967   4.003   1.494   3.529 -0.9226 -0.1288  0.9788
 4335TIP3   OH212968   0.841   5.392   5.537 -0.0084  0.2007 -0.1065
 4335TIP3    H112969   0.746   5.403   5.535 -0.0944 -0.5199 -0.1861
 4335TIP3    H212970   0.867   5.427   5.622 -0.1624  1.6870 -0.6243
 4336TIP3   OH212971   3.718   6.697   5.677 -0.0758 -0.1189  0.1997
 4336TIP3    H112972   3.771   6.634   5.727  0.5297  0.6135  0.4994
 4336TIP3    H212973   3.743   6.782   5.711 -0.0447  0.3724 -0.9883
 4337TIP3   OH212974   6.866   6.135   2.797 -0.5043  0.0762  0.2207
 4337TIP3    H112975   6.937   6.094   2.846 -1.0887 -0.9201  0.2621
 4337TIP3    H212976   6.884   6.113   2.705 -0.0382  0.9610  0.0944
 4338TIP3   OH212977   6.572   5.091   5.726 -0.4520 -0.2848 -0.1956
 4338TIP3    H112978   6.622   5.035   5.668  0.2707  0.0138  0.1248
 4338TIP3    H212979   6.558   5.172   5.676  0.5660  0.1471  0.2009
 4339TIP3   OH212980   1.637   6.571   0.492 -0.0152  0.2985 -0.5936
 4339TIP3    H112981   1.686   6.499   0.453 -0.3159 -0.9019  1.1421
 4339TIP3    H212982   1.557   6.531   0.524 -0.1985  1.4051  0.4005
 4340TIP3   OH212983   3.305   6.259   1.483 -0.3121  0.3019 -0.6002
 4340TIP3    H112984   3.310   6.213   1.400  0.8041  0.5716 -0.6939
 4340TIP3    H212985   3.278   6.192   1.546  1.5846 -0.5985 -0.6736
 4341TIP3   OH212986   2.847   3.938   0.579 -0.2631 -0.1923 -0.7303
 4341TIP3    H112987   2.933   3.915   0.615 -0.1900  0.4276 -0.4923
 4341TIP3    H212988   2.796   3.857   0.585  0.5303 -0.7712 -1.5839
 4342TIP3   OH212989   0.972   0.143   0.866  0.2252 -0.7930  0.2588
 4342TIP3    H112990   0.954   0.215   0.927 -2.2568 -0.2597 -0.9644
 4342TIP3    H212991   1.058   0.164   0.830  0.7264  0.1077  1.8551
 4343TIP3   OH212992   5.660   4.178   2.348  0.5191 -0.0784  0.3273
 4343TIP3    H112993   5.613   4.096   2.332  1.0370 -0.7668  2.1194
 4343TIP3    H212994   5.591   4.244   2.353 -0.1113 -0.7541  0.9066
 4344TIP3   OH212995   0.084   6.766   0.102 -0.3521  0.3778  0.1311
 4344TIP3    H112996   0.114   6.856   0.120  0.8911  0.2877 -1.2290
 4344TIP3    H212997   0.110   6.716   0.180  2.4013  0.4960 -0.5997
 4345TIP3   OH212998   3.945   5.563   2.152 -0.0822  0.5297 -0.4139
 4345TIP3    H112999   4.016   5.601   2.205 -0.5163 -0.0287  0.5890
 4345TIP3    H213000   3.905   5.638   2.108  0.5954  0.9467 -0.3309
 4346TIP3   OH213001   4.948   4.726   3.319  0.1123 -0.4775  0.2050
 4346TIP3    H113002   5.011   4.671   3.272  0.0962 -0.3916  0.0807
 4346TIP3    H213003   4.929   4.798   3.258 -1.1852 -1.2485 -0.3642
 4347TIP3   OH213004   6.738   4.831   1.754 -0.2198 -0.3145  0.1039
 4347TIP3    H113005   6.668   4.816   1.818 -0.5699 -0.4569 -0.3074
 4347TIP3    H213006   6.757   4.924   1.761 -0.0555 -0.3836  0.6185
 4348TIP3   OH213007   6.709   5.535   2.253  0.5898  0.0768 -0.3605
 4348TIP3    H113008   6.696   5.513   2.160 -0.1934 -0.7273 -0.0741
 4348TIP3    H213009   6.765   5.613   2.251  0.9159 -0.1541 -1.4997
 4349TIP3   OH213010   4.798   0.816   1.784 -0.3008 -0.3740  0.0505
 4349TIP3    H113011   4.877   0.790   1.831 -0.2271  0.1582  0.2302
 4349TIP3    H213012   4.752   0.734   1.767  0.5422 -0.7477 -0.5202
 4350TIP3   OH213013   5.059   5.764   4.561 -0.2538 -0.1618 -0.2745
 4350TIP3    H113014   5.136   5.809   4.526  0.0280 -1.1098 -0.9421
 4350TIP3    H213015   5.040   5.809   4.643 -1.9045  3.2011 -2.2934
 4351TIP3   OH213016   2.670   5.792   5.304 -0.6209  0.0372  0.5459
 4351TIP3    H113017   2.702   5.874   5.266  0.2486 -0.2396  0.6434
 4351TIP3    H213018   2.722   5.780   5.383 -0.6836 -0.6383  0.4958
 4352TIP3   OH213019   1.591   4.916   3.829  0.5319 -0.2869 -0.3096
 4352TIP3    H113020   1.576   5.011   3.832 -1.8484 -0.5933 -0.7863
 4352TIP3    H213021   1.576   4.887   3.919 -3.2573 -0.6971 -0.9046
 4353TIP3   OH213022   3.625   3.238   2.934 -0.2114 -0.6798 -0.2997
 4353TIP3    H113023   3.596   3.160   2.980 -2.2010 -0.5175 -1.1583
 4353TIP3    H213024   3.720   3.233   2.935 -0.1153 -4.9881 -3.3127
 4354TIP3   OH213025   6.192   0.962   4.078  0.0680 -0.3120  0.0247
 4354TIP3    H113026   6.243   0.881   4.081 -0.3446 -0.5839 -0.2262
 4354TIP3    H213027   6.231   1.017   4.147  0.1331 -0.8468  0.4226
 4355TIP3   OH213028   4.135   2.147   0.174  1.3923  0.1894 -0.2392
 4355TIP3    H113029   4.167   2.097   0.249 -1.1711  0.1926  0.9961
 4355TIP3    H213030   4.091   2.082   0.119 -0.0988  0.6808  0.2976
 4356TIP3   OH213031   4.149   6.147   0.719  0.0403 -0.0447 -0.3623
 4356TIP3    H113032   4.235   6.188   0.713 -0.2521  0.5562 -0.4948
 4356TIP3    H213033   4.097   6.189   0.650 -0.1466 -0.9353 -0.7838
 4357TIP3   OH213034   0.291   1.450   5.830 -1.2589 -0.1912  0.1010
 4357TIP3    H113035   0.218   1.466   5.890 -0.3646 -0.5714  1.3363
 4357TIP3    H213036   0.325   1.536   5.809 -2.8358  0.1062 -1.5613
 4358TIP3   OH213037   7.083   5.889   1.247  0.6595 -0.1407 -0.1863
 4358TIP3    H113038   7.013   5.858   1.191 -0.1096 -0.2238  0.7863
 4358TIP3    H213039   7.163   5.858   1.205 -0.0357 -2.9812  0.4064
 4359TIP3   OH213040   3.672   1.240   5.045  0.3396  0.2798 -0.5868
 4359TIP3    H113041   3.694   1.331   5.026  2.9990  0.1151  1.2183
 4359TIP3    H213042   3.729   1.189   4.988  0.4710 -0.2359 -0.0019
 4360TIP3   OH213043   6.349   1.009   0.060  0.0239  0.2780  0.2242
 4360TIP3    H113044   6.328   0.954  -0.016  3.7137  1.3068 -1.7767
 4360TIP3    H213045   6.376   0.946   0.127  1.0117 -0.5584 -0.8966
 4361TIP3   OH213046   2.084   6.640   2.788 -0.4854  0.1751  0.4963
 4361TIP3    H113047   2.146   6.588   2.840 -0.7752 -1.0126 -0.3108
 4361TIP3    H213048   1.998   6.602   2.808 -0.5781 -0.4917 -1.0091
 4362TIP3   OH213049   3.353   1.441   5.751 -0.4263  0.0615 -0.5324
 4362TIP3    H113050   3.440   1.432   5.713 -0.0734 -0.4523  0.3700
 4362TIP3    H213051   3.320   1.351   5.759 -1.4128  0.2988 -1.6880
 4363TIP3   OH213052   2.837   1.932   3.574  0.3192  0.2079 -0.2226
 4363TIP3    H113053   2.803   2.007   3.525  0.5249  0.0808 -0.5648
 4363TIP3    H213054   2.903   1.894   3.516  0.1431 -0.3015 -0.0891
 4364TIP3   OH213055   6.593   4.255   4.471  0.2413 -0.2384 -0.2766
 4364TIP3    H113056   6.668   4.217   4.518 -1.0456 -1.5438  0.8392
 4364TIP3    H213057   6.555   4.317   4.533 -1.9925 -2.6045  0.9615
 4365TIP3   OH213058   7.115   3.577   5.357 -0.0206 -0.0480 -0.0486
 4365TIP3    H113059   7.081   3.630   5.285 -2.1933 -3.8440 -2.2103
 4365TIP3    H213060   7.089   3.624   5.436 -1.4749  2.2215 -1.7265
 4366TIP3   OH213061   1.867   1.029   0.241  0.0451  0.4245  0.3934
 4366TIP3    H113062   1.903   1.018   0.328  0.2694 -1.0792  0.1348
 4366TIP3    H213063   1.786   1.080   0.254  0.2044  0.4201  1.4314
 4367TIP3   OH213064   1.577   4.972   4.624  0.1672 -0.2530 -0.3933
 4367TIP3    H113065   1.593   5.066   4.631  2.2721 -0.6998  2.3910
 4367TIP3    H213066   1.523   4.950   4.699  1.9733 -1.6132  0.6027
 4368TIP3   OH213067   1.035   1.793   2.164 -0.4541 -0.4022 -0.3137
 4368TIP3    H113068   1.028   1.701   2.138  0.6202 -0.9546  1.2298
 4368TIP3    H213069   1.121   1.800   2.206 -0.2022  1.4830 -1.0247
 4369TIP3   OH213070   4.395   0.630   2.935  0.6856 -0.0526  0.5082
 4369TIP3    H113071   4.379   0.540   2.905 -0.8894 -0.7556  3.1461
 4369TIP3    H213072   4.360   0.684   2.864 -2.2584 -1.5857  0.6193
 4370TIP3   OH213073   3.112   2.097   4.158 -0.0005  0.3316 -0.0222
 4370TIP3    H113074   3.147   2.051   4.082 -0.8349 -0.5356  0.0965
 4370TIP3    H213075   3.021   2.116   4.135 -0.2078  0.2219  0.6740
 4371TIP3   OH213076   0.272   0.290   3.132  0.3693 -0.0851  0.2261
 4371TIP3    H113077   0.329   0.343   3.187  1.5956  0.6476 -1.6581
 4371TIP3    H213078   0.238   0.350   3.066  1.7095 -1.5362 -1.9121
 4372TIP3   OH213079   2.748   2.962   4.958 -1.1427 -0.2438 -0.3483
 4372TIP3    H113080   2.665   2.954   5.005 -0.8297 -0.2740  0.1955
 4372TIP3    H213081   2.797   2.884   4.981 -0.6410  0.1581 -0.0339
 4373TIP3   OH213082   5.225   6.450   5.557  0.5853  0.6232 -0.0987
 4373TIP3    H113083   5.268   6.372   5.592  1.8786  1.4153  0.1002
 4373TIP3    H213084   5.132   6.435   5.574  0.5522 -1.7692 -1.7998
 4374TIP3   OH213085   4.318   4.058   3.265 -0.2834 -0.5322 -0.1473
 4374TIP3    H113086   4.406   4.092   3.247 -0.3642  0.1367  0.6588
 4374TIP3    H213087   4.274   4.058   3.179  0.1440  0.1851 -0.3740
 4375TIP3   OH213088   3.525   2.703   5.090  0.0472  0.2547  0.2623
 4375TIP3    H113089   3.484   2.619   5.070  0.6796  0.3538 -1.6776
 4375TIP3    H213090   3.490   2.728   5.176 -0.7710 -1.5845  0.4995
 4376TIP3   OH213091   2.730   2.180   4.957 -0.4453 -0.1197 -0.3493
 4376TIP3    H113092   2.731   2.161   5.051  0.1910  1.7874  0.0640
 4376TIP3    H213093   2.648   2.142   4.926 -1.9035  1.3589  1.4639
 4377TIP3   OH213094   3.835   0.029   1.718 -0.1514  0.4424 -0.5667
 4377TIP3    H113095   3.924   0.049   1.746 -0.6510  0.5949  1.0297
 4377TIP3    H213096   3.834  -0.066   1.707  0.0947  0.3916 -0.1587
 4378TIP3   OH213097   7.014   4.514   1.797  0.0078  0.2431  0.0266
 4378TIP3    H113098   6.930   4.502   1.841 -0.9940 -1.5195 -2.1617
 4378TIP3    H213099   7.065   4.438   1.823  1.0945  1.4118  1.5138
 4379TIP3   OH213100   4.275   5.626   1.032  0.0235 -0.1809  0.6192
 4379TIP3    H113101   4.204   5.576   1.073  0.1366  0.6060  1.8489
 4379TIP3    H213102   4.235   5.665   0.954 -0.4424 -1.0286  0.4141
 4380TIP3   OH213103   3.750   5.583   0.170  0.0493 -0.3202  0.1999
 4380TIP3    H113104   3.820   5.528   0.135  0.5511  0.3110  0.1970
 4380TIP3    H213105   3.710   5.623   0.093 -0.1507 -0.4794  0.2194
 4381TIP3   OH213106   6.653   3.082   4.278 -0.0386  0.1833 -0.0442
 4381TIP3    H113107   6.710   3.086   4.201 -2.1775 -0.7003 -1.7851
 4381TIP3    H213108   6.570   3.119   4.248 -0.9124 -0.1037  1.9004
 4382TIP3   OH213109   5.477   6.725   1.282  0.5277  0.5215 -0.0522
 4382TIP3    H113110   5.482   6.641   1.236 -0.2611  0.3598  0.1454
 4382TIP3    H213111   5.384   6.737   1.300  0.6624  1.3303  0.1323
 4383TIP3   OH213112   6.625   5.759   1.246 -0.3034 -0.1089  0.3233
 4383TIP3    H113113   6.562   5.718   1.187 -0.6174  0.0848  0.5206
 4383TIP3    H213114   6.588   5.747   1.333 -0.7083  1.0998  0.3455
 4384TIP3   OH213115   2.298   1.276   1.149  0.4589 -0.2136 -0.1372
 4384TIP3    H113116   2.205   1.278   1.126  0.6341  1.2729 -0.8875
 4384TIP3    H213117   2.343   1.287   1.065  1.2630  0.5181  0.3764
 4385TIP3   OH213118   2.542   3.678   1.522 -0.6377 -0.4698  0.0017
 4385TIP3    H113119   2.558   3.757   1.471 -0.6529  0.2536  1.0763
 4385TIP3    H213120   2.523   3.611   1.457  1.3277 -0.0801 -1.0437
 4386TIP3   OH213121   3.305   4.475   1.988  0.9200 -0.5329 -0.0482
 4386TIP3    H113122   3.289   4.475   2.083  1.1059 -0.8114 -0.0162
 4386TIP3    H213123   3.390   4.432   1.978  0.9478 -0.4151 -0.3355
 4387TIP3   OH213124   2.806   0.193   1.130  0.0476 -0.0208  0.2319
 4387TIP3    H113125   2.839   0.259   1.069  0.0013 -0.3609 -0.1646
 4387TIP3    H213126   2.727   0.159   1.088 -0.1434 -0.0568  0.6164
 4388TIP3   OH213127   2.795   3.740   5.544 -0.4177 -0.2270 -0.1037
 4388TIP3    H113128   2.863   3.808   5.547 -0.9731  0.3232  0.0295
 4388TIP3    H213129   2.823   3.682   5.473  0.2787 -0.1002  0.0565
 4389TIP3   OH213130   1.878   2.611   1.386  0.3145 -0.1972  0.1938
 4389TIP3    H113131   1.966   2.577   1.374 -0.1881 -2.7871  2.6527
 4389TIP3    H213132   1.841   2.615   1.298  2.1625 -1.1750 -0.6755
 4390TIP3   OH213133   3.008   2.481   4.653 -0.6583 -0.4340  0.0630
 4390TIP3    H113134   3.055   2.565   4.656 -1.3854 -0.0279  2.4267
 4390TIP3    H213135   3.072   2.420   4.617 -0.1973  1.1339 -1.9800
 4391TIP3   OH213136   6.231   2.579   5.143  0.0318  0.5200  0.2906
 4391TIP3    H113137   6.206   2.567   5.235 -0.7915  0.3676  0.0562
 4391TIP3    H213138   6.325   2.597   5.146  0.4991 -1.6610  1.0212
 4392TIP3   OH213139   6.322   4.863   0.361  0.3010  0.1870  0.1084
 4392TIP3    H113140   6.371   4.862   0.443  2.6981 -0.0520 -1.2215
 4392TIP3    H213141   6.345   4.947   0.320  0.1685 -0.2262 -0.8519
 4393TIP3   OH213142   0.857   4.747   1.311  0.9410  0.0768 -0.5034
 4393TIP3    H113143   0.836   4.670   1.258 -0.2515  0.8923 -1.2813
 4393TIP3    H213144   0.813   4.819   1.266  2.4784  1.3196 -0.1006
 4394TIP3   OH213145   6.310   5.203   0.416  0.2458  0.2549  0.1744
 4394TIP3    H113146   6.306   5.293   0.449 -2.4130  0.5786 -0.7236
 4394TIP3    H213147   6.298   5.212   0.322 -0.2607 -1.0498  0.0953
 4395TIP3   OH213148   3.968   4.269   1.238  0.1513 -0.3849 -0.2026
 4395TIP3    H113149   3.958   4.344   1.296 -2.3392 -1.6678  1.1871
 4395TIP3    H213150   3.981   4.308   1.151  1.2304  1.5800  0.7564
 4396TIP3   OH213151   7.108   3.750   5.744 -0.1984 -0.2544 -0.0652
 4396TIP3    H113152   7.069   3.810   5.808 -0.4446  0.7955 -1.1653
 4396TIP3    H213153   7.035   3.722   5.689  0.1306 -0.5173 -0.3734
 4397TIP3   OH213154   1.844   4.545   0.441 -0.3456 -0.2284  0.3335
 4397TIP3    H113155   1.767   4.575   0.489 -1.8072 -2.0954 -0.6909
 4397TIP3    H213156   1.828   4.452   0.426  0.8443 -0.0938 -2.2643
 4398TIP3   OH213157   1.099   6.287   1.799  0.1100  0.2318  0.6496
 4398TIP3    H113158   1.084   6.292   1.894 -1.7529  1.6472  0.3462
 4398TIP3    H213159   1.145   6.369   1.778  0.2390  0.0676  0.2817
 4399TIP3   OH213160   1.200   5.156   1.668  0.4264  0.0060  0.1304
 4399TIP3    H113161   1.176   5.142   1.760 -2.5295 -0.1313 -0.5820
 4399TIP3    H213162   1.188   5.071   1.627  2.8728 -0.2378 -0.2551
 4400TIP3   OH213163   3.545   3.392   5.605  0.0100  0.3782  0.6422
 4400TIP3    H113164   3.538   3.445   5.525 -0.4029 -1.3214 -0.5031
 4400TIP3    H213165   3.467   3.337   5.604  1.5368 -1.9480  0.4501
 4401TIP3   OH213166   0.344   1.441   5.037  0.4768 -0.0773  0.5320
 4401TIP3    H113167   0.361   1.535   5.029  0.3427 -0.1314 -0.6879
 4401TIP3    H213168   0.419   1.407   5.085  1.1544  0.4788 -0.1044
 4402TIP3   OH213169   4.265   1.377   4.786 -0.1266 -0.0728 -0.2257
 4402TIP3    H113170   4.222   1.293   4.804 -0.9897  0.7021  1.4948
 4402TIP3    H213171   4.352   1.352   4.755 -0.2973 -1.5974  0.4174
 4403TIP3   OH213172   6.097   0.701   2.626 -0.2234 -0.2672  0.1895
 4403TIP3    H113173   6.141   0.734   2.705  1.0587 -2.8717  0.6784
 4403TIP3    H213174   6.155   0.728   2.554  0.1719 -0.4234  0.4445
 4404TIP3   OH213175   4.875   5.534   5.759  0.3221 -0.1009  0.6091
 4404TIP3    H113176   4.832   5.570   5.681  1.3135  0.9340  0.5120
 4404TIP3    H213177   4.853   5.441   5.758 -1.2428  0.2558  0.1435
 4405TIP3   OH213178   2.074   3.482   1.213 -0.3617  0.5789  0.4388
 4405TIP3    H113179   2.118   3.463   1.296 -0.4030  1.4678  0.6690
 4405TIP3    H213180   1.981   3.470   1.232 -0.2516 -3.8540 -0.6807
 4406TIP3   OH213181   5.919   3.398   2.808 -0.2835  0.0370 -0.0032
 4406TIP3    H113182   5.880   3.480   2.839 -0.8658 -0.5588  0.8924
 4406TIP3    H213183   5.877   3.330   2.861  1.1747 -0.7314  0.2133
 4407TIP3   OH213184   6.837   1.693   0.627 -0.5347 -0.0579  0.0832
 4407TIP3    H113185   6.896   1.696   0.552 -0.5272  0.4328  0.1072
 4407TIP3    H213186   6.762   1.745   0.601 -1.6490 -1.8723 -0.5168
 4408TIP3   OH213187   1.118   0.597   4.334  0.2632  0.5542  0.2034
 4408TIP3    H113188   1.108   0.561   4.246 -0.3098 -1.0306  0.8925
 4408TIP3    H213189   1.197   0.651   4.328  1.4504 -1.1662 -0.7945
 4409TIP3   OH213190   1.964   1.499   5.024 -0.2287 -0.7121 -0.3439
 4409TIP3    H113191   2.030   1.459   4.967 -1.2273 -0.3549 -1.8098
 4409TIP3    H213192   1.993   1.477   5.113  1.1353 -1.6816 -0.9816
 4410TIP3   OH213193   3.848   0.904   0.544 -0.3762  0.3185  0.2274
 4410TIP3    H113194   3.919   0.943   0.493 -0.3068  0.0833  0.1451
 4410TIP3    H213195   3.771   0.910   0.487 -0.4449  0.6553  0.3514
 4411TIP3   OH213196   2.393   6.745   2.711 -0.4703 -0.6538  0.0139
 4411TIP3    H113197   2.330   6.676   2.733 -0.4887 -0.4770  0.5226
 4411TIP3    H213198   2.466   6.731   2.771 -0.7151  0.1061  0.4954
 4412TIP3   OH213199   4.321   0.237   5.004 -0.0313  0.0468  0.3100
 4412TIP3    H113200   4.417   0.232   5.002  0.1036  1.4380 -2.5930
 4412TIP3    H213201   4.292   0.151   4.973  0.4075  0.4128 -1.1825
 4413TIP3   OH213202   1.725   4.765   4.885  0.4166  0.1200  0.2729
 4413TIP3    H113203   1.667   4.690   4.897 -0.5249  0.7409 -0.2507
 4413TIP3    H213204   1.790   4.736   4.821  0.0227 -0.2225  0.0239
 4414TIP3   OH213205   6.728   2.965   4.965  0.1363 -0.4128  0.0319
 4414TIP3    H113206   6.672   2.932   5.035 -0.5632 -1.1738 -0.8601
 4414TIP3    H213207   6.672   3.025   4.915  0.3390 -0.5906 -0.4163
 4415TIP3   OH213208   3.345   4.727   1.244 -0.2695 -0.2668 -0.1137
 4415TIP3    H113209   3.357   4.822   1.252 -0.4529 -0.1853 -0.7653
 4415TIP3    H213210   3.255   4.717   1.213 -1.0248 -0.7470  2.0540
 4416TIP3   OH213211   4.848   3.839   5.328 -0.0139 -0.1483  0.3948
 4416TIP3    H113212   4.782   3.892   5.284 -0.1366 -0.1140  0.6184
 4416TIP3    H213213   4.874   3.892   5.404  0.2037 -0.2009  0.3584
 4417TIP3   OH213214   0.937   1.731   1.764  0.4912  0.1087  0.0440
 4417TIP3    H113215   0.900   1.666   1.705  1.1353 -0.2933  0.0781
 4417TIP3    H213216   0.868   1.796   1.774 -1.3650 -2.0108  2.3451
 4418TIP3   OH213217   2.670   3.949   5.274  0.2137  0.6180 -0.0335
 4418TIP3    H113218   2.629   4.018   5.221  1.1925  0.8182 -0.5600
 4418TIP3    H213219   2.611   3.875   5.266  0.3777  0.6025 -1.5293
 4419TIP3   OH213220   5.550   6.015   5.630  0.3654  0.5513 -0.1500
 4419TIP3    H113221   5.459   6.036   5.654 -0.6824 -0.8339 -2.4859
 4419TIP3    H213222   5.573   5.943   5.688 -0.2310  0.5714  0.1257
 4420TIP3   OH213223   5.109   0.730   4.688 -0.0777 -0.1938  0.8995
 4420TIP3    H113224   5.171   0.788   4.732  1.4709 -1.8082  0.9759
 4420TIP3    H213225   5.114   0.648   4.737 -1.2312 -0.8105  0.0408
 4421TIP3   OH213226   1.446   4.325   0.385 -0.3764  0.3600 -0.4572
 4421TIP3    H113227   1.376   4.390   0.376 -0.9126 -0.2632 -0.9656
 4421TIP3    H213228   1.461   4.319   0.479 -1.3809  0.1395 -0.2926
 4422TIP3   OH213229   0.876   4.910   1.003 -0.4179 -0.2222  0.2304
 4422TIP3    H113230   0.932   4.985   1.024 -1.1916  1.0223 -1.8145
 4422TIP3    H213231   0.824   4.896   1.082  0.4853  0.7125  1.0250
 4423TIP3   OH213232   2.380   3.826   2.673  0.0182  0.1817 -0.4433
 4423TIP3    H113233   2.455   3.771   2.649 -1.5355 -1.3276 -2.0996
 4423TIP3    H213234   2.393   3.844   2.766  3.2700  1.3879 -0.9925
 4424TIP3   OH213235   4.640   0.549   2.287  0.3964 -0.1830 -0.3655
 4424TIP3    H113236   4.681   0.466   2.311  0.2472 -1.4429 -3.8532
 4424TIP3    H213237   4.712   0.601   2.251 -0.1268 -0.3922 -1.7795
 4425TIP3   OH213238   2.390   2.931   2.082  0.1657 -0.2181  0.0984
 4425TIP3    H113239   2.466   2.880   2.108 -0.3592 -0.8159  0.4965
 4425TIP3    H213240   2.376   2.992   2.153 -0.4178 -0.8983  0.5853
 4426TIP3   OH213241   2.996   5.649   2.467  0.0779  0.0698 -0.1977
 4426TIP3    H113242   2.905   5.656   2.493  0.0026 -0.0015 -0.4411
 4426TIP3    H213243   3.021   5.559   2.490 -0.2838 -0.3281 -1.2990
 4427TIP3   OH213244   5.028   5.377   5.154 -0.0880  0.0207 -0.4431
 4427TIP3    H113245   5.085   5.447   5.186 -0.5585  0.9227 -1.5057
 4427TIP3    H213246   4.940   5.414   5.158 -0.2773 -0.2459 -1.6374
 4428TIP3   OH213247   4.578   1.366   2.789  0.2261  0.0649 -0.1779
 4428TIP3    H113248   4.552   1.349   2.699 -0.1580  1.2779 -0.3285
 4428TIP3    H213249   4.499   1.404   2.829  0.8262  0.9139  0.2400
 4429TIP3   OH213250   7.161   3.476   0.298  0.1764 -0.2180 -0.3176
 4429TIP3    H113251   7.216   3.533   0.353  0.7593  0.2790 -1.3630
 4429TIP3    H213252   7.149   3.527   0.218  0.0407 -1.2532 -0.9654
 4430TIP3   OH213253   4.425   1.294   1.198  0.2953 -0.0642 -0.3137
 4430TIP3    H113254   4.429   1.200   1.218  0.8258 -0.0244 -0.2208
 4430TIP3    H213255   4.333   1.317   1.208  0.5744  0.0939  2.7741
 4431TIP3   OH213256   6.264   2.236   5.282  0.3260 -0.1418  0.1096
 4431TIP3    H113257   6.323   2.186   5.338  1.0251  1.6095  1.0364
 4431TIP3    H213258   6.298   2.224   5.193  0.9878 -0.5982  0.4206
 4432TIP3   OH213259   2.658   4.343   5.694 -0.4585  0.0027 -0.1767
 4432TIP3    H113260   2.725   4.312   5.755  0.6505  3.0115  0.2946
 4432TIP3    H213261   2.643   4.269   5.635  1.3695 -1.6251  1.2599
 4433TIP3   OH213262   2.344   0.655   1.116  0.5215 -0.8793  0.0668
 4433TIP3    H113263   2.419   0.711   1.094  0.5491 -1.1136 -0.4533
 4433TIP3    H213264   2.371   0.608   1.195  0.0004  0.7860  1.2784
 4434TIP3   OH213265   5.209   5.744   3.103 -0.0775 -0.0881  0.1382
 4434TIP3    H113266   5.136   5.791   3.062 -0.2853  0.7944  1.4639
 4434TIP3    H213267   5.239   5.803   3.172  0.5322 -1.3499  0.9730
 4435TIP3   OH213268   6.347   3.090   5.126  0.0010 -0.5050 -0.1478
 4435TIP3    H113269   6.405   3.021   5.157 -0.6460 -0.3521  1.5027
 4435TIP3    H213270   6.307   3.054   5.047  1.3171 -1.1357 -0.5473
 4436TIP3   OH213271   3.159   6.487   1.293  0.2330  0.0589 -0.8260
 4436TIP3    H113272   3.099   6.530   1.233  1.0194 -0.2555 -1.8604
 4436TIP3    H213273   3.104   6.428   1.345 -0.6490  1.3156 -0.3074
 4437TIP3   OH213274   4.705   5.080   4.102  0.4981 -0.6504  0.1141
 4437TIP3    H113275   4.717   5.162   4.150  0.1472  0.1745 -1.1580
 4437TIP3    H213276   4.710   5.012   4.169 -0.7575  0.4971  1.4378
 4438TIP3   OH213277   2.314   4.344   5.310 -0.2609 -0.0018  0.0454
 4438TIP3    H113278   2.346   4.271   5.364 -0.0013  1.0945  1.4326
 4438TIP3    H213279   2.351   4.422   5.351  0.5435  0.8625 -2.1831
 4439TIP3   OH213280   1.843   3.934   0.175 -0.1832  0.1209 -0.4800
 4439TIP3    H113281   1.917   3.879   0.200 -0.4566 -0.2179 -0.4017
 4439TIP3    H213282   1.860   4.018   0.217 -1.6614 -1.0040  2.6723
 4440TIP3   OH213283   6.242   4.735   0.622  0.1458 -0.4707  0.3634
 4440TIP3    H113284   6.338   4.735   0.628  0.4235 -0.4429 -2.5130
 4440TIP3    H213285   6.216   4.647   0.649  1.2995 -1.4443 -1.4977
 4441TIP3   OH213286   5.522   3.008   0.130  0.8915  0.5548  0.1030
 4441TIP3    H113287   5.503   3.077   0.065  0.0241 -0.0791 -0.3351
 4441TIP3    H213288   5.529   3.055   0.213  0.4300  1.1932 -0.2098
 4442TIP3   OH213289   2.899   2.317   0.331 -0.9035  0.1979 -0.4167
 4442TIP3    H113290   2.876   2.327   0.239 -1.6155 -0.5610 -0.3386
 4442TIP3    H213291   2.987   2.356   0.339 -0.5563 -0.3186 -1.5464
 4443TIP3   OH213292   5.983   1.213   4.383 -0.0427 -0.2245  0.4630
 4443TIP3    H113293   6.069   1.207   4.343  0.5314 -2.3516  1.8303
 4443TIP3    H213294   5.922   1.184   4.315  0.5646 -0.7840  0.1482
 4444TIP3   OH213295   6.896   1.518   3.640  0.4794  0.3537  0.0280
 4444TIP3    H113296   6.882   1.520   3.546  1.9939 -1.9968 -0.3281
 4444TIP3    H213297   6.816   1.479   3.676  0.9524 -1.3277 -0.6353
 4445TIP3   OH213298   1.393   0.044   0.460 -0.6021 -0.3001  0.2412
 4445TIP3    H113299   1.475  -0.005   0.454  0.6626  1.8093 -1.2724
 4445TIP3    H213300   1.339   0.008   0.390  0.1162  0.0895 -0.5344
 4446TIP3   OH213301   1.634   4.285   2.536 -0.2722 -0.5754  0.8003
 4446TIP3    H113302   1.540   4.291   2.551 -0.5199 -0.9785 -0.4287
 4446TIP3    H213303   1.672   4.273   2.623 -1.2896  0.2085  1.3769
 4447TIP3   OH213304   6.042   3.191   4.942 -0.1991 -0.4094  0.4666
 4447TIP3    H113305   6.030   3.256   5.011  2.4179 -1.2629  1.8275
 4447TIP3    H213306   5.969   3.130   4.954 -0.3983  0.0605  1.7827
 4448TIP3   OH213307   1.620   3.292   1.900  0.1920  0.1942  0.1226
 4448TIP3    H113308   1.616   3.234   1.977  0.1719 -0.0679 -0.0733
 4448TIP3    H213309   1.529   3.307   1.876  0.2177 -1.1328 -0.8896
 4449TIP3   OH213310   3.308   2.784   5.619  0.0790 -0.0101  0.4203
 4449TIP3    H113311   3.320   2.880   5.621 -1.7501  0.2311  0.9579
 4449TIP3    H213312   3.215   2.771   5.633  0.1476 -1.8640 -0.6182
 4450TIP3   OH213313   5.805   1.672   0.390 -0.6382 -0.0464 -0.2507
 4450TIP3    H113314   5.805   1.697   0.482  1.4457  1.7138 -0.6247
 4450TIP3    H213315   5.849   1.588   0.387 -0.6148 -0.0576  0.3442
 4451TIP3   OH213316   0.346   1.098   4.333  0.0295 -0.4168 -0.5835
 4451TIP3    H113317   0.432   1.101   4.293 -0.1638 -1.1395 -1.0629
 4451TIP3    H213318   0.355   1.151   4.413  1.3203 -1.6717  0.1459
 4452TIP3   OH213319   0.163   2.499   1.182 -0.1958  0.2644 -0.2026
 4452TIP3    H113320   0.134   2.590   1.191  0.0437  0.3121  0.1343
 4452TIP3    H213321   0.241   2.505   1.127  0.2910  0.3627  0.4791
 4453TIP3   OH213322   5.653   5.545   3.610 -0.0118  0.5164  0.4212
 4453TIP3    H113323   5.595   5.491   3.663  0.9302  0.5225  1.4950
 4453TIP3    H213324   5.643   5.633   3.646 -1.9527  1.2488 -1.6659
 4454TIP3   OH213325   2.475   5.236   1.040 -0.4443 -0.1529  0.6185
 4454TIP3    H113326   2.502   5.322   1.006 -2.1558 -0.2354 -1.1115
 4454TIP3    H213327   2.382   5.246   1.058 -0.7533 -1.7271  0.0518
 4455TIP3   OH213328   5.064   0.101   5.206  0.1808  0.2284  0.1207
 4455TIP3    H113329   5.084   0.117   5.114  1.5083 -0.4676  0.2626
 4455TIP3    H213330   5.048   0.006   5.210  0.8405  0.1383  0.7249
 4456TIP3   OH213331   0.737   3.556   1.616  0.1102 -0.0269  0.6861
 4456TIP3    H113332   0.674   3.592   1.679 -1.9030  0.3338 -1.4070
 4456TIP3    H213333   0.731   3.461   1.628 -1.0647 -0.0146  0.3390
 4457TIP3   OH213334   2.508   0.545   0.145 -0.2994  0.1695  0.2116
 4457TIP3    H113335   2.450   0.523   0.218 -0.5693 -1.9290 -0.5742
 4457TIP3    H213336   2.457   0.607   0.092 -1.2846 -0.5802  0.2557
 4458TIP3   OH213337   1.876   3.921   2.587 -0.5153  0.4757 -0.0612
 4458TIP3    H113338   1.805   3.893   2.644 -0.7413 -0.7002 -0.8780
 4458TIP3    H213339   1.955   3.909   2.639 -0.8063  0.5517  0.4054
 4459TIP3   OH213340   3.324   4.913   1.019  0.1360  0.0785 -0.5275
 4459TIP3    H113341   3.344   5.007   1.014  1.5218 -0.2475 -2.0866
 4459TIP3    H213342   3.315   4.886   0.928 -0.5075 -1.2800 -0.0895
 4460TIP3   OH213343   6.230   6.795   5.102 -0.1082  0.3580 -0.1571
 4460TIP3    H113344   6.186   6.792   5.187  0.2650 -1.4792  0.0156
 4460TIP3    H213345   6.278   6.712   5.097 -0.2104  0.3746 -2.2081
 4461TIP3   OH213346   1.646   1.292   0.698 -0.4060  0.4125  0.3494
 4461TIP3    H113347   1.637   1.209   0.652 -0.0961  0.4261  0.2631
 4461TIP3    H213348   1.556   1.316   0.721 -0.4777 -0.0718  0.6016
 4462TIP3   OH213349   1.044   0.695   5.335  0.1684  0.3157 -0.1092
 4462TIP3    H113350   0.972   0.656   5.385  0.4656 -1.3343 -0.8974
 4462TIP3    H213351   1.000   0.750   5.269 -0.3791 -0.4083 -0.3642
 4463TIP3   OH213352   1.369   5.146   4.917  0.6688  0.3245  0.3124
 4463TIP3    H113353   1.365   5.158   5.012 -1.3629 -2.2687  0.6668
 4463TIP3    H213354   1.278   5.137   4.889  1.2396  0.6855 -1.8466
 4464TIP3   OH213355   3.656   3.710   3.135 -0.6836  0.1625  0.2615
 4464TIP3    H113356   3.678   3.786   3.188 -0.2343  2.1960 -2.5948
 4464TIP3    H213357   3.740   3.665   3.122 -0.7592 -0.2168  1.0596
 4465TIP3   OH213358   5.580   5.883   1.165 -0.1821 -0.0275 -0.0901
 4465TIP3    H113359   5.573   5.792   1.135  1.3242 -0.7673  1.5889
 4465TIP3    H213360   5.527   5.886   1.244  2.3259 -0.4568  1.7542
 4466TIP3   OH213361   1.973   4.779   0.863 -0.6480  0.0798  0.5155
 4466TIP3    H113362   2.045   4.841   0.876 -1.0169  1.1346 -1.9040
 4466TIP3    H213363   1.906   4.807   0.925 -0.7028  2.0059 -0.3321
 4467TIP3   OH213364   5.307   0.059   2.055 -0.4466  0.3946  0.1698
 4467TIP3    H113365   5.214   0.039   2.060 -0.3078 -0.1739  0.5116
 4467TIP3    H213366   5.334   0.028   1.968 -0.8120  1.6073 -0.4010
 4468TIP3   OH213367   3.330   4.581   4.755 -0.6374 -0.9201 -0.2667
 4468TIP3    H113368   3.385   4.503   4.760 -0.2418 -0.5766  3.1370
 4468TIP3    H213369   3.390   4.654   4.768 -1.2893 -0.1536 -1.3659
 4469TIP3   OH213370   1.361   3.723   5.711  0.3911  0.0456 -0.3283
 4469TIP3    H113371   1.450   3.760   5.708  0.0908  0.9104  0.7576
 4469TIP3    H213372   1.340   3.703   5.620  1.5128  0.2868 -0.6562
 4470TIP3   OH213373   0.411   4.483   4.826  0.2956 -0.4258  0.3436
 4470TIP3    H113374   0.362   4.407   4.792  3.8692 -0.9826 -4.5668
 4470TIP3    H213375   0.482   4.444   4.877  0.0656 -0.0520  0.9664
 4471TIP3   OH213376   0.772   6.492   4.745  0.0727  1.4636 -0.4533
 4471TIP3    H113377   0.711   6.555   4.707 -0.8516  0.4099 -0.7781
 4471TIP3    H213378   0.723   6.452   4.817  0.0177 -0.0340 -1.2806
 4472TIP3   OH213379   6.902   1.785   5.029  0.2516 -0.6828 -0.4671
 4472TIP3    H113380   6.927   1.696   5.056 -1.0991 -0.8401  0.3943
 4472TIP3    H213381   6.807   1.781   5.021  0.0829  0.9238  0.4449
 4473TIP3   OH213382   3.545   3.313   1.192 -0.6116 -0.0120  0.1741
 4473TIP3    H113383   3.614   3.248   1.186  1.4630  1.8556  1.9300
 4473TIP3    H213384   3.589   3.397   1.177 -2.7055  1.1815  0.2767
 4474TIP3   OH213385   5.960   4.666   0.529 -0.1323 -0.3569 -0.5048
 4474TIP3    H113386   6.055   4.674   0.538 -0.3209  2.5109 -0.0253
 4474TIP3    H213387   5.930   4.756   0.513 -3.0287 -0.6726  2.2294
 4475TIP3   OH213388   0.678   0.721   0.577  0.1624 -0.6569 -0.0393
 4475TIP3    H113389   0.694   0.628   0.562 -1.0656 -0.7193 -1.1938
 4475TIP3    H213390   0.599   0.740   0.526 -0.0474  0.8487  0.7883
 4476TIP3   OH213391   6.251   1.087   3.105 -0.1787  0.3527 -0.2047
 4476TIP3    H113392   6.185   1.156   3.094 -0.1511  0.6647  1.3739
 4476TIP3    H213393   6.217   1.014   3.054 -0.6112  1.2476 -1.2523
 4477TIP3   OH213394   4.742   0.048   4.490 -0.2944 -0.6991  0.0042
 4477TIP3    H113395   4.758   0.130   4.443 -0.2961 -0.1067  1.0225
 4477TIP3    H213396   4.647   0.038   4.490 -0.3263 -0.3971  0.3924
 4478TIP3   OH213397   0.353   4.093   0.551  0.0381  0.5712 -0.2281
 4478TIP3    H113398   0.332   4.077   0.643  0.7214  1.5295  0.1154
 4478TIP3    H213399   0.398   4.014   0.522 -0.4643  0.1361  0.1706
 4479TIP3   OH213400   0.734   4.061   5.593 -0.0797  0.2461  0.3601
 4479TIP3    H113401   0.697   4.018   5.517  0.8577 -0.1221  0.1038
 4479TIP3    H213402   0.657   4.091   5.643 -0.7407 -1.1318  0.2216
 4480TIP3   OH213403   3.549   6.228   3.150 -0.0153  0.2891 -0.2574
 4480TIP3    H113404   3.613   6.298   3.157 -0.5659  0.8164 -0.4285
 4480TIP3    H213405   3.480   6.264   3.094  1.2469 -1.5129 -3.1865
 4481TIP3   OH213406   5.769   6.622   1.574 -0.3451  0.1728 -0.6964
 4481TIP3    H113407   5.825   6.617   1.497 -0.3391  0.3469 -0.7028
 4481TIP3    H213408   5.741   6.531   1.589  0.6774 -0.0720 -0.1461
 4482TIP3   OH213409   2.627   2.446   5.763  0.2715  0.0184 -0.2459
 4482TIP3    H113410   2.587   2.367   5.798 -1.3809 -0.1905 -2.4007
 4482TIP3    H213411   2.555   2.508   5.754  0.9799  0.7231 -1.3215
 4483TIP3   OH213412   3.383   6.657   5.383 -0.1712  0.3476  0.0980
 4483TIP3    H113413   3.317   6.685   5.320  0.9593  1.0332 -0.8244
 4483TIP3    H213414   3.366   6.564   5.396 -0.6968  0.2917 -0.8983
 4484TIP3   OH213415   7.007   0.296   5.590 -0.4050 -0.1335  0.7908
 4484TIP3    H113416   6.926   0.247   5.604 -0.4938 -0.2819 -0.1625
 4484TIP3    H213417   7.002   0.368   5.652 -1.1745 -0.2621  0.8921
 4485TIP3   OH213418   5.849   1.763   4.865  0.1101  0.5898 -0.0985
 4485TIP3    H113419   5.754   1.760   4.849  0.0122 -0.0958  0.5695
 4485TIP3    H213420   5.863   1.705   4.940  0.9921  1.1181  0.1639
 4486TIP3   OH213421   5.587   1.663   5.217  0.1399  0.2436 -0.3249
 4486TIP3    H113422   5.532   1.689   5.292  1.1872  1.0362  0.2004
 4486TIP3    H213423   5.533   1.602   5.168 -0.3883 -0.7500  1.3881
 4487TIP3   OH213424   2.601   2.149   0.602  0.1378 -0.2431  0.2510
 4487TIP3    H113425   2.633   2.219   0.546  0.7868 -2.5703 -2.5228
 4487TIP3    H213426   2.672   2.132   0.664  0.0002  1.4006  0.8980
 4488TIP3   OH213427   1.312   6.135   2.069 -0.8182 -0.0087 -0.0692
 4488TIP3    H113428   1.373   6.207   2.078  0.1118 -0.6129 -1.3172
 4488TIP3    H213429   1.231   6.167   2.110 -0.1794  1.3954  0.1541
 4489TIP3   OH213430   3.078   4.146   3.697 -0.3581  0.4192 -0.2000
 4489TIP3    H113431   3.079   4.153   3.602  0.3308 -0.6271 -0.2965
 4489TIP3    H213432   3.075   4.051   3.714  0.4803  0.5469  0.8023
 4490TIP3   OH213433   2.127   6.422   1.605 -0.3109 -0.4227  0.2756
 4490TIP3    H113434   2.085   6.340   1.631 -0.2271 -0.5016  0.1659
 4490TIP3    H213435   2.211   6.394   1.567  0.1954 -0.2217  1.2161
 4491TIP3   OH213436   4.634   2.286   4.880 -0.1270  0.2897  0.2249
 4491TIP3    H113437   4.592   2.372   4.888 -1.0169  0.5172 -4.2919
 4491TIP3    H213438   4.711   2.302   4.826 -0.7296 -1.7366 -1.3861
 4492TIP3   OH213439   5.149   1.005   1.295  0.3619 -0.3933  0.4325
 4492TIP3    H113440   5.199   0.940   1.245 -0.8571 -0.8748 -0.2053
 4492TIP3    H213441   5.131   1.075   1.232 -0.5971 -0.6867  0.3611
 4493TIP3   OH213442   2.114   6.244   2.543 -0.5919  0.0859 -0.1867
 4493TIP3    H113443   2.162   6.160   2.544  0.9009  0.8881 -0.6861
 4493TIP3    H213444   2.097   6.259   2.450  0.5441  1.0696 -0.2565
 4494TIP3   OH213445   2.022   6.580   2.524 -0.1233 -0.0407  0.1204
 4494TIP3    H113446   2.039   6.605   2.615  2.1447 -0.8443 -0.0204
 4494TIP3    H213447   2.003   6.486   2.528 -0.0858 -0.0665 -0.2412
 4495TIP3   OH213448   4.825   6.703   2.348  0.6137 -0.2390  0.7188
 4495TIP3    H113449   4.900   6.644   2.353  0.4422 -0.6429 -0.9516
 4495TIP3    H213450   4.863   6.791   2.356  1.9094 -0.1401 -3.7283
 4496TIP3   OH213451   3.215   6.350   3.504  0.2126  0.1130 -0.0242
 4496TIP3    H113452   3.261   6.350   3.420  0.1299 -1.6698 -0.1241
 4496TIP3    H213453   3.124   6.365   3.483  0.5522  2.6676  0.0770
 4497TIP3   OH213454   3.291   5.026   3.018  0.4501  0.1010  0.1009
 4497TIP3    H113455   3.283   5.106   2.966  1.3384 -0.8439 -1.5764
 4497TIP3    H213456   3.223   5.034   3.084 -2.5111  0.2753 -2.6906
 4498TIP3   OH213457   5.639   5.410   2.614 -0.2453 -0.6054  0.3901
 4498TIP3    H113458   5.697   5.393   2.539 -0.1615 -0.7140  0.4787
 4498TIP3    H213459   5.551   5.401   2.578 -0.2202  0.4068  0.0593
 4499TIP3   OH213460   6.630   6.273   3.940 -0.1674 -0.3403 -0.5437
 4499TIP3    H113461   6.698   6.231   3.887 -0.8157 -1.8100 -0.2523
 4499TIP3    H213462   6.601   6.347   3.887  0.3815 -0.7869 -1.4925
 4500TIP3   OH213463   1.332   0.975   2.553 -0.3093 -0.2125 -0.0240
 4500TIP3    H113464   1.243   1.010   2.550 -0.1387  0.5331  1.8689
 4500TIP3    H213465   1.388   1.052   2.550  0.1551 -0.4519  1.5485
 4501TIP3   OH213466   0.656   4.414   5.402  0.2661  0.3837 -0.3184
 4501TIP3    H113467   0.611   4.487   5.359 -0.8713  1.1770  2.0538
 4501TIP3    H213468   0.630   4.337   5.353 -1.9275  1.0946 -0.3917
 4502TIP3   OH213469   2.430   3.881   4.936  1.0867 -0.3363  0.1180
 4502TIP3    H113470   2.479   3.824   4.995  0.8945  1.2217  1.8919
 4502TIP3    H213471   2.411   3.959   4.988 -2.2183 -0.3129 -0.8781
 4503TIP3   OH213472   1.561   6.749   0.034 -0.6071 -0.1438  0.1909
 4503TIP3    H113473   1.519   6.835   0.021  0.0878  0.0042 -1.2877
 4503TIP3    H213474   1.499   6.700   0.088 -1.1371  1.1993  0.8506
 4504TIP3   OH213475   6.196   5.160   1.999  0.1095 -0.3629 -0.4652
 4504TIP3    H113476   6.142   5.084   1.976  0.0692 -1.2381  2.1676
 4504TIP3    H213477   6.279   5.123   2.028  0.7551  0.7276 -0.8684
 4505TIP3   OH213478   2.324   3.792   0.873  0.3858  0.2316 -0.1417
 4505TIP3    H113479   2.318   3.868   0.816 -0.7805  2.0997  2.2980
 4505TIP3    H213480   2.413   3.794   0.906 -0.2177  1.9027  1.5511
 4506TIP3   OH213481   2.489   6.607   3.684  0.1241 -0.2251  0.4360
 4506TIP3    H113482   2.525   6.695   3.667  1.4369 -0.5453  1.3267
 4506TIP3    H213483   2.395   6.620   3.690  0.2777  1.0868  0.2994
 4507TIP3   OH213484   3.436   4.431   0.432  0.1650  0.2596  0.2606
 4507TIP3    H113485   3.400   4.444   0.344  1.5387 -1.1028 -0.5414
 4507TIP3    H213486   3.429   4.337   0.447  0.4936  0.4008  1.3654
 4508TIP3   OH213487   0.916   5.590   5.093 -0.0691 -0.1309  0.0804
 4508TIP3    H113488   0.974   5.651   5.047 -1.1381  0.6186 -0.3060
 4508TIP3    H213489   0.886   5.530   5.024 -1.0273  0.4921 -0.0672
 4509TIP3   OH213490   5.678   5.544   5.128  0.1906 -0.0595  0.0239
 4509TIP3    H113491   5.591   5.538   5.167  0.0886  1.0530 -0.0117
 4509TIP3    H213492   5.666   5.513   5.038  0.3230 -2.1330  0.6676
 4510TIP3   OH213493   5.012   4.309   5.186 -0.0816 -0.0398  0.6726
 4510TIP3    H113494   4.920   4.287   5.198 -0.5823  0.6937 -1.3298
 4510TIP3    H213495   5.034   4.274   5.099  0.8452  1.7658  0.1195
 4511TIP3   OH213496   6.167   6.241   0.346 -1.0893  0.2143  0.0138
 4511TIP3    H113497   6.091   6.294   0.322 -0.7593  0.4307 -0.5790
 4511TIP3    H213498   6.169   6.172   0.279 -1.4934 -0.5350  0.7542
 4512TIP3   OH213499   3.878   1.979   3.561  0.4926  0.2859  0.5041
 4512TIP3    H113500   3.894   2.057   3.509 -1.4447  1.3230  1.3702
 4512TIP3    H213501   3.911   2.001   3.648 -0.5383  0.3847  0.8889
 4513TIP3   OH213502   5.639   6.403   1.897 -0.1854  0.1599 -0.8114
 4513TIP3    H113503   5.615   6.492   1.922 -0.2167 -0.4808  1.7805
 4513TIP3    H213504   5.727   6.390   1.933 -0.3541 -0.9822 -0.7445
 4514TIP3   OH213505   5.570   0.944   4.364  0.3670 -0.1719 -0.1005
 4514TIP3    H113506   5.566   1.034   4.333  2.9277  0.1960  0.4152
 4514TIP3    H213507   5.626   0.947   4.442  2.6181 -2.5001 -1.4637
 4515TIP3   OH213508   6.508   6.338   0.675 -0.3471 -0.3121  0.1368
 4515TIP3    H113509   6.581   6.281   0.700  0.3784  0.4039 -0.3132
 4515TIP3    H213510   6.548   6.406   0.621 -1.4020 -0.0758 -0.3690
 4516TIP3   OH213511   1.247   1.831   0.829  0.3197  0.1083  0.2009
 4516TIP3    H113512   1.289   1.746   0.818  1.6094  0.6524  0.7660
 4516TIP3    H213513   1.222   1.856   0.740 -1.7145 -1.6180  0.1914
 4517TIP3   OH213514   0.367   1.737   3.494  0.2058  0.0242  0.1610
 4517TIP3    H113515   0.351   1.831   3.493 -2.2624 -0.3121  0.3484
 4517TIP3    H213516   0.421   1.721   3.416 -0.4777  1.4370 -0.6481
 4518TIP3   OH213517   7.061   2.735   5.487  1.2160  0.6751 -0.8295
 4518TIP3    H113518   7.027   2.804   5.544  0.5597  0.7963 -1.3519
 4518TIP3    H213519   6.986   2.709   5.434  1.9315  0.9729 -2.0351
 4519TIP3   OH213520   0.025   4.699   4.566 -0.5856 -0.1491  0.4698
 4519TIP3    H113521   0.092   4.729   4.627  0.2331 -1.9717  0.5371
 4519TIP3    H213522  -0.058   4.718   4.610 -0.0186 -1.1575  2.0688
 4520TIP3   OH213523   1.927   2.656   2.884 -0.2416  0.2094  0.2932
 4520TIP3    H113524   1.977   2.737   2.884 -1.2818  0.8732  0.5604
 4520TIP3    H213525   1.987   2.590   2.918  0.9907  0.6162 -1.0063
 4521TIP3   OH213526   0.031   6.398   0.222  0.4262  0.0703 -0.9257
 4521TIP3    H113527  -0.007   6.462   0.163 -0.2551 -0.8363 -1.5032
 4521TIP3    H213528   0.011   6.313   0.182 -0.7816 -0.6257  1.0192
 4522TIP3   OH213529   1.317   2.046   4.034  0.5219 -0.6122  0.0514
 4522TIP3    H113530   1.256   2.033   3.961 -0.7465  0.2589  0.9014
 4522TIP3    H213531   1.370   2.121   4.007  1.6495 -1.7196 -0.9346
 4523TIP3   OH213532   2.912   5.394   4.920 -0.3415  0.6406 -0.5953
 4523TIP3    H113533   2.901   5.408   5.014  0.1733  0.5561 -0.5162
 4523TIP3    H213534   2.869   5.310   4.902  1.3096 -0.3835 -0.0408
 4524TIP3   OH213535   3.994   3.257   3.983  0.0935  0.3008  0.3660
 4524TIP3    H113536   4.083   3.247   3.949  0.6947  1.2528  1.5883
 4524TIP3    H213537   3.993   3.206   4.064 -0.5111  0.2000  0.2972
 4525TIP3   OH213538   0.033   6.658   4.459 -0.6077  0.4936 -0.6382
 4525TIP3    H113539  -0.051   6.615   4.449  0.4642 -1.8333 -0.2378
 4525TIP3    H213540   0.047   6.662   4.554 -0.6038  1.6507 -0.6668
 4526TIP3   OH213541   5.494   2.510   5.721  0.0221 -0.3989 -0.0013
 4526TIP3    H113542   5.546   2.569   5.666 -1.2026  1.8487  1.0806
 4526TIP3    H213543   5.551   2.488   5.794  0.5068 -0.5591 -0.4261
 4527TIP3   OH213544   3.429   4.557   3.655  0.5250  0.1770  0.6294
 4527TIP3    H113545   3.367   4.557   3.728  0.6786  0.5378  0.7593
 4527TIP3    H213546   3.381   4.517   3.583  0.2718  0.0962  0.8421
 4528TIP3   OH213547   4.307   6.564   1.652 -0.1247  0.0256 -0.0353
 4528TIP3    H113548   4.299   6.502   1.725  0.9100 -1.5870 -1.2383
 4528TIP3    H213549   4.316   6.650   1.695 -1.2105 -0.6629  1.6798
 4529TIP3   OH213550   4.474   2.466   0.528 -0.6825  0.0607 -0.0275
 4529TIP3    H113551   4.569   2.478   0.523 -0.5448 -1.1055 -0.7454
 4529TIP3    H213552   4.441   2.508   0.449 -0.8621  1.2481  0.6736
 4530TIP3   OH213553   6.200   5.720   5.454  0.0183 -0.3376  0.2432
 4530TIP3    H113554   6.265   5.661   5.417 -0.2651 -0.6936  0.3075
 4530TIP3    H213555   6.246   5.803   5.465  0.7151 -0.8229  1.1031
 4531TIP3   OH213556   0.066   2.423   3.174 -0.1793 -0.2534  0.9560
 4531TIP3    H113557   0.116   2.481   3.117 -1.1253 -0.9140 -0.6264
 4531TIP3    H213558   0.126   2.402   3.246  1.2347  0.2575 -0.0325
 4532TIP3   OH213559   1.464   3.641   3.310 -0.6247  0.0628 -0.6245
 4532TIP3    H113560   1.372   3.620   3.324 -0.7939 -0.1970 -2.0367
 4532TIP3    H213561   1.495   3.575   3.248  0.4013  0.4110 -0.5079
 4533TIP3   OH213562   4.221   5.513   0.488 -0.7395 -0.3475 -0.1399
 4533TIP3    H113563   4.273   5.493   0.566 -1.8789  1.2178  1.0660
 4533TIP3    H213564   4.131   5.491   0.512 -1.1859  0.6573 -0.8200
 4534TIP3   OH213565   4.626   0.469   3.720  0.0337  0.0184  0.5401
 4534TIP3    H113566   4.592   0.532   3.783 -0.8601 -0.3781  0.4845
 4534TIP3    H213567   4.548   0.422   3.689  0.4347  0.2851 -0.9559
 4535TIP3   OH213568   4.983   3.184   1.832  0.3374  0.2021  0.4201
 4535TIP3    H113569   5.008   3.198   1.924 -0.6997  2.9174  0.3715
 4535TIP3    H213570   5.043   3.239   1.782 -0.2345  0.1078 -0.3829
 4536TIP3   OH213571   0.661   5.499   1.999 -0.7270 -0.3438  0.3044
 4536TIP3    H113572   0.706   5.491   1.915 -0.4990 -0.0925  0.4016
 4536TIP3    H213573   0.715   5.449   2.060 -0.1431  0.5968  0.5854
 4537TIP3   OH213574   0.769   1.122   2.632  0.0381  0.2552  0.5866
 4537TIP3    H113575   0.768   1.169   2.716  1.5192  0.1944  0.6697
 4537TIP3    H213576   0.804   1.185   2.570 -1.2397  0.3631 -0.0583
 4538TIP3   OH213577   0.509   0.458   5.674 -0.3395  0.2303 -0.1594
 4538TIP3    H113578   0.530   0.371   5.709  0.4420  0.0338 -1.0868
 4538TIP3    H213579   0.583   0.513   5.699 -1.2611  0.8842  1.2368
 4539TIP3   OH213580   4.712   0.084   5.774  0.1556  0.4645  0.4298
 4539TIP3    H113581   4.749   0.010   5.823 -1.0806  0.0084  0.7022
 4539TIP3    H213582   4.674   0.141   5.841  0.3222  0.9176  0.1477
 4540TIP3   OH213583   2.257   3.813   3.279 -0.1865  0.5121  0.7464
 4540TIP3    H113584   2.255   3.836   3.372 -1.9487  1.5353  0.5010
 4540TIP3    H213585   2.262   3.897   3.234 -2.1909  0.2286 -0.1098
 4541TIP3   OH213586   5.516   5.519   0.455 -0.2129  0.1589 -0.4376
 4541TIP3    H113587   5.428   5.551   0.474  0.3373  1.0538  0.7462
 4541TIP3    H213588   5.561   5.594   0.416  0.4248  0.1558  0.2656
 4542TIP3   OH213589   1.895   1.790   0.774 -0.4083  0.1437  0.7146
 4542TIP3    H113590   1.812   1.777   0.727  0.8235 -0.0526 -1.5905
 4542TIP3    H213591   1.896   1.883   0.796 -0.0323  0.8380 -1.8996
 4543TIP3   OH213592   2.423   0.440   1.331 -0.5033  0.2313  0.4410
 4543TIP3    H113593   2.344   0.386   1.330  0.1809 -0.8229  1.2377
 4543TIP3    H213594   2.429   0.472   1.421  1.3147 -1.8084  1.1432
 4544TIP3   OH213595   0.857   3.852   4.821  0.3356 -0.1188  0.4543
 4544TIP3    H113596   0.823   3.916   4.760  0.1184 -0.4958  0.1790
 4544TIP3    H213597   0.949   3.877   4.833  0.6117 -0.5288 -0.6685
 4545TIP3   OH213598   5.337   4.884   0.497 -0.6429  0.1861  0.3643
 4545TIP3    H113599   5.368   4.877   0.407  0.3695  2.6159  0.4261
 4545TIP3    H213600   5.362   4.801   0.538 -1.2105 -0.9989 -1.5742
 4546TIP3   OH213601   4.009   2.615   5.709  0.2964  0.1725  0.6176
 4546TIP3    H113602   4.074   2.615   5.638  0.6109  0.3053  0.8999
 4546TIP3    H213603   3.973   2.704   5.708  0.8366  0.4055  1.0985
 4547TIP3   OH213604   0.538   5.681   0.186  0.2639 -0.6670  0.2547
 4547TIP3    H113605   0.515   5.764   0.227 -1.5973 -0.5159 -0.9344
 4547TIP3    H213606   0.551   5.704   0.094  1.6823 -1.4050  0.2569
 4548TIP3   OH213607   1.008   2.558   1.502  0.1503 -0.0397  0.6306
 4548TIP3    H113608   1.061   2.637   1.504  1.0158 -0.5097 -1.1484
 4548TIP3    H213609   0.933   2.581   1.447 -1.2322  0.4326  2.6264
 4549TIP3   OH213610   6.450   6.746   3.880  0.2965  0.2590  1.2993
 4549TIP3    H113611   6.450   6.765   3.786  0.9714 -0.9456  1.0431
 4549TIP3    H213612   6.520   6.800   3.916  0.0663  0.6884  1.1149
 4550TIP3   OH213613   2.917   4.208   2.245 -0.1326 -0.0885 -0.6592
 4550TIP3    H113614   2.890   4.187   2.335  1.5294 -0.3066 -0.1832
 4550TIP3    H213615   2.943   4.124   2.207  0.8881  0.2434 -0.7276
 4551TIP3   OH213616   6.794   4.164   3.691 -0.4549 -0.1181 -0.1001
 4551TIP3    H113617   6.795   4.148   3.785  0.1507 -0.3861 -0.1460
 4551TIP3    H213618   6.796   4.259   3.683 -0.9029 -0.0826  0.1557
 4552TIP3   OH213619   4.556   4.603   0.542  0.2278  0.1678  0.4291
 4552TIP3    H113620   4.609   4.523   0.541 -1.8773 -1.3943 -1.8662
 4552TIP3    H213621   4.578   4.647   0.460  0.6097  1.4375  1.1910
 4553TIP3   OH213622   5.157   4.999   2.871 -0.0994 -0.4080 -0.3920
 4553TIP3    H113623   5.232   4.939   2.862 -0.2355 -0.4778 -1.1350
 4553TIP3    H213624   5.193   5.085   2.851  0.2402 -0.1258  1.3033
 4554TIP3   OH213625   5.335   1.134   4.697  0.4815 -0.2394  0.1525
 4554TIP3    H113626   5.412   1.168   4.653  0.4292 -1.6639 -1.1296
 4554TIP3    H213627   5.287   1.086   4.629 -0.3066 -1.3694  1.4405
 4555TIP3   OH213628   4.450   1.384   1.818 -0.4734 -0.0441 -0.0153
 4555TIP3    H113629   4.433   1.426   1.734 -2.0490  0.8095  0.6852
 4555TIP3    H213630   4.439   1.290   1.801  2.2095 -0.1906 -1.3953
 4556TIP3   OH213631   0.738   2.358   4.070  0.0397 -0.4348  0.4683
 4556TIP3    H113632   0.718   2.361   3.976  0.1240 -0.1305  0.4617
 4556TIP3    H213633   0.834   2.362   4.074  0.1212 -1.7197  0.5076
 4557TIP3   OH213634   0.485   0.218   2.535  0.1290 -0.2145  0.0102
 4557TIP3    H113635   0.553   0.155   2.509  1.1388  0.9151 -0.1892
 4557TIP3    H213636   0.524   0.267   2.607 -1.6893 -1.5990  2.0927
 4558TIP3   OH213637   4.392   5.153   0.235 -0.0312 -0.2208 -0.3069
 4558TIP3    H113638   4.459   5.217   0.210 -0.5108  0.9247  1.1826
 4558TIP3    H213639   4.327   5.157   0.164  0.5779 -0.0056 -0.8572
 4559TIP3   OH213640   0.694   2.629   2.875 -1.0466  0.0312 -0.1640
 4559TIP3    H113641   0.652   2.715   2.882 -2.3789 -0.5972 -0.0859
 4559TIP3    H213642   0.655   2.577   2.946 -0.6575 -0.7896 -0.5344
 4560TIP3   OH213643   4.661   2.821   0.684 -0.2240  0.3034  0.2044
 4560TIP3    H113644   4.572   2.827   0.650 -0.4702  0.9963  0.9355
 4560TIP3    H213645   4.689   2.912   0.695 -0.4157  0.1499  2.4610
 4561TIP3   OH213646   1.694   5.811   2.947  0.1803 -0.7578 -0.5446
 4561TIP3    H113647   1.629   5.824   2.878  0.0645 -1.0162 -0.4877
 4561TIP3    H213648   1.644   5.771   3.019  0.5857 -1.8041 -0.8316
 4562TIP3   OH213649   2.621   4.264   0.228  0.1690  0.0028  0.0690
 4562TIP3    H113650   2.654   4.349   0.259  0.0066 -0.3725  1.3109
 4562TIP3    H213651   2.666   4.200   0.282 -2.3271 -0.5446  1.6519
 4563TIP3   OH213652   4.991   3.177   4.584 -0.4593  0.6661  0.0207
 4563TIP3    H113653   5.058   3.166   4.652 -1.5904  0.0078  1.0799
 4563TIP3    H213654   4.974   3.271   4.583  0.0323  0.7625  0.1774
 4564TIP3   OH213655   4.718   2.567   5.349 -0.5058 -0.1159  0.2106
 4564TIP3    H113656   4.626   2.590   5.340 -0.6206 -0.1038  1.3061
 4564TIP3    H213657   4.722   2.474   5.327 -0.7191 -0.0453 -0.1374
 4565TIP3   OH213658   3.763   0.681   2.661  0.1937 -0.0115  0.5880
 4565TIP3    H113659   3.832   0.713   2.602  0.7210 -0.5860  0.8883
 4565TIP3    H213660   3.785   0.720   2.746  0.6026 -0.8168  0.8619
 4566TIP3   OH213661   5.051   3.284   3.601 -0.8311 -0.4162 -0.0082
 4566TIP3    H113662   5.060   3.338   3.680  1.4563  0.2650 -0.6561
 4566TIP3    H213663   4.957   3.283   3.583 -1.3279  0.0717  2.2497
 4567TIP3   OH213664   1.807   0.100   2.275  0.7241  0.0503  0.3929
 4567TIP3    H113665   1.835   0.146   2.196 -1.0765  1.6659  0.6012
 4567TIP3    H213666   1.856   0.018   2.275  1.5872  0.5124 -1.7919
 4568TIP3   OH213667   1.348   0.021   3.847 -0.1562 -0.2729 -0.2217
 4568TIP3    H113668   1.395  -0.037   3.787  0.0457 -0.1049 -0.2290
 4568TIP3    H213669   1.416   0.079   3.881 -0.2181 -0.5332  0.3656
 4569TIP3   OH213670   5.411   6.547   2.428 -0.7528 -0.0102 -0.2679
 4569TIP3    H113671   5.435   6.463   2.467  1.4991  0.9696  0.6418
 4569TIP3    H213672   5.436   6.539   2.336  2.1623  0.5161  0.3802
 4570TIP3   OH213673   5.461   4.113   3.645  0.4540 -0.3963 -0.7910
 4570TIP3    H113674   5.460   4.067   3.729 -0.0259  0.3350 -0.3819
 4570TIP3    H213675   5.371   4.106   3.613  0.3137  0.4590 -0.6013
 4571TIP3   OH213676   5.342   0.887   0.624  0.8216 -0.3074 -0.3202
 4571TIP3    H113677   5.359   0.862   0.533  0.9739  0.8045 -0.6155
 4571TIP3    H213678   5.247   0.881   0.634  0.7868 -0.2496 -0.6145
 4572TIP3   OH213679   2.503   2.597   1.197 -0.4890  0.1086 -0.1231
 4572TIP3    H113680   2.445   2.602   1.121 -0.5946  1.6846  0.0338
 4572TIP3    H213681   2.580   2.549   1.166 -0.5971  0.6050 -1.1829
 4573TIP3   OH213682   6.838   3.947   1.821 -0.0327 -0.2473 -0.0683
 4573TIP3    H113683   6.858   4.002   1.745  1.7389  1.6364  1.6452
 4573TIP3    H213684   6.749   3.973   1.846  0.0123  0.3629 -0.4958
 4574TIP3   OH213685   5.024   2.543   1.861  0.0638 -0.1756  0.5097
 4574TIP3    H113686   5.014   2.450   1.840  0.9670 -0.1577 -0.0637
 4574TIP3    H213687   5.035   2.545   1.956 -1.0371 -0.5470  0.6597
 4575TIP3   OH213688   4.515   3.191   5.788  0.0631 -0.3775 -0.1651
 4575TIP3    H113689   4.574   3.115   5.788  0.4394 -0.1308  1.5868
 4575TIP3    H213690   4.567   3.261   5.828 -1.7407 -0.4511  2.5520
 4576TIP3   OH213691   5.065   0.949   0.362 -0.1787  0.5511 -0.0992
 4576TIP3    H113692   5.085   1.027   0.310  1.1405  0.2533 -0.0625
 4576TIP3    H213693   5.060   0.981   0.452 -1.7068  0.9332 -0.2949
 4577TIP3   OH213694   1.626   0.924   5.328  0.0395 -0.3604  0.6625
 4577TIP3    H113695   1.609   0.831   5.341  0.1633 -0.5659 -0.5152
 4577TIP3    H213696   1.716   0.927   5.295 -0.3472  0.0676 -0.3914
 4578TIP3   OH213697   0.106   5.482   4.619 -0.0021  0.4721  0.1245
 4578TIP3    H113698   0.175   5.501   4.555  0.9646  1.3850  1.3758
 4578TIP3    H213699   0.123   5.391   4.646 -1.7936 -0.7544 -2.4784
 4579TIP3   OH213700   0.434   5.701   1.908 -0.0714  0.1541  0.3661
 4579TIP3    H113701   0.510   5.644   1.898 -0.5604 -0.5568  0.6530
 4579TIP3    H213702   0.457   5.780   1.858  0.6999 -0.1989  0.1459
 4580TIP3   OH213703   4.852   0.679   2.185 -0.1310 -1.0610 -0.7959
 4580TIP3    H113704   4.915   0.715   2.247 -0.1305 -1.3550 -0.6269
 4580TIP3    H213705   4.829   0.753   2.129  1.1203 -1.1771 -1.4952
 4581TIP3   OH213706   2.653   1.422   0.047 -0.3445  0.5041 -0.1761
 4581TIP3    H113707   2.663   1.503   0.097 -0.3863  0.6094 -0.3374
 4581TIP3    H213708   2.724   1.365   0.079 -1.4288 -0.0889  1.2698
 4582TIP3   OH213709   1.315   4.723   1.311 -0.3134 -0.5499 -0.0033
 4582TIP3    H113710   1.356   4.651   1.359 -0.0977  1.7951  3.7208
 4582TIP3    H213711   1.374   4.797   1.324 -1.3207  0.7579 -2.3156
 4583TIP3   OH213712   5.547   5.185   4.407  0.3229 -0.1063  0.4617
 4583TIP3    H113713   5.514   5.223   4.488 -1.2107 -0.5074  0.0659
 4583TIP3    H213714   5.491   5.107   4.393  0.0529  0.3588 -1.3361
 4584TIP3   OH213715   6.877   6.366   0.102 -0.2080 -0.3354  0.5166
 4584TIP3    H113716   6.957   6.367   0.049  0.6484  2.7549  1.6205
 4584TIP3    H213717   6.876   6.281   0.144  0.5524 -1.8259 -2.2209
 4585TIP3   OH213718   0.792   1.412   1.324  0.3535  0.3851 -0.1917
 4585TIP3    H113719   0.845   1.333   1.336  1.2183  1.1564  1.3651
 4585TIP3    H213720   0.845   1.467   1.266  1.4002  1.1915  1.4310
 4586TIP3   OH213721   4.978   5.397   4.139  0.4355 -0.1867  0.1787
 4586TIP3    H113722   4.886   5.372   4.141  0.5624 -0.6433  0.8605
 4586TIP3    H213723   4.981   5.482   4.183  0.2367  0.2039 -0.5577
 4587TIP3   OH213724   2.082   2.248   2.424 -0.1822  0.1733  0.1852
 4587TIP3    H113725   2.007   2.236   2.481 -1.2910 -0.2258 -1.2899
 4587TIP3    H213726   2.049   2.302   2.352  0.4206 -1.4116 -1.3625
 4588TIP3   OH213727   5.462   5.124   5.683  0.1867 -0.1874 -0.1165
 4588TIP3    H113728   5.514   5.053   5.645  1.3604 -0.6358  2.1028
 4588TIP3    H213729   5.464   5.106   5.777 -0.4953  2.1323  0.3936
 4589TIP3   OH213730   1.540   6.141   4.429 -0.1246  0.2366 -0.3510
 4589TIP3    H113731   1.463   6.101   4.388 -0.1223  0.5619 -0.6759
 4589TIP3    H213732   1.506   6.216   4.477  0.0293  0.5531 -0.7377
 4590TIP3   OH213733   4.735   2.749   1.966  0.0322  0.3521  0.0793
 4590TIP3    H113734   4.703   2.735   2.055 -0.8170  0.2482 -0.2252
 4590TIP3    H213735   4.725   2.664   1.924 -1.4661  0.8579 -0.6711
 4591TIP3   OH213736   6.702   2.527   2.526 -0.4554 -0.1484 -0.3194
 4591TIP3    H113737   6.654   2.483   2.457 -0.7016  0.1831 -0.3640
 4591TIP3    H213738   6.781   2.561   2.483  0.1802 -1.2991 -0.0971
 4592TIP3   OH213739   1.329   1.643   0.234  0.2134  0.1291 -0.3631
 4592TIP3    H113740   1.281   1.708   0.183 -0.7007  0.6842  1.1445
 4592TIP3    H213741   1.263   1.605   0.292  1.2885 -0.2420  0.6433
 4593TIP3   OH213742   5.958   2.469   4.431 -0.1372 -0.5381  0.1528
 4593TIP3    H113743   6.047   2.504   4.419 -0.5687  0.2629 -0.8267
 4593TIP3    H213744   5.971   2.391   4.484  0.8756  1.1149  2.5540
 4594TIP3   OH213745   5.074   2.136   2.827  0.3133 -0.2779  0.1533
 4594TIP3    H113746   5.105   2.177   2.746 -0.5811  0.0454 -0.0389
 4594TIP3    H213747   5.113   2.188   2.896  0.8893 -0.4050 -0.0724
 4595TIP3   OH213748   6.672   0.965   5.581 -0.1633  0.0807 -0.0255
 4595TIP3    H113749   6.754   0.998   5.543 -0.9834  0.4255 -1.5809
 4595TIP3    H213750   6.670   1.004   5.669  0.8307  0.9200 -0.3440
 4596TIP3   OH213751   0.770   2.773   2.592 -0.0459  0.3943 -0.3867
 4596TIP3    H113752   0.731   2.688   2.572  0.4641 -0.7364  2.9289
 4596TIP3    H213753   0.832   2.788   2.521  0.3842 -2.3610 -0.6695
 4597TIP3   OH213754   0.723   4.809   4.829  0.3103  0.2676  0.0863
 4597TIP3    H113755   0.662   4.872   4.868 -1.0003 -0.0777 -1.3003
 4597TIP3    H213756   0.708   4.728   4.879  0.0491  0.3422  0.1297
 4598TIP3   OH213757   0.586   1.112   1.467  0.1600  0.5467 -0.3594
 4598TIP3    H113758   0.649   1.051   1.430  2.9296  2.9101  0.1285
 4598TIP3    H213759   0.539   1.147   1.392  0.4796 -0.1122 -0.8814
 4599TIP3   OH213760   0.164   1.949   3.981 -0.1874  0.3505 -0.2647
 4599TIP3    H113761   0.080   1.965   3.939  0.7025 -1.7813 -3.1316
 4599TIP3    H213762   0.229   1.985   3.920  1.0922  1.3420  1.5599
 4600TIP3   OH213763   6.751   3.576   4.439  0.2709 -0.3058  0.2117
 4600TIP3    H113764   6.740   3.669   4.459  0.1504 -0.3484  0.3479
 4600TIP3    H213765   6.668   3.550   4.398  0.4498 -0.2625 -0.1776
 4601TIP3   OH213766   0.734   4.934   0.762 -0.2455  0.4190 -0.2330
 4601TIP3    H113767   0.775   4.919   0.847 -0.3228  0.5124 -0.1783
 4601TIP3    H213768   0.680   5.012   0.775 -1.0000 -0.1121 -0.1095
 4602TIP3   OH213769   6.706   0.508   4.810  0.1544  0.0756 -0.5024
 4602TIP3    H113770   6.705   0.476   4.900  1.2016  2.1315  0.2886
 4602TIP3    H213771   6.695   0.603   4.818  1.1240  0.3913 -2.4824
 4603TIP3   OH213772   1.787   5.194   1.386  0.2828  0.6882  0.0534
 4603TIP3    H113773   1.740   5.185   1.469  0.4443  1.6410  0.2579
 4603TIP3    H213774   1.840   5.273   1.397 -0.4439  1.4022 -1.3163
 4604TIP3   OH213775   2.701   2.513   4.297 -0.2240 -0.3329  0.2884
 4604TIP3    H113776   2.749   2.432   4.282 -1.6050 -1.3450  1.0546
 4604TIP3    H213777   2.717   2.534   4.389  0.7303  0.7102 -0.0901
 4605TIP3   OH213778   3.461   5.587   0.623  0.2493 -0.1237  0.0789
 4605TIP3    H113779   3.466   5.638   0.543 -0.4250 -0.5636 -0.2541
 4605TIP3    H213780   3.549   5.550   0.634  0.3963  0.0990 -0.3482
 4606TIP3   OH213781   0.342   2.690   2.385 -0.2968  0.1610  0.1414
 4606TIP3    H113782   0.315   2.721   2.298 -1.1540  2.6385  1.1964
 4606TIP3    H213783   0.417   2.744   2.408 -0.1968 -0.3376  1.0320
 4607TIP3   OH213784   0.144   5.112   2.146 -0.3729 -0.5451 -0.5556
 4607TIP3    H113785   0.236   5.128   2.167 -0.0587 -0.4578 -1.9299
 4607TIP3    H213786   0.136   5.016   2.145 -0.3558 -0.5531 -0.2630
 4608TIP3   OH213787   3.623   1.847   1.492  0.1601 -0.2717  0.2182
 4608TIP3    H113788   3.610   1.899   1.571  2.5288  1.3422 -0.3424
 4608TIP3    H213789   3.681   1.776   1.518  0.4194 -0.1089  0.0977
 4609TIP3   OH213790   0.861   5.484   5.846 -0.3885  0.1312 -0.1167
 4609TIP3    H113791   0.847   5.410   5.905 -1.5892 -0.3843 -0.9993
 4609TIP3    H213792   0.954   5.481   5.824 -0.5916 -1.6513 -0.8221
 4610TIP3   OH213793   1.627   1.079   1.484  0.0017 -0.2212  0.1104
 4610TIP3    H113794   1.623   1.042   1.572  0.6067  0.7223  0.5509
 4610TIP3    H213795   1.683   1.156   1.493 -0.5271  0.3074 -0.9522
 4611TIP3   OH213796   0.852   5.245   0.130 -0.1771  0.4034  0.2715
 4611TIP3    H113797   0.855   5.152   0.107 -1.4290  0.4080 -0.0206
 4611TIP3    H213798   0.828   5.246   0.223  2.7214  0.4238  1.1137
 4612TIP3   OH213799   0.816   0.723   4.255 -0.2946  0.0870  0.2600
 4612TIP3    H113800   0.770   0.767   4.183  1.9703 -1.1606 -2.1193
 4612TIP3    H213801   0.890   0.781   4.274  0.8057 -0.9834 -0.5752
 4613TIP3   OH213802   5.308   2.687   1.540 -0.2168 -0.0145  0.6115
 4613TIP3    H113803   5.308   2.773   1.582  1.0600  1.1199 -1.4868
 4613TIP3    H213804   5.240   2.694   1.472 -0.6150 -0.9471  0.8950
 4614TIP3   OH213805   2.822   4.096   1.433  0.0150 -0.1780  0.1815
 4614TIP3    H113806   2.907   4.138   1.429  0.3056 -0.4348  2.4880
 4614TIP3    H213807   2.764   4.162   1.470 -0.5297 -0.3836 -0.2887
 4615TIP3   OH213808   6.911   0.630   0.895 -0.1538  0.6036 -0.5304
 4615TIP3    H113809   6.827   0.653   0.935 -0.1352  0.5880 -0.4822
 4615TIP3    H213810   6.970   0.702   0.919  1.2386 -1.5961  3.6516
 4616TIP3   OH213811   6.531   1.856   4.160  0.2350  0.1372 -0.0819
 4616TIP3    H113812   6.622   1.873   4.133  0.6128  0.5635  1.3536
 4616TIP3    H213813   6.480   1.925   4.118  0.9089  1.2356  0.8481
 4617TIP3   OH213814   1.831   1.887   4.542  0.4983 -0.1146 -0.4103
 4617TIP3    H113815   1.865   1.959   4.594 -0.3994  0.7713 -1.0332
 4617TIP3    H213816   1.883   1.889   4.461  0.0466  0.2353 -0.6932
 4618TIP3   OH213817   2.442   6.605   0.547 -0.3388 -0.1303  0.1038
 4618TIP3    H113818   2.448   6.699   0.566 -0.3941 -0.6820  3.5355
 4618TIP3    H213819   2.350   6.584   0.559 -0.1153 -0.8255  0.6782
 4619TIP3   OH213820   1.165   1.410   4.454  0.2728 -0.4860 -0.0340
 4619TIP3    H113821   1.142   1.410   4.361 -0.3212 -2.0114  0.0867
 4619TIP3    H213822   1.128   1.329   4.488 -0.5917  0.6222  1.8153
 4620TIP3   OH213823   1.252   4.514   4.245 -0.2146 -0.6649 -0.2274
 4620TIP3    H113824   1.157   4.503   4.237 -0.1186 -0.9205 -1.1220
 4620TIP3    H213825   1.272   4.485   4.334 -1.0741  0.1190  0.2351
 4621TIP3   OH213826   6.548   6.034   5.830  0.2674  0.2263  0.0179
 4621TIP3    H113827   6.527   5.948   5.792  1.7497 -1.3191  2.4313
 4621TIP3    H213828   6.644   6.040   5.824  0.3914  0.6688  1.8750
 4622TIP3   OH213829   1.214   5.800   3.520  0.1982 -0.4908 -0.0430
 4622TIP3    H113830   1.182   5.866   3.458  1.0544 -0.4515 -0.4594
 4622TIP3    H213831   1.225   5.721   3.468  0.1739 -0.6760  0.2290
 4623TIP3   OH213832   6.166   1.115   2.028  0.7805 -0.1694 -0.1171
 4623TIP3    H113833   6.103   1.149   2.091  0.0521  0.4789 -1.1824
 4623TIP3    H213834   6.196   1.032   2.067  1.0230  0.6379  1.4994
 4624TIP3   OH213835   6.132   6.029   2.285 -0.4400 -0.1705 -0.0168
 4624TIP3    H113836   6.131   5.981   2.202  1.0503  1.5313 -1.0972
 4624TIP3    H213837   6.041   6.058   2.297 -0.9185 -1.4773 -0.3998
 4625TIP3   OH213838   2.703   3.366   5.392 -0.2840 -0.3421  0.0933
 4625TIP3    H113839   2.682   3.322   5.475  1.3965 -0.1048  0.6964
 4625TIP3    H213840   2.753   3.302   5.343 -0.3979 -0.1266 -0.3075
 4626TIP3   OH213841   6.572   0.829   0.535 -0.0486  0.1061 -0.1340
 4626TIP3    H113842   6.506   0.894   0.560 -0.5740 -0.9429  1.3435
 4626TIP3    H213843   6.525   0.746   0.537  0.5446 -0.3357 -2.2343
 4627TIP3   OH213844   0.095   0.335   1.627 -0.0412 -0.5868  0.2678
 4627TIP3    H113845   0.107   0.392   1.551  2.3758 -1.3608 -0.0368
 4627TIP3    H213846   0.095   0.246   1.590  2.0448 -1.0288  1.1569
 4628TIP3   OH213847   2.064   3.787   0.278 -0.0143 -0.2059  0.1944
 4628TIP3    H113848   2.106   3.703   0.296  0.1996  0.1671  1.5162
 4628TIP3    H213849   2.133   3.852   0.291  0.3352  0.1062 -2.6359
 4629TIP3   OH213850   1.551   3.594   3.056  0.1894 -0.3997  0.3990
 4629TIP3    H113851   1.562   3.502   3.081  1.2365 -0.6391 -0.8195
 4629TIP3    H213852   1.571   3.595   2.962 -2.6432  0.5968 -0.2844
 4630TIP3   OH213853   5.291   5.583   3.521  0.1426  1.0345 -0.3280
 4630TIP3    H113854   5.347   5.656   3.494 -0.3794  1.6759  0.2893
 4630TIP3    H213855   5.277   5.532   3.441  1.9247  0.6264 -0.4271
 4631TIP3   OH213856   3.988   5.995   2.234 -0.3527  0.2251 -0.5664
 4631TIP3    H113857   3.947   5.967   2.315 -0.0159 -1.2034 -0.8708
 4631TIP3    H213858   3.974   6.090   2.232 -1.0600  0.1716  0.7527
 4632TIP3   OH213859   4.615   3.128   4.100 -0.5985  0.1938  0.5403
 4632TIP3    H113860   4.665   3.071   4.041 -1.5698  1.0671 -1.1900
 4632TIP3    H213861   4.651   3.215   4.086 -0.9885  0.4493  1.0890
 4633TIP3   OH213862   5.363   3.301   0.332 -0.4074  0.6249  0.1057
 4633TIP3    H113863   5.399   3.353   0.260 -0.0681  1.1699  0.6665
 4633TIP3    H213864   5.296   3.357   0.371  0.4159  0.9118  1.1332
 4634TIP3   OH213865   1.343   3.060   0.423 -0.1445  0.1372 -0.1452
 4634TIP3    H113866   1.381   3.080   0.338  0.2425  0.0947  0.0151
 4634TIP3    H213867   1.358   3.139   0.476 -1.1704  0.5010 -0.3791
 4635TIP3   OH213868   0.777   5.227   1.225  0.1865  0.6492  0.5283
 4635TIP3    H113869   0.705   5.165   1.232  0.6457 -0.0464 -0.5848
 4635TIP3    H213870   0.735   5.313   1.227 -1.1271  0.2906 -3.2932
 4636TIP3   OH213871   2.347   3.583   3.103  0.5209 -0.0677  0.5282
 4636TIP3    H113872   2.325   3.667   3.145 -2.2663 -0.3452 -0.2261
 4636TIP3    H213873   2.417   3.606   3.041 -0.0708  1.6718  0.4370
 4637TIP3   OH213874   0.285   2.071   2.188  0.0966 -0.1561 -0.3910
 4637TIP3    H113875   0.282   2.113   2.274  0.7621  0.4798 -0.6753
 4637TIP3    H213876   0.354   2.005   2.195  1.7772  1.4455 -1.1052
 4638TIP3   OH213877   4.324   0.778   4.134  0.3433 -0.6897 -0.0851
 4638TIP3    H113878   4.396   0.817   4.183 -1.2079  0.1405  1.6319
 4638TIP3    H213879   4.330   0.685   4.152 -1.8682 -0.2458  4.3626
 4639TIP3   OH213880   6.494   3.309   0.051  0.6287  0.1966  0.0274
 4639TIP3    H113881   6.454   3.331   0.135 -1.5297  1.1353 -1.1509
 4639TIP3    H213882   6.587   3.296   0.071  0.2380  0.6883  2.4851
 4640TIP3   OH213883   1.218   2.559   4.762 -0.1258 -0.0026  0.3583
 4640TIP3    H113884   1.262   2.475   4.748  2.8160  1.3755  0.4982
 4640TIP3    H213885   1.194   2.589   4.674 -1.8104 -1.2020  0.3549
 4641TIP3   OH213886   2.805   6.464   4.791 -0.1217  0.3188  0.5433
 4641TIP3    H113887   2.740   6.411   4.837 -1.0451  0.9351 -0.0105
 4641TIP3    H213888   2.889   6.421   4.809 -0.7285 -0.7301  0.9320
 4642TIP3   OH213889   6.604   1.605   5.772  0.1884  0.3991 -0.1719
 4642TIP3    H113890   6.679   1.590   5.714  0.2832 -1.1377  0.2975
 4642TIP3    H213891   6.638   1.660   5.842  1.1747 -1.0612  0.5443
 4643TIP3   OH213892   2.227   1.076   4.346  0.0024  0.3179 -0.2796
 4643TIP3    H113893   2.281   1.094   4.424  1.6001 -0.2689 -1.2068
 4643TIP3    H213894   2.137   1.085   4.377  0.5103 -1.8574  2.1708
 4644TIP3   OH213895   4.614   5.579   3.700 -0.0252 -0.2298  0.0134
 4644TIP3    H113896   4.592   5.542   3.785 -2.3593 -2.0074 -1.2400
 4644TIP3    H213897   4.700   5.542   3.680 -0.2595 -1.2946  0.8448
 4645TIP3   OH213898   1.747   1.722   4.757 -0.3432  0.2841  0.1430
 4645TIP3    H113899   1.684   1.778   4.802 -0.4604  1.0979 -1.0087
 4645TIP3    H213900   1.759   1.762   4.671  1.0272 -0.3955 -0.0090
 4646TIP3   OH213901   1.654   3.362   2.299  0.0104 -0.1179 -0.2561
 4646TIP3    H113902   1.701   3.282   2.275  0.8440  0.0224  0.8558
 4646TIP3    H213903   1.563   3.343   2.277  0.2366 -1.2779 -0.2358
 4647TIP3   OH213904   0.789   4.692   1.741 -0.0519 -0.1436 -0.4323
 4647TIP3    H113905   0.709   4.686   1.793  0.0005 -0.8286 -0.4191
 4647TIP3    H213906   0.826   4.604   1.744  1.4573  0.4997  0.7454
 4648TIP3   OH213907   4.938   6.098   2.647 -0.5024 -0.1915  0.9419
 4648TIP3    H113908   4.955   6.189   2.671  1.3758 -0.0008 -0.8368
 4648TIP3    H213909   4.921   6.100   2.553 -0.5001 -1.6693  0.8797
 4649TIP3   OH213910   5.913   4.176   4.407 -0.3848 -0.1551  0.3341
 4649TIP3    H113911   5.929   4.135   4.322  1.5360 -1.1160  1.0985
 4649TIP3    H213912   5.984   4.240   4.416 -1.4090  0.9784  0.6177
 4650TIP3   OH213913   0.944   4.396   5.078 -0.0281 -0.0561 -0.1989
 4650TIP3    H113914   0.924   4.303   5.070  1.1186 -0.3424  0.1229
 4650TIP3    H213915   1.014   4.412   5.016 -0.9206  0.8423 -1.0140
 4651TIP3   OH213916   6.370   3.778   1.143 -0.2962 -0.4529  0.3587
 4651TIP3    H113917   6.325   3.722   1.206 -0.4777 -0.7665 -0.0486
 4651TIP3    H213918   6.306   3.790   1.073 -0.4803  0.7248  0.6931
 4652TIP3   OH213919   1.177   3.360   5.026  0.2700 -0.0038 -0.4258
 4652TIP3    H113920   1.249   3.419   5.003  1.0380 -1.0418 -0.7458
 4652TIP3    H213921   1.213   3.304   5.095 -0.8277  0.6502  0.7118
 4653TIP3   OH213922   1.226   4.887   1.564  0.0838  0.0040 -0.5512
 4653TIP3    H113923   1.307   4.893   1.513  0.5591  2.4921  0.3774
 4653TIP3    H213924   1.160   4.858   1.500  1.3267 -0.3090 -1.7407
 4654TIP3   OH213925   5.251   2.719   5.085 -0.8721  0.2659  0.3836
 4654TIP3    H113926   5.310   2.696   5.156 -1.8464  0.9147  1.4267
 4654TIP3    H213927   5.223   2.809   5.104 -3.0440 -0.3805  0.5387
 4655TIP3   OH213928   2.220   5.303   1.146 -0.3777 -0.0069  0.3565
 4655TIP3    H113929   2.183   5.368   1.085 -0.3511 -0.2049  0.1289
 4655TIP3    H213930   2.151   5.291   1.211  0.4345  1.8757  1.6550
 4656TIP3   OH213931   3.863   5.966   1.318 -0.2263  0.2409  0.4231
 4656TIP3    H113932   3.882   6.060   1.319 -1.1554  0.4549  1.8588
 4656TIP3    H213933   3.789   5.957   1.258 -0.1460  0.4282  0.2952
 4657TIP3   OH213934   4.507   0.156   5.528  0.8361  0.0010  0.0675
 4657TIP3    H113935   4.500   0.121   5.617  3.0607  1.4668  0.9205
 4657TIP3    H213936   4.540   0.083   5.476 -0.3185 -0.8266  0.4503
 4658TIP3   OH213937   2.826   3.358   5.077  0.1800  0.2455  0.0189
 4658TIP3    H113938   2.792   3.374   4.988 -0.8711 -1.4789  0.0671
 4658TIP3    H213939   2.901   3.301   5.063  0.4451  0.5527  0.1951
 4659TIP3   OH213940   0.262   5.322   0.570 -0.1861  0.3025  0.0068
 4659TIP3    H113941   0.305   5.288   0.648 -0.3139  0.2056  0.0365
 4659TIP3    H213942   0.326   5.310   0.500 -0.2110  0.0467  0.0270
 4660TIP3   OH213943   5.958   5.692   2.943 -0.0857  0.3076 -0.4945
 4660TIP3    H113944   5.946   5.787   2.934 -0.1251  0.2408 -1.1965
 4660TIP3    H213945   5.996   5.665   2.860  0.9872 -0.1331  0.1315
 4661TIP3   OH213946   5.726  -0.006   1.135 -0.0093 -0.3618 -0.4531
 4661TIP3    H113947   5.784   0.020   1.206  0.3123  0.2923 -0.9469
 4661TIP3    H213948   5.670   0.070   1.120  1.6285  0.5487 -2.6175
 4662TIP3   OH213949   4.422   6.550   3.391 -0.6396 -0.3212 -0.7135
 4662TIP3    H113950   4.338   6.583   3.423 -0.4111 -0.1536 -0.2936
 4662TIP3    H213951   4.437   6.599   3.310 -0.5957  0.1777 -0.4103
 4663TIP3   OH213952   2.941   1.299   2.491 -0.2323  0.0130 -0.2388
 4663TIP3    H113953   2.897   1.383   2.501 -1.6223 -0.6098 -0.8629
 4663TIP3    H213954   2.989   1.307   2.408  0.6662  0.5951  0.3098
 4664TIP3   OH213955   2.376   0.713   4.120 -0.3088  0.3280 -0.2494
 4664TIP3    H113956   2.379   0.684   4.030  0.1718 -1.9394  0.4437
 4664TIP3    H213957   2.351   0.806   4.115  2.4301  1.0564 -2.8258
 4665TIP3   OH213958   3.039   0.747   2.527  0.3879 -0.2283 -0.4175
 4665TIP3    H113959   3.002   0.804   2.459 -0.4187  0.0302  0.2187
 4665TIP3    H213960   3.110   0.799   2.565  0.7001 -0.2891 -0.9024
 4666TIP3   OH213961   2.858   6.677   4.437 -0.0117 -0.5370 -0.2421
 4666TIP3    H113962   2.888   6.620   4.366  0.7161  0.7572 -1.0105
 4666TIP3    H213963   2.938   6.704   4.481 -0.3763 -0.3960  0.3444
 4667TIP3   OH213964   6.662   1.637   5.246 -0.2730  0.3139 -0.0876
 4667TIP3    H113965   6.684   1.674   5.160  0.2464  0.7401  0.2229
 4667TIP3    H213966   6.640   1.713   5.300 -3.8734 -0.1230 -0.7111
 4668TIP3   OH213967   0.432   6.381   5.524  0.1089 -0.0879  0.2714
 4668TIP3    H113968   0.371   6.333   5.468 -0.7730  0.0988  1.0498
 4668TIP3    H213969   0.494   6.421   5.463  0.4786 -1.6564 -0.4346
 4669TIP3   OH213970   1.620   4.170   1.574 -0.0470  0.1562  0.0029
 4669TIP3    H113971   1.659   4.248   1.533 -2.1094  0.9344 -0.6205
 4669TIP3    H213972   1.539   4.156   1.525 -0.4532 -1.5155  1.0929
 4670TIP3   OH213973   4.869   6.473   4.974 -0.4560  0.6007  0.1298
 4670TIP3    H113974   4.912   6.470   5.060 -0.8294 -0.4457  0.2820
 4670TIP3    H213975   4.776   6.459   4.992 -0.4759 -0.1229 -0.4950
 4671TIP3   OH213976   0.320   3.837   2.060  0.8787 -0.3888 -0.1445
 4671TIP3    H113977   0.295   3.800   1.975  0.4450 -0.7962  0.1568
 4671TIP3    H213978   0.294   3.770   2.123 -0.4339  0.6618  0.4702
 4672TIP3   OH213979   6.171   1.860   5.053 -0.0692  0.1864  0.0358
 4672TIP3    H113980   6.228   1.849   4.976 -0.1623  0.8924 -0.1430
 4672TIP3    H213981   6.155   1.771   5.084  1.7763 -0.0006  0.5629
 4673TIP3   OH213982   7.208   0.713   2.181 -0.1434  0.3180  0.0879
 4673TIP3    H113983   7.201   0.804   2.209  1.2837  0.3776  0.3240
 4673TIP3    H213984   7.173   0.713   2.091 -1.9627  0.6882  0.7502
 4674TIP3   OH213985   6.586   4.213   3.384  0.1429  0.4432 -0.3835
 4674TIP3    H113986   6.614   4.247   3.468  0.4293 -0.0810 -0.2646
 4674TIP3    H213987   6.653   4.242   3.322  0.8455 -0.6027 -0.1406
 4675TIP3   OH213988   1.197   0.910   0.439 -0.1178 -0.1218 -0.1054
 4675TIP3    H113989   1.102   0.904   0.453  0.1433 -3.1168  1.1173
 4675TIP3    H213990   1.219   1.000   0.463 -2.5063  0.4129  0.3797
 4676TIP3   OH213991   6.782   2.951   5.304  0.1652 -0.7269  0.0484
 4676TIP3    H113992   6.822   3.034   5.329 -0.9936 -0.2480  0.3999
 4676TIP3    H213993   6.688   2.968   5.307 -0.0706 -1.6512 -1.3188
 4677TIP3   OH213994   0.653   3.355   0.640 -0.2352  0.8612 -0.4500
 4677TIP3    H113995   0.678   3.424   0.578  1.3793  1.6017  0.9302
 4677TIP3    H213996   0.558   3.353   0.637 -0.4330  4.0814  0.3853
 4678TIP3   OH213997   4.050   4.835   3.908 -0.4902  0.0463  0.2419
 4678TIP3    H113998   3.982   4.903   3.915 -0.8266  0.1911 -3.0089
 4678TIP3    H213999   4.127   4.874   3.948 -1.5096  1.0861  1.2748
 4679TIP3   OH214000   0.427   3.244   5.336  0.5096 -0.0572  0.9196
 4679TIP3    H114001   0.478   3.268   5.413  0.7647  1.9095  0.2141
 4679TIP3    H214002   0.488   3.197   5.280  1.0403  0.6445  0.8916
 4680TIP3   OH214003   6.873   6.104   0.215 -0.1295  0.1616  0.1791
 4680TIP3    H114004   6.877   6.094   0.310  1.5807  1.1282  0.2549
 4680TIP3    H214005   6.906   6.022   0.180  0.3230  0.2222  0.4581
 4681TIP3   OH214006   2.216   0.554   1.803 -0.1078 -0.0173 -0.3782
 4681TIP3    H114007   2.276   0.629   1.797 -0.1530  0.1603  1.1365
 4681TIP3    H214008   2.272   0.479   1.823 -0.4004  0.2333  1.5275
 4682TIP3   OH214009   4.168   1.454   1.972 -0.3861 -0.1432  0.1694
 4682TIP3    H114010   4.158   1.417   1.885  1.4621 -2.8699  0.9776
 4682TIP3    H214011   4.225   1.530   1.960 -0.0778 -0.5475 -1.0023
 4683TIP3   OH214012   1.285   2.140   1.445 -0.0674 -0.3427  0.7898
 4683TIP3    H114013   1.254   2.225   1.415  0.2269 -0.0857  1.2007
 4683TIP3    H214014   1.217   2.110   1.506 -0.0270 -0.2684  0.8710
 4684TIP3   OH214015   0.808   0.277   2.122  0.4111 -0.2257 -0.3502
 4684TIP3    H114016   0.780   0.329   2.046 -2.5411 -0.3606  0.5108
 4684TIP3    H214017   0.731   0.227   2.146  1.6540 -1.1698  1.9778
 4685TIP3   OH214018   6.180   5.370   5.685 -0.0722  0.3107 -0.0796
 4685TIP3    H114019   6.148   5.460   5.688  0.6832  0.5686  0.5278
 4685TIP3    H214020   6.264   5.375   5.639 -0.8793 -0.3697 -1.7085
 4686TIP3   OH214021   3.427   1.942   2.560  0.4298  0.0118  0.3621
 4686TIP3    H114022   3.332   1.926   2.566  0.5129 -0.4860  0.3896
 4686TIP3    H214023   3.466   1.874   2.615  0.8287 -0.1063 -0.0602
 4687TIP3   OH214024   5.770   1.685   0.658 -0.4240  0.4266  0.6884
 4687TIP3    H114025   5.706   1.756   0.663  0.0531  0.9594 -0.3643
 4687TIP3    H214026   5.802   1.675   0.748 -0.7043  1.3620  0.9012
 4688TIP3   OH214027   0.640   6.115   2.082 -0.4266  0.2213  0.0643
 4688TIP3    H114028   0.727   6.117   2.122 -1.5589  1.0667  2.7270
 4688TIP3    H214029   0.607   6.027   2.099 -0.6940  0.4015  0.4855
 4689TIP3   OH214030   5.217   4.067   5.498  0.2516  0.2362  0.2040
 4689TIP3    H114031   5.160   4.022   5.560 -0.7266  0.7283 -0.3207
 4689TIP3    H214032   5.289   4.101   5.552 -0.2955  0.1824  0.9835
 4690TIP3   OH214033   3.394   2.111   4.652  0.8365 -0.2760 -0.0080
 4690TIP3    H114034   3.418   2.018   4.653 -3.2412 -1.5393  1.6954
 4690TIP3    H214035   3.343   2.121   4.571 -0.2647 -0.0731  0.6830
 4691TIP3   OH214036   4.791   1.366   3.491 -0.1168  0.0186  0.7296
 4691TIP3    H114037   4.870   1.355   3.437 -1.1135  1.2874 -1.1020
 4691TIP3    H214038   4.787   1.460   3.510 -1.4307  0.0664  0.3496
 4692TIP3   OH214039   5.409   5.522   4.104 -0.1290  0.9462 -0.3697
 4692TIP3    H114040   5.442   5.559   4.186 -0.9680 -0.8607  0.8586
 4692TIP3    H214041   5.332   5.574   4.083 -0.6885  0.6079  0.7576
 4693TIP3   OH214042   6.058   1.431   2.491  0.1057  0.1694  0.0292
 4693TIP3    H114043   5.971   1.400   2.512  0.3002  1.4911  3.3247
 4693TIP3    H214044   6.043   1.506   2.433 -0.7414 -0.9433 -1.2645
 4694TIP3   OH214045   2.596   5.532   5.335  0.7676 -0.3244 -0.2711
 4694TIP3    H114046   2.541   5.489   5.269  0.8774 -1.0638  0.1120
 4694TIP3    H214047   2.624   5.613   5.293 -0.2440 -0.1581 -0.6390
 4695TIP3   OH214048   1.436   2.995   0.143  0.1678 -0.4756 -0.5678
 4695TIP3    H114049   1.423   2.901   0.146  0.3761 -0.4824  0.6940
 4695TIP3    H214050   1.529   3.008   0.162 -0.3896  0.0668  2.3576
 4696TIP3   OH214051   5.131   2.703   4.483  0.3517  0.3969  0.5170
 4696TIP3    H114052   5.159   2.783   4.439 -1.1215  0.4035 -0.4836
 4696TIP3    H214053   5.058   2.730   4.538 -2.0879 -0.6287 -1.9867
 4697TIP3   OH214054   4.883   3.219   0.588 -0.2230  0.3326  0.1734
 4697TIP3    H114055   4.899   3.271   0.667 -0.0464  0.0497  0.3226
 4697TIP3    H214056   4.828   3.276   0.533 -1.4692  0.0182  1.0635
 4698TIP3   OH214057   2.301   0.794   4.544 -0.5329 -0.2847 -0.1962
 4698TIP3    H114058   2.309   0.718   4.602  0.7152  1.1141  1.5785
 4698TIP3    H214059   2.242   0.765   4.475 -1.5502 -2.2740  1.3955
 4699TIP3   OH214060   3.633   5.427   0.806  0.0462  0.5373 -0.1123
 4699TIP3    H114061   3.695   5.456   0.873 -0.0510 -0.8741  0.6458
 4699TIP3    H214062   3.688   5.386   0.739  0.0086 -0.0419  0.1995
 4700TIP3   OH214063   6.803   4.836   0.661 -0.7872 -0.1990 -0.2405
 4700TIP3    H114064   6.813   4.831   0.756  2.9596  0.8674 -0.4375
 4700TIP3    H214065   6.828   4.749   0.630 -1.5026 -0.3860 -0.3160
 4701TIP3   OH214066   1.292   6.045   0.880 -0.4751 -0.0244 -0.1433
 4701TIP3    H114067   1.328   5.957   0.870  0.5816  0.2302  1.1187
 4701TIP3    H214068   1.261   6.048   0.970 -0.2865  0.9691 -0.1047
 4702TIP3   OH214069   4.679   4.618   2.016 -0.0458  0.3825 -0.4304
 4702TIP3    H114070   4.681   4.705   2.056  0.6163 -0.9134  2.6008
 4702TIP3    H214071   4.757   4.574   2.049 -1.9983 -2.4166  0.8389
 4703TIP3   OH214072   1.293   4.978   2.541  0.4111 -0.0876 -0.1929
 4703TIP3    H114073   1.245   5.057   2.517  0.9885 -0.1206 -1.5202
 4703TIP3    H214074   1.339   4.953   2.462 -1.2235 -2.8354 -0.4008
 4704TIP3   OH214075   5.701   6.240   0.578  0.9170 -0.2273 -0.5336
 4704TIP3    H114076   5.736   6.290   0.652 -0.4437 -1.2038  0.8028
 4704TIP3    H214077   5.676   6.308   0.514  1.7202  0.6474  0.0461
 4705TIP3   OH214078   5.680   1.163   1.473 -0.1844  0.0616 -0.5143
 4705TIP3    H114079   5.692   1.250   1.510 -0.2515  0.0694 -0.5101
 4705TIP3    H214080   5.588   1.161   1.446 -0.1853 -0.0111 -0.5051
 4706TIP3   OH214081   2.095   0.360   4.217 -0.2349  0.3691 -0.0792
 4706TIP3    H114082   2.035   0.382   4.288  0.1148  0.0159  0.3374
 4706TIP3    H214083   2.160   0.430   4.218  0.4565 -0.2653  0.7564
 4707TIP3   OH214084   2.302   1.481   4.018  0.1768  0.0961 -0.7994
 4707TIP3    H114085   2.310   1.403   3.963  0.8176 -0.4237 -0.0002
 4707TIP3    H214086   2.217   1.472   4.061  0.6028 -0.6034 -0.0763
 4708TIP3   OH214087   6.878   5.835   0.105 -0.2219  0.5344 -0.4185
 4708TIP3    H114088   6.799   5.840   0.052 -1.0430  1.2848  0.8144
 4708TIP3    H214089   6.855   5.775   0.176  0.9826 -0.7606 -1.0773
 4709TIP3   OH214090   3.331   4.347   4.277  0.2875  0.4790  0.2172
 4709TIP3    H114091   3.351   4.290   4.352  0.1752 -1.3496 -1.0933
 4709TIP3    H214092   3.394   4.321   4.210  0.0815  1.7690 -0.5056
 4710TIP3   OH214093   6.929   3.930   2.078  0.5372  0.1272  0.1633
 4710TIP3    H114094   6.926   4.023   2.102 -0.1481  0.5988 -1.6314
 4710TIP3    H214095   6.908   3.928   1.985  0.0934 -1.8795  0.2606
 4711TIP3   OH214096   6.602   2.109   1.654 -0.6921  0.2434  0.3684
 4711TIP3    H114097   6.639   2.023   1.634 -0.8625  0.2951 -0.2072
 4711TIP3    H214098   6.676   2.169   1.645 -0.9020  0.3610 -0.8909
 4712TIP3   OH214099   3.210   1.450   1.311 -0.0657  0.0372  0.4751
 4712TIP3    H114100   3.230   1.431   1.219  0.5620  0.7018  0.4636
 4712TIP3    H214101   3.135   1.394   1.331 -0.0828 -0.2687 -0.3821
 4713TIP3   OH214102   6.723   4.870   3.944 -0.2378  0.2000  0.1394
 4713TIP3    H114103   6.652   4.835   3.890 -1.7876  4.0099 -0.6069
 4713TIP3    H214104   6.678   4.917   4.015  1.4919  2.0234  0.1232
 4714TIP3   OH214105   6.376   2.755   5.617 -0.6022  0.1509  0.3493
 4714TIP3    H114106   6.317   2.696   5.664  0.0352 -0.7517  0.0460
 4714TIP3    H214107   6.429   2.794   5.686 -1.6041  1.0509  0.6350
 4715TIP3   OH214108   3.920   3.698   2.246 -0.6966 -0.4794 -0.6378
 4715TIP3    H114109   3.958   3.735   2.326  1.1488 -2.5572 -0.4433
 4715TIP3    H214110   3.829   3.679   2.270  0.0568 -1.9561  1.3996
 4716TIP3   OH214111   2.640   2.572   4.804 -0.0782 -0.2203 -0.3862
 4716TIP3    H114112   2.606   2.488   4.774 -0.1336  0.3906 -2.1441
 4716TIP3    H214113   2.582   2.637   4.763  0.1078  0.6842  0.7485
 4717TIP3   OH214114   5.999   0.703   2.152 -0.6655 -0.5210 -0.7234
 4717TIP3    H114115   6.090   0.728   2.172 -0.8857 -0.0109 -0.3202
 4717TIP3    H214116   6.006   0.643   2.078 -0.0297 -0.1327 -0.9841
 4718TIP3   OH214117   0.252   0.637   0.265 -0.1750 -1.1239 -0.5531
 4718TIP3    H114118   0.157   0.638   0.265 -0.2082 -0.3559  1.0955
 4718TIP3    H214119   0.277   0.651   0.174 -1.6648  1.6208 -0.6395
 4719TIP3   OH214120   4.995   3.675   2.769 -0.0143 -0.5447  0.0014
 4719TIP3    H114121   5.069   3.665   2.710 -0.6191 -1.8454 -0.5697
 4719TIP3    H214122   5.026   3.642   2.853  0.3381 -0.2255 -0.0026
 4720TIP3   OH214123   5.921   3.359   1.245  0.6032 -0.9336  0.6029
 4720TIP3    H114124   5.844   3.369   1.301  1.1900 -1.0660  1.4575
 4720TIP3    H214125   5.901   3.282   1.191  0.0693 -0.8556  0.6791
 4721TIP3   OH214126   6.448   4.569   4.851  0.1912 -0.3196 -0.0700
 4721TIP3    H114127   6.392   4.642   4.875  0.5656 -0.5208  1.4835
 4721TIP3    H214128   6.537   4.598   4.872  0.5404 -0.5358 -1.1791
 4722TIP3   OH214129   4.804   6.233   1.411 -0.3772 -0.2512  0.3677
 4722TIP3    H114130   4.825   6.323   1.382  0.8293 -1.0741 -1.5563
 4722TIP3    H214131   4.821   6.179   1.333 -0.6272 -2.2110  1.6193
 4723TIP3   OH214132   6.617   2.065   2.354 -0.0320  0.0430 -0.2794
 4723TIP3    H114133   6.702   2.107   2.340  0.7227 -1.6118 -1.0657
 4723TIP3    H214134   6.553   2.135   2.346  1.1009  0.9470 -2.1096
 4724TIP3   OH214135   2.207   4.264   5.711  0.2828  0.1822  0.3467
 4724TIP3    H114136   2.294   4.290   5.744  0.8312  1.1447 -1.6709
 4724TIP3    H214137   2.148   4.279   5.785  1.7498 -0.0052  1.6099
 4725TIP3   OH214138   1.589   1.961   1.689 -0.3421 -0.0425  0.4373
 4725TIP3    H114139   1.495   1.971   1.682 -0.5033 -1.7969 -0.3960
 4725TIP3    H214140   1.615   2.023   1.757 -1.9207  1.2749 -0.1103
 4726TIP3   OH214141   6.639   5.369   0.192  0.3753 -0.1623  0.6248
 4726TIP3    H114142   6.549   5.400   0.205  0.8535  1.0574  1.1920
 4726TIP3    H214143   6.678   5.372   0.280  1.2732  0.3020  0.2189
 4727TIP3   OH214144   6.224   6.578   1.905  0.1892 -0.5024  0.1176
 4727TIP3    H114145   6.204   6.583   1.811  1.6249 -4.2748 -0.5966
 4727TIP3    H214146   6.307   6.625   1.913  0.2166 -0.4071 -0.5866
 4728TIP3   OH214147   3.593   6.747   4.922 -0.2640  0.2516 -0.4056
 4728TIP3    H114148   3.597   6.699   5.004  0.6293  1.4735  0.3000
 4728TIP3    H214149   3.555   6.832   4.946  1.8694  1.3849 -0.8346
 4729TIP3   OH214150   6.194   5.903   2.902  0.0906  0.7142 -0.1053
 4729TIP3    H114151   6.174   5.856   2.983  5.1129  0.8507  1.5262
 4729TIP3    H214152   6.139   5.982   2.905 -2.3448 -0.9326  1.3080
 4730TIP3   OH214153   2.513   4.599   2.297  0.6789  0.0753  0.5602
 4730TIP3    H114154   2.584   4.590   2.233  1.5548  1.2455  1.3360
 4730TIP3    H214155   2.556   4.587   2.382 -0.2783 -0.3716  0.9947
 4731TIP3   OH214156   0.343   5.001   2.989 -0.3600  0.0288  0.0172
 4731TIP3    H114157   0.359   4.972   3.079  1.9800 -0.0094 -0.3502
 4731TIP3    H214158   0.311   4.922   2.944 -0.2183 -0.3064  0.4968
 4732TIP3   OH214159   0.266   5.786   2.285  0.2791 -0.3827  0.7006
 4732TIP3    H114160   0.284   5.873   2.248  1.3352 -0.4362  1.0416
 4732TIP3    H214161   0.327   5.728   2.240  0.8416 -0.6286  1.7382
 4733TIP3   OH214162   0.743   1.234   5.851  0.1389  0.1348  0.4788
 4733TIP3    H114163   0.659   1.233   5.805 -1.2923  2.2662  2.8086
 4733TIP3    H214164   0.808   1.233   5.781 -1.8634  0.8900 -1.5118
 4734TIP3   OH214165   3.460   5.300   5.401  0.4599  0.1712 -0.3131
 4734TIP3    H114166   3.369   5.286   5.376  0.1582 -1.2020  1.3525
 4734TIP3    H214167   3.504   5.325   5.320 -1.4796  1.4136 -1.0524
 4735TIP3   OH214168   6.835   0.638   3.390  0.0489  0.2507  0.8216
 4735TIP3    H114169   6.822   0.699   3.463  1.5849  2.1743 -0.4255
 4735TIP3    H214170   6.757   0.650   3.336 -0.6676 -0.5180  1.6513
 4736TIP3   OH214171   6.072   2.963   4.340 -0.5405 -0.8254  0.1298
 4736TIP3    H114172   6.072   3.042   4.394  0.4182 -0.5120 -0.3167
 4736TIP3    H214173   6.154   2.919   4.362 -0.4272 -0.9995 -0.6202
 4737TIP3   OH214174   2.479   0.352   4.172 -0.5928 -0.5651 -0.4116
 4737TIP3    H114175   2.471   0.259   4.152 -1.1207 -0.4727 -0.6462
 4737TIP3    H214176   2.438   0.362   4.258  0.6178 -0.7617  0.2034
 4738TIP3   OH214177   3.733   1.214   2.827  0.0068 -0.2223  0.2367
 4738TIP3    H114178   3.718   1.306   2.852  0.4965 -0.1732  0.3497
 4738TIP3    H214179   3.801   1.218   2.760 -1.3123 -0.3471 -1.1867
 4739TIP3   OH214180   2.089   0.629   0.569 -0.6887 -0.1464 -0.1467
 4739TIP3    H114181   2.148   0.683   0.621 -1.9771 -0.8829  2.2421
 4739TIP3    H214182   2.006   0.677   0.571 -0.9075 -0.4880 -1.0330
 4740TIP3   OH214183   0.961   3.910   5.619 -0.9447 -0.4195 -0.5393
 4740TIP3    H114184   0.893   3.972   5.645 -0.6106 -0.5912  0.8440
 4740TIP3    H214185   0.978   3.859   5.699 -1.1123 -2.2080 -1.5816
 4741TIP3   OH214186   1.939   1.969   1.772 -0.3001  0.1524 -0.1510
 4741TIP3    H114187   1.928   2.011   1.687  1.2502 -1.8889 -1.4279
 4741TIP3    H214188   1.901   1.882   1.761  1.6597 -0.8526  0.5918
 4742TIP3   OH214189   1.850   3.729   4.598 -0.1114  0.2088  0.4173
 4742TIP3    H114190   1.798   3.738   4.518 -0.9115  1.8769  1.0742
 4742TIP3    H214191   1.931   3.686   4.569 -0.8690 -0.2923 -1.0615
 4743TIP3   OH214192   0.702   0.614   5.752 -0.0880  0.1923 -0.2602
 4743TIP3    H114193   0.710   0.702   5.714  0.0609  0.1918 -0.2291
 4743TIP3    H214194   0.713   0.628   5.847 -0.8462  0.2483 -0.1736
 4744TIP3   OH214195   4.021   0.958   5.003  0.1217 -0.1851  0.3167
 4744TIP3    H114196   4.035   0.869   4.971 -0.9889  0.2170 -1.4460
 4744TIP3    H214197   3.935   0.982   4.969  0.1360  1.3620  1.2740
 4745TIP3   OH214198   1.259   0.617   5.515  0.6721 -0.6940 -0.3716
 4745TIP3    H114199   1.273   0.535   5.467  0.3128  0.2883 -2.2182
 4745TIP3    H214200   1.200   0.668   5.459  0.8068  0.7982  0.7983
 4746TIP3   OH214201   1.818   1.343   2.808  0.4407 -0.2498  0.2373
 4746TIP3    H114202   1.867   1.276   2.857  1.7719  0.3032 -0.2781
 4746TIP3    H214203   1.827   1.316   2.717 -0.4937 -0.2919  0.1503
 4747TIP3   OH214204   5.529   4.686   4.491 -0.2826  1.3335 -0.1165
 4747TIP3    H114205   5.480   4.677   4.410 -2.0853  2.1402  0.8147
 4747TIP3    H214206   5.468   4.730   4.551  1.2883  1.5642  1.3980
 4748TIP3   OH214207   3.159   1.740   0.731 -0.1753 -0.1047  0.2594
 4748TIP3    H114208   3.174   1.829   0.762  1.7302 -0.3216  0.0902
 4748TIP3    H214209   3.219   1.686   0.782 -0.2529 -1.0946 -0.6496
 4749TIP3   OH214210   3.356   5.043   1.359 -0.3688 -0.7404  0.2868
 4749TIP3    H114211   3.382   5.135   1.346 -2.6435 -0.1092 -0.3644
 4749TIP3    H214212   3.436   4.993   1.345  0.6555  1.0692 -0.6862
 4750TIP3   OH214213   5.789   2.908   0.557 -0.4041 -0.3851  0.7743
 4750TIP3    H114214   5.773   2.943   0.470  0.4689 -1.2080  0.2673
 4750TIP3    H214215   5.845   2.974   0.599 -0.9262  0.0684  0.7717
 4751TIP3   OH214216   5.865   1.243   0.097  0.7563 -0.3780 -0.0652
 4751TIP3    H114217   5.857   1.246   0.002  1.9626  1.0193 -0.1542
 4751TIP3    H214218   5.956   1.219   0.113  0.4774 -0.9546  0.7582
 4752TIP3   OH214219   6.328   5.045   2.417 -0.0772  0.5090  0.3217
 4752TIP3    H114220   6.397   4.980   2.401 -0.6729  0.5825 -3.5928
 4752TIP3    H214221   6.266   5.001   2.475  0.8616 -1.4298 -0.0662
 4753TIP3   OH214222   2.390   3.495   4.117  0.3646 -0.1880  0.3724
 4753TIP3    H114223   2.377   3.547   4.196  0.9097  0.3476  0.1250
 4753TIP3    H214224   2.320   3.430   4.118 -0.9841  1.2015  0.1638
 4754TIP3   OH214225   2.593   5.655   2.894 -0.4858  0.7602  0.1262
 4754TIP3    H114226   2.526   5.710   2.935  0.8568  1.1535  1.9267
 4754TIP3    H214227   2.543   5.587   2.848 -2.1244  1.6322  0.5335
 4755TIP3   OH214228   0.776   1.949   5.443 -0.2094 -0.0782  0.3173
 4755TIP3    H114229   0.732   1.945   5.528 -1.5436  0.1101 -0.3344
 4755TIP3    H214230   0.707   1.928   5.379  1.0135 -1.3710 -0.6629
 4756TIP3   OH214231   5.093   3.315   0.191  0.3239 -0.5446  0.1441
 4756TIP3    H114232   5.050   3.394   0.223  1.4255  0.8866 -1.7055
 4756TIP3    H214233   5.166   3.301   0.251 -0.2961 -0.5948  0.8995
 4757TIP3   OH214234   4.401   0.921   2.564  0.5630 -0.0226 -0.3871
 4757TIP3    H114235   4.394   0.851   2.499 -0.9057 -3.0028  2.6893
 4757TIP3    H214236   4.472   0.893   2.622 -0.9272  0.2518  1.6778
 4758TIP3   OH214237   6.150   3.806   4.213 -0.1555 -0.2387  1.0318
 4758TIP3    H114238   6.214   3.774   4.276  1.5524 -0.1795 -0.5761
 4758TIP3    H214239   6.176   3.897   4.196 -1.1588  0.0439  0.9171
 4759TIP3   OH214240   2.020   1.963   5.498  0.7180 -0.4808 -0.2523
 4759TIP3    H114241   1.951   2.001   5.553  1.2784  0.0530  0.0929
 4759TIP3    H214242   2.085   1.931   5.561  2.1049  1.4947 -0.5816
 4760TIP3   OH214243   5.237   3.891   0.914  0.0936  0.4265 -0.1846
 4760TIP3    H114244   5.302   3.830   0.949  1.4621  1.3907 -0.9568
 4760TIP3    H214245   5.226   3.864   0.823 -0.4192  0.4281 -0.1282
 4761TIP3   OH214246   1.561   4.553   3.721  0.8759 -0.2342  0.2228
 4761TIP3    H114247   1.499   4.610   3.765 -0.2214  0.3288 -1.8855
 4761TIP3    H214248   1.547   4.466   3.759 -1.5274 -0.1941 -0.4391
 4762TIP3   OH214249   6.753   3.688   2.529  0.1999 -0.0422 -0.5447
 4762TIP3    H114250   6.802   3.755   2.577  0.3509  0.2692 -1.1167
 4762TIP3    H214251   6.789   3.692   2.440 -1.5572  0.9317 -1.2619
 4763TIP3   OH214252   0.930   6.018   2.142 -0.1413  0.5822  0.4436
 4763TIP3    H114253   0.982   5.988   2.067 -0.2581  2.4943 -0.4572
 4763TIP3    H214254   0.869   5.946   2.159  0.0302  0.0075 -1.1729
 4764TIP3   OH214255   3.057   2.229   5.437  0.8276 -0.0719  0.1195
 4764TIP3    H114256   3.016   2.269   5.360 -0.8592  0.3898  1.1951
 4764TIP3    H214257   3.100   2.151   5.403 -0.1326 -0.0457 -1.2648
 4765TIP3   OH214258   6.884   1.875   2.598  0.1389  0.2560  0.4170
 4765TIP3    H114259   6.890   1.836   2.511  0.6358 -0.7193  0.8768
 4765TIP3    H214260   6.929   1.813   2.656 -2.3283 -0.3870  1.7970
 4766TIP3   OH214261   1.446   1.993   1.253 -0.2392 -0.2318 -0.3815
 4766TIP3    H114262   1.392   2.053   1.304 -0.2354  0.6374 -1.3567
 4766TIP3    H214263   1.453   2.035   1.167 -2.2064 -2.7201 -1.9015
 4767TIP3   OH214264   1.533   2.541   2.901  0.4479  0.3814  0.0996
 4767TIP3    H114265   1.614   2.498   2.874 -0.0985 -1.5834  1.3625
 4767TIP3    H214266   1.468   2.470   2.904 -0.3865  1.1341  2.8476
 4768TIP3   OH214267   6.846   5.494   3.130  0.8388  0.2787  0.1962
 4768TIP3    H114268   6.861   5.415   3.077  2.1073  1.6448 -1.5794
 4768TIP3    H214269   6.792   5.550   3.074  2.1099  1.7101  0.3490
 4769TIP3   OH214270   4.514   3.626   0.313 -0.6826  0.3295 -0.8271
 4769TIP3    H114271   4.504   3.594   0.223 -2.5909  0.3977 -0.6967
 4769TIP3    H214272   4.429   3.606   0.354  0.5488 -0.8519  1.3357
 4770TIP3   OH214273   4.735   1.609   3.564  0.4184 -0.3307  0.3220
 4770TIP3    H114274   4.808   1.659   3.601  1.0466 -1.1876  0.2731
 4770TIP3    H214275   4.696   1.668   3.499  0.0943  0.7091  1.4221
 4771TIP3   OH214276   4.588   2.607   2.261  0.2043 -0.3526  0.2212
 4771TIP3    H114277   4.516   2.545   2.277 -2.6885  2.3146 -1.4524
 4771TIP3    H214278   4.550   2.693   2.274  3.5982  1.2462  0.7690
 4772TIP3   OH214279   4.760   0.309   4.291 -0.6338  0.0893 -0.7797
 4772TIP3    H114280   4.835   0.297   4.349 -0.0580  0.9556 -1.3237
 4772TIP3    H214281   4.729   0.398   4.309 -1.4068 -0.1810 -0.7181
 4773TIP3   OH214282   3.533   5.268   1.317 -0.1030 -0.1287 -0.3051
 4773TIP3    H114283   3.503   5.331   1.252  0.2857  1.2206  0.7796
 4773TIP3    H214284   3.614   5.232   1.281  0.0594  0.5335 -0.6131
 4774TIP3   OH214285   0.433   0.689   3.299  0.4392 -0.8694 -0.1522
 4774TIP3    H114286   0.424   0.709   3.392  2.5951 -1.3816  0.2215
 4774TIP3    H214287   0.353   0.642   3.276 -0.1580 -0.6605  1.4228
 4775TIP3   OH214288   2.312   3.992   0.680  0.4537 -0.3585 -0.3865
 4775TIP3    H114289   2.221   4.017   0.695  0.5036 -1.0425  1.3396
 4775TIP3    H214290   2.342   4.051   0.612 -0.8465  0.9367  0.1039
 4776TIP3   OH214291   0.918   0.886   4.681 -0.1187 -0.5790  0.2171
 4776TIP3    H114292   0.900   0.918   4.769 -0.1766 -3.1331  1.2068
 4776TIP3    H214293   0.832   0.872   4.642 -0.1360  2.4704 -1.1052
 4777TIP3   OH214294   6.772   1.908   2.089  0.0418  0.0187  0.0591
 4777TIP3    H114295   6.777   1.906   1.994  1.1802  0.4297  0.1066
 4777TIP3    H214296   6.727   1.990   2.109  0.8204  0.4821 -0.0869
 4778TIP3   OH214297   3.476   3.300   1.916  0.0008 -0.1430 -0.2052
 4778TIP3    H114298   3.439   3.386   1.935 -1.3735 -1.1537  2.1590
 4778TIP3    H214299   3.405   3.252   1.874  0.7928 -0.1400 -1.6158
 4779TIP3   OH214300   1.497   5.271   4.594  0.3490  0.2255 -0.1759
 4779TIP3    H114301   1.538   5.246   4.512  0.1707  1.0147 -0.5154
 4779TIP3    H214302   1.403   5.275   4.574  0.3647  1.1292 -0.1423
 4780TIP3   OH214303   3.909   0.628   5.133 -0.0011 -0.0239 -0.4403
 4780TIP3    H114304   4.003   0.638   5.149 -0.0972 -1.2349  1.1202
 4780TIP3    H214305   3.899   0.641   5.039  1.7349  0.0273 -0.6457
 4781TIP3   OH214306   6.617   0.575   1.516  0.5180 -0.0070  0.2636
 4781TIP3    H114307   6.554   0.627   1.567  0.2184 -0.1332  0.0252
 4781TIP3    H214308   6.675   0.537   1.582  0.5339  0.3593  0.4639
 4782TIP3   OH214309   5.259   6.628   1.125  0.1513  0.4646  0.0670
 4782TIP3    H114310   5.243   6.543   1.084  0.3601 -0.5419  1.9898
 4782TIP3    H214311   5.172   6.666   1.136  0.0565  0.5298 -0.8070
 4783TIP3   OH214312   5.413   5.798   3.644 -0.2712 -0.1391  0.5359
 4783TIP3    H114313   5.428   5.821   3.735  0.6862  0.5719  0.2200
 4783TIP3    H214314   5.322   5.768   3.641 -0.6459  0.8391  1.5251
 4784TIP3   OH214315   0.737   1.924   0.509 -0.2648 -0.6044 -0.3774
 4784TIP3    H114316   0.684   1.950   0.585 -0.8791  0.0533 -1.0160
 4784TIP3    H214317   0.816   1.977   0.516 -0.6437 -0.0018 -0.5923
 4785TIP3   OH214318   1.893   3.740   5.585  0.3978  0.1448 -0.2777
 4785TIP3    H114319   1.940   3.821   5.606  0.5162  0.0348 -0.1136
 4785TIP3    H214320   1.812   3.769   5.542 -0.1691  0.4059  0.9335
 4786TIP3   OH214321   1.805   1.200   3.640  0.4754  0.9254 -0.4518
 4786TIP3    H114322   1.814   1.255   3.562 -1.5412  0.4390 -1.0805
 4786TIP3    H214323   1.828   1.112   3.610  0.1045  0.8051 -0.3803
 4787TIP3   OH214324   6.363   1.948   5.276 -0.4464 -0.5970  0.3470
 4787TIP3    H114325   6.332   1.908   5.195 -1.9129  0.9328  0.0955
 4787TIP3    H214326   6.285   1.954   5.331 -0.6817  3.0106 -0.1405
 4788TIP3   OH214327   3.483   5.852   1.704 -0.6172 -0.0592  0.6973
 4788TIP3    H114328   3.403   5.901   1.689 -1.1088 -0.7422  1.0495
 4788TIP3    H214329   3.547   5.892   1.644 -1.2676  0.3452  0.2585
 4789TIP3   OH214330   6.449   6.737   5.366 -0.3789  0.1094  0.9127
 4789TIP3    H114331   6.508   6.812   5.364  1.0582 -0.9426 -1.8919
 4789TIP3    H214332   6.496   6.670   5.415  0.0977 -0.2034  0.0489
 4790TIP3   OH214333   2.452   0.408   3.368 -0.4333 -0.0093  0.2308
 4790TIP3    H114334   2.416   0.485   3.323 -1.0938 -0.0282  0.7125
 4790TIP3    H214335   2.408   0.408   3.453 -0.7431 -1.1516  0.0826
 4791TIP3   OH214336   3.070   5.702   0.037  0.0410  0.2312 -0.1906
 4791TIP3    H114337   3.105   5.615   0.021  1.1846  0.7060 -0.3288
 4791TIP3    H214338   2.977   5.687   0.053  0.6983 -1.3959  2.8683
 4792TIP3   OH214339   5.915   4.658   4.765 -0.2825 -0.1625 -0.0852
 4792TIP3    H114340   5.871   4.578   4.794 -1.2058  0.3955  0.1022
 4792TIP3    H214341   5.894   4.665   4.672 -1.5626  0.6786  0.2345
 4793TIP3   OH214342   6.643   0.993   5.864  0.1622  0.3010  0.5069
 4793TIP3    H114343   6.678   1.074   5.899 -0.7209  1.3423 -0.9074
 4793TIP3    H214344   6.703   0.925   5.895  0.9548  1.4900  1.6628
 4794TIP3   OH214345   5.018   6.115   0.762 -0.0162 -0.4721  0.1854
 4794TIP3    H114346   4.990   6.077   0.678  0.7429  0.1778 -0.3805
 4794TIP3    H214347   4.989   6.051   0.827  1.1130 -1.9858 -0.7153
 4795TIP3   OH214348   3.146   4.714   0.608 -0.2983 -0.0819 -0.1870
 4795TIP3    H114349   3.052   4.711   0.629 -0.1509 -0.6619  0.4581
 4795TIP3    H214350   3.155   4.658   0.531 -0.2829 -1.2235  0.6252
 4796TIP3   OH214351   1.275   6.460   4.084 -0.3703  0.4520  0.2226
 4796TIP3    H114352   1.306   6.372   4.066  0.2327  1.0595 -2.2120
 4796TIP3    H214353   1.353   6.508   4.110 -0.0387  0.9346 -1.5122
 4797TIP3   OH214354   3.124   0.009   3.383 -0.3029  0.1154  0.0003
 4797TIP3    H114355   3.203  -0.029   3.423 -1.4626 -0.1450  2.1749
 4797TIP3    H214356   3.154   0.094   3.349  1.4153 -0.9715 -1.3749
 4798TIP3   OH214357   3.452   2.683   2.026 -0.1767  0.5396  0.4915
 4798TIP3    H114358   3.544   2.655   2.029 -0.7150 -1.4073  0.0954
 4798TIP3    H214359   3.419   2.647   1.944 -0.9159  2.5926 -0.1713
 4799TIP3   OH214360   6.461   4.751   3.405 -0.2722 -0.6114  0.2230
 4799TIP3    H114361   6.551   4.766   3.433 -0.9578  2.1131  1.2573
 4799TIP3    H214362   6.460   4.778   3.313  0.1119 -1.3570 -0.0051
 4800TIP3   OH214363   0.800   3.800   1.199 -0.1962 -0.2012 -0.0882
 4800TIP3    H114364   0.774   3.892   1.190  2.0094  0.4072 -1.2202
 4800TIP3    H214365   0.799   3.783   1.293 -0.2686  1.1295  0.1713
 4801TIP3   OH214366   3.792   2.429   4.520 -0.1766  0.2512 -0.1778
 4801TIP3    H114367   3.725   2.405   4.584 -0.1211 -0.1541 -0.2661
 4801TIP3    H214368   3.831   2.510   4.555  0.6603 -0.5809  0.9367
 4802TIP3   OH214369   3.562   4.394   2.821 -0.2174 -0.2492  0.2428
 4802TIP3    H114370   3.592   4.470   2.771  0.2725 -0.3067  0.4481
 4802TIP3    H214371   3.546   4.427   2.909  2.3219 -0.8470  0.9915
 4803TIP3   OH214372   6.734   5.329   0.475 -0.2764  0.0406  0.6068
 4803TIP3    H114373   6.681   5.394   0.521 -0.6013  0.0675  0.1953
 4803TIP3    H214374   6.824   5.362   0.483 -0.2933 -0.0918  1.4480
 4804TIP3   OH214375   7.095   4.040   2.784  0.3547  0.4132 -0.0065
 4804TIP3    H114376   7.102   4.020   2.877 -0.4794  0.2694  0.0320
 4804TIP3    H214377   7.048   4.123   2.781 -0.6119 -0.1224 -0.3205
 4805TIP3   OH214378   3.603   0.772   1.657  0.5004  0.2612 -0.5005
 4805TIP3    H114379   3.594   0.682   1.688  1.4810  1.3600  3.5125
 4805TIP3    H214380   3.687   0.801   1.692  1.0045  2.3051 -3.1239
 4806TIP3   OH214381   1.925   6.104   4.566  0.8261  0.2557  0.0591
 4806TIP3    H114382   1.868   6.156   4.623 -0.7879 -0.9541 -0.3665
 4806TIP3    H214383   1.891   6.119   4.478  0.1772 -1.6030 -0.0571
 4807TIP3   OH214384   1.384   5.803   0.080 -0.9864  0.3396 -0.0707
 4807TIP3    H114385   1.320   5.784   0.149 -1.2637  0.0831 -0.3990
 4807TIP3    H214386   1.463   5.830   0.128 -0.7332 -1.1606  0.4105
 4808TIP3   OH214387   6.935   4.957   0.901 -0.0048  0.4991 -0.2232
 4808TIP3    H114388   6.916   4.991   0.988 -0.1614  0.6297 -0.3093
 4808TIP3    H214389   6.904   5.024   0.841  1.2510  0.9840 -0.3568
 4809TIP3   OH214390   1.354   0.757   0.250 -0.0477  0.4066  0.1646
 4809TIP3    H114391   1.401   0.839   0.235 -1.7076  1.4014  0.0221
 4809TIP3    H214392   1.275   0.784   0.297 -0.4823 -1.1668  0.3923
 4810TIP3   OH214393   4.252   4.102   5.694 -0.1782  0.0788 -0.1755
 4810TIP3    H114394   4.213   4.144   5.770  1.0570  2.9525 -1.0001
 4810TIP3    H214395   4.346   4.119   5.703 -0.0787  1.3707 -2.7606
 4811TIP3   OH214396   1.757   5.491   5.487 -0.4923  0.4783  0.3230
 4811TIP3    H114397   1.805   5.433   5.546 -1.0115 -0.2673  0.0299
 4811TIP3    H214398   1.823   5.521   5.424 -0.1632  0.4258  0.6371
 4812TIP3   OH214399  -0.032   5.247   1.979 -0.7054  0.0869 -0.0130
 4812TIP3    H114400   0.022   5.279   1.906  0.5616  1.1116  1.3278
 4812TIP3    H214401   0.030   5.205   2.038 -1.3980  1.0631  1.4446
 4813TIP3   OH214402   4.311   1.675   2.010  0.0920  0.4077  0.6346
 4813TIP3    H114403   4.268   1.747   1.964  0.0695  0.6225  0.9925
 4813TIP3    H214404   4.267   1.671   2.095 -1.2613 -1.2945 -0.0820
 4814TIP3   OH214405   7.103   3.283   4.627 -0.2690  0.2587 -0.8995
 4814TIP3    H114406   7.143   3.222   4.689 -1.0546  0.0656 -0.5665
 4814TIP3    H214407   7.089   3.230   4.548 -3.0221 -0.7291  0.1001
 4815TIP3   OH214408   2.541   5.362   3.810 -0.6489 -0.5265  0.2571
 4815TIP3    H114409   2.454   5.335   3.837 -0.9079  0.1709  0.1561
 4815TIP3    H214410   2.589   5.281   3.794 -1.4329 -0.9089 -0.1716
 4816TIP3   OH214411   6.241   4.152   1.820  0.0641  0.0309 -0.3410
 4816TIP3    H114412   6.286   4.134   1.902  1.4735  1.9672 -0.6200
 4816TIP3    H214413   6.170   4.088   1.817  0.7647 -0.9300  1.7406
 4817TIP3   OH214414   0.349   1.102   0.711  0.0991  0.0089  0.0878
 4817TIP3    H114415   0.302   1.040   0.655  1.8604 -0.9122 -0.4299
 4817TIP3    H214416   0.424   1.129   0.658  0.7966  0.5453  1.3254
 4818TIP3   OH214417   5.385   0.585   0.926 -0.1910  0.6643  0.0304
 4818TIP3    H114418   5.475   0.560   0.902  0.8065  1.7905  2.2706
 4818TIP3    H214419   5.345   0.612   0.843  1.3031 -0.4795 -1.1315
 4819TIP3   OH214420   1.245   6.575   1.489  0.0248  0.0318  0.2835
 4819TIP3    H114421   1.340   6.567   1.480  0.1439  1.5006 -0.0299
 4819TIP3    H214422   1.229   6.566   1.583  0.4169 -0.6077  0.3008
 4820TIP3   OH214423   2.394   3.186   0.131  0.3023  0.1191  0.2358
 4820TIP3    H114424   2.385   3.104   0.083  0.3403  0.4862 -0.4193
 4820TIP3    H214425   2.381   3.254   0.065  0.9970  0.6440  0.6162
 4821TIP3   OH214426   1.952   6.179   3.942 -0.3993 -0.0505 -0.2690
 4821TIP3    H114427   2.018   6.143   4.000  0.4393  0.7994 -0.6764
 4821TIP3    H214428   1.975   6.272   3.933 -0.8657 -0.0256 -1.4545
 4822TIP3   OH214429   3.298   1.182   1.817  0.1908 -0.1668  0.1909
 4822TIP3    H114430   3.282   1.088   1.810  0.5250 -0.1897 -0.3207
 4822TIP3    H214431   3.375   1.198   1.761  0.5257  0.3050  0.7701
 4823TIP3   OH214432   0.268   0.520   3.004 -0.4341  0.6045 -0.4530
 4823TIP3    H114433   0.200   0.564   3.056 -1.4740 -0.2542 -1.0423
 4823TIP3    H214434   0.292   0.583   2.937 -2.0716  0.2598 -1.4298
 4824TIP3   OH214435   6.299   3.423   2.160 -0.6964  0.1302 -0.1097
 4824TIP3    H114436   6.363   3.367   2.115 -0.8598 -0.0999 -0.0570
 4824TIP3    H214437   6.308   3.399   2.253  0.6890  1.6431  0.1932
 4825TIP3   OH214438   6.069   2.606   1.491  0.0183  0.0745  0.1967
 4825TIP3    H114439   6.083   2.531   1.433  1.0766  0.7955 -0.5238
 4825TIP3    H214440   5.976   2.627   1.481  0.0536 -0.1720 -0.8275
 4826TIP3   OH214441   4.780   0.867   0.462 -0.2554 -0.0283  0.2456
 4826TIP3    H114442   4.777   0.789   0.517 -1.3802  0.8516  1.5106
 4826TIP3    H214443   4.861   0.859   0.412 -1.0199 -2.6848 -0.7296
 4827TIP3   OH214444   1.597   4.590   1.077  0.6492  0.0679 -0.0794
 4827TIP3    H114445   1.536   4.651   1.036  0.6045 -0.0856 -0.2423
 4827TIP3    H214446   1.543   4.517   1.107  0.4754  0.8200  1.5372
 4828TIP3   OH214447   5.347   2.994   4.833 -0.0570 -0.1247 -0.3652
 4828TIP3    H114448   5.325   3.040   4.753  1.0029  0.0117 -0.5897
 4828TIP3    H214449   5.270   2.940   4.852 -0.9094  0.9782 -0.6334
 4829TIP3   OH214450   3.810   3.037   5.464 -0.5389  0.0435 -0.4137
 4829TIP3    H114451   3.722   3.060   5.434 -0.9332 -2.8101 -1.7135
 4829TIP3    H214452   3.862   3.030   5.384  0.2866 -0.5714  0.1543
 4830TIP3   OH214453   4.305   3.133   0.372 -0.1254 -0.4714 -0.2078
 4830TIP3    H114454   4.386   3.183   0.372 -2.0442  2.9409 -0.8319
 4830TIP3    H214455   4.293   3.107   0.281 -0.9275  1.3424 -0.6705
 4831TIP3   OH214456   3.358   4.633   5.422 -0.3635 -0.3407  0.0936
 4831TIP3    H114457   3.403   4.710   5.388 -0.8010  0.5828  1.5176
 4831TIP3    H214458   3.336   4.656   5.513 -0.4591 -2.1593  0.5724
 4832TIP3   OH214459   0.022   2.504   4.888  0.1534 -0.3066  1.7667
 4832TIP3    H114460   0.038   2.563   4.962  0.7550 -1.7237  2.7958
 4832TIP3    H214461   0.089   2.436   4.896 -0.6303 -1.2351  0.6944
 4833TIP3   OH214462   3.347   4.091   1.285 -0.3489  0.3558 -0.2321
 4833TIP3    H114463   3.413   4.147   1.244  0.2344  0.5974  0.9951
 4833TIP3    H214464   3.330   4.131   1.370  0.5278 -1.6179  0.9577
 4834TIP3   OH214465   3.049   6.477   5.693  0.0788 -0.6628 -0.9750
 4834TIP3    H114466   3.098   6.531   5.755  1.1031 -0.8469 -1.6121
 4834TIP3    H214467   2.963   6.465   5.734  0.6809 -0.6323  0.3176
 4835TIP3   OH214468   2.420   0.671   3.248  0.2023 -0.4965 -0.8765
 4835TIP3    H114469   2.394   0.738   3.310 -0.9319 -2.5780  1.0765
 4835TIP3    H214470   2.515   0.674   3.246  0.1897  0.6537 -0.2454
 4836TIP3   OH214471   3.158   2.461   2.823  0.0774 -0.0916 -0.2726
 4836TIP3    H114472   3.103   2.519   2.772 -0.6344 -0.3658  0.1690
 4836TIP3    H214473   3.098   2.420   2.886  0.7171 -0.6588 -0.0191
 4837TIP3   OH214474   7.094   2.975   4.128 -0.1310  0.3304 -0.6809
 4837TIP3    H114475   7.172   2.937   4.170 -1.3109 -2.3287 -0.6922
 4837TIP3    H214476   7.083   2.925   4.048 -2.0624  0.3855 -0.4902
 4838TIP3   OH214477   0.799   1.507   3.711 -0.1937 -0.3091  0.5268
 4838TIP3    H114478   0.707   1.495   3.686 -0.0453 -2.2925  0.7897
 4838TIP3    H214479   0.829   1.579   3.655 -2.2203  1.2826  1.3480
 4839TIP3   OH214480   4.194   2.911   3.947 -0.3515 -0.1917  0.2299
 4839TIP3    H114481   4.106   2.949   3.937  0.1513  1.0756  0.3401
 4839TIP3    H214482   4.233   2.962   4.018  1.4915  1.2931 -1.7166
 4840TIP3   OH214483   6.080   0.945   4.462 -0.3925  0.2303  0.3131
 4840TIP3    H114484   6.015   0.988   4.407  0.5140  1.8045  0.4078
 4840TIP3    H214485   6.087   0.856   4.426 -0.7913  0.8007 -1.2654
 4841TIP3   OH214486   2.057   0.378   5.226  0.2311  0.1032  0.3790
 4841TIP3    H114487   2.077   0.323   5.302 -0.3261 -0.1545  0.3437
 4841TIP3    H214488   2.143   0.401   5.191  0.4792 -1.2122  0.0539
 4842TIP3   OH214489   2.730   2.034   2.490  0.3596  0.0372 -0.1127
 4842TIP3    H114490   2.774   2.043   2.575  1.8053  0.4996 -0.8797
 4842TIP3    H214491   2.642   2.069   2.506  0.9745  1.2301  0.9094
 4843TIP3   OH214492   3.706   3.249   1.609  0.5332 -0.2665 -0.4500
 4843TIP3    H114493   3.664   3.169   1.642  0.1685  0.1955  0.2287
 4843TIP3    H214494   3.721   3.231   1.516  0.1878 -1.0156 -0.3699
 4844TIP3   OH214495   4.101   1.298   5.349 -0.0753 -0.0598  0.2092
 4844TIP3    H114496   4.152   1.222   5.322  0.4796 -0.0295  1.1273
 4844TIP3    H214497   4.046   1.318   5.274  0.0644 -1.1192 -0.1873
 4845TIP3   OH214498   6.673   1.450   2.166 -0.1190  0.4424  0.3424
 4845TIP3    H114499   6.598   1.482   2.115 -1.9253 -0.9094  2.0171
 4845TIP3    H214500   6.739   1.519   2.157 -1.4224  1.5612 -1.4077
 4846TIP3   OH214501   1.656   6.563   0.837 -0.0422  0.1244  0.0299
 4846TIP3    H114502   1.620   6.560   0.748 -3.2526  0.6788  1.1786
 4846TIP3    H214503   1.693   6.651   0.845 -0.5040  0.3752 -0.5080
 4847TIP3   OH214504   5.923   5.752   4.914  0.1098 -0.4865  0.4079
 4847TIP3    H114505   6.012   5.726   4.890  0.3726  0.6811  0.0311
 4847TIP3    H214506   5.929   5.847   4.928 -0.6018 -0.7189  2.5682
 4848TIP3   OH214507   3.559   6.732   1.954  0.2862 -0.0925 -0.3969
 4848TIP3    H114508   3.576   6.748   1.862  2.8676 -1.8726 -0.3432
 4848TIP3    H214509   3.477   6.682   1.955  1.6846 -2.6487 -2.0954
 4849TIP3   OH214510   6.613   4.280   1.352  0.4764  0.2494 -0.0593
 4849TIP3    H114511   6.579   4.329   1.277  0.3016 -0.2416 -0.2993
 4849TIP3    H214512   6.536   4.256   1.403  0.4984 -0.3973 -0.3218
 4850TIP3   OH214513   5.518   6.031   0.764 -0.1008  0.6008 -0.2724
 4850TIP3    H114514   5.454   5.960   0.769  1.1336 -0.4666  1.6273
 4850TIP3    H214515   5.602   5.987   0.757  0.6044  1.9184 -0.4392
 4851TIP3   OH214516   3.898   2.321   0.500 -0.5866  0.2840  0.4664
 4851TIP3    H114517   3.875   2.284   0.585 -0.2996  1.1943  0.9620
 4851TIP3    H214518   3.862   2.260   0.436  0.0704 -0.9545  1.2367
 4852TIP3   OH214519   0.362   3.982   0.801 -0.7325  0.0735  0.2791
 4852TIP3    H114520   0.428   3.919   0.772 -0.4938  0.2882  0.3485
 4852TIP3    H214521   0.381   3.996   0.894 -0.8324  0.1879  0.2832
 4853TIP3   OH214522   4.828   5.281   2.769 -0.0034  0.0566  0.1434
 4853TIP3    H114523   4.850   5.189   2.780  1.2819 -0.0396 -2.5149
 4853TIP3    H214524   4.882   5.327   2.833  0.4852 -0.9315  0.4442
 4854TIP3   OH214525   2.875   4.323   3.449  0.2539 -0.4690 -0.0433
 4854TIP3    H114526   2.897   4.406   3.406 -0.5085  0.1357  0.7056
 4854TIP3    H214527   2.808   4.346   3.513 -2.6445 -2.1838 -2.2062
 4855TIP3   OH214528   0.303   3.099   4.415  0.1663 -0.2683  0.5596
 4855TIP3    H114529   0.280   3.137   4.500 -0.5219 -0.5140  0.4858
 4855TIP3    H214530   0.384   3.050   4.432  0.1552 -0.1337  1.0184
 4856TIP3   OH214531   2.906   2.191   3.453  0.1577  0.2297  0.5711
 4856TIP3    H114532   2.980   2.250   3.443  0.0760  0.2472  0.0876
 4856TIP3    H214533   2.834   2.234   3.407  0.6476 -1.2501 -1.7191
 4857TIP3   OH214534   6.603   3.447   1.234  0.4782 -0.1723 -0.2661
 4857TIP3    H114535   6.592   3.392   1.311  0.7609  1.2146  0.7971
 4857TIP3    H214536   6.595   3.537   1.266  0.6930  0.4521 -1.8351
 4858TIP3   OH214537   2.281   2.122   2.050  0.1816  0.2443 -0.1329
 4858TIP3    H114538   2.297   2.029   2.036  0.3473  0.1574  0.5657
 4858TIP3    H214539   2.302   2.163   1.966  0.3572 -0.3170 -0.3687
 4859TIP3   OH214540   3.305   1.710   1.170 -0.4511 -0.4952  0.0352
 4859TIP3    H114541   3.300   1.799   1.205  1.0383 -0.8780  1.3540
 4859TIP3    H214542   3.391   1.678   1.198 -0.7250 -2.1504 -0.8950
 4860TIP3   OH214543   4.138   2.019   5.133  1.2008  0.1999 -0.4078
 4860TIP3    H114544   4.141   1.978   5.220 -0.3443  1.3694  0.2549
 4860TIP3    H214545   4.229   2.036   5.112  1.6050  0.0996  1.1156
 4861TIP3   OH214546   1.686   0.446   0.551 -0.0751  0.3111  0.1436
 4861TIP3    H114547   1.680   0.354   0.578  0.6046  0.5305  1.0949
 4861TIP3    H214548   1.676   0.444   0.456  0.4809 -0.8030  0.0951
 4862TIP3   OH214549   3.554   1.807   0.687 -0.1234 -0.6116 -0.5105
 4862TIP3    H114550   3.507   1.773   0.764  0.4201  1.4478  0.8076
 4862TIP3    H214551   3.603   1.882   0.720 -1.5329  1.7144 -3.3029
 4863TIP3   OH214552   3.982   0.526   1.500 -0.0353 -0.2277  0.1651
 4863TIP3    H114553   3.903   0.504   1.451  1.0763 -0.8771 -1.3966
 4863TIP3    H214554   3.988   0.621   1.495 -0.5082 -0.2093 -0.0561
 4864TIP3   OH214555   4.357   3.605   3.620 -0.1597 -0.2896 -0.3317
 4864TIP3    H114556   4.423   3.587   3.553  0.1058  1.7952 -0.6856
 4864TIP3    H214557   4.274   3.603   3.572  0.0493  1.4235 -0.8029
 4865TIP3   OH214558   3.937   3.626   5.270 -0.7421 -0.7071 -0.2073
 4865TIP3    H114559   3.960   3.660   5.183  2.1921 -1.6879  0.0952
 4865TIP3    H214560   3.901   3.539   5.253 -0.0423 -0.9546 -0.4407
 4866TIP3   OH214561   5.042   2.590   2.826 -0.8618  0.0081 -0.0278
 4866TIP3    H114562   5.081   2.673   2.801 -0.2221 -0.4816 -0.6988
 4866TIP3    H214563   4.961   2.585   2.775 -1.8436  1.0288  1.3740
 4867TIP3   OH214564   4.136   0.494   5.500  0.6172 -0.3115 -0.3665
 4867TIP3    H114565   4.059   0.489   5.444  0.2573  0.9951 -0.0332
 4867TIP3    H214566   4.203   0.443   5.454 -0.0040 -0.2231 -1.4027
 4868TIP3   OH214567   3.531   1.339   4.726  0.0400  0.1665 -0.2332
 4868TIP3    H114568   3.556   1.419   4.772  1.0766 -0.1254 -0.2580
 4868TIP3    H214569   3.579   1.343   4.643  0.2408 -0.5533 -0.1605
 4869TIP3   OH214570   0.103   5.368   3.255  0.2973 -0.3470  0.3506
 4869TIP3    H114571   0.184   5.387   3.302  1.7397 -2.9958 -0.8539
 4869TIP3    H214572   0.131   5.337   3.169 -2.0952  0.3825 -0.8015
 4870TIP3   OH214573   1.683   0.785   4.185  0.2422 -0.0473  0.3075
 4870TIP3    H114574   1.633   0.747   4.113 -1.5835  0.7144  1.1124
 4870TIP3    H214575   1.703   0.874   4.157  0.4997 -0.1108  0.2890
 4871TIP3   OH214576   3.899   4.740   0.369  0.2463  0.5564 -0.0096
 4871TIP3    H114577   3.839   4.672   0.337 -0.1860 -0.2912  2.3821
 4871TIP3    H214578   3.861   4.767   0.453  1.2131  2.7361 -0.2121
 4872TIP3   OH214579   1.940   5.532   4.752 -0.6031  0.0391  0.6732
 4872TIP3    H114580   2.003   5.603   4.738 -1.2651  1.3926  3.7221
 4872TIP3    H214581   1.980   5.478   4.820 -1.9050 -0.1289  1.3294
 4873TIP3   OH214582   5.843   5.166   2.655 -0.1467 -0.0028  0.0627
 4873TIP3    H114583   5.814   5.202   2.571  0.4012 -0.4499 -0.3297
 4873TIP3    H214584   5.773   5.187   2.716  0.2391  1.9185 -0.0972
 4874TIP3   OH214585   6.624   5.611   3.418 -0.2759 -0.3369 -0.1737
 4874TIP3    H114586   6.685   5.657   3.361  0.0315 -1.6797 -0.9730
 4874TIP3    H214587   6.552   5.586   3.360 -0.7685 -0.2524  0.3945
 4875TIP3   OH214588   2.535   6.643   4.231 -0.4836  0.6472  0.0286
 4875TIP3    H114589   2.577   6.577   4.175 -1.1818  0.5248 -0.3676
 4875TIP3    H214590   2.602   6.710   4.244  0.8151 -0.9291  1.8418
 4876TIP3   OH214591   3.692   2.119   1.748 -0.1072 -0.1060 -0.1198
 4876TIP3    H114592   3.727   2.195   1.795 -1.7647  0.8612 -0.3557
 4876TIP3    H214593   3.675   2.054   1.816 -0.3409  0.4153  0.3263
 4877TIP3   OH214594   2.986   4.966   0.357 -0.2136  0.1483  0.3300
 4877TIP3    H114595   2.965   4.926   0.273 -3.4925  1.5567  0.3107
 4877TIP3    H214596   3.067   5.014   0.342 -0.2041 -0.4194 -1.7205
 4878TIP3   OH214597   6.779   3.747   3.169  0.5909  0.0402 -0.0651
 4878TIP3    H114598   6.741   3.775   3.086 -0.5273  0.3578  0.5240
 4878TIP3    H214599   6.851   3.689   3.144 -0.1872 -0.4703 -1.2561
 4879TIP3   OH214600   3.551   4.353   1.988 -0.3742  0.1491 -0.7788
 4879TIP3    H114601   3.623   4.416   1.988 -0.5334  0.3914 -2.9783
 4879TIP3    H214602   3.594   4.268   2.001  0.3243  0.2954 -2.0298
 4880TIP3   OH214603   1.083   0.016   1.120  0.3348 -0.0025  0.4460
 4880TIP3    H114604   0.997   0.049   1.144  0.6861  0.8109  0.6346
 4880TIP3    H214605   1.068  -0.034   1.040 -0.4333 -0.5640  0.9223
 4881TIP3   OH214606   1.787   1.858   1.525 -0.3125 -0.3904  0.4536
 4881TIP3    H114607   1.780   1.930   1.463 -3.5278 -2.9349 -2.5747
 4881TIP3    H214608   1.711   1.867   1.582  0.4054 -0.3286  1.4410
 4882TIP3   OH214609   1.164   1.975   3.804 -0.3556  0.3213  0.1519
 4882TIP3    H114610   1.072   1.997   3.790 -0.5706 -0.7479 -0.2243
 4882TIP3    H214611   1.171   1.883   3.777  0.9456  0.5568 -0.3979
 4883TIP3   OH214612   7.090   5.965   1.778  0.1531 -0.0112 -0.6441
 4883TIP3    H114613   7.030   6.039   1.777  0.9149  0.6653  0.9930
 4883TIP3    H214614   7.177   6.004   1.787  0.7199 -1.0386 -1.3780
 4884TIP3   OH214615   2.461   0.209   2.225 -0.1569 -0.1757  0.0961
 4884TIP3    H114616   2.475   0.222   2.318  2.0250  0.6305 -0.2831
 4884TIP3    H214617   2.478   0.295   2.186 -0.3864 -0.6498 -1.0858
 4885TIP3   OH214618   1.845   3.657   5.255 -0.2342 -0.4535  0.2393
 4885TIP3    H114619   1.778   3.693   5.314 -0.5418 -0.8967  0.1641
 4885TIP3    H214620   1.846   3.717   5.181 -1.0294 -0.8037 -0.0694
 4886TIP3   OH214621   4.852  -0.001   3.520 -0.1951  0.0971 -0.0563
 4886TIP3    H114622   4.903   0.079   3.517 -0.9791  0.6157  0.0033
 4886TIP3    H214623   4.764   0.027   3.547 -0.9042 -0.5647 -1.5213
 4887TIP3   OH214624   4.033   4.249   3.205  0.0137 -0.2249 -0.8131
 4887TIP3    H114625   3.996   4.281   3.287 -0.2900 -0.7392 -0.7459
 4887TIP3    H214626   4.115   4.298   3.195 -1.3605  2.0110 -1.7260
 4888TIP3   OH214627   5.953   0.059   0.166 -0.1599 -0.2464  0.0197
 4888TIP3    H114628   6.030   0.088   0.116  0.4269 -2.1721 -0.2987
 4888TIP3    H214629   5.920  -0.015   0.116 -0.1142 -1.6654  1.9911
 4889TIP3   OH214630   0.348   3.573   3.731  0.3724 -0.3838  0.4144
 4889TIP3    H114631   0.321   3.486   3.700  0.8778 -0.3596 -0.0963
 4889TIP3    H214632   0.418   3.599   3.671  0.7161  0.0667  1.0070
 4890TIP3   OH214633   3.908   5.987   4.711  0.3296 -0.2689 -0.0900
 4890TIP3    H114634   3.867   6.070   4.686  0.5708  0.1149  0.7551
 4890TIP3    H214635   3.835   5.930   4.733  0.1572 -0.3310 -0.7746
 4891TIP3   OH214636   5.318   2.497   5.258  0.6081 -0.0855  0.5901
 4891TIP3    H114637   5.350   2.544   5.334 -2.0084  2.5853  0.2027
 4891TIP3    H214638   5.242   2.448   5.290  0.3862 -0.1382 -0.0057
 4892TIP3   OH214639   6.570   3.305   3.190  0.3248  0.9458  0.0226
 4892TIP3    H114640   6.583   3.312   3.284 -1.1642  0.3322  0.3050
 4892TIP3    H214641   6.494   3.360   3.172  0.3304  0.7136 -0.7515
 4893TIP3   OH214642   0.616   3.316   3.694 -0.5435 -0.1757  0.3197
 4893TIP3    H114643   0.556   3.339   3.765  0.3479 -3.0327  2.1671
 4893TIP3    H214644   0.675   3.392   3.688 -2.3653  1.3394  0.5882
 4894TIP3   OH214645   1.171   6.579   1.774  0.1811 -0.5305  0.8992
 4894TIP3    H114646   1.102   6.602   1.836  0.5804  0.3622  1.0260
 4894TIP3    H214647   1.251   6.577   1.827  0.0301 -3.6581  1.2141
 4895TIP3   OH214648   6.052   0.666   1.123  0.1048  0.1204  0.0194
 4895TIP3    H114649   6.036   0.760   1.131 -1.6360 -0.0138 -1.2169
 4895TIP3    H214650   6.006   0.627   1.198 -1.7116  0.0927 -1.0389
 4896TIP3   OH214651   1.277   6.340   3.313 -0.7680 -0.2950  0.0289
 4896TIP3    H114652   1.363   6.365   3.278 -1.8387  0.4085 -2.3145
 4896TIP3    H214653   1.291   6.253   3.350  1.1040  0.1132  0.3966
 4897TIP3   OH214654   5.500   0.231   1.525  0.7756 -0.2533  0.0466
 4897TIP3    H114655   5.496   0.317   1.567  2.3775 -0.2674  0.3142
 4897TIP3    H214656   5.465   0.171   1.591 -1.1225  0.2546 -0.4495
 4898TIP3   OH214657   1.798   0.315   2.791  0.0320  0.0062 -0.3230
 4898TIP3    H114658   1.890   0.336   2.809  0.5207 -0.4787 -2.0403
 4898TIP3    H214659   1.796   0.294   2.698 -1.8350 -0.0133 -0.3230
 4899TIP3   OH214660   3.307   4.538   0.953 -0.1248 -0.1059 -0.4515
 4899TIP3    H114661   3.292   4.507   0.864 -1.8794 -1.2044  0.1693
 4899TIP3    H214662   3.364   4.615   0.943  1.8126 -1.6580 -2.2961
 4900TIP3   OH214663   6.049   3.377   3.693 -0.0456 -0.2787  0.1409
 4900TIP3    H114664   5.973   3.359   3.749  1.0629 -0.4952  1.6606
 4900TIP3    H214665   6.077   3.465   3.719  0.8624 -0.6349  0.4146
 4901TIP3   OH214666   4.461   5.749   5.846 -0.5661  0.3347  0.0558
 4901TIP3    H114667   4.427   5.703   5.923 -0.2484 -0.8495 -0.4938
 4901TIP3    H214668   4.521   5.814   5.882 -1.5525  0.7999  0.8885
 4902TIP3   OH214669   6.701   6.122   4.167 -0.5674 -0.0949 -0.4246
 4902TIP3    H114670   6.682   6.158   4.081 -0.9465 -0.1014 -0.3418
 4902TIP3    H214671   6.748   6.040   4.149 -0.3629  0.0632 -0.6185
 4903TIP3   OH214672   7.085   0.441   1.742 -0.3878  0.8952  0.8065
 4903TIP3    H114673   7.156   0.395   1.697 -0.7005  0.8174  0.3869
 4903TIP3    H214674   7.016   0.375   1.751 -0.0647  0.7055  2.0345
 4904TIP3   OH214675   5.638   5.857   0.124  0.3888  0.5886 -0.1639
 4904TIP3    H114676   5.576   5.929   0.126  0.2581  0.4761  1.7127
 4904TIP3    H214677   5.626   5.816   0.038 -1.1841  1.3568 -0.3318
 4905TIP3   OH214678   6.197   2.844   1.510  0.5178 -0.1810  0.1400
 4905TIP3    H114679   6.201   2.863   1.604 -0.5779 -0.0800  0.1725
 4905TIP3    H214680   6.150   2.761   1.504 -2.0147  1.1935 -0.4359
 4906TIP3   OH214681   4.656   4.549   5.753  0.0873  0.2917  0.0307
 4906TIP3    H114682   4.598   4.485   5.711  0.6352 -0.5765  0.5583
 4906TIP3    H214683   4.706   4.587   5.681  1.3513 -1.5104 -0.1228
 4907TIP3   OH214684   5.955   1.051   3.969  0.3267  0.0263  0.1212
 4907TIP3    H114685   6.046   1.033   3.992 -0.0389 -2.8780 -0.2836
 4907TIP3    H214686   5.958   1.073   3.876  0.5945 -0.6098 -0.0273
 4908TIP3   OH214687   1.343   2.969   4.753  0.1433  0.6112 -0.0877
 4908TIP3    H114688   1.362   3.048   4.803  0.9006  0.4843 -0.1749
 4908TIP3    H214689   1.265   2.992   4.702 -1.8205  0.1524  2.4851
 4909TIP3   OH214690   6.861   1.660   2.413 -0.2368  0.2968 -0.2308
 4909TIP3    H114691   6.951   1.632   2.427 -0.7557 -1.4600 -0.2340
 4909TIP3    H214692   6.845   1.645   2.320 -0.2974  1.3888 -0.4103
 4910TIP3   OH214693   4.868   6.347   3.054  0.1232 -1.0314 -0.1303
 4910TIP3    H114694   4.861   6.267   3.106 -2.8118 -2.5864 -2.5787
 4910TIP3    H214695   4.777   6.373   3.038  0.9696  1.4473 -1.4279
 4911TIP3   OH214696   0.772   5.966   0.782  0.2045 -0.2213  0.5546
 4911TIP3    H114697   0.803   6.056   0.795  1.2989 -0.7062  1.4056
 4911TIP3    H214698   0.837   5.911   0.825  1.1310 -1.6266 -2.3660
 4912TIP3   OH214699   0.254   5.788   4.555 -0.1912  0.2020 -0.7708
 4912TIP3    H114700   0.254   5.707   4.607  0.2743  0.1439 -0.8561
 4912TIP3    H214701   0.261   5.758   4.465  1.7655  0.3611 -0.7227
 4913TIP3   OH214702   6.230   1.716   5.486 -0.1811  0.0743  0.5214
 4913TIP3    H114703   6.323   1.741   5.490 -0.0615 -0.1614 -0.5160
 4913TIP3    H214704   6.184   1.796   5.461 -0.3060  0.2778  1.3837
 4914TIP3   OH214705   2.442   1.556   2.207  0.4177  0.0353  0.1975
 4914TIP3    H114706   2.496   1.625   2.170  1.0105 -0.7282 -0.4116
 4914TIP3    H214707   2.503   1.485   2.227  0.1574  0.4841  2.9147
 4915TIP3   OH214708   6.023   4.111   1.613 -0.2911 -0.0510  0.3467
 4915TIP3    H114709   5.948   4.102   1.672 -0.1379  0.5446  0.6428
 4915TIP3    H214710   6.061   4.195   1.637 -1.1270  0.9425 -1.6342
 4916TIP3   OH214711   4.644   3.226   5.203  0.1168  0.3430 -0.3911
 4916TIP3    H114712   4.730   3.228   5.245 -1.1721  2.9177  2.5218
 4916TIP3    H214713   4.633   3.313   5.166 -1.5179  0.3384  0.0026
 4917TIP3   OH214714   1.632   1.322   4.990  0.3132 -0.0370 -0.6778
 4917TIP3    H114715   1.629   1.226   4.992  2.8760 -0.2340 -1.8539
 4917TIP3    H214716   1.675   1.346   5.072  0.7007  0.0190 -0.8961
 4918TIP3   OH214717   1.667   3.399   5.705  0.1930  0.5268  0.1712
 4918TIP3    H114718   1.733   3.458   5.743  1.5102 -0.7624 -0.0427
 4918TIP3    H214719   1.624   3.360   5.781 -0.5918  1.6118  0.3143
 4919TIP3   OH214720   1.781   0.455   4.156 -0.2054 -0.2433 -0.5988
 4919TIP3    H114721   1.827   0.479   4.236  0.1579  0.5199 -1.0250
 4919TIP3    H214722   1.730   0.377   4.180 -0.4244  0.2154  0.4789
 4920TIP3   OH214723   6.366   4.074   4.711 -0.5906 -0.5754 -0.3163
 4920TIP3    H114724   6.422   4.008   4.752  1.0372 -0.1316 -1.7099
 4920TIP3    H214725   6.375   4.151   4.767 -0.7578 -0.8774  0.1254
 4921TIP3   OH214726   2.930   0.274   2.863  0.4017 -0.4944  0.6424
 4921TIP3    H114727   2.952   0.210   2.795 -0.4301 -1.0573  0.8744
 4921TIP3    H214728   3.013   0.313   2.888  0.5022  1.4771 -2.3709
 4922TIP3   OH214729   2.954   1.399   4.496 -0.0864 -0.2669 -0.1714
 4922TIP3    H114730   2.863   1.429   4.487  0.3301  0.9711 -0.4899
 4922TIP3    H214731   2.959   1.364   4.585 -0.6393  0.5804  0.2150
 4923TIP3   OH214732   2.631   0.603   2.844 -0.0490  0.4073  0.5986
 4923TIP3    H114733   2.661   0.547   2.915  0.7860  2.3944  1.8923
 4923TIP3    H214734   2.704   0.603   2.782 -1.4859 -2.8540 -1.3814
 4924TIP3   OH214735   1.341   0.397   2.850  0.0716 -0.2618  0.3135
 4924TIP3    H114736   1.339   0.488   2.822 -1.4370 -0.5781 -0.7175
 4924TIP3    H214737   1.304   0.398   2.938  1.0500  0.2275  0.7388
 4925TIP3   OH214738   1.801   4.801   1.399  0.7670  0.5375  0.8181
 4925TIP3    H114739   1.792   4.848   1.482 -0.0892  0.0799  0.9959
 4925TIP3    H214740   1.895   4.794   1.385  0.9211  2.0403  0.9392
 4926TIP3   OH214741   6.060   6.474   0.229 -0.4218  0.0603 -0.6379
 4926TIP3    H114742   6.031   6.459   0.139 -0.0549  1.1985 -0.9649
 4926TIP3    H214743   6.155   6.481   0.224 -0.4445  0.8024 -0.2823
 4927TIP3   OH214744   5.646   2.974   2.452 -0.7388  0.1427 -0.1462
 4927TIP3    H114745   5.613   3.006   2.536  1.3845  1.5109  0.2619
 4927TIP3    H214746   5.736   2.947   2.471 -0.4790 -0.2484 -1.8137
 4928TIP3   OH214747   4.127   0.403   0.382  0.7011  0.4857 -0.6478
 4928TIP3    H114748   4.098   0.436   0.297  0.4633  1.9661 -0.0236
 4928TIP3    H214749   4.092   0.466   0.446  0.5775 -0.7743  0.5881
 4929TIP3   OH214750   2.092   2.838   3.331 -0.4548 -1.1181  0.0919
 4929TIP3    H114751   2.062   2.846   3.422 -1.7705 -2.0544 -0.2271
 4929TIP3    H214752   2.076   2.924   3.293 -0.8811 -1.0183  0.4835
 4930TIP3   OH214753   4.695   2.541   4.509  0.1359 -0.2510  0.0515
 4930TIP3    H114754   4.760   2.589   4.457 -0.9421  2.2613  0.8639
 4930TIP3    H214755   4.613   2.552   4.460 -0.5181  0.5103  1.2669
 4931TIP3   OH214756   3.933   1.168   2.066  0.1319 -0.2841 -0.2353
 4931TIP3    H114757   4.006   1.212   2.109  0.3822 -1.5951  0.7328
 4931TIP3    H214758   3.960   1.161   1.975  1.0562 -0.4135  0.0390
 4932TIP3   OH214759   2.265   4.585   5.123  0.2420  0.3991  0.6513
 4932TIP3    H114760   2.355   4.605   5.151 -0.0500 -0.1733  2.1028
 4932TIP3    H214761   2.210   4.633   5.185 -0.4578  0.2558  0.1468
 4933TIP3   OH214762   4.584   6.325   0.464  0.1868 -0.6515 -0.2507
 4933TIP3    H114763   4.601   6.350   0.373  0.3141  1.3633  0.2948
 4933TIP3    H214764   4.671   6.314   0.502  0.1372 -2.0332 -0.4706
 4934TIP3   OH214765   7.120   0.949   1.804 -0.3180 -0.1851 -0.3083
 4934TIP3    H114766   7.212   0.926   1.788  0.7455  3.6980 -0.8953
 4934TIP3    H214767   7.076   0.931   1.721  0.3264 -0.3820 -0.6146
 4935TIP3   OH214768   6.539   0.343   1.388 -0.0589  0.2847 -0.1328
 4935TIP3    H114769   6.542   0.435   1.415 -0.1217  0.3045 -0.1942
 4935TIP3    H214770   6.625   0.308   1.411  0.3367  0.6249 -1.0790
 4936TIP3   OH214771   5.929   6.403   0.762  0.6013 -0.3334  0.4145
 4936TIP3    H114772   5.904   6.476   0.818 -0.2753 -0.6130  0.4066
 4936TIP3    H214773   6.001   6.436   0.710 -0.9451  1.1523 -0.8943
 4937TIP3   OH214774   2.267   2.085   2.341 -0.4938 -0.7528  0.0345
 4937TIP3    H114775   2.230   2.098   2.253 -0.4974 -1.9687 -0.1554
 4937TIP3    H214776   2.200   2.119   2.400 -1.3681 -1.7136 -0.3686
 4938TIP3   OH214777   2.769   6.381   0.467  0.2763  0.2850 -0.3180
 4938TIP3    H114778   2.715   6.363   0.390  1.6632  0.5798 -1.3996
 4938TIP3    H214779   2.839   6.438   0.435  1.9984 -1.1304  0.7224
 4939TIP3   OH214780   2.856   5.599   2.817 -0.1275 -0.0278 -0.2180
 4939TIP3    H114781   2.892   5.582   2.904  0.6184  1.4452 -0.2025
 4939TIP3    H214782   2.776   5.648   2.833  0.7968  1.6040 -0.3479
 4940TIP3   OH214783   5.355   4.527   0.935 -0.3527  0.7812  0.0372
 4940TIP3    H114784   5.353   4.455   0.999 -4.5818  1.1401  0.5601
 4940TIP3    H214785   5.360   4.606   0.988  0.0501  0.9982 -0.3192
 4941TIP3   OH214786   6.355   3.071   3.158  0.4430 -0.3027 -0.4436
 4941TIP3    H114787   6.270   3.054   3.118  0.7650  1.5407 -2.0895
 4941TIP3    H214788   6.366   3.166   3.152  0.4181  0.2935  4.3738
 4942TIP3   OH214789   3.287   0.467   4.342 -0.7392  0.1896  0.6230
 4942TIP3    H114790   3.226   0.509   4.402 -0.3938  0.1695  0.9877
 4942TIP3    H214791   3.356   0.532   4.328 -0.0187 -0.3719  1.4625
 4943TIP3   OH214792   4.264   6.599   1.143 -0.1636  0.0051  0.3243
 4943TIP3    H114793   4.232   6.557   1.223 -1.0111 -1.8525 -0.9370
 4943TIP3    H214794   4.344   6.553   1.121 -1.6579 -1.8529 -1.6597
 4944TIP3   OH214795   6.070   4.736   4.416  0.0751 -0.1075 -0.0735
 4944TIP3    H114796   6.061   4.750   4.322 -1.4720  1.2578  0.2377
 4944TIP3    H214797   5.983   4.707   4.445  0.3781  0.0296  1.0278
 4945TIP3   OH214798   2.280   1.537   4.693  0.4701  0.3064 -0.2281
 4945TIP3    H114799   2.278   1.517   4.600 -0.1123 -1.5521  0.1280
 4945TIP3    H214800   2.188   1.548   4.717  0.7209  3.4071 -0.3111
 4946TIP3   OH214801   5.972   3.724   1.243  0.6279 -0.1379  0.0765
 4946TIP3    H114802   6.002   3.774   1.319 -0.6867  0.7420  0.0483
 4946TIP3    H214803   5.886   3.761   1.222  1.2129  0.0458 -2.2051
 4947TIP3   OH214804   1.418   5.341   1.626 -0.0388  0.5766 -0.1153
 4947TIP3    H114805   1.358   5.267   1.630  1.7945 -0.9518  0.4632
 4947TIP3    H214806   1.372   5.412   1.672 -2.1057  0.0642 -1.2812
 4948TIP3   OH214807   1.206   3.765   0.249 -0.1253 -0.1859 -0.1599
 4948TIP3    H114808   1.229   3.755   0.156  0.7736  1.1769 -0.1192
 4948TIP3    H214809   1.154   3.845   0.252 -0.8107 -0.6429  0.4276
 4949TIP3   OH214810   1.770   6.346   1.753 -0.2363  0.1814  0.6025
 4949TIP3    H114811   1.835   6.404   1.793  0.5081  0.1502 -0.5281
 4949TIP3    H214812   1.764   6.272   1.814 -0.0241  0.6927  1.2608
 4950TIP3   OH214813   0.574   2.364   4.541  0.2754 -0.1447  0.1858
 4950TIP3    H114814   0.654   2.379   4.592  0.9552 -0.5237 -0.7453
 4950TIP3    H214815   0.551   2.273   4.559  1.5387 -0.8449 -1.5507
 4951TIP3   OH214816   2.704   6.427   1.212 -0.0054  0.2562  0.1071
 4951TIP3    H114817   2.723   6.333   1.206  2.0440  0.4508  2.0854
 4951TIP3    H214818   2.644   6.444   1.139  1.3410 -2.1455 -1.7136
 4952TIP3   OH214819   0.016   1.387   5.077 -0.3769 -0.2134 -0.4072
 4952TIP3    H114820   0.080   1.317   5.063 -0.5568 -0.6915  1.0111
 4952TIP3    H214821   0.060   1.466   5.046  1.2350 -0.4031  1.2306
 4953TIP3   OH214822   1.788   6.619   3.368  0.5540  0.1935 -0.0792
 4953TIP3    H114823   1.764   6.705   3.403 -0.5580  0.1194 -0.6363
 4953TIP3    H214824   1.824   6.638   3.281 -0.0184  0.0737 -0.3465
 4954TIP3   OH214825   3.788   3.935   0.396  0.0135 -0.0078  0.0733
 4954TIP3    H114826   3.849   3.884   0.450 -2.5132 -0.5910  2.6375
 4954TIP3    H214827   3.807   4.026   0.418  2.0750  0.0979 -1.7347
 4955TIP3   OH214828   1.551   0.272   1.532 -0.0470  0.3163 -0.0779
 4955TIP3    H114829   1.541   0.345   1.470 -1.4732  1.2070  1.1269
 4955TIP3    H214830   1.553   0.314   1.618  0.7093 -0.9787  0.5650
 4956TIP3   OH214831   5.364   0.334   4.206 -0.8759 -0.6440 -0.4433
 4956TIP3    H114832   5.350   0.371   4.293 -0.6332  2.0581 -1.4455
 4956TIP3    H214833   5.277   0.336   4.165 -0.5436  0.7178 -1.1476
 4957TIP3   OH214834   1.840   3.554   4.976 -0.2543 -0.4592 -0.3065
 4957TIP3    H114835   1.890   3.530   5.054 -0.7050 -3.5358 -0.8477
 4957TIP3    H214836   1.902   3.603   4.922  1.5795 -2.3723 -0.0528
 4958TIP3   OH214837   0.902   0.218   4.289  0.3516  0.1033 -0.4672
 4958TIP3    H114838   0.856   0.284   4.237 -1.9019 -0.1017  1.1319
 4958TIP3    H214839   0.909   0.257   4.376  0.6258 -1.0731  0.0518
 4959TIP3   OH214840   1.510   6.563   1.734  0.6844 -0.5883  0.9478
 4959TIP3    H114841   1.554   6.546   1.650 -0.1703 -0.7062  0.5070
 4959TIP3    H214842   1.475   6.477   1.760 -2.0930  0.0061 -0.3763
 4960TIP3   OH214843   2.372   3.486   3.369  0.2377 -0.0871  0.4376
 4960TIP3    H114844   2.317   3.549   3.414  0.8769  0.1712  0.8817
 4960TIP3    H214845   2.366   3.510   3.276 -1.0960 -0.6320  0.3698
 4961TIP3   OH214846   6.728   5.472   5.231  0.1104 -0.0895 -0.6696
 4961TIP3    H114847   6.742   5.437   5.143  0.6741 -0.2661 -0.5147
 4961TIP3    H214848   6.719   5.395   5.287 -1.9363 -0.0023 -0.8037
 4962TIP3   OH214849   5.094   1.125   1.540 -0.0884  0.0182  0.1424
 4962TIP3    H114850   5.109   1.069   1.464 -0.6310  0.9210 -0.6611
 4962TIP3    H214851   5.008   1.165   1.524  0.1223  0.7962  0.8604
 4963TIP3   OH214852   1.088   4.556   2.085  0.1929 -0.5241 -0.2933
 4963TIP3    H114853   1.029   4.564   2.010  0.2494  2.3466 -0.1235
 4963TIP3    H214854   1.168   4.518   2.048 -0.2510 -0.4248 -1.4078
 4964TIP3   OH214855   4.342   0.025   2.300 -0.3151  0.0439 -0.0375
 4964TIP3    H114856   4.298  -0.017   2.226 -0.5867  1.0818 -0.4864
 4964TIP3    H214857   4.273   0.076   2.343 -0.1097 -0.3780  0.8068
 4965TIP3   OH214858   3.678   3.344   0.904  0.2341 -0.0656  0.2532
 4965TIP3    H114859   3.713   3.376   0.988 -0.4575  0.2379  0.4304
 4965TIP3    H214860   3.744   3.370   0.840  0.7119 -0.1842  0.6830
 4966TIP3   OH214861   2.183   4.150   3.826  0.1686  0.0727 -0.2309
 4966TIP3    H114862   2.098   4.183   3.858  0.0748  0.5476 -0.9492
 4966TIP3    H214863   2.207   4.082   3.889  0.2494  1.3480  1.1635
 4967TIP3   OH214864   2.114   2.656   4.331 -0.4766  0.2787 -0.1730
 4967TIP3    H114865   2.133   2.617   4.416 -0.1447 -1.0863 -0.8396
 4967TIP3    H214866   2.123   2.583   4.269 -3.1474  0.6241 -1.1108
 4968TIP3   OH214867   0.592   1.041   3.319  0.0976 -0.1554 -0.6381
 4968TIP3    H114868   0.525   1.065   3.256 -0.3383 -0.2273 -0.2098
 4968TIP3    H214869   0.619   0.953   3.293 -0.0049 -0.1436 -0.7875
 4969TIP3   OH214870   1.443   2.435   4.370 -0.7242 -0.2620 -0.4469
 4969TIP3    H114871   1.397   2.353   4.350 -1.8911  0.5953 -1.4693
 4969TIP3    H214872   1.524   2.407   4.413 -0.6281 -1.9965 -1.6362
 4970TIP3   OH214873   5.947   3.587   1.850 -0.0201  0.4518 -0.0273
 4970TIP3    H114874   5.940   3.615   1.941 -1.0609  1.9607 -0.5274
 4970TIP3    H214875   6.032   3.620   1.820  0.5021 -0.3955  0.4892
 4971TIP3   OH214876   0.041   1.851   1.626 -0.2236 -0.0937  0.3382
 4971TIP3    H114877   0.037   1.807   1.541  1.5666 -1.0167  0.6710
 4971TIP3    H214878   0.016   1.941   1.608 -0.5084 -0.4305 -1.0511
 4972TIP3   OH214879   2.730   4.189   0.563  0.8022 -0.3616 -0.1752
 4972TIP3    H114880   2.797   4.124   0.583 -0.2913 -1.9216 -1.3113
 4972TIP3    H214881   2.666   4.181   0.634  0.5129 -0.7834 -0.4746
 4973TIP3   OH214882   5.710   0.736   4.274 -0.3262  0.1336  0.8602
 4973TIP3    H114883   5.640   0.797   4.298 -0.2596  0.3872  0.4187
 4973TIP3    H214884   5.664   0.661   4.236 -0.3785  0.1398  0.9108
 4974TIP3   OH214885   1.608   5.339   2.646  0.3573  0.3990  0.3763
 4974TIP3    H114886   1.561   5.351   2.729  1.2002 -1.0896  1.1192
 4974TIP3    H214887   1.671   5.411   2.643 -0.7043  1.3505  0.2541
 4975TIP3   OH214888   0.933   3.254   4.866 -0.1223 -0.7532 -0.0608
 4975TIP3    H114889   1.014   3.240   4.915  0.7860 -1.1749 -1.6152
 4975TIP3    H214890   0.920   3.349   4.869  0.7971 -0.6061 -0.3502
 4976TIP3   OH214891   6.201   4.281   0.362 -0.3817  0.3232  0.0570
 4976TIP3    H114892   6.141   4.336   0.312 -1.3388 -0.3656  0.4004
 4976TIP3    H214893   6.282   4.332   0.368 -0.4685  0.6908 -1.5941
 4977TIP3   OH214894   1.327   4.376   2.032  0.3844  0.1900 -0.2869
 4977TIP3    H114895   1.397   4.364   2.096  0.6889  0.8569 -0.4938
 4977TIP3    H214896   1.371   4.404   1.952 -0.2766  3.1067  0.2565
 4978TIP3   OH214897   5.353   0.079   3.890 -0.2116  0.6438  0.1405
 4978TIP3    H114898   5.443   0.056   3.914 -0.2367 -0.4290 -0.7433
 4978TIP3    H214899   5.358   0.173   3.869  0.9574  0.3479 -1.0242
 4979TIP3   OH214900   6.930   0.286   4.548 -0.5767  0.7831 -0.7761
 4979TIP3    H114901   7.007   0.251   4.592  0.8769  2.8673 -1.5051
 4979TIP3    H214902   6.869   0.307   4.619  0.1249  0.4797 -0.0754
 4980TIP3   OH214903   6.785   0.144   5.812 -0.1453  0.3101  0.1670
 4980TIP3    H114904   6.729   0.113   5.883 -2.0088 -1.7563 -2.0498
 4980TIP3    H214905   6.870   0.161   5.855 -1.7442  1.3462  3.2228
 4981TIP3   OH214906   2.630   2.741   3.710  0.2954 -0.1984  0.0151
 4981TIP3    H114907   2.677   2.737   3.794 -1.8823 -0.0569  1.3084
 4981TIP3    H214908   2.604   2.833   3.702 -0.2698 -0.3922 -0.3804
 4982TIP3   OH214909   5.428   5.482   5.199  0.8136  0.5462 -0.4151
 4982TIP3    H114910   5.403   5.394   5.227  1.1470  0.2454 -1.0619
 4982TIP3    H214911   5.354   5.537   5.226 -0.7469 -0.3665 -2.5863
 4983TIP3   OH214912   3.308   5.159   5.716  0.2807 -0.1199 -0.1576
 4983TIP3    H114913   3.350   5.076   5.739  0.4749  0.0121 -0.0401
 4983TIP3    H214914   3.274   5.193   5.799  1.3612  0.5718  0.0218
 4984TIP3   OH214915   5.558   1.963   1.954  0.0670  0.3463  0.3433
 4984TIP3    H114916   5.515   1.878   1.971  1.2731 -0.0718  1.5426
 4984TIP3    H214917   5.488   2.027   1.961 -0.8108 -0.5187 -0.2437
 4985TIP3   OH214918   4.098   1.877   0.624  0.4708  0.0928  0.3784
 4985TIP3    H114919   4.040   1.810   0.661  1.3010 -0.7169  0.2490
 4985TIP3    H214920   4.163   1.827   0.574  0.3441  1.0750 -0.8133
 4986TIP3   OH214921   6.119   0.006   0.779 -0.3557  0.5793  0.0022
 4986TIP3    H114922   6.193  -0.054   0.769 -1.3309 -1.0126  1.7904
 4986TIP3    H214923   6.147   0.068   0.847 -0.6242  0.0199  0.6291
 4987TIP3   OH214924   4.421   4.473   4.562  0.1609 -0.1249  0.9390
 4987TIP3    H114925   4.374   4.556   4.562 -0.2931 -0.3812  1.2536
 4987TIP3    H214926   4.505   4.493   4.521 -0.3535  0.2605  0.0516
 4988TIP3   OH214927   5.429   3.481   0.593 -0.2359  0.0367  0.3395
 4988TIP3    H114928   5.381   3.440   0.665 -0.4644  0.3921  0.3961
 4988TIP3    H214929   5.472   3.556   0.633 -0.9750  0.6775 -0.0331
 4989TIP3   OH214930   1.632   3.861   4.975 -0.3750 -0.1665 -0.2327
 4989TIP3    H114931   1.577   3.795   5.015 -1.8076  1.6394  0.9625
 4989TIP3    H214932   1.721   3.839   5.004 -0.7963 -1.5645  0.0739
 4990TIP3   OH214933   5.644   1.488   4.307 -0.1582  0.3080  0.0559
 4990TIP3    H114934   5.585   1.555   4.273 -0.8586 -0.5299 -0.4279
 4990TIP3    H214935   5.682   1.527   4.386 -1.6062  0.7535  0.5615
 4991TIP3   OH214936   3.489   3.365   4.957 -0.6102 -0.2532  0.3909
 4991TIP3    H114937   3.501   3.458   4.977 -1.4993 -0.2677  1.0346
 4991TIP3    H214938   3.405   3.361   4.910 -1.0394 -0.8291  1.1860
 4992TIP3   OH214939   1.237   4.541   0.285 -0.0095  0.1072 -0.0990
 4992TIP3    H114940   1.157   4.527   0.336 -0.0585  0.3531 -0.1088
 4992TIP3    H214941   1.279   4.617   0.326  1.5351 -1.5178  1.5443
 4993TIP3   OH214942   4.659   2.103   5.053  0.5041 -0.2156  0.2918
 4993TIP3    H114943   4.733   2.066   5.005  0.6106  0.7664 -0.3178
 4993TIP3    H214944   4.626   2.173   4.997 -0.4075 -0.1268  0.9091
 4994TIP3   OH214945   1.581   6.463   2.313  0.1357 -0.2189  0.3879
 4994TIP3    H114946   1.555   6.486   2.403 -0.1769  0.6563  0.0914
 4994TIP3    H214947   1.654   6.521   2.294  0.9158 -1.1646  0.4463
 4995TIP3   OH214948   5.204   2.962   4.337  0.2729  0.0654  0.0013
 4995TIP3    H114949   5.235   2.950   4.247  3.6105 -0.1164  1.0311
 4995TIP3    H214950   5.279   3.002   4.382 -1.1370 -0.2711  2.8158
 4996TIP3   OH214951   5.691   3.807   4.431 -0.4187  0.1915 -0.5680
 4996TIP3    H114952   5.629   3.879   4.419 -0.4602  0.3065  0.2587
 4996TIP3    H214953   5.765   3.847   4.476 -0.0160 -0.0854 -0.9768
 4997TIP3   OH214954   5.323   1.138   1.686  0.6158  0.3226 -0.2860
 4997TIP3    H114955   5.365   1.054   1.668  2.5969  0.7345  1.8327
 4997TIP3    H214956   5.246   1.140   1.629  0.8070 -2.6640 -0.8043
 4998TIP3   OH214957   1.739   1.288   1.834  0.3011  0.5666 -0.6489
 4998TIP3    H114958   1.792   1.228   1.782 -0.9339 -2.2684  1.0722
 4998TIP3    H214959   1.786   1.296   1.917  0.3480  1.8655 -0.7859
 4999TIP3   OH214960   5.502   6.224   3.343 -0.3441 -0.2707 -0.4352
 4999TIP3    H114961   5.451   6.194   3.418 -1.0230  0.9445 -0.3876
 4999TIP3    H214962   5.536   6.144   3.303  0.6197 -0.9243  1.5636
 5000TIP3   OH214963   1.850   4.289   2.236 -0.3533 -0.2647 -0.0156
 5000TIP3    H114964   1.884   4.344   2.307  0.1712 -0.0893 -0.3867
 5000TIP3    H214965   1.789   4.229   2.278 -0.0941 -0.1252  0.5713
 5001TIP3   OH214966   5.594   1.112   4.977  0.2214  0.1435 -0.7656
 5001TIP3    H114967   5.506   1.147   4.995  0.8586  0.8023  1.2977
 5001TIP3    H214968   5.588   1.020   5.000  0.7752  0.7835  2.3354
 5002TIP3   OH214969   0.806   0.221   4.934  0.5689  0.3084 -0.0589
 5002TIP3    H114970   0.813   0.174   4.851  0.1635  0.6264 -0.2720
 5002TIP3    H214971   0.839   0.309   4.914 -1.3400  0.9866 -0.3820
 5003TIP3   OH214972   0.192   4.772   5.920 -0.3313  0.3460 -0.5086
 5003TIP3    H114973   0.200   4.750   5.827  1.3860 -0.5288 -0.2102
 5003TIP3    H214974   0.152   4.859   5.921 -1.9776 -0.3404 -1.9815
 5004TIP3   OH214975   2.665   5.093   3.800 -0.5341 -0.2992 -0.4321
 5004TIP3    H114976   2.729   5.107   3.869  1.2610 -1.3052 -1.8090
 5004TIP3    H214977   2.624   5.010   3.823 -0.7832 -0.0525  0.0290
 5005TIP3   OH214978   0.185   4.415   4.245  0.0313 -0.1834 -0.0222
 5005TIP3    H114979   0.118   4.472   4.208 -0.7904 -0.7170  0.6019
 5005TIP3    H214980   0.268   4.458   4.223 -0.3742 -0.6319 -2.7122
 5006TIP3   OH214981   6.568   4.305   0.356  0.6130  0.3302 -0.1459
 5006TIP3    H114982   6.531   4.337   0.274  2.3168  1.5625 -0.4926
 5006TIP3    H214983   6.623   4.232   0.331  0.8701  0.4939 -0.0626
 5007TIP3   OH214984   4.972   6.396   0.843  0.1422  0.0199 -0.3105
 5007TIP3    H114985   4.974   6.460   0.772  0.6595 -0.3157 -0.6082
 5007TIP3    H214986   5.002   6.315   0.803 -1.8330 -0.7831 -0.2928
 5008TIP3   OH214987   5.993   4.805   3.865 -0.2568 -0.0741 -0.1733
 5008TIP3    H114988   6.026   4.843   3.784  0.7372  0.1601  0.3270
 5008TIP3    H214989   5.992   4.710   3.849  0.1562 -0.0451 -0.3887
 5009TIP3   OH214990   3.307   6.014   5.749  0.6224  0.2473 -0.1579
 5009TIP3    H114991   3.348   5.998   5.834 -0.1372  0.7521  0.3177
 5009TIP3    H214992   3.217   6.041   5.771  0.4051  0.3277 -1.1226
 5010TIP3   OH214993   0.042   4.072   0.964  0.1915 -0.0366  0.2799
 5010TIP3    H114994  -0.014   4.065   1.041 -0.2599  0.6652  0.0266
 5010TIP3    H214995   0.122   4.114   0.996  0.5979 -1.0481  0.6431
 5011TIP3   OH214996   6.287   1.540   4.305 -0.3233  0.2259 -0.2115
 5011TIP3    H114997   6.254   1.477   4.369  2.3853 -2.4246 -1.2446
 5011TIP3    H214998   6.212   1.559   4.249 -0.7814 -4.0127 -1.3105
 5012TIP3   OH214999   0.284   3.906   5.424 -0.0004 -0.4046  0.4811
 5012TIP3    H115000   0.228   3.895   5.500  1.7914  2.3089  2.3691
 5012TIP3    H215001   0.373   3.897   5.458  0.8349 -0.3378 -1.5450
 5013TIP3   OH215002   7.056   2.953   1.974  0.9166 -0.4063 -0.1104
 5013TIP3    H115003   7.131   2.902   2.006  1.4903  1.0497  0.9623
 5013TIP3    H215004   7.089   3.001   1.899  0.4072 -1.4729 -1.0470
 5014TIP3   OH215005   6.339   4.111   4.448  0.3587 -0.2683  0.1320
 5014TIP3    H115006   6.389   4.192   4.459 -0.0099 -0.0489  0.2321
 5014TIP3    H215007   6.323   4.081   4.538  2.4437 -1.6881  0.0810
 5015TIP3   OH215008   2.981   4.116   0.112  0.0041  0.4460 -0.5379
 5015TIP3    H115009   3.046   4.180   0.082 -0.0910  0.5029 -0.6245
 5015TIP3    H215010   2.924   4.166   0.170 -0.2879  0.5276 -0.8927
 5016TIP3   OH215011   2.109   0.554   2.287 -0.4579 -0.8536 -0.0053
 5016TIP3    H115012   2.133   0.481   2.345 -1.3722 -1.3694 -0.2601
 5016TIP3    H215013   2.099   0.514   2.201  0.8156 -0.0993 -0.5254
 5017TIP3   OH215014   6.807   5.752   3.283 -0.0457  0.6357 -0.0763
 5017TIP3    H115015   6.896   5.745   3.317 -0.8022 -0.5888  1.8547
 5017TIP3    H215016   6.817   5.758   3.188  2.0376 -0.6724  0.0068
 5018TIP3   OH215017   4.316   2.102   1.221 -0.0735  0.3494  0.2298
 5018TIP3    H115018   4.357   2.178   1.180  1.5998 -0.4063  0.4088
 5018TIP3    H215019   4.348   2.027   1.170 -0.4775 -0.3493  0.9801
 5019TIP3   OH215020   3.403   3.611   2.497 -0.5791 -0.0715  0.2946
 5019TIP3    H115021   3.442   3.525   2.480 -1.3197 -0.5059  0.7472
 5019TIP3    H215022   3.420   3.627   2.590  0.8769  0.9690 -0.1194
 5020TIP3   OH215023   1.468   4.881   4.079  0.4518  0.3462  0.5192
 5020TIP3    H115024   1.463   4.821   4.153 -0.8679 -0.7618 -0.4349
 5020TIP3    H215025   1.377   4.900   4.057  0.6025 -2.1708 -3.0250
 5021TIP3   OH215026   3.121   1.620   1.740 -0.3134  0.2739  0.2756
 5021TIP3    H115027   3.075   1.536   1.734  0.6731 -0.4149  1.6958
 5021TIP3    H215028   3.141   1.643   1.649  1.3175 -2.1801 -0.1006
 5022TIP3   OH215029   5.936   1.614   2.334 -0.1965  0.6149 -0.1073
 5022TIP3    H115030   5.984   1.692   2.306 -1.2797  1.0019 -0.9511
 5022TIP3    H215031   5.872   1.598   2.264 -1.2070  0.0407  0.9104
 5023TIP3   OH215032   3.527   4.708   1.026  0.1752  0.0919  0.2859
 5023TIP3    H115033   3.483   4.723   1.110  0.6168 -1.4807  0.8441
 5023TIP3    H215034   3.539   4.795   0.989 -3.0583  0.6490  0.2752
 5024TIP3   OH215035   4.820   5.219   1.276 -0.8579  0.0773 -0.2546
 5024TIP3    H115036   4.860   5.234   1.362 -1.0711 -1.6604  0.1840
 5024TIP3    H215037   4.876   5.153   1.235 -0.4192  1.3087 -1.7307
 5025TIP3   OH215038   3.567   3.106   5.403 -0.0736 -1.1805 -0.4489
 5025TIP3    H115039   3.518   3.109   5.321 -2.6764  0.1266  0.9870
 5025TIP3    H215040   3.507   3.064   5.465  0.2436  1.0703  1.5870
 5026TIP3   OH215041   2.625   4.903   1.085  0.2303  0.4818  0.0350
 5026TIP3    H115042   2.685   4.944   1.023 -0.1911 -0.8139 -1.3074
 5026TIP3    H215043   2.602   4.972   1.147 -1.7835  2.8536 -3.0233
 5027TIP3   OH215044   0.229   4.328   0.781 -0.0066  0.8972  0.0620
 5027TIP3    H115045   0.320   4.356   0.768  0.0614  0.7573  0.2295
 5027TIP3    H215046   0.221   4.317   0.876 -0.3400  1.3837  0.0947
 5028TIP3   OH215047   6.162   5.413   2.565  0.5837  0.2218  0.3081
 5028TIP3    H115048   6.188   5.459   2.485  0.3853  2.4801  1.4660
 5028TIP3    H215049   6.226   5.342   2.574  0.7203  0.0422 -1.7124
 5029TIP3   OH215050   1.713   5.978   1.295  0.4505  0.4841 -0.4737
 5029TIP3    H115051   1.768   5.998   1.370 -1.4527  0.5857  0.9614
 5029TIP3    H215052   1.629   6.019   1.315 -0.0205  0.8216 -2.8357
 5030TIP3   OH215053   1.573   0.468   4.646 -0.6958 -0.2291  0.4109
 5030TIP3    H115054   1.479   0.473   4.665 -0.7132  0.8645  0.0963
 5030TIP3    H215055   1.581   0.507   4.559 -0.1312 -1.6977 -0.2308
 5031TIP3   OH215056   3.429   1.161   0.317 -0.3321  0.0562  0.0609
 5031TIP3    H115057   3.446   1.144   0.224 -0.7904  1.5013 -0.3151
 5031TIP3    H215058   3.440   1.255   0.326 -0.0117 -0.1065  1.5531
 5032TIP3   OH215059   0.378   2.192   5.851  0.3941  0.0981 -0.1583
 5032TIP3    H115060   0.347   2.101   5.851  0.9479 -0.1315  1.3053
 5032TIP3    H215061   0.333   2.232   5.925  2.1336  0.2503  0.8797
 5033TIP3   OH215062   4.794   4.466   0.782  0.2919 -0.1248 -0.1314
 5033TIP3    H115063   4.872   4.514   0.752 -0.4481  0.9338 -0.4138
 5033TIP3    H215064   4.759   4.427   0.702 -0.1466  0.4205 -0.2098
 5034TIP3   OH215065   1.380   1.680   4.323  0.1487  0.2716 -0.2165
 5034TIP3    H115066   1.403   1.588   4.332 -1.2666 -0.0452  0.3940
 5034TIP3    H215067   1.295   1.688   4.365  1.3945  2.4130  2.1656
 5035TIP3   OH215068   4.134   4.897   0.682 -0.1383 -0.2243 -0.1242
 5035TIP3    H115069   4.186   4.842   0.623  0.8645 -0.1481  0.6511
 5035TIP3    H215070   4.144   4.985   0.647  2.2931  0.1792  1.3123
 5036TIP3   OH215071   3.368   5.982   3.095  0.1624 -0.4173  0.3103
 5036TIP3    H115072   3.453   5.979   3.051  0.0114  0.2363 -0.0435
 5036TIP3    H215073   3.389   5.985   3.188  0.5084 -0.8538  0.2517
 5037TIP3   OH215074   2.862   2.301   4.264  0.5203 -0.1277 -0.5761
 5037TIP3    H115075   2.914   2.271   4.339  1.0433  2.2397  0.0886
 5037TIP3    H215076   2.868   2.228   4.201  1.5117 -1.4650  0.9635
 5038TIP3   OH215077   6.122   1.109   0.465 -0.0392  0.8326  0.6925
 5038TIP3    H115078   6.110   1.097   0.371  1.5192  0.6940  0.4944
 5038TIP3    H215079   6.039   1.080   0.504 -0.2966 -0.1789 -0.5576
 5039TIP3   OH215080   2.764   1.491   3.118  0.3810 -0.5590 -1.0502
 5039TIP3    H115081   2.752   1.470   3.211  0.5353  1.5524 -0.5054
 5039TIP3    H215082   2.689   1.450   3.074 -0.6226 -0.1625  0.2428
 5040TIP3   OH215083   3.277   4.406   2.759  0.3115  0.4237  0.4892
 5040TIP3    H115084   3.350   4.347   2.778 -1.4442 -1.7881  0.7145
 5040TIP3    H215085   3.281   4.472   2.828  0.8692 -0.8859  1.7667
 5041TIP3   OH215086   5.245   4.382   3.429  1.1341 -0.3454  0.4852
 5041TIP3    H115087   5.194   4.430   3.365 -0.3536 -0.6855  1.3598
 5041TIP3    H215088   5.218   4.418   3.514  1.8456 -1.0075  1.0193
 5042TIP3   OH215089   6.973   4.226   5.696  0.6311 -0.2788 -0.3504
 5042TIP3    H115090   6.896   4.271   5.733  0.0317 -0.2760 -1.5503
 5042TIP3    H215091   7.030   4.212   5.771 -0.8247 -0.8683  0.6986
 5043TIP3   OH215092   3.187   5.467   3.896 -0.3560  0.5062 -0.0357
 5043TIP3    H115093   3.105   5.423   3.920  0.5488 -1.1244  0.2192
 5043TIP3    H215094   3.235   5.402   3.844  1.0104  1.2120  0.2910
 5044TIP3   OH215095   4.356   4.146   4.996  0.1719 -0.0730  0.8671
 5044TIP3    H115096   4.345   4.190   4.912  0.9720  1.0847  1.3560
 5044TIP3    H215097   4.307   4.064   4.986 -0.8511  0.6356 -0.2680
 5045TIP3   OH215098   4.486   3.673   4.704  0.7800  0.0557 -0.6397
 5045TIP3    H115099   4.417   3.630   4.754 -0.9286  2.8018 -0.3731
 5045TIP3    H215100   4.450   3.682   4.616  2.1751 -1.2766 -1.3969
 5046TIP3   OH215101   3.360   4.181   3.157 -0.1694 -0.1241 -0.0455
 5046TIP3    H115102   3.297   4.122   3.198 -1.5801  1.0751 -0.4406
 5046TIP3    H215103   3.394   4.234   3.229 -0.7045  0.2259 -0.0534
 5047TIP3   OH215104   5.761   5.945   3.962 -0.0219 -0.1192 -0.6829
 5047TIP3    H115105   5.830   6.009   3.946 -0.4573  1.1378  2.0586
 5047TIP3    H215106   5.680   5.996   3.964 -0.9821 -1.4012 -2.6058
 5048TIP3   OH215107   1.500   2.704   0.338  0.2165  0.2996  0.1041
 5048TIP3    H115108   1.548   2.783   0.362  0.1987  0.1406  0.6972
 5048TIP3    H215109   1.468   2.670   0.422 -0.6945  0.2514 -0.2467
 5049TIP3   OH215110   6.931   5.561   5.005 -0.0679  0.0599  0.1255
 5049TIP3    H115111   6.959   5.473   5.026 -0.7208 -0.6333 -1.6977
 5049TIP3    H215112   6.980   5.618   5.065  1.8003 -1.3837  0.0264
 5050TIP3   OH215113   7.166   2.757   2.335  0.4303 -0.4694  0.7951
 5050TIP3    H115114   7.168   2.726   2.244  1.0881  1.9465 -0.0721
 5050TIP3    H215115   7.237   2.820   2.341 -0.0815 -0.0016  2.8004
 5051TIP3   OH215116   6.074   3.001   3.056  0.1896  0.2693  0.5934
 5051TIP3    H115117   6.002   3.023   3.115 -0.6500 -1.4268  0.2853
 5051TIP3    H215118   6.035   3.004   2.969  0.1742 -1.6592  0.4921
 5052TIP3   OH215119   1.895   3.116   2.602 -0.5504 -0.0106 -0.6508
 5052TIP3    H115120   1.803   3.138   2.586 -0.3329  0.0485 -1.8447
 5052TIP3    H215121   1.891   3.030   2.646 -1.1967  0.3669  0.0686
 5053TIP3   OH215122   6.604   6.022   0.183 -0.2912  0.0800 -1.2318
 5053TIP3    H115123   6.618   5.949   0.121  1.7629 -0.4571 -0.2315
 5053TIP3    H215124   6.690   6.064   0.189 -0.4932  0.2753  1.0333
 5054TIP3   OH215125   3.381   2.414   2.101  0.3020  0.3022 -0.0972
 5054TIP3    H115126   3.417   2.502   2.093  0.0163  0.4463  0.1783
 5054TIP3    H215127   3.454   2.362   2.136 -0.2406  0.9712  2.2125
 5055TIP3   OH215128   2.400   3.920   2.920 -0.1082 -0.0475 -0.1623
 5055TIP3    H115129   2.339   3.950   2.987  0.6743 -0.6941  0.8742
 5055TIP3    H215130   2.437   4.000   2.883 -0.9865  0.3270 -0.2477
 5056TIP3   OH215131   4.156   5.533   1.511 -0.6300 -0.0013  0.3126
 5056TIP3    H115132   4.171   5.627   1.518 -1.9769  0.2755 -0.1619
 5056TIP3    H215133   4.088   5.514   1.576 -0.1212 -0.7209  0.6517
 5057TIP3   OH215134   4.881   1.570   5.029  0.1978  0.2132 -0.4371
 5057TIP3    H115135   4.841   1.657   5.029 -1.3155 -0.4631 -0.6303
 5057TIP3    H215136   4.857   1.533   5.114  0.3634 -0.2380 -0.5866
 5058TIP3   OH215137   1.422   5.425   5.224 -0.2301  0.0065  0.0058
 5058TIP3    H115138   1.454   5.497   5.277  0.8474  0.6090 -1.3870
 5058TIP3    H215139   1.498   5.395   5.175 -0.5465 -2.3561  0.7891
 5059TIP3   OH215140   6.303   1.600   4.736 -0.0782  0.0924 -0.5656
 5059TIP3    H115141   6.229   1.584   4.677  0.3280 -3.5647 -0.3064
 5059TIP3    H215142   6.380   1.574   4.685  0.4059 -1.7191  0.9814
 5060TIP3   OH215143   5.625   5.778   5.800  0.0409 -0.0454  0.2353
 5060TIP3    H115144   5.607   5.702   5.744 -2.8981  2.1975 -2.2535
 5060TIP3    H215145   5.556   5.775   5.866  0.8937 -0.3734  1.1186
 5061TIP3   OH215146   3.911   6.556   2.651 -0.6179  0.0696  0.2133
 5061TIP3    H115147   3.974   6.606   2.600  0.6880 -2.6071 -0.9942
 5061TIP3    H215148   3.825   6.584   2.619  0.1405 -0.4635 -2.4827
 5062TIP3   OH215149   6.827   4.894   0.390 -0.1031 -0.3814 -0.2711
 5062TIP3    H115150   6.922   4.890   0.382 -0.1313 -5.0357 -0.9680
 5062TIP3    H215151   6.811   4.896   0.485  0.6952 -0.3116 -0.1342
 5063TIP3   OH215152   3.103   2.771   3.196 -0.0699 -0.0852  0.0782
 5063TIP3    H115153   3.132   2.796   3.283  2.6896  0.3680 -0.8918
 5063TIP3    H215154   3.073   2.681   3.206  1.5440 -0.5312  1.2457
 5064TIP3   OH215155   3.477   3.608   0.978  0.2025  0.1729  0.3000
 5064TIP3    H115156   3.465   3.537   0.915 -1.4845 -1.8583  2.6817
 5064TIP3    H215157   3.556   3.585   1.026 -0.6005 -0.4106  1.3849
 5065TIP3   OH215158   4.823   3.989   3.609 -0.4966 -0.4806 -0.0931
 5065TIP3    H115159   4.810   4.084   3.604  0.5277 -0.2024  1.8386
 5065TIP3    H215160   4.749   3.953   3.561 -0.2262  1.2862 -2.0318
 5066TIP3   OH215161   2.924   0.768   4.844  0.4106  0.6413  0.2684
 5066TIP3    H115162   2.883   0.766   4.931  1.2091  0.9693  0.6589
 5066TIP3    H215163   2.850   0.761   4.783 -0.3049  1.9247  0.9379
 5067TIP3   OH215164   5.116   4.604   1.631 -0.1494 -0.2799 -0.0565
 5067TIP3    H115165   5.073   4.626   1.714 -2.4943  1.3263 -1.5747
 5067TIP3    H215166   5.156   4.686   1.602 -1.6083 -0.0904 -1.7029
 5068TIP3   OH215167   1.377   1.198   0.217 -0.5164 -0.4618  0.3004
 5068TIP3    H115168   1.289   1.186   0.253 -0.9892 -0.0439 -0.6935
 5068TIP3    H215169   1.395   1.116   0.171 -1.2898  0.2673 -1.3527
 5069TIP3   OH215170   2.768   6.615   1.675  0.7442  0.1032  0.0046
 5069TIP3    H115171   2.736   6.532   1.712  0.6648 -0.5819 -1.4976
 5069TIP3    H215172   2.860   6.598   1.654  1.1042  0.8527  0.8742
 5070TIP3   OH215173   1.593   2.114   2.681 -0.4249  0.4671 -0.4571
 5070TIP3    H115174   1.675   2.108   2.729 -0.2404 -0.0348 -0.8247
 5070TIP3    H215175   1.583   2.027   2.641 -1.0663  0.5670 -0.5173
 5071TIP3   OH215176   6.289   3.101   1.373 -0.1775  0.2161 -0.1120
 5071TIP3    H115177   6.268   3.043   1.446  1.1453  0.9868  0.9274
 5071TIP3    H215178   6.308   3.042   1.300 -1.1288 -0.5786  0.2601
 5072TIP3   OH215179   1.012   0.435   2.756 -0.1057 -0.0694  0.7214
 5072TIP3    H115180   1.060   0.383   2.692  0.6626  0.2965  0.9894
 5072TIP3    H215181   1.026   0.526   2.729  0.0518  0.0781  1.2872
 5073TIP3   OH215182   6.197   1.665   3.868  0.1793  0.5569 -0.0005
 5073TIP3    H115183   6.253   1.631   3.938 -0.5795  0.0293  0.3653
 5073TIP3    H215184   6.196   1.595   3.802 -0.7451  0.1752  0.3954
 5074TIP3   OH215185   0.014   1.871   5.136 -0.3907  0.4157 -0.1535
 5074TIP3    H115186   0.037   1.784   5.169 -0.9905  0.0345 -0.7230
 5074TIP3    H215187   0.068   1.883   5.059 -2.5483 -0.8179 -1.9732
 5075TIP3   OH215188   6.509   1.282   3.026  0.0990  0.6069 -0.0083
 5075TIP3    H115189   6.436   1.318   3.077 -0.9386  1.9226 -2.2775
 5075TIP3    H215190   6.565   1.357   3.007  0.3272  0.2141 -0.9793
 5076TIP3   OH215191   4.277   0.456   5.207  0.1345  0.6537  0.1293
 5076TIP3    H115192   4.270   0.405   5.126  0.9774  0.0941  0.3963
 5076TIP3    H215193   4.271   0.391   5.277 -0.7551  1.1556  0.5330
 5077TIP3   OH215194   3.492   2.567   4.027  0.4224  0.1723 -0.1640
 5077TIP3    H115195   3.419   2.543   3.969  0.8448 -1.2103 -0.1624
 5077TIP3    H215196   3.453   2.567   4.115  0.5942 -1.4204 -0.0692
 5078TIP3   OH215197   6.856   3.105   4.073  0.2962 -0.3324  0.3017
 5078TIP3    H115198   6.929   3.043   4.078  0.7132 -0.0288 -1.3540
 5078TIP3    H215199   6.855   3.133   3.981 -0.8294  0.9773  0.6856
 5079TIP3   OH215200   1.222   2.379   3.518 -0.0661  0.0547  0.0109
 5079TIP3    H115201   1.288   2.331   3.468  0.9072  1.2297  0.0961
 5079TIP3    H215202   1.189   2.445   3.457 -0.1278  0.3758  0.3869
 5080TIP3   OH215203   0.924   0.242   2.382  0.1455  0.0737 -0.0802
 5080TIP3    H115204   0.897   0.151   2.395  0.7760 -0.0093  0.7119
 5080TIP3    H215205   0.898   0.262   2.292  2.0895 -1.6490 -1.1069
 5081TIP3   OH215206   1.926   0.584   0.817  0.3227  0.1465  0.1917
 5081TIP3    H115207   2.017   0.596   0.845 -0.4199 -0.7410  3.3698
 5081TIP3    H215208   1.925   0.499   0.774  1.0537  0.2912 -0.1221
 5082TIP3   OH215209   3.828   1.750   3.391 -0.3294 -0.4769 -0.0667
 5082TIP3    H115210   3.911   1.758   3.344 -0.7326  2.0737 -0.4723
 5082TIP3    H215211   3.833   1.816   3.460 -0.9302 -2.1993  1.7067
 5083TIP3   OH215212   1.690   4.084   2.307  0.1093  0.1211  0.7974
 5083TIP3    H115213   1.681   4.106   2.399  0.2979  1.4622  0.5086
 5083TIP3    H215214   1.745   4.005   2.307 -1.0392 -0.7251  1.8752
 5084TIP3   OH215215   0.717   0.886   1.141 -0.0807  0.2367 -0.1667
 5084TIP3    H115216   0.681   0.914   1.225  1.4763 -1.3297  1.0983
 5084TIP3    H215217   0.748   0.797   1.157  0.2379 -0.1084 -2.4327
 5085TIP3   OH215218   6.098   1.473   3.395 -0.5412  0.3411 -0.0063
 5085TIP3    H115219   6.007   1.449   3.376 -0.6446  0.9968 -0.3738
 5085TIP3    H215220   6.147   1.441   3.320 -0.6034  0.7984 -0.2445
 5086TIP3   OH215221   0.893   0.134   4.685  0.2706 -0.2144 -0.0283
 5086TIP3    H115222   0.964   0.074   4.659  0.9144  0.6926 -0.4050
 5086TIP3    H215223   0.876   0.186   4.607 -0.0538  0.3327  0.4037
 5087TIP3   OH215224   1.464   3.705   5.114  0.0888  0.0699  0.3040
 5087TIP3    H115225   1.459   3.630   5.055  0.2643  0.3758 -0.1009
 5087TIP3    H215226   1.374   3.735   5.122  0.1624  0.4724 -0.3822
 5088TIP3   OH215227   1.845   1.580   4.467 -0.3310  0.1234 -0.3276
 5088TIP3    H115228   1.890   1.658   4.436  0.3440 -0.1171  0.0295
 5088TIP3    H215229   1.792   1.552   4.392 -2.0220  1.9423  0.1188
 5089TIP3   OH215230   5.916   2.202   0.908 -0.3368  0.9173  0.8474
 5089TIP3    H115231   5.951   2.247   0.985  0.2932  2.4059 -0.2418
 5089TIP3    H215232   5.939   2.260   0.835  0.2574 -1.0738 -0.6320
 5090TIP3   OH215233   6.749   3.208   0.048  0.4245 -0.1633  0.0616
 5090TIP3    H115234   6.732   3.180   0.138  0.6059  2.9642  1.1956
 5090TIP3    H215235   6.842   3.186   0.033  0.9404  0.9724  1.3907
 5091TIP3   OH215236   4.314   4.261   2.064 -0.0917  0.5808  0.2674
 5091TIP3    H115237   4.299   4.324   1.994 -0.4539  0.7214  0.4726
 5091TIP3    H215238   4.409   4.249   2.065 -0.1644 -0.4370 -1.1288
 5092TIP3   OH215239   6.185   2.549   5.410  0.0753 -0.2167 -0.0765
 5092TIP3    H115240   6.111   2.608   5.428  0.6536  0.6005 -0.3020
 5092TIP3    H215241   6.176   2.480   5.476 -0.4132  0.3188  0.4439
 5093TIP3   OH215242   0.576   2.625   0.668 -0.5191  0.0496 -0.2146
 5093TIP3    H115243   0.605   2.580   0.747  0.7186  2.4669  0.8081
 5093TIP3    H215244   0.576   2.557   0.601  2.7238 -1.2452  0.8977
 5094TIP3   OH215245   1.339   1.053   0.807  0.1108 -0.0551 -0.0329
 5094TIP3    H115246   1.384   0.976   0.773 -0.6176 -1.0118  1.1220
 5094TIP3    H215247   1.326   1.035   0.900 -1.8087  0.6037 -0.1319
 5095TIP3   OH215248   6.432   1.387   5.541  0.2600 -0.2342 -0.0847
 5095TIP3    H115249   6.486   1.312   5.568  0.6394  0.5969  1.5872
 5095TIP3    H215250   6.490   1.463   5.552 -0.6499  0.4786 -0.1294
 5096TIP3   OH215251   0.571   0.397   4.709 -0.4442  0.4955  0.5083
 5096TIP3    H115252   0.624   0.475   4.726  0.5475  0.1928 -1.0472
 5096TIP3    H215253   0.481   0.428   4.715 -0.0796  1.5390  0.8700
 5097TIP3   OH215254   3.554   2.310   4.020 -0.0563 -0.0104  0.2755
 5097TIP3    H115255   3.570   2.404   4.017  0.2856 -0.0994 -0.8043
 5097TIP3    H215256   3.622   2.276   4.078  0.6506  0.2358 -0.4088
 5098TIP3   OH215257   4.567   6.169   1.967 -0.6177 -0.1917 -0.3710
 5098TIP3    H115258   4.508   6.209   2.030 -0.7155  0.0150 -0.5923
 5098TIP3    H215259   4.567   6.076   1.990 -0.6147 -0.1127 -0.0374
 5099TIP3   OH215260   2.863   5.769   0.292 -0.5307 -0.1870  0.2798
 5099TIP3    H115261   2.914   5.844   0.261 -0.0557 -1.0816 -1.2064
 5099TIP3    H215262   2.781   5.807   0.324 -0.2128  0.9857 -0.2399
 5100TIP3   OH215263   5.806   1.635   4.505  0.1878 -0.6232 -0.4017
 5100TIP3    H115264   5.730   1.658   4.559  0.3365 -2.6410  0.7773
 5100TIP3    H215265   5.881   1.647   4.563  0.5172 -1.1631 -0.7093
 5101TIP3   OH215266   0.523   2.540   5.188 -0.1585 -0.2521  0.7061
 5101TIP3    H115267   0.448   2.539   5.247 -0.0109 -0.4427  0.8923
 5101TIP3    H215268   0.600   2.533   5.246 -0.0015 -0.1381  0.5135
 5102TIP3   OH215269   1.155   4.957   0.323 -0.1236  0.1509 -0.8594
 5102TIP3    H115270   1.214   4.884   0.302  0.5783 -0.3982  2.4329
 5102TIP3    H215271   1.213   5.028   0.350 -0.9008  0.8284 -0.9348
 5103TIP3   OH215272   3.454   2.349   1.825  0.3840  0.2995 -0.5818
 5103TIP3    H115273   3.429   2.433   1.785  0.6970 -0.1957 -1.8561
 5103TIP3    H215274   3.460   2.369   1.918 -1.0733  1.3208 -0.6640
 5104TIP3   OH215275   1.662   0.608   0.766 -0.0019  0.7371 -0.6018
 5104TIP3    H115276   1.746   0.635   0.803  0.3526  1.4523 -1.8878
 5104TIP3    H215277   1.683   0.533   0.711 -0.0726  1.3571 -1.4928
 5105TIP3   OH215278   0.135   4.445   3.778  0.0217 -0.7232  0.0600
 5105TIP3    H115279   0.145   4.538   3.799 -0.2434 -0.4491 -0.9777
 5105TIP3    H215280   0.150   4.439   3.684 -0.7642 -1.6033 -0.0336
 5106TIP3   OH215281   3.512   3.914   2.689 -0.3572  0.9929 -0.1522
 5106TIP3    H115282   3.480   3.824   2.695  1.8638 -0.2048 -3.3980
 5106TIP3    H215283   3.554   3.931   2.773  0.1016 -1.4406  0.1735
 5107TIP3   OH215284   5.454   1.087   4.078  0.5015 -0.8715 -0.4465
 5107TIP3    H115285   5.521   1.113   4.142  0.1858 -0.1470 -0.4058
 5107TIP3    H215286   5.375   1.072   4.131  0.0839  0.2990 -0.7242
 5108TIP3   OH215287   4.611   1.500   1.315  0.7483  0.2544 -0.5307
 5108TIP3    H115288   4.561   1.540   1.244  0.7012  1.9875  0.4303
 5108TIP3    H215289   4.607   1.564   1.386 -1.8651 -2.6294  2.2252
 5109TIP3   OH215290   2.717   6.181   0.752 -0.4689 -0.4434  0.1833
 5109TIP3    H115291   2.784   6.196   0.819 -0.3610 -1.7685  0.3993
 5109TIP3    H215292   2.700   6.268   0.715  0.0206  0.1923  1.3982
 5110TIP3   OH215293   4.623   3.103   1.149  0.4132  0.7899 -0.2624
 5110TIP3    H115294   4.589   3.071   1.066 -1.6616  1.1400  0.4099
 5110TIP3    H215295   4.587   3.191   1.157 -0.3920  0.3229  1.5554
 5111TIP3   OH215296   0.568   6.784   1.441 -0.2386 -0.1092 -0.0094
 5111TIP3    H115297   0.558   6.691   1.419  0.9765 -0.3336  0.3500
 5111TIP3    H215298   0.631   6.785   1.513  0.6121  1.0756 -0.7422
 5112TIP3   OH215299   1.578   3.571   1.557 -0.0519  0.0878  0.2824
 5112TIP3    H115300   1.561   3.635   1.488  1.5293  0.5444  0.2644
 5112TIP3    H215301   1.597   3.624   1.635 -1.4698 -0.4181  1.0021
 5113TIP3   OH215302   1.707   2.284   5.730 -0.0095 -0.4634 -0.2493
 5113TIP3    H115303   1.768   2.228   5.779 -1.1034 -0.3327  1.3370
 5113TIP3    H215304   1.726   2.373   5.760  0.0301 -0.2571 -0.8784
 5114TIP3   OH215305   6.987   0.073   4.037  0.2680 -0.3025  0.3459
 5114TIP3    H115306   7.068   0.045   3.994  0.3431  0.8999 -0.3483
 5114TIP3    H215307   7.008   0.158   4.076 -0.8380  0.3938 -0.4928
 5115TIP3   OH215308   6.439   1.951   1.280  0.1858  0.0744  0.2669
 5115TIP3    H115309   6.512   1.923   1.225  0.2825  0.3167  0.2750
 5115TIP3    H215310   6.362   1.935   1.225  0.1426 -1.2312  0.6633
 5116TIP3   OH215311   0.076   3.772   3.893 -0.1958  0.6644 -0.1244
 5116TIP3    H115312   0.039   3.692   3.857 -2.3635  1.2893  0.5334
 5116TIP3    H215313   0.109   3.747   3.979  2.1209 -0.1585 -1.1903
 5117TIP3   OH215314   0.780   5.537   3.633  0.4435 -0.4419  0.0281
 5117TIP3    H115315   0.722   5.524   3.558  0.6594 -1.5210  0.0325
 5117TIP3    H215316   0.844   5.601   3.604 -0.7944  0.8537  0.0557
 5118TIP3   OH215317   0.477   1.033   1.189  0.1238 -0.1873  0.3857
 5118TIP3    H115318   0.432   1.117   1.205  1.0940  0.0542  2.0573
 5118TIP3    H215319   0.508   1.040   1.099  0.4778  1.4222  0.5880
 5119TIP3   OH215320   2.804   3.786   1.636  0.1186  0.1621 -0.2550
 5119TIP3    H115321   2.718   3.809   1.671 -0.0392  0.2306 -0.6768
 5119TIP3    H215322   2.846   3.736   1.706 -0.4931 -0.3871 -0.2642
 5120TIP3   OH215323   2.784   3.906   2.312 -0.0357 -0.4789  1.1023
 5120TIP3    H115324   2.720   3.910   2.241  0.5456  0.4823  0.6184
 5120TIP3    H215325   2.824   3.819   2.304 -0.8650 -0.8616  1.0547
 5121TIP3   OH215326   5.196   5.234   4.161 -0.8132  0.1658  0.2328
 5121TIP3    H115327   5.252   5.222   4.084  0.9080  0.5421  1.3671
 5121TIP3    H215328   5.120   5.281   4.128 -0.4359 -0.2748 -1.3627
 5122TIP3   OH215329   3.840   3.508   3.046  0.3231 -0.0390  0.0796
 5122TIP3    H115330   3.850   3.414   3.034  0.1413 -0.1347  0.6585
 5122TIP3    H215331   3.915   3.546   2.999 -0.0862 -0.4171 -0.8896
 5123TIP3   OH215332   0.978   3.470   4.498 -0.1835 -0.3163  0.0162
 5123TIP3    H115333   1.025   3.530   4.441 -0.0523  0.1531  0.6111
 5123TIP3    H215334   0.899   3.518   4.525  0.0180 -0.3242  0.6521
 5124TIP3   OH215335   1.099   2.028   3.399  0.2069 -0.1381 -0.8743
 5124TIP3    H115336   1.182   2.036   3.445 -0.7048  0.7954  0.7246
 5124TIP3    H215337   1.122   1.991   3.314  2.3058  0.6005 -0.6895
 5125TIP3   OH215338   5.028   4.190   1.053  0.0165  0.4620 -0.3044
 5125TIP3    H115339   4.953   4.131   1.045 -0.2310  0.6306  0.5981
 5125TIP3    H215340   5.103   4.133   1.066  0.1494  0.2666 -1.7019
 5126TIP3   OH215341   0.640   0.693   4.746  0.5920  0.0433  0.4518
 5126TIP3    H115342   0.551   0.723   4.763  0.8910  1.7587 -0.6765
 5126TIP3    H215343   0.679   0.684   4.832 -0.5729 -0.4042  0.9528
 5127TIP3   OH215344   5.885   3.321   0.510 -0.2611 -0.6953 -0.2035
 5127TIP3    H115345   5.793   3.311   0.533 -0.4541  3.0822  1.2797
 5127TIP3    H215346   5.884   3.360   0.423 -0.1970  0.9450  0.4988
 5128TIP3   OH215347   5.121   4.722   5.373 -0.3794 -0.3093  0.2528
 5128TIP3    H115348   5.052   4.754   5.314  0.7016  0.2334 -0.7403
 5128TIP3    H215349   5.135   4.794   5.434  0.1156  0.0314 -0.2621
 5129TIP3   OH215350   3.568   2.243   2.224  0.3613 -0.5986 -0.0436
 5129TIP3    H115351   3.546   2.153   2.249 -1.1178  0.4167  2.6993
 5129TIP3    H215352   3.658   2.255   2.254  0.5256 -1.1018 -0.3188
 5130TIP3   OH215353   3.101   4.439   4.065 -0.3730 -0.1218  0.0307
 5130TIP3    H115354   3.007   4.432   4.080 -0.1898 -0.1230  1.3414
 5130TIP3    H215355   3.140   4.382   4.131  0.5368 -0.6596 -0.9390
 5131TIP3   OH215356   0.575   0.684   4.352  0.1137  0.6327  0.1922
 5131TIP3    H115357   0.552   0.596   4.382  0.4696 -0.0341 -1.3793
 5131TIP3    H215358   0.669   0.681   4.336  0.2731  1.5442  0.8413
 5132TIP3   OH215359   2.030   6.077   5.221  0.2264  0.1978 -0.3785
 5132TIP3    H115360   2.116   6.079   5.263 -0.4531  1.3284  1.0671
 5132TIP3    H215361   2.003   6.169   5.220 -2.2139 -0.3850  1.9574
 5133TIP3   OH215362   1.377   1.096   2.006  0.1585  0.4092 -0.7413
 5133TIP3    H115363   1.427   1.161   1.956 -0.6381  1.4006 -0.2724
 5133TIP3    H215364   1.420   1.095   2.092  0.0204  0.5052 -0.6705
 5134TIP3   OH215365   5.835   0.577   0.563 -0.2585 -0.6579  0.6453
 5134TIP3    H115366   5.914   0.527   0.582  0.5423  0.5092  0.5503
 5134TIP3    H215367   5.774   0.514   0.526  0.6037 -1.6052  0.8087
 5135TIP3   OH215368   2.460   0.312   5.435 -0.1225 -0.5761  0.5741
 5135TIP3    H115369   2.434   0.248   5.368 -0.3663 -1.2630  1.2994
 5135TIP3    H215370   2.556   0.315   5.429  0.1952 -3.3026  2.4841
 5136TIP3   OH215371   3.327   6.334   0.544  0.1002  0.2750 -0.5308
 5136TIP3    H115372   3.358   6.244   0.530 -1.9258 -0.7060  0.8465
 5136TIP3    H215373   3.349   6.352   0.636  0.7508  1.3323 -0.8799
 5137TIP3   OH215374   5.670   3.148   3.588  0.3619 -0.0243 -0.1130
 5137TIP3    H115375   5.728   3.100   3.647 -0.0314 -1.3745 -0.7983
 5137TIP3    H215376   5.650   3.086   3.518 -0.4708  1.0210 -0.8264
 5138TIP3   OH215377   3.325   3.993   3.548 -0.2956 -0.5111  0.0865
 5138TIP3    H115378   3.309   3.919   3.489  0.7007 -1.1061  0.5307
 5138TIP3    H215379   3.260   3.984   3.617 -2.2472  0.8482 -1.4519
 5139TIP3   OH215380   4.000   0.794   3.522  0.4150  0.0166 -0.4034
 5139TIP3    H115381   4.079   0.832   3.484  0.7923 -0.5717 -0.2210
 5139TIP3    H215382   3.949   0.870   3.551  0.5067  0.4378 -1.3080
 5140TIP3   OH215383   1.130   1.068   3.325  0.3549  0.0359 -0.5121
 5140TIP3    H115384   1.153   0.976   3.322 -1.7373 -0.6117  1.1121
 5140TIP3    H215385   1.035   1.071   3.315  0.2920  1.9593  0.0829
 5141TIP3   OH215386   6.977   2.798   4.468  0.0638 -0.0437 -0.0693
 5141TIP3    H115387   7.007   2.740   4.538  0.6521 -0.0480 -0.3239
 5141TIP3    H215388   7.015   2.883   4.489 -0.3769  0.1342  0.0224
 5142TIP3   OH215389   4.294   4.036   4.161 -0.2076 -0.1194  0.2161
 5142TIP3    H115390   4.255   3.959   4.203 -1.5180  1.8208  2.8937
 5142TIP3    H215391   4.387   4.013   4.151 -0.0981 -1.3411  2.9536
 5143TIP3   OH215392   4.015   3.803   2.492 -0.0059  0.2657  0.4149
 5143TIP3    H115393   4.016   3.726   2.548  0.4623  1.2023  1.7573
 5143TIP3    H215394   3.978   3.872   2.548  0.1324  1.1451 -0.5609
 5144TIP3   OH215395   1.218   6.262   4.882  0.1800 -0.0921 -0.3201
 5144TIP3    H115396   1.189   6.241   4.793 -1.2078 -1.6860  0.4750
 5144TIP3    H215397   1.257   6.181   4.915 -0.9104 -0.0808  1.1186
 5145TIP3   OH215398   3.370   2.776   5.351  0.5741  0.0779 -0.3074
 5145TIP3    H115399   3.319   2.854   5.330  2.9918  2.1975  1.2422
 5145TIP3    H215400   3.355   2.761   5.444 -0.3889 -1.8089 -0.7068
 5146TIP3   OH215401   4.054   2.147   4.206 -0.4066  0.4733 -0.3931
 5146TIP3    H115402   4.013   2.220   4.252  0.5485  0.6535  0.2232
 5146TIP3    H215403   4.147   2.171   4.201 -0.2657 -0.1830 -1.2022
 5147TIP3   OH215404   4.635   2.410   5.618 -0.4450 -0.3304  0.4014
 5147TIP3    H115405   4.659   2.370   5.701 -0.0036 -1.3582 -0.1962
 5147TIP3    H215406   4.659   2.345   5.552 -2.5077 -0.3531 -0.4188
 5148TIP3   OH215407   6.569   4.991   2.647  0.0257 -0.1952 -0.0158
 5148TIP3    H115408   6.562   5.013   2.554 -0.7677 -0.1956  0.0392
 5148TIP3    H215409   6.659   4.961   2.658  1.3509  3.2825 -0.0421
 5149TIP3   OH215410   5.482   0.793   2.167 -0.1168 -0.1033 -0.4673
 5149TIP3    H115411   5.435   0.877   2.160  1.1694  0.6904  0.0003
 5149TIP3    H215412   5.573   0.817   2.153  0.3734 -1.3012  0.5559
 5150TIP3   OH215413   5.718   6.100   4.259 -0.0890  1.1832  0.6344
 5150TIP3    H115414   5.740   6.152   4.336  0.1023  1.2290  0.5489
 5150TIP3    H215415   5.803   6.076   4.222 -0.1856  1.4081  0.2702
 5151TIP3   OH215416   4.166   3.906   2.284 -0.1121  0.5216  0.1236
 5151TIP3    H115417   4.204   3.834   2.233  1.6939  1.4261  0.0972
 5151TIP3    H215418   4.112   3.862   2.350  2.0290 -1.0010  1.0037
 5152TIP3   OH215419   2.487   6.344   3.751  0.6447 -0.0931 -0.4770
 5152TIP3    H115420   2.508   6.432   3.721  2.3907 -0.3235 -0.0434
 5152TIP3    H215421   2.564   6.316   3.800 -0.5905 -1.1829  0.9568
 5153TIP3   OH215422   6.558   1.558   0.145  0.5419 -0.0419 -0.6919
 5153TIP3    H115423   6.568   1.645   0.105  0.5557 -0.1902 -1.0187
 5153TIP3    H215424   6.484   1.519   0.099 -1.8579  1.1236  1.8705
 5154TIP3   OH215425   1.082   2.625   0.332  0.8033 -0.2666 -0.0516
 5154TIP3    H115426   1.114   2.701   0.381 -0.0430  1.1486 -1.6118
 5154TIP3    H215427   1.020   2.583   0.392  0.3883  0.9712  0.4324
 5155TIP3   OH215428   5.312   0.210   2.380 -0.3572 -0.1051  0.0576
 5155TIP3    H115429   5.330   0.286   2.435 -1.6469  0.3697 -0.1375
 5155TIP3    H215430   5.219   0.191   2.394  0.0902 -2.1222  0.6730
 5156TIP3   OH215431   4.353   5.167   5.118  0.1484 -0.5791  0.1063
 5156TIP3    H115432   4.277   5.156   5.061 -0.2738 -1.7190  0.8554
 5156TIP3    H215433   4.422   5.116   5.076  0.2681 -0.2300 -0.1306
 5157TIP3   OH215434   6.534   4.763   1.970  0.2464  0.0443 -0.4196
 5157TIP3    H115435   6.500   4.852   1.968  2.8547  1.1636  0.2277
 5157TIP3    H215436   6.531   4.739   2.063  0.7831 -0.0176 -0.4169
 5158TIP3   OH215437   1.511   5.195   3.635  0.4763 -0.1843 -0.1104
 5158TIP3    H115438   1.471   5.109   3.646  2.3533 -0.9715  1.3223
 5158TIP3    H215439   1.514   5.231   3.724 -0.6747  1.5759 -0.7564
 5159TIP3   OH215440   5.825   1.043   0.265 -0.5411  0.3900 -0.8091
 5159TIP3    H115441   5.917   1.035   0.291 -0.7847 -0.8431 -0.2351
 5159TIP3    H215442   5.823   1.118   0.207  0.4274  1.9247  1.0103
 5160TIP3   OH215443   1.121   1.505   5.611 -0.3178  0.7273 -0.5740
 5160TIP3    H115444   1.118   1.441   5.540 -2.8685 -0.3875  0.4112
 5160TIP3    H215445   1.123   1.590   5.568  2.5414  0.1227 -1.9206
 5161TIP3   OH215446   2.992   6.019   2.517  0.7176 -0.2384 -0.4844
 5161TIP3    H115447   3.016   5.982   2.432  0.4382  1.0168 -1.1359
 5161TIP3    H215448   2.957   6.105   2.497  0.8826  0.1922  0.9351
 5162TIP3   OH215449   5.790   4.830   3.458  0.0523 -0.1587 -0.0067
 5162TIP3    H115450   5.793   4.882   3.378  1.9753  1.4409  0.9955
 5162TIP3    H215451   5.880   4.830   3.490 -0.8442  0.3998  2.8074
 5163TIP3   OH215452   1.184   5.418   5.106 -0.4051 -0.2196 -0.1572
 5163TIP3    H115453   1.254   5.397   5.169  0.0234 -0.0072 -0.5530
 5163TIP3    H215454   1.106   5.431   5.160 -0.0322 -0.0033  0.3362
 5164TIP3   OH215455   6.666   0.501   4.519 -0.7375 -0.0683  0.1439
 5164TIP3    H115456   6.658   0.498   4.614 -1.3760 -0.3289  0.0873
 5164TIP3    H215457   6.677   0.409   4.493 -1.4254 -0.0892 -0.0974
 5165TIP3   OH215458   3.393   5.666   5.806  0.2570 -0.0193  0.8036
 5165TIP3    H115459   3.304   5.651   5.839 -0.3703  0.9628 -0.3760
 5165TIP3    H215460   3.429   5.730   5.868 -0.8153  1.5996 -0.1606
 5166TIP3   OH215461   2.346   4.038   2.395 -0.1123  0.0981 -0.3400
 5166TIP3    H115462   2.383   4.051   2.482 -1.1851  0.2466  0.1125
 5166TIP3    H215463   2.251   4.035   2.409 -0.3518  0.9458 -1.6049
 5167TIP3   OH215464   2.007   3.486   4.635  0.4157  0.0484  0.4750
 5167TIP3    H115465   1.925   3.449   4.600  0.6987  0.1756 -0.3478
 5167TIP3    H215466   2.045   3.533   4.561  0.8599  0.6333  1.0693
 5168TIP3   OH215467   0.901   6.721   3.567 -0.5003  0.4945 -0.8387
 5168TIP3    H115468   0.993   6.740   3.583 -0.3071  0.2432 -1.5968
 5168TIP3    H215469   0.899   6.627   3.547 -1.1615  0.1167  0.8400
 5169TIP3   OH215470   1.831   2.941   3.043  0.1083  0.0147 -0.5232
 5169TIP3    H115471   1.859   3.018   3.093  1.6526  0.0459 -1.3769
 5169TIP3    H215472   1.903   2.924   2.983 -0.0902 -2.2257 -0.2177
 5170TIP3   OH215473   1.235   4.689   0.822 -0.2732  0.2632  0.4296
 5170TIP3    H115474   1.282   4.728   0.896 -1.6711  2.2158  0.3496
 5170TIP3    H215475   1.144   4.688   0.850 -0.4110 -2.2374  0.0585
 5171TIP3   OH215476   6.944   0.409   3.824 -0.1956  0.1476  0.1978
 5171TIP3    H115477   6.958   0.322   3.861 -0.7316 -0.0951 -0.1636
 5171TIP3    H215478   6.851   0.427   3.838  0.0620  0.9845  0.9483
 5172TIP3   OH215479   5.103   0.263   3.656 -0.6284  0.2009 -0.4419
 5172TIP3    H115480   5.041   0.200   3.692 -0.4583 -1.1362 -2.3616
 5172TIP3    H215481   5.168   0.275   3.726 -0.8239 -1.5570  0.0859
 5173TIP3   OH215482   1.809   5.614   2.685 -0.2212  0.1044  0.5574
 5173TIP3    H115483   1.893   5.622   2.729  0.4319  0.9438 -0.7910
 5173TIP3    H215484   1.772   5.702   2.686 -1.7590 -0.4915  2.3382
 5174TIP3   OH215485   2.686   5.454   5.752 -0.0445 -0.0239 -0.4065
 5174TIP3    H115486   2.667   5.548   5.745  0.2235 -0.0515 -1.6994
 5174TIP3    H215487   2.757   5.439   5.690  0.1059 -1.0401 -0.0097
 5175TIP3   OH215488   3.361   6.290   4.349 -0.0078  0.3030  0.1359
 5175TIP3    H115489   3.416   6.265   4.423 -0.4472 -1.0164  0.0560
 5175TIP3    H215490   3.272   6.288   4.384 -0.0829  1.7008  0.0786
 5176TIP3   OH215491   6.201   2.755   3.131 -0.1626 -0.2629  0.0360
 5176TIP3    H115492   6.243   2.725   3.050  0.2720  1.2086 -0.3022
 5176TIP3    H215493   6.152   2.833   3.105 -1.8792 -1.0515  0.7496
 5177TIP3   OH215494   5.652   1.324   2.045  0.2340 -0.1061  0.1268
 5177TIP3    H115495   5.741   1.315   2.011  0.5581 -1.4362  1.2640
 5177TIP3    H215496   5.597   1.316   1.967  1.1065  1.7372 -0.7425
 5178TIP3   OH215497   4.840   0.855   3.223  0.1803 -0.5555  0.7205
 5178TIP3    H115498   4.872   0.767   3.202 -0.0745 -0.7407  1.1002
 5178TIP3    H215499   4.754   0.841   3.261 -0.2140 -0.0773  0.0218
 5179TIP3   OH215500   6.386   6.188   4.418  0.6610  0.2834  0.0637
 5179TIP3    H115501   6.425   6.227   4.339  1.4722  0.3904  0.5044
 5179TIP3    H215502   6.433   6.230   4.490  1.2190 -1.1550  0.5691
 5180TIP3   OH215503   5.596   5.429   1.032 -0.6091  0.4387 -0.2650
 5180TIP3    H115504   5.577   5.338   1.053 -3.4517  1.5045  2.5835
 5180TIP3    H215505   5.667   5.454   1.090 -0.3753  0.2578 -0.4727
 5181TIP3   OH215506   0.811   2.725   3.936 -0.1257 -0.3184 -0.2125
 5181TIP3    H115507   0.904   2.705   3.948  0.0844  0.6211 -0.2443
 5181TIP3    H215508   0.808   2.818   3.915 -1.0682 -0.3632 -0.3370
 5182TIP3   OH215509   6.525   3.555   0.919  0.1364 -0.3108  0.2722
 5182TIP3    H115510   6.459   3.534   0.986 -0.5687  0.4754 -0.1552
 5182TIP3    H215511   6.593   3.602   0.967  0.4247 -1.1552  0.7258
 5183TIP3   OH215512   6.821   1.512   0.234 -0.1447 -0.5794  0.4095
 5183TIP3    H115513   6.817   1.443   0.300  0.8035  0.4223  1.5703
 5183TIP3    H215514   6.733   1.516   0.196 -0.8735 -0.7983  2.0221
 5184TIP3   OH215515   3.390   1.156   3.350 -0.3128  0.4348  0.4768
 5184TIP3    H115516   3.409   1.248   3.332  0.0688  0.2514 -0.0894
 5184TIP3    H215517   3.470   1.123   3.391  0.7060 -0.3432 -1.9285
 5185TIP3   OH215518   5.222   0.945   3.523 -0.1044  0.2471  0.2554
 5185TIP3    H115519   5.258   0.873   3.471 -1.5749 -1.1478  1.0894
 5185TIP3    H215520   5.138   0.965   3.481 -0.3012  0.5932  0.8103
 5186TIP3   OH215521   4.221   2.985   1.815  0.2023  0.1794 -0.1934
 5186TIP3    H115522   4.225   3.021   1.727 -0.9049  0.1180 -0.2835
 5186TIP3    H215523   4.159   2.912   1.809 -0.8208  0.9083  0.8592
 5187TIP3   OH215524   5.550   6.579   5.823 -0.3344  0.2371 -0.2230
 5187TIP3    H115525   5.530   6.486   5.826 -1.9448  0.4919 -1.4526
 5187TIP3    H215526   5.530   6.612   5.911 -1.6248 -0.2520 -0.3179
 5188TIP3   OH215527   5.665   2.134   1.042  0.4490 -0.4942  0.4370
 5188TIP3    H115528   5.733   2.189   1.003  0.7078 -0.9481  0.2439
 5188TIP3    H215529   5.703   2.103   1.124  0.8672 -1.5561 -0.1439
 5189TIP3   OH215530   5.774   1.709   3.976  0.0511 -0.2553  0.6231
 5189TIP3    H115531   5.770   1.720   4.071 -0.7597  0.8240  0.4848
 5189TIP3    H215532   5.710   1.772   3.942  0.8539 -0.1037 -0.6685
 5190TIP3   OH215533   5.580   0.141   4.249 -0.4182 -0.6112  0.2841
 5190TIP3    H115534   5.641   0.102   4.186  1.3820  0.2949  1.3990
 5190TIP3    H215535   5.515   0.186   4.195  1.1746  0.3009 -0.9430
 5191TIP3   OH215536   4.889   0.636   3.019 -0.1823  0.1246 -0.1058
 5191TIP3    H115537   4.916   0.631   2.927 -0.7096  1.5050 -0.3454
 5191TIP3    H215538   4.807   0.685   3.018  0.1419  0.7394  1.1645
 5192TIP3   OH215539   2.164   5.762   3.269 -0.5835 -0.3057 -0.2878
 5192TIP3    H115540   2.131   5.763   3.359  0.0548 -2.2250  0.0316
 5192TIP3    H215541   2.098   5.809   3.218  0.1509  2.8968  1.4736
 5193TIP3   OH215542   1.967   5.715   1.247 -0.2840 -0.0192 -0.0691
 5193TIP3    H115543   1.991   5.807   1.234 -1.9099  0.7890  2.1637
 5193TIP3    H215544   2.027   5.684   1.315 -1.3659  0.1777  1.0090
 5194TIP3   OH215545   4.344   5.032   4.102 -0.3588  0.1797  0.0712
 5194TIP3    H115546   4.262   5.034   4.151  0.2028  0.3370  1.0338
 5194TIP3    H215547   4.321   4.993   4.018 -1.0793 -1.3873  0.9512
 5195TIP3   OH215548   4.885   5.827   3.774 -0.8868 -0.3852 -0.4548
 5195TIP3    H115549   4.961   5.854   3.825 -1.1785  0.1625 -0.3016
 5195TIP3    H215550   4.914   5.750   3.725 -0.1424  0.0007 -0.6258
 5196TIP3   OH215551   4.868   0.741   4.031 -0.3282  0.1754 -0.0280
 5196TIP3    H115552   4.949   0.771   3.991 -0.6446  1.0188 -0.0566
 5196TIP3    H215553   4.894   0.709   4.117  0.2148 -0.7517 -0.5298
 5197TIP3   OH215554   4.977   2.952   5.820  0.3565  0.3010 -0.0500
 5197TIP3    H115555   4.983   3.048   5.821  2.1796  0.2343 -0.4459
 5197TIP3    H215556   5.060   2.923   5.859  0.2060 -1.1159 -0.7221
 5198TIP3   OH215557   6.865   4.619  -0.028  0.1032  0.2108 -1.0312
 5198TIP3    H115558   6.829   4.643   0.058  1.1111  1.5009 -0.9451
 5198TIP3    H215559   6.931   4.553  -0.009 -1.0566 -1.0123 -1.0448
 5199TIP3   OH215560   6.487   0.332   2.615  0.4722  0.2156 -0.3975
 5199TIP3    H115561   6.549   0.400   2.641 -0.0670 -0.0761  1.7794
 5199TIP3    H215562   6.536   0.250   2.622  0.0988  0.0629  0.4957
 5200TIP3   OH215563   4.413   6.179   2.915 -0.9955  0.1757  0.4153
 5200TIP3    H115564   4.369   6.259   2.888  0.0179  0.5760 -0.1173
 5200TIP3    H215565   4.485   6.209   2.971  0.8458 -0.1320 -1.6669
 5201TIP3   OH215566   0.063  -0.022   3.846 -0.3055 -0.0337 -0.4038
 5201TIP3    H115567   0.079  -0.043   3.938 -2.7608 -0.6938 -0.0503
 5201TIP3    H215568   0.049   0.073   3.845 -0.9177 -0.1093  0.0497
 5202TIP3   OH215569   0.156   1.936   4.909 -0.3046  0.1897 -0.2472
 5202TIP3    H115570   0.141   1.917   4.816 -3.0076 -1.1819  0.3806
 5202TIP3    H215571   0.209   2.015   4.908 -0.3737  0.3106 -2.9713
 5203TIP3   OH215572   1.957   5.210   3.275  0.5788  0.2351  0.6615
 5203TIP3    H115573   1.898   5.135   3.275  0.0708  0.6130 -0.5950
 5203TIP3    H215574   1.987   5.217   3.366 -1.2187 -0.0233  1.3212
 5204TIP3   OH215575   2.354   4.879   5.221  0.3570  0.0379 -0.2531
 5204TIP3    H115576   2.370   4.973   5.212 -1.9001  1.1808  4.4648
 5204TIP3    H215577   2.414   4.852   5.291  0.5705 -1.9678 -1.1514
 5205TIP3   OH215578   4.969   0.552   2.748  0.3012  0.0861 -0.2179
 5205TIP3    H115579   4.905   0.583   2.684  0.3389 -1.5053 -1.0867
 5205TIP3    H215580   5.040   0.516   2.695 -0.1571 -2.2681  0.6305
 5206TIP3   OH215581   1.935   5.459   3.770 -0.6512  0.2448 -0.1332
 5206TIP3    H115582   1.999   5.506   3.716  0.1975 -0.9002 -0.1637
 5206TIP3    H215583   1.871   5.425   3.707 -0.2044 -0.2550 -0.3266
 5207TIP3   OH215584   2.326   3.319   4.969 -0.0213  0.1493 -0.2533
 5207TIP3    H115585   2.393   3.266   4.927  0.6713  1.0081 -0.2722
 5207TIP3    H215586   2.350   3.409   4.946 -0.5603  0.5282  0.6378
 5208TIP3   OH215587   0.936   2.817   4.594  0.4337 -0.5101 -0.5860
 5208TIP3    H115588   0.947   2.872   4.672  0.3740  0.3788 -1.1794
 5208TIP3    H215589   0.917   2.730   4.628 -0.5957  0.0682  0.3956
 5209TIP3   OH215590   1.050   4.531   3.163  0.8287 -0.0424  0.1159
 5209TIP3    H115591   1.023   4.441   3.181  1.1355  0.2299  2.2601
 5209TIP3    H215592   1.077   4.530   3.071 -0.7703 -1.7111 -0.4021
 5210TIP3   OH215593   0.876   1.350   0.808 -0.3604 -0.7147 -0.4617
 5210TIP3    H115594   0.842   1.371   0.721  1.3971 -0.9950 -1.2506
 5210TIP3    H215595   0.969   1.369   0.803 -0.1100 -1.3303  1.1833
 5211TIP3   OH215596   5.436   6.310   5.339  0.2335 -0.1980 -0.3571
 5211TIP3    H115597   5.413   6.322   5.431 -0.5741 -0.9023 -0.4556
 5211TIP3    H215598   5.449   6.399   5.306 -0.2289  0.0984  0.2503
 5212TIP3   OH215599   5.761   3.290   4.786  0.5631 -0.1916 -0.1088
 5212TIP3    H115600   5.801   3.323   4.866  1.2430 -1.8968  0.3004
 5212TIP3    H215601   5.829   3.236   4.746 -0.7430 -1.7801 -0.2853
 5213TIP3   OH215602   2.332   3.212   3.405 -0.1978  0.5941  0.2583
 5213TIP3    H115603   2.356   3.208   3.497  1.8212  0.0904 -0.2398
 5213TIP3    H215604   2.364   3.298   3.376  0.2906  0.2506 -0.2364
 5214TIP3   OH215605   0.963   6.582   5.806 -0.4306 -0.1432  0.1604
 5214TIP3    H115606   0.993   6.655   5.752  1.0426 -0.5415  0.4049
 5214TIP3    H215607   0.938   6.622   5.889 -1.8921  0.3603 -0.4790
 5215TIP3   OH215608   7.127   5.891   0.199 -0.0865 -0.0181  0.0740
 5215TIP3    H115609   7.062   5.839   0.153 -0.6012 -0.3659  1.1663
 5215TIP3    H215610   7.087   5.910   0.284  0.0126  2.2843 -0.3212
 5216TIP3   OH215611   2.565   5.972   2.375  0.2407  0.0414 -0.3212
 5216TIP3    H115612   2.597   5.895   2.330  1.4624  0.1666  0.2799
 5216TIP3    H215613   2.568   5.948   2.468  1.6132  1.1165 -0.0481
 5217TIP3   OH215614   6.484   6.418   4.599  0.0446 -0.0529  0.1670
 5217TIP3    H115615   6.554   6.388   4.657 -0.2941  0.0778  0.6512
 5217TIP3    H215616   6.480   6.513   4.614  0.7079  0.1554 -0.9074
 5218TIP3   OH215617   1.324   1.902   1.625  0.1041 -0.2464  0.4552
 5218TIP3    H115618   1.297   1.914   1.534  0.9152  0.4178  0.2990
 5218TIP3    H215619   1.264   1.957   1.675 -1.0938 -1.4854  0.4588
 5219TIP3   OH215620   3.355   3.556   1.953 -0.1498 -0.0098  0.4372
 5219TIP3    H115621   3.439   3.567   1.998  0.2122  0.2967 -0.3097
 5219TIP3    H215622   3.329   3.645   1.928  1.5494 -0.3881 -3.3704
 5220TIP3   OH215623   5.069   0.617   0.481 -0.0121 -0.0960 -0.2088
 5220TIP3    H115624   5.062   0.667   0.562 -0.4015 -1.8594  0.8957
 5220TIP3    H215625   5.162   0.593   0.475 -0.0113 -0.0976 -0.1934
 5221TIP3   OH215626   2.675   5.828   1.282 -0.1015 -0.7949 -0.2895
 5221TIP3    H115627   2.663   5.740   1.317  0.7178 -0.7284  0.1795
 5221TIP3    H215628   2.763   5.853   1.310  0.8436 -0.9629 -2.8837
 5222TIP3   OH215629   0.462   3.110   4.739 -0.0069 -0.4427  0.2363
 5222TIP3    H115630   0.483   3.047   4.670 -0.7466 -4.3795  3.2790
 5222TIP3    H215631   0.544   3.119   4.788  0.2290  1.5210 -0.4268
 5223TIP3   OH215632   4.511   4.805   5.583  0.0943  0.3166  0.2799
 5223TIP3    H115633   4.559   4.733   5.543  0.8416  0.3677  1.0415
 5223TIP3    H215634   4.421   4.795   5.553  0.0357 -1.3454  0.9330
 5224TIP3   OH215635   2.979   5.909   2.937 -0.2761 -0.3248 -0.3739
 5224TIP3    H115636   3.055   5.869   2.980 -0.8958 -0.8960  0.2226
 5224TIP3    H215637   2.980   6.000   2.965  0.3977 -0.2344 -0.6761
 5225TIP3   OH215638   6.855   2.978   3.677 -0.0591  0.9305 -0.5584
 5225TIP3    H115639   6.870   3.068   3.707  0.1568  1.2640 -1.6239
 5225TIP3    H215640   6.760   2.969   3.677 -0.0525  0.6652  0.9264
 5226TIP3   OH215641   2.705   4.290   4.398 -0.2740 -0.7790 -0.0977
 5226TIP3    H115642   2.630   4.233   4.416  0.0703 -0.9925  0.7097
 5226TIP3    H215643   2.683   4.372   4.443 -0.0221 -0.8441  0.1443
 5227TIP3   OH215644   2.808   1.953   3.848 -0.2353  0.3573 -0.0674
 5227TIP3    H115645   2.745   1.883   3.867 -0.2198  0.4472  0.3279
 5227TIP3    H215646   2.821   1.948   3.754 -0.4340 -0.0051 -0.0801
 5228TIP3   OH215647   5.589   0.552   5.753  0.4576  0.9782  0.0550
 5228TIP3    H115648   5.653   0.495   5.711  1.3612  2.3662 -0.5005
 5228TIP3    H215649   5.637   0.596   5.823 -0.0991  1.4394  0.1570
 5229TIP3   OH215650   5.288   2.828   3.296  0.1037  0.5204 -0.3210
 5229TIP3    H115651   5.322   2.775   3.368  1.4581  0.2606 -1.1106
 5229TIP3    H215652   5.194   2.807   3.293  0.3167 -0.6315  0.3912
 5230TIP3   OH215653   0.398   3.726   4.313  0.0652  0.2273 -0.3300
 5230TIP3    H115654   0.403   3.665   4.388 -0.0493  0.5049 -0.0960
 5230TIP3    H215655   0.424   3.810   4.350  0.2940  0.3052 -0.6735
 5231TIP3   OH215656   2.062   1.594   0.749 -0.8268  0.4149 -0.0371
 5231TIP3    H115657   2.148   1.633   0.765 -0.4778  0.5172 -1.9972
 5231TIP3    H215658   2.000   1.664   0.769 -0.6610 -0.1368  3.0337
 5232TIP3   OH215659   0.766   2.520   0.872  0.1521 -0.2867  0.0483
 5232TIP3    H115660   0.820   2.471   0.811 -0.4795 -0.4485 -0.3938
 5232TIP3    H215661   0.779   2.611   0.848  0.2842 -0.3192 -0.0065
 5233TIP3   OH215662   0.380   0.083   3.577  0.3511 -0.2890 -0.0928
 5233TIP3    H115663   0.321   0.015   3.610  0.8747 -1.1453 -0.8826
 5233TIP3    H215664   0.322   0.146   3.534 -0.2145  0.2046  1.3088
 5234TIP3   OH215665   3.134   5.049   2.495 -0.0250 -0.1141 -0.0634
 5234TIP3    H115666   3.203   5.115   2.483 -1.0895  0.5277 -4.1503
 5234TIP3    H215667   3.055   5.089   2.458 -1.4167 -2.5941 -0.0131
 5235TIP3   OH215668   1.332   3.375   5.491 -0.3534 -0.3416 -0.2824
 5235TIP3    H115669   1.413   3.425   5.498 -1.4094  1.3115  1.5252
 5235TIP3    H215670   1.341   3.304   5.555  0.1280 -0.9011 -0.9640
 5236TIP3   OH215671   2.743   2.604   3.417  0.0235 -0.3737 -0.0722
 5236TIP3    H115672   2.806   2.569   3.480  0.4211 -1.3595 -0.9988
 5236TIP3    H215673   2.773   2.694   3.401  1.4646 -0.9717 -0.8359
 5237TIP3   OH215674   0.619   2.205   1.186  0.2834  0.2031 -0.4692
 5237TIP3    H115675   0.694   2.211   1.245  1.1583 -2.5469 -1.1165
 5237TIP3    H215676   0.565   2.135   1.224  0.3998 -0.9701 -2.3562
 5238TIP3   OH215677   3.471   0.759   4.773  0.2461 -0.1881 -0.5429
 5238TIP3    H115678   3.524   0.746   4.852 -1.3568  0.7294  0.7439
 5238TIP3    H215679   3.381   0.766   4.805 -0.1340  4.4446 -1.8722
 5239TIP3   OH215680   3.321   6.566   4.334 -0.2740 -0.0032  0.2943
 5239TIP3    H115681   3.403   6.602   4.367 -0.1490  1.0872 -1.1085
 5239TIP3    H215682   3.342   6.476   4.310  0.3247  0.0560  0.5722
 5240TIP3   OH215683   2.643   2.069   1.807  0.1140  0.1523 -0.0966
 5240TIP3    H115684   2.681   2.074   1.895 -1.1324 -0.1787  0.4726
 5240TIP3    H215685   2.719   2.061   1.750  1.0056  1.3300  0.8552
 5241TIP3   OH215686   1.197   5.768   0.346  0.1302  0.0852 -0.1749
 5241TIP3    H115687   1.262   5.702   0.324  0.0453  0.2220 -0.8567
 5241TIP3    H215688   1.167   5.744   0.433  0.6565 -0.3279 -0.1023
 5242TIP3   OH215689   7.165   1.621   4.662 -0.4545  0.8080 -0.5547
 5242TIP3    H115690   7.152   1.619   4.756 -2.4218 -0.1761 -0.7901
 5242TIP3    H215691   7.199   1.709   4.644 -1.4722  1.5334  0.9230
 5243TIP3   OH215692   6.031   0.854   0.106 -0.1793  0.0048  0.2786
 5243TIP3    H115693   5.976   0.795   0.159  0.0758  0.5826  1.2175
 5243TIP3    H215694   6.013   0.829   0.016  1.7076 -3.1899  0.6419
 5244TIP3   OH215695   1.535   2.924   1.886  0.3326 -0.1832 -0.0808
 5244TIP3    H115696   1.540   2.835   1.921  2.2498  0.0128  0.2591
 5244TIP3    H215697   1.607   2.929   1.823  0.8324  1.3877  0.5638
 5245TIP3   OH215698   5.932   2.225   2.059 -0.5442  0.2130  0.4074
 5245TIP3    H115699   5.873   2.297   2.081  0.3830  0.6027  1.7228
 5245TIP3    H215700   5.926   2.165   2.133 -0.8560 -0.7863 -0.4086
 5246TIP3   OH215701   6.362   1.342   0.148 -0.2177 -0.0479  1.0426
 5246TIP3    H115702   6.279   1.361   0.103  0.1336 -0.4503  0.1853
 5246TIP3    H215703   6.342   1.352   0.241 -1.8465 -2.3249  1.0230
 5247TIP3   OH215704   0.374   1.593   4.347 -0.2064 -0.0772  0.1203
 5247TIP3    H115705   0.318   1.628   4.416  0.2391 -0.5090  0.7132
 5247TIP3    H215706   0.349   1.642   4.268 -0.4940  0.6466  0.6534
 5248TIP3   OH215707   0.217   1.186   5.094 -0.6858  0.1827  0.1550
 5248TIP3    H115708   0.265   1.269   5.085  0.6617 -0.4450  1.1657
 5248TIP3    H215709   0.241   1.154   5.181 -2.3662 -0.5575  0.3833
 5249TIP3   OH215710   0.646   4.788   2.512 -0.3517  0.2600 -0.1872
 5249TIP3    H115711   0.595   4.867   2.492  0.9963  1.6335  1.4588
 5249TIP3    H215712   0.614   4.722   2.450 -0.5295  2.5041 -2.6800
 5250TIP3   OH215713   3.878   6.773   4.090 -0.4073  0.4471  0.7392
 5250TIP3    H115714   3.823   6.697   4.105 -2.7138  1.8635  0.0706
 5250TIP3    H215715   3.843   6.840   4.149 -0.9138  2.0340 -1.2296
 5251TIP3   OH215716   2.067   3.233   0.488 -0.2601  0.0811 -0.2358
 5251TIP3    H115717   2.161   3.216   0.481 -0.3655 -0.7933  0.3067
 5251TIP3    H215718   2.054   3.315   0.441  0.6096 -0.3342 -1.2440
 5252TIP3   OH215719   4.132   3.427   2.559  0.1437  0.1462 -0.4051
 5252TIP3    H115720   4.126   3.336   2.589  0.5728  0.0523 -0.5964
 5252TIP3    H215721   4.213   3.430   2.508  0.2952  0.7141 -0.1411
 5253TIP3   OH215722   5.141   3.329   2.479 -0.0581  0.1410 -0.8625
 5253TIP3    H115723   5.150   3.238   2.452 -1.6217  0.3710 -2.3292
 5253TIP3    H215724   5.196   3.337   2.557 -0.4710 -2.2438 -0.2672
 5254TIP3   OH215725   3.468   5.485   4.799  0.0307 -0.1337  0.6446
 5254TIP3    H115726   3.415   5.513   4.725 -0.0073  0.1010  0.7613
 5254TIP3    H215727   3.558   5.504   4.774 -0.1279  2.0814  1.5731
 5255TIP3   OH215728   1.176   2.852   3.382 -1.0416 -0.0157  1.0904
 5255TIP3    H115729   1.263   2.862   3.420 -1.4585  2.6681  1.5804
 5255TIP3    H215730   1.147   2.942   3.366 -2.3944 -0.8778 -2.1723
 5256TIP3   OH215731   2.376   4.769   4.044  0.3129  0.1293  0.2982
 5256TIP3    H115732   2.384   4.673   4.043  2.0830  0.2522 -0.6860
 5256TIP3    H215733   2.292   4.786   4.001  0.4299 -0.9764 -0.4227
 5257TIP3   OH215734   3.103   0.228   0.133  0.1331 -0.2224  0.1784
 5257TIP3    H115735   3.166   0.192   0.070 -1.5807 -1.4470 -0.9265
 5257TIP3    H215736   3.133   0.196   0.218  1.0419 -0.6940 -0.3054
 5258TIP3   OH215737   5.910   3.561   2.299 -0.4845  0.0521 -0.0144
 5258TIP3    H115738   5.904   3.480   2.250  1.2740 -0.2621  0.2317
 5258TIP3    H215739   5.987   3.550   2.355 -1.0741  1.3092  1.1146
 5259TIP3   OH215740   6.038   1.104   0.820 -0.1415  0.3929 -0.3581
 5259TIP3    H115741   6.009   1.089   0.730  1.6307  1.0366 -1.0764
 5259TIP3    H215742   6.110   1.167   0.812  2.0882 -1.7841  1.1793
 5260TIP3   OH215743   0.602   1.470   1.881 -0.7499  0.5397  0.0161
 5260TIP3    H115744   0.619   1.557   1.846  1.2979  0.0221 -0.4212
 5260TIP3    H215745   0.689   1.428   1.885 -1.2423 -0.4399  2.9864
 5261TIP3   OH215746   1.272   2.397   1.853  0.2807 -0.4033  0.3205
 5261TIP3    H115747   1.353   2.366   1.812  0.5062 -1.5186  1.5360
 5261TIP3    H215748   1.282   2.373   1.946 -0.3724  1.6687  0.9703
 5262TIP3   OH215749   1.908   2.598   0.315  0.4692 -0.3982  0.2737
 5262TIP3    H115750   1.867   2.553   0.389 -0.7564 -0.5771 -0.4806
 5262TIP3    H215751   1.910   2.690   0.341  1.6319 -0.6686  1.2203
 5263TIP3   OH215752   2.629   4.663   1.352 -0.7494  0.4377 -0.0611
 5263TIP3    H115753   2.646   4.650   1.259  1.1599 -0.8972  0.4295
 5263TIP3    H215754   2.689   4.733   1.378 -1.5251  1.0519  0.1144
 5264TIP3   OH215755   2.907   0.872   2.898  0.5871 -0.2101  0.8039
 5264TIP3    H115756   2.971   0.903   2.832 -0.0042 -0.7143 -0.0277
 5264TIP3    H215757   2.827   0.857   2.848 -0.1960  0.3966  1.8377
 5265TIP3   OH215758   5.147   3.060   2.478  0.5493  0.2017 -0.3268
 5265TIP3    H115759   5.223   3.051   2.420  0.0642 -0.3371 -0.9014
 5265TIP3    H215760   5.073   3.029   2.425 -0.1846  1.3677 -0.0291
 5266TIP3   OH215761   3.521   2.837   4.418  0.2207 -0.4205  0.1340
 5266TIP3    H115762   3.562   2.922   4.400  0.6416 -0.5634  0.4143
 5266TIP3    H215763   3.553   2.780   4.349  0.7572 -0.6155  0.5374
 5267TIP3   OH215764   0.716   2.389   5.659 -0.0987  0.3630  0.1586
 5267TIP3    H115765   0.718   2.372   5.753 -1.2992 -0.3550  0.0703
 5267TIP3    H215766   0.688   2.306   5.620 -0.9826  1.0538 -0.7158
 5268TIP3   OH215767   1.033   6.494   1.021 -0.0937  0.7831  0.2529
 5268TIP3    H115768   1.082   6.455   1.093 -0.1805  1.8866  0.9263
 5268TIP3    H215769   1.093   6.559   0.985  1.0154 -1.4926 -2.4111
 5269TIP3   OH215770   5.315   5.536   3.254 -0.4670 -0.1385 -1.3252
 5269TIP3    H115771   5.262   5.608   3.220  1.6468  1.9458 -0.5571
 5269TIP3    H215772   5.386   5.526   3.191  0.3966 -0.0971 -0.3897
 5270TIP3   OH215773   1.435   0.775   5.687 -0.3796 -0.1439  0.9694
 5270TIP3    H115774   1.489   0.709   5.730  0.7076 -0.4336 -0.7541
 5270TIP3    H215775   1.384   0.726   5.622 -0.8336  0.4822  0.8395
 5271TIP3   OH215776   3.702   1.714   0.494  0.4816 -0.3360  0.0580
 5271TIP3    H115777   3.640   1.760   0.437  1.4479 -0.5281 -1.2129
 5271TIP3    H215778   3.674   1.734   0.583  0.0683  1.5804 -0.4672
 5272TIP3   OH215779   0.762   4.151   0.405 -0.1339 -0.8037 -0.6267
 5272TIP3    H115780   0.687   4.185   0.355 -0.0921 -0.3562 -0.3932
 5272TIP3    H215781   0.755   4.056   0.397 -0.4384 -0.7509 -1.0299
 5273TIP3   OH215782   0.623   3.517   4.740 -0.3240  0.1368 -0.1776
 5273TIP3    H115783   0.597   3.455   4.672 -2.3047 -0.4995  1.0797
 5273TIP3    H215784   0.542   3.564   4.762  0.1202 -0.0389  2.0983
 5274TIP3   OH215785   2.820   0.602   0.749  0.0931  0.2336  0.1583
 5274TIP3    H115786   2.754   0.587   0.681 -0.3001 -0.3557  0.6567
 5274TIP3    H215787   2.802   0.691   0.781  1.0083  0.9668 -1.2751
 5275TIP3   OH215788   5.538   6.539   0.978 -0.2967  0.2098  0.2157
 5275TIP3    H115789   5.446   6.544   0.952 -0.0495  0.3407 -0.6586
 5275TIP3    H215790   5.571   6.459   0.936  0.2200  0.6486 -0.2211
 5276TIP3   OH215791   3.673   1.607   2.509  0.0099 -0.0546 -0.2266
 5276TIP3    H115792   3.757   1.603   2.555  0.7948  2.9505 -1.1594
 5276TIP3    H215793   3.613   1.556   2.563  1.7161  0.2688  2.1215
 5277TIP3   OH215794   1.184   3.800   5.217 -0.2710 -0.1011 -0.4026
 5277TIP3    H115795   1.111   3.753   5.178 -1.3843  0.4971  0.8990
 5277TIP3    H215796   1.179   3.781   5.311 -0.1245  1.7333  0.0220
 5278TIP3   OH215797   1.787   5.548   0.932  0.1332  0.6055  0.1235
 5278TIP3    H115798   1.833   5.624   0.897 -0.2518  0.4918 -0.6592
 5278TIP3    H215799   1.734   5.583   1.004 -1.3807  1.4395 -1.3210
 5279TIP3   OH215800   4.414   5.849   1.121  0.5003  0.8180  0.1166
 5279TIP3    H115801   4.383   5.760   1.105  0.8951  0.8141 -0.6930
 5279TIP3    H215802   4.389   5.898   1.043  1.9877  0.9443 -0.3164
 5280TIP3   OH215803   4.218   3.957   5.253 -0.0048  0.5554  0.0020
 5280TIP3    H115804   4.284   3.919   5.311 -0.2943  1.3309  0.8561
 5280TIP3    H215805   4.176   4.024   5.306 -2.1749 -0.5886 -0.1677
 5281TIP3   OH215806   5.542   0.171   4.652 -0.1999 -0.3751  0.0759
 5281TIP3    H115807   5.535   0.106   4.582  0.4860 -0.6859  0.2917
 5281TIP3    H215808   5.632   0.202   4.647 -0.4028  0.2513  0.2534
 5282TIP3   OH215809   0.297   6.186   4.553 -0.3377 -0.0873 -0.2942
 5282TIP3    H115810   0.268   6.230   4.633  1.0457 -0.0972  0.2361
 5282TIP3    H215811   0.335   6.257   4.500 -0.8254 -0.1620 -0.7611
 5283TIP3   OH215812   1.938   0.612   5.309  0.2831 -0.3652 -0.0128
 5283TIP3    H115813   1.885   0.608   5.390 -2.1239 -0.5029 -1.4909
 5283TIP3    H215814   1.969   0.523   5.297  0.4243 -0.4080  0.5997
 5284TIP3   OH215815   4.457   5.114   1.369  0.1327  0.1503  0.4053
 5284TIP3    H115816   4.402   5.192   1.381 -0.9913 -0.7526  1.3382
 5284TIP3    H215817   4.492   5.123   1.280 -1.2128  0.9464 -0.0699
 5285TIP3   OH215818   5.189   5.581   0.803 -0.2931 -0.0093 -0.3267
 5285TIP3    H115819   5.137   5.518   0.853 -1.1082 -0.5313 -1.7771
 5285TIP3    H215820   5.229   5.529   0.734  0.1293  0.8400 -0.7314
 5286TIP3   OH215821   0.028   1.154   0.943  0.4726  0.2066  0.5083
 5286TIP3    H115822   0.117   1.162   0.910  0.5556 -1.0732  0.3816
 5286TIP3    H215823   0.038   1.118   1.031  0.0281 -2.1630 -0.3433
 5287TIP3   OH215824   2.642   0.969   1.630 -0.3578  0.5506  0.0346
 5287TIP3    H115825   2.693   0.892   1.605 -2.3456 -0.7114 -0.4649
 5287TIP3    H215826   2.655   1.032   1.560  0.3037  0.1507 -0.2067
 5288TIP3   OH215827   4.526   6.479   1.190 -0.1297  0.2554  0.0178
 5288TIP3    H115828   4.473   6.409   1.228 -0.6816 -0.2311 -1.5820
 5288TIP3    H215829   4.602   6.435   1.154  0.1528  0.6461  0.1330
 5289TIP3   OH215830   6.374   0.521   4.955 -0.4381  0.0507 -0.0407
 5289TIP3    H115831   6.314   0.559   4.890  1.2842  0.4149 -1.5001
 5289TIP3    H215832   6.432   0.465   4.903  0.4744 -0.3010  1.3188
 5290TIP3   OH215833   2.245   2.674   1.568 -0.4914 -0.5991  0.2595
 5290TIP3    H115834   2.296   2.741   1.522 -2.1421 -0.0761 -0.8695
 5290TIP3    H215835   2.289   2.666   1.653  0.8132  0.6007 -0.2514
 5291TIP3   OH215836   7.146   1.081   1.435  0.2024  0.3551 -0.0336
 5291TIP3    H115837   7.191   1.131   1.367 -0.1899  2.0266  0.8993
 5291TIP3    H215838   7.055   1.079   1.408 -0.0391  1.4291  0.6441
 5292TIP3   OH215839   0.501   5.215   3.417  0.4551  0.4542 -0.1749
 5292TIP3    H115840   0.473   5.126   3.394 -0.3729  0.9153 -1.0814
 5292TIP3    H215841   0.524   5.210   3.509  1.7929 -1.0157 -0.5326
 5293TIP3   OH215842   7.049   0.302   5.306  0.4653 -0.7129  0.0247
 5293TIP3    H115843   7.104   0.225   5.293  2.2358  0.4142  0.3908
 5293TIP3    H215844   7.001   0.284   5.387  1.3816 -1.1798  0.4848
 5294TIP3   OH215845   1.275   5.900   2.700 -0.1125  0.0057  0.6109
 5294TIP3    H115846   1.330   5.943   2.765 -0.6280  0.8940  0.4686
 5294TIP3    H215847   1.263   5.811   2.734  0.7039  0.0619  1.0613
 5295TIP3   OH215848   3.169   1.670   1.481 -0.6109  0.2904 -0.1599
 5295TIP3    H115849   3.188   1.608   1.410  0.2611 -0.0073  0.3312
 5295TIP3    H215850   3.214   1.751   1.455  0.0272  0.0652  0.2359
 5296TIP3   OH215851   1.735   6.245   1.511  0.3279 -0.3079  0.2988
 5296TIP3    H115852   1.747   6.285   1.597  1.2226 -1.6060  0.8039
 5296TIP3    H215853   1.799   6.288   1.455  1.2227 -0.9372  0.8180
 5297TIP3   OH215854   6.800   3.964   5.586  0.1097  0.1811  0.1523
 5297TIP3    H115855   6.772   3.923   5.669  0.8784 -0.6073  0.0357
 5297TIP3    H215856   6.778   4.056   5.597 -3.6230 -0.4788 -0.3638
 5298TIP3   OH215857   5.990   6.537   4.974  0.1412 -0.3246 -0.3154
 5298TIP3    H115858   6.008   6.513   4.883  0.1080  0.4438 -0.5301
 5298TIP3    H215859   5.948   6.459   5.011  1.1746 -1.0525 -0.6357
 5299TIP3   OH215860   2.489   6.254   1.974 -0.0993 -0.1112  0.6263
 5299TIP3    H115861   2.550   6.202   2.026 -1.7870 -3.1810 -0.1374
 5299TIP3    H215862   2.486   6.208   1.890 -1.6992  1.3003 -0.1312
 5300TIP3   OH215863   0.813   1.107   0.910  0.0483  0.2643  0.3083
 5300TIP3    H115864   0.836   1.198   0.894 -1.2650  0.4099 -0.9589
 5300TIP3    H215865   0.764   1.080   0.832 -0.2224 -1.3067  0.9714
 5301TIP3   OH215866   4.318   0.068   1.627 -0.3510 -0.4961  0.4859
 5301TIP3    H115867   4.347  -0.005   1.572 -0.8218 -0.6064  0.3850
 5301TIP3    H215868   4.399   0.111   1.653 -0.0984 -0.7137  0.0757
 5302TIP3   OH215869   2.957   2.366   2.981  0.6186  0.1370  0.5935
 5302TIP3    H115870   2.893   2.365   2.911  0.7716 -0.2215  0.4589
 5302TIP3    H215871   2.915   2.320   3.054  1.4130 -1.8289 -0.1141
 5303TIP3   OH215872   6.883   5.764   2.272  0.2153 -0.5327  0.0828
 5303TIP3    H115873   6.942   5.779   2.199 -0.3401  1.5831  0.0146
 5303TIP3    H215874   6.940   5.751   2.347  0.8052  1.1355 -0.0481
 5304TIP3   OH215875   3.950   6.755   1.668  0.8340 -0.4127 -0.3240
 5304TIP3    H115876   4.036   6.783   1.698  1.0118  0.7679 -1.8169
 5304TIP3    H215877   3.889   6.812   1.714  1.1249  1.6675 -2.2897
 5305TIP3   OH215878   1.199   5.414   3.776  0.2870 -0.2373  0.0837
 5305TIP3    H115879   1.208   5.429   3.681 -0.7192  0.9250  0.1502
 5305TIP3    H215880   1.113   5.375   3.786 -0.2602  1.0739  0.6514
 5306TIP3   OH215881   1.225   3.041   4.377  0.4699  0.0320 -0.4443
 5306TIP3    H115882   1.148   3.080   4.418 -0.4552 -0.8600 -1.2973
 5306TIP3    H215883   1.196   2.956   4.345  2.0572 -0.7322  0.0296
 5307TIP3   OH215884   0.787   4.800   4.542  0.1678 -0.0824 -0.3192
 5307TIP3    H115885   0.740   4.883   4.542 -0.1333 -0.2453  0.0573
 5307TIP3    H215886   0.780   4.769   4.633 -1.1571 -1.3082 -0.8015
 5308TIP3   OH215887   4.283   6.252   3.962  0.0018 -0.7049  1.0748
 5308TIP3    H115888   4.294   6.173   3.910  0.0947 -0.0486  0.0681
 5308TIP3    H215889   4.200   6.241   4.007 -0.8903 -0.5928 -0.4847
 5309TIP3   OH215890   0.436   5.158   3.929 -0.4109 -0.1869  0.2448
 5309TIP3    H115891   0.530   5.150   3.944 -0.5484 -0.7960  0.7948
 5309TIP3    H215892   0.398   5.081   3.970 -1.3243  0.8903  1.5230
 5310TIP3   OH215893   1.690   0.893   5.901 -0.3856  0.2696  0.3877
 5310TIP3    H115894   1.652   0.809   5.928 -0.9604  0.4227  0.0849
 5310TIP3    H215895   1.709   0.881   5.808 -1.6933  0.8930  0.0143
 5311TIP3   OH215896   5.325   0.668   5.741 -0.6022 -0.1432  0.6116
 5311TIP3    H115897   5.310   0.652   5.648 -0.3486  0.0683  0.5362
 5311TIP3    H215898   5.413   0.634   5.758 -0.7829 -0.4976  0.8486
 5312TIP3   OH215899   5.603   0.292   0.792  0.0610  0.3576 -0.2866
 5312TIP3    H115900   5.618   0.198   0.801  0.6618  0.2286 -2.2118
 5312TIP3    H215901   5.632   0.328   0.876 -2.0665 -1.3126  1.3006
 5313TIP3   OH215902   5.655   6.207   0.132  0.0058  0.2835  0.1686
 5313TIP3    H115903   5.594   6.154   0.080 -1.3499  0.5927  1.3729
 5313TIP3    H215904   5.620   6.296   0.126  0.6861  0.5735  0.4093
 5314TIP3   OH215905   4.822   1.825   0.827 -1.0169 -0.0826 -0.1984
 5314TIP3    H115906   4.775   1.880   0.890 -0.3811  1.2507 -0.8656
 5314TIP3    H215907   4.905   1.804   0.871 -0.3015  1.3714 -0.8044
 5315TIP3   OH215908   1.341   4.336   3.293 -0.3863 -0.5718 -0.0650
 5315TIP3    H115909   1.356   4.268   3.358 -1.0545 -1.0935 -0.4429
 5315TIP3    H215910   1.262   4.308   3.246  0.5863 -0.6958 -1.7343
 5316TIP3   OH215911   7.172   6.100   3.904 -0.4232 -0.0777  0.2403
 5316TIP3    H115912   7.255   6.089   3.950 -1.0023 -0.3912  1.2394
 5316TIP3    H215913   7.150   6.193   3.914 -0.5569 -0.1487  0.6270
 5317TIP3   OH215914   5.803   4.826   1.193 -0.0812 -0.1885  0.0321
 5317TIP3    H115915   5.872   4.761   1.206 -1.3771 -1.3758  1.3559
 5317TIP3    H215916   5.815   4.889   1.264  0.9740  0.8921 -1.0600
 5318TIP3   OH215917   1.868   0.855   1.794  0.0652 -0.7592 -0.1735
 5318TIP3    H115918   1.954   0.875   1.832 -0.4734 -0.8349  1.1479
 5318TIP3    H215919   1.808   0.855   1.869 -0.8983 -1.8513 -0.9019
 5319TIP3   OH215920   1.289   0.402   3.134 -0.7666 -0.3327  0.0787
 5319TIP3    H115921   1.282   0.334   3.201  1.2967 -1.1428 -0.4571
 5319TIP3    H215922   1.198   0.419   3.107 -1.6139 -0.2721  2.7293
 5320TIP3   OH215923   0.554   2.911   5.589  0.3011  0.1592 -0.0886
 5320TIP3    H115924   0.593   2.823   5.588  2.5391  1.0847 -1.1663
 5320TIP3    H215925   0.496   2.912   5.513  2.1262  0.3088 -1.5615
 5321TIP3   OH215926   6.908   6.504   5.369 -0.3426  0.2478 -0.7021
 5321TIP3    H115927   6.932   6.559   5.444 -1.3607 -1.5474  1.0496
 5321TIP3    H215928   6.852   6.559   5.315 -0.4886  1.2579  0.4378
 5322TIP3   OH215929   3.436   6.061   3.383  0.2058 -0.0932 -0.3685
 5322TIP3    H115930   3.483   6.113   3.318 -0.8979  0.2606 -0.9079
 5322TIP3    H215931   3.475   6.086   3.466  0.6263  0.5697 -0.7540
 5323TIP3   OH215932   4.030   3.529   2.071 -0.1212 -0.1496  0.8315
 5323TIP3    H115933   3.994   3.451   2.115  1.5207 -0.2876  2.0242
 5323TIP3    H215934   3.993   3.603   2.120  1.0974 -0.2884  2.0058
 5324TIP3   OH215935   0.415   2.505   5.858  0.1631  0.1226 -0.9830
 5324TIP3    H115936   0.377   2.586   5.824 -0.1740  0.5779  0.4196
 5324TIP3    H215937   0.412   2.445   5.784 -1.3214  0.8120 -1.5272
 5325TIP3   OH215938   6.651   5.959   2.619 -0.2390  0.4307  0.0030
 5325TIP3    H115939   6.736   5.916   2.613 -0.3608  0.2397 -0.3935
 5325TIP3    H215940   6.611   5.922   2.697  0.0654  0.5621  0.2229
 5326TIP3   OH215941   2.015   2.378   3.247 -0.4229  0.4869 -0.3919
 5326TIP3    H115942   1.982   2.289   3.250  0.2107  0.2554  2.1047
 5326TIP3    H215943   1.956   2.428   3.304  0.9496  0.9794  0.6600
 5327TIP3   OH215944   3.279   6.434   5.552 -0.6605 -0.2588 -0.4196
 5327TIP3    H115945   3.299   6.523   5.584  1.1283 -0.4573 -0.8992
 5327TIP3    H215946   3.185   6.426   5.564 -0.4299  0.4447  2.8637
 5328TIP3   OH215947   5.706   2.638   0.868 -0.4340  0.0018  0.5603
 5328TIP3    H115948   5.729   2.648   0.776  0.0896  0.6045  0.7503
 5328TIP3    H215949   5.697   2.544   0.881 -1.8354 -0.0283 -0.4138
 5329TIP3   OH215950   0.447   3.946   1.047 -0.6053 -0.0184  0.2265
 5329TIP3    H115951   0.377   3.896   1.089 -1.1683 -0.9403 -1.7090
 5329TIP3    H215952   0.505   3.969   1.119 -0.8188 -2.6400  1.3655
 5330TIP3   OH215953   4.519   5.433   2.462  0.1945 -0.0634 -0.0870
 5330TIP3    H115954   4.576   5.454   2.536  2.0032 -0.2218 -1.3704
 5330TIP3    H215955   4.534   5.340   2.445 -0.4022 -0.0957 -0.4888
 5331TIP3   OH215956   3.630   2.711   1.788  0.0061 -0.1428 -0.2483
 5331TIP3    H115957   3.714   2.675   1.760 -0.0308 -1.0733  0.7501
 5331TIP3    H215958   3.653   2.788   1.840  0.3161 -0.8527  0.7016
 5332TIP3   OH215959   5.515   3.807   2.592 -0.1848 -0.3836  0.6329
 5332TIP3    H115960   5.561   3.853   2.522  0.1737  0.3026  1.2997
 5332TIP3    H215961   5.538   3.715   2.579 -0.4393 -0.3095 -0.3707
 5333TIP3   OH215962   4.548   5.539   5.359 -0.2602  0.8166 -0.2680
 5333TIP3    H115963   4.557   5.577   5.446 -0.4158  0.1879  0.0289
 5333TIP3    H215964   4.515   5.611   5.305 -0.3624  1.1542  0.2348
 5334TIP3   OH215965   4.314   2.539   1.675  0.1592 -0.6858  0.8341
 5334TIP3    H115966   4.223   2.568   1.667  0.6131  0.3716 -1.1207
 5334TIP3    H215967   4.346   2.585   1.753  0.1136  2.2988 -0.7386
 5335TIP3   OH215968   3.837   2.982   3.621  0.2901 -0.0043  0.1484
 5335TIP3    H115969   3.824   3.077   3.615  0.6773  0.0469  0.0489
 5335TIP3    H215970   3.807   2.948   3.537  2.3193  0.3038 -0.7717
 5336TIP3   OH215971   6.682   6.759   0.947 -0.3991  0.3528 -0.3720
 5336TIP3    H115972   6.766   6.722   0.973 -0.9376  0.0343  1.0143
 5336TIP3    H215973   6.635   6.686   0.907 -0.7475 -0.0045  0.6535
 5337TIP3   OH215974   3.794   2.897   1.593  0.2274 -0.2982 -0.1234
 5337TIP3    H115975   3.864   2.962   1.595 -0.9008  1.0805 -2.0820
 5337TIP3    H215976   3.716   2.944   1.621 -0.5952 -0.8074 -1.4567
 5338TIP3   OH215977   5.460   3.558   2.234 -0.4307 -0.2887  0.0714
 5338TIP3    H115978   5.549   3.562   2.199 -0.3759 -0.9632  0.1172
 5338TIP3    H215979   5.411   3.622   2.182  0.3244  0.9265  0.8146
 5339TIP3   OH215980   5.977   1.843   0.247  0.3471  0.3628  0.5450
 5339TIP3    H115981   6.025   1.762   0.232 -1.4621 -0.6745  0.1013
 5339TIP3    H215982   5.892   1.815   0.280  0.0196  2.1355  1.3064
 5340TIP3   OH215983   6.648   5.871   2.198 -0.5309 -0.1322 -0.1147
 5340TIP3    H115984   6.679   5.852   2.109 -2.5622  0.3490 -0.9847
 5340TIP3    H215985   6.719   5.842   2.255  0.7542 -0.6216 -1.8807
 5341TIP3   OH215986   5.385   4.961   5.905 -0.7003  0.1209  0.5428
 5341TIP3    H115987   5.302   4.996   5.874 -1.5236 -0.6055  1.8831
 5341TIP3    H215988   5.397   4.879   5.856 -1.2380 -0.2464  1.0221
 5342TIP3   OH215989   6.057   6.661   2.548  0.5875  0.2843  0.3134
 5342TIP3    H115990   6.134   6.707   2.513  0.6504 -0.6432 -0.8239
 5342TIP3    H215991   6.071   6.661   2.643  1.1995  1.5021  0.2544
 5343TIP3   OH215992   0.585   2.588   3.880 -0.1007  0.7402  0.3200
 5343TIP3    H115993   0.614   2.526   3.812 -1.4057  1.8040 -1.2767
 5343TIP3    H215994   0.663   2.639   3.901  0.7149 -0.6449  0.8431
 5344TIP3   OH215995   3.067   2.942   2.941 -0.6648  0.0973 -0.1552
 5344TIP3    H115996   3.098   2.988   3.019  2.2622 -0.2496 -0.9923
 5344TIP3    H215997   3.020   2.867   2.975 -0.1241  0.3766  1.2894
 5345TIP3   OH215998   4.187   0.367   4.779  0.5698 -0.6467 -0.7568
 5345TIP3    H115999   4.235   0.355   4.860  1.0822  1.2240 -0.7372
 5345TIP3    H216000   4.233   0.313   4.715  0.9112 -1.1548 -0.0913
 5346TIP3   OH216001   0.343   2.051   4.617 -0.5015 -0.1535  0.3895
 5346TIP3    H116002   0.416   2.072   4.675  0.1653 -1.0148 -0.1262
 5346TIP3    H216003   0.285   2.127   4.624  0.8659  0.9597  0.1330
 5347TIP3   OH216004   4.179   5.039   3.370 -0.1795 -0.1202 -0.3243
 5347TIP3    H116005   4.130   5.012   3.292 -1.9424  1.6329  0.0758
 5347TIP3    H216006   4.253   5.089   3.337 -1.1096  0.9076 -0.9145
 5348TIP3   OH216007   6.416   6.308   2.949  0.3964 -0.9669  0.0581
 5348TIP3    H116008   6.430   6.261   2.867  1.4722  1.1956 -1.0858
 5348TIP3    H216009   6.503   6.313   2.989  0.8878  2.1124 -1.1200
 5349TIP3   OH216010   1.648   4.792   5.240 -0.3412  0.3843 -0.1755
 5349TIP3    H116011   1.736   4.766   5.213 -1.0055 -1.2598 -0.9350
 5349TIP3    H216012   1.639   4.757   5.329 -0.9694 -1.4989 -0.9235
 5350TIP3   OH216013   1.782   4.765   2.020  0.0592  0.2353  0.4051
 5350TIP3    H116014   1.705   4.708   2.011  0.1734  0.1318  0.0725
 5350TIP3    H216015   1.745   4.854   2.025 -0.1285  0.1214  1.1052
 5351TIP3   OH216016   5.210   5.771   1.746  0.0248 -0.0283  0.0410
 5351TIP3    H116017   5.250   5.807   1.667  0.4957 -1.6798 -0.4970
 5351TIP3    H216018   5.132   5.825   1.759  1.0097  1.5745 -0.3576
 5352TIP3   OH216019   0.949   2.115   0.204  0.0141 -0.2346  0.4096
 5352TIP3    H116020   1.025   2.165   0.176  1.8024 -2.4654  0.9789
 5352TIP3    H216021   0.875   2.154   0.158  1.7590  0.8644 -1.5819
 5353TIP3   OH216022   4.824   2.982   4.742  0.0999  0.6544 -0.1082
 5353TIP3    H116023   4.735   3.002   4.713 -0.7056  0.1590  1.8719
 5353TIP3    H216024   4.880   3.040   4.691 -1.0586 -0.7906 -3.3272
 5354TIP3   OH216025   4.098   1.149   4.794 -0.0905  0.5119  0.1773
 5354TIP3    H116026   4.133   1.100   4.868 -0.2303  0.8785  0.4881
 5354TIP3    H216027   4.094   1.085   4.723  0.5281  0.2870  0.3412
 5355TIP3   OH216028   6.879   2.332   3.460  0.5316 -0.7895 -0.2295
 5355TIP3    H116029   6.965   2.295   3.441 -0.1954 -1.5947 -2.0842
 5355TIP3    H216030   6.817   2.273   3.419 -0.7362  1.9494 -2.5755
 5356TIP3   OH216031   4.978   6.347   3.554 -0.4907 -0.7549 -0.7684
 5356TIP3    H116032   4.944   6.350   3.643  2.1723  0.1140  0.3370
 5356TIP3    H216033   4.909   6.387   3.500 -1.9817 -0.9109  0.9350
 5357TIP3   OH216034   2.939   0.473   4.886 -0.1728  0.4319  0.1002
 5357TIP3    H116035   2.936   0.538   4.956 -0.3523  0.8012 -0.2524
 5357TIP3    H216036   2.937   0.389   4.932 -1.5276  0.6561  0.5007
 5358TIP3   OH216037   0.253   3.599   2.848  0.0066 -0.1716 -0.0523
 5358TIP3    H116038   0.239   3.602   2.753 -0.6290  0.1820  0.0452
 5358TIP3    H216039   0.332   3.651   2.863  0.0665 -0.1664 -0.3783
 5359TIP3   OH216040   6.021   6.741   1.990 -0.2508  0.2057 -0.2383
 5359TIP3    H116041   6.041   6.790   2.069  1.0377  0.4576 -0.7009
 5359TIP3    H216042   6.079   6.665   1.993 -0.7641 -0.2098 -0.5536
 5360TIP3   OH216043   2.562   5.406   4.883 -0.3667 -0.3614  0.3775
 5360TIP3    H116044   2.516   5.483   4.848 -1.4804 -0.2332  2.0256
 5360TIP3    H216045   2.571   5.348   4.807 -1.9524  0.2619 -0.3448
 5361TIP3   OH216046   6.707   2.284   3.104  0.0142 -0.2984  0.0917
 5361TIP3    H116047   6.800   2.283   3.125  0.0737 -0.2710 -0.1635
 5361TIP3    H216048   6.667   2.339   3.171  0.4044  0.9721 -0.6751
 5362TIP3   OH216049   3.569   5.001   2.943 -0.1641  0.1677  0.1571
 5362TIP3    H116050   3.540   5.064   2.877  2.9954  1.4133 -0.2020
 5362TIP3    H216051   3.515   5.019   3.020 -0.1470  2.5413 -0.3275
 5363TIP3   OH216052   4.909   4.733   5.748 -0.2555 -0.0912  0.6790
 5363TIP3    H116053   4.955   4.675   5.688 -0.3492  0.9748 -0.4512
 5363TIP3    H216054   4.974   4.754   5.815  0.2200 -0.3362  0.3003
 5364TIP3   OH216055   6.121   3.857   4.918  0.0595 -0.3457 -0.3003
 5364TIP3    H116056   6.138   3.866   5.011 -1.2659  0.7660 -0.1285
 5364TIP3    H216057   6.137   3.765   4.898  2.6300 -0.1274  0.5152
 5365TIP3   OH216058   3.840   5.811   3.788 -0.1285 -0.7147  0.3132
 5365TIP3    H116059   3.923   5.855   3.804 -1.1450  1.6242 -0.2846
 5365TIP3    H216060   3.795   5.813   3.872 -0.6319  0.5507  0.0450
 5366TIP3   OH216061   1.998   5.329   2.545  0.3978  0.0132  0.6553
 5366TIP3    H116062   2.080   5.280   2.544  0.4168  0.0442 -0.3405
 5366TIP3    H216063   2.022   5.417   2.518  0.3043  0.5033  2.0718
 5367TIP3   OH216064   6.681   1.373   3.246  0.0645 -0.0725 -0.4645
 5367TIP3    H116065   6.742   1.415   3.306 -1.2592  1.1658  0.0761
 5367TIP3    H216066   6.698   1.415   3.162  0.7153 -0.5497 -0.5807
 5368TIP3   OH216067   0.911   2.623   4.299 -0.7898  0.0535  0.2424
 5368TIP3    H116068   0.985   2.683   4.310 -0.4571 -0.3199  0.0717
 5368TIP3    H216069   0.950   2.542   4.264 -1.3174 -0.0421 -0.1536
 5369TIP3   OH216070   3.223   6.714   0.099  0.5682  0.1799  0.1506
 5369TIP3    H116071   3.197   6.666   0.177 -1.8271  1.9988  0.5687
 5369TIP3    H216072   3.142   6.731   0.052  1.3841  2.9707 -0.4300
 5370TIP3   OH216073   3.654   2.930   4.177  0.2212 -0.4523  0.6523
 5370TIP3    H116074   3.724   2.995   4.168 -0.3778  0.2490  0.9446
 5370TIP3    H216075   3.700   2.847   4.186  1.0121 -0.0419  0.5262
 5371TIP3   OH216076   0.326   0.201   1.131 -0.3308 -0.5543  0.1048
 5371TIP3    H116077   0.308   0.294   1.137  2.6480  0.1666 -0.4174
 5371TIP3    H216078   0.345   0.174   1.221  2.6642  0.3658 -0.1381
 5372TIP3   OH216079   5.777   5.830   3.471  0.7773 -0.1822  0.1142
 5372TIP3    H116080   5.872   5.830   3.461  0.7289 -0.8824 -0.4562
 5372TIP3    H216081   5.763   5.819   3.565  1.2509  3.0824  0.6820
 5373TIP3   OH216082   5.051   3.474   3.334  0.2711  0.4347  0.1444
 5373TIP3    H116083   5.116   3.407   3.313 -0.7321 -0.7366  0.6509
 5373TIP3    H216084   4.975   3.452   3.281 -0.9069 -0.2536  2.0294
 5374TIP3   OH216085   4.812   0.360   4.643 -0.1592 -0.4839 -0.1238
 5374TIP3    H116086   4.742   0.413   4.682  0.3819  0.6310 -0.6341
 5374TIP3    H216087   4.808   0.277   4.690 -2.0718 -0.5854 -0.3821
 5375TIP3   OH216088   0.255   6.624   3.799 -0.2316 -0.1264 -0.7901
 5375TIP3    H116089   0.306   6.674   3.862  0.9036 -0.3711 -1.4991
 5375TIP3    H216090   0.164   6.633   3.829  0.3143 -0.5966  1.1070
 5376TIP3   OH216091   2.380   2.257   5.404 -0.2019  0.4713  0.1462
 5376TIP3    H116092   2.291   2.265   5.370  0.7894 -0.3578 -2.9728
 5376TIP3    H216093   2.432   2.317   5.349  1.5004 -0.7745  0.3169
 5377TIP3   OH216094   7.176   6.256   4.744 -0.1621  0.2446  0.0687
 5377TIP3    H116095   7.255   6.300   4.714 -1.5938  1.0583 -2.9342
 5377TIP3    H216096   7.204   6.204   4.819  2.5359  2.7587  0.9648
 5378TIP3   OH216097   5.494   2.573   3.959 -0.6659 -0.1164  0.3163
 5378TIP3    H116098   5.585   2.551   3.975 -1.0990 -1.3911  1.1161
 5378TIP3    H216099   5.465   2.617   4.039 -0.4327  1.4167 -0.4079
 5379TIP3   OH216100   4.608   5.239   5.258  0.4445 -0.5988  0.0930
 5379TIP3    H116101   4.514   5.222   5.255 -0.2606  1.6219  3.5296
 5379TIP3    H216102   4.620   5.322   5.213  0.2632  0.3827  1.7701
 5380TIP3   OH216103   2.670   6.275   5.411  0.3329  0.3286 -0.4549
 5380TIP3    H116104   2.628   6.223   5.479  0.5231 -0.8563 -1.2275
 5380TIP3    H216105   2.636   6.364   5.425  0.5870  0.1821  1.3566
 5381TIP3   OH216106   4.444   6.003   5.683  0.8829 -0.2460  0.3838
 5381TIP3    H116107   4.362   5.960   5.710  1.4324 -1.4050  0.2532
 5381TIP3    H216108   4.506   5.931   5.672  1.5894  0.5170 -0.7242
 5382TIP3   OH216109   0.547   2.087   2.369 -0.0511 -0.2805  0.0344
 5382TIP3    H116110   0.503   2.018   2.320  1.0321 -0.2573 -1.0114
 5382TIP3    H216111   0.602   2.041   2.432 -1.2710 -0.3117  1.1262
 5383TIP3   OH216112   4.988   3.484   4.548  0.0665 -0.4516  0.2470
 5383TIP3    H116113   5.009   3.464   4.456 -0.6927  0.6607 -0.1926
 5383TIP3    H216114   5.015   3.575   4.559 -1.4908  0.0125  0.5736
 5384TIP3   OH216115   2.080   3.173   0.038  0.2889  0.3605 -0.1207
 5384TIP3    H116116   2.171   3.148   0.024  0.5090  1.6279 -1.1412
 5384TIP3    H216117   2.029   3.109  -0.012  0.4846 -1.3935  1.8366
 5385TIP3   OH216118   3.477   1.590   4.880  0.3150  0.1072 -0.1923
 5385TIP3    H116119   3.518   1.596   4.966 -0.1337 -0.2031  0.0494
 5385TIP3    H216120   3.383   1.596   4.898  0.1927 -0.4594 -0.6085
 5386TIP3   OH216121   5.165   5.068   5.776  0.4672 -0.4646 -0.1939
 5386TIP3    H116122   5.126   5.010   5.711 -0.1518  0.1646 -0.3916
 5386TIP3    H216123   5.188   5.147   5.727 -0.2466  0.1195  0.3955
 5387TIP3   OH216124   4.198   1.246   1.398  0.0823  0.1258  0.4026
 5387TIP3    H116125   4.186   1.287   1.483 -0.1875 -0.9383  0.8918
 5387TIP3    H216126   4.111   1.212   1.375  0.3017 -0.1831  0.0161
 5388TIP3   OH216127   6.968   5.355   3.968 -0.0298  0.0426 -0.4185
 5388TIP3    H116128   6.875   5.371   3.951 -0.4194 -1.2154  0.3860
 5388TIP3    H216129   7.001   5.439   3.999 -0.3484  1.1352 -2.7800
 5389TIP3   OH216130   6.829   6.001   5.879  0.4377  0.2197  0.2370
 5389TIP3    H116131   6.848   5.907   5.870 -1.0243 -0.0915  0.2954
 5389TIP3    H216132   6.916   6.042   5.874  0.9771 -0.9741 -1.6172
 5390TIP3   OH216133   1.850   6.160   2.540  0.6201 -0.4266  0.1159
 5390TIP3    H116134   1.943   6.183   2.542  0.5638 -0.2360  0.5405
 5390TIP3    H216135   1.848   6.066   2.561  0.5692  0.0065  2.1594
 5391TIP3   OH216136   6.221   4.003   1.316 -0.0509 -0.2792  0.2663
 5391TIP3    H116137   6.172   4.002   1.234 -2.4250  0.9279  1.5694
 5391TIP3    H216138   6.167   3.954   1.378  1.8436 -1.4668  1.0887
 5392TIP3   OH216139   6.376   5.080   4.390 -0.7768  0.0848  0.3313
 5392TIP3    H116140   6.422   5.001   4.360 -0.1176  0.4837  0.2780
 5392TIP3    H216141   6.296   5.046   4.432 -0.5559 -0.6055  0.2149
 5393TIP3   OH216142   5.113   4.609   4.091  0.0207  0.5684 -0.2883
 5393TIP3    H116143   5.090   4.627   4.182 -0.5416 -0.4651 -0.2148
 5393TIP3    H216144   5.038   4.639   4.040  0.1299  0.7063 -0.3672
 5394TIP3   OH216145   5.160   2.489   0.682  0.5087  0.5476  0.0809
 5394TIP3    H116146   5.253   2.499   0.703  0.6244 -1.9161  1.1448
 5394TIP3    H216147   5.114   2.542   0.748  1.1293 -0.6296  1.5341
 5395TIP3   OH216148   5.549   4.588   0.688 -0.1069  0.1122  0.3314
 5395TIP3    H116149   5.575   4.501   0.658 -1.2310  0.2715 -1.2388
 5395TIP3    H216150   5.493   4.571   0.765  0.4971 -0.4738  0.6515
 5396TIP3   OH216151   4.341   2.897   2.663  0.3917  0.5220  0.1091
 5396TIP3    H116152   4.261   2.844   2.657 -0.7141  2.0502  0.7372
 5396TIP3    H216153   4.389   2.877   2.583  0.1405 -1.5923  0.4382
 5397TIP3   OH216154   1.012   0.386   4.507  0.2511  0.3513 -0.5535
 5397TIP3    H116155   1.050   0.445   4.441 -1.5834 -0.0496 -2.0643
 5397TIP3    H216156   0.988   0.443   4.580  1.6946  0.9135 -0.4742
 5398TIP3   OH216157   5.578   4.671   2.682 -0.0213  0.4976  0.1149
 5398TIP3    H116158   5.611   4.599   2.735 -0.5897  0.0747 -0.0932
 5398TIP3    H216159   5.631   4.746   2.708 -0.6628  0.4376  1.7099
 5399TIP3   OH216160   1.284   3.505   2.556  0.2986  0.1371  0.0109
 5399TIP3    H116161   1.286   3.517   2.650  0.5667  1.0876 -0.1097
 5399TIP3    H216162   1.307   3.413   2.543 -0.5828 -0.2223  0.9034
 5400TIP3   OH216163   3.780   1.840   2.378 -0.1038 -0.1043  0.1884
 5400TIP3    H116164   3.812   1.887   2.455 -2.3114  1.2481  0.3657
 5400TIP3    H216165   3.755   1.754   2.411  3.1184 -1.2219  0.0411
 5401TIP3   OH216166   1.968   3.421   5.198 -0.3831  0.0764  0.2829
 5401TIP3    H116167   1.925   3.480   5.261  1.2662  2.6518 -0.8449
 5401TIP3    H216168   2.051   3.399   5.238 -1.3382 -2.3822  1.0946
 5402TIP3   OH216169   7.053   0.015   5.069  1.2367  0.0443  0.0856
 5402TIP3    H116170   7.027  -0.016   4.983  1.3548  0.2503 -0.0235
 5402TIP3    H216171   7.016   0.103   5.076  0.2661 -0.3953  0.6901
 5403TIP3   OH216172   3.703   2.076   5.178  0.3237  0.1359  0.0567
 5403TIP3    H116173   3.614   2.085   5.143  0.7644 -1.4639 -1.6824
 5403TIP3    H216174   3.756   2.133   5.122  0.6309 -0.2664 -0.0657
 5404TIP3   OH216175   0.280   5.835   5.286  0.4767 -0.4459  0.4054
 5404TIP3    H116176   0.196   5.790   5.278 -0.6780  1.5512  0.7752
 5404TIP3    H216177   0.321   5.825   5.200 -0.2975 -1.1081  0.1059
 5405TIP3   OH216178   3.305   3.320   1.074  0.0644  0.1075 -0.6053
 5405TIP3    H116179   3.386   3.322   1.125  0.3565 -1.6308 -0.9451
 5405TIP3    H216180   3.332   3.347   0.986  0.4556 -1.1641 -0.9003
 5406TIP3   OH216181   5.856   3.806   0.962  0.4893 -0.3886 -0.1056
 5406TIP3    H116182   5.788   3.788   1.028  1.1519 -0.6416  0.5163
 5406TIP3    H216183   5.829   3.755   0.886 -1.6036  1.7717 -0.9349
 5407TIP3   OH216184   4.132   5.853   4.552  0.6840 -0.2131  0.3341
 5407TIP3    H116185   4.086   5.933   4.579 -0.7461 -1.1077  0.6264
 5407TIP3    H216186   4.222   5.882   4.535  0.8114  1.0317  2.6967
 5408TIP3   OH216187   4.738   5.957   2.971 -0.1483 -0.5485  0.7816
 5408TIP3    H116188   4.675   6.027   2.986 -1.2642 -1.1639 -0.7098
 5408TIP3    H216189   4.728   5.899   3.047 -0.8588 -0.2420  0.9328
 5409TIP3   OH216190   2.385   2.244   4.909  0.8077 -0.3004 -0.0337
 5409TIP3    H116191   2.314   2.268   4.969  0.2610  0.4086 -0.9199
 5409TIP3    H216192   2.389   2.149   4.913  0.2244 -0.3110  0.5031
 5410TIP3   OH216193   1.717   6.319   2.707  0.4306 -0.4162  0.0507
 5410TIP3    H116194   1.745   6.257   2.639  0.8696  0.7139 -0.8350
 5410TIP3    H216195   1.666   6.385   2.660 -1.1718 -0.7930  1.1865
 5411TIP3   OH216196   4.774   5.452   4.510  0.0872 -0.3081  0.0551
 5411TIP3    H116197   4.768   5.514   4.583  1.0928  1.5341 -1.3332
 5411TIP3    H216198   4.811   5.373   4.549 -1.9007 -0.3703  2.0342
 5412TIP3   OH216199   6.098   4.183   0.599  0.1743  0.5879  0.7245
 5412TIP3    H116200   6.171   4.164   0.658 -1.2548 -2.6468  1.6262
 5412TIP3    H216201   6.141   4.214   0.518  2.4892 -0.4058  1.4869
 5413TIP3   OH216202   5.180   4.043   2.596  0.0000 -0.2763 -0.1586
 5413TIP3    H116203   5.184   3.966   2.653  1.9195 -0.2398 -0.1840
 5413TIP3    H216204   5.187   4.009   2.507 -1.5637 -0.2180 -0.3382
 5414TIP3   OH216205   2.296   5.374   5.611  0.6303  0.1708  0.2763
 5414TIP3    H116206   2.205   5.344   5.618 -1.1563  4.3809 -1.5537
 5414TIP3    H216207   2.321   5.354   5.520  0.8845  0.5466  0.2607
 5415TIP3   OH216208   2.116   0.975   5.572  0.3602 -0.1267 -0.0187
 5415TIP3    H116209   2.170   0.900   5.598  0.5522  0.2505  0.6964
 5415TIP3    H216210   2.054   0.986   5.644 -1.2404 -1.0448 -1.1576
 5416TIP3   OH216211   6.338   4.567   2.632 -0.5402  0.4612 -0.4644
 5416TIP3    H116212   6.304   4.635   2.689  0.2057  0.9132 -0.5396
 5416TIP3    H216213   6.422   4.602   2.601  0.7337 -1.2392  0.9153
 5417TIP3   OH216214   3.766   2.472   5.508  0.2853  0.3706  0.3670
 5417TIP3    H116215   3.672   2.475   5.526 -0.2190 -0.3571 -1.8557
 5417TIP3    H216216   3.805   2.441   5.590 -1.3130  1.2968  1.5317
 5418TIP3   OH216217   6.929   4.002   1.430  0.6978 -0.0673 -0.3745
 5418TIP3    H116218   6.854   3.961   1.472  0.6272  1.2900  0.9040
 5418TIP3    H216219   6.930   3.965   1.342 -1.4875 -0.1008 -0.4409
 5419TIP3   OH216220   5.469   1.421   5.116  0.0358 -0.2600 -0.2590
 5419TIP3    H116221   5.483   1.406   5.023  0.3550  0.0643 -0.2671
 5419TIP3    H216222   5.410   1.352   5.143  0.2546 -0.5919 -0.6199
 5420TIP3   OH216223   0.381   2.239   1.695  0.2550 -0.8720 -0.0935
 5420TIP3    H116224   0.326   2.181   1.642 -0.6299  0.3362 -0.5351
 5420TIP3    H216225   0.404   2.186   1.771 -0.7820 -1.7041 -0.3345
 5421TIP3   OH216226   4.886   6.510   1.345  0.4493  0.0924 -0.0493
 5421TIP3    H116227   4.900   6.548   1.258  0.7914 -0.5549 -0.2860
 5421TIP3    H216228   4.826   6.571   1.388 -0.4830 -0.0734 -1.0715
 5422TIP3   OH216229   2.575   3.712   5.088  0.5117  0.3343  0.1332
 5422TIP3    H116230   2.656   3.677   5.051 -0.3043 -1.8216  0.2278
 5422TIP3    H216231   2.531   3.636   5.125 -1.9473  1.2593 -0.6532
 5423TIP3   OH216232   1.196   0.978   5.133  0.0716 -0.2002  0.2012
 5423TIP3    H116233   1.207   0.883   5.135  1.7987 -0.0312  1.3771
 5423TIP3    H216234   1.273   1.011   5.088 -0.0070  0.6879  0.6782
 5424TIP3   OH216235   0.506   4.519   3.579 -0.2936 -0.3344 -0.3045
 5424TIP3    H116236   0.525   4.540   3.671 -2.2785  0.4474 -0.0271
 5424TIP3    H216237   0.555   4.585   3.529 -0.1684 -0.0159  0.2329
 5425TIP3   OH216238   6.181   0.609   4.737 -0.1155 -0.4465 -0.2287
 5425TIP3    H116239   6.251   0.638   4.678 -0.5298 -0.3261 -0.6646
 5425TIP3    H216240   6.119   0.682   4.738 -0.3642 -0.6598 -0.0480
 5426TIP3   OH216241   4.243   3.591  -0.007 -0.0922  0.3900  0.0857
 5426TIP3    H116242   4.243   3.660   0.059  0.2486 -0.9438  1.5546
 5426TIP3    H216243   4.317   3.535   0.016 -1.5362 -1.5945  0.2199
 5427TIP3   OH216244   6.469   0.101   0.429  0.4946 -0.4639  0.9553
 5427TIP3    H116245   6.528   0.040   0.384  0.9071  0.6684 -0.1300
 5427TIP3    H216246   6.509   0.113   0.516  2.2695  0.7068  0.0608
 5428TIP3   OH216247   4.693   4.975   5.292 -0.7830  0.1775  0.0601
 5428TIP3    H116248   4.610   4.935   5.267 -0.5898 -1.7172  2.0938
 5428TIP3    H216249   4.670   5.065   5.315 -2.0397  0.0378 -0.5709
 5429TIP3   OH216250   1.304   6.462   2.168  0.0979 -0.1147 -0.5097
 5429TIP3    H116251   1.309   6.544   2.218 -0.1524  0.7492 -1.8354
 5429TIP3    H216252   1.335   6.486   2.081  2.2010 -1.9615 -0.3590
 5430TIP3   OH216253   6.785   0.491   1.698  0.1707  0.9184  0.0365
 5430TIP3    H116254   6.842   0.415   1.716 -0.9452  0.3702  1.4089
 5430TIP3    H216255   6.760   0.523   1.785 -1.3554  1.3402 -0.5360
 5431TIP3   OH216256   6.704   4.018   2.429 -0.1709  0.0295 -0.0946
 5431TIP3    H116257   6.798   4.016   2.451  0.4846 -1.0975 -2.6897
 5431TIP3    H216258   6.660   3.997   2.511  1.8348  0.5765  1.1986
 5432TIP3   OH216259   4.822   5.167   5.084 -0.1529  0.0693  0.2227
 5432TIP3    H116260   4.766   5.175   5.161  0.7514 -0.0507  0.9157
 5432TIP3    H216261   4.861   5.253   5.074 -1.3241  0.4915 -0.9627
 5433TIP3   OH216262   3.593   0.925   5.864 -0.4663  0.0355  0.1319
 5433TIP3    H116263   3.680   0.919   5.825  0.0990 -0.9850  1.4452
 5433TIP3    H216264   3.609   0.964   5.950 -1.0829 -1.4122  0.9362
 5434TIP3   OH216265   0.596   5.394   5.173 -0.0689  0.0041 -0.2971
 5434TIP3    H116266   0.566   5.482   5.153 -0.3904  0.3122  1.4080
 5434TIP3    H216267   0.516   5.343   5.187  0.1027 -0.6619 -1.5939
 5435TIP3   OH216268   0.401   6.443   2.946  0.9791 -0.6336  0.9254
 5435TIP3    H116269   0.474   6.505   2.941  2.2986 -2.0147  1.9454
 5435TIP3    H216270   0.430   6.369   2.892 -0.1016 -0.8144  0.5854
 5436TIP3   OH216271   5.330   1.019   2.287 -0.0478  0.1971 -0.6494
 5436TIP3    H116272   5.279   1.023   2.206  4.0215 -1.1051 -3.5625
 5436TIP3    H216273   5.358   1.110   2.302  0.5819  0.1941 -1.7381
 5437TIP3   OH216274   2.961   5.378   2.115  0.2187 -0.6669 -0.0730
 5437TIP3    H116275   3.048   5.362   2.151 -0.2554  1.2831  2.1742
 5437TIP3    H216276   2.925   5.291   2.100  1.6620 -1.5559  1.3143
 5438TIP3   OH216277   1.553   4.493   0.159 -0.6787 -0.1070  0.4584
 5438TIP3    H116278   1.641   4.529   0.150 -1.4067  2.0662  1.3106
 5438TIP3    H216279   1.510   4.513   0.076 -0.9792  0.7678  0.8089
 5439TIP3   OH216280   3.354   4.145   1.569 -0.0379 -0.1606 -0.4734
 5439TIP3    H116281   3.348   4.175   1.660 -0.7668 -0.6126 -0.3688
 5439TIP3    H216282   3.317   4.057   1.570 -0.6380  0.0749 -1.3301
 5440TIP3   OH216283   4.402   1.172   1.590  0.0228  0.1913 -0.4383
 5440TIP3    H116284   4.325   1.169   1.534 -0.5667  0.7110  0.3131
 5440TIP3    H216285   4.378   1.118   1.666  0.1759  0.7969  0.0499
 5441TIP3   OH216286   6.324   5.476   5.084  0.6846 -0.2669  0.0415
 5441TIP3    H116287   6.259   5.406   5.081  0.6570 -0.2257 -1.8290
 5441TIP3    H216288   6.327   5.502   5.176 -2.0893 -0.1517  0.1991
 5442TIP3   OH216289   3.707   4.201   3.092  0.0542  0.1150 -0.3959
 5442TIP3    H116290   3.644   4.271   3.072  1.0531  0.8012 -1.2890
 5442TIP3    H216291   3.737   4.221   3.181 -0.5710  0.0985 -0.1732
 5443TIP3   OH216292   1.210   1.365   2.251  0.1583  0.4670 -0.0919
 5443TIP3    H116293   1.127   1.408   2.229 -0.0470 -0.4626 -1.2765
 5443TIP3    H216294   1.262   1.373   2.171  0.9436  0.4318  0.4147
 5444TIP3   OH216295   0.427   0.178   2.930 -0.1042  0.2419  0.3386
 5444TIP3    H116296   0.383   0.103   2.890  0.0086  0.0893  0.5005
 5444TIP3    H216297   0.371   0.202   3.004 -0.2247  0.4199  0.1926
 5445TIP3   OH216298   0.873   5.185   5.074  0.5389 -0.2061 -0.1364
 5445TIP3    H116299   0.791   5.231   5.055 -1.0917 -1.0964  3.7768
 5445TIP3    H216300   0.937   5.228   5.017 -1.6358  3.9943  0.1137
 5446TIP3   OH216301   5.930   4.389   1.246  0.3064 -0.1722  0.2053
 5446TIP3    H116302   5.944   4.362   1.155 -0.0033  3.6738 -1.1806
 5446TIP3    H216303   5.839   4.367   1.264 -0.2082  0.7111 -1.1494
 5447TIP3   OH216304   2.868   0.250   5.022  0.5936  0.6480 -0.7999
 5447TIP3    H116305   2.891   0.168   4.978  0.3327  1.8867 -3.4082
 5447TIP3    H216306   2.774   0.243   5.040  0.3503  0.7676 -1.9736
 5448TIP3   OH216307   5.744   0.794   2.059 -0.2416  0.0216  0.3392
 5448TIP3    H116308   5.742   0.882   2.022 -0.4277 -0.5641 -1.1346
 5448TIP3    H216309   5.836   0.770   2.058 -0.1207  0.4014  1.2962
 5449TIP3   OH216310   0.502   1.246   5.715  0.0460  0.0890 -0.6890
 5449TIP3    H116311   0.473   1.158   5.693 -0.6238  0.2950 -0.6483
 5449TIP3    H216312   0.424   1.289   5.751  0.2408  0.8446 -1.1362
 5450TIP3   OH216313   1.445   0.932   3.651  0.6962  0.5169  0.3940
 5450TIP3    H116314   1.418   0.994   3.584  2.3553  1.4038  0.5027
 5450TIP3    H216315   1.408   0.967   3.732  1.2727  1.1434  0.3919
 5451TIP3   OH216316   6.543   3.986   2.661  0.2894 -0.2107 -0.0185
 5451TIP3    H116317   6.603   4.023   2.726  0.6083  2.0706 -1.5048
 5451TIP3    H216318   6.459   3.981   2.706  0.5832  0.9535  0.6897
 5452TIP3   OH216319   3.674   5.978   5.737 -0.0265  0.0898  0.1977
 5452TIP3    H116320   3.712   5.957   5.823 -1.7622 -1.0556  0.7620
 5452TIP3    H216321   3.580   5.982   5.754 -0.2970  1.3685 -1.3923
 5453TIP3   OH216322   0.833   3.315   5.373  0.1249  0.1507  0.4967
 5453TIP3    H116323   0.912   3.368   5.385  0.2491  0.1643 -0.2987
 5453TIP3    H216324   0.864   3.224   5.376  0.6965  0.1319 -2.6623
 5454TIP3   OH216325   4.239   5.033   1.710  0.1916  0.3229 -0.1385
 5454TIP3    H116326   4.216   4.968   1.776  1.2880 -0.1679 -0.2099
 5454TIP3    H216327   4.271   4.981   1.636 -1.2293  0.8556 -1.1541
 5455TIP3   OH216328   5.193   1.902   2.239 -0.2607  0.7133 -0.2884
 5455TIP3    H116329   5.123   1.854   2.282  0.7280 -0.5213 -0.0101
 5455TIP3    H216330   5.191   1.989   2.280 -1.5791  0.6847 -0.2596
 5456TIP3   OH216331   0.781   4.863   2.118 -0.1072  0.4266 -0.5290
 5456TIP3    H116332   0.817   4.777   2.140  0.5745  0.9208  0.3669
 5456TIP3    H216333   0.847   4.902   2.061 -0.6116  0.1977 -1.2737
 5457TIP3   OH216334   1.734   5.584   1.412  0.4361  0.5334  0.1895
 5457TIP3    H116335   1.725   5.618   1.323 -0.7983  0.3348  0.2300
 5457TIP3    H216336   1.817   5.536   1.411  0.1532  0.0427 -1.0246
 5458TIP3   OH216337   0.412   5.417   4.160  0.0121  0.5419 -0.1484
 5458TIP3    H116338   0.455   5.332   4.153  0.3889  0.7851 -0.8967
 5458TIP3    H216339   0.323   5.402   4.127  0.0092  0.3971 -0.0769
 5459TIP3   OH216340   4.404   3.867   5.413  0.2414 -0.2831 -0.2811
 5459TIP3    H116341   4.459   3.857   5.490  0.0820 -2.3639 -0.3662
 5459TIP3    H216342   4.338   3.797   5.422 -1.2609  0.9613 -1.1049
 5460TIP3   OH216343   4.834   4.258   3.576 -0.1201  0.4647 -0.2595
 5460TIP3    H116344   4.835   4.335   3.520 -0.0569 -0.1308 -1.0999
 5460TIP3    H216345   4.870   4.288   3.659 -1.0764  1.5927 -0.2274
 5461TIP3   OH216346   1.375   5.178   0.930 -0.0058 -0.1337  0.0130
 5461TIP3    H116347   1.355   5.184   0.837  1.7063 -0.7649 -0.4463
 5461TIP3    H216348   1.374   5.084   0.949 -1.6308  0.0531  0.9642
 5462TIP3   OH216349   1.070   4.288   3.949  0.4422 -0.5631 -0.2706
 5462TIP3    H116350   1.095   4.318   4.037  0.9486 -0.2451 -0.5182
 5462TIP3    H216351   0.980   4.318   3.938  0.5607 -0.1274 -0.0730
 5463TIP3   OH216352   1.420   1.715   1.254 -0.3975  0.1583 -0.6386
 5463TIP3    H116353   1.393   1.688   1.342  0.0362 -0.7805 -0.7709
 5463TIP3    H216354   1.449   1.805   1.264  0.8601 -0.3302  0.4690
 5464TIP3   OH216355   6.142   4.448   3.379 -0.0190  0.0468  0.4083
 5464TIP3    H116356   6.214   4.390   3.402 -0.4633 -0.4556  0.5579
 5464TIP3    H216357   6.077   4.434   3.448  0.3119  1.5315  1.0588
 5465TIP3   OH216358   4.453   1.278   2.544  0.0152  0.0992  0.1786
 5465TIP3    H116359   4.373   1.227   2.560  0.4126 -0.5970 -0.0365
 5465TIP3    H216360   4.425   1.348   2.485 -0.0437 -1.3351 -1.5910
 5466TIP3   OH216361   2.521   2.975   3.684 -0.0407  0.7106 -0.2025
 5466TIP3    H116362   2.474   3.052   3.716 -1.3658  0.4648 -1.4612
 5466TIP3    H216363   2.519   2.984   3.589  0.2246 -0.6193 -0.3432
 5467TIP3   OH216364   0.960   6.504   2.240 -1.0279 -0.0339 -0.2073
 5467TIP3    H116365   0.905   6.464   2.307 -0.5432  1.5769  1.2090
 5467TIP3    H216366   1.034   6.541   2.288 -0.7229  1.2798 -1.6081
 5468TIP3   OH216367   6.181   1.871   4.582  0.1207  0.3092 -0.4492
 5468TIP3    H116368   6.157   1.963   4.585 -0.2072  0.1988  1.0855
 5468TIP3    H216369   6.277   1.872   4.575  0.1365  0.7601 -0.2056
 5469TIP3   OH216370   2.312   4.686   0.468 -0.8125 -0.1569  0.3447
 5469TIP3    H116371   2.225   4.699   0.430 -1.0444 -1.0162  0.5674
 5469TIP3    H216372   2.349   4.612   0.421 -0.3779 -0.0870  0.5661
 5470TIP3   OH216373   0.098   1.741   1.361  0.3651 -0.3102  0.0570
 5470TIP3    H116374   0.076   1.776   1.275  1.3108  0.1689 -0.0039
 5470TIP3    H216375   0.051   1.658   1.366 -1.2465  0.5512 -0.1252
 5471TIP3   OH216376   3.143   5.236   0.244 -0.2252  0.1817  0.2551
 5471TIP3    H116377   3.068   5.274   0.198 -0.4784 -0.0734  0.4544
 5471TIP3    H216378   3.219   5.259   0.190 -0.4448  0.4549  0.0626
 5472TIP3   OH216379   6.347   1.008   4.713 -0.7244 -0.0854 -0.2214
 5472TIP3    H116380   6.255   1.018   4.690 -0.3852  0.3530 -1.4338
 5472TIP3    H216381   6.388   1.091   4.688  0.1045 -0.4797 -0.2173
 5473TIP3   OH216382   7.045   5.312   4.702  0.0423  0.2793  0.0474
 5473TIP3    H116383   6.953   5.285   4.704 -0.3098  1.4431  0.0578
 5473TIP3    H216384   7.091   5.234   4.671 -0.9095 -0.4007  0.2722
 5474TIP3   OH216385   5.044   3.820   4.343  0.5192  0.3157  0.4392
 5474TIP3    H116386   5.107   3.886   4.314  0.6531 -0.2252 -0.5196
 5474TIP3    H216387   5.080   3.787   4.425  0.9039  0.8061  0.4705
 5475TIP3   OH216388   5.887   2.772   0.034 -0.5764 -0.0683  0.3020
 5475TIP3    H116389   5.915   2.748  -0.055 -3.4305 -1.3641 -0.3704
 5475TIP3    H216390   5.891   2.690   0.083  1.5581  0.7562  1.6264
 5476TIP3   OH216391   4.148   3.166   5.109  0.0941  0.4606 -0.5102
 5476TIP3    H116392   4.091   3.138   5.038  0.2229  2.4924 -1.4893
 5476TIP3    H216393   4.228   3.194   5.065  0.3399  1.3502  0.4671
 5477TIP3   OH216394   6.714   2.528   0.781  0.2131 -0.7579 -0.2264
 5477TIP3    H116395   6.789   2.511   0.838  2.0939  1.1249 -2.0006
 5477TIP3    H216396   6.693   2.443   0.742 -0.3197 -1.8261  2.1890
 5478TIP3   OH216397   5.967   3.285   2.558 -0.3403 -0.4570 -0.0012
 5478TIP3    H116398   5.959   3.334   2.640 -0.1375 -2.2160  1.1226
 5478TIP3    H216399   6.039   3.327   2.512 -1.2538  1.3360  0.1264
 5479TIP3   OH216400   7.115   1.470   0.725 -0.2584  0.3287  0.0309
 5479TIP3    H116401   7.110   1.375   0.717  0.9124  0.1669  0.9777
 5479TIP3    H216402   7.034   1.494   0.771 -0.5044 -0.2124 -0.1104
 5480TIP3   OH216403   6.686   2.273   4.688  0.3696  0.2182 -0.4122
 5480TIP3    H116404   6.630   2.272   4.610 -0.4429  0.4822  0.1511
 5480TIP3    H216405   6.701   2.367   4.705  0.0451  0.1863  0.0855
 5481TIP3   OH216406   5.717   4.889   1.939  0.0269 -0.1084  0.2346
 5481TIP3    H116407   5.675   4.806   1.915  1.0078 -0.3719 -0.6258
 5481TIP3    H216408   5.680   4.953   1.879  1.4616 -0.5110 -1.1563
 5482TIP3   OH216409   6.362   1.266   4.624  1.0157  0.2177  0.2465
 5482TIP3    H116410   6.393   1.288   4.536 -0.7691  0.5139 -0.3491
 5482TIP3    H216411   6.284   1.320   4.637  0.1316 -1.2046  1.2294
 5483TIP3   OH216412   0.881   4.000   2.216 -0.0751 -0.2489 -0.2481
 5483TIP3    H116413   0.870   4.024   2.308 -0.4730 -0.5440 -0.2150
 5483TIP3    H216414   0.793   3.973   2.188  0.4504 -2.3549 -0.0804
 5484TIP3   OH216415   6.715   0.596   1.948  0.6308 -0.5409 -0.7362
 5484TIP3    H116416   6.694   0.689   1.941  0.2117 -0.5919 -0.1864
 5484TIP3    H216417   6.708   0.577   2.042 -2.2936 -1.8233 -1.1240
 5485TIP3   OH216418   4.902   5.179   5.762  0.2345  0.2750  0.2367
 5485TIP3    H116419   4.915   5.115   5.832  0.7938 -0.9938 -0.9831
 5485TIP3    H216420   4.905   5.128   5.681  0.0114  1.7552 -0.7542
 5486TIP3   OH216421   7.084   6.448   1.524 -0.4870  0.0710 -0.0235
 5486TIP3    H116422   7.106   6.381   1.459  0.0095 -2.0622  2.1942
 5486TIP3    H216423   7.151   6.515   1.513 -0.7325  0.0648 -2.0166
 5487TIP3   OH216424   5.681   5.244   4.750 -0.4572  0.4027  0.2855
 5487TIP3    H116425   5.724   5.301   4.686  0.6593 -0.2395  0.4282
 5487TIP3    H216426   5.588   5.256   4.734 -0.2190  1.1110 -0.7007
 5488TIP3   OH216427   0.316   2.409   0.294 -0.1309  0.4553 -0.2755
 5488TIP3    H116428   0.222   2.429   0.294 -0.1079  0.5991 -0.9908
 5488TIP3    H216429   0.328   2.349   0.367 -0.5109  1.6481  0.7984
 5489TIP3   OH216430   0.723   1.936   4.466  0.2655  0.4240 -0.1762
 5489TIP3    H116431   0.670   1.980   4.532 -0.4490 -0.4801 -0.1310
 5489TIP3    H216432   0.798   1.995   4.453  1.5037 -0.2843  2.8859
 5490TIP3   OH216433   6.693   2.507   2.938 -0.1561  0.3915  0.6841
 5490TIP3    H116434   6.631   2.480   3.007  0.0679 -0.5880  0.5156
 5490TIP3    H216435   6.778   2.503   2.981  0.0259 -0.6055  0.2622
 5491TIP3   OH216436   2.773   6.368   4.501  0.1537  0.2036  0.3150
 5491TIP3    H116437   2.846   6.419   4.467 -0.0569 -0.8773 -1.9601
 5491TIP3    H216438   2.762   6.398   4.591  2.0239  1.8814  0.0449
 5492TIP3   OH216439   1.444   0.492   2.171 -0.4097 -0.7676  0.2093
 5492TIP3    H116440   1.381   0.564   2.164 -0.1196 -0.5069  0.2515
 5492TIP3    H216441   1.528   0.531   2.145 -0.4831 -1.4257 -1.1163
 5493TIP3   OH216442   7.123   4.869   0.332 -0.4352  0.1545 -0.5767
 5493TIP3    H116443   7.163   4.792   0.291 -0.5687  0.0890 -0.5845
 5493TIP3    H216444   7.196   4.927   0.351 -0.1984 -0.4503  0.4434
 5494TIP3   OH216445   4.077   2.401   1.788 -0.0941 -0.7040 -0.2023
 5494TIP3    H116446   3.986   2.388   1.814 -0.9505 -1.5021 -3.1866
 5494TIP3    H216447   4.107   2.314   1.763  1.3335 -0.3552  0.2267
 5495TIP3   OH216448   3.661   4.230   3.362 -0.2166 -0.2378  0.6361
 5495TIP3    H116449   3.571   4.255   3.383 -1.0357 -0.8083 -1.8433
 5495TIP3    H216450   3.713   4.306   3.387 -1.5709  0.6504  0.8904
 5496TIP3   OH216451   1.912   2.152   5.860 -0.6532  0.2100 -0.6694
 5496TIP3    H116452   2.008   2.145   5.860 -0.6733 -0.2517  0.2364
 5496TIP3    H216453   1.887   2.126   5.948 -1.4863  2.2315 -0.2557
 5497TIP3   OH216454   2.007   3.043   4.775  0.0627 -0.1634  0.4590
 5497TIP3    H116455   2.013   3.111   4.842 -0.5823  0.6992 -0.3199
 5497TIP3    H216456   1.913   3.031   4.760  0.1861  0.0843 -0.6670
 5498TIP3   OH216457   4.108   5.596   2.911 -0.1826  0.7172 -0.3144
 5498TIP3    H116458   4.072   5.585   2.823 -1.5512 -0.1556  0.3230
 5498TIP3    H216459   4.138   5.508   2.936  0.9695  1.1229 -0.2168
 5499TIP3   OH216460   3.352   2.163   5.406  0.4079  0.3339 -0.1767
 5499TIP3    H116461   3.323   2.091   5.462 -1.6171  0.9649 -0.3561
 5499TIP3    H216462   3.316   2.142   5.320  0.5145  1.1436 -0.4246
 5500TIP3   OH216463   3.733   3.280   1.976  0.2745 -0.0427  0.2630
 5500TIP3    H116464   3.648   3.253   1.943 -0.3685  1.1541  0.8637
 5500TIP3    H216465   3.794   3.262   1.903 -0.9276  1.5435 -1.2343
 5501TIP3   OH216466   2.050   5.019   1.655  0.0475 -0.3367 -0.4819
 5501TIP3    H116467   2.011   5.095   1.612 -1.1717 -0.8370 -0.3155
 5501TIP3    H216468   1.976   4.961   1.672  0.5692 -0.4510  1.7093
 5502TIP3   OH216469   4.928   2.011   3.907  0.2820  0.0211 -0.2477
 5502TIP3    H116470   4.878   2.079   3.953  0.0162  1.4009 -2.4158
 5502TIP3    H216471   5.004   2.057   3.872  1.2501 -1.3052  0.0706
 5503TIP3   OH216472   6.965   3.432   5.820 -0.3784 -0.6474 -0.2031
 5503TIP3    H116473   6.981   3.497   5.751  0.5199  0.7146  1.2256
 5503TIP3    H216474   7.052   3.409   5.852 -0.7846 -1.2167  0.5086
 5504TIP3   OH216475   3.277   4.096   4.900  0.0621  0.1848  0.1964
 5504TIP3    H116476   3.282   4.130   4.990 -1.9357 -1.0611  0.8301
 5504TIP3    H216477   3.340   4.023   4.899 -0.1213  0.0140  0.6866
 5505TIP3   OH216478   2.579   3.633   2.519  0.3107 -0.7644 -0.1641
 5505TIP3    H116479   2.630   3.555   2.499  1.4017 -0.6388  1.8739
 5505TIP3    H216480   2.643   3.700   2.541 -0.6532  0.3333 -0.5569
 5506TIP3   OH216481   6.215   2.892   3.973  0.6675  0.0859  0.3373
 5506TIP3    H116482   6.201   2.982   3.941  0.8311  0.6469  1.7713
 5506TIP3    H216483   6.209   2.900   4.068  1.5024 -1.2919  0.5204
 5507TIP3   OH216484   1.121   4.177   1.991  0.2236  0.1636  0.3111
 5507TIP3    H116485   1.193   4.239   1.978 -1.6613  2.1192 -1.6218
 5507TIP3    H216486   1.133   4.110   1.924  0.9207 -0.2675  0.8483
 5508TIP3   OH216487   0.921   2.256   0.442 -0.3782 -0.1862 -0.2424
 5508TIP3    H116488   0.997   2.214   0.399 -1.4266 -1.1329 -1.2524
 5508TIP3    H216489   0.855   2.262   0.373 -0.7986  1.8333  0.2728
 5509TIP3   OH216490   2.437   3.399   2.481 -0.3859  0.0527  0.0429
 5509TIP3    H116491   2.441   3.494   2.486  0.2663 -0.0035  0.8952
 5509TIP3    H216492   2.344   3.377   2.489 -0.8742  0.7119 -2.7512
 5510TIP3   OH216493   1.941   0.321   1.694 -0.5952  0.2917 -0.0957
 5510TIP3    H116494   1.925   0.383   1.765  2.2353  1.4921 -0.3934
 5510TIP3    H216495   1.966   0.240   1.738 -1.0546  0.3351  0.2555
 5511TIP3   OH216496   3.140   1.441   3.251 -0.2083 -0.0720  0.8193
 5511TIP3    H116497   3.225   1.416   3.287 -0.0846  0.8753  1.2152
 5511TIP3    H216498   3.138   1.536   3.258 -0.3054  0.1626 -1.4089
 5512TIP3   OH216499   4.302   1.721   0.435 -0.9954 -0.5291 -0.0626
 5512TIP3    H116500   4.365   1.656   0.405 -0.4668 -0.1887  0.2973
 5512TIP3    H216501   4.274   1.766   0.355  0.5394  0.4939 -0.0749
 5513TIP3   OH216502   0.152   3.592   0.839 -0.2107 -0.0207 -0.4710
 5513TIP3    H116503   0.117   3.677   0.814  0.2502  0.7231  1.2341
 5513TIP3    H216504   0.076   3.535   0.848 -0.5619  0.3331 -1.2031
 5514TIP3   OH216505   7.002   6.141   4.143  0.2696  0.1965  0.0813
 5514TIP3    H116506   7.084   6.100   4.169  0.8131  1.6520  0.7772
 5514TIP3    H216507   6.982   6.104   4.057  1.0180 -1.0558  0.4298
 5515TIP3   OH216508   4.783   4.619   5.242 -0.4070 -0.1359  0.0733
 5515TIP3    H116509   4.726   4.684   5.282 -0.8623 -1.0488  0.9671
 5515TIP3    H216510   4.723   4.554   5.206  0.0497 -0.8404  0.5551
 5516TIP3   OH216511   5.247   5.023   2.506  0.4306  0.0035 -0.0334
 5516TIP3    H116512   5.254   4.941   2.555  0.2190  0.4065  0.6930
 5516TIP3    H216513   5.160   5.022   2.468 -0.0975  0.4964  1.1174
 5517TIP3   OH216514   6.106   4.640   5.167  0.2240 -0.5390 -0.1773
 5517TIP3    H116515   6.173   4.686   5.217  1.7965 -1.7238 -1.0990
 5517TIP3    H216516   6.102   4.553   5.206  1.1677 -1.3413 -1.7669
 5518TIP3   OH216517   2.219   0.716   1.394  0.4055  0.2053 -0.1573
 5518TIP3    H116518   2.155   0.770   1.440  2.5843  2.2829  0.6455
 5518TIP3    H216519   2.195   0.626   1.417 -2.4509  0.8242 -0.2918
 5519TIP3   OH216520   2.623   2.194   1.156 -0.1009  0.1027 -0.1897
 5519TIP3    H116521   2.694   2.137   1.187 -0.5929  0.1912  1.1798
 5519TIP3    H216522   2.666   2.278   1.138  0.0064  0.4903  1.6752
 5520TIP3   OH216523   4.822   3.658   2.359 -0.8466 -0.0950 -0.1981
 5520TIP3    H116524   4.815   3.659   2.455  0.3423  0.5039 -0.1023
 5520TIP3    H216525   4.888   3.592   2.340 -0.8303  0.0340 -0.5952
 5521TIP3   OH216526   1.828   2.475   2.388  0.0425 -0.5283  0.0372
 5521TIP3    H116527   1.830   2.409   2.457 -2.9818 -2.1888 -1.2756
 5521TIP3    H216528   1.793   2.553   2.430  0.5225 -0.7392  0.8639
 5522TIP3   OH216529   5.947   6.188   1.181 -0.0682 -0.3484  0.4976
 5522TIP3    H116530   5.877   6.219   1.238  0.0906 -0.0818  0.5498
 5522TIP3    H216531   6.012   6.258   1.183 -1.3970  1.1542 -2.4174
 5523TIP3   OH216532   4.965   1.024   0.881 -0.1176  0.1011 -0.5062
 5523TIP3    H116533   5.045   1.014   0.829 -1.0046  0.0958 -1.9273
 5523TIP3    H216534   4.962   1.118   0.901  1.0640 -0.1493  0.9567
 5524TIP3   OH216535   4.758   2.038   3.589 -0.1571  0.4298 -0.0632
 5524TIP3    H116536   4.820   1.968   3.606 -0.1625  0.6280  0.7870
 5524TIP3    H216537   4.698   2.002   3.523  0.7699  0.1974 -0.7913
 5525TIP3   OH216538   1.948   6.404   1.934  0.0056 -0.4432 -0.0357
 5525TIP3    H116539   2.003   6.475   1.899 -0.9614 -0.3998 -1.5630
 5525TIP3    H216540   2.011   6.342   1.970  0.8970  1.0291  1.0872
 5526TIP3   OH216541   3.857   4.874   4.330 -0.4604  0.1612  0.4589
 5526TIP3    H116542   3.781   4.927   4.308 -0.5586 -0.8491 -1.9526
 5526TIP3    H216543   3.860   4.807   4.262  0.8552 -1.6774  2.1887
 5527TIP3   OH216544   4.251   3.700   2.140  0.2459 -0.7263 -0.2195
 5527TIP3    H116545   4.332   3.648   2.136  1.0445  0.3841  0.8733
 5527TIP3    H216546   4.184   3.642   2.103  0.9298 -2.8642  1.6631
 5528TIP3   OH216547   4.640   2.724   3.530  0.2811 -0.6145 -0.0190
 5528TIP3    H116548   4.622   2.656   3.594 -2.6324  0.8411  0.8943
 5528TIP3    H216549   4.644   2.678   3.446  0.7816 -2.1439  0.8126
 5529TIP3   OH216550   0.905   1.324   2.484  0.2806  0.0904 -0.4982
 5529TIP3    H116551   0.935   1.369   2.405  0.8496  0.9444  0.1844
 5529TIP3    H216552   0.967   1.351   2.552  0.8628 -1.9942 -0.1016
 5530TIP3   OH216553   4.293   2.722   3.630 -0.2241  0.2400 -0.2604
 5530TIP3    H116554   4.200   2.744   3.636 -0.1644  0.2964  0.6951
 5530TIP3    H216555   4.335   2.782   3.692  0.6132  1.0561 -1.5832
 5531TIP3   OH216556   7.163   1.666   4.931  0.3933  0.9068  0.8163
 5531TIP3    H116557   7.115   1.610   4.992 -0.9938  1.4534  0.2743
 5531TIP3    H216558   7.143   1.755   4.960 -0.6071  1.1879 -0.6042
 5532TIP3   OH216559   6.807   5.919   5.452  0.9575 -0.1240 -0.3558
 5532TIP3    H116560   6.763   5.986   5.400  1.3204 -0.7152 -1.4720
 5532TIP3    H216561   6.884   5.963   5.488  1.9196 -0.2211 -2.1596
 5533TIP3   OH216562   1.780   5.550   5.010  0.4614  0.1670 -0.5357
 5533TIP3    H116563   1.833   5.568   4.932  1.3565  1.4975  0.3546
 5533TIP3    H216564   1.781   5.631   5.060  0.1525 -0.7424  1.0278
 5534TIP3   OH216565   5.361   5.588   4.621 -0.3018  0.1644 -1.0110
 5534TIP3    H116566   5.438   5.544   4.655 -1.1920 -1.5539 -1.1082
 5534TIP3    H216567   5.359   5.565   4.528 -1.0707 -0.0624 -0.9502
 5535TIP3   OH216568   1.848   5.602   5.840 -0.2756 -0.3667 -0.4994
 5535TIP3    H116569   1.789   5.647   5.779  0.5750 -0.9457 -1.7965
 5535TIP3    H216570   1.811   5.514   5.849 -0.9219  0.0044  0.5865
 5536TIP3   OH216571   0.347   5.605   0.905 -0.4404 -0.2075  0.4995
 5536TIP3    H116572   0.362   5.698   0.891 -1.4829  0.1784  1.7670
 5536TIP3    H216573   0.422   5.562   0.862 -0.0210  1.1794 -0.2224
 5537TIP3   OH216574   6.419   4.272   2.571  0.9346 -0.5081 -0.1549
 5537TIP3    H116575   6.428   4.179   2.592  1.0859  0.0333  2.4720
 5537TIP3    H216576   6.509   4.302   2.557  0.9959 -0.5021  0.2421
 5538TIP3   OH216577   4.449   2.846   0.867 -0.2048 -0.0295 -0.0025
 5538TIP3    H116578   4.518   2.793   0.906 -1.2146 -0.9747  0.5614
 5538TIP3    H216579   4.397   2.784   0.816 -2.7277 -0.1275  2.4511
 5539TIP3   OH216580   4.473   1.732   5.289 -0.2114  0.3567  0.5993
 5539TIP3    H116581   4.444   1.657   5.342  0.4379  0.1922  0.7262
 5539TIP3    H216582   4.429   1.719   5.205  0.5592 -0.6454  0.3277
 5540TIP3   OH216583   6.467   3.169   4.525  0.1590  0.3262 -0.2634
 5540TIP3    H116584   6.550   3.140   4.487 -0.1209  0.0054 -0.6321
 5540TIP3    H216585   6.490   3.196   4.614  0.5215 -0.5141 -0.0967
 5541TIP3   OH216586   1.251   5.012   1.912  0.0742  0.2640 -0.3082
 5541TIP3    H116587   1.228   4.920   1.898  1.0820 -0.3535  1.6235
 5541TIP3    H216588   1.238   5.025   2.006  0.6960  1.8756 -0.4166
 5542TIP3   OH216589   5.720   3.324   0.131  0.1732 -0.0906 -0.4960
 5542TIP3    H116590   5.795   3.353   0.183  0.2152  0.3818 -0.8179
 5542TIP3    H216591   5.648   3.379   0.160  0.3001  0.4958 -1.2574
 5543TIP3   OH216592   0.039   6.327   2.611 -0.2171 -0.0617 -0.5150
 5543TIP3    H116593  -0.031   6.264   2.600  0.6157 -1.4468  1.5138
 5543TIP3    H216594   0.101   6.307   2.541 -0.3509 -0.9486 -0.3830
 5544TIP3   OH216595   1.105   2.525   3.314 -0.5328  0.4470  0.5107
 5544TIP3    H116596   1.030   2.584   3.318 -2.0468 -1.3572  0.5083
 5544TIP3    H216597   1.181   2.582   3.305 -1.8436  2.3749  1.1343
 5545TIP3   OH216598   4.902   0.986   5.568  0.2361 -0.0338  0.0344
 5545TIP3    H116599   4.997   0.996   5.570  0.3144 -0.8650  2.0153
 5545TIP3    H216600   4.887   0.892   5.577 -0.7904  0.1987  0.9386
 5546TIP3   OH216601   6.429   3.599   3.895 -0.0519 -0.1314  0.3066
 5546TIP3    H116602   6.389   3.593   3.808  1.7971  1.7007 -0.7752
 5546TIP3    H216603   6.468   3.513   3.910 -0.8174 -0.6228 -0.4518
 5547TIP3   OH216604   3.009   2.059   4.983 -0.2540  0.4235  0.2832
 5547TIP3    H116605   3.012   1.973   4.940  0.5747  0.6705 -0.1719
 5547TIP3    H216606   2.927   2.098   4.953 -0.3475  0.0294  0.0150
 5548TIP3   OH216607   4.056   1.807   1.565 -0.3874 -0.3465 -0.1690
 5548TIP3    H116608   4.002   1.883   1.584 -0.2065 -0.6230  1.7665
 5548TIP3    H216609   3.993   1.736   1.549 -0.9237 -1.2749  4.4967
 5549TIP3   OH216610   2.948   5.640   2.181 -0.5536  0.4476 -0.5387
 5549TIP3    H116611   2.944   5.544   2.182 -0.0144  0.4239 -0.2173
 5549TIP3    H216612   2.966   5.663   2.272 -1.1755  0.8811 -0.5202
 5550TIP3   OH216613   2.469   0.553   1.590 -0.4346 -0.2476  0.5044
 5550TIP3    H116614   2.554   0.565   1.632  1.0301 -0.6557 -2.0868
 5550TIP3    H216615   2.423   0.636   1.604  1.7357  1.2795 -0.7733
 5551TIP3   OH216616   4.933   4.795   0.095 -0.9510 -0.0430  0.1784
 5551TIP3    H116617   5.010   4.805   0.038 -0.3475  0.8129  1.1150
 5551TIP3    H216618   4.880   4.872   0.077 -0.3252  0.6970  1.3970
 5552TIP3   OH216619   2.061   3.418   3.574 -0.0427 -0.4247  0.5965
 5552TIP3    H116620   2.124   3.484   3.544 -1.3316  0.4471 -0.3152
 5552TIP3    H216621   2.011   3.462   3.643 -0.6582 -0.5659  0.2481
 5553TIP3   OH216622   4.518   1.322   4.670  0.2713 -0.3857  0.1231
 5553TIP3    H116623   4.577   1.247   4.668 -0.7821 -1.2367 -0.3685
 5553TIP3    H216624   4.567   1.391   4.714  1.2556 -1.3720  0.6069
 5554TIP3   OH216625   1.555   2.470   1.415 -0.1887  0.7231 -0.0520
 5554TIP3    H116626   1.561   2.542   1.477 -1.3193 -0.9696  2.1894
 5554TIP3    H216627   1.600   2.397   1.457 -1.2417 -0.5870 -1.0643
 5555TIP3   OH216628   6.243   0.768   5.394 -0.1098 -0.6233 -0.0987
 5555TIP3    H116629   6.151   0.778   5.417  0.0307  0.4530  0.0885
 5555TIP3    H216630   6.245   0.778   5.299 -0.1591 -0.3296 -0.0713
 5556TIP3   OH216631   2.104   1.223   1.859  0.5073 -0.5879  0.0883
 5556TIP3    H116632   2.063   1.223   1.945  0.1613 -1.4618 -0.0598
 5556TIP3    H216633   2.182   1.278   1.869  0.8982 -1.3060  1.1714
 5557TIP3   OH216634   2.615   5.305   2.113 -0.2781 -0.0507 -0.3453
 5557TIP3    H116635   2.696   5.291   2.064 -0.6123 -0.8382 -0.6862
 5557TIP3    H216636   2.549   5.253   2.066 -0.4486 -1.4557  1.3623
 5558TIP3   OH216637   1.982   4.861   0.281 -0.0234 -0.0413 -0.2976
 5558TIP3    H116638   1.887   4.849   0.274  0.1147 -0.6358 -1.2538
 5558TIP3    H216639   2.014   4.779   0.318  0.0064  0.5909  1.1389
 5559TIP3   OH216640   6.658   2.684   0.559  0.1636 -0.8325 -0.5206
 5559TIP3    H116641   6.586   2.623   0.574  1.3785 -2.2397 -0.1789
 5559TIP3    H216642   6.719   2.669   0.631  0.7800  0.3783 -0.7518
 5560TIP3   OH216643   0.263   5.892   0.880  0.2173 -0.5231 -0.8089
 5560TIP3    H116644   0.169   5.902   0.861  0.7405  4.5885 -2.0542
 5560TIP3    H216645   0.306   5.902   0.795  1.9639  1.4040  0.2235
 5561TIP3   OH216646   4.110   2.114   1.726 -0.4591 -0.1779  0.7357
 5561TIP3    H116647   4.089   2.105   1.819  1.3788 -2.2108  1.0333
 5561TIP3    H216648   4.203   2.136   1.723 -0.6432  0.5672 -0.6316
 5562TIP3   OH216649   1.219   6.577   0.797 -0.2965 -0.2414  0.7060
 5562TIP3    H116650   1.304   6.606   0.766 -0.7365  1.4455  1.0010
 5562TIP3    H216651   1.230   6.483   0.813  1.2448 -0.2124 -0.0717
 5563TIP3   OH216652   7.221   6.330   0.693 -0.2726 -0.2409 -0.4337
 5563TIP3    H116653   7.188   6.338   0.603  0.8870 -0.2120 -0.8799
 5563TIP3    H216654   7.204   6.239   0.716 -0.6025 -0.2429 -0.6688
 5564TIP3   OH216655   2.476   2.025   3.111 -0.2844  0.2316 -0.0529
 5564TIP3    H116656   2.562   1.998   3.143  0.0886  1.5962  0.1938
 5564TIP3    H216657   2.494   2.103   3.058 -1.1903 -0.4597 -1.4578
 5565TIP3   OH216658   2.766   3.666   0.644  0.3461 -0.2730 -0.0106
 5565TIP3    H116659   2.715   3.666   0.563 -1.3106 -1.2853  0.9655
 5565TIP3    H216660   2.796   3.576   0.653  0.6063 -0.1415  0.4470
 5566TIP3   OH216661   3.015   3.001   4.622  0.0576  0.2236  0.2576
 5566TIP3    H116662   3.082   2.995   4.690 -0.3153  2.5070  0.9111
 5566TIP3    H216663   2.935   3.023   4.669 -0.7943 -0.7591 -0.6874
 5567TIP3   OH216664   6.263   5.093   2.727  0.7410 -0.3250  0.0185
 5567TIP3    H116665   6.198   5.035   2.685  0.7771 -1.8983  1.9892
 5567TIP3    H216666   6.343   5.080   2.676  0.2532 -0.5124 -0.7284
 5568TIP3   OH216667   6.357   3.828   4.399 -0.5607  0.6784  0.3972
 5568TIP3    H116668   6.322   3.808   4.486  1.0426  0.4391  1.0059
 5568TIP3    H216669   6.378   3.921   4.402 -3.3929  1.4694 -0.8140
 5569TIP3   OH216670   7.208   6.705   0.387  0.1758  0.3343 -0.0184
 5569TIP3    H116671   7.149   6.736   0.318 -1.6907 -0.2003  1.2736
 5569TIP3    H216672   7.206   6.773   0.454  0.5948  0.0497  0.2932
 5570TIP3   OH216673   3.355   4.729   0.366 -0.0053 -0.1507  0.4632
 5570TIP3    H116674   3.261   4.711   0.374  0.2136 -1.0121  1.2128
 5570TIP3    H216675   3.380   4.685   0.284 -0.3306  0.4592  0.0238
 5571TIP3   OH216676   2.632   3.828   0.855  0.0046 -0.1574  0.5157
 5571TIP3    H116677   2.632   3.761   0.924 -2.6081 -1.3258 -0.4584
 5571TIP3    H216678   2.642   3.778   0.774 -0.3217  0.8207 -0.1462
 5572TIP3   OH216679   4.432   1.853   1.723 -0.0471 -0.1474 -0.4024
 5572TIP3    H116680   4.516   1.850   1.769  0.4773  0.8971 -1.2527
 5572TIP3    H216681   4.438   1.930   1.667 -1.7278  0.1557 -0.2089
 5573TIP3   OH216682   5.614   1.872   0.291 -0.2530  0.0991 -0.6420
 5573TIP3    H116683   5.677   1.818   0.339 -0.8517 -0.3448 -0.3466
 5573TIP3    H216684   5.636   1.858   0.199  1.0872  1.1757 -0.5197
 5574TIP3   OH216685   0.353   6.420   3.652  0.3051 -0.2125 -0.2498
 5574TIP3    H116686   0.306   6.489   3.699  1.4701  0.1256  0.4613
 5574TIP3    H216687   0.318   6.424   3.563 -3.2645 -2.0349  0.8702
 5575TIP3   OH216688   6.957   3.735   4.685 -0.1287  0.0665  0.8269
 5575TIP3    H116689   7.027   3.791   4.651 -0.6004  0.2539  0.1398
 5575TIP3    H216690   6.961   3.657   4.629 -0.0571 -0.2025  1.2020
 5576TIP3   OH216691   6.982   6.663   4.771  0.0624 -0.3431 -0.0581
 5576TIP3    H116692   6.914   6.674   4.705  0.3975  0.3530 -0.2893
 5576TIP3    H216693   6.936   6.624   4.846 -0.8002  0.9435  0.1255
 5577TIP3   OH216694   0.109   4.850   2.015  0.1588  0.1248 -0.2074
 5577TIP3    H116695   0.134   4.886   1.929 -1.1065  2.2298  0.2248
 5577TIP3    H216696   0.016   4.832   2.006  0.0582  0.1971  0.6767
 5578TIP3   OH216697   0.948   5.291   3.797 -0.0708  0.0896  0.3818
 5578TIP3    H116698   0.856   5.311   3.810  0.1852  0.0844  2.5548
 5578TIP3    H216699   0.955   5.197   3.812  0.0913 -0.1986 -1.2779
 5579TIP3   OH216700   4.633   4.120   4.918  0.6764 -0.4420  0.3325
 5579TIP3    H116701   4.547   4.122   4.959  0.8760  0.2502  0.7452
 5579TIP3    H216702   4.660   4.029   4.922 -0.5499 -0.9065 -0.9214
 5580TIP3   OH216703   7.213   6.787   0.821  0.0757 -0.3731  0.1544
 5580TIP3    H116704   7.147   6.721   0.841 -0.6573  0.7188  1.4864
 5580TIP3    H216705   7.180   6.831   0.742  1.2458 -2.4085 -1.5837
 5581TIP3   OH216706   5.530   3.927   2.272 -0.0848 -0.1416 -0.4119
 5581TIP3    H116707   5.574   3.971   2.199  1.5097  0.1843  0.6920
 5581TIP3    H216708   5.593   3.862   2.302 -1.5789 -1.7658 -0.6657
 5582TIP3   OH216709   4.296   0.922   1.691  0.5203  0.4124  0.6101
 5582TIP3    H116710   4.303   0.841   1.742 -1.8994 -0.1320  0.1999
 5582TIP3    H216711   4.202   0.939   1.686  0.9557  3.6309  1.2065
 5583TIP3   OH216712   3.361   1.724   3.965 -0.3040 -0.3213  0.4634
 5583TIP3    H116713   3.272   1.706   3.994 -0.3920  1.4151  1.4177
 5583TIP3    H216714   3.376   1.816   3.987  2.0488 -0.7892  1.1467
 5584TIP3   OH216715   1.829   3.744   0.923  0.1285  0.2351 -0.4437
 5584TIP3    H116716   1.901   3.806   0.938 -1.9313  2.4395  1.3461
 5584TIP3    H216717   1.816   3.702   1.008  0.8794 -2.0716 -1.4067
 5585TIP3   OH216718   5.911   4.193   5.412  0.0966  0.9562  0.2704
 5585TIP3    H116719   5.941   4.197   5.503  2.2687 -0.4184 -0.2982
 5585TIP3    H216720   5.848   4.121   5.410  1.0290  0.1069  0.4901
 5586TIP3   OH216721   0.786   0.615   1.446 -0.1488 -0.0075 -0.3956
 5586TIP3    H116722   0.758   0.548   1.509 -0.9440 -0.0585 -0.7937
 5586TIP3    H216723   0.804   0.566   1.366 -0.1713  0.1831 -0.5170
 5587TIP3   OH216724   5.730   0.307   4.420 -0.1150  0.5354  0.0189
 5587TIP3    H116725   5.790   0.241   4.455 -0.5594  0.9371  1.6178
 5587TIP3    H216726   5.653   0.256   4.394 -0.4892  0.3869  1.3168
 5588TIP3   OH216727   1.424   0.007   4.359 -0.0871 -0.1874 -0.1259
 5588TIP3    H116728   1.376  -0.050   4.299 -1.1226 -0.4758  0.9230
 5588TIP3    H216729   1.439   0.088   4.310 -1.0235 -0.3614 -0.7209
 5589TIP3   OH216730   2.062   0.714   4.908 -0.1931 -0.2347  0.2282
 5589TIP3    H116731   2.110   0.697   4.826  0.3738  0.8153  0.3182
 5589TIP3    H216732   2.101   0.653   4.971  1.7764  1.2400  0.5466
 5590TIP3   OH216733   2.104   0.149   4.438 -0.4842  0.3656  0.1834
 5590TIP3    H116734   2.082   0.184   4.352 -1.9132  0.9212  0.7386
 5590TIP3    H216735   2.084   0.056   4.432 -2.8665  0.7750  0.5383
 5591TIP3   OH216736   1.506   4.022   4.764  0.4358 -0.0259  0.0208
 5591TIP3    H116737   1.431   4.012   4.706 -1.1997  2.3124  1.5417
 5591TIP3    H216738   1.513   3.938   4.810 -0.0642 -0.8821 -1.4358
 5592TIP3   OH216739   6.563   1.034   3.849  0.4342  0.0492 -0.5046
 5592TIP3    H116740   6.486   1.070   3.892  2.0756  1.5915  1.3364
 5592TIP3    H216741   6.614   1.110   3.823  1.4020 -0.9268 -1.6157
 5593TIP3   OH216742   7.088   1.385   1.033 -0.1081  0.4084 -0.7782
 5593TIP3    H116743   7.130   1.308   0.995  1.6619  1.4128 -0.9841
 5593TIP3    H216744   6.994   1.366   1.029  0.1453 -0.7375 -3.0445
 5594TIP3   OH216745   1.015   0.861   4.395  0.3273  0.1638 -0.6105
 5594TIP3    H116746   1.096   0.911   4.389  1.2033 -1.1745 -0.3399
 5594TIP3    H216747   0.967   0.902   4.467  1.1712  0.4427 -0.1894
 5595TIP3   OH216748   3.106   0.178   0.997  0.7377 -0.4161  0.0866
 5595TIP3    H116749   3.186   0.129   1.013  0.0176 -2.3241 -1.6970
 5595TIP3    H216750   3.036   0.114   1.006 -0.4145  0.6923 -0.6072
 5596TIP3   OH216751   4.636   1.694   1.504  0.2459  0.6360  0.1143
 5596TIP3    H116752   4.555   1.742   1.517  0.5697  1.0629  0.6039
 5596TIP3    H216753   4.688   1.712   1.582  0.8614  0.4690 -0.2439
 5597TIP3   OH216754   1.555   2.287   0.310  0.3839  0.0808  0.0921
 5597TIP3    H116755   1.582   2.243   0.390 -0.7126 -0.3715  0.2324
 5597TIP3    H216756   1.464   2.258   0.296  0.0005  1.4474 -0.4060
 5598TIP3   OH216757   6.890   3.371   1.805 -0.2568  0.2221 -0.0132
 5598TIP3    H116758   6.859   3.412   1.724  1.3360  2.5672  0.4539
 5598TIP3    H216759   6.813   3.329   1.842 -1.3618  0.3889 -1.9681
 5599TIP3   OH216760   4.325   4.896   1.483 -0.4068  0.4468  0.1531
 5599TIP3    H116761   4.283   4.840   1.417  0.0413  0.7017 -0.3601
 5599TIP3    H216762   4.361   4.969   1.432  0.2633  0.4588  0.6314
 5600TIP3   OH216763   6.711   3.921   3.402  0.0785  0.3679 -0.0880
 5600TIP3    H116764   6.667   4.002   3.378 -1.0541 -0.2042 -0.0173
 5600TIP3    H216765   6.711   3.869   3.322 -1.6299 -0.6154  0.4873
 5601TIP3   OH216766   5.558   4.048   4.448  0.3801  0.0993 -0.3309
 5601TIP3    H116767   5.611   4.112   4.496  0.1220 -1.3092  1.9806
 5601TIP3    H216768   5.542   4.089   4.363  0.5782  2.8989  0.8843
 5602TIP3   OH216769   4.899   5.023   2.761 -0.2955  0.3192  0.6651
 5602TIP3    H116770   4.994   5.029   2.754 -0.3810  1.5136  0.3030
 5602TIP3    H216771   4.884   4.954   2.826  0.8090  0.1246  0.7311
 5603TIP3   OH216772   2.752   4.010   0.308 -0.8781  0.0654 -0.5170
 5603TIP3    H116773   2.829   3.961   0.280  0.4651  1.7515  0.0835
 5603TIP3    H216774   2.741   3.986   0.400 -0.2313  0.8476 -0.2279
 5604TIP3   OH216775   2.652   0.262   1.372 -0.6255 -0.4323  0.1115
 5604TIP3    H116776   2.589   0.332   1.359  0.4610  0.6113  0.2714
 5604TIP3    H216777   2.715   0.273   1.300  1.1589  0.6024  1.7294
 5605TIP3   OH216778   1.379   3.505   4.913 -0.5876 -0.0060  0.4811
 5605TIP3    H116779   1.452   3.453   4.877 -1.5578 -0.4030 -0.9901
 5605TIP3    H216780   1.352   3.561   4.841 -1.3556  0.5687  1.2030
 5606TIP3   OH216781   4.088   1.625   5.377  0.7992  0.1761  0.4884
 5606TIP3    H116782   4.153   1.605   5.444  0.1220 -1.3662  0.7276
 5606TIP3    H216783   4.113   1.573   5.302  0.2613  0.1467  0.3232
 5607TIP3   OH216784   0.175   6.749   3.125  0.4941 -0.4050 -0.0292
 5607TIP3    H116785   0.224   6.763   3.044  1.7187  0.3894  0.8035
 5607TIP3    H216786   0.184   6.832   3.173 -2.6735  0.2161 -0.3067
 5608TIP3   OH216787   6.950   4.940   5.361  0.3219  0.2221 -0.6422
 5608TIP3    H116788   7.036   4.964   5.395 -0.2094  0.8995  0.2926
 5608TIP3    H216789   6.958   4.947   5.266  1.6012 -0.8141 -0.6293
 5609TIP3   OH216790   5.897   5.645   3.208  0.0566  0.1925  0.2328
 5609TIP3    H116791   5.808   5.664   3.237 -0.1110  2.4118 -1.4980
 5609TIP3    H216792   5.894   5.655   3.113  1.5894 -2.3337 -0.1726
 5610TIP3   OH216793   2.262   2.692   4.052 -0.2523 -0.3037 -0.1252
 5610TIP3    H116794   2.241   2.623   4.115  1.6678 -0.8364 -0.0048
 5610TIP3    H216795   2.348   2.724   4.080 -0.9683  1.9749 -0.3498
 5611TIP3   OH216796   1.184   3.257   1.288 -0.4528 -0.3393 -0.2243
 5611TIP3    H116797   1.210   3.166   1.301 -1.3739 -0.5928 -0.0337
 5611TIP3    H216798   1.207   3.277   1.197  3.1912  0.4514  0.7048
 5612TIP3   OH216799   4.055   6.199   2.832  0.1862 -0.2893  0.4502
 5612TIP3    H116800   4.093   6.134   2.891 -0.6048 -0.0874  1.2147
 5612TIP3    H216801   3.961   6.178   2.831  0.4450 -1.8778 -2.7394
 5613TIP3   OH216802   4.901   1.197   1.974  0.2200  0.3497  0.0001
 5613TIP3    H116803   4.903   1.182   1.880  0.1796  2.2556 -0.3480
 5613TIP3    H216804   4.878   1.112   2.012  1.4759 -0.7451 -1.6021
 5614TIP3   OH216805   1.337   3.997   2.098 -0.2266  0.1116  0.3407
 5614TIP3    H116806   1.325   4.092   2.100  0.8710  0.2683  0.0069
 5614TIP3    H216807   1.248   3.962   2.101 -0.6265  1.1335  1.0081
 5615TIP3   OH216808   4.489   1.905   3.195 -0.6594 -1.4473 -0.5332
 5615TIP3    H116809   4.429   1.979   3.180  0.6525 -0.4297 -0.9072
 5615TIP3    H216810   4.557   1.916   3.129 -0.0871 -2.6211 -0.1540
 5616TIP3   OH216811   6.854   1.430   2.617  0.4000 -0.3315 -0.4770
 5616TIP3    H116812   6.891   1.467   2.537 -0.2450  0.3499 -0.4685
 5616TIP3    H216813   6.928   1.387   2.660  0.6872 -0.9953 -1.5970
 5617TIP3   OH216814   2.129   1.333   0.495  0.4137  0.2770  0.7284
 5617TIP3    H116815   2.185   1.394   0.447  1.0743 -0.0418  1.0686
 5617TIP3    H216816   2.122   1.370   0.583 -2.6014  2.0304 -0.1130
 5618TIP3   OH216817   2.497   5.172   1.908 -0.0060  0.3675 -0.1575
 5618TIP3    H116818   2.577   5.215   1.878  0.5972 -0.9841 -0.5666
 5618TIP3    H216819   2.434   5.185   1.837  0.8417 -1.2170 -1.2518
 5619TIP3   OH216820   6.780   2.824   2.446  0.2311 -0.1877 -0.1772
 5619TIP3    H116821   6.821   2.739   2.464  2.1510  1.0163  1.6016
 5619TIP3    H216822   6.851   2.879   2.413 -0.2327  1.5556  1.5590
 5620TIP3   OH216823   2.396   2.551   2.852 -0.3970 -0.1968 -0.4751
 5620TIP3    H116824   2.486   2.546   2.819 -0.4931  0.4029 -0.8471
 5620TIP3    H216825   2.397   2.499   2.932  1.0839  2.3509  1.2817
 5621TIP3   OH216826   3.038   1.737   5.881  0.1490  0.0192 -0.0260
 5621TIP3    H116827   2.957   1.749   5.932 -0.3178  0.7645 -0.9153
 5621TIP3    H216828   3.032   1.648   5.847  1.3632 -1.2296  2.7139
 5622TIP3   OH216829   6.193   6.248   4.680  0.0921 -0.3966 -0.4258
 5622TIP3    H116830   6.211   6.243   4.774 -2.3179 -1.9595  0.0278
 5622TIP3    H216831   6.233   6.331   4.653  0.8888  0.0736  1.9381
 5623TIP3   OH216832   5.788   3.557   3.325 -0.1260  0.0052 -0.0196
 5623TIP3    H116833   5.736   3.482   3.354 -1.4571 -0.2065 -2.6629
 5623TIP3    H216834   5.735   3.633   3.348 -0.0137 -0.0120  0.2994
 5624TIP3   OH216835   3.921   2.919   4.449 -0.4842  0.5281  0.4117
 5624TIP3    H116836   3.892   3.005   4.482  0.2121  0.6404  0.7396
 5624TIP3    H216837   4.016   2.927   4.442 -0.5923  0.6125 -1.9146
 5625TIP3   OH216838   3.350   0.602   2.873  0.5303 -0.3662  0.0166
 5625TIP3    H116839   3.355   0.693   2.903 -1.2497 -0.2792  0.1709
 5625TIP3    H216840   3.413   0.555   2.927  1.5710  0.7738 -0.1495
 5626TIP3   OH216841   3.998   3.354   0.256 -0.1635  0.2237  0.5383
 5626TIP3    H116842   3.959   3.440   0.239 -1.2417 -0.5680 -1.3348
 5626TIP3    H216843   4.046   3.365   0.338 -1.7658  2.1113  1.3008
 5627TIP3   OH216844   3.372   2.265   3.567 -0.0626 -0.2969  0.0426
 5627TIP3    H116845   3.303   2.215   3.613  2.0199 -2.1728  1.3666
 5627TIP3    H216846   3.448   2.208   3.571  1.7485  1.9333 -0.8596
 5628TIP3   OH216847   5.233   4.226   0.855  0.0105  0.4246 -0.5131
 5628TIP3    H116848   5.207   4.284   0.784  0.0238  1.0205 -0.0381
 5628TIP3    H216849   5.161   4.231   0.918 -0.4939 -0.9063 -0.9386
 5629TIP3   OH216850   2.167   2.205   5.078  0.1196  0.4034 -0.1887
 5629TIP3    H116851   2.174   2.278   5.140  0.3009 -0.4217  0.7699
 5629TIP3    H216852   2.165   2.127   5.132  0.0315 -0.3272 -1.2190
 5630TIP3   OH216853   4.067   2.747   1.836  0.2416 -0.5317  0.2361
 5630TIP3    H116854   3.996   2.782   1.889  0.2465 -0.1720  0.0073
 5630TIP3    H216855   4.026   2.680   1.782  0.3487 -1.3420  1.1245
 5631TIP3   OH216856   6.589   2.926   3.633 -0.5332  0.7059  0.3711
 5631TIP3    H116857   6.497   2.953   3.635 -0.4147  1.1290  0.2377
 5631TIP3    H216858   6.590   2.847   3.578 -0.8298  0.6327  0.4692
 5632TIP3   OH216859   4.136   1.482   4.558 -0.6296 -0.3718  0.3713
 5632TIP3    H116860   4.049   1.476   4.600 -0.7719 -1.4544 -0.0361
 5632TIP3    H216861   4.197   1.462   4.629 -0.7763 -0.5181  0.4611
 5633TIP3   OH216862   4.514   3.210   4.815  0.4850  0.4289 -0.8196
 5633TIP3    H116863   4.596   3.260   4.821  1.5539 -1.3308  0.2321
 5633TIP3    H216864   4.529   3.148   4.743  0.5959 -0.7214  0.1599
 5634TIP3   OH216865   2.562   2.050   2.756  0.6507 -0.1418 -0.6292
 5634TIP3    H116866   2.505   2.071   2.682 -1.3772 -1.1659  0.5374
 5634TIP3    H216867   2.595   2.135   2.785 -1.2421  0.6596 -0.6620
 5635TIP3   OH216868   4.088   4.109   4.584 -0.7626  0.4300 -0.2195
 5635TIP3    H116869   4.162   4.148   4.537 -0.3397 -0.0572  0.0270
 5635TIP3    H216870   4.126   4.082   4.668 -0.7864 -1.4427 -0.7755
 5636TIP3   OH216871   3.411   0.425   3.950  0.0964 -0.0365 -0.6176
 5636TIP3    H116872   3.369   0.351   3.905  0.1193 -0.5990  0.2762
 5636TIP3    H216873   3.439   0.390   4.034  2.0911  0.4202 -1.0490
 5637TIP3   OH216874   3.993   6.087   3.864  0.4752  0.1671 -0.0881
 5637TIP3    H116875   3.970   6.141   3.939 -0.4140 -0.2898 -0.0208
 5637TIP3    H216876   3.980   6.144   3.788 -0.4273  0.0701 -0.0152
 5638TIP3   OH216877   0.598   6.033   3.587  0.3109  0.6835 -0.2013
 5638TIP3    H116878   0.507   6.009   3.606  0.1347  0.5245 -1.1666
 5638TIP3    H216879   0.624   5.973   3.517  0.4842  2.0452 -1.3505
 5639TIP3   OH216880   3.945   5.459   3.867  0.2875  0.5135  0.3386
 5639TIP3    H116881   3.975   5.541   3.906 -0.5921  0.1271  1.8973
 5639TIP3    H216882   3.942   5.477   3.773  2.5865  1.4431  0.3637
 5640TIP3   OH216883   0.415   3.693   1.435 -0.2293  0.2490 -0.1239
 5640TIP3    H116884   0.448   3.732   1.354  1.4553 -2.0076 -0.6223
 5640TIP3    H216885   0.470   3.730   1.504 -1.6052  2.1030  0.0573
 5641TIP3   OH216886   5.703   0.175   2.457  0.4738  0.0751 -0.0933
 5641TIP3    H116887   5.648   0.155   2.533 -1.7090  1.9969 -1.0613
 5641TIP3    H216888   5.663   0.126   2.385  0.8788  0.3835 -0.5342
 5642TIP3   OH216889   2.402   2.328   1.317 -0.2891 -0.0900  0.6662
 5642TIP3    H116890   2.424   2.412   1.277  0.4449 -1.6918 -2.6465
 5642TIP3    H216891   2.487   2.284   1.329 -0.6119 -0.2138  2.8831
 5643TIP3   OH216892   4.541   4.851   4.213 -0.0249  0.0323 -0.3983
 5643TIP3    H116893   4.472   4.882   4.154 -1.6407  0.3339  1.5362
 5643TIP3    H216894   4.543   4.916   4.283  1.4743 -0.5766  0.1544
 5644TIP3   OH216895   1.567   1.059   1.778  0.7017 -0.7064  0.1591
 5644TIP3    H116896   1.543   1.013   1.859 -0.0131  1.6114  1.3394
 5644TIP3    H216897   1.621   1.132   1.807  1.1527 -0.3024 -1.5787
 5645TIP3   OH216898   0.610   6.506   1.382  0.0659  0.1834 -0.1024
 5645TIP3    H116899   0.650   6.453   1.313 -1.2535 -0.9190 -0.0680
 5645TIP3    H216900   0.628   6.458   1.463 -0.7036  0.0194 -0.0148
 5646TIP3   OH216901   3.605   1.858   2.824 -0.1469  0.1934  0.3120
 5646TIP3    H116902   3.613   1.778   2.877 -0.9693  0.0915  0.2973
 5646TIP3    H216903   3.521   1.896   2.850 -0.5412  0.1824 -0.8444
 5647TIP3   OH216904   1.965   6.459   5.606 -0.0180 -0.4650  0.2725
 5647TIP3    H116905   1.961   6.399   5.531 -1.7094  0.1127 -0.1492
 5647TIP3    H216906   2.013   6.410   5.673 -2.0557 -2.7196  0.2517
 5648TIP3   OH216907   4.731   6.513   2.158  0.1149 -0.1157 -0.4605
 5648TIP3    H116908   4.636   6.521   2.149  0.0389 -0.2338  0.2259
 5648TIP3    H216909   4.756   6.584   2.216  0.3366 -0.5699  0.0137
 5649TIP3   OH216910   4.300   0.487   2.533 -0.1891 -0.1772 -0.2695
 5649TIP3    H116911   4.224   0.473   2.589 -0.1984 -0.3556 -0.3260
 5649TIP3    H216912   4.375   0.467   2.589 -0.2479 -2.4637 -0.8948
 5650TIP3   OH216913   1.525   3.928   4.363 -0.3018 -0.1201  0.3721
 5650TIP3    H116914   1.538   3.981   4.285  0.0281 -0.1079  0.4330
 5650TIP3    H216915   1.561   3.980   4.434  0.5377 -0.6555  0.3549
 5651TIP3   OH216916   5.513   1.749   3.622  0.0124 -0.0666  0.1724
 5651TIP3    H116917   5.586   1.801   3.656 -0.3332  1.0500 -0.7287
 5651TIP3    H216918   5.534   1.734   3.530 -1.6516  1.8062 -0.6141
 5652TIP3   OH216919   4.235   4.787   0.929 -0.7569 -0.2130  0.0781
 5652TIP3    H116920   4.163   4.757   0.984 -0.1223 -1.6821  0.1486
 5652TIP3    H216921   4.193   4.811   0.846 -1.3595 -0.8438  0.1865
 5653TIP3   OH216922   0.164   6.146   2.445  0.0349  0.0620 -0.2125
 5653TIP3    H116923   0.214   6.111   2.520  0.7679  0.3319 -0.5627
 5653TIP3    H216924   0.078   6.105   2.453  0.5735 -1.1012 -0.0726
 5654TIP3   OH216925   5.313   0.435   5.314  0.0445 -0.0078  0.6987
 5654TIP3    H116926   5.227   0.393   5.314 -0.6932  1.3128 -2.0881
 5654TIP3    H216927   5.300   0.514   5.366 -0.7174  0.6311 -0.4232
 5655TIP3   OH216928   5.412   6.768   3.478 -0.8937  0.2581  0.4783
 5655TIP3    H116929   5.397   6.705   3.407 -2.5818  1.0374  0.0774
 5655TIP3    H216930   5.324   6.787   3.512 -0.2079  0.6822  2.0997
 5656TIP3   OH216931   5.547   2.411   3.465 -0.2253  0.4192 -0.5188
 5656TIP3    H116932   5.597   2.359   3.404  0.5196 -1.0886  1.2832
 5656TIP3    H216933   5.481   2.351   3.501  1.6013  0.1013  2.7194
 5657TIP3   OH216934   2.906   4.117   4.092  0.8415  0.1662 -0.2154
 5657TIP3    H116935   2.876   4.171   4.019 -0.6442  2.6300  2.0254
 5657TIP3    H216936   2.834   4.056   4.107  0.5055  0.6148  0.0417
 5658TIP3   OH216937   2.644   5.242   3.533  0.1722  0.6373  0.6043
 5658TIP3    H116938   2.671   5.203   3.615  0.6715  0.2694  0.2712
 5658TIP3    H216939   2.690   5.193   3.466 -0.4665  0.7299  0.0786
 5659TIP3   OH216940   1.519   5.461   1.041 -0.5526  0.5022  0.4968
 5659TIP3    H116941   1.515   5.557   1.050 -0.5660  0.5928 -0.3948
 5659TIP3    H216942   1.541   5.430   1.129  3.6704  1.6149  0.0540
 5660TIP3   OH216943   7.146   4.283   3.757 -0.6436 -0.1345  0.3487
 5660TIP3    H116944   7.166   4.194   3.788 -1.0796 -1.2390 -2.2533
 5660TIP3    H216945   7.231   4.327   3.754 -0.3599 -0.5874  1.2100
 5661TIP3   OH216946   0.983   1.968   0.655  0.1578 -0.2774  0.0124
 5661TIP3    H116947   1.050   2.036   0.651  1.2347 -1.3504 -1.2529
 5661TIP3    H216948   1.014   1.900   0.595 -1.7538 -1.1077 -0.1136
 5662TIP3   OH216949   7.165   2.224   3.644 -0.7950  0.3567  0.3863
 5662TIP3    H116950   7.159   2.241   3.550 -1.1062 -0.4794  0.2469
 5662TIP3    H216951   7.224   2.292   3.677  0.1127  0.0623 -0.5723
 5663TIP3   OH216952   2.756   2.669   5.864 -0.3752  0.5886  0.4776
 5663TIP3    H116953   2.749   2.582   5.824  1.3714  1.2175 -1.3497
 5663TIP3    H216954   2.670   2.684   5.902 -0.7000 -1.9716  0.9514
 5664TIP3   OH216955   5.292   1.690   3.108  0.1101 -0.5666  0.1146
 5664TIP3    H116956   5.241   1.620   3.067  0.7980 -1.4846  0.7944
 5664TIP3    H216957   5.364   1.706   3.047 -0.4660  0.1109 -0.4131
 5665TIP3   OH216958   3.370   6.393   3.026 -0.3209  0.1795  0.2318
 5665TIP3    H116959   3.382   6.475   2.978  1.2079  0.2089  0.6169
 5665TIP3    H216960   3.316   6.417   3.101 -1.2018  0.5004 -0.4904
 5666TIP3   OH216961   6.262   6.163   0.605  0.6467 -0.1097  0.0769
 5666TIP3    H116962   6.227   6.205   0.527  1.7678 -1.2861 -1.0997
 5666TIP3    H216963   6.343   6.211   0.624  0.4238  0.1145  0.4705
 5667TIP3   OH216964   0.087   5.850   4.765  0.0340  0.2823  0.1767
 5667TIP3    H116965   0.015   5.903   4.733 -2.3193 -2.1379  1.0682
 5667TIP3    H216966   0.127   5.813   4.686 -0.6144  0.5333 -0.2758
 5668TIP3   OH216967   2.015   1.439   5.555 -0.3785 -0.2667 -0.3212
 5668TIP3    H116968   1.963   1.477   5.626  0.3532 -0.5752  0.3970
 5668TIP3    H216969   2.104   1.437   5.589 -0.0501 -0.6267 -1.1757
 5669TIP3   OH216970   7.008   0.779   5.736  0.4448  0.4066 -0.2444
 5669TIP3    H116971   6.998   0.857   5.682 -0.1963  0.5995  0.1315
 5669TIP3    H216972   7.086   0.736   5.703 -0.5362 -0.0683 -2.0656
 5670TIP3   OH216973   6.310   6.140   1.371  0.4563  0.2009  0.0107
 5670TIP3    H116974   6.402   6.130   1.396  0.5554  3.5484  1.4794
 5670TIP3    H216975   6.313   6.166   1.278  0.9333 -0.4020 -0.1467
 5671TIP3   OH216976   0.216   5.998   4.359  0.3323 -0.1400 -0.1296
 5671TIP3    H116977   0.191   6.089   4.375  0.2491 -0.4022  1.2694
 5671TIP3    H216978   0.188   5.950   4.436 -2.2452 -1.9326 -1.9877
 5672TIP3   OH216979   3.006   3.112   5.590 -0.5150 -0.2245  0.4632
 5672TIP3    H116980   2.948   3.161   5.532 -0.5018  0.3918  0.9544
 5672TIP3    H216981   3.058   3.180   5.635  0.5748 -0.7641  0.0450
 5673TIP3   OH216982   5.354   1.481   5.542 -0.9071  0.5921  0.2061
 5673TIP3    H116983   5.264   1.456   5.563 -0.3547 -0.4954  1.4219
 5673TIP3    H216984   5.399   1.398   5.529  0.1845  1.0796  0.7627
 5674TIP3   OH216985   6.587   1.795   0.544  0.2886  0.2976 -0.0193
 5674TIP3    H116986   6.553   1.800   0.633 -0.9689  1.2412 -0.5106
 5674TIP3    H216987   6.571   1.705   0.517  0.3588  0.0999  0.5970
 5675TIP3   OH216988   2.409   4.915   1.522  0.8065 -0.0452  0.3816
 5675TIP3    H116989   2.442   4.915   1.612  1.3921 -1.4007  0.2062
 5675TIP3    H216990   2.394   4.822   1.503  2.2075  0.0345 -1.4272
 5676TIP3   OH216991   5.465   6.215   2.957  0.0401  0.5445 -0.6325
 5676TIP3    H116992   5.452   6.138   3.012  0.1668  0.7182 -0.3578
 5676TIP3    H216993   5.454   6.289   3.016  0.8768  0.7256 -0.6794
 5677TIP3   OH216994   1.859   0.319   0.087  0.4168  0.2090  0.4054
 5677TIP3    H116995   1.853   0.410   0.114  2.2387  0.1760  1.0191
 5677TIP3    H216996   1.914   0.320   0.009  0.4309 -0.3682  0.4035
 5678TIP3   OH216997   3.021   0.234   1.320 -0.2988  0.1937  0.6249
 5678TIP3    H116998   2.957   0.252   1.252 -0.8273 -1.3784  0.6758
 5678TIP3    H216999   2.995   0.150   1.356  1.8347 -0.5353  0.5983
 5679TIP3   OH217000   1.450   4.548   2.850 -0.3977 -0.2630  0.1316
 5679TIP3    H117001   1.495   4.519   2.930 -1.0906 -1.6151  0.0714
 5679TIP3    H217002   1.458   4.473   2.791 -2.1131 -0.2786 -0.1226
 5680TIP3   OH217003   2.138   4.515   1.230  0.0220 -0.5023  0.9539
 5680TIP3    H117004   2.208   4.580   1.226 -0.5579  0.1462  1.2023
 5680TIP3    H217005   2.141   4.482   1.320  0.5349 -1.0797  0.7352
 5681TIP3   OH217006   6.739   1.432   4.962  0.1698  0.0584  0.1584
 5681TIP3    H117007   6.769   1.343   4.946 -0.0887 -0.4818  2.4087
 5681TIP3    H217008   6.765   1.481   4.883  2.0626 -1.5557 -0.2850
 5682TIP3   OH217009   0.571   3.320   5.844  0.2594 -0.1102 -0.2361
 5682TIP3    H117010   0.489   3.350   5.806 -1.4309 -0.7849  2.5872
 5682TIP3    H217011   0.598   3.247   5.789 -0.2411  0.9860 -2.0112
 5683TIP3   OH217012   2.191   0.152   2.090  0.2602 -0.0278 -0.7200
 5683TIP3    H117013   2.275   0.186   2.121 -0.7288  1.3904  0.5528
 5683TIP3    H217014   2.194   0.164   1.995  1.3677  0.3051 -0.6596
 5684TIP3   OH217015   4.851   1.137   4.222  0.3604  0.7893  0.2066
 5684TIP3    H117016   4.821   1.123   4.132  1.7637 -1.2520 -0.0231
 5684TIP3    H217017   4.771   1.148   4.273 -0.5690 -0.1298 -0.9981
 5685TIP3   OH217018   4.227   2.024   0.394  0.3177 -0.2746  0.3366
 5685TIP3    H117019   4.173   2.014   0.472  0.1029 -1.4570  0.0699
 5685TIP3    H217020   4.305   2.070   0.424  0.5864 -1.3735  1.4368
 5686TIP3   OH217021   1.414   1.590   0.778 -0.0163 -0.4200  0.0065
 5686TIP3    H117022   1.404   1.506   0.822 -0.4784 -0.8290 -0.8497
 5686TIP3    H217023   1.485   1.634   0.825  0.8478 -1.6624 -0.0874
 5687TIP3   OH217024   2.139   6.590   1.872 -0.6759 -0.7722  0.2625
 5687TIP3    H117025   2.147   6.675   1.828 -0.6951 -1.3830 -0.9651
 5687TIP3    H217026   2.163   6.526   1.805 -0.2200 -1.7182  1.3037
 5688TIP3   OH217027   3.933   2.364   2.058  0.3271  0.1484  0.1717
 5688TIP3    H117028   3.894   2.344   2.143  1.2587 -1.5984  0.2437
 5688TIP3    H217029   3.989   2.289   2.039  1.1058  1.0674 -1.4247
 5689TIP3   OH217030   6.237   3.891   0.344  0.1050  0.4300 -0.2817
 5689TIP3    H117031   6.277   3.871   0.260  0.3767 -2.6110  0.4389
 5689TIP3    H217032   6.301   3.946   0.389  0.8513  0.4253 -1.3070
 5690TIP3   OH217033   3.080   1.611   3.932 -0.1370 -0.5023 -0.3424
 5690TIP3    H117034   3.107   1.524   3.902 -0.0146 -0.0384 -1.5902
 5690TIP3    H217035   3.020   1.643   3.865  1.4877  1.2624 -1.0262
 5691TIP3   OH217036   3.327   0.148   4.486 -0.5033  1.1770 -0.5132
 5691TIP3    H117037   3.390   0.174   4.419  1.4075 -0.5116  0.5268
 5691TIP3    H217038   3.365   0.179   4.568 -0.2362 -1.1276  0.2874
 5692TIP3   OH217039   3.827   2.189   2.253 -0.1160 -0.0217 -0.2165
 5692TIP3    H117040   3.850   2.118   2.193 -0.5951  0.3164 -0.8069
 5692TIP3    H217041   3.834   2.149   2.340  1.3900 -0.2924 -0.4287
 5693TIP3   OH217042   0.563   6.134   0.506  0.4230  0.4099 -0.2725
 5693TIP3    H117043   0.578   6.200   0.440  0.3818  0.9033  0.2041
 5693TIP3    H217044   0.598   6.172   0.587 -1.9382  0.9563  0.5597
 5694TIP3   OH217045   1.900   3.162   2.301 -0.1404  0.3817 -0.1325
 5694TIP3    H117046   1.948   3.104   2.360 -0.2663 -0.3489 -0.7207
 5694TIP3    H217047   1.936   3.249   2.317 -0.9573  0.4100  1.8157
 5695TIP3   OH217048   3.209   3.757   5.833  0.2411  0.1254  0.4386
 5695TIP3    H117049   3.301   3.731   5.837  0.6839  1.3902 -0.7957
 5695TIP3    H217050   3.160   3.676   5.850  1.5661 -0.7791  0.0808
 5696TIP3   OH217051   3.991   5.227   3.435  0.2869 -0.1637  0.5536
 5696TIP3    H117052   3.994   5.207   3.529  1.7308 -0.2661  0.5031
 5696TIP3    H217053   4.054   5.167   3.395 -0.4779 -0.2767 -0.5269
 5697TIP3   OH217054   2.062   0.029   3.545 -0.0679 -0.3097 -0.0949
 5697TIP3    H117055   2.064   0.025   3.641  1.8156  0.1846 -0.0621
 5697TIP3    H217056   1.970   0.043   3.523 -0.3064  1.4665  1.7511
 5698TIP3   OH217057   7.083   2.324   4.700 -0.2297  0.4371 -0.1218
 5698TIP3    H117058   7.147   2.393   4.720 -0.1115  0.2544  0.1401
 5698TIP3    H217059   7.028   2.361   4.631  2.0790 -0.5076 -2.6516
 5699TIP3   OH217060   2.614   3.453   4.685  0.4273  0.5279 -0.8242
 5699TIP3    H117061   2.560   3.467   4.763 -0.5046 -0.1353 -1.3400
 5699TIP3    H217062   2.703   3.445   4.719 -0.0563 -0.5333  0.2603
 5700TIP3   OH217063   0.619   3.495   2.678  0.2592 -0.2333  0.0846
 5700TIP3    H117064   0.686   3.488   2.746 -1.1595 -0.2759  1.5649
 5700TIP3    H217065   0.596   3.588   2.677 -0.3617 -0.3782  0.3334
 5701TIP3   OH217066   1.664   3.156   5.066  0.5508  0.6359 -0.7272
 5701TIP3    H117067   1.633   3.101   4.994 -0.2756  0.3232 -0.1429
 5701TIP3    H217068   1.746   3.114   5.094  0.0554 -0.1817 -0.4471
 5702TIP3   OH217069   4.099   2.549   1.177  0.0829  0.3926  0.4033
 5702TIP3    H117070   4.102   2.459   1.210 -1.7195  0.4899  0.9699
 5702TIP3    H217071   4.189   2.581   1.185  0.2171 -0.3625  3.1653
 5703TIP3   OH217072   2.433   4.509   1.784  0.6640 -0.4342 -0.1856
 5703TIP3    H117073   2.498   4.478   1.846  0.6341 -1.2349 -0.5545
 5703TIP3    H217074   2.416   4.600   1.811  0.4136 -0.8707  1.1686
 5704TIP3   OH217075   2.783   4.598   2.415 -0.0183  0.0296 -0.2061
 5704TIP3    H117076   2.824   4.533   2.358  0.1192 -0.2632  0.2251
 5704TIP3    H217077   2.857   4.644   2.455  0.0463 -2.3417  2.7573
 5705TIP3   OH217078   3.710   2.533   2.038 -0.5442 -0.1218  0.5560
 5705TIP3    H117079   3.767   2.458   2.021  0.3128  0.4206  0.9222
 5705TIP3    H217080   3.765   2.610   2.019 -0.9145  0.4253  1.5732
 5706TIP3   OH217081   5.696   4.559   2.971  0.1160  0.7244  0.0582
 5706TIP3    H117082   5.643   4.502   2.915 -0.5908  1.6709 -0.2635
 5706TIP3    H217083   5.665   4.541   3.060  1.6015 -1.1648  0.2589
 5707TIP3   OH217084   1.741   1.437   4.057  0.0454  0.0530 -0.2842
 5707TIP3    H117085   1.761   1.354   4.100 -0.5585  0.7748  1.4913
 5707TIP3    H217086   1.681   1.415   3.987  1.7453 -1.2848 -1.4082
 5708TIP3   OH217087   3.863   3.128   0.079  0.3008 -0.0859 -0.1227
 5708TIP3    H117088   3.857   3.195   0.147  0.2372  0.4500 -0.6537
 5708TIP3    H217089   3.806   3.057   0.111  0.0627  0.2722  0.2587
 5709TIP3   OH217090   6.072   0.107   2.796  0.4112 -0.0976  0.3943
 5709TIP3    H117091   6.096   0.188   2.841  0.0414  0.7319 -0.8311
 5709TIP3    H217092   6.130   0.104   2.720  1.1210 -1.5353  0.9782
 5710TIP3   OH217093   5.301   1.624   5.299  0.5135 -0.0619  0.5039
 5710TIP3    H117094   5.349   1.572   5.364  0.4063  0.0574  0.6788
 5710TIP3    H217095   5.291   1.710   5.339  0.9367  0.1817  0.1018
 5711TIP3   OH217096   3.374   2.601   2.944  0.0315  0.4002  0.0881
 5711TIP3    H117097   3.289   2.574   2.909 -0.4033 -0.6529  1.8286
 5711TIP3    H217098   3.426   2.520   2.943  0.5622  0.7345  0.2905
 5712TIP3   OH217099   2.520   0.109   2.495 -0.6398  0.0678 -0.0558
 5712TIP3    H117100   2.568   0.120   2.577  0.5054 -0.1921 -0.6710
 5712TIP3    H217101   2.485   0.020   2.499  1.1804 -0.7385 -0.7097
 5713TIP3   OH217102   3.326   6.120   3.747  0.8185 -0.3233  0.5212
 5713TIP3    H117103   3.247   6.125   3.800  1.1425 -0.0875  0.9914
 5713TIP3    H217104   3.295   6.100   3.659  0.1926  0.3143  0.5878
 5714TIP3   OH217105   5.034   0.199   1.607 -0.0986 -0.6634  0.2733
 5714TIP3    H117106   4.994   0.285   1.618  0.6959 -0.1814 -0.4083
 5714TIP3    H217107   5.055   0.194   1.514  1.3621 -0.8924  0.5810
 5715TIP3   OH217108   0.828   0.911   5.412 -0.1916  0.7985  0.1830
 5715TIP3    H117109   0.755   0.970   5.393  0.3373  1.5041  0.2928
 5715TIP3    H217110   0.798   0.825   5.382 -0.7406  1.2344 -0.5496
 5716TIP3   OH217111   3.327   6.606   1.900 -0.0244  0.4910 -0.5782
 5716TIP3    H117112   3.232   6.610   1.910 -0.1761  1.1407 -1.9896
 5716TIP3    H217113   3.342   6.530   1.844  0.0241  1.8893 -2.5801
 5717TIP3   OH217114   3.978   4.502   0.725 -0.1122 -0.2749  0.6002
 5717TIP3    H117115   4.017   4.578   0.681  1.2891 -1.3621 -0.0964
 5717TIP3    H217116   3.918   4.466   0.660  1.2113 -1.2951 -0.0884
 5718TIP3   OH217117   0.598   2.247   4.284  0.1101 -0.6495  0.0762
 5718TIP3    H117118   0.577   2.306   4.356 -3.9090 -0.5452 -0.9522
 5718TIP3    H217119   0.650   2.300   4.224  0.8399  0.2274  1.4271
 5719TIP3   OH217120   2.509   2.224   5.867  1.1667  0.3288 -0.5750
 5719TIP3    H117121   2.467   2.177   5.796  1.8769  1.3103 -1.6839
 5719TIP3    H217122   2.559   2.157   5.915  1.9999 -0.1017 -1.9917
 5720TIP3   OH217123   6.894   2.901   0.203 -0.3443  0.1797 -0.5476
 5720TIP3    H117124   6.817   2.954   0.226 -0.0878  1.1785 -1.8795
 5720TIP3    H217125   6.919   2.859   0.285 -0.9563  1.6166  0.4168
 5721TIP3   OH217126   0.818   1.476   5.496  0.4980  0.4178  0.3186
 5721TIP3    H117127   0.750   1.542   5.477 -0.0280  0.0868  1.0028
 5721TIP3    H217128   0.850   1.500   5.583  0.4901 -0.0700  0.4583
 5722TIP3   OH217129   2.498   1.096   1.231 -0.0885 -0.1795  0.0597
 5722TIP3    H117130   2.417   1.144   1.218  0.5559  1.1037  0.5699
 5722TIP3    H217131   2.474   1.023   1.289 -1.1202 -0.6144 -0.8890
 5723TIP3   OH217132   0.811   2.316   5.070 -0.6364 -0.0050 -0.0394
 5723TIP3    H117133   0.842   2.234   5.110  0.9153  1.2721  1.5783
 5723TIP3    H217134   0.725   2.329   5.108 -0.1784 -0.0484  1.0645
 5724TIP3   OH217135   0.434   0.815   4.850  0.0577  0.4669 -0.0547
 5724TIP3    H117136   0.456   0.862   4.930 -1.8965 -0.0541  0.8291
 5724TIP3    H217137   0.386   0.738   4.879  0.9997 -0.7916 -1.6294
 5725TIP3   OH217138   2.156   1.461   5.852  0.3686  0.1296 -0.7513
 5725TIP3    H117139   2.065   1.484   5.832  0.1622 -0.5940 -0.6880
 5725TIP3    H217140   2.197   1.543   5.877 -0.5869  0.2804  0.4264
 5726TIP3   OH217141   5.651   4.516   1.228  0.0155 -0.1235 -0.1107
 5726TIP3    H117142   5.584   4.480   1.170  0.7090  0.1818 -1.1316
 5726TIP3    H217143   5.623   4.607   1.242 -0.4731 -0.3675  0.5374
 5727TIP3   OH217144   3.848   6.693   5.183 -0.5992 -0.4683 -0.6731
 5727TIP3    H117145   3.858   6.625   5.249 -1.1364  1.4040  1.4445
 5727TIP3    H217146   3.761   6.678   5.145 -0.7181 -0.9460 -0.2084
 5728TIP3   OH217147   1.273   3.423   0.267 -0.2310 -0.3313  0.1620
 5728TIP3    H117148   1.256   3.366   0.192 -0.3513 -0.8830  0.6051
 5728TIP3    H217149   1.227   3.504   0.246  0.6470 -0.0771 -0.8607
 5729TIP3   OH217150   0.734   2.407   4.825 -0.4889 -0.1154  0.1493
 5729TIP3    H117151   0.716   2.316   4.802 -0.2676  0.0809 -0.8583
 5729TIP3    H217152   0.767   2.403   4.915 -0.4722 -1.0279  0.1110
 5730TIP3   OH217153   1.026   3.962   0.266  0.1740  0.1936  0.6210
 5730TIP3    H117154   1.029   4.047   0.310 -0.1903  0.0903  0.8460
 5730TIP3    H217155   0.936   3.933   0.276 -0.0402  0.3810 -0.5859
 5731TIP3   OH217156   2.559   3.890   3.422 -0.4045 -0.0597 -0.0345
 5731TIP3    H117157   2.549   3.816   3.481 -1.0504  0.2368  0.2348
 5731TIP3    H217158   2.515   3.862   3.341 -1.2226  0.2627  0.2842
 5732TIP3   OH217159   1.711   6.084   3.688 -0.9501  0.3720 -0.4356
 5732TIP3    H117160   1.617   6.069   3.682 -0.8580 -0.2979 -0.3046
 5732TIP3    H217161   1.722   6.137   3.767 -1.2925  1.2323 -0.9455
 5733TIP3   OH217162   2.228   5.561   2.471 -0.1281 -0.0183 -0.7779
 5733TIP3    H117163   2.190   5.602   2.548 -0.1479 -1.0808 -0.2077
 5733TIP3    H217164   2.319   5.592   2.470  0.0067 -0.3786 -0.0544
 5734TIP3   OH217165   1.780   2.850   3.356 -0.4674  0.2167 -0.0771
 5734TIP3    H117166   1.798   2.941   3.381  0.6053  0.1052 -0.4034
 5734TIP3    H217167   1.746   2.809   3.437  1.8399  0.1606  0.9403
 5735TIP3   OH217168   6.650   1.481   3.736  0.0355  0.4002 -0.1642
 5735TIP3    H117169   6.623   1.404   3.687  1.1254 -1.2128  1.6130
 5735TIP3    H217170   6.614   1.468   3.824  1.4264  1.1818  0.5602
 5736TIP3   OH217171   5.253   3.007   5.119  0.2572  0.5163  0.7083
 5736TIP3    H117172   5.288   3.044   5.038  2.7052 -0.4356  1.2280
 5736TIP3    H217173   5.331   2.988   5.172 -1.1626 -0.6305  2.5168
 5737TIP3   OH217174   0.416   3.501   2.352  0.5368 -0.0449 -0.6951
 5737TIP3    H117175   0.372   3.452   2.422 -0.4571 -0.0452 -1.3052
 5737TIP3    H217176   0.510   3.493   2.373  0.2522  0.2646  0.8406
 5738TIP3   OH217177   5.442   2.524   0.730 -0.6096  0.1239  0.3084
 5738TIP3    H117178   5.463   2.497   0.820  1.5094 -0.1944 -0.2453
 5738TIP3    H217179   5.494   2.603   0.716 -1.8199  0.8571 -0.2901
 5739TIP3   OH217180   6.547   1.341   2.389  0.2970 -0.1248  0.8857
 5739TIP3    H117181   6.600   1.267   2.419  0.1289 -0.1984  1.0038
 5739TIP3    H217182   6.604   1.390   2.330 -0.8347 -2.4945 -2.4135
 5740TIP3   OH217183   4.528   0.734   2.715  0.3300 -0.1068 -0.1250
 5740TIP3    H117184   4.609   0.700   2.678 -0.0816 -0.8530 -0.3694
 5740TIP3    H217185   4.546   0.743   2.809  0.0758 -2.2787  0.2009
 5741TIP3   OH217186   4.609   6.840   1.170  0.2885  0.3655 -0.4292
 5741TIP3    H117187   4.633   6.776   1.237  4.0116  0.4380 -1.4606
 5741TIP3    H217188   4.585   6.787   1.094 -2.2549  0.2969  0.3366
 5742TIP3   OH217189   6.635   2.160   0.249 -0.0952 -0.3308 -0.1259
 5742TIP3    H117190   6.553   2.129   0.210  0.5434 -1.7727 -0.3562
 5742TIP3    H217191   6.685   2.195   0.176  0.4838 -1.6669 -0.3815
 5743TIP3   OH217192   6.690   3.087   0.304  0.0983 -0.7230 -0.0303
 5743TIP3    H117193   6.610   3.046   0.271 -0.6659  0.8372 -0.2171
 5743TIP3    H217194   6.700   3.053   0.393 -0.8111 -0.8923  0.0166
 5744TIP3   OH217195   3.753   6.630   2.323  0.2954  0.2132 -0.1166
 5744TIP3    H117196   3.818   6.695   2.296  1.5445 -1.0826 -0.3368
 5744TIP3    H217197   3.670   6.676   2.318  0.9962  1.4170 -1.5698
 5745TIP3   OH217198   2.685   1.450   3.439 -0.2207  0.0255  0.1506
 5745TIP3    H117199   2.613   1.387   3.438 -0.7096  0.4925  2.1063
 5745TIP3    H217200   2.644   1.535   3.454  0.7087  0.2426  1.7815
 5746TIP3   OH217201   5.397   5.447   2.475  0.5829 -0.8928  0.0428
 5746TIP3    H117202   5.349   5.417   2.552 -0.2865  0.3314 -0.0055
 5746TIP3    H217203   5.399   5.542   2.483  0.2881 -0.7207 -1.5502
 5747TIP3   OH217204   0.019   5.489   0.181 -0.4582 -0.5901  0.1999
 5747TIP3    H117205   0.110   5.507   0.202 -0.4963  3.5988 -2.0179
 5747TIP3    H217206  -0.031   5.543   0.243 -1.5244 -2.8487  1.4048
 5748TIP3   OH217207   7.167   6.451   3.451  0.2094 -0.3451  0.6057
 5748TIP3    H117208   7.141   6.374   3.500 -0.5704 -0.6554 -0.2657
 5748TIP3    H217209   7.130   6.525   3.499 -1.8088 -0.7411 -0.2673
 5749TIP3   OH217210   6.466   4.026   0.459  0.1810 -0.5285  0.2421
 5749TIP3    H117211   6.468   4.089   0.531 -0.1434 -0.5323  0.2550
 5749TIP3    H217212   6.531   4.060   0.396  0.6344 -0.6540  0.6381
 5750TIP3   OH217213   5.446   4.112   0.728  0.6981 -0.2257  0.5385
 5750TIP3    H117214   5.367   4.148   0.768  0.2643  0.8575 -1.1840
 5750TIP3    H217215   5.502   4.090   0.803 -1.6298 -2.1404  1.8717
 5751TIP3   OH217216   6.206   3.166   3.933 -1.1379  0.4605  0.7002
 5751TIP3    H117217   6.227   3.240   3.876 -0.0460  0.0156  0.5021
 5751TIP3    H217218   6.268   3.173   4.005  0.0588 -1.1464 -0.1236
 5752TIP3   OH217219   0.746   3.135   4.476 -0.0269  0.2439  0.0537
 5752TIP3    H117220   0.771   3.052   4.435  0.7265  0.5606 -0.1370
 5752TIP3    H217221   0.824   3.164   4.522 -0.3112  0.8121  0.1880
 5753TIP3   OH217222   5.193   0.705   4.234 -0.1481 -0.5225  0.0442
 5753TIP3    H117223   5.189   0.629   4.292  1.5512 -1.8754 -1.4881
 5753TIP3    H217224   5.158   0.673   4.151 -0.2531  0.6537 -0.3757
 5754TIP3   OH217225   5.137   6.117   3.805 -0.0416 -0.7189 -0.2366
 5754TIP3    H117226   5.042   6.130   3.806 -0.2778 -2.0644 -1.5087
 5754TIP3    H217227   5.149   6.026   3.829  1.0678 -0.1534  1.5257
 5755TIP3   OH217228   1.026   5.462   5.354 -0.4256 -0.0649 -0.2077
 5755TIP3    H117229   0.952   5.425   5.402 -0.6789  0.2714 -0.3313
 5755TIP3    H217230   0.987   5.529   5.298 -0.2522 -1.0758 -1.5719
 5756TIP3   OH217231   4.114   1.370   1.129 -0.4553 -0.1315 -0.3880
 5756TIP3    H117232   4.065   1.327   1.199 -1.0846  2.2536  0.7447
 5756TIP3    H217233   4.048   1.396   1.065 -0.4875  1.5259  0.2805
 5757TIP3   OH217234   0.636   4.995   1.543  0.6847 -0.3162  0.0356
 5757TIP3    H117235   0.655   4.924   1.604 -2.0358 -0.0972  1.2683
 5757TIP3    H217236   0.544   4.984   1.520 -0.1641  3.2771  1.0509
 5758TIP3   OH217237   2.073   0.351   3.514  1.1603  0.0169  0.5159
 5758TIP3    H117238   2.143   0.287   3.524 -0.0566 -1.4246  0.1868
 5758TIP3    H217239   1.992   0.300   3.518  0.1346  1.5083  0.0462
 5759TIP3   OH217240   4.790   4.913   0.979 -0.1206  0.2284  0.5316
 5759TIP3    H117241   4.834   4.970   1.043  0.2489  0.0769  0.4169
 5759TIP3    H217242   4.857   4.896   0.913 -0.4746  0.3159  0.1473
 5760TIP3   OH217243   4.298   1.820   3.493  0.1929  0.1600 -0.1304
 5760TIP3    H117244   4.364   1.819   3.562  2.6213  0.4119 -2.2743
 5760TIP3    H217245   4.254   1.904   3.504  1.2599  0.6642  0.5131
 5761TIP3   OH217246   4.372   3.408   2.462 -0.3769  0.2950 -0.1840
 5761TIP3    H117247   4.440   3.390   2.527 -1.1651 -1.3327  0.2654
 5761TIP3    H217248   4.416   3.401   2.378 -0.2837 -2.8092 -0.0091
 5762TIP3   OH217249   4.790   6.024   0.579  0.1056 -0.1126 -0.1061
 5762TIP3    H117250   4.787   5.984   0.492 -2.0603 -0.0814 -0.1030
 5762TIP3    H217251   4.727   5.973   0.631 -0.3086  1.2539  0.8009
 5763TIP3   OH217252   5.079   1.899   5.002 -0.4055 -0.0002 -0.4198
 5763TIP3    H117253   5.147   1.843   5.040  0.6389  1.0925 -0.5978
 5763TIP3    H217254   5.089   1.888   4.908  0.4033  1.1236 -0.4844
 5764TIP3   OH217255   6.407   0.628   0.607 -0.0326  0.1101  0.0150
 5764TIP3    H117256   6.380   0.637   0.699  1.1346  2.4093  0.2253
 5764TIP3    H217257   6.326   0.627   0.558 -0.6561 -0.4312  1.0200
 5765TIP3   OH217258   4.638   3.070   0.517 -0.5539 -0.1318 -0.4473
 5765TIP3    H117259   4.607   3.149   0.472 -0.9283  0.7574  1.2988
 5765TIP3    H217260   4.726   3.092   0.546 -0.8403 -0.1559  0.4661
 5766TIP3   OH217261   4.279   1.907   3.913 -0.2623 -0.4618 -0.7068
 5766TIP3    H117262   4.215   1.849   3.953 -0.6748  0.0359 -0.6389
 5766TIP3    H217263   4.227   1.971   3.865  0.1358  0.6517  0.2949
 5767TIP3   OH217264   6.208   0.119   1.831 -0.7551 -0.3667 -0.3533
 5767TIP3    H117265   6.140   0.083   1.889  0.5826 -0.8529  0.9923
 5767TIP3    H217266   6.165   0.189   1.783 -1.3363  2.0231  3.2831
 5768TIP3   OH217267   0.386   5.065   0.154  0.0224  0.0066  0.8076
 5768TIP3    H117268   0.433   5.110   0.225  1.0603  0.3028 -0.0349
 5768TIP3    H217269   0.295   5.062   0.183  0.2722  0.9208  1.7520
 5769TIP3   OH217270   0.370   1.211   3.129 -0.0271  0.0299  0.0733
 5769TIP3    H117271   0.371   1.199   3.034  1.0567  1.0028 -0.0603
 5769TIP3    H217272   0.278   1.224   3.150 -0.1066  1.8500 -1.1552
 5770TIP3   OH217273   1.574   1.698   1.011 -0.1068 -0.2297 -0.4844
 5770TIP3    H117274   1.501   1.656   1.056 -1.4388  0.4047 -1.9631
 5770TIP3    H217275   1.639   1.628   1.001 -1.7372 -1.6641 -1.7426
 5771TIP3   OH217276   6.307   5.275   1.068 -0.6053 -0.2294  0.5557
 5771TIP3    H117277   6.397   5.305   1.055 -0.0073 -2.2135 -0.2612
 5771TIP3    H217278   6.256   5.325   1.003  0.5119 -1.5806 -1.4713
 5772TIP3   OH217279   2.569   4.143   1.643 -0.5872 -0.6908 -0.4022
 5772TIP3    H117280   2.485   4.188   1.646 -0.5104 -0.5548 -0.2607
 5772TIP3    H217281   2.632   4.207   1.678 -0.7796 -1.5708  1.7404
 5773TIP3   OH217282   6.952   0.974   5.537 -0.1471  0.1906 -0.7155
 5773TIP3    H117283   7.006   1.022   5.599  0.1639 -0.7564 -0.2379
 5773TIP3    H217284   6.929   1.039   5.471  2.9014  0.2977 -1.8321
 5774TIP3   OH217285   0.923   3.813   0.597 -0.2271 -0.1287  0.3005
 5774TIP3    H117286   0.880   3.823   0.513 -2.3301  0.9522  1.4305
 5774TIP3    H217287   0.904   3.722   0.623  1.4575 -0.8663 -0.8534
 5775TIP3   OH217288   5.845   6.480   3.561  0.0698 -0.3500  0.2343
 5775TIP3    H117289   5.848   6.387   3.586 -0.5449 -0.6343 -0.7150
 5775TIP3    H217290   5.793   6.521   3.631 -1.6707 -1.1466 -0.5219
 5776TIP3   OH217291   1.226   3.847   4.014  0.1436  0.0319  0.1530
 5776TIP3    H117292   1.299   3.833   4.074 -0.2042  2.4576  1.2337
 5776TIP3    H217293   1.265   3.892   3.939 -0.0010  0.0426  0.0840
 5777TIP3   OH217294   6.001   0.476   4.297  0.3770 -0.3258  0.1812
 5777TIP3    H117295   5.950   0.397   4.276 -2.1603  1.0376  0.7511
 5777TIP3    H217296   6.012   0.473   4.392  0.7486 -0.2620  0.1407
 5778TIP3   OH217297   5.103   2.552   2.133 -0.4381  0.3727 -0.1045
 5778TIP3    H117298   5.103   2.623   2.197 -0.7064  1.2311 -1.0139
 5778TIP3    H217299   5.193   2.520   2.133 -0.2470  0.8927  0.1418
 5779TIP3   OH217300   2.183   5.062   4.938  0.0860  0.4238  0.2768
 5779TIP3    H117301   2.098   5.097   4.912  1.2932  2.1174 -1.6567
 5779TIP3    H217302   2.164   4.972   4.966 -2.2592  0.5970 -0.5200
 5780TIP3   OH217303   2.730   6.094   4.722  0.0712  0.4136  0.2641
 5780TIP3    H117304   2.693   6.175   4.758  0.4977 -0.0229  1.7563
 5780TIP3    H217305   2.671   6.072   4.650 -1.3625  0.8721  1.2291
 5781TIP3   OH217306   4.966   1.888   4.622  0.2176  0.3665 -0.1433
 5781TIP3    H117307   4.913   1.814   4.652 -1.8385  2.0392  0.6406
 5781TIP3    H217308   5.045   1.884   4.675 -1.2565  0.4881  2.2258
 5782TIP3   OH217309   6.983   0.398   0.763  0.1680  0.4570  0.2500
 5782TIP3    H117310   6.986   0.319   0.817 -0.1386  0.3543  0.1166
 5782TIP3    H217311   6.995   0.470   0.825 -0.0606  0.3326  0.4387
 5783TIP3   OH217312   2.086   2.141   0.799 -0.1981  0.3525 -0.3585
 5783TIP3    H117313   2.068   2.067   0.857  1.3325  0.2403  0.0124
 5783TIP3    H217314   2.170   2.119   0.758 -0.3707  1.2811 -1.2406
 5784TIP3   OH217315   1.661   5.100   4.101  0.1053 -0.1299 -0.0692
 5784TIP3    H117316   1.646   5.146   4.184 -0.8626  1.1452 -0.9020
 5784TIP3    H217317   1.595   5.031   4.100  0.4112 -0.4395  0.4023
 5785TIP3   OH217318   5.456   4.953   1.522  0.1554 -0.5907  0.4476
 5785TIP3    H117319   5.430   4.980   1.611  0.0002 -2.8036  1.1214
 5785TIP3    H217320   5.550   4.971   1.518  0.0954 -0.1435  0.9240
 5786TIP3   OH217321   3.570   6.674   4.410 -0.2993 -0.2051  0.1696
 5786TIP3    H117322   3.586   6.670   4.316 -1.0403  1.7341 -0.0756
 5786TIP3    H217323   3.646   6.629   4.449 -0.4437 -1.8862 -1.3366
 5787TIP3   OH217324   5.771   6.724   0.116 -0.2126  0.0090 -0.2526
 5787TIP3    H117325   5.756   6.696   0.207  3.7118  0.4695  0.7039
 5787TIP3    H217326   5.811   6.648   0.074  5.0512  1.8641  0.7280
 5788TIP3   OH217327   0.457   0.563   2.575  0.3379 -0.1414 -0.7142
 5788TIP3    H117328   0.525   0.508   2.615  0.4603 -1.2450 -2.3307
 5788TIP3    H217329   0.382   0.554   2.633  0.6584 -1.2802 -0.4386
 5789TIP3   OH217330   3.531   1.648   1.296 -0.1853  0.5207  0.1758
 5789TIP3    H117331   3.604   1.709   1.285  1.3747 -1.3529 -0.3401
 5789TIP3    H217332   3.518   1.644   1.391  0.9094  0.3290  0.3376
 5790TIP3   OH217333   3.621   2.931   5.656  0.3038 -0.5935  0.4053
 5790TIP3    H117334   3.629   3.023   5.680  0.2768 -0.6234  0.5285
 5790TIP3    H217335   3.627   2.931   5.560 -0.8575 -0.3340  0.3137
 5791TIP3   OH217336   5.427   5.413   3.720  0.3905 -0.1265 -0.1585
 5791TIP3    H117337   5.379   5.444   3.644  0.3651  1.2947  0.3971
 5791TIP3    H217338   5.460   5.327   3.695  1.7806  0.9704 -2.4139
 5792TIP3   OH217339   0.574   0.904   2.926 -0.1451 -0.2407 -0.0116
 5792TIP3    H117340   0.517   0.894   3.003 -0.4733  2.6780  0.2370
 5792TIP3    H217341   0.515   0.926   2.855  0.5036  1.4581 -0.0622
 5793TIP3   OH217342   4.682   3.746   4.329 -0.3234 -0.0553  0.5006
 5793TIP3    H117343   4.719   3.705   4.250 -2.5917  1.6997 -1.6631
 5793TIP3    H217344   4.719   3.834   4.330 -0.4790  0.0076  1.3017
 5794TIP3   OH217345   4.994   2.890   2.015 -0.6140  0.0642  0.2443
 5794TIP3    H117346   4.973   2.961   1.955 -0.9354  0.7439  1.1428
 5794TIP3    H217347   4.931   2.821   1.993 -0.2373 -0.0057 -0.6946
 5795TIP3   OH217348   5.719   4.966   3.210  0.0343  0.4616 -0.1334
 5795TIP3    H117349   5.703   4.926   3.124 -0.1252  2.9399 -1.3282
 5795TIP3    H217350   5.796   5.021   3.197 -0.1817  1.1286  1.2414
 5796TIP3   OH217351   1.840   0.426   3.872  0.6166 -0.0953 -0.1304
 5796TIP3    H117352   1.831   0.447   3.965  0.8189  0.3178 -0.1998
 5796TIP3    H217353   1.806   0.503   3.827 -1.3632 -1.1020 -0.4277
 5797TIP3   OH217354   2.964   0.763   4.116  0.0935 -0.2226  0.2088
 5797TIP3    H117355   2.990   0.741   4.026 -2.3328 -1.5285 -0.2469
 5797TIP3    H217356   2.985   0.685   4.167  0.1149 -0.0327  0.4921
 5798TIP3   OH217357   5.125   4.957   5.514 -0.2426  0.2895  0.2519
 5798TIP3    H117358   5.031   4.971   5.516 -0.5226 -0.6714 -2.3366
 5798TIP3    H217359   5.160   5.031   5.464 -0.0789 -0.9354 -1.5555
 5799TIP3   OH217360   1.625   6.255   2.945 -0.2966  0.4365 -0.6798
 5799TIP3    H117361   1.594   6.336   2.986 -1.3147  0.2771 -1.0969
 5799TIP3    H217362   1.682   6.285   2.874  0.7755  0.7304  0.2827
 5800TIP3   OH217363   6.669   4.859   4.824  0.4743 -0.3205  0.7634
 5800TIP3    H117364   6.664   4.773   4.866 -0.4178  0.9096  3.3611
 5800TIP3    H217365   6.600   4.857   4.758  1.5956 -2.1450 -0.4704
 5801TIP3   OH217366   5.332   0.339   4.977 -0.0331 -0.0089  0.0187
 5801TIP3    H117367   5.400   0.393   4.938  0.0768  0.7598  1.2151
 5801TIP3    H217368   5.288   0.397   5.039  0.7044 -1.5041  2.0459
 5802TIP3   OH217369   1.842   1.673   1.799  0.0904  0.4319  0.1524
 5802TIP3    H117370   1.809   1.644   1.714  0.5368 -0.2207  0.1930
 5802TIP3    H217371   1.764   1.677   1.855 -0.2867  1.3953 -0.4198
 5803TIP3   OH217372   0.891   1.653   4.957 -0.0019 -0.0692 -0.3653
 5803TIP3    H117373   0.962   1.599   4.923  0.2361 -1.2476  1.7835
 5803TIP3    H217374   0.935   1.725   5.001 -0.2438  0.5249 -1.0792
 5804TIP3   OH217375   6.824   2.433   5.605  0.2231  0.1539  0.2431
 5804TIP3    H117376   6.799   2.370   5.538 -0.0219  0.7006 -0.1959
 5804TIP3    H217377   6.743   2.451   5.653  0.3714 -0.1432  0.6103
 5805TIP3   OH217378   1.489   2.571   3.462 -0.1455  0.4284 -0.0011
 5805TIP3    H117379   1.508   2.523   3.382 -0.3143 -2.3269  1.4912
 5805TIP3    H217380   1.568   2.560   3.515 -0.1047  2.0578  0.3330
 5806TIP3   OH217381   2.291   2.689   1.946 -0.2322  0.4456 -0.3423
 5806TIP3    H117382   2.303   2.774   1.990 -1.5988  0.1213  0.7090
 5806TIP3    H217383   2.364   2.636   1.978 -2.0254 -0.2984  2.9359
 5807TIP3   OH217384   0.195   0.974   2.075 -0.7490 -0.1282 -0.3748
 5807TIP3    H117385   0.105   1.001   2.053 -0.5503 -0.8742 -2.1984
 5807TIP3    H217386   0.219   0.911   2.008  0.9606 -0.3841  0.4220
 5808TIP3   OH217387   0.499   1.252   0.206 -0.0813  0.0467 -0.0678
 5808TIP3    H117388   0.547   1.178   0.169 -0.8031 -0.0630 -0.8228
 5808TIP3    H217389   0.513   1.323   0.144 -1.1054 -0.0663 -0.4518
 5809TIP3   OH217390   6.658   2.209   5.727 -0.0110  0.5170 -0.1077
 5809TIP3    H117391   6.630   2.188   5.816 -1.0535 -0.3974 -0.6403
 5809TIP3    H217392   6.617   2.294   5.709  0.5520  0.9172  0.4146
 5810TIP3   OH217393   5.998   5.661   1.923 -0.0739 -0.1874  0.2770
 5810TIP3    H117394   6.035   5.713   1.851 -1.1728 -1.3548 -1.2065
 5810TIP3    H217395   6.071   5.609   1.955  0.1780 -0.5918 -0.8941
 5811TIP3   OH217396   3.043   2.424   5.612  0.3622 -0.1822 -0.3306
 5811TIP3    H117397   2.969   2.364   5.604 -0.3525  0.8353 -1.9357
 5811TIP3    H217398   3.114   2.382   5.562 -0.0212  0.1078 -1.1395
 5812TIP3   OH217399   5.496   0.572   2.922 -0.1460 -0.2701  0.2166
 5812TIP3    H117400   5.582   0.606   2.950 -0.1101 -0.5355  0.4296
 5812TIP3    H217401   5.516   0.490   2.878 -0.4449 -1.3808  2.0387
 5813TIP3   OH217402   4.400   2.795   4.349  1.4439  0.0751  0.1860
 5813TIP3    H117403   4.485   2.831   4.325  0.4342  0.3717 -3.5969
 5813TIP3    H217404   4.399   2.707   4.310  0.6392 -0.6642  1.7599
 5814TIP3   OH217405   5.051   2.147   5.105  0.3533 -0.0488 -0.0698
 5814TIP3    H117406   5.105   2.214   5.063 -0.0507 -0.4318 -1.2429
 5814TIP3    H217407   5.063   2.069   5.051 -1.1383 -0.2209 -0.1920
 5815TIP3   OH217408   3.665   1.466   0.375  0.7782  0.2628 -0.5523
 5815TIP3    H117409   3.692   1.400   0.439 -1.2967  1.2024  1.4155
 5815TIP3    H217410   3.695   1.549   0.413  0.7890  0.7200 -1.5445
 5816TIP3   OH217411   1.506   1.842   0.394  0.5980 -0.3227 -0.3029
 5816TIP3    H117412   1.466   1.776   0.338  1.8129 -0.1944 -1.3667
 5816TIP3    H217413   1.554   1.899   0.334 -0.7064  1.8019  0.5139
 5817TIP3   OH217414   5.545   5.882   5.384  0.1046  0.2170  0.6966
 5817TIP3    H117415   5.519   5.950   5.447 -0.4536  0.3507  0.3291
 5817TIP3    H217416   5.640   5.874   5.395  0.1332  0.8384  0.9617
 5818TIP3   OH217417   5.933  -0.013   2.377  0.2999 -0.0269 -0.2619
 5818TIP3    H117418   5.983  -0.006   2.459  2.5860 -0.5627 -1.5331
 5818TIP3    H217419   5.891   0.072   2.367  0.3940  0.2165  1.1954
 5819TIP3   OH217420   2.846   2.705   5.112  0.7686 -0.2052  0.4449
 5819TIP3    H117421   2.803   2.624   5.081 -0.6196  0.2984  0.9642
 5819TIP3    H217422   2.845   2.697   5.207 -1.7007  1.4839  0.6574
 5820TIP3   OH217423   4.750   0.877   2.420  0.8310  0.4886 -0.0166
 5820TIP3    H117424   4.731   0.842   2.507  0.5724  1.6800  0.4349
 5820TIP3    H217425   4.679   0.939   2.403  2.1933  2.1490  0.0406
 5821TIP3   OH217426   5.576   1.060   0.397 -0.2294 -0.1976  0.7709
 5821TIP3    H117427   5.645   1.057   0.330  0.1797 -1.7324  1.2259
 5821TIP3    H217428   5.518   0.988   0.374 -0.4406 -0.3340  1.7109
 5822TIP3   OH217429   4.392   1.620   3.168 -0.4138 -0.4698 -0.0610
 5822TIP3    H117430   4.475   1.578   3.191 -0.4100 -0.0104  0.8142
 5822TIP3    H217431   4.417   1.711   3.149 -0.7891 -0.1860  0.7781
 5823TIP3   OH217432   4.618   6.634   5.257 -0.3695 -0.0788 -0.0973
 5823TIP3    H117433   4.605   6.674   5.171 -0.1330  0.5698  0.1659
 5823TIP3    H217434   4.710   6.610   5.259  0.0361  1.4708  0.6263
 5824TIP3   OH217435   3.182   3.224   1.462  0.4134 -0.1818 -0.0496
 5824TIP3    H117436   3.275   3.200   1.460  0.7017  0.8929 -2.4472
 5824TIP3    H217437   3.136   3.141   1.473  1.6206 -0.6699  1.8203
 5825TIP3   OH217438   0.361   0.577   4.977  0.3153 -0.0813 -0.1586
 5825TIP3    H117439   0.372   0.482   4.975  0.7912 -0.0670  1.0150
 5825TIP3    H217440   0.311   0.594   5.057 -2.4685  0.4511 -1.8897
 5826TIP3   OH217441   5.292   2.525   2.445 -0.3057 -0.4028  0.0134
 5826TIP3    H117442   5.279   2.471   2.367  1.3349  0.3949 -0.8625
 5826TIP3    H217443   5.217   2.585   2.444 -1.2899 -1.5825  0.1167
 5827TIP3   OH217444   6.138   3.305   3.304 -0.6506  0.2572  0.1564
 5827TIP3    H117445   6.148   3.320   3.210 -0.6901 -1.2693 -0.1180
 5827TIP3    H217446   6.114   3.390   3.339  0.8615  1.1918 -0.9864
 5828TIP3   OH217447   6.783   6.562   4.125  0.2873 -0.3773 -0.3469
 5828TIP3    H117448   6.771   6.572   4.031 -0.4824 -0.5039 -0.2699
 5828TIP3    H217449   6.851   6.495   4.134  0.3052 -0.4248 -0.8061
 5829TIP3   OH217450   2.498   1.497   0.695  0.6257 -0.2436 -0.0813
 5829TIP3    H117451   2.582   1.534   0.670  1.8848 -1.8491  1.4632
 5829TIP3    H217452   2.470   1.447   0.619  2.2267 -1.5135  0.1085
 5830TIP3   OH217453   7.032   4.783   1.960 -0.3752  0.2284  0.2257
 5830TIP3    H117454   6.938   4.783   1.982 -0.4871  0.0912 -0.2437
 5830TIP3    H217455   7.036   4.740   1.875  0.0102  1.1161 -0.2159
 5831TIP3   OH217456   3.514   3.920   5.726  0.1885  0.1855  0.2846
 5831TIP3    H117457   3.527   3.971   5.645  0.7502  1.9138  1.3952
 5831TIP3    H217458   3.597   3.928   5.772 -0.0138 -1.0688  0.8924
 5832TIP3   OH217459   1.296   5.708   3.173 -0.3640  0.2816  0.5566
 5832TIP3    H117460   1.213   5.755   3.168  0.5854  2.2281  1.8175
 5832TIP3    H217461   1.285   5.648   3.246 -1.2136 -0.7135 -0.3635
 5833TIP3   OH217462   1.355   2.099   5.504  0.9273  0.3047 -0.2122
 5833TIP3    H117463   1.386   2.068   5.589  0.0447 -1.6156 -0.5312
 5833TIP3    H217464   1.331   2.019   5.457 -0.5520  1.4472 -1.5036
 5834TIP3   OH217465   0.956   2.401   3.598  0.0080 -0.5613  0.3391
 5834TIP3    H117466   1.043   2.363   3.589  0.1902 -0.0156 -0.3456
 5834TIP3    H217467   0.971   2.496   3.598 -0.6912 -0.4056 -1.4266
 5835TIP3   OH217468   3.343   1.905   1.519 -0.1122  0.4154  0.0898
 5835TIP3    H117469   3.424   1.855   1.524  0.3222  0.7885 -2.0765
 5835TIP3    H217470   3.361   1.986   1.567 -0.0400 -0.4690  1.6205
 5836TIP3   OH217471   6.649   1.189   3.618  0.0253 -0.2842 -0.3844
 5836TIP3    H117472   6.710   1.221   3.685 -1.4290  0.2376  0.7438
 5836TIP3    H217473   6.702   1.131   3.563  1.5696  0.2812  0.4501
 5837TIP3   OH217474   1.643   0.028   3.240 -0.1468 -0.4154  0.1601
 5837TIP3    H117475   1.652   0.109   3.291 -0.9564 -1.5158  2.1739
 5837TIP3    H217476   1.645   0.057   3.149 -2.8747  2.2172  0.7587
 5838TIP3   OH217477   4.695   2.741   0.308  0.1010  0.7002  0.0115
 5838TIP3    H117478   4.617   2.783   0.345  0.8419  0.9602  1.3387
 5838TIP3    H217479   4.755   2.814   0.289  0.4328  0.4320  0.0148
 5839TIP3   OH217480   6.571   5.227   2.914 -0.0377  0.3708 -0.0783
 5839TIP3    H117481   6.543   5.206   2.824  2.0418 -0.5156 -0.5859
 5839TIP3    H217482   6.537   5.315   2.930 -4.5347 -1.1334  0.0911
 5840TIP3   OH217483   3.284   3.249   4.808  0.4538 -0.3459  0.1739
 5840TIP3    H117484   3.315   3.165   4.773  0.2157  0.3913 -2.0017
 5840TIP3    H217485   3.237   3.227   4.888  0.5076 -2.2607 -0.2787
 5841TIP3   OH217486   0.048   5.072   0.550 -0.9243 -0.7551  0.1515
 5841TIP3    H117487   0.114   5.141   0.550 -0.7454 -0.9143  1.4288
 5841TIP3    H217488  -0.035   5.117   0.533 -0.6502 -0.4036 -0.2558
 5842TIP3   OH217489   4.570   4.012   2.143  0.0155  0.4094 -0.1112
 5842TIP3    H117490   4.504   4.071   2.178 -1.4694 -0.5855 -1.1524
 5842TIP3    H217491   4.599   3.961   2.219 -1.8520 -0.4905  0.0483
 5843TIP3   OH217492   4.693   1.108   5.474  0.8054 -0.1848  0.0731
 5843TIP3    H117493   4.695   1.191   5.522  0.9242  0.1634 -0.5328
 5843TIP3    H217494   4.757   1.053   5.521  0.7440  0.0670  0.4637
 5844TIP3   OH217495   2.978   1.065   5.639  0.2682 -0.5123  0.3593
 5844TIP3    H117496   3.004   1.005   5.709  2.8500  0.8862  0.7579
 5844TIP3    H217497   3.018   1.028   5.560  1.4670  0.3493  0.5271
 5845TIP3   OH217498   6.336   5.309   4.576 -0.0913 -0.0155 -0.0351
 5845TIP3    H117499   6.355   5.250   4.503 -0.3778  1.0949 -1.0347
 5845TIP3    H217500   6.245   5.292   4.597 -0.8240  1.4823 -1.7191
 5846TIP3   OH217501   5.928   5.640   5.164  0.1151 -0.4643  0.4387
 5846TIP3    H117502   5.848   5.591   5.183  0.1696 -0.7659 -0.1115
 5846TIP3    H217503   5.918   5.669   5.074  0.8117 -0.8718  0.2201
 5847TIP3   OH217504   6.042   6.618   3.424  0.4004 -0.2458  0.3150
 5847TIP3    H117505   6.073   6.684   3.485 -1.9146  1.3775 -0.1574
 5847TIP3    H217506   5.981   6.565   3.475  0.6673 -0.7228  0.1465
 5848TIP3   OH217507   6.438   5.251   1.332  0.3982 -0.3296 -0.0359
 5848TIP3    H117508   6.425   5.250   1.237  0.6681  2.6038 -0.2229
 5848TIP3    H217509   6.531   5.236   1.344  0.6605  0.8337 -0.4194
 5849TIP3   OH217510   1.647   3.386   4.906 -0.5800 -0.1186 -0.0543
 5849TIP3    H117511   1.676   3.331   4.979 -0.8711 -0.0865  0.0898
 5849TIP3    H217512   1.691   3.470   4.920 -0.1237 -0.3142 -0.2824
 5850TIP3   OH217513   6.334   1.882   4.843 -0.0645  0.3552 -0.1538
 5850TIP3    H117514   6.406   1.913   4.788 -0.1477  0.2587 -0.3206
 5850TIP3    H217515   6.308   1.799   4.803  0.2577 -0.0093  0.3847
 5851TIP3   OH217516   5.604   3.618   3.715  0.5422 -0.1119 -0.2452
 5851TIP3    H117517   5.524   3.611   3.663  0.6952  1.3591 -0.7392
 5851TIP3    H217518   5.658   3.544   3.686  0.4388  0.4219 -1.9144
 5852TIP3   OH217519   3.956   2.668   0.935 -0.4110  0.2502 -0.2858
 5852TIP3    H117520   3.983   2.617   1.012  0.2416  0.9194 -0.0564
 5852TIP3    H217521   3.877   2.624   0.904 -0.9770  0.2528  1.0693
 5853TIP3   OH217522   5.217   6.123   1.766 -0.1168  0.3635 -0.0916
 5853TIP3    H117523   5.289   6.061   1.778 -0.0015  0.4350 -0.4091
 5853TIP3    H217524   5.149   6.073   1.720  0.2977  0.6919 -1.0927
 5854TIP3   OH217525   5.322   1.936   3.659  0.1747 -0.9296 -0.5328
 5854TIP3    H117526   5.394   1.873   3.662  0.6175 -0.4117 -0.0212
 5854TIP3    H217527   5.311   1.956   3.566  0.6990 -0.9946 -0.6098
 5855TIP3   OH217528   0.696   3.530   0.422  0.3320 -0.4895 -0.0357
 5855TIP3    H117529   0.704   3.615   0.379 -1.4050 -0.7794 -1.0395
 5855TIP3    H217530   0.781   3.488   0.409  1.0079  0.8335 -0.0485
 5856TIP3   OH217531   2.080   3.474   1.814 -0.3202  0.1468 -0.6823
 5856TIP3    H117532   2.084   3.506   1.904  1.2991 -1.8936  0.0485
 5856TIP3    H217533   2.152   3.519   1.770 -0.6607  0.5995 -0.7884
 5857TIP3   OH217534   7.038   6.479   5.860 -0.1965 -0.0217 -0.0054
 5857TIP3    H117535   7.053   6.461   5.953 -1.5884  1.7287  0.6142
 5857TIP3    H217536   7.116   6.527   5.832  0.3099 -0.7186  0.1990
 5858TIP3   OH217537   0.738   6.192   4.725 -0.2211 -0.1436  0.0994
 5858TIP3    H117538   0.774   6.278   4.744 -1.9303  0.4340  0.9010
 5858TIP3    H217539   0.811   6.131   4.740  0.3948  0.9483  1.7680
 5859TIP3   OH217540   6.329   4.212   0.741  0.1185 -0.3417  0.1638
 5859TIP3    H117541   6.342   4.151   0.814 -1.7062 -0.6422  0.2785
 5859TIP3    H217542   6.413   4.212   0.695 -0.1940 -4.2070 -0.7521
 5860TIP3   OH217543   4.197   2.742   5.549  0.3382 -0.7985  0.3966
 5860TIP3    H117544   4.174   2.825   5.507 -0.7763 -0.8561  0.8349
 5860TIP3    H217545   4.244   2.767   5.629 -0.1193 -0.5661  0.6020
 5861TIP3   OH217546   1.809   0.007   2.652 -0.6716 -0.0477  0.4786
 5861TIP3    H117547   1.809  -0.050   2.575  2.8554  0.6935 -0.2561
 5861TIP3    H217548   1.787   0.094   2.617 -0.7779 -0.0053  0.6484
 5862TIP3   OH217549   2.080   2.858   1.092  0.4541 -0.8929  0.4025
 5862TIP3    H117550   2.086   2.899   1.005  0.0247  0.1712  0.8647
 5862TIP3    H217551   2.072   2.764   1.073 -0.4974 -0.6067 -0.7328
 5863TIP3   OH217552   1.700   4.427   1.708 -0.2739  0.3188  0.3527
 5863TIP3    H117553   1.622   4.473   1.739  0.2781  0.9536  0.8606
 5863TIP3    H217554   1.739   4.390   1.787  0.7320  1.2871  0.3419
 5864TIP3   OH217555   2.396   4.390   5.857  0.3180 -0.1219  0.1183
 5864TIP3    H117556   2.430   4.418   5.942  1.0490 -0.7263  0.0391
 5864TIP3    H217557   2.474   4.366   5.807 -0.1574 -0.4812 -0.4665
 5865TIP3   OH217558   0.129   3.448   4.609 -0.2834  0.4596 -0.3632
 5865TIP3    H117559   0.175   3.461   4.692  1.2502  2.4353 -1.4405
 5865TIP3    H217560   0.072   3.373   4.625  1.3730 -0.4389  1.8807
 5866TIP3   OH217561   3.883   5.051   3.892 -0.1675 -0.6269 -0.5955
 5866TIP3    H117562   3.944   5.081   3.824  1.0080 -0.9496  0.2900
 5866TIP3    H217563   3.890   5.115   3.962  0.4737 -1.5938  0.2494
 5867TIP3   OH217564   0.151   4.338   4.993 -0.0427 -0.0311  0.1837
 5867TIP3    H117565   0.064   4.373   4.975  1.1268  1.5632 -3.2833
 5867TIP3    H217566   0.188   4.400   5.056 -0.8138  0.2846  0.3411
 5868TIP3   OH217567   6.483   6.172   0.381  0.0380  0.4934 -0.3901
 5868TIP3    H117568   6.408   6.137   0.430 -0.9872  1.4025 -1.2648
 5868TIP3    H217569   6.499   6.106   0.313  0.2067  0.1716 -0.0426
 5869TIP3   OH217570   2.914   1.875   0.942  0.4923  0.0254  0.1499
 5869TIP3    H117571   2.980   1.827   0.991  0.2331 -0.5707 -0.0704
 5869TIP3    H217572   2.874   1.933   1.007  0.8765  0.0100  0.4017
 5870TIP3   OH217573   4.880   6.576   5.305 -0.0197 -0.0784  0.3289
 5870TIP3    H117574   4.976   6.575   5.312 -0.1120 -0.5803  1.5441
 5870TIP3    H217575   4.853   6.487   5.326 -0.6934 -0.2815 -1.2593
 5871TIP3   OH217576   1.702   1.508   0.245  0.2128  0.0498  0.0590
 5871TIP3    H117577   1.711   1.508   0.340 -0.3641 -0.3777  0.1193
 5871TIP3    H217578   1.790   1.525   0.213  0.2945  0.8454  0.6778
 5872TIP3   OH217579   7.092   1.695   2.679 -0.1318  0.3035  0.2246
 5872TIP3    H117580   7.094   1.630   2.609 -0.0413  0.1975  0.3234
 5872TIP3    H217581   7.182   1.696   2.713 -0.1770  0.3446  0.3460
 5873TIP3   OH217582   4.078   4.361   0.280 -0.6139  0.6136 -0.1310
 5873TIP3    H117583   4.099   4.359   0.186  0.1784  1.2259  0.0290
 5873TIP3    H217584   4.150   4.409   0.320 -1.5894  1.4889  0.6261
 5874TIP3   OH217585   5.976   6.119   5.324  0.4043  0.0091 -0.5124
 5874TIP3    H117586   6.058   6.143   5.367  0.0612 -1.0006  0.7754
 5874TIP3    H217587   5.911   6.122   5.393 -1.0450  2.5548 -1.8745
 5875TIP3   OH217588   5.723   0.205   0.245  0.2982  0.3370 -0.6576
 5875TIP3    H117589   5.791   0.141   0.224  1.2338  0.7040  1.0437
 5875TIP3    H217590   5.642   0.154   0.250  1.0613 -0.8153  0.9167
 5876TIP3   OH217591   6.852   2.100   4.604 -0.1550 -0.2854  0.2667
 5876TIP3    H117592   6.795   2.170   4.634  0.2136  0.0489  0.1937
 5876TIP3    H217593   6.801   2.054   4.537 -0.0752  0.4493 -0.3052
 5877TIP3   OH217594   5.826   3.834   2.655  0.2593  0.2258 -0.3290
 5877TIP3    H117595   5.806   3.741   2.651  1.9568 -0.2990  1.5651
 5877TIP3    H217596   5.833   3.861   2.563 -1.7308 -1.1142 -0.9385
 5878TIP3   OH217597   1.660   3.477   4.172 -0.5515 -0.3072 -0.4249
 5878TIP3    H117598   1.694   3.507   4.257  0.3334 -0.4810 -0.7080
 5878TIP3    H217599   1.688   3.385   4.166  2.0164  0.4736 -2.1702
 5879TIP3   OH217600   5.936   1.994   4.735  0.9637  0.0192  0.4125
 5879TIP3    H117601   5.925   1.913   4.785  1.4895  0.1559  0.7582
 5879TIP3    H217602   5.895   1.975   4.651 -1.1616  0.2568  1.3391
 5880TIP3   OH217603   4.589   5.856   0.697 -0.0178 -0.6954 -0.1017
 5880TIP3    H117604   4.515   5.799   0.678  0.2748 -0.9384 -0.5320
 5880TIP3    H217605   4.623   5.823   0.781 -0.3159 -0.6628  0.0335
 5881TIP3   OH217606   4.576   2.169   1.535  0.4024  0.3194  0.1628
 5881TIP3    H117607   4.506   2.185   1.599 -1.7570 -2.7822 -1.1315
 5881TIP3    H217608   4.627   2.098   1.574 -0.8330 -1.4840 -1.3384
 5882TIP3   OH217609   3.949   3.095   0.462  0.7072  0.0481 -0.3627
 5882TIP3    H117610   4.008   3.171   0.456 -0.3243  0.8369 -0.7579
 5882TIP3    H217611   3.872   3.128   0.507 -0.7953 -0.0824 -2.6822
 5883TIP3   OH217612   1.341   3.684   4.692 -0.2984 -0.1979 -0.2475
 5883TIP3    H117613   1.306   3.756   4.641 -0.1963  0.0413  0.0171
 5883TIP3    H217614   1.433   3.704   4.703 -0.2020 -0.5282 -0.4396
 5884TIP3   OH217615   1.400   1.067   5.535 -0.3405  0.0969 -0.4622
 5884TIP3    H117616   1.317   1.022   5.551 -0.9724  0.9298 -1.2730
 5884TIP3    H217617   1.424   1.044   5.445 -0.1077  0.5012 -0.5078
 5885TIP3   OH217618   0.274   5.278   4.689 -0.0393 -0.0826  0.2845
 5885TIP3    H117619   0.318   5.322   4.762 -0.2292  0.2772  0.1790
 5885TIP3    H217620   0.337   5.282   4.617  1.4114 -2.9752  1.1920
 5886TIP3   OH217621   1.201   0.143   1.799  0.7944 -0.1610 -0.0677
 5886TIP3    H117622   1.272   0.133   1.736  1.8438 -2.5104  1.3469
 5886TIP3    H217623   1.208   0.065   1.855  0.3577  2.0661  3.3551
 5887TIP3   OH217624   7.007   1.405   4.639  0.0057 -0.3260  0.0533
 5887TIP3    H117625   7.069   1.477   4.648  0.6354 -0.6904 -1.1586
 5887TIP3    H217626   6.923   1.443   4.666  0.2897  0.9232 -0.7149
 5888TIP3   OH217627   0.736   5.010   3.387 -0.5415  0.4075  0.1758
 5888TIP3    H117628   0.729   5.048   3.300  0.7122  0.6402  0.1484
 5888TIP3    H217629   0.814   5.052   3.425  0.6858 -1.7946  0.2766
 5889TIP3   OH217630   4.449   6.516   4.731 -0.3134  0.6261 -0.1087
 5889TIP3    H117631   4.471   6.446   4.792  0.6723 -0.0570 -1.2157
 5889TIP3    H217632   4.384   6.477   4.672  0.3686  0.5793 -0.8369
 5890TIP3   OH217633   4.449   0.047   0.178 -0.7104 -0.2513 -0.1947
 5890TIP3    H117634   4.479   0.065   0.089  0.8853  0.8574  0.5134
 5890TIP3    H217635   4.519  -0.005   0.217 -0.8255  0.3045  0.7797
 5891TIP3   OH217636   5.385   0.717   2.700 -0.4806 -0.2202  0.0297
 5891TIP3    H117637   5.419   0.757   2.619  0.2062 -2.6357 -0.9669
 5891TIP3    H217638   5.458   0.722   2.762 -0.6766  0.7616  0.1926
 5892TIP3   OH217639   4.360   0.805   1.419  0.2305  0.0040  0.2235
 5892TIP3    H117640   4.290   0.756   1.376  0.7715  0.2714 -0.9996
 5892TIP3    H217641   4.316   0.852   1.490 -0.7453 -0.2013 -0.2287
 5893TIP3   OH217642   6.051   0.931   4.733  0.2532  0.1211  0.6253
 5893TIP3    H117643   6.067   0.938   4.639  0.5496 -0.2851  0.6418
 5893TIP3    H217644   6.009   1.013   4.757  2.1564  1.1800  0.5380
 5894TIP3   OH217645   5.212   2.918   0.046 -0.3641  0.0502  0.2291
 5894TIP3    H117646   5.304   2.945   0.050  0.0162 -1.2016  0.4668
 5894TIP3    H217647   5.184   2.944  -0.041  1.2834 -2.6236 -1.2454
 5895TIP3   OH217648   4.201   5.772   1.807 -0.1913  0.0174 -0.5427
 5895TIP3    H117649   4.252   5.725   1.873 -0.3583 -0.0854 -0.4889
 5895TIP3    H217650   4.127   5.809   1.855 -0.6610 -0.5862 -0.7860
 5896TIP3   OH217651   0.875   5.634   1.304 -0.6425  0.7434 -0.1351
 5896TIP3    H117652   0.917   5.657   1.387  1.0821 -0.6559 -0.5446
 5896TIP3    H217653   0.900   5.704   1.244 -2.0079  1.8337  0.4950
 5897TIP3   OH217654   6.474   2.798   3.296 -0.3471  0.3819  0.4804
 5897TIP3    H117655   6.509   2.883   3.323  1.3768  0.1242 -0.7641
 5897TIP3    H217656   6.431   2.816   3.212 -2.8350  0.5801  1.7149
 5898TIP3   OH217657   4.500   4.697   1.813  0.1341  0.1543 -0.3734
 5898TIP3    H117658   4.542   4.721   1.730  1.5099 -1.5125 -0.2268
 5898TIP3    H217659   4.569   4.655   1.864 -1.0880 -0.3093  0.9778
 5899TIP3   OH217660   1.570   0.853   4.535 -0.2027 -0.7037 -0.5227
 5899TIP3    H117661   1.631   0.917   4.570 -0.0767 -1.1953  0.1712
 5899TIP3    H217662   1.483   0.886   4.559 -0.1207 -0.9883  0.1677
 5900TIP3   OH217663   6.955   3.396   2.899  0.0070 -0.3557 -0.2084
 5900TIP3    H117664   6.951   3.480   2.943  0.4754  0.5912 -1.8736
 5900TIP3    H217665   7.023   3.347   2.946  0.1888  0.4330  0.3680
 5901TIP3   OH217666   1.443   2.170   1.032  0.4083 -0.0650 -0.4235
 5901TIP3    H117667   1.526   2.204   1.064 -0.0603 -1.0905  2.1341
 5901TIP3    H217668   1.398   2.246   0.996  1.8151  0.8054 -0.4184
 5902TIP3   OH217669   3.395   6.544   1.413 -0.0442 -0.4280 -0.1948
 5902TIP3    H117670   3.386   6.610   1.345 -0.4168  0.5609  0.7835
 5902TIP3    H217671   3.316   6.491   1.405  0.1954 -0.6955 -0.9017
 5903TIP3   OH217672   1.213   2.510   0.755 -0.2919 -0.3352 -0.0984
 5903TIP3    H117673   1.139   2.451   0.767 -0.4320 -0.3763 -1.1035
 5903TIP3    H217674   1.256   2.480   0.675  0.8421 -0.3346  0.4880
 5904TIP3   OH217675   2.668   4.589   5.868  0.1973 -0.2503 -0.5225
 5904TIP3    H117676   2.685   4.538   5.789 -0.8312  0.7491 -1.4161
 5904TIP3    H217677   2.749   4.637   5.884  0.3391 -0.3089 -1.0699
 5905TIP3   OH217678   2.088   6.688   1.519 -0.0428  0.6037 -0.5309
 5905TIP3    H117679   2.172   6.677   1.474 -0.3857  0.7497 -1.2089
 5905TIP3    H217680   2.067   6.600   1.551 -0.1875  0.3372 -1.3466
 5906TIP3   OH217681   0.650   0.343   1.900 -0.6180  0.3209  0.2530
 5906TIP3    H117682   0.612   0.256   1.909 -0.5535  0.5203  3.4414
 5906TIP3    H217683   0.575   0.402   1.892 -0.6595  0.0291 -2.9687
 5907TIP3   OH217684   0.631   2.410   0.512  0.3905 -0.0195 -0.6075
 5907TIP3    H117685   0.608   2.340   0.451 -0.1540 -0.5429  0.1921
 5907TIP3    H217686   0.716   2.384   0.548 -0.6335 -1.2023  1.0368
 5908TIP3   OH217687   6.131   3.149   2.134 -0.2075  0.0397 -0.4533
 5908TIP3    H117688   6.189   3.204   2.187  0.1443 -0.7929  0.0548
 5908TIP3    H217689   6.175   3.143   2.049 -0.1825  0.4419 -0.4681
 5909TIP3   OH217690   3.758   4.708   4.812  0.4645 -0.0913  0.1755
 5909TIP3    H117691   3.671   4.733   4.782  0.8148 -1.0081 -1.7536
 5909TIP3    H217692   3.764   4.614   4.794  1.6581 -0.1529  0.7832
 5910TIP3   OH217693   1.487   4.483   3.118  0.4762 -0.1412  0.1293
 5910TIP3    H117694   1.489   4.568   3.161 -1.5023  0.8295 -1.5323
 5910TIP3    H217695   1.420   4.433   3.166 -0.5509  0.3605 -0.7412
 5911TIP3   OH217696   5.695   6.022   4.865 -0.3209 -0.1799  0.2993
 5911TIP3    H117697   5.666   5.967   4.938 -1.8675 -0.3468 -0.3866
 5911TIP3    H217698   5.745   5.963   4.809 -0.7176 -0.5319  0.3080
 5912TIP3   OH217699   3.225   6.419   2.446  0.0023 -0.2998  0.2355
 5912TIP3    H117700   3.189   6.457   2.527 -0.1539 -0.2355  0.1373
 5912TIP3    H217701   3.291   6.483   2.417 -0.4274  0.0185 -0.0573
 5913TIP3   OH217702   1.534   5.732   5.067 -0.0093 -0.4138  0.4884
 5913TIP3    H117703   1.484   5.660   5.029 -0.6983 -1.1327  2.6189
 5913TIP3    H217704   1.534   5.715   5.161  2.0065  1.0152  0.8232
 5914TIP3   OH217705   0.392   3.386   0.623  0.6419 -0.3679 -0.4483
 5914TIP3    H117706   0.405   3.408   0.531 -0.2792 -0.6579 -0.6567
 5914TIP3    H217707   0.357   3.466   0.662  1.8979  0.0560 -0.1284
 5915TIP3   OH217708   3.393   5.755   4.375 -0.0974 -0.1095 -0.3612
 5915TIP3    H117709   3.434   5.681   4.330  0.8410  0.2494 -0.1181
 5915TIP3    H217710   3.363   5.812   4.305 -0.1652 -0.3700 -0.5450
 5916TIP3   OH217711   5.985   3.804   3.997 -0.3720 -0.1328  0.3628
 5916TIP3    H117712   5.962   3.716   4.025 -3.6621  1.4844  3.6926
 5916TIP3    H217713   6.035   3.841   4.070  2.5288  0.3614 -1.7075
 5917TIP3   OH217714   4.613   1.293   5.664  0.2190  0.2259  0.4099
 5917TIP3    H117715   4.639   1.377   5.701 -0.7013  0.4643  0.5390
 5917TIP3    H217716   4.544   1.260   5.722 -0.0139 -0.2197 -0.0980
 5918TIP3   OH217717   0.873   6.281   0.301 -0.3439  0.3604  0.0065
 5918TIP3    H117718   0.853   6.188   0.292 -2.3205  0.8502 -1.2143
 5918TIP3    H217719   0.787   6.325   0.301  0.5399  2.2056  0.2370
 5919TIP3   OH217720   4.716   2.040   3.014 -0.7548 -0.2095  0.1233
 5919TIP3    H117721   4.678   2.057   2.928 -2.0456  1.5567  0.9807
 5919TIP3    H217722   4.792   1.984   2.997 -0.8869  0.2402 -2.1564
 5920TIP3   OH217723   4.538   1.072   0.983  0.7822 -0.2958  0.2130
 5920TIP3    H117724   4.570   1.159   1.008 -2.1210  1.1296 -0.5938
 5920TIP3    H217725   4.498   1.037   1.063 -1.6356  0.9413 -0.3683
 5921TIP3   OH217726   1.689   5.936   5.386 -0.4053  0.3953  0.3586
 5921TIP3    H117727   1.606   5.972   5.417 -0.1872  0.6981  0.5942
 5921TIP3    H217728   1.700   5.972   5.298  0.0536  1.3079  0.7800
 5922TIP3   OH217729   5.328   6.194   4.366  0.0142  0.2218  0.1933
 5922TIP3    H117730   5.239   6.221   4.342  0.0787  1.3201  1.1033
 5922TIP3    H217731   5.383   6.224   4.294 -0.2284  0.4553  0.1033
 5923TIP3   OH217732   3.083   2.918   0.818 -0.7137 -0.3299  0.6993
 5923TIP3    H117733   3.087   3.003   0.863 -1.7593 -1.2093  2.6265
 5923TIP3    H217734   2.991   2.909   0.794 -0.5081 -0.7000  0.0514
 5924TIP3   OH217735   3.990   4.833   2.820  0.0573 -0.1272  0.1008
 5924TIP3    H117736   3.958   4.828   2.731  0.9192 -0.2490 -0.2138
 5924TIP3    H217737   3.944   4.763   2.867 -0.6988  0.2049 -0.1411
 5925TIP3   OH217738   2.186   4.721   4.243 -0.2809  0.0624  0.1976
 5925TIP3    H117739   2.252   4.757   4.183 -0.5390  2.4468  1.2358
 5925TIP3    H217740   2.233   4.653   4.292  0.4243 -0.6369 -1.3700
 5926TIP3   OH217741   3.739   4.314   3.919 -0.1267 -0.3032  0.1346
 5926TIP3    H117742   3.764   4.284   3.832 -0.1846  0.2506 -0.0796
 5926TIP3    H217743   3.815   4.296   3.974  0.2015  0.0470 -0.1998
 5927TIP3   OH217744   0.862   5.741   2.425  0.7260 -0.4753  0.2811
 5927TIP3    H117745   0.902   5.660   2.458 -1.5754 -0.6924  2.8918
 5927TIP3    H217746   0.924   5.809   2.449  0.9512 -1.0987  1.5984
 5928TIP3   OH217747   5.962   3.193   3.481  0.1399 -0.5553  0.1940
 5928TIP3    H117748   5.976   3.234   3.566 -1.6285  0.6825 -0.0541
 5928TIP3    H217749   6.034   3.223   3.427  0.3072  0.0854  0.7707
 5929TIP3   OH217750   5.489   2.908   5.732 -0.0162  0.2931  0.1542
 5929TIP3    H117751   5.544   2.975   5.689  1.4838 -0.9215  0.0885
 5929TIP3    H217752   5.552   2.846   5.769 -1.3627 -1.4831 -0.4179
 5930TIP3   OH217753   4.238   5.380   3.695  0.7341 -0.7408 -0.1275
 5930TIP3    H117754   4.264   5.428   3.616 -1.1661  0.1913 -0.2561
 5930TIP3    H217755   4.319   5.373   3.747  1.6221  0.3021 -1.3020
 5931TIP3   OH217756   0.835   0.590   5.502  0.2676  0.0178 -0.1769
 5931TIP3    H117757   0.773   0.565   5.569 -0.7716  2.1175 -0.2656
 5931TIP3    H217758   0.804   0.547   5.422  1.0541 -1.8426  0.4843
 5932TIP3   OH217759   6.777   3.285   4.499 -0.4912  0.1366 -0.4711
 5932TIP3    H117760   6.824   3.272   4.417 -0.4196  1.0913 -0.5918
 5932TIP3    H217761   6.732   3.369   4.488 -0.9516 -0.0089  0.2434
 5933TIP3   OH217762   5.172   0.587   3.530  0.5479 -0.4471  0.0077
 5933TIP3    H117763   5.138   0.598   3.441 -1.5352 -1.3808  0.6153
 5933TIP3    H217764   5.094   0.568   3.583  1.5658  1.2286  2.2727
 5934TIP3   OH217765   0.408   5.285   2.289  0.0658 -0.2674  0.6158
 5934TIP3    H117766   0.443   5.313   2.373  1.0555  0.6345 -0.0682
 5934TIP3    H217767   0.473   5.224   2.254 -0.5284 -0.9479  0.6667
 5935TIP3   OH217768   6.487   5.660   1.465 -0.4798  0.1696 -0.3758
 5935TIP3    H117769   6.422   5.594   1.487 -0.3191 -0.3215 -1.2922
 5935TIP3    H217770   6.452   5.742   1.499 -0.8640 -0.3207  0.4407
 5936TIP3   OH217771   5.095   5.536   0.221  0.4592  0.1787  0.2284
 5936TIP3    H117772   5.163   5.587   0.178 -0.2909  2.9342  2.0815
 5936TIP3    H217773   5.142   5.483   0.286  1.1466 -0.9594 -1.1226
 5937TIP3   OH217774   2.744   1.245   4.874 -0.4848 -0.1171 -0.1597
 5937TIP3    H117775   2.767   1.180   4.940  0.1727  1.3593  1.1171
 5937TIP3    H217776   2.825   1.256   4.823 -0.4648 -0.0045 -0.1045
 5938TIP3   OH217777   5.599   5.503   4.855  0.1096 -0.1475  0.1393
 5938TIP3    H117778   5.658   5.429   4.843 -2.4295 -2.2749 -0.0971
 5938TIP3    H217779   5.619   5.562   4.783  1.7264 -0.9255 -0.0819
 5939TIP3   OH217780   6.398   2.387   2.866  0.1102 -0.8374 -0.4776
 5939TIP3    H117781   6.353   2.404   2.949  1.9309 -0.0110  0.3918
 5939TIP3    H217782   6.451   2.309   2.883 -1.1259 -1.9757 -1.5809
 5940TIP3   OH217783   1.692   6.525   4.653 -0.8038  0.1511  0.2618
 5940TIP3    H117784   1.754   6.453   4.667  0.7622  1.1232 -1.3490
 5940TIP3    H217785   1.739   6.603   4.681 -2.0369  0.7368  0.8099
 5941TIP3   OH217786   5.249   1.823   3.891 -0.0786  0.3943  0.0053
 5941TIP3    H117787   5.267   1.895   3.831 -0.3363 -0.1895 -0.7995
 5941TIP3    H217788   5.187   1.858   3.954  0.9412  1.3081  0.5182
 5942TIP3   OH217789   6.744   5.254   5.388 -0.4280 -0.1855 -0.2204
 5942TIP3    H117790   6.835   5.237   5.413 -0.5957 -2.1613 -0.8138
 5942TIP3    H217791   6.693   5.238   5.467 -0.3164  0.4861 -0.0061
 5943TIP3   OH217792   2.540   2.757   4.156 -0.1535 -0.1675 -0.0870
 5943TIP3    H117793   2.576   2.675   4.120  0.8469  0.4509 -0.5425
 5943TIP3    H217794   2.596   2.776   4.231 -1.1787 -0.5520  0.7975
 5944TIP3   OH217795   0.683   0.752   3.274  0.1229 -0.4082  0.2584
 5944TIP3    H117796   0.593   0.721   3.275  0.0251 -0.1201  0.3225
 5944TIP3    H217797   0.732   0.680   3.234  0.0131 -0.9497  1.0707
 5945TIP3   OH217798   2.524   0.484   0.885  0.0714  0.5413 -0.1541
 5945TIP3    H117799   2.465   0.542   0.933 -1.3394 -1.3553  0.4942
 5945TIP3    H217800   2.602   0.478   0.940 -0.5773  0.2680  0.7570
 5946TIP3   OH217801   0.615   4.234   2.168  0.0151  0.0153 -0.4533
 5946TIP3    H117802   0.547   4.225   2.234  1.2347 -1.1684  0.7054
 5946TIP3    H217803   0.643   4.325   2.174 -0.8153  0.2718 -0.3108
 5947TIP3   OH217804   2.917   0.401   1.893 -0.8090  0.0705 -0.0161
 5947TIP3    H117805   2.844   0.368   1.947 -0.1021 -0.5898  0.5568
 5947TIP3    H217806   2.985   0.424   1.957 -0.5089  0.6865 -0.5471
 5948TIP3   OH217807   0.098   0.390   4.076 -0.2784  0.0222  0.3693
 5948TIP3    H117808   0.133   0.470   4.038 -0.7248 -0.7940 -1.9323
 5948TIP3    H217809   0.108   0.401   4.170  0.8087  2.2310  0.0448
 5949TIP3   OH217810   5.864   0.144   3.555  0.3388  0.1767  0.0228
 5949TIP3    H117811   5.904   0.122   3.639  1.9001 -1.8272 -1.1521
 5949TIP3    H217812   5.770   0.151   3.574  0.7316  0.6275  2.0453
 5950TIP3   OH217813   6.989   4.765   3.524  0.1581 -0.1275 -0.1747
 5950TIP3    H117814   7.019   4.675   3.515  0.5501 -0.0907  0.6621
 5950TIP3    H217815   6.997   4.784   3.618 -2.5807 -0.1217  0.1317
 5951TIP3   OH217816   2.710   4.488   4.594 -0.6139  0.4020  0.0996
 5951TIP3    H117817   2.717   4.438   4.675  1.0304 -2.1503 -1.4850
 5951TIP3    H217818   2.784   4.550   4.598  0.9681 -1.3468 -0.3826
 5952TIP3   OH217819   2.001   6.282   4.222 -0.5967 -0.5279 -0.3623
 5952TIP3    H117820   2.067   6.258   4.287  0.4969 -0.9190 -1.5945
 5952TIP3    H217821   1.942   6.340   4.270  0.6827 -0.0850  0.7549
 5953TIP3   OH217822   6.818   4.275   3.177  0.4354  0.3531  0.2146
 5953TIP3    H117823   6.874   4.346   3.208  1.3901 -0.3398  0.1145
 5953TIP3    H217824   6.865   4.195   3.201 -0.6041 -0.2510  0.2952
 5954TIP3   OH217825   4.964   5.539   4.720  0.0995 -0.2111  0.8236
 5954TIP3    H117826   4.995   5.619   4.677  1.4536 -0.4479  1.3283
 5954TIP3    H217827   5.031   5.474   4.701 -1.6050 -1.6282 -0.6772
 5955TIP3   OH217828   6.094   5.429   0.919 -0.3127 -0.2105 -0.2923
 5955TIP3    H117829   6.024   5.365   0.930 -1.1802  0.8951  1.0628
 5955TIP3    H217830   6.076   5.472   0.835 -0.0334 -1.3290 -0.9432
 5956TIP3   OH217831   3.344   3.577   3.208 -0.0130 -0.1822  0.0721
 5956TIP3    H117832   3.320   3.520   3.281 -1.3454 -0.3716 -0.4723
 5956TIP3    H217833   3.281   3.554   3.139  1.2316 -0.0376 -1.1508
 5957TIP3   OH217834   5.080   4.239   4.325  0.0463  0.2263 -0.3152
 5957TIP3    H117835   5.081   4.227   4.420  1.0995  2.0510 -0.0404
 5957TIP3    H217836   5.088   4.150   4.290 -0.0339 -0.4638  1.2932
 5958TIP3   OH217837   1.128   2.980   1.382 -0.0739  0.1693  0.5671
 5958TIP3    H117838   1.146   2.926   1.459  2.0606  0.4280  0.3097
 5958TIP3    H217839   1.160   2.927   1.309 -3.7432 -0.9015 -0.4602
 5959TIP3   OH217840   4.114   3.809   1.656  0.3961  0.3563  0.9945
 5959TIP3    H117841   4.053   3.743   1.688 -1.4441  1.8703  0.7255
 5959TIP3    H217842   4.150   3.773   1.575  0.5600 -0.9230  1.6212
 5960TIP3   OH217843   1.126   5.423   5.759 -0.1549 -0.0586  0.1420
 5960TIP3    H117844   1.179   5.399   5.835  1.9850  0.7858 -0.9809
 5960TIP3    H217845   1.107   5.340   5.716 -1.8887 -0.6076  1.8326
 5961TIP3   OH217846   5.175   5.854   0.997 -0.1670 -0.0069  0.0245
 5961TIP3    H117847   5.230   5.914   0.946  0.0441 -0.2386 -0.0229
 5961TIP3    H217848   5.224   5.771   0.997  0.8028  0.4944  2.2223
 5962TIP3   OH217849   0.282   1.954   0.761  0.1733  0.4948  0.5765
 5962TIP3    H117850   0.258   1.955   0.854  0.5871 -1.1653  0.7356
 5962TIP3    H217851   0.205   1.988   0.716 -1.0697 -1.1712  1.3508
 5963TIP3   OH217852   5.115   0.142   0.121 -0.5702 -0.1579  0.1776
 5963TIP3    H117853   5.117   0.172   0.030 -0.4525  1.1579  0.5843
 5963TIP3    H217854   5.203   0.162   0.154 -0.6564 -0.4957  0.6125
 5964TIP3   OH217855   5.411   3.654   3.962 -0.2944 -0.3742  0.3820
 5964TIP3    H117856   5.488   3.680   3.911 -0.0928  2.6595  2.0235
 5964TIP3    H217857   5.339   3.706   3.926 -0.2631  1.3742  2.6570
 5965TIP3   OH217858   0.595   5.270   1.534  0.2226 -0.1214 -0.3354
 5965TIP3    H117859   0.636   5.185   1.545  0.6970  0.0178 -1.0286
 5965TIP3    H217860   0.521   5.269   1.595  0.5290 -0.8284  0.0290
 5966TIP3   OH217861   2.005   1.559   4.700 -0.3094 -0.2884  0.2383
 5966TIP3    H117862   1.934   1.560   4.765 -0.2592  1.6574  0.3299
 5966TIP3    H217863   1.961   1.575   4.617 -0.2515 -1.7763 -0.1143
 5967TIP3   OH217864   5.267   6.126   0.900  0.0930 -0.0202 -0.3358
 5967TIP3    H117865   5.196   6.119   0.836  0.5995 -1.9170 -0.7587
 5967TIP3    H217866   5.346   6.131   0.847  0.3613  1.1476  0.1435
 5968TIP3   OH217867   2.619   3.472   2.266 -0.5051  0.6002  0.1842
 5968TIP3    H117868   2.557   3.469   2.339 -0.3682  2.9615  0.4671
 5968TIP3    H217869   2.564   3.491   2.189 -0.7614 -2.6279 -0.6020
 5969TIP3   OH217870   0.053   4.513   5.586  0.2943 -0.0344  0.6516
 5969TIP3    H117871   0.143   4.541   5.570  0.5368 -0.7584  0.7008
 5969TIP3    H217872   0.050   4.496   5.680 -0.6227  2.4637  1.1334
 5970TIP3   OH217873   0.959   5.406   0.606  0.3006 -0.1459 -0.2010
 5970TIP3    H117874   0.984   5.340   0.671  1.2862 -1.1184 -1.4886
 5970TIP3    H217875   0.922   5.355   0.534  0.4010  0.7728 -0.9228
 5971TIP3   OH217876   5.430   6.374   1.288 -0.7965  0.0551  0.5804
 5971TIP3    H117877   5.428   6.284   1.253  0.4580  0.0186  0.5563
 5971TIP3    H217878   5.371   6.423   1.231 -1.6091 -0.7788  0.6794
 5972TIP3   OH217879   2.783   2.059   5.555  0.0317  0.0348 -0.1669
 5972TIP3    H117880   2.782   2.099   5.642 -0.7547  1.5783 -0.8578
 5972TIP3    H217881   2.760   1.967   5.571  0.7478  0.0785  1.3240
 5973TIP3   OH217882   7.088   3.680   2.747  0.8791  0.3156 -0.2263
 5973TIP3    H117883   7.132   3.602   2.713  0.4123  0.1600 -0.4895
 5973TIP3    H217884   7.155   3.748   2.745  1.3129 -0.0962  0.0766
 5974TIP3   OH217885   5.042   3.539   0.586  0.2087  0.1111  1.0075
 5974TIP3    H117886   5.059   3.624   0.626  1.9050 -0.1010  0.7915
 5974TIP3    H217887   5.007   3.486   0.658  1.7313  0.2043  1.8622
 5975TIP3   OH217888   1.523   4.103   0.219  0.0584  0.8890 -0.2544
 5975TIP3    H117889   1.567   4.054   0.288 -1.4704 -0.3748 -0.1186
 5975TIP3    H217890   1.516   4.041   0.146  1.4927  2.1472 -1.5241
 5976TIP3   OH217891   6.770   5.388   1.199  0.0517  0.0605  0.1484
 5976TIP3    H117892   6.824   5.323   1.245 -0.3281 -0.1122  0.3484
 5976TIP3    H217893   6.735   5.444   1.268 -0.3603 -0.0791  0.0538
 5977TIP3   OH217894   5.596   0.972   0.023 -0.1167  0.0246  0.5232
 5977TIP3    H117895   5.618   0.907  -0.043 -0.2908  1.3040 -0.8523
 5977TIP3    H217896   5.673   0.976   0.079 -0.1623 -1.4461  0.7252
 5978TIP3   OH217897   4.267   6.668   4.420 -0.4751 -0.1191 -0.1311
 5978TIP3    H117898   4.249   6.700   4.331 -2.0745  0.7884  0.4845
 5978TIP3    H217899   4.309   6.583   4.406  0.6589  0.6544 -1.7644
 5979TIP3   OH217900   6.751   6.286   1.094  0.2728 -0.1002 -0.0782
 5979TIP3    H117901   6.711   6.315   1.176 -0.9410 -0.9797 -0.3395
 5979TIP3    H217902   6.796   6.364   1.061 -0.9037  0.8181  0.4239
 5980TIP3   OH217903   1.438   0.474   3.592  0.2368  0.0303 -0.0808
 5980TIP3    H117904   1.376   0.441   3.527 -1.7947  0.2785  1.6258
 5980TIP3    H217905   1.388   0.541   3.640  2.3923  1.4578  0.2771
 5981TIP3   OH217906   2.516   0.683   4.870  0.2907 -0.5422  0.3280
 5981TIP3    H117907   2.587   0.691   4.933  0.9429  0.5396 -0.5006
 5981TIP3    H217908   2.509   0.770   4.830  1.0635 -1.5621 -2.2765
 5982TIP3   OH217909   5.636   5.900   2.990  0.1567  0.6083  0.0287
 5982TIP3    H117910   5.681   5.890   2.907 -0.5246 -0.4659 -0.2368
 5982TIP3    H217911   5.624   5.810   3.022  0.9803  1.0225  1.6087
 5983TIP3   OH217912   5.461   1.208   5.477  0.1101  0.1567 -0.1674
 5983TIP3    H117913   5.390   1.169   5.426  0.0338 -1.9265  1.4206
 5983TIP3    H217914   5.530   1.224   5.412 -1.0950  0.4576 -1.4162
 5984TIP3   OH217915   3.866   5.017   0.782 -0.6815 -0.5871  0.1346
 5984TIP3    H117916   3.860   5.081   0.711 -0.3113 -0.8772 -0.1660
 5984TIP3    H217917   3.928   4.951   0.749 -1.2700 -1.2425  0.3229
 5985TIP3   OH217918   6.312   2.718   3.779 -0.2495 -0.1885  0.3265
 5985TIP3    H117919   6.278   2.793   3.827 -1.2549 -0.0219 -0.6001
 5985TIP3    H217920   6.393   2.695   3.824  1.3556  2.8945 -0.7072
 5986TIP3   OH217921   0.508   6.045   4.402  0.3061  0.1691 -0.4445
 5986TIP3    H117922   0.427   6.081   4.437  0.0099  0.9788 -1.9211
 5986TIP3    H217923   0.483   5.961   4.364  0.2701  0.1789 -0.4423
 5987TIP3   OH217924   2.895   4.477   2.166 -0.2233  0.4689 -0.0890
 5987TIP3    H117925   2.986   4.508   2.161 -0.4062  0.8696 -1.0436
 5987TIP3    H217926   2.903   4.384   2.186  0.6038 -0.5519 -4.2240
 5988TIP3   OH217927   5.092   4.339   5.440  0.1333 -0.2249 -0.0058
 5988TIP3    H117928   5.113   4.253   5.476  2.3931 -0.0944 -0.8231
 5988TIP3    H217929   5.075   4.322   5.347  2.6685  0.3839 -0.6485
 5989TIP3   OH217930   1.080   4.797   1.800  0.2636  0.0034 -0.6360
 5989TIP3    H117931   1.134   4.801   1.722 -0.0053 -0.3349 -0.8420
 5989TIP3    H217932   0.990   4.791   1.768  0.1885 -0.7478 -0.3176
 5990TIP3   OH217933   6.723   5.116   3.543  0.2183  0.8118 -0.2070
 5990TIP3    H117934   6.643   5.168   3.542 -0.3432 -0.0360 -1.5019
 5990TIP3    H217935   6.793   5.180   3.528 -0.2971  1.4140 -0.0842
 5991TIP3   OH217936   5.324   0.217   1.287 -0.1364  0.1860 -0.0638
 5991TIP3    H117937   5.399   0.185   1.338  0.3483  0.6582 -0.4743
 5991TIP3    H217938   5.292   0.292   1.337 -0.0999  0.2193 -0.0908
 5992TIP3   OH217939   1.150   4.365   2.627  0.9245  0.1377  0.3886
 5992TIP3    H117940   1.118   4.294   2.683 -2.0053  0.4723 -0.6565
 5992TIP3    H217941   1.101   4.442   2.656  1.1525  0.8505 -1.0226
 5993TIP3   OH217942   3.171   6.684   0.821  0.2459 -0.4160 -0.8796
 5993TIP3    H117943   3.133   6.599   0.842  0.1049 -0.4001 -1.0667
 5993TIP3    H217944   3.098   6.745   0.826  0.5990 -0.0759  0.6079
 5994TIP3   OH217945   6.306   6.669   2.978 -0.1854 -0.1618 -0.2337
 5994TIP3    H117946   6.275   6.749   2.936  0.7766  0.1171 -0.4240
 5994TIP3    H217947   6.401   6.671   2.968 -0.1981 -1.6819 -0.8604
 5995TIP3   OH217948   2.332   4.941   2.929 -0.6206 -0.0158  0.1629
 5995TIP3    H117949   2.317   4.855   2.967 -1.5924  0.3612  0.6616
 5995TIP3    H217950   2.251   4.989   2.945  0.6204  1.6794  1.6952
 5996TIP3   OH217951   1.289   3.985   3.379  0.1407  0.1551  0.0618
 5996TIP3    H117952   1.203   3.951   3.403 -0.7734  2.5043  0.3922
 5996TIP3    H217953   1.316   4.037   3.455  0.4065  1.9878 -1.2274
 5997TIP3   OH217954   5.091   6.765   4.265  0.9755  0.4874  0.1779
 5997TIP3    H117955   5.089   6.852   4.225  1.1681 -0.6559 -2.4900
 5997TIP3    H217956   5.040   6.710   4.206  0.2370 -1.1287  2.1877
 5998TIP3   OH217957   5.047   0.449   4.844  0.1243 -0.4058  0.5285
 5998TIP3    H117958   4.958   0.413   4.847  0.0461 -0.2292  0.3858
 5998TIP3    H217959   5.102   0.376   4.817 -0.2205 -0.0866 -1.1231
 5999TIP3   OH217960   1.846   0.987   0.750 -0.4714  0.0636  0.1650
 5999TIP3    H117961   1.788   1.028   0.815 -0.6236  1.5782 -0.8794
 5999TIP3    H217962   1.888   0.916   0.798 -1.9790 -0.0620  1.4029
 6000TIP3   OH217963   0.627   5.148   2.171  0.1638  0.6802 -0.5754
 6000TIP3    H117964   0.684   5.071   2.171 -0.2823  0.3315 -1.3544
 6000TIP3    H217965   0.679   5.217   2.212  0.0909 -0.3671  1.3854
 6001TIP3   OH217966   4.443   6.523   5.434  0.2792  0.4472  0.6779
 6001TIP3    H117967   4.380   6.466   5.390 -0.7481  0.9789  1.4096
 6001TIP3    H217968   4.481   6.575   5.363  1.3209 -1.1874 -0.0189
 6002TIP3   OH217969   4.350   0.836   5.019  0.0214 -0.1859  0.2332
 6002TIP3    H117970   4.424   0.895   5.006  0.2812 -0.7597 -1.0769
 6002TIP3    H217971   4.276   0.880   4.977  0.1062 -0.5672 -0.3202
 6003TIP3   OH217972   1.902   1.505   5.309  0.0472  0.4919 -0.2396
 6003TIP3    H117973   1.856   1.425   5.283 -1.6660  1.1679  0.6088
 6003TIP3    H217974   1.957   1.478   5.382  0.7211 -0.2408 -0.9946
 6004TIP3   OH217975   3.308   5.124   4.024 -0.0360  0.4972 -0.0756
 6004TIP3    H117976   3.341   5.091   4.108 -0.0053  0.7862  0.0250
 6004TIP3    H217977   3.223   5.163   4.044 -0.8457 -0.9763 -0.4712
 6005TIP3   OH217978   5.881   0.392   3.051 -0.1801 -0.0026  0.1839
 6005TIP3    H117979   5.927   0.309   3.040 -0.1628  0.0930 -0.5003
 6005TIP3    H217980   5.944   0.458   3.022 -1.3065  0.0238 -2.4407
 6006TIP3   OH217981   5.437   1.067   1.218 -0.2421  0.3199 -0.5284
 6006TIP3    H117982   5.511   1.127   1.227  0.2825 -0.5671  1.5767
 6006TIP3    H217983   5.433   1.049   1.124  4.1696 -1.9206 -0.5727
 6007TIP3   OH217984   1.965   4.326   0.769  0.2427 -0.6396 -0.2014
 6007TIP3    H117985   1.952   4.242   0.813 -0.5621 -0.3416  0.1377
 6007TIP3    H217986   1.884   4.374   0.784  0.5118  0.0192 -0.8005
 6008TIP3   OH217987   6.292   2.076   3.401 -0.0992 -0.3422 -0.3853
 6008TIP3    H117988   6.290   1.997   3.454 -1.9544 -1.4700 -2.0115
 6008TIP3    H217989   6.217   2.127   3.430 -0.3740 -0.3675 -1.0251
 6009TIP3   OH217990   5.773   4.125   1.140  0.5202  0.0564  0.0654
 6009TIP3    H117991   5.815   4.100   1.222  2.3880 -0.5211 -1.0056
 6009TIP3    H217992   5.844   4.126   1.076 -1.2765 -2.7932 -2.2639
 6010TIP3   OH217993   6.978   6.413   4.190 -0.6928 -0.5688 -0.1467
 6010TIP3    H117994   7.051   6.420   4.129  0.8935 -1.3471  1.5641
 6010TIP3    H217995   6.950   6.322   4.183  0.5515 -1.1166  1.3453
 6011TIP3   OH217996   5.717   6.713   2.431 -0.0626 -0.1035 -0.0655
 6011TIP3    H117997   5.707   6.618   2.426  2.0447 -0.3272 -0.8681
 6011TIP3    H217998   5.791   6.733   2.374 -0.3358  2.0082  0.2367
 6012TIP3   OH217999   4.755   2.862   1.702 -0.2333 -0.3541 -0.7978
 6012TIP3    H118000   4.683   2.835   1.645 -0.2336  0.3838 -1.1565
 6012TIP3    H218001   4.732   2.827   1.788 -1.4185  0.5574 -0.7275
 6013TIP3   OH218002   6.798   2.868   2.924  0.2848 -0.6802 -0.1428
 6013TIP3    H118003   6.705   2.888   2.928  0.5175  0.5241 -0.3288
 6013TIP3    H218004   6.838   2.926   2.988  1.1277  0.3311 -1.5279
 6014TIP3   OH218005   6.176   0.156   1.033  0.0293 -0.2132  0.0313
 6014TIP3    H118006   6.220   0.135   1.115 -0.0894 -0.5454  0.0111
 6014TIP3    H218007   6.104   0.214   1.059  1.2619  1.4571 -0.0865
 6015TIP3   OH218008   6.789   5.565   4.769  0.3752 -0.4206  0.1329
 6015TIP3    H118009   6.834   5.559   4.853  0.8056 -1.1887 -0.1481
 6015TIP3    H218010   6.855   5.602   4.709  1.4539 -3.6211 -0.8273
 6016TIP3   OH218011   2.903   5.501   4.410  0.3340 -0.0868  0.1111
 6016TIP3    H118012   2.845   5.482   4.484 -1.0621 -1.3760 -1.2471
 6016TIP3    H218013   2.955   5.422   4.398  0.9235  0.3065  0.0319
 6017TIP3   OH218014   2.143   5.514   3.964 -0.2135 -0.3558  0.2468
 6017TIP3    H118015   2.161   5.606   3.946  0.3474 -0.8718 -2.0840
 6017TIP3    H218016   2.070   5.491   3.906  1.2498 -1.9537 -1.0641
 6018TIP3   OH218017   1.743   2.754   2.189 -0.1581  0.1576  0.1947
 6018TIP3    H118018   1.794   2.762   2.269 -0.3530 -0.3589  0.3742
 6018TIP3    H218019   1.672   2.818   2.199  0.0202  0.3442  0.2741
 6019TIP3   OH218020   1.118   6.083   3.251 -0.3835  0.0401 -0.3902
 6019TIP3    H118021   1.166   6.110   3.172  1.5228 -1.2236  0.2825
 6019TIP3    H218022   1.185   6.073   3.318 -1.7016 -1.0469  0.8229
 6020TIP3   OH218023   4.514   4.026   0.815  0.6883  0.9066  0.1150
 6020TIP3    H118024   4.465   3.978   0.881 -0.7117 -0.2880 -1.7098
 6020TIP3    H218025   4.583   3.966   0.788  0.9771  1.2144  0.1628
 6021TIP3   OH218026   6.383   3.871   3.838  0.1644  0.4402 -0.1308
 6021TIP3    H118027   6.400   3.790   3.886 -1.1477  0.8599  1.1063
 6021TIP3    H218028   6.465   3.889   3.791  0.5305 -1.4975 -0.3139
 6022TIP3   OH218029   1.585   2.126   1.922  0.2745  0.3043 -0.7585
 6022TIP3    H118030   1.501   2.102   1.963  0.1947  1.1250 -0.4287
 6022TIP3    H218031   1.568   2.211   1.881  1.5987  1.7134  1.4323
 6023TIP3   OH218032   4.161   1.537   5.130  0.5978  0.0645  0.6512
 6023TIP3    H118033   4.152   1.596   5.055 -0.5388 -0.0626  0.6723
 6023TIP3    H218034   4.088   1.476   5.122 -0.2398  0.7597  2.4786
 6024TIP3   OH218035   1.423   5.514   2.463  0.6404 -0.0936  0.1424
 6024TIP3    H118036   1.404   5.457   2.538  0.3998 -0.8085 -0.4562
 6024TIP3    H218037   1.513   5.543   2.477  0.2016  0.7606  1.3451
 6025TIP3   OH218038   4.350   1.918   1.431 -0.0833  0.1895 -0.2709
 6025TIP3    H118039   4.288   1.874   1.374 -1.1161  1.4068 -0.1134
 6025TIP3    H218040   4.362   2.005   1.392 -1.4417  1.3545  1.7639
 6026TIP3   OH218041   5.883   4.302   5.086  0.2841 -0.0636  0.0343
 6026TIP3    H118042   5.951   4.298   5.153  0.0171 -0.0210  0.3102
 6026TIP3    H218043   5.804   4.271   5.130 -0.2756  1.5454  0.2226
 6027TIP3   OH218044   0.553   2.874   0.924 -0.5265  0.2574 -0.2604
 6027TIP3    H118045   0.588   2.949   0.972 -2.0304  1.2097 -0.5815
 6027TIP3    H218046   0.628   2.838   0.876  0.2096  1.6005 -0.1547
 6028TIP3   OH218047   6.012   6.296   1.706 -0.0951 -0.3298 -0.2904
 6028TIP3    H118048   5.950   6.238   1.662  0.1498  0.5960 -1.9438
 6028TIP3    H218049   6.060   6.240   1.767 -2.7389 -1.0199  1.3205
 6029TIP3   OH218050   1.857   1.177   3.913  0.1396  0.5351  0.4413
 6029TIP3    H118051   1.842   1.176   3.819 -1.1169 -0.1605  0.6327
 6029TIP3    H218052   1.919   1.106   3.929 -0.3778  0.0416  0.2517
 6030TIP3   OH218053   2.838   4.769   0.523  0.1194  0.0957  0.0321
 6030TIP3    H118054   2.900   4.816   0.468 -0.8914 -1.3656 -2.5482
 6030TIP3    H218055   2.783   4.837   0.562  1.3231  1.2174 -0.1785
 6031TIP3   OH218056   5.036   5.486   2.136  0.3097  0.5617  0.1118
 6031TIP3    H118057   5.109   5.485   2.197 -0.0317  0.1036  0.5252
 6031TIP3    H218058   5.014   5.579   2.126  0.2749  0.6312  0.8054
 6032TIP3   OH218059   1.028   0.426   1.022 -0.9587  0.8358 -0.1669
 6032TIP3    H118060   0.959   0.489   1.002  0.2421  1.6363 -2.0540
 6032TIP3    H218061   1.072   0.462   1.099 -1.6466  1.1326  0.0992
 6033TIP3   OH218062   0.535   5.074   1.829  0.0356  0.0516  0.1256
 6033TIP3    H118063   0.523   5.007   1.896  0.1444  0.9749  1.0951
 6033TIP3    H218064   0.496   5.153   1.867  1.5985  1.0162 -0.1940
 6034TIP3   OH218065   5.501   1.332   3.680 -0.4782  0.5885  0.0715
 6034TIP3    H118066   5.495   1.243   3.716  0.0678  0.2178 -0.7377
 6034TIP3    H218067   5.444   1.384   3.737  1.8086  0.4350  2.6784
 6035TIP3   OH218068   6.746   3.846   5.342  0.0097  0.4558  0.5589
 6035TIP3    H118069   6.708   3.765   5.375  0.0466 -0.1614 -0.8609
 6035TIP3    H218070   6.774   3.893   5.421  0.2740 -1.0323  1.3846
 6036TIP3   OH218071   6.269   2.913   1.813  0.0873 -0.0972  0.0479
 6036TIP3    H118072   6.225   2.996   1.830  0.4804 -0.3784  2.9965
 6036TIP3    H218073   6.346   2.936   1.762 -1.1087  0.9522 -1.3923
 6037TIP3   OH218074   4.986   0.983   4.625 -0.1645  0.3853 -0.0705
 6037TIP3    H118075   5.016   1.037   4.551  1.8653  0.8165  0.9923
 6037TIP3    H218076   4.998   0.893   4.595  0.0616  0.5480 -0.4905
 6038TIP3   OH218077   6.413   0.829   0.224 -0.0740 -0.5396  0.3981
 6038TIP3    H118078   6.359   0.814   0.301  1.0155 -1.7678  0.9806
 6038TIP3    H218079   6.499   0.794   0.249  0.3633 -0.7356 -1.2815
 6039TIP3   OH218080   6.456   1.891   2.222  0.2057 -0.2959 -0.0493
 6039TIP3    H118081   6.502   1.951   2.282 -2.1647  0.4555  1.1593
 6039TIP3    H218082   6.480   1.804   2.252  0.5657  0.0807  0.7923
 6040TIP3   OH218083   0.482   6.272   2.740 -0.5729 -0.0049 -0.5139
 6040TIP3    H118084   0.424   6.210   2.785  0.8159  1.7306  4.2501
 6040TIP3    H218085   0.557   6.219   2.713 -1.1632 -1.0391 -0.1845
 6041TIP3   OH218086   5.650   0.359   2.794  0.5792  0.2602  0.2113
 6041TIP3    H118087   5.703   0.383   2.718 -1.0132 -1.8930 -1.7323
 6041TIP3    H218088   5.714   0.344   2.863  2.1776  1.3250 -0.9500
 6042TIP3   OH218089   2.410   6.524   1.846 -0.5122 -0.0657 -0.4834
 6042TIP3    H118090   2.419   6.478   1.929 -0.3027  0.3970 -0.2467
 6042TIP3    H218091   2.344   6.592   1.863 -1.8123 -1.0976 -1.1882
 6043TIP3   OH218092   2.962   0.041   2.091 -0.1588 -0.6792  0.4075
 6043TIP3    H118093   3.010   0.006   2.016 -1.6490  0.9757 -1.4167
 6043TIP3    H218094   3.029   0.055   2.158  2.2634  2.5174 -2.3503
 6044TIP3   OH218095   4.504   0.624   1.083  0.3289 -0.4480 -0.4553
 6044TIP3    H118096   4.424   0.587   1.120 -0.2048 -0.5597 -1.6644
 6044TIP3    H218097   4.555   0.653   1.159 -0.0681 -1.9592  0.4181
 6045TIP3   OH218098   3.790   6.028   0.714  0.1656 -0.3545 -0.5158
 6045TIP3    H118099   3.770   5.954   0.656  1.1367 -0.4968 -0.6851
 6045TIP3    H218100   3.878   6.009   0.747  0.7758  1.1532 -1.2212
 6046TIP3   OH218101   4.674   2.354   0.262 -0.2600  0.0228 -0.0761
 6046TIP3    H118102   4.591   2.391   0.294 -0.9183 -1.0938 -0.4143
 6046TIP3    H218103   4.713   2.313   0.339 -1.3161 -1.7096 -0.3938
 6047TIP3   OH218104   2.138   1.494   1.382  0.0716  0.3122 -0.2636
 6047TIP3    H118105   2.073   1.509   1.314  0.3057 -0.6655 -0.7192
 6047TIP3    H218106   2.089   1.458   1.456  0.3428 -2.9983 -1.5066
 6048TIP3   OH218107   1.216   2.753   1.534 -0.1722 -0.5284  0.1710
 6048TIP3    H118108   1.302   2.792   1.522 -1.0549  1.0814 -1.5482
 6048TIP3    H218109   1.213   2.730   1.627  2.1215 -0.7605  0.2473
 6049TIP3   OH218110   6.492   2.588   5.097  0.2641  0.1203  0.1581
 6049TIP3    H118111   6.585   2.595   5.079  0.2902 -0.2359  0.1521
 6049TIP3    H218112   6.474   2.494   5.098 -0.2343  0.1924 -0.5687
 6050TIP3   OH218113   5.772   5.752   3.755 -0.2565 -0.1524  0.1117
 6050TIP3    H118114   5.846   5.699   3.784  0.4238  1.1685  0.8985
 6050TIP3    H218115   5.768   5.825   3.818 -1.2349  0.6553 -0.8380
 6051TIP3   OH218116   4.977   1.273   0.276 -0.7805  0.1921 -0.1073
 6051TIP3    H118117   5.013   1.323   0.203 -1.7908  1.4993  0.2498
 6051TIP3    H218118   4.884   1.296   0.277 -0.3952  2.1589  3.0415
 6052TIP3   OH218119   0.280   4.234   5.606  0.4685  0.7835 -0.3969
 6052TIP3    H118120   0.227   4.176   5.552  1.1859 -1.8870  1.5456
 6052TIP3    H218121   0.227   4.250   5.684  1.4563  0.2006  0.4225
 6053TIP3   OH218122   6.117   5.830   3.153 -0.2341 -0.3563  0.6456
 6053TIP3    H118123   6.040   5.774   3.156 -0.7927  0.1685 -1.6606
 6053TIP3    H218124   6.098   5.901   3.214 -0.3124 -1.6742  2.2115
 6054TIP3   OH218125   5.703   0.040   0.599 -0.3933 -0.5053  0.3073
 6054TIP3    H118126   5.763   0.095   0.648  0.5800 -1.6920  0.5074
 6054TIP3    H218127   5.659  -0.013   0.665 -1.9994  0.6402  0.1998
 6055TIP3   OH218128   4.521   0.902   5.562  0.2099  0.2353  0.0984
 6055TIP3    H118129   4.473   0.920   5.642  0.9195 -0.0921  0.6037
 6055TIP3    H218130   4.537   0.989   5.524 -0.0808  0.3941  0.3365
 6056TIP3   OH218131   0.964   4.604   5.268 -0.0468  0.9030  0.0928
 6056TIP3    H118132   0.956   4.528   5.211 -0.1732  1.5409 -0.7564
 6056TIP3    H218133   1.056   4.631   5.260 -0.4087  1.8987 -1.0203
 6057TIP3   OH218134   4.784   6.376   1.112 -0.3610  0.0352 -0.2306
 6057TIP3    H118135   4.857   6.412   1.062  0.4724 -0.5384  0.5606
 6057TIP3    H218136   4.802   6.283   1.120 -1.4314 -0.2069 -0.4420
 6058TIP3   OH218137   1.916   0.016   1.768 -0.0549 -0.1843  0.2001
 6058TIP3    H118138   2.005  -0.005   1.738 -0.8937 -3.8602 -0.1894
 6058TIP3    H218139   1.866   0.026   1.687 -0.2644  0.6532  0.4259
 6059TIP3   OH218140   3.934   0.361   3.868  0.1716 -0.0109  0.4066
 6059TIP3    H118141   3.928   0.437   3.809  0.3901 -0.3152 -0.0184
 6059TIP3    H218142   3.971   0.397   3.949  1.0556  0.2055 -0.0703
 6060TIP3   OH218143   5.486   4.245   5.593  0.1035  0.6111  0.0569
 6060TIP3    H118144   5.452   4.222   5.679  2.4299  0.7353  1.0905
 6060TIP3    H218145   5.528   4.330   5.606  0.6570  0.5456 -1.1471
 6061TIP3   OH218146   5.070   0.807   0.687  0.4590 -0.4512 -0.4859
 6061TIP3    H118147   5.040   0.897   0.676  0.5653 -0.1995  1.0788
 6061TIP3    H218148   4.995   0.761   0.725  1.2909 -0.3255  1.4034
 6062TIP3   OH218149   0.691   2.847   3.670 -0.3527  0.8573 -0.0641
 6062TIP3    H118150   0.645   2.929   3.687  1.3837  1.4276  2.5273
 6062TIP3    H218151   0.784   2.871   3.669  0.1439 -0.9163 -0.2048
 6063TIP3   OH218152   1.589   5.848   0.910  0.0458  0.0503 -0.4079
 6063TIP3    H118153   1.553   5.817   0.827 -0.4547  2.2789 -1.0859
 6063TIP3    H218154   1.659   5.908   0.885 -1.2365  2.1229  0.6588
 6064TIP3   OH218155   5.111   6.592   1.880 -0.1667  0.2797  0.4424
 6064TIP3    H118156   5.059   6.660   1.922 -1.1659 -0.5140  0.5423
 6064TIP3    H218157   5.073   6.510   1.912 -0.5708 -0.3565 -1.5321
 6065TIP3   OH218158   6.238   5.870   1.212  0.5033 -0.1491 -0.1702
 6065TIP3    H118159   6.293   5.933   1.166  1.8195  1.1290  2.8306
 6065TIP3    H218160   6.151   5.879   1.173  1.1192  2.0902 -1.1540
 6066TIP3   OH218161   3.795   4.461   4.704  0.3816  0.2169 -0.1341
 6066TIP3    H118162   3.857   4.417   4.762 -0.5438  0.3817  1.0273
 6066TIP3    H218163   3.840   4.467   4.620  2.2303  0.9560  0.8410
 6067TIP3   OH218164   4.619   6.472   3.081 -0.2944  0.5856  0.0983
 6067TIP3    H118165   4.579   6.462   2.995  0.2905  0.4127 -0.1590
 6067TIP3    H218166   4.581   6.553   3.115  0.0498  1.0832 -0.6560
 6068TIP3   OH218167   1.900   0.828   0.963 -0.3255  0.5119  0.1164
 6068TIP3    H118168   1.922   0.736   0.944 -1.3490  0.2860 -0.0099
 6068TIP3    H218169   1.907   0.835   1.058  1.2689  0.7167  0.0156
 6069TIP3   OH218170   2.176   6.597   3.728 -0.2535 -0.3901 -0.5940
 6069TIP3    H118171   2.140   6.582   3.640  1.0626 -1.1382 -1.0178
 6069TIP3    H218172   2.125   6.539   3.785 -1.8867  0.9247 -0.6476
 6070TIP3   OH218173   4.410   5.524   0.264  0.0114 -0.0017  0.4547
 6070TIP3    H118174   4.319   5.494   0.266 -0.1293  0.0181 -2.0277
 6070TIP3    H218175   4.410   5.605   0.315 -1.3405 -0.0807  0.6113
 6071TIP3   OH218176   0.453   6.305   1.921  0.1423  0.4306  0.1370
 6071TIP3    H118177   0.409   6.328   2.002  1.6206  0.1092  1.0805
 6071TIP3    H218178   0.498   6.222   1.941  1.8697  1.1728 -0.4562
 6072TIP3   OH218179   0.285   6.137   3.781  0.5935 -0.6650  0.2513
 6072TIP3    H118180   0.267   6.210   3.722 -0.8021 -2.2099 -1.3290
 6072TIP3    H218181   0.266   6.172   3.868  0.5266  1.0150 -0.3989
 6073TIP3   OH218182   3.981   4.194   1.872  0.2751 -0.6265 -0.3937
 6073TIP3    H118183   4.029   4.213   1.952  0.2320  0.8755 -0.6884
 6073TIP3    H218184   4.042   4.143   1.818  0.9581 -0.1083 -0.1245
 6074TIP3   OH218185   3.068   4.830   3.716 -0.1356  0.1671  0.2351
 6074TIP3    H118186   3.116   4.866   3.641  0.6680 -1.9271 -0.3265
 6074TIP3    H218187   3.135   4.813   3.782 -0.2000 -1.8295 -0.1660
 6075TIP3   OH218188   5.559   4.325   0.617  0.6745  0.1309 -0.3067
 6075TIP3    H118189   5.649   4.294   0.613  0.5232 -0.2160 -1.0166
 6075TIP3    H218190   5.515   4.263   0.675  1.1090  0.8672  0.8572
 6076TIP3   OH218191   2.897   5.107   5.709 -0.0287  0.5837  0.0183
 6076TIP3    H118192   2.893   5.177   5.774 -2.4192  3.0425 -2.4445
 6076TIP3    H218193   2.805   5.083   5.695  0.6778 -2.8473  0.4076
 6077TIP3   OH218194   2.726   1.450   3.867 -0.0542  0.2379 -0.3434
 6077TIP3    H118195   2.658   1.391   3.899 -0.3278  0.9895  0.4911
 6077TIP3    H218196   2.784   1.394   3.815  0.7331 -1.1531  1.9195
 6078TIP3   OH218197   6.496   5.027   0.172  0.1321  0.2112  0.0199
 6078TIP3    H118198   6.588   5.002   0.159 -0.0061  0.2914 -1.2269
 6078TIP3    H218199   6.448   4.974   0.108 -0.7129  0.0976  0.7257
 6079TIP3   OH218200   4.825   0.346   0.972 -0.0803 -0.0621 -0.2498
 6079TIP3    H118201   4.876   0.420   1.006 -0.4983  0.5817 -0.9938
 6079TIP3    H218202   4.735   0.376   0.976 -0.1023  0.3512 -2.6183
 6080TIP3   OH218203   1.159   5.578   4.102  0.0174  0.0784 -0.1054
 6080TIP3    H118204   1.150   5.635   4.026  0.7642  0.5841  0.1704
 6080TIP3    H218205   1.229   5.618   4.154 -1.6157  0.7376  1.7252
 6081TIP3   OH218206   2.888   0.333   3.227 -0.4143  0.2635  0.3136
 6081TIP3    H118207   2.909   0.415   3.183  1.5056  0.1267  0.9229
 6081TIP3    H218208   2.899   0.351   3.320 -0.1142 -0.6487  0.4678
 6082TIP3   OH218209   1.373   4.971   3.296 -0.3874  0.3018 -0.0791
 6082TIP3    H118210   1.424   4.989   3.375 -2.1955 -1.7544  1.7006
 6082TIP3    H218211   1.316   5.047   3.285  1.0617  1.3581 -0.4496
 6083TIP3   OH218212   3.822   2.411   2.631  0.3801 -0.2131 -0.2168
 6083TIP3    H118213   3.866   2.378   2.709  1.2988  0.6962 -0.3357
 6083TIP3    H218214   3.887   2.464   2.587 -0.8211  1.1372 -0.4393
 6084TIP3   OH218215   6.317   3.325   3.721 -0.8517  0.8151  0.8699
 6084TIP3    H118216   6.342   3.273   3.644 -0.8832  0.6358  0.9798
 6084TIP3    H218217   6.222   3.337   3.712 -0.8151  1.0128  0.7470
 6085TIP3   OH218218   3.626   4.623   3.959 -0.1951  0.1746  1.0081
 6085TIP3    H118219   3.532   4.638   3.946  0.3319  1.5794 -1.8295
 6085TIP3    H218220   3.639   4.531   3.936 -0.6033  0.5012 -0.6227
 6086TIP3   OH218221   5.461   3.835   1.522 -0.3156  0.7041 -0.6974
 6086TIP3    H118222   5.442   3.762   1.581 -0.3825  1.2634 -0.0175
 6086TIP3    H218223   5.378   3.883   1.516 -0.4263  0.4418 -1.5732
 6087TIP3   OH218224   1.321   1.990   5.763  0.1761 -0.4736  0.6868
 6087TIP3    H118225   1.308   1.929   5.836  0.3417 -1.1543  0.1627
 6087TIP3    H218226   1.257   2.059   5.778  1.7558  0.6691  2.7647
 6088TIP3   OH218227   5.145   3.169   3.911  0.8380 -0.1079 -0.1065
 6088TIP3    H118228   5.097   3.140   3.989  0.6998  1.0480  0.2593
 6088TIP3    H218229   5.089   3.141   3.838 -0.9998  2.1033  0.3307
 6089TIP3   OH218230   1.042   2.415   2.869 -0.0673 -0.4609 -0.1522
 6089TIP3    H118231   1.009   2.492   2.914  0.5675  0.2709 -0.9117
 6089TIP3    H218232   0.971   2.390   2.810 -0.7211 -1.1542  0.8984
 6090TIP3   OH218233   2.752   4.951   2.675 -0.1989 -0.0630 -0.1058
 6090TIP3    H118234   2.718   4.934   2.588  1.7836  0.6063 -1.0830
 6090TIP3    H218235   2.736   4.870   2.724 -3.9397  0.5038 -0.1023
 6091TIP3   OH218236   3.376   3.733   3.711 -0.1634  0.0021  0.0888
 6091TIP3    H118237   3.313   3.750   3.781  0.6301  1.0183  0.5870
 6091TIP3    H218238   3.335   3.665   3.657 -1.6079  0.5361  0.4765
 6092TIP3   OH218239   3.553   0.096   2.326 -0.1132 -0.0484 -0.4152
 6092TIP3    H118240   3.519   0.151   2.396  0.3962  2.3817 -1.9831
 6092TIP3    H218241   3.648   0.107   2.331 -0.0903  0.4451 -1.6884
 6093TIP3   OH218242   2.017   5.538   2.142 -0.1181  0.1545  0.1858
 6093TIP3    H118243   1.932   5.494   2.141  0.4741 -0.9980 -0.6303
 6093TIP3    H218244   2.070   5.491   2.078  1.0097  1.1331  0.3645
 6094TIP3   OH218245   7.209   5.111   4.032  0.1724  0.3810 -0.3497
 6094TIP3    H118246   7.188   5.113   3.939  2.4909 -2.1006 -1.0841
 6094TIP3    H218247   7.138   5.061   4.072  0.0049  0.0009 -1.1157
 6095TIP3   OH218248   3.102   2.093   3.020  0.0256 -0.0349 -0.3532
 6095TIP3    H118249   3.082   2.077   3.112 -0.0181  3.1676  0.3203
 6095TIP3    H218250   3.071   2.183   3.004  0.7829 -0.1917 -3.2738
 6096TIP3   OH218251   6.151   6.221   3.822 -0.0645  0.4351  0.0538
 6096TIP3    H118252   6.164   6.315   3.805 -0.0729  0.3890 -0.2086
 6096TIP3    H218253   6.235   6.181   3.798  0.1802  0.4633  0.8407
 6097TIP3   OH218254   6.971   5.411   2.468 -0.1242 -0.3913  0.0404
 6097TIP3    H118255   6.965   5.356   2.546 -1.2641  0.2817  0.4448
 6097TIP3    H218256   6.906   5.375   2.408  0.7180 -0.8803 -0.6051
 6098TIP3   OH218257   3.483   5.381   4.044  0.2440  0.1646 -0.1048
 6098TIP3    H118258   3.466   5.289   4.024  0.5747  0.0622  0.0648
 6098TIP3    H218259   3.481   5.425   3.959  2.5501 -0.4172 -0.5330
 6099TIP3   OH218260   6.673   3.164   2.437 -0.2174  0.1739  0.5884
 6099TIP3    H118261   6.766   3.150   2.455 -0.3097 -0.2855  0.7058
 6099TIP3    H218262   6.655   3.250   2.475  0.6333  1.2005 -1.1936
 6100TIP3   OH218263   3.697   5.212   4.351 -0.5468 -0.3791 -0.0756
 6100TIP3    H118264   3.715   5.294   4.305 -0.4608  0.0302  0.6737
 6100TIP3    H218265   3.654   5.157   4.286 -0.2141  0.1026 -0.7108
 6101TIP3   OH218266   3.423   3.074   1.432  0.3826 -0.0594  0.3092
 6101TIP3    H118267   3.401   3.003   1.371  1.8650 -0.5508  0.3171
 6101TIP3    H218268   3.477   3.032   1.499  1.1580  1.0440  0.3983
 6102TIP3   OH218269   0.167   6.498   0.428 -0.5500 -0.4191 -0.0422
 6102TIP3    H118270   0.088   6.552   0.434 -0.1794  0.1488 -0.2356
 6102TIP3    H218271   0.157   6.450   0.346  0.2729  1.2224 -1.1464
 6103TIP3   OH218272   3.740   5.561   0.487 -0.3267  0.0963  0.4476
 6103TIP3    H118273   3.742   5.590   0.396 -0.6209 -0.0685  0.3846
 6103TIP3    H218274   3.831   5.546   0.511 -0.3532 -1.6205 -0.3932
 6104TIP3   OH218275   1.833   4.293   4.198  0.2416 -0.1816  0.1551
 6104TIP3    H118276   1.898   4.363   4.195  0.3204 -0.2789 -0.9855
 6104TIP3    H218277   1.830   4.267   4.290  1.5782  0.0496  0.2860
 6105TIP3   OH218278   1.525   1.079   2.247 -0.2528 -0.2607 -0.0305
 6105TIP3    H118279   1.483   1.106   2.329  0.3729 -1.2877  0.6469
 6105TIP3    H218280   1.614   1.114   2.253  0.3007 -1.6849  0.4776
 6106TIP3   OH218281   4.924   5.071   3.943 -0.3228  0.4030 -0.1507
 6106TIP3    H118282   4.972   5.151   3.921  1.3611 -0.5051  0.0912
 6106TIP3    H218283   4.869   5.097   4.017 -0.9202  1.6938 -1.0011
 6107TIP3   OH218284   2.710   6.093   1.686 -0.3100 -0.2566 -0.4436
 6107TIP3    H118285   2.702   6.004   1.722 -0.6481 -0.2870 -0.5890
 6107TIP3    H218286   2.657   6.091   1.607 -0.5804  0.1688 -0.2756
 6108TIP3   OH218287   5.676   4.466   4.280  0.4661  0.0017  0.2408
 6108TIP3    H118288   5.606   4.524   4.249 -0.5806 -0.5006  1.5602
 6108TIP3    H218289   5.737   4.461   4.207 -1.2866 -0.1846 -1.2830
 6109TIP3   OH218290   4.115   3.300   4.675  0.1051 -0.1168  0.0040
 6109TIP3    H118291   4.163   3.324   4.755  0.5491 -0.7765 -0.0574
 6109TIP3    H218292   4.173   3.325   4.604 -0.2357  0.3507 -0.1150
 6110TIP3   OH218293   6.929   3.147   5.746 -0.1271 -0.0016 -0.0329
 6110TIP3    H118294   7.009   3.147   5.693 -0.6392  2.0667 -0.9168
 6110TIP3    H218295   6.909   3.240   5.758 -1.6375 -0.4692  1.3619
 6111TIP3   OH218296   2.031   6.260   5.829  0.0184  0.3442  0.4752
 6111TIP3    H118297   2.045   6.250   5.924  2.0796 -2.3821  0.0085
 6111TIP3    H218298   1.960   6.200   5.809 -0.8471  1.3855  0.3190
 6112TIP3   OH218299   1.088   0.276   4.902  0.4535 -0.6003 -0.7771
 6112TIP3    H118300   1.081   0.184   4.927  0.8413 -0.7348 -1.1470
 6112TIP3    H218301   1.074   0.276   4.807  0.8371 -0.3235 -0.8358
 6113TIP3   OH218302   2.069   6.557   4.129  0.4201  0.0550 -0.2743
 6113TIP3    H118303   2.008   6.514   4.188 -0.4777  0.0160 -1.2057
 6113TIP3    H218304   2.057   6.514   4.045 -0.9872  2.4696 -1.4162
 6114TIP3   OH218305   3.172   2.433   0.294 -0.5560 -0.4037 -0.2443
 6114TIP3    H118306   3.153   2.506   0.236  0.5810  0.4226  0.3803
 6114TIP3    H218307   3.206   2.364   0.237 -0.6486 -0.0640 -0.7127
 6115TIP3   OH218308   4.679   0.834   2.942  0.0696  0.0621  0.1894
 6115TIP3    H118309   4.662   0.923   2.913  0.7160 -0.1847 -0.9829
 6115TIP3    H218310   4.671   0.839   3.038 -1.5455  1.0037  0.0591
 6116TIP3   OH218311   5.231   4.713   1.892 -0.1447 -0.3284 -0.1740
 6116TIP3    H118312   5.215   4.793   1.840  2.3039  0.3166 -0.1013
 6116TIP3    H218313   5.290   4.742   1.962 -0.2779 -1.9597  0.6505
 6117TIP3   OH218314   6.833   5.596   4.207  0.4400  0.1617 -0.2945
 6117TIP3    H118315   6.913   5.637   4.174  0.6028  2.0079  2.0787
 6117TIP3    H218316   6.862   5.549   4.286 -0.7526  0.7352  0.5205
 6118TIP3   OH218317   3.472   1.469   3.605  0.7602  0.2260  0.2481
 6118TIP3    H118318   3.564   1.492   3.618  1.4155 -0.3924 -2.5065
 6118TIP3    H218319   3.466   1.379   3.637  1.0319  0.3758  0.7329
 6119TIP3   OH218320   3.314   2.613   2.515  0.2445  0.1464 -0.6668
 6119TIP3    H118321   3.392   2.557   2.512  0.8001  0.5991  2.1743
 6119TIP3    H218322   3.241   2.552   2.523  0.8159 -0.3182  2.1031
 6120TIP3   OH218323   0.743   2.470   5.343 -0.0179 -0.0931  0.0796
 6120TIP3    H118324   0.784   2.389   5.374  2.2995  0.4094 -1.4275
 6120TIP3    H218325   0.774   2.537   5.404 -0.8025 -0.0947  0.4967
 6121TIP3   OH218326   5.410   0.047   3.565  0.0691  0.1079 -0.2932
 6121TIP3    H118327   5.345   0.117   3.560  0.1241  0.2202  0.4744
 6121TIP3    H218328   5.392  -0.008   3.488  0.3284  1.2115 -1.1749
 6122TIP3   OH218329   1.255   2.397   1.361 -0.1135  0.3375  0.0156
 6122TIP3    H118330   1.348   2.401   1.382 -0.1578 -0.6589  0.4256
 6122TIP3    H218331   1.218   2.474   1.405 -0.0861 -1.3031  3.1079
 6123TIP3   OH218332   2.999   3.969   2.068  0.1649 -0.0666  0.3690
 6123TIP3    H118333   2.974   3.998   1.981 -2.1461 -0.2358  0.9062
 6123TIP3    H218334   3.004   3.873   2.062 -0.3104 -0.1017  0.4767
 6124TIP3   OH218335   6.341   2.526   1.265 -0.3581 -0.0058 -0.5363
 6124TIP3    H118336   6.304   2.546   1.351 -1.2593 -0.4833 -0.8058
 6124TIP3    H218337   6.365   2.434   1.269  2.0372  0.5555  0.0591
 6125TIP3   OH218338   1.175   5.755   5.007  0.0634 -0.3196  0.4370
 6125TIP3    H118339   1.181   5.776   5.101 -0.4383 -0.5102  0.5118
 6125TIP3    H218340   1.237   5.683   4.995  1.1014  0.5549  0.3605
 6126TIP3   OH218341   5.756   2.558   2.519  0.2944 -0.0101 -0.0904
 6126TIP3    H118342   5.837   2.516   2.490 -0.0078 -0.3401 -0.4688
 6126TIP3    H218343   5.687   2.506   2.479 -0.1170  0.0327  0.5536
 6127TIP3   OH218344   3.160   6.548   3.979  0.3097  0.1267 -0.0035
 6127TIP3    H118345   3.126   6.571   3.892  0.2979  0.8927  0.1996
 6127TIP3    H218346   3.218   6.473   3.962  0.7200  0.5905 -0.7597
 6128TIP3   OH218347   0.526   2.230   3.582 -0.1180  0.0404  0.4728
 6128TIP3    H118348   0.563   2.212   3.669  0.2477  0.8803  0.4923
 6128TIP3    H218349   0.469   2.154   3.565  0.1549 -0.3527  1.2463
 6129TIP3   OH218350   6.822   2.268   1.689 -0.5465 -0.3586  0.5143
 6129TIP3    H118351   6.769   2.324   1.744  1.1042  1.9390 -0.0759
 6129TIP3    H218352   6.913   2.291   1.711  0.1843  0.0667 -2.4933
 6130TIP3   OH218353   2.244   5.242   5.123 -0.5139 -0.8709 -0.0250
 6130TIP3    H118354   2.232   5.167   5.066  0.8343 -1.4224  0.3843
 6130TIP3    H218355   2.226   5.208   5.211 -3.3373  0.1476 -0.1206
 6131TIP3   OH218356   5.941   5.032   5.514 -0.6767 -0.1265  0.4176
 6131TIP3    H118357   5.923   5.125   5.520  2.2842  0.5202  1.0466
 6131TIP3    H218358   5.885   4.991   5.580 -0.6539  1.4552  1.4553
 6132TIP3   OH218359   7.123   3.169   1.200  0.0897 -0.0240 -0.1143
 6132TIP3    H118360   7.111   3.264   1.198 -0.0355  0.1344  3.3819
 6132TIP3    H218361   7.213   3.156   1.169  0.0957  1.1909 -0.7030
 6133TIP3   OH218362   1.476   1.201   2.536 -0.0412 -0.0022 -0.5655
 6133TIP3    H118363   1.490   1.209   2.631 -3.0847 -0.8191  0.0708
 6133TIP3    H218364   1.469   1.292   2.506  2.4854  0.3381 -0.3929
 6134TIP3   OH218365   2.862   2.384   0.835 -0.1134 -0.0535  0.1665
 6134TIP3    H118366   2.789   2.440   0.811 -1.7735 -1.6780  1.1810
 6134TIP3    H218367   2.940   2.438   0.820 -1.5099  1.8337 -0.6475
 6135TIP3   OH218368   2.200   5.173   0.766  0.3583  0.4696 -0.4864
 6135TIP3    H118369   2.106   5.186   0.780  0.4224  0.4587 -0.0500
 6135TIP3    H218370   2.206   5.138   0.677 -0.1044 -0.2424 -0.2376
 6136TIP3   OH218371   4.607   6.112   4.433 -0.1487 -0.7028  0.6747
 6136TIP3    H118372   4.648   6.062   4.503 -0.8960 -1.5408  0.5270
 6136TIP3    H218373   4.662   6.190   4.423  0.2372 -0.8181  1.8465
 6137TIP3   OH218374   5.507   0.872   1.377  0.1261  0.2899 -0.0348
 6137TIP3    H118375   5.601   0.871   1.395  0.1686 -1.7899 -0.0708
 6137TIP3    H218376   5.496   0.936   1.306  2.0659 -1.7729 -2.3960
 6138TIP3   OH218377   0.825   4.518   1.149 -0.2150  0.8296 -0.4453
 6138TIP3    H118378   0.893   4.489   1.089  0.7304  1.1147  0.4582
 6138TIP3    H218379   0.765   4.569   1.095  0.8312  1.4266 -1.0783
 6139TIP3   OH218380   6.933   0.654   4.359  0.0733  0.1304 -0.1624
 6139TIP3    H118381   6.852   0.697   4.333 -0.8475 -1.7397 -0.5951
 6139TIP3    H218382   6.905   0.583   4.417  1.6093  0.7023  1.3469
 6140TIP3   OH218383   2.251   3.156   1.928 -0.0773 -0.6284  0.0868
 6140TIP3    H118384   2.292   3.070   1.926  2.1041  0.3434 -0.4416
 6140TIP3    H218385   2.287   3.198   2.006  1.0601  0.7168 -1.0856
 6141TIP3   OH218386   6.970   5.487   0.483 -0.1839 -0.5111 -0.0515
 6141TIP3    H118387   6.960   5.480   0.578  0.6868 -0.9666  0.0129
 6141TIP3    H218388   7.048   5.541   0.470 -2.0254  2.2190 -0.5438
 6142TIP3   OH218389   5.419   5.997   3.111  0.5075  0.4823  0.2887
 6142TIP3    H118390   5.502   5.956   3.085  0.8055  0.4746  1.2138
 6142TIP3    H218391   5.387   5.942   3.182 -0.7095  0.0193 -0.5843
 6143TIP3   OH218392   2.994   5.713   5.126  0.1258 -0.4604  0.2352
 6143TIP3    H118393   2.939   5.790   5.119  0.4361 -0.2000  0.6420
 6143TIP3    H218394   3.015   5.690   5.035  0.2248  0.0731  0.1219
 6144TIP3   OH218395   4.801   2.042   0.173  0.0669 -0.5283  0.3380
 6144TIP3    H118396   4.797   1.949   0.196  3.6061 -0.9794 -0.3195
 6144TIP3    H218397   4.844   2.083   0.249  0.4167  0.1916 -0.2427
 6145TIP3   OH218398   2.380   5.605   5.754  0.3974 -0.3739 -0.4728
 6145TIP3    H118399   2.324   5.609   5.832  0.5722  1.3223 -0.3984
 6145TIP3    H218400   2.351   5.527   5.708 -1.4459 -0.0180  0.0066
 6146TIP3   OH218401   0.113   4.165   2.936  0.5791  0.0375  0.7699
 6146TIP3    H118402   0.109   4.238   2.873  1.2892 -1.0580 -0.5986
 6146TIP3    H218403   0.204   4.164   2.965  1.0280 -1.3302 -0.5425
 6147TIP3   OH218404   3.848   6.830   4.879  0.3325  0.0241  0.2031
 6147TIP3    H118405   3.768   6.780   4.894 -0.0592 -0.1054 -1.9230
 6147TIP3    H218406   3.919   6.766   4.889  0.0613 -0.2281  0.5291
 6148TIP3   OH218407   5.148   1.791   0.950 -0.1172  0.5412 -0.3344
 6148TIP3    H118408   5.206   1.781   0.875  1.0045 -0.3710  0.6208
 6148TIP3    H218409   5.158   1.709   0.999 -1.5974  0.7023  0.2816
 6149TIP3   OH218410   7.218   5.240   0.272  0.6022  0.0188  0.6532
 6149TIP3    H118411   7.123   5.246   0.278  0.6221  0.3466  0.6838
 6149TIP3    H218412   7.245   5.327   0.243  0.6833 -0.8426 -2.0937
 6150TIP3   OH218413   4.516   0.705   3.552 -0.1322  0.0057 -0.5036
 6150TIP3    H118414   4.542   0.675   3.639 -1.9735  2.3366  0.9847
 6150TIP3    H218415   4.425   0.677   3.543  0.1856 -0.6770 -1.9622
 6151TIP3   OH218416   1.053   4.009   4.693 -0.1484  0.0365 -0.2154
 6151TIP3    H118417   1.102   4.056   4.761 -0.6381  0.0084  0.1668
 6151TIP3    H218418   0.982   4.069   4.669 -1.9355 -1.2023  1.6422
 6152TIP3   OH218419   1.856   0.019   4.867  0.0663 -0.4155  0.2642
 6152TIP3    H118420   1.865   0.110   4.894 -0.2744 -0.7156  1.4685
 6152TIP3    H218421   1.818  -0.025   4.943  0.9916 -1.7249  0.0140
 6153TIP3   OH218422   1.023   3.559   5.124 -0.0709  0.2927 -0.0997
 6153TIP3    H118423   1.086   3.504   5.077  0.4597  1.4054 -0.7359
 6153TIP3    H218424   0.943   3.555   5.071 -0.8387 -1.6843  1.0702
 6154TIP3   OH218425   4.797   5.447   4.904 -0.4026  0.1664 -0.4928
 6154TIP3    H118426   4.761   5.373   4.855 -1.6350  1.5377 -1.7310
 6154TIP3    H218427   4.869   5.479   4.850  0.2182 -0.1869  0.1087
 6155TIP3   OH218428   2.423   5.137   4.132  0.3058 -0.3391  0.0750
 6155TIP3    H118429   2.339   5.139   4.177 -0.2416 -1.3454 -0.8576
 6155TIP3    H218430   2.401   5.140   4.039  1.2689 -1.0187 -0.1958
 6156TIP3   OH218431   0.624   1.122   5.370  0.0035  0.0793 -0.0483
 6156TIP3    H118432   0.554   1.146   5.431  0.1073 -1.8649  0.9145
 6156TIP3    H218433   0.628   1.195   5.309 -2.1653  0.7227  0.4788
 6157TIP3   OH218434   3.855   1.618   5.606  0.2355 -0.3357  0.2486
 6157TIP3    H118435   3.911   1.567   5.664  0.1166  0.3896  1.0230
 6157TIP3    H218436   3.857   1.707   5.642  2.0995  0.7444 -2.2485
 6158TIP3   OH218437   5.376   6.657   1.868  0.0324  0.2154  0.3684
 6158TIP3    H118438   5.290   6.616   1.871  0.3824 -0.4875  1.0802
 6158TIP3    H218439   5.402   6.652   1.776  0.5422 -2.2096  0.5719
 6159TIP3   OH218440   2.278   3.061   5.421 -0.3252 -0.4426  0.3862
 6159TIP3    H118441   2.200   3.014   5.393  0.1602 -0.0863 -1.7225
 6159TIP3    H218442   2.325   2.998   5.477 -1.8538 -0.8031  1.3135
 6160TIP3   OH218443   4.327   0.944   0.237  0.6290 -0.2872 -0.0224
 6160TIP3    H118444   4.386   0.949   0.313  1.0209 -1.3238 -0.2376
 6160TIP3    H218445   4.249   0.901   0.272  1.3787 -2.1388 -0.4977
 6161TIP3   OH218446   0.397   1.750   4.630  0.4420  0.0356 -0.0441
 6161TIP3    H118447   0.446   1.696   4.692 -1.1756 -0.7499  0.6268
 6161TIP3    H218448   0.417   1.840   4.655  1.0129 -0.2707  0.6291
 6162TIP3   OH218449   2.170   0.148   1.823 -0.2955  0.4275 -0.2211
 6162TIP3    H118450   2.202   0.230   1.785  0.4551  1.2260  1.9835
 6162TIP3    H218451   2.248   0.092   1.827  0.2420  1.2368  2.2581
 6163TIP3   OH218452   3.131   4.010   0.705 -0.2769 -0.0045  0.3860
 6163TIP3    H118453   3.113   4.101   0.728 -0.3260  0.1750 -0.3430
 6163TIP3    H218454   3.150   3.967   0.789  0.1371  0.7591  0.6845
 6164TIP3   OH218455   3.265   1.984   1.277 -0.1192 -0.6346  0.1853
 6164TIP3    H118456   3.263   2.080   1.279  0.6822 -0.5413 -1.6904
 6164TIP3    H218457   3.307   1.960   1.359  2.9161  0.8153 -0.8010
 6165TIP3   OH218458   4.054   1.155   0.841 -0.0380  0.3438  0.7373
 6165TIP3    H118459   4.130   1.206   0.813  2.0782 -3.0539 -0.1960
 6165TIP3    H218460   4.088   1.092   0.904 -1.8450 -1.9143 -0.3790
 6166TIP3   OH218461   5.963   1.330   1.990 -0.0671 -0.0010 -0.4867
 6166TIP3    H118462   6.048   1.297   1.963  0.2463 -0.0739  0.5489
 6166TIP3    H218463   5.952   1.412   1.941  0.5011 -0.0894 -0.7712
 6167TIP3   OH218464   5.309   5.441   4.893  0.6469  0.6218  0.4261
 6167TIP3    H118465   5.330   5.460   4.802 -0.3167  1.6731  0.3950
 6167TIP3    H218466   5.393   5.427   4.935  1.2701  2.2367 -0.1934
 6168TIP3   OH218467   1.411   0.282   0.274 -0.6289  0.1100  0.5134
 6168TIP3    H118468   1.416   0.238   0.189 -3.2242 -1.4857  1.0665
 6168TIP3    H218469   1.439   0.215   0.337 -0.3898  0.7136  1.0598
 6169TIP3   OH218470   5.586   2.979   2.708 -0.3958  0.5255 -0.5908
 6169TIP3    H118471   5.629   3.014   2.787 -0.7807  2.5715 -1.2162
 6169TIP3    H218472   5.626   2.894   2.695  0.5799  0.6645  1.1163
 6170TIP3   OH218473   1.520   4.551   0.745 -0.0418  0.4051  0.2874
 6170TIP3    H118474   1.424   4.545   0.754 -0.0260 -1.6325 -0.3496
 6170TIP3    H218475   1.538   4.645   0.749 -2.2967  1.0356 -1.7162
 6171TIP3   OH218476   1.448   3.683   3.874 -0.1663  0.0133  0.2773
 6171TIP3    H118477   1.358   3.670   3.844  0.4900 -1.4078 -1.2615
 6171TIP3    H218478   1.447   3.653   3.965 -1.3554  0.5303  0.4526
 6172TIP3   OH218479   6.361   1.504   3.686  0.1036  0.1336 -0.2660
 6172TIP3    H118480   6.448   1.543   3.675  0.2961 -0.1092  0.3650
 6172TIP3    H218481   6.304   1.557   3.630  0.3155  1.4796  0.7465
 6173TIP3   OH218482   2.397   1.063   5.635  0.1839  0.2240  0.6429
 6173TIP3    H118483   2.399   1.135   5.697 -0.4356 -0.0020  0.9299
 6173TIP3    H218484   2.306   1.058   5.605  0.4776  0.3588 -0.3192
 6174TIP3   OH218485   0.576   6.527   0.772  0.0379  0.3625 -0.0200
 6174TIP3    H118486   0.670   6.537   0.783 -0.0370  1.2324 -0.1082
 6174TIP3    H218487   0.557   6.568   0.688 -0.0565 -2.0859 -1.3087
 6175TIP3   OH218488   5.612   5.653   0.790 -0.1658  0.4864  0.0492
 6175TIP3    H118489   5.536   5.710   0.777  0.2427  1.6029  2.1456
 6175TIP3    H218490   5.584   5.591   0.858  0.0125 -0.7138 -0.9280
 6176TIP3   OH218491   4.209   3.260   3.803 -0.5481  0.2284 -0.0899
 6176TIP3    H118492   4.169   3.288   3.720 -3.2061 -1.3955  0.5489
 6176TIP3    H218493   4.260   3.182   3.780 -0.1587  0.5790 -0.4209
 6177TIP3   OH218494   6.547   4.518   4.086  0.3533 -0.3332  0.1566
 6177TIP3    H118495   6.549   4.501   3.991 -0.7534  0.2532  0.0079
 6177TIP3    H218496   6.455   4.535   4.105  0.0711 -3.1166  1.8527
 6178TIP3   OH218497   0.748   1.330   0.432 -0.4305 -0.1912  0.4381
 6178TIP3    H118498   0.767   1.236   0.431  2.0488  0.2099 -1.5504
 6178TIP3    H218499   0.753   1.356   0.340  1.9159  2.3650  1.1519
 6179TIP3   OH218500   4.523   0.965   0.447  0.1952 -0.3905  0.6062
 6179TIP3    H118501   4.607   0.920   0.438  1.0114  0.6662  2.3629
 6179TIP3    H218502   4.499   0.953   0.538 -1.2413 -0.0884  0.2832
 6180TIP3   OH218503   1.299   3.728   0.712  0.8042 -0.8270 -0.0694
 6180TIP3    H118504   1.394   3.735   0.724  0.8917 -0.2929 -0.9454
 6180TIP3    H218505   1.272   3.816   0.686  0.3316 -1.3718 -1.5054
 6181TIP3   OH218506   4.284   2.099   3.432  0.5371 -0.0784  0.2095
 6181TIP3    H118507   4.300   2.092   3.338 -0.1331 -1.0510  0.1481
 6181TIP3    H218508   4.232   2.178   3.441  0.3030 -0.1677 -0.2871
 6182TIP3   OH218509   0.001   0.840   4.785  0.0958  0.7193 -0.0129
 6182TIP3    H118510   0.064   0.862   4.853 -1.5697  0.1542  1.8006
 6182TIP3    H218511   0.008   0.745   4.776 -1.2117  0.4972  1.0109
 6183TIP3   OH218512   3.043   2.655   1.050 -0.0030  0.1260 -0.0546
 6183TIP3    H118513   3.070   2.736   1.093 -0.5866 -1.1870  3.0497
 6183TIP3    H218514   2.955   2.673   1.019  0.3532  1.0644 -0.5550
 6184TIP3   OH218515   5.947   3.422   0.247 -0.1828 -0.5283 -0.3468
 6184TIP3    H118516   5.994   3.358   0.194 -0.3211  0.6503 -1.9613
 6184TIP3    H218517   5.998   3.502   0.240 -1.2166  0.1604 -0.2619
 6185TIP3   OH218518   4.408   5.868   2.192  0.5621 -0.0428  0.5384
 6185TIP3    H118519   4.388   5.811   2.117 -0.5011  3.1547 -1.8520
 6185TIP3    H218520   4.503   5.860   2.203  0.5791 -1.5096 -0.3080
 6186TIP3   OH218521   0.281   4.991   4.088 -0.6830 -0.2212 -0.0497
 6186TIP3    H118522   0.292   4.897   4.104 -0.0448 -0.2062 -0.3644
 6186TIP3    H218523   0.186   5.005   4.094 -0.6759 -0.6376  1.2857
 6187TIP3   OH218524   4.062   1.367   2.407  0.0044  0.6842 -0.5257
 6187TIP3    H118525   4.132   1.342   2.346  1.1239  0.3462  0.8536
 6187TIP3    H218526   4.090   1.331   2.491 -0.3470  3.1324  0.7106
 6188TIP3   OH218527   4.373   5.270   1.770 -0.0799 -0.2517 -0.5241
 6188TIP3    H118528   4.312   5.203   1.738 -3.6929  1.9827  1.0668
 6188TIP3    H218529   4.385   5.249   1.863  0.5292  0.1090 -0.5146
 6189TIP3   OH218530   1.081   5.070   4.358 -0.8637 -0.9311  0.2726
 6189TIP3    H118531   1.123   5.147   4.322 -1.0990 -1.5163 -1.3084
 6189TIP3    H218532   1.127   5.054   4.441 -0.8546  0.9046  0.6607
 6190TIP3   OH218533   7.216   5.500   5.435 -0.4315 -0.1552  0.0201
 6190TIP3    H118534   7.182   5.589   5.430  0.0209  0.0435  0.3439
 6190TIP3    H218535   7.205   5.475   5.527  0.3400 -0.0559  0.1513
 6191TIP3   OH218536   3.071   5.139   0.860  0.0089 -0.3097  0.7134
 6191TIP3    H118537   3.007   5.177   0.800  1.0607 -1.1049 -1.0167
 6191TIP3    H218538   3.085   5.205   0.927 -1.2164  0.6252  0.0743
 6192TIP3   OH218539   2.587   4.907   3.017 -0.0920 -0.6822  0.3978
 6192TIP3    H118540   2.588   4.928   3.111 -1.3066 -0.6344  0.4231
 6192TIP3    H218541   2.494   4.913   2.993  0.2916  0.0751 -0.9827
 6193TIP3   OH218542   4.164   6.103   4.805 -0.4254 -0.1711 -0.0256
 6193TIP3    H118543   4.138   6.183   4.851  0.8274  0.1685  0.1222
 6193TIP3    H218544   4.083   6.071   4.765 -1.4385 -0.1430  1.8916
 6194TIP3   OH218545   6.509   4.253   3.891 -0.3605 -0.2216 -0.3140
 6194TIP3    H118546   6.581   4.190   3.885 -0.7035 -0.7124  0.5002
 6194TIP3    H218547   6.482   4.250   3.983 -0.3974  1.1177 -0.2584
 6195TIP3   OH218548   1.529   4.908   1.324  0.1110  0.1330  0.3608
 6195TIP3    H118549   1.490   4.994   1.340  0.1097  0.0528  0.7922
 6195TIP3    H218550   1.613   4.910   1.370 -1.6601 -1.5634  4.1195
 6196TIP3   OH218551   2.178   5.890   4.416 -0.5712  0.3710  0.1574
 6196TIP3    H118552   2.180   5.985   4.402  1.3497  0.4114  0.5265
 6196TIP3    H218553   2.091   5.864   4.385 -0.7394  2.0917 -0.9911
 6197TIP3   OH218554   3.274   0.014   0.490 -0.0086  0.4956 -0.0286
 6197TIP3    H118555   3.362   0.050   0.478  0.4065 -0.7466 -0.9331
 6197TIP3    H218556   3.269  -0.009   0.582  0.7443  0.2690 -0.0387
 6198TIP3   OH218557   6.314   5.028   5.778 -0.0103  0.1593 -0.2616
 6198TIP3    H118558   6.408   5.041   5.769  0.3828 -1.4899  0.9524
 6198TIP3    H218559   6.300   5.016   5.872 -1.1612 -1.1678 -0.5616
 6199TIP3   OH218560   1.853   5.195   1.835  0.1289 -0.1299  0.5699
 6199TIP3    H118561   1.939   5.193   1.879  0.2442 -0.8651  0.3196
 6199TIP3    H218562   1.802   5.127   1.879  0.2750 -0.9502 -0.4884
 6200TIP3   OH218563   4.017   2.937   0.899  0.4454 -0.4553  0.3965
 6200TIP3    H118564   3.990   2.846   0.915  1.7079 -0.7158  1.1333
 6200TIP3    H218565   4.092   2.929   0.840  1.6556 -0.0074  1.8313
 6201TIP3   OH218566   6.398   0.353   5.758  0.3221 -0.3740  0.0187
 6201TIP3    H118567   6.358   0.370   5.673  0.1805 -1.0111 -0.0465
 6201TIP3    H218568   6.492   0.358   5.742  0.2897  0.9642  0.1380
 6202TIP3   OH218569   5.040   1.104   4.986 -0.3293 -0.3712  0.1277
 6202TIP3    H118570   5.022   1.042   4.915 -0.1495  1.1882 -1.3489
 6202TIP3    H218571   4.998   1.066   5.063 -2.2641 -1.1824 -1.2508
 6203TIP3   OH218572   1.167   6.715   1.229 -0.2118 -0.1218 -0.2022
 6203TIP3    H118573   1.194   6.697   1.319  1.2604 -0.1496 -0.6161
 6203TIP3    H218574   1.099   6.650   1.211 -0.9976  0.3089  1.0835
 6204TIP3   OH218575   3.276   0.593   5.091 -0.3961 -0.1888 -0.6454
 6204TIP3    H118576   3.330   0.518   5.113  0.2418  0.0810 -1.2530
 6204TIP3    H218577   3.240   0.623   5.175  0.6835 -0.1561 -0.1816
 6205TIP3   OH218578   2.102   3.851   2.718 -0.3199 -0.0052  0.1687
 6205TIP3    H118579   2.198   3.854   2.726 -0.1318 -0.8865 -1.2783
 6205TIP3    H218580   2.074   3.789   2.785  0.0558  0.6879  0.9811
 6206TIP3   OH218581   2.198   6.676   2.314  0.0440  0.6238  0.2536
 6206TIP3    H118582   2.140   6.739   2.273 -3.0429 -2.8190 -1.2101
 6206TIP3    H218583   2.145   6.633   2.381  1.5604 -1.2109  0.3860
 6207TIP3   OH218584   1.563   5.472   4.776 -0.0082  0.1239  0.0021
 6207TIP3    H118585   1.544   5.397   4.720 -1.2722 -2.4850  3.5216
 6207TIP3    H218586   1.656   5.464   4.795 -0.2708 -1.1448  0.9450
 6208TIP3   OH218587   5.438   1.872   2.697 -0.7265  0.0004  0.0799
 6208TIP3    H118588   5.355   1.850   2.655 -1.1569 -1.6936  1.6832
 6208TIP3    H218589   5.504   1.850   2.632 -1.4913  1.4438 -1.2481
 6209TIP3   OH218590   4.525   4.478   2.566  0.2061 -0.0510  0.2381
 6209TIP3    H118591   4.467   4.405   2.541  0.9306 -0.9899  1.1912
 6209TIP3    H218592   4.596   4.475   2.502 -0.4632  0.7280 -0.5720
 6210TIP3   OH218593   1.578   4.284   4.107 -0.3723  0.2095  0.3379
 6210TIP3    H118594   1.671   4.268   4.125 -0.1236 -0.7361 -1.5916
 6210TIP3    H218595   1.574   4.377   4.086  0.7217 -0.2955 -2.4830
 6211TIP3   OH218596   2.058   4.441   2.044 -0.3403  0.1132  0.2137
 6211TIP3    H118597   2.010   4.461   2.124 -2.8160  0.2579 -1.2071
 6211TIP3    H218598   2.097   4.355   2.059  0.4805  0.7642  2.0569
 6212TIP3   OH218599   4.105   4.589   4.319  0.1085  0.3912 -0.1152
 6212TIP3    H118600   4.050   4.641   4.261  0.5269 -0.3585 -1.2099
 6212TIP3    H218601   4.044   4.530   4.364 -0.2341  1.0705  0.3265
 6213TIP3   OH218602   2.189   2.582   3.228  0.1687 -0.5511  0.5520
 6213TIP3    H118603   2.121   2.515   3.228  0.3871 -0.9460 -2.5425
 6213TIP3    H218604   2.148   2.658   3.268 -0.9383 -1.7412  1.7966
 6214TIP3   OH218605   2.607   3.131   0.513 -0.6871  0.4210  0.0581
 6214TIP3    H118606   2.617   3.068   0.442 -0.2197 -0.5232  0.9402
 6214TIP3    H218607   2.513   3.136   0.528 -0.8179  0.9199 -0.8675
 6215TIP3   OH218608   6.277   2.130   4.741 -0.2475  0.1406  0.1919
 6215TIP3    H118609   6.249   2.069   4.809  0.5434 -0.0035  0.3968
 6215TIP3    H218610   6.353   2.088   4.701 -0.0122  0.7555 -0.0119
 6216TIP3   OH218611   1.969   3.365   0.198  0.3811 -0.2468  0.3031
 6216TIP3    H118612   2.019   3.295   0.156  0.5084  0.7182 -1.2274
 6216TIP3    H218613   1.887   3.367   0.149 -0.7203 -0.9958  1.9986
 6217TIP3   OH218614   2.465   3.729   3.637  0.1542 -0.3670  0.1467
 6217TIP3    H118615   2.538   3.667   3.643 -0.4566 -1.0712  0.5726
 6217TIP3    H218616   2.487   3.798   3.700  0.3053 -0.7423  0.5135
 6218TIP3   OH218617   2.474   6.272   4.284 -0.6074 -0.1106  0.5544
 6218TIP3    H118618   2.556   6.322   4.288 -0.4424 -0.3980  0.7946
 6218TIP3    H218619   2.409   6.331   4.323 -0.1663 -0.5658  2.0404
 6219TIP3   OH218620   5.660   1.449   0.610 -0.0166  0.1117 -0.3622
 6219TIP3    H118621   5.709   1.519   0.653  0.2270 -0.8536  0.9819
 6219TIP3    H218622   5.595   1.422   0.674  1.8001 -2.8896  0.4079
 6220TIP3   OH218623   3.813   5.163   1.899 -0.3856 -0.1574 -0.2721
 6220TIP3    H118624   3.853   5.076   1.905 -3.1975 -1.5842 -0.1504
 6220TIP3    H218625   3.761   5.160   1.818 -2.6366  0.3418  1.0425
 6221TIP3   OH218626   6.994   4.486   3.921  0.4088  0.5101  0.0651
 6221TIP3    H118627   6.979   4.455   4.011  1.0657 -0.0990 -0.0199
 6221TIP3    H218628   7.040   4.413   3.879  1.4206  1.3635 -0.3415
 6222TIP3   OH218629   2.769   5.075   1.702 -0.1828  0.5154  0.0880
 6222TIP3    H118630   2.696   5.013   1.696 -0.4843  0.6558  1.8551
 6222TIP3    H218631   2.845   5.020   1.721 -0.0808  0.5011 -0.3574
 6223TIP3   OH218632   4.799   0.443   0.529  0.0342  0.4453  0.1059
 6223TIP3    H118633   4.705   0.437   0.545  0.3114 -1.0352  1.3732
 6223TIP3    H218634   4.809   0.426   0.435 -0.7719 -2.1372  0.4392
 6224TIP3   OH218635   1.625   1.096   2.987  0.4492  0.5501  0.3869
 6224TIP3    H118636   1.541   1.059   3.015  0.8333  0.4826  1.5325
 6224TIP3    H218637   1.602   1.181   2.948 -0.2348  0.0878 -0.2532
 6225TIP3   OH218638   1.016   1.213   1.321 -0.3136  0.5661 -0.7793
 6225TIP3    H118639   1.054   1.289   1.276 -1.6625  1.3670 -0.6575
 6225TIP3    H218640   1.046   1.220   1.411  0.7838  0.0936 -1.1023
 6226TIP3   OH218641   1.683   0.250   5.450  0.3023  0.0350  0.1472
 6226TIP3    H118642   1.635   0.322   5.409 -0.2932 -0.5616 -0.2338
 6226TIP3    H218643   1.643   0.241   5.536  0.0308 -0.1611  0.0036
 6227TIP3   OH218644   2.886   6.235   2.413  0.3632  0.7167  0.3206
 6227TIP3    H118645   2.874   6.275   2.499  1.3799  0.0852  0.7670
 6227TIP3    H218646   2.798   6.237   2.374 -0.1507  0.8539  1.4373
 6228TIP3   OH218647   1.706   5.197   5.315  0.1385  0.3086  0.5563
 6228TIP3    H118648   1.680   5.266   5.254  0.1838 -2.1729 -2.5522
 6228TIP3    H218649   1.802   5.197   5.312  0.1689  0.6317  1.2499
 6229TIP3   OH218650   2.850   5.114   4.903 -0.6015 -0.1615  0.2844
 6229TIP3    H118651   2.916   5.053   4.871 -1.3213 -0.4326 -0.7442
 6229TIP3    H218652   2.811   5.070   4.979  0.9869  0.4016  1.4790
 6230TIP3   OH218653   0.864   1.115   3.184  0.0397  0.3493  0.1500
 6230TIP3    H118654   0.830   1.055   3.249 -0.3573  1.1893  0.7377
 6230TIP3    H218655   0.799   1.184   3.178  0.0875  0.3117 -1.1213
 6231TIP3   OH218656   4.740   3.861   1.213  0.4133  0.2093 -0.2113
 6231TIP3    H118657   4.798   3.881   1.139  1.2529  1.3293  0.7128
 6231TIP3    H218658   4.800   3.844   1.286 -0.4198  0.8614  0.6354
 6232TIP3   OH218659   1.704   3.090   2.107  0.6102 -0.1173 -0.0448
 6232TIP3    H118660   1.761   3.100   2.184 -1.1461 -2.0541  1.6196
 6232TIP3    H218661   1.763   3.056   2.039  1.6803 -1.1090  1.3061
 6233TIP3   OH218662   0.253   3.796   1.194  0.4051 -0.0074 -0.2718
 6233TIP3    H118663   0.193   3.858   1.234  2.1523  1.7162 -0.1611
 6233TIP3    H218664   0.201   3.717   1.181 -0.9993  0.2596  2.8143
 6234TIP3   OH218665   3.787   1.809   4.574  0.0436  0.2452 -0.3708
 6234TIP3    H118666   3.826   1.876   4.517 -1.7997  0.3863 -1.5447
 6234TIP3    H218667   3.791   1.729   4.523 -1.3949  0.3195 -0.6245
 6235TIP3   OH218668   2.483   4.331   1.398  0.5402 -0.1373  0.1052
 6235TIP3    H118669   2.432   4.321   1.318  2.5667 -1.2523 -1.1413
 6235TIP3    H218670   2.418   4.341   1.467 -1.2833  1.1131 -1.6816
 6236TIP3   OH218671   5.506   4.363   3.501 -0.2365 -0.4291 -0.0311
 6236TIP3    H118672   5.514   4.303   3.575 -0.6103 -0.4117  0.0273
 6236TIP3    H218673   5.414   4.355   3.474  0.2161 -1.5044 -1.3952
 6237TIP3   OH218674   6.197   6.054   1.797  0.0813 -0.5799  0.0325
 6237TIP3    H118675   6.272   6.113   1.792 -0.8379  0.5225 -1.8059
 6237TIP3    H218676   6.164   6.048   1.707 -1.5500 -1.6894  0.6400
 6238TIP3   OH218677   5.113   4.393   0.091 -0.0043 -0.6357  0.0801
 6238TIP3    H118678   5.070   4.347   0.018 -1.8231  0.2328  0.5461
 6238TIP3    H218679   5.184   4.334   0.117 -1.8898 -3.0017  0.3032
 6239TIP3   OH218680   0.421   3.426   5.096 -0.5566 -0.0621  0.0353
 6239TIP3    H118681   0.336   3.469   5.083 -0.4556 -0.2104 -1.2599
 6239TIP3    H218682   0.413   3.383   5.181 -1.6705  0.1791  0.0710
 6240TIP3   OH218683   4.421   1.438   0.340 -0.6416  0.6713  0.4887
 6240TIP3    H118684   4.333   1.464   0.310  0.4809  2.0491 -1.8543
 6240TIP3    H218685   4.411   1.430   0.435 -3.3128  0.7220  0.3019
 6241TIP3   OH218686   6.323   1.556   0.822  0.8693 -1.1921 -0.3407
 6241TIP3    H118687   6.416   1.574   0.807  0.7067 -1.0008 -1.1513
 6241TIP3    H218688   6.278   1.636   0.796  0.5603 -0.7621  1.3889
 6242TIP3   OH218689   6.611   6.008   1.082 -0.3888 -0.0317 -0.0831
 6242TIP3    H118690   6.643   5.940   1.142  0.4541  0.1013 -0.3667
 6242TIP3    H218691   6.681   6.073   1.082 -0.5513  0.1423 -0.9287
 6243TIP3   OH218692   2.551   2.006   4.802 -0.2052 -0.5178 -0.0625
 6243TIP3    H118693   2.560   2.051   4.718  0.3582 -0.3989  0.0582
 6243TIP3    H218694   2.465   1.964   4.797 -1.7612  2.2910  0.6288
 6244TIP3   OH218695   4.065   5.685   0.762 -0.0523 -0.2223 -0.4206
 6244TIP3    H118696   4.012   5.747   0.711 -1.4061  0.5554  1.8059
 6244TIP3    H218697   4.001   5.639   0.817  1.4882  0.3820  2.0054
 6245TIP3   OH218698   6.899   1.066   1.308 -0.2908 -0.3995  0.1504
 6245TIP3    H118699   6.951   1.001   1.259 -1.3459 -1.4936  0.4445
 6245TIP3    H218700   6.856   1.118   1.240  1.0055  0.4009 -0.0976
 6246TIP3   OH218701   0.360   4.852   1.054 -0.2469  0.0119  0.0202
 6246TIP3    H118702   0.353   4.788   0.983 -2.3342 -0.8980  0.9478
 6246TIP3    H218703   0.344   4.801   1.134  1.0625  1.1888  1.0843
 6247TIP3   OH218704   1.091   4.873   1.276 -0.6552 -0.1701 -0.0821
 6247TIP3    H118705   1.183   4.844   1.275 -0.1213  1.4043  0.1894
 6247TIP3    H218706   1.042   4.795   1.299  0.4966 -1.3441 -1.3965
 6248TIP3   OH218707   2.260   4.419   4.904  0.1634  0.5122  0.3230
 6248TIP3    H118708   2.211   4.357   4.957  1.1977 -0.1500  0.5347
 6248TIP3    H218709   2.277   4.493   4.963  2.6310 -0.8578  1.5050
 6249TIP3   OH218710   4.250   1.665   2.523  0.0166 -0.1810  0.1502
 6249TIP3    H118711   4.199   1.613   2.586 -0.0968 -0.2147  0.0292
 6249TIP3    H218712   4.333   1.618   2.515  0.0840 -0.1065  0.3752
 6250TIP3   OH218713   3.545   0.763   1.127 -0.0680 -0.2359 -0.8510
 6250TIP3    H118714   3.516   0.744   1.038 -2.6686  0.6947 -0.2920
 6250TIP3    H218715   3.496   0.701   1.182 -0.0563  0.5455  0.0685
 6251TIP3   OH218716   6.076   3.562   3.047  0.5414 -0.1352 -0.4664
 6251TIP3    H118717   5.985   3.545   3.071  0.2587  1.8432  0.0524
 6251TIP3    H218718   6.072   3.631   2.982  1.6113 -1.5814 -2.1734
 6252TIP3   OH218719   6.607   0.784   3.150 -0.7054  0.1145  0.1305
 6252TIP3    H118720   6.691   0.828   3.136 -0.0749 -0.7048  1.2019
 6252TIP3    H218721   6.570   0.827   3.227 -0.9293 -0.0022  0.0891
 6253TIP3   OH218722   2.673   3.270   1.665  0.0299  0.0489 -0.5528
 6253TIP3    H118723   2.724   3.324   1.727  1.1400 -0.3735 -1.0685
 6253TIP3    H218724   2.718   3.281   1.581 -0.4857 -0.6762 -0.9330
 6254TIP3   OH218725   3.534   3.655   4.993  0.2771  1.1072  0.0923
 6254TIP3    H118726   3.558   3.740   4.955 -1.3055  2.6213  2.2614
 6254TIP3    H218727   3.439   3.660   5.005  0.0160 -1.3210 -0.4486
 6255TIP3   OH218728   6.102   0.357   5.885  0.7606 -0.5083  0.3363
 6255TIP3    H118729   6.070   0.350   5.795 -0.0263 -1.9303  0.6994
 6255TIP3    H218730   6.197   0.354   5.877  0.7244  0.1211 -0.4912
 6256TIP3   OH218731   1.768   6.315   0.758 -0.2292 -0.2461  0.4762
 6256TIP3    H118732   1.786   6.386   0.819 -1.1289 -0.8118  1.4212
 6256TIP3    H218733   1.854   6.277   0.739  0.4241  1.7765 -0.9518
 6257TIP3   OH218734   1.979   4.435   2.444 -0.1779 -0.6294 -0.0257
 6257TIP3    H118735   1.983   4.395   2.531  0.1312 -2.1686 -0.7079
 6257TIP3    H218736   2.032   4.514   2.451  1.1617 -1.5665  0.7758
 6258TIP3   OH218737   3.035   1.163   1.691  0.2944  0.5571 -0.3352
 6258TIP3    H118738   2.981   1.120   1.757  0.0421  0.5318 -0.5567
 6258TIP3    H218739   3.101   1.098   1.668  0.3885  0.5685 -0.1036
 6259TIP3   OH218740   2.831   2.947   5.880  0.5612  0.2444 -0.7530
 6259TIP3    H118741   2.756   2.991   5.840 -0.1005  0.2068  0.4144
 6259TIP3    H218742   2.806   2.855   5.883  0.2120  0.3599  0.5390
 6260TIP3   OH218743   4.759   3.503   5.770 -0.7508  0.2610  0.0810
 6260TIP3    H118744   4.719   3.518   5.856 -0.8220 -0.2723  0.1453
 6260TIP3    H218745   4.838   3.451   5.789 -1.2458 -0.6387 -0.2518
 6261TIP3   OH218746   2.898   1.509   2.682  0.0623  0.5209 -0.2990
 6261TIP3    H118747   2.944   1.565   2.620  2.4701  0.1732  1.0477
 6261TIP3    H218748   2.932   1.535   2.768 -0.6173 -1.3038  0.5822
 6262TIP3   OH218749   2.408   4.757   1.906  0.5880  0.0936  0.2082
 6262TIP3    H118750   2.418   4.772   2.000 -1.1016 -0.6358  0.5349
 6262TIP3    H218751   2.315   4.770   1.889  0.8201 -0.0447 -1.3279
 6263TIP3   OH218752   0.427   0.362   0.688  0.0791  0.3906  0.1351
 6263TIP3    H118753   0.514   0.333   0.663  0.0889 -0.4893  1.1052
 6263TIP3    H218754   0.377   0.281   0.700  0.0817  0.6764  2.8590
 6264TIP3   OH218755   2.470   1.675   3.251  0.5913  0.1476 -0.1445
 6264TIP3    H118756   2.436   1.744   3.195 -0.8542 -0.7109 -0.3854
 6264TIP3    H218757   2.467   1.596   3.196  1.5952 -0.2354  0.3257
 6265TIP3   OH218758   4.020   5.870   2.744 -0.1349  0.1545  0.2714
 6265TIP3    H118759   4.106   5.873   2.701  0.2478  0.0704  1.0119
 6265TIP3    H218760   3.963   5.922   2.687  0.0844 -0.8455 -0.9252
 6266TIP3   OH218761   4.179   1.530   3.571  0.5427 -0.0195  0.1102
 6266TIP3    H118762   4.229   1.512   3.651  2.2555  0.6470 -0.7570
 6266TIP3    H218763   4.212   1.615   3.542  1.7928 -1.3244 -2.6026
 6267TIP3   OH218764   1.510   3.122   5.364 -0.1683  0.7784  0.2555
 6267TIP3    H118765   1.532   3.199   5.417  0.1131 -0.0656  1.4034
 6267TIP3    H218766   1.589   3.104   5.313 -0.0544  0.9340  0.3771
 6268TIP3   OH218767   5.385   3.627   4.930 -0.1987 -0.3094 -0.0841
 6268TIP3    H118768   5.303   3.677   4.937  0.4024  0.5401  1.5229
 6268TIP3    H218769   5.406   3.628   4.837 -2.2706 -0.9963 -0.6173
 6269TIP3   OH218770   2.801   5.203   3.293  0.4385 -0.0362 -0.0943
 6269TIP3    H118771   2.852   5.172   3.218  0.4411 -1.4305  0.4571
 6269TIP3    H218772   2.807   5.298   3.288  0.0064 -0.0580 -2.1635
 6270TIP3   OH218773   0.673   5.968   1.347  0.7738 -0.0957  0.2365
 6270TIP3    H118774   0.597   6.024   1.363  0.6228 -0.5901  1.3537
 6270TIP3    H218775   0.636   5.879   1.341  1.3095 -0.4006  1.2914
 6271TIP3   OH218776   5.922   4.170   3.015 -0.5877  0.4212 -0.4435
 6271TIP3    H118777   5.892   4.238   3.076 -1.7325 -0.2797 -0.1952
 6271TIP3    H218778   5.847   4.113   3.005  0.6156 -1.3226  0.0427
 6272TIP3   OH218779   3.219   2.283   5.793  0.9310 -0.1921 -0.4377
 6272TIP3    H118780   3.152   2.338   5.752 -0.1990 -0.5351  0.8743
 6272TIP3    H218781   3.219   2.203   5.741  0.4403 -0.1290 -0.5386
 6273TIP3   OH218782   3.870   4.788   2.331 -0.0050 -0.0355 -0.1905
 6273TIP3    H118783   3.937   4.754   2.270  1.3430  2.6228 -0.3122
 6273TIP3    H218784   3.903   4.874   2.357 -3.0034  1.0239  0.4377
 6274TIP3   OH218785   0.682   6.277   3.539 -0.5351 -0.2239  0.3756
 6274TIP3    H118786   0.635   6.198   3.567  0.4302 -1.3412 -1.0041
 6274TIP3    H218787   0.768   6.246   3.514  0.3839  1.5229  1.1618
 6275TIP3   OH218788   4.639   1.499   3.162 -0.0575  0.2380 -0.1769
 6275TIP3    H118789   4.705   1.446   3.118 -0.1651  0.7361 -0.9702
 6275TIP3    H218790   4.614   1.448   3.239  0.3149 -0.5466 -0.5618
 6276TIP3   OH218791   0.612   1.167   4.323 -0.2607  0.3011 -0.2844
 6276TIP3    H118792   0.570   1.253   4.332 -2.2707 -0.5949 -0.6074
 6276TIP3    H218793   0.702   1.187   4.298 -1.1817  2.3135 -2.2940
 6277TIP3   OH218794   5.816   2.438   3.641  0.2656 -0.5559 -0.2950
 6277TIP3    H118795   5.759   2.363   3.622 -0.6491 -0.3102  1.3606
 6277TIP3    H218796   5.756   2.513   3.648  1.1793  0.4125 -2.0665
 6278TIP3   OH218797   1.178   3.973   0.673 -0.4024 -0.3501  0.0601
 6278TIP3    H118798   1.170   4.062   0.708 -0.1321  1.1270 -3.2530
 6278TIP3    H218799   1.089   3.938   0.674 -0.9475  0.9582 -0.8961
 6279TIP3   OH218800   6.394   0.445   5.259  0.5601  0.1260 -0.3318
 6279TIP3    H118801   6.380   0.366   5.207 -0.1458 -0.3873  0.6374
 6279TIP3    H218802   6.482   0.434   5.296  0.1072 -0.6482  0.5479
 6280TIP3   OH218803   0.553   6.025   2.453 -0.5572 -0.3040 -0.9296
 6280TIP3    H118804   0.641   6.011   2.489 -1.2350  1.5917  1.8439
 6280TIP3    H218805   0.562   6.101   2.396 -0.8190  2.0367  1.9177
 6281TIP3   OH218806   0.924   4.865   2.716 -0.7490 -0.1635  0.8291
 6281TIP3    H118807   0.896   4.929   2.650 -0.8408 -1.3282 -0.3099
 6281TIP3    H218808   0.863   4.878   2.789 -0.8002  0.9945  0.5980
 6282TIP3   OH218809   3.430   3.848   5.234  0.8230 -0.0696 -0.4460
 6282TIP3    H118810   3.513   3.843   5.281  0.5314  0.5823  0.1635
 6282TIP3    H218811   3.389   3.929   5.266 -0.3881 -0.7756 -0.1345
 6283TIP3   OH218812   3.009   2.641   0.109 -0.2876 -0.0605  0.6634
 6283TIP3    H118813   2.953   2.665   0.035  0.1909  0.4479  0.4511
 6283TIP3    H218814   2.950   2.635   0.183 -0.8218 -0.8930  0.1794
 6284TIP3   OH218815   5.714   1.453   1.506 -0.3457 -0.3119  0.4196
 6284TIP3    H118816   5.625   1.477   1.480 -0.4648 -0.0179  1.0815
 6284TIP3    H218817   5.770   1.510   1.454 -0.5676 -0.0494  0.4624
 6285TIP3   OH218818   1.007   4.245   2.824  0.3361 -0.1511  0.0514
 6285TIP3    H118819   0.985   4.152   2.829 -1.4979  0.2631  4.2173
 6285TIP3    H218820   0.922   4.288   2.808  0.5296  0.8759  1.5681
 6286TIP3   OH218821   1.274   6.290   2.409 -0.1162 -0.1405 -0.0218
 6286TIP3    H118822   1.287   6.337   2.328 -2.0293  0.3767 -0.0767
 6286TIP3    H218823   1.191   6.243   2.397 -1.8421  1.9923  2.4945
 6287TIP3   OH218824   6.981   0.734   2.816  0.4528 -0.2136 -0.4588
 6287TIP3    H118825   6.924   0.750   2.741 -0.7317 -3.1269 -0.3148
 6287TIP3    H218826   7.011   0.644   2.804  0.6374 -0.5917  2.2814
 6288TIP3   OH218827   5.850   4.569   0.753  0.2083 -0.0863 -0.2311
 6288TIP3    H118828   5.755   4.580   0.750 -0.0796 -2.3533 -1.6339
 6288TIP3    H218829   5.882   4.628   0.686  0.0714  2.3319  1.6920
 6289TIP3   OH218830   3.938   5.795   0.106 -0.0026 -0.1270  0.3434
 6289TIP3    H118831   3.992   5.773   0.182  0.5269 -0.4580 -0.1153
 6289TIP3    H218832   3.857   5.746   0.118 -0.6880  1.2843  1.6305
 6290TIP3   OH218833   4.028   4.135   0.831 -0.6353 -0.1122  0.2065
 6290TIP3    H118834   4.068   4.052   0.858  1.9518  0.6575 -0.9388
 6290TIP3    H218835   4.050   4.143   0.738  0.3822  2.4738  0.5841
 6291TIP3   OH218836   6.699   1.275   1.762 -0.0571  0.0553  0.1025
 6291TIP3    H118837   6.741   1.226   1.691  0.5447 -0.0518  0.5312
 6291TIP3    H218838   6.636   1.214   1.799  0.3944 -0.2495  0.3628
 6292TIP3   OH218839   4.184   4.035   1.824  0.2950  0.1456 -0.4479
 6292TIP3    H118840   4.186   3.959   1.765 -0.0950  0.9668 -1.5611
 6292TIP3    H218841   4.258   4.089   1.796  0.2864  0.4006  0.0204
 6293TIP3   OH218842   2.091   6.800   3.960 -0.0202  0.0297 -0.1840
 6293TIP3    H118843   2.152   6.796   4.034 -0.4113  1.8505  0.3104
 6293TIP3    H218844   2.146   6.785   3.883  0.5140 -1.2450  0.4119
 6294TIP3   OH218845   1.434   6.669   0.670  0.5160 -0.3705  0.3398
 6294TIP3    H118846   1.505   6.727   0.697  0.3271 -0.5090  1.1749
 6294TIP3    H218847   1.385   6.720   0.605  0.7627  0.1282  0.5410
 6295TIP3   OH218848   7.131   5.181   3.068  0.3649 -0.2769 -0.5894
 6295TIP3    H118849   7.161   5.093   3.094  1.3370  0.2580  0.1845
 6295TIP3    H218850   7.212   5.227   3.045 -0.1480  0.3981 -1.0732
 6296TIP3   OH218851   5.348   5.014   3.883 -0.2408  0.2162  0.4418
 6296TIP3    H118852   5.360   5.017   3.978  1.4162 -0.6365  0.3024
 6296TIP3    H218853   5.329   4.923   3.864  0.5141  0.1717 -0.1386
 6297TIP3   OH218854   5.560   4.663   3.210 -0.0059 -0.6057 -0.6178
 6297TIP3    H118855   5.465   4.653   3.215 -0.2630  0.8990 -1.8368
 6297TIP3    H218856   5.573   4.753   3.182  1.8471 -0.2197  1.2111
 6298TIP3   OH218857   3.632   6.522   0.910  0.0158  0.1737 -1.0737
 6298TIP3    H118858   3.603   6.432   0.901 -1.0962  0.2174  1.2206
 6298TIP3    H218859   3.623   6.560   0.822 -3.8879 -0.7388 -1.2648
 6299TIP3   OH218860   2.040   1.759   1.499  0.4058  0.5011 -0.3885
 6299TIP3    H118861   1.954   1.787   1.529 -0.5276 -1.6428 -0.9024
 6299TIP3    H218862   2.025   1.725   1.411  1.1407 -2.6851  0.6076
 6300TIP3   OH218863   0.346   5.961   4.802  0.5755  0.2651  0.8498
 6300TIP3    H118864   0.286   5.965   4.728  0.6837  0.3779  0.7682
 6300TIP3    H218865   0.433   5.966   4.762  0.8660 -3.8122  0.5562
 6301TIP3   OH218866   1.834   0.929  -0.003 -0.0984 -0.0390  0.5056
 6301TIP3    H118867   1.819   0.956   0.088  0.7432  0.3995  0.5136
 6301TIP3    H218868   1.850   1.010  -0.050  0.8824 -0.3797  0.2362
 6302TIP3   OH218869   1.382   3.648   0.434  0.0167  0.1745 -0.3182
 6302TIP3    H118870   1.333   3.611   0.506 -0.3774 -0.8081 -1.0685
 6302TIP3    H218871   1.315   3.686   0.376  0.2827  0.4404 -0.4555
 6303TIP3   OH218872   1.329   3.249   5.750  0.1574 -0.1424 -0.3896
 6303TIP3    H118873   1.243   3.216   5.776 -0.4885  0.8489 -1.1838
 6303TIP3    H218874   1.338   3.332   5.796  0.7441 -0.3060 -0.2097
 6304TIP3   OH218875   3.513   4.044   2.968  0.0382  0.0711 -0.0630
 6304TIP3    H118876   3.446   4.089   3.019 -0.4771 -2.1224  1.3085
 6304TIP3    H218877   3.596   4.080   3.000 -0.2443 -1.4431  2.6681
 6305TIP3   OH218878   4.056   2.029   3.213 -0.2394 -0.2586 -0.2450
 6305TIP3    H118879   4.071   1.937   3.236  1.9832 -0.3602 -1.8238
 6305TIP3    H218880   4.074   2.033   3.119 -1.0343  1.6790 -0.3494
 6306TIP3   OH218881   0.388   3.378   0.935 -0.5807 -0.4929  0.1844
 6306TIP3    H118882   0.346   3.439   0.996  0.8050 -0.7213  1.4236
 6306TIP3    H218883   0.480   3.403   0.936 -0.6754  0.4107 -2.9405
 6307TIP3   OH218884   4.522   3.530   2.819  0.3798  0.6265 -0.2956
 6307TIP3    H118885   4.553   3.453   2.772  1.4868 -0.0437  1.4480
 6307TIP3    H218886   4.581   3.600   2.791  2.4134 -0.2207  1.5304
 6308TIP3   OH218887   2.693   6.701   3.503  0.1989  0.3788  0.3667
 6308TIP3    H118888   2.598   6.712   3.504  0.1438  0.0007  1.8079
 6308TIP3    H218889   2.720   6.732   3.417 -1.2718  0.1090 -0.2219
 6309TIP3   OH218890   6.803   1.221   3.856 -0.2169 -0.5152  0.3590
 6309TIP3    H118891   6.805   1.141   3.909  1.3749 -0.0612  1.0415
 6309TIP3    H218892   6.894   1.234   3.829 -0.6975  0.2952 -0.9441
 6310TIP3   OH218893   3.269   3.641   0.807 -0.3264  0.2327  0.2847
 6310TIP3    H118894   3.322   3.624   0.885  0.2652 -0.3427 -0.2326
 6310TIP3    H218895   3.321   3.703   0.756 -0.4121  0.1079  0.0446
 6311TIP3   OH218896   0.838   1.342   4.536  0.0091  0.3380  0.5707
 6311TIP3    H118897   0.788   1.420   4.561 -0.0804  0.4553  0.0309
 6311TIP3    H218898   0.819   1.330   4.443  1.0501  0.4355  0.3345
 6312TIP3   OH218899   3.860  -0.017   2.161 -0.1362  0.5779 -0.3143
 6312TIP3    H118900   3.833  -0.023   2.253 -1.1482  0.7484 -0.5882
 6312TIP3    H218901   3.872   0.077   2.146 -2.7487  0.8804 -1.0812
 6313TIP3   OH218902   5.061   0.259   3.208  0.2671  0.1739 -0.0724
 6313TIP3    H118903   5.042   0.317   3.135  1.3957  0.5198 -0.1119
 6313TIP3    H218904   4.987   0.271   3.269 -0.3074  0.4323 -0.8093
 6314TIP3   OH218905   6.820   4.244   1.020 -0.3026 -0.1140 -0.0359
 6314TIP3    H118906   6.808   4.195   1.101 -0.3156  0.1930  0.1514
 6314TIP3    H218907   6.736   4.287   1.005  0.1608  1.0694  0.6260
 6315TIP3   OH218908   2.845   5.472   5.176 -0.5073 -0.1482 -0.5493
 6315TIP3    H118909   2.884   5.558   5.194  0.5369 -0.4888 -1.0725
 6315TIP3    H218910   2.767   5.468   5.232  0.3137  0.5035  0.6890
 6316TIP3   OH218911   7.195   0.580   0.183 -0.1492  0.0119 -0.3898
 6316TIP3    H118912   7.170   0.489   0.197  1.0392 -0.2370  0.2952
 6316TIP3    H218913   7.201   0.589   0.088  1.2179 -1.0776 -0.4388
 6317TIP3   OH218914   1.268   4.268   0.737 -0.1090  0.0654  0.3038
 6317TIP3    H118915   1.187   4.260   0.787 -0.4412  1.9685  0.1307
 6317TIP3    H218916   1.337   4.264   0.802 -0.4722  1.0727  0.7627
 6318TIP3   OH218917   0.102   5.565   0.606 -0.1950 -0.3845 -0.0558
 6318TIP3    H118918   0.054   5.483   0.599  0.3100 -0.6418 -0.6230
 6318TIP3    H218919   0.190   5.544   0.573 -0.1140  0.4272 -0.3763
 6319TIP3   OH218920   4.081   4.476   1.703  0.0382  0.5056 -0.1355
 6319TIP3    H118921   4.135   4.487   1.625 -0.4280 -0.3539 -0.5973
 6319TIP3    H218922   4.054   4.384   1.700 -0.6143  0.6671  0.6268
 6320TIP3   OH218923   3.421   5.554   1.712  0.6623  0.1614  0.4479
 6320TIP3    H118924   3.478   5.631   1.717  0.3667  0.4687 -0.6191
 6320TIP3    H218925   3.449   5.509   1.633  0.2269 -0.3364  0.5766
 6321TIP3   OH218926   7.106   1.120   5.725 -0.2400 -0.2221  0.3847
 6321TIP3    H118927   7.187   1.102   5.774 -1.1044 -0.3925  1.8129
 6321TIP3    H218928   7.052   1.171   5.786 -0.0714  2.5742 -1.5894
 6322TIP3   OH218929   4.994   1.015   3.371 -0.1039  0.6114  0.0288
 6322TIP3    H118930   4.944   1.096   3.358  0.6282  0.9481 -0.8034
 6322TIP3    H218931   4.962   0.956   3.303  0.2637  0.6469 -0.1747
 6323TIP3   OH218932   6.674   5.018   3.068  0.0561 -0.1199  0.0311
 6323TIP3    H118933   6.683   5.108   3.037 -2.3030 -0.0448 -0.6460
 6323TIP3    H218934   6.652   4.968   2.989  1.0111 -1.2568  0.4547
 6324TIP3   OH218935   3.978   6.494   3.816 -0.4033  0.1862  0.4662
 6324TIP3    H118936   3.910   6.473   3.880  0.3626  1.7682  1.8818
 6324TIP3    H218937   3.993   6.412   3.769 -3.2928 -0.1993  0.0459
 6325TIP3   OH218938   1.065   1.335   5.405 -0.2892  0.1701  0.4506
 6325TIP3    H118939   1.058   1.241   5.392  1.4967  0.0790 -0.2144
 6325TIP3    H218940   1.096   1.368   5.320 -1.7638  1.4980  0.3849
 6326TIP3   OH218941   6.272   0.359   1.398  0.6320 -0.3070 -0.0853
 6326TIP3    H118942   6.366   0.342   1.408  0.4535 -1.4594 -0.2077
 6326TIP3    H218943   6.267   0.445   1.357  1.5983  0.4572  1.3097
 6327TIP3   OH218944   6.025   3.533   1.062 -0.7518 -0.0655  0.0953
 6327TIP3    H118945   6.006   3.482   1.140  1.0642  0.3351  0.8697
 6327TIP3    H218946   6.038   3.622   1.094  3.3527 -0.4289  0.0139
 6328TIP3   OH218947   3.192   3.976   3.222 -0.8939 -0.1758  1.0148
 6328TIP3    H118948   3.137   3.977   3.301 -0.8992 -1.1887  1.0394
 6328TIP3    H218949   3.133   3.948   3.152 -0.7931  0.3259  0.7279
 6329TIP3   OH218950   2.077   3.728   1.062  0.5212 -0.4775 -0.4429
 6329TIP3    H118951   2.048   3.658   1.121 -0.9830  0.8732  0.4928
 6329TIP3    H218952   2.087   3.685   0.977 -3.3419 -1.3559 -0.6378
 6330TIP3   OH218953   4.653   2.630   3.258 -0.2458  0.1709 -0.1472
 6330TIP3    H118954   4.646   2.535   3.267  2.0149 -0.1322 -0.8792
 6330TIP3    H218955   4.615   2.648   3.171  0.5558 -0.2632 -0.5975
 6331TIP3   OH218956   2.380   2.838   1.306 -0.1494  0.2284  0.1159
 6331TIP3    H118957   2.393   2.748   1.277 -2.0365  0.5467 -1.9549
 6331TIP3    H218958   2.427   2.891   1.242 -0.3719  0.7925  0.4139
 6332TIP3   OH218959   4.250   4.829   1.224 -0.0876  0.0402 -0.5056
 6332TIP3    H118960   4.240   4.737   1.200  0.3187  0.4093 -2.1975
 6332TIP3    H218961   4.177   4.873   1.182  1.0668  0.8131 -1.8049
 6333TIP3   OH218962   2.466   1.560   3.573  0.1941  0.5104 -0.1808
 6333TIP3    H118963   2.499   1.646   3.544 -1.5929  1.4858  0.5490
 6333TIP3    H218964   2.462   1.568   3.668 -1.0705  0.0264 -0.1894
 6334TIP3   OH218965   2.865   5.109   2.173  0.2395  0.4717 -0.4472
 6334TIP3    H118966   2.785   5.058   2.160  0.2767  0.4018 -0.4074
 6334TIP3    H218967   2.935   5.049   2.149  0.2789  0.5355 -0.4885
 6335TIP3   OH218968   5.640   4.055   5.500 -0.4028 -0.2037  0.3321
 6335TIP3    H118969   5.592   4.129   5.539  0.0619 -0.8380  2.1956
 6335TIP3    H218970   5.597   3.977   5.535  0.3700 -0.8022 -0.0223
 6336TIP3   OH218971   3.932   4.601   2.954 -0.0887 -0.1847  0.0265
 6336TIP3    H118972   4.010   4.635   3.000 -0.0944 -0.2207  0.0628
 6336TIP3    H218973   3.953   4.509   2.938 -1.0240 -0.8002  2.0228
 6337TIP3   OH218974   3.353   4.078   5.340  0.3364 -0.0407  0.2694
 6337TIP3    H118975   3.307   4.053   5.420 -1.7359  2.2403 -0.0866
 6337TIP3    H218976   3.417   4.144   5.368 -1.0769  1.5038 -0.0081
 6338TIP3   OH218977   3.559   0.013   0.876  0.0844  0.4629  0.1408
 6338TIP3    H118978   3.578  -0.072   0.836  1.7734  0.1649  1.4518
 6338TIP3    H218979   3.540   0.071   0.801 -1.3068 -1.0718 -0.7506
 6339TIP3   OH218980   3.862   6.298   4.351 -0.2054  0.4057  0.2781
 6339TIP3    H118981   3.832   6.211   4.326 -0.6797  1.0794 -1.7542
 6339TIP3    H218982   3.788   6.337   4.398 -0.2594 -0.0414  0.5631
 6340TIP3   OH218983   3.070   1.126   3.976 -1.1940 -0.4863  0.1557
 6340TIP3    H118984   3.037   1.204   3.932 -0.7438 -0.2592  0.2061
 6340TIP3    H218985   2.997   1.095   4.030 -1.1967  0.2332  0.5749
 6341TIP3   OH218986   1.389   4.556   4.006 -0.1216  0.3396  0.2186
 6341TIP3    H118987   1.461   4.601   4.050 -0.1041  0.5236  0.0057
 6341TIP3    H218988   1.326   4.537   4.076  0.9632 -1.5081  0.7515
 6342TIP3   OH218989   5.472   5.946   1.672  0.2470  0.2241 -0.1467
 6342TIP3    H118990   5.510   6.022   1.628  2.0854 -0.3614  0.3458
 6342TIP3    H218991   5.521   5.871   1.636 -0.6505 -0.6000  0.3123
 6343TIP3   OH218992   7.184   0.786   2.508  0.4515  0.0974 -0.1971
 6343TIP3    H118993   7.261   0.771   2.563  0.9727  1.1013 -0.6324
 6343TIP3    H218994   7.169   0.880   2.511 -0.4344 -0.0194 -0.5639
 6344TIP3   OH218995   5.258   0.307   0.960  0.1373 -0.0146 -0.1676
 6344TIP3    H118996   5.253   0.373   0.892 -1.6375  0.5437  0.4625
 6344TIP3    H218997   5.284   0.355   1.039 -1.0630 -0.0644  0.2720
 6345TIP3   OH218998   5.994   6.750   5.756  0.1225 -0.0001  0.4962
 6345TIP3    H118999   6.000   6.805   5.678  1.8092 -3.2093 -1.8993
 6345TIP3    H219000   5.903   6.757   5.784 -0.8356  0.5425 -2.4202
 6346TIP3   OH219001   1.895   2.774   2.399 -0.7206 -0.7285  0.5278
 6346TIP3    H119002   1.955   2.829   2.348 -1.1967 -1.4644 -0.8788
 6346TIP3    H219003   1.952   2.722   2.456  0.0723 -1.7756 -1.1422
 6347TIP3   OH219004   3.057   3.553   4.394 -0.5139  0.0156 -0.5294
 6347TIP3    H119005   2.975   3.583   4.354 -0.3032 -0.3799 -1.2715
 6347TIP3    H219006   3.096   3.632   4.431 -1.0835  0.2588 -0.4351
 6348TIP3   OH219007   7.157   5.506   2.871 -0.0546  0.1706 -0.1723
 6348TIP3    H119008   7.236   5.504   2.925 -1.5589 -0.0074  2.1442
 6348TIP3    H219009   7.126   5.596   2.877 -1.7821 -0.4656  1.7617
 6349TIP3   OH219010   1.502   5.466   5.600 -0.3757 -0.3599  0.3408
 6349TIP3    H119011   1.584   5.460   5.552 -0.1529  1.7537  0.3571
 6349TIP3    H219012   1.441   5.411   5.551  0.2429  0.5174 -1.5245
 6350TIP3   OH219013   5.992   2.339   0.579 -0.1513 -0.3865 -0.0834
 6350TIP3    H119014   5.938   2.260   0.584  0.9198 -1.1178  0.3597
 6350TIP3    H219015   5.938   2.402   0.531 -1.3744 -1.0931  0.3089
 6351TIP3   OH219016   1.362   5.400   3.979  0.0745  0.0727  0.2878
 6351TIP3    H119017   1.322   5.430   4.061  1.3533  2.5490  0.1036
 6351TIP3    H219018   1.297   5.419   3.912  0.1153  0.7259  0.4209
 6352TIP3   OH219019   2.542   2.833   2.549 -0.1601  0.6760  0.5097
 6352TIP3    H119020   2.466   2.889   2.568 -0.7878 -0.0486  0.1824
 6352TIP3    H219021   2.506   2.745   2.541  0.7261  0.3133  0.3689
 6353TIP3   OH219022   1.025   2.737   5.218  0.0488  0.0063  0.3350
 6353TIP3    H119023   0.931   2.741   5.236 -0.2486  0.0577 -1.1186
 6353TIP3    H219024   1.051   2.829   5.211  0.2623 -0.0028  0.9245
 6354TIP3   OH219025   0.813   6.651   3.866  0.1173  0.7276  1.1094
 6354TIP3    H119026   0.873   6.583   3.897 -1.4662 -0.7755  1.0268
 6354TIP3    H219027   0.785   6.621   3.780  0.8535  2.4918  0.2051
 6355TIP3   OH219028   3.768   4.484   5.721 -0.1724  0.2192  0.1878
 6355TIP3    H119029   3.785   4.549   5.653 -3.0159  0.5898 -0.2871
 6355TIP3    H219030   3.808   4.520   5.800  1.3036  0.8106 -0.7840
 6356TIP3   OH219031   2.242   2.147   3.296 -0.3872  0.1134 -0.1446
 6356TIP3    H119032   2.241   2.222   3.236  1.3486 -0.1547 -0.5645
 6356TIP3    H219033   2.333   2.119   3.298 -0.7511 -1.1134  1.1271
 6357TIP3   OH219034   6.940   2.882   3.924  0.2317 -0.4755  0.2883
 6357TIP3    H119035   6.968   2.792   3.910  2.7549  0.3962 -0.7268
 6357TIP3    H219036   6.916   2.913   3.836 -0.5624 -0.1054  0.6223
 6358TIP3   OH219037   3.984   4.358   3.784 -0.0533  0.3600 -0.2897
 6358TIP3    H119038   3.955   4.380   3.872 -0.8614 -0.7264 -0.2702
 6358TIP3    H219039   4.052   4.291   3.797  0.5167  0.8956 -0.4594
 6359TIP3   OH219040   5.126   0.142   4.023 -0.4231  0.0227 -0.1278
 6359TIP3    H119041   5.198   0.086   3.992 -0.0707 -0.3075  1.2006
 6359TIP3    H219042   5.096   0.098   4.103 -1.0214  1.0425  0.2143
 6360TIP3   OH219043   4.093   1.576   3.072  0.8903  0.5990 -0.5298
 6360TIP3    H119044   4.157   1.530   3.126  1.0110  0.2961 -0.9213
 6360TIP3    H219045   4.016   1.519   3.072 -0.8139  2.5703  2.9022
 6361TIP3   OH219046   4.689   0.270   2.708  0.2882 -0.0748 -0.1515
 6361TIP3    H119047   4.692   0.180   2.739  0.3702 -0.8885 -2.3477
 6361TIP3    H219048   4.616   0.272   2.645  0.1968  1.4311 -0.0484
 6362TIP3   OH219049   0.275   1.175   1.782 -0.5528 -0.2989 -0.0961
 6362TIP3    H119050   0.346   1.114   1.797  0.6924  0.1853 -3.2256
 6362TIP3    H219051   0.200   1.120   1.760 -0.4773 -0.7400  0.7009
 6363TIP3   OH219052   2.146   0.930   0.384 -0.0375 -0.5098 -0.5666
 6363TIP3    H119053   2.067   0.965   0.425  1.1411  0.4420  0.9810
 6363TIP3    H219054   2.160   0.985   0.307  0.1559  0.5668  0.2165
 6364TIP3   OH219055   3.743   2.432   3.564 -0.0775  0.0761  0.2542
 6364TIP3    H119056   3.725   2.346   3.602 -0.1636  0.0148  0.0752
 6364TIP3    H219057   3.662   2.455   3.518  0.4847 -0.4395 -1.0234
 6365TIP3   OH219058   7.016   0.322   0.468 -0.6117 -0.0568  0.3267
 6365TIP3    H119059   7.033   0.372   0.548 -0.0901  1.4010 -0.6543
 6365TIP3    H219060   6.946   0.261   0.492 -1.7262  1.5709  1.4179
 6366TIP3   OH219061   5.564   3.075   3.028  0.0825 -0.0317 -0.0647
 6366TIP3    H119062   5.529   3.078   3.117 -1.4886  1.6336 -0.6773
 6366TIP3    H219063   5.532   2.992   2.993 -1.1646  0.2943  0.2463
 6367TIP3   OH219064   4.670   6.540   4.242  0.3999  0.4707  0.4746
 6367TIP3    H119065   4.636   6.610   4.297 -2.0250  0.9683 -1.4743
 6367TIP3    H219066   4.593   6.488   4.219  1.6918 -1.1343 -0.4970
 6368TIP3   OH219067   4.942   5.484   3.143 -0.2713  0.4636  0.1349
 6368TIP3    H119068   4.997   5.423   3.191 -4.3718 -4.5420 -0.6022
 6368TIP3    H219069   4.932   5.560   3.201  2.1486 -1.1929  2.9502
 6369TIP3   OH219070   6.202   5.777   2.391  0.0597 -0.0561 -0.2844
 6369TIP3    H119071   6.201   5.872   2.376 -1.9169  0.3222  1.6981
 6369TIP3    H219072   6.150   5.765   2.471  2.7580 -2.5642  1.2812
 6370TIP3   OH219073   1.126   5.244   0.773 -1.0205  0.1660 -0.8675
 6370TIP3    H119074   1.079   5.227   0.854  0.6066 -3.2135 -0.4333
 6370TIP3    H219075   1.137   5.157   0.733  1.4344  1.2418 -2.8231
 6371TIP3   OH219076   5.052   3.585   1.920  0.7833  0.0702  0.1170
 6371TIP3    H119077   5.120   3.650   1.899  0.1339  0.3658 -1.1174
 6371TIP3    H219078   5.021   3.554   1.836 -0.9061  0.2344  0.6350
 6372TIP3   OH219079   5.539   4.817   3.603  0.1037 -0.0389  0.3833
 6372TIP3    H119080   5.621   4.836   3.557  0.4312  1.1307  1.4012
 6372TIP3    H219081   5.557   4.840   3.694 -1.2287 -0.1760  0.6972
 6373TIP3   OH219082   2.961   2.471   3.582  0.2120 -0.4266  0.5416
 6373TIP3    H119083   3.050   2.497   3.557 -0.7271  1.3002 -1.2706
 6373TIP3    H219084   2.974   2.398   3.643  2.8441 -0.4183  0.1229
 6374TIP3   OH219085   1.790   0.254   2.527 -0.4805  0.1404 -0.3423
 6374TIP3    H119086   1.714   0.309   2.508 -2.3808 -1.7213  1.4432
 6374TIP3    H219087   1.822   0.229   2.440 -0.1903  3.0380 -1.2010
 6375TIP3   OH219088   6.025   2.820   0.412 -0.2668 -0.6591 -0.0320
 6375TIP3    H119089   5.969   2.880   0.362  1.3404  1.4093  0.5286
 6375TIP3    H219090   5.964   2.755   0.447 -2.4967  1.8121  1.0615
 6376TIP3   OH219091   3.009   1.301   4.771 -0.3493 -0.2831  0.2286
 6376TIP3    H119092   3.091   1.321   4.725 -0.3136 -0.9920 -0.0280
 6376TIP3    H219093   3.013   1.207   4.786 -1.4064 -0.4327 -0.3608
 6377TIP3   OH219094   6.007   2.284   5.212  0.0173 -0.4896 -0.0787
 6377TIP3    H119095   6.094   2.273   5.252 -0.8404 -2.7293  1.3957
 6377TIP3    H219096   5.951   2.309   5.285 -0.3621  2.8786 -1.3433
 6378TIP3   OH219097   0.678   0.091   5.523  0.0883  0.2491  0.1628
 6378TIP3    H119098   0.615   0.019   5.517  1.2264 -0.7248 -0.5158
 6378TIP3    H219099   0.659   0.147   5.448  0.7524 -0.6505 -0.6843
 6379TIP3   OH219100   6.817   0.535   0.341 -0.4065  0.4495  0.6148
 6379TIP3    H119101   6.794   0.445   0.320 -0.4759  0.2466  1.5074
 6379TIP3    H219102   6.823   0.536   0.437  2.5910  0.6366  0.5124
 6380TIP3   OH219103   0.719   2.368   3.769 -0.3089  0.1952  0.7924
 6380TIP3    H119104   0.797   2.389   3.717 -0.6601  1.5222  0.7670
 6380TIP3    H219105   0.709   2.273   3.760  0.3555  0.2296 -0.5521
 6381TIP3   OH219106   6.694   4.654   4.274  0.4893 -0.3143  0.4306
 6381TIP3    H119107   6.784   4.621   4.285  1.1760  1.3733  0.1733
 6381TIP3    H219108   6.648   4.583   4.229  1.5646 -1.3816  0.9470
 6382TIP3   OH219109   2.444   4.499   4.605 -0.1341 -0.3461 -0.0554
 6382TIP3    H119110   2.417   4.550   4.681  0.6626 -2.0049  1.3931
 6382TIP3    H219111   2.537   4.519   4.593  0.6191 -2.5862  1.5371
 6383TIP3   OH219112   4.683   5.277   0.590  0.7774  0.0735  0.5613
 6383TIP3    H119113   4.744   5.242   0.525  1.3218  2.3751 -0.2859
 6383TIP3    H219114   4.598   5.241   0.565  1.0468  0.5976 -1.2147
 6384TIP3   OH219115   0.539   5.451   5.558 -0.1466 -0.2108  0.2085
 6384TIP3    H119116   0.479   5.492   5.497 -0.2115  0.0827  0.4705
 6384TIP3    H219117   0.564   5.369   5.515 -1.2102 -0.6323  0.3780
 6385TIP3   OH219118   0.290   2.303   3.949  0.2364 -0.3248  0.9896
 6385TIP3    H119119   0.292   2.242   3.875  0.2832 -0.0125  0.7293
 6385TIP3    H219120   0.305   2.389   3.909  0.0880 -0.1342  1.3417
 6386TIP3   OH219121   2.146   5.575   3.605  0.5068 -0.5576  0.3786
 6386TIP3    H119122   2.102   5.659   3.588 -1.0396 -1.4523 -0.2504
 6386TIP3    H219123   2.239   5.598   3.612  0.2796  1.0554 -1.0334
 6387TIP3   OH219124   6.322   4.659   0.946 -0.5603 -0.8368  0.0897
 6387TIP3    H119125   6.366   4.616   0.874 -0.2610 -0.9429  0.3330
 6387TIP3    H219126   6.232   4.626   0.943 -0.8610  0.0309 -0.9298
 6388TIP3   OH219127   5.378   2.808   2.506 -0.7010  0.7985 -0.7407
 6388TIP3    H119128   5.312   2.828   2.572 -0.5778  0.0299 -0.3663
 6388TIP3    H219129   5.386   2.712   2.508 -0.4376  0.7902 -1.6211
 6389TIP3   OH219130   0.659   4.042   1.217 -0.0263 -0.1397 -0.0320
 6389TIP3    H119131   0.655   4.137   1.205  0.6818 -0.2683 -1.4490
 6389TIP3    H219132   0.635   4.029   1.309 -1.3509  1.3044 -0.1388
 6390TIP3   OH219133   1.514   4.008   4.057 -0.1402 -0.2877 -0.6843
 6390TIP3    H119134   1.522   4.103   4.063 -0.3732 -0.3150  0.2376
 6390TIP3    H219135   1.430   3.993   4.014 -0.3597 -0.0754 -0.3329
 6391TIP3   OH219136   4.152   6.620   3.188  0.1512 -0.3591 -0.0399
 6391TIP3    H119137   4.190   6.639   3.274  1.7729  0.4673 -0.8955
 6391TIP3    H219138   4.059   6.609   3.205 -0.4551  4.3671  1.2596
 6392TIP3   OH219139   2.685   0.632   2.280 -0.1708 -0.5741  0.1610
 6392TIP3    H119140   2.651   0.719   2.298  0.4355 -0.2020 -0.4362
 6392TIP3    H219141   2.660   0.580   2.356 -0.6979  0.0722  0.4381
 6393TIP3   OH219142   7.070   1.227   3.769 -0.1189 -0.5355  0.1886
 6393TIP3    H119143   7.069   1.253   3.677 -0.9781  2.0248  0.8282
 6393TIP3    H219144   7.142   1.277   3.807  0.3371 -1.7018  0.8964
 6394TIP3   OH219145   3.104   2.694   2.204 -0.1950  0.0196 -0.3783
 6394TIP3    H119146   3.126   2.781   2.235  0.1169  0.2997 -1.3444
 6394TIP3    H219147   3.020   2.704   2.160  0.2008 -0.0001 -1.1569
 6395TIP3   OH219148   5.269   0.453   3.014 -0.6174  0.0377  0.2669
 6395TIP3    H119149   5.354   0.479   2.980 -0.2191 -1.6156 -0.1099
 6395TIP3    H219150   5.275   0.471   3.108 -0.2404  0.8966  0.0858
 6396TIP3   OH219151   6.580   4.850   2.871  0.0642  0.1341  0.3547
 6396TIP3    H119152   6.546   4.764   2.895  1.1520 -0.4356 -0.1092
 6396TIP3    H219153   6.541   4.869   2.786  1.5518 -0.9240 -0.6066
 6397TIP3   OH219154   1.621   1.013   4.908  0.2947  0.6901 -0.0183
 6397TIP3    H119155   1.707   0.975   4.892  0.8340  1.9361 -0.1857
 6397TIP3    H219156   1.574   1.002   4.826  0.9192  1.6026 -0.4997
 6398TIP3   OH219157   5.122   6.782   0.405 -0.1505 -0.0540  0.3862
 6398TIP3    H119158   5.065   6.709   0.381  0.9079 -0.7692 -0.0329
 6398TIP3    H219159   5.182   6.791   0.331 -2.0931  3.2297 -1.0145
 6399TIP3   OH219160   3.099   0.138   4.320  0.2141  0.8858 -0.2817
 6399TIP3    H119161   3.162   0.140   4.392 -0.0317  1.8058 -0.0841
 6399TIP3    H219162   3.023   0.187   4.353 -1.0328 -1.0217 -0.1299
 6400TIP3   OH219163   6.975   0.922   0.854 -0.0229  0.9293  0.3184
 6400TIP3    H119164   7.060   0.892   0.823  1.5252  6.1698 -1.4788
 6400TIP3    H219165   6.914   0.900   0.783  0.5645  0.2521  0.0158
 6401TIP3   OH219166   6.200   0.849   2.298 -0.2721  0.3968  0.3553
 6401TIP3    H119167   6.271   0.826   2.357  0.1912  1.0942  0.0848
 6401TIP3    H219168   6.156   0.923   2.340 -0.1060  0.7236 -0.0368
 6402TIP3   OH219169   0.818   0.458   4.147 -0.0218 -0.3622  0.0001
 6402TIP3    H119170   0.760   0.482   4.075  0.9783  0.2682 -0.6163
 6402TIP3    H219171   0.818   0.535   4.205 -0.7520 -0.8317  0.6343
 6403TIP3   OH219172   5.601   2.399   5.314 -0.0051  0.1441 -0.0750
 6403TIP3    H119173   5.582   2.463   5.246  1.2597 -0.6465 -1.2148
 6403TIP3    H219174   5.692   2.416   5.339  0.6559 -1.7282 -1.0306
 6404TIP3   OH219175   1.978   6.011   3.668 -0.0006  0.1657 -0.0703
 6404TIP3    H119176   1.886   6.024   3.688 -0.2820 -1.0168 -0.5153
 6404TIP3    H219177   2.010   6.098   3.644 -1.3592  0.3587 -1.2880
 6405TIP3   OH219178   5.140   6.327   1.351 -0.0160  0.1280 -0.1736
 6405TIP3    H119179   5.077   6.380   1.400 -0.4379 -0.1741 -0.3757
 6405TIP3    H219180   5.126   6.351   1.260 -1.8816 -1.9749 -0.5405
 6406TIP3   OH219181   2.454   3.373   1.813 -0.1276  0.6063  0.3742
 6406TIP3    H119182   2.507   3.338   1.742 -1.1564  0.3504 -0.2902
 6406TIP3    H219183   2.389   3.428   1.770  0.8876  2.6554  1.3312
 6407TIP3   OH219184   2.091   1.296   5.341  0.2385  0.2395  0.3705
 6407TIP3    H119185   2.121   1.208   5.318  0.5501 -0.2230  2.3645
 6407TIP3    H219186   2.039   1.283   5.420 -1.2181  1.6555 -0.2807
 6408TIP3   OH219187   4.582   5.994   2.706 -0.5240  0.0458  0.2980
 6408TIP3    H119188   4.557   6.053   2.778  0.5966  0.2328  0.5497
 6408TIP3    H219189   4.677   6.004   2.699 -0.4512 -0.9998 -0.3182
 6409TIP3   OH219190   4.919   6.154   3.243 -0.4971 -0.6747  0.4132
 6409TIP3    H119191   4.995   6.168   3.187 -0.7140  1.8997  0.6404
 6409TIP3    H219192   4.952   6.102   3.316  2.2767  3.7400  2.6943
 6410TIP3   OH219193   5.021   2.949   1.713  0.1109  0.1379  0.5809
 6410TIP3    H119194   5.024   3.028   1.767 -1.3640  0.5427  0.1268
 6410TIP3    H219195   4.934   2.951   1.673 -0.0674 -1.8535  0.7558
 6411TIP3   OH219196   1.408   5.641   1.985  0.1050 -0.0167  0.5728
 6411TIP3    H119197   1.315   5.623   2.004  0.4583 -1.8260  0.7495
 6411TIP3    H219198   1.448   5.650   2.071  0.4284 -1.1837  0.5582
 6412TIP3   OH219199   4.416   0.918   5.839 -0.4917  0.3625  0.3600
 6412TIP3    H119200   4.454   1.006   5.843 -1.6191  0.8722  0.3281
 6412TIP3    H219201   4.477   0.863   5.888  0.4099  1.0896  0.0782
 6413TIP3   OH219202   1.528   6.291   2.094 -0.6846  0.0941 -0.2965
 6413TIP3    H119203   1.534   6.356   2.165  0.0083 -0.3074  0.0240
 6413TIP3    H219204   1.576   6.216   2.127  1.2438  0.5359 -1.9093
 6414TIP3   OH219205   3.757   2.526   4.949 -0.0073 -0.0819  0.0639
 6414TIP3    H119206   3.690   2.464   4.920  0.3830  0.8230 -3.1955
 6414TIP3    H219207   3.759   2.517   5.044 -3.4310 -1.4520  0.1268
 6415TIP3   OH219208   0.391   5.855   4.208 -0.4880 -0.3912  0.2565
 6415TIP3    H119209   0.414   5.910   4.133  0.8754 -0.2123  0.7883
 6415TIP3    H219210   0.319   5.901   4.250 -0.1227  0.3973  0.0302
 6416TIP3   OH219211   4.559   5.484   2.173  0.1389  0.1628  0.3493
 6416TIP3    H119212   4.521   5.474   2.260  0.4414 -1.2784  0.3294
 6416TIP3    H219213   4.618   5.409   2.164 -0.7295 -0.3306 -1.5334
 6417TIP3   OH219214   3.403   1.442   5.472  0.0169  0.1852 -0.7495
 6417TIP3    H119215   3.458   1.384   5.524 -0.3075  0.0087 -0.6000
 6417TIP3    H219216   3.441   1.529   5.484 -0.2233  0.1910  0.0029
 6418TIP3   OH219217   3.563   2.552   1.011  0.3750  0.0479  0.6649
 6418TIP3    H119218   3.644   2.566   0.963  0.1843 -1.9698 -0.3144
 6418TIP3    H219219   3.579   2.473   1.063 -0.7116  0.0610  1.0372
 6419TIP3   OH219220   3.479   4.586   0.160 -0.2705 -0.4207  0.1796
 6419TIP3    H119221   3.511   4.625   0.079 -1.1799  1.8948  0.8785
 6419TIP3    H219222   3.555   4.585   0.218  0.0214 -0.7204 -0.2045
 6420TIP3   OH219223   0.404   1.852   1.153  0.0888 -0.4020  0.0669
 6420TIP3    H119224   0.488   1.810   1.137  0.8544  0.6725  1.0883
 6420TIP3    H219225   0.371   1.812   1.233  1.2330  1.4438  1.5405
 6421TIP3   OH219226   2.283   6.176   0.186 -0.1383 -0.2198  0.0835
 6421TIP3    H119227   2.208   6.140   0.234  1.4325 -3.0561  0.6572
 6421TIP3    H219228   2.296   6.114   0.114  1.7524  0.0889  0.1193
 6422TIP3   OH219229   0.065   1.716   3.184  0.3932  0.0069 -0.8379
 6422TIP3    H119230   0.061   1.780   3.113 -0.8813  0.0105 -0.7806
 6422TIP3    H219231  -0.013   1.732   3.236 -0.3462 -2.0422 -1.2274
 6423TIP3   OH219232   6.193   6.482   3.839 -0.4221 -0.3419  0.3553
 6423TIP3    H119233   6.102   6.509   3.826 -0.4030 -0.4651 -0.0564
 6423TIP3    H219234   6.218   6.520   3.923 -0.4237  0.8574 -0.1637
 6424TIP3   OH219235   5.131   4.277   3.007 -0.4572  0.5357 -0.0963
 6424TIP3    H119236   5.118   4.183   2.995 -0.7448  0.4557  0.7710
 6424TIP3    H219237   5.093   4.317   2.928 -1.7321  0.0075  0.2261
 6425TIP3   OH219238   3.302   6.757   4.071 -0.0268  0.1779 -0.1389
 6425TIP3    H119239   3.241   6.697   4.028  0.6593 -0.4380 -0.2789
 6425TIP3    H219240   3.330   6.710   4.149  0.2785  0.4478 -0.0839
 6426TIP3   OH219241   2.766   0.827   1.074 -0.5895  0.1113 -0.2279
 6426TIP3    H119242   2.757   0.791   1.162 -1.3646 -0.2173 -0.4388
 6426TIP3    H219243   2.861   0.826   1.058 -0.5392 -1.1526  0.0501
 6427TIP3   OH219244   3.209   0.867   3.471 -0.2698  0.1285 -0.1779
 6427TIP3    H119245   3.149   0.876   3.544  1.1300  1.0446  0.9336
 6427TIP3    H219246   3.187   0.940   3.413 -0.0175  0.6784  0.4022
 6428TIP3   OH219247   2.939   6.411   3.466 -0.2810  0.0718 -0.1096
 6428TIP3    H119248   2.866   6.383   3.521 -0.5978  0.7070 -0.1997
 6428TIP3    H219249   2.975   6.330   3.431  0.0201 -0.3442  1.1462
 6429TIP3   OH219250   5.021   5.568   2.648 -0.1889  0.1637  0.3519
 6429TIP3    H119251   5.031   5.532   2.737  0.3599  0.0565  0.2499
 6429TIP3    H219252   5.005   5.661   2.662  0.0755  0.1803  0.5605
 6430TIP3   OH219253   1.832   3.854   2.337  0.2072 -0.5231 -0.7131
 6430TIP3    H119254   1.783   3.772   2.326 -1.1404  0.0096  0.9209
 6430TIP3    H219255   1.842   3.864   2.431  1.7185  0.4552 -0.9346
 6431TIP3   OH219256   0.364   4.942   4.375 -0.1299  0.1826  0.2121
 6431TIP3    H119257   0.397   4.947   4.285 -1.6766  1.3714 -0.3277
 6431TIP3    H219258   0.271   4.922   4.366 -0.4060  0.7413  1.5182
 6432TIP3   OH219259   5.564   4.904   5.504  0.7333  0.1212  0.0186
 6432TIP3    H119260   5.487   4.936   5.457 -0.8392 -1.6905  1.2131
 6432TIP3    H219261   5.620   4.868   5.435  0.0774  0.6115 -0.7940
 6433TIP3   OH219262   3.915   1.604   2.655 -0.3484  0.0756  0.5535
 6433TIP3    H119263   3.963   1.676   2.695  0.2901  0.4723 -0.8422
 6433TIP3    H219264   3.978   1.531   2.653 -1.0163 -0.5702  2.0332
 6434TIP3   OH219265   2.912   3.780   3.858 -0.4990  0.3051 -0.0530
 6434TIP3    H119266   2.924   3.687   3.835 -1.0071  0.3690 -0.6179
 6434TIP3    H219267   2.899   3.780   3.952  1.7876  0.0373  0.3163
 6435TIP3   OH219268   2.270   2.667   2.379 -0.4280 -1.1586 -0.0457
 6435TIP3    H119269   2.360   2.642   2.361 -0.3611 -0.4961 -0.7075
 6435TIP3    H219270   2.220   2.586   2.373  0.3986 -1.9291  2.5007
 6436TIP3   OH219271   4.035   3.484   3.634 -0.0494 -0.1760 -0.1246
 6436TIP3    H119272   4.001   3.400   3.601  1.5879 -0.3625 -1.4897
 6436TIP3    H219273   3.971   3.548   3.605 -0.1389 -0.7032 -1.1452
 6437TIP3   OH219274   4.414   1.251   4.132  0.7793 -0.6526  0.7868
 6437TIP3    H119275   4.489   1.241   4.190 -0.8403 -1.0161  2.9325
 6437TIP3    H219276   4.343   1.205   4.176 -1.0380  0.7573 -0.5090
 6438TIP3   OH219277   3.930   5.403   3.084 -0.1376  0.4088 -0.3484
 6438TIP3    H119278   3.903   5.412   2.993  0.8213  1.1369 -0.5856
 6438TIP3    H219279   4.003   5.340   3.081  0.6822  1.3243 -0.2734
 6439TIP3   OH219280   7.180   3.778   0.990  0.4161 -0.3025 -0.0945
 6439TIP3    H119281   7.218   3.856   0.950 -0.2128  0.3562  0.5404
 6439TIP3    H219282   7.190   3.792   1.084 -1.8655  0.1945  0.1340
 6440TIP3   OH219283   4.249   4.292   2.466  0.3664 -0.2542  0.3054
 6440TIP3    H119284   4.259   4.380   2.430  0.9453 -0.7911 -0.9107
 6440TIP3    H219285   4.159   4.267   2.445 -0.5398  0.8177  2.5430
 6441TIP3   OH219286   0.594   4.267   3.525  0.0025  0.0580  0.3609
 6441TIP3    H119287   0.544   4.344   3.501  0.2869  0.1346  0.0131
 6441TIP3    H219288   0.564   4.246   3.614  1.0520  1.4953  1.0976
 6442TIP3   OH219289   3.962   2.216   5.287 -0.3029 -0.1615 -0.1253
 6442TIP3    H119290   3.940   2.208   5.194  0.6077 -1.6318 -0.2427
 6442TIP3    H219291   4.050   2.179   5.294  0.6567  2.1188  0.9440
 6443TIP3   OH219292   4.889   1.341   3.957  0.7199  0.4566 -0.1573
 6443TIP3    H119293   4.953   1.371   4.022  2.0570 -1.8182 -0.3468
 6443TIP3    H219294   4.942   1.305   3.886 -0.7750 -0.7958 -0.6782
 6444TIP3   OH219295   3.154   1.382   0.218 -0.8541  0.5533  0.7320
 6444TIP3    H119296   3.237   1.371   0.264 -0.8801 -2.7391  0.2183
 6444TIP3    H219297   3.177   1.386   0.126 -1.2298 -0.7844  0.5554
 6445TIP3   OH219298   0.680   1.053   0.146  0.1862  0.3516 -0.0740
 6445TIP3    H119299   0.658   0.961   0.156 -0.8403  0.4153 -1.3946
 6445TIP3    H219300   0.745   1.055   0.076  1.3776  0.5311  0.9959
 6446TIP3   OH219301   1.915   0.308   4.921  0.5040  0.7341  0.1582
 6446TIP3    H119302   1.872   0.392   4.902  0.3144  0.8515  1.0494
 6446TIP3    H219303   1.874   0.278   5.002 -0.4419 -0.9468 -0.9209
 6447TIP3   OH219304   5.415   2.196   2.778 -0.1351  0.1242 -0.4307
 6447TIP3    H119305   5.439   2.119   2.727  0.7280  0.4259 -0.5030
 6447TIP3    H219306   5.344   2.237   2.729 -0.0016 -0.1442 -0.8494
 6448TIP3   OH219307   2.026   0.515   4.648  0.4277 -0.6767  0.0925
 6448TIP3    H119308   2.098   0.521   4.711  0.0483 -0.3818  0.5001
 6448TIP3    H219309   1.947   0.515   4.702  0.0209  1.2287 -0.4416
 6449TIP3   OH219310   2.478   5.109   2.482  0.5629  0.3257 -0.8576
 6449TIP3    H119311   2.548   5.054   2.447  1.1388 -0.4568  1.3717
 6449TIP3    H219312   2.502   5.125   2.573 -0.7802  2.3770 -0.7808
 6450TIP3   OH219313   5.754   1.762   4.276  0.1285 -0.9384 -0.4457
 6450TIP3    H119314   5.781   1.735   4.363  1.1524 -0.3053 -0.5529
 6450TIP3    H219315   5.658   1.760   4.278  0.1494 -1.0060  0.6569
 6451TIP3   OH219316   0.894   4.460   0.593  0.1029  0.1150  0.1759
 6451TIP3    H119317   0.835   4.531   0.621  1.1729 -0.5518  5.0772
 6451TIP3    H219318   0.858   4.382   0.635  3.0859 -0.7237  1.4074
 6452TIP3   OH219319   6.495   5.887   1.859  0.1281 -0.2317 -0.1087
 6452TIP3    H119320   6.507   5.963   1.916  1.7616 -0.6360  0.1273
 6452TIP3    H219321   6.577   5.839   1.866 -0.4412 -1.3996 -1.1821
 6453TIP3   OH219322   2.430   1.335   1.531  0.0472 -0.0259  0.6425
 6453TIP3    H119323   2.495   1.394   1.568  0.2878  0.9533 -1.2392
 6453TIP3    H219324   2.347   1.383   1.537  0.0728  0.1047  0.0367
 6454TIP3   OH219325   2.793   6.446   5.813 -0.4808  0.0843  0.0249
 6454TIP3    H119326   2.725   6.378   5.813 -0.3075 -0.1012 -0.9021
 6454TIP3    H219327   2.744   6.529   5.813 -0.7146 -0.0491 -0.5795
 6455TIP3   OH219328   5.047   5.009   1.721 -0.1611 -0.5873  0.1347
 6455TIP3    H119329   4.965   5.038   1.760 -0.2499  0.7156 -0.9513
 6455TIP3    H219330   5.112   5.072   1.750  0.1488 -0.7158 -0.2570
 6456TIP3   OH219331   3.409   2.866   3.431  0.3807 -0.2416  0.0572
 6456TIP3    H119332   3.367   2.793   3.386 -0.2652 -0.0965  0.4137
 6456TIP3    H219333   3.398   2.846   3.524 -0.3108  0.5970  0.1612
 6457TIP3   OH219334   5.319   5.840   4.761  0.3241  0.4111 -0.1715
 6457TIP3    H119335   5.350   5.801   4.843 -1.9447  1.5388  1.3559
 6457TIP3    H219336   5.303   5.765   4.704  1.1246 -0.4822  0.7232
 6458TIP3   OH219337   1.309   6.489   2.739 -0.3731  0.4914  0.3438
 6458TIP3    H119338   1.394   6.506   2.780 -0.4886 -0.5417  1.0510
 6458TIP3    H219339   1.266   6.575   2.738 -0.6403  0.4871  3.0642
 6459TIP3   OH219340   4.164   4.910   3.635 -0.2551 -0.3404  0.3406
 6459TIP3    H119341   4.177   4.969   3.560 -0.1483  1.4710  1.7147
 6459TIP3    H219342   4.241   4.925   3.690  0.4827 -2.8387  0.1258
 6460TIP3   OH219343   4.826   4.246   1.414  0.6020  0.3926 -0.7101
 6460TIP3    H119344   4.871   4.273   1.334  1.3387  2.9072  0.4670
 6460TIP3    H219345   4.894   4.207   1.468  0.0565 -1.5443 -1.3144
 6461TIP3   OH219346   6.835   6.341   1.507 -0.2083  0.3002  0.6234
 6461TIP3    H119347   6.868   6.264   1.461 -0.5137  0.5655 -0.0492
 6461TIP3    H219348   6.911   6.399   1.514 -0.0135  0.0043  1.0050
 6462TIP3   OH219349   4.290   4.476   3.546  0.0943 -0.2383 -0.0857
 6462TIP3    H119350   4.314   4.384   3.535  1.7574  0.2681 -1.0087
 6462TIP3    H219351   4.343   4.522   3.481 -1.4820  1.2709 -0.3630
 6463TIP3   OH219352   6.290   4.440   4.668  0.1926 -0.1291 -0.4834
 6463TIP3    H119353   6.241   4.456   4.748 -2.0055  0.9528 -1.9204
 6463TIP3    H219354   6.378   4.473   4.685 -0.0364 -0.4758  1.6291
 6464TIP3   OH219355   2.669   5.858   0.453 -0.2693 -0.3989  0.4721
 6464TIP3    H119356   2.689   5.888   0.541 -0.2613  1.1108 -0.0136
 6464TIP3    H219357   2.581   5.892   0.435 -0.1788 -0.4807 -0.1777
 6465TIP3   OH219358   6.328   0.713   1.862 -0.2082  0.5509  0.3722
 6465TIP3    H119359   6.376   0.713   1.944  0.9221 -0.2148 -0.2544
 6465TIP3    H219360   6.279   0.631   1.863 -1.0968  1.0710  0.7637
 6466TIP3   OH219361   0.270   0.087   4.770  0.0730  0.4170  0.5139
 6466TIP3    H119362   0.207   0.086   4.842  0.3288 -0.0277  0.7326
 6466TIP3    H219363   0.285  -0.005   4.750 -1.0885  0.5323 -1.0713
 6467TIP3   OH219364   5.486   6.786   2.591  0.6338 -0.1437 -0.5072
 6467TIP3    H119365   5.431   6.710   2.570  0.8105 -0.1994 -0.7736
 6467TIP3    H219366   5.554   6.786   2.523  0.9873 -0.0978 -0.1609
 6468TIP3   OH219367   6.700   0.700   1.073  0.0502  0.1159 -0.1280
 6468TIP3    H119368   6.730   0.715   1.163  0.6252 -0.0341 -0.2895
 6468TIP3    H219369   6.605   0.692   1.081  0.1829 -0.9450  0.6142
 6469TIP3   OH219370   1.302   6.119   1.704  0.4065  0.3334 -0.0459
 6469TIP3    H119371   1.236   6.174   1.748  0.8289  0.5838  0.2779
 6469TIP3    H219372   1.386   6.153   1.734  0.6841 -0.1678 -0.2400
 6470TIP3   OH219373   1.848   5.587   4.164  0.8029  0.0791  0.0708
 6470TIP3    H119374   1.774   5.620   4.113  0.5368 -1.8270 -0.8710
 6470TIP3    H219375   1.925   5.614   4.114  0.5405 -1.9405 -1.5588
 6471TIP3   OH219376   0.557   4.291   4.965 -0.3598  0.4625  0.1544
 6471TIP3    H119377   0.548   4.281   5.060 -1.4273 -0.0222  0.0213
 6471TIP3    H219378   0.542   4.203   4.930 -1.6842  0.9367 -0.5565
 6472TIP3   OH219379   6.979   4.521   0.458 -0.1786 -0.3440  0.5498
 6472TIP3    H119380   6.948   4.575   0.386 -0.4660  0.6816  1.4135
 6472TIP3    H219381   7.018   4.444   0.416 -0.7953 -0.0151 -0.6620
 6473TIP3   OH219382   3.939   5.216   2.560 -0.2516  0.5525 -0.5202
 6473TIP3    H119383   3.889   5.286   2.518 -0.6350 -0.3475 -1.6117
 6473TIP3    H219384   3.875   5.169   2.613 -0.4554 -0.2386 -1.4503
 6474TIP3   OH219385   7.045   2.055   4.341  0.2420 -0.0677 -0.2850
 6474TIP3    H119386   7.025   1.998   4.266  0.1285  0.2688 -0.5143
 6474TIP3    H219387   6.987   2.130   4.330  0.4273  0.1180 -0.0124
 6475TIP3   OH219388   2.856   5.709   1.920  0.0679  0.3229 -0.2548
 6475TIP3    H119389   2.908   5.699   2.000  0.1231  0.0378 -0.3244
 6475TIP3    H219390   2.771   5.671   1.942  0.2939 -0.3658 -0.5372
 6476TIP3   OH219391   6.957   2.159   0.389 -0.3272 -0.3099 -0.4913
 6476TIP3    H119392   6.959   2.205   0.473 -1.2260 -1.7081  0.3332
 6476TIP3    H219393   6.900   2.084   0.404  2.5504 -2.8688 -1.1646
 6477TIP3   OH219394   2.170   4.793   3.802  0.0120  0.1956  0.3021
 6477TIP3    H119395   2.133   4.850   3.870 -0.0080 -0.7585  1.1198
 6477TIP3    H219396   2.238   4.847   3.761  0.7751  0.4584  1.8083
 6478TIP3   OH219397   0.858   1.715   4.388 -0.3647  0.0607 -0.3598
 6478TIP3    H119398   0.808   1.792   4.416 -0.4841 -0.7760  1.9315
 6478TIP3    H219399   0.906   1.745   4.311 -1.0891  2.1543 -0.0790
 6479TIP3   OH219400   1.631   2.817   3.587  0.0761 -0.4048 -0.3194
 6479TIP3    H119401   1.559   2.763   3.553 -0.1566 -0.6229  0.5109
 6479TIP3    H219402   1.697   2.754   3.614 -0.6521 -0.3625  1.7059
 6480TIP3   OH219403   5.381   2.032   3.376  0.5094  0.7535  0.4296
 6480TIP3    H119404   5.441   2.035   3.301 -0.4631  2.6298 -0.3547
 6480TIP3    H219405   5.378   2.122   3.407  0.0866  0.1867  2.0945
 6481TIP3   OH219406   5.622   5.023   0.395 -0.3200 -0.4635  0.2892
 6481TIP3    H119407   5.608   5.109   0.436  0.9141  0.3294 -0.8424
 6481TIP3    H219408   5.548   5.013   0.336 -0.1139  0.1669 -0.0911
 6482TIP3   OH219409   7.220   0.807   0.349  0.3589 -0.2700  0.3164
 6482TIP3    H119410   7.231   0.880   0.288 -1.5215  0.8817  1.2696
 6482TIP3    H219411   7.180   0.738   0.296 -1.8736  0.9495  0.3037
 6483TIP3   OH219412   1.070   2.678   3.981 -0.2850 -0.1319 -0.0869
 6483TIP3    H119413   1.141   2.676   4.045  1.0682 -0.9601 -1.5387
 6483TIP3    H219414   1.092   2.609   3.919 -1.6675  0.4869 -1.3324
 6484TIP3   OH219415   1.406   1.655   5.653 -0.1445 -0.1983 -0.0758
 6484TIP3    H119416   1.409   1.653   5.557  2.0951  0.7776 -0.0732
 6484TIP3    H219417   1.375   1.567   5.677  1.0233 -1.1051 -1.6738
 6485TIP3   OH219418   4.740   1.470   2.399 -0.1752 -0.7201  0.0884
 6485TIP3    H119419   4.830   1.438   2.408 -0.3511 -1.2892 -0.1293
 6485TIP3    H219420   4.719   1.458   2.306 -0.1298  0.3575 -0.0705
 6486TIP3   OH219421   3.316   3.800   1.085  1.2498  0.1631 -0.2869
 6486TIP3    H119422   3.382   3.732   1.073  0.0269 -0.9689 -0.7993
 6486TIP3    H219423   3.355   3.878   1.045  2.6800 -0.2014  0.3334
 6487TIP3   OH219424   2.907   5.465   3.683  0.2289 -0.8369  0.0513
 6487TIP3    H119425   2.917   5.463   3.778  2.9402 -0.2561 -0.1422
 6487TIP3    H219426   2.960   5.392   3.652  0.5791 -0.1316 -1.0651
 6488TIP3   OH219427   1.775   0.643   5.539 -0.0530  0.0482  0.6869
 6488TIP3    H119428   1.757   0.730   5.572  1.6683  0.8657 -0.3778
 6488TIP3    H219429   1.827   0.601   5.608 -0.4836  0.0256  0.9991
 6489TIP3   OH219430   1.320   0.295   1.083 -0.1526  0.2333 -0.2709
 6489TIP3    H119431   1.299   0.386   1.061 -0.2872  0.1922 -0.3168
 6489TIP3    H219432   1.235   0.252   1.088 -0.1430  0.3133  0.6554
 6490TIP3   OH219433   3.745   4.299   5.478 -0.6732  0.2516 -0.3413
 6490TIP3    H119434   3.761   4.346   5.559 -3.0426 -0.8260  0.8367
 6490TIP3    H219435   3.655   4.321   5.454 -1.1937 -2.0671 -0.8002
 6491TIP3   OH219436   2.031   1.512   2.550  0.0556  0.6843  0.3335
 6491TIP3    H119437   2.100   1.509   2.484  1.3340  0.8844  1.6110
 6491TIP3    H219438   1.956   1.550   2.505  0.8244  0.6446 -1.0386
 6492TIP3   OH219439   0.400   6.051   5.415 -0.1908 -0.0304 -0.1169
 6492TIP3    H119440   0.334   6.108   5.455  0.5168 -0.5106  1.8804
 6492TIP3    H219441   0.355   5.968   5.403 -0.3368  0.0408 -0.0731
 6493TIP3   OH219442   4.169   5.265   1.084  0.3451 -0.4327 -0.0920
 6493TIP3    H119443   4.110   5.340   1.093  0.6228 -0.3485  1.3527
 6493TIP3    H219444   4.208   5.255   1.171 -0.2107 -2.7119 -0.0540
 6494TIP3   OH219445   4.174   0.724   5.182 -0.5060 -0.5201 -0.2490
 6494TIP3    H119446   4.220   0.761   5.106  0.4180  0.5299  0.7916
 6494TIP3    H219447   4.224   0.646   5.205 -0.8598 -0.9102 -0.7806
 6495TIP3   OH219448   1.599   3.372   3.446 -0.1918  0.0394 -0.1469
 6495TIP3    H119449   1.559   3.427   3.513 -2.1883  0.4689 -1.5844
 6495TIP3    H219450   1.692   3.393   3.449 -0.4258  0.9772  1.5973
 6496TIP3   OH219451   7.037   2.522   0.307 -0.3599 -1.0429 -0.1443
 6496TIP3    H119452   7.125   2.492   0.329 -0.4069 -0.2552  1.2070
 6496TIP3    H219453   6.998   2.449   0.259  0.8869 -1.5524 -0.4114
 6497TIP3   OH219454   2.013   5.348   4.976  0.2809  0.2759  0.4753
 6497TIP3    H119455   2.096   5.331   5.020  0.1610 -0.7090  0.3567
 6497TIP3    H219456   1.948   5.343   5.046  0.0783 -1.3945  0.2272
 6498TIP3   OH219457   6.846   2.787   2.004  0.2401 -0.0421  0.2342
 6498TIP3    H119458   6.885   2.708   2.041 -0.9123 -1.1369 -0.7909
 6498TIP3    H219459   6.919   2.848   1.993  1.2909 -1.2659  0.2974
 6499TIP3   OH219460   1.426   5.335   1.978  0.0619  0.2717  0.2117
 6499TIP3    H119461   1.393   5.422   1.958 -0.6546  0.7297  2.9607
 6499TIP3    H219462   1.479   5.346   2.057 -0.9739 -1.8792  1.3263
 6500TIP3   OH219463   1.230   6.149   4.024  0.1555  0.3595  0.2462
 6500TIP3    H119464   1.161   6.161   4.090  0.0554  0.6572  0.0909
 6500TIP3    H219465   1.184   6.122   3.945  0.3033 -0.2582  0.3674
 6501TIP3   OH219466   2.743   6.541   2.377  0.2038  0.3558  0.2133
 6501TIP3    H119467   2.660   6.584   2.358  0.3287 -0.6177 -2.9803
 6501TIP3    H219468   2.718   6.458   2.418 -0.7269 -1.1875 -3.1194
 6502TIP3   OH219469   1.139   4.354   0.489  0.1258  0.6654  0.7051
 6502TIP3    H119470   1.193   4.308   0.553 -0.0371 -0.0330  0.3458
 6502TIP3    H219471   1.066   4.389   0.540  1.0073  1.8042  1.2352
 6503TIP3   OH219472   6.494   4.856   4.286 -0.1671 -0.0591 -0.2335
 6503TIP3    H119473   6.528   4.899   4.207  0.2050  1.5116  0.7514
 6503TIP3    H219474   6.563   4.794   4.310  0.6078  0.8356 -0.0736
 6504TIP3   OH219475   0.867   3.044   5.370  0.1517  0.5686  0.1732
 6504TIP3    H119476   0.833   2.957   5.353 -1.6564  1.0861  0.9042
 6504TIP3    H219477   0.961   3.038   5.350  0.1533 -1.6359  0.6431
 6505TIP3   OH219478   1.854   0.900   4.847  0.5058 -0.4757 -0.1529
 6505TIP3    H119479   1.920   0.944   4.899 -0.8234 -0.1058  1.3036
 6505TIP3    H219480   1.866   0.807   4.867  0.0214 -0.3385  0.8296
 6506TIP3   OH219481   4.565   2.812   1.520  0.3490 -0.0609  0.0356
 6506TIP3    H119482   4.471   2.811   1.503  0.3760 -2.3519 -0.2559
 6506TIP3    H219483   4.594   2.898   1.490 -1.0486 -0.6345 -3.4031
 6507TIP3   OH219484   2.639   6.203   5.834 -0.1590 -0.1650  0.3017
 6507TIP3    H119485   2.672   6.188   5.923  1.2450 -0.1300 -0.1860
 6507TIP3    H219486   2.545   6.187   5.840 -0.3307  1.1949  2.1011
 6508TIP3   OH219487   3.837   6.140   5.485  0.3435 -0.2713  0.6334
 6508TIP3    H119488   3.747   6.121   5.514  0.2414  0.2556  0.6755
 6508TIP3    H219489   3.826   6.194   5.407  0.6192  0.0709  0.8236
 6509TIP3   OH219490   2.313   3.024   2.611  0.1960 -0.1476  0.1533
 6509TIP3    H119491   2.338   3.091   2.675  1.8081 -0.0980 -0.4927
 6509TIP3    H219492   2.292   2.947   2.665 -1.1261  0.6644  0.8654
 6510TIP3   OH219493   6.627   3.495   5.240 -0.4179 -0.4827 -0.0984
 6510TIP3    H119494   6.719   3.468   5.230 -0.4302 -0.5621  0.0157
 6510TIP3    H219495   6.580   3.443   5.175 -0.3912 -0.4800 -0.1204
 6511TIP3   OH219496   5.876   2.934   5.608  0.2412  0.1248 -0.1855
 6511TIP3    H119497   5.951   2.993   5.605 -0.5229  1.3287  2.0921
 6511TIP3    H219498   5.800   2.991   5.621 -0.5263 -1.2499  2.1271
 6512TIP3   OH219499   1.187   3.515   2.813  0.3181 -0.1664  0.3520
 6512TIP3    H119500   1.124   3.456   2.771  1.8149 -0.4908 -1.5778
 6512TIP3    H219501   1.148   3.535   2.898 -1.4419 -1.8982  0.0214
 6513TIP3   OH219502   2.525   0.643   5.668 -0.1572 -0.0965  0.3208
 6513TIP3    H119503   2.517   0.548   5.665  2.1143 -0.3095 -0.3694
 6513TIP3    H219504   2.612   0.660   5.702 -0.4090  1.7471  0.1918
 6514TIP3   OH219505   2.794   2.747   0.511  0.4523  0.1903  0.8519
 6514TIP3    H119506   2.882   2.715   0.529  0.1844 -1.1789 -0.1043
 6514TIP3    H219507   2.770   2.704   0.429 -0.6887  1.4035  0.5190
 6515TIP3   OH219508   1.126   3.871   1.534 -0.5392  0.0379 -0.6243
 6515TIP3    H119509   1.108   3.868   1.627 -1.8300  0.1973 -0.8565
 6515TIP3    H219510   1.137   3.965   1.514 -2.3641  0.2082 -0.9881
 6516TIP3   OH219511   4.832   0.374   1.877 -0.1666 -0.2759 -0.5017
 6516TIP3    H119512   4.855   0.299   1.932  0.3296  0.2743  0.0623
 6516TIP3    H219513   4.757   0.414   1.922  0.2179  0.1551 -0.2327
 6517TIP3   OH219514   4.611   6.165   3.118 -0.8783  0.8565 -0.1665
 6517TIP3    H119515   4.535   6.180   3.173 -0.0910  2.0734  0.6553
 6517TIP3    H219516   4.658   6.094   3.160 -0.8317  1.0685  0.1449
 6518TIP3   OH219517   2.607   6.259   2.335 -0.8245 -0.4295 -0.1023
 6518TIP3    H119518   2.595   6.216   2.250  0.7558 -0.2007 -0.4835
 6518TIP3    H219519   2.607   6.187   2.398  0.0658 -0.8375 -0.5412
 6519TIP3   OH219520   6.947   0.660   2.189  0.1405 -0.0161 -0.4418
 6519TIP3    H119521   6.972   0.670   2.097 -1.6880  2.7951 -0.7512
 6519TIP3    H219522   7.029   0.669   2.237  0.7100  2.0092 -1.6855
 6520TIP3   OH219523   2.377   0.346   1.789 -1.0650  1.0035  0.5857
 6520TIP3    H119524   2.454   0.347   1.846  0.1202 -0.8383 -0.8949
 6520TIP3    H219525   2.406   0.387   1.708 -1.7794  0.7043  0.1665
 6521TIP3   OH219526   1.545   5.052   2.689  0.1045 -0.3756 -0.2134
 6521TIP3    H119527   1.556   5.084   2.779 -0.2788 -0.0091 -0.2945
 6521TIP3    H219528   1.550   5.131   2.635 -1.7781 -0.3049 -0.3457
 6522TIP3   OH219529   5.376   1.088   2.585  0.8139 -0.3804  0.1224
 6522TIP3    H119530   5.298   1.060   2.632  1.3612  0.3292  1.5182
 6522TIP3    H219531   5.342   1.133   2.507 -0.2766  1.5912  1.6515
 6523TIP3   OH219532   5.394   3.436   0.876 -0.2270  0.0243  0.1846
 6523TIP3    H119533   5.479   3.404   0.846  0.0963 -1.3715  2.3683
 6523TIP3    H219534   5.339   3.358   0.880 -0.8855  0.5161  1.0632
 6524TIP3   OH219535   1.017   2.555   1.036 -0.0679  0.6312  0.1085
 6524TIP3    H119536   0.972   2.609   0.970 -1.4464 -0.0663  0.4318
 6524TIP3    H219537   0.946   2.521   1.090  0.9022 -0.3194  0.8092
 6525TIP3   OH219538   2.194   2.151   1.379  0.7627  0.5042 -0.3061
 6525TIP3    H119539   2.278   2.196   1.368  1.7111 -0.7884  1.1733
 6525TIP3    H219540   2.203   2.071   1.328  0.2276  0.5905 -0.5413
 6526TIP3   OH219541   6.831   6.522   3.573 -0.1873  0.0464  0.0958
 6526TIP3    H119542   6.811   6.428   3.573 -0.1801  0.0452  0.2747
 6526TIP3    H219543   6.835   6.545   3.480  0.6781 -0.3155  0.0376
 6527TIP3   OH219544   0.703   1.905   1.811  0.2479  0.0090  0.0734
 6527TIP3    H119545   0.701   1.978   1.873  2.5270  0.2043  0.0044
 6527TIP3    H219546   0.612   1.878   1.803 -0.3853  1.4406  1.7650
 6528TIP3   OH219547   4.016   4.410   4.044 -0.4124  0.1732  0.4802
 6528TIP3    H119548   4.109   4.403   4.024 -0.5459 -1.8473  0.3627
 6528TIP3    H219549   4.004   4.356   4.122 -1.4460  0.6776  0.6868
 6529TIP3   OH219550   1.036   2.289   1.201 -0.4827 -0.3532  0.4801
 6529TIP3    H119551   0.988   2.268   1.282  0.9527 -1.4860  1.0940
 6529TIP3    H219552   1.121   2.321   1.231 -0.1093 -0.3153 -0.5766
 6530TIP3   OH219553   4.914   3.700   0.102  0.7846 -0.6783  0.9705
 6530TIP3    H119554   4.982   3.708   0.169  1.1787 -0.2606  0.5319
 6530TIP3    H219555   4.958   3.725   0.020  0.3188 -1.1852  0.5507
 6531TIP3   OH219556   4.615   0.396   5.456  0.1343 -0.3016  0.6118
 6531TIP3    H119557   4.579   0.324   5.508  0.2065  0.6054  1.9762
 6531TIP3    H219558   4.553   0.467   5.469  0.5300  0.1603  0.0079
 6532TIP3   OH219559   2.049   3.605   2.043  0.3531 -0.0116 -0.5467
 6532TIP3    H119560   1.986   3.675   2.059 -4.0493 -3.4158 -1.0442
 6532TIP3    H219561   2.088   3.587   2.128  0.3824  1.8980 -0.1157
 6533TIP3   OH219562   0.453   1.873   2.218  0.1653  0.2218  0.2317
 6533TIP3    H119563   0.535   1.842   2.181 -0.4399  0.9233 -1.8779
 6533TIP3    H219564   0.399   1.795   2.227  0.0675  0.1032 -1.1724
 6534TIP3   OH219565   3.655   2.551   0.482 -0.0191 -0.0287 -0.1054
 6534TIP3    H119566   3.649   2.460   0.451 -0.9002  0.7491 -2.4125
 6534TIP3    H219567   3.713   2.594   0.419 -0.8984  1.3742  0.0078
 6535TIP3   OH219568   1.244   6.664   5.845 -0.3424 -0.2390  0.1084
 6535TIP3    H119569   1.268   6.631   5.759 -0.2148  0.1944 -0.0244
 6535TIP3    H219570   1.154   6.634   5.858 -0.6852  0.4602 -0.5701
 6536TIP3   OH219571   5.366   5.453   2.908 -0.4655  0.5844 -0.2810
 6536TIP3    H119572   5.416   5.387   2.957 -1.3370 -0.5548 -0.8666
 6536TIP3    H219573   5.406   5.536   2.932  0.2012 -0.0854  1.0680
 6537TIP3   OH219574   5.414   6.629   2.809  0.3927  0.2599  0.2549
 6537TIP3    H119575   5.444   6.694   2.745  1.7408 -1.3612 -0.8627
 6537TIP3    H219576   5.410   6.677   2.892 -0.8335  2.2856 -0.8760
 6538TIP3   OH219577   6.732   5.208  -0.018  0.2404  0.5090 -0.1104
 6538TIP3    H119578   6.682   5.263   0.042  1.7275  0.7588  0.9568
 6538TIP3    H219579   6.747   5.127   0.031 -0.0278  0.0029 -0.8379
 6539TIP3   OH219580   2.088   3.843   3.835 -0.0267 -0.6968 -0.2598
 6539TIP3    H119581   2.045   3.817   3.753  1.0818  0.3813 -1.2313
 6539TIP3    H219582   2.017   3.853   3.898 -0.8815 -1.7635 -1.0331
 6540TIP3   OH219583   4.226   6.267   5.506 -0.0114  0.3527  0.1300
 6540TIP3    H119584   4.227   6.171   5.498  1.0977  0.3932 -0.5337
 6540TIP3    H219585   4.246   6.298   5.417 -1.5617  1.2405  0.0672
 6541TIP3   OH219586   2.649   1.420   5.485 -0.1959 -0.1741  0.0993
 6541TIP3    H119587   2.730   1.374   5.463 -0.2812 -1.0061  1.4622
 6541TIP3    H219588   2.587   1.394   5.417  0.7783  0.8824 -1.2776
 6542TIP3   OH219589   3.718   3.769   2.028 -0.3128  0.4242  0.0070
 6542TIP3    H119590   3.660   3.773   1.952 -0.3920  0.4997  0.0708
 6542TIP3    H219591   3.800   3.808   1.998 -0.7204  1.5392  0.2977
 6543TIP3   OH219592   2.928   6.156   0.520  0.6775 -0.5610  0.1718
 6543TIP3    H119593   2.851   6.212   0.518  1.0337 -0.0433  0.4785
 6543TIP3    H219594   2.906   6.088   0.583 -0.0445 -1.2068 -0.7597
 6544TIP3   OH219595   5.068   6.595   3.388 -0.3446  0.5320 -0.4968
 6544TIP3    H119596   5.068   6.500   3.388  2.4187  0.4534 -0.4942
 6544TIP3    H219597   5.046   6.619   3.478  1.2726 -0.1983  0.1236
 6545TIP3   OH219598   4.390   4.683   2.722 -0.5044 -0.6080 -0.2732
 6545TIP3    H119599   4.467   4.727   2.685 -0.1330  0.8270  2.0303
 6545TIP3    H219600   4.412   4.590   2.720  2.2794 -0.1555  2.1697
 6546TIP3   OH219601   1.360   3.978   0.938 -0.4385  0.4621 -0.0059
 6546TIP3    H119602   1.301   3.959   0.865  0.5293  1.7104 -1.1734
 6546TIP3    H219603   1.375   4.073   0.931 -0.5233  0.6591  1.9878
 6547TIP3   OH219604   6.463   0.745   5.099  0.3073 -0.0917  0.0389
 6547TIP3    H119605   6.441   0.658   5.065 -0.1456 -0.1978  0.5907
 6547TIP3    H219606   6.471   0.732   5.194 -1.8859  0.8691  0.4291
 6548TIP3   OH219607   5.578   0.930   2.937  0.3282  0.3632  0.0124
 6548TIP3    H119608   5.629   0.851   2.956 -1.2323 -0.8935 -0.8122
 6548TIP3    H219609   5.642   0.992   2.903  1.4740 -0.8080 -0.0478
 6549TIP3   OH219610   6.145   1.715   2.801 -0.6456  0.1097  0.3093
 6549TIP3    H119611   6.051   1.729   2.814 -0.6957  0.5331 -0.4307
 6549TIP3    H219612   6.160   1.625   2.830 -1.5661 -0.4778 -0.9295
 6550TIP3   OH219613   0.800   2.380   3.269  0.5030  0.3950 -0.6080
 6550TIP3    H119614   0.882   2.340   3.242  1.0708  0.4159  0.9670
 6550TIP3    H219615   0.825   2.445   3.335 -0.8683 -0.6803  1.0670
 6551TIP3   OH219616   4.764   3.715   4.598  0.4564 -0.0822 -0.0528
 6551TIP3    H119617   4.691   3.659   4.623  0.1232  0.2037 -0.3699
 6551TIP3    H219618   4.757   3.723   4.503  1.5903 -0.9960 -0.2392
 6552TIP3   OH219619   0.769   4.083   3.471 -0.2524  0.1013 -0.1775
 6552TIP3    H119620   0.706   4.154   3.457  0.9847  1.2002 -0.2662
 6552TIP3    H219621   0.789   4.086   3.564  0.9566  0.8999 -0.4357
 6553TIP3   OH219622   5.320   2.863   0.387  0.0092  0.0956 -0.2818
 6553TIP3    H119623   5.402   2.814   0.393  0.5811  1.1635  1.1590
 6553TIP3    H219624   5.277   2.828   0.309  1.7609 -0.5897 -0.9954
 6554TIP3   OH219625   1.000   3.318   2.749 -0.1829  0.0072  0.4999
 6554TIP3    H119626   0.956   3.249   2.699 -0.1491 -0.4357  1.0699
 6554TIP3    H219627   1.053   3.270   2.813  0.3307  0.5538  0.4906
 6555TIP3   OH219628   6.586   5.387   3.584  0.1808 -0.6374 -0.4305
 6555TIP3    H119629   6.497   5.390   3.618 -0.2924 -1.5364 -1.5019
 6555TIP3    H219630   6.589   5.457   3.519  0.9554  0.8096  1.0934
 6556TIP3   OH219631   2.139   1.011   5.283  0.8628 -0.4390 -0.3610
 6556TIP3    H119632   2.191   0.978   5.210  2.2907  1.2420 -0.1578
 6556TIP3    H219633   2.176   0.968   5.360 -0.8395 -2.4477 -0.5673
 6557TIP3   OH219634   3.013   3.042   3.370  0.0026 -0.1716 -0.0289
 6557TIP3    H119635   2.992   3.113   3.310 -0.0002  0.8927  1.1984
 6557TIP3    H219636   3.104   3.057   3.396 -0.2610 -0.0973  0.9009
 6558TIP3   OH219637   4.596   0.079   1.863 -0.0375  0.4830  0.5953
 6558TIP3    H119638   4.673   0.080   1.920  0.3018  2.0126  0.1464
 6558TIP3    H219639   4.601   0.161   1.815 -0.5380 -0.5726 -1.3623
 6559TIP3   OH219640   7.133   5.473   1.239  0.2130 -0.5167  0.0555
 6559TIP3    H119641   7.183   5.417   1.298  0.4605  1.2744  1.6258
 6559TIP3    H219642   7.068   5.516   1.295 -0.9938 -0.3688 -1.3785
 6560TIP3   OH219643   4.950   3.926   1.809 -0.3257  0.7544 -0.1538
 6560TIP3    H119644   4.901   3.976   1.874 -1.1408  0.5736 -0.6192
 6560TIP3    H219645   4.891   3.855   1.783  0.0294  0.7482 -0.9941
 6561TIP3   OH219646   2.555   6.711   1.054  0.0619  0.0200 -1.0597
 6561TIP3    H119647   2.599   6.795   1.041  1.5355 -0.4645  0.4325
 6561TIP3    H219648   2.510   6.719   1.138  1.3528 -1.0590 -0.1954
 6562TIP3   OH219649   0.040   2.478   4.491 -0.3722 -0.5956 -0.0974
 6562TIP3    H119650   0.085   2.543   4.437 -1.5885  0.8294  0.5311
 6562TIP3    H219651   0.046   2.397   4.441  1.3241 -0.0598 -0.8459
 6563TIP3   OH219652   0.032   5.493   5.738  0.5114 -0.0828  0.0686
 6563TIP3    H119653   0.127   5.488   5.728  0.3303 -1.4679 -1.4307
 6563TIP3    H219654   0.017   5.494   5.832  1.9908 -0.6613  0.3296
 6564TIP3   OH219655   2.448   2.509   4.515  0.5389  0.0732 -0.0085
 6564TIP3    H119656   2.465   2.416   4.500 -0.9382 -0.2172 -0.0581
 6564TIP3    H219657   2.430   2.545   4.428 -0.2448  0.0940  0.1535
 6565TIP3   OH219658   1.838   6.683   0.303 -0.6962 -0.3140 -0.1999
 6565TIP3    H119659   1.796   6.741   0.367 -1.4917  1.0174 -1.8431
 6565TIP3    H219660   1.912   6.734   0.269 -1.3851 -0.2216 -1.6530
 6566TIP3   OH219661   6.107   1.438   0.642  0.6703 -0.1377  0.7043
 6566TIP3    H119662   6.096   1.533   0.650 -1.0340 -0.1503 -0.6633
 6566TIP3    H219663   6.146   1.411   0.724 -0.9267  1.4773  2.0859
 6567TIP3   OH219664   5.548   6.452   2.215  0.8890  0.5867  0.2994
 6567TIP3    H119665   5.560   6.531   2.163  0.5774 -1.0202 -2.3789
 6567TIP3    H219666   5.637   6.417   2.227  0.7890 -0.4066 -1.5263
 6568TIP3   OH219667   3.372   1.327  -0.001  0.2842 -0.4412  0.8209
 6568TIP3    H119668   3.393   1.236   0.019  0.0345 -1.0149 -1.3044
 6568TIP3    H219669   3.455   1.374   0.011  0.5451 -1.0283  1.3774
 6569TIP3   OH219670   1.073   2.503   0.091 -0.5813 -0.5446 -0.3828
 6569TIP3    H119671   1.073   2.554   0.172  1.8180  1.4691 -1.5022
 6569TIP3    H219672   1.130   2.429   0.109  0.8897  0.5156 -0.4923
 6570TIP3   OH219673   3.604   2.276   0.728 -0.1386 -0.2627 -0.1432
 6570TIP3    H119674   3.565   2.303   0.644  0.9586  0.1157 -0.5517
 6570TIP3    H219675   3.535   2.290   0.792 -1.0641 -0.7334 -1.0085
 6571TIP3   OH219676   4.697   4.348   0.552  0.3319 -0.0274  0.0077
 6571TIP3    H119677   4.606   4.319   0.553  0.6486 -1.0443 -0.1214
 6571TIP3    H219678   4.745   4.276   0.511  1.1011  0.7774 -0.5361
 6572TIP3   OH219679   2.305   0.632   3.838 -0.1853  0.2670 -0.1690
 6572TIP3    H119680   2.228   0.608   3.786 -0.2828 -1.5038  0.6966
 6572TIP3    H219681   2.377   0.583   3.798  0.0651  0.2535  0.2822
 6573TIP3   OH219682   1.056   1.096   0.096 -0.0784 -0.3385  0.8643
 6573TIP3    H119683   0.998   1.123   0.025 -2.3909 -0.4705  2.5764
 6573TIP3    H219684   1.061   1.001   0.087  0.8928 -0.2330  0.0352
 6574TIP3   OH219685   3.964   2.241   2.887  0.0309 -0.2538  0.1954
 6574TIP3    H119686   3.941   2.235   2.979  0.8215  0.1713  0.4319
 6574TIP3    H219687   3.940   2.156   2.850 -2.5924  0.3908  0.2275
 6575TIP3   OH219688   3.457   4.899   1.807 -0.1999 -0.5109 -0.6049
 6575TIP3    H119689   3.408   4.825   1.771 -0.9770  0.0808 -0.7823
 6575TIP3    H219690   3.452   4.889   1.902 -0.5728 -0.5110 -0.6254
 6576TIP3   OH219691   4.662   3.949   1.554 -0.2207  0.5316  0.0626
 6576TIP3    H119692   4.750   3.910   1.547  0.0034  1.2930 -2.6240
 6576TIP3    H219693   4.605   3.886   1.509 -0.5079  1.4497 -0.8863
 6577TIP3   OH219694   6.763   2.242   5.177  0.3948 -0.4443  0.1386
 6577TIP3    H119695   6.823   2.285   5.116 -0.2147  0.4925  0.1793
 6577TIP3    H219696   6.736   2.312   5.237 -1.2669 -0.6772 -0.2946
 6578TIP3   OH219697   4.051   4.720   2.131  0.3588  0.2440 -0.6720
 6578TIP3    H119698   4.032   4.708   2.038 -0.3621  1.8798 -0.7717
 6578TIP3    H219699   4.109   4.797   2.134 -0.4710  0.8629  0.2833
 6579TIP3   OH219700   5.061   0.332   2.925 -0.1857 -0.2002  0.4918
 6579TIP3    H119701   5.137   0.382   2.955 -0.0026 -0.0336 -0.2423
 6579TIP3    H219702   5.007   0.395   2.877 -0.8172 -0.3061  1.0453
 6580TIP3   OH219703   4.720   4.418   2.343 -0.2343  0.3423 -0.2614
 6580TIP3    H119704   4.691   4.387   2.257  1.0903 -0.9986 -0.2621
 6580TIP3    H219705   4.810   4.385   2.351 -0.6092 -0.2604  1.9755
 6581TIP3   OH219706   3.465   4.292   5.439  0.2670 -0.9988 -0.1796
 6581TIP3    H119707   3.408   4.352   5.392  3.5048  0.9617 -1.9777
 6581TIP3    H219708   3.441   4.303   5.531 -0.3614  1.9121 -0.5953
 6582TIP3   OH219709   6.711   3.152   0.978  0.1178 -0.2892 -0.4033
 6582TIP3    H119710   6.673   3.109   1.055  0.3873  0.5361  0.2097
 6582TIP3    H219711   6.722   3.082   0.914  3.0489 -1.7307  1.4441
 6583TIP3   OH219712   3.385   3.356   3.691  0.1866 -0.1311  0.1191
 6583TIP3    H119713   3.384   3.308   3.774  1.9212 -0.1866  0.1534
 6583TIP3    H219714   3.473   3.395   3.688 -0.4503  1.2826 -0.9006
 6584TIP3   OH219715   0.853   6.361   5.449 -0.2589  0.1743  0.5921
 6584TIP3    H119716   0.905   6.308   5.511 -0.9311 -0.6813  0.4473
 6584TIP3    H219717   0.820   6.297   5.386 -0.1224  0.9519 -0.2785
 6585TIP3   OH219718   2.455   6.508   2.382  0.2532 -0.3359  0.1044
 6585TIP3    H119719   2.415   6.548   2.305 -0.9364  0.8040  1.2659
 6585TIP3    H219720   2.495   6.427   2.349 -1.5725 -0.6804 -1.4315
 6586TIP3   OH219721   2.229   2.519   3.847 -0.5861  0.1673 -0.1055
 6586TIP3    H119722   2.204   2.500   3.938  2.8703 -0.9397  0.8017
 6586TIP3    H219723   2.263   2.608   3.850 -1.6652  0.6082 -0.6470
 6587TIP3   OH219724   3.754   3.743   0.986 -0.3113  0.1425  0.2518
 6587TIP3    H119725   3.725   3.798   0.913  0.3248  0.0261 -0.0959
 6587TIP3    H219726   3.740   3.797   1.064  1.1401  1.1721 -0.1488
 6588TIP3   OH219727   4.045   0.506   4.319 -0.2348 -0.8766 -0.3579
 6588TIP3    H119728   4.047   0.590   4.367  1.5766 -1.3303  0.4835
 6588TIP3    H219729   3.982   0.520   4.249  0.6221  1.5044 -0.7614
 6589TIP3   OH219730   5.397   3.051   1.808  0.2152  0.3740 -0.3274
 6589TIP3    H119731   5.404   3.144   1.828 -1.9117  0.6625 -0.7679
 6589TIP3    H219732   5.424   3.007   1.890 -1.1924  1.4251  0.7409
 6590TIP3   OH219733   7.213   3.354   3.368  0.2008 -0.0713  0.2503
 6590TIP3    H119734   7.148   3.367   3.438 -1.2301 -1.1587 -0.8071
 6590TIP3    H219735   7.230   3.442   3.335 -0.7391  0.2451  0.5653
 6591TIP3   OH219736   1.166   0.495   3.424 -0.1491  0.6359  0.3216
 6591TIP3    H119737   1.131   0.559   3.362 -0.6998 -0.5356 -0.6420
 6591TIP3    H219738   1.171   0.414   3.373 -1.6836 -0.6668  2.0902
 6592TIP3   OH219739   6.867   4.194   4.545  0.1155 -0.1987 -0.1214
 6592TIP3    H119740   6.894   4.109   4.580 -0.5079 -1.1791 -1.8602
 6592TIP3    H219741   6.855   4.249   4.622 -0.3619 -1.9584  1.1394
 6593TIP3   OH219742   4.010   4.694   1.857 -0.4817 -0.6385 -0.3952
 6593TIP3    H119743   4.080   4.760   1.859  0.7513 -1.9132  1.0250
 6593TIP3    H219744   4.051   4.618   1.816 -1.2180 -1.2148 -0.0729
 6594TIP3   OH219745   0.314   6.376   5.016  0.3567 -0.0041  0.5003
 6594TIP3    H119746   0.257   6.430   5.070  0.4097  0.5830 -0.0130
 6594TIP3    H219747   0.359   6.318   5.077 -1.5051 -1.1744  0.8352
 6595TIP3   OH219748   6.249   1.279   5.374  0.4129 -0.0979 -0.3306
 6595TIP3    H119749   6.324   1.266   5.432 -0.4001 -0.6727  0.6343
 6595TIP3    H219750   6.235   1.374   5.374 -0.2070 -0.1518  1.2922
 6596TIP3   OH219751   1.494   3.893   2.504  0.3430  0.7741 -0.0693
 6596TIP3    H119752   1.546   3.846   2.568  0.4234  2.1046  0.8943
 6596TIP3    H219753   1.472   3.828   2.437 -1.3246 -1.1952  2.2046
 6597TIP3   OH219754   5.712   4.549   3.424 -0.1775 -0.4250 -0.7616
 6597TIP3    H119755   5.624   4.511   3.426  0.5292 -2.1655 -0.6623
 6597TIP3    H219756   5.715   4.598   3.341 -2.1164  2.0843  0.5123
 6598TIP3   OH219757   4.823   2.435   0.057 -0.1689  0.5889  0.0866
 6598TIP3    H119758   4.775   2.384   0.122 -0.7036  0.1923 -0.6049
 6598TIP3    H219759   4.913   2.436   0.090 -0.3022 -0.1468  0.5069
 6599TIP3   OH219760   0.777   0.900   1.928  0.4387 -0.0894 -0.3996
 6599TIP3    H119761   0.862   0.859   1.911  0.0484 -1.2222  0.2575
 6599TIP3    H219762   0.757   0.876   2.018  0.5941  2.3335  0.3709
 6600TIP3   OH219763   2.498   1.409   1.242  0.1557  0.3071  0.6939
 6600TIP3    H119764   2.423   1.351   1.228  1.2571 -0.8924 -0.5940
 6600TIP3    H219765   2.567   1.351   1.275  0.8437  1.1775  0.8153
 6601TIP3   OH219766   1.507   6.719   4.595 -0.4648  0.1764 -0.4218
 6601TIP3    H119767   1.579   6.662   4.620  1.6209  2.4274 -0.9013
 6601TIP3    H219768   1.481   6.763   4.676  0.9073  1.6443 -0.7211
 6602TIP3   OH219769   1.428   0.660   2.855 -0.2420  0.5168 -0.2527
 6602TIP3    H119770   1.461   0.690   2.770 -0.2290 -1.4298 -0.9801
 6602TIP3    H219771   1.478   0.580   2.873 -0.5272  0.6798  1.4159
 6603TIP3   OH219772   3.738   3.998   0.797 -0.3594 -0.3039 -0.4196
 6603TIP3    H119773   3.710   4.051   0.722  1.0701  1.8221  0.4832
 6603TIP3    H219774   3.833   4.001   0.795 -0.2066  2.0482  2.9132
 6604TIP3   OH219775   0.369   3.525   4.027  0.2976  0.8984 -0.1919
 6604TIP3    H119776   0.362   3.541   3.933  0.5530  0.9148 -0.2091
 6604TIP3    H219777   0.292   3.567   4.065  0.2427  0.9696 -0.3843
 6605TIP3   OH219778   3.648   6.639   4.140 -0.4866 -0.3596 -0.1827
 6605TIP3    H119779   3.641   6.547   4.165  1.2458 -0.2443  0.9158
 6605TIP3    H219780   3.602   6.645   4.056 -0.9555 -2.1433 -0.0870
 6606TIP3   OH219781   5.120   1.494   3.667 -0.7069 -0.6856  0.7545
 6606TIP3    H119782   5.206   1.513   3.703 -1.2138 -1.4787  2.4835
 6606TIP3    H219783   5.115   1.399   3.662 -1.1381 -0.6308 -0.2720
 6607TIP3   OH219784   5.465   3.844   5.417  0.3810 -0.4022 -0.7797
 6607TIP3    H119785   5.416   3.854   5.336  0.8461 -2.1495 -1.3320
 6607TIP3    H219786   5.555   3.867   5.393  0.4499 -0.5513 -0.6664
 6608TIP3   OH219787   4.363   1.493   5.421 -0.0662 -0.0078  0.7696
 6608TIP3    H119788   4.379   1.402   5.394 -0.2553  0.0185  0.5618
 6608TIP3    H219789   4.355   1.488   5.516 -2.0714 -0.5414  0.6205
 6609TIP3   OH219790   5.172   5.624   5.722 -0.2649  0.3623 -0.1731
 6609TIP3    H119791   5.079   5.600   5.721 -0.2613  0.3494 -0.1968
 6609TIP3    H219792   5.189   5.658   5.635 -0.2270  0.2865 -0.1958
 6610TIP3   OH219793   1.418   2.196   3.068  0.1566 -0.9706  0.1747
 6610TIP3    H119794   1.499   2.154   3.037  2.9984  3.3293  0.9249
 6610TIP3    H219795   1.366   2.207   2.988  1.2043 -1.9920 -0.7013
 6611TIP3   OH219796   4.857   3.995   0.152 -0.4220  0.5073 -0.4862
 6611TIP3    H119797   4.829   4.073   0.104 -1.2616 -0.1447 -1.0966
 6611TIP3    H219798   4.818   3.922   0.103  1.7047 -0.4203 -0.9347
 6612TIP3   OH219799   4.951   5.737   3.355 -0.0171 -0.0415  0.0507
 6612TIP3    H119800   4.937   5.698   3.441  1.2278  1.0118  0.7671
 6612TIP3    H219801   5.043   5.766   3.356  0.0152  0.0295 -1.6179
 6613TIP3   OH219802   3.475   3.642   5.773 -0.3362  0.1746  0.1392
 6613TIP3    H119803   3.494   3.585   5.698  2.8125  0.3361  0.6761
 6613TIP3    H219804   3.492   3.730   5.741 -2.6338  0.6307  0.0597
 6614TIP3   OH219805   6.921   0.500   5.779 -0.1867 -0.1467  0.6167
 6614TIP3    H119806   6.928   0.595   5.778  0.4396 -0.1901  0.0581
 6614TIP3    H219807   6.971   0.473   5.856  0.8449 -0.0988 -0.0215
 6615TIP3   OH219808   4.182   1.652   0.942  0.1040 -0.0173 -0.1953
 6615TIP3    H119809   4.097   1.610   0.956  0.0940 -0.6597 -1.8991
 6615TIP3    H219810   4.193   1.652   0.847  1.8435  0.4098 -0.0280
 6616TIP3   OH219811   6.259   0.492   0.135  0.3549  0.4646  0.0732
 6616TIP3    H119812   6.238   0.436   0.209 -1.7958 -0.1834 -0.9305
 6616TIP3    H219813   6.305   0.567   0.173  1.0020 -0.7332  1.7761
 6617TIP3   OH219814   4.205   0.162   4.572 -0.4921 -0.1179 -0.4779
 6617TIP3    H119815   4.125   0.125   4.535  0.1061 -0.3193 -1.6047
 6617TIP3    H219816   4.257   0.189   4.496  0.4253  0.1897  0.2378
 6618TIP3   OH219817   0.624   2.498   3.093  0.5972  0.4534  0.0276
 6618TIP3    H119818   0.699   2.467   3.143  0.7841  1.6278  0.4846
 6618TIP3    H219819   0.560   2.427   3.101  0.7969  0.4053  1.5410
 6619TIP3   OH219820   5.719   1.514   3.674  0.4327 -0.4872  0.1012
 6619TIP3    H119821   5.717   1.556   3.588  0.1797  2.3771  1.3902
 6619TIP3    H219822   5.631   1.476   3.684 -0.1412  0.6863 -0.2546
 6620TIP3   OH219823   6.639   5.712   3.006  0.0062  0.5305  0.2886
 6620TIP3    H119824   6.567   5.700   3.068 -0.0789 -1.2898 -0.1081
 6620TIP3    H219825   6.613   5.787   2.953 -1.2956  0.2798  0.5546
 6621TIP3   OH219826   4.411   4.287   4.188  0.0165  0.0025  0.3057
 6621TIP3    H119827   4.356   4.216   4.158 -0.7659 -0.1912  2.0683
 6621TIP3    H219828   4.397   4.357   4.124 -0.4510 -0.8442 -0.5478
 6622TIP3   OH219829   4.191   1.008   5.715 -0.3314 -0.2606  0.4931
 6622TIP3    H119830   4.151   0.931   5.676  0.3561  0.1993 -1.2094
 6622TIP3    H219831   4.269   0.975   5.759 -1.2034 -0.8091  1.6836
 6623TIP3   OH219832   7.052   0.968   0.519  0.5597  0.4461 -0.3102
 6623TIP3    H119833   7.014   0.897   0.571  0.7900 -0.2453 -1.0585
 6623TIP3    H219834   7.122   0.926   0.469  0.7794  1.2295 -0.6743
 6624TIP3   OH219835   2.352   5.501   2.049  0.3630  0.1406  0.1641
 6624TIP3    H119836   2.290   5.481   1.979 -0.0438  1.7365  0.0332
 6624TIP3    H219837   2.317   5.455   2.125  0.4955 -1.1477 -0.5287
 6625TIP3   OH219838   7.192   2.281   1.708 -0.4274  0.1125 -0.2042
 6625TIP3    H119839   7.258   2.285   1.777 -2.0588 -2.1932  1.6512
 6625TIP3    H219840   7.135   2.357   1.724 -2.0702 -1.5515  2.5222
 6626TIP3   OH219841   1.943   0.849   3.184 -0.1199 -0.2431 -0.5496
 6626TIP3    H119842   2.031   0.812   3.177 -0.2003 -0.5878  0.2068
 6626TIP3    H219843   1.940   0.916   3.116  0.7301 -0.2280 -0.5817
 6627TIP3   OH219844   3.275   5.476   5.204 -0.0471 -0.2534  0.4780
 6627TIP3    H119845   3.366   5.496   5.225  0.3121 -1.8073  0.4931
 6627TIP3    H219846   3.226   5.553   5.234  1.4001  1.3764 -1.0452
 6628TIP3   OH219847   1.733   0.891   2.021 -0.3740 -0.0394  0.1970
 6628TIP3    H119848   1.668   0.955   2.051 -1.0153  0.1850 -1.5537
 6628TIP3    H219849   1.809   0.907   2.077 -0.7424  1.8453  0.2398
 6629TIP3   OH219850   3.705   2.039   0.686 -0.1457 -0.5042 -0.0454
 6629TIP3    H119851   3.697   2.124   0.728  2.2243 -0.6729  0.8630
 6629TIP3    H219852   3.738   2.059   0.598  0.9859 -0.4824  0.3685
 6630TIP3   OH219853   4.415   3.737   4.382  0.1749  0.3282  0.1553
 6630TIP3    H119854   4.497   3.785   4.374 -0.0384  0.6684  0.0248
 6630TIP3    H219855   4.436   3.649   4.349  1.0793 -0.2693  2.1381
 6631TIP3   OH219856   3.662   2.928   3.389 -0.2337 -0.0352  0.3577
 6631TIP3    H119857   3.678   2.841   3.353  0.4513  1.3448 -3.0179
 6631TIP3    H219858   3.574   2.923   3.427 -0.3418 -2.0842 -0.0751
 6632TIP3   OH219859   0.952   1.688   0.785 -0.9043  0.0631  0.5334
 6632TIP3    H119860   1.005   1.615   0.754  1.0075  1.2320  0.8823
 6632TIP3    H219861   0.930   1.738   0.707  0.6650  0.9140  0.5935
 6633TIP3   OH219862   6.834   0.812   0.648  0.4590 -0.2324  0.2422
 6633TIP3    H119863   6.751   0.845   0.615  2.0294  1.6008 -2.2633
 6633TIP3    H219864   6.823   0.717   0.653 -1.9895  0.0340  0.7827
 6634TIP3   OH219865   4.415   3.941   4.709 -0.8571 -0.4221  0.4493
 6634TIP3    H119866   4.463   4.017   4.675 -1.8899  0.5666  1.1252
 6634TIP3    H219867   4.481   3.872   4.715  0.4554  0.8510  1.2317
 6635TIP3   OH219868   4.839   5.981   4.209 -0.0382 -0.6850  0.1620
 6635TIP3    H119869   4.834   6.058   4.265 -0.3087  1.1000 -2.1624
 6635TIP3    H219870   4.930   5.951   4.217 -0.1890 -0.7719  1.8478
 6636TIP3   OH219871   1.954   4.047   0.818  0.1617 -0.3664 -0.4059
 6636TIP3    H119872   1.867   4.032   0.855  0.2451 -0.2938 -0.1738
 6636TIP3    H219873   1.948   4.017   0.728 -0.6176  1.3234 -0.9445
 6637TIP3   OH219874   4.205   2.065   2.951  0.2120  0.5443  0.3225
 6637TIP3    H119875   4.204   2.096   2.860 -0.2998 -0.1143  0.0995
 6637TIP3    H219876   4.248   1.980   2.947 -0.0672  0.3882  0.6577
 6638TIP3   OH219877   3.413   1.986   4.026 -0.1789  0.2578 -0.0134
 6638TIP3    H119878   3.417   2.011   4.118  0.1965 -0.2232  0.1059
 6638TIP3    H219879   3.495   2.019   3.989  1.6551 -3.0208  0.7381
 6639TIP3   OH219880   4.332   0.796   3.152  0.4100  0.2411  0.1821
 6639TIP3    H119881   4.380   0.871   3.116  0.6056  0.7455  1.4568
 6639TIP3    H219882   4.339   0.729   3.084 -0.2125  1.5286 -1.2230
 6640TIP3   OH219883   6.852   5.811   1.077 -0.4381 -0.1673  0.0727
 6640TIP3    H119884   6.863   5.725   1.037 -0.4995 -0.8820  1.5301
 6640TIP3    H219885   6.780   5.800   1.139 -1.2537  1.2602 -0.5677
 6641TIP3   OH219886   6.187   1.895   0.541  0.4098 -0.0103  1.1580
 6641TIP3    H119887   6.140   1.850   0.612 -1.0653 -1.8038 -0.8473
 6641TIP3    H219888   6.213   1.825   0.481 -0.4631  1.6162 -1.2661
 6642TIP3   OH219889   5.724   3.082   4.151  0.5363  0.1269 -0.4579
 6642TIP3    H119890   5.817   3.095   4.130  0.3667  0.7876 -0.8358
 6642TIP3    H219891   5.686   3.170   4.145 -0.0959 -0.1279 -0.2137
 6643TIP3   OH219892   4.327   2.456   3.030 -0.0646  0.5373 -0.1151
 6643TIP3    H119893   4.311   2.407   3.110  1.4173  0.0781 -0.0740
 6643TIP3    H219894   4.417   2.486   3.038  0.4962 -0.4755 -2.1073
 6644TIP3   OH219895   6.198   3.178   1.862  0.1708 -0.2471 -0.1225
 6644TIP3    H119896   6.286   3.216   1.863 -0.5615  1.5070 -0.3994
 6644TIP3    H219897   6.142   3.247   1.826 -1.2637 -1.4882 -0.3629
 6645TIP3   OH219898   7.151   5.894   4.199  0.8769  0.6612  0.1198
 6645TIP3    H119899   7.146   5.834   4.273  1.1096  0.5827  0.0738
 6645TIP3    H219900   7.150   5.837   4.122  0.9565  0.7224  0.0726
 6646TIP3   OH219901   1.308   3.957   3.110 -0.4091  0.0960  0.6707
 6646TIP3    H119902   1.312   3.978   3.203  0.3264 -1.2891  0.9800
 6646TIP3    H219903   1.216   3.931   3.095 -0.5970  0.5980  0.9370
 6647TIP3   OH219904   5.048   4.202   4.931  0.1867 -0.5397  0.7036
 6647TIP3    H119905   5.131   4.195   4.885 -0.4752 -1.8233 -0.3924
 6647TIP3    H219906   5.014   4.288   4.907 -0.1843 -1.2037 -1.3795
 6648TIP3   OH219907   4.742   4.175   5.186 -0.1919 -0.2589 -0.1294
 6648TIP3    H119908   4.690   4.158   5.107 -1.4137 -0.3927  0.6668
 6648TIP3    H219909   4.733   4.095   5.238  1.2679 -0.4829 -0.1967
 6649TIP3   OH219910   2.939   4.846   4.813 -0.3634 -0.2693 -0.2869
 6649TIP3    H119911   2.848   4.821   4.793 -0.2431 -2.1940  1.3132
 6649TIP3    H219912   2.987   4.825   4.733 -1.2263  0.4157 -1.0239
 6650TIP3   OH219913   4.665   6.650   1.367  0.6911  0.4978  0.4906
 6650TIP3    H119914   4.615   6.595   1.306  0.5115  2.3679 -1.1410
 6650TIP3    H219915   4.621   6.637   1.452 -0.3482 -0.5865 -0.1789
 6651TIP3   OH219916   4.997   0.652   5.421  0.2633 -0.0863 -0.4533
 6651TIP3    H119917   4.926   0.716   5.417  0.4663  0.1877  0.2134
 6651TIP3    H219918   4.955   0.568   5.401  0.1581  0.3527 -2.2171
 6652TIP3   OH219919   6.710   1.256   4.668 -0.0571 -0.8127 -0.1439
 6652TIP3    H119920   6.715   1.279   4.575  0.6228  1.1478  0.3253
 6652TIP3    H219921   6.793   1.212   4.686  1.5712  2.1303  0.2694
 6653TIP3   OH219922   1.117   1.521   1.742  0.2212 -0.0227 -0.2508
 6653TIP3    H119923   1.053   1.475   1.796 -0.0676  1.5336  0.7649
 6653TIP3    H219924   1.091   1.613   1.744  1.8034  0.4848 -0.7871
 6654TIP3   OH219925   5.095   5.818   0.671  0.3955  0.6315  0.5294
 6654TIP3    H119926   5.055   5.877   0.735 -1.5044  0.1804 -0.1728
 6654TIP3    H219927   5.097   5.733   0.715  0.6123  0.6569  0.5694
 6655TIP3   OH219928   3.502   1.966   0.003  0.0376  0.2370 -0.2141
 6655TIP3    H119929   3.413   1.936  -0.016  0.5046 -1.2585 -0.1691
 6655TIP3    H219930   3.490   2.052   0.044 -1.3503  0.2582 -0.6176
 6656TIP3   OH219931   3.779   5.864   1.052 -0.0667  0.4731 -0.1830
 6656TIP3    H119932   3.867   5.894   1.028 -0.7382  2.0509 -0.7412
 6656TIP3    H219933   3.720   5.925   1.009 -1.4595 -0.5509  0.2125
 6657TIP3   OH219934   3.056   1.818   5.622 -0.1341  0.0427  0.1595
 6657TIP3    H119935   3.017   1.794   5.707 -1.1234 -0.0587 -0.3099
 6657TIP3    H219936   3.085   1.909   5.634  1.6764 -0.6253  1.2661
 6658TIP3   OH219937   6.315   1.007   5.553 -0.8791 -0.1410  0.0509
 6658TIP3    H119938   6.395   1.021   5.502 -0.8128 -0.5552  0.0423
 6658TIP3    H219939   6.276   0.928   5.517 -0.9784 -0.2809  0.4567
 6659TIP3   OH219940   1.437   5.654   1.447  0.1518  0.7720  0.4186
 6659TIP3    H119941   1.373   5.698   1.391  0.3853  2.7257  1.6176
 6659TIP3    H219942   1.434   5.702   1.529  2.2208  0.0694  0.9557
 6660TIP3   OH219943   3.797   0.496   0.851 -0.2455 -0.2288 -0.8009
 6660TIP3    H119944   3.749   0.465   0.774 -0.1524 -2.3656 -0.0798
 6660TIP3    H219945   3.737   0.481   0.924  0.6634 -0.7903 -0.1500
 6661TIP3   OH219946   4.974   4.919   0.739  0.1688 -0.3232  0.2984
 6661TIP3    H119947   4.908   4.863   0.697 -0.7161  0.3581  0.7592
 6661TIP3    H219948   5.001   4.979   0.669  1.1956 -1.3655 -0.2267
 6662TIP3   OH219949   4.374   1.438   2.935 -0.2839 -0.3694 -0.1265
 6662TIP3    H119950   4.316   1.371   2.970 -1.1884  0.2013 -0.5093
 6662TIP3    H219951   4.386   1.499   3.008 -0.5071 -0.2643 -0.1775
 6663TIP3   OH219952   4.797   4.692   2.377  0.3939  0.3163 -0.2681
 6663TIP3    H119953   4.752   4.742   2.309  1.1401  0.3164 -0.7781
 6663TIP3    H219954   4.792   4.601   2.347 -1.5758 -0.0633  1.0033
 6664TIP3   OH219955   5.743   1.549   2.975  0.4193  1.0745  0.0056
 6664TIP3    H119956   5.751   1.556   2.880  1.3918 -1.4322 -0.1808
 6664TIP3    H219957   5.810   1.609   3.009  0.8249  1.1719 -0.9247
 6665TIP3   OH219958   0.103   3.916   3.430  0.4901 -0.9735  0.2075
 6665TIP3    H119959   0.071   4.005   3.447  2.6980  0.0622 -0.5861
 6665TIP3    H219960   0.159   3.896   3.505 -0.2272 -1.8620  0.5304
 6666TIP3   OH219961   0.789   3.503   3.759 -0.2271  0.0147  0.5114
 6666TIP3    H119962   0.749   3.586   3.785 -0.3952  0.2540 -0.4693
 6666TIP3    H219963   0.810   3.459   3.841 -0.6523  0.7835  1.0369
 6667TIP3   OH219964   0.914   0.808   5.116 -0.0951 -0.3163  0.5163
 6667TIP3    H119965   0.903   0.864   5.040  0.7912 -1.3595 -0.4172
 6667TIP3    H219966   0.832   0.761   5.124 -0.4514  0.3179  0.6595
 6668TIP3   OH219967   2.419   5.651   3.603 -0.4709 -0.0609 -0.3001
 6668TIP3    H119968   2.473   5.730   3.610  0.8324 -0.6453 -2.6476
 6668TIP3    H219969   2.475   5.581   3.637 -0.5104 -0.3812 -0.8904
 6669TIP3   OH219970   5.425   3.731   4.227  0.4549 -0.1064 -0.5680
 6669TIP3    H119971   5.434   3.825   4.213 -1.0396  0.3111  0.9132
 6669TIP3    H219972   5.440   3.692   4.141  1.9820  1.3977 -1.0121
 6670TIP3   OH219973   6.155   5.745   0.051  0.3999  0.1765  0.3574
 6670TIP3    H119974   6.186   5.818   0.104 -0.2663  0.4406  0.3990
 6670TIP3    H219975   6.062   5.764   0.036  0.6559  0.2996 -1.2244
 6671TIP3   OH219976   3.913   4.188   0.445  0.2141  0.1699  0.2311
 6671TIP3    H119977   3.877   4.263   0.491 -2.4220  0.1902 -1.6293
 6671TIP3    H219978   3.965   4.226   0.374 -1.3301  0.2855 -0.8657
 6672TIP3   OH219979   4.196   3.004   3.609 -0.1523  0.2270  0.2161
 6672TIP3    H119980   4.151   3.086   3.588  0.9706  0.2434 -2.4873
 6672TIP3    H219981   4.126   2.941   3.625 -1.0695  1.0545 -0.4696
 6673TIP3   OH219982   3.571   1.615   5.151 -0.5279 -0.2053 -0.3785
 6673TIP3    H119983   3.608   1.573   5.229 -0.2444 -0.3965 -0.6133
 6673TIP3    H219984   3.482   1.639   5.177 -0.2917  0.1181  0.1439
 6674TIP3   OH219985   3.029   1.757   1.149  0.0339  0.1933  0.6527
 6674TIP3    H119986   3.121   1.742   1.126 -0.1423  0.5618 -0.3286
 6674TIP3    H219987   3.006   1.682   1.204  0.3011 -1.0722 -0.8870
 6675TIP3   OH219988   4.637   1.771   2.681 -0.0201 -0.6465  0.2048
 6675TIP3    H119989   4.658   1.783   2.774 -0.9866  1.0652  0.2284
 6675TIP3    H219990   4.559   1.824   2.667  0.7703  0.0321 -1.8673
 6676TIP3   OH219991   1.372   1.380   5.901  0.0845  0.4265  0.2087
 6676TIP3    H119992   1.280   1.362   5.885  0.3349  0.4012 -1.3399
 6676TIP3    H219993   1.416   1.297   5.885  0.3011  0.1537  1.9857
 6677TIP3   OH219994   5.219   6.630   4.941  0.1334  0.2230 -0.5325
 6677TIP3    H119995   5.144   6.622   4.881  0.2386 -0.0966 -0.6190
 6677TIP3    H219996   5.289   6.582   4.898  0.5375  0.9293 -0.6866
 6678TIP3   OH219997   3.005   2.078   1.902 -0.1968 -0.1726  0.2754
 6678TIP3    H119998   3.048   2.083   1.817  0.5115 -1.4716  0.5366
 6678TIP3    H219999   3.043   2.001   1.944 -2.2222 -0.9221  0.8375
 6679TIP3   OH220000   4.079   5.437   5.368  0.1074  0.5862  0.3098
 6679TIP3    H120001   4.150   5.458   5.429  0.1075 -1.1138  0.9513
 6679TIP3    H220002   4.001   5.473   5.410  0.2366  0.2375  0.8563
 6680TIP3   OH220003   2.839   4.551   4.294 -0.5302  0.2943  0.4859
 6680TIP3    H120004   2.793   4.551   4.378 -0.1156 -2.5728  0.8133
 6680TIP3    H220005   2.914   4.493   4.308  0.6082  1.2240 -1.3685
 6681TIP3   OH220006   6.205   5.582   0.296 -0.1837  0.6884 -0.4598
 6681TIP3    H120007   6.198   5.647   0.226 -0.1631 -1.0817 -2.1775
 6681TIP3    H220008   6.132   5.522   0.281  0.3697 -0.2465  0.4822
 6682TIP3   OH220009   0.024   0.500   1.216 -0.2099  0.1613 -0.1410
 6682TIP3    H120010  -0.034   0.428   1.243 -2.5764  2.2674  0.8101
 6682TIP3    H220011   0.095   0.499   1.280 -2.9126  1.7151  3.2312
 6683TIP3   OH220012   4.746   0.586   2.594 -0.1557  0.0702  0.1244
 6683TIP3    H120013   4.737   0.494   2.616  1.5075 -0.0954  0.2420
 6683TIP3    H220014   4.747   0.589   2.499 -1.0574  0.0813  0.1057
 6684TIP3   OH220015   6.003   0.337   0.756  0.2742  0.5286 -0.3765
 6684TIP3    H120016   5.942   0.275   0.796  1.5642 -0.2456  0.4452
 6684TIP3    H220017   6.004   0.412   0.816  0.5260  0.3086 -0.0997
 6685TIP3   OH220018   4.281   4.259   4.465 -0.5750 -0.1305  0.1056
 6685TIP3    H120019   4.337   4.237   4.391  0.1557 -0.8015  0.8439
 6685TIP3    H220020   4.320   4.338   4.503 -0.3969 -0.3276  0.3362
 6686TIP3   OH220021   6.500   0.447   3.337  0.0204  0.0800 -0.1597
 6686TIP3    H120022   6.413   0.484   3.323  0.5374  1.1125 -0.7306
 6686TIP3    H220023   6.490   0.389   3.413 -0.8351  1.3274  0.7090
 6687TIP3   OH220024   6.144   2.022   1.358 -0.0682 -0.3615 -0.1224
 6687TIP3    H120025   6.189   2.098   1.396 -3.3349  1.3044  0.7761
 6687TIP3    H220026   6.214   1.971   1.318  2.5566  2.0817  0.9719
 6688TIP3   OH220027   2.406   0.072   4.291 -0.1770  0.0791  0.0773
 6688TIP3    H120028   2.360   0.044   4.212 -0.6238 -1.3715  0.8157
 6688TIP3    H220029   2.403  -0.004   4.349 -1.3783  1.6226  2.1988
 6689TIP3   OH220030   2.769   0.483   0.066 -0.7107  0.3209 -0.1320
 6689TIP3    H120031   2.689   0.490   0.118 -1.0864 -0.2210 -0.6284
 6689TIP3    H220032   2.789   0.389   0.065  0.4803  0.5282  0.7928
 6690TIP3   OH220033   4.687   5.704   4.835 -0.0059 -0.2756  0.2232
 6690TIP3    H120034   4.716   5.628   4.885 -1.5166 -1.2975 -0.3777
 6690TIP3    H220035   4.595   5.686   4.814 -0.5552  1.9026  0.4026
 6691TIP3   OH220036   5.493   5.627   4.365 -0.0478 -0.3206  0.4318
 6691TIP3    H120037   5.585   5.601   4.360 -0.0513 -0.2197 -0.2888
 6691TIP3    H220038   5.493   5.722   4.351 -0.2669 -0.3347  0.3173
 6692TIP3   OH220039   0.766   5.602   0.561 -0.8927  0.0786 -0.5787
 6692TIP3    H120040   0.829   5.530   0.559  1.0801  1.6399  1.3515
 6692TIP3    H220041   0.691   5.566   0.608 -0.9225 -1.3579 -1.6378
 6693TIP3   OH220042   6.008   6.692   4.136  0.0417 -0.0082 -0.3870
 6693TIP3    H120043   6.078   6.654   4.083  0.9620 -1.1322  1.5133
 6693TIP3    H220044   5.947   6.620   4.152  0.1727  0.0838  0.6469
 6694TIP3   OH220045   6.537   3.986   1.225  0.0083 -0.0750  0.0845
 6694TIP3    H120046   6.499   3.898   1.221 -0.9469  0.3400 -0.3547
 6694TIP3    H220047   6.532   4.009   1.317  0.3601 -0.5168  0.2200
 6695TIP3   OH220048   0.814   1.177   4.742 -0.6084  0.1180 -0.2956
 6695TIP3    H120049   0.809   1.225   4.659 -0.0208 -0.2822 -0.5700
 6695TIP3    H220050   0.729   1.134   4.750  0.0773 -1.6508 -1.8207
 6696TIP3   OH220051   4.073   1.537   1.335  0.3098  0.0888 -0.2802
 6696TIP3    H120052   4.121   1.620   1.341  2.1411 -1.0269  1.8869
 6696TIP3    H220053   4.112   1.493   1.259  0.3284  0.6093 -0.5783
 6697TIP3   OH220054   4.183   6.689   3.811 -0.3199 -0.0903 -0.2512
 6697TIP3    H120055   4.267   6.649   3.833 -0.5076  0.1631  0.9901
 6697TIP3    H220056   4.121   6.617   3.811 -0.4121 -0.0129  0.5947
 6698TIP3   OH220057   0.957   4.697   2.269  0.2241 -0.2664 -0.3768
 6698TIP3    H120058   1.003   4.625   2.224  0.8821 -0.6793  0.9082
 6698TIP3    H220059   0.921   4.656   2.348  0.8355  0.8620  0.5159
 6699TIP3   OH220060   2.319   4.488   4.335 -0.0490 -0.4039 -1.0302
 6699TIP3    H120061   2.359   4.506   4.420  1.6610 -0.4214 -1.7987
 6699TIP3    H220062   2.282   4.400   4.344  0.5471 -0.6012 -0.4681
 6700TIP3   OH220063   5.713   6.087   1.032  0.0444 -0.1595  0.3327
 6700TIP3    H120064   5.766   6.138   1.094  0.8006 -0.5677  0.0352
 6700TIP3    H220065   5.696   6.005   1.078  0.2693 -0.3046  0.1599
 6701TIP3   OH220066   5.542   5.875   4.257  0.2668 -0.4899 -0.1395
 6701TIP3    H120067   5.597   5.815   4.207 -0.7342 -1.5915  0.0075
 6701TIP3    H220068   5.576   5.962   4.238  0.5247 -0.9505 -1.9549
 6702TIP3   OH220069   0.462   6.271   5.239 -0.0745 -0.0949  0.5163
 6702TIP3    H120070   0.461   6.183   5.202 -2.1571 -0.0874  0.4220
 6702TIP3    H220071   0.538   6.272   5.298  1.9820 -0.8140 -1.9448
 6703TIP3   OH220072   4.011   0.976   1.631 -0.1412  0.6471 -0.1189
 6703TIP3    H120073   3.950   0.942   1.696 -0.0917 -1.8077 -1.2322
 6703TIP3    H220074   3.969   1.057   1.599 -1.7390  0.1759  0.6614
 6704TIP3   OH220075   0.557   1.072   4.722  0.5699 -0.0838 -0.0898
 6704TIP3    H120076   0.512   1.020   4.788  0.2504 -1.6252 -1.4594
 6704TIP3    H220077   0.555   1.018   4.643  2.0514  1.1600 -1.0345
 6705TIP3   OH220078   4.425   6.506   2.303 -0.2104 -0.3141 -0.3428
 6705TIP3    H120079   4.471   6.580   2.262 -0.1544 -0.1393  0.0367
 6705TIP3    H220080   4.356   6.547   2.354 -0.0043 -0.5106  0.0931
 6706TIP3   OH220081   4.649   1.228   0.394  0.1770 -0.3973  0.2258
 6706TIP3    H120082   4.621   1.139   0.375 -1.3618  0.6820 -3.5145
 6706TIP3    H220083   4.570   1.281   0.382  1.2801  1.5965  1.2022
 6707TIP3   OH220084   1.683   6.085   5.122 -0.2048  0.0085 -0.2798
 6707TIP3    H120085   1.710   6.169   5.160 -0.9286  1.1961 -2.2504
 6707TIP3    H220086   1.587   6.091   5.118 -0.1582  0.0533 -2.4331
 6708TIP3   OH220087   6.153   3.872   3.567  0.4562 -0.1654 -0.3390
 6708TIP3    H120088   6.172   3.834   3.482  1.7023  0.1536 -0.2147
 6708TIP3    H220089   6.194   3.958   3.565 -0.6541  0.3892  0.1029
 6709TIP3   OH220090   3.160   3.421   0.442  0.2735  0.3219  0.2584
 6709TIP3    H120091   3.215   3.381   0.509 -0.1680 -0.7338 -0.0014
 6709TIP3    H220092   3.221   3.474   0.390  0.9032 -0.2167  0.4349
 6710TIP3   OH220093   1.994   0.181   0.245  0.9416  0.4538 -0.1492
 6710TIP3    H120094   1.913   0.212   0.205  0.2335  3.2333  3.0109
 6710TIP3    H220095   2.054   0.254   0.238  1.7412 -0.0367  1.1949
 6711TIP3   OH220096   1.933   2.939   2.017  0.1932  0.0498  0.1884
 6711TIP3    H120097   1.996   2.942   2.090  0.1366 -1.2768  0.3268
 6711TIP3    H220098   1.885   2.857   2.031  2.3637 -2.0249 -3.0945
 6712TIP3   OH220099   5.492   0.770   4.681  0.0630  0.2723  0.2553
 6712TIP3    H120100   5.514   0.687   4.639 -0.3150 -0.3582  1.2506
 6712TIP3    H220101   5.550   0.834   4.640 -0.7565 -0.1534 -1.7090
 6713TIP3   OH220102   5.109   6.335   0.578 -0.4825  0.4885 -0.3717
 6713TIP3    H120103   5.179   6.398   0.593 -0.9583  0.6919  1.1730
 6713TIP3    H220104   5.151   6.261   0.535  0.4698  1.0396 -0.4022
 6714TIP3   OH220105   2.144   4.621   0.047 -0.1619  0.0157 -0.0727
 6714TIP3    H120106   2.067   4.620   0.105 -0.8333 -2.4457 -0.8773
 6714TIP3    H220107   2.208   4.674   0.094 -1.2841 -0.3962  2.0917
 6715TIP3   OH220108   2.783   1.062   4.350 -0.4050 -0.2564 -0.4485
 6715TIP3    H120109   2.838   1.092   4.423 -1.0090  0.2165 -0.1699
 6715TIP3    H220110   2.773   0.968   4.365 -1.4663  0.0106  0.7602
 6716TIP3   OH220111   2.614   0.710   2.568 -0.0441  0.4512  0.1400
 6716TIP3    H120112   2.607   0.623   2.606 -1.1156  0.5044  0.0815
 6716TIP3    H220113   2.639   0.766   2.642  2.0200 -0.0897 -0.0835
 6717TIP3   OH220114   5.404   0.277   2.810 -0.1081 -0.2666 -0.5282
 6717TIP3    H120115   5.498   0.293   2.798 -0.1681  1.1620  0.6836
 6717TIP3    H220116   5.386   0.201   2.755  2.1431 -1.7959  0.6840
 6718TIP3   OH220117   1.672   4.115   1.254 -0.2430 -0.6842  0.1100
 6718TIP3    H120118   1.626   4.181   1.306 -1.7094 -1.2179 -0.4564
 6718TIP3    H220119   1.727   4.069   1.318  0.9629  1.1624  0.4789
 6719TIP3   OH220120   6.876   0.855   3.709  0.2842  0.1173 -1.1557
 6719TIP3    H120121   6.859   0.923   3.773  1.9511  1.1403 -1.7355
 6719TIP3    H220122   6.813   0.872   3.639 -1.0533 -0.5683 -0.1572
 6720TIP3   OH220123   6.692   2.720   5.505  0.3002  0.1035  0.4710
 6720TIP3    H120124   6.748   2.765   5.568  0.1601  0.7820  0.1128
 6720TIP3    H220125   6.750   2.698   5.432  0.6787 -1.5199  1.2210
 6721TIP3   OH220126   0.242   3.869   4.903  0.3279 -0.8462  0.1091
 6721TIP3    H120127   0.249   3.811   4.979  1.7993  0.6223  1.1641
 6721TIP3    H220128   0.275   3.954   4.934 -0.3247  0.1659 -1.7981
 6722TIP3   OH220129   4.003   6.722   0.093 -0.1911  0.0108  0.4065
 6722TIP3    H120130   4.062   6.788   0.130  0.5634 -1.0928  1.2133
 6722TIP3    H220131   3.926   6.725   0.148 -2.0483  3.0842 -1.9692
 6723TIP3   OH220132   1.837   2.608   4.318 -0.0668 -0.1524 -0.2603
 6723TIP3    H120133   1.928   2.636   4.321  0.3984 -1.6698  0.8224
 6723TIP3    H220134   1.832   2.547   4.245 -0.0942 -0.4254 -0.0343
 6724TIP3   OH220135   4.877   4.500   1.813 -0.1119 -0.1707 -0.1226
 6724TIP3    H120136   4.842   4.521   1.900 -1.3065 -0.4368 -0.5232
 6724TIP3    H220137   4.919   4.415   1.824  1.2462  0.5518  0.5715
 6725TIP3   OH220138   2.900   4.256   0.349 -0.1662  0.5485 -0.2122
 6725TIP3    H120139   2.874   4.344   0.376  0.2635  0.3659  0.8400
 6725TIP3    H220140   2.832   4.199   0.387  0.2709  0.3164  0.2307
 6726TIP3   OH220141   1.035   3.040   0.429  0.1159 -0.1001 -0.4815
 6726TIP3    H120142   1.121   3.014   0.461 -0.0005  0.4223  0.2667
 6726TIP3    H220143   1.039   3.026   0.334  0.9178 -0.3533 -0.4130
 6727TIP3   OH220144   5.706   6.782   3.246  0.0102 -0.1471  0.4388
 6727TIP3    H120145   5.684   6.804   3.337  0.5822 -0.2349  0.6020
 6727TIP3    H220146   5.715   6.687   3.246  0.1313 -0.1344  0.3140
 6728TIP3   OH220147   6.898   6.463   2.517  0.3535 -0.4717  0.1365
 6728TIP3    H120148   6.853   6.452   2.600  0.1497 -1.4290 -0.0870
 6728TIP3    H220149   6.949   6.544   2.527 -2.3255  1.3527 -0.0188
 6729TIP3   OH220150   4.772   6.189   5.181  0.5002  0.7000 -0.1825
 6729TIP3    H120151   4.696   6.200   5.238 -0.5753  2.6656 -1.8804
 6729TIP3    H220152   4.785   6.095   5.176 -1.3819  0.3512  0.6884
 6730TIP3   OH220153   0.894   1.893   2.415 -0.4037 -0.1514 -0.0028
 6730TIP3    H120154   0.940   1.831   2.358  1.2633  2.0388 -1.1499
 6730TIP3    H220155   0.842   1.837   2.472 -0.0303 -2.5691 -1.8407
 6731TIP3   OH220156   6.105   1.038   5.312  0.2904  0.4255 -1.0085
 6731TIP3    H120157   6.143   1.124   5.330  0.5055  0.2838 -0.7985
 6731TIP3    H220158   6.138   1.015   5.225 -0.4635  0.9448 -1.4450
 6732TIP3   OH220159   0.239   3.110   4.129 -0.2525  0.0074 -0.3647
 6732TIP3    H120160   0.151   3.148   4.124 -0.0553  0.4824 -0.3452
 6732TIP3    H220161   0.265   3.121   4.220 -0.3522 -0.5552 -0.2653
 6733TIP3   OH220162   0.682   0.271   2.997  0.1440  0.4407  0.1335
 6733TIP3    H120163   0.731   0.189   3.003 -0.1661  0.2127 -0.5039
 6733TIP3    H220164   0.591   0.245   2.985  0.1464  0.8745 -0.9018
 6734TIP3   OH220165   3.676   4.822   1.648  0.1703  0.0941  0.0675
 6734TIP3    H120166   3.626   4.826   1.729 -0.2656  0.8288 -0.2211
 6734TIP3    H220167   3.689   4.914   1.624  0.2620 -0.1169 -0.7101
 6735TIP3   OH220168   0.198   0.781   3.797  0.0584 -0.3449  0.0083
 6735TIP3    H120169   0.190   0.752   3.888 -0.9394 -0.9341 -0.2641
 6735TIP3    H220170   0.117   0.828   3.779 -0.1176 -0.9519 -0.8369
 6736TIP3   OH220171   5.724   6.332   1.328  0.0686 -0.9014 -0.5916
 6736TIP3    H120172   5.631   6.317   1.314 -0.4002 -0.8924  2.0016
 6736TIP3    H220173   5.737   6.426   1.310 -0.9274 -0.3986  1.1217
 6737TIP3   OH220174   1.401   4.334   2.700 -0.6481  0.0176  0.2832
 6737TIP3    H120175   1.401   4.250   2.746  1.2890 -1.1179 -1.6248
 6737TIP3    H220176   1.311   4.344   2.669 -0.9836 -1.2113  0.7799
 6738TIP3   OH220177   5.380   0.296   5.660  0.6930 -0.9485 -0.5476
 6738TIP3    H120178   5.418   0.214   5.692  1.3535 -0.2643  0.4871
 6738TIP3    H220179   5.446   0.363   5.682 -0.7651  0.1682  0.5799
 6739TIP3   OH220180   3.854   5.421   1.740  0.4561 -0.7214  0.0315
 6739TIP3    H120181   3.943   5.398   1.768  0.0114 -2.1424  0.3825
 6739TIP3    H220182   3.798   5.393   1.813 -0.2537  0.5460 -0.0076
 6740TIP3   OH220183   4.660   5.496   2.709  0.2223  0.3766 -0.1621
 6740TIP3    H120184   4.579   5.497   2.760 -0.4670 -1.9109 -1.0796
 6740TIP3    H220185   4.714   5.429   2.750  1.3222  1.2726 -0.0909
 6741TIP3   OH220186   0.565   0.399   4.419 -0.4928  0.1983  0.1343
 6741TIP3    H120187   0.544   0.332   4.484  2.3262 -1.7106 -0.7225
 6741TIP3    H220188   0.640   0.445   4.455 -0.7189  1.0904 -0.5018
 6742TIP3   OH220189   4.366   1.963   2.268 -0.9620 -0.1178  0.1014
 6742TIP3    H120190   4.403   2.008   2.344  1.2983 -0.1714 -0.9150
 6742TIP3    H220191   4.414   1.881   2.263 -2.3065 -0.8959 -0.3987
 6743TIP3   OH220192   5.564   4.042   0.968  0.4049 -0.7438 -0.0893
 6743TIP3    H120193   5.513   3.985   1.027 -0.4464 -0.5029 -0.5773
 6743TIP3    H220194   5.643   4.062   1.017 -0.3813 -0.3832  1.0625
 6744TIP3   OH220195   5.756   3.661   4.198  0.3263  0.0888 -0.0709
 6744TIP3    H120196   5.730   3.686   4.287 -0.8489 -0.5129 -0.2280
 6744TIP3    H220197   5.729   3.735   4.143 -0.1818 -0.1080 -0.0958
 6745TIP3   OH220198   2.635   2.527   0.793 -0.1520 -0.0011 -0.3057
 6745TIP3    H120199   2.625   2.535   0.698  1.9436  0.4084 -0.5325
 6745TIP3    H220200   2.571   2.460   0.818 -0.1478 -0.7352 -2.1204
 6746TIP3   OH220201   6.369   2.177   1.538 -0.0636  0.1708 -0.0163
 6746TIP3    H120202   6.455   2.151   1.569 -0.3356 -0.9045 -0.1263
 6746TIP3    H220203   6.308   2.140   1.603 -0.5676 -1.1481 -1.1841
 6747TIP3   OH220204   1.038   0.627   3.662  0.0435 -0.4644 -0.1505
 6747TIP3    H120205   1.068   0.717   3.650  0.6118 -0.1763  2.6687
 6747TIP3    H220206   1.076   0.579   3.589  0.6526  1.3632 -1.1056
 6748TIP3   OH220207   5.865   6.603   1.306  1.1171  0.3502  0.8243
 6748TIP3    H120208   5.945   6.557   1.283  1.3064  0.5047  1.1753
 6748TIP3    H220209   5.883   6.694   1.283  0.1915  0.0581 -1.3683
 6749TIP3   OH220210   1.214   6.379   4.356  0.3045 -0.0113 -0.7954
 6749TIP3    H120211   1.303   6.390   4.389 -0.8696  3.7660  1.8797
 6749TIP3    H220212   1.211   6.433   4.277  0.3267  0.0894 -0.7277
 6750TIP3   OH220213   2.681   5.515   3.556 -0.0121 -0.0184  0.0467
 6750TIP3    H120214   2.758   5.515   3.613  0.8626  1.3350 -1.0556
 6750TIP3    H220215   2.640   5.430   3.570  1.4132 -0.5714  1.0344
 6751TIP3   OH220216   1.974   0.419   5.599  0.2787  0.3412  0.4423
 6751TIP3    H120217   2.052   0.465   5.570 -0.8773  1.1461 -1.6018
 6751TIP3    H220218   2.002   0.328   5.609  1.5121  0.6519 -0.0480
 6752TIP3   OH220219   4.467   2.316   1.983  0.2790 -0.7871 -0.3000
 6752TIP3    H120220   4.409   2.366   2.040  0.8901 -1.0987  0.6226
 6752TIP3    H220221   4.440   2.225   1.994  0.0446 -0.8022 -0.9433
 6753TIP3   OH220222   4.059   0.414   1.093  0.0078 -0.0063 -0.2499
 6753TIP3    H120223   3.974   0.443   1.127 -0.9992 -2.0346 -0.8724
 6753TIP3    H220224   4.075   0.330   1.136  1.4167  0.0707 -0.5906
 6754TIP3   OH220225   5.429   5.028   2.282  0.5647 -0.4457  0.0055
 6754TIP3    H120226   5.516   4.999   2.310  0.8954 -0.0324 -0.5680
 6754TIP3    H220227   5.375   5.023   2.361  1.1346 -0.6206  0.3868
 6755TIP3   OH220228   0.002   1.662   4.152  0.3630 -0.2253 -0.0903
 6755TIP3    H120229   0.002   1.605   4.229 -1.8911  0.3689  0.4054
 6755TIP3    H220230   0.086   1.707   4.157 -0.0601  0.4603  2.5754
 6756TIP3   OH220231   5.754   6.757   0.680  0.0008  0.1506 -0.5089
 6756TIP3    H120232   5.698   6.717   0.746  2.6731 -0.7355  1.4388
 6756TIP3    H220233   5.785   6.838   0.721  0.1348  0.6269 -1.5223
 6757TIP3   OH220234   2.200   5.424   4.206 -0.3624 -0.8159 -0.5528
 6757TIP3    H120235   2.146   5.465   4.273 -1.1269 -1.7587 -0.5669
 6757TIP3    H220236   2.163   5.454   4.123 -0.3688 -0.8463 -0.5608
 6758TIP3   OH220237   6.500   3.765   1.662  0.2562  0.2854 -0.2860
 6758TIP3    H120238   6.414   3.805   1.674 -0.4010 -0.9462 -0.7034
 6758TIP3    H220239   6.516   3.719   1.744  0.4661  0.4389 -0.2431
 6759TIP3   OH220240   6.508   2.902   4.716 -0.1587 -0.0365 -0.5573
 6759TIP3    H120241   6.512   2.996   4.730  0.8420 -0.0928 -0.4044
 6759TIP3    H220242   6.590   2.880   4.672  1.1196 -1.2728  2.1639
 6760TIP3   OH220243   2.082   1.051   1.497 -0.3675  0.7746  0.6524
 6760TIP3    H120244   2.169   1.076   1.527  0.2368 -0.6039  0.1639
 6760TIP3    H220245   2.084   1.063   1.402 -0.4644  0.1018  0.5558
 6761TIP3   OH220246   6.922   6.068   0.979  0.9339 -0.3184  0.1220
 6761TIP3    H120247   6.900   5.978   1.002 -1.0352  0.0407 -0.1468
 6761TIP3    H220248   6.901   6.119   1.058  0.3194  0.1127 -0.3099
 6762TIP3   OH220249   3.989   3.527   3.900  1.0075 -0.4851  0.0299
 6762TIP3    H120250   3.973   3.435   3.921  1.0668 -0.4777  0.1061
 6762TIP3    H220251   4.034   3.524   3.815  0.5920 -0.5046 -0.1899
 6763TIP3   OH220252   3.467   5.508   1.448 -0.0759  0.2161  0.2946
 6763TIP3    H120253   3.452   5.422   1.410 -0.4632  0.0533  0.7980
 6763TIP3    H220254   3.561   5.512   1.465  0.0696  0.2227 -0.5007
 6764TIP3   OH220255   5.634   0.121   1.955 -0.0203 -0.5013  0.0020
 6764TIP3    H120256   5.699   0.052   1.943 -0.2107 -0.8622  0.9125
 6764TIP3    H220257   5.642   0.145   2.048 -0.1127  0.5459 -0.2500
 6765TIP3   OH220258   3.579   6.741   1.686 -0.1822  0.0208 -0.0802
 6765TIP3    H120259   3.510   6.776   1.630  2.3355  5.0051 -0.6396
 6765TIP3    H220260   3.634   6.689   1.627 -0.8877  0.0514 -0.7693
 6766TIP3   OH220261   3.354   6.365   0.813 -0.1203  0.3536 -0.0734
 6766TIP3    H120262   3.297   6.350   0.888  0.0045 -1.8094 -0.3593
 6766TIP3    H220263   3.432   6.314   0.831 -0.2061 -0.4543 -1.7736
 6767TIP3   OH220264   4.731   1.750   1.901  0.6759 -0.5125  0.1274
 6767TIP3    H120265   4.677   1.674   1.923 -0.7368  0.5157  0.3441
 6767TIP3    H220266   4.761   1.783   1.986 -1.0030  0.7527  0.2932
 6768TIP3   OH220267   3.159   5.787   5.330  0.2074 -0.4784  0.1363
 6768TIP3    H120268   3.218   5.856   5.299  0.5811 -0.2475  1.3225
 6768TIP3    H220269   3.107   5.765   5.253  0.3595  0.8416 -0.3803
 6769TIP3   OH220270   1.983   5.837   0.200  0.0445 -0.0140 -0.5144
 6769TIP3    H120271   2.002   5.924   0.167 -0.7822  0.3963  0.0548
 6769TIP3    H220272   2.068   5.801   0.225  0.1593  1.8211  2.1348
 6770TIP3   OH220273   2.289   0.201   3.659 -0.1728  0.7960 -0.0252
 6770TIP3    H120274   2.366   0.248   3.689 -0.0690  0.3827  0.3690
 6770TIP3    H220275   2.324   0.134   3.599 -0.4067  1.8295 -1.3574
 6771TIP3   OH220276   2.234   3.377   5.234  0.2654 -0.2526 -0.3698
 6771TIP3    H120277   2.283   3.332   5.303  0.5240 -0.2708 -0.5661
 6771TIP3    H220278   2.273   3.347   5.152  0.9430  0.8971 -0.4851
 6772TIP3   OH220279   4.960   6.287   5.366  0.4892 -0.0163 -0.1211
 6772TIP3    H120280   5.040   6.325   5.329 -0.8113  2.2176 -0.8018
 6772TIP3    H220281   4.922   6.236   5.294  0.4297  0.3487 -0.3518
 6773TIP3   OH220282   4.947   0.337   5.891 -0.0150  0.0132 -0.4422
 6773TIP3    H120283   4.958   0.396   5.817 -0.9849 -0.0887 -0.6800
 6773TIP3    H220284   5.025   0.282   5.890  0.7280  1.0442 -0.4385
 6774TIP3   OH220285   5.068   1.519   4.518  0.0367  0.0866 -0.2360
 6774TIP3    H120286   4.999   1.564   4.567  2.3110  0.8555  2.5612
 6774TIP3    H220287   5.099   1.584   4.455 -1.3686 -0.0935 -1.1584
 6775TIP3   OH220288   6.940   0.212   0.969 -0.3945 -0.3325 -0.2123
 6775TIP3    H120289   6.892   0.132   0.946 -1.0435 -0.7549  2.3162
 6775TIP3    H220290   7.006   0.182   1.033 -0.2776  1.0529  0.3434
 6776TIP3   OH220291   5.012   4.575   0.305  0.3357 -0.3259  0.1246
 6776TIP3    H120292   4.936   4.627   0.279 -0.6323 -2.2588 -1.1180
 6776TIP3    H220293   5.037   4.526   0.226  3.5489  0.9563  0.1754
 6777TIP3   OH220294   1.941   2.027   3.875  0.9305 -0.2400  0.1815
 6777TIP3    H120295   2.016   2.063   3.922  0.4794  0.1716  0.5958
 6777TIP3    H220296   1.968   1.938   3.851  1.7818  0.1111 -0.2169
 6778TIP3   OH220297   0.942   4.769   5.718 -0.5738 -0.9626  0.1500
 6778TIP3    H120298   0.879   4.818   5.772 -0.7494  0.6944 -1.4260
 6778TIP3    H220299   0.902   4.683   5.707 -0.9140 -1.0631  1.9626
 6779TIP3   OH220300   5.841   3.007   3.764  0.2449  0.5649  0.1418
 6779TIP3    H120301   5.823   2.926   3.811  0.7533  0.0100 -0.5961
 6779TIP3    H220302   5.914   2.985   3.706  0.6100  1.6443  0.1757
 6780TIP3   OH220303   6.242   1.223   5.748 -0.3712 -0.0661  0.1869
 6780TIP3    H120304   6.237   1.134   5.712  2.9626 -0.0946 -0.4931
 6780TIP3    H220305   6.213   1.280   5.676 -2.1625 -0.5064  0.5039
 6781TIP3   OH220306   4.563   4.028   0.466 -0.0050  0.0520 -0.0320
 6781TIP3    H120307   4.508   4.094   0.509  0.9746  0.8363  0.0560
 6781TIP3    H220308   4.570   3.957   0.530  2.8452  1.9181  1.9501
 6782TIP3   OH220309   2.699   0.066   5.222 -0.1712  0.1923  0.2454
 6782TIP3    H120310   2.617   0.060   5.273  0.3829  0.9215  1.2564
 6782TIP3    H220311   2.738  -0.021   5.229 -0.6599 -0.0428  0.0972
 6783TIP3   OH220312   6.929   6.517   2.981  0.2964 -0.3857  0.0355
 6783TIP3    H120313   7.017   6.539   2.951  0.4297 -0.6128  0.2545
 6783TIP3    H220314   6.893   6.600   3.013  0.3055 -0.2262 -0.3639
 6784TIP3   OH220315   4.904   3.469   5.048 -0.2760  0.0840 -0.3798
 6784TIP3    H120316   4.976   3.507   4.999 -0.0715 -1.6196 -1.4732
 6784TIP3    H220317   4.933   3.472   5.139  0.0912  1.6748 -0.5194
 6785TIP3   OH220318   7.086   1.289   2.725 -0.0706 -0.2271 -0.1813
 6785TIP3    H120319   7.174   1.258   2.705  0.1465  1.0911 -1.4190
 6785TIP3    H220320   7.096   1.344   2.802  0.3299  0.4919 -0.7355
 6786TIP3   OH220321   5.220   4.544   3.629 -0.1899 -0.0967  0.1907
 6786TIP3    H120322   5.141   4.512   3.672 -1.3431  3.2070  0.7790
 6786TIP3    H220323   5.265   4.597   3.695  0.1906  1.6610 -1.3641
 6787TIP3   OH220324   1.717   0.890   5.608  0.0813 -0.2100  0.4223
 6787TIP3    H120325   1.624   0.866   5.601  0.0440  0.0187  0.1120
 6787TIP3    H220326   1.728   0.961   5.545  0.2151  0.5169  1.2511
 6788TIP3   OH220327   1.130   1.451   2.626  0.3571  0.3298  0.2625
 6788TIP3    H120328   1.207   1.458   2.682 -0.7470  0.3552  1.8316
 6788TIP3    H220329   1.057   1.439   2.687 -0.7887 -0.5085 -1.2177
 6789TIP3   OH220330   3.342   0.935   5.030  0.4634 -0.2848 -0.0405
 6789TIP3    H120331   3.289   0.867   4.989 -1.2074  0.0622  1.4157
 6789TIP3    H220332   3.330   0.921   5.124  1.2349  1.1383  0.2993
 6790TIP3   OH220333   4.424   2.136   4.048 -0.0707  0.8350  0.2541
 6790TIP3    H120334   4.404   2.073   3.979 -0.1029  0.7424  0.3459
 6790TIP3    H220335   4.497   2.096   4.096 -2.5388 -1.1136  2.7755
 6791TIP3   OH220336   1.702   5.721   1.183 -0.2505  0.2960  0.2185
 6791TIP3    H120337   1.793   5.749   1.181 -0.0633 -0.1336 -2.9144
 6791TIP3    H220338   1.652   5.801   1.195  0.4880  0.6245  1.2169
 6792TIP3   OH220339   1.364   3.351   1.879  0.2487  0.1289 -0.4149
 6792TIP3    H120340   1.386   3.425   1.936 -0.0461 -0.2808  0.2424
 6792TIP3    H220341   1.286   3.312   1.919  0.3392 -0.4726 -0.8117
 6793TIP3   OH220342   4.417   6.509   0.762 -0.1270  0.6222 -0.4913
 6793TIP3    H120343   4.426   6.473   0.674  2.4348  0.9514 -0.4395
 6793TIP3    H220344   4.409   6.432   0.819 -0.5421  0.3667 -0.8905
 6794TIP3   OH220345   5.042   0.155   0.946 -0.0127  0.6410  0.3363
 6794TIP3    H120346   4.973   0.220   0.931 -1.3307 -0.7059  0.2374
 6794TIP3    H220347   5.122   0.206   0.954 -0.9138  2.2303 -0.2434
 6795TIP3   OH220348   1.922   0.800   2.705 -0.7188  0.2076  0.9286
 6795TIP3    H120349   1.851   0.796   2.640  0.2795 -0.3054 -0.1542
 6795TIP3    H220350   1.952   0.890   2.703  0.6730 -0.2387 -0.8715
 6796TIP3   OH220351   3.462   5.759   1.331  0.1958 -0.3538 -0.1684
 6796TIP3    H120352   3.426   5.685   1.379  0.3350  0.8069  1.8689
 6796TIP3    H220353   3.551   5.732   1.307 -0.0701 -1.1631 -0.2662
 6797TIP3   OH220354   4.314   4.370   2.783  0.4486  0.3597  0.2374
 6797TIP3    H120355   4.222   4.387   2.806  0.2578  2.7534 -1.8615
 6797TIP3    H220356   4.316   4.277   2.761 -1.6178  0.3536 -0.1898
 6798TIP3   OH220357   1.764   0.619   2.359 -0.7250  0.3342 -0.2162
 6798TIP3    H120358   1.700   0.573   2.413 -0.4101  0.1099 -0.0310
 6798TIP3    H220359   1.847   0.605   2.404 -0.5447  0.6162 -0.4611
 6799TIP3   OH220360   2.197   3.658   3.518  0.3488 -0.1629  0.3140
 6799TIP3    H120361   2.254   3.646   3.593 -1.0375 -0.8811  1.3070
 6799TIP3    H220362   2.146   3.736   3.538 -0.1984 -0.4947  0.2607
 6800TIP3   OH220363   5.020   0.416   0.752 -0.1671  0.2335  0.5518
 6800TIP3    H120364   5.073   0.364   0.691  0.5295  1.5195  0.0207
 6800TIP3    H220365   4.964   0.470   0.696 -2.0943 -1.0816  1.1000
 6801TIP3   OH220366   4.298   1.118   4.976 -0.3949 -0.3729  0.0677
 6801TIP3    H120367   4.390   1.101   4.958 -0.3605 -0.1281  0.0145
 6801TIP3    H220368   4.298   1.184   5.045 -0.5192  0.9512 -1.1534
 6802TIP3   OH220369   0.350   2.766   0.792  0.1806 -0.3787 -0.3108
 6802TIP3    H120370   0.390   2.727   0.714  0.0250 -1.2689  0.0407
 6802TIP3    H220371   0.423   2.809   0.837  0.3018  0.0047 -0.8586
 6803TIP3   OH220372   6.387   4.658   1.220 -0.1623  0.0110  0.3220
 6803TIP3    H120373   6.347   4.731   1.268  0.2173  1.1143 -0.9804
 6803TIP3    H220374   6.374   4.681   1.128 -0.3466 -1.7611 -0.1200
 6804TIP3   OH220375   4.614   1.726   4.273 -0.7080 -0.1900  0.2565
 6804TIP3    H120376   4.660   1.808   4.287  0.3061 -0.9555  1.5819
 6804TIP3    H220377   4.626   1.677   4.354 -0.7588 -1.9113 -0.7213
 6805TIP3   OH220378   1.875   5.036   2.476 -0.5645  0.1705 -0.2981
 6805TIP3    H120379   1.842   5.104   2.534  0.0191  0.1198  0.1019
 6805TIP3    H220380   1.796   4.993   2.442 -0.9626  1.5365 -1.1625
 6806TIP3   OH220381   3.724   6.077   4.264  0.1233 -0.4505  0.0083
 6806TIP3    H120382   3.730   5.986   4.292 -0.3320 -0.0716  1.3831
 6806TIP3    H220383   3.664   6.076   4.189  1.8910 -1.5747 -1.4866
 6807TIP3   OH220384   2.979   5.272   2.971 -0.1796  0.0070  0.0807
 6807TIP3    H120385   2.971   5.367   2.973  1.5213  0.2242 -1.2802
 6807TIP3    H220386   2.972   5.249   2.878 -0.2209 -1.1626  0.3577
 6808TIP3   OH220387   0.122   4.714   3.308 -0.8073 -0.1490  0.8505
 6808TIP3    H120388   0.061   4.786   3.324 -1.2819 -0.8196  2.1765
 6808TIP3    H220389   0.181   4.715   3.383  1.0314  0.6470 -0.5212
 6809TIP3   OH220390   3.941   0.219   0.108  0.4543 -0.0262  0.1276
 6809TIP3    H120391   3.926   0.312   0.092  0.6917  0.2463  1.3713
 6809TIP3    H220392   4.037   0.210   0.103  0.3465 -0.5438 -1.6157
 6810TIP3   OH220393   0.727   5.405   4.932  0.2522  0.0676 -0.5091
 6810TIP3    H120394   0.650   5.369   4.886  0.1411  1.0069 -1.0773
 6810TIP3    H220395   0.694   5.428   5.019 -0.4252  1.5151 -1.1067
 6811TIP3   OH220396   4.859   1.635   4.630 -0.7257  0.0625  0.5206
 6811TIP3    H120397   4.811   1.611   4.710 -0.6755  1.4986  0.9983
 6811TIP3    H220398   4.792   1.633   4.561 -1.3303  1.2926  1.0449
 6812TIP3   OH220399   1.543   2.040   0.773  0.2956  0.5452 -0.1127
 6812TIP3    H120400   1.541   2.082   0.687  0.7579  2.1600  0.6245
 6812TIP3    H220401   1.481   2.091   0.825  0.4133 -0.0831  0.6562
 6813TIP3   OH220402   4.748   0.071   4.114  0.0618 -0.0654 -0.0445
 6813TIP3    H120403   4.834   0.063   4.074 -0.5293 -0.0264 -1.3597
 6813TIP3    H220404   4.750   0.156   4.157  0.1923  0.6111 -1.3331
 6814TIP3   OH220405   1.475   4.620   0.437  0.5586 -0.2608  0.0670
 6814TIP3    H120406   1.515   4.550   0.386 -1.2073 -0.9464 -0.4641
 6814TIP3    H220407   1.548   4.665   0.479  1.7816 -2.0730 -0.0223
 6815TIP3   OH220408   0.768   0.616   1.785 -0.0827 -0.3559 -0.4161
 6815TIP3    H120409   0.752   0.597   1.878 -0.3857  1.3942 -0.0779
 6815TIP3    H220410   0.863   0.617   1.777 -0.0438  0.2323  0.0522
 6816TIP3   OH220411   3.534   3.055   2.562  0.3145 -0.0148  0.4783
 6816TIP3    H120412   3.621   3.077   2.594  0.0321 -2.4587  3.3867
 6816TIP3    H220413   3.543   2.968   2.524 -0.5809  0.4472 -0.8863
 6817TIP3   OH220414   3.953   3.904   4.441  0.2568  0.3964 -0.2262
 6817TIP3    H120415   4.028   3.859   4.403  0.2720  0.2774 -0.0517
 6817TIP3    H220416   3.991   3.979   4.488  0.1631  1.2442 -1.4336
 6818TIP3   OH220417   1.121   5.489   3.338  0.0473 -0.6605 -0.1267
 6818TIP3    H120418   1.063   5.452   3.271  0.5679  0.4624 -1.2346
 6818TIP3    H220419   1.063   5.538   3.396 -0.3563 -1.2751 -0.0058
 6819TIP3   OH220420   1.084   3.427   5.395 -0.4382  0.2568 -0.4748
 6819TIP3    H120421   1.086   3.466   5.308 -1.2840  1.9822  0.2406
 6819TIP3    H220422   1.176   3.423   5.421 -0.3176  1.9047 -0.5415
 6820TIP3   OH220423   1.369   3.791   1.893 -0.2934 -0.0076 -0.0308
 6820TIP3    H120424   1.341   3.871   1.937  0.2613  1.1231 -1.6457
 6820TIP3    H220425   1.366   3.812   1.800 -0.0970 -1.8681 -0.5059
 6821TIP3   OH220426   1.401   1.291   1.148 -0.1905 -0.1376 -0.7527
 6821TIP3    H120427   1.331   1.357   1.155  0.7978  0.9304 -0.5972
 6821TIP3    H220428   1.375   1.222   1.209 -0.7238  0.6236 -0.0949
 6822TIP3   OH220429   2.559   5.904   2.048 -0.5715  0.6927 -0.2949
 6822TIP3    H120430   2.615   5.896   1.971 -0.2849 -0.8956  0.0516
 6822TIP3    H220431   2.604   5.853   2.116 -2.7021 -1.1894 -0.1896
 6823TIP3   OH220432   6.341   0.705   2.459 -0.7022  0.0782 -0.3819
 6823TIP3    H120433   6.301   0.623   2.488 -3.0162  2.0167  2.5298
 6823TIP3    H220434   6.417   0.716   2.516  0.3786 -0.5709 -1.6414
 6824TIP3   OH220435   4.093   3.911   0.960 -0.0986 -0.1313 -0.3663
 6824TIP3    H120436   4.163   3.848   0.975  0.5867  0.9496  1.3911
 6824TIP3    H220437   4.025   3.887   1.023 -0.1228  0.4527 -0.1603
 6825TIP3   OH220438   6.485   0.625   2.151  0.6734 -0.1605  0.5414
 6825TIP3    H120439   6.460   0.671   2.231  1.3095  1.0247  0.0915
 6825TIP3    H220440   6.441   0.540   2.157  1.0355 -0.2681  2.3332
 6826TIP3   OH220441   1.685   2.377   0.051  0.6311  0.5188  0.0422
 6826TIP3    H120442   1.638   2.338   0.125  0.2153 -0.9447 -0.9505
 6826TIP3    H220443   1.689   2.470   0.071 -1.9615  0.5745  0.5612
 6827TIP3   OH220444   2.725   0.631   3.245  0.4520  0.3622  0.6151
 6827TIP3    H120445   2.716   0.726   3.250  0.4232  0.4253 -0.3942
 6827TIP3    H220446   2.789   0.617   3.175  1.3284 -0.3366  1.5323
 6828TIP3   OH220447   3.551   5.513   5.222  0.1053 -0.4001  1.1218
 6828TIP3    H120448   3.580   5.604   5.230 -1.0032  0.1311 -0.3502
 6828TIP3    H220449   3.631   5.463   5.209  0.7728  0.2896  2.4362
 6829TIP3   OH220450   0.498   4.119   5.732  0.3869 -0.4604  0.3616
 6829TIP3    H120451   0.453   4.036   5.742  1.6749 -1.1662  0.5106
 6829TIP3    H220452   0.447   4.166   5.666 -1.2283 -0.7209  1.3686
 6830TIP3   OH220453   3.084   5.172   1.900  0.1044  0.1472  0.3430
 6830TIP3    H120454   3.058   5.249   1.951 -1.2743 -1.6841  2.6063
 6830TIP3    H220455   3.138   5.121   1.960  1.0947 -0.6251 -1.1638
 6831TIP3   OH220456   5.461   0.691   3.971 -0.0380 -0.3567 -0.1118
 6831TIP3    H120457   5.554   0.714   3.972 -0.2523  0.5317 -0.4844
 6831TIP3    H220458   5.439   0.684   3.878 -0.6662  0.7808 -0.0648
 6832TIP3   OH220459   4.542   2.531   5.006 -0.6593 -0.6335  0.3860
 6832TIP3    H120460   4.549   2.469   5.079  0.5229 -0.0920  0.7642
 6832TIP3    H220461   4.458   2.574   5.018 -0.3598 -0.3520  1.6195
 6833TIP3   OH220462   5.018   2.796   3.057  0.0170  0.1169 -0.1971
 6833TIP3    H120463   4.940   2.802   3.112 -1.2979 -0.1521 -1.9540
 6833TIP3    H220464   5.048   2.706   3.068 -1.9923 -0.8766 -2.0941
 6834TIP3   OH220465   6.862   6.490   0.921  0.1091  0.3502  0.1542
 6834TIP3    H120466   6.853   6.413   0.865 -0.5329 -0.0238  0.7565
 6834TIP3    H220467   6.929   6.543   0.878  0.5588 -0.5346 -0.2678
 6835TIP3   OH220468   0.462   5.963   1.069  0.7754  0.4034 -0.1566
 6835TIP3    H120469   0.473   5.895   1.136  3.8135 -1.0913 -1.9659
 6835TIP3    H220470   0.387   5.933   1.017  0.2179  0.0676  0.7993
 6836TIP3   OH220471   7.049   5.656   2.470  0.3682 -0.4700 -0.0750
 6836TIP3    H120472   7.141   5.651   2.445  0.3737 -0.8989  0.0238
 6836TIP3    H220473   7.019   5.566   2.468 -0.3566 -0.2244 -1.2522
 6837TIP3   OH220474   1.628   2.876   2.484 -0.0749  0.4252  0.0165
 6837TIP3    H120475   1.701   2.892   2.543  1.1303  0.1380 -1.3620
 6837TIP3    H220476   1.599   2.787   2.505  0.9475 -0.0298 -0.4265
 6838TIP3   OH220477   2.078   4.092   4.614 -0.1037  0.2378 -0.0988
 6838TIP3    H120478   2.099   4.178   4.650  1.1371  0.1802 -0.6504
 6838TIP3    H220479   2.037   4.045   4.686  1.8487  0.3000  1.1037
 6839TIP3   OH220480   3.392   5.949   4.603 -0.6779 -0.5229 -0.0614
 6839TIP3    H120481   3.367   5.868   4.559 -1.3899 -0.1248 -0.4223
 6839TIP3    H220482   3.326   5.960   4.672 -0.0315 -0.7339  0.5985
 6840TIP3   OH220483   4.901   3.230   5.274 -0.0682  0.3118  0.1441
 6840TIP3    H120484   4.899   3.272   5.360 -0.4128 -0.7988  0.6894
 6840TIP3    H220485   4.943   3.146   5.289 -1.0334 -0.3175 -0.5847
 6841TIP3   OH220486   2.013   4.669   1.894  0.4185  0.2985 -0.5919
 6841TIP3    H120487   1.952   4.720   1.948  1.0821  0.5161 -0.0337
 6841TIP3    H220488   2.044   4.599   1.951  3.1800  2.0545  0.3044
 6842TIP3   OH220489   1.211   1.369   0.459  0.3396  0.5725  0.2424
 6842TIP3    H120490   1.156   1.321   0.397  0.6961 -0.5713  0.7805
 6842TIP3    H220491   1.275   1.305   0.490  0.2859  1.1462  1.6483
 6843TIP3   OH220492   6.835   6.178   4.944 -0.2695  0.7638  0.2812
 6843TIP3    H120493   6.841   6.083   4.943  2.1585  0.8566  0.2169
 6843TIP3    H220494   6.826   6.202   4.852  0.7559  0.6422  0.1414
 6844TIP3   OH220495   2.923   0.777   0.495  0.2479  0.1656 -0.5427
 6844TIP3    H120496   2.874   0.709   0.449 -0.6812 -1.2905  2.3239
 6844TIP3    H220497   3.009   0.778   0.453  0.4204 -3.1199 -0.5292
 6845TIP3   OH220498   6.605   3.749   4.608  0.5442  0.0484 -0.2606
 6845TIP3    H120499   6.622   3.833   4.564 -3.7571  1.9279  1.0737
 6845TIP3    H220500   6.550   3.701   4.546  0.6280 -0.5485  0.1191
 6846TIP3   OH220501   6.757   6.355   1.882 -0.5682  0.8385 -0.7902
 6846TIP3    H120502   6.707   6.346   1.801 -0.3812  1.9953 -1.0493
 6846TIP3    H220503   6.701   6.407   1.940 -0.6223  0.1832 -0.2371
 6847TIP3   OH220504   0.889   0.089   5.164  0.0226  0.1130 -0.4422
 6847TIP3    H120505   0.983   0.073   5.155  0.0133  0.7185 -1.7607
 6847TIP3    H220506   0.864   0.136   5.085 -0.9201  2.1791  0.9749
 6848TIP3   OH220507   4.310   4.237   1.627  0.3808 -0.0334 -0.4592
 6848TIP3    H120508   4.340   4.268   1.542 -1.4812  2.7748 -0.2354
 6848TIP3    H220509   4.214   4.231   1.618  0.2186 -0.4775  1.1925
 6849TIP3   OH220510   4.789   5.023   3.290  0.3139 -0.3312 -0.3547
 6849TIP3    H120511   4.756   5.112   3.283  0.8961 -0.1083 -0.3498
 6849TIP3    H220512   4.859   5.018   3.224  0.7035 -0.5868  0.0690
 6850TIP3   OH220513   6.970   4.569   0.728 -0.1912 -0.9831  0.2264
 6850TIP3    H120514   6.967   4.571   0.632  0.3435  0.0876  0.2236
 6850TIP3    H220515   7.062   4.557   0.749 -0.1541 -0.0715  0.6132
 6851TIP3   OH220516   3.466   0.457   3.509 -0.0820 -0.3710  0.0429
 6851TIP3    H120517   3.395   0.395   3.529  0.7143 -0.9882  1.0942
 6851TIP3    H220518   3.422   0.535   3.476 -1.2077 -0.9434  0.1526
 6852TIP3   OH220519   4.934   2.105   5.353 -0.6443 -0.1688  0.2395
 6852TIP3    H120520   4.980   2.026   5.383 -1.7710 -0.2477  1.9065
 6852TIP3    H220521   4.972   2.124   5.267  0.0435 -2.1973  0.0391
 6853TIP3   OH220522   3.505   6.200   4.586  0.1319 -0.0299  0.7904
 6853TIP3    H120523   3.596   6.201   4.616  0.0620 -0.3205  1.0202
 6853TIP3    H220524   3.474   6.111   4.606 -0.0964 -0.0409  0.3945
 6854TIP3   OH220525   2.105   1.223   0.235 -0.5737  0.4662 -0.0306
 6854TIP3    H120526   2.092   1.259   0.323 -0.3207 -0.8157  0.5428
 6854TIP3    H220527   2.019   1.187   0.212 -0.3859 -0.0846  0.1122
 6855TIP3   OH220528   5.777   6.184   2.969  0.9356  0.2096  0.2302
 6855TIP3    H120529   5.745   6.094   2.980  2.5305 -0.2623  1.4849
 6855TIP3    H220530   5.707   6.229   2.921  0.9612 -2.2263 -2.3837
 6856TIP3   OH220531   7.039   6.701   4.144 -0.5050  0.2345  0.0103
 6856TIP3    H120532   6.981   6.762   4.098 -0.1522 -0.3866 -1.3177
 6856TIP3    H220533   6.988   6.620   4.151 -0.6823  0.4226  1.0556
 6857TIP3   OH220534   5.512   2.108   2.400  0.9475 -0.3654  0.1122
 6857TIP3    H120535   5.584   2.082   2.342  0.7032 -2.4143  0.6352
 6857TIP3    H220536   5.551   2.111   2.487  0.5845 -0.7696  0.2964
 6858TIP3   OH220537   4.374   1.857   4.502 -0.6101  0.2290  0.1626
 6858TIP3    H120538   4.321   1.848   4.422 -0.1701  0.1493 -0.1273
 6858TIP3    H220539   4.316   1.899   4.565 -1.1411 -0.2013 -0.0292
 6859TIP3   OH220540   5.769   5.546   0.578  0.1875  0.0187 -0.6591
 6859TIP3    H120541   5.698   5.573   0.635  0.0913 -0.5950 -0.4772
 6859TIP3    H220542   5.750   5.587   0.494  0.6817  1.4614 -0.0810
 6860TIP3   OH220543   6.932   1.498   4.153  0.0544 -0.0095  0.2052
 6860TIP3    H120544   6.984   1.422   4.126  1.0328  0.5754  0.4267
 6860TIP3    H220545   6.969   1.525   4.236 -2.0932 -0.9811  1.5774
 6861TIP3   OH220546   3.762   0.729   4.208 -0.1579 -0.2933 -0.5014
 6861TIP3    H120547   3.847   0.773   4.212 -0.8315  1.0055  0.3394
 6861TIP3    H220548   3.699   0.798   4.230 -1.2148 -1.8454  1.7091
 6862TIP3   OH220549   0.498   0.982   1.805 -0.2354 -1.0997  0.3631
 6862TIP3    H120550   0.484   1.009   1.896 -0.7385  2.2721 -0.5948
 6862TIP3    H220551   0.575   1.030   1.777 -1.2834 -0.4161 -1.5622
 6863TIP3   OH220552   4.688   2.989   2.684 -0.1417  0.3478  0.3230
 6863TIP3    H120553   4.716   3.008   2.595 -1.8387 -0.8253 -0.5185
 6863TIP3    H220554   4.769   2.987   2.735  0.9124  0.5328 -1.2867
 6864TIP3   OH220555   6.661   3.957   4.449 -0.0722  0.3735 -0.3673
 6864TIP3    H120556   6.715   3.944   4.371  0.2454 -1.0115  0.0632
 6864TIP3    H220557   6.612   4.037   4.431  1.3638  1.1072 -1.2102
 6865TIP3   OH220558   3.192   5.254   5.486  0.0045 -0.7279 -0.4046
 6865TIP3    H120559   3.192   5.338   5.531  0.6822 -0.8354 -0.1831
 6865TIP3    H220560   3.218   5.191   5.553 -2.9757 -1.5513  0.1226
 6866TIP3   OH220561   2.993   5.737   4.204  0.0735 -0.2865  0.3799
 6866TIP3    H120562   2.919   5.763   4.149 -0.1645 -0.7093  0.4956
 6866TIP3    H220563   2.979   5.784   4.286  0.2033  0.0209  0.2280
 6867TIP3   OH220564   4.869   3.463   2.098 -0.0990  0.0805 -0.1777
 6867TIP3    H120565   4.889   3.455   2.191 -0.1633 -1.3782 -0.2701
 6867TIP3    H220566   4.949   3.500   2.059  1.3074 -2.5179 -0.0237
 6868TIP3   OH220567   2.549   3.790   5.619 -0.4692 -0.2570 -0.3206
 6868TIP3    H120568   2.507   3.718   5.571  0.0718 -0.2474 -0.8069
 6868TIP3    H220569   2.642   3.773   5.611 -0.3242 -1.4758  2.5455
 6869TIP3   OH220570   5.393   0.078   0.880 -0.3102 -0.4292  0.3843
 6869TIP3    H120571   5.341   0.005   0.915 -0.8400 -0.0449  0.4208
 6869TIP3    H220572   5.341   0.156   0.902  0.4178 -0.0151  0.6574
 6870TIP3   OH220573   1.173   2.269   5.093  0.0037 -0.2982  0.8834
 6870TIP3    H120574   1.136   2.248   5.008  0.9595  1.1570  0.0593
 6870TIP3    H220575   1.127   2.348   5.121  1.2362  0.5445  0.6311
 6871TIP3   OH220576   1.175   0.506   1.226  0.4966  0.1491 -0.4401
 6871TIP3    H120577   1.260   0.531   1.190 -0.3735  1.7013 -1.5613
 6871TIP3    H220578   1.195   0.462   1.308  2.4231 -0.5529 -1.2300
 6872TIP3   OH220579   0.076   4.811   5.346 -0.2986  0.1090  0.4166
 6872TIP3    H120580   0.011   4.741   5.339 -0.9448  0.5241  1.7790
 6872TIP3    H220581   0.033   4.878   5.399  0.7375  1.0226  0.1388
 6873TIP3   OH220582   0.266   4.668   3.534  0.5200 -0.0299 -0.6961
 6873TIP3    H120583   0.329   4.600   3.556 -0.6880 -1.1214 -0.4617
 6873TIP3    H220584   0.281   4.737   3.599 -0.4889 -1.5742  1.2825
 6874TIP3   OH220585   5.630   4.866   3.857  0.7122 -0.0891  0.4523
 6874TIP3    H120586   5.721   4.889   3.836  0.1908  2.5590  0.7357
 6874TIP3    H220587   5.593   4.947   3.892 -2.4809 -0.2850 -2.0444
 6875TIP3   OH220588   1.377   5.821   1.644  0.4594  0.3970 -0.4384
 6875TIP3    H120589   1.380   5.916   1.646 -1.3459  0.5087  2.2229
 6875TIP3    H220590   1.455   5.793   1.691 -0.8095  0.7653  2.0461
 6876TIP3   OH220591   0.219   5.897   0.493 -0.6589  0.1495  0.1440
 6876TIP3    H120592   0.146   5.906   0.554 -1.6581  0.7961 -1.0951
 6876TIP3    H220593   0.262   5.983   0.493 -0.6266  0.1353 -0.0061
 6877TIP3   OH220594   7.105   1.212   0.691  0.9262  0.2473 -0.1190
 6877TIP3    H120595   7.137   1.165   0.614  0.8062 -0.7413  0.4184
 6877TIP3    H220596   7.142   1.165   0.766 -2.4309 -1.5436  0.5979
 6878TIP3   OH220597   1.533   3.508   1.117 -0.2371  0.0845 -0.2021
 6878TIP3    H120598   1.505   3.462   1.038 -0.4134  0.9055 -0.6238
 6878TIP3    H220599   1.455   3.512   1.171 -0.2365 -0.0616 -0.1904
 6879TIP3   OH220600   2.531   4.391   2.009 -0.1100  0.0201 -0.3429
 6879TIP3    H120601   2.591   4.317   2.007 -1.6527 -1.3876  1.5554
 6879TIP3    H220602   2.456   4.360   2.059 -3.0279  1.2501 -3.4906
 6880TIP3   OH220603   3.368   1.341   3.053  0.0952  0.1516  0.1514
 6880TIP3    H120604   3.385   1.367   3.144 -1.0996  0.3014  0.3626
 6880TIP3    H220605   3.283   1.296   3.057  1.1024 -1.9152 -0.5454
 6881TIP3   OH220606   0.157   3.153   5.321  0.0599 -0.1559  0.1161
 6881TIP3    H120607   0.177   3.077   5.265  2.3213 -1.3657  2.3676
 6881TIP3    H220608   0.242   3.192   5.339 -0.9148  1.9128  0.4603
 6882TIP3   OH220609   0.192   3.931   1.707  0.3379  0.1456 -0.1798
 6882TIP3    H120610   0.111   3.928   1.759  0.8155 -1.3641  0.5245
 6882TIP3    H220611   0.163   3.914   1.617 -0.1403 -0.3848  0.0637
 6883TIP3   OH220612   0.822   6.021   2.559 -0.6774  0.4310 -0.0206
 6883TIP3    H120613   0.821   6.060   2.646 -0.9240  0.2331  0.0647
 6883TIP3    H220614   0.914   6.018   2.535 -0.5791  0.1388  0.3877
 6884TIP3   OH220615   6.872   0.188   3.147  0.3353 -0.2343  0.0421
 6884TIP3    H120616   6.805   0.182   3.215  0.2046 -1.0784 -0.1461
 6884TIP3    H220617   6.954   0.171   3.193  0.4048  0.5962  0.2358
 6885TIP3   OH220618   5.634   3.131   1.493  0.0737  0.9330  0.4608
 6885TIP3    H120619   5.701   3.123   1.426 -0.6509  0.0668 -0.1833
 6885TIP3    H220620   5.619   3.041   1.523 -1.9586  0.8637 -0.5944
 6886TIP3   OH220621   4.803   2.327   3.620 -0.1541  0.1001  0.5682
 6886TIP3    H120622   4.894   2.328   3.590  0.1232 -1.0778  1.3167
 6886TIP3    H220623   4.773   2.238   3.604 -0.2015 -0.4167  3.0495
 6887TIP3   OH220624   2.056   4.396   3.609  0.2310  0.2892  0.9528
 6887TIP3    H120625   2.024   4.409   3.699 -1.0569  0.9061  0.4251
 6887TIP3    H220626   1.977   4.393   3.556  1.0300  0.9259 -0.2984
 6888TIP3   OH220627   5.866   1.310   2.828  0.1730 -0.0826 -0.2330
 6888TIP3    H120628   5.778   1.273   2.826  0.2633 -0.3833  0.8270
 6888TIP3    H220629   5.903   1.288   2.742 -1.2129  1.1653 -1.2047
 6889TIP3   OH220630   5.047   5.843   2.681 -0.1076  0.1776  0.3171
 6889TIP3    H120631   4.999   5.925   2.673  0.4336  0.4602 -0.0959
 6889TIP3    H220632   5.092   5.833   2.597  2.1415  0.9317  1.3390
 6890TIP3   OH220633   6.723   5.482   3.964  0.5064 -0.0176  0.1207
 6890TIP3    H120634   6.770   5.509   4.043 -1.8746  0.9823  1.3033
 6890TIP3    H220635   6.714   5.563   3.913 -1.9027  0.3878  1.0660
 6891TIP3   OH220636   3.418   1.283   1.440  0.4611  0.3756 -0.0328
 6891TIP3    H120637   3.462   1.312   1.520  2.7828  1.2754 -1.5142
 6891TIP3    H220638   3.368   1.360   1.412 -0.4292  0.0295  0.5695
 6892TIP3   OH220639   0.424   3.550   3.213 -0.0345  0.6119 -0.0875
 6892TIP3    H120640   0.384   3.622   3.163  0.7127  1.0358 -0.0998
 6892TIP3    H220641   0.373   3.473   3.189 -1.3199  1.2583  0.4939
 6893TIP3   OH220642   4.563   4.278   3.616  0.8809  0.4044 -0.7367
 6893TIP3    H120643   4.499   4.267   3.546  0.0075 -1.9595  0.2944
 6893TIP3    H220644   4.647   4.285   3.572  0.1933  0.7642 -2.0411
 6894TIP3   OH220645   2.274   6.019   0.990  0.0231  0.6403 -0.3056
 6894TIP3    H120646   2.258   6.087   0.924  0.5393  1.6726  0.5830
 6894TIP3    H220647   2.365   6.033   1.017  0.1945 -0.5369 -0.2271
 6895TIP3   OH220648   2.835   1.558   0.464 -0.3588  0.0616 -0.2590
 6895TIP3    H120649   2.918   1.570   0.418  0.5216 -2.1448  0.6500
 6895TIP3    H220650   2.860   1.537   0.554 -1.9987  2.2326  0.8019
 6896TIP3   OH220651   4.917   2.033   0.665 -0.3273  0.1418 -0.3353
 6896TIP3    H120652   4.882   1.976   0.733 -0.0294  0.0241 -0.2778
 6896TIP3    H220653   4.979   1.977   0.617 -0.2788  0.3224 -0.4841
 6897TIP3   OH220654   2.866   3.139   1.262 -0.1358 -0.5635  0.0471
 6897TIP3    H120655   2.811   3.061   1.247 -0.4266 -0.0822 -1.6716
 6897TIP3    H220656   2.931   3.111   1.326 -0.6709 -2.0188 -0.0107
 6898TIP3   OH220657   5.598   4.795   4.781 -0.0948  0.1815 -0.1228
 6898TIP3    H120658   5.645   4.826   4.859  1.4636 -2.5240  0.1823
 6898TIP3    H220659   5.614   4.862   4.714 -0.5559  2.0344  1.5354
 6899TIP3   OH220660   1.696   1.037   4.088 -0.2240  0.0048 -0.2189
 6899TIP3    H120661   1.739   1.087   4.158  0.4813 -0.0468 -0.6128
 6899TIP3    H220662   1.725   1.078   4.007 -1.4714  0.4126 -0.4896
 6900TIP3   OH220663   4.919   4.542   2.078 -0.6348 -0.4432  0.7583
 6900TIP3    H120664   4.979   4.615   2.094 -0.0500 -0.2793 -1.7879
 6900TIP3    H220665   4.976   4.466   2.068 -0.9015 -0.4679 -0.7082
 6901TIP3   OH220666   2.051   4.453   3.234  0.0301  0.0367 -0.4746
 6901TIP3    H120667   2.106   4.512   3.285  0.5259 -2.0258  1.5344
 6901TIP3    H220668   2.111   4.415   3.169  0.8905 -1.5376  1.1374
 6902TIP3   OH220669   0.066   3.089   2.594 -0.4066  0.2025 -0.5041
 6902TIP3    H120670  -0.022   3.086   2.630 -0.4546  2.4455 -0.3049
 6902TIP3    H220671   0.123   3.072   2.670 -0.6411 -0.3436 -0.4500
 6903TIP3   OH220672   1.247   3.960   4.320  0.1760 -0.1407 -0.2651
 6903TIP3    H120673   1.337   3.929   4.313 -0.1703 -0.8134 -2.2778
 6903TIP3    H220674   1.251   4.052   4.293  0.6591  0.7431  2.4713
 6904TIP3   OH220675   2.184   0.392   4.905  0.7053 -0.1676  0.2653
 6904TIP3    H120676   2.228   0.376   4.988  0.4456  1.7797  0.8248
 6904TIP3    H220677   2.097   0.352   4.915  1.2031 -1.2675  0.3290
 6905TIP3   OH220678   0.148   5.050   4.803  0.4246  0.3116  0.3243
 6905TIP3    H120679   0.181   5.135   4.772 -1.6032  1.0697  0.1064
 6905TIP3    H220680   0.094   5.072   4.879  1.6112 -1.0618  1.6295
 6906TIP3   OH220681   4.824   4.560   3.970 -0.1417 -0.1927  0.4679
 6906TIP3    H120682   4.843   4.652   3.952  1.6824 -0.5239  0.5181
 6906TIP3    H220683   4.761   4.563   4.042  0.0698  1.0172  0.6280
 6907TIP3   OH220684   3.800   1.324   4.090 -0.0031 -0.0431 -0.1477
 6907TIP3    H120685   3.883   1.359   4.123 -0.9357  1.3423  0.8435
 6907TIP3    H220686   3.814   1.313   3.996  1.5977 -0.7640  0.1342
 6908TIP3   OH220687   1.591   2.141   3.519 -0.2996 -0.3051 -0.1421
 6908TIP3    H120688   1.517   2.202   3.512  0.8699  1.3440  1.0768
 6908TIP3    H220689   1.641   2.172   3.594  4.0259  1.3575 -3.3043
 6909TIP3   OH220690   4.860   6.353   2.764 -0.2038  0.0534  0.5220
 6909TIP3    H120691   4.770   6.368   2.736  0.1709 -0.8133 -1.3272
 6909TIP3    H220692   4.853   6.335   2.858 -1.9431  0.0454  0.4281
 6910TIP3   OH220693   6.254   2.859   5.358 -0.7276 -0.2523 -0.2097
 6910TIP3    H120694   6.251   2.789   5.293 -1.9824  0.6042 -1.1197
 6910TIP3    H220695   6.347   2.866   5.381 -0.2509 -0.6275 -1.8674
 6911TIP3   OH220696   1.249   2.421   0.500 -0.2334  0.0443 -0.0813
 6911TIP3    H120697   1.190   2.346   0.492  0.0296 -0.2509  0.6138
 6911TIP3    H220698   1.272   2.443   0.410 -0.4035 -0.6427 -0.2999
 6912TIP3   OH220699   5.755   5.903   4.601  0.2435 -0.0329  0.5105
 6912TIP3    H120700   5.831   5.885   4.547 -0.2840  0.5539 -0.4613
 6912TIP3    H220701   5.701   5.961   4.548 -0.8330 -0.3497  1.2178
 6913TIP3   OH220702   1.758   3.483   0.810  0.1686 -0.5176  0.0601
 6913TIP3    H120703   1.813   3.472   0.888  1.4014  0.3376 -0.6370
 6913TIP3    H220704   1.756   3.578   0.796 -0.9465 -0.5822 -0.3337
 6914TIP3   OH220705   0.857   2.320   2.244 -0.5433 -0.0547  0.0202
 6914TIP3    H120706   0.890   2.409   2.258  1.4396 -0.9016  1.1700
 6914TIP3    H220707   0.841   2.287   2.332  0.8874 -1.5485 -0.2305
 6915TIP3   OH220708   1.023   2.673   3.582  0.2441  0.5540 -0.1803
 6915TIP3    H120709   1.024   2.727   3.662  2.0097  0.1035  0.1517
 6915TIP3    H220710   1.040   2.735   3.511  0.2975  0.7208 -0.0238
 6916TIP3   OH220711   6.284   5.626   0.848  0.1418 -1.0164 -0.0512
 6916TIP3    H120712   6.221   5.677   0.797  1.7037  0.0979 -0.9491
 6916TIP3    H220713   6.269   5.536   0.821 -0.6440 -0.6991 -0.7230
 6917TIP3   OH220714   1.338   0.401   5.355 -0.0014  0.2818 -0.0011
 6917TIP3    H120715   1.384   0.375   5.276  0.5913  0.8923  0.1391
 6917TIP3    H220716   1.245   0.394   5.332  0.1659  0.4765 -0.7488
 6918TIP3   OH220717   6.034   1.561   0.220 -0.1751 -0.7577  0.0656
 6918TIP3    H120718   6.070   1.533   0.136  0.2846  1.0152 -0.3579
 6918TIP3    H220719   6.066   1.495   0.282  2.7030 -0.0854 -0.5225
 6919TIP3   OH220720   5.259   2.282   0.908 -0.2528  0.8169  0.4568
 6919TIP3    H120721   5.299   2.350   0.854 -1.7095  0.4366 -1.1735
 6919TIP3    H220722   5.238   2.326   0.990  0.6233  1.8022  0.1741
 6920TIP3   OH220723   1.439   6.775   0.983  0.6125 -0.1062 -0.8471
 6920TIP3    H120724   1.507   6.804   0.921 -0.3564  1.0651 -1.4126
 6920TIP3    H220725   1.358   6.810   0.947 -0.3710 -1.8284 -0.4028
 6921TIP3   OH220726   2.590   0.205   4.424  0.3037 -0.5089 -0.3486
 6921TIP3    H120727   2.518   0.158   4.382  0.4664 -1.0204 -0.0600
 6921TIP3    H220728   2.550   0.288   4.453 -0.4392 -1.2152  0.7130
 6922TIP3   OH220729   4.718   4.355   4.777 -0.2172  0.6808  0.3842
 6922TIP3    H120730   4.719   4.422   4.845 -0.6950  0.4435  0.6272
 6922TIP3    H220731   4.680   4.278   4.819  2.9061 -0.7124  0.9992
 6923TIP3   OH220732   2.548   5.446   0.882 -0.6265  0.1784 -0.4608
 6923TIP3    H120733   2.529   5.526   0.832 -1.2147  0.4067  0.1147
 6923TIP3    H220734   2.490   5.381   0.843 -0.3638  0.1051 -0.7320
 6924TIP3   OH220735   4.890   5.123   0.466  0.4068  0.4970 -0.4761
 6924TIP3    H120736   4.917   5.147   0.377 -1.4593  1.7134 -0.7645
 6924TIP3    H220737   4.972   5.120   0.516  1.4316  0.3784 -2.0740
 6925TIP3   OH220738   6.727   1.952   4.385 -0.2426  0.0501 -1.0527
 6925TIP3    H120739   6.688   2.019   4.330  0.6915  1.2484 -0.2929
 6925TIP3    H220740   6.686   1.870   4.356 -1.8188  1.0061 -1.6056
 6926TIP3   OH220741   6.292   1.700   0.373  0.1677 -0.5950  0.6153
 6926TIP3    H120742   6.327   1.614   0.398  1.1390 -0.7190 -1.0066
 6926TIP3    H220743   6.251   1.685   0.288 -1.0928  0.2401  1.0420
 6927TIP3   OH220744   0.058   6.641   4.735  0.7477 -0.1767 -0.5626
 6927TIP3    H120745   0.100   6.626   4.819  0.3138 -2.1216 -0.6397
 6927TIP3    H220746  -0.036   6.641   4.755  0.6843  1.4864 -0.7617
 6928TIP3   OH220747   4.989   5.632   3.601  0.4381  0.2256 -0.1668
 6928TIP3    H120748   5.079   5.607   3.578  0.2845  1.3184 -2.1904
 6928TIP3    H220749   4.948   5.549   3.627  1.9731 -0.3108  0.7167
 6929TIP3   OH220750   6.515   4.840   5.124  0.5382  0.2454 -0.1714
 6929TIP3    H120751   6.494   4.854   5.032 -2.2625  2.9672  0.7265
 6929TIP3    H220752   6.557   4.921   5.152 -0.2179  0.1639  1.3175
 6930TIP3   OH220753   5.675   3.122   5.624 -0.1083 -0.2675  0.3772
 6930TIP3    H120754   5.698   3.200   5.675  0.7066  0.0760 -0.4948
 6930TIP3    H220755   5.625   3.156   5.550  0.9732 -0.4604 -0.4628
 6931TIP3   OH220756   0.170   1.982   3.302  0.6440 -0.3659  1.1108
 6931TIP3    H120757   0.210   2.021   3.224  0.8019 -0.0881  1.3292
 6931TIP3    H220758   0.077   2.005   3.296  0.9015  0.8906  1.7387
 6932TIP3   OH220759   3.363   2.804   3.925 -0.2334  0.3277  0.3344
 6932TIP3    H120760   3.277   2.783   3.961 -1.5922  0.7454 -2.3681
 6932TIP3    H220761   3.393   2.879   3.976 -1.0434 -0.3676  1.9014
 6933TIP3   OH220762   2.386   0.502   0.380 -0.2324 -0.2231  0.1862
 6933TIP3    H120763   2.326   0.575   0.363 -0.6876 -0.2925  1.4206
 6933TIP3    H220764   2.440   0.531   0.453  0.9474 -0.3461 -0.6179
 6934TIP3   OH220765   4.032   0.751   4.463 -0.6448  0.7066 -0.1115
 6934TIP3    H120766   4.012   0.844   4.463 -0.8696  0.6823  1.1954
 6934TIP3    H220767   4.113   0.744   4.514 -0.0182  0.2898 -1.1373
 6935TIP3   OH220768   2.631   1.962   5.846  0.1225 -0.4464 -0.2759
 6935TIP3    H120769   2.679   1.883   5.824 -0.6870 -0.9919 -0.1258
 6935TIP3    H220770   2.694   2.033   5.834  1.0262 -1.1638  0.1898
 6936TIP3   OH220771   4.686   1.133   4.565 -0.2288 -0.8085  0.4875
 6936TIP3    H120772   4.767   1.086   4.586  0.1807 -0.0184  0.6948
 6936TIP3    H220773   4.632   1.068   4.519  0.7728 -1.1570 -0.2293
 6937TIP3   OH220774   4.203   2.923   4.901  0.4661 -0.1670 -0.0061
 6937TIP3    H120775   4.135   2.973   4.857  1.0591 -0.0936 -0.8488
 6937TIP3    H220776   4.165   2.902   4.987 -0.5681 -0.0265 -0.4115
 6938TIP3   OH220777   5.010   4.700   2.540 -0.1099 -0.1502 -0.4536
 6938TIP3    H120778   4.935   4.695   2.481 -0.5017  0.3821 -0.0138
 6938TIP3    H220779   5.075   4.641   2.502 -0.1593  0.5626 -1.6962
 6939TIP3   OH220780   2.319   6.602   0.841  0.0020 -0.6734 -0.5887
 6939TIP3    H120781   2.279   6.649   0.914 -0.7186 -1.0824 -0.7123
 6939TIP3    H220782   2.392   6.658   0.815 -0.8643  0.4306 -0.7658
 6940TIP3   OH220783   6.083   1.106   2.432 -0.4868  0.0399  0.3931
 6940TIP3    H120784   6.126   1.105   2.518 -0.3987  0.7671  0.3570
 6940TIP3    H220785   5.996   1.142   2.448 -1.1939 -1.6226  0.4994
 6941TIP3   OH220786   4.152   1.456   2.703  0.7577 -0.2805 -0.4248
 6941TIP3    H120787   4.086   1.433   2.769  1.4795 -0.2877  0.3068
 6941TIP3    H220788   4.235   1.426   2.741  1.2897  0.5159 -0.9436
 6942TIP3   OH220789   1.801   2.173   4.868 -0.0730  0.7445  0.5266
 6942TIP3    H120790   1.848   2.125   4.800 -0.4048  1.5613 -0.2864
 6942TIP3    H220791   1.826   2.128   4.949  0.7069  0.0586 -0.0693
 6943TIP3   OH220792   5.043   3.396   4.799 -0.4194  0.2369  0.6436
 6943TIP3    H120793   5.121   3.347   4.773 -1.0405 -0.5022  0.1349
 6943TIP3    H220794   5.027   3.455   4.725 -1.3181 -0.8174 -0.0375
 6944TIP3   OH220795   5.756   2.266   4.337 -0.0816 -0.0315  0.0156
 6944TIP3    H120796   5.837   2.223   4.310 -0.2873  0.1915 -0.9799
 6944TIP3    H220797   5.784   2.348   4.378  0.1423  1.1824 -2.4107
 6945TIP3   OH220798   2.687   1.432   4.596  0.1581 -0.6054  0.8934
 6945TIP3    H120799   2.633   1.485   4.537  2.6687 -1.3398 -2.3829
 6945TIP3    H220800   2.646   1.345   4.593 -1.3055 -0.0248  2.5669
 6946TIP3   OH220801   3.906   2.735   1.296  0.2844 -0.3815  0.0030
 6946TIP3    H120802   3.928   2.828   1.303 -1.5088  0.1326 -0.6141
 6946TIP3    H220803   3.962   2.702   1.226  1.2677  0.1069  0.5362
 6947TIP3   OH220804   5.409   4.833   3.023  0.4681  0.0547 -0.8900
 6947TIP3    H120805   5.355   4.768   2.979  0.7667 -0.9171  0.1280
 6947TIP3    H220806   5.470   4.863   2.955 -0.0092 -0.3345 -1.5032
 6948TIP3   OH220807   0.567   0.178   4.103  0.2716  0.9460 -0.6732
 6948TIP3    H120808   0.529   0.234   4.170  1.5600  1.7684 -0.6050
 6948TIP3    H220809   0.590   0.097   4.150  1.1044  1.4916 -0.1233
 6949TIP3   OH220810   0.189   4.660   3.017  0.0914 -0.3272 -0.5439
 6949TIP3    H120811   0.134   4.587   2.988  1.4086 -1.3300 -0.6480
 6949TIP3    H220812   0.146   4.694   3.095  0.4337 -2.5082  0.6910
 6950TIP3   OH220813   6.139   4.057   1.004  0.1743 -0.2191  0.2683
 6950TIP3    H120814   6.070   4.073   0.940  1.0523  0.9023 -0.4327
 6950TIP3    H220815   6.165   3.966   0.989 -0.6417 -0.4254  0.0475
 6951TIP3   OH220816   3.512   6.391   2.044 -0.5053  0.1022 -0.4122
 6951TIP3    H120817   3.466   6.307   2.040  1.7882 -1.2971  0.7638
 6951TIP3    H220818   3.482   6.431   2.126  1.2252 -1.3846  1.0025
 6952TIP3   OH220819   6.847   2.464   0.499  0.4042  0.3159  0.1865
 6952TIP3    H120820   6.906   2.511   0.440  0.2316  2.3507  1.5262
 6952TIP3    H220821   6.771   2.522   0.508 -0.0469 -0.4306  1.5263
 6953TIP3   OH220822   2.931   4.582   3.605 -0.3282  0.1428  0.1863
 6953TIP3    H120823   2.992   4.614   3.538 -1.4406  1.2582 -0.3353
 6953TIP3    H220824   2.959   4.625   3.686 -0.3207  0.5158 -0.0156
 6954TIP3   OH220825   2.744   0.222   2.047  0.2084 -0.4384 -0.8970
 6954TIP3    H120826   2.673   0.176   2.093 -0.1969 -1.3575 -2.3890
 6954TIP3    H220827   2.821   0.167   2.061  0.6624  0.5054  0.6323
 6955TIP3   OH220828   5.979   2.525   0.877  0.1686  0.2566  0.0036
 6955TIP3    H120829   6.015   2.512   0.965  0.6239 -0.9410 -0.3394
 6955TIP3    H220830   5.928   2.606   0.884  1.0903  0.7804  1.0805
 6956TIP3   OH220831   6.366   1.810   1.523  0.2269  0.0730  0.5511
 6956TIP3    H120832   6.446   1.805   1.575 -0.5997 -0.8566  1.8029
 6956TIP3    H220833   6.393   1.853   1.442  1.4181  2.2257  1.9902
 6957TIP3   OH220834   6.252   3.610   1.336  0.2979  0.0021  0.3947
 6957TIP3    H120835   6.160   3.638   1.336  0.1851 -0.2647 -1.1209
 6957TIP3    H220836   6.256   3.539   1.400 -0.4147  0.4054  0.9024
 6958TIP3   OH220837   2.399   4.021   5.812  0.8564 -0.1470 -0.2546
 6958TIP3    H120838   2.402   3.943   5.757 -0.7765 -0.1910 -0.3329
 6958TIP3    H220839   2.320   4.068   5.783  0.3846  0.2268  1.4892
 6959TIP3   OH220840   5.344   1.819   0.428  0.5497  0.6033 -0.3644
 6959TIP3    H120841   5.426   1.867   0.419  0.9674  0.4389  2.0102
 6959TIP3    H220842   5.361   1.735   0.384  0.7815  1.4488 -1.9827
 6960TIP3   OH220843   4.727   5.688   2.054 -0.3377  0.2884  0.3589
 6960TIP3    H120844   4.676   5.619   2.097 -0.4392  1.2866  1.9328
 6960TIP3    H220845   4.757   5.743   2.126  2.0022  0.4053 -0.6299
 6961TIP3   OH220846   0.263   4.762   0.445 -0.3293 -0.1676 -0.4807
 6961TIP3    H120847   0.356   4.753   0.467 -0.4546 -1.3697 -0.3353
 6961TIP3    H220848   0.254   4.719   0.360 -0.7185  0.0874 -0.5711
 6962TIP3   OH220849   4.598   0.496   2.010 -0.4554  0.0484 -0.1429
 6962TIP3    H120850   4.642   0.515   2.092  0.3522  2.4417 -1.0460
 6962TIP3    H220851   4.511   0.466   2.035  0.1547 -0.3905  1.5752
 6963TIP3   OH220852   0.297   2.721   4.821  0.0269 -1.0070 -0.3301
 6963TIP3    H120853   0.218   2.683   4.858  0.5687 -2.0818 -0.2416
 6963TIP3    H220854   0.342   2.648   4.779  0.4351 -0.2082 -1.3547
 6964TIP3   OH220855   3.546   3.387   2.472 -0.8942 -0.6080  0.6068
 6964TIP3    H120856   3.618   3.333   2.437 -0.1216 -0.6270  2.1246
 6964TIP3    H220857   3.541   3.362   2.564 -0.5887  1.8180  1.3529
 6965TIP3   OH220858   2.898   1.031   4.618  0.4201 -0.0692 -0.5312
 6965TIP3    H120859   2.953   0.961   4.582 -0.1204 -0.1588 -1.1959
 6965TIP3    H220860   2.822   0.986   4.655  1.2912 -0.0494  1.4208
 6966TIP3   OH220861   4.610   1.827   4.675 -0.3199  0.1074  0.0347
 6966TIP3    H120862   4.663   1.895   4.631  2.6192 -0.6593  2.0579
 6966TIP3    H220863   4.542   1.804   4.611  1.3650  1.7128 -2.5271
 6967TIP3   OH220864   2.927   5.921   1.366  0.1584 -0.2208 -0.3297
 6967TIP3    H120865   2.949   5.964   1.450  1.3207 -2.3302  0.5239
 6967TIP3    H220866   3.012   5.905   1.325 -0.4036  0.8065 -1.9867
 6968TIP3   OH220867   2.875   5.415   1.445 -0.1406  0.1455 -0.0775
 6968TIP3    H120868   2.925   5.405   1.526  0.2356  0.1828 -0.3019
 6968TIP3    H220869   2.805   5.350   1.451 -0.3281  0.3896  0.4351
 6969TIP3   OH220870   5.412   3.784   0.479 -0.0427  0.1797  0.5299
 6969TIP3    H120871   5.466   3.837   0.538  0.3946  0.7262 -0.3512
 6969TIP3    H220872   5.466   3.773   0.401 -1.5484  1.5504 -0.7741
 6970TIP3   OH220873   7.073   5.265   5.599 -0.1367 -0.0904  0.0221
 6970TIP3    H120874   7.005   5.215   5.644 -1.9623  2.4438  0.3054
 6970TIP3    H220875   7.115   5.317   5.668  0.6222 -0.0173 -0.4769
 6971TIP3   OH220876   6.428   1.855   1.810 -0.0360  0.2927 -0.1198
 6971TIP3    H120877   6.513   1.862   1.767 -0.2939 -1.5855 -1.0325
 6971TIP3    H220878   6.377   1.928   1.776  0.5505  0.2325 -1.1589
 6972TIP3   OH220879   0.032   2.886   3.426 -0.6669 -0.4374  0.3763
 6972TIP3    H120880   0.022   2.826   3.500 -0.9182 -0.4052  0.3696
 6972TIP3    H220881  -0.036   2.952   3.440 -1.4284 -1.0219 -0.4570
 6973TIP3   OH220882   1.890   5.875   2.508  0.0929  0.3199  0.0931
 6973TIP3    H120883   1.982   5.857   2.528 -0.5451 -1.6910  1.4709
 6973TIP3    H220884   1.883   5.863   2.413  1.1824  0.2418  0.0094
 6974TIP3   OH220885   0.401   5.227   5.402  0.2000  0.0113  0.4930
 6974TIP3    H120886   0.431   5.136   5.402  1.8631  0.3908  3.8497
 6974TIP3    H220887   0.315   5.223   5.445  0.4243  0.0580  0.9467
 6975TIP3   OH220888   5.046   3.514   2.304  0.7340  0.1642 -0.0677
 6975TIP3    H120889   5.105   3.468   2.364 -0.1265 -0.1120  0.5837
 6975TIP3    H220890   5.104   3.571   2.254  1.5072  0.2529  0.8821
 6976TIP3   OH220891   2.000   1.672   1.209 -0.5324  0.1707  0.2718
 6976TIP3    H120892   1.927   1.723   1.173 -1.5097 -1.4331 -0.0809
 6976TIP3    H220893   2.044   1.636   1.133  0.3049  0.6592  0.5109
 6977TIP3   OH220894   4.012   3.121   2.360  0.0216 -0.2248 -0.3630
 6977TIP3    H120895   4.106   3.129   2.379  0.2803  0.8078 -1.9278
 6977TIP3    H220896   3.994   3.027   2.369  1.6049 -0.7025 -1.7193
 6978TIP3   OH220897   4.239   5.553   5.568  0.6666 -0.0468  0.1483
 6978TIP3    H120898   4.232   5.646   5.589  2.1801  0.7696 -2.4767
 6978TIP3    H220899   4.326   5.528   5.599  0.7766 -0.2334 -0.2987
 6979TIP3   OH220900   5.194   3.591   1.009  0.5664 -0.1338  0.4154
 6979TIP3    H120901   5.158   3.556   0.927  2.0693  2.4368 -1.4940
 6979TIP3    H220902   5.283   3.555   1.013  0.0811 -1.2941  1.6987
 6980TIP3   OH220903   5.378   3.896   5.177 -0.1026 -0.3718 -0.0364
 6980TIP3    H120904   5.422   3.956   5.117  0.2395 -0.8093 -0.2306
 6980TIP3    H220905   5.285   3.918   5.169  0.1550  1.2703  1.1651
 6981TIP3   OH220906   2.788   4.173   3.233  0.2208  0.1113 -0.4654
 6981TIP3    H120907   2.847   4.203   3.302  0.1425  1.5151 -0.9792
 6981TIP3    H220908   2.703   4.165   3.276  0.1556  1.0459 -0.3928
 6982TIP3   OH220909   1.562   0.253   3.671  0.3598  0.3589  0.3365
 6982TIP3    H120910   1.524   0.327   3.623  1.1292  0.8860  0.5152
 6982TIP3    H220911   1.533   0.265   3.761 -1.2845 -0.7644  0.0038
 6983TIP3   OH220912   2.512   5.088   2.766 -0.3880 -0.4715  0.0872
 6983TIP3    H120913   2.444   5.074   2.833 -1.9156  0.0916 -1.2648
 6983TIP3    H220914   2.573   5.015   2.777 -0.7004 -0.4906  1.9498
 6984TIP3   OH220915   5.351   3.558   3.592 -0.0159 -0.3923  0.8953
 6984TIP3    H120916   5.308   3.641   3.567 -0.3334 -0.8912 -0.3124
 6984TIP3    H220917   5.295   3.522   3.660  0.2647  0.5035  1.6213
 6985TIP3   OH220918   0.816   1.381   5.238 -0.1906  0.5754  0.0984
 6985TIP3    H120919   0.908   1.391   5.212 -0.3620  2.5898  0.0714
 6985TIP3    H220920   0.810   1.426   5.322 -0.5586 -2.2433  1.7211
 6986TIP3   OH220921   2.261   5.690   5.312 -0.2067  0.5169  0.2605
 6986TIP3    H120922   2.314   5.749   5.366  0.3433  0.8256 -0.5877
 6986TIP3    H220923   2.324   5.624   5.281 -0.2571  0.9808 -0.8896
 6987TIP3   OH220924   6.046   2.509   0.032  0.3903  0.2038  0.3078
 6987TIP3    H120925   6.132   2.541   0.005  0.0897 -1.4178 -3.0010
 6987TIP3    H220926   6.063   2.455   0.109  2.7645 -1.7742 -1.4503
 6988TIP3   OH220927   4.235   2.779   3.312  0.1954  0.1191 -0.3799
 6988TIP3    H120928   4.203   2.735   3.233 -1.6477 -0.4080  0.5901
 6988TIP3    H220929   4.250   2.708   3.375 -0.3650  0.6574  0.3826
 6989TIP3   OH220930   1.981  -0.024   3.080  0.1309  0.3039 -0.9375
 6989TIP3    H120931   1.945   0.065   3.070  2.1189  1.0746 -1.7787
 6989TIP3    H220932   1.999  -0.031   3.174 -0.1990  0.7113 -0.8346
 6990TIP3   OH220933   4.083   0.003   2.603 -0.3826 -0.5074  0.5454
 6990TIP3    H120934   4.030   0.083   2.603 -0.9094 -0.7765  3.0758
 6990TIP3    H220935   4.172   0.033   2.589 -0.7286  0.3746  0.1775
 6991TIP3   OH220936   0.683   1.631   0.158 -0.3258 -0.0921 -0.4869
 6991TIP3    H120937   0.714   1.712   0.116 -0.4532 -0.8461 -2.1191
 6991TIP3    H220938   0.680   1.652   0.251 -0.2988  1.7671 -0.8651
 6992TIP3   OH220939   3.189   5.008   3.553 -0.3122 -0.0981  0.3428
 6992TIP3    H120940   3.245   5.027   3.478 -1.6752  0.5705 -0.5380
 6992TIP3    H220941   3.239   5.039   3.628  0.0822  1.4368 -0.5109
 6993TIP3   OH220942   1.734   6.071   1.857  0.2085  0.9722  0.3666
 6993TIP3    H120943   1.806   6.011   1.877 -0.7185  0.1499  1.4016
 6993TIP3    H220944   1.684   6.026   1.789 -0.1781  0.8066  0.7522
 6994TIP3   OH220945   7.132   4.101   1.776  0.8293  0.0208  0.2163
 6994TIP3    H120946   7.150   4.149   1.856 -1.1364 -2.2905  2.2200
 6994TIP3    H220947   7.045   4.131   1.749  0.6840 -0.5522  0.0239
 6995TIP3   OH220948   6.908   3.719   1.190  0.1752 -0.0819  0.4531
 6995TIP3    H120949   6.995   3.726   1.149  0.7099 -1.6297  1.2655
 6995TIP3    H220950   6.863   3.799   1.163  1.1916 -0.1080 -1.5329
 6996TIP3   OH220951   6.640   4.769   0.939 -0.1759 -0.1257 -0.1467
 6996TIP3    H120952   6.712   4.736   0.993 -1.2426 -0.6631  0.9983
 6996TIP3    H220953   6.572   4.702   0.945 -1.0218  0.6452 -0.7059
 6997TIP3   OH220954   2.295   2.761   3.704 -0.5353 -0.1817  0.2954
 6997TIP3    H120955   2.211   2.807   3.702 -0.0839  1.2078  4.0483
 6997TIP3    H220956   2.360   2.830   3.692  0.0900 -0.2814  2.6067
 6998TIP3   OH220957   0.741   3.208   0.002 -0.1476 -0.2908 -0.1269
 6998TIP3    H120958   0.820   3.253  -0.030 -1.2602 -0.3385 -3.2577
 6998TIP3    H220959   0.774   3.148   0.068  2.2038  0.8828 -0.1088
 6999TIP3   OH220960   1.443   0.527   4.363 -0.8521 -0.1906 -0.5656
 6999TIP3    H120961   1.400   0.612   4.356 -0.4195 -0.0577 -1.8240
 6999TIP3    H220962   1.536   0.545   4.350 -0.5029 -0.6226  1.0405
 7000TIP3   OH220963   4.119   2.506   2.864  0.5534 -0.1763  0.0300
 7000TIP3    H120964   4.076   2.421   2.867 -0.4922  0.2260 -1.7009
 7000TIP3    H220965   4.199   2.495   2.915 -0.7776 -1.4407  1.9870
 7001TIP3   OH220966   2.938   3.149   4.881 -0.3991  0.0300  0.3189
 7001TIP3    H120967   3.001   3.157   4.953  0.4832 -0.9080 -0.3384
 7001TIP3    H220968   2.881   3.077   4.907  0.7577 -1.2215 -0.5169
 7002TIP3   OH220969   1.263   0.155   0.676 -0.0597 -0.1763 -0.4106
 7002TIP3    H120970   1.315   0.074   0.683 -0.0841 -0.1400  0.3657
 7002TIP3    H220971   1.251   0.168   0.582 -0.0337 -1.0659 -0.5496
 7003TIP3   OH220972   1.235   0.342   4.012 -0.7934 -0.2194  0.1754
 7003TIP3    H120973   1.202   0.290   4.085  0.7020  0.9430  1.7513
 7003TIP3    H220974   1.184   0.423   4.015  0.6312  0.6859  1.2784
 7004TIP3   OH220975   2.202  -0.003   0.195 -0.1972 -0.3041 -0.1908
 7004TIP3    H120976   2.122   0.047   0.212 -0.3622 -0.4425 -0.5430
 7004TIP3    H220977   2.268   0.064   0.176 -0.3346 -0.2067 -0.3279
 7005TIP3   OH220978   3.406   5.368   3.267  0.3373 -0.4836 -0.1896
 7005TIP3    H120979   3.457   5.443   3.297  0.3261 -1.1164  1.5053
 7005TIP3    H220980   3.468   5.316   3.215  1.0407 -0.5560  0.7081
 7006TIP3   OH220981   2.129   3.600   5.463  0.1470  0.1411 -0.0069
 7006TIP3    H120982   2.078   3.522   5.485  1.5384 -0.5689  0.9029
 7006TIP3    H220983   2.071   3.673   5.480 -0.3537 -0.6003  1.7028
 7007TIP3   OH220984   6.121   1.132   3.701  0.1309 -0.1753  0.3276
 7007TIP3    H120985   6.097   1.221   3.727  2.1162  0.5845 -0.2300
 7007TIP3    H220986   6.207   1.141   3.662  0.5739 -2.4316  0.6281
 7008TIP3   OH220987   6.495   1.033   2.914  0.1216 -0.0439 -0.6849
 7008TIP3    H120988   6.447   0.991   2.986  0.2415  0.5302 -0.2685
 7008TIP3    H220989   6.517   1.120   2.947  1.7143 -0.3899 -0.7490
 7009TIP3   OH220990   2.789  -0.015   0.498 -0.0035 -0.1178  0.1492
 7009TIP3    H120991   2.784  -0.035   0.405 -1.3598  1.9601 -0.2907
 7009TIP3    H220992   2.765   0.078   0.504 -0.0659 -0.2238  2.5801
 7010TIP3   OH220993   1.917   3.036   5.095  0.1531  0.1129  0.4131
 7010TIP3    H120994   1.874   2.958   5.130 -0.1482  0.1520  0.1285
 7010TIP3    H220995   2.007   3.008   5.078 -0.9819 -1.6436 -4.1939
 7011TIP3   OH220996   4.422   2.341   4.650 -0.3508  0.3064  0.3739
 7011TIP3    H120997   4.337   2.330   4.694 -0.5391  0.2362 -0.0047
 7011TIP3    H220998   4.425   2.434   4.628 -0.7414  0.1363 -0.4362
 7012TIP3   OH220999   6.431   6.734   0.355 -0.2041  0.7675  0.0806
 7012TIP3    H121000   6.413   6.642   0.336  2.5532 -0.2271  1.7253
 7012TIP3    H221001   6.459   6.771   0.271 -1.5263  0.2270 -0.6381
 7013TIP3   OH221002   1.758   3.323   0.597  0.4412 -0.1721 -0.3249
 7013TIP3    H121003   1.749   3.363   0.683 -1.3841  0.5372 -0.7872
 7013TIP3    H221004   1.825   3.375   0.553  0.5421  0.2034  0.2662
 7014TIP3   OH221005   3.856   5.705   4.516  0.3215 -0.2488 -0.7900
 7014TIP3    H121006   3.893   5.718   4.429 -0.5567  1.7266 -0.9382
 7014TIP3    H221007   3.889   5.779   4.568 -1.7533  0.4973 -0.4066
 7015TIP3   OH221008   0.899   3.445   1.044 -0.2714 -0.1144  0.4550
 7015TIP3    H121009   0.862   3.452   1.132  0.5149  2.4718  0.6811
 7015TIP3    H221010   0.990   3.418   1.058 -0.2882 -0.2043  0.3931
 7016TIP3   OH221011   4.214   4.514   2.298 -0.8407  0.1273  0.3187
 7016TIP3    H121012   4.157   4.523   2.221 -1.0955  1.0466  0.6106
 7016TIP3    H221013   4.302   4.529   2.264 -0.8476 -0.4873  0.0182
 7017TIP3   OH221014   4.857   0.096   0.464 -0.1864 -0.9285  0.0417
 7017TIP3    H121015   4.874   0.064   0.375  1.3490  0.5203 -0.2518
 7017TIP3    H221016   4.807   0.177   0.451  0.8126 -0.2274  0.4054
 7018TIP3   OH221017   4.931   0.770  -0.019 -0.2535  0.2274 -0.6666
 7018TIP3    H121018   4.838   0.748  -0.013 -0.6068  1.7518  0.0553
 7018TIP3    H221019   4.960   0.772   0.072  0.4701 -0.1355 -0.8855
 7019TIP3   OH221020   1.273   4.411   4.500  0.4822  0.0857 -0.4495
 7019TIP3    H121021   1.227   4.447   4.575  1.0524  1.4632 -0.7350
 7019TIP3    H221022   1.366   4.426   4.518  0.5867  1.3742 -1.8677
 7020TIP3   OH221023   6.645   1.968   5.309  0.2568 -0.5416 -0.5380
 7020TIP3    H121024   6.551   1.973   5.291 -0.4291 -1.2105  2.3567
 7020TIP3    H221025   6.679   2.054   5.286 -1.5228  0.4806  0.4666
 7021TIP3   OH221026   5.876   4.324   2.292 -0.2448  0.4366 -0.3746
 7021TIP3    H121027   5.932   4.265   2.241 -1.3817  0.8047 -2.1547
 7021TIP3    H221028   5.805   4.267   2.324  0.2086  0.3002  0.4047
 7022TIP3   OH221029   2.074   3.160   3.508  0.2636 -0.3466  0.0755
 7022TIP3    H121030   2.137   3.175   3.437  0.9210  0.5799  0.8275
 7022TIP3    H221031   2.066   3.245   3.551 -0.8642 -0.6628  0.5248
 7023TIP3   OH221032   3.017   6.164   4.583  0.2132  0.0957 -0.5607
 7023TIP3    H121033   2.922   6.173   4.572  0.2360 -0.6772 -1.4750
 7023TIP3    H221034   3.055   6.222   4.518  0.3722  0.2168 -0.3622
 7024TIP3   OH221035   4.726   3.066   2.314  0.1585 -0.4587  0.1158
 7024TIP3    H121036   4.696   3.155   2.329 -0.7822 -0.9476  1.3812
 7024TIP3    H221037   4.646   3.013   2.313  0.7218 -1.3333 -0.2414
 7025TIP3   OH221038   0.212   6.651   5.455  0.5757  0.1423  0.3454
 7025TIP3    H121039   0.271   6.608   5.394 -2.4092 -1.5298 -1.6435
 7025TIP3    H221040   0.147   6.694   5.400 -0.2939  1.5928  2.3766
 7026TIP3   OH221041   3.175   2.980   2.287  0.0501 -0.5070  0.3777
 7026TIP3    H121042   3.101   3.041   2.294 -1.0073 -1.5970 -0.8596
 7026TIP3    H221043   3.197   2.961   2.378 -1.0435  0.0253  0.7850
 7027TIP3   OH221044   5.025   1.370   1.385  0.3329  0.3495 -0.3329
 7027TIP3    H121045   5.011   1.333   1.298 -3.2982 -0.4842  0.3968
 7027TIP3    H221046   4.976   1.452   1.385 -0.6694 -0.1836  1.1425
 7028TIP3   OH221047   4.041   0.730   0.313  0.3254 -0.6322 -0.0186
 7028TIP3    H121048   4.040   0.687   0.399  2.4709 -1.8507 -0.5289
 7028TIP3    H221049   4.011   0.662   0.252 -0.7013  0.0691 -0.3252
 7029TIP3   OH221050   4.359   3.513   1.288  0.1099  0.1329 -0.0234
 7029TIP3    H121051   4.305   3.434   1.282  1.4806 -0.8411 -0.0607
 7029TIP3    H221052   4.427   3.490   1.352  0.1620  1.5149  0.4368
 7030TIP3   OH221053   1.785   2.770   0.736 -0.3865 -0.0966 -0.0799
 7030TIP3    H121054   1.851   2.838   0.722  0.9694 -1.1056  1.1316
 7030TIP3    H221055   1.783   2.720   0.654  0.7656 -0.3904  0.0662
 7031TIP3   OH221056   7.037   6.669   0.634  0.4540  0.6155 -0.4121
 7031TIP3    H121057   6.941   6.672   0.627  0.2714 -0.4504  1.0990
 7031TIP3    H221058   7.061   6.585   0.596  0.4239 -0.5495  1.9304
 7032TIP3   OH221059   2.032   4.583   1.506  0.6244 -0.1146 -0.0208
 7032TIP3    H121060   2.060   4.662   1.459 -0.5124 -0.0536 -0.6234
 7032TIP3    H221061   1.967   4.614   1.568 -0.8120 -0.7132 -1.1543
 7033TIP3   OH221062   6.160   0.103   2.524  0.4231  0.4348  0.4177
 7033TIP3    H121063   6.248   0.065   2.523  1.8224  3.2476  2.6565
 7033TIP3    H221064   6.155   0.154   2.443  1.7380  1.8807  1.1894
 7034TIP3   OH221065   2.053   3.359   5.541 -0.2124 -0.1508 -0.3018
 7034TIP3    H121066   2.054   3.283   5.599  1.2375  0.4769  0.5374
 7034TIP3    H221067   2.141   3.363   5.504 -0.0037  1.5765  0.2893
 7035TIP3   OH221068   3.227   6.330   0.135 -0.2061  0.0391 -0.6252
 7035TIP3    H121069   3.292   6.264   0.110 -0.1745  0.0378 -0.5426
 7035TIP3    H221070   3.277   6.411   0.147  0.1261 -0.4037  1.4317
 7036TIP3   OH221071   5.243   3.075   3.626 -0.2517  0.0474 -0.4508
 7036TIP3    H121072   5.200   3.161   3.617  0.2326  0.4063  0.5875
 7036TIP3    H221073   5.193   3.030   3.694  0.9770  0.4597  0.7555
 7037TIP3   OH221074   1.899   2.694   5.302 -0.7860 -0.2064  0.0398
 7037TIP3    H121075   1.901   2.633   5.229 -2.2399  0.7623 -0.8603
 7037TIP3    H221076   1.823   2.750   5.285  0.0417  1.3624  1.2245
 7038TIP3   OH221077   4.265   3.478   2.921  0.0885 -0.2856  0.0860
 7038TIP3    H121078   4.258   3.539   2.994  1.1598  1.0554 -0.8667
 7038TIP3    H221079   4.347   3.503   2.877  0.2039 -1.9745 -0.7468
 7039TIP3   OH221080   5.074   1.831   1.764  0.0347  0.2063 -0.1190
 7039TIP3    H121081   5.061   1.787   1.680  0.7225  0.8098 -0.5646
 7039TIP3    H221082   5.028   1.915   1.755  1.8276  1.1860 -0.7133
 7040TIP3   OH221083   6.332   3.660   2.014  0.2329 -0.2800 -0.0455
 7040TIP3    H121084   6.412   3.607   2.016  0.1640 -0.3598  0.7218
 7040TIP3    H221085   6.267   3.608   2.060 -0.2752 -0.2261 -0.6977
 7041TIP3   OH221086   1.364   5.275   5.453  0.0649  0.0861  0.3894
 7041TIP3    H121087   1.386   5.303   5.364  1.1442 -2.5581 -0.2642
 7041TIP3    H221088   1.271   5.254   5.450 -0.0745  0.7251  0.1077
 7042TIP3   OH221089   2.404   4.560   1.206  0.5240 -0.2266 -0.0466
 7042TIP3    H121090   2.476   4.566   1.269 -0.0704  0.5905  0.5753
 7042TIP3    H221091   2.417   4.634   1.147 -0.3011  0.4720  0.6192
 7043TIP3   OH221092   2.682   3.546   3.614  0.2554 -0.3680 -0.6266
 7043TIP3    H121093   2.629   3.470   3.589 -2.0684  0.7426  0.6720
 7043TIP3    H221094   2.739   3.513   3.683  0.5137 -1.3024 -1.2557
 7044TIP3   OH221095   1.732   2.665   1.167 -0.5931 -0.3946 -0.0417
 7044TIP3    H121096   1.739   2.730   1.097 -0.7279 -1.2886 -0.9142
 7044TIP3    H221097   1.695   2.587   1.124  1.4506 -1.7404  0.4808
 7045TIP3   OH221098   2.547   5.970   3.967 -0.0190 -0.0990 -0.4066
 7045TIP3    H121099   2.512   5.979   4.056  0.1884  0.3822 -0.3706
 7045TIP3    H221100   2.474   5.997   3.910  0.0750  0.2724 -0.3546
 7046TIP3   OH221101   2.716   6.641   5.103  0.0508 -0.6753 -0.3464
 7046TIP3    H121102   2.782   6.665   5.168 -0.0713  0.2034 -0.5254
 7046TIP3    H221103   2.761   6.579   5.045  1.0100  0.5201 -0.9450
 7047TIP3   OH221104   0.348   4.269   3.000 -0.5481 -0.5603 -0.4164
 7047TIP3    H121105   0.363   4.348   2.948 -0.6150 -0.6127 -0.5159
 7047TIP3    H221106   0.378   4.292   3.088 -0.4680 -0.4592 -0.4700
 7048TIP3   OH221107   1.727   6.038   4.054  0.3805 -0.6716  0.2237
 7048TIP3    H121108   1.804   6.081   4.018  0.6752 -2.0287 -0.8650
 7048TIP3    H221109   1.717   5.959   4.001 -0.8326 -1.3270  1.3732
 7049TIP3   OH221110   0.849   3.327   1.665 -0.1812 -0.3771  0.0253
 7049TIP3    H121111   0.933   3.348   1.623 -0.1019  0.6281  0.6402
 7049TIP3    H221112   0.848   3.381   1.744 -1.3274 -0.5280  0.1288
 7050TIP3   OH221113   1.552   2.116   5.905  0.0994 -0.1746 -0.2904
 7050TIP3    H121114   1.575   2.209   5.910  0.0591 -0.2046  0.8280
 7050TIP3    H221115   1.539   2.099   5.812  0.3141  0.8903 -0.5285
 7051TIP3   OH221116   4.899   4.013   2.784  0.3660 -0.1187  0.4502
 7051TIP3    H121117   4.837   4.053   2.845 -0.7840 -1.1505  0.0118
 7051TIP3    H221118   4.984   4.021   2.826 -0.1071  1.0377  1.2277
 7052TIP3   OH221119   0.904   3.688   3.961 -0.3025 -0.4073 -0.1859
 7052TIP3    H121120   0.854   3.740   4.023  1.3513 -1.0771  1.8463
 7052TIP3    H221121   0.873   3.599   3.974  0.0915 -0.5594 -0.2651
 7053TIP3   OH221122   5.050   1.204   3.796 -0.1180  0.0790  0.5537
 7053TIP3    H121123   5.142   1.186   3.818  0.9540  2.3868 -1.5129
 7053TIP3    H221124   5.052   1.225   3.702 -2.8545 -0.1651  0.3761
 7054TIP3   OH221125   0.454   0.838   0.108 -0.8101  0.5508  0.2866
 7054TIP3    H121126   0.542   0.811   0.082 -0.8324  0.8060 -0.0589
 7054TIP3    H221127   0.396   0.777   0.063 -0.7961 -0.0214  1.0132
 7055TIP3   OH221128   5.052   5.984   1.615 -0.1425 -0.1170  0.0198
 7055TIP3    H121129   4.967   6.025   1.600 -0.0680 -0.1484 -0.5338
 7055TIP3    H221130   5.104   6.009   1.538  1.0621  1.6823  1.3521
 7056TIP3   OH221131   3.393   6.146   2.023  0.3508 -0.0401  0.0614
 7056TIP3    H121132   3.332   6.114   2.089  2.2023 -1.2885  1.2518
 7056TIP3    H221133   3.448   6.071   2.002  2.7351  1.4732  0.4960
 7057TIP3   OH221134   5.350   1.372   2.474 -0.0869  0.6672 -0.3239
 7057TIP3    H121135   5.422   1.363   2.412  0.3512 -1.5180  0.4144
 7057TIP3    H221136   5.305   1.453   2.447 -0.0541 -0.2533 -3.6176
 7058TIP3   OH221137   2.312   1.702   0.773  0.3261 -0.0954  0.0159
 7058TIP3    H121138   2.372   1.640   0.732 -1.3723 -0.7098 -1.6999
 7058TIP3    H221139   2.350   1.788   0.757  1.0963 -0.5073 -0.4231
 7059TIP3   OH221140   5.822   1.216   5.329 -0.3118  0.2699 -0.0829
 7059TIP3    H121141   5.869   1.215   5.246  1.2716 -0.0267  0.7792
 7059TIP3    H221142   5.761   1.143   5.322  2.0429 -1.8745  0.1937
 7060TIP3   OH221143   4.889   1.509   1.067 -0.0812  0.4508 -0.3704
 7060TIP3    H121144   4.983   1.520   1.054 -0.4378 -0.0177 -5.4001
 7060TIP3    H221145   4.863   1.583   1.122  2.9989  1.2013  0.2497
 7061TIP3   OH221146   5.888   3.332   2.120 -0.0783 -0.4910  0.6146
 7061TIP3    H121147   5.971   3.286   2.108  0.4719  0.3236  1.1622
 7061TIP3    H221148   5.826   3.286   2.063  0.4911 -1.7734  0.9928
 7062TIP3   OH221149   4.752   2.584   0.509  0.2118 -0.2920  0.4130
 7062TIP3    H121150   4.752   2.649   0.439 -0.7250 -1.1192 -0.3859
 7062TIP3    H221151   4.742   2.635   0.589 -0.4614  0.5623 -0.1934
 7063TIP3   OH221152   0.966   3.823   1.746 -0.0844  0.2019 -0.0479
 7063TIP3    H121153   0.898   3.760   1.768  0.1398 -1.8503 -4.1694
 7063TIP3    H221154   0.920   3.907   1.738 -1.4244 -0.4485  0.5770
 7064TIP3   OH221155   1.899   5.175   0.065  0.3636  0.2478 -0.3428
 7064TIP3    H121156   1.965   5.185  -0.004  0.5554 -0.1915 -0.2276
 7064TIP3    H221157   1.944   5.203   0.144  0.4676 -0.1958 -0.2393
 7065TIP3   OH221158   1.691   5.726   5.634 -0.2391 -0.5972  0.1703
 7065TIP3    H121159   1.694   5.790   5.563 -0.3166 -0.9190 -0.1227
 7065TIP3    H221160   1.703   5.641   5.591 -1.3195 -0.8845  0.4090
 7066TIP3   OH221161   2.659   4.344   5.264 -0.1721  0.5169  0.6254
 7066TIP3    H121162   2.674   4.288   5.340 -0.2787 -0.2256  0.1108
 7066TIP3    H221163   2.652   4.283   5.191 -2.6323  0.9833  0.3756
 7067TIP3   OH221164   0.398   6.599   2.618  0.0150 -1.1507 -0.3249
 7067TIP3    H121165   0.471   6.632   2.566  0.0257 -1.2205 -0.3546
 7067TIP3    H221166   0.406   6.504   2.614 -0.1435 -1.1608 -0.4216
 7068TIP3   OH221167   0.781   3.768   1.462 -0.0720 -0.0680 -0.0314
 7068TIP3    H121168   0.785   3.686   1.512  1.4868 -0.0382 -0.0470
 7068TIP3    H221169   0.801   3.836   1.526 -1.2846  0.3182 -0.0382
 7069TIP3   OH221170   2.358   1.232   4.530  0.2639  0.0151  0.4635
 7069TIP3    H121171   2.324   1.321   4.518  0.6840 -0.0357 -1.3393
 7069TIP3    H221172   2.397   1.234   4.617 -1.3606  1.0382  1.2287
 7070TIP3   OH221173   1.884   3.873   4.000 -0.0339 -0.0576 -0.4475
 7070TIP3    H121174   1.805   3.833   3.963 -0.2178 -3.0522  2.7284
 7070TIP3    H221175   1.878   3.857   4.094  2.3944  3.3895  0.5152
 7071TIP3   OH221176   4.864   5.835   5.283  0.2307 -0.7524 -0.2649
 7071TIP3    H121177   4.780   5.847   5.239  0.3616 -0.7527 -0.5208
 7071TIP3    H221178   4.929   5.858   5.217  0.4108  1.4585  0.6144
 7072TIP3   OH221179   4.311   3.379   3.261 -0.6364 -0.0450 -0.0771
 7072TIP3    H121180   4.379   3.329   3.215  0.7996  1.6752  0.0720
 7072TIP3    H221181   4.289   3.325   3.337  1.8394  0.0777  0.8163
 7073TIP3   OH221182   2.160   4.108   2.800  0.3481 -0.2640 -0.3176
 7073TIP3    H121183   2.106   4.180   2.767 -0.4767  0.1656  1.8264
 7073TIP3    H221184   2.135   4.033   2.746  0.0927  0.6941 -1.5766
 7074TIP3   OH221185   5.779   2.954   0.247  0.3764 -0.5280 -0.6473
 7074TIP3    H121186   5.702   3.001   0.216  0.8064 -0.5049 -1.7155
 7074TIP3    H221187   5.799   2.891   0.178  0.5277 -1.4737  0.2206
 7075TIP3   OH221188   6.693   3.640   3.942  0.1909  0.0265 -0.3194
 7075TIP3    H121189   6.710   3.560   3.992  0.8989  0.9832  1.0397
 7075TIP3    H221190   6.600   3.657   3.955 -0.1540 -0.9826 -1.2815
 7076TIP3   OH221191   1.825   0.911   1.308 -0.1608  0.5013  0.9265
 7076TIP3    H121192   1.780   0.982   1.353  2.2832  1.8780  1.4094
 7076TIP3    H221193   1.904   0.952   1.273 -0.5304 -1.1617 -2.1929
 7077TIP3   OH221194   7.165   1.747   2.322 -0.0475 -0.0533 -0.1816
 7077TIP3    H121195   7.118   1.830   2.313 -1.0065 -0.4985  0.5001
 7077TIP3    H221196   7.236   1.752   2.258 -2.0403 -0.0319 -2.5333
 7078TIP3   OH221197   6.583   3.154   5.796 -0.1164  0.0458 -0.1596
 7078TIP3    H121198   6.522   3.203   5.851  0.0627 -1.9322  1.9471
 7078TIP3    H221199   6.664   3.149   5.847  0.5715 -0.5757 -1.2612
 7079TIP3   OH221200   1.909   4.721   3.759  0.2310 -0.4341 -0.2726
 7079TIP3    H121201   1.878   4.755   3.844 -0.5638 -1.1752 -0.2503
 7079TIP3    H221202   2.004   4.718   3.768  0.0799 -2.9778  1.6053
 7080TIP3   OH221203   2.850   2.139   4.050 -0.3980 -0.1416 -0.8399
 7080TIP3    H121204   2.765   2.180   4.063 -1.2681 -1.9770 -0.4611
 7080TIP3    H221205   2.836   2.075   3.981  1.0659  0.5480 -1.8230
 7081TIP3   OH221206   6.228   1.094   2.687 -0.4595 -0.2570  0.3405
 7081TIP3    H121207   6.316   1.062   2.707 -0.5988 -0.2627  0.9463
 7081TIP3    H221208   6.169   1.034   2.732 -0.7907 -0.4913 -0.3953
 7082TIP3   OH221209   0.943   1.373   2.815  0.0130  0.1878  0.1779
 7082TIP3    H121210   0.932   1.286   2.854  1.4282  0.7396  1.9698
 7082TIP3    H221211   0.921   1.433   2.887 -0.3979  1.3239 -0.8697
 7083TIP3   OH221212   6.122   2.511   4.686  0.3493 -0.0829 -0.6310
 7083TIP3    H121213   6.139   2.473   4.772  0.5382 -0.8824 -1.0192
 7083TIP3    H221214   6.197   2.485   4.632  0.1630  0.2901 -1.0793
 7084TIP3   OH221215   2.512   2.125   4.270  0.3396 -0.3781  0.2576
 7084TIP3    H121216   2.458   2.198   4.301  0.5545 -0.5521  1.0767
 7084TIP3    H221217   2.564   2.162   4.199 -0.3952 -0.0470 -0.1290
 7085TIP3   OH221218   7.001   3.647   3.029  0.4766 -0.3550  0.1610
 7085TIP3    H121219   7.008   3.661   2.934  0.8835  2.6654  0.5087
 7085TIP3    H221220   7.087   3.613   3.054  0.1689 -1.7541 -0.5922
 7086TIP3   OH221221   1.738   4.140   5.827  0.0036 -0.4315 -0.5102
 7086TIP3    H121222   1.654   4.165   5.789  0.6877  0.8999 -1.2356
 7086TIP3    H221223   1.723   4.141   5.922 -0.9129 -0.6849 -0.6404
 7087TIP3   OH221224   4.310   3.415   4.055 -0.3252 -0.1927  0.6342
 7087TIP3    H121225   4.266   3.415   3.970  0.4657 -1.9247  0.1812
 7087TIP3    H221226   4.292   3.502   4.092  0.2024  0.9974 -1.7389
 7088TIP3   OH221227   4.577   5.232   3.474  0.3694 -0.0177  0.1483
 7088TIP3    H121228   4.492   5.275   3.481  1.1106  1.1958  2.7532
 7088TIP3    H221229   4.619   5.274   3.399 -1.5647 -1.2811 -1.7957
 7089TIP3   OH221230   0.573   2.867   0.123  0.4393  0.4286  0.0767
 7089TIP3    H121231   0.519   2.926   0.070  1.1794  1.3519  0.3134
 7089TIP3    H221232   0.521   2.850   0.201 -0.6801 -0.9824 -0.9444
 7090TIP3   OH221233   0.730   1.818   1.376 -0.1388  0.2332 -0.3954
 7090TIP3    H121234   0.673   1.741   1.370  0.5841 -0.5050  1.3881
 7090TIP3    H221235   0.806   1.796   1.321 -0.4050  0.1353 -0.7285
 7091TIP3   OH221236   2.203   1.617   1.798  0.2902  0.2722  0.4414
 7091TIP3    H121237   2.216   1.703   1.758 -1.0428  1.0739  1.6257
 7091TIP3    H221238   2.219   1.632   1.891  2.4950 -1.3547  0.3921
 7092TIP3   OH221239   5.769   2.433   2.155  0.3715  0.0825  0.1066
 7092TIP3    H121240   5.699   2.428   2.220 -1.5510  0.4856 -1.8138
 7092TIP3    H221241   5.824   2.506   2.185 -0.9198  0.7918  0.8569
 7093TIP3   OH221242   6.410   5.550   4.081  0.3475  0.6324 -0.5347
 7093TIP3    H121243   6.444   5.611   4.016 -0.6116  0.4668 -1.2003
 7093TIP3    H221244   6.352   5.603   4.136  2.0602  1.0596  0.9929
 7094TIP3   OH221245   4.171   4.134   5.451  0.3321  0.2028 -0.5138
 7094TIP3    H121246   4.197   4.093   5.533  0.7691  1.1565 -0.1573
 7094TIP3    H221247   4.078   4.114   5.443  0.4254 -0.4253 -0.1079
 7095TIP3   OH221248   5.242   1.278   3.220  0.4368 -0.5208 -0.2918
 7095TIP3    H121249   5.321   1.310   3.176  0.0281 -0.6137 -1.1003
 7095TIP3    H221250   5.276   1.224   3.292  1.1189  0.8416  0.4551
 7096TIP3   OH221251   5.973   3.597   0.684 -0.4822  0.3434 -0.8553
 7096TIP3    H121252   6.020   3.529   0.635  2.0225  0.5311  1.0959
 7096TIP3    H221253   6.009   3.680   0.650 -0.0744  0.5202 -0.0204
 7097TIP3   OH221254   3.339   4.523   3.917  0.2944  0.5891  0.4149
 7097TIP3    H121255   3.287   4.458   3.964 -0.9534  0.3185 -1.2495
 7097TIP3    H221256   3.296   4.607   3.934 -0.0162  0.5242 -0.0458
 7098TIP3   OH221257   0.275   4.321   0.380 -0.2126  0.1626 -0.9072
 7098TIP3    H121258   0.256   4.247   0.437  2.6270  0.7582  1.0751
 7098TIP3    H221259   0.200   4.380   0.391 -0.5140 -0.5018  0.9798
 7099TIP3   OH221260   6.112   2.184   5.810  0.2739 -0.2018  0.1556
 7099TIP3    H121261   6.155   2.253   5.860  1.1176 -1.1596  0.7963
 7099TIP3    H221262   6.164   2.105   5.828 -1.3721 -1.2736  0.4120
 7100TIP3   OH221263   1.698   3.729   3.865  0.1068  0.9603  0.4587
 7100TIP3    H121264   1.609   3.713   3.834  0.8925  0.3223 -1.6702
 7100TIP3    H221265   1.733   3.643   3.886  0.3833  1.1583  0.8387
 7101TIP3   OH221266   2.222   3.597   2.577  0.0924  0.2980  0.5951
 7101TIP3    H121267   2.213   3.567   2.668  2.2966  0.5744  0.9721
 7101TIP3    H221268   2.241   3.691   2.585 -2.3572  0.9552 -0.3515
 7102TIP3   OH221269   6.229   3.192   4.739  0.1091  0.8111  0.2202
 7102TIP3    H121270   6.183   3.131   4.681  0.2004  1.0599 -0.1190
 7102TIP3    H221271   6.168   3.208   4.811 -0.3064  1.0659 -0.1804
 7103TIP3   OH221272   7.143   6.034   2.510  0.0031  0.1750  0.4635
 7103TIP3    H121273   7.051   6.061   2.513  0.6338  2.5234  0.4967
 7103TIP3    H221274   7.149   5.978   2.432 -1.1402  1.3626 -0.5180
 7104TIP3   OH221275   2.103   3.560   4.173  0.2633  0.3560 -0.0961
 7104TIP3    H121276   2.019   3.566   4.127 -0.0941  0.4888  0.5671
 7104TIP3    H221277   2.125   3.467   4.171 -0.9353 -0.0052  1.5396
 7105TIP3   OH221278   1.696   5.205   1.135  0.3148  0.0081  0.1107
 7105TIP3    H121279   1.783   5.217   1.098  0.3825  0.5072  0.4261
 7105TIP3    H221280   1.711   5.194   1.229  0.3058 -3.0410 -0.1397
 7106TIP3   OH221281   5.913   3.939   4.554 -0.4929 -0.4361 -0.3392
 7106TIP3    H121282   5.920   3.998   4.629  1.2092 -1.5049  0.4187
 7106TIP3    H221283   5.919   3.996   4.478 -1.3086  0.5808  0.3328
 7107TIP3   OH221284   5.173   2.307   1.185 -0.2486 -0.3206  0.3870
 7107TIP3    H121285   5.183   2.239   1.252  2.1150 -0.1575  0.2505
 7107TIP3    H221286   5.081   2.335   1.194 -0.3549 -1.1866  2.6884
 7108TIP3   OH221287   6.937   1.925   1.396  0.0756  0.4686 -0.9682
 7108TIP3    H121288   6.892   2.008   1.382  0.0702  0.5055 -0.7415
 7108TIP3    H221289   6.991   1.940   1.473  1.2315  0.7205 -1.8146
 7109TIP3   OH221290   5.445   1.309   0.443 -0.0146  0.0597 -0.2668
 7109TIP3    H121291   5.476   1.230   0.398 -1.1185  0.0918 -1.1049
 7109TIP3    H221292   5.517   1.371   0.433  0.3372 -0.4099 -0.7333
 7110TIP3   OH221293   5.968   1.946   4.141 -0.4558  0.2201  0.2602
 7110TIP3    H121294   6.020   1.968   4.218  0.5871 -0.9762 -0.0645
 7110TIP3    H221295   5.892   1.900   4.176  0.3053 -0.8466  0.5843
 7111TIP3   OH221296   3.676   3.928   3.314  0.2389  0.1033 -0.0258
 7111TIP3    H121297   3.758   3.947   3.358  0.0550  0.3550  0.2082
 7111TIP3    H221298   3.649   4.012   3.275  0.1170  0.0113 -0.1418
 7112TIP3   OH221299   1.809   1.453   3.528 -0.0575 -0.0748 -0.0291
 7112TIP3    H121300   1.873   1.524   3.533 -1.2006  1.1545 -1.8617
 7112TIP3    H221301   1.759   1.460   3.609  0.0105  1.0757 -0.0693
 7113TIP3   OH221302   1.419   4.854   5.084  0.1675  0.0458  0.2391
 7113TIP3    H121303   1.480   4.807   5.140  0.3842  0.4055  0.3084
 7113TIP3    H221304   1.409   4.940   5.126  0.5248  0.4085 -0.3981
 7114TIP3   OH221305   3.896   3.965   5.146  0.2346 -0.4945 -0.0722
 7114TIP3    H121306   3.801   3.976   5.146  0.0934 -1.4729  1.2112
 7114TIP3    H221307   3.928   4.033   5.205 -0.0130 -2.2131  2.1801
 7115TIP3   OH221308   1.870   6.811   3.671 -0.5683  0.1010 -0.3083
 7115TIP3    H121309   1.919   6.743   3.717 -2.1261 -0.6869  0.2713
 7115TIP3    H221310   1.914   6.821   3.587  1.4650  0.5226  0.7602
 7116TIP3   OH221311   2.702   0.797   4.669 -0.3554  0.2868 -0.8205
 7116TIP3    H121312   2.659   0.715   4.694 -0.4692 -0.2744 -2.6759
 7116TIP3    H221313   2.630   0.860   4.663 -0.0648  1.1306  2.4877
 7117TIP3   OH221314   3.194   4.296   2.234 -0.6761 -0.0572  0.3543
 7117TIP3    H121315   3.165   4.387   2.236  0.0107  0.1524  1.6777
 7117TIP3    H221316   3.113   4.245   2.244 -1.1364  0.3560 -0.9761
 7118TIP3   OH221317   4.197   5.357   0.828 -0.4980 -0.1410  0.0915
 7118TIP3    H121318   4.200   5.301   0.905  0.6639  0.4012  0.4625
 7118TIP3    H221319   4.287   5.362   0.798 -0.8063  0.3673 -0.7823
 7119TIP3   OH221320   3.718   2.899   0.146 -0.2385  0.6592 -0.3996
 7119TIP3    H121321   3.627   2.894   0.116 -0.4516  0.7353  0.2156
 7119TIP3    H221322   3.730   2.821   0.200 -0.6499  1.7743  1.3929
 7120TIP3   OH221323   0.324   5.298   1.304 -0.8787 -0.3283 -0.0285
 7120TIP3    H121324   0.290   5.229   1.247  0.7424  0.6420 -2.2903
 7120TIP3    H221325   0.291   5.379   1.266  1.9613  0.4841 -0.9681
 7121TIP3   OH221326   7.102   4.381   4.899  0.6464  0.5498 -0.3253
 7121TIP3    H121327   7.148   4.332   4.831  1.3157 -0.3218  0.7302
 7121TIP3    H221328   7.035   4.320   4.931  2.0793 -0.0863  1.6316
 7122TIP3   OH221329   2.880   0.489   1.341  0.5206  0.2344 -0.2028
 7122TIP3    H121330   2.937   0.548   1.292  0.4043  1.0098  0.5761
 7122TIP3    H221331   2.940   0.423   1.376  0.6588 -0.0926 -1.0223
 7123TIP3   OH221332   0.030   2.251   4.345  0.1863 -0.2458 -0.2733
 7123TIP3    H121333  -0.000   2.161   4.352 -0.1045 -0.1260  0.0498
 7123TIP3    H221334   0.118   2.244   4.308  1.2313 -0.8498  2.1027
 7124TIP3   OH221335   4.434   1.101   0.719  0.7912  0.2778  0.1140
 7124TIP3    H121336   4.419   1.182   0.670 -1.7425  0.7590  1.4972
 7124TIP3    H221337   4.468   1.131   0.804 -1.1845  0.0815  1.0371
 7125TIP3   OH221338   3.128   6.693   1.664  0.0429 -0.1268 -0.1060
 7125TIP3    H121339   3.072   6.618   1.642 -1.0780  1.0603 -1.5265
 7125TIP3    H221340   3.217   6.657   1.666 -0.4861 -1.5239 -0.5350
 7126TIP3   OH221341   5.913   0.296   1.177 -0.1380  0.2699  0.3209
 7126TIP3    H121342   5.917   0.215   1.228  0.4219 -0.1568 -0.3793
 7126TIP3    H221343   5.963   0.359   1.229  0.1009 -0.0518  0.4870
 7127TIP3   OH221344   2.145   4.269   5.113  0.0995  0.2932 -0.0269
 7127TIP3    H121345   2.182   4.317   5.187  0.5968 -0.2439  0.0799
 7127TIP3    H221346   2.088   4.203   5.153 -0.1868  0.4666 -0.1503
 7128TIP3   OH221347   5.239   3.204   4.733  0.4829 -0.8884 -0.6144
 7128TIP3    H121348   5.289   3.266   4.681 -1.4419 -0.3243 -1.8727
 7128TIP3    H221349   5.267   3.220   4.823 -0.6664  2.5564 -0.7470
 7129TIP3   OH221350   5.613   2.864   1.568  0.3522 -0.0381  0.4988
 7129TIP3    H121351   5.567   2.832   1.646 -0.4235  0.7533  0.3792
 7129TIP3    H221352   5.560   2.832   1.494  0.6644 -0.1435  0.3169
 7130TIP3   OH221353   6.044   4.529   3.819  0.4938 -0.0431  0.1414
 7130TIP3    H121354   6.023   4.520   3.727 -1.5284  0.6939  0.4928
 7130TIP3    H221355   6.079   4.444   3.844 -0.1089 -0.6516 -1.0120
 7131TIP3   OH221356   2.476   0.891   4.340  0.7878 -0.1570 -0.3038
 7131TIP3    H121357   2.437   0.972   4.310  2.2045  0.9875  0.8138
 7131TIP3    H221358   2.420   0.861   4.412  0.8736  0.4405  0.0150
 7132TIP3   OH221359   2.793   2.617   4.540 -0.6346 -0.2168 -0.1607
 7132TIP3    H121360   2.850   2.604   4.616 -0.5101 -1.0666 -0.3940
 7132TIP3    H221361   2.711   2.649   4.578 -0.9966 -1.7937  0.4676
 7133TIP3   OH221362   2.384   2.131   1.042  0.1003 -0.7992 -0.4258
 7133TIP3    H121363   2.334   2.193   1.095 -1.0248 -0.1814 -2.1112
 7133TIP3    H221364   2.475   2.148   1.064 -0.3245 -0.7975  1.5084
 7134TIP3   OH221365   0.501   6.386   3.328  0.3570 -0.5932  0.0352
 7134TIP3    H121366   0.517   6.343   3.412 -0.1545  1.4174  1.2368
 7134TIP3    H221367   0.406   6.399   3.326  0.4514  0.0517 -0.4940
 7135TIP3   OH221368   5.701   1.065   2.423 -0.1105  0.1884  0.5069
 7135TIP3    H121369   5.706   1.032   2.513  1.4886  1.1791  0.8087
 7135TIP3    H221370   5.720   0.989   2.369  1.2050  0.0784  1.1025
 7136TIP3   OH221371   3.102   3.260   0.216  0.6451  0.1414 -0.3422
 7136TIP3    H121372   3.111   3.173   0.254  1.0548 -0.3171 -1.4425
 7136TIP3    H221373   3.108   3.320   0.290 -2.4639 -0.8271  0.8401
 7137TIP3   OH221374   3.466   4.012   1.907  0.6106  0.1959  0.1021
 7137TIP3    H121375   3.407   4.087   1.915 -0.0141 -0.3358  0.5759
 7137TIP3    H221376   3.547   4.049   1.873  0.0051  0.9408 -0.5710
 7138TIP3   OH221377   0.525   3.632   1.108 -0.1841 -0.1284 -0.2299
 7138TIP3    H121378   0.617   3.628   1.080  0.1819  1.0050  0.7165
 7138TIP3    H221379   0.484   3.693   1.046 -0.6665 -1.6928 -1.5166
 7139TIP3   OH221380   1.225   0.342   2.278  0.2114  0.5261 -0.9914
 7139TIP3    H121381   1.260   0.257   2.251  0.6475  0.5447 -0.5168
 7139TIP3    H221382   1.293   0.405   2.253 -0.2384  0.7759 -1.6089
 7140TIP3   OH221383   4.062   1.031   3.005  0.3317 -0.8326 -0.6287
 7140TIP3    H121384   3.978   0.994   2.979 -1.5068  2.7634 -0.4047
 7140TIP3    H221385   4.058   1.037   3.100  1.4164 -1.7309 -0.4993
 7141TIP3   OH221386   5.525   1.633   1.875 -0.2163  0.5542  0.2682
 7141TIP3    H121387   5.448   1.622   1.930 -0.1910 -0.4207  0.1425
 7141TIP3    H221388   5.494   1.617   1.786  0.0719  0.4386  0.1873
 7142TIP3   OH221389   1.376   6.409   5.160 -0.0047 -0.4263  0.0386
 7142TIP3    H121390   1.374   6.317   5.132 -0.8301  0.1235 -1.9313
 7142TIP3    H221391   1.288   6.441   5.143  0.6923  1.1371 -0.8759
 7143TIP3   OH221392   2.980   4.087   5.025  0.0263  0.5179 -0.0757
 7143TIP3    H121393   3.057   4.131   5.062  0.1947 -0.0243  0.2318
 7143TIP3    H221394   2.975   4.004   5.073 -0.5851  0.4283 -0.2933
 7144TIP3   OH221395   2.920   6.452   0.740  0.7550  0.1969  0.2335
 7144TIP3    H121396   2.913   6.378   0.801 -3.7532 -0.3731 -0.5725
 7144TIP3    H221397   2.944   6.412   0.656  0.1005 -0.1107  0.1872
 7145TIP3   OH221398   0.250   1.069   2.320  0.3148 -0.3317  0.4665
 7145TIP3    H121399   0.242   1.025   2.236 -1.4445 -0.5418  0.7058
 7145TIP3    H221400   0.298   1.150   2.301  0.2742 -0.5602 -0.6514
 7146TIP3   OH221401   0.325   5.356  -0.017  0.0294 -0.2647 -0.0826
 7146TIP3    H121402   0.405   5.326   0.025  0.3439 -0.2625 -0.6684
 7146TIP3    H221403   0.302   5.437   0.029  1.2065  0.5569 -0.8803
 7147TIP3   OH221404   3.144   6.775   2.936  0.1424  0.0853  0.3069
 7147TIP3    H121405   3.121   6.856   2.981  1.1925  0.5330  0.0646
 7147TIP3    H221406   3.240   6.772   2.940  0.1827 -0.4860 -0.8092
 7148TIP3   OH221407   6.992   2.462   1.843  0.1543 -0.1845  0.2159
 7148TIP3    H121408   6.898   2.472   1.830  0.5695  1.8842 -1.9010
 7148TIP3    H221409   7.006   2.480   1.936 -1.5216 -0.5662  0.5687
 7149TIP3   OH221410   1.055   4.219   2.277 -0.2641 -0.2881 -0.1480
 7149TIP3    H121411   1.080   4.265   2.197 -1.4985  1.2932  0.3172
 7149TIP3    H221412   1.037   4.130   2.249 -1.0728  0.3356 -1.7240
 7150TIP3   OH221413   1.877   3.324   1.044 -0.3201 -0.6854 -0.1065
 7150TIP3    H121414   1.960   3.296   1.082 -1.1980 -0.8198  1.8402
 7150TIP3    H221415   1.811   3.300   1.109 -1.9689 -1.0115 -1.8028
 7151TIP3   OH221416   0.038   6.807   1.399  0.4272  0.5112  0.4371
 7151TIP3    H121417   0.100   6.827   1.469  0.1520 -0.6875  1.0555
 7151TIP3    H221418   0.087   6.752   1.338  0.8062  1.9385 -0.5811
 7152TIP3   OH221419   0.908   5.231   0.422  0.1466  1.0443 -0.3807
 7152TIP3    H121420   0.915   5.137   0.439  0.4501  0.9209 -1.1229
 7152TIP3    H221421   0.986   5.251   0.369  1.0030  2.0522  1.1991
 7153TIP3   OH221422   5.578   4.465   1.675  0.3381 -0.1602 -0.3337
 7153TIP3    H121423   5.554   4.376   1.647 -0.4427 -0.2597  0.5861
 7153TIP3    H221424   5.494   4.506   1.697  0.6337  1.0217 -1.3173
 7154TIP3   OH221425   4.000   4.978   5.642 -0.3455 -0.6018  0.1617
 7154TIP3    H121426   3.912   4.963   5.607 -0.5527 -1.8870  1.1558
 7154TIP3    H221427   3.989   4.977   5.737  0.9662 -2.5538  0.3618
 7155TIP3   OH221428   5.455   1.058   5.729  0.3510 -0.1498  0.9326
 7155TIP3    H121429   5.524   1.085   5.789  1.2970  0.5838 -0.4382
 7155TIP3    H221430   5.412   1.139   5.704 -0.4364 -0.5141  1.0747
 7156TIP3   OH221431   5.729   4.028   4.066 -0.0379  0.3762  0.3105
 7156TIP3    H121432   5.739   4.106   4.011 -0.8600 -0.2192 -0.7301
 7156TIP3    H221433   5.815   4.017   4.107  0.0570  1.8785  0.5675
 7157TIP3   OH221434   5.794   4.886   5.343 -0.6764 -0.7617 -0.3657
 7157TIP3    H121435   5.861   4.818   5.344 -0.5481 -0.6485  0.6251
 7157TIP3    H221436   5.841   4.965   5.370 -1.1931 -0.6890  0.3619
 7158TIP3   OH221437   5.987   4.994   1.907 -0.6213 -0.1279  0.3085
 7158TIP3    H121438   5.897   4.960   1.904 -0.4907 -0.4821  0.3197
 7158TIP3    H221439   5.977   5.087   1.924 -1.0669  0.2036 -1.5336
 7159TIP3   OH221440   3.360   5.284   0.092  0.7102 -0.1852  0.5308
 7159TIP3    H121441   3.396   5.215   0.038  1.9983  1.8655 -1.3912
 7159TIP3    H221442   3.434   5.316   0.144  0.6904  1.1408 -0.2050
 7160TIP3   OH221443   1.949   5.655   2.975 -0.2190  0.3301 -0.3463
 7160TIP3    H121444   1.933   5.576   3.027  1.1646 -0.0097 -0.3997
 7160TIP3    H221445   1.867   5.704   2.981 -0.7605 -0.6291  0.5233
 7161TIP3   OH221446   1.346   4.547   5.772  0.2329  0.3102 -0.6597
 7161TIP3    H121447   1.373   4.518   5.685 -2.5179  0.3368 -1.6310
 7161TIP3    H221448   1.255   4.517   5.780  0.3705  0.4129  2.1829
 7162TIP3   OH221449   5.645   1.586   2.708  0.0765  0.0097  0.1576
 7162TIP3    H121450   5.686   1.552   2.628 -0.1272 -1.4531  0.6505
 7162TIP3    H221451   5.651   1.681   2.699  1.5537 -0.1427 -0.8215
 7163TIP3   OH221452   5.684   0.964   4.604 -0.2305  0.4930 -0.4105
 7163TIP3    H121453   5.758   0.904   4.609 -0.6253 -0.4814 -3.9037
 7163TIP3    H221454   5.716   1.045   4.644  2.2455 -0.3269 -0.5541
 7164TIP3   OH221455   7.051   1.890   4.107  0.1278 -0.0541 -0.6117
 7164TIP3    H121456   7.117   1.824   4.128  1.9768  1.8379 -0.0897
 7164TIP3    H221457   7.085   1.934   4.029 -1.2935  0.0210 -1.2222
 7165TIP3   OH221458   6.601   2.204   4.198 -0.0054 -0.2769 -0.1566
 7165TIP3    H121459   6.563   2.178   4.114  0.0194  0.9666 -0.5615
 7165TIP3    H221460   6.581   2.297   4.206 -0.8589 -0.5682  1.6748
 7166TIP3   OH221461   6.595   3.059   2.207  0.1091 -0.6499 -0.2030
 7166TIP3    H121462   6.619   3.092   2.294  0.7506  1.8938 -1.2596
 7166TIP3    H221463   6.640   2.974   2.200  1.0493 -0.3312  1.4662
 7167TIP3   OH221464   2.579   0.910   2.375  0.5572 -0.1966 -0.6781
 7167TIP3    H121465   2.584   0.849   2.449 -0.1944 -1.5250 -1.6762
 7167TIP3    H221466   2.543   0.990   2.413 -1.9165 -1.5476  0.0429
 7168TIP3   OH221467   6.927   2.790   5.133  0.0418  0.5118  0.3848
 7168TIP3    H121468   6.922   2.705   5.177  0.8873 -1.2033 -2.5502
 7168TIP3    H221469   6.869   2.847   5.183 -2.4856 -2.4543  1.1127
 7169TIP3   OH221470   3.125   1.046   4.839  0.0644  0.3927  0.1825
 7169TIP3    H121471   3.198   1.096   4.874 -0.3018 -1.1840  3.5131
 7169TIP3    H221472   3.153   0.954   4.844 -0.9544 -0.0755 -1.5634
 7170TIP3   OH221473   0.360   2.980   1.718  1.0230 -0.0259  0.1808
 7170TIP3    H121474   0.370   2.885   1.720 -0.2288 -0.3377 -2.8497
 7170TIP3    H221475   0.417   3.009   1.648  1.4785  1.5227  1.1496
 7171TIP3   OH221476   4.038   2.706   3.069  0.2760 -0.2268  0.1163
 7171TIP3    H121477   4.045   2.641   2.999 -0.5492 -0.0814 -0.1195
 7171TIP3    H221478   3.944   2.721   3.077  0.4512  0.8742  0.2184
 7172TIP3   OH221479   0.198   4.031   2.230  0.1456  0.1835  0.2677
 7172TIP3    H121480   0.222   3.992   2.147 -0.4759 -0.8523  0.5550
 7172TIP3    H221481   0.168   3.958   2.284 -0.7768  1.0138  0.9285
 7173TIP3   OH221482   5.359   4.040   3.882  0.2168  0.4017  0.1614
 7173TIP3    H121483   5.321   3.953   3.869 -1.1592  1.2245 -1.8627
 7173TIP3    H221484   5.394   4.038   3.971  1.5253 -2.6884 -0.2722
 7174TIP3   OH221485   2.354   0.394   4.425  0.1166 -0.0425 -0.1127
 7174TIP3    H121486   2.306   0.476   4.411 -0.1222 -0.2446 -0.4978
 7174TIP3    H221487   2.300   0.345   4.487 -0.1980 -0.2812 -0.5663
 7175TIP3   OH221488   5.352   4.155   2.317 -0.4973  0.6904  0.1646
 7175TIP3    H121489   5.378   4.194   2.234  0.1318  0.4950  0.2648
 7175TIP3    H221490   5.381   4.064   2.310 -1.4436  0.3769  0.1563
 7176TIP3   OH221491   6.000   5.912   1.091  0.2150  0.1555 -0.5306
 7176TIP3    H121492   5.996   6.007   1.095  1.2817  0.2756 -1.7684
 7176TIP3    H221493   5.947   5.889   1.015 -0.0038 -0.2557 -0.2612
 7177TIP3   OH221494   4.416   1.377   0.601  0.2636  0.2686  0.1367
 7177TIP3    H121495   4.499   1.387   0.647  0.1396  2.0054  0.0740
 7177TIP3    H221496   4.349   1.396   0.667 -0.0033  0.4932 -0.1909
 7178TIP3   OH221497   6.164   1.959   0.860  0.1621 -0.4818  0.0453
 7178TIP3    H121498   6.247   1.999   0.834  0.3051 -1.5311 -1.1601
 7178TIP3    H221499   6.099   2.028   0.846  0.6416 -0.0867 -0.2632
 7179TIP3   OH221500   3.372   5.962   0.537 -0.1385 -0.1811  0.0801
 7179TIP3    H121501   3.392   5.872   0.513  0.7194  0.1967 -0.6953
 7179TIP3    H221502   3.306   5.990   0.474 -1.2767 -0.6080  1.0371
 7180TIP3   OH221503   0.359   1.352   4.199  0.5921  0.1027 -0.1006
 7180TIP3    H121504   0.329   1.286   4.261  1.5516  0.2298  0.5124
 7180TIP3    H221505   0.367   1.432   4.250  0.3457  0.4734 -0.6307
 7181TIP3   OH221506   1.181   2.828   3.773 -0.7689 -0.1737  0.0697
 7181TIP3    H121507   1.226   2.750   3.741  0.2593  0.3987  0.0624
 7181TIP3    H221508   1.155   2.806   3.862  3.9720  1.0672  2.0716
 7182TIP3   OH221509   5.800   3.639   5.298 -0.1287  0.3015  0.8872
 7182TIP3    H121510   5.791   3.580   5.373  1.5560 -1.3978 -0.1720
 7182TIP3    H221511   5.730   3.613   5.238  0.6700 -0.7447  0.3784
 7183TIP3   OH221512   2.934   0.465   0.466  0.0850  0.2342  0.2368
 7183TIP3    H121513   2.972   0.529   0.526  0.5701  0.8971 -0.7405
 7183TIP3    H221514   2.911   0.517   0.388  2.4479 -1.0719 -1.4470
 7184TIP3   OH221515   0.312   3.643   0.623 -0.1520 -0.1221 -0.4934
 7184TIP3    H121516   0.262   3.637   0.704  0.3018  0.9676 -0.1148
 7184TIP3    H221517   0.252   3.611   0.556 -1.4537  1.2999 -0.0783
 7185TIP3   OH221518   2.772   6.577   4.043  0.1287 -0.2159  0.1815
 7185TIP3    H121519   2.785   6.623   3.960  1.4046 -0.5420  0.1900
 7185TIP3    H221520   2.709   6.507   4.022 -0.7111  0.6162 -0.1506
 7186TIP3   OH221521   4.265   4.872   2.846 -0.3358 -0.3062  0.0019
 7186TIP3    H121522   4.171   4.871   2.827 -0.1261  0.2569 -1.1004
 7186TIP3    H221523   4.299   4.795   2.802  0.1832  1.1108 -2.2148
 7187TIP3   OH221524   2.643   4.031   1.031  0.2284  0.1420  0.1184
 7187TIP3    H121525   2.652   3.973   0.955  1.4406  0.5300 -0.0567
 7187TIP3    H221526   2.720   4.087   1.028  0.5423 -0.1108  1.8609
 7188TIP3   OH221527   3.807   0.221   2.354 -0.3226  0.6332  0.4031
 7188TIP3    H121528   3.826   0.303   2.309  0.5838  0.4924  0.5067
 7188TIP3    H221529   3.883   0.207   2.411  0.6180 -1.3744 -1.2143
 7189TIP3   OH221530   6.782   1.530   1.860  0.2832 -0.2089  0.1867
 7189TIP3    H121531   6.744   1.456   1.814  0.1289  0.3969 -0.6803
 7189TIP3    H221532   6.707   1.575   1.899  0.3313 -0.2636  0.3411
 7190TIP3   OH221533   6.502   2.442   4.155  0.1118 -0.2964 -0.0822
 7190TIP3    H121534   6.415   2.446   4.115 -0.1927  0.2345  0.6055
 7190TIP3    H221535   6.545   2.523   4.127  0.2803 -0.4196 -0.1822
 7191TIP3   OH221536   1.317   6.556   5.607 -0.6925 -0.8073  0.1569
 7191TIP3    H121537   1.383   6.617   5.573 -0.3733 -0.8257  0.7225
 7191TIP3    H221538   1.262   6.536   5.532 -1.3865  0.9253  0.1546
 7192TIP3   OH221539   1.452   1.530   4.739  0.6625  0.0779 -0.1065
 7192TIP3    H121540   1.483   1.578   4.663 -1.3375 -0.5474 -1.4033
 7192TIP3    H221541   1.447   1.596   4.808  0.7867  1.0770 -1.0139
 7193TIP3   OH221542   3.462   0.825   5.597  0.6276  1.0293  0.3078
 7193TIP3    H121543   3.478   0.887   5.668  0.5563  1.8812 -0.4013
 7193TIP3    H221544   3.546   0.780   5.585  0.5271  0.5906  1.1926
 7194TIP3   OH221545   0.312   0.532   4.716  0.4546 -0.5657 -0.6094
 7194TIP3    H121546   0.218   0.527   4.699 -0.1037  1.6004  1.3649
 7194TIP3    H221547   0.319   0.539   4.811  2.4244  1.7855 -0.8258
 7195TIP3   OH221548   5.397   2.618   1.078 -0.0566 -0.3407 -0.1593
 7195TIP3    H121549   5.333   2.640   1.146  0.7906 -1.9872  1.2689
 7195TIP3    H221550   5.411   2.699   1.031 -1.9579  0.4555  0.5283
 7196TIP3   OH221551   7.080   3.136   3.787 -0.4324  0.2187  0.2483
 7196TIP3    H121552   7.147   3.156   3.853 -0.3239  0.7651 -0.0160
 7196TIP3    H221553   7.125   3.082   3.723 -0.4910 -0.1702  0.5344
 7197TIP3   OH221554   5.122   3.189   2.079  0.0116  0.2460 -0.5891
 7197TIP3    H121555   5.148   3.269   2.125 -0.7276  0.5999 -0.7619
 7197TIP3    H221556   5.124   3.121   2.146  0.5456  0.4287 -0.4158
 7198TIP3   OH221557   2.505   4.106   4.358  0.6497  0.4988 -0.0545
 7198TIP3    H121558   2.502   4.021   4.402  1.2987  0.9403  0.8595
 7198TIP3    H221559   2.413   4.134   4.354  0.4521 -0.1458 -0.1801
 7199TIP3   OH221560   5.674   2.771   5.351  1.0666 -0.3170  0.2766
 7199TIP3    H121561   5.735   2.833   5.312  1.4079 -0.1980  0.9743
 7199TIP3    H221562   5.655   2.708   5.282 -1.0896  1.8061 -1.2390
 7200TIP3   OH221563   3.747   0.853   4.492 -0.1265  0.7594 -0.5688
 7200TIP3    H121564   3.761   0.781   4.554 -1.5590  0.4414 -0.5570
 7200TIP3    H221565   3.833   0.873   4.458  0.4663 -0.1791  0.3089
 7201TIP3   OH221566   6.440   6.242   5.708 -0.0162 -0.0097  0.2101
 7201TIP3    H121567   6.364   6.282   5.751  0.5944  0.4915  0.8347
 7201TIP3    H221568   6.457   6.163   5.759 -0.0404 -0.0616  0.1389
 7202TIP3   OH221569   6.880   5.810   2.654 -0.1248  0.0437 -0.8328
 7202TIP3    H121570   6.905   5.763   2.733  0.1567 -1.2555 -1.6756
 7202TIP3    H221571   6.948   5.790   2.591  0.3469  2.1062 -1.0624
 7203TIP3   OH221572   3.440   5.226   0.514 -0.6023  0.0781 -0.2504
 7203TIP3    H121573   3.419   5.295   0.450 -0.9203  0.4859  0.2892
 7203TIP3    H221574   3.438   5.145   0.463  1.1616  0.5744 -1.2237
 7204TIP3   OH221575   3.946   6.397   0.135  0.2173 -0.6716 -0.0156
 7204TIP3    H121576   3.897   6.477   0.153  0.0173 -1.0497  1.2292
 7204TIP3    H221577   4.027   6.427   0.092 -0.3294  0.0888 -0.5405
 7205TIP3   OH221578   5.254   2.267   4.739 -0.2333 -0.2003 -0.3787
 7205TIP3    H121579   5.311   2.215   4.795  0.3687  0.3310 -0.4845
 7205TIP3    H221580   5.198   2.315   4.799  0.3801  0.3347 -0.2277
 7206TIP3   OH221581   4.896   2.930   4.998  0.3563 -0.2859 -0.0465
 7206TIP3    H121582   4.952   2.997   5.037 -0.3584 -0.8724  2.1575
 7206TIP3    H221583   4.866   2.968   4.915  1.5032  1.2908  0.2224
 7207TIP3   OH221584   0.482   0.359   3.323  0.6308 -0.2531 -0.1799
 7207TIP3    H121585   0.554   0.323   3.375  0.0102 -1.0193  0.1675
 7207TIP3    H221586   0.523   0.426   3.269  1.7870 -1.3487 -0.7090
 7208TIP3   OH221587   0.890   0.349   1.281  0.3025 -0.1631  0.4500
 7208TIP3    H121588   0.907   0.257   1.262  2.4804  0.1953  0.3774
 7208TIP3    H221589   0.943   0.397   1.217 -2.5635  1.2308 -1.1044
 7209TIP3   OH221590   7.175   6.038   5.299  0.1924 -0.3000  0.2226
 7209TIP3    H121591   7.231   6.098   5.250 -2.2848  1.0231 -1.1977
 7209TIP3    H221592   7.129   6.094   5.362 -2.0076 -0.6329 -0.9836
 7210TIP3   OH221593   3.158   6.644   2.167  0.8041 -0.8136  0.1227
 7210TIP3    H121594   3.129   6.618   2.080  0.0280  3.6792 -1.2677
 7210TIP3    H221595   3.084   6.623   2.225  0.0239 -1.0615 -0.9393
 7211TIP3   OH221596   6.016   2.916   3.569 -0.2127  0.0687 -0.0386
 7211TIP3    H121597   6.000   2.851   3.500  1.1938  0.0994 -0.4119
 7211TIP3    H221598   5.993   3.000   3.529  0.7714  0.1066 -0.5506
 7212TIP3   OH221599   4.637   6.037   4.026 -0.1956  0.7012 -0.7631
 7212TIP3    H121600   4.730   6.032   4.052 -0.4169  2.6495  0.5683
 7212TIP3    H221601   4.636   6.098   3.953 -0.4989  1.0747 -0.4448
 7213TIP3   OH221602   4.945   0.494   3.648 -0.5577 -0.1526  0.4940
 7213TIP3    H121603   4.973   0.408   3.616  2.7307  1.0968 -0.3904
 7213TIP3    H221604   4.884   0.526   3.582 -0.0126 -0.8907 -0.3932
 7214TIP3   OH221605   3.127   4.578   0.377  0.1882  0.0707  0.8176
 7214TIP3    H121606   3.036   4.555   0.398 -0.4292  0.4839 -1.1916
 7214TIP3    H221607   3.145   4.534   0.295  0.3598  3.2172 -1.0025
 7215TIP3   OH221608   4.716   2.237   2.309 -0.5111  0.2002  0.4985
 7215TIP3    H121609   4.755   2.320   2.281 -0.6019  0.4385  1.0691
 7215TIP3    H221610   4.696   2.192   2.227  0.6250  0.2239  0.1841
 7216TIP3   OH221611   3.326   4.829   4.179  0.7267 -0.5835  0.2721
 7216TIP3    H121612   3.272   4.756   4.210 -1.2142 -0.4477 -2.4844
 7216TIP3    H221613   3.308   4.900   4.241 -2.0976 -0.6427 -0.3735
 7217TIP3   OH221614   6.212   5.789   5.156 -0.2608 -0.6468  0.0914
 7217TIP3    H121615   6.149   5.728   5.194  0.4993 -1.3976  0.1974
 7217TIP3    H221616   6.220   5.761   5.064 -2.2348  1.2742 -0.7459
 7218TIP3   OH221617   3.586   5.255   2.780  0.0377 -0.1482  0.3215
 7218TIP3    H121618   3.490   5.253   2.787  0.0333 -0.0128  0.3005
 7218TIP3    H221619   3.606   5.343   2.746  0.2185  0.1394  1.1382
 7219TIP3   OH221620   0.188   3.176   1.222 -0.3405  0.0652  0.3787
 7219TIP3    H121621   0.234   3.128   1.152 -0.1901  0.6163  0.0954
 7219TIP3    H221622   0.242   3.254   1.236 -0.7236  0.2774  0.6643
 7220TIP3   OH221623   4.449   2.467   1.412  0.1297 -0.1376  0.0993
 7220TIP3    H121624   4.421   2.460   1.504  0.2411  0.2890  0.1692
 7220TIP3    H221625   4.539   2.498   1.418 -0.7785  2.9142 -0.1762
 7221TIP3   OH221626   3.653   3.669   0.642  0.7678  0.8100  0.6127
 7221TIP3    H121627   3.596   3.735   0.684  0.1788  0.0653  1.0097
 7221TIP3    H221628   3.618   3.660   0.554  1.5805  1.8723  0.1529
 7222TIP3   OH221629   2.848   3.703   5.007  0.2670  0.2787  0.6154
 7222TIP3    H121630   2.869   3.704   4.914 -1.5987 -0.2869  0.1485
 7222TIP3    H221631   2.912   3.762   5.047  1.1465  0.4710 -0.9965
 7223TIP3   OH221632   0.617   5.711   2.564 -0.2725 -0.3090  0.2713
 7223TIP3    H121633   0.705   5.707   2.528 -0.4429 -0.9151 -0.1019
 7223TIP3    H221634   0.568   5.765   2.502 -0.1124  0.2276  0.6046
 7224TIP3   OH221635   2.067   1.430   1.648  0.1422 -0.1333  0.8094
 7224TIP3    H121636   2.087   1.372   1.721 -0.3355 -0.2318  0.8658
 7224TIP3    H221637   2.092   1.517   1.679  3.9433 -0.6070 -0.4049
 7225TIP3   OH221638   6.976   4.530   2.690 -0.2445  0.0735  0.1769
 7225TIP3    H121639   6.938   4.542   2.603 -1.6778 -4.0129  0.0160
 7225TIP3    H221640   6.942   4.602   2.741 -3.6813 -0.2055 -1.4498
 7226TIP3   OH221641   4.329   6.707   0.299  0.3917  0.3791 -0.4121
 7226TIP3    H121642   4.291   6.745   0.220  0.5743  0.8247 -0.2893
 7226TIP3    H221643   4.371   6.626   0.269 -0.2108  0.1376 -0.6351
 7227TIP3   OH221644   2.134   0.220   2.364 -0.0038  0.2392  0.7779
 7227TIP3    H121645   2.050   0.181   2.390 -1.4929  1.4290 -1.7973
 7227TIP3    H221646   2.164   0.165   2.292 -0.5510  1.9259 -0.8203
 7228TIP3   OH221647   3.997   3.810   0.490 -0.2099 -0.1477  0.0196
 7228TIP3    H121648   4.076   3.862   0.503 -0.3957  0.0756  0.2775
 7228TIP3    H221649   4.023   3.721   0.517  0.1444 -0.2223 -0.5544
 7229TIP3   OH221650   1.246   1.069   2.963  0.3607  0.2076  0.2828
 7229TIP3    H121651   1.270   1.064   3.055  0.0391  1.6394  0.4662
 7229TIP3    H221652   1.247   1.163   2.943  0.4945 -0.0814 -1.1875
 7230TIP3   OH221653   2.361   4.967   3.654 -0.2206 -0.2160  0.0732
 7230TIP3    H121654   2.446   4.950   3.695  0.1533 -1.3178 -1.0958
 7230TIP3    H221655   2.367   4.925   3.568 -2.2644 -1.1149  0.3098
 7231TIP3   OH221656   6.717   4.874   1.381  0.5000 -0.7027 -0.3850
 7231TIP3    H121657   6.806   4.899   1.407  0.8526 -2.3354  0.1027
 7231TIP3    H221658   6.699   4.794   1.431 -0.6072 -1.3088 -1.6768
 7232TIP3   OH221659   2.238   1.874   1.655  0.7010  0.4907 -0.0233
 7232TIP3    H121660   2.199   1.950   1.700 -1.1702 -0.5469  0.2378
 7232TIP3    H221661   2.165   1.837   1.604  1.3872 -1.4651  0.3376
 7233TIP3   OH221662   5.049   3.863   3.147  0.0969  0.3859  0.6241
 7233TIP3    H121663   5.033   3.910   3.229  1.6158 -1.2718  1.9795
 7233TIP3    H221664   4.962   3.836   3.117 -0.4983  1.0739  1.6720
 7234TIP3   OH221665   3.386   3.802   3.011  0.2056  0.2205 -0.0269
 7234TIP3    H121666   3.318   3.816   2.945  1.9274  1.4943 -1.6163
 7234TIP3    H221667   3.430   3.886   3.018  0.9153 -0.2538  1.8433
 7235TIP3   OH221668   2.143   2.151   1.644  0.3802 -0.2488 -0.0008
 7235TIP3    H121669   2.220   2.153   1.701  0.3671  0.0120  0.0074
 7235TIP3    H221670   2.179   2.138   1.556  0.3250 -2.0215  0.2128
 7236TIP3   OH221671   1.303   1.815   2.185  0.2960 -0.1527 -0.0956
 7236TIP3    H121672   1.248   1.866   2.126  0.1953 -0.8444 -0.6014
 7236TIP3    H221673   1.388   1.860   2.184  0.3377 -0.2433 -0.8807
 7237TIP3   OH221674   1.958   6.503   3.893  0.0199 -0.6486  0.3429
 7237TIP3    H121675   1.938   6.590   3.927  0.6121  0.2450 -1.5079
 7237TIP3    H221676   1.902   6.493   3.817 -1.0385 -2.4816  1.3016
 7238TIP3   OH221677   4.126   1.185   0.474 -0.5614 -0.3560  0.4042
 7238TIP3    H121678   4.073   1.129   0.417  2.5620 -1.4792 -1.7119
 7238TIP3    H221679   4.156   1.255   0.416  0.9343 -0.2683  1.2333
 7239TIP3   OH221680   6.474   1.542   5.029 -0.0537  0.5251 -0.2189
 7239TIP3    H121681   6.403   1.568   5.087 -1.2172  2.4558 -2.3860
 7239TIP3    H221682   6.522   1.623   5.010  1.3511 -0.3513 -0.6025
 7240TIP3   OH221683   3.398   2.892   1.223  0.0055  0.1219 -0.3438
 7240TIP3    H121684   3.488   2.902   1.194  0.9575 -1.6708  1.6951
 7240TIP3    H221685   3.386   2.798   1.232 -2.2715  0.2866 -1.0508
 7241TIP3   OH221686   2.647   5.358   2.400 -0.0360 -0.3254  0.4368
 7241TIP3    H121687   2.641   5.333   2.307  0.6827  2.0165 -0.3060
 7241TIP3    H221688   2.568   5.321   2.440 -0.3547 -1.3977 -1.0787
 7242TIP3   OH221689   6.848   6.734   2.267  0.5544 -0.0051  0.2792
 7242TIP3    H121690   6.875   6.753   2.178 -0.9470 -0.5202 -0.3206
 7242TIP3    H221691   6.899   6.658   2.293  0.0351 -0.6871 -0.6557
 7243TIP3   OH221692   2.048   1.203   2.974  0.5761  0.1055 -1.0332
 7243TIP3    H121693   1.996   1.124   2.959 -1.0339  0.9406 -0.1094
 7243TIP3    H221694   2.084   1.225   2.888  0.9986 -1.5571 -1.3254
 7244TIP3   OH221695   6.957   0.457   3.103 -0.4714 -0.0455 -0.3426
 7244TIP3    H121696   6.937   0.365   3.084  0.1609 -0.6283  1.5533
 7244TIP3    H221697   6.872   0.499   3.114 -0.7836 -0.8902  0.6988
 7245TIP3   OH221698   4.303   0.444   1.746  0.2454 -0.9400 -0.4034
 7245TIP3    H121699   4.213   0.421   1.770 -0.2059  1.1307  0.1041
 7245TIP3    H221700   4.320   0.526   1.793  2.5200 -1.4313 -0.2635
 7246TIP3   OH221701   0.452   4.659   1.271 -0.1673  0.3283 -0.5131
 7246TIP3    H121702   0.514   4.633   1.339 -1.5654 -0.2470  0.6087
 7246TIP3    H221703   0.366   4.633   1.306 -1.0241  0.8842 -2.0947
 7247TIP3   OH221704   0.275   4.796   2.797 -0.5906  0.3394  0.2452
 7247TIP3    H121705   0.248   4.740   2.870 -0.0379  1.8414  1.6745
 7247TIP3    H221706   0.370   4.799   2.803 -0.4630 -0.2656 -1.1534
 7248TIP3   OH221707   1.430   4.946   5.361 -0.4092 -0.5257 -0.0475
 7248TIP3    H121708   1.422   4.971   5.453 -1.5514 -0.9841 -0.0081
 7248TIP3    H221709   1.494   4.874   5.361  0.5541  0.3052  0.2125
 7249TIP3   OH221710   4.279   2.759   1.188 -0.3739  0.6452 -0.6039
 7249TIP3    H121711   4.301   2.740   1.279  1.2235 -1.0123 -1.2791
 7249TIP3    H221712   4.302   2.851   1.176 -2.3009  1.4291  1.0809
 7250TIP3   OH221713   0.397   1.848   5.090  0.1000  0.2992  0.3000
 7250TIP3    H121714   0.347   1.911   5.038 -0.1388  1.9511  2.3876
 7250TIP3    H221715   0.433   1.787   5.025 -2.3230  0.6534 -1.5301
 7251TIP3   OH221716   0.560   2.874   5.134  0.1072  0.1858  0.3908
 7251TIP3    H121717   0.599   2.961   5.134  0.7155 -0.0810 -0.1695
 7251TIP3    H221718   0.553   2.850   5.042  0.2310 -0.4787  0.5464
 7252TIP3   OH221719   3.008   4.069   3.445 -0.0226  0.1252 -0.3565
 7252TIP3    H121720   2.934   4.023   3.483  0.5859 -0.8431 -0.3018
 7252TIP3    H221721   2.977   4.158   3.430 -0.8569  0.0154  0.6471
 7253TIP3   OH221722   1.204   5.565   5.535 -0.5848  0.0315  0.5385
 7253TIP3    H121723   1.134   5.552   5.471 -0.0114 -0.1364 -0.0686
 7253TIP3    H221724   1.169   5.529   5.617 -0.8497 -0.9319  0.0159
 7254TIP3   OH221725   6.446   5.192   0.818 -0.4479 -0.0557  0.3459
 7254TIP3    H121726   6.511   5.242   0.868 -1.4008  0.8452  0.7208
 7254TIP3    H221727   6.491   5.168   0.737  0.2152  0.9669  0.3944
 7255TIP3   OH221728   3.896   3.217   2.996  0.5926  0.4477  0.6501
 7255TIP3    H121729   3.990   3.223   2.980  0.6653  2.6854  1.5495
 7255TIP3    H221730   3.889   3.211   3.091 -0.1718  0.7004  0.6155
 7256TIP3   OH221731   2.863   3.475   3.086  0.1313  0.1960 -0.3386
 7256TIP3    H121732   2.831   3.545   3.029 -1.3570 -1.1663 -1.2533
 7256TIP3    H221733   2.796   3.464   3.152  0.1026 -0.6772 -0.4957
 7257TIP3   OH221734   5.355   1.874   1.706  0.2459  0.3100 -0.7074
 7257TIP3    H121735   5.268   1.843   1.730  1.3229 -0.9043  2.0399
 7257TIP3    H221736   5.363   1.959   1.748  0.4841  0.3284 -0.7876
 7258TIP3   OH221737   3.910   2.865   5.672 -0.3523 -0.6847 -0.3225
 7258TIP3    H121738   3.983   2.925   5.658  0.3559 -1.7270 -1.2602
 7258TIP3    H221739   3.845   2.892   5.606 -0.3083 -0.5338 -0.3063
 7259TIP3   OH221740   6.630   5.052   5.247 -0.4795  0.3439  0.1107
 7259TIP3    H121741   6.689   5.125   5.267 -0.8151  0.1548  1.9454
 7259TIP3    H221742   6.553   5.068   5.301 -1.3133 -0.4485 -0.8012
 7260TIP3   OH221743   2.413   1.802   5.767 -0.3783  0.2768 -0.1191
 7260TIP3    H121744   2.389   1.807   5.674  1.5155  1.2346 -0.6154
 7260TIP3    H221745   2.451   1.888   5.786 -1.5530  0.4201  1.8249
 7261TIP3   OH221746   6.807   0.895   2.584  0.0567  0.0471  0.0888
 7261TIP3    H121747   6.740   0.963   2.577  0.2191  0.2926  0.8285
 7261TIP3    H221748   6.800   0.846   2.502 -0.0875  0.9303 -0.4369
 7262TIP3   OH221749   0.298   4.379   2.357 -0.0061 -0.4001 -0.3851
 7262TIP3    H121750   0.350   4.300   2.372 -0.6738 -1.0103 -1.1138
 7262TIP3    H221751   0.362   4.450   2.354  0.6187 -0.9224  0.1981
 7263TIP3   OH221752   6.329   6.675   1.369 -0.2801 -0.2863  0.0683
 7263TIP3    H121753   6.260   6.741   1.372  1.3685  1.4839  0.7862
 7263TIP3    H221754   6.362   6.678   1.279 -0.8153 -0.8330 -0.1568
 7264TIP3   OH221755   4.253   1.936   5.390 -0.7297 -0.3427 -0.0547
 7264TIP3    H121756   4.230   1.881   5.465 -0.2698  0.2569  0.5353
 7264TIP3    H221757   4.327   1.891   5.349 -0.7765 -0.4998  0.0315
 7265TIP3   OH221758   0.254   2.666   2.633 -0.0969 -0.6108 -0.0318
 7265TIP3    H121759   0.323   2.709   2.683  0.6969 -0.2789 -1.3844
 7265TIP3    H221760   0.271   2.689   2.542 -0.9806 -1.9338 -0.5711
 7266TIP3   OH221761   0.550   3.281   1.753  0.8091  0.4276  0.4972
 7266TIP3    H121762   0.645   3.268   1.755  0.7271 -0.5419 -1.0089
 7266TIP3    H221763   0.523   3.250   1.667 -0.8305  1.1169  0.7317
 7267TIP3   OH221764   5.740   6.177   5.506  0.1816  0.1982 -0.5774
 7267TIP3    H121765   5.683   6.205   5.434  0.5796 -1.6139 -1.6600
 7267TIP3    H221766   5.687   6.116   5.557  0.7224 -0.5109 -0.8469
 7268TIP3   OH221767   4.949   2.513   5.489  0.4658  0.4516  0.1269
 7268TIP3    H121768   4.857   2.524   5.465  0.2359 -0.1790  0.7113
 7268TIP3    H221769   4.996   2.570   5.427 -0.1769 -0.4941 -1.3012
 7269TIP3   OH221770   6.441   0.782   1.613  0.0909 -0.1070 -0.2608
 7269TIP3    H121771   6.411   0.753   1.699  0.2193 -1.7102 -0.7191
 7269TIP3    H221772   6.466   0.873   1.625  0.7740 -0.5068  1.5781
 7270TIP3   OH221773   4.632   6.163   5.585  0.2347  0.2729 -0.4044
 7270TIP3    H121774   4.562   6.124   5.637 -0.2115 -0.0531 -1.2333
 7270TIP3    H221775   4.595   6.172   5.497  1.5937 -1.0337 -1.1632
 7271TIP3   OH221776   1.652   1.884   5.434 -0.2364  0.5764  0.0134
 7271TIP3    H121777   1.681   1.973   5.454  0.6440  0.5114 -0.8769
 7271TIP3    H221778   1.704   1.858   5.358 -0.4873 -0.7035  0.2478
 7272TIP3   OH221779   6.202   2.183   0.600 -0.2897  0.2616  0.0853
 7272TIP3    H121780   6.117   2.227   0.594  0.4929  1.5973 -2.5756
 7272TIP3    H221781   6.187   2.098   0.559 -0.7019 -0.1641  1.0895
 7273TIP3   OH221782   6.810   6.569   3.847 -0.2274  0.0756 -0.3526
 7273TIP3    H121783   6.790   6.532   3.761 -0.1742 -0.0747 -0.3005
 7273TIP3    H221784   6.830   6.661   3.829  1.2450 -0.2966 -0.6884
 7274TIP3   OH221785   5.622   1.116   2.731 -0.6350 -0.3573  0.9281
 7274TIP3    H121786   5.657   1.030   2.706 -0.9679  0.1038 -1.2766
 7274TIP3    H221787   5.548   1.129   2.673  1.3868  2.8520 -1.2602
 7275TIP3   OH221788   7.016   2.032   5.167  0.5873 -0.0579  0.2297
 7275TIP3    H121789   7.101   1.988   5.160 -0.2227 -1.5202 -1.0454
 7275TIP3    H221790   6.976   2.020   5.081 -0.8041  0.8466  0.7257
 7276TIP3   OH221791   0.533   1.350   5.189  0.1506 -0.6429 -0.6458
 7276TIP3    H121792   0.505   1.377   5.277  0.1266 -1.0028 -0.5404
 7276TIP3    H221793   0.622   1.384   5.181  0.0189 -0.2844 -0.6292
 7277TIP3   OH221794   1.202   2.749   2.525  0.8221 -0.0176  0.0235
 7277TIP3    H121795   1.266   2.678   2.529  0.7113 -0.0800  0.9371
 7277TIP3    H221796   1.193   2.778   2.616  0.2540  0.6199 -0.2289
 7278TIP3   OH221797   0.521   6.334   2.428 -0.0711 -0.6249 -0.6884
 7278TIP3    H121798   0.591   6.398   2.413 -0.5625 -0.1457 -1.0318
 7278TIP3    H221799   0.541   6.295   2.513  0.1906  0.0652 -0.4224
 7279TIP3   OH221800   5.677   2.224   3.310  0.3093 -0.7477  0.0347
 7279TIP3    H121801   5.754   2.192   3.263  0.3781 -0.7131  0.1246
 7279TIP3    H221802   5.695   2.208   3.402  0.0487 -1.0808  0.0309
 7280TIP3   OH221803   5.483   5.902   3.394  0.3413 -0.4367 -0.2123
 7280TIP3    H121804   5.465   5.888   3.487  0.4889  1.6676  0.1707
 7280TIP3    H221805   5.575   5.875   3.384 -0.0444 -1.9067 -0.0698
 7281TIP3   OH221806   6.036   0.245   3.906  0.1519  0.5171 -0.4439
 7281TIP3    H121807   6.065   0.195   3.830 -1.1267  1.3762 -1.5473
 7281TIP3    H221808   6.014   0.331   3.871 -0.6938  0.8621  0.8575
 7282TIP3   OH221809   5.600   1.731   4.710 -0.0413  0.3416  0.8860
 7282TIP3    H121810   5.558   1.728   4.796 -1.7039 -0.4867  0.1014
 7282TIP3    H221811   5.552   1.666   4.658  1.8384 -0.2008 -0.2766
 7283TIP3   OH221812   3.043   4.282   0.768 -0.6524  0.1872  0.0870
 7283TIP3    H121813   2.998   4.273   0.852  1.5559  1.9401  1.5652
 7283TIP3    H221814   3.027   4.372   0.742 -0.6169 -0.1025 -0.9836
 7284TIP3   OH221815   2.763   2.343   2.768 -0.5787  0.1400  0.2867
 7284TIP3    H121816   2.715   2.419   2.735  1.7857  2.0596  0.9594
 7284TIP3    H221817   2.711   2.311   2.841 -1.7827  0.9030 -0.2134
 7285TIP3   OH221818   1.079   2.065   1.610 -0.1889  0.5018  0.3881
 7285TIP3    H121819   1.096   2.153   1.643  0.0985 -0.0164  1.6818
 7285TIP3    H221820   0.984   2.063   1.594 -0.4869  0.5051  2.0407
 7286TIP3   OH221821   3.619   5.092   1.623  0.4606  0.1910 -0.8409
 7286TIP3    H121822   3.624   5.150   1.547  0.6476  0.8665 -0.3160
 7286TIP3    H221823   3.526   5.087   1.643  0.5802  2.2293  0.5487
 7287TIP3   OH221824   5.612   2.114   1.495  0.2555 -0.8111 -0.1902
 7287TIP3    H121825   5.546   2.047   1.508  0.6197 -1.1724 -0.1779
 7287TIP3    H221826   5.675   2.100   1.566 -1.0390  1.2560  1.4738
 7288TIP3   OH221827   2.968   6.558   4.216  0.1418  0.1883 -0.3421
 7288TIP3    H121828   3.042   6.581   4.159  0.8385 -1.4832 -0.1898
 7288TIP3    H221829   2.891   6.569   4.160  0.5191  1.6710 -0.6012
 7289TIP3   OH221830   4.635   4.152   4.315  0.1938 -0.7452 -0.0312
 7289TIP3    H121831   4.599   4.070   4.280 -0.5687 -0.1190 -0.7731
 7289TIP3    H221832   4.582   4.220   4.274  1.1077  0.1447  0.2251
 7290TIP3   OH221833   0.402   0.390   2.351 -0.1808  0.1492  0.2647
 7290TIP3    H121834   0.400   0.463   2.412 -0.6034  0.8442 -0.5462
 7290TIP3    H221835   0.422   0.314   2.404 -0.2805  0.7755  1.2167
 7291TIP3   OH221836   1.806   1.775   5.229  0.6628 -0.2309  0.3524
 7291TIP3    H121837   1.760   1.738   5.154  0.1855  0.4929  0.2776
 7291TIP3    H221838   1.860   1.703   5.262 -0.1788 -0.9624  0.1734
 7292TIP3   OH221839   5.154   0.527   3.847 -0.4120  0.1831  0.3134
 7292TIP3    H121840   5.136   0.619   3.868  0.6664  0.8457 -1.4503
 7292TIP3    H221841   5.084   0.503   3.786  0.1874  0.3423 -0.4525
 7293TIP3   OH221842   5.594   3.547   1.322 -0.1727 -0.5177 -0.4148
 7293TIP3    H121843   5.502   3.547   1.349 -0.1005 -1.8147 -0.1084
 7293TIP3    H221844   5.640   3.500   1.392  0.9735  1.3544  0.1610
 7294TIP3   OH221845   1.461   6.032   5.836  0.2812  0.0426 -0.0376
 7294TIP3    H121846   1.472   6.004   5.745  1.9544 -0.5705  0.3213
 7294TIP3    H221847   1.461   6.128   5.831  1.8368  0.0427 -0.5630
 7295TIP3   OH221848   3.693   0.746   3.630  0.3920  0.0968  0.1577
 7295TIP3    H121849   3.605   0.734   3.665 -0.0596  2.5742  0.0165
 7295TIP3    H221850   3.679   0.784   3.543  1.6082  0.9865  0.3341
 7296TIP3   OH221851   2.560   2.324   4.721 -0.2531 -0.2676  0.3754
 7296TIP3    H121852   2.480   2.280   4.751 -1.5455 -0.7611 -3.2773
 7296TIP3    H221853   2.614   2.254   4.685  1.2700  0.2669  1.4953
 7297TIP3   OH221854   0.347   2.199   0.489  0.1378  0.3608 -0.4928
 7297TIP3    H121855   0.379   2.209   0.578 -0.0360 -0.7427 -0.2871
 7297TIP3    H221856   0.305   2.113   0.488 -0.0270  0.4321 -1.5917
 7298TIP3   OH221857   2.054   0.287   2.889 -0.0192  0.1152 -0.0809
 7298TIP3    H121858   2.148   0.301   2.900  0.1655 -2.0872  1.9392
 7298TIP3    H221859   2.048   0.205   2.841 -0.8425 -0.9171  1.6961
 7299TIP3   OH221860   2.655   5.195   5.452  0.6680 -0.4749 -0.2178
 7299TIP3    H121861   2.743   5.201   5.416  0.4573 -0.3528 -0.7327
 7299TIP3    H221862   2.653   5.259   5.523  0.7502  0.1288 -0.7429
 7300TIP3   OH221863   5.081   0.045   1.818  0.4946 -0.0005 -0.0748
 7300TIP3    H121864   5.074   0.104   1.742  1.1321  0.7917  0.4621
 7300TIP3    H221865   5.105  -0.040   1.780  1.2555  0.4887 -0.7442
 7301TIP3   OH221866   3.505   3.973   4.815 -0.2119  0.3331 -0.4273
 7301TIP3    H121867   3.464   4.013   4.739 -0.0037  1.1882 -0.0983
 7301TIP3    H221868   3.505   3.879   4.796 -2.1257  0.3100 -0.5375
 7302TIP3   OH221869   4.685   3.847   3.838  0.0918 -0.2230 -0.0572
 7302TIP3    H121870   4.664   3.939   3.858  1.7488  0.5459 -1.5164
 7302TIP3    H221871   4.754   3.853   3.771 -0.6116 -2.5475 -1.0793
 7303TIP3   OH221872   6.467   6.322   4.192  0.3569  0.6834  0.0678
 7303TIP3    H121873   6.473   6.412   4.224  0.3788  0.6118  0.2700
 7303TIP3    H221874   6.552   6.306   4.150  0.7725  0.3977  0.9906
 7304TIP3   OH221875   3.936   0.214   0.471  0.2110  0.0652  0.1588
 7304TIP3    H121876   4.008   0.274   0.453 -0.4202  1.0369  0.7616
 7304TIP3    H221877   3.970   0.157   0.540  1.2653 -1.1513 -1.3027
 7305TIP3   OH221878   0.390   4.020   3.509 -0.1742 -0.0722 -0.5186
 7305TIP3    H121879   0.339   3.960   3.563 -0.0034  0.7815  0.6359
 7305TIP3    H221880   0.407   4.095   3.566  0.2150  0.7678 -1.6953
 7306TIP3   OH221881   3.599   1.035   4.697 -0.1553  0.3498 -0.4872
 7306TIP3    H121882   3.587   1.128   4.680 -2.7346  0.7297  2.5681
 7306TIP3    H221883   3.643   1.002   4.618  0.3666  3.9853 -1.9043
 7307TIP3   OH221884   4.969   4.049   3.352 -0.4617 -0.5729 -0.6488
 7307TIP3    H121885   4.917   4.021   3.428  1.6672  0.3231  1.2608
 7307TIP3    H221886   4.928   4.131   3.324 -1.0154 -0.6839 -0.1946
 7308TIP3   OH221887   6.700   4.236   4.210  0.2973  0.2526 -0.6745
 7308TIP3    H121888   6.727   4.209   4.298  1.8741  0.5604 -1.0292
 7308TIP3    H221889   6.621   4.287   4.224  0.6089  0.4287  0.5811
 7309TIP3   OH221890   3.684   6.544   1.531 -0.0465  0.3487  0.0140
 7309TIP3    H121891   3.603   6.521   1.486  1.4374 -1.6736 -1.8319
 7309TIP3    H221892   3.679   6.498   1.615  0.1731 -1.8262 -1.0969
 7310TIP3   OH221893   1.221   1.372   3.211 -0.1363 -0.2729  0.3034
 7310TIP3    H121894   1.201   1.281   3.188 -0.6979 -0.6696  2.2116
 7310TIP3    H221895   1.254   1.367   3.301  2.8539  1.0852 -0.6020
 7311TIP3   OH221896   6.839   6.087   3.858  0.1687 -0.3156 -1.1106
 7311TIP3    H121897   6.861   6.019   3.923  0.7232 -1.0929 -2.0765
 7311TIP3    H221898   6.808   6.038   3.782  0.8150  0.4941 -1.9164
 7312TIP3   OH221899   6.372   4.166   5.753  0.2017  0.0012 -0.5616
 7312TIP3    H121900   6.340   4.106   5.686 -2.2504  0.0391  0.4855
 7312TIP3    H221901   6.379   4.111   5.832  1.2711  0.3647 -0.3851
 7313TIP3   OH221902   5.788   3.774   5.581 -0.5231  0.7050  0.0348
 7313TIP3    H121903   5.840   3.786   5.661 -1.3014  0.6192  0.5692
 7313TIP3    H221904   5.833   3.826   5.515  0.1433  0.7647  0.5237
 7314TIP3   OH221905   5.366   6.106   5.185 -0.2810  0.1112  0.1940
 7314TIP3    H121906   5.451   6.106   5.140  0.7318 -1.3532  1.9737
 7314TIP3    H221907   5.375   6.174   5.253 -0.7059  0.2692  0.0954
 7315TIP3   OH221908   3.418   3.170   0.189  0.1617  0.6186 -0.8423
 7315TIP3    H121909   3.396   3.252   0.144 -1.0665  0.6753 -0.1839
 7315TIP3    H221910   3.481   3.197   0.256 -0.0676  0.9976 -0.7726
 7316TIP3   OH221911   0.933   1.370   1.922 -0.3834  0.1537  0.2966
 7316TIP3    H121912   0.939   1.441   1.986 -0.0048  1.6543 -1.3200
 7316TIP3    H221913   0.970   1.294   1.966  0.8912  1.4159  1.4739
 7317TIP3   OH221914   4.195   4.532   1.438  0.5129 -0.0007  0.0661
 7317TIP3    H121915   4.162   4.473   1.370 -0.0462 -0.8322  1.0257
 7317TIP3    H221916   4.288   4.510   1.446  0.4713 -0.2367 -0.0943
 7318TIP3   OH221917   2.797   0.548   5.407 -0.3470  0.1587  0.4475
 7318TIP3    H121918   2.778   0.468   5.456 -0.6125  0.8168  1.4575
 7318TIP3    H221919   2.883   0.576   5.440  0.6098 -0.6397 -1.1956
 7319TIP3   OH221920   5.597   1.370   4.862  0.5518  0.2563 -0.2118
 7319TIP3    H121921   5.548   1.365   4.780  0.2134  1.1498 -0.0738
 7319TIP3    H221922   5.618   1.279   4.883 -3.0256 -0.4324  0.9465
 7320TIP3   OH221923   7.062   3.146   0.571 -0.1748 -0.1056 -0.5053
 7320TIP3    H121924   7.025   3.223   0.527  0.4135  0.6221  0.2665
 7320TIP3    H221925   7.083   3.176   0.659  0.3992 -1.0612 -0.3077
 7321TIP3   OH221926   1.674   3.190   4.169 -0.2677  0.5683  1.0121
 7321TIP3    H121927   1.692   3.109   4.216 -1.9679  0.3704  1.3980
 7321TIP3    H221928   1.579   3.192   4.161 -0.2341  2.3274  0.6518
 7322TIP3   OH221929   1.485   1.794   4.876 -0.1360  0.4274  0.1597
 7322TIP3    H121930   1.490   1.834   4.789  2.2358 -0.4714 -0.1955
 7322TIP3    H221931   1.532   1.856   4.932 -0.1378  0.1617  0.4535
 7323TIP3   OH221932   5.216   6.734   0.019 -0.0233 -0.5216  0.1870
 7323TIP3    H121933   5.231   6.817  -0.027 -0.0532 -0.4819  0.2496
 7323TIP3    H221934   5.283   6.732   0.087 -0.3918 -0.2769  0.5605
 7324TIP3   OH221935   3.746   1.238   0.546 -0.5414 -0.2198  0.2831
 7324TIP3    H121936   3.688   1.230   0.622 -1.2831  1.9559  0.0360
 7324TIP3    H221937   3.714   1.172   0.484 -2.7491  0.8127  0.2006
 7325TIP3   OH221938   0.839   1.546   4.138 -0.0960 -0.0054  0.2807
 7325TIP3    H121939   0.809   1.630   4.173  0.0620  0.2680 -0.2319
 7325TIP3    H221940   0.761   1.505   4.102 -0.8744 -1.5527  3.3647
 7326TIP3   OH221941   0.760   6.363   2.590  0.2428  0.4868  0.1890
 7326TIP3    H121942   0.781   6.310   2.667 -1.0570 -0.8788 -0.3566
 7326TIP3    H221943   0.816   6.440   2.599 -0.4154  0.7579  2.9162
 7327TIP3   OH221944   4.193   4.179   1.044 -0.4134  0.0334 -0.2205
 7327TIP3    H121945   4.178   4.085   1.048 -0.3747  0.0167 -0.4764
 7327TIP3    H221946   4.152   4.208   0.963 -0.9829  0.3423  0.1723
 7328TIP3   OH221947   0.702   1.597   5.144  0.7194 -0.5581 -0.1138
 7328TIP3    H121948   0.740   1.620   5.059 -0.1535 -2.2223 -0.9996
 7328TIP3    H221949   0.766   1.539   5.185  0.5671 -0.7886 -0.2009
 7329TIP3   OH221950   1.094   3.730   2.585 -0.3826  0.6117  0.1329
 7329TIP3    H121951   1.150   3.654   2.596 -0.4894  0.7335  1.8461
 7329TIP3    H221952   1.026   3.701   2.524 -1.2549 -1.1917  1.8311
 7330TIP3   OH221953   3.438   2.621   4.749  1.1168 -0.7091 -0.3857
 7330TIP3    H121954   3.395   2.588   4.828 -0.4978 -1.7170 -1.6224
 7330TIP3    H221955   3.373   2.678   4.709  1.4391 -1.1587 -1.5854
 7331TIP3   OH221956   2.117   0.950   1.908  0.1142 -0.2742 -0.3940
 7331TIP3    H121957   2.114   1.046   1.900  1.7850 -0.2072 -0.4943
 7331TIP3    H221958   2.210   0.929   1.911 -0.2216 -1.7376  1.9139
 7332TIP3   OH221959   5.222   3.967   1.500  0.0972 -0.1063 -0.0401
 7332TIP3    H121960   5.193   4.021   1.574 -0.3132  1.2426 -1.1416
 7332TIP3    H221961   5.145   3.916   1.476  0.5444 -1.3771  1.1365
 7333TIP3   OH221962   6.827   1.891   3.780  0.3151 -0.4277  0.0745
 7333TIP3    H121963   6.921   1.874   3.776  0.6985  1.3080  0.9101
 7333TIP3    H221964   6.818   1.983   3.755 -0.9333 -0.0146  1.8526
 7334TIP3   OH221965   5.270   3.645   5.225 -0.0687 -0.5083  0.4960
 7334TIP3    H121966   5.323   3.721   5.201  1.8949 -1.5881  1.1847
 7334TIP3    H221967   5.241   3.609   5.142 -0.5196  0.6432  0.1375
 7335TIP3   OH221968   2.379   1.246   0.206  0.1836  0.4728  0.5656
 7335TIP3    H121969   2.405   1.279   0.120  1.2138 -0.2995  0.5671
 7335TIP3    H221970   2.284   1.258   0.208  0.2313  1.1570 -0.3921
 7336TIP3   OH221971   0.700   5.858   2.086  0.2613 -0.0138  0.0348
 7336TIP3    H121972   0.651   5.789   2.132  0.4425  0.4237  0.9139
 7336TIP3    H221973   0.741   5.813   2.012  1.0016 -1.0384  1.0240
 7337TIP3   OH221974   4.632   3.567   3.132 -0.1694  0.0620 -0.3481
 7337TIP3    H121975   4.585   3.571   3.049  0.0411  1.4736 -0.4368
 7337TIP3    H221976   4.564   3.550   3.197 -0.2719 -1.4969 -0.8342
 7338TIP3   OH221977   1.448   6.595   3.811 -0.1072  0.9451  0.8338
 7338TIP3    H121978   1.373   6.568   3.758  1.3056  1.8805 -1.8504
 7338TIP3    H221979   1.410   6.643   3.884 -2.2164 -1.1123  1.1905
 7339TIP3   OH221980   2.212   6.231   5.606  0.1187 -0.0750 -0.0626
 7339TIP3    H121981   2.281   6.176   5.643  0.1065 -1.0433 -1.4004
 7339TIP3    H221982   2.176   6.278   5.681  1.2053 -0.6865  0.8841
 7340TIP3   OH221983   2.468   2.052   3.646  0.5672 -0.0978 -0.6790
 7340TIP3    H121984   2.418   2.128   3.615  0.0667  0.2235  0.8061
 7340TIP3    H221985   2.541   2.091   3.695 -1.3346 -0.4323  2.7240
 7341TIP3   OH221986   4.184   2.530   4.164  0.1976 -0.0065 -0.1652
 7341TIP3    H121987   4.204   2.437   4.177 -0.1414  0.0053  0.4365
 7341TIP3    H221988   4.173   2.539   4.069  0.8239 -0.4585 -0.2889
 7342TIP3   OH221989   4.590   3.313   2.292  0.3372 -0.3609  0.1219
 7342TIP3    H121990   4.597   3.409   2.299  1.5568 -0.3671 -0.6785
 7342TIP3    H221991   4.594   3.296   2.198 -1.3648 -1.1339  0.1538
 7343TIP3   OH221992   4.973   3.067   0.144  0.0003  0.3713  0.1316
 7343TIP3    H121993   5.013   3.018   0.071 -0.5201  0.3403 -0.1350
 7343TIP3    H221994   5.015   3.153   0.140 -0.2513  0.4719 -0.3992
 7344TIP3   OH221995   1.345   1.688   1.800  0.3522  0.3051 -0.3757
 7344TIP3    H121996   1.335   1.737   1.719 -1.8126  0.0362 -0.3245
 7344TIP3    H221997   1.323   1.597   1.777 -0.8880  0.3327  0.6022
 7345TIP3   OH221998   7.163   5.138   1.612  0.4987 -0.2843  0.0471
 7345TIP3    H121999   7.165   5.230   1.636 -1.3241  0.0968 -1.0215
 7345TIP3    H222000   7.243   5.101   1.649  0.9122  1.5597  1.1022
 7346TIP3   OH222001   6.969   5.422   4.349  0.2550  0.3645 -0.1813
 7346TIP3    H122002   7.050   5.380   4.319 -0.4493  1.0036 -3.2862
 7346TIP3    H222003   6.902   5.354   4.343  0.1078  0.4835  0.0757
 7347TIP3   OH222004   2.654   1.194   1.428 -0.3003 -0.4517 -0.3024
 7347TIP3    H122005   2.634   1.153   1.344  1.3058 -1.9119 -0.0379
 7347TIP3    H222006   2.572   1.235   1.456 -0.8263  0.1742 -2.6196
 7348TIP3   OH222007   4.019   5.536   1.100 -0.2520  0.0985  0.0259
 7348TIP3    H122008   3.966   5.487   1.163  0.0178  0.6238  0.6895
 7348TIP3    H222009   4.047   5.614   1.149  0.3922  0.2653 -0.5869
 7349TIP3   OH222010   0.991   4.228   0.290 -0.3889 -0.1416 -0.0253
 7349TIP3    H122011   0.905   4.216   0.330 -0.8858 -1.8211 -1.4670
 7349TIP3    H222012   1.044   4.268   0.359 -2.1460  0.3914  1.0894
 7350TIP3   OH222013   2.137   4.085   4.147 -0.3987 -0.4159  0.3831
 7350TIP3    H122014   2.204   4.030   4.107 -2.2466 -2.1355 -0.5476
 7350TIP3    H222015   2.072   4.023   4.181 -2.2883  1.1415 -0.1915
 7351TIP3   OH222016   5.261   1.205   5.304 -0.0051  0.2619 -0.4718
 7351TIP3    H122017   5.167   1.206   5.319  0.2831 -0.6956  1.8774
 7351TIP3    H222018   5.275   1.130   5.246 -0.5362 -0.9490  0.9030
 7352TIP3   OH222019   3.272   3.697   0.299  0.2960  0.1015  0.7806
 7352TIP3    H122020   3.224   3.735   0.225  1.0448 -1.0089 -0.3215
 7352TIP3    H222021   3.257   3.758   0.371  0.3159  1.7460 -0.5348
 7353TIP3   OH222022   3.935   5.448   0.861  0.0581 -0.9346 -0.0636
 7353TIP3    H122023   4.016   5.425   0.817  0.5297 -1.0372  0.8499
 7353TIP3    H222024   3.962   5.489   0.943 -0.7986 -0.0147 -0.2111
 7354TIP3   OH222025   0.320   3.461   1.246  0.1862  0.1066  0.3879
 7354TIP3    H122026   0.240   3.496   1.205  0.3017 -0.5487 -0.4210
 7354TIP3    H222027   0.388   3.525   1.224 -0.1427  0.7849  1.2700
 7355TIP3   OH222028   6.031   2.080   0.377 -0.0306  0.0574 -0.1495
 7355TIP3    H122029   6.061   1.990   0.373 -0.4029 -0.0425 -2.7008
 7355TIP3    H222030   5.962   2.080   0.443 -0.2972 -1.6312 -0.4007
 7356TIP3   OH222031   1.100   3.608   0.856 -0.1292  0.2287 -0.0321
 7356TIP3    H122032   1.069   3.685   0.903 -1.1466  0.3089 -0.7948
 7356TIP3    H222033   1.181   3.638   0.813  0.8523  0.1228  1.6820
 7357TIP3   OH222034   4.087   1.434   1.602  0.0851 -0.1368 -0.1211
 7357TIP3    H122035   4.164   1.491   1.596  0.3195 -0.5677 -1.8172
 7357TIP3    H222036   4.049   1.436   1.514 -2.4346  0.8249  0.9206
 7358TIP3   OH222037   3.886   1.795   1.884  0.0587  0.4570 -0.2476
 7358TIP3    H122038   3.845   1.879   1.904 -2.2931 -0.5832 -0.2463
 7358TIP3    H222039   3.843   1.733   1.943  1.1353 -0.8737 -0.8105
 7359TIP3   OH222040   0.522   6.460   1.718  0.6718 -0.2761 -0.0955
 7359TIP3    H122041   0.481   6.423   1.797 -1.8290  2.8217  0.2466
 7359TIP3    H222042   0.580   6.529   1.751  0.7358  0.0673 -0.8987
 7360TIP3   OH222043   3.197   0.480   1.512 -0.0824  0.3018 -0.1257
 7360TIP3    H122044   3.112   0.456   1.550  0.1227 -0.2582 -0.0096
 7360TIP3    H222045   3.231   0.398   1.476 -0.3104  0.8314 -1.6189
 7361TIP3   OH222046   6.878   5.178   4.168 -0.4876  0.1185  0.2200
 7361TIP3    H122047   6.905   5.206   4.080 -0.9830 -0.2202 -0.0463
 7361TIP3    H222048   6.798   5.127   4.153  0.2806 -1.2789  0.6955
 7362TIP3   OH222049   3.764   0.168   3.722 -0.5983  0.3714  0.4305
 7362TIP3    H122050   3.787   0.225   3.796  1.7164  0.1859 -0.0709
 7362TIP3    H222051   3.836   0.105   3.717 -0.8946  0.1283 -1.7380
 7363TIP3   OH222052   6.334   1.575   2.282 -0.1248 -0.0478  0.6764
 7363TIP3    H122053   6.340   1.485   2.315  2.3492  0.4250  1.7706
 7363TIP3    H222054   6.387   1.626   2.343  0.4544  1.7746 -1.2415
 7364TIP3   OH222055   6.803   4.424   3.669  0.0808 -0.1094  0.0209
 7364TIP3    H122056   6.726   4.475   3.644  0.3720  0.6126  0.5496
 7364TIP3    H222057   6.832   4.463   3.752  1.2241 -0.1415 -0.3445
 7365TIP3   OH222058   4.496   3.327   1.088  0.2549 -0.2241  0.4732
 7365TIP3    H122059   4.422   3.334   1.027 -1.3119  0.0363  2.2976
 7365TIP3    H222060   4.495   3.410   1.135  0.0347 -1.2201  2.3030
 7366TIP3   OH222061   0.341   2.490   1.599  0.1330 -0.5019  0.5098
 7366TIP3    H122062   0.351   2.409   1.649  1.9983 -0.1449  0.7750
 7366TIP3    H222063   0.375   2.559   1.656 -0.9004  0.4218  0.0675
 7367TIP3   OH222064   2.953   5.595   3.071 -0.5635  0.8415  0.4660
 7367TIP3    H122065   3.003   5.670   3.104 -1.9920  1.5500  1.0920
 7367TIP3    H222066   2.899   5.568   3.146 -1.6269  0.5511 -0.3875
 7368TIP3   OH222067   6.769   5.205   4.677 -0.4462  0.5255 -0.1443
 7368TIP3    H122068   6.688   5.166   4.711  0.6403 -1.0910  0.7098
 7368TIP3    H222069   6.739   5.278   4.623 -2.4254  0.7990  1.1974
 7369TIP3   OH222070   2.514   1.259   0.496  0.3390  0.1680 -0.4366
 7369TIP3    H122071   2.450   1.200   0.457 -0.9865  0.5809  1.0173
 7369TIP3    H222072   2.521   1.332   0.433  1.0516 -0.8827 -1.6302
 7370TIP3   OH222073   5.190   6.636   2.552 -0.2139 -0.6627 -0.2548
 7370TIP3    H122074   5.264   6.596   2.507  0.5822 -0.2138  0.6245
 7370TIP3    H222075   5.162   6.707   2.493  0.5634 -0.3351 -0.2379
 7371TIP3   OH222076   7.010   5.764   2.907  0.5570 -0.0017 -0.4090
 7371TIP3    H122077   7.044   5.841   2.860  1.2824  0.4039  0.7063
 7371TIP3    H222078   6.989   5.798   2.995 -1.7982 -0.4876 -0.7218
 7372TIP3   OH222079   1.708   2.956   4.308  0.1552  0.1471 -0.1316
 7372TIP3    H122080   1.789   2.981   4.352 -0.0492  0.2333  0.2018
 7372TIP3    H222081   1.641   2.962   4.376 -0.4325  1.8063 -0.7974
 7373TIP3   OH222082   6.760   5.824   1.954 -0.0904 -0.0570 -0.1159
 7373TIP3    H122083   6.804   5.909   1.952  0.0051 -0.1128 -0.4637
 7373TIP3    H222084   6.820   5.765   1.907 -0.9763  0.0805 -1.4742
 7374TIP3   OH222085   0.325   3.023   1.005  0.4045  0.2664  0.1211
 7374TIP3    H122086   0.274   3.063   0.935 -1.6061 -0.7510  0.9134
 7374TIP3    H222087   0.403   2.987   0.962 -0.3469  0.4247 -1.4242
 7375TIP3   OH222088   7.122   1.874   1.221 -0.0583 -0.1955 -0.3749
 7375TIP3    H122089   7.079   1.826   1.150 -0.2351 -2.5779  1.2161
 7375TIP3    H222090   7.059   1.873   1.293  1.4160 -1.0121  0.9768
 7376TIP3   OH222091   0.508   0.160   4.593  0.0760 -0.0356  0.3546
 7376TIP3    H122092   0.425   0.131   4.629  0.8251  0.0792  2.3029
 7376TIP3    H222093   0.529   0.239   4.643  2.7984 -1.7422  2.2048
 7377TIP3   OH222094   2.190   2.433   5.645 -0.0383  0.4633  0.3415
 7377TIP3    H122095   2.106   2.476   5.626 -1.1098 -1.4917  0.3797
 7377TIP3    H222096   2.205   2.376   5.570  2.1011  1.8970 -0.4118
 7378TIP3   OH222097   6.597   3.158   4.773  0.1508 -0.3154  0.2633
 7378TIP3    H122098   6.690   3.177   4.757 -0.2239  0.9086 -0.5689
 7378TIP3    H222099   6.571   3.221   4.839 -0.0632 -0.7623  0.6094
 7379TIP3   OH222100   6.875   1.182   4.981  0.5427 -0.5245  0.4219
 7379TIP3    H122101   6.932   1.105   4.979  1.2293 -0.0472  1.1151
 7379TIP3    H222102   6.809   1.162   5.047  0.5728 -0.6108  0.4257
 7380TIP3   OH222103   4.470   5.101   2.863 -0.3777  0.4701 -0.5145
 7380TIP3    H122104   4.414   5.028   2.887  0.5224  0.0694  0.4109
 7380TIP3    H222105   4.425   5.142   2.788 -0.8684 -1.0317 -1.0765
 7381TIP3   OH222106   2.595   3.178   2.270 -0.3766  0.2109  0.2708
 7381TIP3    H122107   2.600   3.137   2.183 -2.9966 -0.6352  0.4116
 7381TIP3    H222108   2.593   3.272   2.252 -0.3371  0.0604 -0.5557
 7382TIP3   OH222109   1.571   4.970   1.038 -0.6068 -0.2176  0.7079
 7382TIP3    H122110   1.610   5.057   1.042 -0.6117 -0.0121 -1.9168
 7382TIP3    H222111   1.641   4.911   1.066  1.3485  0.2546 -2.6047
 7383TIP3   OH222112   4.683   4.599   4.194 -0.4365 -0.0612 -0.3282
 7383TIP3    H122113   4.661   4.679   4.241  2.9451 -0.2100  1.7935
 7383TIP3    H222114   4.687   4.531   4.261  1.0845 -1.0607 -1.3555
 7384TIP3   OH222115   3.487   5.752   0.373  0.5395  0.0512  0.1887
 7384TIP3    H122116   3.475   5.718   0.285  3.3084 -1.9083  0.4446
 7384TIP3    H222117   3.537   5.833   0.361 -2.6088  2.1075 -0.1665
 7385TIP3   OH222118   0.521   1.354   1.594 -0.3167  1.2348  0.2601
 7385TIP3    H122119   0.513   1.280   1.534 -1.2484  2.1277 -0.7784
 7385TIP3    H222120   0.588   1.328   1.657 -0.5625 -0.4335 -0.1352
 7386TIP3   OH222121   3.869   1.983   2.833  0.4386  0.1609  0.1604
 7386TIP3    H122122   3.929   1.908   2.829  2.6294  1.8738 -1.2400
 7386TIP3    H222123   3.782   1.944   2.820  1.4747 -2.1466 -0.4019
 7387TIP3   OH222124   5.372   1.790   5.734  0.1735 -0.1747 -0.3823
 7387TIP3    H122125   5.300   1.734   5.704  0.4989  0.3087 -2.1976
 7387TIP3    H222126   5.417   1.738   5.800 -0.2139 -1.5998 -1.1940
 7388TIP3   OH222127   5.345   3.643   1.728 -0.1683  0.1573 -0.0895
 7388TIP3    H122128   5.362   3.565   1.675  3.1617  1.7456 -1.6295
 7388TIP3    H222129   5.402   3.633   1.804 -2.1043 -0.2873  1.3949
 7389TIP3   OH222130   2.430   3.340   4.508  0.0590 -0.4115 -0.6745
 7389TIP3    H122131   2.503   3.368   4.563  0.1585 -1.0514 -0.4590
 7389TIP3    H222132   2.357   3.330   4.570 -0.2861  0.4709 -0.9277
 7390TIP3   OH222133   3.924   2.340   3.909  0.4541  0.4533  0.0546
 7390TIP3    H122134   4.014   2.361   3.936  0.1098  0.6300  1.0952
 7390TIP3    H222135   3.883   2.426   3.897  0.0162  0.3808  0.9898
 7391TIP3   OH222136   4.173   4.702   2.498  0.1553 -0.0766 -0.1382
 7391TIP3    H122137   4.153   4.647   2.423  1.0920 -0.7544  0.0966
 7391TIP3    H222138   4.153   4.648   2.574  1.7514 -0.3811  0.0988
 7392TIP3   OH222139   5.774   2.571   4.216 -0.5471 -0.0173 -0.3830
 7392TIP3    H122140   5.747   2.532   4.133 -0.1178 -0.1838 -0.4449
 7392TIP3    H222141   5.831   2.505   4.256 -1.6071 -0.4166  0.5514
 7393TIP3   OH222142   2.981   0.402   1.615  0.4146 -0.4111  0.8048
 7393TIP3    H122143   2.995   0.307   1.620  0.4835 -0.3235  2.6008
 7393TIP3    H222144   2.936   0.424   1.696 -0.7317  0.9303 -0.1440
 7394TIP3   OH222145   4.924   6.612   4.480  0.3511  0.2352  0.6434
 7394TIP3    H122146   4.977   6.654   4.413  0.1357  0.4875  0.6271
 7394TIP3    H222147   4.847   6.668   4.488 -1.3565 -1.6375 -1.4080
 7395TIP3   OH222148   6.244   0.794   3.419 -0.1605 -0.5506 -0.0782
 7395TIP3    H122149   6.153   0.822   3.411 -0.5520 -1.0679  2.0929
 7395TIP3    H222150   6.241   0.699   3.411 -0.1667 -0.7947  2.2413
 7396TIP3   OH222151   3.315   0.937   5.322 -0.1537 -0.1347 -0.0732
 7396TIP3    H122152   3.389   0.985   5.286 -0.6494  0.1983 -0.6788
 7396TIP3    H222153   3.351   0.887   5.395  0.3858  1.0657  0.4881
 7397TIP3   OH222154   5.584   0.845   4.959  0.1375 -0.4796 -0.3890
 7397TIP3    H122155   5.593   0.778   4.891 -2.4529 -0.2502 -1.0851
 7397TIP3    H222156   5.670   0.850   4.999  1.4349 -1.5529 -2.7974
 7398TIP3   OH222157   3.979   0.004   3.256 -0.5846  0.0895  0.0964
 7398TIP3    H122158   4.041   0.075   3.274 -0.8286  0.9331 -2.1170
 7398TIP3    H222159   3.914   0.011   3.327 -0.7999  2.3328 -0.2468
 7399TIP3   OH222160   5.833   2.696   2.239 -0.1357  0.1083  0.0773
 7399TIP3    H122161   5.843   2.786   2.210 -0.5046 -0.1866 -1.0227
 7399TIP3    H222162   5.809   2.703   2.332 -2.0476  1.2309 -0.4398
 7400TIP3   OH222163   5.904   1.772   3.018  0.7984  0.2160  0.3960
 7400TIP3    H122164   5.980   1.830   3.018 -0.0796  1.4185 -0.7612
 7400TIP3    H222165   5.855   1.795   3.097  0.3572  1.2113 -0.1566
 7401TIP3   OH222166   5.674   1.457   5.592 -0.3394  0.1275  0.0146
 7401TIP3    H122167   5.606   1.496   5.647 -3.1150 -0.0068 -3.0024
 7401TIP3    H222168   5.644   1.368   5.575  2.4344 -1.1917  1.2494
 7402TIP3   OH222169   1.936   4.458   4.583  0.0940  0.3637 -0.2108
 7402TIP3    H122170   1.890   4.393   4.532  1.8215  0.7751 -2.4560
 7402TIP3    H222171   1.929   4.539   4.532 -0.0565  1.3921  1.3635
 7403TIP3   OH222172   4.690   5.843   3.244 -0.3952 -0.3213  0.3261
 7403TIP3    H122173   4.663   5.917   3.299 -0.2917  0.5836 -0.7895
 7403TIP3    H222174   4.770   5.810   3.285  1.2634  2.0855 -0.7138
 7404TIP3   OH222175   5.811   5.162   3.661 -0.5065 -0.1270  0.3953
 7404TIP3    H122176   5.812   5.258   3.652 -0.5211 -0.2116 -0.6364
 7404TIP3    H222177   5.881   5.143   3.723 -1.2679  0.6252  1.5296
 7405TIP3   OH222178   0.720   4.706   5.467  0.2047  1.2034 -0.3287
 7405TIP3    H122179   0.695   4.744   5.551 -0.6973  0.1784 -0.1000
 7405TIP3    H222180   0.637   4.695   5.420  0.6944  1.7627 -1.3727
 7406TIP3   OH222181   3.126   3.803   0.055 -0.1493 -1.0736  0.3284
 7406TIP3    H122182   3.196   3.832  -0.003  1.8630 -2.6632  1.8281
 7406TIP3    H222183   3.059   3.768  -0.004  0.4418  0.1662 -1.1303
 7407TIP3   OH222184   0.765   6.629   0.317 -0.2697  0.5165  0.1276
 7407TIP3    H122185   0.715   6.567   0.370 -0.8657  0.3422 -0.6201
 7407TIP3    H222186   0.778   6.704   0.375  1.5447 -0.7520  1.4947
 7408TIP3   OH222187   6.613   0.096   0.125 -0.5745  0.1662 -0.1988
 7408TIP3    H122188   6.665   0.106   0.045  0.2967  2.5566  0.5977
 7408TIP3    H222189   6.539   0.156   0.113 -0.7322  0.1325  0.5637
 7409TIP3   OH222190   5.040   1.465   1.733  0.1079 -0.4629  0.4545
 7409TIP3    H122191   5.055   1.371   1.744  0.2684 -0.4423  0.4195
 7409TIP3    H222192   4.950   1.472   1.703  0.1037 -0.6069  0.4331
 7410TIP3   OH222193   5.211   5.102   0.825  0.2720  0.4705  0.4979
 7410TIP3    H122194   5.167   5.168   0.879 -1.2702  1.3535 -1.7239
 7410TIP3    H222195   5.206   5.022   0.877 -0.6247  1.3931  1.9157
 7411TIP3   OH222196   0.054   2.130   0.335  0.3175  0.1591 -0.1020
 7411TIP3    H122197  -0.038   2.105   0.328  0.8263 -1.3371 -2.5508
 7411TIP3    H222198   0.072   2.177   0.253  1.7905  0.2727  0.2622
 7412TIP3   OH222199   3.237   0.364   5.849  0.0244  0.8030 -0.3064
 7412TIP3    H122200   3.191   0.290   5.809 -0.3507  0.6785  0.3363
 7412TIP3    H222201   3.325   0.360   5.812  0.4576 -0.8456  0.7560
 7413TIP3   OH222202   6.028   4.431   0.222 -0.1760  1.3397 -0.5526
 7413TIP3    H122203   5.943   4.435   0.266  0.7059  1.2621  1.2690
 7413TIP3    H222204   6.076   4.506   0.256  1.9186 -0.8487  1.7424
 7414TIP3   OH222205   2.658   0.538   4.011  0.0828  0.3446  0.0297
 7414TIP3    H122206   2.579   0.493   4.042  0.0589  0.9814  0.9192
 7414TIP3    H222207   2.641   0.630   4.027  0.9344  0.5064  0.0296
 7415TIP3   OH222208   0.964   0.908   3.877 -0.2965 -0.1430  0.5452
 7415TIP3    H122209   0.995   0.938   3.792  0.9400 -2.0802  0.2650
 7415TIP3    H222210   1.040   0.865   3.917 -1.7098 -2.1691  1.2158
 7416TIP3   OH222211   3.054   4.711   2.489  0.3685  0.7613 -0.0236
 7416TIP3    H122212   3.132   4.756   2.519  1.1967 -0.4257 -0.3245
 7416TIP3    H222213   3.011   4.681   2.569 -0.1690  1.9865  0.1783
 7417TIP3   OH222214   1.360   1.392   3.446  0.1095  0.5190 -0.0616
 7417TIP3    H122215   1.335   1.453   3.516 -1.0512 -0.1980  0.1802
 7417TIP3    H222216   1.455   1.403   3.437  0.4011  0.2230  2.0530
 7418TIP3   OH222217   4.988   2.684   1.561 -0.1736 -0.2059 -0.6466
 7418TIP3    H122218   4.974   2.623   1.633 -0.0226 -0.1789 -0.5945
 7418TIP3    H222219   4.973   2.771   1.600  0.2497 -0.1700 -0.5643
 7419TIP3   OH222220   0.141   5.346   4.116 -0.4525 -0.1055 -0.3772
 7419TIP3    H122221   0.098   5.389   4.041 -0.3985  0.3301 -0.1649
 7419TIP3    H222222   0.093   5.264   4.127  0.4306 -0.8597 -1.7777
 7420TIP3   OH222223   3.086   0.685   0.896 -0.7427  0.5219  0.0131
 7420TIP3    H122224   3.143   0.633   0.840 -1.8137  0.1355 -0.7622
 7420TIP3    H222225   3.066   0.763   0.844 -0.4059  0.9608  0.5361
 7421TIP3   OH222226   6.090   2.359   1.349 -0.8677 -0.1033  0.0443
 7421TIP3    H122227   6.089   2.309   1.268  3.5629 -1.1837  0.4082
 7421TIP3    H222228   6.078   2.294   1.418 -0.2480  0.0969  0.3526
 7422TIP3   OH222229   0.535   3.782   4.073 -0.0075 -0.5987 -0.2638
 7422TIP3    H122230   0.621   3.786   4.116  0.3937 -1.6769 -0.9315
 7422TIP3    H222231   0.487   3.716   4.122 -0.1760 -0.5772 -0.4002
 7423TIP3   OH222232   1.191   2.130   0.517  0.2562 -0.1042  0.1724
 7423TIP3    H122233   1.231   2.045   0.532 -1.7361 -1.1910 -0.2435
 7423TIP3    H222234   1.174   2.131   0.422  1.3139  1.2789 -0.0280
 7424TIP3   OH222235   4.834   2.550   2.659  0.1017 -0.0224 -0.0360
 7424TIP3    H122236   4.761   2.568   2.720  0.7188  0.2467  0.6384
 7424TIP3    H222237   4.820   2.611   2.587 -0.2196  0.1840  0.1938
 7425TIP3   OH222238   6.305   3.018   0.914 -0.6925 -0.0418  0.4481
 7425TIP3    H122239   6.307   3.112   0.898 -1.5127 -0.1265 -0.1889
 7425TIP3    H222240   6.350   2.980   0.838  2.6593 -0.0251  2.2351
 7426TIP3   OH222241   3.809   0.954   2.194  0.1896 -0.4889  0.2801
 7426TIP3    H122242   3.844   1.038   2.164 -0.5857 -0.6099 -1.0404
 7426TIP3    H222243   3.878   0.891   2.177 -0.0209 -0.4554 -0.7640
 7427TIP3   OH222244   1.397   1.327   0.864  0.1777 -0.3374 -0.1061
 7427TIP3    H122245   1.359   1.249   0.825 -1.6751  0.1071  0.7168
 7427TIP3    H222246   1.408   1.305   0.957  1.0414 -0.1202 -0.1511
 7428TIP3   OH222247   5.481   5.279   3.107 -0.6868  0.0462  0.0686
 7428TIP3    H122248   5.404   5.231   3.137 -1.0192  0.7966  0.4633
 7428TIP3    H222249   5.534   5.291   3.186  0.3879 -1.4172 -0.4006
 7429TIP3   OH222250   3.906   2.138   4.647 -0.3402  0.0198  0.2396
 7429TIP3    H122251   3.837   2.115   4.710 -0.6938  2.4581  0.8303
 7429TIP3    H222252   3.859   2.155   4.565 -0.1260 -0.8241 -0.0743
 7430TIP3   OH222253   2.666   0.326   2.950  0.1761 -0.3926 -0.5302
 7430TIP3    H122254   2.654   0.253   3.011 -1.3082 -2.6724 -3.3008
 7430TIP3    H222255   2.759   0.325   2.928  0.4246 -0.5452  0.5055
 7431TIP3   OH222256   6.716   2.749   4.357  0.1457 -0.4407  0.2645
 7431TIP3    H122257   6.662   2.739   4.435 -0.5633  0.5908 -0.0634
 7431TIP3    H222258   6.801   2.781   4.390  0.6885 -2.3391  0.8060
 7432TIP3   OH222259   7.110   0.865   3.019  0.3688  0.2694 -0.8669
 7432TIP3    H122260   7.180   0.912   2.974  0.2554  1.2612 -0.0325
 7432TIP3    H222261   7.070   0.811   2.950  1.2656  0.4900 -1.5809
 7433TIP3   OH222262   4.652   3.890   3.430  1.0114  0.0071 -1.2172
 7433TIP3    H122263   4.561   3.859   3.432  1.1210 -0.2909 -0.6109
 7433TIP3    H222264   4.704   3.812   3.447  1.3139  0.4192 -0.1237
 7434TIP3   OH222265   3.273   4.676   3.213  0.2575  0.5870  0.2068
 7434TIP3    H122266   3.240   4.758   3.178  0.6301  0.9287  0.6387
 7434TIP3    H222267   3.363   4.695   3.238  0.2345  0.1501  0.6473
 7435TIP3   OH222268   0.708   0.870   5.662 -0.4342 -0.1746  0.3215
 7435TIP3    H122269   0.768   0.888   5.735  0.3261  2.5823 -0.8446
 7435TIP3    H222270   0.762   0.882   5.584 -1.9681  0.1209 -0.7334
 7436TIP3   OH222271   6.348   5.646   2.743 -0.6718  0.0869 -0.1829
 7436TIP3    H122272   6.409   5.616   2.677  0.6218  2.4804 -0.1847
 7436TIP3    H222273   6.388   5.725   2.780 -2.8524  0.6687  1.1883
 7437TIP3   OH222274   3.508   5.911   2.791 -0.4402  0.3552  0.1197
 7437TIP3    H122275   3.456   5.991   2.801 -0.6591  0.3175 -0.6444
 7437TIP3    H222276   3.507   5.870   2.877  0.4943  1.6738  0.8039
 7438TIP3   OH222277   6.093   0.538   2.966  0.2073 -0.8368  0.3606
 7438TIP3    H122278   6.109   0.495   2.882 -0.8945  0.3699 -0.5107
 7438TIP3    H222279   6.121   0.628   2.953  0.0548 -0.6388  1.3047
 7439TIP3   OH222280   3.900   2.462   3.272  0.2624  0.3616 -0.0515
 7439TIP3    H122281   3.838   2.521   3.316 -0.1911 -0.2885  0.1909
 7439TIP3    H222282   3.845   2.393   3.235  0.8657 -0.4213  0.4758
 7440TIP3   OH222283   3.076   6.227   3.274  0.1410 -0.1153  0.1199
 7440TIP3    H122284   3.103   6.190   3.190 -1.0711 -2.4365  0.6682
 7440TIP3    H222285   2.992   6.186   3.293  0.1990  0.6251  2.2961
 7441TIP3   OH222286   3.019   4.372   1.873  0.1950  0.0520  0.4635
 7441TIP3    H122287   3.074   4.407   1.803 -1.0121  0.8391 -0.1145
 7441TIP3    H222288   3.000   4.447   1.929 -1.4571  0.1364 -0.1480
 7442TIP3   OH222289   6.998   6.232   1.752  0.4353 -0.0158  0.0567
 7442TIP3    H122290   7.001   6.296   1.681  0.7526  0.9053  0.8773
 7442TIP3    H222291   6.975   6.283   1.830 -0.9963 -1.1674  0.4498
 7443TIP3   OH222292   3.729   4.878   5.635 -0.0961 -0.7673  0.2972
 7443TIP3    H122293   3.677   4.952   5.605  1.2714  0.7587  1.4879
 7443TIP3    H222294   3.699   4.861   5.724  0.7196 -0.5382  0.6265
 7444TIP3   OH222295   0.001   5.052   1.052  0.1903  0.0365 -0.4680
 7444TIP3    H122296  -0.008   5.120   0.985 -0.6067 -0.0565 -0.4693
 7444TIP3    H222297   0.007   4.970   1.002  0.3265  0.0289 -0.4405
 7445TIP3   OH222298   1.419   6.154   0.335 -0.4092  0.5559 -0.0921
 7445TIP3    H122299   1.421   6.163   0.430 -0.0466  1.3740 -0.1758
 7445TIP3    H222300   1.454   6.236   0.302 -2.3851  1.1068 -0.9730
 7446TIP3   OH222301   2.240   2.457   5.195  0.3212  0.3987  0.1328
 7446TIP3    H122302   2.334   2.471   5.195  0.7125 -1.6062  1.6623
 7446TIP3    H222303   2.208   2.501   5.117  2.4601  1.4272 -0.2285
 7447TIP3   OH222304   6.935   4.246   2.717  0.4763 -0.1555  0.5413
 7447TIP3    H122305   6.950   4.341   2.723 -0.1527 -0.1188  2.1063
 7447TIP3    H222306   6.940   4.227   2.624 -0.1168  1.5566  0.1165
 7448TIP3   OH222307   0.410   0.891   3.134  0.2148 -0.6100 -0.3355
 7448TIP3    H122308   0.328   0.928   3.168  0.8106  0.5468 -0.0934
 7448TIP3    H222309   0.424   0.812   3.186  0.9726  0.9834  2.0657
 7449TIP3   OH222310   6.588   5.525   4.323  0.4433 -0.2640  0.1618
 7449TIP3    H122311   6.654   5.564   4.266 -1.3817  0.2476 -1.7279
 7449TIP3    H222312   6.520   5.494   4.263 -1.9327  0.9512  2.0471
 7450TIP3   OH222313   1.313   1.556   1.522 -0.7875 -0.4806 -0.6989
 7450TIP3    H122314   1.379   1.491   1.549  1.0124  1.9039  1.0462
 7450TIP3    H222315   1.243   1.547   1.587  0.5012  0.7634  0.9414
 7451TIP3   OH222316   5.578   5.612   3.073  0.3591  0.2840  0.3528
 7451TIP3    H122317   5.615   5.583   3.156 -0.6162 -0.0615  0.6766
 7451TIP3    H222318   5.624   5.561   3.007  1.7109  1.1278  0.6035
 7452TIP3   OH222319   0.540   0.079   4.987 -0.2281 -0.3205 -0.8589
 7452TIP3    H122320   0.482   0.003   4.996 -1.2200  0.5502  0.4092
 7452TIP3    H222321   0.591   0.061   4.907 -1.0738 -1.8782 -1.0830
 7453TIP3   OH222322   5.852   6.169   1.542  0.1871 -0.3027  0.1152
 7453TIP3    H122323   5.858   6.104   1.472 -0.7177 -0.0746 -0.1935
 7453TIP3    H222324   5.837   6.252   1.496  2.5461  0.3570  0.4352
 7454TIP3   OH222325   6.156   5.443   2.042  0.3049 -0.6448 -0.4549
 7454TIP3    H122326   6.222   5.511   2.029 -1.5077  1.1152 -0.9999
 7454TIP3    H222327   6.205   5.361   2.041  2.4725  0.5835 -0.6790
 7455TIP3   OH222328   4.782   1.740   0.523  0.7739  0.1233  0.2003
 7455TIP3    H122329   4.744   1.740   0.611  0.3549  0.2110  0.0237
 7455TIP3    H222330   4.832   1.659   0.518 -1.8577 -1.5727 -0.5970
 7456TIP3   OH222331   2.392   1.103   2.782  0.2872  0.3347 -0.0825
 7456TIP3    H122332   2.384   1.097   2.877  1.6897  0.2186  0.0420
 7456TIP3    H222333   2.326   1.043   2.749 -0.5993  0.7848  0.7948
 7457TIP3   OH222334   6.034   2.010   2.889 -0.1448 -0.2495  0.1250
 7457TIP3    H122335   6.110   2.045   2.936  0.8252 -1.7579 -0.2449
 7457TIP3    H222336   6.061   2.009   2.797  0.0215 -2.1768  0.1405
 7458TIP3   OH222337   0.297   4.154   1.802  0.1499  0.5047 -0.0182
 7458TIP3    H122338   0.382   4.143   1.844 -1.6364  0.4457  4.0581
 7458TIP3    H222339   0.265   4.065   1.789  0.1223  0.5305 -0.1224
 7459TIP3   OH222340   4.847   6.366   0.537 -0.3843 -0.0958 -0.5116
 7459TIP3    H122341   4.933   6.325   0.536 -0.7292 -0.8649  0.2013
 7459TIP3    H222342   4.865   6.459   0.556  0.2134 -0.4996  1.0839
 7460TIP3   OH222343   4.827   5.151   4.546 -0.4216 -0.3071 -0.9028
 7460TIP3    H122344   4.777   5.196   4.614  0.3060  1.7307 -1.6457
 7460TIP3    H222345   4.909   5.128   4.588 -0.4285 -0.0941 -0.7729
 7461TIP3   OH222346   4.444   4.546   2.156  0.2000  0.1931 -0.6054
 7461TIP3    H122347   4.467   4.455   2.134  2.0719  0.9730 -2.1568
 7461TIP3    H222348   4.514   4.598   2.118 -1.7771  2.4614 -1.3644
 7462TIP3   OH222349   2.015   6.089   0.105  0.7983  0.2812  0.1865
 7462TIP3    H122350   2.010   6.183   0.122  1.5122  0.6309 -1.3738
 7462TIP3    H222351   1.937   6.071   0.051  1.2080  0.1908 -0.3806
 7463TIP3   OH222352   1.325   5.388   3.535  0.1512  0.0194  0.2527
 7463TIP3    H122353   1.399   5.331   3.557  1.4261  0.8520 -1.6394
 7463TIP3    H222354   1.256   5.327   3.507  0.6138 -0.7017  0.6358
 7464TIP3   OH222355   6.271   6.743   0.747 -0.5281 -0.4769 -0.2938
 7464TIP3    H122356   6.217   6.709   0.819 -2.3845  1.9590 -0.3905
 7464TIP3    H222357   6.316   6.818   0.785 -0.7515  0.2303 -1.3851
 7465TIP3   OH222358   5.429   1.215   2.975  0.1120  0.0920 -0.5336
 7465TIP3    H122359   5.389   1.132   2.946  0.4306  0.2222 -1.3800
 7465TIP3    H222360   5.440   1.265   2.894  1.8318  0.1316 -0.3022
 7466TIP3   OH222361   4.285   1.911   0.983  0.1904 -0.1029  0.9578
 7466TIP3    H122362   4.376   1.890   0.962  0.4036  2.3179 -1.1417
 7466TIP3    H222363   4.234   1.841   0.942  1.0387  0.1189 -0.5946
 7467TIP3   OH222364   4.686   5.088   1.513 -0.5262 -0.0706  0.1051
 7467TIP3    H122365   4.610   5.101   1.458 -1.2083 -1.0496  0.7796
 7467TIP3    H222366   4.683   5.160   1.576  0.0645  0.8521 -0.8884
 7468TIP3   OH222367   5.477   1.558   0.930  0.8122  0.3949 -0.5181
 7468TIP3    H122368   5.451   1.475   0.890 -2.8571  0.7707  0.7017
 7468TIP3    H222369   5.448   1.625   0.868 -1.1688  0.8354  0.7847
 7469TIP3   OH222370   0.244   6.686   0.740  0.0021 -0.1809  0.0490
 7469TIP3    H122371   0.153   6.714   0.752  0.7521  2.2063  0.9097
 7469TIP3    H222372   0.270   6.724   0.656  0.4601 -0.0080  0.2633
 7470TIP3   OH222373   7.126   2.732   3.604  0.4494 -0.8578 -0.1786
 7470TIP3    H122374   7.067   2.680   3.550 -0.1651 -0.0725 -0.2830
 7470TIP3    H222375   7.096   2.716   3.694 -0.9759  0.7405 -0.3120
 7471TIP3   OH222376   1.286   3.230   5.234 -0.1171  0.2504  0.8223
 7471TIP3    H122377   1.289   3.239   5.330 -0.9027 -0.6750  0.9537
 7471TIP3    H222378   1.376   3.212   5.209  0.0272  0.0780  1.4452
 7472TIP3   OH222379   2.450   3.571   4.877  0.0471 -0.4708 -0.6531
 7472TIP3    H122380   2.470   3.635   4.944  0.7478 -1.5808  0.2316
 7472TIP3    H222381   2.379   3.610   4.826  0.4997  1.0048 -0.1784
 7473TIP3   OH222382   6.487   3.735   2.583 -0.0392  0.3197  0.4999
 7473TIP3    H122383   6.569   3.709   2.541  1.6519  2.4903  2.2312
 7473TIP3    H222384   6.510   3.812   2.635 -3.1624  0.8855  1.2248
 7474TIP3   OH222385   1.521   3.592   2.772 -0.2820 -0.3143 -0.2651
 7474TIP3    H122386   1.430   3.576   2.749 -0.2343  0.5075 -1.1122
 7474TIP3    H222387   1.571   3.552   2.701 -0.0561  0.4973 -0.5837
 7475TIP3   OH222388   1.164   1.868   1.913 -0.0149 -0.0561 -0.0423
 7475TIP3    H122389   1.222   1.804   1.873 -0.0907 -0.1737  0.0366
 7475TIP3    H222390   1.076   1.842   1.885  0.1686  2.3503 -3.4594
 7476TIP3   OH222391   1.648   0.688   0.073 -0.7509  0.2978 -0.0733
 7476TIP3    H122392   1.679   0.778   0.061 -2.0430  0.6179 -1.1340
 7476TIP3    H222393   1.567   0.683   0.023 -0.6775 -1.4846 -0.0685
 7477TIP3   OH222394   1.451   6.066   5.492  0.9690 -0.3275 -0.1343
 7477TIP3    H122395   1.461   6.145   5.546 -0.2481 -0.2140 -0.0602
 7477TIP3    H222396   1.357   6.050   5.490  1.0902 -0.9822 -1.3068
 7478TIP3   OH222397   4.632   4.825   3.931 -0.0281  0.2255 -0.4492
 7478TIP3    H122398   4.627   4.920   3.936 -0.1921  0.2188 -0.4915
 7478TIP3    H222399   4.636   4.796   4.022  1.3362  0.3411 -0.4543
 7479TIP3   OH222400   0.636   2.016   0.991  0.3312  0.2796 -0.3989
 7479TIP3    H122401   0.642   2.095   1.044  0.9488 -0.4635  0.6630
 7479TIP3    H222402   0.612   1.947   1.053 -0.2402 -0.3676 -1.3140
 7480TIP3   OH222403   4.852   3.646   0.912 -0.0267  0.5321 -0.1224
 7480TIP3    H122404   4.877   3.558   0.886 -0.1030 -0.1174  1.8219
 7480TIP3    H222405   4.857   3.697   0.831  0.5763 -1.1075 -1.1844
 7481TIP3   OH222406   4.313   3.081   1.229  0.1349  0.5893 -0.2661
 7481TIP3    H122407   4.375   3.081   1.157  1.0789 -1.6101  0.4424
 7481TIP3    H222408   4.366   3.101   1.306  0.1107 -1.4851  0.3732
 7482TIP3   OH222409   0.991   1.468   3.073  0.0943 -0.0392  0.1995
 7482TIP3    H122410   1.060   1.443   3.134 -0.0373  0.1402  0.4255
 7482TIP3    H222411   0.949   1.544   3.114  0.0255  0.1043 -0.1296
 7483TIP3   OH222412   2.231   5.466   0.432  0.3123 -0.1655  0.4873
 7483TIP3    H122413   2.154   5.518   0.408  2.2992  2.3018 -1.0320
 7483TIP3    H222414   2.243   5.482   0.525 -1.0867 -0.7708  0.7981
 7484TIP3   OH222415   5.545   3.696   2.981 -0.1675  0.0100 -0.0321
 7484TIP3    H122416   5.461   3.692   3.028  0.4284  1.5268  1.2596
 7484TIP3    H222417   5.593   3.620   3.010 -0.8616 -0.5656 -0.3484
 7485TIP3   OH222418   4.542   3.251   3.029 -0.0259 -0.1131  0.9633
 7485TIP3    H122419   4.626   3.280   2.992 -1.0528  1.0184 -0.6607
 7485TIP3    H222420   4.488   3.231   2.952 -2.0297  1.5728  1.8312
 7486TIP3   OH222421   4.489   3.402   3.742 -0.4537  0.1326  0.5032
 7486TIP3    H122422   4.428   3.338   3.778 -0.7252  0.5648  0.8085
 7486TIP3    H222423   4.437   3.481   3.729 -0.2684  0.1010 -0.4783
 7487TIP3   OH222424   3.936   3.709   3.378  0.4145 -0.1679 -0.0409
 7487TIP3    H122425   3.943   3.805   3.372  0.6020 -0.2733 -2.0370
 7487TIP3    H222426   3.887   3.694   3.460  0.6590  1.6075  0.4706
 7488TIP3   OH222427   3.819   4.785   0.634 -0.1797  0.1051  0.1957
 7488TIP3    H122428   3.749   4.721   0.647 -0.1248  0.2708  1.4351
 7488TIP3    H222429   3.775   4.869   0.635 -0.1741  0.1310 -0.8274
 7489TIP3   OH222430   4.518   5.471   1.023  0.6860  0.2165 -0.3522
 7489TIP3    H122431   4.502   5.392   1.076  0.1360  1.4802  1.4680
 7489TIP3    H222432   4.455   5.535   1.056  0.9606  1.3647 -1.9569
 7490TIP3   OH222433   5.521   1.240   2.270 -0.3329 -0.6010  0.4531
 7490TIP3    H122434   5.567   1.264   2.190 -0.9579 -0.6769  0.0638
 7490TIP3    H222435   5.583   1.184   2.317  0.2419 -0.1184  0.2807
 7491TIP3   OH222436   0.714   5.514   1.099 -0.1418  0.0773 -0.3961
 7491TIP3    H122437   0.708   5.581   1.031 -1.7244  0.3710 -0.0002
 7491TIP3    H222438   0.757   5.557   1.172  0.0092  0.2645 -0.5940
 7492TIP3   OH222439   6.935   5.315   2.933  0.3778 -0.1845 -1.0470
 7492TIP3    H122440   6.997   5.252   2.972  1.1876 -0.2917 -2.4586
 7492TIP3    H222441   6.991   5.383   2.895 -0.4750  1.1522  0.0064
 7493TIP3   OH222442   4.307   4.712   4.954 -0.1161 -0.2264 -0.4432
 7493TIP3    H122443   4.277   4.634   5.000 -1.1209  0.6027  0.3649
 7493TIP3    H222444   4.234   4.735   4.896 -0.1764  0.5620 -0.0739
 7494TIP3   OH222445   6.233   0.758   0.430 -0.3553  0.4142 -0.3944
 7494TIP3    H122446   6.152   0.761   0.379 -0.2958  3.1002 -0.4675
 7494TIP3    H222447   6.215   0.809   0.508  0.4553 -1.2780  0.9823
 7495TIP3   OH222448   4.963   4.966   2.406 -0.0958 -0.1978 -0.7302
 7495TIP3    H122449   4.924   4.912   2.475  0.9957  0.7419  0.6847
 7495TIP3    H222450   4.911   5.046   2.407  0.3346  0.0817 -0.5314
 7496TIP3   OH222451   0.574   3.955   3.317  0.5012  0.0499 -0.0716
 7496TIP3    H122452   0.654   3.970   3.367  0.9277 -0.6187 -0.5348
 7496TIP3    H222453   0.503   3.984   3.375  0.7278 -3.4404  2.2404
 7497TIP3   OH222454   1.953   5.913   3.162 -0.1453  0.5315  0.2500
 7497TIP3    H122455   1.892   5.987   3.171 -2.5184 -1.4385  1.5946
 7497TIP3    H222456   1.957   5.896   3.068 -3.8217 -0.8403  0.2115
 7498TIP3   OH222457   4.144   3.281   0.022  0.6191 -0.2381  0.5062
 7498TIP3    H122458   4.105   3.309   0.105 -0.1098 -1.7848  0.7365
 7498TIP3    H222459   4.079   3.222  -0.016  1.2221 -0.0644 -0.8689
 7499TIP3   OH222460   4.242   5.154   4.780 -0.6068 -0.5739 -0.6059
 7499TIP3    H122461   4.243   5.198   4.695  0.4801 -3.4664 -2.2269
 7499TIP3    H222462   4.156   5.111   4.783 -1.2148  0.6420  0.4606
 7500TIP3   OH222463   3.109   4.657   3.412 -0.0595  1.0506  0.3782
 7500TIP3    H122464   3.168   4.663   3.337  0.6849 -0.5426  0.7884
 7500TIP3    H222465   3.027   4.697   3.382 -0.2479 -0.7657 -1.7875
 7501TIP3   OH222466   1.679   4.108   5.457  0.0710 -0.4528  0.0892
 7501TIP3    H122467   1.624   4.114   5.379 -1.7243 -1.8872  1.1913
 7501TIP3    H222468   1.699   4.199   5.479 -1.5250  0.0827 -0.5696
 7502TIP3   OH222469   2.950   4.285   4.310  0.5905  0.0798 -0.1820
 7502TIP3    H122470   2.869   4.296   4.360  0.8263 -0.1768  0.2659
 7502TIP3    H222471   2.928   4.220   4.243 -0.4445  2.2072 -2.0427
 7503TIP3   OH222472   6.650   0.464   5.803 -0.1947  0.7216  0.3709
 7503TIP3    H122473   6.744   0.449   5.795 -0.3638 -0.2577  0.0386
 7503TIP3    H222474   6.635   0.476   5.897  0.2602  0.9055  0.4226
 7504TIP3   OH222475   4.073   2.221   2.519 -0.5145 -0.1162  0.0739
 7504TIP3    H122476   3.980   2.199   2.527 -0.8295  0.8209 -0.8471
 7504TIP3    H222477   4.074   2.314   2.500  0.5977 -0.2062 -0.3529
 7505TIP3   OH222478   0.685   5.743   5.456 -0.2647 -0.4691 -0.0680
 7505TIP3    H122479   0.709   5.739   5.549  0.1859 -1.1155 -0.2065
 7505TIP3    H222480   0.601   5.697   5.452 -1.0905  0.9595  0.2649
 7506TIP3   OH222481   5.237   4.867   3.233 -0.1316 -0.5118  0.6457
 7506TIP3    H122482   5.309   4.865   3.171 -0.7022  2.3319 -0.2671
 7506TIP3    H222483   5.262   4.806   3.302  2.0707 -1.2654 -0.7372
 7507TIP3   OH222484   2.162   4.951   1.072 -0.3475 -0.3277  0.1371
 7507TIP3    H122485   2.237   4.897   1.044 -0.2741 -0.3413  0.3602
 7507TIP3    H222486   2.175   5.034   1.026 -1.9724 -1.3931 -2.5263
 7508TIP3   OH222487   3.992   6.019   5.712 -0.0068 -0.2037  0.0011
 7508TIP3    H122488   3.947   5.963   5.776 -0.1424 -0.2182 -0.1069
 7508TIP3    H222489   3.982   6.108   5.746 -1.0500 -0.0865 -0.5769
 7509TIP3   OH222490   5.673   2.872   3.323  0.1528  0.0801  0.0346
 7509TIP3    H122491   5.642   2.786   3.295 -1.6931  0.6242  0.2520
 7509TIP3    H222492   5.598   2.930   3.310  0.6358  1.2245  1.8920
 7510TIP3   OH222493   7.063   3.688   4.199 -0.0760  0.1343  0.4135
 7510TIP3    H122494   7.140   3.665   4.252  1.3221  0.6058 -1.2980
 7510TIP3    H222495   7.024   3.604   4.176 -1.1285 -0.0648  2.6804
 7511TIP3   OH222496   5.101   2.748   0.238 -0.5916  0.1474  0.0590
 7511TIP3    H122497   5.024   2.789   0.277 -0.1348  0.1968  0.9357
 7511TIP3    H222498   5.127   2.808   0.168 -1.1767  0.2725 -0.0577
 7512TIP3   OH222499   6.846   5.894   0.633 -0.1469  0.0884 -0.1419
 7512TIP3    H122500   6.789   5.899   0.710 -2.7881 -2.1474 -1.7380
 7512TIP3    H222501   6.917   5.835   0.659 -0.1546  0.5594  0.9963
 7513TIP3   OH222502   1.575   1.655   4.512  0.0183 -0.1894 -0.0371
 7513TIP3    H122503   1.559   1.657   4.418 -0.2120 -1.4280 -0.0384
 7513TIP3    H222504   1.671   1.651   4.519  0.1667  2.0314 -0.1429
 7514TIP3   OH222505   2.844   1.927   2.273  0.2831 -0.0752  0.2450
 7514TIP3    H122506   2.811   1.960   2.357 -0.7877 -0.0173 -0.1731
 7514TIP3    H222507   2.929   1.889   2.294  1.3030  2.3686  0.8688
 7515TIP3   OH222508   1.033   4.031   3.009 -0.1774  0.0726  0.8806
 7515TIP3    H122509   0.964   3.966   2.999  1.6900 -2.1120  1.3748
 7515TIP3    H222510   1.075   4.036   2.923 -2.0501  2.8900 -0.0179
 7516TIP3   OH222511   2.153   5.671   4.609 -0.5487  0.0682  0.0556
 7516TIP3    H122512   2.236   5.626   4.596 -0.2737  0.1841  1.2879
 7516TIP3    H222513   2.158   5.749   4.554 -0.2879 -0.4729 -0.6962
 7517TIP3   OH222514   4.796   2.335   1.674 -0.4127 -0.3951 -0.1166
 7517TIP3    H122515   4.879   2.318   1.629  0.0004  1.8929 -0.3557
 7517TIP3    H222516   4.734   2.352   1.603 -0.6050 -0.1897  0.0986
 7518TIP3   OH222517   2.976   5.428   1.737  0.2769  0.1893  0.4716
 7518TIP3    H122518   3.018   5.487   1.800 -1.1255 -0.4100  2.0622
 7518TIP3    H222519   3.049   5.390   1.687  1.4092  1.1204  1.3510
 7519TIP3   OH222520   6.136   2.956   4.654  0.1118  0.6698  0.4305
 7519TIP3    H122521   6.045   2.932   4.635  1.0167 -1.8017 -1.2515
 7519TIP3    H222522   6.149   2.929   4.745 -0.6883  0.5542  0.5178
 7520TIP3   OH222523   3.733   2.065   5.816  0.1996  0.1063  0.2997
 7520TIP3    H122524   3.676   2.002   5.860 -2.5984  0.8979 -1.8512
 7520TIP3    H222525   3.704   2.150   5.848  0.3033  0.5124 -0.6372
 7521TIP3   OH222526   6.227   3.907   0.035  0.0701  0.0641 -0.8905
 7521TIP3    H122527   6.225   4.002   0.043 -0.1250 -0.0077  0.0031
 7521TIP3    H222528   6.315   3.882   0.063 -0.4254 -0.1418  0.5844
 7522TIP3   OH222529   6.893   3.859   0.552 -0.4292  0.2991 -0.0459
 7522TIP3    H122530   6.922   3.948   0.569 -2.0788  0.4634  2.3312
 7522TIP3    H222531   6.809   3.852   0.597 -1.8903 -1.5235 -2.8039
 7523TIP3   OH222532   3.968   5.648   2.539  0.1699 -0.0537  0.1431
 7523TIP3    H122533   3.894   5.682   2.589  0.0605  0.7311 -0.5516
 7523TIP3    H222534   3.995   5.720   2.482  0.0611 -1.0394 -1.2046
 7524TIP3   OH222535   1.637   0.235   1.093  0.3291 -0.3901  0.0805
 7524TIP3    H122536   1.549   0.245   1.131  0.3198  1.6386 -0.3476
 7524TIP3    H222537   1.691   0.295   1.144  1.1294 -0.4292 -0.7127
 7525TIP3   OH222538   5.686   5.444   2.880  0.8616  0.2440  0.7740
 7525TIP3    H122539   5.685   5.449   2.784  2.2156  1.5401  0.7921
 7525TIP3    H222540   5.680   5.350   2.899 -1.3285  0.0464 -0.5014
 7526TIP3   OH222541   6.646   0.499   2.776  0.2329  0.8068  0.0314
 7526TIP3    H122542   6.567   0.463   2.816  1.2050  1.0505  2.3518
 7526TIP3    H222543   6.680   0.561   2.841  1.6837  1.6105 -1.4127
 7527TIP3   OH222544   4.455   3.599   3.337  0.3184  0.6006 -0.2700
 7527TIP3    H122545   4.391   3.535   3.305  0.7444 -0.4604  0.8892
 7527TIP3    H222546   4.403   3.677   3.355 -0.5812 -0.0669  0.1449
 7528TIP3   OH222547   0.943   0.148   2.939  0.3079 -0.0296 -0.6505
 7528TIP3    H122548   0.941   0.237   2.905 -0.5122  0.3484  0.3237
 7528TIP3    H222549   1.024   0.144   2.990  0.3517  0.1630 -0.7049
 7529TIP3   OH222550   5.929   5.296   5.565  0.3027 -0.5773  0.2832
 7529TIP3    H122551   5.864   5.336   5.623  0.3907 -0.4440  0.2916
 7529TIP3    H222552   6.013   5.329   5.598  0.4212 -1.2336  0.6596
 7530TIP3   OH222553  -0.004   0.224   2.472 -0.3746 -0.2633 -0.3618
 7530TIP3    H122554   0.069   0.179   2.429 -0.4514 -0.1192 -0.6452
 7530TIP3    H222555   0.019   0.224   2.565 -0.6087 -1.3423 -0.2808
 7531TIP3   OH222556   3.200   1.063   2.311  0.3923 -0.5656 -0.3857
 7531TIP3    H122557   3.195   0.968   2.315  1.5934 -0.6666 -0.9353
 7531TIP3    H222558   3.261   1.081   2.240  1.7098  0.5679  0.9564
 7532TIP3   OH222559   5.133   2.153   3.775 -0.1966 -0.1420  0.5832
 7532TIP3    H122560   5.108   2.242   3.750  0.0288 -0.2285  0.0309
 7532TIP3    H222561   5.209   2.133   3.720  0.4859 -0.2414  1.5393
 7533TIP3   OH222562   6.501   0.617   5.606 -0.0277 -0.0635 -0.2025
 7533TIP3    H122563   6.568   0.644   5.669 -0.7310  1.8347 -0.1833
 7533TIP3    H222564   6.419   0.619   5.656 -0.2765 -1.0202 -0.5574
 7534TIP3   OH222565   5.936   6.788   4.887 -0.1930 -0.1073  0.1944
 7534TIP3    H122566   5.848   6.755   4.867 -0.1328 -1.1177  1.5283
 7534TIP3    H222567   5.985   6.712   4.916  0.1590  0.9808  2.6973
 7535TIP3   OH222568   2.594   1.031   0.148 -0.3765  0.1941 -0.9387
 7535TIP3    H122569   2.607   0.976   0.225  0.7142 -0.4016 -1.5291
 7535TIP3    H222570   2.527   1.095   0.175  0.1077  0.1087  0.5401
 7536TIP3   OH222571   5.769   6.215   3.532 -0.0380 -0.1479  0.4694
 7536TIP3    H122572   5.764   6.230   3.438 -0.2010 -3.6513 -0.2094
 7536TIP3    H222573   5.681   6.185   3.556  0.2255 -0.0666  1.5977
 7537TIP3   OH222574   3.903   2.166   5.007  0.0492 -0.3580 -0.0919
 7537TIP3    H122575   3.997   2.184   4.998 -0.0498 -0.2692 -1.0692
 7537TIP3    H222576   3.866   2.189   4.922 -1.0837  0.8917  0.7142
 7538TIP3   OH222577   4.452   3.768   1.562 -0.3558 -0.4022  0.1820
 7538TIP3    H122578   4.495   3.691   1.526 -1.2773 -1.4315  1.2240
 7538TIP3    H222579   4.421   3.741   1.648 -1.2988  0.9241  0.2953
 7539TIP3   OH222580   4.355   6.444   2.947 -0.3362  0.0441  0.5238
 7539TIP3    H122581   4.347   6.493   3.028 -1.3554  2.1405 -0.7645
 7539TIP3    H222582   4.336   6.507   2.878  0.3784 -1.6730 -1.3729
 7540TIP3   OH222583   2.948   2.681   3.776  0.0230  0.3898  0.1245
 7540TIP3    H122584   2.947   2.609   3.713 -0.3519  0.1926  0.3473
 7540TIP3    H222585   2.945   2.760   3.723 -0.9988  0.2137 -0.1001
 7541TIP3   OH222586   1.191   5.363   2.262 -0.3990  0.0349  0.0789
 7541TIP3    H122587   1.260   5.299   2.281  1.0182  1.0281 -1.4462
 7541TIP3    H222588   1.151   5.332   2.181 -1.1450 -0.0246  0.4592
 7542TIP3   OH222589   5.981   1.827   3.811  0.3922  0.0245 -0.7778
 7542TIP3    H122590   5.920   1.778   3.867  0.1203  0.4622 -0.6859
 7542TIP3    H222591   6.065   1.783   3.823  0.5014  0.5406  0.5449
 7543TIP3   OH222592   3.648   6.374   1.262 -0.0071  0.2727  0.1546
 7543TIP3    H122593   3.578   6.438   1.246 -0.7090 -0.0503  1.6756
 7543TIP3    H222594   3.728   6.416   1.230 -0.8230  0.8081 -1.2744
 7544TIP3   OH222595   6.654   1.927   2.763  0.2170 -0.0023 -0.1630
 7544TIP3    H122596   6.662   1.837   2.795  1.1141  0.6573  1.6046
 7544TIP3    H222597   6.738   1.945   2.720  0.5282  0.3798  0.5889
 7545TIP3   OH222598   3.912   1.259   0.011 -0.0505  0.0952  0.3672
 7545TIP3    H122599   3.957   1.184  -0.029 -0.0302  0.1481  0.2905
 7545TIP3    H222600   3.976   1.295   0.073  0.3183  0.6574 -0.3117
 7546TIP3   OH222601   6.030   5.411   0.402 -0.7870  0.3202  0.6376
 7546TIP3    H122602   5.971   5.344   0.366 -1.2795  0.8531  0.4334
 7546TIP3    H222603   5.990   5.435   0.485  0.6436 -1.3120  1.8682
 7547TIP3   OH222604   6.163   4.808   2.279 -0.4498 -0.3984  0.5383
 7547TIP3    H122605   6.181   4.891   2.236 -1.0046 -0.6637 -0.2217
 7547TIP3    H222606   6.184   4.742   2.213 -0.8603 -0.8258  0.8343
 7548TIP3   OH222607   4.536   6.183   5.327  0.0760 -0.6948 -0.3137
 7548TIP3    H122608   4.456   6.235   5.318 -0.0096 -0.9373 -1.0204
 7548TIP3    H222609   4.505   6.092   5.322  0.4569 -0.7852 -1.1913
 7549TIP3   OH222610   4.635   4.635   0.893  0.2911  0.2680 -0.5196
 7549TIP3    H122611   4.560   4.575   0.890  0.1195  0.4711 -3.5636
 7549TIP3    H222612   4.708   4.585   0.857  1.3227  0.5275  1.1059
 7550TIP3   OH222613   0.540   5.120   1.247  0.1751 -0.5527  0.1477
 7550TIP3    H122614   0.463   5.098   1.195  0.8881  0.4659 -1.3889
 7550TIP3    H222615   0.509   5.186   1.309 -0.0888  0.2349 -0.8025
 7551TIP3   OH222616   5.262   3.880   2.360 -0.5258  0.5648  0.5727
 7551TIP3    H122617   5.208   3.895   2.283 -2.0389 -0.0966  1.4467
 7551TIP3    H222618   5.338   3.832   2.327 -1.1558  0.2682 -0.5015
 7552TIP3   OH222619   1.791   3.592   2.237 -0.5563  0.0222 -0.4518
 7552TIP3    H122620   1.737   3.514   2.248  0.8165 -0.8660  0.2704
 7552TIP3    H222621   1.803   3.601   2.143 -0.6354 -0.7155 -0.5356
 7553TIP3   OH222622   4.701   2.228   5.815  0.2106  0.6240 -0.0791
 7553TIP3    H122623   4.730   2.185   5.895 -2.8342 -3.0048 -0.6554
 7553TIP3    H222624   4.759   2.195   5.747  0.0368  0.1101  0.0152
 7554TIP3   OH222625   0.588   0.217   5.772  0.5487  0.2656  0.0949
 7554TIP3    H122626   0.621   0.172   5.694 -2.8269  1.9993 -2.6054
 7554TIP3    H222627   0.536   0.151   5.817 -0.7592  0.1797 -1.4296
 7555TIP3   OH222628   1.597   2.665   1.614 -0.0467  0.2864 -0.2311
 7555TIP3    H122629   1.661   2.634   1.677 -0.7104 -0.4520  0.0888
 7555TIP3    H222630   1.533   2.715   1.666 -1.0981 -1.0890 -0.1516
 7556TIP3   OH222631   0.202   3.199   0.812  0.0141 -0.5856  0.8005
 7556TIP3    H122632   0.207   3.185   0.718 -1.8586 -1.6674  0.8037
 7556TIP3    H222633   0.277   3.254   0.833 -0.5280  1.1966 -1.5939
 7557TIP3   OH222634   0.338   5.285   1.703 -0.4139  0.5151 -0.0322
 7557TIP3    H122635   0.350   5.314   1.794  1.4824  0.7839 -0.3195
 7557TIP3    H222636   0.333   5.366   1.653  0.7139  0.4002 -0.3740
 7558TIP3   OH222637   6.352   3.409   1.065 -0.3587 -0.1366  0.2120
 7558TIP3    H122638   6.267   3.422   1.107 -0.9105 -2.7541  0.0689
 7558TIP3    H222639   6.404   3.361   1.130 -0.1622 -1.4878 -0.9018
 7559TIP3   OH222640   1.168   5.287   0.315 -0.3505  0.1193  0.1229
 7559TIP3    H122641   1.147   5.232   0.238  2.8742  2.3137 -2.6026
 7559TIP3    H222642   1.136   5.374   0.291  0.4475  0.7986  1.4419
 7560TIP3   OH222643   4.773   1.470   1.692  0.2648  0.2689 -0.1506
 7560TIP3    H122644   4.746   1.400   1.632  0.2326  1.9453 -2.1884
 7560TIP3    H222645   4.692   1.498   1.735 -0.0095  0.2401 -0.6454
 7561TIP3   OH222646   1.310   4.406   5.225 -0.4594  0.2166  0.4283
 7561TIP3    H122647   1.297   4.496   5.195 -1.3735 -0.3286 -0.8948
 7561TIP3    H222648   1.370   4.368   5.161 -0.7865 -0.3678  0.4624
 7562TIP3   OH222649   5.059   1.641   0.387  0.0671  0.0596 -0.0938
 7562TIP3    H122650   5.098   1.716   0.431  1.2240  1.3892 -3.0967
 7562TIP3    H222651   5.130   1.579   0.377 -0.6696 -1.1104  1.5669
 7563TIP3   OH222652   0.207   1.137   5.365 -0.2293  0.0201  0.0196
 7563TIP3    H122653   0.221   1.056   5.414  1.6954 -0.1486 -0.7076
 7563TIP3    H222654   0.234   1.207   5.426  2.1473 -0.1876 -0.6981
 7564TIP3   OH222655   4.832   0.434   3.165  0.0328  0.3154 -0.5831
 7564TIP3    H122656   4.738   0.424   3.149 -0.0602  1.2949 -0.6745
 7564TIP3    H222657   4.862   0.494   3.097 -0.0504  3.2439  1.7805
 7565TIP3   OH222658   6.428   5.043   2.055  0.6016 -0.2039 -0.0558
 7565TIP3    H122659   6.456   5.043   2.147 -0.8764  2.0704  0.4851
 7565TIP3    H222660   6.455   5.129   2.022 -1.3723  0.1392 -0.8793
 7566TIP3   OH222661   5.288   6.614   3.713 -0.3439  0.6370  0.5654
 7566TIP3    H122662   5.376   6.650   3.723  0.3443 -0.7242 -0.3440
 7566TIP3    H222663   5.290   6.568   3.629 -1.7984  0.2063  0.7385
 7567TIP3   OH222664   5.454   1.057   1.943  0.0575  0.3425  0.2481
 7567TIP3    H122665   5.422   1.141   1.911  0.1175  0.5525  0.7196
 7567TIP3    H222666   5.550   1.065   1.940  0.0960  0.9012  1.7660
 7568TIP3   OH222667   0.761   2.796   5.304  0.4741 -0.0073 -0.0162
 7568TIP3    H122668   0.702   2.790   5.228  0.6923  0.5274 -0.2311
 7568TIP3    H222669   0.706   2.769   5.378  0.3637 -0.8926 -0.4076
 7569TIP3   OH222670   0.114   1.095   4.159  0.0032 -0.1783 -0.2643
 7569TIP3    H122671   0.160   1.023   4.201 -0.5202  0.0797  0.7789
 7569TIP3    H222672   0.168   1.117   4.083  0.6914 -0.9979 -0.0247
 7570TIP3   OH222673   0.362   4.422   1.727  0.0503 -0.3789 -0.5620
 7570TIP3    H122674   0.364   4.427   1.631 -2.1999  1.5798 -0.5952
 7570TIP3    H222675   0.310   4.344   1.745 -2.7616  1.2505 -1.0987
 7571TIP3   OH222676   0.569   0.236   3.675  0.1031 -0.2188 -0.1513
 7571TIP3    H122677   0.626   0.258   3.602 -0.6727 -0.7316 -0.9228
 7571TIP3    H222678   0.500   0.182   3.637 -0.8800  0.3430  0.7632
 7572TIP3   OH222679   0.783   0.740   2.899  0.0302  0.0247  0.5756
 7572TIP3    H122680   0.820   0.771   2.817 -0.8555 -1.5863 -0.4971
 7572TIP3    H222681   0.721   0.808   2.925 -1.8516 -0.6938 -1.6822
 7573TIP3   OH222682   5.704   2.193   5.024 -0.7207 -0.1867  0.1644
 7573TIP3    H122683   5.634   2.259   5.026  0.6184  1.3205 -0.0826
 7573TIP3    H222684   5.707   2.166   4.932  0.1051  1.0311 -0.1989
 7574TIP3   OH222685   6.978   5.254   1.332 -0.1570 -0.1993 -0.2771
 7574TIP3    H122686   6.916   5.210   1.390  0.5048 -2.7666 -1.4025
 7574TIP3    H222687   7.061   5.207   1.344  0.7260  1.0193 -1.2620
 7575TIP3   OH222688   0.547   1.074   2.491  0.9610  0.0348 -0.4604
 7575TIP3    H122689   0.629   1.087   2.538 -0.0484  0.4499  1.2775
 7575TIP3    H222690   0.542   0.979   2.476  0.0647 -0.5582  2.8196
 7576TIP3   OH222691   0.984   4.241   5.466  0.4198  0.0012  0.5963
 7576TIP3    H122692   0.923   4.222   5.537 -0.9268 -0.0412 -0.5185
 7576TIP3    H222693   0.996   4.336   5.469  0.1364  0.0333  0.6874
 7577TIP3   OH222694   5.986   2.898   0.900  0.4746 -0.5285  0.4941
 7577TIP3    H122695   5.972   2.971   0.841 -0.3077 -1.8770 -1.0796
 7577TIP3    H222696   6.074   2.867   0.880  0.4707 -0.5522  0.5116
 7578TIP3   OH222697   3.299   1.594   2.996 -0.1294  0.4877 -0.8459
 7578TIP3    H122698   3.267   1.587   2.906 -0.3901 -1.3551 -0.6426
 7578TIP3    H222699   3.326   1.505   3.019 -0.1975  0.8998  0.9496
 7579TIP3   OH222700   3.640   3.670   4.341 -0.0192 -0.4036 -0.2033
 7579TIP3    H122701   3.672   3.676   4.431  0.1213 -1.1320 -0.1986
 7579TIP3    H222702   3.700   3.723   4.290 -2.0375  2.9383  0.5811
 7580TIP3   OH222703   5.564   3.032   4.966 -0.2548  0.0702  0.6541
 7580TIP3    H122704   5.475   3.029   4.931 -0.2499  0.6083  0.5974
 7580TIP3    H222705   5.588   3.124   4.965  1.0030 -0.2283 -1.0994
 7581TIP3   OH222706   2.227   4.223   4.380 -0.4123 -0.2617  0.0443
 7581TIP3    H122707   2.165   4.212   4.309 -1.1600 -1.0175  0.7956
 7581TIP3    H222708   2.175   4.214   4.460  0.4732  0.1732  0.6997
 7582TIP3   OH222709   6.213   6.242   4.960 -0.0154  0.0068 -0.8913
 7582TIP3    H122710   6.283   6.177   4.961 -1.4764 -1.6448 -0.8546
 7582TIP3    H222711   6.238   6.306   5.026  1.3031 -0.7100 -0.6771
 7583TIP3   OH222712   2.838   2.129   0.747 -0.0322  0.2816  0.1301
 7583TIP3    H122713   2.851   2.081   0.829 -0.3689  1.1346  0.7059
 7583TIP3    H222714   2.832   2.221   0.775  0.5849  0.6569 -0.9344
 7584TIP3   OH222715   5.876   2.386   1.129  0.3922  0.2949  0.7079
 7584TIP3    H122716   5.789   2.423   1.142  0.5255  1.9294 -2.2908
 7584TIP3    H222717   5.933   2.439   1.185 -0.2423  0.6777  1.0011
 7585TIP3   OH222718   1.717   1.520   0.537 -0.5509 -0.5547  0.0661
 7585TIP3    H122719   1.671   1.448   0.581 -0.3877 -0.0475  1.1036
 7585TIP3    H222720   1.694   1.597   0.588  0.3572 -0.0780 -0.2307
 7586TIP3   OH222721   0.649   3.125   5.169  0.4994 -1.0142 -0.0194
 7586TIP3    H122722   0.681   3.143   5.081  0.5537  1.2646  0.4033
 7586TIP3    H222723   0.727   3.129   5.224  0.1714 -0.0485  0.4064
 7587TIP3   OH222724   5.571   1.460   3.990 -0.4918  0.3465  0.1810
 7587TIP3    H122725   5.611   1.460   3.903 -0.8956  0.4229 -0.0062
 7587TIP3    H222726   5.644   1.443   4.050 -0.1481  0.6882 -0.1396
 7588TIP3   OH222727   5.730   1.871   3.691  0.3270  0.2538  0.1085
 7588TIP3    H122728   5.760   1.885   3.602  0.2472  1.3478  0.2416
 7588TIP3    H222729   5.808   1.844   3.739  0.4614  0.1068 -0.1899
 7589TIP3   OH222730   0.881   5.645   0.173 -0.3803  0.0967 -0.1896
 7589TIP3    H122731   0.859   5.725   0.124  1.9563 -0.6431 -2.7074
 7589TIP3    H222732   0.929   5.676   0.250  0.1802  1.1592 -0.9437
 7590TIP3   OH222733   3.409   2.258   2.990 -0.3974 -0.0091  0.2944
 7590TIP3    H122734   3.314   2.272   2.985 -0.3419  0.2235 -0.1140
 7590TIP3    H222735   3.420   2.164   2.984 -0.6827 -0.1546  1.6123
 7591TIP3   OH222736   6.557   1.176   0.042  0.0551  0.0098 -0.3146
 7591TIP3    H122737   6.488   1.228   0.083 -0.7971 -0.6762 -0.8445
 7591TIP3    H222738   6.511   1.102   0.002  1.0942 -0.4362 -0.7280
 7592TIP3   OH222739   3.940   4.373   0.967 -0.4586  0.1292 -0.2437
 7592TIP3    H122740   3.965   4.438   0.902 -0.6972  0.7302  0.2552
 7592TIP3    H222741   3.968   4.290   0.930  0.4946  0.5838 -0.5779
 7593TIP3   OH222742   5.155   3.608   1.309 -1.2763  0.3669 -0.0355
 7593TIP3    H122743   5.156   3.603   1.213 -2.0896  0.0113 -0.0406
 7593TIP3    H222744   5.077   3.557   1.334 -1.1091  0.5161  0.8090
 7594TIP3   OH222745   2.934   0.928   2.356 -0.1554 -0.1558  0.1380
 7594TIP3    H122746   2.965   1.011   2.318  1.1489 -0.0828  1.2621
 7594TIP3    H222747   2.846   0.948   2.388  0.4288  1.0506  1.0854
 7595TIP3   OH222748   0.443   1.277   0.477  0.0254  0.5688  0.8445
 7595TIP3    H122749   0.492   1.255   0.398  0.1362 -1.0186  1.3058
 7595TIP3    H222750   0.475   1.363   0.503  0.9032  0.5533 -0.1423
 7596TIP3   OH222751   0.392   3.713   4.746  0.0217 -0.0382  0.0742
 7596TIP3    H122752   0.338   3.640   4.718  0.7650 -0.1433 -1.1520
 7596TIP3    H222753   0.338   3.762   4.808 -0.2922 -1.9314  1.3753
 7597TIP3   OH222754   3.088   2.551   0.778 -0.1312 -0.0274 -0.4844
 7597TIP3    H122755   3.078   2.610   0.853 -0.4296  1.1106 -1.3864
 7597TIP3    H222756   3.179   2.563   0.750  0.0335 -0.5901 -0.1974
 7598TIP3   OH222757   4.623   1.643   3.833 -0.5371  0.2960 -0.0141
 7598TIP3    H122758   4.712   1.621   3.803 -0.7130  1.8382 -1.8550
 7598TIP3    H222759   4.609   1.586   3.909  2.3489  0.6354  0.9099
 7599TIP3   OH222760   3.770   0.795   5.556  0.4167 -0.1907 -0.3694
 7599TIP3    H122761   3.820   0.826   5.481 -0.5885  2.5696 -0.0067
 7599TIP3    H222762   3.829   0.809   5.631 -0.0044  0.8760 -0.2167
 7600TIP3   OH222763   6.562   2.992   3.008 -0.2028  0.2302  0.2507
 7600TIP3    H122764   6.484   3.013   3.058 -0.8680  1.2188 -1.1299
 7600TIP3    H222765   6.612   3.073   3.006  0.2129 -0.0301  0.0164
 7601TIP3   OH222766   4.436   3.768   3.843 -0.3462  0.5861 -0.3933
 7601TIP3    H122767   4.528   3.791   3.834 -0.5553  1.1216 -1.3952
 7601TIP3    H222768   4.419   3.708   3.770 -0.5493 -0.3258  0.3961
 7602TIP3   OH222769   0.689   0.293   0.558  0.4109 -0.1916  0.0585
 7602TIP3    H122770   0.678   0.198   0.563 -0.9347 -0.0269  0.6630
 7602TIP3    H222771   0.658   0.316   0.471  0.1858 -0.2380  0.1264
 7603TIP3   OH222772   4.051   5.173   3.713  0.2334  0.2381 -0.0762
 7603TIP3    H122773   4.046   5.255   3.760 -0.9255  0.9923 -1.4305
 7603TIP3    H222774   4.135   5.177   3.666  0.6589  0.1646  0.6638
 7604TIP3   OH222775   2.446   6.262   1.363  0.1261 -0.0607  0.2346
 7604TIP3    H122776   2.478   6.187   1.413  2.7471  1.7954  1.5565
 7604TIP3    H222777   2.423   6.327   1.429  0.0789  1.1276 -0.9192
 7605TIP3   OH222778   4.075   0.774   4.018 -0.5417 -0.3175 -0.5163
 7605TIP3    H122779   4.061   0.682   4.041  0.0717  0.1181  1.8757
 7605TIP3    H222780   4.160   0.796   4.057 -0.2044  1.0023 -1.9274
 7606TIP3   OH222781   3.220   1.084   1.374 -0.5024  0.3198  0.2366
 7606TIP3    H122782   3.278   1.019   1.413 -0.9502 -0.2296 -0.0076
 7606TIP3    H222783   3.269   1.166   1.380  0.2219 -0.1027  0.2052
 7607TIP3   OH222784   0.123   5.547   3.941 -0.0954 -0.2950 -0.3782
 7607TIP3    H122785   0.182   5.479   3.908  0.7446  0.2700 -0.0891
 7607TIP3    H222786   0.159   5.628   3.906 -1.6270 -0.0517 -1.5040
 7608TIP3   OH222787   6.148   5.079   3.571 -0.2122 -0.3599 -0.6619
 7608TIP3    H122788   6.168   5.163   3.612  0.0503 -1.8185  2.4773
 7608TIP3    H222789   6.223   5.061   3.514  0.4271  0.8435 -0.2266
 7609TIP3   OH222790   3.275   5.912   0.043 -0.4175 -0.1564 -0.4069
 7609TIP3    H122791   3.304   5.821   0.053  0.5138  0.2727  1.2565
 7609TIP3    H222792   3.195   5.917   0.096 -0.4198  0.0094 -0.4265
 7610TIP3   OH222793   6.832   1.656   2.150  0.1297  0.6835 -0.0516
 7610TIP3    H122794   6.788   1.736   2.121 -0.7840 -0.3380 -1.6401
 7610TIP3    H222795   6.915   1.655   2.102 -0.2383  0.2741 -0.6935
 7611TIP3   OH222796   3.444   1.807   2.095 -1.2685 -0.2137  0.1933
 7611TIP3    H122797   3.451   1.877   2.161 -3.7193  0.5268 -0.2093
 7611TIP3    H222798   3.455   1.726   2.145  1.9409  0.3587  0.6247
 7612TIP3   OH222799   6.488   0.866   3.372  0.1800  0.1918 -0.6671
 7612TIP3    H122800   6.495   0.958   3.348  1.9054  0.6691  1.2997
 7612TIP3    H222801   6.394   0.849   3.375 -0.1679  1.7854 -1.3949
 7613TIP3   OH222802   0.047   2.718   5.091 -0.6158 -0.2083  0.0524
 7613TIP3    H122803  -0.045   2.743   5.083 -0.5774 -0.2384 -0.5609
 7613TIP3    H222804   0.052   2.671   5.174 -1.3203 -0.9021 -0.2787
 7614TIP3   OH222805   6.413   3.746   0.163 -0.3275  0.0396  0.1157
 7614TIP3    H122806   6.379   3.688   0.232 -1.2334 -0.2823 -0.5733
 7614TIP3    H222807   6.479   3.693   0.119 -1.6910 -0.7996 -1.0026
 7615TIP3   OH222808   6.275   3.161   2.623 -0.3821  0.1228 -0.1487
 7615TIP3    H122809   6.339   3.100   2.658  0.2929  0.1831 -1.2113
 7615TIP3    H222810   6.230   3.112   2.554 -0.8358  0.3814 -0.0461
 7616TIP3   OH222811   7.050   4.937   4.284  0.3021 -0.0136  0.5839
 7616TIP3    H122812   7.012   4.911   4.200 -1.4179 -0.8531  1.5766
 7616TIP3    H222813   7.033   5.031   4.291 -0.7661 -0.2010  0.5834
 7617TIP3   OH222814   5.045   3.935   0.563  0.2616 -0.3845  0.7314
 7617TIP3    H122815   5.062   4.029   0.554  0.4610 -0.2374  2.4633
 7617TIP3    H222816   4.968   3.930   0.618  0.6214 -1.2552  1.1589
 7618TIP3   OH222817   4.950   5.244   2.048 -0.3820  0.6178  0.1058
 7618TIP3    H122818   4.903   5.197   2.116  0.2329 -0.5232 -0.2224
 7618TIP3    H222819   4.994   5.316   2.093 -0.4875  0.2488  0.7962
 7619TIP3   OH222820   3.004   6.517   2.970  0.1384  0.9446  0.1412
 7619TIP3    H122821   3.046   6.592   2.929  0.5385  0.1976 -0.8563
 7619TIP3    H222822   2.915   6.545   2.988 -0.1430  1.1925 -1.5340
 7620TIP3   OH222823   1.369   3.880   1.637 -0.1515 -0.4290  0.5563
 7620TIP3    H122824   1.285   3.863   1.595 -0.6532  2.5331  0.1313
 7620TIP3    H222825   1.433   3.867   1.567 -0.2490 -2.0727  0.7204
 7621TIP3   OH222826   1.231   0.623   5.872  0.5961 -0.4614  0.3550
 7621TIP3    H122827   1.317   0.652   5.841  0.2156 -0.6608 -0.9295
 7621TIP3    H222828   1.231   0.528   5.857  0.0116 -0.4053 -0.0291
 7622TIP3   OH222829   1.465   3.086   4.016 -0.1143 -0.0676 -0.5793
 7622TIP3    H122830   1.476   3.078   3.922 -1.1478 -1.1511 -0.6240
 7622TIP3    H222831   1.371   3.094   4.029  0.0772  0.9899  0.3111
 7623TIP3   OH222832   5.945   4.354   0.970  0.0972  0.8302  0.4366
 7623TIP3    H122833   5.933   4.430   0.913 -0.3027 -0.2414 -0.9697
 7623TIP3    H222834   5.964   4.282   0.910  0.9341 -0.0987  1.7698
 7624TIP3   OH222835   5.506   2.308   1.330  0.0013  0.0312 -0.0602
 7624TIP3    H122836   5.567   2.375   1.300  1.4867 -1.5732 -0.8159
 7624TIP3    H222837   5.562   2.241   1.371 -1.3970 -0.8281  0.5358
 7625TIP3   OH222838   1.943   1.363   0.721 -0.1194 -0.1148 -0.1936
 7625TIP3    H122839   1.988   1.444   0.745 -0.7127  0.0982  0.2333
 7625TIP3    H222840   1.875   1.391   0.660  1.1624 -0.6139 -1.9223
 7626TIP3   OH222841   7.067   4.289   0.316 -0.2749 -0.1680  0.6814
 7626TIP3    H122842   7.153   4.257   0.288  0.0574  0.6319  0.7590
 7626TIP3    H222843   7.004   4.230   0.273  0.3064 -0.6768  0.5161
 7627TIP3   OH222844   5.384   2.052   3.054 -0.6689 -0.1897 -0.0680
 7627TIP3    H122845   5.420   2.102   2.981 -1.0647  1.4717  0.8268
 7627TIP3    H222846   5.445   1.979   3.066 -0.0850  0.0542 -1.4249
 7628TIP3   OH222847   4.604   4.286   2.035 -0.7165  0.5010  0.3050
 7628TIP3    H122848   4.633   4.358   1.979  0.5864  0.1569  0.5079
 7628TIP3    H222849   4.666   4.215   2.017 -0.9274  0.0226  1.3988
 7629TIP3   OH222850   1.553   1.409   1.674 -0.2541 -0.2967 -0.2871
 7629TIP3    H122851   1.613   1.358   1.728 -0.0283  0.2082 -0.0509
 7629TIP3    H222852   1.608   1.480   1.638 -0.4242 -0.5548 -1.0839
 7630TIP3   OH222853   4.689   2.934   5.839 -0.1351 -0.5249  0.2864
 7630TIP3    H122854   4.730   2.860   5.883  0.5089  0.4186  1.3298
 7630TIP3    H222855   4.755   2.963   5.776  0.0381 -0.2148  0.6035
 7631TIP3   OH222856   5.117   1.647   1.549 -0.1734  0.1162 -0.3824
 7631TIP3    H122857   5.067   1.620   1.472 -1.9787  1.8156  0.1036
 7631TIP3    H222858   5.078   1.598   1.621 -0.3924  0.5936 -0.1705
 7632TIP3   OH222859   0.291   5.559   0.201 -0.2784 -0.5099  0.1946
 7632TIP3    H122860   0.385   5.574   0.197 -0.2106 -0.9032  0.2864
 7632TIP3    H222861   0.252   5.645   0.184  0.1209  0.1870  2.4716
 7633TIP3   OH222862   6.065   0.946   1.183 -0.1658 -0.7763  0.1737
 7633TIP3    H122863   6.100   0.963   1.270 -1.7966 -0.6562  0.8584
 7633TIP3    H222864   6.055   1.032   1.144  0.4746 -0.8233 -0.0918
 7634TIP3   OH222865   3.400   6.023   1.315 -0.2002 -0.3741 -0.1477
 7634TIP3    H122866   3.319   6.024   1.263 -0.1832 -0.2788 -0.1734
 7634TIP3    H222867   3.422   5.930   1.324  0.0510 -0.3719 -0.7069
 7635TIP3   OH222868   1.727   4.813   2.372 -0.4679 -0.2550  0.0598
 7635TIP3    H122869   1.699   4.722   2.366 -0.0963 -0.3763  0.2100
 7635TIP3    H222870   1.703   4.840   2.461 -0.0862 -0.3642  0.1943
 7636TIP3   OH222871   6.026   4.095   5.632 -0.6338 -0.4539  0.7019
 7636TIP3    H122872   6.023   4.002   5.609  2.7347 -0.6856  0.6673
 7636TIP3    H222873   6.042   4.096   5.726 -0.4481  0.0752  0.6688
 7637TIP3   OH222874   6.699   4.533   0.532 -0.6293 -0.3655  0.3363
 7637TIP3    H122875   6.792   4.525   0.513 -0.5421  3.4351 -1.5779
 7637TIP3    H222876   6.657   4.465   0.479  0.9543 -2.5453  1.6948
 7638TIP3   OH222877   2.251   6.348   4.976 -1.0842  0.0731  0.4960
 7638TIP3    H122878   2.296   6.378   5.055 -0.6556  0.7356  0.0182
 7638TIP3    H222879   2.318   6.299   4.928 -1.0363  0.5523  0.0629
 7639TIP3   OH222880   0.163   0.922   5.010 -0.1792 -0.2162  0.0756
 7639TIP3    H122881   0.206   1.007   4.998  1.6870 -1.4189 -3.3058
 7639TIP3    H222882   0.214   0.879   5.079  2.0447 -0.3029 -1.5149
 7640TIP3   OH222883   3.410   5.780   1.036 -0.3464 -0.0891  0.3594
 7640TIP3    H122884   3.427   5.861   0.988 -2.3043  0.5029  0.5749
 7640TIP3    H222885   3.463   5.787   1.116  1.3681 -0.1635 -0.7296
 7641TIP3   OH222886   3.999   3.473   2.817 -0.2946  0.1690 -0.9285
 7641TIP3    H122887   4.034   3.457   2.729 -1.3037  0.8694 -1.4833
 7641TIP3    H222888   4.076   3.487   2.872  0.3439 -0.0357 -1.7554
 7642TIP3   OH222889   5.990   4.020   3.843 -0.5391 -0.6121  0.5431
 7642TIP3    H122890   5.974   3.934   3.882 -0.2227 -1.2740 -0.7347
 7642TIP3    H222891   5.916   4.034   3.784 -0.6799  0.0731  0.8791
 7643TIP3   OH222892   2.451   6.489   5.743  0.6011 -0.5728 -0.2486
 7643TIP3    H122893   2.405   6.413   5.778 -0.1885 -0.4604 -0.9993
 7643TIP3    H222894   2.390   6.526   5.680  0.1872  1.7355  1.3699
 7644TIP3   OH222895   6.176   1.279   2.251 -0.2479 -0.3875  0.1752
 7644TIP3    H122896   6.185   1.221   2.327 -2.1853 -1.2378 -0.1745
 7644TIP3    H222897   6.129   1.355   2.285  1.1308  0.4072  0.3470
 7645TIP3   OH222898   2.079   5.959   4.745 -0.0406 -0.3396 -0.4405
 7645TIP3    H122899   2.085   6.030   4.808 -1.0611 -0.5664 -0.0752
 7645TIP3    H222900   2.004   5.981   4.690  1.8184  0.7468 -2.7484
 7646TIP3   OH222901   0.805   0.575   0.930  0.2735 -0.4567 -0.3086
 7646TIP3    H122902   0.748   0.506   0.895 -0.3003  0.6190 -1.5664
 7646TIP3    H222903   0.754   0.655   0.920  1.3907  0.3155  0.0274
 7647TIP3   OH222904   2.595   2.252   4.046  0.2543  0.3366 -0.0377
 7647TIP3    H122905   2.515   2.235   3.996  1.2229 -0.9045 -1.2547
 7647TIP3    H222906   2.648   2.306   3.988  0.9382 -0.1883  0.0887
 7648TIP3   OH222907   0.423   6.443   4.498 -0.0640 -0.3758  0.6219
 7648TIP3    H122908   0.503   6.495   4.496 -0.0482 -0.3672  1.3157
 7648TIP3    H222909   0.374   6.477   4.572 -1.3613  0.5545 -0.6011
 7649TIP3   OH222910   4.030   2.566   2.247  0.1038  0.7513 -0.4609
 7649TIP3    H122911   4.013   2.505   2.175  0.2265 -1.1258  1.0300
 7649TIP3    H222912   4.081   2.637   2.206  1.5401 -1.0232 -1.9228
 7650TIP3   OH222913   6.243   1.398   2.692  0.1860  0.0011 -0.0771
 7650TIP3    H122914   6.188   1.412   2.615 -1.7792  1.4185  1.4466
 7650TIP3    H222915   6.221   1.310   2.722  1.0313 -0.5908 -1.1616
 7651TIP3   OH222916   1.719   5.061   0.503  0.3569  0.0953  0.7155
 7651TIP3    H122917   1.653   5.099   0.561  1.3831  2.6935  0.2965
 7651TIP3    H222918   1.783   5.022   0.562 -0.1480  0.0116  1.2184
 7652TIP3   OH222919   6.391   3.428   4.118 -0.4587 -0.1366 -0.0327
 7652TIP3    H122920   6.304   3.464   4.134 -0.8301  0.3967 -2.7999
 7652TIP3    H222921   6.444   3.504   4.093  0.6126 -0.5823  0.7851
 7653TIP3   OH222922   1.173   2.448   3.823 -0.0165 -0.3285  0.1536
 7653TIP3    H122923   1.157   2.386   3.895 -3.5562 -0.0881 -0.2371
 7653TIP3    H222924   1.193   2.393   3.748 -2.3378 -1.0602 -0.0066
 7654TIP3   OH222925   0.896   6.116   1.059  0.3032 -0.0101 -0.7559
 7654TIP3    H122926   0.931   6.135   0.973  0.1834  1.6002 -0.4751
 7654TIP3    H222927   0.872   6.201   1.095 -1.0493 -0.7840  0.2744
 7655TIP3   OH222928   6.081   0.863   1.856 -0.0203  0.0438 -0.1976
 7655TIP3    H122929   6.032   0.783   1.873 -0.6936  0.4446 -0.2412
 7655TIP3    H222930   6.170   0.844   1.887 -0.2840 -0.5673  0.1921
 7656TIP3   OH222931   3.296   1.150   3.741 -0.0103 -0.8600 -0.3514
 7656TIP3    H122932   3.299   1.101   3.823  1.9503 -2.6561 -1.4033
 7656TIP3    H222933   3.388   1.161   3.716 -0.4037  2.1186 -0.9732
 7657TIP3   OH222934   0.324   5.458   3.449 -0.1895  0.1592  0.5267
 7657TIP3    H122935   0.381   5.381   3.448  2.6638  2.1139  0.2088
 7657TIP3    H222936   0.312   5.477   3.542  0.0866  0.0137  0.5935
 7658TIP3   OH222937   5.393   4.961   4.415  0.8779  0.3422  0.3271
 7658TIP3    H122938   5.481   4.933   4.441  0.3751 -2.7339 -0.7879
 7658TIP3    H222939   5.336   4.925   4.483  0.1813 -1.6026 -1.1896
 7659TIP3   OH222940   7.095   4.721   3.833 -0.0801 -0.3643  0.0138
 7659TIP3    H122941   7.046   4.646   3.867 -0.9158  0.7698  1.4679
 7659TIP3    H222942   7.186   4.693   3.833 -0.2862 -1.1307  1.3133
 7660TIP3   OH222943   1.891   0.082   5.409  0.3409  0.3061 -0.2503
 7660TIP3    H122944   1.966   0.135   5.385  0.5269  0.7584  1.2285
 7660TIP3    H222945   1.829   0.144   5.448 -0.1342 -0.2918 -0.0354
 7661TIP3   OH222946   1.231   4.994   3.672  1.2664 -0.4133  0.0180
 7661TIP3    H122947   1.248   4.912   3.625 -3.0457 -1.2422 -0.4917
 7661TIP3    H222948   1.201   5.054   3.604  1.3880  0.6158  0.8495
 7662TIP3   OH222949   4.611   1.565   4.507  0.0228 -0.0801  0.2285
 7662TIP3    H122950   4.548   1.618   4.556  1.7646  1.4675  0.8902
 7662TIP3    H222951   4.570   1.478   4.503 -2.2883  0.9218  0.3154
 7663TIP3   OH222952   7.240   0.428   5.144  0.2942 -0.5596 -0.2324
 7663TIP3    H122953   7.180   0.400   5.213  0.3622  2.8961  1.4354
 7663TIP3    H222954   7.183   0.463   5.076  0.2920  1.7184  0.8745
 7664TIP3   OH222955   4.008   0.703   2.527  0.1101  0.5169 -0.0222
 7664TIP3    H122956   4.042   0.621   2.563 -0.7942  0.1209 -0.0387
 7664TIP3    H222957   4.043   0.707   2.438 -0.8582 -0.4980 -0.4666
 7665TIP3   OH222958   1.760   2.002   0.912 -0.2964 -0.2219 -0.0097
 7665TIP3    H122959   1.750   2.092   0.944 -1.1556  0.5780 -2.3364
 7665TIP3    H222960   1.685   1.989   0.853  0.2145 -2.2169 -0.2784
 7666TIP3   OH222961   0.394   4.020   0.127 -0.3825 -0.1607  0.3513
 7666TIP3    H122962   0.441   4.078   0.187  1.9738 -2.0515  0.5065
 7666TIP3    H222963   0.448   4.020   0.047 -0.3956 -1.9495  0.3044
 7667TIP3   OH222964   4.339   5.191   2.644 -0.3007 -0.1668 -0.3156
 7667TIP3    H122965   4.299   5.277   2.632  0.6792  0.3649  0.0104
 7667TIP3    H222966   4.302   5.136   2.576  0.3117  0.9819 -1.6179
 7668TIP3   OH222967   5.812   1.223   4.599  0.3555  0.6228 -0.1903
 7668TIP3    H122968   5.863   1.236   4.679  1.2895  0.7934 -0.7988
 7668TIP3    H222969   5.875   1.231   4.528  0.0019 -1.8595 -0.8811
 7669TIP3   OH222970   5.365   5.498   1.463  0.3518 -0.1146 -0.0667
 7669TIP3    H122971   5.409   5.509   1.547 -0.7453 -0.7299  0.6062
 7669TIP3    H222972   5.297   5.433   1.480 -0.5049  0.4533 -1.2017
 7670TIP3   OH222973   5.500   6.373   0.405  0.1872  0.1364 -0.2774
 7670TIP3    H122974   5.475   6.292   0.449 -0.3708  0.6707  0.4068
 7670TIP3    H222975   5.485   6.355   0.312  1.8215 -1.1529 -0.3400
 7671TIP3   OH222976   4.245   3.734   4.043  0.7365  0.0000 -0.7634
 7671TIP3    H122977   4.328   3.752   3.999  0.9541 -0.6640 -0.6282
 7671TIP3    H222978   4.179   3.747   3.976  1.1389 -2.2123 -1.6782
 7672TIP3   OH222979   1.340   4.775   1.049  0.0505 -0.1461 -0.5669
 7672TIP3    H122980   1.418   4.825   1.072  0.0825 -0.2765 -0.3870
 7672TIP3    H222981   1.294   4.762   1.132 -0.3486  0.2409 -0.7260
 7673TIP3   OH222982   4.750   4.169   2.983 -0.5726  0.1005 -0.0292
 7673TIP3    H122983   4.691   4.238   2.954  0.7802  0.2277 -2.7808
 7673TIP3    H222984   4.697   4.115   3.042 -3.8371 -0.4064 -3.1094
 7674TIP3   OH222985   2.425   4.385   3.282 -0.1840  0.5896  0.3510
 7674TIP3    H122986   2.359   4.344   3.338 -1.1748 -0.2931 -1.3718
 7674TIP3    H222987   2.502   4.329   3.290 -0.3214  0.4701  0.8292
 7675TIP3   OH222988   5.439   3.059   4.422  0.5542 -0.0677 -0.2824
 7675TIP3    H122989   5.494   3.112   4.480  1.5763 -0.7096 -0.6360
 7675TIP3    H222990   5.500   3.024   4.357 -0.4662  0.1449 -1.3882
 7676TIP3   OH222991   5.925   2.294   4.080  0.1024  0.1772 -0.1112
 7676TIP3    H122992   6.005   2.315   4.031 -0.2844  0.2945 -0.7073
 7676TIP3    H222993   5.938   2.204   4.110 -0.0723 -0.2733 -1.3107
 7677TIP3   OH222994   1.264   2.178   2.157  0.3702 -0.6134 -0.2256
 7677TIP3    H122995   1.205   2.138   2.221 -0.5495  0.0562 -0.6437
 7677TIP3    H222996   1.206   2.220   2.093  1.2613  2.3551  0.7744
 7678TIP3   OH222997   3.195   5.473   2.627  0.1385  0.3218  1.2846
 7678TIP3    H122998   3.273   5.508   2.584  0.1483 -0.6419  0.4827
 7678TIP3    H222999   3.175   5.536   2.696  0.8999  1.2191  0.7071
 7679TIP3   OH223000   2.006   3.513   0.434 -0.6169  0.0376 -0.5400
 7679TIP3    H123001   2.099   3.531   0.418 -1.1711  1.8142 -2.2196
 7679TIP3    H223002   1.978   3.467   0.355 -1.1813 -0.4650 -0.0499
 7680TIP3   OH223003   3.256   2.346   1.570 -0.1309 -0.3891  0.7377
 7680TIP3    H123004   3.326   2.316   1.628 -0.7521 -1.2669  1.0542
 7680TIP3    H223005   3.291   2.424   1.528  1.1648 -0.9965  0.6392
 7681TIP3   OH223006   1.307   3.527   1.310  0.0502 -0.1190  0.0575
 7681TIP3    H123007   1.327   3.519   1.403 -0.3900  0.0229  0.1643
 7681TIP3    H223008   1.241   3.597   1.305 -1.9601 -1.9277 -0.0743
 7682TIP3   OH223009   5.995   2.055   2.292 -0.0844  0.1791  0.7626
 7682TIP3    H123010   6.058   2.117   2.330 -0.1470  0.0447  1.0815
 7682TIP3    H223011   6.043   2.015   2.219  0.3611 -0.2620  1.2922
 7683TIP3   OH223012   4.558   4.135   1.733  0.4085  0.0554  0.0317
 7683TIP3    H123013   4.606   4.073   1.677  1.8150  1.2104 -0.1060
 7683TIP3    H223014   4.473   4.145   1.690 -0.3926 -2.7156  0.7418
 7684TIP3   OH223015   0.096   5.790   3.621 -0.1977 -0.3005  0.1927
 7684TIP3    H123016   0.041   5.774   3.544  0.1674 -0.4288 -0.0469
 7684TIP3    H223017   0.139   5.706   3.637  2.1891  0.4853 -1.4283
 7685TIP3   OH223018   3.574   1.068   1.801 -0.2030  0.3909 -0.5465
 7685TIP3    H123019   3.568   1.013   1.879  0.5772  0.1597 -0.6445
 7685TIP3    H223020   3.571   1.006   1.728  0.0272  0.5295 -0.6743
 7686TIP3   OH223021   3.314   5.989   5.239  0.6071 -0.0355  0.1058
 7686TIP3    H123022   3.316   6.054   5.310 -1.6596  0.0626  0.1490
 7686TIP3    H223023   3.274   6.036   5.166 -2.3905 -1.6609  0.5489
 7687TIP3   OH223024   3.126   3.136   0.973  0.4544  0.0025 -0.0239
 7687TIP3    H123025   3.055   3.201   0.968 -0.2129 -0.7385 -0.3362
 7687TIP3    H223026   3.195   3.180   1.022  0.4318  1.3498 -1.1294
 7688TIP3   OH223027   5.167   3.308   1.651  0.3276  0.0469 -0.4406
 7688TIP3    H123028   5.181   3.301   1.556 -1.4097  1.9658 -0.9008
 7688TIP3    H223029   5.247   3.349   1.684 -0.0777  1.7985 -1.5088
 7689TIP3   OH223030   1.987   4.245   5.871  0.1439 -0.4626 -0.0168
 7689TIP3    H123031   1.984   4.200   5.955 -0.8803 -0.1729  0.1189
 7689TIP3    H223032   1.903   4.223   5.830 -0.1263  0.8464 -0.1956
 7690TIP3   OH223033   0.558   5.180   4.221 -0.2491  0.4117  0.4126
 7690TIP3    H123034   0.644   5.220   4.235 -0.2708  0.4435  0.4532
 7690TIP3    H223035   0.575   5.105   4.164 -0.1849  0.3794  0.4740
 7691TIP3   OH223036   7.180   2.954   3.006 -0.0231  0.1214 -0.5057
 7691TIP3    H123037   7.086   2.971   3.014 -0.2655  0.0644 -2.6534
 7691TIP3    H223038   7.222   3.019   3.062 -1.3351  0.0551  0.5918
 7692TIP3   OH223039   2.660   1.611   5.213  0.7079 -0.0779  0.0233
 7692TIP3    H123040   2.650   1.647   5.301  1.0829 -0.5283  0.2571
 7692TIP3    H223041   2.749   1.635   5.187  0.1951  1.0732 -0.7145
 7693TIP3   OH223042   1.674   6.342   1.105 -0.0728 -0.3204 -0.0292
 7693TIP3    H123043   1.580   6.327   1.103  0.1676 -2.0841 -0.1233
 7693TIP3    H223044   1.684   6.436   1.116 -1.8340  0.0193 -1.0861
 7694TIP3   OH223045   1.133   2.804   4.257 -0.1837 -0.1107 -0.4056
 7694TIP3    H123046   1.076   2.852   4.197  0.9997  0.8781 -0.7962
 7694TIP3    H223047   1.217   2.799   4.210  1.0206  1.3985  1.4630
 7695TIP3   OH223048   0.197   5.474   1.128  0.1452 -0.4731  0.2095
 7695TIP3    H123049   0.224   5.512   1.044 -0.7103  2.1019  0.9916
 7695TIP3    H223050   0.103   5.491   1.133 -0.1189 -1.9859  1.0476
 7696TIP3   OH223051   3.304   3.095   1.821 -0.0547  0.0298 -0.5118
 7696TIP3    H123052   3.223   3.141   1.844 -0.9864 -1.7546  0.0656
 7696TIP3    H223053   3.318   3.035   1.895  1.4387 -0.1642 -0.9231
 7697TIP3   OH223054   6.876   3.851   2.735  0.0593 -0.3045 -0.0860
 7697TIP3    H123055   6.929   3.774   2.754  0.2773  0.3329  2.1583
 7697TIP3    H223056   6.937   3.924   2.740 -0.3259  0.1231 -1.2752
 7698TIP3   OH223057   3.625   5.424   3.671 -0.4550  0.2383 -0.3544
 7698TIP3    H123058   3.540   5.389   3.696 -0.3647  0.3534  0.1209
 7698TIP3    H223059   3.634   5.505   3.721  0.8820 -0.8895  1.3390
 7699TIP3   OH223060   5.052   2.449   5.749 -0.1857  0.7072 -0.3959
 7699TIP3    H123061   5.016   2.447   5.661 -1.1947  0.6325  0.0012
 7699TIP3    H223062   5.139   2.411   5.741  0.3530  2.1270 -1.6113
 7700TIP3   OH223063   3.242   4.204   0.038  0.5498  0.0645  0.0688
 7700TIP3    H123064   3.330   4.166   0.033  0.8898  0.4306  2.3653
 7700TIP3    H223065   3.255   4.290   0.076 -0.7016  0.7015 -0.8587
 7701TIP3   OH223066   0.545   5.738   1.276 -0.1914  0.6483  0.3758
 7701TIP3    H123067   0.588   5.665   1.321 -0.5670  0.5121  0.5187
 7701TIP3    H223068   0.452   5.726   1.294 -0.2513  1.2093  0.4661
 7702TIP3   OH223069   4.275   1.367   0.880  0.0333 -0.0630  0.0578
 7702TIP3    H123070   4.222   1.424   0.825 -0.0821  0.4127  0.6530
 7702TIP3    H223071   4.229   1.364   0.964  0.3006 -0.6306  0.1944
 7703TIP3   OH223072   3.338   1.884   2.916  0.0262  0.3919  0.0975
 7703TIP3    H123073   3.287   1.916   2.842  0.9532  2.0778  0.1504
 7703TIP3    H223074   3.272   1.848   2.976 -0.8696  0.3739 -0.8675
 7704TIP3   OH223075   1.566   5.230   3.895 -0.3515  0.1847 -0.1086
 7704TIP3    H123076   1.615   5.194   3.968 -0.4495 -1.0520 -0.6372
 7704TIP3    H223077   1.491   5.274   3.936  0.1639  0.4468  0.5826
 7705TIP3   OH223078   2.921   2.809   4.400 -0.1896  0.0354  0.3964
 7705TIP3    H123079   2.938   2.873   4.469 -2.2313 -0.6277  1.5921
 7705TIP3    H223080   2.873   2.739   4.443  1.3167 -2.0048 -1.0396
 7706TIP3   OH223081   0.871   4.194   4.938  0.1983 -0.9346  0.0568
 7706TIP3    H123082   0.780   4.190   4.908 -0.3664  0.3593  1.5192
 7706TIP3    H223083   0.871   4.149   5.022  0.9134 -0.8340  0.1206
 7707TIP3   OH223084   1.535   5.605   0.529 -0.4459 -0.1788 -0.2176
 7707TIP3    H123085   1.474   5.578   0.598  0.1936  0.5089  0.6359
 7707TIP3    H223086   1.590   5.672   0.570  0.3257 -0.1664 -1.2288
 7708TIP3   OH223087   5.030   0.725   1.273  0.1398 -0.1354  0.5558
 7708TIP3    H123088   5.116   0.725   1.315 -0.7330 -0.7453  2.4687
 7708TIP3    H223089   4.970   0.756   1.341 -1.1650  0.3557 -0.7546
 7709TIP3   OH223090   0.232   0.331   2.137 -0.4230 -0.3464 -0.0031
 7709TIP3    H123091   0.280   0.365   2.212  1.9697 -0.2152 -1.4929
 7709TIP3    H223092   0.141   0.357   2.153  0.0966  0.1289  2.5487
 7710TIP3   OH223093   4.143   1.493   0.314  0.6635 -0.1511  0.8210
 7710TIP3    H123094   4.138   1.415   0.260 -1.3966  0.5345 -0.0994
 7710TIP3    H223095   4.115   1.564   0.256  0.4956  0.9428  2.1888
 7711TIP3   OH223096   2.043   2.026   2.814 -0.3321  0.2113  0.1659
 7711TIP3    H123097   1.990   1.965   2.762  0.0644 -0.1150  0.1415
 7711TIP3    H223098   2.053   1.982   2.899 -1.3409  0.9287  0.6879
 7712TIP3   OH223099   5.803   4.576   2.284  0.2881 -0.1015  0.4342
 7712TIP3    H123100   5.853   4.640   2.234 -0.9894  0.3131 -0.3602
 7712TIP3    H223101   5.847   4.493   2.267  0.1610  0.1066 -1.0409
 7713TIP3   OH223102   4.034   3.291   0.837 -0.1123  0.0623 -0.3246
 7713TIP3    H123103   4.036   3.291   0.741 -0.8693  1.1586 -0.3639
 7713TIP3    H223104   3.981   3.368   0.860 -1.0128 -0.8912  0.9528
 7714TIP3   OH223105   3.658   6.095   2.284 -0.0833 -0.1725 -0.4195
 7714TIP3    H123106   3.683   6.186   2.267 -2.0664  0.2092 -1.7005
 7714TIP3    H223107   3.630   6.094   2.375  0.1796  0.4529 -0.3271
 7715TIP3   OH223108   6.121   6.043   1.553 -0.2361  0.8072  0.3102
 7715TIP3    H123109   6.167   6.092   1.484 -0.0674  0.7800  0.4023
 7715TIP3    H223110   6.061   5.986   1.505 -0.4000  1.0681  0.2015
 7716TIP3   OH223111   0.456   4.892   4.846  0.1018  0.3523 -0.0802
 7716TIP3    H123112   0.506   4.891   4.765 -1.7793  1.2164 -1.3207
 7716TIP3    H223113   0.417   4.980   4.849  0.0942  0.3259  1.7494
 7717TIP3   OH223114   4.867   6.127   1.139  0.0764 -0.0267 -0.9341
 7717TIP3    H123115   4.942   6.076   1.168 -0.7344 -0.7519 -0.0295
 7717TIP3    H223116   4.801   6.062   1.116 -0.5509  0.5954 -0.9302
 7718TIP3   OH223117   3.950   2.205   1.065 -0.3610 -0.1571 -0.5083
 7718TIP3    H123118   3.993   2.236   0.986 -0.3492  0.1615 -0.3774
 7718TIP3    H223119   4.006   2.234   1.136 -0.9961  0.6210 -0.3101
 7719TIP3   OH223120   2.557   3.615   2.909  0.1295 -0.1345 -0.2861
 7719TIP3    H123121   2.601   3.565   2.840 -1.6003  1.9666 -3.1181
 7719TIP3    H223122   2.618   3.686   2.930  1.0202 -1.2518  1.0590
 7720TIP3   OH223123   3.599   0.481   1.715  0.0548 -0.1852 -0.0713
 7720TIP3    H123124   3.624   0.534   1.791 -2.6315  0.1429  0.6617
 7720TIP3    H223125   3.622   0.392   1.740  2.5222  0.2805 -0.4037
 7721TIP3   OH223126   2.680   3.660   1.883  0.0066 -0.2142 -0.1753
 7721TIP3    H123127   2.613   3.630   1.944  0.2559 -0.0323  0.1913
 7721TIP3    H223128   2.735   3.582   1.868  1.3421  0.3161  1.6837
 7722TIP3   OH223129   2.083   2.238   0.496 -0.6824 -0.1075 -0.3000
 7722TIP3    H123130   2.042   2.153   0.513  1.5251 -1.2924 -0.5296
 7722TIP3    H223131   2.067   2.254   0.403  0.5066 -1.2459 -0.7311
 7723TIP3   OH223132   0.204   0.428   3.785 -0.2138 -0.1089 -0.2741
 7723TIP3    H123133   0.294   0.430   3.817 -0.0319  0.1731 -0.7884
 7723TIP3    H223134   0.213   0.426   3.690 -0.7509 -0.3438 -0.3241
 7724TIP3   OH223135   7.061   1.296   5.289  0.7013  0.1518  0.3576
 7724TIP3    H123136   7.087   1.286   5.380  1.5729  0.8901  0.2031
 7724TIP3    H223137   7.143   1.308   5.241  0.2019  0.7365 -0.3890
 7725TIP3   OH223138   6.593   2.806   1.040 -0.3031 -0.3715  0.0818
 7725TIP3    H123139   6.648   2.850   1.105  0.1369  0.8915 -1.1054
 7725TIP3    H223140   6.646   2.804   0.960 -2.2970  1.8216 -1.4058
 7726TIP3   OH223141   4.226   0.785   2.788 -0.4394 -0.6752  0.9008
 7726TIP3    H123142   4.179   0.867   2.802  2.4734  1.1031  1.2429
 7726TIP3    H223143   4.291   0.806   2.720 -0.1234 -2.9586  0.4092
 7727TIP3   OH223144   6.918   1.885   1.828 -0.5146 -0.2201  0.3345
 7727TIP3    H123145   6.976   1.821   1.870  0.2144 -0.3264 -0.8069
 7727TIP3    H223146   6.969   1.966   1.827 -1.0401  0.1327  0.8263
 7728TIP3   OH223147   5.085   6.804   2.775 -0.3580 -0.0263  0.3410
 7728TIP3    H123148   5.140   6.774   2.703 -0.5315 -0.2349  0.2938
 7728TIP3    H223149   5.012   6.743   2.776 -1.9958  1.7609 -1.2861
 7729TIP3   OH223150   0.287   6.075   2.212  0.8463 -0.5142 -0.2329
 7729TIP3    H123151   0.354   6.144   2.211  2.1059 -1.6225  1.3782
 7729TIP3    H223152   0.240   6.088   2.295  2.0089 -2.3122  0.7990
 7730TIP3   OH223153   2.401   6.659   3.285  0.5260 -0.4501  0.4213
 7730TIP3    H123154   2.481   6.612   3.263  0.8500 -0.5604  1.7706
 7730TIP3    H223155   2.424   6.713   3.360  0.3769  2.5276 -1.5136
 7731TIP3   OH223156   6.070   6.444   5.498  0.2175  0.0397  0.3640
 7731TIP3    H123157   6.116   6.492   5.567  0.4732  1.4010 -0.6948
 7731TIP3    H223158   5.985   6.422   5.536 -0.3469  2.3243  0.5577
 7732TIP3   OH223159   5.904   4.823   2.423 -0.2695 -0.3940  0.3248
 7732TIP3    H123160   5.984   4.807   2.372  0.6970  0.1193  1.6209
 7732TIP3    H223161   5.865   4.736   2.434 -1.8173 -0.3189 -3.2282
 7733TIP3   OH223162   3.354   1.622   0.185 -0.3427  0.1899 -0.0386
 7733TIP3    H123163   3.304   1.603   0.264 -1.5932 -0.7682 -1.0280
 7733TIP3    H223164   3.408   1.545   0.171  0.0850  0.4738  0.0334
 7734TIP3   OH223165   5.801   3.177   1.064 -0.2809 -0.6141 -0.1514
 7734TIP3    H123166   5.791   3.245   0.998  0.2526 -0.1716  0.2041
 7734TIP3    H223167   5.738   3.110   1.040 -1.7147  0.5523  0.1834
 7735TIP3   OH223168   2.562   4.181   3.394  0.0805 -0.5877  0.3340
 7735TIP3    H123169   2.585   4.184   3.487  2.4576 -2.4879 -0.1000
 7735TIP3    H223170   2.519   4.096   3.383  1.7992 -1.3732 -0.6411
 7736TIP3   OH223171   3.472   5.457   1.127  0.6752 -0.6188 -0.2354
 7736TIP3    H123172   3.536   5.528   1.130  0.2681 -0.1607 -1.5832
 7736TIP3    H223173   3.411   5.483   1.058 -1.0912 -0.9419  1.1254
 7737TIP3   OH223174   0.869   2.860   1.215  0.0402  0.6099  0.1981
 7737TIP3    H123175   0.864   2.953   1.236 -0.0703  1.0435 -1.6025
 7737TIP3    H223176   0.960   2.837   1.236  0.7049  1.6715 -1.3184
 7738TIP3   OH223177   3.601   3.511   2.096 -0.2580 -0.1472  0.6804
 7738TIP3    H123178   3.662   3.457   2.046  0.4452 -0.1769  1.5461
 7738TIP3    H223179   3.646   3.596   2.104 -1.1653  0.4501 -0.3022
 7739TIP3   OH223180   2.441   4.451   3.757  0.2614 -0.2042 -0.0488
 7739TIP3    H123181   2.433   4.458   3.852 -1.1750  0.8294 -0.2207
 7739TIP3    H223182   2.489   4.530   3.731  0.2043 -0.2312 -0.2362
 7740TIP3   OH223183   2.139   0.443   1.435 -0.3403 -0.4044 -0.0054
 7740TIP3    H123184   2.046   0.458   1.453 -0.1262  1.8223 -0.4050
 7740TIP3    H223185   2.164   0.371   1.492 -2.1415 -0.5632  0.6399
 7741TIP3   OH223186   2.815   6.778   4.760  0.1352  0.5982 -0.1373
 7741TIP3    H123187   2.864   6.697   4.770  0.0663  0.6890  1.0492
 7741TIP3    H223188   2.747   6.757   4.697  0.5591 -0.0585 -0.3845
 7742TIP3   OH223189   3.511   6.432   2.639 -0.0388 -0.1093  0.9703
 7742TIP3    H123190   3.468   6.368   2.582  0.1131  0.1221  0.5946
 7742TIP3    H223191   3.580   6.383   2.682  1.2393  0.1966 -0.6512
 7743TIP3   OH223192   5.714   0.759   5.226 -0.0555 -0.5524 -0.2312
 7743TIP3    H123193   5.664   0.700   5.283 -1.3689 -0.6575 -1.4201
 7743TIP3    H223194   5.738   0.705   5.151 -0.2725  0.1243 -0.7966
 7744TIP3   OH223195   1.903   5.778   2.212 -0.5378 -0.0361 -0.3768
 7744TIP3    H123196   1.964   5.705   2.217  0.7371  0.9303 -1.1447
 7744TIP3    H223197   1.821   5.739   2.183 -0.0393 -1.2419 -0.2271
 7745TIP3   OH223198   1.019   0.615   4.907 -0.5641 -0.0936 -0.2880
 7745TIP3    H123199   1.009   0.683   4.974  0.6738 -0.8528  0.7211
 7745TIP3    H223200   1.097   0.643   4.858 -1.6464  0.6252 -1.6576
 7746TIP3   OH223201   4.281   5.273   2.272  0.0700 -0.2670 -0.2134
 7746TIP3    H123202   4.210   5.312   2.222 -0.0143 -1.4092 -1.0332
 7746TIP3    H223203   4.272   5.310   2.360 -2.3062 -1.2731  0.0573
 7747TIP3   OH223204   6.903   6.321   4.703  0.4578 -0.5651  0.2793
 7747TIP3    H123205   6.997   6.310   4.719  0.1744 -2.1012  1.0156
 7747TIP3    H223206   6.887   6.273   4.622  0.1904 -0.9222  0.5391
 7748TIP3   OH223207   5.054   3.505   5.753 -0.2639 -0.1516 -0.9237
 7748TIP3    H123208   5.132   3.541   5.711  0.9448 -1.3265  0.2310
 7748TIP3    H223209   5.068   3.520   5.846 -1.4781 -0.2889 -0.7095
 7749TIP3   OH223210   7.053   2.355   5.242  0.1061  0.0304 -0.2968
 7749TIP3    H123211   7.057   2.270   5.199 -0.1193 -0.0131 -0.2327
 7749TIP3    H223212   7.144   2.374   5.265 -0.0263 -0.9890  1.2087
 7750TIP3   OH223213   0.971   3.380   3.371 -0.3627  0.2349 -0.1543
 7750TIP3    H123214   0.927   3.465   3.374  1.3217  1.1660 -0.6943
 7750TIP3    H223215   0.971   3.349   3.461 -1.9975  0.2463 -0.1211
 7751TIP3   OH223216   5.126   5.078   0.561  0.1107  0.2417 -0.1394
 7751TIP3    H123217   5.147   5.090   0.653 -0.9622 -0.5131  0.2126
 7751TIP3    H223218   5.184   5.008   0.531  1.5045  1.4693 -0.4438
 7752TIP3   OH223219   3.859   1.845   5.074  0.1514  0.3383  0.0112
 7752TIP3    H123220   3.949   1.877   5.083  0.4855 -0.8148  1.0207
 7752TIP3    H223221   3.805   1.920   5.101  0.9175  0.1608  2.3180
 7753TIP3   OH223222   4.369   3.459   4.824 -0.1646 -0.2638 -0.0372
 7753TIP3    H123223   4.420   3.378   4.828  3.5525  1.8656  0.8467
 7753TIP3    H223224   4.369   3.492   4.914  0.4440  1.7555 -0.7131
 7754TIP3   OH223225   1.162   0.167   4.220  0.5071  0.7351 -0.0198
 7754TIP3    H123226   1.157   0.073   4.202  0.5027  0.6142  0.5833
 7754TIP3    H223227   1.074   0.190   4.249  0.4198  0.9990 -0.4828
 7755TIP3   OH223228   3.865   1.488   4.665  0.0647  0.3569 -0.2358
 7755TIP3    H123229   3.845   1.552   4.733 -1.1920 -1.2927  1.0129
 7755TIP3    H223230   3.823   1.523   4.586 -1.7402  0.4569  0.7289
 7756TIP3   OH223231   5.219   3.713   2.594 -0.3390  0.1619  0.0364
 7756TIP3    H123232   5.201   3.772   2.521  2.3580 -0.3483 -1.1645
 7756TIP3    H223233   5.308   3.735   2.621  1.2910 -3.9671 -1.2225
 7757TIP3   OH223234   3.223   2.351   0.553 -0.3797  0.9207 -0.0849
 7757TIP3    H123235   3.191   2.370   0.465  0.4456 -1.4296 -0.9635
 7757TIP3    H223236   3.180   2.269   0.577  0.4713  0.8104  1.1561
 7758TIP3   OH223237   1.541   1.999   4.247  0.1845 -0.3852  0.2596
 7758TIP3    H123238   1.495   1.918   4.225  1.0181 -0.4591 -1.3947
 7758TIP3    H223239   1.619   1.998   4.192 -0.3574  2.0901 -0.6949
 7759TIP3   OH223240   5.504   2.741   0.099  0.1188  0.0241  0.0985
 7759TIP3    H123241   5.518   2.836   0.096  1.5479 -0.2014 -1.8512
 7759TIP3    H223242   5.455   2.722   0.020 -0.8763 -0.7959  0.8901
 7760TIP3   OH223243   1.723   6.576   4.159  0.5336  0.2972  0.3020
 7760TIP3    H123244   1.748   6.624   4.080 -2.9703  1.4017 -0.3193
 7760TIP3    H223245   1.684   6.642   4.216  0.8939 -0.8939  2.0079
 7761TIP3   OH223246   3.416   2.121   1.651 -0.1870  0.6067 -0.9061
 7761TIP3    H123247   3.371   2.167   1.722 -0.9781 -0.8671 -0.4017
 7761TIP3    H223248   3.509   2.129   1.673 -0.1873  2.9112 -1.4689
 7762TIP3   OH223249   6.352   2.882   2.177  0.0661  0.1973 -0.3202
 7762TIP3    H123250   6.437   2.925   2.168  0.5002 -0.1857  1.5755
 7762TIP3    H223251   6.311   2.924   2.253 -0.7156 -0.7578 -0.1876
 7763TIP3   OH223252   4.633   6.044   3.450 -0.3462  0.2000  0.0538
 7763TIP3    H123253   4.600   6.134   3.450 -1.9418 -0.3560  0.6285
 7763TIP3    H223254   4.554   5.989   3.448  0.5899 -1.2181 -2.0338
 7764TIP3   OH223255   3.475   5.968   4.141  0.4930 -0.3526  0.0320
 7764TIP3    H123256   3.463   5.941   4.050  2.4131 -0.5984 -0.1815
 7764TIP3    H223257   3.386   5.991   4.171 -0.4872 -2.1915 -1.2586
 7765TIP3   OH223258   6.751   3.204   3.013 -0.8211  0.1200  0.5800
 7765TIP3    H123259   6.790   3.269   2.954  1.6080 -0.5622  1.2964
 7765TIP3    H223260   6.710   3.256   3.082 -1.3992  0.8911 -0.3172
 7766TIP3   OH223261   2.162   2.209   3.722 -0.5104 -0.2078  0.7126
 7766TIP3    H123262   2.109   2.282   3.692 -1.1740 -0.4341  1.3105
 7766TIP3    H223263   2.247   2.222   3.680 -0.9645  0.2818 -0.0755
 7767TIP3   OH223264   0.408   2.490   3.518  0.0598 -0.7885 -0.1130
 7767TIP3    H123265   0.404   2.531   3.604 -0.3103 -1.6018  0.2760
 7767TIP3    H223266   0.435   2.399   3.536 -0.0611 -0.9812 -0.8507
 7768TIP3   OH223267   2.105   2.766   4.635  0.2530 -0.5962 -0.3148
 7768TIP3    H123268   2.132   2.846   4.680  1.1160 -0.1291 -1.6048
 7768TIP3    H223269   2.011   2.777   4.621  0.0824 -0.5017  0.8654
 7769TIP3   OH223270   5.376   2.071   5.745  0.1908 -0.2014 -0.0226
 7769TIP3    H123271   5.353   1.978   5.750 -0.3632 -0.1219 -0.8806
 7769TIP3    H223272   5.444   2.082   5.812  0.4266 -1.2660 -0.0615
 7770TIP3   OH223273   0.758   3.648   0.937  0.6152  0.1342 -0.1848
 7770TIP3    H123274   0.773   3.693   1.020  0.5567  0.5320 -0.3885
 7770TIP3    H223275   0.805   3.565   0.946 -0.2508 -0.2836  0.6504
 7771TIP3   OH223276   6.015   2.137   4.325 -0.1804 -0.1798 -0.2184
 7771TIP3    H123277   6.083   2.179   4.272  0.1060 -0.5080 -0.1131
 7771TIP3    H223278   6.041   2.153   4.415  0.0895 -0.8289 -0.1759
 7772TIP3   OH223279   7.053   5.034   2.243  0.4231 -0.1805  0.2777
 7772TIP3    H123280   7.119   5.042   2.174 -0.3385 -0.8074 -0.5445
 7772TIP3    H223281   7.102   5.003   2.320  0.8693 -2.1460 -0.7467
 7773TIP3   OH223282   5.462   6.298   2.475  0.2473 -0.0794 -0.5226
 7773TIP3    H123283   5.477   6.317   2.568  2.4192 -0.0344 -0.8198
 7773TIP3    H223284   5.420   6.212   2.475  0.7941 -0.3653  0.4950
 7774TIP3   OH223285   4.132   3.040   0.659  0.1766 -0.3536  0.2945
 7774TIP3    H123286   4.084   3.036   0.576  0.3480 -0.1935  0.1870
 7774TIP3    H223287   4.070   3.079   0.721  1.3999  3.8429 -0.7791
 7775TIP3   OH223288   6.788   3.963   0.907  0.1486  0.5292  0.2466
 7775TIP3    H123289   6.848   3.995   0.840  0.4431  1.5379  0.9538
 7775TIP3    H223290   6.731   3.901   0.862  0.8352  0.5993 -0.7455
 7776TIP3   OH223291   5.513   6.091   3.991 -0.2866 -0.1528 -0.2875
 7776TIP3    H123292   5.540   6.122   4.078 -0.1851 -0.3438 -0.2513
 7776TIP3    H223293   5.450   6.157   3.961 -0.0590  0.0981 -0.2154
 7777TIP3   OH223294   3.257   3.734   2.322  0.1778 -1.0727  0.1345
 7777TIP3    H123295   3.204   3.655   2.318 -0.7181 -0.5571  1.2518
 7777TIP3    H223296   3.320   3.717   2.391  0.2002 -0.9432  0.1453
 7778TIP3   OH223297   3.772   3.379   5.270  0.0719 -0.4608 -0.2134
 7778TIP3    H123298   3.810   3.311   5.325 -0.9047 -1.3117 -0.5411
 7778TIP3    H223299   3.734   3.331   5.196 -2.3148  0.1972  0.4787
 7779TIP3   OH223300   2.965   1.512   2.040  0.1546  0.5396 -0.1104
 7779TIP3    H123301   3.011   1.428   2.031 -0.4400  0.2926 -1.0684
 7779TIP3    H223302   2.898   1.509   1.972  0.2355  1.8722 -0.2712
 7780TIP3   OH223303   0.013   4.144   0.703 -0.0496 -0.3208  0.0226
 7780TIP3    H123304   0.099   4.184   0.715  1.8305 -3.8907  0.0941
 7780TIP3    H223305   0.019   4.061   0.751 -2.7453 -1.7466 -1.8578
 7781TIP3   OH223306   2.061   0.060   2.748  0.3778 -0.3366 -0.3893
 7781TIP3    H123307   1.997  -0.006   2.722  1.9955 -1.3136 -2.1207
 7781TIP3    H223308   2.139   0.040   2.696  2.9958 -0.7011  3.3009
 7782TIP3   OH223309   7.158   0.571   3.848  0.1972 -0.1222 -0.3609
 7782TIP3    H123310   7.238   0.532   3.813 -0.5226 -1.0311 -1.0388
 7782TIP3    H223311   7.087   0.521   3.808 -0.7296  0.9654 -0.1420
 7783TIP3   OH223312   6.209   6.601   1.620 -0.2446  0.1329  0.0551
 7783TIP3    H123313   6.249   6.632   1.538 -0.5127 -0.0267 -0.1356
 7783TIP3    H223314   6.181   6.512   1.601 -2.0873  0.7470 -0.3045
 7784TIP3   OH223315   4.446   4.445   1.446  0.2154  0.3612 -0.4886
 7784TIP3    H123316   4.489   4.445   1.531 -0.1794  1.6939 -0.2639
 7784TIP3    H223317   4.517   4.451   1.383  0.5545 -1.3553 -0.3085
 7785TIP3   OH223318   3.742   3.747   4.589 -0.4473 -0.4918 -1.2449
 7785TIP3    H123319   3.774   3.760   4.678 -1.3668 -2.8957 -0.4851
 7785TIP3    H223320   3.777   3.821   4.540 -1.2825  1.8460  1.4267
 7786TIP3   OH223321   1.095   3.518   5.640 -0.3040 -0.2910  0.3043
 7786TIP3    H123322   1.083   3.435   5.686  1.4783 -0.4389  0.5523
 7786TIP3    H223323   1.077   3.497   5.548  0.3527 -1.0139  0.3308
 7787TIP3   OH223324   1.948   1.095   0.515 -0.0669  0.3206  0.3029
 7787TIP3    H123325   1.904   1.076   0.598  1.5640  0.7842  1.3235
 7787TIP3    H223326   1.968   1.188   0.519 -0.8175  0.5671 -1.0668
 7788TIP3   OH223327   3.332   5.542   0.897  0.1473 -0.1000 -0.3313
 7788TIP3    H123328   3.366   5.513   0.812 -4.4450  0.3016 -2.6413
 7788TIP3    H223329   3.350   5.636   0.900  0.3273 -0.1142 -0.8630
 7789TIP3   OH223330   0.200   0.123   4.059 -0.0422 -0.1637 -0.2302
 7789TIP3    H123331   0.269   0.124   3.993 -0.7029 -1.1632 -0.9678
 7789TIP3    H223332   0.175   0.215   4.068  0.9990  0.1452 -0.3550
 7790TIP3   OH223333   1.679   1.214   0.274 -0.2610  0.2345  0.6951
 7790TIP3    H123334   1.703   1.306   0.276 -0.1588  0.2449 -0.2282
 7790TIP3    H223335   1.584   1.213   0.260  0.0305  0.2619 -1.9098
 7791TIP3   OH223336   4.208   0.239   3.849  0.0035  0.1798  0.0017
 7791TIP3    H123337   4.115   0.255   3.858 -0.0141  0.0795  0.0015
 7791TIP3    H223338   4.225   0.246   3.755  0.3611  2.1874  0.1850
 7792TIP3   OH223339   2.846   0.652   0.270 -0.0460  0.2309  0.2736
 7792TIP3    H123340   2.771   0.712   0.266 -0.9558 -0.8435  0.5111
 7792TIP3    H223341   2.849   0.613   0.183 -0.9113 -1.0396  0.7846
 7793TIP3   OH223342   1.364   2.185   3.334  0.2852 -0.8267 -0.4206
 7793TIP3    H123343   1.365   2.213   3.243 -1.3815 -0.9685 -0.5133
 7793TIP3    H223344   1.393   2.093   3.331 -0.7159 -1.1400 -0.9464
 7794TIP3   OH223345   1.036   3.218   2.221 -0.3641 -0.2861  0.1960
 7794TIP3    H123346   1.059   3.128   2.197 -3.2211 -0.6913 -1.4803
 7794TIP3    H223347   1.090   3.272   2.164  1.0126 -0.8895  0.8618
 7795TIP3   OH223348   5.276   0.381   0.304  0.0628 -0.1774 -0.5995
 7795TIP3    H123349   5.291   0.334   0.222 -0.4131  0.0368 -0.8129
 7795TIP3    H223350   5.185   0.361   0.327 -0.2056  0.7980 -0.7924
 7796TIP3   OH223351   2.577   4.323  -0.022  0.0352 -0.7057 -0.0950
 7796TIP3    H123352   2.598   4.320   0.071  2.5863 -1.2025 -0.6069
 7796TIP3    H223353   2.579   4.416  -0.044 -0.8820 -0.5637  0.3805
 7797TIP3   OH223354   6.309   2.861   4.446 -0.4540 -0.1548 -0.0613
 7797TIP3    H123355   6.397   2.900   4.449 -0.7846  0.6269 -0.3793
 7797TIP3    H223356   6.272   2.880   4.532 -0.1934 -0.7870  0.1983
 7798TIP3   OH223357   4.870   4.722   2.837  0.2739 -0.3823  0.5949
 7798TIP3    H123358   4.823   4.639   2.834  0.0733 -0.2504  0.1043
 7798TIP3    H223359   4.950   4.706   2.788  0.3669 -0.3635  0.7372
 7799TIP3   OH223360   3.511   1.223   0.725 -0.1909  0.3952  0.0230
 7799TIP3    H123361   3.467   1.307   0.739  0.5706  0.8134 -0.0128
 7799TIP3    H223362   3.544   1.199   0.812  1.0963  1.0088 -0.2744
 7800TIP3   OH223363   3.900   3.998   3.445 -0.0935  0.0887  0.0295
 7800TIP3    H123364   3.862   3.982   3.531  0.1698  2.9133  0.7689
 7800TIP3    H223365   3.952   4.078   3.456 -1.0502  1.2957 -3.0127
 7801TIP3   OH223366   4.068   1.023   4.436  0.6787 -0.1179 -0.0122
 7801TIP3    H123367   4.016   1.013   4.355 -1.3869  1.3068  1.0601
 7801TIP3    H223368   4.155   1.048   4.405 -0.6101  2.6196 -1.8205
 7802TIP3   OH223369   2.146   4.332   4.668  0.4873  0.0869 -0.0961
 7802TIP3    H123370   2.073   4.392   4.653  1.4358  1.1509 -0.6587
 7802TIP3    H223371   2.191   4.368   4.745  0.3788 -0.6105  0.3042
 7803TIP3   OH223372   5.323   1.769   3.360 -0.2137  0.1450 -0.4364
 7803TIP3    H123373   5.308   1.737   3.271 -1.6407 -1.7966  0.4386
 7803TIP3    H223374   5.320   1.865   3.352 -1.0644 -0.0038 -2.3348
 7804TIP3   OH223375   0.520   1.315   2.761  0.3726  0.4683 -0.4102
 7804TIP3    H123376   0.453   1.265   2.715  0.8752 -2.1154  1.4431
 7804TIP3    H223377   0.570   1.249   2.810  1.3412  2.7465  1.9048
 7805TIP3   OH223378   0.647   1.742   1.110  0.4891  0.1302  0.8555
 7805TIP3    H123379   0.640   1.692   1.192 -1.6019 -0.0338  0.6176
 7805TIP3    H223380   0.692   1.682   1.050  0.1966 -0.5415  1.2910
 7806TIP3   OH223381   4.081   1.785   3.292  0.1834 -0.1308  0.1896
 7806TIP3    H123382   4.152   1.779   3.356  2.0073  0.7459 -1.6391
 7806TIP3    H223383   4.110   1.730   3.219 -1.4377 -0.4260 -0.2584
 7807TIP3   OH223384   4.447   3.324   1.755  0.1670  0.0885  0.4694
 7807TIP3    H123385   4.537   3.309   1.725 -0.2065  2.0096 -1.8068
 7807TIP3    H223386   4.444   3.417   1.776 -1.8638  0.5972 -1.7699
 7808TIP3   OH223387   3.055   4.748   1.882  0.5314 -0.4403  0.5354
 7808TIP3    H123388   3.150   4.732   1.878  0.7898  1.1164 -0.4463
 7808TIP3    H223389   3.043   4.830   1.833 -1.5243 -1.4251 -0.7136
 7809TIP3   OH223390   4.220   4.033   0.596  0.2211  0.3355 -0.1469
 7809TIP3    H123391   4.230   4.085   0.517  1.8744 -0.5738 -0.5754
 7809TIP3    H223392   4.283   4.070   0.658  1.0367 -0.7751 -0.2790
 7810TIP3   OH223393   6.844   4.288   0.747  0.5002  0.1275 -1.0428
 7810TIP3    H123394   6.891   4.371   0.753  0.2396  0.2973 -1.3301
 7810TIP3    H223395   6.845   4.253   0.837  1.5065 -0.0635 -1.1256
 7811TIP3   OH223396   1.152   1.035   1.881 -0.1234 -0.2246 -0.5142
 7811TIP3    H123397   1.179   1.006   1.794 -0.5614  0.2931 -0.8245
 7811TIP3    H223398   1.234   1.047   1.929  0.0994 -1.2174 -0.6145
 7812TIP3   OH223399   1.442   3.057   1.255 -0.1208 -0.4152  0.8630
 7812TIP3    H123400   1.444   3.011   1.171  0.1325  1.8503 -0.4634
 7812TIP3    H223401   1.531   3.089   1.267  0.1538 -1.7149  2.6459
 7813TIP3   OH223402   3.233   0.298   3.574 -0.2479 -0.1016  0.5225
 7813TIP3    H123403   3.249   0.289   3.668  1.5570 -1.8108  0.1253
 7813TIP3    H223404   3.217   0.209   3.543  1.1057  0.1514 -1.0759
 7814TIP3   OH223405   1.301   6.807   4.837  0.2328 -0.0247  0.2808
 7814TIP3    H123406   1.313   6.712   4.837  0.9012  0.0404  1.3470
 7814TIP3    H223407   1.208   6.820   4.857  0.1986 -0.4603  0.4122
 7815TIP3   OH223408   6.629   5.576   1.720 -0.5309 -0.2117 -0.0018
 7815TIP3    H123409   6.697   5.581   1.652 -1.0340  2.2740 -0.4357
 7815TIP3    H223410   6.558   5.525   1.680  0.5426 -1.7976  0.0205
 7816TIP3   OH223411   4.033   2.987   1.311  0.2488  0.5674 -0.1277
 7816TIP3    H123412   3.998   3.022   1.229 -1.3146 -2.0240 -0.6699
 7816TIP3    H223413   4.128   2.985   1.298  0.0165 -0.0415 -2.0220
 7817TIP3   OH223414   4.164   1.854   1.831  0.0520  0.6727  0.4464
 7817TIP3    H123415   4.188   1.869   1.740  0.1375  1.6194  0.6212
 7817TIP3    H223416   4.071   1.833   1.828  0.2322 -0.1161  0.0657
 7818TIP3   OH223417   1.362   3.210   2.517 -0.4211  0.3417  0.1218
 7818TIP3    H123418   1.278   3.165   2.507 -0.9082  1.2576 -0.0250
 7818TIP3    H223419   1.387   3.235   2.428  0.7534 -1.2101 -0.0200
 7819TIP3   OH223420   1.774   4.174   4.979 -0.1106  0.1847 -0.0357
 7819TIP3    H123421   1.766   4.160   5.074  0.5678 -1.1615 -0.1563
 7819TIP3    H223422   1.799   4.088   4.944  0.0293  0.7558 -1.3932
 7820TIP3   OH223423   3.203   4.112   2.917 -0.0632  0.7955  0.0084
 7820TIP3    H123424   3.242   4.101   3.004  0.6498  2.3271 -0.0876
 7820TIP3    H223425   3.126   4.167   2.932 -1.6012 -1.2429  0.0261
 7821TIP3   OH223426   1.928   0.321   0.757  0.1098  0.2142 -0.0049
 7821TIP3    H123427   1.948   0.276   0.839 -1.8402 -0.0733  0.3591
 7821TIP3    H223428   1.896   0.252   0.699  0.4376  0.5929 -0.6526
 7822TIP3   OH223429   1.470   5.421   2.851  0.0288 -0.2309 -0.4297
 7822TIP3    H123430   1.445   5.509   2.879 -2.6654 -1.3621  1.1035
 7822TIP3    H223431   1.519   5.384   2.925 -0.1804 -0.5319 -0.4385
 7823TIP3   OH223432   6.615   4.656   1.545  0.3831  0.6097 -0.0432
 7823TIP3    H123433   6.674   4.581   1.540  1.1274  1.2176 -0.6631
 7823TIP3    H223434   6.640   4.700   1.626  0.4636  0.6061 -0.0656
 7824TIP3   OH223435   2.527   1.534   4.172  0.3021  0.1248 -0.3663
 7824TIP3    H123436   2.448   1.514   4.123  0.2555 -0.3454 -0.0986
 7824TIP3    H223437   2.572   1.450   4.183  0.5291  0.2897  0.0208
 7825TIP3   OH223438   7.056   2.193   0.104 -0.1352 -0.2671  0.1035
 7825TIP3    H123439   6.994   2.148   0.046 -1.2332  2.8970 -1.3812
 7825TIP3    H223440   7.012   2.196   0.189 -1.3492  0.5091 -0.5227
 7826TIP3   OH223441   0.376   6.636   2.112  0.4509 -0.1789 -0.8128
 7826TIP3    H123442   0.435   6.709   2.091  0.0140  0.4097 -0.0860
 7826TIP3    H223443   0.295   6.679   2.141  0.3084 -0.9485 -0.0316
 7827TIP3   OH223444   1.940   4.774   3.010 -0.0825  0.0733  0.7108
 7827TIP3    H123445   2.023   4.750   3.051 -0.2663  0.9585  1.6283
 7827TIP3    H223446   1.873   4.748   3.074 -0.4501  0.3403  0.4413
 7828TIP3   OH223447   7.129   2.662   4.661 -0.1729  0.4030 -0.7246
 7828TIP3    H123448   7.141   2.595   4.593 -0.5041 -0.8588  0.4136
 7828TIP3    H223449   7.180   2.630   4.735 -1.2082  0.8734  0.2168
 7829TIP3   OH223450   3.575   5.083   4.745  0.1448 -0.1394 -0.0758
 7829TIP3    H123451   3.509   5.044   4.688 -0.5255  0.9268 -0.0584
 7829TIP3    H223452   3.532   5.092   4.830  0.1717  0.8890 -0.1551
 7830TIP3   OH223453   4.992   0.518   0.224  0.4630  0.1737 -0.1014
 7830TIP3    H123454   4.991   0.528   0.319  1.0998  1.2645 -0.1961
 7830TIP3    H223455   5.031   0.599   0.191  0.6963 -0.3837 -1.2683
 7831TIP3   OH223456   5.179   6.346   3.205 -0.1489  0.4679  0.2620
 7831TIP3    H123457   5.128   6.407   3.151 -3.9568 -0.2837  2.5753
 7831TIP3    H223458   5.174   6.263   3.159  0.0385  0.6664 -0.1178
 7832TIP3   OH223459   3.138   4.081   4.386 -0.1237  0.3828 -0.1462
 7832TIP3    H123460   3.192   4.160   4.396 -1.1091  1.1224 -0.5227
 7832TIP3    H223461   3.063   4.095   4.443 -0.6697  0.0602 -0.7668
 7833TIP3   OH223462   4.739   3.563   5.484  0.8782 -0.5601 -0.1363
 7833TIP3    H123463   4.744   3.595   5.574 -1.0132  0.3077 -0.2979
 7833TIP3    H223464   4.776   3.634   5.431 -0.1527 -0.0777 -0.2197
 7834TIP3   OH223465   2.194   4.592   0.885 -0.0179  0.0016 -0.1587
 7834TIP3    H123466   2.287   4.609   0.898  0.7337 -2.3517 -1.9093
 7834TIP3    H223467   2.165   4.663   0.827  1.2767 -0.4885 -1.4780
 7835TIP3   OH223468   2.768   5.545   0.511 -0.2268 -0.2524 -0.6107
 7835TIP3    H123469   2.790   5.573   0.599 -1.5062  0.0706 -0.3682
 7835TIP3    H223470   2.775   5.624   0.457  0.7112 -0.4833 -0.8418
 7836TIP3   OH223471   4.981   1.293   5.567 -0.0035 -0.1360  0.5744
 7836TIP3    H123472   4.937   1.372   5.600 -0.0260 -1.0685  3.0111
 7836TIP3    H223473   4.947   1.282   5.478 -0.6435  2.1066  0.4760
 7837TIP3   OH223474   1.199   4.443   4.926  0.0328  0.4146  0.3276
 7837TIP3    H123475   1.205   4.349   4.912 -0.2197  0.4485 -0.0296
 7837TIP3    H223476   1.203   4.481   4.838  2.1205  0.8691  0.5759
 7838TIP3   OH223477   5.385   1.165   3.395  0.2836  0.2228  0.0058
 7838TIP3    H123478   5.476   1.155   3.370  0.4094 -0.3920  0.6646
 7838TIP3    H223479   5.360   1.079   3.431 -0.8087  0.1026 -0.9658
 7839TIP3   OH223480   6.571   0.193   1.138 -0.4407 -0.4708 -0.5900
 7839TIP3    H123481   6.593   0.258   1.206 -1.1521  1.0889 -1.7915
 7839TIP3    H223482   6.498   0.144   1.175 -0.4616 -0.0121  0.0007
 7840TIP3   OH223483   4.701   1.497   0.696 -0.2055  0.6720  0.0102
 7840TIP3    H123484   4.659   1.466   0.776 -1.5523 -0.8425 -1.1958
 7840TIP3    H223485   4.752   1.422   0.665  0.8819  1.4743 -0.1930
 7841TIP3   OH223486   1.111   5.660   0.594  0.1366 -0.5692 -0.0052
 7841TIP3    H123487   1.062   5.583   0.621 -0.4606 -0.6014 -1.1062
 7841TIP3    H223488   1.048   5.732   0.598  0.8443 -0.0017  1.5909
 7842TIP3   OH223489   2.761   5.101   4.466 -0.0488 -0.1207 -0.2319
 7842TIP3    H123490   2.737   5.131   4.554 -0.2704  1.6002 -0.8474
 7842TIP3    H223491   2.707   5.153   4.407  0.9188 -0.4269 -1.4307
 7843TIP3   OH223492   5.934   1.081   2.182  0.0962  0.4642 -0.5629
 7843TIP3    H123493   5.956   1.040   2.266  0.6859  0.7421 -0.5726
 7843TIP3    H223494   5.922   1.174   2.203 -1.1007  0.3257 -0.5628
 7844TIP3   OH223495   1.528   5.913   4.854 -0.0490 -0.2314  0.2896
 7844TIP3    H123496   1.525   5.858   4.932 -0.5500  1.4120  1.4675
 7844TIP3    H223497   1.606   5.966   4.865  0.1012 -0.2657 -0.5423
 7845TIP3   OH223498   5.862   4.984   0.536  0.8327  0.1784 -0.1443
 7845TIP3    H123499   5.865   5.078   0.521  3.0892  0.2152  0.2087
 7845TIP3    H223500   5.777   4.957   0.502  0.0094  2.3692  0.0225
 7846TIP3   OH223501   2.362   1.267   5.800 -0.4712  0.0096 -0.0997
 7846TIP3    H123502   2.431   1.297   5.859  1.5207  1.1747 -2.8105
 7846TIP3    H223503   2.289   1.327   5.815  0.6098  1.3231  0.0024
 7847TIP3   OH223504   5.759   5.255   4.262  0.2863  0.1313  0.0263
 7847TIP3    H123505   5.823   5.227   4.327 -0.2812 -1.9367 -0.2412
 7847TIP3    H223506   5.677   5.215   4.291 -0.1666 -0.0580 -1.4602
 7848TIP3   OH223507   5.291   3.020   4.065 -0.7356 -0.8570 -0.1317
 7848TIP3    H123508   5.378   2.998   4.031 -1.0354 -0.8869 -0.8897
 7848TIP3    H223509   5.247   3.063   3.992 -1.7308 -1.7877 -0.1047
 7849TIP3   OH223510   4.055   0.272   5.716 -0.1051 -0.0751 -0.2259
 7849TIP3    H123511   4.068   0.340   5.650  1.6225 -1.1932 -1.1194
 7849TIP3    H223512   4.136   0.274   5.768 -0.1387 -1.2286 -0.0903
 7850TIP3   OH223513   3.340   5.174   0.998 -0.4242 -0.6977  0.0674
 7850TIP3    H123514   3.274   5.238   1.025 -2.0555 -2.1558 -0.3531
 7850TIP3    H223515   3.361   5.198   0.907 -1.2448 -0.9355 -0.1857
 7851TIP3   OH223516   4.920  -0.006   0.757 -0.8748  0.1563 -0.3239
 7851TIP3    H123517   4.971   0.028   0.830 -0.9085  1.0786 -0.7184
 7851TIP3    H223518   4.874   0.070   0.722  1.2027  0.3271 -2.9776
 7852TIP3   OH223519   7.061   5.867   3.808 -0.0250  0.1565  0.0724
 7852TIP3    H123520   7.065   5.952   3.851  0.1752  0.2857 -0.2026
 7852TIP3    H223521   7.145   5.858   3.763 -0.1114 -0.1134 -0.0408
 7853TIP3   OH223522   6.611   4.439   3.124  0.5386 -0.2032 -0.2731
 7853TIP3    H123523   6.690   4.386   3.131  0.9299  0.4539  0.4166
 7853TIP3    H223524   6.629   4.517   3.177 -1.3435 -0.9681  1.6298
 7854TIP3   OH223525   6.510   4.854   0.574  0.4604 -0.2883  0.2930
 7854TIP3    H123526   6.588   4.806   0.601  0.6162  0.8779  2.0824
 7854TIP3    H223527   6.535   4.946   0.581 -0.0806  0.1308 -2.2900
 7855TIP3   OH223528   0.913   6.281   5.716  0.4398  0.2906 -0.5981
 7855TIP3    H123529   0.953   6.252   5.799 -0.6684 -2.4911 -0.9569
 7855TIP3    H223530   0.927   6.376   5.716 -0.0998  0.5346  3.1094
 7856TIP3   OH223531   0.313   1.643   2.268 -0.4221  0.4791 -0.6348
 7856TIP3    H123532   0.291   1.614   2.180 -0.4543 -0.9604 -0.1677
 7856TIP3    H223533   0.276   1.576   2.326  0.3752  0.9320  0.4325
 7857TIP3   OH223534   6.111   5.651   5.731 -0.2241 -0.2713  0.2100
 7857TIP3    H123535   6.137   5.682   5.644 -0.5713  1.5487  0.7099
 7857TIP3    H223536   6.069   5.727   5.772 -0.3778 -1.1909  1.8519
 7858TIP3   OH223537   3.243   6.025   0.981 -0.4257 -0.4808 -0.0747
 7858TIP3    H123538   3.209   5.977   0.905  0.7698 -0.1794 -0.8191
 7858TIP3    H223539   3.306   6.087   0.944 -2.0518  1.8210  0.8460
 7859TIP3   OH223540   1.506   1.316   2.828  0.2243 -0.0927 -0.0056
 7859TIP3    H123541   1.563   1.392   2.822  1.8661 -0.9999  2.6137
 7859TIP3    H223542   1.421   1.352   2.857  1.0979  0.7623  1.6424
 7860TIP3   OH223543   6.092   4.377   5.284 -0.0104 -0.3030 -0.5269
 7860TIP3    H123544   6.043   4.302   5.320 -0.7167  0.0303 -0.7711
 7860TIP3    H223545   6.130   4.420   5.360  0.2405 -0.7958 -0.3678
 7861TIP3   OH223546   6.008   0.576   0.026  0.0735  0.5793  0.1557
 7861TIP3    H123547   5.977   0.488   0.006 -2.1213  1.5817 -1.2436
 7861TIP3    H223548   6.090   0.562   0.072 -0.6007 -2.2045  0.7151
 7862TIP3   OH223549   1.697   3.920   1.688 -0.1083  0.0360  0.2475
 7862TIP3    H123550   1.633   3.974   1.641 -0.5043  3.1825  3.9407
 7862TIP3    H223551   1.645   3.850   1.728 -0.3365 -0.4638 -0.8904
 7863TIP3   OH223552   1.043   2.309   3.119  0.4517 -0.0495  0.7339
 7863TIP3    H123553   1.115   2.361   3.154  1.3824  0.2092 -1.4322
 7863TIP3    H223554   1.029   2.344   3.031 -3.0224  0.5636  1.4068
 7864TIP3   OH223555   4.008   3.884   0.197 -0.7737  0.0570  0.4236
 7864TIP3    H123556   3.978   3.914   0.283 -0.2565 -0.4927  0.8067
 7864TIP3    H223557   4.091   3.841   0.215  0.9065  2.5607 -0.7494
 7865TIP3   OH223558   3.277   2.277   1.286  0.4363 -0.0217 -0.3109
 7865TIP3    H123559   3.351   2.333   1.309  1.2081 -0.6385 -1.2475
 7865TIP3    H223560   3.216   2.286   1.360  1.6439  0.1213  0.6865
 7866TIP3   OH223561   5.138   1.429   4.063 -0.4026  0.1763  0.0654
 7866TIP3    H123562   5.208   1.386   4.014 -0.2414  1.1931 -0.6114
 7866TIP3    H223563   5.165   1.420   4.155  0.7774  0.8296 -0.1979
 7867TIP3   OH223564   4.237   0.925   3.387 -0.0491  0.3451 -0.1711
 7867TIP3    H123565   4.307   0.970   3.434 -0.5519  0.2577  0.7064
 7867TIP3    H223566   4.277   0.896   3.305  0.8188  0.6616  0.1262
 7868TIP3   OH223567   1.186   6.053   1.117 -0.3455 -0.0491 -0.0070
 7868TIP3    H123568   1.248   6.068   1.188  0.2024  0.1951 -0.5311
 7868TIP3    H223569   1.115   6.115   1.134 -1.7331 -2.0211  2.0238
 7869TIP3   OH223570   6.082   4.602   5.783 -0.2175 -0.1965 -0.2795
 7869TIP3    H123571   6.040   4.658   5.718 -0.8407 -1.7566 -1.2954
 7869TIP3    H223572   6.153   4.656   5.819 -1.6071  1.6699 -0.2180
 7870TIP3   OH223573   0.355   5.236   0.809 -0.1568  0.6827 -0.1079
 7870TIP3    H123574   0.390   5.295   0.875  1.5608  1.1327 -1.3669
 7870TIP3    H223575   0.427   5.176   0.789 -0.9379 -0.0262 -0.9100
 7871TIP3   OH223576   4.913   4.817   3.845 -0.0396 -0.3218 -0.0194
 7871TIP3    H123577   4.894   4.909   3.864 -1.2335 -0.5171 -0.2115
 7871TIP3    H223578   4.887   4.806   3.754  1.5013 -0.4972 -0.4605
 7872TIP3   OH223579   3.137   3.458   1.226 -0.1398 -0.1107  0.0222
 7872TIP3    H123580   3.077   3.490   1.159  0.2787  2.0397  0.6059
 7872TIP3    H223581   3.206   3.413   1.177 -0.1197  0.9574 -0.9579
 7873TIP3   OH223582   5.368   5.100   1.313  0.7467 -0.5330 -0.2091
 7873TIP3    H123583   5.301   5.037   1.286 -1.8573  1.7348  0.5365
 7873TIP3    H223584   5.399   5.067   1.398 -0.2923 -1.0130 -0.0005
 7874TIP3   OH223585   3.216   4.603   4.300 -0.5659 -0.0524  0.4120
 7874TIP3    H123586   3.278   4.531   4.291  1.4119  1.2570  2.4931
 7874TIP3    H223587   3.133   4.561   4.321  0.4416 -1.7478  1.1799
 7875TIP3   OH223588   5.097   6.794   5.221  0.1467 -0.0507 -0.1325
 7875TIP3    H123589   5.106   6.823   5.312  1.6309  0.7082 -0.4888
 7875TIP3    H223590   5.112   6.700   5.224  2.0864  0.2315  0.1921
 7876TIP3   OH223591   5.087   0.055   4.291 -0.1900 -0.0810 -0.4507
 7876TIP3    H123592   5.044   0.116   4.350  1.4975  0.1835  0.5846
 7876TIP3    H223593   5.150   0.008   4.347  1.0962 -0.1859 -1.9088
 7877TIP3   OH223594   7.166   0.966   5.187 -0.6645 -0.2331 -0.1075
 7877TIP3    H123595   7.201   1.007   5.266 -0.3730  0.3744 -0.5415
 7877TIP3    H223596   7.237   0.973   5.123 -0.8983 -0.7198 -0.4289
 7878TIP3   OH223597   6.288   0.430   2.471 -0.1455 -0.4977 -0.1757
 7878TIP3    H123598   6.364   0.396   2.520  0.0552  0.0469 -0.0980
 7878TIP3    H223599   6.304   0.402   2.381  0.8912  0.8087 -0.4325
 7879TIP3   OH223600   2.339   5.563   0.190  0.7120 -0.2155  0.4843
 7879TIP3    H123601   2.277   5.526   0.253 -0.1055  0.9640  0.4128
 7879TIP3    H223602   2.308   5.532   0.105 -0.0797  0.7473  0.4083
 7880TIP3   OH223603   5.229   6.306   3.484  0.2147 -0.4463  0.0781
 7880TIP3    H123604   5.233   6.308   3.389  0.1657 -2.1649  0.0035
 7880TIP3    H223605   5.136   6.306   3.504  0.0305 -4.1542 -0.1181
 7881TIP3   OH223606   2.131   5.627   1.557 -0.7927 -0.1238 -0.0729
 7881TIP3    H123607   2.193   5.699   1.542  0.6568 -1.2677  0.1808
 7881TIP3    H223608   2.082   5.653   1.635  0.6662 -0.0172  0.8319
 7882TIP3   OH223609   5.831   0.409   2.570  0.4254  0.6910 -0.3483
 7882TIP3    H123610   5.789   0.345   2.513 -1.3394  1.4536  0.0037
 7882TIP3    H223611   5.903   0.445   2.518  0.8742 -0.9067 -0.8715
 7883TIP3   OH223612   6.799   2.596   1.583 -0.4556  0.0640 -0.2342
 7883TIP3    H123613   6.768   2.516   1.541 -1.4378  1.0284 -1.4344
 7883TIP3    H223614   6.889   2.605   1.553  0.1087 -1.2489  0.9622
 7884TIP3   OH223615   1.440   0.808   2.315 -0.7117  0.2958  0.0074
 7884TIP3    H123616   1.407   0.870   2.250 -0.1419  0.9300  0.3199
 7884TIP3    H223617   1.425   0.849   2.399 -1.7661 -0.6793  0.3186
 7885TIP3   OH223618   3.239   3.994   2.243 -0.0284 -0.2017 -0.2688
 7885TIP3    H123619   3.181   3.982   2.167 -1.3759  0.5611  0.5935
 7885TIP3    H223620   3.267   3.906   2.267 -0.4007 -0.5365 -1.0365
 7886TIP3   OH223621   1.409   6.128   5.136 -0.3343 -0.1103 -0.2886
 7886TIP3    H123622   1.363   6.081   5.066  0.1211 -0.1029 -0.5954
 7886TIP3    H223623   1.358   6.108   5.215 -1.2076  0.3716 -0.7098
 7887TIP3   OH223624   0.352   0.703   5.566  0.5324  0.2839  0.6195
 7887TIP3    H123625   0.364   0.688   5.660 -1.2753  0.3862  0.9083
 7887TIP3    H223626   0.372   0.618   5.526 -0.2566 -0.2298  1.2753
 7888TIP3   OH223627   0.975   2.971   3.662  0.2559  0.7382 -0.6650
 7888TIP3    H123628   1.056   2.944   3.705  0.4548  1.0482 -0.8392
 7888TIP3    H223629   1.003   3.036   3.597 -0.2109  1.4384 -0.1885
 7889TIP3   OH223630   4.105   4.874   0.210  0.4945  0.4848 -0.4314
 7889TIP3    H123631   4.075   4.898   0.122  1.9333  0.4450 -0.9646
 7889TIP3    H223632   4.051   4.798   0.233 -0.9048  1.3718 -0.6434
 7890TIP3   OH223633   5.168   5.218   5.008 -0.2080  0.0011  0.5973
 7890TIP3    H123634   5.109   5.279   5.052 -0.8646 -0.5649  0.5110
 7890TIP3    H223635   5.204   5.269   4.935  0.1675  0.6472  1.2249
 7891TIP3   OH223636   1.241   5.260   4.299 -0.1617  0.3581 -0.0096
 7891TIP3    H123637   1.299   5.322   4.344  0.3559 -0.1795  0.0800
 7891TIP3    H223638   1.282   5.174   4.312 -1.2139 -0.0996  0.4462
 7892TIP3   OH223639   6.100   3.101   5.320 -0.0900  0.7246 -0.2082
 7892TIP3    H123640   6.136   3.012   5.324  0.2435  0.8836  0.4439
 7892TIP3    H223641   6.176   3.157   5.304 -0.3193  0.8878 -0.7553
 7893TIP3   OH223642   4.182   5.152   0.611  0.0794  0.2353 -0.0639
 7893TIP3    H123643   4.274   5.150   0.587  0.3159  0.9188  0.7387
 7893TIP3    H223644   4.167   5.240   0.644 -1.1606  0.5162 -1.2564
 7894TIP3   OH223645   7.162   4.131   3.503 -0.0484 -0.3064 -0.1548
 7894TIP3    H123646   7.179   4.212   3.551 -0.1551 -0.2502 -0.2130
 7894TIP3    H223647   7.079   4.100   3.538  1.0489 -1.5718  1.5046
 7895TIP3   OH223648   4.682   4.838   5.856 -0.3112 -0.2436 -0.3201
 7895TIP3    H123649   4.608   4.792   5.815 -0.3966 -0.9039  0.5411
 7895TIP3    H223650   4.758   4.811   5.805 -0.6965  0.6767 -1.4002
 7896TIP3   OH223651   2.686   4.640   2.099  0.4989  0.0694 -0.0210
 7896TIP3    H123652   2.638   4.572   2.052 -1.4251  0.6335  1.0126
 7896TIP3    H223653   2.775   4.606   2.106 -0.5324 -2.7439  1.1200
 7897TIP3   OH223654   3.366   1.183   4.918 -0.0924  0.1173  0.4241
 7897TIP3    H123655   3.381   1.093   4.948  0.3986  0.5037  1.3722
 7897TIP3    H223656   3.447   1.208   4.875 -0.8850 -0.5265 -1.5508
 7898TIP3   OH223657   5.801   0.089   1.495 -0.3717  0.2320  0.0824
 7898TIP3    H123658   5.709   0.061   1.490 -0.2543 -0.2551  0.5581
 7898TIP3    H223659   5.796   0.184   1.503 -0.7778  0.3887 -1.5812
 7899TIP3   OH223660   1.867   1.003   2.957  0.5326  0.2542 -0.6093
 7899TIP3    H123661   1.774   1.020   2.971 -0.1438 -3.1284 -0.0643
 7899TIP3    H223662   1.871   0.954   2.875  1.3261 -2.3990  0.8819
 7900TIP3   OH223663   2.848   2.210   3.158 -0.3501  0.2459  0.3598
 7900TIP3    H123664   2.774   2.252   3.203 -0.6974  0.1523 -0.1084
 7900TIP3    H223665   2.830   2.116   3.165 -0.0023  0.1997  0.6901
 7901TIP3   OH223666   0.513   3.600   1.749  0.2875  0.0538 -0.2439
 7901TIP3    H123667   0.548   3.521   1.789  0.9059  0.3100 -0.2536
 7901TIP3    H223668   0.420   3.601   1.773  0.9157  1.0223  2.5966
 7902TIP3   OH223669   1.958   4.447   2.889  0.0143  0.1409 -0.7037
 7902TIP3    H123670   1.946   4.532   2.848 -0.0001 -0.3121 -1.6626
 7902TIP3    H223671   1.883   4.438   2.948  0.8187  1.4305  0.5923
 7903TIP3   OH223672   4.179   3.823   4.314 -0.3542  0.2302 -0.5051
 7903TIP3    H123673   4.255   3.789   4.361  0.5139  0.6004 -1.6287
 7903TIP3    H223674   4.183   3.781   4.228 -1.5142  0.1395 -0.5329
 7904TIP3   OH223675   1.438   0.212   2.538  0.1934 -0.1634 -0.0506
 7904TIP3    H123676   1.428   0.212   2.634 -1.4629  0.5033 -0.1902
 7904TIP3    H223677   1.479   0.296   2.518 -0.6159  0.2496 -0.0089
 7905TIP3   OH223678   5.705   5.141   2.115 -0.1151 -0.3292 -0.0323
 7905TIP3    H123679   5.675   5.078   2.050 -0.0691  0.7502 -1.1363
 7905TIP3    H223680   5.697   5.226   2.072  1.2415  0.2992  0.8786
 7906TIP3   OH223681   2.922   6.055   4.106 -0.2740 -0.6454 -0.2880
 7906TIP3    H123682   2.881   5.981   4.062 -0.4454 -0.5698 -0.2555
 7906TIP3    H223683   2.885   6.054   4.194 -1.7064  0.5807 -0.8157
 7907TIP3   OH223684   6.594   2.252   1.056  0.2554  0.2120 -0.0901
 7907TIP3    H123685   6.682   2.277   1.083  0.0169  0.3709  0.5616
 7907TIP3    H223686   6.605   2.169   1.010  0.7367  0.2036  0.0421
 7908TIP3   OH223687   7.247   0.008   0.882  0.3371  0.2652 -0.8308
 7908TIP3    H123688   7.230   0.086   0.830  0.1463 -0.1125 -1.3568
 7908TIP3    H223689   7.165  -0.008   0.929 -0.2982 -0.6727 -2.1746
 7909TIP3   OH223690   5.303   5.212   2.768 -0.1075 -0.2512 -0.4344
 7909TIP3    H123691   5.319   5.295   2.813 -0.5589 -1.1900  1.5774
 7909TIP3    H223692   5.254   5.237   2.690  0.6829  1.4564 -0.4461
 7910TIP3   OH223693   0.871   4.707   3.527  0.1603 -0.1806 -0.0256
 7910TIP3    H123694   0.911   4.621   3.544 -0.1249 -0.3789 -0.3634
 7910TIP3    H223695   0.904   4.762   3.598 -0.5064 -0.8455  0.8156
 7911TIP3   OH223696   3.781   5.554   3.267  0.0668  0.0582  0.5148
 7911TIP3    H123697   3.781   5.643   3.233 -1.3099  0.1634  0.7104
 7911TIP3    H223698   3.869   5.521   3.251  0.0792  0.8402 -1.1989
 7912TIP3   OH223699   5.210   3.766   0.687  0.3643  0.4158  0.6326
 7912TIP3    H123700   5.150   3.816   0.632  0.8089  0.4828  0.2026
 7912TIP3    H223701   5.286   3.750   0.631  0.0593 -1.1142  0.6045
 7913TIP3   OH223702   5.612   3.269   0.551 -0.3045  0.3554 -0.0736
 7913TIP3    H123703   5.555   3.342   0.527  0.3292  0.6136 -0.8319
 7913TIP3    H223704   5.581   3.196   0.497 -0.6776  0.1694  0.3877
 7914TIP3   OH223705   1.211   6.059   1.451  0.3327 -0.2458 -0.2230
 7914TIP3    H123706   1.125   6.101   1.454  0.3569 -0.1278 -0.8947
 7914TIP3    H223707   1.251   6.080   1.535  0.4508  1.3023 -0.6412
 7915TIP3   OH223708   5.579   5.396   5.854 -0.3306  0.5163  0.0772
 7915TIP3    H123709   5.612   5.308   5.837  1.9793  1.2337  0.5195
 7915TIP3    H223710   5.511   5.384   5.921 -0.3790 -0.9415 -0.1993
 7916TIP3   OH223711   3.097   4.424   4.490 -0.4535  0.5422  0.4635
 7916TIP3    H123712   3.074   4.366   4.418  1.9364  0.2584 -0.1514
 7916TIP3    H223713   3.122   4.364   4.561 -0.8898  0.8284  0.8630
 7917TIP3   OH223714   1.821   1.786   5.880  0.1330  0.2334 -0.0185
 7917TIP3    H123715   1.899   1.813   5.833 -0.0913 -0.6469 -0.9425
 7917TIP3    H223716   1.748   1.820   5.828 -0.1090  0.2480  0.3232
 7918TIP3   OH223717   6.422   2.342   2.317 -0.3166 -0.3695  0.4454
 7918TIP3    H123718   6.437   2.433   2.291  2.1121 -0.1015  2.3998
 7918TIP3    H223719   6.416   2.346   2.412 -0.4681 -2.2362  0.5417
 7919TIP3   OH223720   7.081   3.444   1.135 -0.3657  0.1507 -0.1405
 7919TIP3    H123721   7.018   3.515   1.151  0.4183  0.7794  0.1868
 7919TIP3    H223722   7.093   3.444   1.040 -0.3258  0.4857 -0.1349
 7920TIP3   OH223723   4.434   5.039   4.399  0.2687  0.7466 -0.6988
 7920TIP3    H123724   4.462   5.108   4.339  1.4720  1.6655  0.8316
 7920TIP3    H223725   4.350   5.071   4.434  0.8969  1.5587  0.1216
 7921TIP3   OH223726   4.177   3.359   1.738  0.6004  0.4846 -0.1855
 7921TIP3    H123727   4.270   3.338   1.749  0.2079 -0.1186  2.8999
 7921TIP3    H223728   4.174   3.455   1.740  1.3178  0.6608 -3.0377
 7922TIP3   OH223729   5.476   2.656   0.358  0.3343 -0.0463 -0.4380
 7922TIP3    H123730   5.504   2.691   0.274  1.6751 -0.7947 -0.3334
 7922TIP3    H223731   5.409   2.591   0.336 -1.0656  1.4221 -0.7268
 7923TIP3   OH223732   0.982   6.128   3.957 -0.4203 -0.1012 -0.4244
 7923TIP3    H123733   0.942   6.151   4.041  0.4778  0.3974 -0.1185
 7923TIP3    H223734   0.909   6.097   3.903 -0.8447 -1.5531  0.9126
 7924TIP3   OH223735   1.580   3.865   3.128 -0.0407 -0.2723  0.0692
 7924TIP3    H123736   1.489   3.894   3.127  0.4086  1.3245  1.2593
 7924TIP3    H223737   1.575   3.769   3.132 -1.6112 -0.4725 -3.3259
 7925TIP3   OH223738   0.269   6.750   3.506 -0.5065 -0.0699  0.1094
 7925TIP3    H123739   0.336   6.762   3.439 -0.5118 -1.8906 -0.2709
 7925TIP3    H223740   0.304   6.682   3.564 -0.4501  1.5387  2.0819
 7926TIP3   OH223741   1.170   6.825   3.336 -0.6399  0.0757  0.8831
 7926TIP3    H123742   1.187   6.781   3.252 -1.6364  0.3635  0.5166
 7926TIP3    H223743   1.238   6.792   3.394  0.0841 -0.1154 -0.0423
 7927TIP3   OH223744   1.659   5.163   4.360  0.0972  0.0640 -0.4082
 7927TIP3    H123745   1.692   5.073   4.370  0.3353 -0.2044 -2.9360
 7927TIP3    H223746   1.733   5.218   4.384  0.0489 -0.3971  0.8735
 7928TIP3   OH223747   5.485   5.563   5.646  0.7403 -0.3743  0.7195
 7928TIP3    H123748   5.505   5.494   5.709 -0.0215 -0.2682  1.0785
 7928TIP3    H223749   5.543   5.544   5.572  0.9297 -1.0785  1.0355
 7929TIP3   OH223750   5.273   0.726   1.374  0.2748  0.4076 -0.0294
 7929TIP3    H123751   5.340   0.794   1.379  0.5043  0.2160 -0.4601
 7929TIP3    H223752   5.267   0.692   1.464  2.6298 -1.3581 -0.4319
 7930TIP3   OH223753   1.385   3.274   4.526 -0.7951  0.5927  0.6153
 7930TIP3    H123754   1.409   3.181   4.522  0.6651  0.9905 -1.5398
 7930TIP3    H223755   1.310   3.282   4.466  0.0558  1.0343 -0.4172
 7931TIP3   OH223756   2.323   3.704   1.883  0.2689 -0.5518 -0.9315
 7931TIP3    H123757   2.347   3.667   1.798  1.0267 -1.0883 -0.4982
 7931TIP3    H223758   2.227   3.711   1.880  0.3447  0.2909 -2.1582
 7932TIP3   OH223759   3.608   0.495   2.126 -0.4493 -0.2962 -0.0489
 7932TIP3    H123760   3.650   0.441   2.193  2.7692 -1.3518 -2.6886
 7932TIP3    H223761   3.580   0.573   2.173  0.9929 -1.2595  2.6444
 7933TIP3   OH223762   1.659   3.738   0.699  0.7037  0.5078  0.1480
 7933TIP3    H123763   1.701   3.785   0.627 -1.9395  2.5161 -0.2407
 7933TIP3    H223764   1.716   3.753   0.774  1.2975  2.1272 -0.5755
 7934TIP3   OH223765   3.874   3.024   5.192 -0.3479  0.4291  0.2062
 7934TIP3    H123766   3.816   3.090   5.155  0.0805  1.0772  0.6571
 7934TIP3    H223767   3.826   2.942   5.184 -1.7967  1.0936  1.5218
 7935TIP3   OH223768   1.790   5.618   0.106  0.0858  0.1303 -0.4892
 7935TIP3    H123769   1.738   5.579   0.175  0.9650 -0.1675  0.0228
 7935TIP3    H223770   1.814   5.704   0.139 -0.6204  0.5354 -1.0009
 7936TIP3   OH223771   2.375   3.635   0.642 -0.0976 -0.6644  0.2247
 7936TIP3    H123772   2.428   3.557   0.658 -0.3313 -0.8526  0.0851
 7936TIP3    H223773   2.345   3.662   0.729 -0.8646 -1.3330  0.1794
 7937TIP3   OH223774   5.898   5.604   1.631 -0.3769 -0.3900  0.5845
 7937TIP3    H123775   5.988   5.636   1.627  0.2147 -1.9731  0.6997
 7937TIP3    H223776   5.874   5.613   1.723 -0.0322 -0.7501  0.7126
 7938TIP3   OH223777   5.070   2.827   5.571  0.6895  0.5460  0.7130
 7938TIP3    H123778   5.142   2.771   5.601 -0.0843 -0.7968  0.1716
 7938TIP3    H223779   5.040   2.873   5.649 -0.0530 -1.4523  1.6863
 7939TIP3   OH223780   0.184   1.217   0.434  0.4036  0.7088 -0.0376
 7939TIP3    H123781   0.264   1.252   0.473 -0.6551  1.7450  1.2620
 7939TIP3    H223782   0.116   1.281   0.454 -0.9918 -0.6598 -0.1717
 7940TIP3   OH223783   3.143   2.340   5.009  0.0851 -0.1309 -0.1097
 7940TIP3    H123784   3.086   2.366   5.082 -0.7411  0.1182 -0.8273
 7940TIP3    H223785   3.091   2.276   4.960  0.8129 -0.6383 -0.2339
 7941TIP3   OH223786   4.655   5.635   0.474 -0.5207 -0.0632 -0.6419
 7941TIP3    H123787   4.569   5.676   0.462 -1.5463 -1.8675  0.1019
 7941TIP3    H223788   4.683   5.664   0.560 -1.5489 -1.3600  0.1707
 7942TIP3   OH223789   1.139   6.338   0.253 -0.6767 -0.1799 -0.1926
 7942TIP3    H123790   1.044   6.331   0.255 -0.6259 -2.7319 -2.1097
 7942TIP3    H223791   1.169   6.277   0.320 -0.3252  1.5467  1.3029
 7943TIP3   OH223792   6.654   1.526   3.028  0.3416 -0.0464 -0.1279
 7943TIP3    H123793   6.726   1.541   2.966 -0.0476  0.3112 -0.4928
 7943TIP3    H223794   6.648   1.608   3.077  0.9578 -0.4907  0.7084
 7944TIP3   OH223795   6.928   1.623   3.917  0.7921 -0.2356  0.0032
 7944TIP3    H123796   6.938   1.590   4.007  0.3149 -1.7684 -0.4766
 7944TIP3    H223797   6.874   1.701   3.927  2.1474  0.6042  1.2049
 7945TIP3   OH223798   0.223   2.081   1.539  0.5017 -0.0388 -0.4675
 7945TIP3    H123799   0.209   2.155   1.480 -2.8285  0.5984  0.9076
 7945TIP3    H223800   0.282   2.023   1.491 -0.2084  1.4786 -3.4277
 7946TIP3   OH223801   2.781   4.130   2.747 -0.5862 -0.1671 -0.2312
 7946TIP3    H123802   2.690   4.122   2.778 -0.5406  0.2048  0.0052
 7946TIP3    H223803   2.834   4.114   2.826 -0.4758  1.5539  0.0905
 7947TIP3   OH223804   2.341   0.376   5.136 -0.2206  0.3389  0.0110
 7947TIP3    H123805   2.385   0.449   5.181 -1.1404  0.9573 -0.0575
 7947TIP3    H223806   2.407   0.308   5.129 -0.4161 -0.4795  3.8737
 7948TIP3   OH223807   1.950   2.522   5.574  0.2285 -0.7996 -0.3821
 7948TIP3    H123808   1.910   2.466   5.508 -0.8702 -0.1978 -0.2552
 7948TIP3    H223809   1.973   2.602   5.527  0.5537 -0.8388 -0.2886
 7949TIP3   OH223810   0.069   0.654   5.723  0.1511  0.4795 -0.3723
 7949TIP3    H123811   0.071   0.599   5.644  0.5773  0.8043 -0.5900
 7949TIP3    H223812   0.142   0.622   5.776 -0.5970 -0.2511  0.2501
 7950TIP3   OH223813   6.680   5.303   0.953 -0.2488  0.5081  0.0521
 7950TIP3    H123814   6.713   5.349   1.030 -0.9340 -1.2258  1.4508
 7950TIP3    H223815   6.683   5.210   0.977 -0.8554 -0.0653 -1.8697
 7951TIP3   OH223816   0.434   6.488   0.520  0.4628 -0.2765  0.5711
 7951TIP3    H123817   0.392   6.428   0.582 -0.2205  0.5484  0.9307
 7951TIP3    H223818   0.361   6.534   0.479  0.9413 -0.3610 -0.3999
 7952TIP3   OH223819   2.387   4.743   4.765 -0.4545 -0.2348  0.3684
 7952TIP3    H123820   2.323   4.738   4.694 -0.7794  0.2044  0.6301
 7952TIP3    H223821   2.339   4.780   4.839 -0.1388 -0.7643  0.8473
 7953TIP3   OH223822   6.557   6.527   0.906 -0.3774 -0.3594 -0.0423
 7953TIP3    H123823   6.640   6.482   0.922  0.6269  0.1927 -3.0278
 7953TIP3    H223824   6.517   6.478   0.834 -1.0380  1.2790 -0.8443
 7954TIP3   OH223825   6.446   4.080   1.475  0.1707  0.0906  0.0412
 7954TIP3    H123826   6.425   4.133   1.551 -0.5700  0.2309 -0.2481
 7954TIP3    H223827   6.361   4.059   1.436  0.4640 -1.0112 -0.0510
 7955TIP3   OH223828   3.490   5.994   0.819  0.3743  0.0156 -0.4002
 7955TIP3    H123829   3.439   5.983   0.738  1.6115 -1.2674 -1.0388
 7955TIP3    H223830   3.580   5.976   0.794  1.1415  1.9591  0.7826
 7956TIP3   OH223831   0.316   5.748   5.637  0.4819  0.1263  0.1582
 7956TIP3    H123832   0.303   5.653   5.636 -1.1240  0.3177 -0.8740
 7956TIP3    H223833   0.367   5.766   5.558 -1.3464  0.3270 -1.0457
 7957TIP3   OH223834   0.226   2.779   5.876  0.2767  0.1715  0.2601
 7957TIP3    H123835   0.221   2.766   5.781 -3.1812  2.4952 -0.0867
 7957TIP3    H223836   0.270   2.864   5.885 -0.5159  0.5613  0.5872
 7958TIP3   OH223837   1.433   0.008   2.308 -0.1527 -0.2400 -0.1429
 7958TIP3    H123838   1.470   0.066   2.242 -0.7759  0.5564  0.2031
 7958TIP3    H223839   1.423   0.063   2.386  0.5155 -1.1462  0.6097
 7959TIP3   OH223840   2.527   3.190   4.846  0.5113 -0.1251  0.0989
 7959TIP3    H123841   2.561   3.199   4.757  2.0736  1.7880  0.8022
 7959TIP3    H223842   2.590   3.133   4.891 -0.1083 -0.8418  0.0768
 7960TIP3   OH223843   6.300   2.460   3.128  0.0774 -0.6853  0.2284
 7960TIP3    H123844   6.233   2.449   3.196 -0.9945  0.7380 -0.5443
 7960TIP3    H223845   6.349   2.537   3.155 -0.5183  0.0489 -0.6865
 7961TIP3   OH223846   1.422   2.956   3.441  0.2819  0.0572 -0.2186
 7961TIP3    H123847   1.475   2.973   3.520  1.8296 -2.7603 -0.4920
 7961TIP3    H223848   1.475   2.989   3.369  0.7879 -0.9493 -0.3323
 7962TIP3   OH223849   3.744   4.521   4.384 -0.0668  0.1046 -0.2769
 7962TIP3    H123850   3.744   4.432   4.418 -0.2234 -0.3052 -1.2953
 7962TIP3    H223851   3.814   4.521   4.318  0.6718  1.0517  0.4699
 7963TIP3   OH223852   0.572   5.065   2.526 -0.2845 -0.0387 -0.0144
 7963TIP3    H123853   0.531   5.067   2.612 -1.1400 -1.1790 -0.3682
 7963TIP3    H223854   0.578   5.157   2.499 -1.5284  0.2248  0.5530
 7964TIP3   OH223855   1.898   1.138   3.325 -0.1623  0.0085  0.1618
 7964TIP3    H123856   1.851   1.056   3.315  0.4185 -0.2154 -0.8450
 7964TIP3    H223857   1.955   1.125   3.401 -0.7218 -0.1929  0.5507
 7965TIP3   OH223858   3.290   2.578   4.990  0.1490  0.1089  0.3856
 7965TIP3    H123859   3.240   2.644   5.038 -0.4082 -0.8966  1.2190
 7965TIP3    H223860   3.238   2.498   4.995  1.3311 -0.7028  0.3869
 7966TIP3   OH223861   3.325   4.419   3.047  0.7126 -0.9092 -0.0346
 7966TIP3    H123862   3.373   4.476   3.107  0.3568  0.3433 -0.9164
 7966TIP3    H223863   3.345   4.330   3.078  2.6966 -0.4006  0.2937
 7967TIP3   OH223864   4.195   6.667   3.529 -0.0228 -0.1778 -0.3208
 7967TIP3    H123865   4.191   6.688   3.623 -1.7964  1.1562 -0.6338
 7967TIP3    H223866   4.110   6.625   3.512 -0.9923  2.2301 -1.8626
 7968TIP3   OH223867   5.161   6.381   1.049 -0.0306 -0.3182  0.4683
 7968TIP3    H123868   5.188   6.291   1.029  0.1059 -0.4553  1.2530
 7968TIP3    H223869   5.088   6.397   0.989  0.0683 -0.8842  0.1862
 7969TIP3   OH223870   4.058   2.727   0.234  0.1981 -0.2927  0.5207
 7969TIP3    H123871   4.073   2.733   0.140  0.4826 -2.2586  0.3990
 7969TIP3    H223872   4.054   2.818   0.264 -0.9618  0.3882 -1.5287
 7970TIP3   OH223873   2.920   6.338   3.818 -0.5919 -0.2688 -0.0897
 7970TIP3    H123874   2.883   6.297   3.740  0.3886  1.9909 -1.8689
 7970TIP3    H223875   2.869   6.418   3.830  0.0363  0.0052  0.8857
 7971TIP3   OH223876   0.659   6.503   3.707  0.0304 -0.5010  0.4796
 7971TIP3    H123877   0.563   6.511   3.714  0.2423  2.2374  1.4882
 7971TIP3    H223878   0.672   6.435   3.641 -2.5890 -1.4314  0.7760
 7972TIP3   OH223879   1.753   3.539   1.974 -0.1241 -0.1663 -0.1302
 7972TIP3    H123880   1.714   3.451   1.979 -1.6508  0.4734 -0.2644
 7972TIP3    H223881   1.841   3.524   1.940 -0.5580 -1.6034 -0.6952
 7973TIP3   OH223882   5.736   0.372   5.640  0.4642  0.2310 -0.4836
 7973TIP3    H123883   5.828   0.394   5.633  0.8433 -0.6742  1.1949
 7973TIP3    H223884   5.733   0.277   5.628 -0.4385  0.4131 -1.9172
 7974TIP3   OH223885   6.438   6.347   2.217  0.6831  0.3105  0.5408
 7974TIP3    H123886   6.399   6.295   2.288 -0.3042 -0.0262 -0.2186
 7974TIP3    H223887   6.414   6.437   2.238 -0.6407  0.1067  0.0533
 7975TIP3   OH223888   6.413   5.003   3.486  0.1891  0.1478 -0.8134
 7975TIP3    H123889   6.441   5.053   3.409 -0.0619 -0.7164 -1.4853
 7975TIP3    H223890   6.438   4.913   3.466  3.0079  0.2932  1.4681
 7976TIP3   OH223891   5.288   5.371   5.669 -0.9390  0.3305 -0.4458
 7976TIP3    H123892   5.325   5.460   5.672 -0.9924  0.3845 -1.3377
 7976TIP3    H223893   5.364   5.314   5.658 -1.0459  0.3957 -1.6214
 7977TIP3   OH223894   0.087   3.779   2.286 -0.1203 -0.4896 -0.3603
 7977TIP3    H123895   0.017   3.722   2.255 -0.4038 -0.9817  1.1035
 7977TIP3    H223896   0.053   3.819   2.367  0.5156  0.8585 -0.7180
 7978TIP3   OH223897   2.528   2.679   3.239 -0.4632  0.3056  0.5646
 7978TIP3    H123898   2.597   2.677   3.306 -1.1216 -1.7610  1.2645
 7978TIP3    H223899   2.447   2.683   3.289 -0.9477 -0.8237 -0.1037
 7979TIP3   OH223900   4.235  -0.021   3.993  0.1939 -0.1902 -0.4653
 7979TIP3    H123901   4.327  -0.004   4.013  0.1626  0.3749 -0.7952
 7979TIP3    H223902   4.207   0.054   3.941 -0.2031 -0.8153 -1.1684
 7980TIP3   OH223903   1.958   1.545   2.027 -0.0318 -0.0230 -0.3059
 7980TIP3    H123904   1.937   1.602   1.952  0.4658 -0.5732 -0.8777
 7980TIP3    H223905   2.044   1.576   2.057  0.0751 -0.2332 -0.3922
 7981TIP3   OH223906   6.429   2.636   4.774  0.1462 -0.1925 -0.2610
 7981TIP3    H123907   6.434   2.610   4.866  1.3746 -0.0344 -0.2646
 7981TIP3    H223908   6.466   2.724   4.772  1.4415 -0.7231 -1.0937
 7982TIP3   OH223909   2.913   6.009   1.024 -0.0646  0.2766  0.1218
 7982TIP3    H123910   2.842   5.966   0.976 -0.6759  1.3424  0.0494
 7982TIP3    H223911   2.963   5.937   1.062 -0.5245 -0.5257 -0.7617
 7983TIP3   OH223912   2.352   5.895   1.599  0.2129  0.1065 -0.4823
 7983TIP3    H123913   2.330   5.867   1.510 -0.8178  0.1800 -0.2706
 7983TIP3    H223914   2.297   5.971   1.614  1.0438  0.6405 -0.0945
 7984TIP3   OH223915   5.744   6.730   2.722 -0.6930 -0.1629  0.4938
 7984TIP3    H123916   5.750   6.740   2.627 -0.3117 -0.3961  0.4939
 7984TIP3    H223917   5.717   6.817   2.754  2.6313  1.0123  0.5019
 7985TIP3   OH223918   3.660   2.573   2.766  0.2990 -0.3922  0.1588
 7985TIP3    H123919   3.592   2.627   2.726  0.4055 -0.3669  0.0147
 7985TIP3    H223920   3.688   2.513   2.697  0.5233 -0.3095  0.1777
 7986TIP3   OH223921   2.394   4.777   1.013 -0.4502 -0.4251 -0.0245
 7986TIP3    H123922   2.476   4.825   1.027 -0.4207 -0.4605 -0.0755
 7986TIP3    H223923   2.401   4.745   0.923  0.1450 -1.7303  0.4740
 7987TIP3   OH223924   2.457   0.844   1.377  0.2720 -0.9769  0.0911
 7987TIP3    H123925   2.522   0.774   1.371  0.5827 -0.5856 -4.2103
 7987TIP3    H223926   2.374   0.797   1.387  0.6158 -1.9473 -1.2686
 7988TIP3   OH223927   1.044   6.273   2.072 -0.0308 -0.2296  0.5919
 7988TIP3    H123928   1.005   6.336   2.132 -1.9902  0.1348 -0.9630
 7988TIP3    H223929   1.011   6.188   2.102 -1.3655 -0.0089 -0.1631
 7989TIP3   OH223930   1.917   2.283   2.842 -0.5984  0.2797  0.4111
 7989TIP3    H123931   1.923   2.188   2.850  1.2433  0.3672  0.5791
 7989TIP3    H223932   1.982   2.316   2.904 -1.7015  1.6884  0.8694
 7990TIP3   OH223933   5.007   4.565   5.558  0.6663 -0.1482 -0.4384
 7990TIP3    H123934   5.026   4.472   5.543  0.3740 -0.1474 -0.8309
 7990TIP3    H223935   5.039   4.609   5.479  1.9444  0.2456  0.2796
 7991TIP3   OH223936   4.286   1.461   4.033  0.5775  0.3014  0.3374
 7991TIP3    H123937   4.273   1.425   3.945  0.0399  3.5283 -1.0480
 7991TIP3    H223938   4.348   1.401   4.075  0.0848 -1.8914 -1.8503
 7992TIP3   OH223939   2.555   1.242   4.000 -0.1128 -0.7161 -0.2352
 7992TIP3    H123940   2.572   1.148   4.010  0.6970 -0.4543  0.9304
 7992TIP3    H223941   2.529   1.272   4.087  2.6356  0.7361  0.1810
 7993TIP3   OH223942   1.471   5.636   5.376  0.1645  0.0115 -0.3958
 7993TIP3    H123943   1.541   5.648   5.440  0.8493 -1.0664 -0.9085
 7993TIP3    H223944   1.393   5.622   5.429  0.8160 -1.4486  0.2551
 7994TIP3   OH223945   1.257   5.921   4.486 -0.2890  0.5086 -0.2264
 7994TIP3    H123946   1.214   5.902   4.402  0.1224  1.2853 -0.6193
 7994TIP3    H223947   1.323   5.852   4.495  1.0945  1.6102 -1.5713
 7995TIP3   OH223948   0.019   0.417   0.944  0.3282 -0.2577  0.3041
 7995TIP3    H123949   0.002   0.451   1.032 -0.4977  1.7007 -0.5586
 7995TIP3    H223950   0.098   0.461   0.915 -0.9799  1.4035 -0.9842
 7996TIP3   OH223951   3.728   3.504   1.116  0.8658  0.3017 -0.3290
 7996TIP3    H123952   3.778   3.577   1.080 -1.2845  1.7798 -0.5282
 7996TIP3    H223953   3.719   3.525   1.209  0.7356 -0.0274 -0.2648
 7997TIP3   OH223954   2.739   3.897   4.081 -0.0841  0.2139 -0.3435
 7997TIP3    H123955   2.678   3.969   4.061  0.4696  0.6602 -0.4416
 7997TIP3    H223956   2.694   3.819   4.049 -0.3681  0.6036 -0.9182
 7998TIP3   OH223957   5.582   1.848   1.059  0.3290  1.0151  0.1226
 7998TIP3    H123958   5.654   1.817   1.004 -0.3013 -3.3940  1.3577
 7998TIP3    H223959   5.516   1.877   0.997  1.2228  0.1830 -1.2861
 7999TIP3   OH223960   7.141   1.136   2.004 -0.3059 -0.3588 -0.5734
 7999TIP3    H123961   7.061   1.185   1.987  0.6658  0.8349 -1.9863
 7999TIP3    H223962   7.149   1.075   1.931 -2.3081 -4.0058  1.9012
 8000TIP3   OH223963   4.433   5.442   3.197 -0.0578 -0.1476 -0.2860
 8000TIP3    H123964   4.434   5.535   3.173  1.3296 -0.4244 -1.4461
 8000TIP3    H223965   4.437   5.442   3.293 -0.7898  0.9748 -0.2303
 8001TIP3   OH223966   2.451   5.727   4.305 -0.5795  0.0967  0.1522
 8001TIP3    H123967   2.543   5.750   4.295 -0.4723 -0.3990 -0.0393
 8001TIP3    H223968   2.403   5.805   4.279 -0.2096  0.3951  0.3656
 8002TIP3   OH223969   1.998   6.642   3.180  0.3605  0.4315  0.1437
 8002TIP3    H123970   1.935   6.687   3.124  0.7715  0.6450 -0.1546
 8002TIP3    H223971   2.079   6.643   3.130  0.7249  0.5912  0.7270
 8003TIP3   OH223972   1.078   4.237   4.549 -0.3435 -0.7399  0.1044
 8003TIP3    H123973   1.027   4.300   4.598  0.6758 -0.3395  0.6816
 8003TIP3    H223974   1.165   4.277   4.541  0.3322 -2.0715  0.5168
 8004TIP3   OH223975   0.999   5.710   4.300 -0.0422 -0.7407  0.4607
 8004TIP3    H123976   1.047   5.638   4.260  0.1442 -0.4176  0.1005
 8004TIP3    H223977   1.052   5.787   4.282 -0.9394 -0.3008 -0.3781
 8005TIP3   OH223978   5.532   3.270   2.614  0.2606 -0.1472 -0.1990
 8005TIP3    H123979   5.565   3.193   2.659  0.5300 -1.5203 -2.5622
 8005TIP3    H223980   5.555   3.256   2.522 -1.8895  1.5546 -1.1077
 8006TIP3   OH223981   2.534   5.487   1.699  0.1743  0.7036 -0.2385
 8006TIP3    H123982   2.561   5.488   1.791 -1.0310  1.0593  0.1333
 8006TIP3    H223983   2.607   5.447   1.652 -0.2513 -2.0577  1.2408
 8007TIP3   OH223984   6.179   1.032   1.452  0.0362 -0.6996  0.4268
 8007TIP3    H123985   6.258   0.992   1.416  0.6520 -2.2435  3.2417
 8007TIP3    H223986   6.196   1.039   1.546 -2.3877  0.8652  0.8412
 8008TIP3   OH223987   1.212   4.320   3.003  0.4181  0.4461  0.3412
 8008TIP3    H123988   1.138   4.320   2.944 -0.8213  1.3101  1.8111
 8008TIP3    H223989   1.280   4.270   2.958 -1.4196 -1.3335 -0.5676
 8009TIP3   OH223990   0.222   5.060   1.629  0.3418 -0.2436 -0.1142
 8009TIP3    H123991   0.285   5.120   1.668  1.4601 -1.0826 -0.5555
 8009TIP3    H223992   0.268   5.022   1.554 -0.1303 -2.0095  0.4349
 8010TIP3   OH223993   2.084   4.614   0.362  0.1763 -0.3982  0.0513
 8010TIP3    H123994   2.139   4.537   0.375 -0.3869 -0.7175  0.5961
 8010TIP3    H223995   2.004   4.595   0.411 -0.4532  0.0263 -0.7951
 8011TIP3   OH223996   4.272   1.064   3.687 -0.0612 -0.1116 -0.0118
 8011TIP3    H123997   4.274   0.986   3.743  0.0787  0.4290  0.7575
 8011TIP3    H223998   4.347   1.054   3.628  0.3079 -0.2760  0.4821
 8012TIP3   OH223999   1.331   3.043   2.031  0.4713 -0.3100 -0.1898
 8012TIP3    H124000   1.277   2.967   2.053  1.5401 -1.1465 -0.3988
 8012TIP3    H224001   1.403   3.008   1.978  2.0256  0.5234  1.2546
 8013TIP3   OH224002   6.888   1.518   0.863  0.0719  0.3016  0.3825
 8013TIP3    H124003   6.862   1.571   0.788  0.4057  0.6866  0.5395
 8013TIP3    H224004   6.805   1.496   0.907 -0.0722  0.5950  0.2542
 8014TIP3   OH224005   1.991   2.351   4.920  1.0855  0.3960  0.3702
 8014TIP3    H124006   1.916   2.308   4.881  0.3445  0.7401  1.3767
 8014TIP3    H224007   2.040   2.280   4.962  0.9372  0.2691  0.3287
 8015TIP3   OH224008   6.948   5.482   0.110  0.5306  0.5130  0.3813
 8015TIP3    H124009   6.889   5.500   0.037 -1.2714 -1.3239  1.2857
 8015TIP3    H224010   6.919   5.542   0.179  1.3235  1.2734  0.0714
 8016TIP3   OH224011   6.351   5.865   3.514 -0.3379  0.3800 -0.1012
 8016TIP3    H124012   6.360   5.828   3.426 -1.2617 -0.0836 -0.0077
 8016TIP3    H224013   6.351   5.959   3.501 -1.0800  0.3065 -0.6594
 8017TIP3   OH224014   3.612   2.205   3.728  0.4559 -0.5080 -0.0380
 8017TIP3    H124015   3.643   2.147   3.797 -0.1656 -1.2044 -0.3228
 8017TIP3    H224016   3.572   2.278   3.774 -2.2895 -2.1679  0.4670
 8018TIP3   OH224017   7.107   1.038   2.272  0.6902 -0.4048  0.3191
 8018TIP3    H124018   7.075   1.066   2.186 -0.2244 -0.4476  0.6355
 8018TIP3    H224019   7.050   1.082   2.334  0.1162 -1.8662  0.8657
 8019TIP3   OH224020   0.185   6.252   5.438 -0.4450  0.2477  0.4657
 8019TIP3    H124021   0.203   6.236   5.346  0.6788  0.8313  0.5555
 8019TIP3    H224022   0.090   6.259   5.444 -0.5608 -0.2817 -0.5571
 8020TIP3   OH224023   1.920   4.565   5.680  0.0187 -0.2668  0.3815
 8020TIP3    H124024   1.998   4.621   5.672 -2.0182  3.1811  2.0482
 8020TIP3    H224025   1.846   4.626   5.671 -2.5161 -3.1671 -0.0160
 8021TIP3   OH224026   6.951   2.559   2.119  0.4480 -0.0579  0.6247
 8021TIP3    H124027   6.878   2.558   2.181  1.3730  1.6746  1.8071
 8021TIP3    H224028   7.019   2.506   2.160  0.2055 -0.9271 -0.0655
 8022TIP3   OH224029   2.556   2.751   4.613 -0.2292 -0.2210  0.0670
 8022TIP3    H124030   2.504   2.817   4.568  0.2712 -0.1606 -0.4210
 8022TIP3    H224031   2.512   2.668   4.593 -1.0361 -0.0269  0.9284
 8023TIP3   OH224032   2.619   3.192   2.952 -0.3131  0.2114 -0.1017
 8023TIP3    H124033   2.620   3.243   3.033  1.6176 -1.8506  1.3032
 8023TIP3    H224034   2.597   3.103   2.980  0.3026 -0.5333 -1.8497
 8024TIP3   OH224035   7.210   1.471   1.495  0.3575 -0.2575 -0.1554
 8024TIP3    H124036   7.173   1.394   1.537  0.5218  0.2525  0.9617
 8024TIP3    H224037   7.141   1.538   1.502  0.1945 -0.2904 -1.1580
 8025TIP3   OH224038   1.508   2.834   5.712 -0.3461  0.0869 -0.1289
 8025TIP3    H124039   1.422   2.823   5.752 -0.2845  2.0478  0.6303
 8025TIP3    H224040   1.567   2.780   5.765 -0.6623  0.8393  1.0076
 8026TIP3   OH224041   1.020   5.060   3.228  0.7185  0.0938  0.0189
 8026TIP3    H124042   1.019   4.976   3.183  1.5526 -0.1159  0.3768
 8026TIP3    H224043   1.013   5.125   3.157 -1.7328 -0.2678 -0.1438
 8027TIP3   OH224044   2.239   4.333   0.778  0.1779 -0.3748  0.2917
 8027TIP3    H124045   2.150   4.336   0.743 -0.2656 -2.4188  1.1048
 8027TIP3    H224046   2.245   4.410   0.835 -0.4720  0.7078 -1.0306
 8028TIP3   OH224047   4.896   3.386   2.645  0.1378  0.3891  0.3747
 8028TIP3    H124048   4.931   3.472   2.668  0.4925  0.0993  0.9255
 8028TIP3    H224049   4.965   3.343   2.595 -0.5973  0.9835 -1.2313
 8029TIP3   OH224050   0.920   4.932   5.423 -0.3041  0.2737 -0.2565
 8029TIP3    H124051   0.995   4.874   5.407  0.2670 -0.3664  3.6293
 8029TIP3    H224052   0.848   4.873   5.446 -0.2090  0.9369  2.0177
 8030TIP3   OH224053   1.956   5.923   5.480  0.3434 -0.5884 -0.1091
 8030TIP3    H124054   1.990   5.975   5.407  1.3109  0.6491  1.1560
 8030TIP3    H224055   1.863   5.913   5.462 -0.1867  2.7309  0.1736
 8031TIP3   OH224056   4.481   5.056   4.823  0.2626  0.1953 -0.1759
 8031TIP3    H124057   4.390   5.086   4.824  0.2633  0.1850  0.1312
 8031TIP3    H224058   4.478   4.974   4.772 -0.0413 -0.2360  0.5164
 8032TIP3   OH224059   0.872   5.235   3.517 -0.0146 -0.3326  0.1119
 8032TIP3    H124060   0.867   5.312   3.574  0.7669  0.4324 -0.8351
 8032TIP3    H224061   0.788   5.233   3.472  0.3683  0.6472 -0.6920
 8033TIP3   OH224062   1.878   3.573   3.202 -0.4505  0.2385 -0.2527
 8033TIP3    H124063   1.945   3.640   3.190  0.0639 -0.0984  0.6489
 8033TIP3    H224064   1.848   3.553   3.114 -1.0847  2.1189 -0.5240
 8034TIP3   OH224065   6.693   1.284   5.584 -0.0551 -0.5467 -0.3127
 8034TIP3    H124066   6.754   1.305   5.655 -1.3123 -0.7171  0.8602
 8034TIP3    H224067   6.747   1.286   5.505  1.0281  1.4881  0.3928
 8035TIP3   OH224068   6.173   4.083   5.369 -0.1177  0.2144  0.3524
 8035TIP3    H124069   6.201   4.056   5.456 -1.1211  0.2745  0.7087
 8035TIP3    H224070   6.081   4.108   5.380 -0.5789 -0.7760 -0.9248
 8036TIP3   OH224071   5.507   2.600   4.265 -0.1166 -0.2201  0.1499
 8036TIP3    H124072   5.577   2.564   4.211 -0.3315  0.5583 -0.6638
 8036TIP3    H224073   5.527   2.693   4.272 -1.2276  0.0796 -0.3629
 8037TIP3   OH224074   4.632   3.621   1.136  0.0794  0.2257  0.2925
 8037TIP3    H124075   4.644   3.690   1.201 -0.0637  0.5046  0.0265
 8037TIP3    H224076   4.700   3.638   1.071 -0.9195  1.0601 -0.5756
 8038TIP3   OH224077   6.322   3.546   4.599  0.2463 -0.2874  0.4401
 8038TIP3    H124078   6.305   3.535   4.505 -1.2300  0.9219  0.5269
 8038TIP3    H224079   6.254   3.607   4.628  0.2146 -1.2287  2.4570
 8039TIP3   OH224080   3.909   4.100   4.006 -0.4138 -0.2072 -0.4077
 8039TIP3    H124081   3.906   4.017   3.957 -1.3296 -0.2248 -0.3495
 8039TIP3    H224082   3.868   4.080   4.090  1.9380 -0.3922  0.7641
 8040TIP3   OH224083   4.982   6.444   5.673 -0.0288 -0.1723 -0.4108
 8040TIP3    H124084   4.897   6.474   5.642 -0.8381  1.3115  2.8261
 8040TIP3    H224085   4.963   6.363   5.720  0.5319 -0.3663 -0.5036
 8041TIP3   OH224086   4.189   2.946   4.409 -0.7748 -0.7437 -0.5190
 8041TIP3    H124087   4.227   2.983   4.488  0.9133  0.1391 -1.7013
 8041TIP3    H224088   4.248   2.874   4.385 -1.8804 -1.7343 -0.4097
 8042TIP3   OH224089   6.593   4.071   1.881  0.0496  0.3266  0.7048
 8042TIP3    H124090   6.599   4.155   1.836 -1.2516 -0.9904 -2.1927
 8042TIP3    H224091   6.529   4.086   1.951 -2.2953  1.1708 -1.4738
 8043TIP3   OH224092   3.865   1.426   3.097  0.3540  0.5342  0.4149
 8043TIP3    H124093   3.778   1.437   3.060  0.6608 -0.6500 -0.7683
 8043TIP3    H224094   3.850   1.390   3.185 -0.3756 -1.1496 -0.3478
 8044TIP3   OH224095   1.463   3.205   1.509  0.0079 -0.0255 -0.1868
 8044TIP3    H124096   1.427   3.294   1.502  1.3014  0.6317  1.0836
 8044TIP3    H224097   1.461   3.172   1.419  0.0384  1.4936 -0.7869
 8045TIP3   OH224098   0.100   3.035   1.444 -0.3317  0.1223 -0.0734
 8045TIP3    H124099   0.105   3.099   1.373  3.2942  0.3336  0.1862
 8045TIP3    H224100   0.187   2.994   1.445 -1.0927 -1.6760  2.6372
 8046TIP3   OH224101   0.989   1.297   3.595 -0.5094 -0.1674 -0.0929
 8046TIP3    H124102   0.967   1.305   3.502 -1.5681  0.6937  0.2068
 8046TIP3    H224103   0.925   1.352   3.639 -1.3838 -2.2204  1.3428
 8047TIP3   OH224104   0.299   3.442   1.534 -0.2248 -0.3639  0.0686
 8047TIP3    H124105   0.272   3.446   1.442 -0.9687 -1.4437  0.2268
 8047TIP3    H224106   0.378   3.496   1.538 -1.4197  1.5352 -0.7326
 8048TIP3   OH224107   2.631   3.273   3.517 -0.0449 -0.3992 -0.5677
 8048TIP3    H124108   2.568   3.205   3.494 -0.9134 -1.1700  3.4627
 8048TIP3    H224109   2.715   3.228   3.522 -0.1049 -0.5220 -0.6612
 8049TIP3   OH224110   4.744   4.616   5.512 -0.1300 -0.1576  0.5070
 8049TIP3    H124111   4.736   4.573   5.426 -1.2729  1.1194 -0.0613
 8049TIP3    H224112   4.835   4.602   5.537  0.0184 -1.2532 -0.5330
 8050TIP3   OH224113   4.094   2.656   4.605 -0.3422 -0.3358 -0.4540
 8050TIP3    H124114   4.067   2.604   4.680 -0.9525 -0.3074 -0.6458
 8050TIP3    H224115   4.016   2.707   4.582  0.2605  0.7130 -0.2259
 8051TIP3   OH224116   5.951   5.208   3.356 -0.4253  0.0686 -0.5433
 8051TIP3    H124117   6.030   5.227   3.305  0.2391 -0.1763  0.3592
 8051TIP3    H224118   5.984   5.185   3.443 -1.5541  1.0368  0.1658
 8052TIP3   OH224119   4.529   0.482   5.845 -0.1425  0.0536  0.2154
 8052TIP3    H124120   4.457   0.520   5.795  0.3140 -0.9322 -1.3004
 8052TIP3    H224121   4.605   0.536   5.823 -0.1993  0.4161  0.9103
 8053TIP3   OH224122   5.794   0.916   1.406 -0.4487  0.0588 -0.1437
 8053TIP3    H124123   5.879   0.894   1.445  0.2101  0.8620 -1.1015
 8053TIP3    H224124   5.771   0.999   1.446 -0.1922  0.4487 -0.7993
 8054TIP3   OH224125   2.440   1.356   0.930 -0.0938  0.0901 -0.4677
 8054TIP3    H124126   2.470   1.435   0.887  1.4853 -0.4891 -0.4780
 8054TIP3    H224127   2.457   1.286   0.868 -0.9406 -0.3410 -0.2312
 8055TIP3   OH224128   3.894   6.663   1.417  0.8233  0.0712 -0.0612
 8055TIP3    H124129   3.937   6.708   1.490 -1.7208  1.0226  0.9371
 8055TIP3    H224130   3.825   6.610   1.457  2.4259 -3.3602 -1.3848
 8056TIP3   OH224131   5.759   2.471   1.851 -0.5318  0.5435 -0.2703
 8056TIP3    H124132   5.785   2.495   1.940 -0.3620  2.5522 -0.8106
 8056TIP3    H224133   5.838   2.485   1.799 -0.7683 -0.1458 -0.8198
 8057TIP3   OH224134   3.701   3.553   4.007 -0.5742  0.4619 -0.4310
 8057TIP3    H124135   3.761   3.480   4.021 -1.7307 -0.5244 -0.5032
 8057TIP3    H224136   3.688   3.590   4.095 -0.5661  0.1137 -0.2821
 8058TIP3   OH224137   5.484   3.669   4.680 -0.2218 -0.4755  0.0901
 8058TIP3    H124138   5.561   3.650   4.626  1.5818  2.2530  1.4461
 8058TIP3    H224139   5.467   3.762   4.665 -0.8960 -0.1122  2.6518
 8059TIP3   OH224140   1.419   2.737   3.166 -1.4258 -0.2354  0.8996
 8059TIP3    H124141   1.356   2.666   3.157 -0.5918 -0.8750 -0.1151
 8059TIP3    H224142   1.462   2.719   3.250  1.0418 -2.9149 -0.7261
 8060TIP3   OH224143   6.047   5.224   2.842 -0.1610  0.0472  0.2298
 8060TIP3    H124144   6.117   5.180   2.795  0.8759  1.7676  0.0755
 8060TIP3    H224145   5.975   5.230   2.779 -1.1532 -3.1475  0.8726
 8061TIP3   OH224146   6.644   5.877   0.826 -0.6044 -0.7813  0.0945
 8061TIP3    H124147   6.552   5.885   0.852 -0.1140 -1.3628  2.1975
 8061TIP3    H224148   6.693   5.876   0.908  1.2802 -0.8020 -0.9563
 8062TIP3   OH224149   2.451   5.201   0.022 -0.0495 -0.7842 -0.3347
 8062TIP3    H124150   2.439   5.218   0.115  2.0759  0.1008 -0.1491
 8062TIP3    H224151   2.439   5.107   0.012  2.0539 -1.3058  1.3324
 8063TIP3   OH224152   3.637   1.415   5.649  0.1803 -0.6552 -0.9929
 8063TIP3    H124153   3.717   1.468   5.643  0.1834 -0.5763 -0.4036
 8063TIP3    H224154   3.659   1.347   5.714  0.0853 -1.2155 -1.5373
 8064TIP3   OH224155   2.810   5.645   1.613 -0.3225 -1.0582  0.1585
 8064TIP3    H124156   2.851   5.611   1.693  2.8304 -0.9428 -1.2713
 8064TIP3    H224157   2.829   5.578   1.546 -0.7798 -0.0594 -1.0056
 8065TIP3   OH224158   0.424   5.326   1.975 -0.2370 -0.3513  0.5620
 8065TIP3    H124159   0.393   5.308   2.064  2.4354 -0.4727  1.5775
 8065TIP3    H224160   0.507   5.371   1.988 -0.8943  1.8262 -1.9272
 8066TIP3   OH224161   2.636   0.557   5.134 -0.3592 -0.2926  0.6193
 8066TIP3    H124162   2.729   0.553   5.158 -0.0035  0.8752 -0.4599
 8066TIP3    H224163   2.621   0.476   5.084  0.4910  0.2201 -0.5093
 8067TIP3   OH224164   1.861   1.021   5.201  0.2917 -0.6744 -0.1767
 8067TIP3    H124165   1.835   1.030   5.109 -0.5729  0.3458  0.1545
 8067TIP3    H224166   1.955   1.002   5.197  0.2807 -0.5807 -1.2648
 8068TIP3   OH224167   4.254   0.063   0.531 -0.2366  0.2447  0.1199
 8068TIP3    H124168   4.327   0.111   0.571 -2.2530  2.4218  1.4150
 8068TIP3    H224169   4.259  -0.024   0.570  0.9292  0.7382  1.1620
 8069TIP3   OH224170   1.722   4.480   5.216 -0.0264 -0.2257  0.2852
 8069TIP3    H124171   1.786   4.547   5.190  0.1405 -0.7042 -0.5701
 8069TIP3    H224172   1.727   4.478   5.311  0.5041  0.4551  0.2817
 8070TIP3   OH224173   5.850   1.752   0.921  0.0595  0.1357 -0.7089
 8070TIP3    H124174   5.862   1.683   0.985 -0.8159 -0.4777 -1.1764
 8070TIP3    H224175   5.881   1.831   0.964 -0.6184 -0.2418  0.5123
 8071TIP3   OH224176   3.745   1.640   2.070  0.7151  0.3909  0.5719
 8071TIP3    H124177   3.798   1.591   2.132 -0.0634 -1.6214 -0.2544
 8071TIP3    H224178   3.655   1.630   2.102 -0.0258 -2.6595 -1.9021
 8072TIP3   OH224179   2.019   6.758   1.242  0.2308 -0.0701  0.1521
 8072TIP3    H124180   2.054   6.703   1.312  1.5834 -0.8354 -1.0614
 8072TIP3    H224181   2.000   6.841   1.284  1.5265 -0.3370  1.3309
 8073TIP3   OH224182   5.532   1.741   2.968 -0.0850  0.1785  0.2192
 8073TIP3    H124183   5.572   1.654   2.965  0.9706  0.6325  0.7909
 8073TIP3    H224184   5.527   1.769   2.876 -0.5410 -0.5131  0.0208
 8074TIP3   OH224185   1.518   4.286   2.227 -0.4836  0.3060  0.4560
 8074TIP3    H124186   1.463   4.302   2.304 -1.6740 -2.3261  0.2650
 8074TIP3    H224187   1.582   4.221   2.257  0.0595  0.4544 -0.3666
 8075TIP3   OH224188   0.150   6.006   2.825 -0.0671 -0.2137 -0.1533
 8075TIP3    H124189   0.209   6.000   2.749  1.5985  0.0141  1.0815
 8075TIP3    H224190   0.201   6.050   2.892 -0.5064 -2.7638  2.0339
 8076TIP3   OH224191   3.666   4.952   5.249 -0.5989  0.1972  0.5244
 8076TIP3    H124192   3.636   4.983   5.334 -1.4759 -0.0469  0.3185
 8076TIP3    H224193   3.742   5.006   5.228 -1.6991  1.7803  0.4698
 8077TIP3   OH224194   1.713   3.851   5.369 -0.1023 -0.1221 -0.0288
 8077TIP3    H124195   1.618   3.857   5.356 -0.1053 -0.3865 -0.1435
 8077TIP3    H224196   1.736   3.931   5.416 -0.2095  0.5316 -1.0375
 8078TIP3   OH224197   6.024   0.954   3.465 -0.5214  0.3572 -0.2092
 8078TIP3    H124198   5.955   0.939   3.530 -0.8909  2.7316  0.0469
 8078TIP3    H224199   6.101   0.975   3.517 -0.2729  0.2278 -0.5262
 8079TIP3   OH224200   1.976   6.520   0.965  0.6190  0.4003  0.6512
 8079TIP3    H124201   1.896   6.527   1.017  0.6774 -1.0583  0.9690
 8079TIP3    H224202   2.024   6.600   0.985 -0.7051  1.2525  0.5258
 8080TIP3   OH224203   1.476   3.537   2.086  0.0394 -0.0958 -1.0232
 8080TIP3    H124204   1.448   3.580   2.167  1.2001  0.0021 -0.6688
 8080TIP3    H224205   1.553   3.587   2.058  1.4655 -1.9470 -0.5660
 8081TIP3   OH224206   0.345   0.942   2.740 -0.5253 -0.1587  0.5997
 8081TIP3    H124207   0.323   0.943   2.647  1.5136 -1.7999  0.0100
 8081TIP3    H224208   0.314   0.857   2.771 -0.3375 -0.0224  1.1727
 8082TIP3   OH224209   1.938   4.708   4.469  0.5301  0.1161 -0.0728
 8082TIP3    H124210   2.033   4.697   4.476  0.5085  0.5959  1.3891
 8082TIP3    H224211   1.916   4.772   4.538 -1.0347 -1.1667  0.6909
 8083TIP3   OH224212   2.892   4.622   2.707  0.0703 -0.1597 -0.3207
 8083TIP3    H124213   2.802   4.648   2.730  0.0058 -0.3799 -0.3176
 8083TIP3    H224214   2.886   4.527   2.694  0.2553 -0.1377 -0.5537
 8084TIP3   OH224215   6.391   1.624   4.062 -0.2925  0.8476  0.3890
 8084TIP3    H124216   6.445   1.696   4.095 -1.1427  1.7169 -0.0573
 8084TIP3    H224217   6.353   1.584   4.140  1.1170  0.1067  0.7205
 8085TIP3   OH224218   4.820   4.210   1.834  0.1692 -0.0195  0.2159
 8085TIP3    H124219   4.741   4.207   1.781  0.1854 -0.3024  0.2084
 8085TIP3    H224220   4.802   4.153   1.908  0.7671 -0.9439 -0.3401
 8086TIP3   OH224221   5.433   6.096   4.816  0.4891  0.0525  0.3902
 8086TIP3    H124222   5.386   6.016   4.840  0.2951 -0.1323 -0.5615
 8086TIP3    H224223   5.522   6.083   4.850  0.2342 -0.1951  0.9763
 8087TIP3   OH224224   3.764   4.579   1.884  0.0116 -0.5365 -0.0959
 8087TIP3    H124225   3.744   4.548   1.796  1.8152 -0.6162 -0.5239
 8087TIP3    H224226   3.838   4.639   1.872 -0.4926  0.3831  1.2395
 8088TIP3   OH224227   3.284   3.427   3.427 -0.2755  0.1282  0.2945
 8088TIP3    H124228   3.209   3.374   3.400  1.9164 -2.1754 -1.7341
 8088TIP3    H224229   3.312   3.388   3.510  0.1623 -0.6507 -0.2137
 8089TIP3   OH224230   5.441   0.855   2.473  0.0030  0.6669 -0.5321
 8089TIP3    H124231   5.394   0.891   2.398 -2.5391  0.3134  0.7721
 8089TIP3    H224232   5.446   0.928   2.536  0.4613  0.4679 -0.3344
 8090TIP3   OH224233   3.728   4.266   1.649 -0.3541 -0.4604  0.1551
 8090TIP3    H124234   3.702   4.357   1.663 -0.0744 -0.4377  0.5333
 8090TIP3    H224235   3.647   4.217   1.658 -0.8532 -0.0938 -1.7787
 8091TIP3   OH224236   4.213   4.788   5.563  0.2148 -0.1827 -0.5844
 8091TIP3    H124237   4.184   4.794   5.472 -1.8299 -1.9406 -0.1271
 8091TIP3    H224238   4.150   4.840   5.612  1.2224  0.6324 -0.1052
 8092TIP3   OH224239   1.647   5.507   1.692 -0.1675  0.1733 -0.0469
 8092TIP3    H124240   1.668   5.524   1.600 -0.8626 -0.3074 -0.2996
 8092TIP3    H224241   1.567   5.455   1.689 -0.1586  0.1009  0.8322
 8093TIP3   OH224242   4.335   4.885   3.888 -0.1746 -0.4693 -0.3213
 8093TIP3    H124243   4.378   4.954   3.837  1.2746 -0.6760  0.5629
 8093TIP3    H224244   4.399   4.815   3.893 -0.3077 -0.5041  1.6704
 8094TIP3   OH224245   5.049   2.951   3.777  0.7939 -0.0225 -0.2063
 8094TIP3    H124246   5.071   2.885   3.843 -1.9999 -0.2094  0.7009
 8094TIP3    H224247   4.962   2.925   3.746  0.3497  2.2889 -1.0928
 8095TIP3   OH224248   0.613   6.657   2.394  0.0503 -0.5905  0.1070
 8095TIP3    H124249   0.690   6.709   2.418  0.4071 -0.6455 -0.8729
 8095TIP3    H224250   0.577   6.701   2.317 -0.4125 -1.0548  0.0480
 8096TIP3   OH224251   2.078   4.932   4.023 -0.0015 -0.3753 -0.4644
 8096TIP3    H124252   2.073   4.897   4.111 -4.4912  1.7292  0.4280
 8096TIP3    H224253   2.113   5.021   4.035  0.0983 -0.3550 -0.9015
 8097TIP3   OH224254   1.987   3.107   4.151 -0.4625  0.0887 -0.6398
 8097TIP3    H124255   2.023   3.045   4.088 -0.8649 -0.0554 -0.7303
 8097TIP3    H224256   1.925   3.160   4.101 -0.0259  0.6614 -0.5970
 8098TIP3   OH224257   0.443   1.023   5.571  0.1267  0.3914 -0.8464
 8098TIP3    H124258   0.511   0.965   5.606  0.5484  2.0190  1.2789
 8098TIP3    H224259   0.365   0.969   5.566  1.1961 -1.1240 -1.8731
 8099TIP3   OH224260   0.490   4.614   0.525 -0.3619  0.0910  0.4715
 8099TIP3    H124261   0.510   4.603   0.432  1.0751  1.6943  0.5151
 8099TIP3    H224262   0.481   4.525   0.559 -0.5393 -0.5309 -1.1159
 8100TIP3   OH224263   4.400   1.752   5.029  0.0606  0.1798 -0.1002
 8100TIP3    H124264   4.368   1.841   5.043 -3.6387 -1.0896  0.9472
 8100TIP3    H224265   4.341   1.716   4.962  1.1101 -1.6183 -0.1339
 8101TIP3   OH224266   6.176   4.138   3.407 -0.1707 -0.1046  0.3405
 8101TIP3    H124267   6.152   4.163   3.497 -0.1842 -0.9599  0.5844
 8101TIP3    H224268   6.093   4.131   3.361 -0.0883  2.2329 -0.2913
 8102TIP3   OH224269   1.071   6.504   3.434 -0.2003 -0.3622  0.6266
 8102TIP3    H124270   1.155   6.459   3.447  0.4274 -1.1645 -4.3644
 8102TIP3    H224271   1.096   6.593   3.409 -1.0763  0.2863  1.9419
 8103TIP3   OH224272   1.584   3.648   3.571  0.2836 -0.3503  0.0842
 8103TIP3    H124273   1.565   3.642   3.477  0.0621 -0.3764  0.1311
 8103TIP3    H224274   1.560   3.738   3.595 -1.1380 -0.8044  0.4437
 8104TIP3   OH224275   3.437   2.923   4.663 -0.3601 -0.6975 -0.1999
 8104TIP3    H124276   3.463   2.876   4.584 -0.6079  0.7086 -1.1613
 8104TIP3    H224277   3.502   2.993   4.672 -1.4306  0.3449 -0.2970
 8105TIP3   OH224278   6.589   6.535   5.501  0.3998  0.3305 -0.0629
 8105TIP3    H124279   6.651   6.464   5.516  0.1549  0.0561 -0.3416
 8105TIP3    H224280   6.609   6.598   5.570  1.5510  0.6371 -0.6535
 8106TIP3   OH224281   3.361   0.296   2.038  0.3351 -0.1513 -0.1689
 8106TIP3    H124282   3.348   0.207   2.070  0.9626 -0.6727 -1.3183
 8106TIP3    H224283   3.434   0.330   2.090 -0.7969  0.2297  1.2565
 8107TIP3   OH224284   1.357   3.316   0.500 -0.2440 -1.0254  0.0058
 8107TIP3    H124285   1.305   3.347   0.426 -1.2152 -0.8309  0.7527
 8107TIP3    H224286   1.388   3.396   0.543 -2.2226 -1.0109  1.5606
 8108TIP3   OH224287   7.119   5.184   3.438 -0.2769  0.0866  0.2274
 8108TIP3    H124288   7.191   5.204   3.498  2.3584 -1.1673 -2.2797
 8108TIP3    H224289   7.072   5.267   3.428  2.5716  1.7910 -0.1619
 8109TIP3   OH224290   6.051   6.146   5.774  0.1658 -0.1367  0.1686
 8109TIP3    H124291   6.005   6.223   5.808 -0.6614 -0.9549  0.9477
 8109TIP3    H224292   6.056   6.087   5.849  1.4922 -0.5352 -0.2136
 8110TIP3   OH224293   6.188   6.561   5.701  0.6278  0.3829 -0.8647
 8110TIP3    H124294   6.125   6.627   5.730 -0.5794 -1.0874 -0.0180
 8110TIP3    H224295   6.238   6.538   5.779 -0.2714 -1.0767 -0.6907
 8111TIP3   OH224296   4.576   5.534   4.025  0.0361 -0.1886 -0.6720
 8111TIP3    H124297   4.492   5.555   4.064  0.7951 -2.4195  2.5655
 8111TIP3    H224298   4.639   5.586   4.076  0.9787 -2.4926  0.6791
 8112TIP3   OH224299   6.240   0.245   3.171 -0.0176  0.3263  0.4469
 8112TIP3    H124300   6.151   0.219   3.147  0.4936 -1.0118 -0.0640
 8112TIP3    H224301   6.270   0.300   3.099 -0.4923  0.9367  0.7108
 8113TIP3   OH224302   6.926   2.167   3.903 -0.5775  0.7597 -0.3111
 8113TIP3    H124303   6.910   2.136   3.992 -0.7908  0.7998 -0.3369
 8113TIP3    H224304   7.004   2.118   3.875  0.1065  1.4902  0.2696
 8114TIP3   OH224305   6.779   0.773   4.886 -0.0545  0.1402  0.1464
 8114TIP3    H124306   6.770   0.733   4.973 -0.0828  0.6568  0.3858
 8114TIP3    H224307   6.844   0.842   4.899  1.9321 -1.4329 -0.8125
 8115TIP3   OH224308   0.437   5.605   2.195 -0.2089  0.0545 -0.2325
 8115TIP3    H124309   0.436   5.605   2.100 -2.0215  0.1449 -0.2368
 8115TIP3    H224310   0.436   5.512   2.220  3.4809 -0.1484 -0.2134
 8116TIP3   OH224311   0.690   4.649   5.128 -0.2527  0.0776  0.1802
 8116TIP3    H124312   0.714   4.741   5.126  0.2119 -0.0205  0.8812
 8116TIP3    H224313   0.741   4.612   5.200 -0.0215 -0.8370 -0.4222
 8117TIP3   OH224314   1.663   5.499   3.803 -0.2948 -0.2434 -0.3882
 8117TIP3    H124315   1.758   5.486   3.802 -0.0930  0.6783  1.9404
 8117TIP3    H224316   1.628   5.413   3.826  0.0048 -0.4518 -0.6993
 8118TIP3   OH224317   6.610   0.854   4.653  0.0929  0.1314 -0.4182
 8118TIP3    H124318   6.657   0.861   4.736 -0.8809 -0.1819  0.1856
 8118TIP3    H224319   6.528   0.902   4.668  0.8580  2.0490 -1.9611
 8119TIP3   OH224320   1.407   1.458   2.441 -0.0435  0.2065  0.6060
 8119TIP3    H124321   1.319   1.433   2.414 -0.4262  2.1501 -0.1420
 8119TIP3    H224322   1.399   1.550   2.467  2.1213  1.0751 -1.4328
 8120TIP3   OH224323   0.935   4.392   4.725 -0.6990 -0.1535  0.7384
 8120TIP3    H124324   0.843   4.417   4.716 -0.7146 -0.0792  1.0834
 8120TIP3    H224325   0.942   4.360   4.816 -0.5555 -0.8654  0.4854
 8121TIP3   OH224326   0.534   4.226   0.269 -0.7536  0.3175 -0.5264
 8121TIP3    H124327   0.545   4.257   0.179  0.8747 -0.5197 -0.6420
 8121TIP3    H224328   0.451   4.266   0.298 -0.7058  1.5569 -1.9787
 8122TIP3   OH224329   3.984   0.359   1.727 -0.1006 -0.3069 -0.5966
 8122TIP3    H124330   4.005   0.413   1.803 -0.3003 -0.2805 -0.5614
 8122TIP3    H224331   3.960   0.422   1.659 -1.2362 -0.3884 -0.2853
 8123TIP3   OH224332   5.075   3.031   5.386 -0.3883 -0.3793 -0.1500
 8123TIP3    H124333   5.100   2.962   5.448  0.3078 -0.4658 -0.5202
 8123TIP3    H224334   5.142   3.028   5.318  0.2697  1.3900  0.3806
 8124TIP3   OH224335   2.048   3.663   4.836 -0.0441  0.5460  0.1064
 8124TIP3    H124336   2.125   3.711   4.806  0.7838 -0.1654  1.0261
 8124TIP3    H224337   2.030   3.599   4.766 -0.7815  1.7359 -0.8349
 8125TIP3   OH224338   5.694   6.682   4.811  0.3641 -0.1107  0.3084
 8125TIP3    H124339   5.682   6.598   4.767  2.3527 -0.3522  0.1319
 8125TIP3    H224340   5.648   6.745   4.756 -0.4152 -0.9534 -0.0264
 8126TIP3   OH224341   6.453   4.684   2.299  0.1733  0.5497 -0.3492
 8126TIP3    H124342   6.372   4.650   2.262  0.5746 -0.3494 -0.4241
 8126TIP3    H224343   6.522   4.630   2.260  0.6373 -0.3026  1.5308
 8127TIP3   OH224344   3.859   1.612   3.907 -0.3032 -0.1873  0.3640
 8127TIP3    H124345   3.789   1.673   3.882  1.1475  1.4250  0.0547
 8127TIP3    H224346   3.833   1.581   3.994 -0.8201  1.3626  0.8055
 8128TIP3   OH224347   2.339   5.541   3.315  0.1775 -0.4306 -0.2437
 8128TIP3    H124348   2.389   5.570   3.391  1.5304  1.6221 -1.8040
 8128TIP3    H224349   2.269   5.606   3.306  0.9117  0.2235 -1.5450
 8129TIP3   OH224350   0.747   0.515   0.250 -0.3881 -0.0976  0.0781
 8129TIP3    H124351   0.710   0.429   0.271 -0.7659 -0.1750 -0.8735
 8129TIP3    H224352   0.802   0.500   0.174  0.1911  0.3634  0.3938
 8130TIP3   OH224353   5.787   1.693   3.254 -0.3028  0.0218  0.4793
 8130TIP3    H124354   5.843   1.616   3.241  0.3293  0.3487  1.2013
 8130TIP3    H224355   5.714   1.660   3.306 -1.6251 -0.7538 -1.7041
 8131TIP3   OH224356   1.948   3.569   2.485 -0.0250  0.0206 -0.0883
 8131TIP3    H124357   1.914   3.594   2.399  0.8155  0.1631 -0.3794
 8131TIP3    H224358   2.038   3.600   2.486  0.4729 -1.3446  0.2482
 8132TIP3   OH224359   5.078   2.519   3.299  0.4990 -0.0362 -0.8590
 8132TIP3    H124360   5.038   2.602   3.324 -0.1992 -0.8450  0.9273
 8132TIP3    H224361   5.024   2.487   3.227  0.0265  0.4945 -0.7469
 8133TIP3   OH224362   1.564   5.386   3.173  0.1397  0.6561 -0.3660
 8133TIP3    H124363   1.499   5.321   3.199 -0.0357  0.9212 -0.1346
 8133TIP3    H224364   1.611   5.345   3.100 -1.2571  1.0073 -1.5301
 8134TIP3   OH224365   7.099   3.848   0.305  0.2980 -0.2752  0.2928
 8134TIP3    H124366   7.079   3.850   0.399  0.0418  1.4738  0.2233
 8134TIP3    H224367   7.194   3.845   0.301  0.3049 -0.5651  0.5974
 8135TIP3   OH224368   3.634   5.002   0.591  0.2015 -0.1307  0.2844
 8135TIP3    H124369   3.593   4.976   0.673  0.5977  0.4413  0.6663
 8135TIP3    H224370   3.562   5.003   0.528 -0.6714  2.1798  1.2284
 8136TIP3   OH224371   7.177   6.692   3.283  0.0786  0.1159 -0.1772
 8136TIP3    H124372   7.228   6.712   3.204  2.2685  1.5545  1.4954
 8136TIP3    H224373   7.209   6.606   3.311  3.4838  1.9116  2.0830
 8137TIP3   OH224374   2.443   5.105   4.873 -0.3421 -0.0842  0.2108
 8137TIP3    H124375   2.473   5.112   4.963  0.5524 -0.1426 -0.0657
 8137TIP3    H224376   2.349   5.087   4.879 -0.4116  0.5346  1.1111
 8138TIP3   OH224377   0.850   2.194   4.403 -0.2195 -0.3291 -0.2969
 8138TIP3    H124378   0.768   2.179   4.356 -0.9297 -0.5020  0.9408
 8138TIP3    H224379   0.914   2.212   4.335 -1.0500 -1.2806 -1.3571
 8139TIP3   OH224380   6.777   2.334   2.728 -0.0447  0.5733  0.2430
 8139TIP3    H124381   6.732   2.348   2.812  1.0252  2.1059  0.5991
 8139TIP3    H224382   6.784   2.422   2.690 -0.0064 -0.0293 -1.2034
 8140TIP3   OH224383   5.051   0.295   1.341  0.2910  0.2270 -0.4744
 8140TIP3    H124384   5.088   0.225   1.287  0.7342  1.1533 -1.3959
 8140TIP3    H224385   5.031   0.365   1.279  1.0597  1.4279  0.5993
 8141TIP3   OH224386   7.025   0.371   4.925  0.2521 -0.7493  0.4811
 8141TIP3    H124387   6.937   0.346   4.951 -0.2327 -0.3207 -0.6960
 8141TIP3    H224388   7.028   0.466   4.933  0.4045 -0.7033 -0.0541
 8142TIP3   OH224389   0.657   3.677   3.259  0.0046  0.3611  0.7331
 8142TIP3    H124390   0.591   3.616   3.228 -0.1383  0.8385  0.0785
 8142TIP3    H224391   0.629   3.762   3.226  2.0297  0.2972 -1.3616
 8143TIP3   OH224392   7.093   3.925   5.346  0.0448  0.3455 -0.0718
 8143TIP3    H124393   7.084   4.005   5.398  1.5226  0.9524 -0.6992
 8143TIP3    H224394   7.018   3.927   5.286  0.4626  1.6676 -0.5931
 8144TIP3   OH224395   2.891   4.166   5.678  0.3132  0.0179 -0.2035
 8144TIP3    H124396   2.877   4.137   5.588  1.5119  0.1812 -0.4656
 8144TIP3    H224397   2.974   4.213   5.675 -0.5106  1.5965  0.6401
 8145TIP3   OH224398   3.840   5.596   5.466 -0.1235 -0.0499 -0.3054
 8145TIP3    H124399   3.776   5.661   5.439  0.2446  0.0433 -0.9883
 8145TIP3    H224400   3.869   5.625   5.553 -0.3669  0.3864 -0.3672
 8146TIP3   OH224401   1.296   4.684   2.531 -0.0308 -0.2100  0.1511
 8146TIP3    H124402   1.291   4.776   2.557  1.2525 -0.0400 -0.1187
 8146TIP3    H224403   1.225   4.642   2.578 -0.8991  0.9887 -0.0280
 8147TIP3   OH224404   7.066   3.056   4.450 -0.4242 -0.4007  0.3046
 8147TIP3    H124405   7.135   3.025   4.392  0.2258  1.4367  0.0229
 8147TIP3    H224406   6.991   3.071   4.393 -0.3370 -0.2630  0.2251
 8148TIP3   OH224407   2.577   0.100   1.007  0.3084  0.2795  0.1467
 8148TIP3    H124408   2.506   0.133   1.062  0.2676  1.9885 -0.8670
 8148TIP3    H224409   2.534   0.047   0.941  0.3193 -1.4270  1.4358
 8149TIP3   OH224410   2.696   6.344   1.805  0.0157 -0.5026  0.0042
 8149TIP3    H124411   2.613   6.341   1.852  0.1860 -0.5689  0.3016
 8149TIP3    H224412   2.698   6.263   1.754 -0.7305  0.1446 -1.0827
 8150TIP3   OH224413   0.334   0.036   5.496  0.5501  0.3402  1.0825
 8150TIP3    H124414   0.400  -0.020   5.537 -0.3024 -0.6385  1.1747
 8150TIP3    H224415   0.286   0.074   5.568 -0.7018 -1.0811  1.0506
 8151TIP3   OH224416   2.853   3.305   2.167  0.0504  0.3990  0.2193
 8151TIP3    H124417   2.852   3.235   2.233  0.3314  0.1756 -0.0108
 8151TIP3    H224418   2.813   3.380   2.211 -1.3468 -0.2460  0.0810
 8152TIP3   OH224419   4.566   1.065   1.895  0.6886  0.0771 -0.0274
 8152TIP3    H124420   4.636   1.092   1.836  0.8579  1.6582  0.8499
 8152TIP3    H224421   4.607   0.999   1.952  0.3539 -1.9636 -1.9899
 8153TIP3   OH224422   6.868   0.264   1.813 -0.1137  0.0073 -0.1002
 8153TIP3    H124423   6.822   0.244   1.895  0.8678  0.5033  0.6013
 8153TIP3    H224424   6.889   0.179   1.776  0.5579 -0.2634  0.8450
 8154TIP3   OH224425   2.472   6.384   0.357  0.1382 -0.1171 -0.3112
 8154TIP3    H124426   2.490   6.448   0.427  0.5983 -0.0773 -0.4609
 8154TIP3    H224427   2.460   6.437   0.279  0.3864 -0.2032 -0.4094
 8155TIP3   OH224428   6.666   0.768   0.240  0.4127 -0.0300 -0.3706
 8155TIP3    H124429   6.709   0.699   0.291  1.6431 -0.4410 -1.8851
 8155TIP3    H224430   6.684   0.848   0.289  1.7366 -0.3856 -0.2345
 8156TIP3   OH224431   6.320   5.049   3.008  0.6891  0.5845 -0.5824
 8156TIP3    H124432   6.415   5.061   3.009  0.5159  2.1489  0.0277
 8156TIP3    H224433   6.293   5.068   2.918  0.9252  0.3347 -0.7057
 8157TIP3   OH224434   3.231   1.577   3.637 -0.4735 -0.0848  1.1458
 8157TIP3    H124435   3.178   1.517   3.583 -0.2674  0.0656  0.7754
 8157TIP3    H224436   3.321   1.556   3.614 -0.4091  1.2106  0.0736
 8158TIP3   OH224437   1.882   6.742   4.726  0.0470 -0.3862  0.2868
 8158TIP3    H124438   1.895   6.813   4.663  0.0322 -1.3151 -0.8000
 8158TIP3    H224439   1.967   6.732   4.769  0.1013  0.1577  0.3059
 8159TIP3   OH224440   3.709   2.145   5.496  0.0902  0.1615  0.1228
 8159TIP3    H124441   3.675   2.164   5.583  0.4427 -0.2835  0.3601
 8159TIP3    H224442   3.670   2.213   5.440 -0.8167 -0.0527  0.4705
 8160TIP3   OH224443   6.650   5.698   5.360  0.0430  0.3466 -0.4471
 8160TIP3    H124444   6.689   5.777   5.398  0.8448  0.8463 -2.2069
 8160TIP3    H224445   6.721   5.657   5.311 -0.1523 -1.9030  0.9614
 8161TIP3   OH224446   4.274   5.720   3.344  0.0858 -0.8944 -0.1544
 8161TIP3    H124447   4.327   5.719   3.265  0.1361  0.6419 -0.1623
 8161TIP3    H224448   4.216   5.645   3.335 -0.9405  0.1060 -2.3647
 8162TIP3   OH224449   5.151   1.637   2.714  0.0048  0.0419  0.1645
 8162TIP3    H124450   5.058   1.626   2.730 -0.2308  0.4809 -0.7897
 8162TIP3    H224451   5.161   1.730   2.693  0.8736  0.2860  1.5604
 8163TIP3   OH224452   6.549   1.730   1.087 -0.1289  0.1208 -0.3151
 8163TIP3    H124453   6.599   1.673   1.145  0.3787  1.5695  0.7373
 8163TIP3    H224454   6.458   1.716   1.112 -0.0768 -0.7690 -0.5923
 8164TIP3   OH224455   2.642   5.665   5.571 -0.1926 -0.2061  0.1547
 8164TIP3    H124456   2.567   5.620   5.609  0.4157 -1.1990  0.2056
 8164TIP3    H224457   2.664   5.614   5.493 -0.5286  0.9774 -0.7407
 8165TIP3   OH224458   3.670   3.073   0.998  0.0560 -0.2734  0.0172
 8165TIP3    H124459   3.685   3.161   0.964  1.2204  0.0089  1.1810
 8165TIP3    H224460   3.647   3.021   0.921  1.5427  0.5649 -1.0580
 8166TIP3   OH224461   6.399   4.084   3.255  0.1673  0.7542 -0.2018
 8166TIP3    H124462   6.315   4.103   3.297  0.4702 -0.2552  0.9242
 8166TIP3    H224463   6.462   4.137   3.304  0.2427  1.2039 -0.7846
 8167TIP3   OH224464   2.528   4.280   0.785  0.6194 -0.3618 -0.5466
 8167TIP3    H124465   2.438   4.297   0.756 -0.0567 -0.7921  1.1780
 8167TIP3    H224466   2.532   4.185   0.796  1.7885 -0.5400 -2.0361
 8168TIP3   OH224467   2.673   1.769   4.031 -0.4889  0.3667  0.0786
 8168TIP3    H124468   2.764   1.759   4.058 -0.7500  0.2136  0.9196
 8168TIP3    H224469   2.624   1.707   4.085 -1.2686  1.4417  0.6643
 8169TIP3   OH224470   4.922   6.620   0.612 -0.2608 -0.0423  0.2217
 8169TIP3    H124471   5.003   6.646   0.656 -0.5977 -0.5241  1.1714
 8169TIP3    H224472   4.852   6.660   0.666 -0.6868 -0.7200  0.1820
 8170TIP3   OH224473   1.636   1.792   2.874  0.0436 -0.0049 -0.2947
 8170TIP3    H124474   1.611   1.700   2.872  0.2435 -0.1071  1.0005
 8170TIP3    H224475   1.608   1.826   2.789  1.1602 -1.5481 -1.3478
 8171TIP3   OH224476   0.319   0.268   5.011  0.4507 -0.1999  0.2728
 8171TIP3    H124477   0.381   0.201   4.982  1.7514  1.1872 -0.2751
 8171TIP3    H224478   0.257   0.221   5.067  0.4467 -2.1205 -1.2479
 8172TIP3   OH224479   2.776   1.771   3.075  0.2750  0.0516  0.4376
 8172TIP3    H124480   2.783   1.681   3.107  0.8196 -0.4199 -0.9553
 8172TIP3    H224481   2.766   1.762   2.980 -1.2759  1.4037  0.4219
 8173TIP3   OH224482   2.835   1.985   0.414 -0.4018  0.4795  0.1330
 8173TIP3    H124483   2.842   1.940   0.499  0.3240 -0.8845 -0.6038
 8173TIP3    H224484   2.846   2.078   0.435  0.8057  0.0862  1.4206
 8174TIP3   OH224485   1.394   4.467   1.464  0.4054  0.2833  0.5283
 8174TIP3    H124486   1.336   4.430   1.531  1.1554 -0.1145  0.9840
 8174TIP3    H224487   1.472   4.494   1.513 -0.4837  3.4837  0.3947
 8175TIP3   OH224488   2.142   3.052   0.804 -0.3957 -0.0272 -0.8935
 8175TIP3    H124489   2.148   3.045   0.709 -1.6958  0.8077 -1.0618
 8175TIP3    H224490   2.053   3.082   0.821  0.2230  1.1844  0.5023
 8176TIP3   OH224491   4.829   4.058   5.525  0.2049  0.8865  0.6098
 8176TIP3    H124492   4.788   4.145   5.529 -0.2812  0.6892  0.0017
 8176TIP3    H224493   4.801   4.015   5.606 -1.1553  0.6070  0.0284
 8177TIP3   OH224494   0.342   5.660   0.476  0.0664  0.1199 -0.3150
 8177TIP3    H124495   0.334   5.607   0.396  0.5922  0.0698 -0.3441
 8177TIP3    H224496   0.302   5.744   0.454 -0.6694 -0.2215 -0.3087
 8178TIP3   OH224497   1.678   2.146   0.529 -0.0275  0.3270  0.2908
 8178TIP3    H124498   1.716   2.082   0.469 -0.0925  0.2061  0.3797
 8178TIP3    H224499   1.753   2.193   0.565  0.0456 -0.0168  0.5843
 8179TIP3   OH224500   4.708   0.697   5.799 -0.1514  0.8595  0.4705
 8179TIP3    H124501   4.802   0.700   5.781 -0.1301  1.5657  0.6589
 8179TIP3    H224502   4.686   0.787   5.824 -1.0528  0.9147 -0.4550
 8180TIP3   OH224503   6.188   3.527   4.340 -0.4808 -0.2570 -0.3973
 8180TIP3    H124504   6.135   3.602   4.312  0.5137  0.8027  0.4967
 8180TIP3    H224505   6.143   3.451   4.301 -0.0673  0.9539 -3.5620
 8181TIP3   OH224506   3.984   6.491   1.223 -0.1584  0.7610  0.2600
 8181TIP3    H124507   3.983   6.559   1.291 -1.1059 -0.6676  1.7719
 8181TIP3    H224508   3.917   6.518   1.161  1.5803  2.7424 -0.8603
 8182TIP3   OH224509   3.582   3.718   3.428  0.5724  0.0127  0.2658
 8182TIP3    H124510   3.617   3.799   3.390 -0.2680 -0.4544 -1.6267
 8182TIP3    H224511   3.494   3.742   3.458  0.1563 -0.2707 -0.6882
 8183TIP3   OH224512   5.831   6.553   0.968 -0.2342 -0.1304 -0.5364
 8183TIP3    H124513   5.742   6.578   0.993  0.3149  0.4394  1.0000
 8183TIP3    H224514   5.872   6.526   1.050  1.1132 -0.0854 -1.1630
 8184TIP3   OH224515   1.316   6.307   0.804 -0.4171  0.2325  0.1854
 8184TIP3    H124516   1.297   6.219   0.835  0.1821  0.4851  1.3571
 8184TIP3    H224517   1.377   6.342   0.869  0.4340  1.0253 -1.0022
 8185TIP3   OH224518   2.470   1.872   1.526  0.1277 -0.5625 -0.3192
 8185TIP3    H124519   2.448   1.793   1.476 -0.3991 -0.5797 -0.0620
 8185TIP3    H224520   2.394   1.887   1.581  0.1980  0.1743 -0.4198
 8186TIP3   OH224521   6.351   4.506   0.411  0.0817 -0.0326  0.3175
 8186TIP3    H124522   6.424   4.488   0.471 -0.6013 -1.3415  0.7915
 8186TIP3    H224523   6.285   4.547   0.467 -0.6599 -1.4935  0.5466
 8187TIP3   OH224524   5.966   0.534   5.322  0.0706  0.7716  0.0602
 8187TIP3    H124525   5.956   0.517   5.416  0.2431  0.7687  0.0794
 8187TIP3    H224526   5.895   0.595   5.301 -1.1051 -0.6414 -0.1911
 8188TIP3   OH224527   4.075   2.324   0.846 -0.1759  0.0302  0.2119
 8188TIP3    H124528   4.113   2.408   0.820 -1.8920  0.6760 -0.3553
 8188TIP3    H224529   4.150   2.271   0.873  1.2938  0.7220 -2.2371
 8189TIP3   OH224530   4.434   6.070   4.238 -0.0090  0.1439  0.0722
 8189TIP3    H124531   4.487   6.066   4.318 -1.3918 -0.4204  1.0083
 8189TIP3    H224532   4.490   6.032   4.170  0.9635  0.0391  0.9005
 8190TIP3   OH224533   0.659   3.118   2.349  0.1183 -0.4873  0.7645
 8190TIP3    H124534   0.738   3.087   2.305 -0.7290  0.7262 -1.8102
 8190TIP3    H224535   0.657   3.212   2.332 -1.1828 -0.2514  1.9833
 8191TIP3   OH224536   6.973   3.221   0.838  0.0780 -0.2638  0.5245
 8191TIP3    H124537   6.922   3.270   0.903  1.3856 -0.8593  2.0654
 8191TIP3    H224538   6.915   3.150   0.812 -1.2177  1.1131 -0.5018
 8192TIP3   OH224539   5.469   4.130   2.888  0.2573  0.1802 -0.2248
 8192TIP3    H124540   5.540   4.089   2.937  1.4243  1.8799 -0.4332
 8192TIP3    H224541   5.412   4.057   2.864  1.5949 -1.1539  0.4791
 8193TIP3   OH224542   3.734   4.079   1.881  0.7902 -0.0711 -0.2048
 8193TIP3    H124543   3.792   4.026   1.936  2.2218  0.4472 -1.1472
 8193TIP3    H224544   3.793   4.128   1.824 -0.6004 -0.2141 -1.8669
 8194TIP3   OH224545   4.759   0.220   1.351  0.3888  0.0095  0.0726
 8194TIP3    H124546   4.738   0.290   1.412 -1.9974  0.0956 -0.7338
 8194TIP3    H224547   4.782   0.264   1.269 -1.1405 -0.0917 -0.4441
 8195TIP3   OH224548   2.154   5.226   0.210 -0.0885  0.6476 -0.0139
 8195TIP3    H124549   2.246   5.237   0.234  0.0121 -0.2201  0.0155
 8195TIP3    H224550   2.137   5.299   0.150  0.7965  0.4690 -0.5118
 8196TIP3   OH224551   3.831   2.781   2.032  0.0308 -0.1191 -0.1874
 8196TIP3    H124552   3.779   2.841   2.085  1.0797  0.3808  0.2779
 8196TIP3    H224553   3.917   2.780   2.072  0.4359 -0.8466 -1.0290
 8197TIP3   OH224554   4.258   1.324   3.392 -0.0364 -0.2918 -0.1843
 8197TIP3    H124555   4.350   1.298   3.389  0.0844  0.1610 -0.6493
 8197TIP3    H224556   4.259   1.408   3.437 -0.0249  0.4516 -1.5051
 8198TIP3   OH224557   5.247   3.127   2.888 -0.4762 -0.3109 -0.1764
 8198TIP3    H124558   5.191   3.123   2.965 -0.0556  1.3898  0.2686
 8198TIP3    H224559   5.317   3.064   2.906 -1.6066 -1.6459 -0.2559
 8199TIP3   OH224560   2.475   1.089   3.605 -0.0078 -0.1280  0.0133
 8199TIP3    H124561   2.471   1.179   3.572  1.5664 -0.2306 -0.5455
 8199TIP3    H224562   2.569   1.071   3.613 -0.3071 -1.5866  0.4998
 8200TIP3   OH224563   4.337   5.386   1.353 -0.6435 -0.3063  0.5468
 8200TIP3    H124564   4.290   5.442   1.416 -0.2368  1.0788 -0.3387
 8200TIP3    H224565   4.421   5.431   1.339 -0.4404 -0.9653 -0.4478
 8201TIP3   OH224566   5.231   6.530   4.501  0.0040 -0.0901  0.6184
 8201TIP3    H124567   5.262   6.510   4.589  0.2242 -4.9649 -0.2847
 8201TIP3    H224568   5.140   6.556   4.513  0.3934  0.5744  2.3483
 8202TIP3   OH224569   1.103   5.188   5.369 -0.5219 -0.1320 -0.1987
 8202TIP3    H124570   1.055   5.269   5.390 -1.5645 -1.1882  1.7392
 8202TIP3    H224571   1.054   5.119   5.414  1.1277 -1.6757 -0.6730
 8203TIP3   OH224572   2.484   0.359   5.696 -0.6820  0.4786  0.3596
 8203TIP3    H124573   2.578   0.341   5.692 -0.3706  2.1566 -0.5791
 8203TIP3    H224574   2.450   0.330   5.611 -0.8672  0.6090  0.3873
 8204TIP3   OH224575   3.869   1.332   5.477  0.5287  0.8853 -0.1253
 8204TIP3    H124576   3.946   1.313   5.424  0.1783  3.0402 -1.5174
 8204TIP3    H224577   3.875   1.426   5.495 -1.1008  0.8360  0.8689
 8205TIP3   OH224578   6.531   2.903   5.410  0.4732  0.2075 -0.2422
 8205TIP3    H124579   6.547   2.973   5.473  0.3886 -0.1811  0.2134
 8205TIP3    H224580   6.551   2.823   5.458  2.2013 -0.0221 -1.2398
 8206TIP3   OH224581   4.041   5.640   4.031 -0.2290  0.4326 -0.0345
 8206TIP3    H124582   4.075   5.710   3.976 -0.2651  0.7705  0.3698
 8206TIP3    H224583   4.072   5.661   4.119  0.3277 -0.4205 -0.0088
 8207TIP3   OH224584   1.254   4.601   3.349  0.7135  0.0807  0.0259
 8207TIP3    H124585   1.269   4.508   3.366  2.7476  0.1058 -1.2922
 8207TIP3    H224586   1.201   4.603   3.270  0.5724  0.0546  0.1187
 8208TIP3   OH224587   3.731   6.431   3.235 -0.1839  0.1870  0.2291
 8208TIP3    H124588   3.792   6.358   3.227 -0.5480 -0.2690  1.3368
 8208TIP3    H224589   3.779   6.507   3.203  0.7080 -0.2878  0.4254
 8209TIP3   OH224590   5.027   0.955   2.967 -0.6483 -0.7771  0.3907
 8209TIP3    H124591   4.964   0.906   3.020 -0.0973 -1.3638  0.5097
 8209TIP3    H224592   5.112   0.917   2.988 -0.2732 -0.1622  0.0394
 8210TIP3   OH224593   2.883   5.971   5.188 -0.1396  0.0755 -0.4191
 8210TIP3    H124594   2.951   6.014   5.240  0.9768 -0.3419 -1.4932
 8210TIP3    H224595   2.826   6.042   5.160  0.2181  0.5187 -0.0409
 8211TIP3   OH224596   0.830   1.851   3.961 -0.5147  0.0124 -0.2412
 8211TIP3    H124597   0.786   1.912   4.020  0.3955 -0.1443  0.6347
 8211TIP3    H224598   0.853   1.903   3.885 -1.1184  0.3807 -0.1799
 8212TIP3   OH224599   3.508   0.415   0.971  0.4099  0.0232  0.4118
 8212TIP3    H124600   3.413   0.429   0.978  0.1462 -1.4627  0.0570
 8212TIP3    H224601   3.524   0.334   1.019  1.5915  0.4917  0.8663
 8213TIP3   OH224602   2.305   3.286   1.019 -0.2350  0.2744 -0.2738
 8213TIP3    H124603   2.232   3.310   1.076  0.7900 -1.7547  2.0507
 8213TIP3    H224604   2.266   3.230   0.952 -0.9437 -0.1283  0.4591
 8214TIP3   OH224605   7.048   5.911   0.452  0.6794  0.1528 -0.0958
 8214TIP3    H124606   7.097   5.984   0.489 -0.7338  1.1179 -0.0796
 8214TIP3    H224607   6.972   5.901   0.510 -0.1567 -0.0453 -1.1950
 8215TIP3   OH224608   5.575   1.595   3.381 -0.1952  0.7362 -0.3143
 8215TIP3    H124609   5.579   1.521   3.321  2.7524  1.4096 -1.1330
 8215TIP3    H224610   5.485   1.626   3.375 -0.9128 -1.4062 -1.6256
 8216TIP3   OH224611   0.405   0.082   3.897  0.2573  0.6158 -0.2929
 8216TIP3    H124612   0.452   0.089   3.814  0.5446 -0.0640 -0.1983
 8216TIP3    H224613   0.472   0.096   3.964 -0.1379  2.0860 -0.1630
 8217TIP3   OH224614   5.350   0.917   5.367 -0.2001 -0.5882  0.3657
 8217TIP3    H124615   5.308   0.911   5.281  0.8498  1.2119 -0.3244
 8217TIP3    H224616   5.439   0.946   5.347 -0.7243  2.6986  2.2000
 8218TIP3   OH224617   2.070   5.984   1.163  0.2981 -0.0997 -0.1026
 8218TIP3    H124618   2.144   6.001   1.106  2.0983 -1.3515  1.7185
 8218TIP3    H224619   2.004   6.049   1.138  2.3868  1.7493 -1.0881
 8219TIP3   OH224620   5.352   1.570   3.807  0.1069  0.2688  0.5077
 8219TIP3    H124621   5.298   1.640   3.846 -0.1797  1.1182 -1.3027
 8219TIP3    H224622   5.425   1.617   3.767 -0.4325 -0.3710 -1.3040
 8220TIP3   OH224623   4.029   0.076   0.708  0.0010 -0.6447 -0.4370
 8220TIP3    H124624   4.050   0.148   0.768 -1.1750 -0.8761  0.3015
 8220TIP3    H224625   4.098   0.078   0.641  0.6355  0.4170  0.2307
 8221TIP3   OH224626   0.775   2.062   5.861 -0.1781  0.5157 -1.0264
 8221TIP3    H124627   0.713   2.005   5.815  0.0935 -0.4905 -0.1999
 8221TIP3    H224628   0.842   2.002   5.894 -1.0815  0.9554  1.8696
 8222TIP3   OH224629   5.344   0.504   1.187 -0.1284  0.3373 -0.4063
 8222TIP3    H124630   5.341   0.564   1.261 -2.1061 -0.2717  0.0566
 8222TIP3    H224631   5.385   0.554   1.117  0.7905  1.2770  0.7712
 8223TIP3   OH224632   6.897   0.132   3.629 -0.6593 -0.2797  0.2046
 8223TIP3    H124633   6.840   0.207   3.614 -0.0882  0.4133  1.3714
 8223TIP3    H224634   6.873   0.101   3.717  1.0146  0.3010  0.9209
 8224TIP3   OH224635   4.871   1.578   2.718  0.4274 -0.5908  0.0966
 8224TIP3    H124636   4.831   1.588   2.805 -0.8440  0.1053 -0.5316
 8224TIP3    H224637   4.812   1.626   2.660  1.4443 -0.7660 -1.1057
 8225TIP3   OH224638   3.419   4.588   2.231 -0.8247 -0.1020 -0.2314
 8225TIP3    H124639   3.502   4.635   2.216 -0.7509  0.0179  0.5401
 8225TIP3    H224640   3.424   4.560   2.322 -1.9480  0.5189  0.0317
 8226TIP3   OH224641   1.845   4.615   0.152  0.6329  0.0558  0.4276
 8226TIP3    H124642   1.790   4.686   0.119 -1.7588 -1.4702  0.8524
 8226TIP3    H224643   1.860   4.638   0.244  1.2483  0.7605  0.1662
 8227TIP3   OH224644   0.093   4.956   1.337  0.1790  0.1028  0.0825
 8227TIP3    H124645   0.042   4.876   1.351 -0.0158  0.3450  0.7692
 8227TIP3    H224646   0.029   5.022   1.312  0.2633  0.2006  0.1245
 8228TIP3   OH224647   1.217   0.245   4.665  0.3433 -0.4002 -0.2629
 8228TIP3    H124648   1.234   0.151   4.663  0.6251 -0.3548  0.0166
 8228TIP3    H224649   1.170   0.262   4.583 -1.6526 -1.1575  0.6679
 8229TIP3   OH224650   0.870   2.001   2.135 -0.0770  0.2459 -0.0635
 8229TIP3    H124651   0.870   2.062   2.209  0.1768  0.6272 -0.3779
 8229TIP3    H224652   0.934   1.935   2.159 -1.2041 -0.5682  0.8227
 8230TIP3   OH224653   6.846   5.898   4.104  0.7422  0.2983 -0.5242
 8230TIP3    H124654   6.904   5.898   4.180  0.6032  1.8462 -0.3810
 8230TIP3    H224655   6.820   5.807   4.093 -0.8855  0.2506  2.5647
 8231TIP3   OH224656   4.965   4.221   2.620  0.0187  0.1041 -0.2743
 8231TIP3    H124657   4.921   4.151   2.668  0.4017 -1.6267 -2.2979
 8231TIP3    H224658   5.053   4.188   2.604  1.1725  2.2624  1.0993
 8232TIP3   OH224659   5.466   1.498   1.408 -0.3285 -0.4551  0.0999
 8232TIP3    H124660   5.466   1.515   1.313 -1.0758 -1.3717 -0.0787
 8232TIP3    H224661   5.411   1.420   1.418  1.2812 -1.5101  1.0873
 8233TIP3   OH224662   0.711   3.044   0.643  0.2968  0.0267 -0.6250
 8233TIP3    H124663   0.668   3.059   0.559  1.5243  1.1714 -1.0758
 8233TIP3    H224664   0.752   2.958   0.634 -0.0920 -0.1281 -0.9488
 8234TIP3   OH224665   5.149   6.495   2.171  0.3513  0.2831  0.4681
 8234TIP3    H124666   5.150   6.421   2.110 -3.6844  0.8250 -0.5107
 8234TIP3    H224667   5.112   6.458   2.251  3.4006  0.1371  1.9312
 8235TIP3   OH224668   4.804   0.045   0.087  0.4519 -0.1803 -0.1476
 8235TIP3    H124669   4.852   0.121   0.054  0.4989  0.1508  0.6515
 8235TIP3    H224670   4.865  -0.028   0.077  0.7805  0.0709  0.0185
 8236TIP3   OH224671   3.340   1.140   4.127  0.0446 -0.3829 -0.1593
 8236TIP3    H124672   3.315   1.084   4.054 -2.6923  1.7762 -1.0396
 8236TIP3    H224673   3.386   1.214   4.087 -0.4272  0.2302  0.3992
 8237TIP3   OH224674   1.606   2.485   1.019 -0.3154  0.4741 -0.3365
 8237TIP3    H124675   1.582   2.496   0.927 -2.3073 -2.7532 -0.3280
 8237TIP3    H224676   1.522   2.470   1.064  0.7409  0.6396  1.8020
 8238TIP3   OH224677   0.402   6.651   5.662 -0.3255 -0.2612  0.2131
 8238TIP3    H124678   0.440   6.565   5.644  0.8499 -0.0732  1.5993
 8238TIP3    H224679   0.324   6.655   5.608 -0.5423 -2.3117  0.3236
 8239TIP3   OH224680   0.793   2.802   0.580 -0.2058  0.2833 -0.2589
 8239TIP3    H124681   0.724   2.747   0.617 -0.3233  0.5596 -0.0695
 8239TIP3    H224682   0.808   2.765   0.493 -1.2303  0.7744 -0.6641
 8240TIP3   OH224683   6.312   2.876   0.621  0.4950 -0.4344 -0.9700
 8240TIP3    H124684   6.279   2.826   0.696 -1.3416  0.3011 -1.2434
 8240TIP3    H224685   6.277   2.830   0.545  1.2957 -0.4452 -1.3383
 8241TIP3   OH224686   2.553   3.347   1.087 -0.4308 -0.2161  0.0123
 8241TIP3    H124687   2.467   3.353   1.046  0.0305 -1.2529 -1.1714
 8241TIP3    H224688   2.573   3.253   1.086  1.1459  0.1041 -0.6738
 8242TIP3   OH224689   5.493   2.935   3.928 -0.4082  0.4028 -0.2961
 8242TIP3    H124690   5.580   2.904   3.951 -1.0731 -0.7977  0.7297
 8242TIP3    H224691   5.497   2.950   3.833  0.4450 -1.2579 -0.5525
 8243TIP3   OH224692   3.056   5.910   2.254  0.3305 -0.2262  0.3743
 8243TIP3    H124693   3.060   5.817   2.232 -1.8545 -0.5192  1.0263
 8243TIP3    H224694   3.013   5.951   2.179  1.1724  0.2598  0.1431
 8244TIP3   OH224695   6.586   2.086   1.962  0.0949 -0.2648  0.0093
 8244TIP3    H124696   6.595   2.106   1.869 -1.0879  0.2188 -0.0079
 8244TIP3    H224697   6.512   2.026   1.967 -2.3058  2.4996  0.9267
 8245TIP3   OH224698   1.080   5.177   1.293  0.2900 -0.9939 -0.0429
 8245TIP3    H124699   1.066   5.083   1.276  1.1801 -1.1793  0.2097
 8245TIP3    H224700   1.151   5.201   1.234 -0.4306 -0.2908 -0.6403
 8246TIP3   OH224701   1.206   2.601   5.363  0.0711  0.0886  0.1716
 8246TIP3    H124702   1.288   2.648   5.377 -0.6721  2.0789 -1.7597
 8246TIP3    H224703   1.150   2.662   5.316 -3.0263 -0.7259  2.4435
 8247TIP3   OH224704   4.106   1.646   2.215  0.0876  0.2652  0.0557
 8247TIP3    H124705   4.106   1.645   2.311 -1.3693 -0.1829  0.0792
 8247TIP3    H224706   4.047   1.575   2.191  1.0752 -0.1655 -1.2039
 8248TIP3   OH224707   3.515   5.028   5.494 -0.4590 -0.5707  0.4955
 8248TIP3    H124708   3.490   5.115   5.523  0.2941 -0.5958  1.2360
 8248TIP3    H224709   3.433   4.986   5.470 -0.8146  0.3938 -0.0393
 8249TIP3   OH224710   1.886   0.589   0.150 -0.1220 -0.4283 -0.5154
 8249TIP3    H124711   1.803   0.624   0.117 -0.0061  0.2044 -0.1367
 8249TIP3    H224712   1.880   0.598   0.245  0.7703  0.5052 -0.5360
 8250TIP3   OH224713   0.408   5.335   4.926 -0.6411 -0.4891 -0.2219
 8250TIP3    H124714   0.413   5.403   4.993  3.2513 -0.5463 -0.2082
 8250TIP3    H224715   0.380   5.256   4.973 -4.2152  0.7521 -0.0515
 8251TIP3   OH224716   3.489   0.928   3.468  0.0238  0.1408 -0.0030
 8251TIP3    H124717   3.419   0.872   3.503 -0.2012 -0.6772 -1.6915
 8251TIP3    H224718   3.519   0.978   3.545 -0.4070 -1.5996  1.3648
 8252TIP3   OH224719   3.884   6.644   3.155  0.6506 -0.1003  0.7893
 8252TIP3    H124720   3.894   6.656   3.060 -3.0283  1.3674  0.4311
 8252TIP3    H224721   3.909   6.729   3.192 -0.0284  0.0458  0.9144
 8253TIP3   OH224722   0.252   4.587   0.214 -0.1736 -0.2898  0.4589
 8253TIP3    H124723   0.334   4.565   0.170 -0.3520 -0.3862  0.1735
 8253TIP3    H224724   0.232   4.511   0.268 -1.6484 -1.6030 -1.7687
 8254TIP3   OH224725   1.034   1.624   3.922  0.3019  0.2170  0.1443
 8254TIP3    H124726   1.000   1.712   3.939  0.2168  0.1616  0.2626
 8254TIP3    H224727   0.958   1.566   3.930  0.5008  0.0408  0.8590
 8255TIP3   OH224728   3.633   2.156   3.367 -0.3280  0.2828  0.2580
 8255TIP3    H124729   3.590   2.071   3.369 -1.3763  0.8042  1.2091
 8255TIP3    H224730   3.725   2.137   3.386 -0.1123 -0.8319 -1.6396
 8256TIP3   OH224731   5.831   1.827   1.976  0.0748  0.1893  0.5718
 8256TIP3    H124732   5.788   1.742   1.974 -0.2517  0.2479  2.5924
 8256TIP3    H224733   5.771   1.886   1.930  0.0504 -0.5336 -0.3547
 8257TIP3   OH224734   3.503   3.590   1.601  0.0640  0.3253  0.0367
 8257TIP3    H124735   3.427   3.639   1.634  0.3118  2.3613 -2.1667
 8257TIP3    H224736   3.575   3.616   1.659 -0.1457  1.3820 -0.1640
 8258TIP3   OH224737   6.802   3.087   1.544  0.4275 -0.8002 -0.1928
 8258TIP3    H124738   6.884   3.127   1.577  0.7924 -1.4290 -0.3272
 8258TIP3    H224739   6.768   3.038   1.619 -0.0199 -0.2533 -0.0297
 8259TIP3   OH224740   0.399   4.006   3.038  0.0550  0.0760 -0.2690
 8259TIP3    H124741   0.470   4.012   3.102  0.9824  1.7339 -1.3773
 8259TIP3    H224742   0.379   4.097   3.015 -1.5484 -0.4031 -0.9639
 8260TIP3   OH224743   2.150   1.280   2.721  0.0206  0.0405 -0.0012
 8260TIP3    H124744   2.244   1.299   2.728 -0.0528  0.9330 -1.2164
 8260TIP3    H224745   2.115   1.353   2.671 -1.4158 -0.0488  0.8250
 8261TIP3   OH224746   6.294   5.452   0.550  0.2011  0.1133 -0.1645
 8261TIP3    H124747   6.258   5.485   0.467  2.0479 -1.2881 -1.6185
 8261TIP3    H224748   6.225   5.467   0.614 -1.0189  1.9134 -1.8053
 8262TIP3   OH224749   0.297   6.094   3.260 -0.3086  0.1095  0.0178
 8262TIP3    H124750   0.322   6.108   3.351 -0.8834  1.1157  0.0331
 8262TIP3    H224751   0.230   6.160   3.243 -0.7626 -0.5719 -0.9086
 8263TIP3   OH224752   2.061   4.063   2.419  0.3124  0.0712 -0.3492
 8263TIP3    H124753   2.005   3.987   2.408  0.8813 -0.5238  0.7706
 8263TIP3    H224754   2.007   4.126   2.467  0.7904 -0.7606  1.3409
 8264TIP3   OH224755   7.196   2.160   2.155  0.3538 -0.3537  0.0661
 8264TIP3    H124756   7.263   2.159   2.223 -0.4607 -1.2471  0.8755
 8264TIP3    H224757   7.134   2.092   2.181 -1.0582  0.6782 -0.4818
 8265TIP3   OH224758   4.584   5.499   1.417  0.5533 -0.3257 -0.0690
 8265TIP3    H124759   4.674   5.528   1.405  0.5172 -0.2150 -0.0722
 8265TIP3    H224760   4.572   5.494   1.512 -0.9544  4.5304  0.2394
 8266TIP3   OH224761   3.145   5.235   2.724 -0.1679 -0.2562 -0.0489
 8266TIP3    H124762   3.152   5.311   2.667  1.0602 -1.1489 -1.1413
 8266TIP3    H224763   3.059   5.198   2.705  0.1873 -0.4776 -1.2504
 8267TIP3   OH224764   7.232   0.570   0.624 -0.1375  0.1015  0.4940
 8267TIP3    H124765   7.171   0.505   0.658 -0.5157 -0.2546 -0.8182
 8267TIP3    H224766   7.177   0.628   0.570  0.8488 -1.0210 -1.8356
 8268TIP3   OH224767   3.150   5.352   1.006  0.5009 -0.1574 -0.6471
 8268TIP3    H124768   3.191   5.433   0.976  1.0436 -0.4108 -0.6090
 8268TIP3    H224769   3.111   5.374   1.090 -0.3336  0.3520 -1.1582
 8269TIP3   OH224770   0.575   6.001   4.666 -0.0225  0.1814  0.3688
 8269TIP3    H124771   0.633   6.075   4.686 -1.1905  1.1524  0.2516
 8269TIP3    H224772   0.550   6.014   4.575 -0.7573 -0.0052  0.5414
 8270TIP3   OH224773   1.363   5.736   0.722  0.0847  0.7490 -0.2437
 8270TIP3    H124774   1.278   5.725   0.679  1.2260 -1.3931 -2.1484
 8270TIP3    H224775   1.371   5.658   0.778  0.7083  1.0776  0.1336
 8271TIP3   OH224776   3.390   0.904   0.598  0.1003  0.1014 -0.0760
 8271TIP3    H124777   3.426   0.942   0.679 -0.0412 -1.0307  0.5339
 8271TIP3    H224778   3.448   0.935   0.529 -0.1319  1.5990  0.3621
 8272TIP3   OH224779   4.113   1.685   0.124 -0.6862 -0.2077  0.2036
 8272TIP3    H124780   4.170   1.755   0.156 -0.5858 -0.6683  1.0602
 8272TIP3    H224781   4.134   1.678   0.031  1.7422 -1.3223  0.7310
 8273TIP3   OH224782   3.010   3.087   2.634  0.1479  0.1945  0.4504
 8273TIP3    H124783   3.004   2.993   2.650 -2.0557  0.5388  2.1412
 8273TIP3    H224784   2.962   3.127   2.707  2.7049  2.7586  0.9266
 8274TIP3   OH224785   4.740   0.667   0.900 -0.5263  0.3414  0.2122
 8274TIP3    H124786   4.769   0.736   0.959  2.2526 -1.5365  1.2033
 8274TIP3    H224787   4.672   0.621   0.949  0.9759 -0.5193  1.5613
 8275TIP3   OH224788   3.599   0.188   1.200  0.5621 -0.3568  0.1668
 8275TIP3    H124789   3.595   0.175   1.295 -1.8107 -1.0561  0.0395
 8275TIP3    H224790   3.612   0.100   1.165 -0.4939 -0.3862 -0.1907
 8276TIP3   OH224791   2.363   2.210   1.796 -0.1296  0.0015  0.4111
 8276TIP3    H124792   2.406   2.293   1.816  1.0276 -0.2804 -0.7395
 8276TIP3    H224793   2.435   2.150   1.776 -1.0108 -0.6969 -0.8715
 8277TIP3   OH224794   3.197   2.032   2.728  0.0097 -0.4653  0.3402
 8277TIP3    H124795   3.109   2.068   2.716  0.3866 -0.2641 -2.6644
 8277TIP3    H224796   3.255   2.101   2.696  0.9672 -2.1468 -1.7352
 8278TIP3   OH224797   0.941   1.475   0.557 -0.3599 -0.2592  0.5223
 8278TIP3    H124798   0.872   1.447   0.498 -1.0379 -0.5490  1.4229
 8278TIP3    H224799   1.021   1.435   0.523 -0.7511 -0.4624 -0.1530
 8279TIP3   OH224800   5.606   1.829   1.573  0.7252 -0.0335 -0.1544
 8279TIP3    H124801   5.547   1.804   1.645 -0.0858 -2.7199 -1.6193
 8279TIP3    H224802   5.691   1.794   1.599  0.8172  0.4805  0.2451
 8280TIP3   OH224803   4.507   6.780   4.840  0.4628 -0.0938 -0.2921
 8280TIP3    H124804   4.451   6.819   4.772  1.5044  0.5194 -0.8147
 8280TIP3    H224805   4.503   6.686   4.821  0.6833  0.0599 -1.1678
 8281TIP3   OH224806   1.787   5.400   2.188 -0.0228 -0.2212 -0.0583
 8281TIP3    H124807   1.839   5.320   2.194 -0.4554 -0.3924  2.9431
 8281TIP3    H224808   1.697   5.372   2.200 -0.5253  0.4772 -1.7625
 8282TIP3   OH224809   3.999   4.027   1.358 -0.0385  0.0726  0.3414
 8282TIP3    H124810   3.997   4.120   1.333 -0.7628  0.9396  3.2279
 8282TIP3    H224811   4.092   4.004   1.353  0.2118  1.0809 -0.0167
 8283TIP3   OH224812   3.638   0.720   0.614 -0.4483 -0.3116  0.0245
 8283TIP3    H124813   3.595   0.742   0.531  1.3976 -1.8903 -1.4677
 8283TIP3    H224814   3.702   0.789   0.628 -1.2406  0.3322  0.5385
 8284TIP3   OH224815   5.996   5.996   4.216  0.4001  0.3042 -0.5041
 8284TIP3    H124816   6.065   5.954   4.165 -0.2957  0.7082 -1.8615
 8284TIP3    H224817   5.994   5.949   4.299  1.2157 -0.7703 -1.0710
 8285TIP3   OH224818   5.998   6.087   3.614  0.5680  0.1175 -0.2933
 8285TIP3    H124819   5.916   6.125   3.583  1.4439  1.3230 -1.2576
 8285TIP3    H224820   6.030   6.148   3.680  0.0209 -1.0831  1.1307
 8286TIP3   OH224821   5.067   4.226   4.601  0.1076  0.1349 -0.0256
 8286TIP3    H124822   5.089   4.146   4.648 -0.1577  0.2476  0.2894
 8286TIP3    H224823   5.016   4.278   4.663 -3.3486 -1.1825 -1.4784
 8287TIP3   OH224824   0.278   2.503   2.960  0.7677 -0.1009 -0.2233
 8287TIP3    H124825   0.343   2.439   2.988  0.7715  0.5267  1.2761
 8287TIP3    H224826   0.272   2.491   2.865  2.5937 -0.6039 -0.3054
 8288TIP3   OH224827   2.053   4.847   1.351  0.3773  0.2908  0.0271
 8288TIP3    H124828   2.137   4.882   1.380  0.2461  0.8618 -0.2577
 8288TIP3    H224829   2.053   4.861   1.256  0.4842 -0.8542 -0.1623
 8289TIP3   OH224830   6.214   1.118   1.755  0.5666  0.5450  0.6497
 8289TIP3    H124831   6.194   1.211   1.757  1.1403  0.6772  0.3942
 8289TIP3    H224832   6.176   1.083   1.836 -1.6433  0.5742 -0.2914
 8290TIP3   OH224833   0.933   6.350   0.586  0.1074  0.1509 -0.3430
 8290TIP3    H124834   0.877   6.325   0.513  1.5232 -1.0273 -1.0685
 8290TIP3    H224835   0.876   6.345   0.663 -0.7740 -1.0268 -1.0488
 8291TIP3   OH224836   4.615   0.281   4.947  0.0242 -0.0826  0.0259
 8291TIP3    H124837   4.619   0.325   4.863 -0.7506  1.1036  0.5867
 8291TIP3    H224838   4.701   0.295   4.987 -0.1857  0.8593  0.1596
 8292TIP3   OH224839   5.572   4.187   1.644 -0.2521 -0.1447 -0.0386
 8292TIP3    H124840   5.496   4.171   1.700  0.1742  0.0903  0.6164
 8292TIP3    H224841   5.589   4.103   1.602 -0.3432 -0.4246  0.4782
 8293TIP3   OH224842   1.657   2.002   0.212 -0.0677  0.2111 -0.0645
 8293TIP3    H124843   1.735   2.053   0.196  0.2270  0.2929  1.4405
 8293TIP3    H224844   1.622   1.981   0.125  1.7519 -0.0487 -0.7653
 8294TIP3   OH224845   1.970   1.076   2.675  0.2636 -0.3324  0.0254
 8294TIP3    H124846   2.046   1.135   2.677  0.9822 -1.2115 -0.3604
 8294TIP3    H224847   1.903   1.125   2.629  0.8916  0.1531 -0.3878
 8295TIP3   OH224848   2.998   4.365   4.889 -0.1261 -0.2126  0.3364
 8295TIP3    H124849   2.956   4.441   4.930  0.8223  0.5169  0.0044
 8295TIP3    H224850   2.992   4.296   4.955 -0.4606  0.3283  0.8873
 8296TIP3   OH224851   0.062   4.218   0.172 -0.1907 -0.1199 -0.2058
 8296TIP3    H124852   0.060   4.123   0.168 -1.4041 -0.1236 -4.4983
 8296TIP3    H224853   0.154   4.241   0.159  0.0021 -0.7240  0.0933
 8297TIP3   OH224854   4.009   4.421   4.511  0.0683  0.0182  0.0292
 8297TIP3    H124855   3.957   4.343   4.529 -2.6151  1.2945 -1.5611
 8297TIP3    H224856   4.078   4.420   4.577 -0.2379 -3.3106  0.4578
 8298TIP3   OH224857   5.335   0.328   3.797 -0.0569  0.4566 -0.2343
 8298TIP3    H124858   5.284   0.405   3.819 -0.4536  0.1532 -0.0871
 8298TIP3    H224859   5.409   0.362   3.747  0.3275  1.0388  0.7043
 8299TIP3   OH224860   4.193   4.121   2.675  0.5969 -0.4684  0.2688
 8299TIP3    H124861   4.192   4.191   2.610 -1.1281 -0.5055  0.1928
 8299TIP3    H224862   4.206   4.041   2.624 -0.8258 -0.5040 -0.0736
 8300TIP3   OH224863   3.360   0.584   5.680 -0.2215 -0.6266 -0.4556
 8300TIP3    H124864   3.307   0.533   5.620 -1.6997 -0.2098  0.4357
 8300TIP3    H224865   3.371   0.669   5.637 -0.8244 -0.5039 -0.3699
 8301TIP3   OH224866   0.982   0.423   5.841 -0.9056  0.2964 -0.1418
 8301TIP3    H124867   0.990   0.516   5.864  0.4236  0.6085 -1.7195
 8301TIP3    H224868   1.069   0.398   5.809 -1.6051 -1.1428 -1.0276
 8302TIP3   OH224869   3.647   5.845   3.330  0.3407 -0.8961  0.6551
 8302TIP3    H124870   3.575   5.830   3.392  0.8997 -0.4599  1.4298
 8302TIP3    H224871   3.721   5.871   3.385  0.5594  0.5669 -0.2688
 8303TIP3   OH224872   3.891   0.357   4.824  0.0982 -0.1642 -0.1795
 8303TIP3    H124873   3.899   0.298   4.899  0.6247  0.7261  0.4742
 8303TIP3    H224874   3.978   0.356   4.784  0.4718  1.1050  0.5573
 8304TIP3   OH224875   4.786   2.660   4.854 -0.1220 -0.6420  0.1637
 8304TIP3    H124876   4.693   2.672   4.832 -0.0208 -1.4643 -0.7650
 8304TIP3    H224877   4.785   2.639   4.947 -0.8887 -0.7733  0.1381
 8305TIP3   OH224878   2.956   2.805   2.675 -0.3953  0.2676  0.8149
 8305TIP3    H124879   2.910   2.807   2.759  0.1433  0.8558  1.1033
 8305TIP3    H224880   2.890   2.832   2.611 -0.2096  2.1075  1.3567
 8306TIP3   OH224881   0.841   6.193   2.804 -0.4457 -0.1758 -0.6207
 8306TIP3    H124882   0.936   6.202   2.812 -0.3865 -1.1170 -0.0465
 8306TIP3    H224883   0.813   6.160   2.889 -1.1232 -1.0213 -1.1484
 8307TIP3   OH224884   1.590   5.102   3.174 -0.5074 -0.1342  0.1412
 8307TIP3    H124885   1.511   5.064   3.212 -0.8386  1.8614  1.6240
 8307TIP3    H224886   1.654   5.102   3.245  0.2393 -0.0431 -0.5103
 8308TIP3   OH224887   4.328   6.434   1.891 -0.0066  0.2434 -0.4695
 8308TIP3    H124888   4.329   6.371   1.963 -1.8591  0.5658 -0.1061
 8308TIP3    H224889   4.307   6.518   1.933 -0.2451  0.6010 -1.2784
 8309TIP3   OH224890   1.080   5.675   3.819  0.6206  0.0662 -0.0896
 8309TIP3    H124891   1.088   5.727   3.739  3.0762  0.1155  0.1138
 8309TIP3    H224892   1.123   5.592   3.798 -1.9487 -1.3969  0.0612
 8310TIP3   OH224893   5.598   1.408   0.081  0.0803  0.0202 -0.3675
 8310TIP3    H124894   5.554   1.351   0.018  1.4960 -1.1098 -0.4040
 8310TIP3    H224895   5.645   1.348   0.139 -0.9430  1.0355  1.6354
 8311TIP3   OH224896   1.885   4.952   2.793 -0.1182  0.0109  0.1389
 8311TIP3    H124897   1.881   4.901   2.874  0.9629  0.3988  0.4472
 8311TIP3    H224898   1.921   5.036   2.819  1.0439 -0.1366 -0.8606
 8312TIP3   OH224899   5.891   2.569   0.423 -0.7731 -0.1575  0.2271
 8312TIP3    H124900   5.853   2.570   0.335 -0.1337 -0.4188 -0.0567
 8312TIP3    H224901   5.827   2.615   0.477  0.0642  2.4499 -0.8611
 8313TIP3   OH224902   4.766   3.362   4.839  0.0859 -0.5329  0.0897
 8313TIP3    H124903   4.833   3.368   4.771 -0.6922  2.4081 -0.5811
 8313TIP3    H224904   4.807   3.399   4.917 -0.7930  1.8540 -0.4791
 8314TIP3   OH224905   1.720   2.023   3.264  0.3396  0.5972  0.5352
 8314TIP3    H124906   1.678   2.090   3.318  0.5202  0.9873  0.1909
 8314TIP3    H224907   1.663   1.947   3.272  0.9311  0.2780  2.1785
 8315TIP3   OH224908   6.185   4.730   3.387 -0.2863 -0.1438 -0.2677
 8315TIP3    H124909   6.281   4.730   3.390 -0.2749 -0.4913 -0.5248
 8315TIP3    H224910   6.162   4.639   3.364 -0.5614  0.5346 -3.1119
 8316TIP3   OH224911   5.992   2.587   3.159  0.2919  0.0649  0.0190
 8316TIP3    H124912   5.936   2.618   3.230 -1.1640  0.3234 -1.1870
 8316TIP3    H224913   6.074   2.635   3.171 -0.8839  2.2211 -0.0709
 8317TIP3   OH224914   1.488   0.260   3.928 -0.4495 -0.1870  0.5577
 8317TIP3    H124915   1.517   0.260   4.020 -1.9648 -0.6405  1.0653
 8317TIP3    H224916   1.396   0.288   3.932 -0.9121 -1.4152 -0.6938
 8318TIP3   OH224917   6.782   1.050   1.568 -0.4721 -0.0634  0.0022
 8318TIP3    H124918   6.798   0.965   1.609  0.1310 -0.6019 -1.2905
 8318TIP3    H224919   6.828   1.045   1.484 -0.8548  1.3568 -0.3187
 8319TIP3   OH224920   3.817   1.034   5.716 -0.1165 -0.0175 -0.2490
 8319TIP3    H124921   3.766   1.071   5.645 -0.0614  0.1777 -0.1857
 8319TIP3    H224922   3.908   1.038   5.686 -0.1501 -0.5356 -0.4397
 8320TIP3   OH224923   5.259   0.844   5.129 -0.6970  0.1205 -0.2528
 8320TIP3    H124924   5.216   0.759   5.136 -0.6795  0.1602  0.3614
 8320TIP3    H224925   5.248   0.868   5.037 -1.0065 -0.3842 -0.3549
 8321TIP3   OH224926   6.444   2.983   2.739 -0.3292 -0.3584 -0.7910
 8321TIP3    H124927   6.491   2.961   2.820 -2.3939 -2.0093  0.0766
 8321TIP3    H224928   6.505   2.961   2.669  0.4778 -1.7482  0.2802
 8322TIP3   OH224929   4.364   6.403   4.368  0.0440 -0.7747  0.1899
 8322TIP3    H124930   4.278   6.373   4.340 -0.1202 -1.0821  0.9973
 8322TIP3    H224931   4.419   6.394   4.291 -0.3686 -1.7260 -0.0079
 8323TIP3   OH224932   1.305   4.345   0.111 -0.5671 -0.2464 -0.3297
 8323TIP3    H124933   1.261   4.400   0.176 -0.0345 -0.2617  0.0435
 8323TIP3    H224934   1.241   4.338   0.040 -0.4556  1.2727 -0.6150
 8324TIP3   OH224935   6.029   2.289   0.214  0.2628 -0.0011 -0.3266
 8324TIP3    H124936   5.939   2.320   0.219 -0.3906 -1.6413 -1.2455
 8324TIP3    H224937   6.035   2.222   0.282  1.1034  0.7659  0.3839
 8325TIP3   OH224938   5.287   3.758   3.131 -0.4603  0.0539  0.5057
 8325TIP3    H124939   5.301   3.672   3.169 -2.1313 -0.7072 -0.4699
 8325TIP3    H224940   5.198   3.781   3.158  0.2370  1.8710  1.4298
 8326TIP3   OH224941   0.915   4.512   5.513 -0.0655  0.4769 -0.2688
 8326TIP3    H124942   0.943   4.552   5.430 -0.0576 -0.6142 -0.8037
 8326TIP3    H224943   0.820   4.509   5.507 -0.4482  3.9386  1.4374
 8327TIP3   OH224944   3.586   2.926   0.461 -0.3653  0.7799  0.0480
 8327TIP3    H124945   3.657   2.879   0.418  0.2202  1.2072  0.5359
 8327TIP3    H224946   3.508   2.902   0.411  0.3873  1.8972 -1.8155
 8328TIP3   OH224947   7.163   4.889   0.761  0.5396 -0.6038 -0.3323
 8328TIP3    H124948   7.176   4.962   0.700  0.4181 -1.0241 -0.8753
 8328TIP3    H224949   7.068   4.883   0.770  0.5443 -0.7723 -0.3888
 8329TIP3   OH224950   5.873   6.443   2.035  0.0016  0.3563  0.2255
 8329TIP3    H124951   5.926   6.374   2.076 -0.0611  1.2707  1.9598
 8329TIP3    H224952   5.917   6.524   2.061  0.3338  1.0091 -2.1535
 8330TIP3   OH224953   7.072   2.096   5.433  0.4673  0.2250  0.4591
 8330TIP3    H124954   7.011   2.167   5.454 -0.7012 -1.1692  1.9528
 8330TIP3    H224955   7.042   2.063   5.348  1.1607  1.5927 -0.3667
 8331TIP3   OH224956   0.483   4.430   0.828  0.9043 -0.0113 -0.0402
 8331TIP3    H124957   0.506   4.416   0.736  0.8981 -1.6990  0.1784
 8331TIP3    H224958   0.563   4.464   0.868  0.9757  0.5154 -0.6128
 8332TIP3   OH224959   2.618   2.954   0.234 -0.2378 -0.4830 -0.0983
 8332TIP3    H124960   2.641   3.003   0.155  1.4573 -2.5480 -1.0112
 8332TIP3    H224961   2.535   2.912   0.213  0.3294 -1.2298 -0.9294
 8333TIP3   OH224962   7.074   6.407   0.468  0.1578  0.4300 -0.0252
 8333TIP3    H124963   7.059   6.472   0.399  1.3918  0.9643  0.1771
 8333TIP3    H224964   6.996   6.352   0.466 -0.4598  1.2876 -0.9009
 8334TIP3   OH224965   2.495   1.635   4.834  0.6780 -0.3007  0.4938
 8334TIP3    H124966   2.428   1.590   4.782  0.4615 -1.5544  1.7832
 8334TIP3    H224967   2.529   1.567   4.892  2.0136  0.6819  0.9104
 8335TIP3   OH224968   6.466   1.515   2.597 -0.0652 -0.1979 -0.5445
 8335TIP3    H124969   6.495   1.436   2.551 -0.8913 -0.0015 -1.4208
 8335TIP3    H224970   6.384   1.489   2.640 -0.0081  0.0123 -0.3072
 8336TIP3   OH224971   2.289   3.939   0.345 -0.0498 -0.2370  0.0605
 8336TIP3    H124972   2.330   3.927   0.431  0.5563 -2.0054 -0.4311
 8336TIP3    H224973   2.362   3.949   0.285 -0.4544  3.0324 -0.1013
 8337TIP3   OH224974   0.641   3.788   2.674 -0.1098 -0.1495  0.5386
 8337TIP3    H124975   0.675   3.784   2.584 -1.0270 -0.6420  0.2045
 8337TIP3    H224976   0.558   3.834   2.667  0.0547  0.2758  1.2263
 8338TIP3   OH224977   7.067   2.347   2.510 -0.1811  0.0794 -0.1096
 8338TIP3    H124978   6.996   2.284   2.521 -0.4593  0.2691 -0.7937
 8338TIP3    H224979   7.131   2.323   2.578 -1.0696  0.1584  0.7704
 8339TIP3   OH224980   2.412   3.229   2.773 -0.4339 -0.1677  0.1256
 8339TIP3    H124981   2.346   3.284   2.816  0.0275 -0.4677  1.2538
 8339TIP3    H224982   2.482   3.220   2.838  0.5368 -0.1996 -0.8994
 8340TIP3   OH224983   1.943   4.267   3.925 -0.5137  0.5493  0.1799
 8340TIP3    H124984   1.909   4.253   4.013  0.8166  1.1915  0.8179
 8340TIP3    H224985   1.892   4.342   3.892 -0.7239  0.5800  0.5653
 8341TIP3   OH224986   6.241   4.337   2.799 -0.0462  0.1884 -0.0547
 8341TIP3    H124987   6.189   4.366   2.874  0.5073  2.6302 -0.5280
 8341TIP3    H224988   6.325   4.311   2.837 -0.0987  0.4779  0.2678
 8342TIP3   OH224989   6.892   1.509   3.371 -0.4199 -0.3615  0.2589
 8342TIP3    H124990   6.983   1.480   3.367 -0.2615  0.2342 -1.1173
 8342TIP3    H224991   6.896   1.602   3.348 -1.0498  0.4908  3.2059
 8343TIP3   OH224992   3.427   0.283   4.177 -0.3709  0.0710  0.4653
 8343TIP3    H124993   3.360   0.224   4.144 -2.1373  0.5100  2.9425
 8343TIP3    H224994   3.384   0.331   4.248  1.9550  1.9564  0.7512
 8344TIP3   OH224995   3.977   1.917   1.103  0.2252  0.1557 -0.0920
 8344TIP3    H124996   3.996   2.011   1.106 -1.2812  0.4676  0.5470
 8344TIP3    H224997   3.971   1.896   1.010  1.6331  0.4498 -0.2619
 8345TIP3   OH224998   6.037   5.593   1.159 -0.3638 -0.5870  0.4320
 8345TIP3    H124999   6.010   5.677   1.122 -1.1304  0.3104  2.8098
 8345TIP3    H225000   6.088   5.552   1.090 -1.6514  0.9339 -1.5545
 8346TIP3   OH225001   4.776   1.953   4.230 -0.1429  0.2919  0.0504
 8346TIP3    H125002   4.853   1.967   4.285 -0.5309  0.9997  0.4305
 8346TIP3    H225003   4.810   1.957   4.140  0.4323 -0.4984  0.2217
 8347TIP3   OH225004   3.541   6.570   0.660  0.0977 -0.5505  0.1642
 8347TIP3    H125005   3.508   6.604   0.576 -1.0195  0.2811  0.9132
 8347TIP3    H225006   3.465   6.527   0.699  0.7865 -1.5096  0.4776
 8348TIP3   OH225007   3.872   1.963   1.387  0.0673  0.7334  0.2434
 8348TIP3    H125008   3.807   1.898   1.411 -0.2394  0.6567 -0.7780
 8348TIP3    H225009   3.903   1.937   1.301  0.9083  1.1932  0.3916
 8349TIP3   OH225010   2.563   4.941   5.414  0.1678  0.3247 -0.0881
 8349TIP3    H125011   2.608   4.874   5.466  1.0983  0.6658 -0.4447
 8349TIP3    H225012   2.598   5.024   5.445  1.0696  0.5252 -1.5362
 8350TIP3   OH225013   2.459   2.549   3.588  0.3613 -0.9976 -0.2661
 8350TIP3    H125014   2.401   2.621   3.613 -0.0463 -0.8265 -1.6207
 8350TIP3    H225015   2.547   2.580   3.610  0.1198 -0.4070 -0.1192
 8351TIP3   OH225016   6.529   0.341   0.579 -0.4217 -0.4973  0.0624
 8351TIP3    H125017   6.494   0.421   0.618  1.0900  0.5447 -0.6136
 8351TIP3    H225018   6.481   0.331   0.497 -0.8614 -0.4767  0.3187
 8352TIP3   OH225019   3.769   2.383   1.775 -0.1561  0.1006 -0.2308
 8352TIP3    H125020   3.680   2.348   1.769 -0.5695  1.0961 -0.2719
 8352TIP3    H225021   3.768   2.460   1.718  1.4373 -1.2028 -2.1165
 8353TIP3   OH225022   0.920   2.158   4.834 -0.7292 -0.4024 -0.4601
 8353TIP3    H125023   0.962   2.218   4.772 -0.0615  0.0898  0.4428
 8353TIP3    H225024   0.832   2.146   4.799 -0.6410  0.5448 -1.0564
 8354TIP3   OH225025   2.906   5.881   4.642 -0.8242  0.3517 -0.0578
 8354TIP3    H125026   2.856   5.957   4.673 -2.5043 -1.0369  0.8474
 8354TIP3    H225027   2.860   5.806   4.680  1.9352 -1.0676  0.7320
 8355TIP3   OH225028   5.645   4.739   0.399 -0.1948  0.3686  0.2678
 8355TIP3    H125029   5.565   4.772   0.358 -0.6270 -0.0467  0.7793
 8355TIP3    H225030   5.616   4.696   0.479  0.5352  0.1543  0.4254
 8356TIP3   OH225031   2.657   1.815   4.968  0.4160  0.0835 -0.2454
 8356TIP3    H125032   2.607   1.893   4.943 -0.1439 -0.8332 -2.1597
 8356TIP3    H225033   2.612   1.743   4.925  1.6480 -1.1662  0.4842
 8357TIP3   OH225034   5.672   0.877   3.980 -0.3604 -0.1638 -0.1195
 8357TIP3    H125035   5.728   0.954   3.969  0.8090 -0.8904  0.4934
 8357TIP3    H225036   5.603   0.905   4.040 -0.7232  0.7829 -0.9676
 8358TIP3   OH225037   0.342   1.820   1.414 -0.3759  0.3607  0.0409
 8358TIP3    H125038   0.341   1.804   1.508  0.6575 -2.6573 -0.3483
 8358TIP3    H225039   0.256   1.791   1.384 -0.1173 -0.2410 -0.1288
 8359TIP3   OH225040   4.040   5.726   0.344 -0.0867 -0.6249 -0.1258
 8359TIP3    H125041   4.064   5.783   0.417 -1.3212 -0.4556  0.1623
 8359TIP3    H225042   4.114   5.666   0.335  2.2710  2.2351 -1.7690
 8360TIP3   OH225043   4.996   4.411   3.765  0.4155 -0.1821 -0.8447
 8360TIP3    H125044   4.949   4.472   3.822  0.0198 -1.8946  0.7402
 8360TIP3    H225045   5.056   4.364   3.824 -0.0582 -2.0744 -1.7939
 8361TIP3   OH225046   5.059   2.938   1.230 -0.3957 -0.1290  0.3754
 8361TIP3    H125047   5.034   2.925   1.138  2.2515  0.0824 -0.4570
 8361TIP3    H225048   5.083   2.851   1.261  1.5644  0.1710 -0.1289
 8362TIP3   OH225049   6.335   1.526   1.228 -0.4142  0.5941  0.4850
 8362TIP3    H125050   6.296   1.536   1.315 -2.2129 -2.1315  0.1108
 8362TIP3    H225051   6.385   1.445   1.233  1.4081  1.6058 -0.4166
 8363TIP3   OH225052   5.376   4.505   5.249 -0.3473 -0.3732 -0.2784
 8363TIP3    H125053   5.469   4.486   5.258 -0.6732 -1.7634  0.6023
 8363TIP3    H225054   5.358   4.493   5.155 -0.0381 -2.2911 -0.1355
 8364TIP3   OH225055   4.889   5.387   1.069  0.2281 -0.0973 -1.1539
 8364TIP3    H125056   4.831   5.352   1.002  0.1063 -0.3791 -0.9022
 8364TIP3    H225057   4.861   5.344   1.150  0.3916  0.2199 -0.9279
 8365TIP3   OH225058   0.776   6.147   4.372 -0.2581 -0.2712  0.2626
 8365TIP3    H125059   0.692   6.136   4.416 -0.9744 -0.0962 -1.0319
 8365TIP3    H225060   0.795   6.061   4.335 -0.9334  0.2078 -1.2631
 8366TIP3   OH225061   3.700   3.814   5.319  0.3452 -0.4613 -0.1754
 8366TIP3    H125062   3.694   3.718   5.327  0.7804 -0.5781 -1.2024
 8366TIP3    H225063   3.793   3.832   5.310  0.1400 -0.0891 -1.7342
 8367TIP3   OH225064   6.032   2.667   3.890  0.4435  0.2513 -0.1159
 8367TIP3    H125065   6.085   2.615   3.830  0.8199  0.1745  0.2821
 8367TIP3    H225066   6.092   2.730   3.928  0.1698  0.4131  0.0560
 8368TIP3   OH225067   1.737   1.990   4.050  0.2832 -0.2056 -0.0154
 8368TIP3    H125068   1.799   2.046   4.004  0.0916  0.0892  0.0844
 8368TIP3    H225069   1.722   1.916   3.991  1.7444 -0.9592  0.5040
 8369TIP3   OH225070   0.571   1.418   0.923 -0.0466  0.0832 -0.1067
 8369TIP3    H125071   0.633   1.452   0.988 -0.2456 -1.3581  0.8841
 8369TIP3    H225072   0.611   1.438   0.839  1.0750  0.4338  0.4895
 8370TIP3   OH225073   5.462   4.718   2.392  0.0374  0.0797 -0.0891
 8370TIP3    H125074   5.540   4.765   2.365  0.1987 -0.6009 -0.8377
 8370TIP3    H225075   5.493   4.655   2.457  0.0832 -0.0433 -0.2286
 8371TIP3   OH225076   6.639   1.857   0.071 -0.0810  0.0753  0.1068
 8371TIP3    H125077   6.716   1.910   0.091  0.7511 -0.3482 -1.7042
 8371TIP3    H225078   6.577   1.876   0.141  0.1335  3.4901 -0.4603
 8372TIP3   OH225079   3.196   1.801   0.443  0.2275 -0.7724  0.0894
 8372TIP3    H125080   3.202   1.790   0.538 -0.5037  0.9702  0.3659
 8372TIP3    H225081   3.119   1.748   0.419 -1.4124  1.1011  0.9452
 8373TIP3   OH225082   0.075   5.606   0.883 -0.1674 -0.2988  0.1854
 8373TIP3    H125083   0.169   5.608   0.866 -0.0309  1.7886  0.9670
 8373TIP3    H225084   0.037   5.563   0.806  1.2835  0.1556 -0.8059
 8374TIP3   OH225085   5.543   2.301   4.643 -0.3764  0.4425  0.1460
 8374TIP3    H125086   5.477   2.332   4.704 -0.1057  1.5599 -0.1174
 8374TIP3    H225087   5.511   2.327   4.557  0.3754  0.9399  0.0095
 8375TIP3   OH225088   3.501   1.615   2.274  0.4839  0.1949  0.2667
 8375TIP3    H125089   3.576   1.616   2.333  1.3527  1.7900 -0.7696
 8375TIP3    H225090   3.446   1.542   2.304  0.4920  1.3721  3.4570
 8376TIP3   OH225091   6.854   2.241   4.289  0.3580 -0.3141 -0.4210
 8376TIP3    H125092   6.859   2.310   4.222  1.1647  0.1624  0.1187
 8376TIP3    H225093   6.773   2.195   4.269  0.6795 -0.3054 -1.8529
 8377TIP3   OH225094   6.735   6.286   5.405  0.3839 -0.4498  0.1169
 8377TIP3    H125095   6.719   6.302   5.312  0.3786  0.8272  0.3178
 8377TIP3    H225096   6.824   6.318   5.420 -0.0221  0.4168  0.7701
 8378TIP3   OH225097   6.751   0.187   3.928  0.0756 -0.5464  0.1505
 8378TIP3    H125098   6.662   0.162   3.952  0.0291  0.4034  1.0483
 8378TIP3    H225099   6.807   0.138   3.988  0.0493  0.2952  0.8937
 8379TIP3   OH225100   6.930   2.601   3.456 -0.5528 -0.0100 -0.1505
 8379TIP3    H125101   6.990   2.606   3.382  1.4752 -0.1368  1.3831
 8379TIP3    H225102   6.888   2.515   3.447  0.7790 -0.6666 -0.3728
 8380TIP3   OH225103   3.186   4.195   5.166 -0.7383 -0.2022  0.0185
 8380TIP3    H125104   3.251   4.153   5.222  0.0189 -0.1977 -0.8261
 8380TIP3    H225105   3.202   4.288   5.177  0.3647 -0.2147 -1.2526
 8381TIP3   OH225106   3.140   6.270   1.921  0.0620  0.2611  0.4286
 8381TIP3    H125107   3.234   6.286   1.914  0.0468  0.3531  0.4285
 8381TIP3    H225108   3.120   6.287   2.013 -0.0216  0.6090  0.3474
 8382TIP3   OH225109   1.281   4.212   4.214 -0.2355 -0.2114  0.3655
 8382TIP3    H125110   1.373   4.230   4.194 -0.1235 -1.0541  0.0666
 8382TIP3    H225111   1.258   4.276   4.281 -0.2545  1.8823 -1.5222
 8383TIP3   OH225112   5.328   6.303   3.879  0.0674 -0.0802  0.4220
 8383TIP3    H125113   5.273   6.376   3.908  0.8118  1.2872 -1.3750
 8383TIP3    H225114   5.265   6.238   3.846 -0.5958 -0.2146  1.8622
 8384TIP3   OH225115   6.271   3.855   2.220  0.3791  0.4137  0.0778
 8384TIP3    H125116   6.302   3.804   2.145 -0.0396 -0.0476  0.2147
 8384TIP3    H225117   6.216   3.923   2.181  0.6467  0.5424 -0.0785
 8385TIP3   OH225118   1.985   0.777   4.263  0.0055  0.1722  0.1469
 8385TIP3    H125119   2.021   0.747   4.180 -1.5305  1.1399 -0.9117
 8385TIP3    H225120   1.891   0.760   4.257 -0.3021  1.3335  1.2084
 8386TIP3   OH225121   6.030   1.582   4.232  0.0906  0.0198  0.1234
 8386TIP3    H125122   6.006   1.526   4.158 -0.0682  0.7943 -0.4292
 8386TIP3    H225123   5.950   1.632   4.251 -0.1736 -0.8731  1.4783
 8387TIP3   OH225124   4.699   0.129   3.233  0.1867  0.4596 -0.2067
 8387TIP3    H125125   4.756   0.152   3.160 -0.0688 -1.1962 -0.9816
 8387TIP3    H225126   4.684   0.035   3.223 -3.0939  0.8553 -0.3746
 8388TIP3   OH225127   0.684   4.435   4.617 -0.4073 -0.9279  0.1437
 8388TIP3    H125128   0.709   4.487   4.541 -0.0985  1.0599  1.5260
 8388TIP3    H225129   0.637   4.496   4.673 -0.3821 -2.2609  1.6815
 8389TIP3   OH225130   0.553   5.838   2.947  0.0564 -0.1432  0.2791
 8389TIP3    H125131   0.570   5.744   2.955 -1.0050 -0.4802 -1.0615
 8389TIP3    H225132   0.472   5.852   2.995 -0.7071 -0.2515 -0.9453
 8390TIP3   OH225133   5.081   2.551   0.016  0.2863 -0.2092 -1.1168
 8390TIP3    H125134   5.014   2.594  -0.038 -2.6606 -1.9983  0.8627
 8390TIP3    H225135   5.096   2.612   0.089 -0.3743 -0.4819 -0.7498
 8391TIP3   OH225136   1.450   2.224   5.079  0.5055 -0.1221  0.0177
 8391TIP3    H125137   1.355   2.227   5.072  0.4458  1.2170  0.9265
 8391TIP3    H225138   1.481   2.282   5.009  0.4085  2.9207  2.2582
 8392TIP3   OH225139   3.232   2.508   3.625 -0.9644  0.5169 -0.2760
 8392TIP3    H125140   3.248   2.509   3.719  0.2905 -0.0457 -0.4601
 8392TIP3    H225141   3.241   2.416   3.600 -3.7064  0.2562 -0.5861
 8393TIP3   OH225142   4.543   1.406   0.885  0.4267 -0.4067 -0.5679
 8393TIP3    H125143   4.558   1.414   0.979 -0.2184 -0.2862 -0.4744
 8393TIP3    H225144   4.448   1.401   0.876  0.5254 -2.6381 -1.0255
 8394TIP3   OH225145   1.807   3.134   5.860  0.2713  0.4959 -0.1679
 8394TIP3    H125146   1.831   3.071   5.792 -0.6118 -0.6502  0.5519
 8394TIP3    H225147   1.717   3.160   5.838 -0.6613 -1.1414  1.4131
 8395TIP3   OH225148   3.118   3.396   0.829  0.1729 -0.7200  0.3020
 8395TIP3    H125149   3.149   3.485   0.812 -1.0838 -0.5341 -1.1999
 8395TIP3    H225150   3.196   3.341   0.818  1.1356  0.2306  1.9963
 8396TIP3   OH225151   6.776   5.004   5.581 -0.2109  0.5555 -0.1712
 8396TIP3    H125152   6.838   5.031   5.648  0.4308  3.0547 -1.6545
 8396TIP3    H225153   6.830   4.973   5.509 -0.8723 -1.2046  0.0271
 8397TIP3   OH225154   4.817   0.445   5.310  0.0020  0.3056  0.6652
 8397TIP3    H125155   4.794   0.534   5.286  0.9075  0.8601  1.7584
 8397TIP3    H225156   4.739   0.412   5.356 -1.6638 -0.6932 -2.5367
 8398TIP3   OH225157   6.336   0.659   1.173  0.4146 -0.3548  0.6103
 8398TIP3    H125158   6.251   0.642   1.131 -0.9443  2.3034  2.0068
 8398TIP3    H225159   6.376   0.727   1.120  0.2639  0.5478  1.6253
 8399TIP3   OH225160   4.910   3.353   5.528 -0.6077  0.2609  0.0563
 8399TIP3    H125161   4.972   3.391   5.591 -3.3216  0.3698  2.9272
 8399TIP3    H225162   4.868   3.428   5.488 -0.9338  0.2143  0.3121
 8400TIP3   OH225163   3.202   0.764   4.887  0.5440 -0.6655  0.4144
 8400TIP3    H125164   3.109   0.764   4.864  1.2028  0.2729 -2.9177
 8400TIP3    H225165   3.214   0.687   4.942 -1.8512 -2.0724 -0.8590
 8401TIP3   OH225166   4.546   0.463   0.036 -0.2361 -0.1935  0.0292
 8401TIP3    H125167   4.515   0.442   0.124  0.7554  0.3292  0.5094
 8401TIP3    H225168   4.478   0.520   0.000  1.0211  2.5963  1.8037
 8402TIP3   OH225169   2.678   0.929   2.747  0.2813 -0.2496  0.1159
 8402TIP3    H125170   2.615   0.908   2.815  3.1348  1.7294  3.7504
 8402TIP3    H225171   2.661   1.021   2.725  0.8172 -0.2014 -0.1245
 8403TIP3   OH225172   2.279   2.413   2.137 -0.1326  0.2241 -0.1063
 8403TIP3    H125173   2.289   2.345   2.071 -1.3501 -1.1590  1.0489
 8403TIP3    H225174   2.184   2.426   2.144  0.0117  0.9561  0.7450
 8404TIP3   OH225175   4.985   0.998   5.248 -0.5532 -0.1664  0.4753
 8404TIP3    H125176   4.998   1.091   5.269 -3.1565  0.1813  0.9338
 8404TIP3    H225177   4.911   0.972   5.302 -0.1204 -2.4372  0.0526
 8405TIP3   OH225178   6.167   2.585   2.694 -0.2080  0.6565 -0.0661
 8405TIP3    H125179   6.261   2.566   2.701 -0.1011  0.3953 -1.7917
 8405TIP3    H225180   6.128   2.500   2.673 -0.8184  0.7964  0.4983
 8406TIP3   OH225181   1.647   4.566   2.420  1.1580  0.0874  0.2606
 8406TIP3    H125182   1.563   4.526   2.444  1.1953  0.4208  0.9817
 8406TIP3    H225183   1.711   4.496   2.436  1.0090 -0.2053 -0.4044
 8407TIP3   OH225184   0.132   3.062   0.523 -0.0147 -0.7196  0.6429
 8407TIP3    H125185   0.046   3.103   0.516  0.1732 -0.0102  2.0856
 8407TIP3    H225186   0.116   2.985   0.578  0.0939 -1.2077  0.0082
 8408TIP3   OH225187   3.304   4.491   0.663 -0.3960 -0.5328 -0.3655
 8408TIP3    H125188   3.280   4.584   0.656 -3.1778 -1.1074  0.0687
 8408TIP3    H225189   3.320   4.463   0.573 -0.2938  0.2024 -0.5806
 8409TIP3   OH225190   3.828   0.851   1.812  0.1767 -0.1099 -0.4467
 8409TIP3    H125191   3.814   0.762   1.844 -0.0013  0.3337  0.7671
 8409TIP3    H225192   3.812   0.907   1.888  0.2530  0.9669 -1.1937
 8410TIP3   OH225193   4.036   3.254   5.340  0.4610  0.1753  0.3471
 8410TIP3    H125194   4.056   3.218   5.254  0.1564 -1.1102  0.7889
 8410TIP3    H225195   4.120   3.252   5.387  0.0838 -2.0396  1.0710
 8411TIP3   OH225196   7.076   2.075   0.825  0.0916 -0.0373  0.0370
 8411TIP3    H125197   7.031   1.991   0.828  0.3770 -0.2719 -1.4225
 8411TIP3    H225198   7.155   2.062   0.878  0.4161 -0.8890 -0.6211
 8412TIP3   OH225199   4.281   0.719   1.873  0.2018  0.1887  0.5230
 8412TIP3    H125200   4.202   0.688   1.918 -0.5705  1.7919  0.3569
 8412TIP3    H225201   4.335   0.756   1.942 -1.4154  3.5522  0.1996
 8413TIP3   OH225202   4.922   6.724   3.590  0.1258  0.1219 -0.0382
 8413TIP3    H125203   4.891   6.745   3.678  0.1009 -2.5966  0.6660
 8413TIP3    H225204   4.843   6.708   3.539  0.1776  0.5778 -0.2681
 8414TIP3   OH225205   1.814   0.427   1.165  0.3727  0.0101  0.0335
 8414TIP3    H125206   1.892   0.478   1.144  1.2177 -0.6449  1.4521
 8414TIP3    H225207   1.821   0.409   1.259 -0.1986 -2.2192 -0.2885
 8415TIP3   OH225208   5.023   0.969   2.166 -0.5025  0.2580  0.0706
 8415TIP3    H125209   5.049   1.057   2.138 -2.3782  1.6793  2.4231
 8415TIP3    H225210   5.048   0.965   2.258 -0.9753 -1.4962  0.1517
 8416TIP3   OH225211   3.762   0.959   4.922  0.2505 -0.9037 -0.2605
 8416TIP3    H125212   3.743   0.865   4.924  0.2329 -0.8994 -0.2324
 8416TIP3    H225213   3.703   0.994   4.856 -2.5006 -0.2779  2.3401
 8417TIP3   OH225214   1.400   0.757   3.153  0.6406 -0.1740  0.6671
 8417TIP3    H125215   1.419   0.742   3.061  1.1641  0.0372  0.7377
 8417TIP3    H225216   1.483   0.786   3.191  0.1109  1.1550  0.8929
 8418TIP3   OH225217   4.125   1.703   3.976 -0.0239  0.3572 -0.1702
 8418TIP3    H125218   4.033   1.684   3.960  0.3455 -0.2408 -1.7662
 8418TIP3    H225219   4.172   1.629   3.939  1.1365  1.0134 -0.0740
 8419TIP3   OH225220   5.696   0.657   0.127 -0.0756 -0.3182  0.0237
 8419TIP3    H125221   5.640   0.607   0.186  2.1202 -1.4361  1.3253
 8419TIP3    H225222   5.755   0.591   0.089  0.0247  0.7147 -1.7076
 8420TIP3   OH225223   6.810   3.033   0.747 -0.7028 -0.5143 -0.3719
 8420TIP3    H125224   6.841   2.943   0.757  1.8046  0.1427 -1.4014
 8420TIP3    H225225   6.764   3.033   0.662 -0.8026 -0.8397 -0.3192
 8421TIP3   OH225226   3.694   2.006   3.928 -0.0125  0.1243 -0.3291
 8421TIP3    H125227   3.778   2.017   3.971  0.7567  0.0456 -1.7728
 8421TIP3    H225228   3.673   1.913   3.940  0.9722 -0.2704 -1.4436
 8422TIP3   OH225229   4.555   1.551   2.008  0.2037 -0.0763 -0.4517
 8422TIP3    H125230   4.511   1.491   1.948 -1.6805  0.7441  0.0017
 8422TIP3    H225231   4.483   1.600   2.049  1.5745  1.2851  0.4461
 8423TIP3   OH225232   5.187   4.302   3.902 -0.2703  0.3759  0.3300
 8423TIP3    H125233   5.224   4.328   3.986  0.2952  0.6918 -0.0104
 8423TIP3    H225234   5.216   4.212   3.890 -1.4540 -0.1349  1.0747
 8424TIP3   OH225235   0.381   2.188   5.339 -0.4884  0.2005 -0.2593
 8424TIP3    H125236   0.305   2.133   5.360 -0.9149  0.8677 -0.0298
 8424TIP3    H225237   0.439   2.178   5.415 -0.5740  0.0885 -0.2075
 8425TIP3   OH225238   1.015   1.819   4.166 -0.2380  0.0314  0.0757
 8425TIP3    H125239   0.971   1.814   4.081  1.1277 -0.6288 -0.6143
 8425TIP3    H225240   1.075   1.745   4.167  0.7833  0.8345  1.0483
 8426TIP3   OH225241   6.219   6.378   5.259 -0.1752 -0.9952 -0.7031
 8426TIP3    H125242   6.153   6.402   5.324  1.2335  1.8041 -0.1745
 8426TIP3    H225243   6.296   6.356   5.312  1.0101  1.3838 -1.3311
 8427TIP3   OH225244   5.793   1.846   5.532  0.3427  0.0557  0.2569
 8427TIP3    H125245   5.701   1.862   5.552 -0.3387 -1.1761 -1.5681
 8427TIP3    H225246   5.838   1.928   5.555 -1.6649  1.7217 -1.3529
 8428TIP3   OH225247   6.646   3.784   0.743  0.3531 -0.0730 -0.4288
 8428TIP3    H125248   6.564   3.812   0.703  0.6292 -2.5356 -3.0538
 8428TIP3    H225249   6.625   3.701   0.785  0.9914  0.5757  1.2792
 8429TIP3   OH225250   2.947   1.403   0.961  0.8292  0.3353 -0.0434
 8429TIP3    H125251   2.969   1.310   0.960  1.1052  0.3598 -3.1173
 8429TIP3    H225252   2.885   1.411   1.034  1.8331 -1.9568  1.1759
 8430TIP3   OH225253   0.659   3.549   5.116  0.2853 -0.5291 -0.0852
 8430TIP3    H125254   0.588   3.496   5.081  1.2901 -1.7518 -0.3605
 8430TIP3    H225255   0.739   3.506   5.083  1.1611  2.2319 -1.9694
 8431TIP3   OH225256   2.824   3.048   1.903 -0.4246  0.1165  0.5937
 8431TIP3    H125257   2.849   3.012   1.818 -0.9291 -1.5226  1.1110
 8431TIP3    H225258   2.896   3.105   1.927  1.5005 -2.2255  0.7283
 8432TIP3   OH225259   3.505   2.407   5.606 -0.3330 -0.2649  0.2487
 8432TIP3    H125260   3.439   2.345   5.575 -0.6094  0.8451 -1.5448
 8432TIP3    H225261   3.489   2.414   5.700 -2.1309 -0.7994  0.0296
 8433TIP3   OH225262   3.573   1.657   3.320  0.1902  0.1721  0.1191
 8433TIP3    H125263   3.665   1.677   3.335  0.1937  0.4222 -0.2368
 8433TIP3    H225264   3.530   1.679   3.403  0.8309 -2.4603  1.2503
 8434TIP3   OH225265   4.431   0.274   4.008 -0.1463  0.2665  0.0494
 8434TIP3    H125266   4.464   0.185   4.017  0.9992  0.7903  1.2467
 8434TIP3    H225267   4.362   0.267   3.941  0.9517 -1.2343 -0.9993
 8435TIP3   OH225268   3.263   4.760   5.660  0.1950 -0.3053  0.3369
 8435TIP3    H125269   3.315   4.825   5.707 -1.3224  0.1233  1.4612
 8435TIP3    H225270   3.183   4.805   5.634  1.0828 -0.4012 -3.0845
 8436TIP3   OH225271   3.502   4.365   5.722  0.6794  0.9141  0.1518
 8436TIP3    H125272   3.507   4.305   5.797  0.0591  1.1500  0.3840
 8436TIP3    H225273   3.593   4.389   5.707  1.0015 -0.4395 -0.2457
 8437TIP3   OH225274   1.305   4.099   1.775 -0.3156 -0.5776 -0.4974
 8437TIP3    H125275   1.325   4.020   1.725  0.0252 -0.9849  0.2702
 8437TIP3    H225276   1.390   4.130   1.807 -0.1950  1.1359 -2.2686
 8438TIP3   OH225277   1.209   6.087   2.991  0.1252 -0.1737 -0.1910
 8438TIP3    H125278   1.174   6.175   2.978 -1.5551 -0.8827 -0.8745
 8438TIP3    H225279   1.144   6.030   2.949  0.6365 -1.8110  1.1384
 8439TIP3   OH225280   0.077   5.801   1.092 -0.0013 -0.2376  0.5051
 8439TIP3    H125281   0.131   5.859   1.039 -0.4392 -0.7119 -0.5002
 8439TIP3    H225282   0.077   5.718   1.043 -1.1181 -0.4252  0.8020
 8440TIP3   OH225283   3.199   1.544   0.915 -0.4712 -0.3741 -0.8439
 8440TIP3    H125284   3.260   1.492   0.968  0.3988  0.8780 -0.5691
 8440TIP3    H225285   3.116   1.538   0.962 -0.5976 -2.0483 -1.1855
 8441TIP3   OH225286   4.941   3.112   1.444 -0.0295 -0.5294 -0.2618
 8441TIP3    H125287   5.017   3.165   1.467 -0.8485 -0.6648  3.2094
 8441TIP3    H225288   4.970   3.063   1.366  2.7909  0.6844 -0.1180
 8442TIP3   OH225289   1.018   6.491   3.960  0.5105 -0.1017 -0.1615
 8442TIP3    H125290   1.091   6.480   4.020  0.9145  0.2864 -0.5711
 8442TIP3    H225291   0.961   6.417   3.977  2.0506 -1.6314 -1.3053
 8443TIP3   OH225292   6.801   0.159   5.381  0.1710  0.4959  0.0024
 8443TIP3    H125293   6.753   0.208   5.448 -1.6400 -0.0902 -0.8039
 8443TIP3    H225294   6.750   0.078   5.370  2.3347 -0.9858  0.3418
 8444TIP3   OH225295   6.148   4.536   5.493 -0.2759 -0.0658 -0.1950
 8444TIP3    H125296   6.242   4.536   5.474 -0.2130  1.2711  0.0237
 8444TIP3    H225297   6.142   4.511   5.585  0.0773  2.1573  0.4990
 8445TIP3   OH225298   4.557   1.022   4.990 -0.5090 -0.3988 -0.2357
 8445TIP3    H125299   4.598   0.951   4.940  1.1036  0.1081  0.3209
 8445TIP3    H225300   4.614   1.097   4.975 -1.2957  0.3621  0.5098
 8446TIP3   OH225301   4.460   3.993   0.207 -0.3180 -0.8101  0.3022
 8446TIP3    H125302   4.502   3.989   0.293 -0.5335 -0.5869  0.4190
 8446TIP3    H225303   4.523   4.040   0.152 -0.3442 -0.6193  0.4358
 8447TIP3   OH225304   6.724   4.841   3.437  0.1267 -0.4298  0.0459
 8447TIP3    H125305   6.715   4.928   3.476 -0.8048 -0.9005  0.9610
 8447TIP3    H225306   6.816   4.818   3.449  0.0272 -0.2462  1.3627
 8448TIP3   OH225307   4.972   6.305   0.262 -0.0089 -0.0063 -0.3584
 8448TIP3    H125308   4.899   6.336   0.208 -1.2930 -1.2348  0.6011
 8448TIP3    H225309   5.020   6.384   0.286 -0.6266  0.7586 -1.5555
 8449TIP3   OH225310   3.350   2.335   0.810  0.4548  0.3780  0.9126
 8449TIP3    H125311   3.304   2.338   0.726  0.1459 -1.5521  0.9553
 8449TIP3    H225312   3.365   2.427   0.833  0.3026  0.9539 -1.1018
 8450TIP3   OH225313   5.309   1.769   2.043  0.2902 -0.5973  0.6896
 8450TIP3    H125314   5.235   1.713   2.019  1.2908 -1.2859 -0.9382
 8450TIP3    H225315   5.272   1.831   2.105 -1.4166 -1.5541  0.7047
 8451TIP3   OH225316   7.007   6.000   3.426  0.6637 -0.1745  0.1587
 8451TIP3    H125317   7.031   5.918   3.469 -0.7944 -0.1348  1.1187
 8451TIP3    H225318   7.051   5.997   3.342 -0.3776 -2.5688 -0.3840
 8452TIP3   OH225319   5.025   4.781   2.166  0.2246 -0.2842 -0.7233
 8452TIP3    H125320   4.991   4.827   2.089  0.7819 -0.0242 -0.8167
 8452TIP3    H225321   5.005   4.840   2.239 -2.5542 -1.6070 -0.2815
 8453TIP3   OH225322   1.862   1.297   2.081  0.4552 -0.0576 -0.6315
 8453TIP3    H125323   1.893   1.387   2.091 -1.4094  0.4233  1.4127
 8453TIP3    H225324   1.851   1.265   2.170  0.7641 -2.2431 -1.3125
 8454TIP3   OH225325   5.832   4.220   0.585 -0.3860  0.3306 -0.2109
 8454TIP3    H125326   5.923   4.220   0.616  0.2680  2.6962 -1.8492
 8454TIP3    H225327   5.835   4.174   0.501 -0.7454  0.1895 -0.1478
 8455TIP3   OH225328   5.381   6.482   4.749 -0.0674 -0.0144  0.6925
 8455TIP3    H125329   5.475   6.462   4.743 -0.3971 -1.1494 -2.2142
 8455TIP3    H225330   5.345   6.409   4.800  0.4741 -0.1154  0.9458
 8456TIP3   OH225331   1.551   2.894   2.984  0.3324  0.3197 -0.3535
 8456TIP3    H125332   1.642   2.890   3.012 -0.2484  1.2705  1.8701
 8456TIP3    H225333   1.503   2.846   3.052 -1.0422  1.7377 -0.2740
 8457TIP3   OH225334   2.181   4.166   1.364 -0.4060 -0.2875  0.7779
 8457TIP3    H125335   2.122   4.222   1.416  1.3658  1.0667  1.4503
 8457TIP3    H225336   2.216   4.103   1.427 -1.2656 -1.2426  0.3303
 8458TIP3   OH225337   4.975   3.729   3.425 -0.0270 -0.4554 -0.3006
 8458TIP3    H125338   5.010   3.642   3.407  0.3803 -0.1342 -1.1159
 8458TIP3    H225339   4.885   3.713   3.455  0.3329 -1.1988  0.4317
 8459TIP3   OH225340   5.321   4.056   5.785 -0.0429  0.1821 -0.6148
 8459TIP3    H125341   5.285   3.993   5.847  2.3490 -0.5729  0.1007
 8459TIP3    H225342   5.277   4.138   5.806 -0.3229 -0.3737  1.1354
 8460TIP3   OH225343   5.928   6.555   0.482  0.4689  0.3775  0.2563
 8460TIP3    H125344   5.930   6.485   0.416 -0.7834  1.5187 -1.0463
 8460TIP3    H225345   6.007   6.541   0.533  0.2820 -1.9835  0.0348
 8461TIP3   OH225346   3.994   4.243   2.447 -0.5594 -0.5287  0.2997
 8461TIP3    H125347   4.011   4.232   2.353 -1.9942 -0.7473  0.0481
 8461TIP3    H225348   3.924   4.181   2.466 -0.4344 -0.3275  1.4747
 8462TIP3   OH225349   2.045   2.915   5.382 -0.3682  0.0911  0.4188
 8462TIP3    H125350   2.005   2.834   5.352 -0.3862  0.0567  0.5364
 8462TIP3    H225351   1.977   2.982   5.367  1.1165  0.9678 -4.0400
 8463TIP3   OH225352   5.584   4.198   1.295 -0.0193  0.4589  0.0601
 8463TIP3    H125353   5.627   4.227   1.375  2.3420 -1.5254 -0.3540
 8463TIP3    H225354   5.656   4.184   1.233 -1.7790  2.2187 -2.5807
 8464TIP3   OH225355   4.056   5.512   3.364  0.7144 -0.8202 -0.2386
 8464TIP3    H125356   4.022   5.576   3.427  0.5965  0.8496 -1.9032
 8464TIP3    H225357   4.015   5.429   3.390 -0.3443  0.0602  1.0805
 8465TIP3   OH225358   2.671   4.096   5.864  0.3031  0.3630 -0.0490
 8465TIP3    H125359   2.585   4.063   5.837  0.1143  0.3943  0.5018
 8465TIP3    H225360   2.725   4.087   5.786 -0.4801  1.3516 -0.7445
 8466TIP3   OH225361   6.025   4.765   5.554 -0.0214  0.2143  0.0329
 8466TIP3    H125362   6.094   4.831   5.544  1.2075 -0.7813  1.4711
 8466TIP3    H225363   6.064   4.684   5.520 -1.3719  0.0972 -1.3647
 8467TIP3   OH225364   5.295   0.846   1.856  0.5218 -0.2192  0.0086
 8467TIP3    H125365   5.362   0.894   1.903 -0.6866  1.1820  0.3955
 8467TIP3    H225366   5.303   0.876   1.765 -0.1763  0.7187  0.2338
 8468TIP3   OH225367   3.926   3.330   5.879 -0.4191  0.4415 -0.0076
 8468TIP3    H125368   3.976   3.395   5.929 -0.6532  0.4794  0.1783
 8468TIP3    H225369   3.930   3.361   5.788  0.0256  0.3625 -0.0167
 8469TIP3   OH225370   1.174   6.780   4.178 -0.3601  0.2947 -0.0125
 8469TIP3    H125371   1.098   6.778   4.236 -0.7708 -1.1226 -0.5567
 8469TIP3    H225372   1.137   6.790   4.090  0.1348  0.4747 -0.2033
 8470TIP3   OH225373   5.725   4.947   5.713  0.0663  0.1777  0.4730
 8470TIP3    H125374   5.721   4.870   5.770  1.7469 -0.1941  0.1427
 8470TIP3    H225375   5.667   4.926   5.640 -1.2031  0.1764  1.4310
 8471TIP3   OH225376   0.928   4.286   1.310 -0.1082  0.3165 -0.1159
 8471TIP3    H125377   0.931   4.290   1.406 -1.5743 -2.0833  0.1268
 8471TIP3    H225378   0.860   4.349   1.286  2.2873  3.1536  0.0826
 8472TIP3   OH225379   1.696   3.998   2.944  0.2028 -0.3621 -0.5195
 8472TIP3    H125380   1.761   4.033   3.005 -0.8203  1.0219 -0.1868
 8472TIP3    H225381   1.642   3.939   2.997 -0.3164  0.3811 -0.2054
 8473TIP3   OH225382   4.331   5.315   5.865 -0.1576  0.2742 -0.0068
 8473TIP3    H125383   4.381   5.266   5.931  0.0655  0.3060 -0.1495
 8473TIP3    H225384   4.317   5.251   5.795  1.1137  0.7107 -0.6968
 8474TIP3   OH225385   3.550   1.632   4.168  0.0642 -0.0864 -0.0912
 8474TIP3    H125386   3.486   1.624   4.097  0.8622 -2.9402 -0.6082
 8474TIP3    H225387   3.562   1.727   4.179  0.4192  0.5124 -4.2430
 8475TIP3   OH225388   5.328   0.871   0.051 -0.0266  0.4217 -0.4285
 8475TIP3    H125389   5.388   0.938   0.018  0.9478 -0.6923 -0.9765
 8475TIP3    H225390   5.311   0.815  -0.024 -0.7393 -0.0239  0.0536
 8476TIP3   OH225391   6.156   2.487   2.164 -0.2424 -0.1426  0.2853
 8476TIP3    H125392   6.133   2.571   2.124  1.7514  0.8156  1.0017
 8476TIP3    H225393   6.244   2.501   2.200  0.0403 -2.4707  0.6579
 8477TIP3   OH225394   3.164   0.404   2.907  0.5176 -0.2371  0.5394
 8477TIP3    H125395   3.209   0.488   2.912  0.9555 -0.1124 -2.9264
 8477TIP3    H225396   3.225   0.347   2.861 -2.8002  0.2694 -5.5675
 8478TIP3   OH225397   0.759   6.516   3.279 -0.7860 -0.0520 -0.0801
 8478TIP3    H125398   0.820   6.445   3.263 -0.3061  0.4088 -0.3357
 8478TIP3    H225399   0.684   6.475   3.323 -0.5587 -0.7217 -0.3125
 8479TIP3   OH225400   1.060   5.294   4.902 -0.1396 -0.1336 -0.4341
 8479TIP3    H125401   1.085   5.343   4.824  0.3393 -0.6313 -0.5983
 8479TIP3    H225402   1.118   5.326   4.971 -1.0511  0.8305 -0.0955
 8480TIP3   OH225403   1.298   4.982   0.021  0.1794 -0.2293 -0.1347
 8480TIP3    H125404   1.363   4.999  -0.047 -1.3522  0.0252 -1.5877
 8480TIP3    H225405   1.297   4.886   0.029 -0.4337 -0.3440 -1.3310
 8481TIP3   OH225406   5.238   5.262   3.877 -0.5676  0.4261 -0.4380
 8481TIP3    H125407   5.297   5.186   3.866 -0.5779  0.5450 -1.4145
 8481TIP3    H225408   5.296   5.338   3.869 -0.5961  0.5294  0.3007
 8482TIP3   OH225409   6.830   3.953   4.248 -0.0248 -0.3644 -0.1891
 8482TIP3    H125410   6.843   3.930   4.157  0.5813  0.4356 -0.3165
 8482TIP3    H225411   6.917   3.977   4.280 -0.7422  3.3356 -0.5510
 8483TIP3   OH225412   5.176   1.342   2.726 -0.0183  0.5711 -0.5874
 8483TIP3    H125413   5.270   1.327   2.714  0.8745  3.4297  1.5591
 8483TIP3    H225414   5.166   1.437   2.713 -2.5738  0.3758 -0.4541
 8484TIP3   OH225415   6.729   4.241   2.184 -0.0433 -0.1195 -0.3268
 8484TIP3    H125416   6.804   4.200   2.226  0.8701 -0.1414 -1.9053
 8484TIP3    H225417   6.658   4.177   2.196  0.7256 -1.0633 -0.6309
 8485TIP3   OH225418   5.006   2.309   4.854 -0.5812  0.0483  0.0073
 8485TIP3    H125419   4.989   2.381   4.914  0.7014 -1.5075  2.4021
 8485TIP3    H225420   4.928   2.304   4.799 -1.7318  1.6962  1.3969
 8486TIP3   OH225421   3.740   3.198   3.892 -0.7624  0.0928 -0.1251
 8486TIP3    H125422   3.753   3.103   3.901  0.8475  0.2537 -0.4815
 8486TIP3    H225423   3.828   3.234   3.891 -1.3604  1.6174  0.0644
 8487TIP3   OH225424   6.445   6.768   1.125  0.2871  0.4855  0.1165
 8487TIP3    H125425   6.513   6.765   1.058  1.9945  0.0204  1.7838
 8487TIP3    H225426   6.432   6.861   1.143  0.0165  0.5997 -0.6154
 8488TIP3   OH225427   1.792   4.995   3.317 -0.4419 -0.3393 -0.4958
 8488TIP3    H125428   1.772   4.964   3.406  1.0047 -1.1302 -0.4140
 8488TIP3    H225429   1.842   4.924   3.278 -0.9869  0.0379 -1.9431
 8489TIP3   OH225430   2.353   6.407   0.045  0.3246  0.3146 -0.2880
 8489TIP3    H125431   2.306   6.328   0.073  0.0149  0.5305 -0.1908
 8489TIP3    H225432   2.368   6.394  -0.048 -0.2793  0.4146 -0.4031
 8490TIP3   OH225433   1.731   4.368   0.923 -0.0109  0.1706 -0.0132
 8490TIP3    H125434   1.674   4.443   0.906 -0.1016 -0.2902 -2.0003
 8490TIP3    H225435   1.802   4.403   0.977 -0.3883  1.5232 -0.3580
 8491TIP3   OH225436   2.640   0.845   4.121 -0.2537  0.1369  1.1186
 8491TIP3    H125437   2.679   0.812   4.202  0.4329 -0.8507  0.4140
 8491TIP3    H225438   2.546   0.832   4.133 -0.1747  0.2005  1.8429
 8492TIP3   OH225439   2.404   2.949   0.867 -0.2245  0.2788  0.6605
 8492TIP3    H125440   2.399   2.855   0.852  0.8610  0.3880 -0.5245
 8492TIP3    H225441   2.322   2.984   0.832  0.0541 -0.0573 -0.3547
 8493TIP3   OH225442   1.871   6.208   5.473  0.1769  0.3562  0.0892
 8493TIP3    H125443   1.845   6.163   5.393  0.0394 -1.3011  1.0273
 8493TIP3    H225444   1.825   6.162   5.543  2.3760 -0.0333  1.3938
 8494TIP3   OH225445   1.696   4.107   3.496 -0.3411 -0.0273 -0.1389
 8494TIP3    H125446   1.718   4.107   3.402  2.0067 -0.1549  0.3441
 8494TIP3    H225447   1.778   4.131   3.539 -1.0101 -1.3092  1.9635
 8495TIP3   OH225448   2.366   4.794   5.661  0.3681 -0.5057 -0.5102
 8495TIP3    H125449   2.378   4.861   5.729 -0.9693  0.1894 -0.9069
 8495TIP3    H225450   2.359   4.712   5.709  1.2853 -0.2789  0.0441
 8496TIP3   OH225451   3.517   0.255   2.536 -0.0022 -0.2329  0.2081
 8496TIP3    H125452   3.451   0.299   2.590  1.2884 -0.0838  1.7393
 8496TIP3    H225453   3.577   0.324   2.509 -1.1498 -0.1301 -2.3435
 8497TIP3   OH225454   3.583   4.883   1.269  0.2854 -0.5727 -0.3125
 8497TIP3    H125455   3.612   4.813   1.327  0.1737 -0.6260 -0.3209
 8497TIP3    H225456   3.663   4.912   1.223  0.5881  0.2335  0.6830
 8498TIP3   OH225457   1.762   2.519   3.564  0.1494 -0.7821 -0.1971
 8498TIP3    H125458   1.840   2.494   3.613  0.2524 -1.5837 -0.7548
 8498TIP3    H225459   1.769   2.471   3.482 -0.0483  0.4902 -0.9937
 8499TIP3   OH225460   4.251   2.784   0.570 -0.0100  0.2247  0.3103
 8499TIP3    H125461   4.245   2.869   0.613  0.4883  0.8552 -0.8324
 8499TIP3    H225462   4.334   2.787   0.522 -0.7724 -0.2537 -1.0966
 8500TIP3   OH225463   1.471   2.900   1.046 -0.3183 -0.0387 -0.6243
 8500TIP3    H125464   1.463   2.810   1.079  1.4893 -0.4393 -1.1080
 8500TIP3    H225465   1.558   2.902   1.006  0.4895  2.4652  1.0202
 8501TIP3   OH225466   1.664   3.167   2.840 -0.5015  0.2157 -0.1989
 8501TIP3    H125467   1.660   3.158   2.745  0.8865 -0.2391 -0.2474
 8501TIP3    H225468   1.632   3.083   2.873  0.2079 -0.1075 -0.3118
 8502TIP3   OH225469   6.548   3.883   4.829 -0.0449 -0.3095  0.1223
 8502TIP3    H125470   6.559   3.823   4.756  0.4175 -1.6095  1.2299
 8502TIP3    H225471   6.511   3.829   4.900 -1.4393  1.1206  0.5617
 8503TIP3   OH225472   3.325   0.238   2.782 -0.2745  0.2781 -0.1659
 8503TIP3    H125473   3.418   0.262   2.781 -0.0131 -0.5941 -1.9678
 8503TIP3    H225474   3.325   0.145   2.804 -0.7100  0.2507 -0.2823
 8504TIP3   OH225475   2.742   3.696   4.253  0.5977 -0.0549  0.4323
 8504TIP3    H125476   2.787   3.768   4.208 -1.5270  0.7217 -0.6042
 8504TIP3    H225477   2.714   3.734   4.336 -1.5664  0.8166 -0.6011
 8505TIP3   OH225478   1.255   4.933   3.931  0.0021 -0.5082 -0.0978
 8505TIP3    H125479   1.186   4.868   3.917 -1.6269  1.3707 -1.2785
 8505TIP3    H225480   1.280   4.961   3.843  1.7429 -0.5506  0.3351
 8506TIP3   OH225481   6.053   3.797   2.821  0.4452 -0.3643  0.1355
 8506TIP3    H125482   6.115   3.867   2.803  0.5242 -0.3174  0.5606
 8506TIP3    H225483   5.973   3.822   2.776  0.7421 -0.4413 -0.4448
 8507TIP3   OH225484   6.259   4.590   2.115 -0.1537 -0.1454 -0.5386
 8507TIP3    H125485   6.205   4.614   2.040  0.2713 -0.5370 -0.9696
 8507TIP3    H225486   6.239   4.498   2.131 -0.0298 -0.1411 -0.3465
 8508TIP3   OH225487   6.059   4.812   4.156  0.4228  0.0419  0.4812
 8508TIP3    H125488   5.980   4.855   4.123  0.3727  1.5619  2.4276
 8508TIP3    H225489   6.130   4.848   4.103  0.1960  1.4224  1.0690
 8509TIP3   OH225490   5.114   0.534   4.477  0.7419 -0.3214 -0.4206
 8509TIP3    H125491   5.207   0.514   4.489  1.1320  0.4912 -1.8809
 8509TIP3    H225492   5.099   0.609   4.535  1.0492 -0.3016 -0.3608
 8510TIP3   OH225493   2.090   3.174   2.842  0.0323  0.5101  0.2160
 8510TIP3    H125494   2.037   3.200   2.767  0.6971 -0.2156 -0.5281
 8510TIP3    H225495   2.127   3.256   2.875 -1.6482  1.0466  0.8534
 8511TIP3   OH225496   0.554   4.033   4.862  0.0392  0.6443 -0.4078
 8511TIP3    H125497   0.462   4.053   4.875  0.2526  1.1815  0.3562
 8511TIP3    H225498   0.563   3.941   4.886 -0.0902  0.8960  0.6330
 8512TIP3   OH225499   3.957   3.815   3.921  0.0134 -0.4679  0.5793
 8512TIP3    H125500   3.871   3.835   3.883 -0.1489  1.4330  1.8129
 8512TIP3    H225501   3.967   3.720   3.910 -1.5146 -0.4926 -1.0341
 8513TIP3   OH225502   2.402   4.388   2.921  0.3764  0.3730 -0.5878
 8513TIP3    H125503   2.375   4.480   2.923  0.5474  0.4187 -0.4258
 8513TIP3    H225504   2.494   4.389   2.946  0.7938  0.3066 -2.0446
 8514TIP3   OH225505   6.437   3.545   3.542 -0.1182 -0.2505  0.6608
 8514TIP3    H125506   6.376   3.473   3.557 -0.6303  0.4307  2.0782
 8514TIP3    H225507   6.415   3.579   3.456  0.3029 -1.9322 -0.1383
 8515TIP3   OH225508   3.300   2.562   4.241 -0.4905 -0.1504  0.5464
 8515TIP3    H125509   3.216   2.523   4.214 -0.0807  0.3089 -1.6306
 8515TIP3    H225510   3.278   2.650   4.270 -0.9639 -0.6763  1.8476
 8516TIP3   OH225511   2.743   0.256   5.414 -0.0114 -0.2241  0.0195
 8516TIP3    H125512   2.757   0.200   5.338  0.9901  0.1544 -0.0999
 8516TIP3    H225513   2.778   0.206   5.488 -0.8686 -0.5393  0.2214
 8517TIP3   OH225514   5.740   1.253   3.514 -0.2452 -0.3282 -0.0337
 8517TIP3    H125515   5.757   1.214   3.600  1.5552  2.3933  1.0083
 8517TIP3    H225516   5.662   1.307   3.528  1.6975  2.4613  0.9093
 8518TIP3   OH225517   0.545   3.848   5.508  0.0748 -0.6286  0.4637
 8518TIP3    H125518   0.556   3.893   5.424  2.5513 -1.6978  0.1199
 8518TIP3    H225519   0.560   3.755   5.487 -1.1818 -1.1541  1.7772
 8519TIP3   OH225520   1.028   4.197   0.854  0.5525 -0.1741  0.2367
 8519TIP3    H125521   0.986   4.178   0.938  2.0632  1.0747  1.3453
 8519TIP3    H225522   0.957   4.199   0.791 -0.6346 -1.1386  1.4905
 8520TIP3   OH225523   4.663   5.756   4.175  0.2931 -0.1970 -0.7225
 8520TIP3    H125524   4.612   5.787   4.100  0.1935 -1.1897 -1.0743
 8520TIP3    H225525   4.720   5.830   4.197 -1.3874  1.0113 -0.2070
 8521TIP3   OH225526   5.271   6.042   1.425 -0.2513 -0.4878 -0.1708
 8521TIP3    H125527   5.360   6.040   1.460 -0.7764  1.0210  1.3981
 8521TIP3    H225528   5.253   6.136   1.414 -1.7328 -0.7680 -0.2524
 8522TIP3   OH225529   3.641   1.950   1.971 -0.7279 -0.1399  0.5773
 8522TIP3    H125530   3.716   1.926   2.024 -0.8234 -2.1854 -0.1070
 8522TIP3    H225531   3.568   1.901   2.009 -0.9384 -1.0797 -0.9284
 8523TIP3   OH225532   4.066   2.818   2.136  0.0757 -0.4876  0.1153
 8523TIP3    H125533   4.156   2.849   2.123 -0.1413  0.1493  0.0932
 8523TIP3    H225534   4.051   2.829   2.230 -0.5227  0.9786 -0.1112
 8524TIP3   OH225535   4.547   6.246   0.014  0.3333 -0.2893 -0.0185
 8524TIP3    H125536   4.523   6.216  -0.074 -0.0711  1.0117 -0.3773
 8524TIP3    H225537   4.513   6.179   0.072  0.7279 -1.2401 -0.8577
 8525TIP3   OH225538   6.155   3.782   0.925  0.2765 -0.1752 -0.3664
 8525TIP3    H125539   6.161   3.721   0.852  0.1805 -1.9205  1.0126
 8525TIP3    H225540   6.065   3.772   0.958  0.0904  1.1038 -0.4129
 8526TIP3   OH225541   4.628   4.822   2.629 -0.2174  0.0945  0.3213
 8526TIP3    H125542   4.658   4.836   2.719  0.8120  1.1757 -0.1542
 8526TIP3    H225543   4.708   4.800   2.581 -0.6595  0.1170 -0.4307
 8527TIP3   OH225544   1.931   0.213   1.005  0.3333  0.4200  0.1752
 8527TIP3    H125545   1.898   0.124   1.001  2.3396 -0.5973  3.0313
 8527TIP3    H225546   1.853   0.267   1.018 -0.8566 -0.9510 -0.9734
 8528TIP3   OH225547   2.153   0.137   4.026  0.0563  0.1814 -0.4154
 8528TIP3    H125548   2.118   0.203   4.085  0.7474  0.0768  0.1144
 8528TIP3    H225549   2.243   0.122   4.056 -0.2855 -1.4657 -0.1186
 8529TIP3   OH225550   4.390   1.222   5.363  0.7887  0.2299  0.0761
 8529TIP3    H125551   4.456   1.196   5.427  2.0114  1.2170 -0.7296
 8529TIP3    H225552   4.381   1.146   5.306 -0.0630 -0.5345  1.1943
 8530TIP3   OH225553   5.663   5.717   4.041 -0.3660  0.0251 -0.0115
 8530TIP3    H125554   5.716   5.795   4.028 -0.6297  0.7964  2.9540
 8530TIP3    H225555   5.722   5.645   4.016  0.4489  1.0357 -1.1769
 8531TIP3   OH225556   6.910   4.947   3.731  0.2328 -0.3730 -0.4484
 8531TIP3    H125557   6.843   4.982   3.671 -0.8528  0.9999  1.4594
 8531TIP3    H225558   6.861   4.917   3.807  1.6712 -0.9344  0.2901
 8532TIP3   OH225559   5.226   0.293   1.809 -0.0133  0.2531 -0.2507
 8532TIP3    H125560   5.301   0.234   1.808  1.1240  1.6394 -1.8596
 8532TIP3    H225561   5.189   0.287   1.721 -0.1909  1.5217 -0.2798
 8533TIP3   OH225562   0.073   5.314   1.414 -0.2251 -0.9496  0.2737
 8533TIP3    H125563   0.168   5.301   1.419 -0.2234 -0.9314  0.2870
 8533TIP3    H225564   0.047   5.338   1.503 -0.0244  0.5505 -0.0598
 8534TIP3   OH225565   3.362   0.605   0.462  0.0267  0.6246 -0.1711
 8534TIP3    H125566   3.332   0.542   0.397  1.9362 -0.3216 -0.2116
 8534TIP3    H225567   3.311   0.684   0.445 -0.7692 -0.1732 -1.6541
 8535TIP3   OH225568   7.068   5.731   5.494  0.6392  0.1078 -0.1376
 8535TIP3    H125569   7.137   5.749   5.558 -0.4642 -0.1530  1.1641
 8535TIP3    H225570   7.040   5.818   5.464  2.1987  0.2019 -1.4646
 8536TIP3   OH225571   4.181   4.665   3.037 -0.5859 -0.0709 -0.7033
 8536TIP3    H125572   4.211   4.677   2.948  1.5581 -0.8235 -0.1453
 8536TIP3    H225573   4.198   4.748   3.081 -0.4776 -0.1022 -0.6867
 8537TIP3   OH225574   6.899   3.922   5.144  0.5392 -0.0340 -0.2683
 8537TIP3    H125575   6.872   3.914   5.052  0.7661  0.0589 -0.3437
 8537TIP3    H225576   6.830   3.878   5.193 -0.0347  0.6675 -0.4205
 8538TIP3   OH225577   4.592   2.499   3.700  0.3429  0.5590 -0.2186
 8538TIP3    H125578   4.531   2.426   3.689  1.3126 -0.2611 -0.4110
 8538TIP3    H225579   4.679   2.459   3.689  0.9579  1.5324  0.8388
 8539TIP3   OH225580   1.159   6.163   4.630 -0.1168 -0.5594 -0.5715
 8539TIP3    H125581   1.183   6.074   4.604  1.3663 -0.7790  1.3024
 8539TIP3    H225582   1.155   6.212   4.548  0.5863 -2.0106 -1.5137
 8540TIP3   OH225583   2.440   0.104   3.429  0.5464 -0.1112 -0.4326
 8540TIP3    H125584   2.439   0.036   3.362  1.3409 -0.3769 -0.1849
 8540TIP3    H225585   2.527   0.098   3.468 -0.1303 -0.4332  1.1030
 8541TIP3   OH225586   6.755   6.166   4.446  0.2014 -0.0856  0.2093
 8541TIP3    H125587   6.711   6.135   4.367  0.5497 -0.4611  0.1615
 8541TIP3    H225588   6.761   6.261   4.434  1.7624 -0.2953 -1.0014
 8542TIP3   OH225589   2.431   6.767   1.322 -0.3859  0.4142  0.8250
 8542TIP3    H125590   2.497   6.745   1.388  1.0591  1.2558 -0.2858
 8542TIP3    H225591   2.401   6.855   1.346  0.1310  0.7154  0.3671
 8543TIP3   OH225592   3.996   2.535   3.537  0.0722 -0.2478  0.0758
 8543TIP3    H125593   3.909   2.494   3.546  0.6655 -1.9014 -1.2517
 8543TIP3    H225594   4.015   2.531   3.443  0.6918  2.0945  0.0340
 8544TIP3   OH225595   4.556   4.195   1.437  0.1210 -0.4944  0.1680
 8544TIP3    H125596   4.644   4.231   1.422  0.5128 -1.9419 -1.3954
 8544TIP3    H225597   4.570   4.122   1.497  0.0703 -0.9242 -0.3259
 8545TIP3   OH225598   2.163   5.203   1.419 -0.0053  0.3101  0.4141
 8545TIP3    H125599   2.215   5.271   1.463  1.0679 -1.0451  1.3123
 8545TIP3    H225600   2.212   5.122   1.433 -0.0747 -0.3577 -2.5605
 8546TIP3   OH225601   4.487   2.532   4.328 -0.0954 -0.2651 -1.0006
 8546TIP3    H125602   4.555   2.512   4.263 -0.8691  0.9879 -2.2267
 8546TIP3    H225603   4.414   2.475   4.304  0.2302 -1.1162 -0.0868
 8547TIP3   OH225604   4.912   6.616   4.131 -0.1501 -0.2786  0.4268
 8547TIP3    H125605   4.939   6.538   4.083 -1.2956  0.3635 -1.3531
 8547TIP3    H225606   4.823   6.597   4.160 -0.2191  0.1341  0.4968
 8548TIP3   OH225607   0.362   1.286   1.182  0.0614 -0.1617 -0.0770
 8548TIP3    H125608   0.342   1.317   1.093 -0.8958 -1.0100 -0.1796
 8548TIP3    H225609   0.354   1.364   1.237 -1.5739 -0.0323 -0.4386
 8549TIP3   OH225610   1.761   3.125   3.486 -0.0056  0.6444  0.1848
 8549TIP3    H125611   1.705   3.154   3.414 -2.0269 -0.9497  1.0255
 8549TIP3    H225612   1.842   3.175   3.474 -0.8674  1.6430 -2.2035
 8550TIP3   OH225613   5.084   1.923   3.526 -0.5987 -0.2571 -0.3875
 8550TIP3    H125614   5.022   1.855   3.552 -1.7962  1.0469  0.3113
 8550TIP3    H225615   5.139   1.936   3.602  0.2906 -1.1251 -0.8671
 8551TIP3   OH225616   2.941   4.580   0.767  0.2378  0.1556  0.6149
 8551TIP3    H125617   2.846   4.591   0.761  0.1145 -0.6474  1.0315
 8551TIP3    H225618   2.961   4.591   0.860  0.7677  1.8360  0.3525
 8552TIP3   OH225619   1.759   4.897   4.327  0.4586  1.0630 -0.5200
 8552TIP3    H125620   1.792   4.921   4.240  2.2583 -1.4356 -0.6613
 8552TIP3    H225621   1.822   4.832   4.359 -2.1483 -0.9134  1.0587
 8553TIP3   OH225622   6.061   5.477   1.423  0.3808  0.6711  0.4891
 8553TIP3    H125623   6.075   5.545   1.356  0.2772 -1.1739 -1.5251
 8553TIP3    H225624   5.968   5.483   1.444 -0.0943 -0.1140 -1.2157
 8554TIP3   OH225625   4.544   0.415   0.549  0.3205  0.1585 -0.5480
 8554TIP3    H125626   4.485   0.471   0.498  1.1332  0.5192 -1.1134
 8554TIP3    H225627   4.490   0.384   0.622 -0.1682  1.6383 -0.2403
 8555TIP3   OH225628   0.521   1.848   4.248  0.2971 -0.0159  0.1101
 8555TIP3    H125629   0.430   1.874   4.263  0.0544  1.0222 -2.6240
 8555TIP3    H225630   0.561   1.850   4.335 -1.3207  3.4201  0.9611
 8556TIP3   OH225631   6.973   1.293   2.390 -0.0779 -0.2262  0.1875
 8556TIP3    H125632   6.991   1.370   2.336  2.9084 -1.8289 -1.3569
 8556TIP3    H225633   7.018   1.310   2.473 -2.0500  0.9256  1.0733
 8557TIP3   OH225634   5.696   4.310   4.513 -0.1100 -0.3145  0.2591
 8557TIP3    H125635   5.666   4.363   4.440 -0.0275 -1.5006 -0.6659
 8557TIP3    H225636   5.776   4.267   4.481 -0.9057 -2.0578  0.4580
 8558TIP3   OH225637   4.850   4.875   1.957 -0.0609  0.2206  0.1019
 8558TIP3    H125638   4.803   4.827   1.889 -0.4920  1.2530 -0.3318
 8558TIP3    H225639   4.843   4.967   1.932  0.0742  0.5885  1.3514
 8559TIP3   OH225640   2.635   0.213   3.248 -0.3317  0.1944 -0.0924
 8559TIP3    H125641   2.716   0.259   3.225  1.0975 -1.7440  0.7117
 8559TIP3    H225642   2.587   0.274   3.303  1.2629  0.9072  0.5669
 8560TIP3   OH225643   3.071   1.292   4.282 -0.7675 -0.6279 -0.0843
 8560TIP3    H125644   3.040   1.335   4.362 -1.0069 -0.2577 -0.3687
 8560TIP3    H225645   3.000   1.305   4.219  0.8274  2.3203 -1.5071
 8561TIP3   OH225646   3.215   4.621   4.989  0.4758  0.0438 -1.0223
 8561TIP3    H125647   3.121   4.631   5.004  0.9469  5.3111  0.8332
 8561TIP3    H225648   3.224   4.616   4.894 -1.7061  2.5029 -1.4715
 8562TIP3   OH225649   3.112   2.368   1.999 -0.4566  0.0206  1.0253
 8562TIP3    H125650   3.107   2.453   1.955 -0.1816 -0.1693  0.6214
 8562TIP3    H225651   3.199   2.366   2.037 -0.2591 -0.3051  0.5653
 8563TIP3   OH225652   0.375   0.503   1.190 -0.2966 -0.1530 -0.1979
 8563TIP3    H125653   0.391   0.595   1.166 -0.1567 -0.5024 -1.5227
 8563TIP3    H225654   0.459   0.459   1.172 -1.1724 -1.0636 -2.4320
 8564TIP3   OH225655   3.442   0.705   3.727 -0.2785 -0.1022  0.1723
 8564TIP3    H125656   3.498   0.629   3.745 -0.0973  0.5840  3.0290
 8564TIP3    H225657   3.376   0.703   3.795 -2.3950  0.4515 -1.7488
 8565TIP3   OH225658   5.346   3.028   2.310 -0.1459  0.1568  0.1835
 8565TIP3    H125659   5.331   2.987   2.225 -0.6769  2.6480 -1.0018
 8565TIP3    H225660   5.381   2.957   2.365 -0.1335 -1.6041 -1.9696
 8566TIP3   OH225661   1.525   3.822   1.112 -0.0339  0.7381 -0.2941
 8566TIP3    H125662   1.490   3.890   1.055  1.6487  1.0670 -0.9962
 8566TIP3    H225663   1.507   3.740   1.065  0.6219  0.9434 -0.9187
 8567TIP3   OH225664   0.138   4.568   2.509  0.0574 -0.3860 -0.5138
 8567TIP3    H125665   0.168   4.519   2.433  0.2266  2.1067 -2.1854
 8567TIP3    H225666   0.112   4.502   2.573  0.2780 -2.5717 -2.5856
 8568TIP3   OH225667   6.250   2.496   4.023 -0.2744 -0.1938  0.1453
 8568TIP3    H125668   6.212   2.572   3.979  0.7142  0.3124  0.1319
 8568TIP3    H225669   6.252   2.427   3.956  0.4668  0.3236 -0.3845
 8569TIP3   OH225670   3.807   0.591   4.702 -0.0951 -0.3113 -0.6344
 8569TIP3    H125671   3.735   0.552   4.651 -0.2537 -0.8147 -0.0326
 8569TIP3    H225672   3.854   0.516   4.739  0.4545  0.0320 -0.6254
 8570TIP3   OH225673   4.014   6.611   0.693 -0.3971 -0.0101  1.2610
 8570TIP3    H125674   4.101   6.644   0.668 -1.4560  1.8827 -0.2151
 8570TIP3    H225675   3.999   6.650   0.780 -0.0806  0.3071  1.1788
 8571TIP3   OH225676   2.266   2.058   0.266  0.0033 -0.5047 -0.0634
 8571TIP3    H125677   2.271   1.998   0.192 -1.8108 -0.0153 -0.6370
 8571TIP3    H225678   2.285   2.003   0.343  1.5089 -1.0999 -0.8098
 8572TIP3   OH225679   0.740   6.155   1.812  0.0419 -0.3126  0.8749
 8572TIP3    H125680   0.702   6.127   1.895 -1.1191  0.3873  0.5942
 8572TIP3    H225681   0.740   6.076   1.758  1.2741 -0.8998  1.6748
 8573TIP3   OH225682   2.604   5.935   0.714 -0.2361 -0.5088  0.4288
 8573TIP3    H125683   2.654   6.016   0.708 -0.8647 -0.1595 -0.1331
 8573TIP3    H225684   2.614   5.907   0.805 -1.3243  1.0403  1.0620
 8574TIP3   OH225685   0.717   5.232   2.919  0.2438  0.0949 -0.1173
 8574TIP3    H125686   0.764   5.198   2.995 -2.8120 -0.3470  1.7544
 8574TIP3    H225687   0.674   5.311   2.950 -0.8070  0.1081 -1.4912
 8575TIP3   OH225688   2.221   6.689   5.145 -0.2839 -0.6717 -0.2901
 8575TIP3    H125689   2.243   6.770   5.191  0.2263  0.0434 -1.7282
 8575TIP3    H225690   2.305   6.655   5.115 -0.5600 -1.4059 -0.2680
 8576TIP3   OH225691   6.482   1.171   0.983 -0.5895  0.8270  0.6699
 8576TIP3    H125692   6.455   1.083   1.008 -1.2033  0.4875 -1.1037
 8576TIP3    H225693   6.525   1.161   0.898 -0.1216  2.1605  0.7178
 8577TIP3   OH225694   5.998   2.065   5.012  0.0029 -0.5978 -0.0203
 8577TIP3    H125695   6.080   2.019   5.026  1.1777  0.9270 -1.4680
 8577TIP3    H225696   5.977   2.049   4.920  0.0409  1.0351 -0.3509
 8578TIP3   OH225697   1.195   3.740   5.504  0.1039  0.6157 -0.0666
 8578TIP3    H125698   1.179   3.659   5.551  0.0053  0.4533 -0.3736
 8578TIP3    H225699   1.169   3.809   5.565 -0.8654  0.3880 -0.1954
 8579TIP3   OH225700   0.942   6.735   1.507  0.2649  0.5121  0.8350
 8579TIP3    H125701   1.024   6.730   1.555  0.0982  0.2689  1.0959
 8579TIP3    H225702   0.875   6.749   1.575 -0.2106 -1.6774  0.8999
 8580TIP3   OH225703   2.644   2.578   2.716  0.3775  0.2624 -0.1630
 8580TIP3    H125704   2.690   2.662   2.722  0.5959  0.0857  0.9723
 8580TIP3    H225705   2.591   2.585   2.636  0.1078  1.6193  0.1013
 8581TIP3   OH225706   2.537   2.549   2.472  0.7725  0.1844  0.1190
 8581TIP3    H125707   2.454   2.501   2.474  1.8793 -1.8496  1.7704
 8581TIP3    H225708   2.587   2.507   2.403  1.5848 -0.8494  1.2843
 8582TIP3   OH225709   4.933   3.527   1.666 -0.2154 -0.6082  0.3149
 8582TIP3    H125710   4.847   3.556   1.699 -0.5281  0.2944 -1.2119
 8582TIP3    H225711   4.912   3.462   1.600  0.2365  0.0065 -0.4509
 8583TIP3   OH225712   6.822   2.244   2.285 -0.2130 -0.0415  0.1974
 8583TIP3    H125713   6.900   2.277   2.329  1.1022 -1.8515 -0.6436
 8583TIP3    H225714   6.784   2.321   2.242  0.9182  0.9319  0.8841
 8584TIP3   OH225715   0.892   0.896   3.372  0.3355  0.4601  0.0388
 8584TIP3    H125716   0.820   0.834   3.383 -0.2531  1.4258  2.3204
 8584TIP3    H225717   0.962   0.845   3.332 -0.1852 -1.6609  1.6288
 8585TIP3   OH225718   4.105   2.850   5.155 -0.2242 -0.0245 -0.1341
 8585TIP3    H125719   4.142   2.809   5.234 -0.5935 -1.3983 -0.6362
 8585TIP3    H225720   4.049   2.920   5.188 -0.4770 -0.6693  0.8387
 8586TIP3   OH225721   3.770   0.996   0.171 -0.4596  0.2135 -0.3430
 8586TIP3    H125722   3.752   0.908   0.137  3.6900 -0.7194 -0.6212
 8586TIP3    H225723   3.773   1.052   0.093  1.6459 -0.4376 -0.7786
 8587TIP3   OH225724   5.166   5.233   1.858  0.0165  0.4401  0.1301
 8587TIP3    H125725   5.130   5.312   1.817 -1.9155 -0.4800 -0.0600
 8587TIP3    H225726   5.105   5.212   1.928  1.0694 -0.3155  0.8459
 8588TIP3   OH225727   3.005   3.008   0.306 -0.3994  0.2871 -0.6404
 8588TIP3    H125728   2.911   3.006   0.322 -0.1249 -2.1826  1.2493
 8588TIP3    H225729   3.045   2.986   0.391  1.8528  0.3283 -1.6005
 8589TIP3   OH225730   4.147   0.546   2.270  0.2656 -0.4338  0.4775
 8589TIP3    H125731   4.162   0.477   2.206 -0.8968 -0.1766 -0.1121
 8589TIP3    H225732   4.230   0.594   2.275  0.2286 -0.1287 -1.2567
 8590TIP3   OH225733   6.804   3.393   1.037  0.0162  0.1996  0.1580
 8590TIP3    H125734   6.748   3.326   0.998 -0.0431  0.6614 -0.5675
 8590TIP3    H225735   6.745   3.442   1.094  0.0682 -0.3794  0.7183
 8591TIP3   OH225736   7.136   3.698   2.060 -0.6781  0.5558 -0.6158
 8591TIP3    H125737   7.142   3.705   1.965 -0.6144  0.6499 -0.6050
 8591TIP3    H225738   7.109   3.785   2.089  1.2671  1.1280 -0.3769
 8592TIP3   OH225739   3.559   4.651   2.683  0.6894  0.1805  0.0276
 8592TIP3    H125740   3.490   4.657   2.616 -0.2593  2.1305  1.1228
 8592TIP3    H225741   3.640   4.663   2.634  0.2781 -1.5772 -1.2028
 8593TIP3   OH225742   2.992   0.320   5.274 -0.8522  0.3636 -0.3959
 8593TIP3    H125743   2.917   0.356   5.322 -1.2843  1.3545 -1.7218
 8593TIP3    H225744   2.971   0.339   5.182 -0.3542 -1.9799 -1.0407
 8594TIP3   OH225745   1.571   3.167   3.280 -0.5828  0.3442  0.2009
 8594TIP3    H125746   1.522   3.203   3.206 -0.5734 -0.1780 -0.0626
 8594TIP3    H225747   1.563   3.234   3.349 -1.9926  0.1143  0.2976
 8595TIP3   OH225748   4.582   0.530   4.068 -0.0534 -0.0004 -0.0560
 8595TIP3    H125749   4.490   0.502   4.066 -0.3787  0.8737  1.3455
 8595TIP3    H225750   4.632   0.450   4.054 -0.9854 -0.9609  1.8394
 8596TIP3   OH225751   4.103   6.445   4.329  0.0596  0.3764 -0.1734
 8596TIP3    H125752   4.108   6.512   4.260 -0.2869  0.9447  0.3496
 8596TIP3    H225753   4.015   6.407   4.318  0.8001 -1.1202 -1.4839
 8597TIP3   OH225754   1.089   5.762   5.714 -0.4162  0.2936  0.4718
 8597TIP3    H125755   1.135   5.683   5.685 -2.0183 -0.4447 -0.1744
 8597TIP3    H225756   1.140   5.793   5.788  0.8362 -0.7671  0.0935
 8598TIP3   OH225757   2.949   4.345   2.680 -0.1279 -0.3682  0.2445
 8598TIP3    H125758   2.885   4.307   2.740 -0.8737  1.9293  1.0177
 8598TIP3    H225759   3.033   4.330   2.723 -0.3778 -1.2457  0.4462
 8599TIP3   OH225760   1.526   5.098   0.178 -0.0347  0.5305  0.0065
 8599TIP3    H125761   1.570   5.166   0.127 -0.4101  0.5459 -0.3023
 8599TIP3    H225762   1.457   5.065   0.120  1.1535 -1.2633 -0.4899
 8600TIP3   OH225763   3.299   3.815   3.958 -0.1010  0.0137 -0.8814
 8600TIP3    H125764   3.239   3.834   4.030  0.3708 -0.1862 -0.4250
 8600TIP3    H225765   3.378   3.866   3.978  0.2829 -0.5640 -0.8974
 8601TIP3   OH225766   5.588   6.117   2.229 -0.6336 -0.1916  0.6224
 8601TIP3    H125767   5.555   6.070   2.152  3.1120 -0.1543 -1.2502
 8601TIP3    H225768   5.565   6.208   2.213 -0.7166 -0.3128  0.0189
 8602TIP3   OH225769   4.933   3.962   5.007 -0.0823 -0.0637  0.2721
 8602TIP3    H125770   4.922   3.927   4.919 -1.6414 -0.2956  0.5152
 8602TIP3    H225771   4.944   4.056   4.994  2.6169 -0.3778 -0.2950
 8603TIP3   OH225772   5.761   5.638   4.685 -0.6500 -0.1098 -0.4286
 8603TIP3    H125773   5.737   5.711   4.628  1.9119  0.1950 -1.2281
 8603TIP3    H225774   5.806   5.678   4.759 -1.8659 -0.6973  0.6710
 8604TIP3   OH225775   6.656   6.307   3.145 -0.0020  0.1742 -0.3629
 8604TIP3    H125776   6.577   6.346   3.183  0.1977  0.5012 -0.2780
 8604TIP3    H225777   6.724   6.320   3.211  0.4334  1.0609 -0.9564
 8605TIP3   OH225778   6.778   4.680   2.106  0.5018  0.0796  0.4511
 8605TIP3    H125779   6.708   4.722   2.056  0.7888 -0.0855 -0.0954
 8605TIP3    H225780   6.751   4.589   2.113  2.2446 -0.8050 -2.7368
 8606TIP3   OH225781   5.905   4.911   0.226 -0.0935  0.0253  0.4943
 8606TIP3    H125782   5.837   4.894   0.291  0.0668 -1.3960  0.3225
 8606TIP3    H225783   5.859   4.909   0.142  0.1850 -1.2057  0.3581
 8607TIP3   OH225784   3.332   0.360   5.224  0.2550  0.3311  0.0112
 8607TIP3    H125785   3.254   0.377   5.278 -0.4464  0.0851 -0.8945
 8607TIP3    H225786   3.353   0.268   5.243  0.4490  0.4551  0.4074
 8608TIP3   OH225787   4.489   1.018   3.542 -0.5416 -0.1928  0.7518
 8608TIP3    H125788   4.536   0.948   3.587  0.3874 -1.3654 -1.8216
 8608TIP3    H225789   4.543   1.096   3.555 -1.1350 -0.0917  2.9251
 8609TIP3   OH225790   2.058   5.926   0.634 -0.1369  0.6921  0.5262
 8609TIP3    H125791   2.039   5.833   0.648  4.0293 -0.0271  2.8407
 8609TIP3    H225792   2.129   5.927   0.569 -0.9885  2.4347 -0.4671
 8610TIP3   OH225793   3.420   6.676   0.433  0.1409  0.5864 -0.2504
 8610TIP3    H125794   3.489   6.736   0.407 -0.0141  0.7445 -0.2944
 8610TIP3    H225795   3.363   6.727   0.491  1.5118 -0.2498  1.9644
 8611TIP3   OH225796   0.579   3.818   5.797 -0.4049 -0.2573  0.1749
 8611TIP3    H125797   0.486   3.839   5.803 -0.6266 -0.8404 -0.9196
 8611TIP3    H225798   0.604   3.843   5.708  1.4648  3.4861  1.5677
 8612TIP3   OH225799   2.560   0.573   0.592  0.2275  0.0738 -0.2495
 8612TIP3    H125800   2.536   0.663   0.612 -1.8044 -0.1437 -1.4608
 8612TIP3    H225801   2.560   0.529   0.677 -0.5475  0.8472  0.1693
 8613TIP3   OH225802   5.499   3.537   2.535 -0.2591 -0.2995  0.3406
 8613TIP3    H125803   5.474   3.455   2.578 -1.0684 -0.5635 -0.5950
 8613TIP3    H225804   5.484   3.521   2.442 -0.5447  0.9414  0.1481
 8614TIP3   OH225805   0.028   0.454   5.535  0.0162  0.5253 -0.4102
 8614TIP3    H125806   0.035   0.423   5.445 -1.2436  1.5058 -0.8839
 8614TIP3    H225807  -0.048   0.407   5.571 -0.8783  1.7625 -0.6105
 8615TIP3   OH225808   6.927   4.773   2.802  0.1639  0.1808  0.2747
 8615TIP3    H125809   7.008   4.823   2.791 -0.4100  1.2399  0.7450
 8615TIP3    H225810   6.902   4.788   2.893 -0.4809 -0.2615  0.1759
 8616TIP3   OH225811   0.675   6.649   1.914  0.4575 -0.3091  0.0079
 8616TIP3    H125812   0.765   6.671   1.892  0.6680  1.6410  2.3860
 8616TIP3    H225813   0.682   6.591   1.989 -0.2681  0.1424  0.4320
 8617TIP3   OH225814   5.248   2.429   1.430  0.2452  0.5618 -0.6856
 8617TIP3    H125815   5.326   2.389   1.392  0.3527  0.7153 -0.6286
 8617TIP3    H225816   5.283   2.493   1.492  0.0745  0.7543 -0.7902
 8618TIP3   OH225817   5.922   3.903   3.119 -0.0162  0.0199  0.4782
 8618TIP3    H125818   5.930   3.997   3.128 -0.3390  0.0721  0.2437
 8618TIP3    H225819   5.847   3.890   3.061  0.3950 -0.3644  0.0247
 8619TIP3   OH225820   0.869   3.457   1.900 -0.3995 -0.3152  0.0849
 8619TIP3    H125821   0.879   3.541   1.944  1.3869 -1.2578  1.6337
 8619TIP3    H225822   0.873   3.392   1.970 -2.2177 -1.7078 -1.0180
 8620TIP3   OH225823   3.861   0.403   3.241  0.4491  0.3617  0.3173
 8620TIP3    H125824   3.916   0.327   3.220 -2.1487 -1.2756 -1.0249
 8620TIP3    H225825   3.842   0.394   3.334  1.1928  0.1256  0.4582
 8621TIP3   OH225826   0.993   4.421   4.238  0.1313  0.4203  0.0632
 8621TIP3    H125827   0.955   4.334   4.229  0.6789  0.4108 -3.2827
 8621TIP3    H225828   0.930   4.469   4.292 -0.4374 -1.8272  1.5514
 8622TIP3   OH225829   1.678   4.571   4.059 -0.8312  0.1835 -0.1082
 8622TIP3    H125830   1.677   4.666   4.067 -2.6639  0.0478  2.3491
 8622TIP3    H225831   1.766   4.546   4.088 -0.7329  1.0507  0.3732
 8623TIP3   OH225832   2.859   0.077   3.060 -0.8787 -0.0829  0.1422
 8623TIP3    H125833   2.858   0.172   3.077  1.3774 -0.1195  0.8321
 8623TIP3    H225834   2.860   0.037   3.147 -0.5074 -0.6716 -0.1212
 8624TIP3   OH225835   3.578   3.279   4.125 -0.0149 -0.8267  0.2173
 8624TIP3    H125836   3.508   3.283   4.059  0.6162 -2.0459 -0.5703
 8624TIP3    H225837   3.652   3.241   4.078  0.6720 -1.0795  1.4672
 8625TIP3   OH225838   1.728   4.461   3.457 -0.5225  0.1043 -0.1007
 8625TIP3    H125839   1.784   4.539   3.451 -1.1481  0.4970 -1.0586
 8625TIP3    H225840   1.641   4.495   3.477 -0.1717 -0.6132  3.0457
 8626TIP3   OH225841   1.911   4.107   3.670  0.3513  0.2884 -0.2957
 8626TIP3    H125842   1.847   4.105   3.741 -0.3855  2.9313 -0.8040
 8626TIP3    H225843   1.991   4.138   3.710 -0.1114  1.9495 -0.6032
 8627TIP3   OH225844   0.819   4.357   3.886  0.0899 -0.2041  0.5398
 8627TIP3    H125845   0.787   4.348   3.796  0.9318 -1.3780  0.3403
 8627TIP3    H225846   0.743   4.336   3.941 -1.0965  2.7070  0.2057
 8628TIP3   OH225847   6.065   1.254   3.012  0.2927  0.2761  0.7632
 8628TIP3    H125848   6.001   1.203   3.061  0.2684  0.9246  1.4326
 8628TIP3    H225849   6.018   1.285   2.935  0.1955 -0.3682  0.5577
 8629TIP3   OH225850   5.204   3.271   5.489  0.7511 -0.0932  0.0008
 8629TIP3    H125851   5.226   3.281   5.581 -1.5118  0.6356  0.5240
 8629TIP3    H225852   5.146   3.195   5.486  0.0757  0.4237 -0.6570
 8630TIP3   OH225853   5.985   0.289   5.541 -0.1651 -0.0307  0.0699
 8630TIP3    H125854   5.963   0.212   5.488  0.4197 -0.4800  0.4635
 8630TIP3    H225855   6.078   0.304   5.524  0.3295 -0.8888  1.8322
 8631TIP3   OH225856   4.072   2.985   2.855  0.2049  0.4516 -0.0103
 8631TIP3    H125857   4.100   3.044   2.926 -0.7567 -0.8143  1.4920
 8631TIP3    H225858   3.979   2.970   2.873 -0.2233  0.5746 -1.9414
 8632TIP3   OH225859   5.740   3.401   1.805 -0.3404 -0.3760 -0.0096
 8632TIP3    H125860   5.736   3.320   1.856 -0.7677 -0.5050 -0.2337
 8632TIP3    H225861   5.810   3.452   1.844 -1.4423  0.0646  1.4978
 8633TIP3   OH225862   0.267   5.095   1.149  0.0284  0.6541 -0.0898
 8633TIP3    H125863   0.174   5.100   1.128 -0.4873 -1.2270  1.4183
 8633TIP3    H225864   0.296   5.013   1.108  0.9694  1.1089 -0.3490
 8634TIP3   OH225865   2.607   5.558   1.987 -0.7493 -0.3762 -0.5094
 8634TIP3    H125866   2.518   5.585   2.009 -0.6316 -0.8513  0.5855
 8634TIP3    H225867   2.622   5.479   2.038  0.5506  0.0824 -0.1423
 8635TIP3   OH225868   2.704   3.308   0.290  0.3115  0.1257 -0.3500
 8635TIP3    H125869   2.777   3.334   0.348  0.1853 -0.6960  0.1995
 8635TIP3    H225870   2.665   3.233   0.334  0.0474 -0.3552 -1.3962
 8636TIP3   OH225871   7.047   5.599   4.687  0.4775 -0.0417 -0.2782
 8636TIP3    H125872   7.139   5.609   4.665  0.6640  0.5209  0.6915
 8636TIP3    H225873   7.030   5.505   4.680  1.7457 -0.4899  1.7994
 8637TIP3   OH225874   3.105   0.219   1.801  0.0634 -0.1660 -0.1923
 8637TIP3    H125875   3.193   0.253   1.789 -0.2071  0.3012 -0.9542
 8637TIP3    H225876   3.056   0.290   1.843 -0.3585  0.2036 -1.2721
 8638TIP3   OH225877   4.427   3.129   1.529  0.3939 -0.0588  0.1972
 8638TIP3    H125878   4.510   3.081   1.530  0.5463  0.1728  1.7077
 8638TIP3    H225879   4.437   3.194   1.599 -1.3896 -0.6286  1.0322
 8639TIP3   OH225880   5.117   3.788   5.518 -0.4731 -0.2468 -0.3161
 8639TIP3    H125881   5.203   3.764   5.550  0.2857  0.8203 -1.4813
 8639TIP3    H225882   5.129   3.805   5.425 -1.8240  0.4841 -0.3860
 8640TIP3   OH225883   3.192   3.118   3.561 -0.3096  0.7356 -0.2559
 8640TIP3    H125884   3.150   3.052   3.615 -1.1249 -0.7137 -2.5099
 8640TIP3    H225885   3.199   3.195   3.618 -4.0692  0.3865  0.9517
 8641TIP3   OH225886   6.535   4.341   4.939 -0.0963  0.3150 -0.3268
 8641TIP3    H125887   6.473   4.276   4.974  1.3817  0.8652  3.7477
 8641TIP3    H225888   6.484   4.421   4.931 -0.5396  0.1071  0.3767
 8642TIP3   OH225889   5.594   2.029   5.579  0.0937  0.2173 -0.0325
 8642TIP3    H125890   5.526   2.036   5.647  0.7042 -0.6264  0.6881
 8642TIP3    H225891   5.556   2.073   5.503 -0.3443  1.7826  1.0412
 8643TIP3   OH225892   5.464   3.043   3.292  0.0478  0.0285  0.0638
 8643TIP3    H125893   5.412   3.123   3.297 -1.1657 -0.6345 -0.9980
 8643TIP3    H225894   5.400   2.973   3.303  0.9255 -0.8088 -0.0434
 8644TIP3   OH225895   7.003   0.918   4.973  0.2251  0.1257  0.1800
 8644TIP3    H125896   7.074   0.925   4.909 -0.2655 -0.3675 -0.4329
 8644TIP3    H225897   7.041   0.950   5.055  0.8429  0.8491 -0.3690
 8645TIP3   OH225898   3.246   6.095   1.723  0.2104  0.2117 -0.0180
 8645TIP3    H125899   3.194   6.120   1.799  0.1592  0.3270 -0.0926
 8645TIP3    H225900   3.333   6.131   1.741 -0.2139  1.6835 -0.7872
 8646TIP3   OH225901   0.316   6.366   4.042  0.0906  0.0388  0.2700
 8646TIP3    H125902   0.386   6.343   4.103  1.4274  1.3931 -0.6717
 8646TIP3    H225903   0.277   6.445   4.079 -1.6815 -1.2787  1.3277
 8647TIP3   OH225904   2.300   5.418   1.548  0.1136  1.0257  0.0108
 8647TIP3    H125905   2.379   5.444   1.596 -0.6846  0.0335  1.9547
 8647TIP3    H225906   2.250   5.499   1.540  0.1175  1.1502  1.1586
 8648TIP3   OH225907   3.511   0.791   2.582  0.4363  0.2447 -0.6837
 8648TIP3    H125908   3.591   0.757   2.623  0.0011 -0.5480 -0.4659
 8648TIP3    H225909   3.542   0.854   2.517  1.2088  0.3674 -0.2024
 8649TIP3   OH225910   0.584   3.970   4.400 -0.4878  0.1852 -0.1371
 8649TIP3    H125911   0.557   4.049   4.446 -1.5732  0.2760 -0.8967
 8649TIP3    H225912   0.614   3.911   4.469  1.8138  1.7764  0.3241
 8650TIP3   OH225913   6.743   0.126   4.274 -0.1618  0.2763 -0.5955
 8650TIP3    H125914   6.809   0.058   4.286 -0.3771  0.1098 -0.3233
 8650TIP3    H225915   6.791   0.200   4.237  0.2165  0.2211 -0.2276
 8651TIP3   OH225916   2.268   6.694   3.050 -0.3820  0.4380 -0.3344
 8651TIP3    H125917   2.321   6.701   3.129  0.0949  2.3156 -0.7801
 8651TIP3    H225918   2.309   6.622   3.001 -2.3517 -2.7718  2.2353
 8652TIP3   OH225919   3.790   3.569   4.951  0.4611  0.0734 -0.0188
 8652TIP3    H125920   3.851   3.641   4.958  1.1936 -0.6719  1.6649
 8652TIP3    H225921   3.705   3.606   4.976  0.6118  0.6076 -0.2920
 8653TIP3   OH225922   6.992   5.920   3.155 -0.0007 -0.7054  0.1144
 8653TIP3    H125923   6.975   6.012   3.134 -0.5420 -0.8263 -0.0041
 8653TIP3    H225924   7.086   5.916   3.173 -0.2176  0.1540  1.5720
 8654TIP3   OH225925   6.213   5.303   1.765  0.2628 -0.1418 -0.0045
 8654TIP3    H125926   6.226   5.260   1.850  0.7128  0.6325  0.3267
 8654TIP3    H225927   6.121   5.285   1.744  0.1293 -0.2975  0.6691
 8655TIP3   OH225928   3.913   6.503   1.799  0.4891  0.0182  0.5033
 8655TIP3    H125929   3.926   6.588   1.756  1.5707 -0.0727  0.6095
 8655TIP3    H225930   3.866   6.524   1.879 -0.5145  0.3317 -0.1584
 8656TIP3   OH225931   7.138   2.071   4.610  0.7847  0.1197 -0.2987
 8656TIP3    H125932   7.115   2.092   4.520 -1.0965  0.5337  0.2444
 8656TIP3    H225933   7.095   2.138   4.662  0.1941 -1.2376  1.0317
 8657TIP3   OH225934   3.599   4.976   4.197 -0.1194  0.0443  0.0444
 8657TIP3    H125935   3.594   4.978   4.102  0.6701 -1.4109 -0.0612
 8657TIP3    H225936   3.513   4.941   4.224  0.5675 -2.0974 -0.3325
 8658TIP3   OH225937   5.338   4.465   4.965 -0.2301 -0.5378  0.6750
 8658TIP3    H125938   5.278   4.395   4.939  1.5639 -1.6622 -0.6630
 8658TIP3    H225939   5.299   4.544   4.928 -0.4267 -1.3682 -1.0126
 8659TIP3   OH225940   0.885   5.153   1.505 -0.3408 -0.4866 -0.2235
 8659TIP3    H125941   0.963   5.126   1.456 -1.3720 -1.2250 -1.5384
 8659TIP3    H225942   0.822   5.180   1.438 -1.1102  0.4423  0.8228
 8660TIP3   OH225943   1.120   0.776   0.711 -0.1246  0.3289 -0.1047
 8660TIP3    H125944   1.092   0.684   0.705 -2.8196  0.8836  2.1272
 8660TIP3    H225945   1.133   0.802   0.620 -1.8563 -1.5604 -0.9916
 8661TIP3   OH225946   1.412   1.104   3.205 -0.6197 -0.2147  0.3669
 8661TIP3    H125947   1.449   1.185   3.241 -2.7330  0.5986  0.8330
 8661TIP3    H225948   1.443   1.036   3.265  0.7525  0.2823  0.2738
 8662TIP3   OH225949   2.430   6.203   0.795 -0.1922 -0.0074 -0.0420
 8662TIP3    H125950   2.375   6.199   0.716  0.5521  1.4489 -0.6687
 8662TIP3    H225951   2.510   6.157   0.770  0.6591  1.7574 -0.6968
 8663TIP3   OH225952   2.587   3.026   5.752  0.2203  0.6159  0.0966
 8663TIP3    H125953   2.514   3.072   5.791 -1.9363  0.3272 -3.2582
 8663TIP3    H225954   2.638   3.093   5.707 -0.1233  0.3729 -0.6720
 8664TIP3   OH225955   0.770   6.038   3.062  0.3517 -0.4584  0.0319
 8664TIP3    H125956   0.701   5.974   3.048  0.6901 -0.8029 -0.0764
 8664TIP3    H225957   0.726   6.123   3.057 -0.1257 -0.6857  0.3501
 8665TIP3   OH225958   4.383   0.306   0.277  0.4196  0.5335  0.0108
 8665TIP3    H125959   4.304   0.308   0.331 -0.5619 -0.6559 -1.2980
 8665TIP3    H225960   4.426   0.223   0.301 -0.6112 -0.5750 -1.7393
 8666TIP3   OH225961   5.725   5.170   5.851  0.3692 -0.3824 -0.5870
 8666TIP3    H125962   5.729   5.098   5.788 -0.5183 -0.5619 -0.4552
 8666TIP3    H225963   5.736   5.128   5.936  0.0236 -0.3398 -0.5213
 8667TIP3   OH225964   1.068   1.800   1.468  0.2474  0.0776  0.2462
 8667TIP3    H125965   1.050   1.843   1.385  1.8425 -0.2612 -0.3017
 8667TIP3    H225966   1.024   1.854   1.533 -0.4367  0.7382 -0.7374
 8668TIP3   OH225967   5.123   4.111   2.181 -0.2926  0.0981  0.0877
 8668TIP3    H125968   5.194   4.151   2.231 -0.0461 -0.2536  0.0228
 8668TIP3    H225969   5.046   4.163   2.202  0.6144  2.8689 -2.6002
 8669TIP3   OH225970   4.051   6.065   3.452  0.4707 -0.0965 -0.0086
 8669TIP3    H125971   4.083   6.042   3.365  0.6247  1.0908 -0.2847
 8669TIP3    H225972   3.971   6.014   3.462  0.5015 -0.3190 -0.8108
 8670TIP3   OH225973   5.653   0.370   3.210  0.3406  0.1068 -0.1202
 8670TIP3    H125974   5.713   0.408   3.146 -1.1598  1.6574 -0.7010
 8670TIP3    H225975   5.689   0.284   3.229  1.6477  0.1951 -1.9364
 8671TIP3   OH225976   6.598   0.962   2.176 -0.1340 -0.4074  0.2820
 8671TIP3    H125977   6.509   0.998   2.169  0.1272  0.2330  0.1691
 8671TIP3    H225978   6.653   1.038   2.195  0.3531 -0.8445  0.6487
 8672TIP3   OH225979   1.430   6.735   2.477  0.1103  0.6799 -0.1802
 8672TIP3    H125980   1.519   6.708   2.499  0.7878  1.9526 -1.2401
 8672TIP3    H225981   1.390   6.758   2.561 -0.0252 -2.0445  0.6036
 8673TIP3   OH225982   1.475   1.299   4.069  0.0371 -0.2246 -0.2367
 8673TIP3    H125983   1.487   1.211   4.032 -0.9400  0.6362 -2.7688
 8673TIP3    H225984   1.383   1.303   4.094  0.4004 -0.3512  1.2580
 8674TIP3   OH225985   3.577   1.470   0.118  0.0188 -0.6117 -0.4303
 8674TIP3    H125986   3.633   1.449   0.193  0.0025 -1.6521 -0.6996
 8674TIP3    H225987   3.604   1.558   0.092  0.0681 -0.2560  0.7528
 8675TIP3   OH225988   7.132   2.243   3.361 -0.1187  0.0751 -0.2540
 8675TIP3    H125989   7.207   2.297   3.338 -1.0029  1.3358 -0.3041
 8675TIP3    H225990   7.127   2.178   3.291  0.7582  0.1452 -0.3897
 8676TIP3   OH225991   5.368   6.716   4.239  0.2506 -0.4878  0.0366
 8676TIP3    H125992   5.345   6.652   4.172 -0.4156 -1.3454  1.0422
 8676TIP3    H225993   5.284   6.738   4.280  0.6697 -0.1984  0.7536
 8677TIP3   OH225994   6.215   2.592   5.755 -0.2081 -0.1579 -0.9059
 8677TIP3    H125995   6.227   2.539   5.834 -1.1994  1.1360  0.1666
 8677TIP3    H225996   6.159   2.539   5.698  0.2572 -0.9760 -0.6143
 8678TIP3   OH225997   3.615   3.117   4.722  0.6240 -0.4015 -0.0797
 8678TIP3    H125998   3.661   3.087   4.800  2.2678  1.0189 -0.4255
 8678TIP3    H225999   3.636   3.211   4.717 -1.7051  0.1420 -0.7269
 8679TIP3   OH226000   5.218   6.371   1.634 -0.1220  0.2513 -0.0310
 8679TIP3    H126001   5.234   6.358   1.541  2.2130  1.4441  0.1369
 8679TIP3    H226002   5.221   6.283   1.671 -0.0380 -0.1376 -0.9268
 8680TIP3   OH226003   0.862   3.109   2.624  0.3036 -0.3023  0.0185
 8680TIP3    H126004   0.801   3.057   2.572 -0.6069 -0.4780  1.2270
 8680TIP3    H226005   0.858   3.071   2.712  2.0171 -0.1903  0.1836
 8681TIP3   OH226006   6.584   1.144   0.736 -0.0296 -0.5391  0.5554
 8681TIP3    H126007   6.521   1.109   0.674 -0.0350  0.1170  0.1836
 8681TIP3    H226008   6.669   1.120   0.701 -0.0607 -1.0368  0.8215
 8682TIP3   OH226009   6.112   6.343   1.460 -0.0917  0.2535 -0.5116
 8682TIP3    H126010   6.199   6.303   1.454 -0.6000 -0.6906 -2.6091
 8682TIP3    H226011   6.087   6.332   1.551  1.7139 -0.0540 -0.0128
 8683TIP3   OH226012   5.712   3.749   2.049  0.6099  0.4470  0.3909
 8683TIP3    H126013   5.702   3.843   2.060  0.1788  0.3323  1.1151
 8683TIP3    H226014   5.788   3.726   2.102  1.0754  0.4659 -0.2609
 8684TIP3   OH226015   2.715   0.554   3.512  0.4112 -0.0613  0.7669
 8684TIP3    H126016   2.780   0.483   3.513  1.0774  0.4849 -1.0180
 8684TIP3    H226017   2.704   0.576   3.420  0.5841  2.5123  1.2897
 8685TIP3   OH226018   2.881   4.489   0.498  0.1712  0.2540 -0.5520
 8685TIP3    H126019   2.844   4.437   0.570 -1.5464 -0.1552 -1.6785
 8685TIP3    H226020   2.866   4.580   0.525  0.3704  0.1187  0.0271
 8686TIP3   OH226021   0.790   1.865   0.030 -0.1347  0.2625  0.1910
 8686TIP3    H126022   0.700   1.894   0.018 -0.0363  0.7863  0.7074
 8686TIP3    H226023   0.835   1.940   0.069  0.5105 -0.0150 -0.0008
 8687TIP3   OH226024   2.058   5.451   4.460 -0.3621 -0.3921 -0.3075
 8687TIP3    H126025   2.071   5.532   4.510  1.5895 -1.2362  0.6956
 8687TIP3    H226026   2.132   5.396   4.486 -1.8490 -2.6607 -0.6539
 8688TIP3   OH226027   0.112   4.668   0.676  0.2578 -0.6851 -0.5218
 8688TIP3    H126028   0.064   4.750   0.687  1.5376 -0.0744  0.8529
 8688TIP3    H226029   0.169   4.683   0.601  1.3062  0.1284  0.4072
 8689TIP3   OH226030   3.446   4.758   0.614 -0.3239 -0.1528  0.2591
 8689TIP3    H126031   3.408   4.741   0.528 -1.1264 -0.2346  0.6147
 8689TIP3    H226032   3.396   4.833   0.647 -1.8086 -1.6716  1.6915
 8690TIP3   OH226033   4.345   3.696   0.787 -0.4227  0.6983  0.0950
 8690TIP3    H126034   4.421   3.732   0.832 -0.4231  0.5206  0.2420
 8690TIP3    H226035   4.365   3.603   0.777 -1.4067  0.2404  1.8293
 8691TIP3   OH226036   4.871   3.606   4.216 -0.3289 -0.4562 -0.5336
 8691TIP3    H126037   4.833   3.530   4.259 -0.8904  0.5926  0.9244
 8691TIP3    H226038   4.955   3.618   4.260  0.2344 -0.8367 -1.4863
 8692TIP3   OH226039   3.002   2.576   5.891  0.2918 -0.8227 -0.0156
 8692TIP3    H126040   2.910   2.590   5.909  0.2120 -0.9750 -0.2957
 8692TIP3    H226041   3.007   2.568   5.796  0.4318 -1.9447  0.0732
 8693TIP3   OH226042   2.769   3.976   3.543 -0.0769  0.4965  0.2987
 8693TIP3    H126043   2.695   3.972   3.482  0.3559 -0.5458 -0.1919
 8693TIP3    H226044   2.729   3.971   3.630 -0.5390 -2.9614  0.0407
 8694TIP3   OH226045   6.191   0.486   1.898 -0.1167  0.7426  0.3984
 8694TIP3    H126046   6.227   0.438   1.973  0.3557  0.9115  0.2860
 8694TIP3    H226047   6.174   0.418   1.833  2.1617  0.8482 -0.4132
 8695TIP3   OH226048   3.538   5.555   4.270  1.0612  0.7990  0.2600
 8695TIP3    H126049   3.624   5.519   4.294 -0.2860 -2.6913  0.3540
 8695TIP3    H226050   3.511   5.505   4.194 -0.7758  2.0788  0.0044
 8696TIP3   OH226051   0.102   2.021   1.000  0.2655 -0.2704 -0.1353
 8696TIP3    H126052   0.123   2.048   1.089  0.8770 -0.6586 -0.1548
 8696TIP3    H226053   0.102   1.925   1.003  0.1890 -0.2845 -0.5314
 8697TIP3   OH226054   1.634   1.515   3.778 -0.4279  0.3283 -0.5036
 8697TIP3    H126055   1.644   1.602   3.816  0.5479  0.9606 -2.1133
 8697TIP3    H226056   1.549   1.518   3.733 -1.0136 -0.0193  0.5445
 8698TIP3   OH226057   2.616   0.158   3.759 -0.3995  0.2571  0.1299
 8698TIP3    H126058   2.604   0.076   3.711  0.8749  0.3435 -0.3823
 8698TIP3    H226059   2.635   0.131   3.849  0.9885 -0.0780 -0.2357
 8699TIP3   OH226060   2.656   2.109   1.432 -0.1368 -0.1779 -0.6644
 8699TIP3    H126061   2.728   2.060   1.394  0.3507 -1.3187  1.5631
 8699TIP3    H226062   2.590   2.043   1.453 -0.7445  0.5063 -0.3650
 8700TIP3   OH226063   2.350   0.657   2.166 -0.1226 -0.2914 -0.4237
 8700TIP3    H126064   2.259   0.644   2.142 -0.2180 -0.4298 -0.0083
 8700TIP3    H226065   2.354   0.629   2.258  0.0638  0.9373 -0.0459
 8701TIP3   OH226066   6.961   4.060   0.179  0.9994  0.3722 -0.6060
 8701TIP3    H126067   6.959   4.013   0.096  1.5462  1.5370 -1.3119
 8701TIP3    H226068   6.995   3.997   0.242 -1.4364 -1.2315 -0.7566
 8702TIP3   OH226069   1.065   5.423   1.421  0.4354 -0.1167 -0.2438
 8702TIP3    H126070   1.025   5.468   1.347 -2.1654 -1.4851  0.2148
 8702TIP3    H226071   1.050   5.330   1.405  0.0032 -0.4745  1.8674
 8703TIP3   OH226072   6.313   0.177   5.155  0.3620  0.1867  0.0672
 8703TIP3    H126073   6.222   0.170   5.183  0.0648  1.2234 -0.5963
 8703TIP3    H226074   6.340   0.087   5.138 -0.0782 -0.2855  1.6630
 8704TIP3   OH226075   6.897   4.578   4.647 -0.4767  0.3027  0.5820
 8704TIP3    H126076   6.912   4.488   4.622 -0.6012  0.8237 -1.5147
 8704TIP3    H226077   6.802   4.587   4.649 -0.5224  0.9743 -1.7375
 8705TIP3   OH226078   0.475   5.876   0.722 -0.2818  0.2408 -0.4309
 8705TIP3    H126079   0.530   5.939   0.769  1.0258 -1.3721  0.2885
 8705TIP3    H226080   0.498   5.889   0.630  0.2897  0.5109 -0.2546
 8706TIP3   OH226081   0.311   4.731   4.156  0.0812 -0.0315  0.2408
 8706TIP3    H126082   0.231   4.721   4.207  0.1815 -0.2736  0.3528
 8706TIP3    H226083   0.380   4.696   4.212  0.3143  0.4720  0.2780
 8707TIP3   OH226084   4.855   0.845   1.096  0.3939  0.2726 -0.5250
 8707TIP3    H126085   4.924   0.800   1.145  1.8494  4.1394  1.3783
 8707TIP3    H226086   4.903   0.895   1.029 -0.6619  1.7376 -0.2391
 8708TIP3   OH226087   4.416   0.580   0.328 -0.0143  0.0529  0.3090
 8708TIP3    H126088   4.428   0.485   0.327 -0.0105  0.0515 -0.4021
 8708TIP3    H226089   4.329   0.594   0.292  0.1674  0.3370 -0.0293
 8709TIP3   OH226090   1.908   1.977   0.420 -0.2146  0.0936  0.1626
 8709TIP3    H126091   1.964   1.900   0.411  0.2980  0.5848 -1.1267
 8709TIP3    H226092   1.835   1.961   0.360 -0.5189  0.2578  0.4877
 8710TIP3   OH226093   1.267   4.543   3.732  0.2741  0.1538 -0.8742
 8710TIP3    H126094   1.289   4.450   3.724 -2.6171 -0.6222 -1.0623
 8710TIP3    H226095   1.256   4.557   3.826 -1.8963 -0.4692 -0.9813
 8711TIP3   OH226096   0.107   6.113   2.012 -0.4406  0.4204  0.8382
 8711TIP3    H126097   0.154   6.062   2.078  0.1390  0.2725  0.3255
 8711TIP3    H226098   0.127   6.068   1.929 -0.5938  0.9996  0.4827
 8712TIP3   OH226099   2.530   6.558   5.406 -0.2223  0.4896  0.1812
 8712TIP3    H126100   2.470   6.526   5.474  0.2735 -1.9908 -0.4450
 8712TIP3    H226101   2.570   6.637   5.444 -1.5880  0.4383  1.8402
 8713TIP3   OH226102   7.148   0.250   3.548  0.2787  0.9381  0.1502
 8713TIP3    H126103   7.085   0.215   3.609  1.1385 -0.8366  0.0680
 8713TIP3    H226104   7.115   0.225   3.461  0.1091  1.6965 -0.0152
 8714TIP3   OH226105   7.029   6.033   5.555  0.3738 -0.3600 -0.6676
 8714TIP3    H126106   7.103   5.997   5.604  1.1677 -0.6889 -2.0469
 8714TIP3    H226107   7.027   6.126   5.578  0.0695 -0.7098  0.7651
 8715TIP3   OH226108   2.104   1.061   3.641 -0.1481  0.2342 -0.2146
 8715TIP3    H126109   2.071   0.972   3.654 -0.6281  0.7181  2.6308
 8715TIP3    H226110   2.150   1.081   3.723 -1.9106  3.3203  0.1719
 8716TIP3   OH226111   4.042   0.772   1.442  0.2978  0.4066 -0.3265
 8716TIP3    H126112   3.996   0.804   1.365 -2.3325 -0.1366  0.8933
 8716TIP3    H226113   4.017   0.833   1.512  1.0235 -0.2091  0.4907
 8717TIP3   OH226114   3.058   2.869   5.701  0.2495  0.1075  0.0285
 8717TIP3    H126115   3.036   2.956   5.669  0.5452  0.2140  0.1149
 8717TIP3    H226116   3.002   2.858   5.778  1.2308  0.8086  0.8842
 8718TIP3   OH226117   5.225   0.991   5.585 -0.2310 -0.3302 -0.1667
 8718TIP3    H126118   5.307   0.982   5.635 -0.1180  0.0929 -0.2716
 8718TIP3    H226119   5.252   0.982   5.494 -0.1703  0.6016 -0.2556
 8719TIP3   OH226120   1.794   1.642   2.397  0.5508  0.1640  0.3506
 8719TIP3    H126121   1.744   1.688   2.329 -0.0553  0.6021  1.0642
 8719TIP3    H226122   1.758   1.554   2.397 -0.5231  0.5740  1.1051
 8720TIP3   OH226123   2.539   5.272   3.048 -0.1687  0.0835  0.0932
 8720TIP3    H126124   2.547   5.360   3.084 -0.7585  0.8135 -1.4326
 8720TIP3    H226125   2.583   5.277   2.963 -0.6642 -0.9366 -0.2465
 8721TIP3   OH226126   0.349   5.860   3.117 -0.2101  0.1029 -0.1067
 8721TIP3    H126127   0.354   5.929   3.184 -0.1018 -0.5977  0.6276
 8721TIP3    H226128   0.372   5.780   3.164  2.1171 -0.1173 -1.4637
 8722TIP3   OH226129   5.858   0.863   4.990 -0.1098  0.4157 -0.0712
 8722TIP3    H126130   5.906   0.862   4.907  0.4226  1.0803  0.2156
 8722TIP3    H226131   5.926   0.880   5.056 -0.5104 -0.2053  0.5101
 8723TIP3   OH226132   4.063   0.175   1.192  0.0102 -0.1144  0.1597
 8723TIP3    H126133   3.991   0.132   1.239  1.3980 -0.9703  1.6011
 8723TIP3    H226134   4.135   0.177   1.255  0.7484  2.3096 -0.6394
 8724TIP3   OH226135   6.597   2.952   0.570  0.0584  0.5629  0.6012
 8724TIP3    H126136   6.501   2.954   0.570  0.0485  0.1975  0.5706
 8724TIP3    H226137   6.619   2.859   0.582  0.3932  0.3735 -1.1487
 8725TIP3   OH226138   2.596   5.837   3.721 -0.1959  1.0909  0.6390
 8725TIP3    H126139   2.620   5.926   3.748  2.6132  0.4681  0.4707
 8725TIP3    H226140   2.604   5.785   3.800  0.1732  0.6443  0.3104
 8726TIP3   OH226141   0.877   2.454   1.837 -0.3695 -0.4606 -0.4347
 8726TIP3    H126142   0.829   2.470   1.756 -0.3549  1.2370 -0.1314
 8726TIP3    H226143   0.947   2.394   1.811 -1.6074 -1.6152 -1.2232
 8727TIP3   OH226144   4.529   4.097   2.793  0.1865 -0.5002 -0.0390
 8727TIP3    H126145   4.517   4.029   2.859  1.0294  0.4222  1.1040
 8727TIP3    H226146   4.479   4.066   2.717 -1.3121 -1.3031  1.2168
 8728TIP3   OH226147   6.063   0.265   2.294  0.1890 -0.2792 -0.0241
 8728TIP3    H126148   6.140   0.270   2.238  2.3860  0.2963  2.8025
 8728TIP3    H226149   6.047   0.355   2.321 -1.6945 -0.3552 -0.7220
 8729TIP3   OH226150   5.073   1.203   1.115 -0.0193 -0.5448  0.4585
 8729TIP3    H126151   5.145   1.267   1.111  0.6016 -1.3207 -2.1927
 8729TIP3    H226152   5.024   1.217   1.034 -0.6160 -2.5740  0.4336
 8730TIP3   OH226153   4.513   2.120   2.463 -0.1890 -0.4450 -0.0540
 8730TIP3    H126154   4.560   2.037   2.476 -0.1149 -0.9267 -2.7736
 8730TIP3    H226155   4.578   2.178   2.423 -0.7328  0.3545  0.2056
 8731TIP3   OH226156   0.797   3.004   0.172 -0.5151 -0.5176 -0.3632
 8731TIP3    H126157   0.880   2.957   0.178 -0.0581  0.2671 -0.4989
 8731TIP3    H226158   0.741   2.946   0.120 -0.3692 -1.4773  0.5015
 8732TIP3   OH226159   1.234   1.040   4.375 -0.2965  0.1012 -0.2773
 8732TIP3    H126160   1.194   1.091   4.446  0.2773 -0.1447  0.2315
 8732TIP3    H226161   1.212   1.089   4.296 -0.0856  0.9384  0.1625
 8733TIP3   OH226162   6.437   5.001   3.761  0.2376  0.4032  0.0223
 8733TIP3    H126163   6.475   4.913   3.761 -0.1336  0.2070 -1.6808
 8733TIP3    H226164   6.400   5.011   3.673 -1.7134  1.4168  0.9115
 8734TIP3   OH226165   4.676   1.294   1.120 -0.2793 -0.1846 -0.4441
 8734TIP3    H126166   4.614   1.333   1.182  0.3618 -0.4503  0.3808
 8734TIP3    H226167   4.754   1.348   1.127  0.3986 -1.2398  0.2489
 8735TIP3   OH226168   2.636   2.749   2.151  0.0644 -0.0877 -0.3581
 8735TIP3    H126169   2.637   2.656   2.130 -0.3915  0.0084 -0.8351
 8735TIP3    H226170   2.727   2.778   2.136  0.2088 -0.4535 -0.1988
 8736TIP3   OH226171   5.988   3.724   2.107 -0.2255  0.4363  0.1310
 8736TIP3    H126172   6.036   3.803   2.134 -1.1857  1.0249  0.1672
 8736TIP3    H226173   5.986   3.670   2.186  0.5013  0.3370  0.0875
 8737TIP3   OH226174   4.283   3.118   2.376 -0.2373  0.1368 -0.0257
 8737TIP3    H126175   4.350   3.051   2.391 -0.9078 -0.2481  1.4232
 8737TIP3    H226176   4.331   3.193   2.340  0.7652 -0.5624 -0.1795
 8738TIP3   OH226177   0.905   3.983   2.562  0.5142  0.3136  0.4505
 8738TIP3    H126178   0.879   3.929   2.487 -1.8092 -1.0286  2.1171
 8738TIP3    H226179   0.954   3.923   2.619  0.0823  0.6364  1.1694
 8739TIP3   OH226180   0.937   2.800   2.385  0.4065  0.0349 -0.1549
 8739TIP3    H126181   1.026   2.784   2.416 -0.2300 -0.3113  1.6035
 8739TIP3    H226182   0.949   2.857   2.309  2.0823  0.8831  0.6739
 8740TIP3   OH226183   6.568   3.957   2.214 -0.2779 -0.2986 -0.0812
 8740TIP3    H126184   6.509   3.888   2.244 -0.2857  0.1393  0.9618
 8740TIP3    H226185   6.635   3.962   2.282  1.3138 -1.1727 -1.5082
 8741TIP3   OH226186   3.350   6.251   5.362  0.1686 -0.4838 -0.0509
 8741TIP3    H126187   3.284   6.274   5.296 -1.2917  0.4892  1.6511
 8741TIP3    H226188   3.328   6.305   5.437  3.0450 -0.0548  0.5750
 8742TIP3   OH226189   1.137   0.770   3.241  0.1523  0.5052  0.0243
 8742TIP3    H126190   1.091   0.754   3.158  0.3622  0.7003 -0.1306
 8742TIP3    H226191   1.228   0.785   3.216 -0.3249  4.0298 -0.0881
 8743TIP3   OH226192   4.067   5.397   4.355  0.2169 -0.8006  0.6751
 8743TIP3    H126193   4.021   5.347   4.422 -0.2131  0.0192  1.0075
 8743TIP3    H226194   4.160   5.393   4.381  0.0075 -0.1092  1.5873
 8744TIP3   OH226195   4.469   4.645   0.162 -0.7620  0.3577  0.0734
 8744TIP3    H126196   4.446   4.564   0.116  0.4376  0.1814 -0.2544
 8744TIP3    H226197   4.468   4.712   0.093  0.5787  0.1757 -0.1583
 8745TIP3   OH226198   1.848   0.414   1.454 -0.7283  0.1972  0.6729
 8745TIP3    H126199   1.886   0.373   1.531 -3.1867 -2.9245  0.4308
 8745TIP3    H226200   1.806   0.493   1.486  0.3632  0.2588  2.0271
 8746TIP3   OH226201   5.661   6.589   5.526 -0.1277 -0.2147  0.5524
 8746TIP3    H126202   5.608   6.665   5.549 -0.6511 -0.4674  0.2073
 8746TIP3    H226203   5.731   6.588   5.591 -0.3984  0.2768  0.8570
 8747TIP3   OH226204   2.504   5.052   3.239  0.0069  0.6741  0.2909
 8747TIP3    H126205   2.558   5.091   3.171  0.0972 -0.4122 -0.2942
 8747TIP3    H226206   2.460   5.125   3.281 -0.4567  1.3322 -1.2856
 8748TIP3   OH226207   4.434   4.724   3.448 -0.2544  0.4401 -0.0091
 8748TIP3    H126208   4.460   4.714   3.540 -2.9381  1.2044  0.9161
 8748TIP3    H226209   4.452   4.816   3.428 -0.6072  0.5292  0.0797
 8749TIP3   OH226210   5.170   0.107   0.614  0.1818  0.0745 -0.0172
 8749TIP3    H126211   5.135   0.080   0.530  0.5621  0.0772 -0.1794
 8749TIP3    H226212   5.116   0.061   0.678 -0.1221  0.0903 -0.2607
 8750TIP3   OH226213   4.331   3.251   0.683 -0.4047 -1.2217  0.2180
 8750TIP3    H126214   4.278   3.186   0.636 -0.1005 -1.1020 -0.2854
 8750TIP3    H226215   4.330   3.329   0.628 -1.7453 -0.3682  1.3562
 8751TIP3   OH226216   0.735   2.024   2.659  0.3313 -0.3931 -0.0340
 8751TIP3    H126217   0.758   1.935   2.633 -0.8343 -0.5302 -0.6744
 8751TIP3    H226218   0.714   2.018   2.752 -0.0351 -0.8462 -0.1446
 8752TIP3   OH226219   5.961   2.453   5.685  0.7078 -0.3117  0.6120
 8752TIP3    H126220   5.920   2.370   5.711  0.0361 -0.0686  0.3512
 8752TIP3    H226221   5.924   2.518   5.745 -0.5452  0.1840 -0.6324
 8753TIP3   OH226222   6.188   0.252   4.734  0.2768  0.4780 -0.8643
 8753TIP3    H126223   6.207   0.320   4.800 -2.7999  0.3075  0.3421
 8753TIP3    H226224   6.212   0.170   4.777 -2.7933  0.2525  0.7068
 8754TIP3   OH226225   2.553   2.849   5.136 -0.4858 -0.3233  0.2507
 8754TIP3    H126226   2.465   2.836   5.100 -0.1887  0.0091 -0.6463
 8754TIP3    H226227   2.600   2.767   5.115 -0.8384 -0.8747  1.5604
 8755TIP3   OH226228   2.367   5.005   5.847 -0.7013  0.0240  0.2290
 8755TIP3    H126229   2.372   5.101   5.846 -0.7728  0.0884  1.9390
 8755TIP3    H226230   2.434   4.979   5.910 -1.0107 -1.0288  0.1416
 8756TIP3   OH226231   2.310   1.226   3.840 -0.1259  0.2427  0.6643
 8756TIP3    H126232   2.331   1.173   3.763  0.4868  0.7180  0.4975
 8756TIP3    H226233   2.372   1.196   3.907  0.5184  1.0277  0.4409
 8757TIP3   OH226234   4.107   5.052   2.063  0.3075  0.8683 -0.2811
 8757TIP3    H126235   4.027   5.031   2.111  0.8274 -0.4745  0.0320
 8757TIP3    H226236   4.107   5.148   2.056 -0.1461  1.0502  1.7471
 8758TIP3   OH226237   5.094   5.193   5.343  0.0626 -0.0562 -0.4257
 8758TIP3    H126238   5.085   5.226   5.253 -0.8936  1.0098  0.0324
 8758TIP3    H226239   5.111   5.271   5.395  1.3988 -0.7621  0.2441
 8759TIP3   OH226240   1.362   6.581   0.195 -0.3452 -0.1785 -0.5276
 8759TIP3    H126241   1.375   6.663   0.243  1.0076 -0.6053 -0.1197
 8759TIP3    H226242   1.277   6.548   0.226 -0.3684  0.4995  0.1546
 8760TIP3   OH226243   5.601   6.612   3.678  0.7700 -0.4067  0.4581
 8760TIP3    H126244   5.574   6.641   3.765 -0.0045 -0.7040  0.3295
 8760TIP3    H226245   5.525   6.564   3.645 -0.0695  2.0165 -1.4875
 8761TIP3   OH226246   3.617   5.862   3.052 -0.0822 -0.3281  0.2046
 8761TIP3    H126247   3.701   5.846   3.008 -0.2341 -0.1154 -0.1592
 8761TIP3    H226248   3.638   5.855   3.146  0.6283  1.0543  0.1742
 8762TIP3   OH226249   6.862   0.393   2.600 -0.0183  0.0570  0.4284
 8762TIP3    H126250   6.874   0.483   2.569  1.4584 -0.2797 -0.0603
 8762TIP3    H226251   6.796   0.400   2.669  0.2618  1.5528  0.5801
 8763TIP3   OH226252   5.340   6.565   3.244  0.0750 -0.5627 -0.1654
 8763TIP3    H126253   5.275   6.495   3.249  0.0954 -0.5826 -0.1823
 8763TIP3    H226254   5.292   6.639   3.207 -0.2765 -0.1801  1.0182
 8764TIP3   OH226255   6.597   4.491   2.163  0.7530 -0.0337 -0.4758
 8764TIP3    H126256   6.613   4.397   2.174 -0.4406 -0.4556 -1.9750
 8764TIP3    H226257   6.538   4.496   2.088  2.5814  2.0501 -1.8824
 8765TIP3   OH226258   1.426   2.685   1.237  0.0525 -0.0110 -0.1616
 8765TIP3    H126259   1.457   2.599   1.265  1.1412 -0.5849 -2.8460
 8765TIP3    H226260   1.446   2.742   1.311  0.2719 -1.8415  1.2823
 8766TIP3   OH226261   0.073  -0.008   1.830  0.4921  0.4044  0.1182
 8766TIP3    H126262  -0.010   0.014   1.873 -0.4036  1.7447 -2.1620
 8766TIP3    H226263   0.129   0.069   1.845  0.4654  0.5273 -0.4098
 8767TIP3   OH226264   4.227   6.072   1.170  0.4001 -0.2953 -0.6603
 8767TIP3    H126265   4.141   6.043   1.138  0.0463  0.3234 -0.3043
 8767TIP3    H226266   4.263   5.995   1.215 -0.2587 -0.3751 -0.2477
 8768TIP3   OH226267   2.071   4.288   5.463 -0.3054  0.5780  0.1715
 8768TIP3    H126268   2.091   4.256   5.551  0.4770 -0.1716 -0.2581
 8768TIP3    H226269   2.155   4.321   5.430 -1.0650  3.1558  0.5923
 8769TIP3   OH226270   0.484   4.659   5.318 -0.1004 -0.0453 -0.0684
 8769TIP3    H126271   0.406   4.714   5.318 -0.7694 -0.9587 -0.6849
 8769TIP3    H226272   0.509   4.652   5.226 -1.0493 -2.1434 -0.2115
 8770TIP3   OH226273   1.506   2.284   2.495 -0.1796 -0.0678  0.2927
 8770TIP3    H126274   1.530   2.226   2.567  1.6549  0.6414  0.3245
 8770TIP3    H226275   1.574   2.270   2.429 -0.9510  0.4338 -0.6378
 8771TIP3   OH226276   2.521   1.809   1.223  0.0395 -0.2294 -0.1346
 8771TIP3    H126277   2.545   1.785   1.312  1.0418 -0.0472 -0.3411
 8771TIP3    H226278   2.467   1.888   1.233 -1.7588 -1.4582  0.4242
 8772TIP3   OH226279   6.768   1.875   4.036  0.1112 -0.3567  0.1191
 8772TIP3    H126280   6.853   1.890   4.077  0.5320 -2.9271  0.3544
 8772TIP3    H226281   6.783   1.888   3.943  0.4301  0.4970  0.2871
 8773TIP3   OH226282   1.358   6.516   4.825  0.3823  0.1934  0.1567
 8773TIP3    H126283   1.436   6.461   4.837  0.4864 -0.8646 -3.9075
 8773TIP3    H226284   1.285   6.455   4.835  0.4229 -0.3343 -2.1568
 8774TIP3   OH226285   6.917   2.266   5.837 -0.4663 -0.3714  0.1488
 8774TIP3    H126286   6.941   2.349   5.879 -1.7921 -0.8343  1.9785
 8774TIP3    H226287   6.842   2.289   5.782 -1.5211 -0.4785  1.4763
 8775TIP3   OH226288   1.282   5.361   0.554 -0.2357  0.8070  0.0878
 8775TIP3    H126289   1.258   5.309   0.477  0.9977  1.5608 -0.8292
 8775TIP3    H226290   1.214   5.428   0.560  0.8781  2.1638 -1.7420
 8776TIP3   OH226291   3.596   1.944   3.581  0.1913 -0.0564 -0.1644
 8776TIP3    H126292   3.604   2.032   3.617 -1.1479 -0.2875  0.7614
 8776TIP3    H226293   3.685   1.908   3.584  1.0965  1.7925 -2.0876
 8777TIP3   OH226294   7.110   3.138   1.778  0.0656 -0.7842  0.2165
 8777TIP3    H126295   7.058   3.205   1.733 -0.5782 -1.3165  0.1421
 8777TIP3    H226296   7.200   3.168   1.771 -0.1610 -0.2008 -0.2899
 8778TIP3   OH226297   6.007   0.145   5.158 -0.1594 -0.0430 -0.0281
 8778TIP3    H126298   6.060   0.083   5.208 -0.3017 -0.5209 -0.4565
 8778TIP3    H226299   5.928   0.158   5.211 -0.4055 -0.7104 -0.2171
 8779TIP3   OH226300   3.600   2.417   1.267 -0.0948  0.0498  0.2138
 8779TIP3    H126301   3.600   2.510   1.290  0.9149  0.3931 -1.0695
 8779TIP3    H226302   3.627   2.372   1.348 -1.1554  0.7981  1.0095
 8780TIP3   OH226303   6.164   4.035   2.612  0.2387  0.6299  0.0940
 8780TIP3    H126304   6.209   4.025   2.696 -1.9296  0.7013  1.3523
 8780TIP3    H226305   6.173   3.950   2.570  0.3613  0.2009  0.9521
 8781TIP3   OH226306   0.557   4.058   1.845  0.5604  0.4154  0.4804
 8781TIP3    H126307   0.533   3.983   1.791  0.7637  2.3394 -2.5723
 8781TIP3    H226308   0.591   4.021   1.926 -3.4719 -2.6467  1.0556
 8782TIP3   OH226309   4.557   3.588   2.256  0.1127  0.6587 -0.3541
 8782TIP3    H126310   4.633   3.631   2.295 -0.5323  0.8849  0.7119
 8782TIP3    H226311   4.567   3.601   2.162  1.8922 -0.1773 -0.3109
 8783TIP3   OH226312   0.768   6.354   1.198 -0.5276 -0.8010  0.3578
 8783TIP3    H126313   0.806   6.435   1.164 -0.0123 -1.4402 -0.6296
 8783TIP3    H226314   0.697   6.334   1.137 -4.0728  1.5308  3.3236
 8784TIP3   OH226315   4.039   5.685   3.153  0.1834  0.1484  0.2573
 8784TIP3    H126316   4.057   5.610   3.210 -0.1032  0.2732  0.5205
 8784TIP3    H226317   4.073   5.659   3.068 -1.8075 -1.1891 -0.2215
 8785TIP3   OH226318   5.883   4.070   3.410  0.1361 -0.4969 -0.0712
 8785TIP3    H126319   5.904   3.998   3.469  1.2733 -0.9937 -1.0583
 8785TIP3    H226320   5.813   4.036   3.355  2.5705 -1.9858 -2.4681
 8786TIP3   OH226321   4.127   2.292   3.563  0.2958  0.0783  0.1130
 8786TIP3    H126322   4.121   2.247   3.647  1.4356 -0.5547 -0.1156
 8786TIP3    H226323   4.099   2.382   3.581 -0.7055 -0.3650  0.8777
 8787TIP3   OH226324   0.761   2.674   1.403 -0.2255 -0.1424 -0.4467
 8787TIP3    H126325   0.669   2.652   1.392 -0.3223  0.5623 -1.1591
 8787TIP3    H226326   0.776   2.746   1.342  0.9877 -0.7366 -0.8922
 8788TIP3   OH226327   6.945   2.585   2.421 -0.0417 -0.4866 -0.3805
 8788TIP3    H126328   6.993   2.517   2.469  0.3522  0.0613  0.0056
 8788TIP3    H226329   7.012   2.647   2.392 -0.5946  0.8527  1.0876
 8789TIP3   OH226330   5.870   0.628   5.573 -0.2400  0.2832  0.2127
 8789TIP3    H126331   5.906   0.638   5.661  0.9685 -1.3624 -0.0346
 8789TIP3    H226332   5.876   0.715   5.534  1.2415  0.5792  1.0368
 8790TIP3   OH226333   0.398   0.563   1.598  0.5317  0.4120 -0.0855
 8790TIP3    H126334   0.320   0.569   1.654  0.2618  2.0076 -0.5707
 8790TIP3    H226335   0.464   0.616   1.642  1.1237 -0.3151 -0.0656
 8791TIP3   OH226336   0.128   3.770   1.474 -0.6904  0.2205 -0.6646
 8791TIP3    H126337   0.081   3.695   1.509 -0.9010  1.0392  0.8994
 8791TIP3    H226338   0.209   3.734   1.438 -0.5985 -0.7104  0.4433
 8792TIP3   OH226339   6.636   5.768   0.446  0.0264 -0.2290 -0.3324
 8792TIP3    H126340   6.671   5.815   0.521 -0.0237 -0.2128 -0.3196
 8792TIP3    H226341   6.559   5.819   0.418 -0.3375 -0.5869  0.0031
 8793TIP3   OH226342   1.352   2.341   4.776 -0.2674  0.3332  0.4245
 8793TIP3    H126343   1.347   2.284   4.700 -0.8855  0.4959  0.3334
 8793TIP3    H226344   1.441   2.331   4.808  0.2876  1.0012 -0.8783
 8794TIP3   OH226345   5.835   6.441   2.739 -0.5901  0.1040 -0.1176
 8794TIP3    H126346   5.746   6.405   2.737 -0.4001 -0.3994  0.4920
 8794TIP3    H226347   5.882   6.394   2.671 -0.6344 -0.0370 -0.0503
 8795TIP3   OH226348   1.767   1.199   0.930 -0.1754 -0.4928 -0.3974
 8795TIP3    H126349   1.702   1.210   0.860 -0.7023  2.0799  0.3671
 8795TIP3    H226350   1.850   1.224   0.888 -0.3822  0.3626 -0.3248
 8796TIP3   OH226351   3.849   4.782   1.188 -0.4934 -0.6490 -0.2293
 8796TIP3    H126352   3.941   4.766   1.211 -0.0794  1.8802  0.2137
 8796TIP3    H226353   3.844   4.765   1.094  0.9865  1.1461 -0.6898
 8797TIP3   OH226354   2.151   2.897   0.578 -0.5375 -0.4628  0.1059
 8797TIP3    H126355   2.195   2.841   0.515 -1.0758 -2.4601  1.4217
 8797TIP3    H226356   2.149   2.846   0.659 -0.8774  1.5535  1.4476
 8798TIP3   OH226357   1.033   2.809   5.546  0.3408 -0.1206 -0.2316
 8798TIP3    H126358   1.029   2.836   5.454  0.8533 -0.7959 -0.4599
 8798TIP3    H226359   0.982   2.728   5.550 -1.3995  0.9568  0.4966
 8799TIP3   OH226360   6.465   6.152   2.659  0.1394 -0.1965 -0.4384
 8799TIP3    H126361   6.554   6.122   2.642  1.2274  0.9587  2.6429
 8799TIP3    H226362   6.412   6.072   2.656  1.2574 -0.9287 -2.0908
 8800TIP3   OH226363   1.080   0.291   5.347 -0.1569  0.0927 -0.3676
 8800TIP3    H126364   1.092   0.196   5.344 -0.2346  0.0606  0.2067
 8800TIP3    H226365   1.032   0.312   5.267  0.1413 -0.3097 -0.6546
 8801TIP3   OH226366   1.930   0.532   2.555 -0.3392  0.4326  0.5631
 8801TIP3    H126367   1.939   0.620   2.592  1.9871  0.6196 -0.2456
 8801TIP3    H226368   2.001   0.482   2.596 -2.0231 -1.3212  1.5275
 8802TIP3   OH226369   0.362   3.536   4.523 -0.4101 -0.9503  0.7323
 8802TIP3    H126370   0.438   3.476   4.518 -0.2953 -0.8578  1.3202
 8802TIP3    H226371   0.286   3.479   4.510 -0.2277 -0.9624 -0.4420
 8803TIP3   OH226372   7.151   6.042   4.561  0.1766 -0.0713  0.1523
 8803TIP3    H126373   7.179   6.113   4.619  1.3072 -0.1712 -0.2463
 8803TIP3    H226374   7.167   6.076   4.473 -3.9306  1.1191 -0.3387
 8804TIP3   OH226375   1.042   5.251   2.058  0.7716 -0.0361  0.2704
 8804TIP3    H126376   1.011   5.161   2.046  1.1165 -0.2123  0.6575
 8804TIP3    H226377   1.087   5.272   1.976  1.0881 -0.3857  0.3494
 8805TIP3   OH226378   1.030   2.879   0.751 -0.1456 -0.1343 -0.0741
 8805TIP3    H126379   0.996   2.866   0.663  0.1704 -2.1483  0.0436
 8805TIP3    H226380   1.096   2.947   0.741 -1.9519  1.6047 -0.8593
 8806TIP3   OH226381   1.137   3.960   2.761 -0.4294 -0.3938  0.1946
 8806TIP3    H126382   1.110   3.872   2.734  0.2208 -0.5985  0.1894
 8806TIP3    H226383   1.193   3.991   2.690  1.0721 -0.8276  1.1237
 8807TIP3   OH226384   2.087   2.883   3.991 -0.0084 -0.3619  0.5468
 8807TIP3    H126385   2.150   2.825   4.033 -0.5480 -0.5467  1.1127
 8807TIP3    H226386   2.124   2.899   3.904  1.3657  0.4229  1.2383
 8808TIP3   OH226387   5.653   0.400   0.030  0.0443 -0.2314 -0.0071
 8808TIP3    H126388   5.568   0.442   0.020  0.2781  0.4533  0.7468
 8808TIP3    H226389   5.639   0.329   0.092 -0.3568 -1.3102 -1.2970
 8809TIP3   OH226390   6.430   0.971   4.976  0.0555  0.3454  0.0972
 8809TIP3    H126391   6.442   0.881   5.007  1.4340  0.8882  1.1992
 8809TIP3    H226392   6.409   0.961   4.882  1.4265 -1.0587 -0.0962
 8810TIP3   OH226393   7.202   3.934   1.281 -0.4156  0.3442 -0.6690
 8810TIP3    H126394   7.174   4.025   1.295  0.3005  0.4342  0.2865
 8810TIP3    H226395   7.237   3.907   1.365  2.1244  0.1613 -1.6948
 8811TIP3   OH226396   6.743   0.003   2.392  0.1024 -0.3983 -0.0867
 8811TIP3    H126397   6.787   0.047   2.465  0.5758 -0.6150 -0.2350
 8811TIP3    H226398   6.692   0.072   2.349 -0.9014 -0.4429  0.9763
 8812TIP3   OH226399   0.871   4.254   2.497  0.1254 -0.1268  0.3005
 8812TIP3    H126400   0.953   4.240   2.451  0.5100 -0.4163  1.0709
 8812TIP3    H226401   0.857   4.173   2.547  0.2430  0.5692  1.4992
 8813TIP3   OH226402   2.694   0.135   2.690 -0.0429  0.0819 -0.0072
 8813TIP3    H126403   2.701   0.210   2.749  0.5724  0.3238 -0.3777
 8813TIP3    H226404   2.784   0.103   2.681 -0.1662 -0.1082 -0.6112
 8814TIP3   OH226405   2.461   1.868   5.489  0.3559  0.4158 -0.0057
 8814TIP3    H126406   2.426   1.851   5.402 -0.2652 -0.9434  0.4816
 8814TIP3    H226407   2.517   1.792   5.508 -0.4373  0.1099  1.2347
 8815TIP3   OH226408   2.445   5.862   5.512 -0.0835  0.1847 -0.1978
 8815TIP3    H126409   2.504   5.934   5.534 -0.4159 -0.1785  2.1533
 8815TIP3    H226410   2.485   5.785   5.551 -1.2556 -0.3600 -0.0116
 8816TIP3   OH226411   4.077   0.473   2.665 -0.3088 -0.7234  0.2244
 8816TIP3    H126412   4.103   0.391   2.707  0.3419 -0.2937  0.6948
 8816TIP3    H226413   4.039   0.525   2.736  1.3297  0.2351  0.4682
 8817TIP3   OH226414   6.020   0.455   4.560  0.3392 -0.2220 -0.4374
 8817TIP3    H126415   6.000   0.368   4.595  0.6838  0.4280  1.4808
 8817TIP3    H226416   6.096   0.484   4.610 -0.9440  1.9718  0.3851
 8818TIP3   OH226417   4.705   2.043   0.970 -0.3364  0.1248 -0.4531
 8818TIP3    H126418   4.676   2.126   0.933  1.4970  0.1873 -1.9409
 8818TIP3    H226419   4.763   2.068   1.042 -4.3199  0.0033  3.1422
 8819TIP3   OH226420   0.828   5.466  -0.026 -0.1603  0.2958 -0.1083
 8819TIP3    H126421   0.846   5.375  -0.004  0.7832  0.0905 -1.6385
 8819TIP3    H226422   0.857   5.515   0.051  0.1442 -0.6167  0.3724
 8820TIP3   OH226423   3.251   3.099   4.346  0.2934  0.6884  0.1223
 8820TIP3    H126424   3.312   3.146   4.403  0.0682 -1.0815  1.9089
 8820TIP3    H226425   3.169   3.148   4.354 -0.4446 -0.8253  3.3673
 8821TIP3   OH226426   3.494   3.730   4.711 -0.1280 -0.5814  0.0685
 8821TIP3    H126427   3.430   3.660   4.701  0.4749 -1.1790  0.3221
 8821TIP3    H226428   3.531   3.742   4.624 -0.7151 -0.0912 -0.1251
 8822TIP3   OH226429   2.418   5.308   0.284  0.6266 -0.4303 -0.1572
 8822TIP3    H126430   2.405   5.402   0.276 -1.1059 -0.6876 -0.8090
 8822TIP3    H226431   2.415   5.292   0.379  0.0866  0.0687 -0.0841
 8823TIP3   OH226432   4.002   4.271   3.500 -0.4110  0.5988  0.3682
 8823TIP3    H126433   3.995   4.310   3.587 -0.0482 -1.9827  1.6590
 8823TIP3    H226434   4.091   4.235   3.496 -0.3732  0.7837 -1.1413
 8824TIP3   OH226435   3.542   1.183   2.518 -0.2782  0.2584 -0.0213
 8824TIP3    H126436   3.596   1.159   2.594 -1.5712 -0.6228  0.6542
 8824TIP3    H226437   3.483   1.250   2.552 -0.9952 -0.2844 -0.1701
 8825TIP3   OH226438   4.570   3.965   4.123 -0.3332 -0.5178 -0.0211
 8825TIP3    H126439   4.554   3.940   4.032  0.8327 -2.9868  0.3536
 8825TIP3    H226440   4.665   3.964   4.132 -0.1407  3.6310  0.3266
 8826TIP3   OH226441   0.997   5.502   2.421  0.6801 -0.1971 -0.2298
 8826TIP3    H126442   0.979   5.466   2.508 -1.3308  0.0517 -0.5061
 8826TIP3    H226443   1.060   5.440   2.382  0.8434 -0.8447  1.0274
 8827TIP3   OH226444   2.820   3.657   0.232 -0.0093  0.1345 -0.0169
 8827TIP3    H126445   2.896   3.708   0.260 -1.4559  1.4679  1.8309
 8827TIP3    H226446   2.786   3.705   0.157  0.2421  0.3019 -0.0254
 8828TIP3   OH226447   7.068   1.096   3.484 -0.3034 -0.1686 -0.4056
 8828TIP3    H126448   6.996   1.121   3.427  0.4884 -0.7930 -1.7363
 8828TIP3    H226449   7.066   1.000   3.485 -0.6069 -0.1832  1.0652
 8829TIP3   OH226450   0.180   4.566   2.074  0.5988 -0.5861 -0.5638
 8829TIP3    H126451   0.170   4.660   2.087 -0.3225 -0.6630 -0.6351
 8829TIP3    H226452   0.152   4.551   1.984 -0.1995 -1.0515 -0.2508
 8830TIP3   OH226453   2.345   0.740   0.043  0.3044  0.3976 -0.1923
 8830TIP3    H126454   2.310   0.809   0.099  1.0338  0.4257  0.2344
 8830TIP3    H226455   2.415   0.782  -0.007  0.6332  0.0119 -0.0606
 8831TIP3   OH226456   2.425   2.373   0.851 -0.3030 -0.7177  0.0297
 8831TIP3    H126457   2.361   2.387   0.780 -3.1314 -1.2872  2.2889
 8831TIP3    H226458   2.406   2.285   0.884  1.6899 -0.8979  0.8303
 8832TIP3   OH226459   4.965   5.630   4.313 -0.0305 -0.3809  0.2840
 8832TIP3    H126460   5.012   5.661   4.391  1.2349 -1.6968  0.0862
 8832TIP3    H226461   4.874   5.622   4.342 -0.0280  1.3511  0.9377
 8833TIP3   OH226462   2.792   4.295   1.746 -0.2079  0.2013 -0.2579
 8833TIP3    H126463   2.806   4.369   1.686 -0.8828  1.3651  0.9770
 8833TIP3    H226464   2.856   4.309   1.816 -0.2811 -0.4436 -0.0622
 8834TIP3   OH226465   1.420   4.816   2.771  0.1397 -0.0020  0.0112
 8834TIP3    H126466   1.406   4.726   2.745 -0.4418  0.0381  0.1795
 8834TIP3    H226467   1.494   4.812   2.832  0.4520 -0.2933 -0.3866
 8835TIP3   OH226468   3.204   6.371   1.046 -0.2381  0.1035 -0.7207
 8835TIP3    H126469   3.251   6.420   1.113  1.1121 -0.5348 -1.1486
 8835TIP3    H226470   3.114   6.402   1.051 -0.2860 -0.2666  1.6817
 8836TIP3   OH226471   6.665   2.374   1.425 -0.3810  0.2505  0.2489
 8836TIP3    H126472   6.581   2.333   1.446 -0.3706  0.2695  0.3276
 8836TIP3    H226473   6.642   2.459   1.388 -0.4066  0.1269 -0.0215
 8837TIP3   OH226474   5.348   5.316   0.692 -0.1955  0.6049  0.1275
 8837TIP3    H126475   5.443   5.309   0.702 -0.2543 -0.9622 -0.1283
 8837TIP3    H226476   5.313   5.262   0.762 -0.8825  0.4132 -0.3561
 8838TIP3   OH226477   3.995   4.321   2.894 -0.1662  0.3398  0.6310
 8838TIP3    H126478   3.995   4.297   2.987 -0.7620  0.2164  0.6024
 8838TIP3    H226479   4.006   4.238   2.847  0.2285  0.4129  0.5925
 8839TIP3   OH226480   1.149   5.172   3.458 -0.4086 -0.1606  0.0820
 8839TIP3    H126481   1.074   5.218   3.496 -0.0322 -0.3664  1.1157
 8839TIP3    H226482   1.112   5.119   3.388 -1.0353  0.7225 -0.2632
 8840TIP3   OH226483   4.020   2.598   4.942 -0.5516  0.0093 -0.2178
 8840TIP3    H126484   3.930   2.572   4.959 -0.5156  0.0192 -0.0053
 8840TIP3    H226485   4.020   2.693   4.956 -1.1358  0.4899 -2.9081
 8841TIP3   OH226486   5.883   5.387   2.460  0.7602  0.7852  0.1188
 8841TIP3    H126487   5.923   5.437   2.388  0.4177  0.3712 -0.3711
 8841TIP3    H226488   5.945   5.395   2.532  1.0222  1.3680 -0.1649
 8842TIP3   OH226489   3.312   0.065   5.249 -1.1084 -0.3291 -0.1441
 8842TIP3    H126490   3.387   0.037   5.301 -0.6564  0.3962 -0.3956
 8842TIP3    H226491   3.313   0.008   5.172 -0.6306 -0.1117 -0.2981
 8843TIP3   OH226492   3.321   5.066   3.331  0.5389 -0.3725 -0.4289
 8843TIP3    H126493   3.309   5.148   3.282  0.4707 -0.8150 -1.1672
 8843TIP3    H226494   3.405   5.032   3.302  0.7350 -0.3897  0.1466
 8844TIP3   OH226495   3.680   1.116   3.127 -0.2156 -0.0638 -0.4214
 8844TIP3    H126496   3.738   1.182   3.165  0.1663  0.4303 -1.7892
 8844TIP3    H226497   3.678   1.137   3.034 -0.0694 -2.0170 -0.9003
 8845TIP3   OH226498   7.081   0.035   2.981  0.4651 -0.7486 -0.5130
 8845TIP3    H126499   7.073   0.126   2.952 -1.0211 -0.6164  0.2272
 8845TIP3    H226500   7.172   0.026   3.008  0.4545  0.7399  0.1102
 8846TIP3   OH226501   7.058   3.952   3.048 -0.0822  0.3366 -0.0021
 8846TIP3    H126502   7.041   3.985   3.137  0.5406  0.7202 -0.0203
 8846TIP3    H226503   7.046   3.857   3.056  1.2216  0.2084  0.8143
 8847TIP3   OH226504  -0.019   4.468   0.824  0.4802  0.1916 -0.4381
 8847TIP3    H126505  -0.005   4.394   0.766 -1.5500  0.7055 -1.7048
 8847TIP3    H226506   0.040   4.536   0.792 -1.1296  0.7229 -2.5122
 8848TIP3   OH226507   4.509   0.142   0.691 -0.0713 -0.1001 -0.3145
 8848TIP3    H126508   4.494   0.201   0.765  0.4799  0.0612 -0.3333
 8848TIP3    H226509   4.598   0.159   0.663 -0.3936  0.1003 -1.2551
 8849TIP3   OH226510   5.697   0.831   1.699  0.5056 -0.1319 -0.2329
 8849TIP3    H126511   5.730   0.919   1.718  0.5853 -0.0672 -0.6439
 8849TIP3    H226512   5.755   0.799   1.630  0.0641 -0.2434 -0.5553
 8850TIP3   OH226513   4.716   2.585   1.440 -0.6221 -0.3016  0.1262
 8850TIP3    H126514   4.799   2.579   1.488 -0.8249 -1.0552  0.3959
 8850TIP3    H226515   4.688   2.676   1.452  0.1817 -0.0322 -0.0015
 8851TIP3   OH226516   1.299   2.286   5.808 -0.2296  0.4445 -0.0229
 8851TIP3    H126517   1.217   2.263   5.765  0.4663 -1.3879 -0.4502
 8851TIP3    H226518   1.356   2.317   5.737 -0.1116  0.4432  0.0707
 8852TIP3   OH226519   6.752   5.106   1.661 -0.2376  0.0709  0.0034
 8852TIP3    H126520   6.674   5.134   1.709 -1.4196  1.1620 -2.4002
 8852TIP3    H226521   6.823   5.157   1.701 -1.4554  2.2648 -0.4752
 8853TIP3   OH226522   5.940   5.133   4.453  0.5670 -0.3371  0.1067
 8853TIP3    H126523   5.998   5.161   4.383 -0.2774  0.9031 -0.1335
 8853TIP3    H226524   5.890   5.060   4.416  0.4984 -0.0327 -0.4078
 8854TIP3   OH226525   4.499   5.032   5.736 -0.1294 -0.4875 -0.2224
 8854TIP3    H126526   4.456   5.099   5.683  1.7234  0.6006 -0.4245
 8854TIP3    H226527   4.498   4.954   5.680 -1.3930 -0.3741 -0.3887
 8855TIP3   OH226528   2.963   5.915   1.783  0.6554  0.0362 -0.7941
 8855TIP3    H126529   2.931   5.842   1.836 -0.2163  0.7339 -0.3321
 8855TIP3    H226530   3.008   5.873   1.710  0.7949 -0.9547 -0.1613
 8856TIP3   OH226531   3.135   3.751   2.840  0.0310 -0.0544 -0.2109
 8856TIP3    H126532   3.158   3.802   2.762  3.0462 -0.0873  0.5147
 8856TIP3    H226533   3.142   3.660   2.812 -1.9560 -0.1251 -0.6226
 8857TIP3   OH226534   6.870   4.557   5.144  0.2878  0.0649  0.8600
 8857TIP3    H126535   6.809   4.560   5.218  0.2715  0.3123  0.8397
 8857TIP3    H226536   6.957   4.560   5.185  0.2943 -0.6589  0.9039
 8858TIP3   OH226537   5.733   6.292   4.441 -0.7301  0.6890 -0.2835
 8858TIP3    H126538   5.649   6.256   4.471  0.3999 -1.3457  0.6843
 8858TIP3    H226539   5.781   6.310   4.522 -0.0047  1.3058 -0.8331
 8859TIP3   OH226540   5.559   0.489   3.612 -0.7629  0.6877 -0.1104
 8859TIP3    H126541   5.548   0.400   3.580 -1.1811  0.5236  0.4697
 8859TIP3    H226542   5.637   0.485   3.668 -1.4910  0.3936  0.9108
 8860TIP3   OH226543   5.345   0.399   4.491  0.4360 -0.0789  0.2938
 8860TIP3    H126544   5.421   0.452   4.515 -0.9225  2.2493 -0.2087
 8860TIP3    H226545   5.331   0.341   4.565  1.3276  1.1050  1.4394
 8861TIP3   OH226546   0.286   4.208   1.068 -0.3214 -0.1307 -0.2202
 8861TIP3    H126547   0.288   4.250   1.154 -0.0646  1.2370 -0.8710
 8861TIP3    H226548   0.351   4.137   1.074  0.1801  0.3822  0.5050
 8862TIP3   OH226549   5.748   2.755   2.723  0.0683  0.1150  0.1339
 8862TIP3    H126550   5.764   2.702   2.645  0.0696  2.1863 -1.3473
 8862TIP3    H226551   5.825   2.742   2.778  0.1537 -1.2313 -0.2710
 8863TIP3   OH226552   1.769   5.904   0.421 -0.6171  0.3378  0.0339
 8863TIP3    H126553   1.828   5.887   0.348  1.1067  0.4313  1.3400
 8863TIP3    H226554   1.776   5.998   0.437  2.1202 -0.1498  2.6963
 8864TIP3   OH226555   4.931   4.968   4.887 -0.9851  0.2035  0.0891
 8864TIP3    H126556   5.003   4.927   4.935 -0.3816  1.1268 -0.0187
 8864TIP3    H226557   4.895   5.032   4.947 -1.0131  0.5117 -0.2556
 8865TIP3   OH226558   7.199   4.253   4.680 -0.5322  0.1448 -0.3180
 8865TIP3    H126559   7.121   4.198   4.670  0.3724 -1.2428 -0.0741
 8865TIP3    H226560   7.208   4.297   4.596 -0.2346 -1.5334 -1.2015
 8866TIP3   OH226561   4.386   5.177   3.247  0.5029 -0.1991  0.3905
 8866TIP3    H126562   4.412   5.100   3.197  0.7637 -0.3558  0.7618
 8866TIP3    H226563   4.411   5.251   3.193 -2.3614 -0.3336 -1.3521
 8867TIP3   OH226564   0.501   1.483   0.039  0.1068 -0.3462  0.5201
 8867TIP3    H126565   0.478   1.556  -0.019  4.2362  0.5463 -0.3224
 8867TIP3    H226566   0.544   1.524   0.114 -0.5895 -1.7768  1.7601
 8868TIP3   OH226567   6.866   2.248   0.651  0.2559  0.0475  0.1507
 8868TIP3    H126568   6.868   2.331   0.602 -3.8910  1.2386  1.5595
 8868TIP3    H226569   6.935   2.258   0.717  2.6957  0.4250 -2.2644
 8869TIP3   OH226570   2.869   2.978   1.649 -0.0893  0.3197 -0.4682
 8869TIP3    H126571   2.933   2.999   1.580  0.3439  2.3002  0.4454
 8869TIP3    H226572   2.801   2.928   1.604  2.1336 -2.0329 -1.4616
 8870TIP3   OH226573   3.815   1.693   1.240 -0.9248 -0.4231  0.9564
 8870TIP3    H126574   3.871   1.754   1.191 -1.6711  1.1754  1.9980
 8870TIP3    H226575   3.871   1.618   1.257  0.4943  0.5512  0.7979
 8871TIP3   OH226576   4.551   3.789   0.939  0.2132 -0.4378  0.3038
 8871TIP3    H126577   4.552   3.704   0.984 -1.5213 -0.5900  0.1234
 8871TIP3    H226578   4.633   3.791   0.890  0.9712 -1.3633  1.4698
 8872TIP3   OH226579   4.821   2.282   3.981 -0.1044 -0.4566  0.0991
 8872TIP3    H126580   4.754   2.253   3.918 -1.2206  1.1915  0.4475
 8872TIP3    H226581   4.881   2.335   3.929  0.6981 -1.5420 -0.1188
 8873TIP3   OH226582   3.013   4.350   1.245 -0.1378  0.3703 -0.5782
 8873TIP3    H126583   2.919   4.357   1.234 -0.0389 -0.8177 -2.7401
 8873TIP3    H226584   3.032   4.257   1.237  1.1845  0.5388  0.2274
 8874TIP3   OH226585   0.441   0.485   3.948  0.3057 -0.1566  0.0826
 8874TIP3    H126586   0.438   0.458   4.040  0.8355 -1.2161 -0.1883
 8874TIP3    H226587   0.522   0.447   3.915  1.6917  2.7252 -0.0910
 8875TIP3   OH226588   3.303   0.257   1.369  0.0932  0.0487  0.6061
 8875TIP3    H126589   3.321   0.300   1.285 -1.8271  0.3404  0.2824
 8875TIP3    H226590   3.229   0.199   1.351  0.5402 -0.9487  1.7996
 8876TIP3   OH226591   1.125   5.374   1.813  0.3777 -0.4074  0.1932
 8876TIP3    H126592   1.179   5.450   1.790  0.3361  0.1909  1.8829
 8876TIP3    H226593   1.137   5.313   1.741  3.4204 -0.3481  0.5315
 8877TIP3   OH226594   0.120   0.390   4.337 -0.2024  0.1944 -0.0126
 8877TIP3    H126595   0.133   0.327   4.408 -2.1153 -0.5447 -0.2552
 8877TIP3    H226596   0.083   0.467   4.380 -1.8738 -0.4465 -0.1886
 8878TIP3   OH226597   6.242   1.293   0.831 -0.0820 -0.2692 -0.2979
 8878TIP3    H126598   6.299   1.233   0.879 -1.0230 -0.7514  0.2432
 8878TIP3    H226599   6.298   1.368   0.812  0.3912 -0.1418  1.4030
 8879TIP3   OH226600   4.662   6.587   0.207 -0.0380 -0.2304  0.2657
 8879TIP3    H126601   4.673   6.645   0.283 -0.8384  0.1708  0.0954
 8879TIP3    H226602   4.619   6.642   0.142  1.3363 -0.3480 -0.7765
 8880TIP3   OH226603   0.678   1.344   3.117 -0.1707 -0.6644  0.2025
 8880TIP3    H126604   0.631   1.427   3.114 -0.4763 -0.8093  0.8194
 8880TIP3    H226605   0.634   1.289   3.053 -0.6339 -0.6934  0.5457
 8881TIP3   OH226606   6.410   0.854   1.008 -0.3270 -0.2575 -0.0729
 8881TIP3    H126607   6.497   0.884   0.979 -0.0853  0.9847  1.7325
 8881TIP3    H226608   6.375   0.806   0.933  1.5873 -0.1042 -1.1411
 8882TIP3   OH226609   2.310   2.397   2.498 -0.6524  0.1225  0.2870
 8882TIP3    H126610   2.300   2.399   2.594  1.0720 -1.7387  0.5974
 8882TIP3    H226611   2.227   2.362   2.466 -0.8033 -0.4597  1.2547
 8883TIP3   OH226612   6.644   3.290   5.561 -0.2414 -0.1367 -0.0543
 8883TIP3    H126613   6.604   3.224   5.617 -0.6534 -1.1053 -1.4242
 8883TIP3    H226614   6.619   3.373   5.600 -1.0586 -0.7685  0.8181
 8884TIP3   OH226615   0.540   0.806   2.438  1.0230 -0.7003  0.3805
 8884TIP3    H126616   0.514   0.742   2.505  2.3438  0.0661  1.6995
 8884TIP3    H226617   0.476   0.795   2.368 -0.4807 -1.4746  1.8046
 8885TIP3   OH226618   5.496   6.095   2.715 -0.6627 -0.1707  0.7015
 8885TIP3    H126619   5.407   6.073   2.689 -1.3482  2.2105  0.7583
 8885TIP3    H226620   5.485   6.147   2.795  0.6933  0.8523  0.2584
 8886TIP3   OH226621   1.805   0.542   4.836 -0.8001  0.3473 -0.2386
 8886TIP3    H126622   1.813   0.617   4.894 -0.8371 -0.1628  0.4406
 8886TIP3    H226623   1.715   0.545   4.804 -0.9801  0.2673  0.2501
 8887TIP3   OH226624   1.604   0.630   5.836  0.4527 -0.3708  0.0033
 8887TIP3    H126625   1.632   0.552   5.788  0.5183 -0.6510  0.4909
 8887TIP3    H226626   1.608   0.604   5.929 -2.7840 -0.8748  0.0854
 8888TIP3   OH226627   2.612   3.070   0.981  0.2559  0.3504  0.2206
 8888TIP3    H126628   2.654   3.084   0.897  1.9276 -1.3032  0.6915
 8888TIP3    H226629   2.529   3.027   0.960 -0.3882  1.9281 -0.6379
 8889TIP3   OH226630   6.516   1.045   5.377 -0.0807  0.2226  0.3187
 8889TIP3    H126631   6.534   0.980   5.309 -2.2433 -0.6147  0.4734
 8889TIP3    H226632   6.590   1.037   5.437  1.6616  0.6620 -1.6196
 8890TIP3   OH226633   5.883   6.061   0.179 -0.1179 -0.0598  0.3754
 8890TIP3    H126634   5.886   6.063   0.084 -0.9644 -1.0590  0.3075
 8890TIP3    H226635   5.812   6.121   0.203  0.9539  1.2228  0.4723
 8891TIP3   OH226636   5.616   1.006   5.315 -0.5775 -0.0852 -0.0925
 8891TIP3    H126637   5.621   0.989   5.409  0.7138  0.0916 -0.1054
 8891TIP3    H226638   5.661   0.932   5.275 -0.6289  0.1177 -0.5359
 8892TIP3   OH226639   4.621   1.324   1.519  0.1990  0.0638  0.2416
 8892TIP3    H126640   4.590   1.378   1.447  0.1330 -1.2425 -0.7423
 8892TIP3    H226641   4.545   1.271   1.544  0.8999 -1.3482 -0.4919
 8893TIP3   OH226642   6.688   0.778   2.852 -0.3804  0.1133 -0.5355
 8893TIP3    H126643   6.745   0.814   2.783 -0.2846  0.3594 -0.3330
 8893TIP3    H226644   6.736   0.796   2.933  0.4968 -2.0289 -0.5303
 8894TIP3   OH226645   3.811   6.139   2.991  0.1777 -0.6084 -0.0278
 8894TIP3    H126646   3.869   6.063   2.979 -0.5155 -1.1414 -0.0512
 8894TIP3    H226647   3.763   6.119   3.071  1.3627  0.7158  1.0659
 8895TIP3   OH226648   4.779   4.804   0.579 -0.3979 -0.4451 -0.4615
 8895TIP3    H126649   4.803   4.795   0.487  0.3729 -0.5155 -0.2628
 8895TIP3    H226650   4.693   4.763   0.586 -0.6505 -0.0696 -1.2296
 8896TIP3   OH226651   5.558   6.389   2.754  0.9908  1.1857 -0.1989
 8896TIP3    H126652   5.526   6.479   2.758  0.4181  1.0114 -0.5663
 8896TIP3    H226653   5.510   6.344   2.823  0.9506  1.0720 -0.3003
 8897TIP3   OH226654   3.993   0.594   2.897 -0.2431  0.0981  0.5639
 8897TIP3    H126655   3.939   0.597   2.976  0.0344  1.7263  0.7273
 8897TIP3    H226656   4.064   0.656   2.914 -0.2600  0.5944 -1.0137
 8898TIP3   OH226657   5.830   0.118   0.861  0.1024 -0.6145 -0.0585
 8898TIP3    H126658   5.914   0.081   0.887  1.1519  1.4303 -0.3613
 8898TIP3    H226659   5.769   0.044   0.865  1.7011 -1.9433  1.0679
 8899TIP3   OH226660   5.524   4.999   5.045  0.2211 -0.0600 -0.0562
 8899TIP3    H126661   5.483   4.930   5.098 -0.3766 -0.4623 -1.0204
 8899TIP3    H226662   5.609   4.962   5.021  0.6415  0.2584  0.8718
 8900TIP3   OH226663   3.369   6.605   2.775 -0.4978  0.0690  0.1445
 8900TIP3    H126664   3.435   6.545   2.739 -0.3161  0.6199 -0.4634
 8900TIP3    H226665   3.287   6.577   2.734 -0.6390 -0.5387  0.8081
 8901TIP3   OH226666   3.672   6.433   5.462  0.4097 -0.3692  0.2718
 8901TIP3    H126667   3.660   6.370   5.534 -2.3905  0.1570  0.3794
 8901TIP3    H226668   3.737   6.494   5.495  0.4085 -1.0814  1.7102
 8902TIP3   OH226669   0.732   0.296   3.466  0.1227 -0.7759  0.1863
 8902TIP3    H126670   0.789   0.323   3.394  0.3886  2.0325  1.3142
 8902TIP3    H226671   0.753   0.204   3.480  0.7489 -1.1489 -2.6493
 8903TIP3   OH226672   2.104   5.173   3.708  0.5436 -0.1409 -0.4946
 8903TIP3    H126673   2.091   5.227   3.630  1.8662 -1.2443 -1.5249
 8903TIP3    H226674   2.174   5.113   3.684  0.1136 -1.3533  1.1302
 8904TIP3   OH226675   3.933   6.415   4.751 -0.2084 -0.0375 -0.0990
 8904TIP3    H126676   4.005   6.411   4.689 -0.1267  1.1089 -0.0866
 8904TIP3    H226677   3.973   6.395   4.836  0.3386  1.7162  0.0883
 8905TIP3   OH226678   3.081   6.343   4.819 -0.0668 -0.2933 -0.2599
 8905TIP3    H126679   3.171   6.366   4.798 -0.3859  0.8545 -0.4774
 8905TIP3    H226680   3.060   6.269   4.762  0.1054  0.7090 -1.6713
 8906TIP3   OH226681   5.450   1.323   0.760  0.4342  0.1687  0.8463
 8906TIP3    H126682   5.394   1.262   0.808 -1.0831  0.6069 -0.2898
 8906TIP3    H226683   5.440   1.297   0.668  2.5905 -0.1077  0.6370
 8907TIP3   OH226684   2.995   1.810   4.827 -0.2760  0.6109 -0.0545
 8907TIP3    H126685   2.903   1.807   4.799 -0.6079 -0.0896  1.0303
 8907TIP3    H226686   3.045   1.800   4.746 -1.2012 -2.9991 -0.3865
 8908TIP3   OH226687   6.041   4.667   0.931  0.2395  0.2020  0.3380
 8908TIP3    H126688   6.029   4.762   0.933 -0.7799  0.0706  1.6945
 8908TIP3    H226689   5.969   4.635   0.876  1.7217  0.3095 -1.8092
 8909TIP3   OH226690   3.721   4.324   5.035  0.0935  0.0828 -0.2284
 8909TIP3    H126691   3.689   4.240   5.069 -0.3476  0.6324  0.7730
 8909TIP3    H226692   3.779   4.356   5.104 -0.4304  1.0007 -0.1962
 8910TIP3   OH226693   4.835   1.992   2.335  0.2465  0.2247 -0.0209
 8910TIP3    H126694   4.821   2.087   2.332 -1.1468  0.0422  0.1306
 8910TIP3    H226695   4.863   1.975   2.424  1.8332  0.6409 -0.4089
 8911TIP3   OH226696   0.109   2.524   0.830 -0.1777  0.5348 -0.1076
 8911TIP3    H126697   0.193   2.567   0.846  0.5656 -0.8723 -0.0080
 8911TIP3    H226698   0.124   2.432   0.854 -1.1354 -0.1726 -1.9548
 8912TIP3   OH226699   1.851   4.902   4.635  0.0188 -0.2959  0.2085
 8912TIP3    H126700   1.759   4.926   4.624  0.5201  1.6980  0.0971
 8912TIP3    H226701   1.873   4.930   4.723  1.0035  1.0022 -0.4163
 8913TIP3   OH226702   1.555   3.428   0.279 -0.4901 -0.0935 -0.2858
 8913TIP3    H126703   1.558   3.495   0.348 -0.8386 -0.0189 -0.3428
 8913TIP3    H226704   1.465   3.430   0.247 -0.4109 -0.3475 -0.5298
 8914TIP3   OH226705   0.074   2.490   0.195  0.6032 -0.1379 -0.6818
 8914TIP3    H126706   0.026   2.474   0.114  1.5964 -0.0459 -1.2943
 8914TIP3    H226707   0.053   2.581   0.218 -0.0808 -0.3246 -0.5517
 8915TIP3   OH226708   1.574   4.961   5.773 -0.2140 -0.0427  0.0794
 8915TIP3    H126709   1.585   5.008   5.690  1.6531  0.9039  0.8078
 8915TIP3    H226710   1.520   5.019   5.827  0.0733  0.1709  0.1401
 8916TIP3   OH226711   4.123   5.728   2.267 -0.1327 -0.8441 -0.5178
 8916TIP3    H126712   4.117   5.820   2.243 -0.0037 -1.1129 -1.6492
 8916TIP3    H226713   4.208   5.720   2.310 -0.7571 -0.1754  0.8934
 8917TIP3   OH226714   3.797   4.079   2.507 -0.0341  0.4851 -0.2555
 8917TIP3    H126715   3.735   4.107   2.574 -2.0998 -2.2735 -0.8280
 8917TIP3    H226716   3.745   4.073   2.427  1.0868 -1.2914 -0.9171
 8918TIP3   OH226717   2.677   0.695   1.337  0.2107 -0.2072  0.6361
 8918TIP3    H126718   2.741   0.714   1.406  3.5086 -0.1139 -2.1276
 8918TIP3    H226719   2.657   0.603   1.348  0.8414 -0.2466  1.5955
 8919TIP3   OH226720   2.674   6.285   4.947  0.8022 -0.0888 -0.5986
 8919TIP3    H126721   2.684   6.273   5.041 -1.6124  2.7224  0.1422
 8919TIP3    H226722   2.598   6.232   4.924 -0.9919  2.0910 -0.0917
 8920TIP3   OH226723   1.449   2.687   0.643  0.0529 -0.6046  0.2138
 8920TIP3    H126724   1.417   2.731   0.722  1.2898  1.0518 -0.1442
 8920TIP3    H226725   1.487   2.605   0.675 -0.8064 -0.6837  1.1178
 8921TIP3   OH226726   0.612   3.348   5.516 -0.2916  0.1146  0.5633
 8921TIP3    H126727   0.625   3.278   5.580 -1.5712 -0.4379  0.2519
 8921TIP3    H226728   0.691   3.348   5.463 -0.5274 -1.5501  0.1577
 8922TIP3   OH226729   2.513   1.040   5.031  0.1132 -0.3751 -0.3693
 8922TIP3    H126730   2.529   1.119   5.083 -1.5129 -2.2126  3.3341
 8922TIP3    H226731   2.422   1.049   5.001 -1.0179 -1.7517  2.2747
 8923TIP3   OH226732   0.931   3.205   3.145 -0.0560 -0.0040 -0.5381
 8923TIP3    H126733   1.024   3.214   3.125  0.0361 -1.9314 -1.2820
 8923TIP3    H226734   0.911   3.277   3.203  1.8259  0.6556 -0.6479
 8924TIP3   OH226735   1.270   5.988   4.920  0.1455 -0.1473 -0.4027
 8924TIP3    H126736   1.228   5.907   4.947 -0.8120  0.3319 -0.4187
 8924TIP3    H226737   1.343   5.960   4.865 -1.3104 -0.9455 -1.9930
 8925TIP3   OH226738   6.533   3.669   4.249  0.2197 -0.2397  0.1606
 8925TIP3    H126739   6.541   3.738   4.182  0.6509 -0.4258  0.0186
 8925TIP3    H226740   6.458   3.696   4.302 -0.9891 -0.7746 -1.2088
 8926TIP3   OH226741   2.531   2.427   1.804 -0.0956  0.3155  0.0152
 8926TIP3    H126742   2.613   2.427   1.754 -0.4512  0.8691 -0.5855
 8926TIP3    H226743   2.494   2.514   1.790 -0.6433  0.1734  0.5246
 8927TIP3   OH226744   6.242   3.625   0.710  0.3557 -0.5090 -0.2802
 8927TIP3    H126745   6.189   3.546   0.696 -2.2389  0.5338  2.4525
 8927TIP3    H226746   6.321   3.594   0.755 -0.1164 -1.6746 -0.2259
 8928TIP3   OH226747   3.839   2.757   0.386  0.1719  0.0600  0.7700
 8928TIP3    H126748   3.871   2.785   0.472  1.6787 -3.3192  1.5145
 8928TIP3    H226749   3.913   2.711   0.347 -1.0784 -0.1404 -1.5498
 8929TIP3   OH226750   4.458   2.592   1.041 -0.4785 -0.1847  0.5633
 8929TIP3    H126751   4.429   2.578   0.951 -0.1940 -2.7619  0.7958
 8929TIP3    H226752   4.386   2.638   1.082 -2.0965 -1.9133 -0.1819
 8930TIP3   OH226753   6.907   2.321   4.954 -0.6638  0.3768 -0.1894
 8930TIP3    H126754   6.917   2.226   4.951 -0.0549  0.4429 -0.3976
 8930TIP3    H226755   6.945   2.352   4.871 -0.0250  0.8680  0.2758
 8931TIP3   OH226756   4.025   4.930   4.548 -0.1595  0.3907  0.2686
 8931TIP3    H126757   3.993   4.987   4.619 -2.4086 -0.6527  0.1796
 8931TIP3    H226758   3.945   4.897   4.507  1.0147 -2.7556  0.2740
 8932TIP3   OH226759   0.859   0.854   2.658 -0.3477  0.1131  0.3265
 8932TIP3    H126760   0.832   0.945   2.659  1.2962  0.6439  0.1115
 8932TIP3    H226761   0.844   0.825   2.569 -0.5196  0.2986  0.2960
 8933TIP3   OH226762   5.763   5.827   2.512 -0.4182 -0.0353 -0.0162
 8933TIP3    H126763   5.769   5.756   2.448 -0.8922 -0.2968  0.2266
 8933TIP3    H226764   5.766   5.783   2.597 -1.4526  0.1652  0.1374
 8934TIP3   OH226765   3.190   2.208   1.030  0.0104 -0.1977  0.0228
 8934TIP3    H126766   3.245   2.264   0.974 -2.6836  2.4228 -0.2497
 8934TIP3    H226767   3.213   2.234   1.119  1.3252 -1.3804  0.0740
 8935TIP3   OH226768   4.350   0.381   2.040 -0.3180  0.0233  0.4428
 8935TIP3    H126769   4.345   0.291   2.007 -2.0444  0.2194  0.0871
 8935TIP3    H226770   4.261   0.415   2.033 -0.2051  1.0090  2.7510
 8936TIP3   OH226771   1.320   1.125   3.509 -0.5401 -0.5814 -0.6262
 8936TIP3    H126772   1.354   1.214   3.496 -0.0663 -0.6137  0.3457
 8936TIP3    H226773   1.243   1.122   3.453 -0.2700  0.2704 -1.0779
 8937TIP3   OH226774   5.064   4.076   3.742  0.5305 -0.1413  0.5457
 8937TIP3    H126775   5.090   4.099   3.653 -0.4734  0.1390  0.3114
 8937TIP3    H226776   4.989   4.018   3.731  1.5907 -1.7107  1.1824
 8938TIP3   OH226777   6.228   1.668   3.523  0.8911  0.1068 -0.2185
 8938TIP3    H126778   6.155   1.626   3.478  0.2644  1.4597 -0.5166
 8938TIP3    H226779   6.290   1.691   3.454  0.3473  1.3539 -0.3315
 8939TIP3   OH226780   5.637   3.004   2.162 -0.2956 -0.6742  0.5125
 8939TIP3    H126781   5.652   2.950   2.239  0.1233 -1.4148 -0.0701
 8939TIP3    H226782   5.565   2.960   2.116 -1.9437  0.8849  1.4845
 8940TIP3   OH226783   1.237   0.178   5.564  0.6206 -0.2578 -0.4306
 8940TIP3    H126784   1.258   0.248   5.502 -0.1341 -0.5958 -1.0692
 8940TIP3    H226785   1.142   0.173   5.565  0.3720  1.7526  2.9907
 8941TIP3   OH226786   6.794   6.456   4.419  0.0600 -0.6926  0.0637
 8941TIP3    H126787   6.798   6.498   4.333 -1.2704 -1.2851 -0.3013
 8941TIP3    H226788   6.784   6.529   4.480  0.5454 -0.3013 -0.3045
 8942TIP3   OH226789   1.329   2.195   4.282 -0.1413  1.0859 -0.1840
 8942TIP3    H126790   1.380   2.142   4.221  0.1459  1.4121 -0.2253
 8942TIP3    H226791   1.346   2.156   4.368 -2.0191 -0.5713 -0.4930
 8943TIP3   OH226792   2.548   3.997   0.130  0.3830 -0.3828 -0.0374
 8943TIP3    H126793   2.628   3.996   0.182  1.5933 -0.4833 -1.8292
 8943TIP3    H226794   2.526   4.089   0.122  0.8443 -0.2939 -0.3036
 8944TIP3   OH226795   0.214   4.153   5.254 -0.3267  0.2394 -0.2681
 8944TIP3    H126796   0.221   4.073   5.306  0.6624  0.0268 -0.7222
 8944TIP3    H226797   0.140   4.200   5.294 -0.3672 -0.4837  0.5494
 8945TIP3   OH226798   6.248   1.988   4.086 -0.3706 -0.6932 -0.2865
 8945TIP3    H126799   6.270   2.004   3.994 -0.5332 -0.9819 -0.3772
 8945TIP3    H226800   6.168   1.935   4.083 -0.0853 -1.1476  0.0114
 8946TIP3   OH226801   1.649   1.397   2.329 -0.3356  0.8294 -0.0334
 8946TIP3    H126802   1.626   1.400   2.236 -2.7115 -4.0933  0.0749
 8946TIP3    H226803   1.567   1.414   2.375  0.3802  1.2332  1.1360
 8947TIP3   OH226804   5.754   0.862   1.080  0.1077 -0.4214  0.4227
 8947TIP3    H126805   5.740   0.925   1.152  0.2908  0.1702 -0.0555
 8947TIP3    H226806   5.763   0.916   1.002  2.3137 -0.9137  0.2800
 8948TIP3   OH226807   5.813   1.228   4.119  0.3919  0.0849  0.0508
 8948TIP3    H126808   5.865   1.178   4.057 -1.2583  1.5774 -2.7320
 8948TIP3    H226809   5.832   1.319   4.098 -0.4888  0.6449  1.5332
 8949TIP3   OH226810   1.327   1.757   2.441  0.1471 -0.0711  0.1121
 8949TIP3    H126811   1.337   1.781   2.349 -1.0372  0.9621  0.2248
 8949TIP3    H226812   1.234   1.735   2.451 -0.2161  1.8393  1.4776
 8950TIP3   OH226813   0.143   4.577   5.153  0.1171 -0.3246  0.2813
 8950TIP3    H126814   0.229   4.598   5.117 -0.0191 -0.6848 -0.2684
 8950TIP3    H226815   0.081   4.609   5.088 -0.1757  0.0202  0.7187
 8951TIP3   OH226816   0.629   1.692   0.421  0.3193  0.2343  0.1906
 8951TIP3    H126817   0.677   1.769   0.452  0.7237 -0.0433  0.2579
 8951TIP3    H226818   0.553   1.687   0.478  0.1690  0.7237  0.0345
 8952TIP3   OH226819   5.165   2.284   1.792  0.0094 -0.3006  0.3666
 8952TIP3    H126820   5.137   2.275   1.701  0.7337 -1.2349  0.2178
 8952TIP3    H226821   5.201   2.372   1.798  1.9684 -0.9690 -0.8381
 8953TIP3   OH226822   4.637   2.134   3.814 -0.2081 -0.0335  0.0442
 8953TIP3    H126823   4.690   2.087   3.750 -1.9481 -1.7156 -0.2596
 8953TIP3    H226824   4.573   2.183   3.761 -0.2602  0.3220  0.4327
 8954TIP3   OH226825   0.505   2.614   4.426 -0.2005  0.2356  1.0162
 8954TIP3    H126826   0.581   2.617   4.367  1.0195 -0.0084  2.5269
 8954TIP3    H226827   0.516   2.533   4.476 -1.5893  0.0866  1.1303
 8955TIP3   OH226828   2.293   1.204   5.018 -0.7061 -0.0888 -0.2047
 8955TIP3    H126829   2.233   1.256   4.965 -1.7513  0.1091  1.1191
 8955TIP3    H226830   2.251   1.119   5.026 -0.6725 -0.0504  0.4680
 8956TIP3   OH226831   6.108   1.121   0.193 -0.4238 -0.2212 -0.0472
 8956TIP3    H126832   6.195   1.139   0.159 -0.1847 -1.1540  0.0438
 8956TIP3    H226833   6.085   1.036   0.157 -1.5423  0.2611 -0.5260
 8957TIP3   OH226834   1.368   5.559   0.332  0.3194 -0.0486  0.2340
 8957TIP3    H126835   1.407   5.479   0.298  0.4901  0.1349 -0.0087
 8957TIP3    H226836   1.425   5.586   0.403 -0.1967 -0.5891  0.8636
 8958TIP3   OH226837   6.499   6.689   1.882  0.3486  0.7872  0.5080
 8958TIP3    H126838   6.528   6.613   1.933  0.5118  0.5490  0.0605
 8958TIP3    H226839   6.577   6.717   1.834  0.2841  1.2297  0.6595
 8959TIP3   OH226840   3.615   4.022   5.487  0.2645 -0.0480 -0.0922
 8959TIP3    H126841   3.671   3.977   5.424  0.4366  1.5684 -1.1673
 8959TIP3    H226842   3.638   4.115   5.476 -0.8150  0.4033  1.2705
 8960TIP3   OH226843   0.759   0.079   0.013 -0.0765  0.4260 -0.1225
 8960TIP3    H126844   0.708   0.043   0.086  0.6197 -1.3009 -0.4228
 8960TIP3    H226845   0.845   0.038   0.021  0.1893  0.6258 -1.5792
 8961TIP3   OH226846   0.329   5.934   3.610  1.0062  0.1515 -0.5944
 8961TIP3    H126847   0.300   6.006   3.666  1.5024  0.8256 -1.1792
 8961TIP3    H226848   0.251   5.881   3.596 -0.0830  2.0504 -2.3178
 8962TIP3   OH226849   4.614   0.492   4.791  0.0889 -0.8932 -0.3307
 8962TIP3    H126850   4.622   0.567   4.733  1.2148 -1.6244 -1.1743
 8962TIP3    H226851   4.547   0.517   4.855  0.5232  0.8481 -0.5208
 8963TIP3   OH226852   7.195   1.587   0.483  0.2477  0.1673  0.1797
 8963TIP3    H126853   7.178   1.532   0.560  0.0057 -0.9773 -0.6686
 8963TIP3    H226854   7.109   1.624   0.462 -1.1235 -3.9509 -2.8280
 8964TIP3   OH226855   3.690   2.611   3.029 -0.3152 -0.4025  1.1446
 8964TIP3    H126856   3.683   2.520   3.056 -2.1432 -0.6634 -0.0814
 8964TIP3    H226857   3.674   2.610   2.934  1.7852  0.9572  0.6921
 8965TIP3   OH226858   2.395   4.851   3.389 -0.0793 -0.0572 -0.1663
 8965TIP3    H126859   2.459   4.785   3.366  0.3597 -0.1411  1.2085
 8965TIP3    H226860   2.425   4.931   3.344  0.2211 -0.4183 -0.6106
 8966TIP3   OH226861   1.734   4.229   2.785 -0.3963  0.4469  0.4084
 8966TIP3    H126862   1.716   4.289   2.857  0.7406  0.8745  0.3599
 8966TIP3    H226863   1.730   4.142   2.825  0.9078  0.7060  1.1712
 8967TIP3   OH226864   4.594   1.839   3.440 -0.7760 -0.0224  0.5662
 8967TIP3    H126865   4.546   1.840   3.357 -0.3401 -0.6209  0.3006
 8967TIP3    H226866   4.527   1.828   3.507 -0.8848 -3.0621  0.0728
 8968TIP3   OH226867   0.109   3.793   5.245 -0.2678 -0.1106 -0.0803
 8968TIP3    H126868   0.016   3.801   5.263 -0.1801 -1.1046  0.8877
 8968TIP3    H226869   0.152   3.838   5.317  0.0173 -1.1012  0.3897
 8969TIP3   OH226870   6.304   1.847   2.610  0.7644 -0.1229  0.2263
 8969TIP3    H126871   6.329   1.789   2.538 -0.1488 -0.8593  0.4890
 8969TIP3    H226872   6.236   1.799   2.657 -2.2042  2.2943 -1.2249
 8970TIP3   OH226873   0.725   4.931   2.899 -0.2432  1.0880  0.2324
 8970TIP3    H126874   0.706   5.025   2.898  0.5886  1.2747  0.6734
 8970TIP3    H226875   0.738   4.910   2.991 -0.2879  0.5621  0.1243
 8971TIP3   OH226876   2.867   4.050   2.999  0.0270 -0.5753  0.3578
 8971TIP3    H126877   2.823   4.105   3.064  1.0300 -0.5225  1.0079
 8971TIP3    H226878   2.922   3.991   3.050  0.6397 -0.7056 -0.4297
 8972TIP3   OH226879   3.868   0.508   2.281  0.0231  0.0168 -0.2511
 8972TIP3    H126880   3.959   0.502   2.310 -0.3470 -0.0646  0.9590
 8972TIP3    H226881   3.873   0.536   2.190  1.3029 -1.4699 -0.6789
 8973TIP3   OH226882   3.516   4.713   3.327  0.5784 -0.0225  0.1566
 8973TIP3    H126883   3.593   4.702   3.271  0.4512 -1.5385  0.2329
 8973TIP3    H226884   3.550   4.745   3.410  1.0916 -0.3482  0.0721
 8974TIP3   OH226885   0.364   6.702   1.183 -0.0083 -0.1159  0.8467
 8974TIP3    H126886   0.395   6.682   1.094  3.2761  0.7794  1.6674
 8974TIP3    H226887   0.367   6.798   1.188  0.4929 -0.1836  2.1210
 8975TIP3   OH226888   6.917   3.021   3.105 -0.0159 -0.1962 -0.6826
 8975TIP3    H126889   6.882   3.096   3.057  0.2187 -0.3214 -1.0524
 8975TIP3    H226890   6.919   3.050   3.196 -0.7647 -0.0676 -0.6960
 8976TIP3   OH226891   1.888   5.458   1.826 -0.2643  0.2744  1.0415
 8976TIP3    H126892   1.869   5.364   1.821  1.6986 -0.1957  1.6538
 8976TIP3    H226893   1.813   5.500   1.784 -0.6934 -1.6204 -0.1980
 8977TIP3   OH226894   4.470   3.568   5.050  0.1324 -0.3009 -0.0464
 8977TIP3    H126895   4.562   3.580   5.074  0.3368  0.3441 -1.0715
 8977TIP3    H226896   4.432   3.656   5.052 -0.0963 -0.3608 -0.9956
 8978TIP3   OH226897   1.524   3.894   3.546  0.2061 -0.4417  0.2927
 8978TIP3    H126898   1.463   3.901   3.473  0.5951 -0.5636 -0.0489
 8978TIP3    H226899   1.583   3.968   3.536 -0.8582  0.6353  1.5563
 8979TIP3   OH226900   0.317   4.377   1.303  0.1156 -0.0911  0.1609
 8979TIP3    H126901   0.270   4.298   1.328 -1.0840 -0.2664 -2.3085
 8979TIP3    H226902   0.249   4.438   1.274  1.0997  1.4363  0.9342
 8980TIP3   OH226903   6.616   2.788   2.154 -0.2261  0.3724 -0.0698
 8980TIP3    H126904   6.704   2.787   2.118  0.5882  1.9341  1.7079
 8980TIP3    H226905   6.559   2.770   2.079  1.5932 -1.2775 -1.1517
 8981TIP3   OH226906   3.659   1.518   1.808  0.0022 -0.0258  0.2926
 8981TIP3    H126907   3.564   1.518   1.817 -0.0156  0.2634  0.1132
 8981TIP3    H226908   3.691   1.561   1.887 -0.0366  0.2760  0.1432
 8982TIP3   OH226909   5.442   2.184   5.398  0.1336 -0.0134 -0.5450
 8982TIP3    H126910   5.497   2.258   5.373  0.6337 -0.6454 -1.3688
 8982TIP3    H226911   5.366   2.223   5.442  0.0337  1.0435 -1.6231
 8983TIP3   OH226912   6.218   3.801   2.483 -0.0266 -0.7144  0.0816
 8983TIP3    H126913   6.293   3.764   2.530 -0.3590  0.2795  1.4646
 8983TIP3    H226914   6.248   3.809   2.393  1.4946 -0.4944  0.5686
 8984TIP3   OH226915   6.358   5.752   3.265 -0.3498  0.3016  0.3724
 8984TIP3    H126916   6.360   5.656   3.268 -2.9727  0.2149  3.3559
 8984TIP3    H226917   6.276   5.773   3.220  0.1895  1.2072 -0.2262
 8985TIP3   OH226918   5.812   2.306   2.721 -0.5823  0.3178 -0.1807
 8985TIP3    H126919   5.902   2.333   2.702  0.0606 -1.1427  0.5768
 8985TIP3    H226920   5.774   2.379   2.768  0.8979  0.2045  1.3115
 8986TIP3   OH226921   6.065   3.856   1.494 -0.0260  0.0358  0.9042
 8986TIP3    H126922   6.035   3.934   1.541  0.1006  1.0261 -0.5714
 8986TIP3    H226923   6.080   3.791   1.562 -0.9411  1.0274  2.1104
 8987TIP3   OH226924   6.360   3.732   5.720  0.6572 -0.7724  0.2504
 8987TIP3    H126925   6.286   3.674   5.736  2.4907 -3.1043  0.9595
 8987TIP3    H226926   6.365   3.788   5.797 -0.0314 -0.9500  0.4256
 8988TIP3   OH226927   2.142   1.815   2.371  0.3723 -0.2104  0.2334
 8988TIP3    H126928   2.066   1.844   2.422  0.1419  0.0906 -0.2681
 8988TIP3    H226929   2.190   1.895   2.352  0.4237 -0.3135 -0.0747
 8989TIP3   OH226930   6.984   4.491   5.595  0.0788  0.6933  0.4617
 8989TIP3    H126931   7.066   4.447   5.617  0.4479  1.5556  0.8536
 8989TIP3    H226932   6.934   4.425   5.546 -0.3418 -0.9533  2.9227
 8990TIP3   OH226933   3.599   0.527   3.051 -0.5539  0.7886 -0.5052
 8990TIP3    H126934   3.671   0.466   3.034 -0.6448  0.7693 -0.8284
 8990TIP3    H226935   3.556   0.493   3.130 -0.4067  0.6179 -0.5003
 8991TIP3   OH226936   5.424   3.343   2.085  0.1315 -0.4642 -0.4386
 8991TIP3    H126937   5.427   3.269   2.146  0.6438 -0.1597 -0.0816
 8991TIP3    H226938   5.429   3.420   2.142  2.8748 -0.1697 -0.9230
 8992TIP3   OH226939   7.115   1.354   0.213  0.6399 -0.2676 -0.4321
 8992TIP3    H126940   7.034   1.386   0.252  1.5567  0.8016  0.6838
 8992TIP3    H226941   7.087   1.295   0.143 -1.0970 -1.1771  0.9484
 8993TIP3   OH226942   3.472   2.414   4.388 -0.0308 -0.5276 -0.4767
 8993TIP3    H126943   3.407   2.454   4.329 -0.7525  0.6056  0.9869
 8993TIP3    H226944   3.555   2.452   4.361 -0.4124  0.3159 -0.5155
 8994TIP3   OH226945   0.185   1.331   4.835  0.1645  0.8194  0.0069
 8994TIP3    H126946   0.264   1.335   4.889 -0.3610 -2.6209  1.2886
 8994TIP3    H226947   0.195   1.403   4.773  3.1630  1.9462  1.5851
 8995TIP3   OH226948   4.328   3.694   1.786 -0.5648 -0.4228 -0.6263
 8995TIP3    H126949   4.313   3.646   1.868  0.1988 -0.2392 -0.3754
 8995TIP3    H226950   4.240   3.716   1.756 -0.8876 -1.0808 -0.2095
 8996TIP3   OH226951   7.034   6.442   1.954 -0.6835 -0.0108 -0.0634
 8996TIP3    H126952   6.952   6.482   1.925 -0.4612  1.5164  1.2489
 8996TIP3    H226953   7.029   6.445   2.050  1.7667  2.1211  0.1094
 8997TIP3   OH226954   0.544   4.768   2.783  0.3208 -0.2237 -0.4879
 8997TIP3    H126955   0.609   4.827   2.821  1.4387 -1.9839  0.4612
 8997TIP3    H226956   0.585   4.736   2.702 -0.2601  0.2464 -0.9767
 8998TIP3   OH226957   5.134   2.111   0.296 -0.0675  0.1471 -0.5060
 8998TIP3    H126958   5.142   2.173   0.368  1.4567  0.4981 -0.9465
 8998TIP3    H226959   5.096   2.162   0.225 -0.3082  0.1514 -0.3757
 8999TIP3   OH226960   3.140   3.471   2.283 -0.1290  0.1523 -0.4417
 8999TIP3    H126961   3.222   3.450   2.238 -1.2679 -1.4898 -1.8996
 8999TIP3    H226962   3.139   3.413   2.359 -0.6516 -1.0610 -1.3381
 9000TIP3   OH226963   4.077   5.678   4.299  0.3493  0.5077 -0.1972
 9000TIP3    H126964   4.067   5.584   4.314 -1.8465  0.9780  2.0228
 9000TIP3    H226965   4.154   5.702   4.351  1.0890 -0.0522 -0.9942
 9001TIP3   OH226966   0.271   1.469   1.363  0.0301  0.9215  0.6048
 9001TIP3    H126967   0.190   1.466   1.312  0.8906 -0.7370 -0.7830
 9001TIP3    H226968   0.246   1.433   1.449 -0.2511 -2.2436 -0.6598
 9002TIP3   OH226969   0.439   4.484   2.051 -0.2807  0.1957 -0.2863
 9002TIP3    H126970   0.347   4.508   2.058  0.0173  1.4553 -0.5477
 9002TIP3    H226971   0.478   4.510   2.134 -0.4891 -2.0642  0.6119
 9003TIP3   OH226972   1.856   2.535   5.836  0.1595  0.0033 -0.1034
 9003TIP3    H126973   1.897   2.515   5.751 -1.9539 -3.4698 -0.4766
 9003TIP3    H226974   1.930   2.543   5.896  1.6065 -1.1653 -1.6257
 9004TIP3   OH226975   7.014   0.803   5.329  0.3487 -0.2248  0.3689
 9004TIP3    H126976   7.074   0.874   5.305 -0.9483  0.5093 -0.8101
 9004TIP3    H226977   6.968   0.837   5.406 -0.1664  0.1671 -0.1050
 9005TIP3   OH226978   0.872   3.541   4.855  0.4002  0.3036  0.2027
 9005TIP3    H126979   0.895   3.632   4.833  0.5682  0.5401  1.2965
 9005TIP3    H226980   0.800   3.520   4.796 -0.2267  1.4585  0.5189
 9006TIP3   OH226981   2.473   2.874   3.057  0.0800 -0.5344  0.1043
 9006TIP3    H126982   2.434   2.907   3.138  0.1534  1.0738 -0.4807
 9006TIP3    H226983   2.543   2.816   3.086  0.6981  0.7248  1.2347
 9007TIP3   OH226984   5.755   3.894   3.655 -0.9677  0.4343 -0.0336
 9007TIP3    H126985   5.691   3.952   3.612 -0.7503 -0.1146 -1.1212
 9007TIP3    H226986   5.729   3.806   3.628 -0.0681  0.1707 -0.0449
 9008TIP3   OH226987   1.112   2.244   3.977 -0.1394 -0.3912 -0.2115
 9008TIP3    H126988   1.091   2.202   4.061 -0.1543 -0.2927 -0.1655
 9008TIP3    H226989   1.119   2.172   3.915 -1.4588 -0.3857 -0.4081
 9009TIP3   OH226990   3.233   0.239   3.841 -0.2476 -0.3125  0.5352
 9009TIP3    H126991   3.151   0.217   3.886  0.4691 -1.6620  1.2491
 9009TIP3    H226992   3.286   0.159   3.847  1.0482  0.4613 -0.0950
 9010TIP3   OH226993   2.720   3.135   0.746  0.2073  0.5769 -0.1494
 9010TIP3    H126994   2.688   3.138   0.656  2.2043 -4.4238 -1.3992
 9010TIP3    H226995   2.813   3.156   0.738  1.2700 -3.2940 -0.1842
 9011TIP3   OH226996   3.718   4.548   1.595 -0.3960 -0.2783  0.3047
 9011TIP3    H126997   3.705   4.642   1.610 -1.1192 -0.5554  1.4599
 9011TIP3    H226998   3.648   4.523   1.535 -0.2791 -0.1145  0.0970
 9012TIP3   OH226999   2.795   3.435   2.498 -0.1687  0.2021 -0.1426
 9012TIP3    H127000   2.883   3.399   2.490 -0.6978 -1.0953 -0.3180
 9012TIP3    H227001   2.737   3.360   2.491 -1.4005  1.2398 -2.0699
 9013TIP3   OH227002   5.233   0.498   2.675  0.2023  0.2477 -0.2716
 9013TIP3    H127003   5.272   0.576   2.715 -0.2617  0.7011 -0.6822
 9013TIP3    H227004   5.271   0.425   2.723 -0.4828  0.7862  1.1484
 9014TIP3   OH227005   1.476   1.070   5.118  0.1171  0.3059 -0.1680
 9014TIP3    H127006   1.518   1.041   5.037  2.1585  1.5306  0.3930
 9014TIP3    H227007   1.534   1.040   5.187 -0.7818  0.6580  0.7569
 9015TIP3   OH227008   2.245   6.564   1.300 -0.7476  0.1684 -0.4704
 9015TIP3    H127009   2.270   6.517   1.220  0.9270 -1.9132  1.1423
 9015TIP3    H227010   2.315   6.626   1.315 -0.0074 -0.8472  0.3992
 9016TIP3   OH227011   6.095   3.429   1.660  0.0396 -0.2526 -0.1426
 9016TIP3    H127012   6.127   3.394   1.577 -0.8081 -2.1736  0.2590
 9016TIP3    H227013   6.012   3.382   1.675 -1.3303  2.1521  0.3963
 9017TIP3   OH227014   4.870   1.144   5.814 -0.7632  0.0950 -0.0703
 9017TIP3    H127015   4.867   1.210   5.745  0.4982  0.5511  0.2796
 9017TIP3    H227016   4.897   1.064   5.769 -1.3404  0.0407 -0.3321
 9018TIP3   OH227017   0.817   6.014   3.368 -0.6608 -0.0381 -0.3315
 9018TIP3    H127018   0.843   5.922   3.359 -0.6416 -0.1528  0.7339
 9018TIP3    H227019   0.814   6.047   3.279  1.2249 -0.5586 -0.6387
 9019TIP3   OH227020   3.892   5.628   5.758  0.2859 -0.2052 -0.0527
 9019TIP3    H127021   3.860   5.688   5.826 -1.1195 -2.3628  1.2793
 9019TIP3    H227022   3.959   5.575   5.803  0.7226 -0.3915 -0.9057
 9020TIP3   OH227023   4.221   2.307   3.980  0.1157 -0.1474 -0.2967
 9020TIP3    H127024   4.249   2.352   3.900  1.3469 -0.1088  0.1208
 9020TIP3    H227025   4.297   2.255   4.005  1.1536  2.5013  2.7361
 9021TIP3   OH227026   4.199   3.692   5.423  0.4292  0.2744 -0.1862
 9021TIP3    H127027   4.137   3.653   5.360 -1.0138  1.0663  0.6774
 9021TIP3    H227028   4.207   3.625   5.492 -0.9141  0.8560  0.5805
 9022TIP3   OH227029   1.959   5.973   2.896  0.7429  0.2565 -0.0954
 9022TIP3    H127030   1.883   5.918   2.877 -0.5176  1.0957  2.1319
 9022TIP3    H227031   2.014   5.965   2.819 -2.3953  0.9930 -2.6552
 9023TIP3   OH227032   1.621   0.176   0.567 -0.0768 -0.1725 -0.2608
 9023TIP3    H127033   1.534   0.147   0.538 -0.4680  0.5455  0.1725
 9023TIP3    H227034   1.614   0.180   0.662  0.2139  0.5865 -0.2688
 9024TIP3   OH227035   1.027   3.833   3.755 -0.6617 -0.1286 -0.2298
 9024TIP3    H127036   1.078   3.757   3.725  0.3929 -0.1783  1.5376
 9024TIP3    H227037   0.997   3.808   3.842 -0.1733  1.5225  0.4402
 9025TIP3   OH227038   1.024   2.485   5.099  0.5147 -0.2236  0.2651
 9025TIP3    H127039   0.934   2.454   5.091  1.3509 -2.2969 -2.9764
 9025TIP3    H227040   1.018   2.561   5.157 -2.8524 -1.8801  2.3943
 9026TIP3   OH227041   5.161   4.015   2.931  0.8017 -0.4133 -0.3140
 9026TIP3    H127042   5.219   3.954   2.886  0.8740 -0.8849  0.4037
 9026TIP3    H227043   5.151   3.979   3.019  0.4313  0.3347 -0.0351
 9027TIP3   OH227044   0.602   3.786   4.588  0.1208 -0.2493  0.4137
 9027TIP3    H127045   0.635   3.702   4.555 -0.0824 -0.1248 -0.1152
 9027TIP3    H227046   0.533   3.761   4.650  0.7601 -0.4946  1.0437
 9028TIP3   OH227047   5.437   2.021   0.903  0.2222  0.0595  0.1747
 9028TIP3    H127048   5.508   2.050   0.960 -0.4047 -0.5333  1.2846
 9028TIP3    H227049   5.413   2.099   0.853 -0.1588  0.9898  1.7361
 9029TIP3   OH227050   0.610   2.189   0.340 -0.1240  0.3482  0.2460
 9029TIP3    H127051   0.618   2.103   0.298  1.2458  0.5825 -0.0168
 9029TIP3    H227052   0.543   2.176   0.408  1.5122 -1.5047  1.6126
 9030TIP3   OH227053   1.722   5.021   5.067 -0.0820 -0.4211 -0.0268
 9030TIP3    H127054   1.716   5.068   5.151 -3.0347 -0.1598 -0.3068
 9030TIP3    H227055   1.697   4.931   5.088 -0.0696 -0.5344 -0.4998
 9031TIP3   OH227056   0.556   1.426   4.432 -0.5322  0.0449 -0.0886
 9031TIP3    H127057   0.489   1.486   4.398  1.8622  2.2217 -1.3113
 9031TIP3    H227058   0.606   1.479   4.495  1.1658 -0.8907 -0.5777
 9032TIP3   OH227059   3.562   2.360   5.038  0.2224 -0.1466  0.0197
 9032TIP3    H127060   3.536   2.347   5.129  0.0014 -0.0140 -0.0239
 9032TIP3    H227061   3.502   2.305   4.988 -0.4574  0.7130 -0.1362
 9033TIP3   OH227062   1.748   2.498   2.726  0.4307 -0.4955 -0.5943
 9033TIP3    H127063   1.788   2.414   2.707  0.2226 -0.4762 -1.1196
 9033TIP3    H227064   1.796   2.530   2.803 -0.6564 -1.8846  0.7162
 9034TIP3   OH227065   2.742   0.850   5.063  1.0789  0.0941  0.0702
 9034TIP3    H127066   2.714   0.819   5.149  1.5647 -0.3517  0.0751
 9034TIP3    H227067   2.665   0.894   5.027  0.3238 -1.2307  0.0170
 9035TIP3   OH227068   2.219   0.931   5.037  0.0200  0.5311  0.1318
 9035TIP3    H127069   2.285   0.868   5.066  1.4451  1.8170 -0.1654
 9035TIP3    H227070   2.155   0.879   4.989  0.5806 -0.8208  0.7879
 9036TIP3   OH227071   1.568   4.047   0.721  0.8548 -1.0618 -0.2672
 9036TIP3    H127072   1.505   3.976   0.714  1.3833 -1.5586 -0.0900
 9036TIP3    H227073   1.617   4.028   0.801  0.6140 -0.1770  0.1001
 9037TIP3   OH227074   6.884   3.647   5.651  0.1134 -0.5046 -0.1614
 9037TIP3    H127075   6.821   3.645   5.723  0.1819 -2.0673 -0.1047
 9037TIP3    H227076   6.831   3.630   5.573  0.3703 -1.3047 -0.1727
 9038TIP3   OH227077   7.140   1.427   3.426  0.5075  0.2888 -0.0377
 9038TIP3    H127078   7.150   1.503   3.483 -2.4234  1.2225 -0.6085
 9038TIP3    H227079   7.200   1.444   3.353  1.3021  1.0820  0.7698
 9039TIP3   OH227080   1.819   5.977   0.828  0.3284 -0.0745  0.2991
 9039TIP3    H127081   1.837   6.039   0.757  0.5889 -0.3449  0.1266
 9039TIP3    H227082   1.830   6.029   0.908  0.7393  0.0519  0.1612
 9040TIP3   OH227083   1.128   1.007   5.610 -0.0449 -0.6926 -0.3765
 9040TIP3    H127084   1.090   0.921   5.627 -0.6960 -0.1915  0.7983
 9040TIP3    H227085   1.079   1.040   5.534  0.4541 -1.4925 -1.0546
 9041TIP3   OH227086   0.987   2.774   2.784 -0.3346 -0.0929 -0.2468
 9041TIP3    H127087   0.970   2.688   2.822 -1.0804  1.3719  3.1003
 9041TIP3    H227088   0.900   2.809   2.763 -0.0498 -0.0688 -1.4648
 9042TIP3   OH227089   6.409   5.900   1.576  0.4340  0.1575 -0.0943
 9042TIP3    H127090   6.385   5.983   1.534 -0.3160 -0.2849 -0.5596
 9042TIP3    H227091   6.429   5.924   1.666 -1.1286  0.6665  0.1487
 9043TIP3   OH227092   3.273   0.867   2.998 -0.3146  0.1869  0.4199
 9043TIP3    H127093   3.337   0.893   3.063 -2.3994 -1.4364  3.3749
 9043TIP3    H227094   3.201   0.829   3.049 -3.1356  0.8437 -2.7179
 9044TIP3   OH227095   3.100   1.267   1.982 -0.5905  0.3459 -0.1323
 9044TIP3    H127096   3.039   1.203   1.946 -1.0588  1.5699 -1.6722
 9044TIP3    H227097   3.175   1.265   1.922 -0.8946  1.6499 -0.6032
 9045TIP3   OH227098   7.203   1.404   5.803  0.4136  0.3035 -0.1178
 9045TIP3    H127099   7.228   1.475   5.743 -2.6204  0.3578 -1.5275
 9045TIP3    H227100   7.151   1.448   5.871 -0.2226 -0.3671 -0.1645
 9046TIP3   OH227101   6.922   4.704   0.984 -0.3782 -0.6344  0.4635
 9046TIP3    H127102   6.941   4.797   0.976  2.0303 -1.1127 -0.0606
 9046TIP3    H227103   6.931   4.669   0.895 -1.7135 -1.3356  0.5632
 9047TIP3   OH227104   5.900   0.826   3.695 -0.1308  0.1933  0.0680
 9047TIP3    H127105   5.868   0.735   3.691  0.4630 -0.0088 -0.2251
 9047TIP3    H227106   5.990   0.818   3.725  0.1868  0.6271 -0.7481
 9048TIP3   OH227107   0.923   4.999   0.568  0.2790  0.1757 -0.4896
 9048TIP3    H127108   0.951   4.910   0.548 -2.4790 -0.7599 -0.4549
 9048TIP3    H227109   0.851   4.989   0.630  0.4461  2.4908  0.1751
 9049TIP3   OH227110   4.636   2.952   4.311  0.5667  0.1291  0.5944
 9049TIP3    H127111   4.730   2.937   4.315  0.6899  0.9235  0.9751
 9049TIP3    H227112   4.627   3.037   4.269  0.0996  0.7465  1.8641
 9050TIP3   OH227113   2.097   2.891   2.291 -0.3479  0.3844 -0.1769
 9050TIP3    H127114   2.160   2.818   2.296 -0.2181  0.4863 -0.3277
 9050TIP3    H227115   2.135   2.959   2.345 -1.3072 -0.2803  1.3875
 9051TIP3   OH227116   0.547   3.744   2.267  0.3139  0.3081 -0.0543
 9051TIP3    H127117   0.477   3.684   2.292  1.6692 -1.0136  0.7229
 9051TIP3    H227118   0.587   3.704   2.190  1.0396  0.3670  0.2834
 9052TIP3   OH227119   0.689   0.024   0.797 -0.1200 -0.1421  0.0470
 9052TIP3    H127120   0.612   0.017   0.854  0.8320  0.4813  1.4436
 9052TIP3    H227121   0.671  -0.038   0.726 -0.6796 -2.0983  1.7976
 9053TIP3   OH227122   5.578   1.046   0.662 -0.0738 -0.3671  0.0825
 9053TIP3    H127123   5.496   0.998   0.649 -0.0868 -0.3383  0.0559
 9053TIP3    H227124   5.605   1.071   0.573  0.2644 -0.8737  0.0376
 9054TIP3   OH227125   6.921   1.853   0.837 -0.2225 -0.7007  0.4465
 9054TIP3    H127126   6.878   1.819   0.916 -1.5456 -1.7308 -0.6837
 9054TIP3    H227127   6.890   1.798   0.766  0.7203  0.3826 -0.8717
 9055TIP3   OH227128   5.667   0.071   5.503 -0.2022  0.0171  0.3678
 9055TIP3    H127129   5.705   0.150   5.466 -0.2230  0.4386  1.2293
 9055TIP3    H227130   5.713  -0.001   5.459 -0.0944  0.4994 -0.3232
 9056TIP3   OH227131   1.379   1.527   3.933 -0.3707  0.1374  0.5051
 9056TIP3    H127132   1.432   1.448   3.934  0.3383  0.5720 -0.5662
 9056TIP3    H227133   1.412   1.579   4.007  2.1699  1.2702 -1.2444
 9057TIP3   OH227134   5.520   2.193   4.264 -0.2097  0.7940 -0.1614
 9057TIP3    H127135   5.473   2.272   4.289 -0.9255 -0.1758  1.6747
 9057TIP3    H227136   5.609   2.206   4.298  0.8296  2.3529 -3.0959
 9058TIP3   OH227137   6.201   4.963   4.563  0.0057 -0.1477 -0.1761
 9058TIP3    H127138   6.159   4.896   4.509  0.3229 -1.7789  1.4728
 9058TIP3    H227139   6.146   4.969   4.641  0.9785  0.1783  0.5026
 9059TIP3   OH227140   3.691   5.828   4.764  0.0395 -0.2389 -0.5451
 9059TIP3    H127141   3.717   5.754   4.709 -0.3349 -0.3465 -0.5779
 9059TIP3    H227142   3.604   5.852   4.733 -0.4586 -0.7233  0.4275
 9060TIP3   OH227143   3.233   3.217   3.057 -0.0788 -0.3481 -0.2367
 9060TIP3    H127144   3.273   3.189   3.139 -0.8516  1.4744  0.8242
 9060TIP3    H227145   3.244   3.143   2.998  1.2882 -1.3699  1.2315
 9061TIP3   OH227146   3.793   4.783   2.596 -0.1324 -0.2617  0.2779
 9061TIP3    H127147   3.791   4.783   2.501 -2.2455 -0.7387  0.2722
 9061TIP3    H227148   3.832   4.698   2.619 -1.9753 -1.3138 -0.2229
 9062TIP3   OH227149   6.392   5.269   4.076  0.6936  0.7029  0.2486
 9062TIP3    H127150   6.408   5.262   3.982  0.7057  1.6470  0.1696
 9062TIP3    H227151   6.391   5.363   4.093  0.4337  0.5453  1.1513
 9063TIP3   OH227152   6.454   5.713   0.131 -0.0549 -0.6421  0.6710
 9063TIP3    H127153   6.523   5.728   0.067 -1.7662  0.3375 -1.0603
 9063TIP3    H227154   6.427   5.622   0.118  0.4070 -0.8048  0.8483
 9064TIP3   OH227155   1.835   5.371   4.343 -0.1449  0.3531  0.0568
 9064TIP3    H127156   1.912   5.390   4.397  1.6004 -1.0700 -1.7583
 9064TIP3    H227157   1.834   5.441   4.277 -0.5759  0.5362  0.2591
 9065TIP3   OH227158   5.867   2.955   5.244  0.2976  0.2684 -0.4824
 9065TIP3    H127159   5.869   2.938   5.150 -0.0368  0.4431 -0.5215
 9065TIP3    H227160   5.940   3.015   5.259 -1.0417  2.1232 -1.0101
 9066TIP3   OH227161   2.800   1.774   1.500 -0.0323  0.5336 -0.0605
 9066TIP3    H127162   2.833   1.822   1.576  0.2609 -0.5014  0.4850
 9066TIP3    H227163   2.816   1.832   1.426  0.1083  1.3655  0.6139
 9067TIP3   OH227164   7.170   3.604   1.620  0.3885  0.3427 -0.0421
 9067TIP3    H127165   7.151   3.683   1.671 -0.5124 -0.5704  1.0878
 9067TIP3    H227166   7.095   3.594   1.561 -1.4881 -1.6782  2.4372
 9068TIP3   OH227167   0.643   4.792   3.650  0.6694  0.1623 -0.4687
 9068TIP3    H127168   0.693   4.851   3.706 -0.8296  1.8575 -0.8114
 9068TIP3    H227169   0.701   4.772   3.577  1.3511  0.9046 -0.1427
 9069TIP3   OH227170   4.875   0.875   2.684 -0.3828  0.1940 -0.2497
 9069TIP3    H127171   4.861   0.828   2.766  0.8335 -0.0272 -0.1410
 9069TIP3    H227172   4.842   0.964   2.702  1.1599  0.5726  0.9982
 9070TIP3   OH227173   5.663   5.173   2.903 -0.2685 -0.3464  0.4047
 9070TIP3    H127174   5.618   5.126   2.832 -0.5632  0.6373 -0.0887
 9070TIP3    H227175   5.593   5.195   2.965 -1.0426  3.0964 -1.3916
 9071TIP3   OH227176   4.368   4.619   4.134 -0.0926 -0.5874  0.5508
 9071TIP3    H127177   4.461   4.645   4.138  0.5222 -2.7675  2.8963
 9071TIP3    H227178   4.330   4.656   4.213 -1.1701 -0.0739 -0.1856
 9072TIP3   OH227179   6.080   3.847   0.562 -0.2621 -0.6519 -0.0788
 9072TIP3    H127180   6.154   3.860   0.502  0.6517  0.2220  1.1901
 9072TIP3    H227181   6.075   3.929   0.612 -1.4097 -1.1162  0.6046
 9073TIP3   OH227182   4.377   1.362   5.039  0.4652 -0.4729 -0.6456
 9073TIP3    H127183   4.329   1.420   5.098  1.0316 -0.9917  0.3407
 9073TIP3    H227184   4.340   1.381   4.952  0.3155  1.0285 -0.2864
 9074TIP3   OH227185   1.426   1.549   5.391 -0.3317  0.5895  0.4710
 9074TIP3    H127186   1.338   1.558   5.357 -0.2669  2.2989  0.6601
 9074TIP3    H227187   1.477   1.617   5.347  0.4850  0.7503  1.5933
 9075TIP3   OH227188   3.231   3.321   5.648 -0.7006  0.3936 -0.1365
 9075TIP3    H127189   3.179   3.355   5.721  0.9531  0.5108  1.0404
 9075TIP3    H227190   3.258   3.398   5.599  0.6277  0.6031  0.8626
 9076TIP3   OH227191   2.253   5.273   4.578 -0.2837 -0.3669 -0.6871
 9076TIP3    H127192   2.175   5.219   4.593 -0.8137  0.2003 -1.3265
 9076TIP3    H227193   2.323   5.209   4.561 -0.2216 -0.9376  1.4334
 9077TIP3   OH227194   2.597   0.285   5.069 -0.0602 -0.4302 -0.1471
 9077TIP3    H127195   2.543   0.269   4.992 -0.8231  1.2476  0.0038
 9077TIP3    H227196   2.610   0.198   5.107  0.7635 -1.3723 -2.4048
 9078TIP3   OH227197   5.442   0.200   3.122 -0.0387 -0.1356  0.3812
 9078TIP3    H127198   5.396   0.272   3.080  0.6899 -0.1686 -0.5028
 9078TIP3    H227199   5.498   0.242   3.188  0.8386  0.1928 -0.5410
 9079TIP3   OH227200   6.780   2.669   3.142  0.1238  0.2635  0.4206
 9079TIP3    H127201   6.871   2.661   3.170 -0.1233 -0.2541  1.0875
 9079TIP3    H227202   6.785   2.717   3.060  1.2378 -2.2631 -1.0991
 9080TIP3   OH227203   6.660   5.229   3.928 -0.4386 -0.1281 -0.5698
 9080TIP3    H127204   6.628   5.213   3.839  0.5621  1.2290 -1.2028
 9080TIP3    H227205   6.660   5.324   3.936 -0.8013 -0.2407  1.0083
 9081TIP3   OH227206   0.909   4.983   0.165 -0.0611  0.0202 -0.0619
 9081TIP3    H127207   0.914   4.915   0.097 -1.1932  2.0573 -2.3177
 9081TIP3    H227208   0.997   4.984   0.204  0.5311 -1.4330 -1.2471
 9082TIP3   OH227209   0.463   2.271   0.030 -0.0402  0.2439 -0.5206
 9082TIP3    H127210   0.372   2.254   0.007 -0.0965 -1.7400  0.9671
 9082TIP3    H227211   0.459   2.316   0.114  0.3536 -0.3299 -0.1883
 9083TIP3   OH227212   6.344   5.951   5.439  0.0305  0.2339  0.2749
 9083TIP3    H127213   6.375   5.985   5.355  0.3522  0.1529  0.3583
 9083TIP3    H227214   6.285   6.019   5.473 -0.5007  0.0457 -0.2473
 9084TIP3   OH227215   1.598   6.025   1.607 -0.0713  0.6053  0.3000
 9084TIP3    H127216   1.663   5.959   1.584 -1.2690 -0.5400  0.0901
 9084TIP3    H227217   1.624   6.103   1.558  1.4068  0.3282  0.6103
 9085TIP3   OH227218   3.649   0.132   4.549 -0.5653 -0.0536  0.4585
 9085TIP3    H127219   3.709   0.059   4.560  2.4625  2.3236  0.9603
 9085TIP3    H227220   3.597   0.133   4.629  1.6976  0.2625  2.0132
 9086TIP3   OH227221   3.826   3.677   5.880 -0.4638  0.1486  0.5996
 9086TIP3    H127222   3.759   3.659   5.814  0.3998  0.7708 -0.4674
 9086TIP3    H227223   3.905   3.698   5.830  0.0880  1.1130  1.8134
 9087TIP3   OH227224   2.350   0.273   2.948 -0.1064  0.2364  0.1284
 9087TIP3    H127225   2.441   0.289   2.923 -0.1588  0.3622  0.0172
 9087TIP3    H227226   2.342   0.310   3.036 -0.6290  2.2448 -0.7130
 9088TIP3   OH227227   3.339   2.633   1.137  0.0436  0.4725  0.1527
 9088TIP3    H127228   3.259   2.649   1.086 -0.8402 -0.3205  1.2354
 9088TIP3    H227229   3.398   2.588   1.077 -2.3188 -3.8461  0.7026
 9089TIP3   OH227230   7.189   5.256   2.725 -0.1051 -0.3057 -0.0421
 9089TIP3    H127231   7.272   5.280   2.683 -0.2492  0.3815  0.0556
 9089TIP3    H227232   7.163   5.334   2.774  0.0898 -1.1080  1.4015
 9090TIP3   OH227233   6.767   0.418   5.043 -0.7808 -0.1891 -0.1667
 9090TIP3    H127234   6.789   0.442   5.133  0.8438 -0.3301 -0.4944
 9090TIP3    H227235   6.757   0.322   5.045  0.4656 -0.3439 -0.3385
 9091TIP3   OH227236   3.904   4.727   5.034 -0.2256 -0.3032 -0.1154
 9091TIP3    H127237   3.826   4.731   5.090 -0.6765 -0.2404 -0.7329
 9091TIP3    H227238   3.869   4.724   4.945  0.4818 -0.3478 -0.3979
 9092TIP3   OH227239   4.318   5.464   4.061 -0.1745  0.2254 -0.4596
 9092TIP3    H127240   4.357   5.439   3.977 -1.5131  0.1089 -1.0704
 9092TIP3    H227241   4.224   5.470   4.043 -0.5987 -0.7510  1.2703
 9093TIP3   OH227242   4.225   4.155   3.902 -0.0831  0.4324  0.1089
 9093TIP3    H127243   4.164   4.101   3.951 -1.2048 -0.0279 -1.6976
 9093TIP3    H227244   4.261   4.216   3.967 -0.1506 -1.2592  1.8123
 9094TIP3   OH227245   6.857   5.914   4.966  0.2753  0.4546 -0.0468
 9094TIP3    H127246   6.929   5.872   5.014 -0.1681  0.8561  1.0048
 9094TIP3    H227247   6.876   5.897   4.874  0.8433 -0.8634  0.2921
 9095TIP3   OH227248   2.372   5.929   4.647  0.7165  0.5123 -0.5336
 9095TIP3    H127249   2.386   5.851   4.700  1.8658  0.0906 -1.3938
 9095TIP3    H227250   2.278   5.929   4.629  0.7842 -1.1098 -1.1226
 9096TIP3   OH227251   4.825   1.794   2.154 -0.2622 -0.4640 -0.0857
 9096TIP3    H127252   4.783   1.838   2.228 -1.6129 -1.7414 -0.0582
 9096TIP3    H227253   4.893   1.740   2.194 -0.2105 -0.2563  0.1091
 9097TIP3   OH227254   0.311   3.366   5.717  0.2641  0.4650  0.2165
 9097TIP3    H127255   0.233   3.317   5.743  0.1636 -0.2362 -1.2885
 9097TIP3    H227256   0.278   3.453   5.694  0.2218  0.7782  1.3559
 9098TIP3   OH227257   3.580   0.465   5.155  0.2112  0.1469  0.0949
 9098TIP3    H127258   3.600   0.515   5.235 -0.9396 -0.2616  0.6568
 9098TIP3    H227259   3.501   0.416   5.177  1.3128 -1.9627 -0.4204
 9099TIP3   OH227260   3.948   3.220   1.803 -0.1676  0.0326  0.4467
 9099TIP3    H127261   3.948   3.165   1.725  0.1773  0.8773 -0.1692
 9099TIP3    H227262   4.036   3.258   1.804 -0.7519  1.4394  0.2192
 9100TIP3   OH227263   6.079   2.232   4.566 -0.2765 -0.3143 -1.0986
 9100TIP3    H127264   6.064   2.208   4.657 -1.7895  0.3991 -1.1273
 9100TIP3    H227265   6.172   2.250   4.561  0.1337 -1.9580 -0.0928
 9101TIP3   OH227266   2.393   3.576   4.369  0.5076  0.1858 -0.2777
 9101TIP3    H127267   2.311   3.604   4.412 -0.3054 -0.1013 -1.5972
 9101TIP3    H227268   2.415   3.494   4.412 -0.0620  0.1140 -0.1081
 9102TIP3   OH227269   1.092   1.428   5.127  0.1936  0.2177 -0.2199
 9102TIP3    H127270   1.179   1.398   5.102 -0.0865 -0.9992  0.1981
 9102TIP3    H227271   1.035   1.397   5.058 -0.2558 -1.2018  0.7495
 9103TIP3   OH227272   2.989   4.109   4.754  0.0027  0.0455  0.0781
 9103TIP3    H127273   2.988   4.112   4.850  0.1419 -1.4256  0.1455
 9103TIP3    H227274   3.077   4.140   4.730  1.1361 -2.4486  0.6186
 9104TIP3   OH227275   4.745   5.274   4.278 -0.3146 -0.2654  0.3520
 9104TIP3    H127276   4.683   5.346   4.290 -0.4623 -0.4588  0.7716
 9104TIP3    H227277   4.808   5.285   4.349  0.3566  0.1542 -0.2973
 9105TIP3   OH227278   3.215   1.603   4.951  0.4898 -0.0057  0.6240
 9105TIP3    H127279   3.128   1.580   4.983 -0.1436  2.9364  1.3264
 9105TIP3    H227280   3.200   1.650   4.870  1.6819 -1.7627 -0.6954
 9106TIP3   OH227281   1.708   3.330   5.295 -0.2656  0.2118  0.1021
 9106TIP3    H127282   1.799   3.311   5.320 -0.5023 -0.1655  0.6810
 9106TIP3    H227283   1.696   3.285   5.211 -0.4435 -1.2004  0.8602
 9107TIP3   OH227284   1.728   4.052   0.455 -0.0907  0.4599  0.7977
 9107TIP3    H127285   1.762   3.963   0.455  2.8407  1.4805  1.9479
 9107TIP3    H227286   1.663   4.053   0.525  0.7330 -0.4675  1.6010
 9108TIP3   OH227287   3.812   3.467   0.009  0.2804  0.4173 -0.2753
 9108TIP3    H127288   3.761   3.451  -0.071  0.6886 -1.4014 -0.2152
 9108TIP3    H227289   3.751   3.449   0.080  1.0450 -2.2514 -0.1995
 9109TIP3   OH227290   6.619   5.054   1.050 -0.0665  0.9628 -0.2631
 9109TIP3    H127291   6.621   4.980   0.990  1.4332 -0.3432  1.3063
 9109TIP3    H227292   6.560   5.026   1.121 -0.5095  1.7987 -0.2932
 9110TIP3   OH227293   4.063   4.936   5.015  0.9271  0.0783 -0.0286
 9110TIP3    H127294   4.029   4.849   5.036  1.4580  0.0059  0.5674
 9110TIP3    H227295   4.125   4.920   4.943 -0.9436  0.3369 -1.8085
 9111TIP3   OH227296   0.362   2.806   2.105  0.0789 -0.5288 -0.6019
 9111TIP3    H127297   0.399   2.894   2.117  0.0156 -0.5483 -0.2564
 9111TIP3    H227298   0.433   2.755   2.067  0.0795 -0.2980 -0.9175
 9112TIP3   OH227299   6.894   4.232   1.693  0.3293  0.0947  0.4870
 9112TIP3    H127300   6.901   4.285   1.614 -3.6492 -0.1449 -0.2265
 9112TIP3    H227301   6.821   4.271   1.741  1.4874 -0.8639  3.2203
 9113TIP3   OH227302   0.039   0.125   5.313  0.5532  0.6260 -0.0556
 9113TIP3    H127303   0.118   0.154   5.268  1.2353  2.7452  2.2805
 9113TIP3    H227304   0.053   0.031   5.327  1.5416  0.4804 -1.7179
 9114TIP3   OH227305   5.346   4.426   3.106 -0.1442 -0.1975 -0.4683
 9114TIP3    H127306   5.362   4.442   3.013  2.0421 -0.1811 -0.1436
 9114TIP3    H227307   5.288   4.349   3.107 -1.1927  0.5173 -1.8257
 9115TIP3   OH227308   3.088   1.286   2.261 -0.0459  0.3035  0.3767
 9115TIP3    H127309   3.104   1.290   2.166  0.8626  0.3620  0.5248
 9115TIP3    H227310   3.128   1.203   2.288 -1.2597 -0.2427  0.5442
 9116TIP3   OH227311   3.334   2.915   0.331  0.0432  0.1738  0.5385
 9116TIP3    H127312   3.320   2.999   0.286 -0.5123 -0.4678 -0.5311
 9116TIP3    H227313   3.270   2.915   0.402 -0.9327  0.0793 -0.3134
 9117TIP3   OH227314   6.364   0.378   2.943  0.5754  0.1647  0.1020
 9117TIP3    H127315   6.289   0.402   2.889 -1.2134 -2.1460  1.3827
 9117TIP3    H227316   6.399   0.462   2.974 -0.7348  1.3495 -1.4482
 9118TIP3   OH227317   2.364   2.194   4.523  0.0577 -0.1255 -0.2199
 9118TIP3    H127318   2.329   2.238   4.446 -0.6538  0.0984  0.2246
 9118TIP3    H227319   2.303   2.121   4.538 -1.6768  1.5989  1.9402
 9119TIP3   OH227320   6.763   0.268   0.282  0.1081 -0.3364 -0.7685
 9119TIP3    H127321   6.722   0.280   0.367  1.0584 -1.0388 -0.1926
 9119TIP3    H227322   6.721   0.190   0.245 -0.8067  0.3700 -1.2784
 9120TIP3   OH227323   4.457   2.332   1.180  0.1303 -0.1211 -0.0254
 9120TIP3    H127324   4.448   2.386   1.259 -0.9932  0.5661 -0.5985
 9120TIP3    H227325   4.472   2.395   1.109  1.4871 -0.7527 -0.3282
 9121TIP3   OH227326   2.697   1.352   4.278  0.2051 -0.4161 -0.0522
 9121TIP3    H127327   2.717   1.267   4.317 -0.8091 -1.1555 -1.0738
 9121TIP3    H227328   2.770   1.368   4.218  0.1500 -0.8227 -0.2344
 9122TIP3   OH227329   2.885   4.554   3.102  0.0442  0.5460  0.3588
 9122TIP3    H127330   2.924   4.617   3.040  1.5374 -0.3956  0.3051
 9122TIP3    H227331   2.855   4.608   3.175 -0.9436  1.5839 -0.7634
 9123TIP3   OH227332   3.052   6.149   5.309  0.1820 -0.0555  0.1894
 9123TIP3    H127333   3.096   6.186   5.233 -0.3713 -0.5639 -0.3893
 9123TIP3    H227334   3.023   6.224   5.360  0.3219  0.2869 -0.2359
 9124TIP3   OH227335   6.616   3.408   2.591  0.1502 -0.4530  0.5347
 9124TIP3    H127336   6.552   3.405   2.662 -1.3263  1.0072 -0.6426
 9124TIP3    H227337   6.671   3.483   2.612 -0.6331  0.3248 -0.0760
 9125TIP3   OH227338   5.782   2.794   3.940  0.3697  0.1008 -0.1060
 9125TIP3    H127339   5.860   2.754   3.903  0.2351  0.6747 -1.0499
 9125TIP3    H227340   5.790   2.781   4.034  1.7118  0.3327 -0.1701
 9126TIP3   OH227341   1.162   0.189   3.598 -0.5533 -0.1211 -0.5824
 9126TIP3    H127342   1.131   0.246   3.668  0.5478 -0.7900  0.4929
 9126TIP3    H227343   1.083   0.144   3.567 -0.8873 -0.8282  1.1899
 9127TIP3   OH227344   7.163   4.926   2.759 -0.4593 -0.4661  0.7452
 9127TIP3    H127345   7.150   5.017   2.784 -2.3440 -0.6054  0.3972
 9127TIP3    H227346   7.258   4.915   2.756 -0.2039  1.5108  0.6418
 9128TIP3   OH227347   7.042   4.223   2.216  0.1293  0.3543 -0.2141
 9128TIP3    H127348   7.027   4.316   2.196  0.4115  0.7223  1.1855
 9128TIP3    H227349   7.137   4.213   2.213  0.0783  0.0183 -0.7326
 9129TIP3   OH227350   6.364   1.018   0.607  0.6460  0.0214  0.4571
 9129TIP3    H127351   6.308   0.960   0.659 -0.3319 -0.5820 -1.1958
 9129TIP3    H227352   6.305   1.058   0.544  2.0208 -0.4237 -1.1787
 9130TIP3   OH227353   4.025   4.250   4.255  0.2928 -0.0535 -0.2534
 9130TIP3    H127354   4.075   4.170   4.242  1.2609  0.2898  1.0278
 9130TIP3    H227355   4.063   4.289   4.334 -1.1025  0.9410 -0.0268
 9131TIP3   OH227356   5.357   5.140   3.306 -0.4576  0.6622  0.4567
 9131TIP3    H127357   5.301   5.063   3.321  1.7434 -1.4596 -1.4089
 9131TIP3    H227358   5.409   5.146   3.386  0.1547 -0.5611  0.1783
 9132TIP3   OH227359   6.583   4.368   2.816 -0.1582  0.6082 -0.3959
 9132TIP3    H127360   6.607   4.452   2.855 -0.4626  0.3618  0.3467
 9132TIP3    H227361   6.631   4.364   2.734 -0.6359  1.7882 -0.7481
 9133TIP3   OH227362   1.820   5.261   4.640 -0.0845  0.4929 -0.1928
 9133TIP3    H127363   1.752   5.231   4.700  1.8105  0.0245  1.8408
 9133TIP3    H227364   1.832   5.354   4.662 -0.1612  0.6198 -0.6692
 9134TIP3   OH227365   5.289   3.281   3.198  0.1583 -0.2433 -0.0401
 9134TIP3    H127366   5.235   3.204   3.181 -0.6114 -0.2516  2.2001
 9134TIP3    H227367   5.286   3.330   3.116  0.2159 -2.2838 -1.3383
 9135TIP3   OH227368   2.409   6.168   3.520 -0.4038  0.3650 -0.1209
 9135TIP3    H127369   2.357   6.105   3.569 -0.0936  0.3268  0.1648
 9135TIP3    H227370   2.424   6.240   3.581 -2.5828  1.7453 -1.0990
 9136TIP3   OH227371   6.995   4.861   4.038  0.0673 -0.1017 -0.0752
 9136TIP3    H127372   6.907   4.855   4.001  0.5218  0.6514 -1.3594
 9136TIP3    H227373   7.052   4.820   3.973  0.7117 -0.2604  0.5697
 9137TIP3   OH227374   0.562   4.246   1.514  0.0072  0.6267 -0.1045
 9137TIP3    H127375   0.522   4.296   1.444 -0.3945  1.0426  0.4129
 9137TIP3    H227376   0.622   4.307   1.556 -0.9911  0.9024  0.9659
 9138TIP3   OH227377   5.599   1.804   2.452  0.1628 -0.0801 -0.2849
 9138TIP3    H127378   5.678   1.835   2.498  0.0434 -0.4727  0.1969
 9138TIP3    H227379   5.603   1.846   2.367  0.0557  1.2035  0.3157
 9139TIP3   OH227380   6.446   0.419   0.940  0.3596  0.1004 -0.2958
 9139TIP3    H127381   6.395   0.342   0.962  0.6519  0.7744  3.3694
 9139TIP3    H227382   6.537   0.391   0.949  0.5032  0.5332 -0.3548
 9140TIP3   OH227383   5.262   3.672   0.138 -0.1646 -0.4890 -0.2396
 9140TIP3    H127384   5.206   3.750   0.148  0.3458 -0.0401 -0.8419
 9140TIP3    H227385   5.269   3.637   0.227  0.0561  0.4728  0.1396
 9141TIP3   OH227386   2.810   4.859   3.636  0.6686  0.2499 -0.0534
 9141TIP3    H127387   2.782   4.925   3.699  1.1946  0.4336 -0.0010
 9141TIP3    H227388   2.905   4.853   3.648  0.6186 -0.5804  0.0015
 9142TIP3   OH227389   4.835   3.350   4.341 -0.5545 -0.3110  0.3461
 9142TIP3    H127390   4.790   3.340   4.424  0.6420 -2.1091  0.8268
 9142TIP3    H227391   4.777   3.309   4.276 -1.5321  1.1782  0.2319
 9143TIP3   OH227392   3.009   4.734   2.919  0.6147 -0.7376 -0.4603
 9143TIP3    H127393   3.095   4.767   2.894 -0.5554  0.5077 -3.2981
 9143TIP3    H227394   2.969   4.706   2.837 -1.3431 -2.2385  0.8981
 9144TIP3   OH227395   2.628   5.247   4.268 -0.3029 -0.2607 -0.0476
 9144TIP3    H127396   2.577   5.312   4.317 -0.0097 -0.2863  0.2949
 9144TIP3    H227397   2.562   5.193   4.224 -0.6251 -1.0323  1.3407
 9145TIP3   OH227398   3.275   4.798   2.885 -0.4566  0.2202  0.4086
 9145TIP3    H127399   3.296   4.883   2.923  2.2406  0.1054 -0.6446
 9145TIP3    H227400   3.311   4.735   2.948  1.2468 -0.0155 -0.7489
 9146TIP3   OH227401   1.113   1.125   2.393 -0.0763 -0.1472 -0.2142
 9146TIP3    H127402   1.163   1.202   2.365  1.3915 -0.7285  0.6947
 9146TIP3    H227403   1.024   1.158   2.406  0.0493  0.9272 -1.8580
 9147TIP3   OH227404   1.539   0.559   1.615  0.0880  0.1102  0.0735
 9147TIP3    H127405   1.622   0.605   1.603 -0.2779  0.7912  0.0876
 9147TIP3    H227406   1.548   0.514   1.698  0.9993 -1.0475 -0.6209
 9148TIP3   OH227407   5.675   4.913   0.967  0.0266  0.2585 -0.1496
 9148TIP3    H127408   5.615   4.838   0.978 -0.3838  0.5243 -0.5645
 9148TIP3    H227409   5.731   4.909   1.044 -1.2186  0.6305  0.8114
 9149TIP3   OH227410   2.954   0.602   5.131  0.0350 -0.3239  0.3272
 9149TIP3    H127411   2.898   0.645   5.195  1.8659  0.5525  1.4203
 9149TIP3    H227412   3.040   0.600   5.172  1.0299 -0.7571 -1.6725
 9150TIP3   OH227413   4.424   5.895   4.605 -0.2864 -0.2773 -0.4092
 9150TIP3    H127414   4.410   5.843   4.684  1.3909 -1.0324 -0.5624
 9150TIP3    H227415   4.510   5.868   4.574 -0.7016  0.3561 -2.2408
 9151TIP3   OH227416   3.881   4.673   4.120  0.6692 -0.1237  0.4427
 9151TIP3    H127417   3.817   4.664   4.050  0.9088  2.2823 -0.1764
 9151TIP3    H227418   3.944   4.602   4.104 -0.1374 -0.5875 -0.8079
 9152TIP3   OH227419   0.526   1.544   3.672 -0.7662 -0.6527 -0.2660
 9152TIP3    H127420   0.512   1.587   3.756  0.7048 -0.7069  0.0344
 9152TIP3    H227421   0.490   1.605   3.607  1.4246  1.2059  0.1274
 9153TIP3   OH227422   5.883   0.135   5.797 -0.2270 -0.3256  0.6952
 9153TIP3    H127423   5.863   0.177   5.880  0.6552  0.9534  0.2920
 9153TIP3    H227424   5.952   0.189   5.759 -1.3506 -0.2530 -1.3646
 9154TIP3   OH227425   5.537   0.191   1.080 -0.2076  0.8771 -0.4037
 9154TIP3    H127426   5.471   0.219   1.144 -1.4771  1.5029 -1.9138
 9154TIP3    H227427   5.486   0.148   1.011  1.1948 -0.4238 -0.6813
 9155TIP3   OH227428   3.784   2.340   4.139  0.8264 -0.5074 -0.3999
 9155TIP3    H127429   3.849   2.365   4.205 -0.0466  0.7625  0.0181
 9155TIP3    H227430   3.827   2.356   4.055  0.5340  1.9381 -0.1482
 9156TIP3   OH227431   1.499   2.286   5.368  0.2421 -0.2376  0.2301
 9156TIP3    H127432   1.446   2.224   5.419  1.1940 -1.9259 -0.7342
 9156TIP3    H227433   1.482   2.263   5.277  0.8102  0.7850 -0.1538
 9157TIP3   OH227434   3.581   1.695   3.041 -0.1021 -0.5249  0.3991
 9157TIP3    H127435   3.490   1.669   3.027 -0.3414  0.6636 -0.3744
 9157TIP3    H227436   3.589   1.703   3.136 -0.1204 -2.9050  0.6712
 9158TIP3   OH227437   6.296   5.092   4.904 -0.0930 -0.8845  0.4063
 9158TIP3    H127438   6.223   5.135   4.860  0.5438 -0.4690 -0.2744
 9158TIP3    H227439   6.286   5.116   4.996 -1.3963 -1.6901  0.4976
 9159TIP3   OH227440   3.675   2.846   1.165  0.8055 -0.5482 -0.2036
 9159TIP3    H127441   3.745   2.785   1.140  0.7896  0.0319 -1.7327
 9159TIP3    H227442   3.685   2.920   1.105 -0.2888  0.1538  0.4556
 9160TIP3   OH227443   3.769   5.211   4.895  0.0461  0.1809 -0.0812
 9160TIP3    H127444   3.704   5.151   4.858  0.8077 -0.1883 -0.8564
 9160TIP3    H227445   3.745   5.297   4.861  0.4703 -0.0895 -1.0984
 9161TIP3   OH227446   1.907   2.839   3.767  0.3288 -0.2407  0.0016
 9161TIP3    H127447   1.875   2.811   3.853 -0.0663  0.2580  0.0206
 9161TIP3    H227448   1.858   2.919   3.748  1.3868  0.4133 -0.0836
 9162TIP3   OH227449   4.461   4.229   0.635  0.1022 -0.2893 -0.0916
 9162TIP3    H127450   4.482   4.183   0.717  0.6957  1.8524  1.0486
 9162TIP3    H227451   4.388   4.287   0.658  0.4649  0.5574 -0.9796
 9163TIP3   OH227452   2.616   1.415   2.867  0.0387  0.3433 -0.2632
 9163TIP3    H127453   2.674   1.354   2.823  0.5649  0.4624  0.2559
 9163TIP3    H227454   2.609   1.489   2.807  0.8743  0.5742 -0.0838
 9164TIP3   OH227455   5.145   0.545   2.399  0.5548  0.0398  0.3701
 9164TIP3    H127456   5.223   0.548   2.345  0.6102 -0.7093  0.4065
 9164TIP3    H227457   5.177   0.555   2.489  0.8058 -1.9445  0.5454
 9165TIP3   OH227458   4.573   3.551   0.626 -0.1903 -0.6593 -0.3797
 9165TIP3    H127459   4.640   3.618   0.631 -0.8299 -0.0336  0.0102
 9165TIP3    H227460   4.592   3.492   0.698  0.0370 -0.5756 -0.3722
 9166TIP3   OH227461   5.134   1.608   5.753 -0.1044  0.2439 -0.0398
 9166TIP3    H127462   5.100   1.698   5.750  0.0554  0.3510  0.8770
 9166TIP3    H227463   5.163   1.597   5.844 -1.0185 -1.0720  0.1159
 9167TIP3   OH227464   0.012   2.969   5.659  0.3967  0.5846  0.2184
 9167TIP3    H127465   0.000   3.049   5.608  0.5920  1.3902  1.4047
 9167TIP3    H227466   0.060   2.910   5.600 -3.7744 -0.5399 -2.5438
 9168TIP3   OH227467   3.026   0.759   3.115 -0.5157 -0.2929  0.8380
 9168TIP3    H127468   2.988   0.799   3.037 -0.3380  0.9705  1.3610
 9168TIP3    H227469   2.991   0.811   3.188  1.6211  0.4919  1.3830
 9169TIP3   OH227470   5.493   3.089   0.382  0.4033 -0.9295 -0.0460
 9169TIP3    H127471   5.442   3.171   0.380  0.6201 -0.8152 -1.6158
 9169TIP3    H227472   5.428   3.022   0.403  0.0171 -0.4951  0.1770
 9170TIP3   OH227473   4.617   2.134   4.608  0.6637 -0.5380 -0.6659
 9170TIP3    H127474   4.606   2.095   4.695  1.2793 -0.2181 -0.4386
 9170TIP3    H227475   4.561   2.212   4.610  1.7472  0.2512 -0.0452
 9171TIP3   OH227476   0.886   4.322   3.227 -0.2904 -0.0665  0.1845
 9171TIP3    H127477   0.809   4.270   3.202 -2.0993  2.1473  0.8190
 9171TIP3    H227478   0.938   4.263   3.282 -0.0640 -2.5143 -2.4513
 9172TIP3   OH227479   0.577   4.111   4.107  0.0015  0.8930 -0.2377
 9172TIP3    H127480   0.519   4.077   4.176  1.0258  0.2332  0.3206
 9172TIP3    H227481   0.545   4.070   4.026  1.9426 -2.6080  0.5366
 9173TIP3   OH227482   0.346   0.904   1.533  0.3062 -0.1569  0.1671
 9173TIP3    H127483   0.410   0.832   1.532  0.1657 -0.2733 -0.6049
 9173TIP3    H227484   0.399   0.983   1.541  0.8329  0.0096 -3.4072
 9174TIP3   OH227485   5.116   2.680   1.320  0.2716  0.2445  0.0604
 9174TIP3    H127486   5.163   2.598   1.307  2.2842  1.4693 -0.8393
 9174TIP3    H227487   5.058   2.663   1.394  1.8310 -1.4773  0.9678
 9175TIP3   OH227488   0.981   2.979   4.134 -0.5598  0.3128  0.4218
 9175TIP3    H127489   0.920   2.989   4.207 -0.4863  1.3166  0.3588
 9175TIP3    H227490   0.925   2.974   4.056 -0.6866 -1.5970  0.5773
 9176TIP3   OH227491   0.239   0.091   2.438 -0.5095 -0.2215 -0.2840
 9176TIP3    H127492   0.273   0.061   2.353 -2.0216  0.4820 -1.1748
 9176TIP3    H227493   0.299   0.161   2.464 -0.0322 -0.4376 -0.7857
 9177TIP3   OH227494   5.081   6.541   3.004 -0.1498 -0.1873 -0.0709
 9177TIP3    H127495   5.094   6.605   2.933  0.1831 -0.5157 -0.3078
 9177TIP3    H227496   5.004   6.491   2.978 -0.3797  0.0798  0.0893
 9178TIP3   OH227497   4.089   6.005   5.420  0.0950  0.2601 -0.6892
 9178TIP3    H127498   4.023   6.013   5.488 -1.0151  0.4134 -1.7482
 9178TIP3    H227499   4.048   6.041   5.342  1.6663  0.9558 -1.2422
 9179TIP3   OH227500   4.514   3.421   5.529 -0.0808 -0.4066  0.2463
 9179TIP3    H127501   4.596   3.469   5.514  0.0744 -0.4898  0.7803
 9179TIP3    H227502   4.535   3.362   5.602 -0.5395 -0.6215  0.2029
 9180TIP3   OH227503   0.249   2.070   1.236  0.5203  0.1134 -0.3846
 9180TIP3    H127504   0.283   2.156   1.260  1.6524  0.3721 -2.6405
 9180TIP3    H227505   0.322   2.027   1.190 -0.5674 -1.3732 -0.8099
 9181TIP3   OH227506   3.586   6.617   5.155  0.3029  0.0554  0.9192
 9181TIP3    H127507   3.510   6.639   5.209 -1.5460  0.2290 -1.5667
 9181TIP3    H227508   3.595   6.522   5.165 -0.4651 -0.0219  0.9661
 9182TIP3   OH227509   4.281   0.275   5.410 -0.2841 -0.0996 -0.7658
 9182TIP3    H127510   4.236   0.191   5.404 -0.3949 -0.1825  0.7968
 9182TIP3    H227511   4.368   0.253   5.443 -0.6580  0.4696  0.6533
 9183TIP3   OH227512   7.058   5.850   5.147 -0.0114  0.0800 -0.0501
 9183TIP3    H127513   7.106   5.773   5.178 -0.2338 -0.4299 -0.9243
 9183TIP3    H227514   7.084   5.920   5.206  2.3439 -0.0095 -0.8773
 9184TIP3   OH227515   1.131   2.238   0.918 -0.2553  0.0721 -0.2488
 9184TIP3    H127516   1.156   2.204   1.004 -0.2562  0.0176 -0.2699
 9184TIP3    H227517   1.035   2.243   0.921 -0.1894  1.4753  0.2865
 9185TIP3   OH227518   1.296   3.936   4.613  0.2290 -0.9526 -0.1426
 9185TIP3    H127519   1.289   3.971   4.524 -0.3515 -0.8964 -0.0811
 9185TIP3    H227520   1.205   3.918   4.638  0.3396 -0.4131  0.6648
 9186TIP3   OH227521   2.636   4.974   5.729  0.4689 -0.3704  0.3143
 9186TIP3    H127522   2.616   4.892   5.774  2.5983 -1.0444  0.1666
 9186TIP3    H227523   2.553   5.021   5.727 -0.8190 -2.4783  0.4701
 9187TIP3   OH227524   4.130   2.342   5.005 -0.2744 -0.0135 -0.1835
 9187TIP3    H127525   4.078   2.418   4.980  1.3459  0.6140 -1.9095
 9187TIP3    H227526   4.194   2.376   5.067 -1.3961 -0.6206  1.3431
 9188TIP3   OH227527   0.172   5.816   3.896  0.1882 -0.4329 -0.0844
 9188TIP3    H127528   0.158   5.842   3.805 -0.6721  0.3137  0.2441
 9188TIP3    H227529   0.234   5.881   3.930  1.0169 -1.0899 -0.2984
 9189TIP3   OH227530   1.939   4.555   1.043 -0.4521 -0.4276 -0.2876
 9189TIP3    H127531   1.993   4.532   1.119 -1.4416  1.2525  1.0066
 9189TIP3    H227532   2.001   4.589   0.979  0.1148  1.4066  1.1381
 9190TIP3   OH227533   2.708   0.056   1.568  0.6884  0.1940 -0.3155
 9190TIP3    H127534   2.794   0.030   1.535 -0.1288 -0.7076 -1.8501
 9190TIP3    H227535   2.677   0.121   1.505 -1.0469 -1.8050 -1.6613
 9191TIP3   OH227536   3.732   5.051   2.647 -0.0109  0.1729 -0.4620
 9191TIP3    H127537   3.732   4.956   2.646 -0.8334  0.1637 -0.2938
 9191TIP3    H227538   3.649   5.075   2.687  0.2639  0.9635 -0.3396
 9192TIP3   OH227539   5.608   4.615   3.967 -0.2270 -0.0635 -0.2555
 9192TIP3    H127540   5.637   4.576   3.884 -2.3327 -0.0566 -1.0614
 9192TIP3    H227541   5.613   4.710   3.952 -2.3686 -0.0372 -1.1129
 9193TIP3   OH227542   2.161   0.637   5.157  0.0407  0.1808 -0.1366
 9193TIP3    H127543   2.085   0.666   5.208  1.4812  1.9978  1.0680
 9193TIP3    H227544   2.225   0.610   5.223  1.1453  0.5019 -1.0530
 9194TIP3   OH227545   2.323   1.811   3.652 -0.4514 -0.1509  0.6973
 9194TIP3    H127546   2.351   1.777   3.737  0.2361 -0.2461  0.4420
 9194TIP3    H227547   2.362   1.898   3.647 -1.4091  0.2988  0.9391
 9195TIP3   OH227548   3.414   3.307   0.806  0.3105 -0.2831 -0.4267
 9195TIP3    H127549   3.389   3.220   0.773 -0.2170  1.0868 -4.0581
 9195TIP3    H227550   3.505   3.296   0.834 -0.6651 -2.6760  2.3825
 9196TIP3   OH227551   5.376   3.868   2.825 -0.0513  0.0103 -0.0179
 9196TIP3    H127552   5.430   3.814   2.884  0.6217 -0.7125 -1.2480
 9196TIP3    H227553   5.424   3.869   2.742  0.0811  2.7365  0.0001
 9197TIP3   OH227554   3.580   3.112   4.371 -0.1571  0.0683 -0.0756
 9197TIP3    H127555   3.522   3.153   4.435  0.8803  0.3273  0.7051
 9197TIP3    H227556   3.573   3.168   4.293  0.3931  1.1153  0.6071
 9198TIP3   OH227557   1.203   0.160   2.817 -0.1851  0.4845  0.8669
 9198TIP3    H127558   1.241   0.247   2.828 -3.3652  1.8699  2.1227
 9198TIP3    H227559   1.145   0.168   2.741  0.0217 -0.7760  0.5517
 9199TIP3   OH227560   7.194   3.288   0.059  0.1956 -0.5449  0.1755
 9199TIP3    H127561   7.200   3.305   0.153 -0.9392 -2.3299  0.6106
 9199TIP3    H227562   7.125   3.223   0.050  1.3845 -1.6526 -1.7382
 9200TIP3   OH227563   6.518   1.718   2.426 -0.8001 -0.6357  0.3679
 9200TIP3    H127564   6.517   1.649   2.493 -1.2148 -1.4560 -0.4684
 9200TIP3    H227565   6.607   1.753   2.429 -0.7249 -0.8763  1.1304
 9201TIP3   OH227566   1.243   0.473   5.045 -0.8732 -0.4485  0.6907
 9201TIP3    H127567   1.218   0.431   4.963 -1.3027 -1.6986  1.4272
 9201TIP3    H227568   1.316   0.420   5.078 -0.1348  0.5485  0.7205
 9202TIP3   OH227569   3.851   6.143   0.194 -0.0981 -0.2838 -0.5477
 9202TIP3    H127570   3.900   6.102   0.123  0.4311  0.4220 -0.5942
 9202TIP3    H227571   3.881   6.234   0.195  0.6662 -0.5283  1.2435
 9203TIP3   OH227572   0.702   4.558   3.127 -0.1586  0.9230 -0.2033
 9203TIP3    H127573   0.719   4.644   3.164 -0.8598 -0.4103  3.6355
 9203TIP3    H227574   0.781   4.507   3.146 -0.7351  0.0376 -0.1079
 9204TIP3   OH227575   1.747   6.052   0.003 -0.5520 -0.3152 -0.3246
 9204TIP3    H127576   1.742   6.144  -0.026  2.1662 -0.3555 -1.2532
 9204TIP3    H227577   1.678   6.044   0.069 -1.8756  1.9641 -1.2878
 9205TIP3   OH227578   1.577   2.644   4.219  0.2276 -0.4153 -0.0433
 9205TIP3    H127579   1.638   2.651   4.293 -1.3821 -0.1954  1.3269
 9205TIP3    H227580   1.519   2.572   4.242 -0.4800 -0.1628 -0.9770
 9206TIP3   OH227581   1.530   0.864   0.774  0.3111 -0.3346 -0.4471
 9206TIP3    H127582   1.571   0.899   0.853  0.5285  1.4400 -1.2974
 9206TIP3    H227583   1.588   0.792   0.747  1.1630  0.1385  0.0673
 9207TIP3   OH227584   3.116   2.731   3.978  0.2085 -0.5025 -0.0378
 9207TIP3    H127585   3.059   2.797   4.018  1.4028  0.8368 -0.4443
 9207TIP3    H227586   3.060   2.687   3.914 -1.0805 -1.0873  1.4483
 9208TIP3   OH227587   6.031   4.509   1.484 -0.2534 -0.0264  0.3863
 9208TIP3    H127588   5.942   4.537   1.503 -0.8516 -0.5493 -1.4235
 9208TIP3    H227589   6.023   4.454   1.405  2.0708  3.0197 -2.2494
 9209TIP3   OH227590   3.273   1.249   5.173  0.0351 -0.4726  0.2160
 9209TIP3    H127591   3.179   1.246   5.154 -0.3090 -0.5291  1.7476
 9209TIP3    H227592   3.315   1.256   5.088 -1.3827  0.0001 -0.4758
 9210TIP3   OH227593   4.196   3.618   3.184  0.2928  0.4383  0.8901
 9210TIP3    H127594   4.155   3.651   3.264 -0.4741  1.7277  0.0001
 9210TIP3    H227595   4.211   3.524   3.202 -0.3352  0.5794  2.3252
 9211TIP3   OH227596   0.826   5.407   1.820 -0.2544 -0.0278 -0.0670
 9211TIP3    H127597   0.790   5.320   1.806 -1.7308  0.7699 -1.5949
 9211TIP3    H227598   0.920   5.396   1.805 -0.4822 -1.2659 -0.7798
 9212TIP3   OH227599   2.230   0.952   4.083 -0.2430  0.1119 -0.2282
 9212TIP3    H127600   2.141   0.977   4.060  0.6130  2.0085 -1.7726
 9212TIP3    H227601   2.244   0.989   4.170 -1.0712 -0.5896  0.2226
 9213TIP3   OH227602   3.335   5.490   2.205 -0.0842 -0.0656 -0.1637
 9213TIP3    H127603   3.384   5.484   2.123  1.2899 -1.4033  0.6932
 9213TIP3    H227604   3.286   5.408   2.209 -3.6427  1.7885 -1.6572
 9214TIP3   OH227605   6.681   2.513   2.242  0.8199  0.4824 -0.3348
 9214TIP3    H127606   6.645   2.462   2.169  0.0601  0.4470  0.0572
 9214TIP3    H227607   6.657   2.604   2.221 -1.9516  0.2391  1.2249
 9215TIP3   OH227608   0.480   0.058   0.970 -0.4901  0.4965 -0.0979
 9215TIP3    H127609   0.495  -0.017   1.027 -0.9905 -0.6355 -1.4006
 9215TIP3    H227610   0.425   0.117   1.022 -2.2758 -1.2257  0.0715
 9216TIP3   OH227611   0.687   6.786   1.677  0.3775 -0.0392 -0.5161
 9216TIP3    H127612   0.701   6.873   1.716 -0.1209 -0.4366  0.5743
 9216TIP3    H227613   0.632   6.740   1.740 -0.5612 -0.6740 -1.7491
 9217TIP3   OH227614   1.926   5.228   2.785  0.3036  0.0836  0.3034
 9217TIP3    H127615   2.016   5.259   2.801  0.6546 -0.9849  0.5052
 9217TIP3    H227616   1.896   5.280   2.711  0.9843  0.6665  0.4199
 9218TIP3   OH227617   4.062   4.981   1.127 -0.0341  0.5437 -0.1819
 9218TIP3    H127618   4.093   5.071   1.126  0.4306  0.4408  1.5527
 9218TIP3    H227619   4.024   4.967   1.040  0.6838  2.1154 -0.7776
 9219TIP3   OH227620   1.979   2.083   4.672  0.3215 -0.8078 -0.1666
 9219TIP3    H127621   1.964   2.173   4.647  0.3133 -0.9030 -0.5001
 9219TIP3    H227622   2.060   2.059   4.627 -0.4807 -1.4468 -1.3040
 9220TIP3   OH227623   0.452   5.621   5.067 -0.2441 -0.2259  0.2499
 9220TIP3    H127624   0.483   5.709   5.050  0.7872  0.3566  4.1706
 9220TIP3    H227625   0.360   5.622   5.039  0.1837  1.5353 -1.2511
 9221TIP3   OH227626   6.938   5.226   0.208 -0.0473 -0.2667 -0.0508
 9221TIP3    H127627   6.882   5.188   0.140 -0.8772  0.5256  0.1864
 9221TIP3    H227628   6.962   5.312   0.174  1.1044 -0.6223 -0.1830
 9222TIP3   OH227629   3.140   0.485   2.502  0.0735  0.3820  0.7399
 9222TIP3    H127630   3.222   0.477   2.551  0.7227 -0.1488 -0.4089
 9222TIP3    H227631   3.142   0.575   2.470  0.4110  0.2480  0.3731
 9223TIP3   OH227632   2.945   0.404   3.502 -0.1488  0.0352 -0.6613
 9223TIP3    H127633   3.038   0.385   3.488 -0.3444 -0.6557 -1.0316
 9223TIP3    H227634   2.926   0.367   3.589 -0.1348 -0.0280 -0.6850
 9224TIP3   OH227635   6.931   3.375   0.428  0.5264 -0.2166  0.1821
 9224TIP3    H127636   7.006   3.393   0.371  0.0590  0.4810 -0.2240
 9224TIP3    H227637   6.944   3.433   0.503  0.7833 -0.6419  0.4708
 9225TIP3   OH227638   3.098   4.871   4.509 -0.0230  0.0462  0.5094
 9225TIP3    H127639   3.190   4.879   4.484 -0.0922 -0.3651  0.0923
 9225TIP3    H227640   3.052   4.925   4.444 -0.3139 -1.9862 -1.0827
 9226TIP3   OH227641   6.136   2.709   4.890  0.6605  0.1178  0.5860
 9226TIP3    H127642   6.116   2.662   4.810  1.6880  1.9421 -0.8070
 9226TIP3    H227643   6.163   2.641   4.952  0.0194 -1.2972 -0.6299
 9227TIP3   OH227644   0.421   2.932   2.886  0.1764  0.6545 -0.2309
 9227TIP3    H127645   0.490   2.992   2.913  0.6037  0.7495 -1.4689
 9227TIP3    H227646   0.367   2.983   2.825 -1.2368  0.7064  1.0283
 9228TIP3   OH227647   3.693   1.076   4.133  0.0714 -0.0345 -0.0579
 9228TIP3    H127648   3.654   1.038   4.055  1.5825 -0.9376 -0.4095
 9228TIP3    H227649   3.718   1.165   4.106  2.0975 -0.8763 -1.1803
 9229TIP3   OH227650   5.224   4.558   1.339  0.1936  0.0958 -0.2471
 9229TIP3    H127651   5.221   4.533   1.432  2.1651  1.5621  0.2805
 9229TIP3    H227652   5.262   4.482   1.295  0.9155  0.0510  0.4400
 9230TIP3   OH227653   4.471   2.920   3.185  0.1612  0.0384  0.3026
 9230TIP3    H127654   4.418   2.926   3.106 -0.7161  1.0077  0.9415
 9230TIP3    H227655   4.410   2.889   3.252  0.2351  1.6640  1.1676
 9231TIP3   OH227656   1.166   4.575   2.924 -0.3141 -0.2956 -0.6866
 9231TIP3    H127657   1.235   4.512   2.944  0.1650  0.0568 -1.2152
 9231TIP3    H227658   1.162   4.577   2.829 -0.2149  0.5872 -0.6811
 9232TIP3   OH227659   2.390   0.580   2.430  0.0391  0.4129 -0.3076
 9232TIP3    H127660   2.482   0.608   2.434 -0.2385  1.3281 -0.1166
 9232TIP3    H227661   2.390   0.492   2.469  1.0341 -0.1334 -1.4883
 9233TIP3   OH227662   5.854   4.115   1.399  0.1664  0.1706 -0.1736
 9233TIP3    H127663   5.805   4.045   1.442  2.9662 -2.6625 -1.2431
 9233TIP3    H227664   5.928   4.132   1.457  2.3964 -1.6580 -2.3010
 9234TIP3   OH227665   5.170   4.874   0.970  0.4908 -0.2009  0.1528
 9234TIP3    H127666   5.119   4.826   1.035  0.5516 -0.9100 -0.2983
 9234TIP3    H227667   5.131   4.849   0.886  0.7268  0.3048 -0.1131
 9235TIP3   OH227668   6.416   2.118   5.518 -0.5249 -0.6091  0.5212
 9235TIP3    H127669   6.476   2.134   5.590  2.0270 -0.6081 -1.4773
 9235TIP3    H227670   6.355   2.052   5.551 -0.5841  0.6661  3.1920
 9236TIP3   OH227671   5.921   1.965   1.075 -0.5485 -0.1279 -0.5146
 9236TIP3    H127672   5.939   2.037   1.014 -0.9469  1.1216  0.7831
 9236TIP3    H227673   5.893   2.008   1.156 -1.1716 -1.7683  0.1929
 9237TIP3   OH227674   6.345   3.988   5.561  0.6354 -0.2505 -0.0642
 9237TIP3    H127675   6.352   3.909   5.616 -0.1348  0.0429  0.4670
 9237TIP3    H227676   6.408   3.973   5.490  0.1258 -1.5762 -0.2618
 9238TIP3   OH227677   1.352   0.500   0.633  0.1795 -0.4992  0.0868
 9238TIP3    H127678   1.362   0.514   0.539  0.6164 -0.0788  0.1922
 9238TIP3    H227679   1.430   0.452   0.659  0.6652  0.4595  0.4472
 9239TIP3   OH227680   0.150   5.749   2.950 -0.3992 -0.4165  0.0244
 9239TIP3    H127681   0.192   5.767   3.034  0.8346 -1.1706 -0.3992
 9239TIP3    H227682   0.128   5.835   2.915 -1.1216 -0.0931  1.1895
 9240TIP3   OH227683   4.176   4.372   5.302  0.4522  0.1784  0.3652
 9240TIP3    H127684   4.141   4.420   5.227  0.7717 -0.5183 -0.2499
 9240TIP3    H227685   4.123   4.292   5.307 -1.0569  1.2156  2.2925
 9241TIP3   OH227686   0.149   6.512   1.131  0.2909 -0.1451  0.2412
 9241TIP3    H127687   0.209   6.570   1.083 -0.9705  2.0536  1.1582
 9241TIP3    H227688   0.202   6.474   1.200  1.3061 -0.6399 -0.7740
 9242TIP3   OH227689   0.410   6.587   5.240  0.2314  0.6593 -0.3085
 9242TIP3    H127690   0.391   6.518   5.177 -0.5515  0.7877 -0.2343
 9242TIP3    H227691   0.494   6.563   5.279  0.7628  0.6175 -1.4431
 9243TIP3   OH227692   7.016   2.595   1.390  0.0187  0.2304 -0.1596
 9243TIP3    H127693   7.069   2.664   1.351  0.0691 -0.1056 -0.6965
 9243TIP3    H227694   7.052   2.584   1.478  0.8484  0.0044 -0.5178
 9244TIP3   OH227695   5.767   4.005   0.102  0.8654 -0.1818  0.1704
 9244TIP3    H127696   5.747   3.935   0.040 -0.3937  0.6681 -0.4361
 9244TIP3    H227697   5.785   4.082   0.048  0.6143  0.3576  0.8289
 9245TIP3   OH227698   4.292   3.779   0.527 -0.0612  0.5895  0.2828
 9245TIP3    H127699   4.280   3.872   0.546 -0.2502  1.2137 -2.4568
 9245TIP3    H227700   4.334   3.744   0.605 -3.0719  2.1955  2.8626
 9246TIP3   OH227701   3.998   0.601   0.542  0.3682  0.0639  0.3476
 9246TIP3    H127702   4.034   0.660   0.608 -1.0390  0.4290  0.8192
 9246TIP3    H227703   3.921   0.562   0.584 -0.3953  0.0987 -0.9765
 9247TIP3   OH227704   3.139   2.832   1.767 -0.0316  0.7516  0.1915
 9247TIP3    H127705   3.164   2.864   1.854  0.7842  1.1723 -0.1859
 9247TIP3    H227706   3.049   2.801   1.778  0.5998 -0.7316  1.5678
 9248TIP3   OH227707   3.463   6.430   0.325 -0.0342 -0.5958 -0.4599
 9248TIP3    H127708   3.418   6.370   0.383  0.1814  0.3975  0.7700
 9248TIP3    H227709   3.445   6.517   0.361  1.0355 -0.0334 -1.2174
 9249TIP3   OH227710   0.040   3.569   3.045 -0.2281  0.5845  0.2947
 9249TIP3    H127711   0.087   3.641   3.088  1.1789  0.2895 -0.6806
 9249TIP3    H227712   0.085   3.557   2.962 -1.1162 -0.7282 -0.0286
 9250TIP3   OH227713   0.415   3.977   2.645 -0.8270 -0.1445  0.1091
 9250TIP3    H127714   0.334   4.019   2.673 -0.4571  1.1461 -0.7052
 9250TIP3    H227715   0.483   4.016   2.700 -0.4768  0.3823 -0.6789
 9251TIP3   OH227716   3.870   4.803   3.649 -0.1066  0.0162 -0.3657
 9251TIP3    H127717   3.826   4.718   3.644 -0.8382  0.4386 -1.8087
 9251TIP3    H227718   3.802   4.867   3.625  0.6220  0.9348 -0.0620
 9252TIP3   OH227719   0.489   5.248   0.438 -0.1906  0.1690 -0.9755
 9252TIP3    H127720   0.546   5.309   0.391  1.7980 -2.8716 -2.8682
 9252TIP3    H227721   0.543   5.216   0.510 -1.3238  0.7943  0.1867
 9253TIP3   OH227722   5.686   5.263   3.336  0.5133  0.3076 -0.2439
 9253TIP3    H127723   5.641   5.178   3.333  1.2547 -0.1095  0.0015
 9253TIP3    H227724   5.779   5.240   3.337  0.8283  1.1767 -2.8096
 9254TIP3   OH227725   7.087   0.336   0.197  0.2346 -0.1679  0.2289
 9254TIP3    H127726   7.074   0.316   0.289 -1.1620 -1.3431 -0.1929
 9254TIP3    H227727   7.000   0.355   0.163  0.7111  0.1770 -0.8654
 9255TIP3   OH227728   7.069   3.459   3.637 -0.0194 -0.2860  0.1836
 9255TIP3    H127729   7.132   3.418   3.697  0.7172 -1.2836 -1.2148
 9255TIP3    H227730   7.082   3.553   3.650  2.9992 -0.3922 -1.1698
 9256TIP3   OH227731   4.619   1.953   5.281  0.3697  0.0896 -0.1832
 9256TIP3    H127732   4.619   2.000   5.197  0.8229  0.1472 -0.1542
 9256TIP3    H227733   4.561   1.879   5.267 -0.2353  0.5772 -0.2811
 9257TIP3   OH227734   4.557   6.765   4.351  0.1505 -0.1413 -0.2059
 9257TIP3    H127735   4.575   6.731   4.439  2.4866 -1.7673 -1.2094
 9257TIP3    H227736   4.630   6.824   4.333 -0.2939  0.1662 -1.0457
 9258TIP3   OH227737   7.183   5.040   5.471 -0.3796  0.3185  0.1573
 9258TIP3    H127738   7.267   5.059   5.512 -0.6830  0.5508  0.6703
 9258TIP3    H227739   7.117   5.063   5.537 -0.8824  0.8899 -0.5275
 9259TIP3   OH227740   5.714   3.756   2.371 -0.1525  0.1949  0.0845
 9259TIP3    H127741   5.808   3.772   2.380  0.0623 -1.2856  0.8064
 9259TIP3    H227742   5.705   3.661   2.382 -1.5884  0.1443 -1.2783
 9260TIP3   OH227743   6.664   0.509   3.118  0.0853 -0.3793 -0.3266
 9260TIP3    H127744   6.612   0.476   3.191  0.2158  0.4175  0.1432
 9260TIP3    H227745   6.636   0.600   3.107  0.3721 -0.3624 -0.9966
 9261TIP3   OH227746   4.868   0.856   3.585  0.4047 -0.4688  0.8273
 9261TIP3    H127747   4.846   0.766   3.559 -0.6992 -0.0418  0.1912
 9261TIP3    H227748   4.911   0.893   3.508 -2.1311  0.5435 -0.2217
 9262TIP3   OH227749   3.826   5.320   5.600 -0.7089  0.0395 -0.5414
 9262TIP3    H127750   3.738   5.313   5.637  0.1305 -2.2809  1.2675
 9262TIP3    H227751   3.826   5.403   5.553 -3.7966  0.1787 -0.4628
 9263TIP3   OH227752   2.474   5.766   0.070  0.1566 -0.6212 -0.3208
 9263TIP3    H127753   2.433   5.701   0.127 -0.7637  0.3707  0.1819
 9263TIP3    H227754   2.504   5.834   0.130  1.8072 -0.9213 -0.7669
 9264TIP3   OH227755   2.321   3.547   1.657  0.3073 -0.4153  0.7853
 9264TIP3    H127756   2.389   3.581   1.599  0.4741 -0.4930  0.9356
 9264TIP3    H227757   2.257   3.507   1.599  0.8296 -1.1357  0.7019
 9265TIP3   OH227758   5.581   1.192   4.281  0.1144  0.2184 -0.6543
 9265TIP3    H127759   5.571   1.264   4.342 -1.1539  0.4751 -1.1253
 9265TIP3    H227760   5.668   1.203   4.244 -0.2241  1.7746 -1.0390
 9266TIP3   OH227761   3.565   5.547   2.929 -0.3062  0.1415  0.8189
 9266TIP3    H127762   3.474   5.530   2.951  0.4792 -1.0560  3.5187
 9266TIP3    H227763   3.585   5.630   2.973 -0.2590  0.8102 -0.4161
 9267TIP3   OH227764   6.885   6.576   5.012 -0.2064  0.4588  0.4612
 9267TIP3    H127765   6.807   6.521   5.002 -1.4964  2.4169 -0.9656
 9267TIP3    H227766   6.871   6.623   5.094 -0.5962  0.8650  0.1690
 9268TIP3   OH227767   6.250   5.032   0.678  0.6375 -0.1088  0.9349
 9268TIP3    H127768   6.216   4.943   0.680 -1.5042  0.6815  1.4456
 9268TIP3    H227769   6.240   5.060   0.587  3.1883 -0.9961  0.2786
 9269TIP3   OH227770   4.393   3.695   5.741 -0.1241 -0.4873 -0.2326
 9269TIP3    H127771   4.354   3.627   5.687 -0.0929  1.0074 -2.2265
 9269TIP3    H227772   4.482   3.705   5.707 -0.6089  1.5795 -1.0573
 9270TIP3   OH227773   3.375   5.353   3.722 -0.3020  0.0547  0.3650
 9270TIP3    H127774   3.327   5.383   3.644  1.0224 -0.1523 -0.5545
 9270TIP3    H227775   3.369   5.257   3.719  2.8848 -0.2126 -1.6371
 9271TIP3   OH227776   4.700   3.610   1.812 -0.0286  0.0782 -0.0363
 9271TIP3    H127777   4.650   3.681   1.853  2.6114  1.6918  0.6330
 9271TIP3    H227778   4.742   3.566   1.885 -0.5016 -1.3275 -0.5802
 9272TIP3   OH227779   1.571   3.860   0.120 -0.3673  0.6360  0.3159
 9272TIP3    H127780   1.579   3.826   0.030 -1.1351 -1.1659  0.8716
 9272TIP3    H227781   1.660   3.882   0.145  0.0265  0.0454 -0.5062
 9273TIP3   OH227782   2.463   1.264   3.392  0.2819  0.0468 -0.0454
 9273TIP3    H127783   2.457   1.196   3.325 -0.3876 -1.0010  1.0262
 9273TIP3    H227784   2.421   1.340   3.353 -1.2262 -0.9192 -0.3909
 9274TIP3   OH227785   4.389   2.014   5.025  0.6354 -0.9057  0.2732
 9274TIP3    H127786   4.348   2.007   4.939 -0.6301 -1.1799  0.8792
 9274TIP3    H227787   4.476   2.049   5.007 -0.1696  0.5815 -0.9935
 9275TIP3   OH227788   6.652   4.338   1.764  0.2567  0.0521 -0.5436
 9275TIP3    H127789   6.600   4.302   1.692 -0.1408  2.4383 -1.5442
 9275TIP3    H227790   6.595   4.403   1.805  1.0005 -0.2449  1.0083
 9276TIP3   OH227791   5.053   2.277   3.493 -0.4915 -0.0677 -0.4786
 9276TIP3    H127792   5.039   2.351   3.434 -0.5485  1.2271  1.0944
 9276TIP3    H227793   5.046   2.200   3.436 -2.2069  1.0247 -1.8690
 9277TIP3   OH227794   5.236   2.007   1.108 -0.2264  0.2548  0.0728
 9277TIP3    H127795   5.297   2.050   1.048 -0.3367  0.3690  0.0429
 9277TIP3    H227796   5.215   1.924   1.064  1.5636 -0.7968  1.0534
 9278TIP3   OH227797   3.085   6.119   5.829 -0.4397  0.2979  0.5568
 9278TIP3    H127798   3.022   6.049   5.816 -0.6415  0.5978 -0.1474
 9278TIP3    H227799   3.049   6.172   5.900 -2.2318  1.8094 -1.3325
 9279TIP3   OH227800   1.956   3.344   1.594  0.2181  0.1158  0.0091
 9279TIP3    H127801   2.035   3.347   1.540  1.7719 -1.7683  2.0167
 9279TIP3    H227802   1.985   3.376   1.680 -1.1134 -0.9117  0.8773
 9280TIP3   OH227803   1.121   5.175   2.470  0.2376  0.0070  0.2466
 9280TIP3    H127804   1.138   5.235   2.542 -1.2957  0.7179  0.0554
 9280TIP3    H227805   1.034   5.199   2.438 -0.4404 -2.3037  0.1454
 9281TIP3   OH227806   1.125   0.697   4.614 -0.2278  0.0870 -0.3078
 9281TIP3    H127807   1.130   0.706   4.519 -1.2107  0.7746 -0.3121
 9281TIP3    H227808   1.067   0.768   4.642  2.1845  1.6145  1.1026
 9282TIP3   OH227809   2.973   6.718   2.372  0.1168  0.3471  0.4429
 9282TIP3    H127810   2.913   6.644   2.367  1.2632 -0.5484 -1.7440
 9282TIP3    H227811   2.920   6.794   2.348 -0.5225 -0.1682  0.1953
 9283TIP3   OH227812   2.720   4.827   4.435 -0.1759  0.4713  0.2776
 9283TIP3    H127813   2.742   4.916   4.461 -0.9679  0.3489  1.4315
 9283TIP3    H227814   2.769   4.772   4.497  0.9729  0.0671 -0.9474
 9284TIP3   OH227815   1.154   6.775   3.665 -0.5096 -0.1286 -0.4006
 9284TIP3    H127816   1.193   6.689   3.649 -0.6586 -0.6658  1.7293
 9284TIP3    H227817   1.227   6.836   3.664 -0.5720  0.0393 -3.4369
 9285TIP3   OH227818   4.204   1.619   4.870  0.3588  0.1505  0.1887
 9285TIP3    H127819   4.228   1.528   4.856  1.3646 -0.0441  2.7790
 9285TIP3    H227820   4.125   1.631   4.816  1.0267 -1.7955 -1.3252
 9286TIP3   OH227821   4.739   4.805   1.703  0.1963  0.5182 -0.0911
 9286TIP3    H127822   4.795   4.768   1.635 -0.8685 -0.7725 -0.2997
 9286TIP3    H227823   4.697   4.880   1.661  0.0699  0.1484 -0.6326
 9287TIP3   OH227824   1.759   2.911   1.700  0.7903  0.5478 -0.0209
 9287TIP3    H127825   1.825   2.849   1.730 -1.0216 -0.8399  1.3661
 9287TIP3    H227826   1.748   2.891   1.607  0.9635 -0.5222  0.1791
 9288TIP3   OH227827   5.902   3.061   1.352 -0.3158 -0.7074  0.1732
 9288TIP3    H127828   5.878   3.069   1.260  0.6806  0.8509 -0.0033
 9288TIP3    H227829   5.981   3.008   1.352  0.5602  0.5427 -0.0714
 9289TIP3   OH227830   6.070   3.698   0.107 -0.5928 -0.3429 -0.4604
 9289TIP3    H127831   6.138   3.765   0.097 -0.0749 -0.6784  0.6956
 9289TIP3    H227832   6.115   3.615   0.092 -1.3301 -0.4569 -2.3794
 9290TIP3   OH227833   2.998   3.752   1.236 -0.1310  0.4170 -0.0453
 9290TIP3    H127834   2.922   3.789   1.280  0.2407  1.0148  0.1005
 9290TIP3    H227835   2.965   3.672   1.194 -0.7659  0.5125  0.2654
 9291TIP3   OH227836   2.250   1.102   0.706 -0.2626 -0.2942 -0.2614
 9291TIP3    H127837   2.344   1.118   0.704 -0.2255 -0.2383  1.0181
 9291TIP3    H227838   2.219   1.132   0.621  0.9956 -1.1145 -1.0341
 9292TIP3   OH227839   6.888   6.235   3.611  0.4113  0.1534 -0.3252
 9292TIP3    H127840   6.857   6.151   3.643 -0.5399 -0.8217 -3.3842
 9292TIP3    H227841   6.983   6.232   3.619  0.2704 -0.3963  1.3209
 9293TIP3   OH227842   6.577   1.276   5.193  0.1784  0.3174  0.3596
 9293TIP3    H127843   6.651   1.306   5.245  0.8224 -1.9540  0.8812
 9293TIP3    H227844   6.534   1.210   5.247  0.3904 -1.5390 -1.5647
 9294TIP3   OH227845   1.178   3.150   4.104 -0.5191 -0.0223 -0.5529
 9294TIP3    H127846   1.234   3.125   4.177  0.2901  1.5807 -0.5739
 9294TIP3    H227847   1.102   3.093   4.111  0.2176 -0.8989  0.6564
 9295TIP3   OH227848   0.868   0.774   2.392  0.0218  0.1240  0.3115
 9295TIP3    H127849   0.800   0.709   2.411 -0.1168  0.7065  2.0426
 9295TIP3    H227850   0.831   0.826   2.320 -0.5135 -0.7607 -0.0753
 9296TIP3   OH227851   2.241   5.469   0.727  0.3175  0.1815  0.6553
 9296TIP3    H127852   2.273   5.382   0.750  0.6254  0.1567  0.1570
 9296TIP3    H227853   2.150   5.471   0.757  0.5159 -0.0687  1.2764
 9297TIP3   OH227854   1.849   1.989   2.523 -0.8194 -0.2487  0.2560
 9297TIP3    H127855   1.859   1.912   2.578  1.2111  0.3824  0.8366
 9297TIP3    H227856   1.847   1.955   2.434 -0.2765 -0.9981  0.5245
 9298TIP3   OH227857   1.632   1.410   3.330 -0.7757  0.3486  0.1834
 9298TIP3    H127858   1.704   1.402   3.393  1.3902  1.1487 -2.0293
 9298TIP3    H227859   1.668   1.378   3.248 -3.1406  0.3465 -0.9311
 9299TIP3   OH227860   3.483   1.972   5.009  0.5870  0.7065 -0.0201
 9299TIP3    H127861   3.426   2.041   4.975 -0.7053  0.1460  0.9228
 9299TIP3    H227862   3.526   1.936   4.931 -2.8777 -1.0953 -1.3473
 9300TIP3   OH227863   5.016   5.957   5.085  0.1481  0.2892 -0.0391
 9300TIP3    H127864   5.082   5.888   5.089  1.4458  1.4483 -0.5653
 9300TIP3    H227865   4.972   5.944   5.002  0.0081 -0.2297  0.1137
 9301TIP3   OH227866   3.872   3.962   5.665  0.5336 -0.4988  0.5355
 9301TIP3    H127867   3.823   3.950   5.747  1.2202 -0.9749  0.8883
 9301TIP3    H227868   3.929   3.885   5.660 -0.9113 -1.5501 -1.4224
 9302TIP3   OH227869   1.650   5.225   2.937  0.3264  0.0980 -0.3716
 9302TIP3    H127870   1.635   5.157   3.002 -0.4614  0.3241 -0.3173
 9302TIP3    H227871   1.720   5.189   2.881  0.6326 -0.3161  0.2643
 9303TIP3   OH227872   5.474   0.073   0.305  0.0138 -0.4411 -0.2918
 9303TIP3    H127873   5.432   0.143   0.355 -0.0717  0.0878 -1.0977
 9303TIP3    H227874   5.468  -0.004   0.362  0.1452  0.2073  0.6188
 9304TIP3   OH227875   0.209   0.196   3.413 -0.9537  0.6069 -0.0236
 9304TIP3    H127876   0.226   0.290   3.410 -0.2997  0.4741 -0.9196
 9304TIP3    H227877   0.115   0.189   3.434 -1.3909  1.4953 -1.5231
 9305TIP3   OH227878   4.995   0.374   2.226 -0.2483  0.0680 -0.2129
 9305TIP3    H127879   5.048   0.433   2.279 -1.1228 -0.3235  1.1351
 9305TIP3    H227880   4.974   0.425   2.147  0.1426  1.0700  0.3115
 9306TIP3   OH227881   2.333   0.129   0.539  0.5731 -0.2660 -0.1000
 9306TIP3    H127882   2.256   0.073   0.547  0.3576  0.1773  1.3005
 9306TIP3    H227883   2.299   0.214   0.509  0.8747 -0.7771 -2.0259
 9307TIP3   OH227884   2.795   5.515   3.278 -0.0790 -0.2041  0.4609
 9307TIP3    H127885   2.710   5.510   3.235 -1.0763  1.4270  2.0963
 9307TIP3    H227886   2.775   5.513   3.372  1.6374  0.6729  0.8929
 9308TIP3   OH227887   6.366   2.369   0.963 -0.0525  0.0810 -0.2732
 9308TIP3    H127888   6.449   2.357   1.009 -0.2655  2.2418  0.7819
 9308TIP3    H227889   6.367   2.459   0.932 -1.8605  0.0603 -0.5523
 9309TIP3   OH227890   6.225   4.968   5.531 -0.0087 -0.0521 -0.0237
 9309TIP3    H127891   6.241   4.980   5.625 -0.1409  1.5056 -0.1673
 9309TIP3    H227892   6.141   5.011   5.515  0.0135 -0.2973 -0.8552
 9310TIP3   OH227893   2.397   4.730   0.754  0.7855  0.1325 -0.0771
 9310TIP3    H127894   2.353   4.731   0.669  1.3763 -1.2205 -0.4223
 9310TIP3    H227895   2.434   4.818   0.762  0.4665  0.3783 -1.0765
 9311TIP3   OH227896   1.810   2.748   4.600  0.1728 -0.1659  0.6363
 9311TIP3    H127897   1.750   2.689   4.554 -0.3391  0.2650  0.7278
 9311TIP3    H227898   1.784   2.835   4.571  1.2859 -0.0098  0.0803
 9312TIP3   OH227899   3.090   0.891   5.825 -0.0979  0.0939  0.0018
 9312TIP3    H127900   3.167   0.932   5.865 -1.3822  2.2960  0.4093
 9312TIP3    H227901   3.043   0.853   5.898 -0.2472  0.2678 -0.0026
 9313TIP3   OH227902   0.120   0.238   2.714  0.3112  0.1757  0.6541
 9313TIP3    H127903   0.072   0.247   2.796 -2.0563  0.1805 -0.6333
 9313TIP3    H227904   0.174   0.160   2.726  0.5456  0.5839  2.4391
 9314TIP3   OH227905   2.050   1.751   0.153  0.5938  0.0593 -0.4183
 9314TIP3    H127906   2.028   1.659   0.141  1.0625 -0.0914 -0.1881
 9314TIP3    H227907   2.041   1.765   0.248 -0.2123  0.4532 -0.5452
 9315TIP3   OH227908   2.696   0.082   4.656  0.2575  0.1305 -0.0308
 9315TIP3    H127909   2.645   0.008   4.687  0.0002  0.5319  0.5147
 9315TIP3    H227910   2.640   0.123   4.589 -0.4070  0.9096  0.9708
 9316TIP3   OH227911   2.226   4.229   3.384  0.1038  0.2486 -0.4687
 9316TIP3    H127912   2.230   4.196   3.473  0.8548 -1.7732 -1.1983
 9316TIP3    H227913   2.133   4.252   3.371 -0.2157 -0.4450  0.4823
 9317TIP3   OH227914   1.807   1.245   4.264  0.6007  0.0555  0.6592
 9317TIP3    H127915   1.876   1.278   4.322  0.6651  1.0962  0.0135
 9317TIP3    H227916   1.740   1.210   4.323  0.5399  1.3342  1.3759
 9318TIP3   OH227917   2.748   5.092   0.236  0.3033 -0.2382 -0.6327
 9318TIP3    H127918   2.719   5.160   0.297 -2.3311 -0.5985 -1.3610
 9318TIP3    H227919   2.841   5.080   0.256  0.4958  2.4861  0.5211
 9319TIP3   OH227920   0.884   3.095   2.909 -0.1078 -0.0230  0.2905
 9319TIP3    H127921   0.921   3.008   2.918 -0.3483 -0.0949  0.5895
 9319TIP3    H227922   0.894   3.135   2.996 -0.2941  0.1292  0.2432
 9320TIP3   OH227923   6.242   4.414   1.266  0.1731  0.1931  0.2208
 9320TIP3    H127924   6.297   4.478   1.220  0.3743  0.2428  0.5296
 9320TIP3    H227925   6.280   4.329   1.244  0.2815  0.2179  0.3114
 9321TIP3   OH227926   6.763   6.278   5.755  0.1393 -0.0749 -0.6397
 9321TIP3    H127927   6.840   6.289   5.698  0.1953 -0.9171 -0.7429
 9321TIP3    H227928   6.696   6.241   5.697 -1.4262  3.4549 -1.3772
 9322TIP3   OH227929   4.377   4.526   0.893 -0.2806  0.2865  0.3620
 9322TIP3    H127930   4.414   4.487   0.972  0.9569 -0.8692 -0.7528
 9322TIP3    H227931   4.344   4.612   0.922  1.0196  0.2996  1.9147
 9323TIP3   OH227932   0.891   5.895   1.202  0.5710 -0.2592 -0.2900
 9323TIP3    H127933   0.826   5.900   1.272 -1.5499 -0.9001 -2.0953
 9323TIP3    H227934   0.897   5.985   1.168  1.6194  0.0569  0.6763
 9324TIP3   OH227935   5.809   6.517   4.244  0.1756  0.3012  0.3530
 9324TIP3    H127936   5.802   6.438   4.297 -2.8308 -0.1236 -0.5038
 9324TIP3    H227937   5.759   6.583   4.292  0.5348  0.9718 -0.1720
 9325TIP3   OH227938   3.898   6.765   3.533 -0.2323  0.3542  0.6401
 9325TIP3    H127939   3.918   6.762   3.440  0.6957 -1.4058  0.8451
 9325TIP3    H227940   3.894   6.859   3.554 -0.6164  0.7786 -1.1763
 9326TIP3   OH227941   1.831   0.671   0.443  0.5753 -0.5071 -0.2666
 9326TIP3    H127942   1.808   0.604   0.507 -1.3280  0.4478  0.1200
 9326TIP3    H227943   1.747   0.713   0.421  1.6062  1.2416 -1.0481
 9327TIP3   OH227944   5.642   6.190   5.125 -0.6694 -0.2834 -0.6742
 9327TIP3    H127945   5.736   6.208   5.134 -0.1864 -3.4868  4.6581
 9327TIP3    H227946   5.600   6.274   5.143  1.3011  0.2056  2.3305
 9328TIP3   OH227947   2.071   6.134   1.753 -0.5768 -0.6366  0.0525
 9328TIP3    H127948   2.001   6.092   1.803 -0.2134 -2.2656 -0.7359
 9328TIP3    H227949   2.095   6.070   1.686 -0.9043  1.3785 -2.1140
 9329TIP3   OH227950   3.099   3.833   0.927 -0.2726  0.2561  0.1833
 9329TIP3    H127951   3.130   3.848   1.016  0.3425  2.1937 -0.2961
 9329TIP3    H227952   3.149   3.758   0.896 -3.4452 -3.2584  2.7597
 9330TIP3   OH227953   3.218   5.261   2.190  0.4279  0.3722 -0.0335
 9330TIP3    H127954   3.241   5.245   2.282  0.7492 -0.3661 -0.2366
 9330TIP3    H227955   3.243   5.180   2.145  2.9197  1.7351 -1.2731
 9331TIP3   OH227956   5.228   2.149   4.085 -0.3189 -0.0963 -0.4020
 9331TIP3    H127957   5.195   2.060   4.093 -0.5223 -0.1043 -1.2808
 9331TIP3    H227958   5.196   2.179   4.000  3.8446 -0.9118 -2.5127
 9332TIP3   OH227959   1.603   4.955   0.759  0.1440 -0.4740  0.1827
 9332TIP3    H127960   1.592   4.952   0.855 -0.1246 -0.1736  0.1633
 9332TIP3    H227961   1.586   5.046   0.736 -0.6099 -0.7122 -0.2443
 9333TIP3   OH227962   6.069   5.512   2.293 -0.8771 -0.9126 -0.4260
 9333TIP3    H127963   6.097   5.603   2.291  0.9615 -1.3887  0.6835
 9333TIP3    H227964   6.100   5.475   2.210 -0.4517 -0.8231 -0.3091
 9334TIP3   OH227965   6.987   5.563   3.674  0.2846 -0.0515 -0.6976
 9334TIP3    H127966   6.935   5.630   3.718  0.8720  1.6343 -2.4657
 9334TIP3    H227967   7.024   5.511   3.746  0.5419  2.0614  0.7846
 9335TIP3   OH227968   6.710   2.993   4.546  0.2390  0.1263  0.6385
 9335TIP3    H127969   6.775   3.050   4.585  1.5965  0.4617 -1.8951
 9335TIP3    H227970   6.703   3.023   4.455 -1.1555 -1.8752  0.0162
 9336TIP3   OH227971   2.754   2.427   1.176 -0.9101 -0.4272  0.2307
 9336TIP3    H127972   2.767   2.502   1.234 -1.8819  0.1522 -0.2807
 9336TIP3    H227973   2.840   2.411   1.138 -1.1885  2.1793 -1.7154
 9337TIP3   OH227974   4.489   0.656   5.389 -0.6249 -0.6543 -0.3285
 9337TIP3    H127975   4.578   0.673   5.357  0.4202 -1.3076  2.0507
 9337TIP3    H227976   4.463   0.739   5.430 -0.6689 -0.8178 -0.0284
 9338TIP3   OH227977   3.885   1.871   5.721  0.2368  0.1694 -0.2755
 9338TIP3    H127978   3.829   1.949   5.725  0.1458  0.0617  1.0376
 9338TIP3    H227979   3.966   1.902   5.680  0.3999  1.1121  0.6973
 9339TIP3   OH227980   2.796   0.198   0.819 -0.3114 -0.0134  0.1607
 9339TIP3    H127981   2.758   0.124   0.867 -1.8956  0.2696 -0.5851
 9339TIP3    H227982   2.724   0.232   0.766  0.8130  1.0658 -0.7433
 9340TIP3   OH227983   1.321   4.412   5.511  0.1292  0.5388  0.0859
 9340TIP3    H127984   1.312   4.428   5.417 -1.3782  1.9320  0.4192
 9340TIP3    H227985   1.294   4.321   5.522  1.1371  0.0984 -0.9256
 9341TIP3   OH227986   5.834   2.985   4.959  0.2610  0.3748  0.1526
 9341TIP3    H127987   5.854   2.961   4.868  2.7178  2.5418 -0.0105
 9341TIP3    H227988   5.739   2.989   4.962  0.1027  1.9829 -2.8669
 9342TIP3   OH227989   0.914   2.577   5.571 -0.1246  0.8949  0.0278
 9342TIP3    H127990   0.993   2.528   5.594  0.7128  2.5725  0.8648
 9342TIP3    H227991   0.845   2.538   5.624  0.7445  1.3061  1.5059
 9343TIP3   OH227992   0.142   2.050   5.416  0.3622  0.1358 -0.9206
 9343TIP3    H127993   0.141   2.001   5.333 -1.3127 -0.2547 -0.7116
 9343TIP3    H227994   0.050   2.073   5.431  0.3952 -0.9982  1.5148
 9344TIP3   OH227995   5.735   0.725   2.976  0.3053  0.2225  0.4427
 9344TIP3    H127996   5.786   0.672   2.914 -0.8041  0.5120 -0.7659
 9344TIP3    H227997   5.800   0.777   3.022  1.2613 -0.7994  0.2990
 9345TIP3   OH227998   4.482   3.806   2.967 -0.5133 -0.5471 -0.8059
 9345TIP3    H127999   4.389   3.794   2.985 -0.3857 -1.2957 -0.6248
 9345TIP3    H228000   4.503   3.740   2.901 -0.3663  0.3966 -1.7414
 9346TIP3   OH228001   1.870   2.537   1.682 -0.4696 -0.0476 -0.2040
 9346TIP3    H128002   1.871   2.563   1.590  2.0867  0.2105 -0.1750
 9346TIP3    H228003   1.910   2.450   1.683 -0.7025 -0.1551  0.6425
 9347TIP3   OH228004   2.602   5.731   5.844 -0.9578  0.0058  0.3108
 9347TIP3    H128005   2.518   5.721   5.800 -1.1393  2.5142 -0.0464
 9347TIP3    H228006   2.580   5.753   5.934 -0.6142 -1.6700  0.8370
 9348TIP3   OH228007   3.780   1.489   5.008  0.8446 -0.0195  0.4991
 9348TIP3    H128008   3.719   1.556   5.039  0.4295 -0.2409  0.1716
 9348TIP3    H228009   3.826   1.529   4.934  1.1458  0.1696  0.7860
 9349TIP3   OH228010   7.162   1.837   0.185 -0.5009 -0.2227 -0.1864
 9349TIP3    H128011   7.208   1.868   0.107 -0.8538 -2.4322 -1.3295
 9349TIP3    H228012   7.222   1.775   0.226 -0.5862  0.4248  0.9731
 9350TIP3   OH228013   3.645   6.425   1.793 -0.1123 -0.1236  0.0190
 9350TIP3    H128014   3.735   6.457   1.795  0.3173 -1.2814  0.0668
 9350TIP3    H228015   3.616   6.429   1.884 -1.2578  3.2402 -0.3690
 9351TIP3   OH228016   0.101   0.102   1.430  0.4503 -0.6166 -0.1273
 9351TIP3    H128017   0.194   0.093   1.411  0.7007 -1.5244  1.4093
 9351TIP3    H228018   0.079   0.026   1.483 -0.8841  0.2029  0.5650
 9352TIP3   OH228019   3.634   1.094   1.478 -0.1626 -1.1250  0.2089
 9352TIP3    H128020   3.590   1.177   1.461  1.4332 -0.5182 -1.2197
 9352TIP3    H228021   3.626   1.045   1.396  2.5580 -0.5742 -0.5160
 9353TIP3   OH228022   6.266   2.789   0.277 -0.3910 -0.2539  0.4726
 9353TIP3    H128023   6.282   2.696   0.263 -0.1592 -0.2175  0.4788
 9353TIP3    H228024   6.174   2.795   0.301 -0.9650 -0.2551 -1.5833
 9354TIP3   OH228025   4.675   3.364   3.998  0.5640 -0.2324  0.0418
 9354TIP3    H128026   4.652   3.418   4.074 -1.3762 -0.3398 -0.4025
 9354TIP3    H228027   4.619   3.399   3.927  2.1986 -0.2345 -1.3128
 9355TIP3   OH228028   5.404   5.002   4.788 -0.6939  0.1268 -0.3947
 9355TIP3    H128029   5.395   4.907   4.785 -2.4361  0.2311  0.3925
 9355TIP3    H228030   5.444   5.020   4.873 -1.5323  0.1483  0.0052
 9356TIP3   OH228031   3.247   0.069   4.101  0.4127  0.2433 -0.0019
 9356TIP3    H128032   3.198   0.018   4.037  1.5729 -0.6921 -0.1735
 9356TIP3    H228033   3.199   0.057   4.183  0.5773 -1.0060 -0.0774
 9357TIP3   OH228034   1.394   4.748   1.952  0.1430  0.6694  0.2703
 9357TIP3    H128035   1.471   4.714   1.998 -0.1924 -1.0266 -0.3323
 9357TIP3    H228036   1.333   4.772   2.022  0.2963 -0.2826  0.7491
 9358TIP3   OH228037   0.092   0.920   3.217  0.1505  0.2135 -0.0970
 9358TIP3    H128038   0.009   0.880   3.191 -0.4116  0.4519  1.2579
 9358TIP3    H228039   0.077   1.014   3.209  0.5273  0.2433 -0.5074
 9359TIP3   OH228040   1.783   5.265   5.678 -0.3464 -0.3712  0.4379
 9359TIP3    H128041   1.782   5.260   5.774  2.0944 -3.3095  0.4542
 9359TIP3    H228042   1.702   5.221   5.651 -0.0844 -1.3648  1.1932
 9360TIP3   OH228043   1.293   4.066   2.571 -0.2605  0.0952  0.4156
 9360TIP3    H128044   1.373   4.013   2.570 -0.6772 -0.5940  1.4272
 9360TIP3    H228045   1.285   4.100   2.482 -0.2490 -1.9707 -0.4401
 9361TIP3   OH228046   3.745   3.661   5.619 -0.3933  0.0594 -0.4086
 9361TIP3    H128047   3.785   3.738   5.580 -0.7017 -0.0534 -0.9531
 9361TIP3    H228048   3.698   3.619   5.547  0.1493 -0.8858 -0.2241
 9362TIP3   OH228049   2.400   3.604   5.461 -0.0382 -0.0499 -0.5379
 9362TIP3    H128050   2.308   3.607   5.485 -0.4476 -1.5724 -1.7642
 9362TIP3    H228051   2.428   3.516   5.486  0.6301 -0.1758 -1.6671
 9363TIP3   OH228052   3.789   0.038   0.327  0.1823  0.3945  0.2420
 9363TIP3    H128053   3.728   0.020   0.398 -1.0129 -0.0822 -0.8494
 9363TIP3    H228054   3.857   0.092   0.366  0.5316 -1.3118  2.1511
 9364TIP3   OH228055   3.162   4.477   1.654 -0.4216  0.4444 -0.1378
 9364TIP3    H128056   3.229   4.409   1.645 -0.3532  0.6063 -0.9665
 9364TIP3    H228057   3.097   4.456   1.587 -1.3341  0.1533  0.8262
 9365TIP3   OH228058   2.141   6.494   4.545  0.4406 -0.1883 -0.0617
 9365TIP3    H128059   2.204   6.522   4.479 -0.5344  1.6403 -0.2757
 9365TIP3    H228060   2.139   6.398   4.536  1.9815 -0.1698 -1.1210
 9366TIP3   OH228061   2.603   4.684   3.700  0.0590  0.1263  0.4331
 9366TIP3    H128062   2.627   4.730   3.781 -0.1794 -0.0046  0.5772
 9366TIP3    H228063   2.666   4.717   3.635  0.3743  0.0905  0.7147
 9367TIP3   OH228064   6.444   0.169   3.784  0.2154  0.0403  0.1254
 9367TIP3    H128065   6.434   0.210   3.870 -0.6745 -0.7964  0.4481
 9367TIP3    H228066   6.472   0.080   3.804 -1.9104 -0.8047 -0.2948
 9368TIP3   OH228067   2.438   3.835   4.467  0.1137 -0.1878  0.2705
 9368TIP3    H128068   2.508   3.797   4.520 -0.6773 -0.6748  0.9796
 9368TIP3    H228069   2.434   3.779   4.389  1.2225  0.4819 -0.3044
 9369TIP3   OH228070   4.860   2.060   4.839  0.4485  0.3872 -0.6069
 9369TIP3    H128071   4.884   2.001   4.767 -0.1312 -0.3943 -0.1648
 9369TIP3    H228072   4.941   2.108   4.857  1.1344 -0.7541 -0.5140
 9370TIP3   OH228073   1.872   3.814   2.051 -0.1382 -0.5011 -0.2693
 9370TIP3    H128074   1.784   3.842   2.023 -1.6911 -3.2209  1.4769
 9370TIP3    H228075   1.875   3.837   2.144  1.6076  0.7798 -0.5957
 9371TIP3   OH228076   0.904   4.186   5.760 -0.3303  0.4188  0.4373
 9371TIP3    H128077   0.846   4.122   5.718  2.2447 -2.0880  0.4323
 9371TIP3    H228078   0.916   4.154   5.849  0.5643  1.2059  0.6194
 9372TIP3   OH228079   3.418   4.274   0.798  0.1677 -0.1177  0.5445
 9372TIP3    H128080   3.368   4.342   0.754 -2.6905 -1.9617  0.6231
 9372TIP3    H228081   3.472   4.320   0.862 -0.4087  2.1481 -0.5274
 9373TIP3   OH228082   5.388   3.412   4.641  0.1774 -0.1274  0.1642
 9373TIP3    H128083   5.424   3.477   4.701  0.5373 -0.1568 -0.0120
 9373TIP3    H228084   5.378   3.458   4.558 -0.2222 -0.1134  0.2181
 9374TIP3   OH228085   6.379   2.599   2.247 -0.1813  0.7795  0.7294
 9374TIP3    H128086   6.394   2.675   2.192 -1.2405  0.4266 -0.0759
 9374TIP3    H228087   6.336   2.633   2.325  1.7438  1.3463  1.6148
 9375TIP3   OH228088   3.020   6.569   1.944  0.0748  0.3275  0.3966
 9375TIP3    H128089   3.027   6.559   1.850  0.2342  0.2220  0.4190
 9375TIP3    H228090   2.931   6.541   1.965 -0.7473  2.4515  0.0021
 9376TIP3   OH228091   0.812   5.196   5.902 -0.3242 -0.0671 -0.1081
 9376TIP3    H128092   0.881   5.129   5.900  0.4433  0.7098 -2.1318
 9376TIP3    H228093   0.740   5.157   5.851 -0.5750 -0.0497  0.2319
 9377TIP3   OH228094   5.131   3.727   4.971 -0.2914  0.2166  0.4544
 9377TIP3    H128095   5.098   3.789   5.037 -0.8448 -1.3484  1.7074
 9377TIP3    H228096   5.069   3.736   4.899 -0.5490  0.8906  0.7416
 9378TIP3   OH228097   2.621   0.414   2.464 -0.0408  0.2809 -0.3183
 9378TIP3    H128098   2.575   0.330   2.475 -2.3337  0.4279 -5.7985
 9378TIP3    H228099   2.711   0.389   2.443 -0.6779 -0.8813 -1.8197
 9379TIP3   OH228100   6.861   4.845   2.309 -0.6999  0.1805  0.2693
 9379TIP3    H128101   6.818   4.802   2.235 -0.2317 -0.5965  0.4322
 9379TIP3    H228102   6.919   4.909   2.268  0.7544 -1.3289 -0.1560
 9380TIP3   OH228103   5.161   1.469   3.012 -0.2601 -1.1760 -0.1955
 9380TIP3    H128104   5.162   1.451   2.918 -1.2851 -0.0054 -0.4567
 9380TIP3    H228105   5.178   1.385   3.053  1.2543 -1.5263 -1.4408
 9381TIP3   OH228106   0.199   0.896   5.487  0.1487  0.3910  0.1949
 9381TIP3    H128107   0.144   0.877   5.563 -0.7955 -1.0206 -0.7903
 9381TIP3    H228108   0.265   0.826   5.487  0.9224  1.1032  0.4032
 9382TIP3   OH228109   2.646   5.605   3.908  0.2870  0.0489  0.2815
 9382TIP3    H128110   2.590   5.543   3.861 -0.3055  1.7774 -1.4635
 9382TIP3    H228111   2.672   5.559   3.987 -1.1271 -1.9453 -0.3262
 9383TIP3   OH228112   1.465   1.664   5.158  0.6649  0.1420  0.4994
 9383TIP3    H128113   1.551   1.636   5.127 -0.3039 -0.8537 -1.4428
 9383TIP3    H228114   1.406   1.647   5.085 -0.9977  1.9842  1.3142
 9384TIP3   OH228115   1.196   1.860   5.033  0.9665 -0.1045  0.1847
 9384TIP3    H128116   1.254   1.924   5.073  1.4500  0.6016 -1.5668
 9384TIP3    H228117   1.159   1.811   5.107  2.6395  0.4043  1.4004
 9385TIP3   OH228118   4.813   5.148   1.795 -0.3205 -0.3478  0.1807
 9385TIP3    H128119   4.761   5.207   1.740  0.8529 -0.7137 -1.3846
 9385TIP3    H228120   4.788   5.172   1.884 -1.4058  1.0960 -0.4506
 9386TIP3   OH228121   5.296   0.349   2.117 -0.0370 -0.2396 -0.0283
 9386TIP3    H128122   5.317   0.256   2.116  1.8621  0.1241 -2.3745
 9386TIP3    H228123   5.351   0.386   2.186 -1.0995 -0.8773  1.1880
 9387TIP3   OH228124   2.016   3.840   1.809  0.3327  0.5620 -0.5166
 9387TIP3    H128125   1.964   3.816   1.885  0.5356 -1.6926 -1.0148
 9387TIP3    H228126   1.976   3.921   1.777 -1.6760 -0.0744  0.2158
 9388TIP3   OH228127   6.314   3.512   0.356  0.2030 -0.2114  0.5863
 9388TIP3    H128128   6.236   3.477   0.401  1.1581  0.1408  2.6487
 9388TIP3    H228129   6.374   3.437   0.352 -0.1781 -0.4723 -0.9686
 9389TIP3   OH228130   1.028   2.186   2.016  0.2159 -0.0589  0.0877
 9389TIP3    H128131   0.999   2.099   2.043  1.1699 -0.3299  0.2750
 9389TIP3    H228132   0.963   2.246   2.052 -1.5247 -0.8101 -1.6397
 9390TIP3   OH228133   6.696   0.672   4.122 -0.0042 -0.5211 -0.2685
 9390TIP3    H128134   6.697   0.710   4.209  0.8760  1.0920 -0.9490
 9390TIP3    H228135   6.623   0.610   4.124  0.6369 -1.3056  1.9151
 9391TIP3   OH228136   4.173   6.115   4.251 -0.8895  0.1213  0.4401
 9391TIP3    H128137   4.268   6.107   4.256 -0.6952  1.7856  0.1099
 9391TIP3    H228138   4.145   6.120   4.342 -0.3106  2.4809  0.5636
 9392TIP3   OH228139   3.145   1.082   3.321 -0.0066  0.3179 -0.6813
 9392TIP3    H128140   3.237   1.102   3.337  0.4741 -1.3301 -1.1655
 9392TIP3    H228141   3.122   1.133   3.243  0.6356  0.3673 -0.8424
 9393TIP3   OH228142   2.847   1.071   4.081  0.4722 -0.0583 -0.3867
 9393TIP3    H128143   2.859   1.095   4.173  1.0258 -1.0530 -0.1741
 9393TIP3    H228144   2.786   0.997   4.084  0.6766 -0.2459 -0.7960
 9394TIP3   OH228145   5.506   1.948   5.187  0.4055  0.6025 -0.4765
 9394TIP3    H128146   5.463   1.927   5.270 -1.0929 -1.1953 -1.6192
 9394TIP3    H228147   5.486   2.041   5.172 -3.0911 -0.0860 -0.8523
 9395TIP3   OH228148   3.968   0.227   5.466 -0.7175  0.1602  0.4149
 9395TIP3    H128149   3.987   0.239   5.559 -1.5769 -0.2762  0.6573
 9395TIP3    H228150   3.934   0.311   5.436  1.0312  0.7956  0.0974
 9396TIP3   OH228151   1.200   2.946   2.749 -0.1377  0.0614  0.3470
 9396TIP3    H128152   1.271   2.885   2.729  0.7415  0.7626  1.2654
 9396TIP3    H228153   1.125   2.889   2.769  0.2954 -0.6844 -0.0994
 9397TIP3   OH228154   0.356   0.385   0.152 -0.5100  0.8178 -0.0091
 9397TIP3    H128155   0.293   0.457   0.143 -1.2369  0.1932 -0.0906
 9397TIP3    H228156   0.319   0.331   0.223 -0.1688  0.3345 -0.1964
 9398TIP3   OH228157   6.868   3.175   4.792  0.4977  0.0445 -1.1793
 9398TIP3    H128158   6.932   3.227   4.744  0.0268  1.8193  0.0054
 9398TIP3    H228159   6.916   3.096   4.819  2.5207  1.6956  0.4109
 9399TIP3   OH228160   2.128   5.873   2.678  0.3295  0.9998 -0.7782
 9399TIP3    H128161   2.161   5.794   2.721  0.3401  2.3235  1.8796
 9399TIP3    H228162   2.200   5.902   2.621 -0.1812 -1.5571 -2.8957
 9400TIP3   OH228163   5.264   5.878   0.457 -0.1342 -0.3634  0.6761
 9400TIP3    H128164   5.230   5.933   0.387  2.1574 -0.5609 -0.7019
 9400TIP3    H228165   5.191   5.868   0.517 -2.0041  0.4039 -1.3214
 9401TIP3   OH228166   4.437   2.748   4.820 -0.3223 -0.0742 -0.4247
 9401TIP3    H128167   4.415   2.694   4.744 -1.4614  1.3517 -1.1276
 9401TIP3    H228168   4.353   2.773   4.858  0.2194 -0.0523  0.8161
 9402TIP3   OH228169   0.670   1.004   0.653  0.0022  0.2765 -0.0867
 9402TIP3    H128170   0.682   0.911   0.632  0.2802  0.2941 -0.0099
 9402TIP3    H228171   0.696   1.050   0.573  0.9479  0.3385  0.2459
 9403TIP3   OH228172   1.411   3.269   2.238  0.0918  0.3448  0.4565
 9403TIP3    H128173   1.415   3.197   2.175 -0.9513 -1.1989  2.0672
 9403TIP3    H228174   1.351   3.332   2.198  0.1659 -0.1799 -0.5035
 9404TIP3   OH228175   2.218   0.815   0.726  0.0480 -0.3345  0.4796
 9404TIP3    H128176   2.210   0.791   0.818  0.0460 -0.5226  0.4304
 9404TIP3    H228177   2.222   0.911   0.727 -2.4223 -0.1693  0.5030
 9405TIP3   OH228178   1.381   0.682   3.802  0.0106 -0.1313 -0.8920
 9405TIP3    H128179   1.294   0.690   3.841 -0.4162 -1.2814 -1.5692
 9405TIP3    H228180   1.390   0.761   3.747 -0.1005  0.5963  0.1093
 9406TIP3   OH228181   0.941   3.602   0.134  0.2138 -0.1838 -0.1545
 9406TIP3    H128182   0.892   3.623   0.055  0.1916 -1.5742 -0.5391
 9406TIP3    H228183   0.921   3.673   0.195  0.1200  0.8284 -1.3447
 9407TIP3   OH228184   1.916   0.144   0.506  0.6112  0.2774  0.5399
 9407TIP3    H128185   1.820   0.135   0.500  0.5732  0.8898  0.1753
 9407TIP3    H228186   1.945   0.157   0.416  0.9683  0.7497  0.7204
 9408TIP3   OH228187   4.389   4.037   2.400  0.1057  0.5811 -0.1545
 9408TIP3    H128188   4.374   4.131   2.392  1.1471  0.5970 -2.5777
 9408TIP3    H228189   4.306   3.997   2.372 -0.1524  0.7539  0.3521
 9409TIP3   OH228190  -0.028   4.341   1.912  0.1476 -0.4948  0.9629
 9409TIP3    H128191   0.032   4.412   1.886 -0.5896 -0.3053 -0.3002
 9409TIP3    H228192  -0.003   4.322   2.002  1.0957  0.6243  0.9783
 9410TIP3   OH228193   2.947   2.382   5.255  0.1246  0.2201  0.3646
 9410TIP3    H128194   2.877   2.318   5.256  0.6911 -0.4249  1.8626
 9410TIP3    H228195   2.904   2.466   5.271 -0.6560  0.3071 -1.8951
 9411TIP3   OH228196   2.634   1.035   1.903 -0.3311 -0.1342 -0.6330
 9411TIP3    H128197   2.576   0.966   1.933 -0.7664 -0.2014 -1.6050
 9411TIP3    H228198   2.637   1.025   1.807  0.9988  0.0813 -0.6430
 9412TIP3   OH228199   2.689   2.226   3.639  0.3433 -0.1231  0.7130
 9412TIP3    H128200   2.782   2.216   3.622  0.4379  0.7902  0.6791
 9412TIP3    H228201   2.653   2.261   3.557 -0.3292 -2.0205  0.1301
 9413TIP3   OH228202   6.500   1.271   4.870  0.4635  0.1078 -0.0397
 9413TIP3    H128203   6.558   1.244   4.799 -1.4233 -1.7805 -0.9538
 9413TIP3    H228204   6.413   1.241   4.843 -0.5940  0.8485  2.2976
 9414TIP3   OH228205   2.619   6.040   3.018  0.7824  0.0142 -0.2296
 9414TIP3    H128206   2.696   6.009   2.971  1.7941  0.0933  1.3292
 9414TIP3    H228207   2.643   6.036   3.110 -0.7205  0.9957  0.2461
 9415TIP3   OH228208   2.723   5.709   4.340  0.3429  0.0304  0.9959
 9415TIP3    H128209   2.745   5.793   4.382  0.9646 -0.2089  1.1643
 9415TIP3    H228210   2.800   5.654   4.356  0.3444 -0.2560  0.0424
 9416TIP3   OH228211   6.312   2.261   0.073 -0.3024 -0.1731 -0.7135
 9416TIP3    H128212   6.309   2.243   0.166 -0.2060  0.1910 -0.6368
 9416TIP3    H228213   6.224   2.294   0.052  0.4178  2.3262 -0.1933
 9417TIP3   OH228214   5.364   0.578   1.934  0.3453  0.0332  0.2773
 9417TIP3    H128215   5.456   0.588   1.909  0.6303 -0.7576  1.0022
 9417TIP3    H228216   5.330   0.668   1.932  0.5798  0.1323 -2.0247
 9418TIP3   OH228217   5.937   1.350   5.036  0.2334 -0.8036 -0.3787
 9418TIP3    H128218   6.012   1.396   5.000 -1.0452  1.1702 -0.6631
 9418TIP3    H228219   5.867   1.416   5.040 -1.5627 -2.6037 -0.3295
 9419TIP3   OH228220   6.125   4.209   3.677  0.6769 -0.6379  0.2557
 9419TIP3    H128221   6.134   4.275   3.745  0.4288  0.0298 -0.3417
 9419TIP3    H228222   6.082   4.136   3.719 -2.0593  0.8165  0.1848
 9420TIP3   OH228223   0.215   2.475   2.271 -0.2169 -0.1684  0.1057
 9420TIP3    H128224   0.265   2.533   2.328 -1.0719  0.4458  0.2420
 9420TIP3    H228225   0.257   2.482   2.186  0.4153 -0.2772  0.4065
 9421TIP3   OH228226   1.848   6.477   3.614  0.3013  0.0353 -0.0050
 9421TIP3    H128227   1.762   6.447   3.642 -0.1412  2.3568  1.3587
 9421TIP3    H228228   1.835   6.507   3.524 -0.8669  2.0955  0.7693
 9422TIP3   OH228229   6.700   5.859   1.610 -0.1992  0.2333 -0.7756
 9422TIP3    H128230   6.629   5.805   1.646  1.2218 -0.6251  0.9112
 9422TIP3    H228231   6.656   5.939   1.580 -1.7050  0.6017  2.0439
 9423TIP3   OH228232   6.713   4.080   0.300 -0.8433 -0.2782 -0.2676
 9423TIP3    H128233   6.699   3.988   0.280 -0.1514  0.0522 -2.5014
 9423TIP3    H228234   6.790   4.105   0.249 -0.8344  1.4719  0.5100
 9424TIP3   OH228235   6.341   0.175   5.469  0.2857  0.0074  0.5919
 9424TIP3    H128236   6.322   0.256   5.420 -2.4415 -0.8024  0.1395
 9424TIP3    H228237   6.411   0.133   5.418 -1.3903 -0.0535 -1.8483
 9425TIP3   OH228238   4.774   1.521   5.287 -0.5002  0.3344  0.0936
 9425TIP3    H128239   4.867   1.532   5.306 -0.7898 -1.2862  2.9210
 9425TIP3    H228240   4.729   1.577   5.350 -1.4477  0.0197 -0.2796
 9426TIP3   OH228241   5.316   1.457   2.053  0.6109 -0.4799  0.7696
 9426TIP3    H128242   5.386   1.416   2.001  1.2445  0.1258  1.1228
 9426TIP3    H228243   5.362   1.497   2.127 -0.0524  0.3725  0.7355
 9427TIP3   OH228244   0.731   1.757   2.593 -0.1929 -0.1865  0.1123
 9427TIP3    H128245   0.721   1.686   2.656 -0.1050 -0.9307 -0.6879
 9427TIP3    H228246   0.648   1.759   2.545  0.9579 -2.1299 -2.2283
 9428TIP3   OH228247   3.549   1.878   4.739 -0.0976 -0.0722  0.2696
 9428TIP3    H128248   3.623   1.853   4.684 -0.9420 -0.1244 -0.8991
 9428TIP3    H228249   3.506   1.796   4.761 -0.5960  0.0453 -0.2331
 9429TIP3   OH228250   1.575   6.788   3.652  0.5260  0.6299 -0.2633
 9429TIP3    H128251   1.571   6.724   3.723  0.7254 -1.3371 -1.9069
 9429TIP3    H228252   1.668   6.805   3.640  0.8251 -1.6495 -2.0980
 9430TIP3   OH228253   7.126   6.687   3.614  0.3150 -0.2835  0.0436
 9430TIP3    H128254   7.150   6.724   3.530  0.5181 -1.4326 -0.4219
 9430TIP3    H228255   7.043   6.729   3.636  0.6064  0.5424 -0.3772
 9431TIP3   OH228256   0.771   0.392   2.553  0.3752  0.7219  0.1891
 9431TIP3    H128257   0.819   0.406   2.635  0.1284 -1.4163  0.7637
 9431TIP3    H228258   0.817   0.321   2.510  0.2234  1.5136 -1.3462
 9432TIP3   OH228259   1.488   6.385   4.249 -0.2288 -0.0454 -0.5695
 9432TIP3    H128260   1.506   6.479   4.242 -1.3003  0.3350  1.1484
 9432TIP3    H228261   1.525   6.360   4.334 -0.6085 -1.0294 -0.6815
 9433TIP3   OH228262   4.944   4.868   5.175  0.0083  0.1737  0.4031
 9433TIP3    H128263   4.908   4.780   5.186  0.9195 -0.3057 -0.2776
 9433TIP3    H228264   4.877   4.927   5.209 -0.8740 -0.7536  0.2888
 9434TIP3   OH228265   4.778   1.193   4.944  0.2210 -0.0762  0.4745
 9434TIP3    H128266   4.741   1.245   5.015  0.6071 -0.7824  1.1959
 9434TIP3    H228267   4.873   1.197   4.958  0.3116 -0.1269 -0.0730
 9435TIP3   OH228268   1.311  -0.003   4.611 -0.4403  0.2607  0.2966
 9435TIP3    H128269   1.387   0.043   4.575 -1.2368  1.2704 -0.1342
 9435TIP3    H228270   1.256  -0.022   4.536 -0.1505 -1.4054  0.4740
 9436TIP3   OH228271   0.660   1.582   2.836  0.1741  0.0665  0.1312
 9436TIP3    H128272   0.603   1.590   2.912 -0.4145  0.5333 -0.3495
 9436TIP3    H228273   0.628   1.506   2.789 -1.1799  1.2958 -1.0404
 9437TIP3   OH228274   1.861   2.289   0.668  0.4757 -0.4358 -0.4958
 9437TIP3    H128275   1.874   2.382   0.654 -1.3427 -0.2664 -1.3989
 9437TIP3    H228276   1.941   2.259   0.711  0.9954  1.5752  0.0344
 9438TIP3   OH228277   6.524   3.064   1.735  0.1049  0.4817  0.2280
 9438TIP3    H128278   6.610   3.025   1.746  0.3354  1.6321  4.0181
 9438TIP3    H228279   6.539   3.158   1.742 -1.2582  0.8451 -1.2102
 9439TIP3   OH228280   0.477   4.177   3.741  0.2753  1.2658 -0.7271
 9439TIP3    H128281   0.472   4.086   3.772  1.7614  1.3947 -0.0275
 9439TIP3    H228282   0.409   4.222   3.790  0.3891  0.7866 -0.1116
 9440TIP3   OH228283   4.917   4.295   5.769 -0.5146 -0.0053  0.2842
 9440TIP3    H128284   5.010   4.290   5.788 -0.4066  1.4008  0.2334
 9440TIP3    H228285   4.903   4.384   5.738 -1.4172 -0.9442 -2.2976
 9441TIP3   OH228286   6.867   3.226   3.306 -0.0918  0.3712 -0.5985
 9441TIP3    H128287   6.913   3.310   3.301 -0.5686  0.7739  1.0895
 9441TIP3    H228288   6.780   3.248   3.339 -0.0740 -0.8258  0.3231
 9442TIP3   OH228289   1.180   3.311   0.991  0.3178 -0.2658 -0.1671
 9442TIP3    H128290   1.167   3.333   0.899  1.4119 -0.7688 -0.4654
 9442TIP3    H228291   1.155   3.219   0.998  0.0237 -0.1703  0.0964
 9443TIP3   OH228292   1.680   0.380   5.731  0.3166 -0.6876 -0.1048
 9443TIP3    H128293   1.653   0.289   5.737  0.1372 -0.5414  2.5407
 9443TIP3    H228294   1.772   0.377   5.705  0.7515 -1.7454  1.4132
 9444TIP3   OH228295   2.528   1.162   0.757  0.2193 -0.6348  0.0719
 9444TIP3    H128296   2.547   1.188   0.667  1.8914  0.5878  0.7349
 9444TIP3    H228297   2.610   1.125   0.790 -0.6602 -2.0293  0.8062
 9445TIP3   OH228298   1.063   5.834   3.154 -0.6326 -0.2440 -0.0953
 9445TIP3    H128299   1.043   5.859   3.064  0.1399  2.0307  0.2836
 9445TIP3    H228300   1.069   5.917   3.201  1.1459 -1.2200  1.5777
 9446TIP3   OH228301   3.643   0.140   0.107  0.2577 -0.4090 -0.4440
 9446TIP3    H128302   3.720   0.123   0.162  0.8950  1.9745 -0.4633
 9446TIP3    H228303   3.680   0.163   0.022 -0.4137  1.0271 -0.3819
 9447TIP3   OH228304   5.375   4.097   1.811 -0.2040  0.1097  0.7275
 9447TIP3    H128305   5.442   4.028   1.809  1.4238  1.5250  2.5898
 9447TIP3    H228306   5.295   4.052   1.840  0.1725 -1.4001 -0.4459
 9448TIP3   OH228307   4.449   4.849   4.631  0.1134  0.4872  0.2518
 9448TIP3    H128308   4.407   4.776   4.585  1.5774  0.1112 -0.5274
 9448TIP3    H228309   4.459   4.917   4.565 -0.0133  0.8919  0.6446
 9449TIP3   OH228310   6.589   4.166   0.679 -0.3174  0.4037 -0.4561
 9449TIP3    H128311   6.573   4.174   0.773 -1.0689 -0.9293 -0.4461
 9449TIP3    H228312   6.677   4.201   0.667  0.0756 -0.0767  0.8595
 9450TIP3   OH228313   5.348   5.442   1.989  0.2893  0.3915  0.1768
 9450TIP3    H128314   5.298   5.369   1.952  1.3564 -0.3871  0.2024
 9450TIP3    H228315   5.351   5.423   2.083  0.9395  0.2052  0.1289
 9451TIP3   OH228316   6.144   4.481   4.898  0.2820 -0.1862  0.8455
 9451TIP3    H128317   6.050   4.471   4.889  0.3559 -0.0158 -0.2012
 9451TIP3    H228318   6.155   4.557   4.955 -0.2594  2.5663 -2.3848
 9452TIP3   OH228319   4.913   6.139   5.656 -0.5654  0.0076 -0.2809
 9452TIP3    H128320   4.921   6.170   5.566 -1.3164  1.4593  0.1144
 9452TIP3    H228321   4.823   6.106   5.661  0.1236 -2.1123 -0.6117
 9453TIP3   OH228322   6.532   0.139   4.071  0.0236  0.0692  0.0530
 9453TIP3    H128323   6.598   0.130   4.141  0.5458  0.3716 -0.3893
 9453TIP3    H228324   6.480   0.059   4.077 -0.8508  0.7152  1.7020
 9454TIP3   OH228325   2.261   1.493   4.427  0.9152  0.0573 -0.5158
 9454TIP3    H128326   2.356   1.509   4.423  0.7676  0.8113 -1.3413
 9454TIP3    H228327   2.222   1.573   4.390 -0.0541 -0.1115  0.1212
 9455TIP3   OH228328   0.694   4.670   0.699 -0.1488  0.3621  0.4696
 9455TIP3    H128329   0.699   4.764   0.683 -2.1309  0.1200 -2.2937
 9455TIP3    H228330   0.615   4.642   0.653  0.6845 -2.7486  0.7091
 9456TIP3   OH228331   4.313   3.174   1.989  0.5948 -0.1826 -0.5954
 9456TIP3    H128332   4.371   3.221   1.928 -0.6094  0.8749 -0.9732
 9456TIP3    H228333   4.253   3.125   1.932 -0.4487  0.6963 -0.2816
 9457TIP3   OH228334   3.129   2.104   3.615  1.1164 -0.0380 -0.1411
 9457TIP3    H128335   3.054   2.105   3.555  0.0028 -0.8173  1.1910
 9457TIP3    H228336   3.141   2.012   3.638  1.0061  0.2991  1.4100
 9458TIP3   OH228337   5.078   0.629   3.246  0.0305 -1.0869 -0.4345
 9458TIP3    H128338   5.145   0.561   3.249  0.7922 -0.3986 -1.2084
 9458TIP3    H228339   5.037   0.618   3.160  1.3270  0.4683 -1.3180
 9459TIP3   OH228340   5.689   6.595   5.102  0.1530 -0.5858  1.0325
 9459TIP3    H128341   5.742   6.666   5.139  2.2088 -2.2022  1.3781
 9459TIP3    H228342   5.686   6.615   5.009 -0.7094  0.7966  1.3178
 9460TIP3   OH228343  -0.007   0.437   5.882 -0.7064  0.4447  0.7499
 9460TIP3    H128344  -0.020   0.488   5.802 -0.5197 -1.1923 -0.3657
 9460TIP3    H228345   0.033   0.499   5.943  0.1638  1.4570 -0.7782
 9461TIP3   OH228346   4.667   2.839   1.083 -0.0871  0.2160 -0.4002
 9461TIP3    H128347   4.760   2.821   1.070  0.0223  0.0720  0.5353
 9461TIP3    H228348   4.665   2.923   1.129 -0.3120 -0.8551  1.6297
 9462TIP3   OH228349   6.226   1.910   5.779 -0.1510  0.5419  0.0073
 9462TIP3    H128350   6.318   1.933   5.794 -0.1330  0.9187 -0.6546
 9462TIP3    H228351   6.229   1.821   5.745 -0.0640  0.3888  0.4084
 9463TIP3   OH228352   1.726   0.295   3.309 -0.6380  0.2727 -0.2175
 9463TIP3    H128353   1.661   0.352   3.269 -1.2653 -0.7522 -0.7104
 9463TIP3    H228354   1.790   0.279   3.240 -1.3221 -0.8904 -0.6198
 9464TIP3   OH228355   4.049   6.339   0.536 -0.1797  0.4861 -0.5590
 9464TIP3    H128356   3.987   6.411   0.547 -0.9210 -0.3842  1.3737
 9464TIP3    H228357   4.122   6.378   0.488 -1.6545  1.8513 -1.8077
 9465TIP3   OH228358   0.463   2.324   2.518  0.2534 -0.1188 -0.5995
 9465TIP3    H128359   0.464   2.256   2.452 -2.0575 -1.1144  0.2902
 9465TIP3    H228360   0.509   2.285   2.593  1.0078  0.2267 -0.8661
 9466TIP3   OH228361   6.820   2.786   0.879 -0.1237  0.1370  0.1778
 9466TIP3    H128362   6.817   2.691   0.873  1.3020  0.0890 -0.1663
 9466TIP3    H228363   6.902   2.805   0.926  1.1463  1.2286 -2.2878
 9467TIP3   OH228364   1.152   4.945   2.843 -0.0580  0.2054  0.2807
 9467TIP3    H128365   1.137   4.934   2.937  1.1195  0.9015  0.5645
 9467TIP3    H228366   1.071   4.913   2.802  0.1411 -1.9630  1.4226
 9468TIP3   OH228367   6.167   6.741   1.040 -0.1267  0.2811 -0.0561
 9468TIP3    H128368   6.120   6.756   1.122  0.3424 -1.0848  0.4997
 9468TIP3    H228369   6.256   6.718   1.068 -0.2323 -1.2814 -0.8644
 9469TIP3   OH228370   2.773   0.019   3.988 -0.1598 -0.0882  0.0739
 9469TIP3    H128371   2.754   0.090   4.049 -0.9660 -0.4674  0.2673
 9469TIP3    H228372   2.866   0.031   3.966 -0.5063  1.6090 -0.6560
 9470TIP3   OH228373   4.295   0.333  -0.006  0.4313  0.4138  0.1412
 9470TIP3    H128374   4.275   0.254   0.045  0.7396  0.0779 -0.2529
 9470TIP3    H228375   4.234   0.399   0.027 -0.6477 -0.3106 -0.3494
 9471TIP3   OH228376   5.884   5.880   5.768  0.2242  0.1759  0.4484
 9471TIP3    H128377   5.891   5.896   5.674  1.4612 -1.2452  0.2636
 9471TIP3    H228378   5.797   5.842   5.779  0.8260 -1.5657 -0.4692
 9472TIP3   OH228379   2.047   6.281   3.634  0.5033  0.3474  0.2054
 9472TIP3    H128380   2.077   6.321   3.552 -0.4968  1.4052  0.3384
 9472TIP3    H228381   1.969   6.331   3.658  2.5078  2.3193  3.5128
 9473TIP3   OH228382   3.752   6.622   0.283 -0.0173 -0.2288 -0.1073
 9473TIP3    H128383   3.786   6.586   0.365  1.4066  0.3090 -0.4391
 9473TIP3    H228384   3.665   6.584   0.275  0.8979 -2.5202  0.2254
 9474TIP3   OH228385   3.111   1.873   4.538 -0.4093  0.7482  0.4761
 9474TIP3    H128386   3.152   1.892   4.454  0.1456 -1.1528  0.2722
 9474TIP3    H228387   3.017   1.882   4.522 -0.2339  2.4130  0.2241
 9475TIP3   OH228388   1.783   6.148   4.331 -0.4994  0.5312  0.0811
 9475TIP3    H128389   1.692   6.136   4.358  0.0020 -2.5066  0.7518
 9475TIP3    H228390   1.780   6.146   4.236 -1.0205 -0.9626  0.1093
 9476TIP3   OH228391   3.670   1.863   5.359  0.4088 -0.0764 -0.1479
 9476TIP3    H128392   3.606   1.885   5.291  0.7189  0.3627 -0.3062
 9476TIP3    H228393   3.677   1.768   5.356  0.4782 -0.0537 -0.7903
 9477TIP3   OH228394   1.418   1.772   4.083  0.1163  0.5497  0.0636
 9477TIP3    H128395   1.393   1.745   4.172 -0.5365  0.2098 -0.2230
 9477TIP3    H228396   1.356   1.841   4.061  0.3152  0.6733 -0.1116
 9478TIP3   OH228397   4.028   0.967   2.661  0.4512  0.6089  0.0818
 9478TIP3    H128398   4.029   0.880   2.621  0.9113  0.9887 -0.7716
 9478TIP3    H228399   3.961   0.962   2.729 -0.9389  0.1449 -1.2585
 9479TIP3   OH228400   6.429   3.672   5.301 -0.0501 -0.0004  0.0128
 9479TIP3    H128401   6.353   3.626   5.266  0.3605 -0.4086 -0.3675
 9479TIP3    H228402   6.501   3.609   5.293  0.8660  1.2121 -1.9662
 9480TIP3   OH228403   0.029   4.215   3.201  0.8682 -0.3387  0.3303
 9480TIP3    H128404   0.118   4.207   3.236  1.7512  3.5032 -0.6606
 9480TIP3    H228405   0.037   4.190   3.109  0.8428 -0.2825  0.3130
 9481TIP3   OH228406   7.052   2.636   3.216  0.1660  0.2057  0.0888
 9481TIP3    H128407   7.102   2.560   3.187  0.9942  0.6859  0.2365
 9481TIP3    H228408   7.108   2.711   3.197 -0.1156  0.6901  1.0631
 9482TIP3   OH228409   6.382   4.331   3.668  0.3985 -0.1495  0.4789
 9482TIP3    H128410   6.434   4.301   3.743 -0.7558 -0.8098  1.0400
 9482TIP3    H228411   6.312   4.266   3.660  0.1791  0.2273 -0.8276
 9483TIP3   OH228412   3.548   0.886   2.012  0.1353 -0.5743 -0.3719
 9483TIP3    H128413   3.520   0.798   2.038 -0.2938 -0.3638 -0.1195
 9483TIP3    H228414   3.635   0.895   2.051 -1.0532  0.2680  2.2627
 9484TIP3   OH228415   5.636   2.084   2.642 -0.7341 -0.3724  0.1582
 9484TIP3    H128416   5.635   2.010   2.703 -2.2454 -0.2503  0.3004
 9484TIP3    H228417   5.639   2.161   2.698 -1.4594 -0.2756  0.0685
 9485TIP3   OH228418   4.299   4.946   0.398 -0.5052  0.6147  0.1141
 9485TIP3    H128419   4.338   5.006   0.334 -0.8166  0.8219  0.1147
 9485TIP3    H228420   4.232   4.899   0.348  1.5844 -1.7703 -0.6401
 9486TIP3   OH228421   0.577   2.714   1.973 -0.4337  0.1107  0.8022
 9486TIP3    H128422   0.604   2.628   2.005  0.0931 -0.5455 -1.2938
 9486TIP3    H228423   0.656   2.751   1.932 -1.2388  0.6154 -0.3376
 9487TIP3   OH228424   5.347   2.418   2.197  0.1178  0.7800 -0.0176
 9487TIP3    H128425   5.299   2.337   2.179 -0.6080  1.3462 -0.7033
 9487TIP3    H228426   5.410   2.425   2.125  2.6798 -0.9672  1.8798
 9488TIP3   OH228427   3.888   3.079   4.201 -0.2146  0.1865  0.6114
 9488TIP3    H128428   3.901   3.004   4.142 -0.0905  1.3873 -0.9800
 9488TIP3    H228429   3.855   3.040   4.282  2.8876 -1.9202  1.0507
 9489TIP3   OH228430   1.722   6.695   2.176  0.4462  0.6608 -0.0549
 9489TIP3    H128431   1.640   6.736   2.149  2.1955  3.4969 -1.5622
 9489TIP3    H228432   1.745   6.637   2.103 -0.5722 -0.8127  0.7538
 9490TIP3   OH228433   2.335   1.617   0.139  0.2461 -0.1515  0.1836
 9490TIP3    H128434   2.316   1.570   0.058 -0.5735  1.0309 -0.3463
 9490TIP3    H228435   2.320   1.709   0.117  1.7566  0.3785  1.1852
 9491TIP3   OH228436   2.808   1.166  -0.021  0.2081  0.1168 -0.2946
 9491TIP3    H128437   2.839   1.212   0.057 -0.7302 -0.6553  0.5469
 9491TIP3    H228438   2.729   1.120   0.007 -0.2765 -0.0011 -1.7531
 9492TIP3   OH228439   6.524   6.580   4.220 -0.5153  0.4850  0.4876
 9492TIP3    H128440   6.528   6.646   4.289  0.2402 -1.7021  2.6820
 9492TIP3    H228441   6.612   6.579   4.182 -0.9257  1.6743 -0.5570
 9493TIP3   OH228442   4.613   2.716   2.689  0.0234 -0.0067  0.4730
 9493TIP3    H128443   4.533   2.721   2.636 -0.1276 -2.2959  0.3719
 9493TIP3    H228444   4.638   2.807   2.704 -1.5828  0.7372 -1.0261
 9494TIP3   OH228445   3.716   0.117   5.578 -0.0382 -0.0723 -0.3659
 9494TIP3    H128446   3.727   0.184   5.511  0.5161  2.2702  1.9117
 9494TIP3    H228447   3.789   0.057   5.565  0.8457  1.1031 -1.0228
 9495TIP3   OH228448   4.504   6.735   0.942 -0.0121 -0.2899 -0.5019
 9495TIP3    H128449   4.510   6.652   0.894  0.3738  0.4013 -1.6930
 9495TIP3    H228450   4.416   6.734   0.980 -0.6060 -0.5759 -1.8101
 9496TIP3   OH228451   2.139   3.699   5.189  0.4483  0.1975  0.8857
 9496TIP3    H128452   2.199   3.625   5.186 -0.1199 -0.2364  0.0348
 9496TIP3    H228453   2.059   3.664   5.229  1.0631  1.0122  2.9505
 9497TIP3   OH228454   0.283   6.187   0.418 -0.1190  0.0043 -0.5563
 9497TIP3    H128455   0.289   6.246   0.494 -0.0261 -2.1675  1.2180
 9497TIP3    H228456   0.365   6.200   0.370  0.5074  0.3239  0.5721
 9498TIP3   OH228457   3.450   4.837   4.880 -0.0259 -0.3574  0.6528
 9498TIP3    H128458   3.364   4.865   4.848 -0.4208 -1.1099  1.0180
 9498TIP3    H228459   3.468   4.894   4.954 -0.1599 -0.1282  0.5107
 9499TIP3   OH228460   6.166   0.610   5.164 -0.1132 -0.4030  0.0503
 9499TIP3    H128461   6.249   0.565   5.179  0.0226  0.1262  0.9379
 9499TIP3    H228462   6.107   0.575   5.231 -0.2706  0.0786  0.1654
 9500TIP3   OH228463   3.773   6.571   2.031 -0.0225 -0.3575  0.4148
 9500TIP3    H128464   3.803   6.574   2.122  2.3246  2.7691 -0.2741
 9500TIP3    H228465   3.690   6.617   2.031  0.7504  1.0866  0.8087
 9501TIP3   OH228466   5.875   3.444   5.493  0.3189 -0.1886 -0.0576
 9501TIP3    H128467   5.817   3.414   5.563 -2.3209  2.3645 -0.9458
 9501TIP3    H228468   5.862   3.381   5.422 -0.7273 -0.1606  0.0933
 9502TIP3   OH228469   5.929   5.186   1.121  0.4902 -0.3694  0.2376
 9502TIP3    H128470   5.860   5.228   1.173 -0.0176 -0.7712 -0.1085
 9502TIP3    H228471   5.952   5.108   1.171 -0.7966 -1.3724 -0.6726
 9503TIP3   OH228472   6.981   0.902   1.130 -0.7443  0.2692 -0.5898
 9503TIP3    H128473   7.054   0.840   1.131 -1.1579 -0.2042  0.2346
 9503TIP3    H228474   6.980   0.935   1.040  1.7166  1.7611 -0.1546
 9504TIP3   OH228475   2.298   5.584   1.278  0.4511  0.3172  0.3907
 9504TIP3    H128476   2.253   5.564   1.196 -2.9396 -1.5866  2.5019
 9504TIP3    H228477   2.369   5.520   1.283  1.6171  1.3402 -1.5439
 9505TIP3   OH228478   2.654   5.239   1.484 -0.2680 -0.2072 -0.0160
 9505TIP3    H128479   2.685   5.197   1.564  0.9749 -0.5167 -0.6335
 9505TIP3    H228480   2.621   5.167   1.430  1.4965 -0.3946 -0.9125
 9506TIP3   OH228481   6.302   4.673   4.149 -0.3670  0.4471 -0.0876
 9506TIP3    H128482   6.209   4.665   4.173 -0.0334 -1.4782  0.7281
 9506TIP3    H228483   6.343   4.714   4.226 -0.2886 -0.2237  0.2373
 9507TIP3   OH228484   0.331   3.415   4.819  0.5780 -0.2870 -0.1562
 9507TIP3    H128485   0.383   3.345   4.778  2.3094  0.3077  0.8824
 9507TIP3    H228486   0.350   3.406   4.912 -0.2077  0.7741  0.1165
 9508TIP3   OH228487   6.479   4.406   0.088 -0.1004 -0.1207  0.1229
 9508TIP3    H128488   6.530   4.389   0.008 -2.2368 -1.4931 -1.0583
 9508TIP3    H228489   6.452   4.498   0.080  0.7225  0.1104 -0.1021
 9509TIP3   OH228490   4.763   1.409   4.296 -0.2676 -0.8505  0.0494
 9509TIP3    H128491   4.807   1.487   4.330 -2.4308  0.3447  0.2894
 9509TIP3    H228492   4.834   1.352   4.268  1.5475 -0.3213  3.1051
 9510TIP3   OH228493   2.848   4.352   3.900 -0.0560  0.2248  1.0185
 9510TIP3    H128494   2.910   4.421   3.877 -0.0544  0.5100  1.8826
 9510TIP3    H228495   2.784   4.354   3.829  0.7322  0.1436  0.2819
 9511TIP3   OH228496   0.199   6.770   5.810 -0.0745  0.2706 -0.4824
 9511TIP3    H128497   0.264   6.732   5.752 -0.4866 -1.8491  0.3704
 9511TIP3    H228498   0.246   6.787   5.891  0.0095  1.2650 -0.7240
 9512TIP3   OH228499   4.231   2.449   5.847 -0.2729  0.7039  0.1307
 9512TIP3    H128500   4.285   2.461   5.769  0.5958  0.7064  0.7308
 9512TIP3    H228501   4.147   2.491   5.824  0.0495  0.9060 -0.7132
 9513TIP3   OH228502   5.083   5.419   2.895  0.0701  0.3264  0.0564
 9513TIP3    H128503   5.174   5.440   2.915  0.2181 -1.4783  1.5705
 9513TIP3    H228504   5.034   5.453   2.970  0.1918 -3.2836  1.9965
 9514TIP3   OH228505   0.162   2.732   1.447  0.2263  0.0409  0.3635
 9514TIP3    H128506   0.118   2.684   1.518  0.5928 -1.6283 -0.4831
 9514TIP3    H228507   0.091   2.757   1.388  0.1703 -0.8769  0.0196
 9515TIP3   OH228508   4.292   1.141   2.916 -0.2405  0.4759 -0.3838
 9515TIP3    H128509   4.335   1.157   3.000  0.2489  0.9490 -0.7191
 9515TIP3    H228510   4.219   1.083   2.938 -0.2699  0.7897  0.4079
 9516TIP3   OH228511   1.562   1.215   3.778  0.0428 -0.6061  0.3937
 9516TIP3    H128512   1.542   1.308   3.762 -0.9046 -0.7798  0.5290
 9516TIP3    H228513   1.639   1.197   3.724  0.2089  0.2459  0.3320
 9517TIP3   OH228514   2.956   1.563   0.716  0.0012 -0.2530 -0.0568
 9517TIP3    H128515   3.036   1.616   0.711  0.5884 -1.0363  0.5729
 9517TIP3    H228516   2.946   1.546   0.810 -0.3647 -0.9548 -0.2203
 9518TIP3   OH228517   6.183   3.746   1.791  0.6181  0.5959 -0.1460
 9518TIP3    H128518   6.116   3.814   1.790 -1.6685 -1.4949 -0.5852
 9518TIP3    H228519   6.221   3.750   1.879 -1.3061  0.8050  0.7280
 9519TIP3   OH228520   3.889   5.835   2.979 -0.0560 -0.0541  0.3462
 9519TIP3    H128521   3.913   5.823   2.887 -2.9114 -0.1242 -0.4648
 9519TIP3    H228522   3.942   5.770   3.026  1.0585 -0.3842 -1.2934
 9520TIP3   OH228523   1.208   6.581   2.388 -0.4357 -0.1087 -0.2608
 9520TIP3    H128524   1.268   6.506   2.392  1.9497  1.6983  0.4797
 9520TIP3    H228525   1.259   6.654   2.424 -2.6234  1.9025 -0.9952
 9521TIP3   OH228526   4.068   6.121   1.752  0.1183 -0.5474 -0.0764
 9521TIP3    H128527   4.159   6.104   1.729  0.6760  0.7325  1.0335
 9521TIP3    H228528   4.046   6.050   1.812  0.1715 -1.2091 -0.8232
 9522TIP3   OH228529   4.814   5.439   1.938 -0.2486  0.6790 -0.4965
 9522TIP3    H128530   4.825   5.511   2.001 -1.4421  1.5486 -1.2630
 9522TIP3    H228531   4.873   5.370   1.971  1.3041  2.1614 -0.0150
 9523TIP3   OH228532   5.827   1.693   1.681  0.0083 -0.0857  0.1541
 9523TIP3    H128533   5.812   1.601   1.660  1.7004 -0.9843  2.4139
 9523TIP3    H228534   5.914   1.712   1.648 -1.1337  1.4537 -2.2369
 9524TIP3   OH228535   5.685   5.254   1.370  0.1303 -0.5610  0.0162
 9524TIP3    H128536   5.665   5.311   1.444  0.2564  0.0308 -0.3906
 9524TIP3    H228537   5.716   5.314   1.302 -0.7579 -0.9870 -0.7943
 9525TIP3   OH228538   2.386   4.426   0.369 -0.2869  0.0050  0.6385
 9525TIP3    H128539   2.478   4.430   0.342 -0.0687  0.0266  1.3753
 9525TIP3    H228540   2.350   4.354   0.318  0.4257 -0.7508  1.1686
 9526TIP3   OH228541   2.980   2.249   1.470  0.1152 -0.0613  0.0750
 9526TIP3    H128542   3.032   2.297   1.535 -0.7107  1.2270 -0.1790
 9526TIP3    H228543   2.973   2.309   1.395  1.0934 -1.5303 -1.2566
 9527TIP3   OH228544   0.896   3.745   4.529 -0.0428 -0.4840 -0.5416
 9527TIP3    H128545   0.852   3.777   4.607 -0.7997 -1.7063 -0.4339
 9527TIP3    H228546   0.907   3.822   4.474  0.7240  0.4402  0.8528
 9528TIP3   OH228547   6.520   2.868   1.504 -0.2376 -0.3166  0.0546
 9528TIP3    H128548   6.523   2.926   1.580  0.1610  2.7254 -2.1002
 9528TIP3    H228549   6.431   2.880   1.469 -0.2037 -1.1639 -0.3424
 9529TIP3   OH228550   3.454   0.027   5.677  0.4342 -0.1083  0.0270
 9529TIP3    H128551   3.416   0.097   5.623 -0.5723 -1.0657 -0.5482
 9529TIP3    H228552   3.548   0.048   5.681  0.6294 -0.2061 -2.4522
 9530TIP3   OH228553   5.353   2.331   3.825  0.0427  0.7022 -0.1745
 9530TIP3    H128554   5.399   2.407   3.859  1.0592  0.0082  0.0519
 9530TIP3    H228555   5.394   2.257   3.870 -1.3771  0.0613  0.1203
 9531TIP3   OH228556   3.446   6.134   0.106 -0.9293 -0.1441 -0.1624
 9531TIP3    H128557   3.429   6.041   0.090 -3.5895  0.0504  1.0377
 9531TIP3    H228558   3.516   6.133   0.171  0.7805 -1.1843 -1.9063
 9532TIP3   OH228559   5.035   6.071   4.427  0.2320 -0.2391 -0.4868
 9532TIP3    H128560   5.030   6.159   4.391 -2.5784  0.4962  1.4113
 9532TIP3    H228561   5.091   6.080   4.505  0.7929 -0.3915 -0.8633
 9533TIP3   OH228562   3.159   6.007   4.782 -0.2964 -0.5263 -0.1946
 9533TIP3    H128563   3.109   6.067   4.726  0.0214  0.6232  0.7064
 9533TIP3    H228564   3.094   5.955   4.828 -0.6681  0.5136  0.4887
 9534TIP3   OH228565   1.193   4.855   5.631  0.1077  0.2271  0.2656
 9534TIP3    H128566   1.103   4.825   5.640  0.1421 -0.0102 -0.1727
 9534TIP3    H228567   1.223   4.819   5.548  0.6065  0.3059  0.4044
 9535TIP3   OH228568   3.866   1.947   2.152  0.0254 -0.1999 -0.1751
 9535TIP3    H128569   3.849   1.893   2.229 -0.2968  1.1159  0.7025
 9535TIP3    H228570   3.959   1.933   2.133 -0.2519 -1.7563 -0.5454
 9536TIP3   OH228571   6.785   0.785   1.680 -0.0856 -0.1013  0.4029
 9536TIP3    H128572   6.794   0.690   1.668  0.2829 -0.0117 -0.0958
 9536TIP3    H228573   6.734   0.795   1.760  0.7231 -0.7086  1.0122
 9537TIP3   OH228574   2.977   1.935   0.186  0.2832  0.5779 -0.2815
 9537TIP3    H128575   2.928   1.950   0.267  1.8414  0.6922  0.6788
 9537TIP3    H228576   3.004   1.843   0.190  0.0087  0.4611 -0.8915
 9538TIP3   OH228577   2.304   3.177   2.212  0.5114  0.3212 -0.1197
 9538TIP3    H128578   2.233   3.182   2.276  0.0132 -1.1892 -0.5030
 9538TIP3    H228579   2.384   3.175   2.264  0.0698 -1.8804  0.5531
 9539TIP3   OH228580   2.855   5.423   5.537  0.3400  0.0869 -0.0633
 9539TIP3    H128581   2.871   5.508   5.496 -0.8790  0.1728 -0.3879
 9539TIP3    H228582   2.942   5.393   5.563  0.8601  1.1441 -0.5060
 9540TIP3   OH228583   6.737   5.748   4.521 -0.2144 -0.2396 -0.3482
 9540TIP3    H128584   6.693   5.702   4.450  0.2547  1.2328 -1.6434
 9540TIP3    H228585   6.792   5.813   4.478 -0.6316  1.3658  1.3897
 9541TIP3   OH228586   0.679   1.476   2.404  0.0068  0.0051  0.2233
 9541TIP3    H128587   0.751   1.518   2.357  0.4305  0.6213  1.3788
 9541TIP3    H228588   0.720   1.405   2.453 -0.3830 -0.4528 -0.1037
 9542TIP3   OH228589   2.025   3.101   5.666  0.2322  0.1808  0.4721
 9542TIP3    H128590   1.950   3.046   5.646  0.1787 -0.1966  1.6561
 9542TIP3    H228591   2.101   3.042   5.660  0.3714  0.4088 -0.0708
 9543TIP3   OH228592   0.146   1.557   2.000 -0.0655  0.1380 -0.1004
 9543TIP3    H128593   0.103   1.473   2.014 -0.5109  0.4497  0.4106
 9543TIP3    H228594   0.216   1.537   1.938 -0.9389 -0.3677 -0.9484
 9544TIP3   OH228595   6.143   2.884   2.696  0.2985  0.2401 -0.1116
 9544TIP3    H128596   6.221   2.937   2.713  1.1933 -1.2760  0.6485
 9544TIP3    H228597   6.174   2.794   2.695 -1.5903 -0.5015  1.3023
 9545TIP3   OH228598   5.858   6.467   0.029 -0.1182  0.5500  0.1124
 9545TIP3    H128599   5.847   6.374   0.008 -1.4500  0.7747 -0.2597
 9545TIP3    H228600   5.927   6.496  -0.031 -0.2598 -0.0158 -0.3409
 9546TIP3   OH228601   2.109   2.249   5.429  0.5982 -0.1466  0.2291
 9546TIP3    H128602   2.029   2.298   5.411  2.2263  2.0914 -1.6236
 9546TIP3    H228603   2.083   2.157   5.426 -2.2718  0.4950  2.0140
 9547TIP3   OH228604   1.103   6.691   2.880  0.1654 -0.1820  0.3274
 9547TIP3    H128605   1.116   6.778   2.919  0.2592  0.1054 -0.3338
 9547TIP3    H228606   1.154   6.632   2.935  0.9978  0.3453  0.1356
 9548TIP3   OH228607   1.074   5.670   1.535 -0.3486  0.0199 -0.0518
 9548TIP3    H128608   1.122   5.731   1.478  0.4057 -0.5989 -0.1000
 9548TIP3    H228609   1.125   5.589   1.531 -0.4451 -0.1275  1.2789
 9549TIP3   OH228610   3.346   4.805   4.599  0.5389 -0.6411 -0.7043
 9549TIP3    H128611   3.319   4.720   4.634  1.2317 -0.2879  0.7489
 9549TIP3    H228612   3.412   4.784   4.533  2.9544 -1.1647  1.7394
 9550TIP3   OH228613   4.930   0.858   4.945  0.1408 -0.3760  0.1282
 9550TIP3    H128614   4.992   0.816   4.885  0.3675 -0.1087  0.1792
 9550TIP3    H228615   4.949   0.820   5.030  0.2584 -0.2596  0.1514
 9551TIP3   OH228616   1.455   0.277   4.244  0.3133  0.4802  0.3545
 9551TIP3    H128617   1.426   0.347   4.303 -0.2740 -1.0450  1.9831
 9551TIP3    H228618   1.374   0.233   4.217  0.7628 -1.4452  1.8811
 9552TIP3   OH228619   3.776   2.188   4.377  0.1899  0.0708 -0.1600
 9552TIP3    H128620   3.755   2.209   4.286 -1.0872 -0.7512 -0.0874
 9552TIP3    H228621   3.783   2.272   4.421 -0.1665  0.4435 -0.8152
 9553TIP3   OH228622   0.218   1.412   2.412  0.2047  0.5535 -0.2553
 9553TIP3    H128623   0.150   1.380   2.352  1.1284  1.5439 -1.8801
 9553TIP3    H228624   0.297   1.366   2.385  0.3701 -0.0590  1.1701
 9554TIP3   OH228625   5.256   2.494   3.030  0.5374 -0.7177  0.5284
 9554TIP3    H128626   5.182   2.464   2.978  0.0797  0.0083  0.7495
 9554TIP3    H228627   5.221   2.504   3.119 -0.0244  2.7756  0.0562
 9555TIP3   OH228628   0.842   3.017   3.901 -0.2701 -0.7434  0.1736
 9555TIP3    H128629   0.767   3.074   3.885  0.3749  0.3453  0.9295
 9555TIP3    H228630   0.885   3.011   3.815  1.5165  2.6792  0.6480
 9556TIP3   OH228631   1.695   3.182   0.361 -0.7847  0.2153 -0.2506
 9556TIP3    H128632   1.650   3.258   0.324  0.0575  0.4921 -0.7270
 9556TIP3    H228633   1.708   3.205   0.453 -1.5384  0.1587 -0.1186
 9557TIP3   OH228634   5.970   6.456   2.398 -0.5588  0.0578 -0.0248
 9557TIP3    H128635   5.884   6.429   2.430 -0.1931  0.6504  1.5718
 9557TIP3    H228636   6.002   6.517   2.464  2.2082 -2.1117  0.8343
 9558TIP3   OH228637   3.772   1.294   3.327 -0.3322 -0.2238 -0.0148
 9558TIP3    H128638   3.709   1.250   3.384 -0.3222 -0.3591 -0.1092
 9558TIP3    H228639   3.832   1.337   3.388  1.4385 -2.7556  0.1750
 9559TIP3   OH228640   3.518   5.802   5.186  0.8469 -0.0632  0.0436
 9559TIP3    H128641   3.588   5.840   5.240  0.7187  1.4443 -0.8117
 9559TIP3    H228642   3.438   5.844   5.218  0.4782 -0.8621  0.1900
 9560TIP3   OH228643   3.540   4.719   4.430 -0.2762  0.3865  0.7389
 9560TIP3    H128644   3.511   4.665   4.357 -1.3819 -1.2768  2.3319
 9560TIP3    H228645   3.633   4.697   4.441 -0.4024 -0.2472  0.5621
 9561TIP3   OH228646   3.231   4.467   0.147  0.2126 -0.5663  0.2154
 9561TIP3    H128647   3.194   4.539   0.096  0.6604 -1.6329 -1.6957
 9561TIP3    H228648   3.325   4.485   0.150  0.1920 -0.5225  0.6555
 9562TIP3   OH228649   2.381   4.825   2.552  0.8057  0.0021 -0.1004
 9562TIP3    H128650   2.323   4.761   2.511  1.6309 -0.8161 -0.0216
 9562TIP3    H228651   2.328   4.865   2.621 -0.3476  0.8287 -1.4085
 9563TIP3   OH228652   3.185   2.860   0.006  0.3322  0.2461  0.3213
 9563TIP3    H128653   3.180   2.765   0.012  1.5682  0.0890 -0.6598
 9563TIP3    H228654   3.100   2.891   0.037 -0.6094 -1.2381 -0.6677
 9564TIP3   OH228655   3.786   1.599   4.393  0.2134  0.2007  0.3729
 9564TIP3    H128656   3.759   1.507   4.383  0.1704  0.3221 -0.7666
 9564TIP3    H228657   3.772   1.638   4.307  0.2808  1.2756  0.8290
 9565TIP3   OH228658   4.309   6.402   5.727  0.3008 -0.4805  0.0084
 9565TIP3    H128659   4.272   6.341   5.664  1.1159 -1.3123  0.3177
 9565TIP3    H228660   4.305   6.487   5.683  0.3117 -0.9550 -0.9196
 9566TIP3   OH228661   7.200   3.066   0.902 -0.3941  0.1896  0.1335
 9566TIP3    H128662   7.277   3.105   0.862  0.6917  2.2313  3.7573
 9566TIP3    H228663   7.134   3.136   0.902 -0.4395  0.1836  1.5556
 9567TIP3   OH228664   6.885   1.822   5.361 -0.4083 -0.3297 -0.2318
 9567TIP3    H128665   6.807   1.876   5.351  1.2009  2.2628  0.0840
 9567TIP3    H228666   6.942   1.849   5.289  1.5773  0.5292  1.5657
 9568TIP3   OH228667   4.556   6.133   0.989 -0.0332  0.1785 -0.0520
 9568TIP3    H128668   4.615   6.170   0.923  1.0226  0.7392  1.1675
 9568TIP3    H228669   4.607   6.066   1.033 -0.9887 -0.7440 -0.3039
 9569TIP3   OH228670   2.418   1.854   4.300  0.4282 -0.4316  0.2067
 9569TIP3    H128671   2.381   1.828   4.215 -0.0652 -0.4516  0.4227
 9569TIP3    H228672   2.447   1.944   4.286 -1.6094  0.3492  0.5876
 9570TIP3   OH228673   2.350   2.818   2.800  0.1212  0.2032  0.1036
 9570TIP3    H128674   2.375   2.727   2.810 -0.2012  0.0934 -0.0522
 9570TIP3    H228675   2.387   2.863   2.876  1.2686  0.1604 -0.4187
 9571TIP3   OH228676   0.663   4.955   4.101 -0.5544 -0.1756  0.4189
 9571TIP3    H128677   0.679   4.875   4.150  0.7582 -1.1032 -1.4122
 9571TIP3    H228678   0.687   4.934   4.011  1.4625  2.7317  0.1075
 9572TIP3   OH228679   5.026   4.598   0.730 -0.0893 -0.1078 -0.2492
 9572TIP3    H128680   5.082   4.665   0.770 -0.6907 -0.3391  1.0519
 9572TIP3    H228681   5.069   4.575   0.648  0.0464  1.9918 -0.8233
 9573TIP3   OH228682   2.534   2.471   5.250 -0.4498  0.8430  0.1471
 9573TIP3    H128683   2.609   2.474   5.309  0.7156  0.9368 -1.2943
 9573TIP3    H228684   2.572   2.471   5.162 -2.1373  0.8311 -0.6216
 9574TIP3   OH228685   2.789   2.865   2.447  0.3137 -0.0776  0.7315
 9574TIP3    H128686   2.696   2.875   2.464  0.8091  0.1633  3.7422
 9574TIP3    H228687   2.798   2.773   2.419 -0.6838 -0.5086  1.7461
 9575TIP3   OH228688   3.926   5.994   5.187  0.1316  0.6340 -0.1505
 9575TIP3    H128689   3.874   5.935   5.133  1.7790  1.2927 -2.6532
 9575TIP3    H228690   3.874   6.074   5.193 -0.4692  0.2296 -0.0115
 9576TIP3   OH228691   4.305   2.734   1.461 -0.2564 -0.1555 -0.1763
 9576TIP3    H128692   4.349   2.656   1.496  0.4639  0.6094  0.6710
 9576TIP3    H228693   4.212   2.714   1.468 -0.0800 -1.3570 -0.9566
 9577TIP3   OH228694   6.943   0.626   1.448  0.1720 -0.5673  0.1284
 9577TIP3    H128695   7.006   0.685   1.490 -0.3584 -0.0434  0.2012
 9577TIP3    H228696   6.931   0.555   1.512 -1.0996  0.5334  1.1791
 9578TIP3   OH228697   2.672   1.690   5.500 -0.7671 -0.3698 -0.1456
 9578TIP3    H128698   2.670   1.595   5.486  0.6855 -0.6040  0.9946
 9578TIP3    H228699   2.762   1.715   5.483 -0.6030  0.4390  1.6531
 9579TIP3   OH228700   5.923   4.529   2.795  0.2383 -0.4546 -0.2236
 9579TIP3    H128701   5.872   4.595   2.842 -0.3947  0.3061 -1.9015
 9579TIP3    H228702   5.962   4.475   2.864  1.4913  2.1605  1.2961
 9580TIP3   OH228703   4.320   5.506   5.037 -0.0729 -0.7072 -0.4764
 9580TIP3    H128704   4.344   5.433   5.095  3.1939 -0.6199 -1.5180
 9580TIP3    H228705   4.313   5.467   4.950 -2.5112 -0.4138 -0.4760
 9581TIP3   OH228706   3.395   3.082   5.162 -0.4128 -0.1008 -0.5035
 9581TIP3    H128707   3.310   3.125   5.172 -0.4968 -0.6459  1.4272
 9581TIP3    H228708   3.383   3.023   5.088 -1.6382 -0.0039 -0.3999
 9582TIP3   OH228709   4.631   2.068   2.090  0.5459  0.8308  0.1095
 9582TIP3    H128710   4.546   2.032   2.065  0.2133  0.0206  2.1701
 9582TIP3    H228711   4.671   2.095   2.007 -0.3115 -1.8317 -1.2800
 9583TIP3   OH228712   2.499   4.894   0.435 -0.2932  0.5513 -0.2417
 9583TIP3    H128713   2.548   4.890   0.517  1.4117 -0.6631 -1.2598
 9583TIP3    H228714   2.435   4.823   0.442 -0.3762  0.6652  0.1646
 9584TIP3   OH228715   4.936   3.098   4.080 -0.0770 -0.0474  0.0860
 9584TIP3    H128716   4.875   3.038   4.037 -0.5075 -0.1895  0.8944
 9584TIP3    H228717   4.943   3.067   4.170  0.3429  0.6178  0.2949
 9585TIP3   OH228718   5.822   3.028   4.637  0.1544 -0.0647 -0.0438
 9585TIP3    H128719   5.747   3.085   4.619  0.3510  0.3719  0.4903
 9585TIP3    H228720   5.815   2.959   4.572  0.7237  1.3455 -1.6711
 9586TIP3   OH228721   6.128   1.789   2.206  0.5987 -0.2150  0.6332
 9586TIP3    H128722   6.208   1.737   2.218  1.0816  0.4500  0.3562
 9586TIP3    H228723   6.139   1.830   2.120  0.2287  0.3537  0.8555
 9587TIP3   OH228724   4.251   0.708   4.633 -0.4152 -0.5371 -0.2450
 9587TIP3    H128725   4.315   0.723   4.702 -0.2691 -0.7516 -0.3319
 9587TIP3    H228726   4.296   0.651   4.570 -0.0566  0.7563 -1.2248
 9588TIP3   OH228727   4.775   3.133   3.480 -0.0665  0.0528  0.3329
 9588TIP3    H128728   4.774   3.220   3.520  1.1288 -0.3571  1.3271
 9588TIP3    H228729   4.708   3.136   3.412 -0.7627  1.4166  1.0576
 9589TIP3   OH228730   5.662   0.414   2.297  0.0926 -0.0307  0.3330
 9589TIP3    H128731   5.719   0.424   2.222  2.2966 -0.0217  1.9169
 9589TIP3    H228732   5.661   0.319   2.314  1.2579  0.1316  1.4478
 9590TIP3   OH228733   6.966   3.216   2.402 -0.2480  0.8358 -0.3646
 9590TIP3    H128734   7.047   3.265   2.385  0.5618 -0.0551  0.8077
 9590TIP3    H228735   6.946   3.233   2.494 -0.9888  0.4524 -0.4501
 9591TIP3   OH228736   4.513   1.831   5.637 -0.2211  0.4864 -0.1985
 9591TIP3    H128737   4.433   1.826   5.586  0.0640 -0.3656 -0.5793
 9591TIP3    H228738   4.484   1.834   5.728 -0.7265  1.8808 -0.3775
 9592TIP3   OH228739   6.477   4.818   4.614  0.2429  0.5729  0.1521
 9592TIP3    H128740   6.383   4.830   4.627 -0.0444 -0.8875 -0.3344
 9592TIP3    H228741   6.499   4.875   4.540 -0.0609  1.5943  0.8303
 9593TIP3   OH228742   1.537   2.345   1.775 -0.1947  0.4672 -0.0081
 9593TIP3    H128743   1.611   2.390   1.816  0.6979  0.5505 -1.6120
 9593TIP3    H228744   1.570   2.318   1.689 -1.7621 -0.2771 -0.4139
 9594TIP3   OH228745   2.538   0.841   2.080  0.1047 -0.5074 -0.1887
 9594TIP3    H128746   2.477   0.768   2.092  0.2851 -0.7170 -0.5195
 9594TIP3    H228747   2.544   0.882   2.167 -0.9518 -0.1208 -0.2896
 9595TIP3   OH228748   0.959   4.001   4.416  0.5431  0.4192 -0.2841
 9595TIP3    H128749   0.992   4.051   4.491  1.4155  1.4885 -1.3397
 9595TIP3    H228750   1.032   4.001   4.353  0.1196 -1.1512 -0.8212
 9596TIP3   OH228751   5.948   4.619   3.214 -0.0149 -0.3364 -0.5202
 9596TIP3    H128752   5.955   4.524   3.220 -1.5584 -0.4127  0.9629
 9596TIP3    H228753   5.967   4.649   3.303  0.0215  0.7143 -0.8729
 9597TIP3   OH228754   6.781   6.727   4.569 -0.0001 -0.0060  0.2719
 9597TIP3    H128755   6.753   6.818   4.577  0.0497  0.1387 -0.9307
 9597TIP3    H228756   6.738   6.682   4.642  0.1544  1.0072  1.0131
 9598TIP3   OH228757   0.242   6.357   5.733 -0.1353 -0.0844  0.0148
 9598TIP3    H128758   0.204   6.270   5.723  0.7148 -0.3545 -1.0398
 9598TIP3    H228759   0.274   6.379   5.646  1.8239  0.2557  0.7770
 9599TIP3   OH228760   5.290   2.733   5.790 -0.0868 -0.6908  0.2534
 9599TIP3    H128761   5.356   2.800   5.774 -0.1121 -0.6228  0.4307
 9599TIP3    H228762   5.337   2.650   5.781  0.7600 -0.6515  3.3291
 9600TIP3   OH228763   4.969   5.340   3.872 -0.2037  0.0484 -0.3920
 9600TIP3    H128764   5.058   5.332   3.839  0.2605 -2.5453  1.2467
 9600TIP3    H228765   4.978   5.371   3.962 -1.2232  2.9327 -1.1658
 9601TIP3   OH228766   5.247   4.820   4.620 -0.1468 -0.0333  0.2842
 9601TIP3    H128767   5.232   4.765   4.697 -1.8504 -1.1712 -0.7975
 9601TIP3    H228768   5.241   4.759   4.546  0.4305  1.2137 -0.8238
 9602TIP3   OH228769   4.501   5.992   0.116  0.4904  0.0006 -0.3289
 9602TIP3    H128770   4.548   5.909   0.114  1.4426  0.5252 -0.2296
 9602TIP3    H228771   4.482   6.007   0.208 -1.6354 -1.1516 -0.5136
 9603TIP3   OH228772   5.718   3.935   1.540 -0.9292 -0.0043  0.1742
 9603TIP3    H128773   5.638   3.886   1.520 -0.2065 -1.1457 -0.0412
 9603TIP3    H228774   5.766   3.877   1.599  0.6358 -0.2464 -1.2666
 9604TIP3   OH228775   7.143   5.047   4.605 -0.2996  0.6762  0.0423
 9604TIP3    H128776   7.106   4.959   4.619 -2.0246  1.4632  0.7475
 9604TIP3    H228777   7.234   5.040   4.634 -0.2146 -1.0331 -0.5360
 9605TIP3   OH228778   5.078   2.700   2.376 -0.2788 -0.8418 -0.3263
 9605TIP3    H128779   5.061   2.787   2.342 -2.7698 -1.8438 -1.9247
 9605TIP3    H228780   4.995   2.672   2.415  0.6176 -2.2957  0.6630
 9606TIP3   OH228781   6.783   3.520   1.607  0.0926  0.9202 -0.8096
 9606TIP3    H128782   6.726   3.574   1.552  0.0990  1.1465 -0.5976
 9606TIP3    H228783   6.866   3.518   1.560 -0.4361 -0.4743 -1.7752
 9607TIP3   OH228784   6.494   3.278   0.793 -0.1051  0.0728 -0.5180
 9607TIP3    H128785   6.557   3.216   0.829  0.1831 -0.0640 -1.2345
 9607TIP3    H228786   6.504   3.357   0.847 -2.4265 -1.3424  2.2476
 9608TIP3   OH228787   3.366   0.541   2.613 -0.2975  0.0984  0.1174
 9608TIP3    H128788   3.421   0.606   2.568  2.5013 -1.9111  0.3536
 9608TIP3    H228789   3.369   0.568   2.705  1.5240 -0.6893  0.3396
 9609TIP3   OH228790   1.943   3.857   3.592 -0.4595 -0.2901  0.4132
 9609TIP3    H128791   1.909   3.835   3.505 -1.5177  2.3210  0.0699
 9609TIP3    H228792   1.935   3.952   3.597  1.9690 -0.0925  2.4100
 9610TIP3   OH228793   2.923   2.142   4.486 -0.4290 -0.0945  0.0986
 9610TIP3    H128794   2.891   2.160   4.574  0.2011 -1.5829  0.6724
 9610TIP3    H228795   2.886   2.056   4.463 -1.6904  0.8572 -1.6618
 9611TIP3   OH228796   1.944   2.313   4.347  0.3551 -0.4015 -0.1457
 9611TIP3    H128797   1.865   2.312   4.293  0.4041  1.5485 -0.3108
 9611TIP3    H228798   2.012   2.346   4.289  0.3697  1.9107  1.0707
 9612TIP3   OH228799   6.689   4.826   5.886 -0.4821 -0.0394 -0.0929
 9612TIP3    H128800   6.712   4.771   5.811  1.5270  0.6800 -0.0728
 9612TIP3    H228801   6.758   4.893   5.888 -0.7502  0.2346  2.1239
 9613TIP3   OH228802   6.403   5.452   0.198 -0.2274 -0.0881 -0.3250
 9613TIP3    H128803   6.335   5.504   0.240  0.7655  0.4528  0.6540
 9613TIP3    H228804   6.362   5.367   0.182 -0.7540 -0.1778  1.3790
 9614TIP3   OH228805   5.070   2.660   5.916 -0.3090  0.6114  0.2334
 9614TIP3    H128806   5.029   2.589   5.866 -1.3114  1.4917 -0.2325
 9614TIP3    H228807   5.145   2.687   5.863  1.9894 -2.0880  1.8490
 9615TIP3   OH228808   5.215   1.845   4.775 -0.2670 -0.4981 -0.4060
 9615TIP3    H128809   5.262   1.763   4.791 -0.9876 -0.7011  0.7885
 9615TIP3    H228810   5.276   1.914   4.802  0.0865 -0.6643 -0.7726
 9616TIP3   OH228811   6.434   2.096   0.886 -0.3609 -0.0568 -0.2135
 9616TIP3    H128812   6.521   2.077   0.851 -1.2538 -2.8276 -1.1557
 9616TIP3    H228813   6.425   2.191   0.876  2.6468  0.3770  0.2459
 9617TIP3   OH228814   4.689   2.176   1.268  0.2410  0.6573  0.4458
 9617TIP3    H128815   4.647   2.165   1.354 -0.1111 -0.9813  0.0878
 9617TIP3    H228816   4.619   2.204   1.210 -0.3079 -1.5316 -0.0258
 9618TIP3   OH228817   6.259   2.062   1.767  0.8160  0.5845 -0.1032
 9618TIP3    H128818   6.265   2.141   1.821  0.6521  0.5041  0.0309
 9618TIP3    H228819   6.167   2.060   1.739  0.4615 -0.3584  1.0825
 9619TIP3   OH228820   0.797   6.062   5.608  0.4582  0.4668 -0.2448
 9619TIP3    H128821   0.806   6.149   5.648  0.1723  0.6735 -0.6283
 9619TIP3    H228822   0.734   6.017   5.665 -2.1844  1.7256 -1.9970
 9620TIP3   OH228823   0.386   0.429   5.445  0.6798 -0.2345 -0.0002
 9620TIP3    H128824   0.457   0.433   5.509  1.1305 -1.2405 -0.4060
 9620TIP3    H228825   0.384   0.337   5.418 -0.0385  0.0106 -0.8295
 9621TIP3   OH228826   5.443   3.937   3.280 -0.1322  1.0172  0.6862
 9621TIP3    H128827   5.382   3.983   3.339 -0.8955 -0.6203  1.2234
 9621TIP3    H228828   5.388   3.874   3.234  0.9825  0.2558  0.3714
 9622TIP3   OH228829   6.470   6.730   3.593  0.1753  0.0072  0.2241
 9622TIP3    H128830   6.506   6.690   3.514 -0.1745  0.7484 -0.3325
 9622TIP3    H228831   6.385   6.765   3.565 -0.8296 -1.3632  1.4049
 9623TIP3   OH228832   0.620   2.643   5.562 -0.4287 -0.4056 -0.0994
 9623TIP3    H128833   0.687   2.655   5.630  1.2963 -0.1457 -1.7523
 9623TIP3    H228834   0.605   2.549   5.560  1.1801 -0.6863 -0.8132
 9624TIP3   OH228835   4.728   6.235   0.766  0.0186 -0.4076 -0.2015
 9624TIP3    H128836   4.792   6.305   0.756 -0.5790  0.4065  1.4214
 9624TIP3    H228837   4.765   6.161   0.717  2.2518 -0.0102  0.7960
 9625TIP3   OH228838   5.781   4.901   5.043 -0.4739  0.0884 -0.0990
 9625TIP3    H128839   5.802   4.877   5.134  0.7272  0.9564 -0.1231
 9625TIP3    H228840   5.811   4.991   5.035 -0.0804 -0.1560 -1.5199
 9626TIP3   OH228841   3.462   5.427   1.962  0.4045 -0.3763 -0.2017
 9626TIP3    H128842   3.556   5.449   1.964  0.0383  1.3207  1.0129
 9626TIP3    H228843   3.430   5.470   1.883  0.9428 -2.5694 -1.6959
 9627TIP3   OH228844   3.122   2.930   1.133  0.2278 -0.1255 -0.6911
 9627TIP3    H128845   3.097   2.976   1.053  0.3966  1.9248  0.3664
 9627TIP3    H228846   3.215   2.950   1.144  0.0215  0.3372  0.4162
 9628TIP3   OH228847   0.160   2.767   3.823  0.1506  0.2238 -0.1331
 9628TIP3    H128848   0.216   2.844   3.833 -0.4128  0.5948  0.2420
 9628TIP3    H228849   0.146   2.760   3.729  0.9717  0.0195 -0.2460
 9629TIP3   OH228850   5.523   2.399   0.950 -0.6392 -0.3528 -0.2321
 9629TIP3    H128851   5.528   2.311   0.988  2.8377  0.5722  1.8797
 9629TIP3    H228852   5.485   2.453   1.020 -0.8043  0.1922 -0.7368
 9630TIP3   OH228853   5.351   1.856   5.417  0.0771  0.5118  0.1016
 9630TIP3    H128854   5.389   1.851   5.505  1.9240 -1.0659 -0.7124
 9630TIP3    H228855   5.258   1.872   5.432  0.3057  0.0732  2.3452
 9631TIP3   OH228856   2.029   0.584   1.126 -0.3155 -0.0609  0.2333
 9631TIP3    H128857   2.075   0.517   1.075  0.6690 -0.5776  1.7119
 9631TIP3    H228858   2.099   0.629   1.173 -1.1453  0.6903  0.7700
 9632TIP3   OH228859   5.211   2.523   0.390 -0.4273 -0.0078 -0.3774
 9632TIP3    H128860   5.185   2.520   0.482  1.6416  1.6098  0.3376
 9632TIP3    H228861   5.163   2.598   0.354  0.0237  0.3874 -0.1642
 9633TIP3   OH228862   0.715   3.093   4.852 -0.4415 -0.1050 -0.0361
 9633TIP3    H128863   0.736   3.000   4.844 -0.7314 -0.1281 -0.5391
 9633TIP3    H228864   0.794   3.138   4.823 -0.1341 -0.1882  0.6441
 9634TIP3   OH228865   5.868   2.087   0.614 -0.2094 -0.1102  0.0516
 9634TIP3    H128866   5.780   2.091   0.577 -1.0313  0.7055  1.9640
 9634TIP3    H228867   5.854   2.071   0.708  1.7207 -0.9823  0.2387
 9635TIP3   OH228868   5.369   2.429   4.418 -0.2452  0.5374 -0.0505
 9635TIP3    H128869   5.410   2.492   4.358 -0.0305  1.5508  1.1206
 9635TIP3    H228870   5.292   2.475   4.453 -1.0207 -0.4608 -0.3934
 9636TIP3   OH228871   2.181   3.401   1.452 -0.9560 -0.1882  0.3215
 9636TIP3    H128872   2.209   3.340   1.521 -1.2548 -0.2494  0.3908
 9636TIP3    H228873   2.254   3.403   1.391 -1.0403 -0.7983  0.1960
 9637TIP3   OH228874   4.760   3.483   0.058 -0.5162 -0.5530 -0.0963
 9637TIP3    H128875   4.802   3.555   0.106  0.8236 -1.7701  0.6311
 9637TIP3    H228876   4.832   3.439   0.013 -1.3312 -1.3630 -0.6340
 9638TIP3   OH228877   6.252   4.181   0.083  0.1891  0.2502 -0.3045
 9638TIP3    H128878   6.224   4.185   0.174 -1.6217  1.3038 -0.8565
 9638TIP3    H228879   6.325   4.243   0.078 -0.6558  1.3175  0.1475
 9639TIP3   OH228880   6.226   2.275   4.190 -0.2910 -0.3616 -0.0908
 9639TIP3    H128881   6.220   2.358   4.141  0.8554  0.4113  1.0307
 9639TIP3    H228882   6.263   2.213   4.128  0.5507  0.4413 -0.4065
 9640TIP3   OH228883   5.481   5.246   0.434  0.3169  0.1761 -0.2970
 9640TIP3    H128884   5.396   5.243   0.478 -0.2408 -0.0757 -1.3472
 9640TIP3    H228885   5.515   5.333   0.452  0.2232 -0.0049  0.8236
 9641TIP3   OH228886   2.228   3.204   1.642  0.2138  0.0099 -0.5359
 9641TIP3    H128887   2.244   3.235   1.731 -0.0616  0.4072 -0.6224
 9641TIP3    H228888   2.310   3.162   1.617  0.2234 -0.2792 -0.0234
 9642TIP3   OH228889   4.661   2.537   1.799 -0.5005 -0.3396  0.1681
 9642TIP3    H128890   4.584   2.502   1.844  0.3465 -0.6806  1.4066
 9642TIP3    H228891   4.712   2.459   1.775  1.0328 -0.0746  2.2759
 9643TIP3   OH228892   4.889   6.642   2.731 -0.4017  0.6194 -0.4883
 9643TIP3    H128893   4.795   6.650   2.715 -0.2688  2.2901 -0.6152
 9643TIP3    H228894   4.906   6.548   2.728 -2.1461  0.2564  0.0419
 9644TIP3   OH228895   6.381   0.888   5.854  0.1284 -0.3502 -0.1553
 9644TIP3    H128896   6.473   0.912   5.854 -0.0168  0.4882  1.9225
 9644TIP3    H228897   6.347   0.920   5.771  1.4473  0.4098 -0.4251
 9645TIP3   OH228898   2.692   0.570   1.760  0.2628 -0.3785 -0.4889
 9645TIP3    H128899   2.692   0.590   1.854 -0.0287  1.2509 -0.8001
 9645TIP3    H228900   2.717   0.478   1.755  1.9845 -0.0595  1.0898
 9646TIP3   OH228901   2.212   4.802   4.547 -0.0872 -0.3055 -0.5871
 9646TIP3    H128902   2.231   4.771   4.458  1.0603 -0.0421 -0.4491
 9646TIP3    H228903   2.207   4.897   4.539  1.7890 -0.1235 -0.0985
 9647TIP3   OH228904   2.267   3.802   4.742  0.5160  0.4392 -0.4331
 9647TIP3    H128905   2.339   3.834   4.795  0.1665  1.2837 -0.4514
 9647TIP3    H228906   2.223   3.881   4.710 -0.2089 -0.0566 -0.7043
 9648TIP3   OH228907   2.509   5.101   5.172 -0.3829 -0.3194 -0.0229
 9648TIP3    H128908   2.544   5.065   5.253  1.5447  0.4595 -0.4728
 9648TIP3    H228909   2.523   5.195   5.179  1.9230 -0.4017 -2.1557
 9649TIP3   OH228910   6.516   5.451   4.887  0.3932  0.2953 -0.0180
 9649TIP3    H128911   6.494   5.358   4.881  2.0095 -0.1626  0.5429
 9649TIP3    H228912   6.493   5.476   4.976  2.9774 -0.4994  0.9902
 9650TIP3   OH228913   1.248   5.024   0.663 -0.1827  0.2518 -0.6490
 9650TIP3    H128914   1.285   5.043   0.577 -1.4595  1.9968 -0.8593
 9650TIP3    H228915   1.200   4.942   0.650  1.1761 -0.5006 -1.0880
 9651TIP3   OH228916   6.719   4.736   5.306 -0.0787  0.6498  0.6120
 9651TIP3    H128917   6.646   4.768   5.252  0.2646 -1.8266 -1.5061
 9651TIP3    H228918   6.759   4.815   5.341 -1.9390  2.2455 -0.6376
 9652TIP3   OH228919   1.636   4.286   4.764  0.3011  0.0784  0.5369
 9652TIP3    H128920   1.576   4.228   4.811  0.7974 -0.7361  0.1811
 9652TIP3    H228921   1.716   4.287   4.817  0.5185 -0.0736  0.2167
 9653TIP3   OH228922   2.755   1.726   5.771  0.0951 -0.0163  0.2608
 9653TIP3    H128923   2.685   1.731   5.706  0.1311 -1.9650  0.0107
 9653TIP3    H228924   2.757   1.633   5.797  3.1859 -0.2302 -0.4137
 9654TIP3   OH228925   6.984   6.332   3.905 -0.0785 -0.2634  0.3464
 9654TIP3    H128926   6.923   6.262   3.883 -1.0811  0.2491  1.4244
 9654TIP3    H228927   6.938   6.413   3.880  2.1744  0.0329 -3.6832
 9655TIP3   OH228928   1.674   0.173   1.907  0.2214  0.2064 -0.3029
 9655TIP3    H128929   1.761   0.200   1.936  0.4634 -0.7715 -0.0776
 9655TIP3    H228930   1.675   0.077   1.915 -1.3290  0.2540  0.9915
 9656TIP3   OH228931   4.437   0.993   1.222 -0.3398  0.3837 -0.0534
 9656TIP3    H128932   4.530   0.998   1.242 -0.5005  1.3301  0.5350
 9656TIP3    H228933   4.399   0.941   1.293 -0.1278 -0.8463 -0.8210
 9657TIP3   OH228934   3.721   3.725   0.175 -0.5464 -0.2508 -0.4622
 9657TIP3    H128935   3.723   3.797   0.238 -2.7493 -1.1904  0.7843
 9657TIP3    H228936   3.813   3.708   0.156  0.0966  1.5262  0.7938
 9658TIP3   OH228937   6.783   1.417   5.341 -0.3737 -0.0014 -0.1261
 9658TIP3    H128938   6.760   1.499   5.298  3.0804  2.1115  1.6230
 9658TIP3    H228939   6.875   1.403   5.319 -0.0267 -1.7687  2.0540
 9659TIP3   OH228940   5.218   4.601   2.900 -0.7664 -0.2675 -0.5227
 9659TIP3    H128941   5.147   4.568   2.845 -0.9685 -0.4473 -0.1584
 9659TIP3    H228942   5.178   4.614   2.985 -1.0533  2.2302 -0.9585
 9660TIP3   OH228943   3.971   1.372   0.626  0.0099 -0.0661  0.0489
 9660TIP3    H128944   3.890   1.326   0.601 -0.4518 -0.3051  1.8329
 9660TIP3    H228945   4.040   1.307   0.614 -0.1515 -0.1064 -0.7381
 9661TIP3   OH228946   2.629   3.422   4.224 -0.1591  0.0632 -0.1124
 9661TIP3    H128947   2.680   3.502   4.237  0.4270 -0.2072 -0.6636
 9661TIP3    H228948   2.543   3.452   4.194  0.0508  0.4916 -0.2833
 9662TIP3   OH228949   0.694   5.397   3.844 -0.6196  0.0496  0.2817
 9662TIP3    H128950   0.741   5.456   3.786  1.2819  0.3087  1.9827
 9662TIP3    H228951   0.645   5.456   3.903 -4.0856 -0.1995 -2.0647
 9663TIP3   OH228952   4.840   4.966   5.555 -0.3279 -0.5743 -0.4777
 9663TIP3    H128953   4.772   4.969   5.488  0.4120  0.1618 -1.2179
 9663TIP3    H228954   4.830   4.880   5.595  0.5726 -1.9626 -3.0116
 9664TIP3   OH228955   1.504   3.508   0.651  0.8796  0.0867 -0.7960
 9664TIP3    H128956   1.564   3.580   0.672  1.5594 -0.9582  0.9954
 9664TIP3    H228957   1.558   3.445   0.603  0.6882  0.0127 -0.9165
 9665TIP3   OH228958   2.444   5.006   0.793 -0.2077 -0.6956  0.7587
 9665TIP3    H128959   2.362   5.055   0.806 -0.4416 -0.9640  0.3283
 9665TIP3    H228960   2.509   5.055   0.843 -0.0619  1.0930 -1.0369
 9666TIP3   OH228961   3.782   2.958   4.882 -0.0218 -0.4748  0.0222
 9666TIP3    H128962   3.748   2.877   4.844  2.2116 -1.8268  0.6982
 9666TIP3    H228963   3.798   2.937   4.974  2.2772  0.1214 -0.1867
 9667TIP3   OH228964   4.620   4.822   2.228 -0.1242 -0.4572 -0.2057
 9667TIP3    H128965   4.629   4.913   2.198  0.6772 -0.0667  1.1227
 9667TIP3    H228966   4.560   4.827   2.302  0.7210 -0.8273  0.5299
 9668TIP3   OH228967   0.348   1.490   2.916  0.7069  0.0064 -0.0324
 9668TIP3    H128968   0.419   1.513   2.976  1.0023 -0.6452 -0.1355
 9668TIP3    H228969   0.381   1.416   2.865  0.1506  0.0311 -0.4421
 9669TIP3   OH228970   6.119   4.281   2.495 -0.4446  0.5837  0.5511
 9669TIP3    H128971   6.140   4.192   2.524  0.3553  0.1496 -1.1866
 9669TIP3    H228972   6.025   4.280   2.478 -0.6639  0.4516  1.7378
 9670TIP3   OH228973   4.475   6.240   5.888 -0.0022  0.0903  0.3234
 9670TIP3    H128974   4.414   6.227   5.961  1.8232 -2.5472  1.5388
 9670TIP3    H228975   4.419   6.251   5.812 -2.0147 -1.0361  1.5415
 9671TIP3   OH228976   1.733   2.903   5.237 -0.4406  0.0467 -1.1346
 9671TIP3    H128977   1.696   2.873   5.320  1.8292 -0.1123 -0.0983
 9671TIP3    H228978   1.674   2.867   5.170 -0.8948 -2.0999  0.3011
 9672TIP3   OH228979   1.735   2.034   1.328  0.4642 -0.2935  0.0033
 9672TIP3    H128980   1.767   1.986   1.252  0.2490 -1.3520  0.5505
 9672TIP3    H228981   1.644   2.054   1.308  1.1311  1.9301 -1.1744
 9673TIP3   OH228982   4.248   0.828   3.802 -0.0848 -0.4239 -0.3868
 9673TIP3    H128983   4.320   0.773   3.831  0.1530 -0.2521 -0.6396
 9673TIP3    H228984   4.180   0.818   3.869  0.1948 -0.5450 -0.1227
 9674TIP3   OH228985   0.293   0.842   5.235  0.1065 -0.0300 -0.1468
 9674TIP3    H128986   0.233   0.867   5.304  0.0905 -0.8624  0.1432
 9674TIP3    H228987   0.283   0.747   5.226 -0.4933  0.1483 -1.8520
 9675TIP3   OH228988   7.026   6.295   5.629  0.4036  0.0555  0.7423
 9675TIP3    H128989   7.023   6.350   5.707  0.1917  0.6377  0.3354
 9675TIP3    H228990   7.065   6.351   5.562 -1.0003  0.1486 -0.0207
 9676TIP3   OH228991   1.427   5.876   3.724  0.0709  0.2111 -0.6842
 9676TIP3    H128992   1.333   5.866   3.710  0.0025  1.1083 -0.9363
 9676TIP3    H228993   1.467   5.807   3.669 -0.4451 -0.6112 -0.0536
 9677TIP3   OH228994   2.293   5.951   0.488  0.0676 -0.1406 -0.0723
 9677TIP3    H128995   2.314   6.041   0.509 -3.3626  1.5059 -2.7109
 9677TIP3    H228996   2.360   5.924   0.426  1.0657  0.5781  0.6653
 9678TIP3   OH228997   5.971   4.054   4.811  0.2645  0.1012  0.0652
 9678TIP3    H128998   6.039   3.993   4.837  0.5390  0.7716  0.9845
 9678TIP3    H228999   6.017   4.120   4.758 -0.0666 -0.5746 -1.0998
 9679TIP3   OH229000   2.496   3.710   3.956  0.2196  0.3236  0.5901
 9679TIP3    H129001   2.514   3.659   3.877 -1.7846  0.1254  0.2060
 9679TIP3    H229002   2.483   3.644   4.024  0.4726  0.4347  0.7460
 9680TIP3   OH229003   0.947   3.270   3.639 -0.2864 -0.4370 -0.0964
 9680TIP3    H129004   0.875   3.219   3.603 -0.8206 -0.2239  0.6447
 9680TIP3    H229005   0.906   3.352   3.668  0.3850  0.0020 -0.3701
 9681TIP3   OH229006   5.144   5.344   0.992 -0.5191  0.5109  0.2892
 9681TIP3    H129007   5.056   5.371   1.019 -0.4572  0.9639  0.0321
 9681TIP3    H229008   5.197   5.350   1.072 -1.0793 -1.3616  0.8579
 9682TIP3   OH229009   0.208   3.033   3.267 -0.2119  0.7164 -0.1587
 9682TIP3    H129010   0.161   2.970   3.322 -1.3575  1.8437  0.1919
 9682TIP3    H229011   0.140   3.087   3.228  0.6903  1.0736 -1.2985
 9683TIP3   OH229012   4.076   4.516   5.058 -0.0206 -0.0246 -0.2361
 9683TIP3    H129013   4.051   4.461   4.983 -0.4591 -0.4286  0.1995
 9683TIP3    H229014   4.015   4.590   5.054  0.6563  0.5222 -0.9011
 9684TIP3   OH229015   1.749   4.737   3.203 -0.2446  0.3046 -0.4604
 9684TIP3    H129016   1.657   4.723   3.227 -0.4316 -0.2347 -1.4162
 9684TIP3    H229017   1.799   4.709   3.280 -0.9078  2.3345  0.7960
 9685TIP3   OH229018   5.321   4.647   3.906 -0.8443  0.7935  0.2611
 9685TIP3    H129019   5.413   4.630   3.928 -0.9470  0.4632  0.4389
 9685TIP3    H229020   5.272   4.589   3.964 -1.2846  2.9366  2.1639
 9686TIP3   OH229021   4.581   6.184   3.782  0.1295  0.2412 -0.0220
 9686TIP3    H129022   4.573   6.279   3.790  0.9695  0.4199 -1.1430
 9686TIP3    H229023   4.663   6.170   3.735 -1.3646 -0.8969 -2.5221
 9687TIP3   OH229024   4.006   3.999   3.036 -0.2341  0.0466  0.2913
 9687TIP3    H129025   3.921   4.000   2.991  0.3799  0.3890 -0.8979
 9687TIP3    H229026   3.997   4.064   3.105 -0.7147  0.6067 -0.2828
 9688TIP3   OH229027   4.774   3.733   0.411  0.6244 -0.5058 -0.7866
 9688TIP3    H129028   4.681   3.709   0.409  0.5660 -0.3698 -0.1720
 9688TIP3    H229029   4.784   3.780   0.494  1.3374 -0.9076 -0.6378
 9689TIP3   OH229030   1.669   1.540   2.917 -0.3850 -0.1891 -0.1918
 9689TIP3    H129031   1.710   1.563   3.000  0.2765 -2.2188  0.0883
 9689TIP3    H229032   1.712   1.459   2.890 -2.3371 -0.9505 -1.2347
 9690TIP3   OH229033   4.820   3.307   2.882 -0.3323  0.3662  0.4917
 9690TIP3    H129034   4.818   3.213   2.865 -0.6390  0.3043  0.8617
 9690TIP3    H229035   4.865   3.344   2.806 -0.2103 -0.0779  0.3438
 9691TIP3   OH229036   1.918   1.172   4.959 -0.0089 -0.0102  0.6940
 9691TIP3    H129037   1.886   1.182   4.869 -2.4179 -1.3217  1.3295
 9691TIP3    H229038   1.901   1.258   4.999  0.0158  0.2177  0.2302
 9692TIP3   OH229039   2.643   5.398   0.146  0.0905  0.2068 -0.1036
 9692TIP3    H129040   2.615   5.353   0.226  1.0106 -1.1851 -0.5332
 9692TIP3    H229041   2.574   5.381   0.083  0.0782  0.0378 -0.0449
 9693TIP3   OH229042   6.075   2.320   2.709  0.1799 -0.4062  0.1894
 9693TIP3    H129043   6.126   2.245   2.677 -1.1467 -1.4195  0.3488
 9693TIP3    H229044   6.067   2.304   2.803  0.4444  0.3038  0.3385
 9694TIP3   OH229045   7.038   4.802   4.731  0.4690  0.3551 -0.3933
 9694TIP3    H129046   6.978   4.727   4.722 -0.5101  1.2163 -1.2986
 9694TIP3    H229047   6.983   4.871   4.768  1.6874  0.2662  1.7080
 9695TIP3   OH229048   5.982   5.817   4.443  0.1341 -0.0100 -0.1231
 9695TIP3    H129049   6.021   5.739   4.482  0.2693  0.5989  1.0205
 9695TIP3    H229050   6.028   5.890   4.485 -0.3262  0.6858 -0.8060
 9696TIP3   OH229051   0.351   2.022   3.482 -0.5174 -0.1622 -0.2431
 9696TIP3    H129052   0.295   1.991   3.412 -1.3147  0.9183 -0.1082
 9696TIP3    H229053   0.438   2.027   3.443 -0.7039 -0.8548 -0.7558
 9697TIP3   OH229054   3.473   4.988   0.377  0.0761  0.4086  0.6004
 9697TIP3    H129055   3.521   5.016   0.299  2.0299  1.1630  1.9756
 9697TIP3    H229056   3.445   4.899   0.357  1.7483  0.0664 -0.4486
 9698TIP3   OH229057   0.529   0.332   1.479  0.0059  0.0247 -0.1618
 9698TIP3    H129058   0.603   0.349   1.537  0.4746  1.5665 -1.1333
 9698TIP3    H229059   0.461   0.393   1.507  0.0801  0.4742 -0.9240
 9699TIP3   OH229060   6.781   0.739   5.181 -0.6563 -0.3306  0.2301
 9699TIP3    H129061   6.758   0.656   5.222 -0.4137  0.0608  1.1935
 9699TIP3    H229062   6.857   0.770   5.231 -0.5921  0.3469 -0.2760
 9700TIP3   OH229063   1.410   0.611   1.391  0.0121 -0.3142 -0.2982
 9700TIP3    H129064   1.426   0.592   1.483  0.0248 -0.4183 -0.3217
 9700TIP3    H229065   1.496   0.605   1.349  0.2589  1.2009 -0.0649
 9701TIP3   OH229066   1.619   3.119   2.570 -0.2901  0.0681 -0.0827
 9701TIP3    H129067   1.615   3.025   2.551  0.8300  0.0142 -0.0944
 9701TIP3    H229068   1.535   3.153   2.540 -0.6843 -0.9156 -0.1428
 9702TIP3   OH229069   5.951   1.612   1.365 -0.3686 -0.2131  0.4253
 9702TIP3    H129070   6.036   1.608   1.409 -0.0141  1.1300 -0.0847
 9702TIP3    H229071   5.931   1.705   1.360 -0.5819 -0.3190 -1.8545
 9703TIP3   OH229072   3.659   3.437   3.739  0.0968  0.0319  0.2485
 9703TIP3    H129073   3.654   3.478   3.826  2.7676  1.0958 -0.0128
 9703TIP3    H229074   3.701   3.352   3.756  2.8235  1.2102 -0.1812
 9704TIP3   OH229075   4.370   0.664   0.643 -0.7419  0.4853  0.0524
 9704TIP3    H129076   4.314   0.707   0.578  1.5959  0.2412 -2.2875
 9704TIP3    H229077   4.436   0.730   0.665  0.2288 -0.3836 -0.1462
 9705TIP3   OH229078   6.902   1.307   1.965  0.5235 -0.0161  0.1480
 9705TIP3    H129079   6.921   1.397   1.939  1.6216 -0.3054 -0.1003
 9705TIP3    H229080   6.829   1.281   1.910  0.0488  0.7892  0.3721
 9706TIP3   OH229081   1.691   3.486   2.526 -0.3824  0.2068 -0.2906
 9706TIP3    H129082   1.694   3.439   2.442  0.2225  0.1402 -0.2324
 9706TIP3    H229083   1.775   3.532   2.531  0.1720 -0.8702  0.9026
 9707TIP3   OH229084   6.291   1.230   5.056 -0.0024  0.2080 -0.2010
 9707TIP3    H129085   6.262   1.221   5.147 -1.2541 -0.4020 -0.6264
 9707TIP3    H229086   6.332   1.146   5.035  3.3505  1.4548  0.7512
 9708TIP3   OH229087   5.408   2.708   5.441 -0.2057 -0.3427 -0.2665
 9708TIP3    H129088   5.412   2.771   5.513 -0.9222  1.4134 -1.6902
 9708TIP3    H229089   5.497   2.708   5.404 -0.1767 -0.2365 -0.1967
 9709TIP3   OH229090  -0.008   6.130   0.101 -0.1782  0.2610  0.2268
 9709TIP3    H129091  -0.040   6.049   0.141 -0.2366 -0.5656 -1.4108
 9709TIP3    H229092   0.087   6.118   0.097 -0.1009  0.6619  0.7649
 9710TIP3   OH229093   2.879   6.579   0.199 -0.0744 -0.1041  0.1712
 9710TIP3    H129094   2.922   6.635   0.264  1.4129 -1.0662  0.0569
 9710TIP3    H229095   2.878   6.632   0.119  3.0938 -0.8589 -0.4693
 9711TIP3   OH229096   5.319   0.329   0.680 -0.6129 -0.1898 -0.4573
 9711TIP3    H129097   5.401   0.290   0.710 -1.3452 -2.1473 -0.8362
 9711TIP3    H229098   5.263   0.254   0.661 -2.3370  1.0957 -0.6533
 9712TIP3   OH229099   6.242   1.357   0.395 -0.6744  0.0117  0.4131
 9712TIP3    H129100   6.185   1.280   0.393 -1.5263  0.6414 -0.0726
 9712TIP3    H229101   6.234   1.390   0.484 -1.4806  0.3847  0.2152
 9713TIP3   OH229102   6.661   0.932   0.936 -0.0046 -0.2954  0.2444
 9713TIP3    H129103   6.734   0.981   0.897 -0.1384 -1.1291 -1.1263
 9713TIP3    H229104   6.703   0.865   0.990  0.1807  1.1544  1.9715
 9714TIP3   OH229105   3.740   3.509   1.723 -0.0860  0.2320  0.3991
 9714TIP3    H129106   3.666   3.498   1.783 -0.2701 -0.7563  0.0193
 9714TIP3    H229107   3.752   3.422   1.684  0.4895  0.6769 -0.4538
 9715TIP3   OH229108   6.545   2.943   2.485  0.1796 -0.0487 -0.1323
 9715TIP3    H129109   6.597   3.014   2.447  2.9243 -1.7973  0.0993
 9715TIP3    H229110   6.603   2.867   2.484 -2.1935 -2.0101  0.8040
 9716TIP3   OH229111   2.163   6.634   3.430 -0.2235 -0.3977  0.2171
 9716TIP3    H129112   2.238   6.629   3.371 -0.9601  1.1369 -0.9417
 9716TIP3    H229113   2.101   6.569   3.396 -0.0125 -0.6282  0.2719
 9717TIP3   OH229114   2.130   1.979   5.223  0.0410 -0.2533 -0.0858
 9717TIP3    H129115   2.095   1.957   5.309 -0.6912  0.6618 -0.1294
 9717TIP3    H229116   2.163   1.897   5.188  0.6644 -0.5650  1.2087
 9718TIP3   OH229117   4.231   1.130   2.547 -0.5027  0.4958 -0.2211
 9718TIP3    H129118   4.175   1.128   2.625  0.0825  2.2637  0.2773
 9718TIP3    H229119   4.281   1.049   2.552 -1.1211  0.1533  0.7484
 9719TIP3   OH229120   0.341   6.583   4.780  0.7854 -0.2806  0.0274
 9719TIP3    H129121   0.421   6.635   4.786  1.2709 -1.1305  1.5729
 9719TIP3    H229122   0.283   6.619   4.847  0.4615 -0.6234 -0.0667
 9720TIP3   OH229123   3.799   4.644   5.492  0.3003 -0.0367 -0.2138
 9720TIP3    H129124   3.758   4.639   5.406  0.0327  0.1305 -0.0940
 9720TIP3    H229125   3.792   4.736   5.518  2.4420  0.4152 -1.0262
 9721TIP3   OH229126   5.720   5.085   0.026 -0.1747 -0.2401  0.5233
 9721TIP3    H129127   5.735   5.005  -0.025 -1.0792 -1.1746  1.6430
 9721TIP3    H229128   5.625   5.095   0.027 -0.0454  1.2717 -0.1737
 9722TIP3   OH229129   2.625   3.873   2.085 -0.0830 -0.2509 -0.2914
 9722TIP3    H129130   2.630   3.845   1.994 -1.7676 -0.3019 -0.4042
 9722TIP3    H229131   2.532   3.894   2.099  0.2086  0.1543  1.2928
 9723TIP3   OH229132   2.358   5.720   1.798 -0.3074 -0.3972  0.0908
 9723TIP3    H129133   2.354   5.779   1.723 -2.5784 -1.2702 -0.5711
 9723TIP3    H229134   2.393   5.638   1.762 -1.7501 -0.9353 -0.1590
 9724TIP3   OH229135   0.308   4.642   0.877  0.3131 -0.2253  0.0920
 9724TIP3    H129136   0.232   4.675   0.827 -0.2928  2.1128  2.3199
 9724TIP3    H229137   0.328   4.558   0.837 -1.5803  0.4209 -2.5146
 9725TIP3   OH229138   6.716   0.479   2.252 -0.2663 -0.8570  1.0933
 9725TIP3    H129139   6.800   0.514   2.280  1.0888 -2.8395 -0.1736
 9725TIP3    H229140   6.667   0.555   2.220  1.9497  0.0933 -0.2423
 9726TIP3   OH229141   2.143   1.731   4.340  0.3691  0.5132 -0.3461
 9726TIP3    H129142   2.055   1.770   4.337  0.2227  0.1481 -1.2204
 9726TIP3    H229143   2.189   1.771   4.266  1.8890  2.8181  1.6872
 9727TIP3   OH229144   2.298   6.513   3.953 -0.3728 -0.1041  0.0206
 9727TIP3    H129145   2.221   6.550   3.998 -1.7090 -0.6225 -1.7578
 9727TIP3    H229146   2.292   6.546   3.864  1.6017 -0.0231 -0.1302
 9728TIP3   OH229147   3.379   1.432   0.401 -0.5650 -0.6419  0.0383
 9728TIP3    H129148   3.459   1.482   0.418 -2.0211  1.8003  0.2221
 9728TIP3    H229149   3.330   1.436   0.483 -1.0641 -1.7646 -0.1900
 9729TIP3   OH229150   2.324   6.223   0.527 -0.3225  0.3578  0.3049
 9729TIP3    H129151   2.368   6.264   0.453  1.0070 -0.2400  0.7325
 9729TIP3    H229152   2.231   6.226   0.505  0.0276  0.4445 -1.2566
 9730TIP3   OH229153   6.739   5.016   2.013 -0.3583  0.3166  0.6253
 9730TIP3    H129154   6.821   5.059   1.990 -0.7768  2.0013  2.0782
 9730TIP3    H229155   6.673   5.085   2.008 -2.0746 -1.3369 -2.1594
 9731TIP3   OH229156   1.219   3.578   3.390 -0.4757  0.1455  0.5623
 9731TIP3    H129157   1.124   3.582   3.401 -0.5203 -0.4427  0.4104
 9731TIP3    H229158   1.250   3.533   3.468 -0.1930  1.3724  1.1951
 9732TIP3   OH229159   5.598   3.748   3.420 -0.1566 -0.3279 -0.0424
 9732TIP3    H129160   5.565   3.824   3.373  0.4590  0.0391  0.1101
 9732TIP3    H229161   5.524   3.686   3.421 -0.3627 -0.1064 -0.9651
 9733TIP3   OH229162   7.133   3.723   3.632  0.2786  0.1618  0.4086
 9733TIP3    H129163   7.169   3.811   3.621  1.8061 -0.4598  0.2033
 9733TIP3    H229164   7.042   3.737   3.656  0.4586  1.7956  0.2191
 9734TIP3   OH229165   7.182   5.591   5.174 -0.2952  0.0564  0.4657
 9734TIP3    H129166   7.200   5.525   5.106 -2.4383 -0.6068  0.4663
 9734TIP3    H229167   7.202   5.546   5.256  2.1724  0.8159  0.3676
 9735TIP3   OH229168   2.231   6.062   3.091  0.0667 -0.1658  0.6539
 9735TIP3    H129169   2.152   6.023   3.055 -0.3315 -0.9555  2.2739
 9735TIP3    H229170   2.201   6.109   3.169  0.9358  1.1195  0.2339
 9736TIP3   OH229171   1.700   4.827   2.647  0.0050  0.2092  0.2263
 9736TIP3    H129172   1.776   4.873   2.683 -0.0444 -0.8367  1.7487
 9736TIP3    H229173   1.626   4.884   2.667  0.2511  0.7719 -0.4057
 9737TIP3   OH229174   1.152   5.642   4.515  0.3315 -0.2962  0.1233
 9737TIP3    H129175   1.125   5.712   4.575  1.4641 -0.7492  1.1846
 9737TIP3    H229176   1.089   5.648   4.442 -0.6898  0.6608  1.0441
 9738TIP3   OH229177   1.113   3.748   5.825 -0.0834 -0.4654 -0.6417
 9738TIP3    H129178   1.135   3.667   5.780 -0.6167 -0.8274 -0.2637
 9738TIP3    H229179   1.023   3.735   5.855  0.0381  0.0224 -0.0436
 9739TIP3   OH229180   0.150   1.205   3.462 -0.6213  0.1770 -0.4553
 9739TIP3    H129181   0.066   1.251   3.453 -0.3285  1.0214  0.8310
 9739TIP3    H229182   0.126   1.115   3.485 -1.2046 -0.3853 -2.9935
 9740TIP3   OH229183   1.939   4.402   4.949 -0.2963 -0.1765 -0.1661
 9740TIP3    H129184   1.884   4.324   4.960 -1.6883  0.7034 -0.5925
 9740TIP3    H229185   2.013   4.387   5.007 -0.8744 -1.5227  0.2686
 9741TIP3   OH229186   4.675   6.448   5.538 -0.3351 -0.0623  0.3189
 9741TIP3    H129187   4.588   6.458   5.500  0.8741  2.0113 -2.3311
 9741TIP3    H229188   4.707   6.365   5.504 -0.3942  0.3846 -0.9073
 9742TIP3   OH229189   7.194   5.222   0.004 -0.1461 -0.2050 -0.1115
 9742TIP3    H129190   7.235   5.209   0.090  1.1505  0.0158 -0.6726
 9742TIP3    H229191   7.148   5.305   0.012 -0.4443 -0.4238  0.5182
 9743TIP3   OH229192   5.529   0.315   5.230  0.0003 -0.2024  0.3798
 9743TIP3    H129193   5.508   0.338   5.140 -0.5075 -1.8914  0.0395
 9743TIP3    H229194   5.449   0.334   5.279 -0.0624 -0.2648  0.2998
 9744TIP3   OH229195   2.398   0.612   5.299  0.4702 -0.5859  0.4870
 9744TIP3    H129196   2.479   0.591   5.252  0.3183 -2.8401  1.1216
 9744TIP3    H229197   2.428   0.655   5.379  0.8443  1.1028 -0.4995
 9745TIP3   OH229198   3.767   4.192   2.813  0.5379  0.0464 -0.0503
 9745TIP3    H129199   3.788   4.207   2.905  1.5276  2.3017 -0.5700
 9745TIP3    H229200   3.688   4.243   2.797 -0.3774 -1.3500 -0.2090
 9746TIP3   OH229201   5.531   0.484   1.621  0.2704 -0.6333  0.3409
 9746TIP3    H129202   5.473   0.549   1.581 -0.8577 -1.9186 -0.1854
 9746TIP3    H229203   5.549   0.519   1.708 -0.2679  0.4025  0.0533
 9747TIP3   OH229204   5.132   6.281   4.896  0.4592 -0.1799 -0.6339
 9747TIP3    H129205   5.121   6.244   4.984  0.5573 -0.7781 -0.8625
 9747TIP3    H229206   5.044   6.279   4.858 -0.3966  3.6815  0.7749
 9748TIP3   OH229207   4.823   5.951   0.284 -0.6997 -0.0404  0.1903
 9748TIP3    H129208   4.870   5.998   0.216  1.8454 -1.7709  0.6203
 9748TIP3    H229209   4.760   5.897   0.237  0.3877 -0.5273 -0.7469
 9749TIP3   OH229210   1.207   0.831   3.973  0.0931 -0.2210 -0.1385
 9749TIP3    H129211   1.249   0.900   3.922 -0.3444 -0.0231 -0.2356
 9749TIP3    H229212   1.271   0.808   4.040  0.4594 -0.1085 -0.4495
   7.21412   6.80154   5.89030   0.00000   0.00000  -2.40471   0.00000  -2.40471  -3.40076
