Title
19942
    1ASP      N    1   2.092   0.927   4.994  0.6870  0.6412  0.7980
    1ASP    HT1    2   2.178   0.873   4.974 -0.1887 -1.1321  1.5862
    1ASP    HT2    3   2.038   0.945   4.907  1.8534 -1.6585 -0.4969
    1ASP    HT3    4   2.025   0.873   5.053  0.2241  0.5272  0.1832
    1ASP     CA    5   2.124   1.056   5.064  0.1267  0.7552 -0.5805
    1ASP     HA    6   2.031   1.107   5.080  0.1850  1.3587 -2.0010
    1ASP     CB    7   2.180   1.022   5.204 -0.2264  0.3147  0.2473
    1ASP    HB1    8   2.209   1.118   5.252  0.1607 -0.6939  2.1277
    1ASP    HB2    9   2.271   0.959   5.195  0.6093  1.5444 -0.2008
    1ASP     CG   10   2.083   0.947   5.293 -0.0437  0.0759 -0.2347
    1ASP    OD1   11   1.963   0.925   5.253 -0.0466  0.2885  0.1917
    1ASP    OD2   12   2.113   0.905   5.405  0.0012 -0.4673  0.3357
    1ASP      C   13   2.212   1.142   4.984  0.1214 -1.2748  0.0062
    1ASP      O   14   2.276   1.100   4.888 -0.4461  0.9967  0.1792
    2ALA      N   15   2.227   1.272   5.013  0.6359 -0.2055  0.5123
    2ALA     HN   16   2.179   1.310   5.092  0.1146  0.2405 -0.0136
    2ALA     CA   17   2.317   1.362   4.942  0.1628  0.0016  0.2130
    2ALA     HA   18   2.315   1.337   4.837  0.2653 -0.4980  0.3256
    2ALA     CB   19   2.279   1.514   4.953  0.0058  0.3666  0.6327
    2ALA    HB1   20   2.172   1.535   4.931 -0.0734 -0.5196  0.1427
    2ALA    HB2   21   2.335   1.571   4.876  1.4063 -2.8890 -0.9516
    2ALA    HB3   22   2.311   1.546   5.054 -0.0804 -0.7792  1.0406
    2ALA      C   23   2.465   1.341   4.985  0.1055 -0.1300  0.9544
    2ALA      O   24   2.493   1.326   5.101 -0.6936  0.2771  0.0285
    3ASP      N   25   2.559   1.342   4.887 -0.1686 -0.2804  0.4562
    3ASP     HN   26   2.533   1.345   4.790 -0.2268 -0.9165  0.4459
    3ASP     CA   27   2.699   1.346   4.910 -0.0955 -0.0675 -0.2385
    3ASP     HA   28   2.720   1.408   4.996 -1.4930  0.6429 -0.3935
    3ASP     CB   29   2.745   1.200   4.943 -0.4075  0.1877 -0.3320
    3ASP    HB1   30   2.695   1.180   5.041 -0.0573 -1.0936 -0.3976
    3ASP    HB2   31   2.856   1.200   4.946 -0.3410 -1.1301 -1.7719
    3ASP     CG   32   2.702   1.088   4.849 -0.0971  0.0206 -0.6545
    3ASP    OD1   33   2.725   1.095   4.727  0.5633  0.1201 -0.5503
    3ASP    OD2   34   2.652   0.983   4.900 -0.2727  0.2621 -0.1315
    3ASP      C   35   2.782   1.398   4.789 -0.5422 -0.0146 -0.3455
    3ASP      O   36   2.734   1.408   4.673 -0.1409 -0.5170 -0.1400
    4GLY      N   37   2.904   1.446   4.824  0.3930  0.3094 -0.4725
    4GLY     HN   38   2.935   1.425   4.916 -0.1017 -0.9543 -0.5747
    4GLY     CA   39   2.984   1.521   4.729 -0.0024 -0.4487  0.3606
    4GLY    HA1   40   2.990   1.461   4.640 -0.7388  2.1711 -1.5873
    4GLY    HA2   41   3.082   1.552   4.764  0.6249 -1.2118 -0.6506
    4GLY      C   42   2.936   1.661   4.681  0.7361 -0.1856 -0.8574
    4GLY      O   43   2.863   1.728   4.755 -0.2598 -0.1634 -0.5391
    5PRO      N   44   2.981   1.703   4.559 -0.8763  0.0899 -0.4244
    5PRO     CD   45   3.081   1.631   4.474 -0.2472  0.5888 -0.4499
    5PRO    HD1   46   3.053   1.524   4.459 -1.2212  0.7070  0.4343
    5PRO    HD2   47   3.182   1.634   4.520 -0.0872  1.1209 -0.8339
    5PRO     CA   48   2.955   1.837   4.512 -0.0706  0.4911  0.0026
    5PRO     HA   49   2.977   1.904   4.594  0.5151  1.1193 -0.6511
    5PRO     CB   50   3.055   1.851   4.389  0.5048 -0.2877 -0.4048
    5PRO    HB1   51   3.151   1.893   4.426  1.2535 -0.9465 -1.5364
    5PRO    HB2   52   3.016   1.914   4.307  0.1063  0.5334  0.3983
    5PRO     CG   53   3.082   1.710   4.342 -0.6603 -0.7265  1.0653
    5PRO    HG1   54   2.996   1.672   4.283  1.0067 -0.8148 -1.4678
    5PRO    HG2   55   3.160   1.706   4.262 -2.3017  1.1115 -0.7460
    5PRO      C   56   2.809   1.852   4.472  0.2366  0.1243  0.0662
    5PRO      O   57   2.740   1.756   4.429 -0.1728 -0.2100  0.0621
    6GLY      N   58   2.757   1.973   4.499  0.4043  0.1702  0.5122
    6GLY     HN   59   2.811   2.047   4.537 -0.1974 -0.2816  2.3767
    6GLY     CA   60   2.616   2.003   4.501 -1.2190  0.0038 -0.3183
    6GLY    HA1   61   2.604   2.084   4.572 -1.4536 -0.4397  0.1578
    6GLY    HA2   62   2.561   1.913   4.522 -0.9803 -0.4318 -1.5133
    6GLY      C   63   2.567   2.056   4.375  0.6206 -0.2864  0.9727
    6GLY      O   64   2.612   2.018   4.264 -0.0021 -0.5989 -0.9470
    7ASP      N   65   2.464   2.148   4.379 -0.6356 -1.0238 -0.2112
    7ASP     HN   66   2.427   2.172   4.468 -0.2407  0.7936 -0.5002
    7ASP     CA   67   2.404   2.212   4.269 -0.2128 -0.2691 -1.2772
    7ASP     HA   68   2.376   2.129   4.206  1.5268 -2.1331  0.2772
    7ASP     CB   69   2.282   2.288   4.316 -0.0088 -0.4900  0.2380
    7ASP    HB1   70   2.235   2.230   4.398  0.5710 -0.0149  0.9201
    7ASP    HB2   71   2.196   2.286   4.245 -1.4195  1.0591  1.8101
    7ASP     CG   72   2.305   2.430   4.358  0.8477  0.2662 -0.4326
    7ASP    OD1   73   2.213   2.513   4.330 -0.6329 -0.5970 -0.0942
    7ASP    OD2   74   2.399   2.461   4.436  0.5485  0.3579  0.3785
    7ASP      C   75   2.501   2.296   4.190 -0.0072 -0.0862  0.1765
    7ASP      O   76   2.592   2.358   4.245 -0.0743  0.8689  0.3288
    8PRO      N   77   2.481   2.310   4.058  0.4001  0.8747  0.2602
    8PRO     CD   78   2.413   2.201   3.976 -0.0075  0.1977 -0.3165
    8PRO    HD1   79   2.303   2.201   3.993  0.1048 -1.4540  0.6222
    8PRO    HD2   80   2.453   2.103   4.009  0.6182  0.7300  0.5616
    8PRO     CA   81   2.524   2.418   3.972  0.7283 -0.6615  0.0842
    8PRO     HA   82   2.632   2.421   3.968  0.7903  1.3664  1.4232
    8PRO     CB   83   2.469   2.392   3.832  0.4336  0.3388  0.1964
    8PRO    HB1   84   2.529   2.421   3.743 -0.4304 -0.4588 -0.6814
    8PRO    HB2   85   2.367   2.434   3.813 -0.2091 -0.1316  2.3968
    8PRO     CG   86   2.460   2.237   3.836  0.7577  0.4642  0.4385
    8PRO    HG1   87   2.376   2.203   3.772 -0.4414 -0.3492  2.3347
    8PRO    HG2   88   2.555   2.191   3.800  0.3601  0.2125 -0.3157
    8PRO      C   89   2.492   2.555   4.033  0.1202  0.5518  0.2088
    8PRO      O   90   2.389   2.571   4.092 -0.0237 -0.2731  0.0746
    9ASP      N   91   2.589   2.652   4.025 -0.4848  0.5931 -0.2335
    9ASP     HN   92   2.679   2.628   3.989  1.4873  3.4449  2.2765
    9ASP     CA   93   2.580   2.784   4.081  0.3208 -0.3604  0.3115
    9ASP     HA   94   2.478   2.803   4.112  0.2910 -1.5108  0.9612
    9ASP     CB   95   2.672   2.792   4.201  0.2866 -0.5330 -0.4221
    9ASP    HB1   96   2.683   2.897   4.236 -0.5710 -0.4990 -0.2357
    9ASP    HB2   97   2.775   2.759   4.177  0.3149 -1.6023  1.0467
    9ASP     CG   98   2.625   2.700   4.312 -0.3198 -0.1266 -0.4348
    9ASP    OD1   99   2.506   2.703   4.353  0.2940  0.1912 -0.0730
    9ASP    OD2  100   2.699   2.608   4.362 -0.1004 -0.3995  0.0897
    9ASP      C  101   2.622   2.896   3.983  0.1246 -0.1805 -0.3792
    9ASP      O  102   2.599   3.015   4.009 -0.0693 -0.6266  0.3389
   10ALA      N  103   2.687   2.867   3.867 -0.4361 -0.2427 -0.4106
   10ALA     HN  104   2.697   2.772   3.837  1.7734 -0.1212 -0.2227
   10ALA     CA  105   2.760   2.959   3.776  0.3287 -0.1524  0.0550
   10ALA     HA  106   2.807   3.036   3.835  0.7726  0.2307 -0.7723
   10ALA     CB  107   2.872   2.878   3.714  0.5696 -0.9052 -0.2551
   10ALA    HB1  108   2.826   2.803   3.646 -1.5066  2.5863 -3.0915
   10ALA    HB2  109   2.942   2.834   3.788  0.0783  0.7519  1.2421
   10ALA    HB3  110   2.929   2.943   3.644  2.5634  0.7856  2.6995
   10ALA      C  111   2.664   3.025   3.680  0.5284  0.8429 -0.1606
   10ALA      O  112   2.573   2.964   3.632  0.2236  0.3518  0.1412
   11GLY      N  113   2.682   3.160   3.651  0.1804  0.1816 -0.1852
   11GLY     HN  114   2.767   3.209   3.669  0.5140  0.6887 -2.8064
   11GLY     CA  115   2.583   3.231   3.580  0.2352 -0.8857 -0.2951
   11GLY    HA1  116   2.626   3.330   3.586 -0.9060 -0.3123 -1.2317
   11GLY    HA2  117   2.487   3.215   3.627  0.3989  0.3020  0.4903
   11GLY      C  118   2.578   3.191   3.430  0.2288 -0.8070 -0.4401
   11GLY    OT1  119   2.467   3.160   3.372  0.2634  0.3391 -0.0951
   11GLY    OT2  120   2.687   3.188   3.374 -0.2697  0.2752 -0.4003
   12LIT    LIT  121   2.452   5.634   0.423 -0.2479 -0.5574 -0.0241
   13LIT    LIT  122   4.219   2.402   4.602  0.0710 -0.4488 -0.2575
   14LIT    LIT  123   4.314   0.669   2.299 -1.9652 -0.7752  0.2198
   15LIT    LIT  124   1.478   3.607   0.878  0.5914  0.4089  0.2702
   16LIT    LIT  125   2.586   2.464   4.402 -0.4291  0.2338 -0.2310
   17LIT    LIT  126   5.840   0.774   4.955 -0.5345  0.2152 -0.1644
   18LIT    LIT  127   2.850   0.991   4.626  0.2969 -0.0209  0.5658
   19LIT    LIT  128   2.329   2.651   4.393 -0.0276  0.4700 -0.2002
   20LIT    LIT  129   5.607   2.999   2.812  0.6336  0.3205  0.8658
   21LIT    LIT  130   5.197   5.885   4.940 -0.8394 -0.1041  0.1008
   22LIT    LIT  131   1.741   1.680   3.214  0.4918 -0.4926 -0.4625
   23LIT    LIT  132   0.020   4.335   2.560  0.4799 -0.8426  0.9170
   24LIT    LIT  133   4.046   3.806   0.232 -0.0704 -0.2389 -1.4461
   25LIT    LIT  134   4.136   4.143   3.182  0.4049 -0.1728  0.9246
   26LIT    LIT  135   2.743   5.094   3.578  1.3150  0.7071 -0.3608
   27LIT    LIT  136   2.284   0.964   2.921 -0.6695  0.6541  0.8692
   28LIT    LIT  137   0.989   4.408   4.374  0.8071 -0.4551  0.1900
   29LIT    LIT  138   2.563   2.277   4.945 -0.2789 -0.7772  0.1805
   30LIT    LIT  139   1.285   0.381   4.095 -0.2584  0.3886  0.3899
   31LIT    LIT  140   0.517   0.574   1.752  0.9550 -0.9596  0.1820
   32LIT    LIT  141   1.429   1.732   0.901 -0.4806  0.0087 -0.5287
   33LIT    LIT  142   2.614   3.043   3.264  0.7132  0.7808  0.4562
   34CLA    CLA  143   1.411   5.206   1.047 -0.2910  0.2224 -0.2029
   35CLA    CLA  144   0.823   5.016   3.207  0.3552  0.1393  0.2017
   36CLA    CLA  145   3.331   3.085   0.749  0.3751 -0.1375 -0.2621
   37CLA    CLA  146   2.875   4.171   5.134  0.1009 -0.1636 -0.0023
   38CLA    CLA  147   3.871   4.873   0.319 -0.0831  0.1563  0.1333
   39CLA    CLA  148   4.695   5.378   4.026 -0.4181  0.1809  0.1099
   40CLA    CLA  149   5.898   2.639   3.147  0.2261 -0.1215 -0.0297
   41CLA    CLA  150   1.374   1.883   4.257  0.0531 -0.2366 -0.0613
   42CLA    CLA  151   4.493   0.364   2.559 -0.0772  0.0506  0.0822
   43CLA    CLA  152   1.001   0.307   4.674  0.3460  0.2770  0.1263
   44CLA    CLA  153   4.910   1.504   2.880 -0.0791  0.1280  0.1511
   45CLA    CLA  154   3.602   0.774   3.927  0.2199 -0.3399  0.4322
   46CLA    CLA  155   0.161   2.566   0.038  0.2581 -0.1348  0.3759
   47CLA    CLA  156   0.410   3.526   2.141  0.1949 -0.0960  0.2521
   48CLA    CLA  157   5.725   0.088   3.224 -0.1447  0.0487  0.2075
   49CLA    CLA  158   0.075   0.163   1.953  0.2663 -0.4116  0.2746
   50CLA    CLA  159   6.186   4.277   2.707  0.0426  0.0650 -0.2276
   51CLA    CLA  160   1.789   5.261   4.853  0.4564  0.1999 -0.4549
   52TIP3   OH2  161   2.117   2.447   5.050  0.4603  0.0208  0.3300
   52TIP3    H1  162   2.144   2.360   5.079 -2.1506 -0.7780  0.6224
   52TIP3    H2  163   2.033   2.462   5.094  0.4167  2.3228 -0.4034
   53TIP3   OH2  164   5.718   5.471   1.048 -0.3651 -0.1726  0.1050
   53TIP3    H1  165   5.693   5.496   0.960  2.3153  0.0745 -0.6834
   53TIP3    H2  166   5.731   5.554   1.094 -0.1564 -0.2584  0.2055
   54TIP3   OH2  167   6.183   3.484   2.082  0.1474  0.6019  0.3523
   54TIP3    H1  168   6.139   3.399   2.079  0.7669  0.3000 -1.4892
   54TIP3    H2  169   6.138   3.537   2.017  0.6159  1.2416  0.5369
   55TIP3   OH2  170   6.127   2.790   1.056 -0.2782  0.0789  0.3317
   55TIP3    H1  171   6.130   2.874   1.103 -1.4888  0.3231  0.0172
   55TIP3    H2  172   6.141   2.813   0.965 -1.1333  0.0149  0.1776
   56TIP3   OH2  173   1.973   2.254   0.849 -0.8299  0.2770 -0.0743
   56TIP3    H1  174   1.938   2.338   0.819 -1.0947  0.3232  0.3619
   56TIP3    H2  175   1.902   2.192   0.834 -1.8780  0.7048  2.6078
   57TIP3   OH2  176   6.096   2.521   2.345  0.3720 -0.2073 -1.1584
   57TIP3    H1  177   6.027   2.484   2.291  0.2771 -1.4651 -0.2130
   57TIP3    H2  178   6.077   2.492   2.433  1.5733  0.2373 -0.7214
   58TIP3   OH2  179   3.541   4.034   0.061  0.4938 -0.3898  0.1703
   58TIP3    H1  180   3.580   3.948   0.075 -0.3931 -1.3095 -2.3134
   58TIP3    H2  181   3.446   4.017   0.064  0.2564  0.9921  1.9717
   59TIP3   OH2  182   1.096   1.261   0.865 -0.4189 -0.3313  0.2165
   59TIP3    H1  183   1.069   1.192   0.804  1.7739  0.0508 -1.2701
   59TIP3    H2  184   1.104   1.339   0.811  1.6029  0.0195  0.9653
   60TIP3   OH2  185   1.934   0.155   2.943 -0.0475  0.3438 -0.0741
   60TIP3    H1  186   1.911   0.102   2.867 -1.4551  1.0295 -0.1683
   60TIP3    H2  187   1.926   0.095   3.017  2.4261 -0.6309 -0.4960
   61TIP3   OH2  188   2.765   2.117   0.010 -0.6577 -0.0391 -0.3171
   61TIP3    H1  189   2.763   2.057   0.085 -0.0432 -0.3206 -0.5205
   61TIP3    H2  190   2.720   2.069  -0.060  0.6400 -0.6525 -0.7531
   62TIP3   OH2  191   4.642   3.765   1.798 -0.6088 -0.4438 -0.0899
   62TIP3    H1  192   4.728   3.731   1.774 -1.0282 -0.6612 -1.3835
   62TIP3    H2  193   4.640   3.760   1.894 -0.1214 -2.7429 -0.1387
   63TIP3   OH2  194   0.961   3.271   0.078 -0.2398  0.3056 -0.2027
   63TIP3    H1  195   0.947   3.352   0.030 -1.3901  0.8794  1.0106
   63TIP3    H2  196   0.911   3.205   0.029  0.8719  0.2565 -1.3102
   64TIP3   OH2  197   4.201   4.770   1.090  0.0128  0.7433 -0.0952
   64TIP3    H1  198   4.106   4.776   1.079 -0.3283  1.9036  2.6480
   64TIP3    H2  199   4.213   4.742   1.180  2.3007  0.9910 -0.2628
   65TIP3   OH2  200   5.074   0.373   0.975  0.0496 -0.3293 -0.2339
   65TIP3    H1  201   4.985   0.404   0.991 -0.1435 -0.5718 -0.7938
   65TIP3    H2  202   5.124   0.398   1.053 -0.6699 -0.8076  0.3906
   66TIP3   OH2  203   0.971   5.223   2.410  0.3325 -0.2238  0.8815
   66TIP3    H1  204   0.896   5.248   2.464 -0.7952  1.1375 -1.1721
   66TIP3    H2  205   0.961   5.275   2.330  2.0620 -1.9382 -0.5362
   67TIP3   OH2  206   6.054   2.947   0.320  0.4500 -1.0238 -0.4280
   67TIP3    H1  207   6.123   3.008   0.345 -1.2696  0.6734  0.4695
   67TIP3    H2  208   5.984   2.963   0.383 -1.4739 -1.3723 -2.3595
   68TIP3   OH2  209   1.793   3.441   4.826 -0.1865 -0.2286  0.2429
   68TIP3    H1  210   1.805   3.477   4.738  1.2804 -1.2815 -0.0128
   68TIP3    H2  211   1.849   3.495   4.882 -2.6308  1.7555  0.9557
   69TIP3   OH2  212   2.210   3.623   1.150  0.4278  0.1489 -0.1594
   69TIP3    H1  213   2.135   3.616   1.092 -0.8089 -1.0089  1.4625
   69TIP3    H2  214   2.199   3.707   1.193 -0.6450 -0.4944  0.9027
   70TIP3   OH2  215   2.918   0.485   2.589 -0.3477 -0.0747 -0.7228
   70TIP3    H1  216   2.937   0.576   2.614 -0.7912 -0.6210  1.8924
   70TIP3    H2  217   2.829   0.488   2.553 -0.1699  0.5774 -1.1243
   71TIP3   OH2  218   0.690   5.939   1.583 -0.1304 -0.2573 -0.3557
   71TIP3    H1  219   0.785   5.938   1.575 -0.2149  0.7103 -1.8333
   71TIP3    H2  220   0.674   5.926   1.677  1.4432 -0.4755 -0.0848
   72TIP3   OH2  221   4.146   1.238   4.995  0.5607 -0.1245  0.7510
   72TIP3    H1  222   4.066   1.279   4.962  0.9272  0.3406  0.4346
   72TIP3    H2  223   4.121   1.147   5.011 -0.1206  0.0924  0.9723
   73TIP3   OH2  224   1.900   1.850   4.954  0.6386  0.7083  0.4756
   73TIP3    H1  225   1.885   1.944   4.942 -0.7183  0.1927 -2.6528
   73TIP3    H2  226   1.855   1.829   5.036  0.6241  2.6911  1.0284
   74TIP3   OH2  227   5.965   5.597   2.428 -0.0353 -0.5097  0.0275
   74TIP3    H1  228   5.890   5.602   2.488 -0.3347 -0.9840 -0.3042
   74TIP3    H2  229   5.941   5.654   2.356  0.0596 -0.4188  0.0680
   75TIP3   OH2  230   2.245   4.741   1.337  0.2687 -0.0580 -0.6507
   75TIP3    H1  231   2.194   4.772   1.262  1.5305 -0.1237 -1.5530
   75TIP3    H2  232   2.275   4.654   1.311  1.4004  0.2528 -0.4025
   76TIP3   OH2  233   5.005   4.356   4.859 -0.5574  0.3235 -0.7748
   76TIP3    H1  234   5.076   4.361   4.924 -1.0702 -2.0195  0.0427
   76TIP3    H2  235   5.047   4.383   4.777  1.4971 -1.5475 -0.4326
   77TIP3   OH2  236   4.265   4.495   3.066  0.0512 -0.3484  0.2803
   77TIP3    H1  237   4.317   4.548   3.126  0.1438  0.3628 -0.4136
   77TIP3    H2  238   4.176   4.531   3.072 -0.2824 -1.2603  1.1150
   78TIP3   OH2  239   0.601   4.325   2.211  0.9485 -0.5337 -0.2023
   78TIP3    H1  240   0.584   4.260   2.280  1.4556 -1.1887 -0.6854
   78TIP3    H2  241   0.695   4.344   2.219  0.5261  1.3727  0.9836
   79TIP3   OH2  242   4.981   0.698   1.465  0.0901 -0.3254 -0.1291
   79TIP3    H1  243   4.894   0.670   1.438 -0.6103  1.2145  0.4406
   79TIP3    H2  244   5.022   0.618   1.499 -0.6708 -1.3069 -1.4360
   80TIP3   OH2  245   1.107   4.402   1.044  0.4326  0.5340 -0.1473
   80TIP3    H1  246   1.122   4.493   1.072  2.4607  0.0949  0.3557
   80TIP3    H2  247   1.122   4.350   1.122 -0.5627 -0.2775 -0.4716
   81TIP3   OH2  248   1.901   4.295   4.269 -0.1078  0.0339  0.2719
   81TIP3    H1  249   1.984   4.324   4.232 -1.1566  2.1166 -0.6054
   81TIP3    H2  250   1.834   4.337   4.215 -1.7598 -1.8122  0.7548
   82TIP3   OH2  251   3.494   0.901   4.185 -0.2146  0.1635  0.6704
   82TIP3    H1  252   3.546   0.847   4.125 -0.0780 -1.2183  1.9872
   82TIP3    H2  253   3.539   0.895   4.269  0.1377  2.8719  0.7446
   83TIP3   OH2  254   1.333   1.132   3.479 -0.1783 -0.0385  0.2074
   83TIP3    H1  255   1.284   1.173   3.408  0.7868 -0.2763 -0.6114
   83TIP3    H2  256   1.282   1.054   3.501 -0.4800  0.0289 -0.2376
   84TIP3   OH2  257   2.542   2.921   1.963 -0.2730  0.1410 -0.3525
   84TIP3    H1  258   2.455   2.889   1.937 -0.6679 -2.2133  3.2570
   84TIP3    H2  259   2.603   2.873   1.907 -1.2103 -0.7986 -0.5970
   85TIP3   OH2  260   4.386   4.402   4.082  0.2681 -0.0946  0.1163
   85TIP3    H1  261   4.450   4.365   4.143  1.4514  0.9344 -0.4670
   85TIP3    H2  262   4.424   4.484   4.053  0.5012 -1.1972 -3.1536
   86TIP3   OH2  263   0.580   3.487   2.485  0.0348  0.0360 -0.2680
   86TIP3    H1  264   0.565   3.500   2.391 -1.4000 -0.5525 -0.1509
   86TIP3    H2  265   0.555   3.396   2.501 -0.5899  0.3798  0.8263
   87TIP3   OH2  266   5.827   4.858   0.449  0.0203  0.7117 -0.5005
   87TIP3    H1  267   5.767   4.803   0.399  0.7307 -1.8848  1.3416
   87TIP3    H2  268   5.778   4.881   0.528  0.4185  1.0991 -0.3623
   88TIP3   OH2  269   5.718   3.507   1.420 -0.0566 -0.8715 -0.0139
   88TIP3    H1  270   5.684   3.540   1.336 -0.9800  1.1040  1.0591
   88TIP3    H2  271   5.646   3.455   1.455 -0.4678 -0.0367  0.4224
   89TIP3   OH2  272   0.865   1.813   1.163  0.1331  0.3389 -0.1660
   89TIP3    H1  273   0.819   1.895   1.145 -0.0561  0.3735  0.4625
   89TIP3    H2  274   0.795   1.750   1.182  0.3484  0.6093  1.6946
   90TIP3   OH2  275   3.608   0.645   2.417 -0.2398  0.4079 -0.6510
   90TIP3    H1  276   3.627   0.576   2.354  2.0967  0.5619 -0.2238
   90TIP3    H2  277   3.571   0.716   2.364  1.8792  0.6276 -1.9575
   91TIP3   OH2  278   5.962   3.404   1.541 -0.4315  0.1629  0.6473
   91TIP3    H1  279   5.877   3.440   1.516 -0.6822 -0.6826  0.2654
   91TIP3    H2  280   5.988   3.455   1.618 -0.8323  1.0669  0.1951
   92TIP3   OH2  281   4.721   5.740   3.572  0.2250  0.3198  0.0556
   92TIP3    H1  282   4.728   5.821   3.522  3.9179 -0.1021 -0.4390
   92TIP3    H2  283   4.747   5.764   3.661  2.3156 -0.3714 -0.3078
   93TIP3   OH2  284   3.533   3.706   4.781  0.0444  0.5940 -0.6156
   93TIP3    H1  285   3.564   3.742   4.864 -0.9898 -1.0033  0.5276
   93TIP3    H2  286   3.585   3.627   4.768 -0.8301  0.0166 -0.6828
   94TIP3   OH2  287   2.135   2.779   1.029 -0.0235  0.6522  0.1627
   94TIP3    H1  288   2.195   2.853   1.038 -0.6900  0.9529  3.4588
   94TIP3    H2  289   2.157   2.721   1.102 -1.0826 -1.2672 -0.9553
   95TIP3   OH2  290   2.078   4.811   3.418  0.0941 -0.1678 -0.1374
   95TIP3    H1  291   2.021   4.735   3.407 -0.3473  0.0351  0.6388
   95TIP3    H2  292   2.152   4.779   3.470 -2.3905  0.8706  4.6027
   96TIP3   OH2  293   3.188   2.622   1.663  0.3532  0.2059 -0.3453
   96TIP3    H1  294   3.257   2.685   1.682  1.5627 -1.1200 -0.1639
   96TIP3    H2  295   3.186   2.618   1.567 -0.5177  1.3251 -0.3928
   97TIP3   OH2  296   0.493   3.753   1.741  0.2372  0.0235  0.0854
   97TIP3    H1  297   0.419   3.697   1.768  0.0661  0.3413  0.2790
   97TIP3    H2  298   0.534   3.780   1.823  0.6763 -0.2903 -0.0282
   98TIP3   OH2  299   5.958   4.480   2.810  0.2158 -0.2348  0.7648
   98TIP3    H1  300   6.028   4.419   2.786 -0.8807 -1.2241 -0.0156
   98TIP3    H2  301   5.905   4.487   2.731 -0.6309  0.4210  1.3811
   99TIP3   OH2  302   2.552   3.713   4.668 -0.0842  0.1101  0.1819
   99TIP3    H1  303   2.604   3.740   4.592 -1.4070 -0.3305 -0.9199
   99TIP3    H2  304   2.607   3.733   4.743  2.1679 -1.3487 -0.9558
  100TIP3   OH2  305   4.638   2.560   1.331 -0.3110 -0.1934  0.0343
  100TIP3    H1  306   4.597   2.633   1.377 -2.1784 -1.4712  0.5050
  100TIP3    H2  307   4.718   2.543   1.381 -1.0369  0.0466  1.3389
  101TIP3   OH2  308   0.531   1.978   4.997 -0.0063 -0.2016 -0.4238
  101TIP3    H1  309   0.566   2.020   4.919  0.7798  0.3844  0.2312
  101TIP3    H2  310   0.585   2.011   5.069 -0.0640 -1.5038  0.2478
  102TIP3   OH2  311   4.082   1.805   2.735 -0.4160  0.0208 -0.4843
  102TIP3    H1  312   4.067   1.782   2.643 -0.5803 -0.4269 -0.3493
  102TIP3    H2  313   4.099   1.721   2.778 -1.3229  0.1064  0.0762
  103TIP3   OH2  314   1.807   1.407   1.455  0.4829  0.1550  0.1811
  103TIP3    H1  315   1.820   1.435   1.365 -1.8712  1.6602  0.2474
  103TIP3    H2  316   1.846   1.476   1.508 -1.2187  1.0520  0.3082
  104TIP3   OH2  317   5.229   1.709   0.942  0.5735  0.2056 -0.4651
  104TIP3    H1  318   5.289   1.635   0.954 -0.0005 -0.1303  0.4059
  104TIP3    H2  319   5.181   1.715   1.024 -1.1123  0.0156 -1.4013
  105TIP3   OH2  320   0.359   5.141   4.915 -0.3127  0.3804 -0.2214
  105TIP3    H1  321   0.406   5.080   4.859  0.4386  0.4716  0.2927
  105TIP3    H2  322   0.300   5.187   4.856 -1.9770 -1.8464 -0.4035
  106TIP3   OH2  323   1.679   4.281   0.600  0.1165  0.4099  0.1578
  106TIP3    H1  324   1.643   4.322   0.678 -1.9473 -1.4215  0.2512
  106TIP3    H2  325   1.774   4.281   0.616 -0.0996  1.7068  1.7939
  107TIP3   OH2  326   0.412   3.812   2.310  0.4169 -0.9057  0.3173
  107TIP3    H1  327   0.399   3.730   2.263 -1.0522  0.1127 -1.1620
  107TIP3    H2  328   0.480   3.858   2.260 -0.1826 -0.3985 -0.0529
  108TIP3   OH2  329   0.233   4.853   3.680  0.3472  0.2163 -0.1036
  108TIP3    H1  330   0.260   4.943   3.665 -0.2424  0.4911  0.4299
  108TIP3    H2  331   0.314   4.802   3.677  0.6214  0.6802 -0.9556
  109TIP3   OH2  332   0.463   3.785   1.081 -0.0770 -0.3055 -0.5466
  109TIP3    H1  333   0.514   3.824   1.152 -0.3538 -0.6678 -0.1463
  109TIP3    H2  334   0.487   3.836   1.004  0.7102 -0.3095 -0.3180
  110TIP3   OH2  335   2.980   2.822   0.725 -0.8091 -0.3452  0.0559
  110TIP3    H1  336   2.896   2.786   0.698 -0.1761 -0.6479 -1.6054
  110TIP3    H2  337   3.045   2.767   0.682  0.2310  0.5334  0.4505
  111TIP3   OH2  338   5.827   5.613   4.006  0.3240 -0.1945  0.3673
  111TIP3    H1  339   5.877   5.602   3.925  0.1907  0.6611  0.1659
  111TIP3    H2  340   5.737   5.591   3.982  0.3626 -0.3896  0.3984
  112TIP3   OH2  341   5.664   3.198   3.910  0.6548  0.4783  0.1060
  112TIP3    H1  342   5.746   3.224   3.868  0.6677 -0.4883 -0.4938
  112TIP3    H2  343   5.692   3.147   3.987  0.6264 -0.1312 -0.2809
  113TIP3   OH2  344   3.784   5.545   2.975  0.1840  0.5054  0.1233
  113TIP3    H1  345   3.775   5.455   3.007  3.1326  0.0619  0.0544
  113TIP3    H2  346   3.731   5.598   3.035  0.1868 -1.0482  1.5814
  114TIP3   OH2  347   3.618   3.641   2.537  0.2935 -0.0607  0.1413
  114TIP3    H1  348   3.561   3.668   2.465  1.6780  0.8749 -0.6451
  114TIP3    H2  349   3.598   3.702   2.608  0.4814  0.4300 -0.2212
  115TIP3   OH2  350   5.542   4.647   4.286 -0.2206 -0.3848  0.4574
  115TIP3    H1  351   5.540   4.608   4.373  0.3792 -0.3270  0.4965
  115TIP3    H2  352   5.455   4.686   4.276  1.1219  3.9132  2.9807
  116TIP3   OH2  353   4.620   3.933   3.438  0.2655 -0.1745 -0.3277
  116TIP3    H1  354   4.565   3.911   3.512  1.0960 -0.2906  0.2722
  116TIP3    H2  355   4.686   3.993   3.474  1.4201 -1.1968 -0.6725
  117TIP3   OH2  356   3.006   2.965   1.934 -0.0169 -0.2725  0.2712
  117TIP3    H1  357   2.934   3.010   1.978 -1.3744 -1.2569 -0.8154
  117TIP3    H2  358   3.015   3.011   1.851 -0.8750 -1.4167 -0.5031
  118TIP3   OH2  359   5.333   4.601   0.124 -0.0347  0.0794 -0.3726
  118TIP3    H1  360   5.361   4.548   0.199 -1.5249 -1.2864 -0.7100
  118TIP3    H2  361   5.299   4.681   0.163  0.5098 -0.0098  0.3073
  119TIP3   OH2  362   4.299   4.875   1.950  0.2201 -0.6147  0.4561
  119TIP3    H1  363   4.258   4.929   1.883  0.6639  0.2664  0.8807
  119TIP3    H2  364   4.367   4.826   1.902 -0.8132 -1.5391 -0.1069
  120TIP3   OH2  365   3.820   4.864   3.302  0.3937 -0.1808  0.0725
  120TIP3    H1  366   3.726   4.881   3.311  0.4986  0.8037 -0.5603
  120TIP3    H2  367   3.852   4.862   3.392 -0.5628 -2.7490  0.4408
  121TIP3   OH2  368   2.058   5.891   3.767 -0.2349  0.0003  0.1902
  121TIP3    H1  369   2.069   5.985   3.754  0.0567 -0.1964 -1.0793
  121TIP3    H2  370   1.975   5.870   3.724  0.2292 -0.5009 -0.4732
  122TIP3   OH2  371   4.099   5.818   1.607  0.6939  0.6581 -0.1818
  122TIP3    H1  372   4.160   5.845   1.675 -0.7150  0.6296  1.1588
  122TIP3    H2  373   4.115   5.724   1.596  1.0455  0.6978 -0.0181
  123TIP3   OH2  374   4.617   0.846   0.909 -0.7722  0.3710 -0.1314
  123TIP3    H1  375   4.580   0.782   0.849  1.7180 -0.4398 -0.9331
  123TIP3    H2  376   4.599   0.931   0.869 -1.0881 -0.0407 -0.8688
  124TIP3   OH2  377   0.309   1.805   0.976 -0.4029  0.4586  0.1282
  124TIP3    H1  378   0.254   1.748   0.924  0.7646  0.0050 -0.6394
  124TIP3    H2  379   0.313   1.887   0.927  0.2867  0.1995 -0.2700
  125TIP3   OH2  380   4.521   0.326   1.595 -0.0244 -0.2666 -0.1571
  125TIP3    H1  381   4.441   0.305   1.643 -0.2535  1.2013  0.1429
  125TIP3    H2  382   4.523   0.263   1.524 -0.7665 -1.1524  0.5755
  126TIP3   OH2  383   3.471   4.854   1.315  0.0094 -0.0151  0.3648
  126TIP3    H1  384   3.536   4.925   1.312  0.0139 -0.0451 -0.3368
  126TIP3    H2  385   3.459   4.829   1.224  0.7061 -1.5708  0.6714
  127TIP3   OH2  386   2.511   5.683   3.771  0.4183 -0.6550  0.5518
  127TIP3    H1  387   2.521   5.748   3.840  0.6146  0.6638 -0.6710
  127TIP3    H2  388   2.417   5.672   3.760  0.3465  0.6086 -0.2721
  128TIP3   OH2  389   0.656   5.958   1.876 -0.2593 -0.0718 -0.2162
  128TIP3    H1  390   0.700   6.043   1.880  1.8580 -1.0661 -0.9214
  128TIP3    H2  391   0.667   5.921   1.964 -0.4777  0.0291 -0.1440
  129TIP3   OH2  392   0.112   4.372   0.772  0.7043  0.2302  0.3205
  129TIP3    H1  393   0.077   4.324   0.847  1.9463 -1.3473 -0.0393
  129TIP3    H2  394   0.076   4.327   0.696  1.9808 -0.2414 -0.0288
  130TIP3   OH2  395   1.964   0.595   3.034  0.3490 -0.7770 -0.0025
  130TIP3    H1  396   2.011   0.520   3.072 -1.4190 -1.9461  0.0123
  130TIP3    H2  397   1.877   0.591   3.075 -0.4183  0.1073 -1.4674
  131TIP3   OH2  398   3.882   3.307   4.308 -0.9942 -0.2333  0.1653
  131TIP3    H1  399   3.874   3.314   4.213  0.7049  1.9808  0.0929
  131TIP3    H2  400   3.814   3.364   4.343 -0.4429  0.4246  0.1926
  132TIP3   OH2  401   4.171   0.729   4.960 -0.3184  0.1706 -0.3770
  132TIP3    H1  402   4.081   0.706   4.985 -0.1530  0.8658  0.9609
  132TIP3    H2  403   4.221   0.720   5.041  0.7050  0.3922 -0.9695
  133TIP3   OH2  404   1.398   5.627   3.143  0.6275 -0.3481 -0.0110
  133TIP3    H1  405   1.382   5.565   3.072 -0.4194 -0.9024  0.6843
  133TIP3    H2  406   1.404   5.573   3.222 -1.3360  0.4559  0.7702
  134TIP3   OH2  407   3.218   0.155   3.387  0.0750 -0.7789  0.0914
  134TIP3    H1  408   3.144   0.135   3.443  0.9118 -0.1624  1.4823
  134TIP3    H2  409   3.226   0.079   3.329 -2.0508 -0.5400 -0.6055
  135TIP3   OH2  410   0.455   3.602   5.139 -0.4359  0.2651  0.3028
  135TIP3    H1  411   0.382   3.559   5.184  0.7289 -2.2713 -0.0520
  135TIP3    H2  412   0.527   3.600   5.201 -0.2517  1.4818  0.1512
  136TIP3   OH2  413   4.658   5.490   4.310 -0.1620 -0.0788  0.3598
  136TIP3    H1  414   4.713   5.559   4.274 -0.3661 -0.2903 -0.3666
  136TIP3    H2  415   4.659   5.421   4.244 -0.5163 -0.4897  0.7734
  137TIP3   OH2  416   1.791   1.093   3.407 -0.1341  0.4428 -0.4052
  137TIP3    H1  417   1.709   1.090   3.457  0.8595 -1.0568  1.2631
  137TIP3    H2  418   1.834   1.010   3.427  2.5533  1.8631  0.1006
  138TIP3   OH2  419   5.217   1.270   3.471 -0.1659  0.1910 -0.0652
  138TIP3    H1  420   5.261   1.352   3.451  0.2380 -0.3420 -1.4512
  138TIP3    H2  421   5.277   1.224   3.531  0.4189  0.1737 -0.6527
  139TIP3   OH2  422   3.712   4.619   0.780 -0.1316 -0.6974  0.5882
  139TIP3    H1  423   3.790   4.672   0.761 -0.4389 -0.0759  1.0309
  139TIP3    H2  424   3.722   4.541   0.725 -0.4242  0.5196 -1.2684
  140TIP3   OH2  425   6.235   3.713   4.853 -0.4139  0.0014 -0.3077
  140TIP3    H1  426   6.193   3.689   4.936  1.3977 -0.8629  0.4026
  140TIP3    H2  427   6.168   3.694   4.786 -1.7152  0.2171  0.8858
  141TIP3   OH2  428   2.064   5.139   1.603  0.3208 -0.5289  0.2511
  141TIP3    H1  429   1.991   5.091   1.566  0.0963 -0.6650  0.8550
  141TIP3    H2  430   2.131   5.137   1.535 -0.2784 -0.2940 -0.3573
  142TIP3   OH2  431   0.478   0.816   3.910  0.4108 -0.4322 -0.0105
  142TIP3    H1  432   0.558   0.843   3.954 -0.1156  1.2274  0.0204
  142TIP3    H2  433   0.409   0.829   3.975  0.2472 -3.7849  0.6770
  143TIP3   OH2  434   6.122   1.901   3.230 -0.4335 -0.0166 -0.0370
  143TIP3    H1  435   6.138   1.863   3.316 -2.4703 -0.3256  0.2434
  143TIP3    H2  436   6.103   1.993   3.247  1.0192  0.3803 -0.3813
  144TIP3   OH2  437   3.043   2.680   3.143 -0.3657  0.0726  0.3565
  144TIP3    H1  438   3.108   2.733   3.097 -0.2056  0.0033  0.5019
  144TIP3    H2  439   2.966   2.681   3.086 -0.0723 -0.2512 -0.0394
  145TIP3   OH2  440   2.238   1.859   4.674 -0.3399 -0.3977 -0.2414
  145TIP3    H1  441   2.155   1.882   4.715 -0.4029  0.1797 -0.6813
  145TIP3    H2  442   2.302   1.862   4.745 -0.6307 -0.4986  0.0277
  146TIP3   OH2  443   6.064   4.136   1.358 -0.0362  0.3788  0.1955
  146TIP3    H1  444   6.159   4.126   1.348 -0.0292 -1.1822  1.4935
  146TIP3    H2  445   6.051   4.231   1.359  1.1500  0.6885 -2.7546
  147TIP3   OH2  446   0.388   1.975   4.649 -0.2380  0.0698 -0.0695
  147TIP3    H1  447   0.457   1.921   4.610 -1.1237 -0.4646 -0.9723
  147TIP3    H2  448   0.435   2.046   4.694  0.8860 -0.0575 -0.9825
  148TIP3   OH2  449   4.135   2.565   2.468  0.4919 -0.3896 -0.1356
  148TIP3    H1  450   4.179   2.643   2.434 -1.3596  1.3046  1.0925
  148TIP3    H2  451   4.080   2.598   2.539 -0.8127 -2.7611  0.0598
  149TIP3   OH2  452   1.356   4.141   3.668  0.2741 -0.1732 -0.4103
  149TIP3    H1  453   1.374   4.212   3.606 -1.9172  0.4287 -0.4396
  149TIP3    H2  454   1.261   4.142   3.678  0.5456 -0.0514  3.2086
  150TIP3   OH2  455   3.027   5.101   0.517  0.0357 -0.4771  0.1264
  150TIP3    H1  456   3.066   5.074   0.433 -0.3424 -3.7515  0.8495
  150TIP3    H2  457   3.096   5.087   0.581 -0.0833  0.7722  0.5444
  151TIP3   OH2  458   3.380   2.441   4.070  0.4973  0.7776  0.1614
  151TIP3    H1  459   3.316   2.460   4.138  0.3581  0.1158  0.2194
  151TIP3    H2  460   3.464   2.469   4.107  0.6910 -1.1867  1.3279
  152TIP3   OH2  461   0.875   4.687   1.223  0.1534 -0.1513 -0.2911
  152TIP3    H1  462   0.913   4.775   1.228  1.8304 -0.6652 -2.4483
  152TIP3    H2  463   0.799   4.690   1.282  1.2722  2.1343  1.1816
  153TIP3   OH2  464   6.273   2.993   5.036  0.1655  0.5309  0.3263
  153TIP3    H1  465   6.338   2.928   5.007 -0.0108  0.4818  0.0349
  153TIP3    H2  466   6.286   3.067   4.977 -1.3756 -0.2409 -1.0736
  154TIP3   OH2  467   1.430   3.733   2.531  0.0650  0.3569 -0.2313
  154TIP3    H1  468   1.369   3.716   2.460  0.4199 -0.5931 -0.3261
  154TIP3    H2  469   1.471   3.816   2.508 -0.5576  0.5632 -0.6097
  155TIP3   OH2  470   4.625   4.944   4.082 -0.4846 -0.6755  0.3005
  155TIP3    H1  471   4.662   5.011   4.024  0.5635 -0.2879  1.3770
  155TIP3    H2  472   4.683   4.868   4.072  1.0777  0.1406  2.4579
  156TIP3   OH2  473   0.986   3.630   4.800  0.1494 -0.1973 -0.3870
  156TIP3    H1  474   0.999   3.661   4.890  1.1481 -0.1226 -0.5431
  156TIP3    H2  475   0.912   3.682   4.767  0.1172  0.1499  0.2167
  157TIP3   OH2  476   6.244   4.077   2.380 -0.7243 -0.1583  0.0465
  157TIP3    H1  477   6.221   4.143   2.315 -0.2482  0.2990  0.3337
  157TIP3    H2  478   6.328   4.106   2.415 -0.3356 -1.1045 -0.0624
  158TIP3   OH2  479   5.525   3.319   1.498  0.0139  0.0215 -0.0965
  158TIP3    H1  480   5.465   3.388   1.470 -1.3429 -1.5113 -1.2016
  158TIP3    H2  481   5.526   3.325   1.594 -1.3252  0.5742 -0.0971
  159TIP3   OH2  482   5.597   2.081   4.354  0.1962  0.3127 -0.1397
  159TIP3    H1  483   5.582   2.140   4.279 -2.0097 -0.0032 -0.0209
  159TIP3    H2  484   5.547   2.121   4.425 -1.0529 -1.4416  0.0422
  160TIP3   OH2  485   2.725   4.655   2.773  0.4398 -0.3148  0.4705
  160TIP3    H1  486   2.774   4.596   2.715 -0.9797 -0.8985 -0.1906
  160TIP3    H2  487   2.652   4.687   2.719 -0.7556 -0.6336  1.8165
  161TIP3   OH2  488   2.282   5.479   2.581  0.2231  0.3607 -0.2246
  161TIP3    H1  489   2.207   5.433   2.542  0.6527  1.3111 -2.2910
  161TIP3    H2  490   2.246   5.562   2.611  0.0841  0.0103  0.6162
  162TIP3   OH2  491   1.815   3.932   4.339  0.1757 -0.3881  0.4160
  162TIP3    H1  492   1.893   3.896   4.296 -0.5714 -2.4497  0.6758
  162TIP3    H2  493   1.843   4.018   4.371  2.3860 -1.1136  0.5958
  163TIP3   OH2  494   2.820   0.706   2.047 -0.0060 -0.4037 -0.0523
  163TIP3    H1  495   2.865   0.629   2.011  0.1645 -0.5191  0.4038
  163TIP3    H2  496   2.754   0.728   1.981 -0.1185 -0.9950 -0.1381
  164TIP3   OH2  497   0.152   4.140   4.457  0.0661  0.1596  0.2652
  164TIP3    H1  498   0.241   4.151   4.489 -0.4239  0.8587  1.4742
  164TIP3    H2  499   0.160   4.137   4.362  1.3670  0.2398  0.3609
  165TIP3   OH2  500   3.890   3.064   0.086 -0.1108 -0.0057  0.3836
  165TIP3    H1  501   3.803   3.073   0.125  0.0125  1.8475  0.3025
  165TIP3    H2  502   3.949   3.057   0.161 -0.2794 -0.9113  0.4421
  166TIP3   OH2  503   1.773   3.013   3.714 -0.2588 -0.0369  0.2470
  166TIP3    H1  504   1.747   3.099   3.749 -0.7506  0.4335 -1.2141
  166TIP3    H2  505   1.791   3.029   3.622 -0.5321 -1.5504 -0.0941
  167TIP3   OH2  506   3.062   5.403   5.046  0.1750  0.3590 -0.4643
  167TIP3    H1  507   2.967   5.398   5.051  0.0710  1.8940 -0.7017
  167TIP3    H2  508   3.092   5.320   5.084 -1.1794  0.9394  2.0214
  168TIP3   OH2  509   0.363   3.349   4.265 -0.2387 -0.7626  0.1528
  168TIP3    H1  510   0.452   3.314   4.267 -0.0720 -0.6551 -2.0787
  168TIP3    H2  511   0.374   3.442   4.247 -0.7736 -0.2198  2.4278
  169TIP3   OH2  512   0.981   3.209   3.072  0.1615 -0.3911 -0.1665
  169TIP3    H1  513   0.992   3.301   3.094 -1.2958 -0.6761  2.0857
  169TIP3    H2  514   1.032   3.162   3.139 -1.8091 -1.2492  0.8004
  170TIP3   OH2  515   1.309   5.715   3.702 -0.4245  0.1441  0.2219
  170TIP3    H1  516   1.326   5.621   3.699 -3.6902 -0.6427  1.7272
  170TIP3    H2  517   1.278   5.737   3.615 -1.6971 -0.6909  0.4449
  171TIP3   OH2  518   0.826   2.379   1.787 -0.6175  0.2865  0.3442
  171TIP3    H1  519   0.748   2.415   1.743 -0.3201  0.3593 -0.1267
  171TIP3    H2  520   0.839   2.294   1.746  0.6309  1.0341 -0.9074
  172TIP3   OH2  521   2.806   0.433   0.232  0.3724  0.0285 -0.7617
  172TIP3    H1  522   2.801   0.488   0.154  0.6991  1.0750 -0.0652
  172TIP3    H2  523   2.765   0.486   0.301 -0.1324 -0.9771 -0.2635
  173TIP3   OH2  524   4.168   3.575   4.429 -0.3156 -0.0819 -0.5844
  173TIP3    H1  525   4.198   3.526   4.352  0.0044 -1.5271  0.4272
  173TIP3    H2  526   4.183   3.666   4.406 -1.8530 -0.3410 -2.9292
  174TIP3   OH2  527   1.210   2.524   1.059 -0.1820 -0.3487  0.4857
  174TIP3    H1  528   1.159   2.509   0.980  0.2548 -0.2754  0.1841
  174TIP3    H2  529   1.174   2.605   1.096  0.2216  0.1324 -0.1493
  175TIP3   OH2  530   2.940   2.501   0.774 -0.0744 -0.1125  0.1991
  175TIP3    H1  531   2.897   2.415   0.774  1.1756 -0.7675  0.1536
  175TIP3    H2  532   2.869   2.563   0.762 -1.1484 -1.0680  1.2754
  176TIP3   OH2  533   4.571   0.789   3.318 -0.2855 -0.0047 -0.8346
  176TIP3    H1  534   4.536   0.855   3.378 -2.3431  0.2374 -2.1935
  176TIP3    H2  535   4.518   0.798   3.239  0.6414 -2.0284 -1.7614
  177TIP3   OH2  536   4.319   2.723   2.112 -0.4435  0.6480 -0.3932
  177TIP3    H1  537   4.283   2.753   2.195 -1.6703  1.3226 -1.1415
  177TIP3    H2  538   4.349   2.634   2.130 -2.0325  0.2322  0.4302
  178TIP3   OH2  539   5.029   3.677   1.868 -0.3819 -0.0168  0.2608
  178TIP3    H1  540   5.037   3.709   1.958  0.1536  1.1535 -0.1800
  178TIP3    H2  541   4.956   3.615   1.871  0.6850 -1.2789  1.8276
  179TIP3   OH2  542   1.677   0.511   0.339  0.4772 -0.0659  0.4542
  179TIP3    H1  543   1.685   0.508   0.243 -0.7295  1.1741  0.2806
  179TIP3    H2  544   1.583   0.520   0.355  0.3953 -2.5164  1.8752
  180TIP3   OH2  545   2.325   3.085   3.838  0.1745  0.5534 -0.8077
  180TIP3    H1  546   2.252   3.142   3.862  0.2792  0.6847 -0.8015
  180TIP3    H2  547   2.392   3.104   3.904 -0.3312 -0.6384  0.1022
  181TIP3   OH2  548   1.010   1.711   5.069  0.6405 -0.1655  0.3858
  181TIP3    H1  549   0.954   1.700   4.992  1.0819 -2.5330  0.3284
  181TIP3    H2  550   1.097   1.684   5.040  1.2756  0.9039  1.1926
  182TIP3   OH2  551   3.782   1.459   3.604  0.4812  0.1753 -0.0014
  182TIP3    H1  552   3.807   1.551   3.597  1.8149 -0.2033 -0.5978
  182TIP3    H2  553   3.863   1.414   3.628  0.5142 -1.1731 -2.3790
  183TIP3   OH2  554   3.583   4.891   0.790  0.8505 -0.3459 -0.1439
  183TIP3    H1  555   3.611   4.810   0.746 -0.6304 -1.3912  0.7466
  183TIP3    H2  556   3.491   4.901   0.766  0.7440  0.5256  0.5728
  184TIP3   OH2  557   5.844   0.934   1.852 -0.1232  0.7624  0.9701
  184TIP3    H1  558   5.868   0.845   1.827 -1.6473  0.3020  1.1041
  184TIP3    H2  559   5.918   0.987   1.822  1.9130 -0.7759  2.9447
  185TIP3   OH2  560   0.221   2.223   3.261  0.2440  0.3870 -0.7603
  185TIP3    H1  561   0.200   2.210   3.354  2.4936 -0.6042 -0.3246
  185TIP3    H2  562   0.148   2.182   3.214 -0.2595 -0.3235  0.5813
  186TIP3   OH2  563   5.006   1.432   1.038  0.1009 -0.2845  0.2852
  186TIP3    H1  564   4.996   1.507   0.980 -0.7541 -0.1213  0.6124
  186TIP3    H2  565   5.099   1.413   1.038  0.1540 -0.0917 -0.8804
  187TIP3   OH2  566   6.079   2.205   4.749  0.2140 -0.1036 -0.4020
  187TIP3    H1  567   6.071   2.274   4.815  1.1839 -0.1616 -0.2054
  187TIP3    H2  568   6.172   2.207   4.724 -0.3037  0.4985 -2.4097
  188TIP3   OH2  569   4.642   4.345   2.736  0.4067  0.4078 -0.3493
  188TIP3    H1  570   4.551   4.364   2.758  0.7327  1.1365  0.4174
  188TIP3    H2  571   4.636   4.276   2.670 -0.6546 -1.1947  1.3019
  189TIP3   OH2  572   0.661   4.587   0.995 -0.3159  0.0534  0.2178
  189TIP3    H1  573   0.717   4.581   1.072  0.8882  0.0229 -0.6284
  189TIP3    H2  574   0.589   4.644   1.022  0.2738  0.3474  1.2473
  190TIP3   OH2  575   4.243   2.761   1.159  0.1450  0.6349 -0.4864
  190TIP3    H1  576   4.234   2.836   1.099  0.1518  0.3711 -0.8187
  190TIP3    H2  577   4.245   2.685   1.101  1.5259  0.4617 -0.2504
  191TIP3   OH2  578   5.758   4.277   2.542 -0.0898 -0.3461 -0.1297
  191TIP3    H1  579   5.826   4.211   2.535 -1.2866 -1.7872  1.1833
  191TIP3    H2  580   5.739   4.283   2.636 -1.3715  0.4321 -0.4113
  192TIP3   OH2  581   0.177   5.728   2.538  0.2554  0.1582  0.1096
  192TIP3    H1  582   0.107   5.755   2.477 -0.5618  1.8715  1.6845
  192TIP3    H2  583   0.237   5.803   2.540 -0.3238  0.6408  2.1711
  193TIP3   OH2  584   0.886   4.815   3.637 -0.4953 -0.6354 -0.1804
  193TIP3    H1  585   0.827   4.877   3.680 -1.0672  0.8438 -2.8992
  193TIP3    H2  586   0.973   4.839   3.669 -1.0130 -0.6415  1.3070
  194TIP3   OH2  587   2.827   4.813   1.217 -0.2519 -0.4326 -0.0950
  194TIP3    H1  588   2.917   4.836   1.195 -0.0206 -0.9989  0.2426
  194TIP3    H2  589   2.785   4.797   1.132  0.1219 -0.7360 -0.2254
  195TIP3   OH2  590   1.682   0.522   2.126 -0.3563 -0.1472 -0.3383
  195TIP3    H1  591   1.742   0.458   2.166  0.9429 -0.1083 -2.1007
  195TIP3    H2  592   1.643   0.474   2.052 -2.4838 -0.1391  0.7223
  196TIP3   OH2  593   5.933   5.452   0.745 -0.0768  0.5094 -0.5328
  196TIP3    H1  594   5.949   5.510   0.820 -0.7020  0.8605 -0.6714
  196TIP3    H2  595   5.841   5.426   0.753  0.3869 -1.1312 -0.0109
  197TIP3   OH2  596   1.960   0.950   2.811 -0.2731  0.3670  0.3683
  197TIP3    H1  597   2.014   0.888   2.761 -0.2608  0.0959  0.7072
  197TIP3    H2  598   1.886   0.969   2.754  0.0680  0.5609 -0.0085
  198TIP3   OH2  599   6.058   3.400   4.434  0.3558 -0.1918 -0.3709
  198TIP3    H1  600   5.978   3.426   4.480  0.9079  0.5959  0.1914
  198TIP3    H2  601   6.068   3.466   4.365  1.5545  0.9052  0.8078
  199TIP3   OH2  602   2.278   3.014   1.119  0.3107 -0.5523  0.3181
  199TIP3    H1  603   2.269   3.092   1.065  1.9481 -1.5820 -1.5931
  199TIP3    H2  604   2.289   3.047   1.208 -2.2827  1.2129  0.0875
  200TIP3   OH2  605   0.780   0.539   3.259 -0.2048 -0.0741  0.4896
  200TIP3    H1  606   0.716   0.468   3.249  0.8069 -0.9439 -0.0587
  200TIP3    H2  607   0.787   0.552   3.353  0.5000 -1.5957  0.6815
  201TIP3   OH2  608   0.956   3.287   3.464 -0.0583  0.3825  0.2403
  201TIP3    H1  609   0.994   3.273   3.377  1.5400  2.2458  0.5559
  201TIP3    H2  610   0.968   3.203   3.509  1.7234  0.2232 -0.4353
  202TIP3   OH2  611   2.483   0.564   4.400 -0.5234  0.2592 -0.4698
  202TIP3    H1  612   2.574   0.556   4.428  0.2807 -0.2478 -2.9781
  202TIP3    H2  613   2.444   0.480   4.422  0.0392 -0.0757 -0.7169
  203TIP3   OH2  614   1.928   0.738   1.607 -0.6943 -0.1902  0.0240
  203TIP3    H1  615   1.953   0.705   1.520  1.1621  0.2868  0.3250
  203TIP3    H2  616   1.861   0.677   1.637 -0.0860 -1.4352 -1.0137
  204TIP3   OH2  617   5.245   1.464   3.849 -0.1107 -1.0316  0.1108
  204TIP3    H1  618   5.302   1.477   3.926 -0.8356 -0.7039  0.6027
  204TIP3    H2  619   5.290   1.510   3.778  0.2831 -0.8408  0.4744
  205TIP3   OH2  620   2.860   1.636   2.334 -0.0622 -0.2928 -0.4382
  205TIP3    H1  621   2.852   1.709   2.396 -0.6028  0.9926 -1.9579
  205TIP3    H2  622   2.950   1.604   2.347  1.7095  3.2530 -2.3943
  206TIP3   OH2  623   0.791   0.910   2.354 -0.4972  0.2297 -0.0498
  206TIP3    H1  624   0.776   1.005   2.345 -0.4226  0.2978  0.5198
  206TIP3    H2  625   0.868   0.903   2.411 -0.5221 -0.1756 -0.0634
  207TIP3   OH2  626   2.112   1.989   3.965 -0.3984  0.2000 -0.3520
  207TIP3    H1  627   2.034   1.943   3.994 -0.8164  1.7371  1.1218
  207TIP3    H2  628   2.097   2.080   3.989  1.0804  0.8579 -1.7061
  208TIP3   OH2  629   1.666   2.277   4.479  0.3483  0.1711  0.0618
  208TIP3    H1  630   1.677   2.229   4.397  0.8956 -0.7763  0.6731
  208TIP3    H2  631   1.703   2.220   4.546 -0.8033  0.5730  1.0876
  209TIP3   OH2  632   1.313   4.313   2.628  0.7012 -0.2146  0.0848
  209TIP3    H1  633   1.390   4.369   2.624  0.3118  0.5957  2.5714
  209TIP3    H2  634   1.271   4.335   2.710 -0.7965 -2.4803  0.0193
  210TIP3   OH2  635   1.574   5.869   0.141  0.4523  0.0592  0.1111
  210TIP3    H1  636   1.568   5.810   0.066 -0.6801 -0.8095  0.8503
  210TIP3    H2  637   1.489   5.860   0.185  0.6822  1.3967  0.8715
  211TIP3   OH2  638   4.306   0.671   1.586  0.0908  0.2798  0.1706
  211TIP3    H1  639   4.269   0.752   1.623  0.8308  0.0086  1.5753
  211TIP3    H2  640   4.256   0.601   1.628  0.2876 -0.0189 -0.0939
  212TIP3   OH2  641   0.945   5.178   4.184 -0.1360 -0.5768 -0.2772
  212TIP3    H1  642   0.902   5.256   4.150  0.3581  0.4826  1.4014
  212TIP3    H2  643   0.880   5.108   4.173 -0.7022  0.1209 -1.5086
  213TIP3   OH2  644   2.398   3.546   4.858 -0.4092 -0.2808 -0.2108
  213TIP3    H1  645   2.468   3.581   4.803 -0.3724  0.8471  0.5095
  213TIP3    H2  646   2.364   3.623   4.905  0.3697 -1.3340  2.2491
  214TIP3   OH2  647   4.250   3.842   4.776  0.2295  0.6947 -0.1397
  214TIP3    H1  648   4.264   3.912   4.713  1.5122 -0.0791 -0.7445
  214TIP3    H2  649   4.280   3.878   4.859  0.7653  0.8981 -0.4209
  215TIP3   OH2  650   6.074   0.885   4.500 -0.2247  0.0385 -0.0601
  215TIP3    H1  651   6.097   0.947   4.431 -0.5110 -0.2654 -0.4255
  215TIP3    H2  652   6.134   0.812   4.488 -1.0455 -0.5283 -0.6994
  216TIP3   OH2  653   1.774   1.352   4.163  0.6254  0.5851 -0.2377
  216TIP3    H1  654   1.761   1.442   4.131 -2.0972 -0.1845 -1.5658
  216TIP3    H2  655   1.755   1.297   4.088 -0.3592 -1.1800  1.2300
  217TIP3   OH2  656   4.973   3.278   0.739  0.4915 -0.8812  0.1982
  217TIP3    H1  657   4.903   3.328   0.780  0.4803 -0.9408  0.2517
  217TIP3    H2  658   5.044   3.341   0.727  1.2384 -1.3186  2.1235
  218TIP3   OH2  659   3.552   4.939   4.954  0.0372 -0.2893 -0.0310
  218TIP3    H1  660   3.572   4.853   4.992 -1.0165 -0.9740 -0.9195
  218TIP3    H2  661   3.513   4.918   4.869  0.6062  1.1195 -0.6637
  219TIP3   OH2  662   4.732   4.358   4.849  0.2063  0.4297 -0.3346
  219TIP3    H1  663   4.714   4.441   4.804  1.8624  1.1138  0.2026
  219TIP3    H2  664   4.825   4.343   4.835  0.2093 -0.6747  0.6993
  220TIP3   OH2  665   0.279   4.166   1.330 -0.6915  0.8253 -0.2081
  220TIP3    H1  666   0.331   4.198   1.256  0.2212  0.5357  0.3067
  220TIP3    H2  667   0.339   4.114   1.382 -1.3791  0.8635  0.6494
  221TIP3   OH2  668   1.157   5.372   4.691 -0.0600  0.1110  0.4133
  221TIP3    H1  669   1.200   5.342   4.611  2.0659  2.3463  0.5793
  221TIP3    H2  670   1.146   5.293   4.743 -0.0133 -1.1692 -1.4090
  222TIP3   OH2  671   5.424   2.319   1.831  0.5454  0.0737  0.3413
  222TIP3    H1  672   5.331   2.320   1.808  0.4837  0.6707  0.5964
  222TIP3    H2  673   5.425   2.290   1.923  0.7135 -1.2520 -0.0568
  223TIP3   OH2  674   5.241   4.188   0.660 -0.1951  0.2771  0.6826
  223TIP3    H1  675   5.292   4.202   0.580 -0.1944 -3.0381 -0.0551
  223TIP3    H2  676   5.157   4.155   0.629 -0.9583  0.9059  2.0229
  224TIP3   OH2  677   2.490   0.310   2.642 -0.8573 -0.5366 -0.5270
  224TIP3    H1  678   2.428   0.247   2.608 -0.7049 -0.3421 -1.1678
  224TIP3    H2  679   2.448   0.395   2.630 -1.1170 -0.5160  0.4480
  225TIP3   OH2  680   5.979   4.058   0.976 -0.6755 -0.4141 -0.4112
  225TIP3    H1  681   5.903   4.060   1.034 -0.3324  0.0659  0.0352
  225TIP3    H2  682   5.961   4.124   0.909 -0.1478  0.5506  0.3665
  226TIP3   OH2  683   5.140   4.821   1.454 -0.1530 -0.2684  0.2124
  226TIP3    H1  684   5.163   4.909   1.484 -1.5706  0.2831 -0.2540
  226TIP3    H2  685   5.224   4.777   1.444  0.8090  1.8167 -1.9576
  227TIP3   OH2  686   1.222   1.173   4.561  0.2695 -0.1537 -0.3072
  227TIP3    H1  687   1.295   1.129   4.604 -0.1126 -2.3327 -1.7129
  227TIP3    H2  688   1.262   1.248   4.518  1.4370 -0.5139  0.1018
  228TIP3   OH2  689   5.750   2.820   4.511  0.6913 -0.2421  0.2150
  228TIP3    H1  690   5.761   2.901   4.560 -0.2395  0.1838 -0.2705
  228TIP3    H2  691   5.660   2.792   4.529 -0.3852  0.9390 -2.6928
  229TIP3   OH2  692   3.777   5.425   0.090 -0.0035  0.0767  0.2860
  229TIP3    H1  693   3.867   5.394   0.090 -0.4188 -1.3173 -1.3505
  229TIP3    H2  694   3.774   5.490   0.019 -0.5890 -1.0515 -0.7690
  230TIP3   OH2  695   5.862   1.198   3.877 -0.3525  0.1645 -0.6245
  230TIP3    H1  696   5.914   1.278   3.883 -1.7017  1.0143  0.3906
  230TIP3    H2  697   5.926   1.127   3.874  0.8700  1.2724 -1.6957
  231TIP3   OH2  698   1.929   4.331   1.650 -0.3967  0.7716 -0.3386
  231TIP3    H1  699   1.839   4.357   1.634 -1.0359 -0.6374  0.7647
  231TIP3    H2  700   1.937   4.324   1.745  0.2147 -1.2073 -0.4809
  232TIP3   OH2  701   1.701   2.679   2.045  0.3475  0.8206  0.6586
  232TIP3    H1  702   1.608   2.668   2.063 -0.2343 -2.0956 -2.8324
  232TIP3    H2  703   1.745   2.641   2.121 -1.3775  0.0575  1.3336
  233TIP3   OH2  704   3.101   0.523   0.182  0.1199 -0.2679  0.4780
  233TIP3    H1  705   3.042   0.591   0.214 -0.0665 -0.0608 -0.2765
  233TIP3    H2  706   3.046   0.445   0.173  0.3990 -0.6275  1.6378
  234TIP3   OH2  707   1.228   2.906   3.235  0.0914  0.2666 -0.6334
  234TIP3    H1  708   1.293   2.920   3.304  0.9231 -1.3242 -1.0346
  234TIP3    H2  709   1.168   2.840   3.271 -0.6517  0.8971 -0.6935
  235TIP3   OH2  710   1.821   3.460   3.423  0.6861  0.0574 -0.4837
  235TIP3    H1  711   1.740   3.490   3.382 -0.3093  1.5924  2.3774
  235TIP3    H2  712   1.888   3.519   3.389  0.0814  0.6456 -0.6651
  236TIP3   OH2  713   6.076   3.052   2.776  0.5502  0.3837 -0.4410
  236TIP3    H1  714   6.020   3.084   2.705 -1.7649 -0.3544  0.9390
  236TIP3    H2  715   6.043   2.964   2.795 -0.0962  1.1739  2.6357
  237TIP3   OH2  716   4.864   0.722   1.851  0.0827 -0.1696 -0.4549
  237TIP3    H1  717   4.880   0.800   1.799 -0.2983  0.1581 -0.0932
  237TIP3    H2  718   4.800   0.672   1.801  0.2932 -0.2292 -0.6649
  238TIP3   OH2  719   1.550   3.795   4.526 -0.0703  0.6777 -0.2718
  238TIP3    H1  720   1.621   3.765   4.583 -0.8236  0.5476  0.6153
  238TIP3    H2  721   1.548   3.890   4.537  0.0506  0.6959 -0.4024
  239TIP3   OH2  722   1.740   0.264   2.285  0.0105  0.3949  0.0490
  239TIP3    H1  723   1.767   0.213   2.209 -0.6187  0.0846  0.0277
  239TIP3    H2  724   1.814   0.258   2.346  0.7830  1.1608 -0.7740
  240TIP3   OH2  725   1.830   1.160   0.257 -0.1924  0.3848  0.0099
  240TIP3    H1  726   1.752   1.148   0.312  0.9219 -0.8437  1.4140
  240TIP3    H2  727   1.818   1.097   0.186 -0.1747 -0.3168  0.6085
  241TIP3   OH2  728   2.687   1.722   0.911  0.2296 -0.2051  0.3542
  241TIP3    H1  729   2.760   1.704   0.851  0.5942  0.7346  0.5102
  241TIP3    H2  730   2.609   1.718   0.855  0.4864 -0.1981 -0.0069
  242TIP3   OH2  731   1.135   0.733   3.703  0.6380  0.2666 -0.1687
  242TIP3    H1  732   1.042   0.749   3.721 -0.1383 -4.1265  0.8340
  242TIP3    H2  733   1.179   0.755   3.785 -0.3879 -2.4906  1.2486
  243TIP3   OH2  734   3.126   2.260   0.698  0.0976 -0.5756 -0.3790
  243TIP3    H1  735   3.098   2.236   0.610  0.9264 -0.6280 -0.6441
  243TIP3    H2  736   3.151   2.353   0.691  1.3536 -0.8984 -0.5307
  244TIP3   OH2  737   4.446   2.812   4.336  0.4042 -0.7040 -0.0388
  244TIP3    H1  738   4.477   2.890   4.290  0.0676 -0.3088  0.3941
  244TIP3    H2  739   4.353   2.830   4.355 -0.2087 -1.9878 -1.5845
  245TIP3   OH2  740   2.357   0.545   3.475  0.3960  0.2986  0.5187
  245TIP3    H1  741   2.403   0.528   3.557  0.4507 -0.2888  0.3719
  245TIP3    H2  742   2.375   0.468   3.421 -0.2549  0.3391  0.2305
  246TIP3   OH2  743   0.330   0.508   3.347 -0.2413 -0.8690 -0.0103
  246TIP3    H1  744   0.240   0.517   3.377 -0.1748 -3.1172  1.0620
  246TIP3    H2  745   0.345   0.585   3.292 -2.6011 -0.1438  0.2623
  247TIP3   OH2  746   3.946   5.543   1.012  0.2254  0.4901  0.2709
  247TIP3    H1  747   3.931   5.632   1.045 -0.3728  1.4557 -2.3866
  247TIP3    H2  748   3.859   5.504   1.009  0.6062 -0.7104  2.5761
  248TIP3   OH2  749   1.623   5.312   3.730 -0.0871  0.6831  0.0128
  248TIP3    H1  750   1.607   5.233   3.679  0.2802  0.4989  0.1807
  248TIP3    H2  751   1.717   5.311   3.746 -0.0323  1.3158 -0.2497
  249TIP3   OH2  752   0.695   1.049   3.095  0.4680 -0.3181 -0.8969
  249TIP3    H1  753   0.635   1.103   3.042  0.5017  0.3817 -0.2442
  249TIP3    H2  754   0.652   0.964   3.099  0.1570 -0.2025 -1.5198
  250TIP3   OH2  755   0.201   0.124   3.177 -0.3581 -0.6616 -0.1442
  250TIP3    H1  756   0.273   0.186   3.174 -0.3149 -0.6771  0.4158
  250TIP3    H2  757   0.242   0.038   3.174 -0.3259 -0.6744  0.5584
  251TIP3   OH2  758   4.878   3.103   0.050  0.0762 -0.8285 -0.1203
  251TIP3    H1  759   4.811   3.108   0.119 -0.6397 -0.8940 -0.7983
  251TIP3    H2  760   4.885   3.010   0.030  1.6726 -1.0320  1.1740
  252TIP3   OH2  761   1.659   5.030   0.973  0.2045  0.3997  0.4731
  252TIP3    H1  762   1.643   4.940   1.003  1.0412  0.5572  1.4451
  252TIP3    H2  763   1.577   5.076   0.992 -0.0057 -0.0041  0.5613
  253TIP3   OH2  764   5.069   2.769   1.715 -0.1279  0.0550  0.4959
  253TIP3    H1  765   5.125   2.700   1.679 -0.2495 -0.6150  1.5417
  253TIP3    H2  766   5.092   2.772   1.808  0.4649  2.0049  0.3313
  254TIP3   OH2  767   4.168   0.360   0.892 -0.5200 -0.4147  0.2670
  254TIP3    H1  768   4.090   0.392   0.847 -0.9912 -1.2385  0.4825
  254TIP3    H2  769   4.197   0.285   0.840 -0.1037 -0.3541  0.4094
  255TIP3   OH2  770   5.037   0.745   0.682 -0.7655 -0.0285 -0.1311
  255TIP3    H1  771   5.078   0.753   0.596 -1.4327  1.7525 -0.3283
  255TIP3    H2  772   4.972   0.675   0.671 -0.9839  0.3090 -1.1505
  256TIP3   OH2  773   2.594   1.916   2.591 -0.4074  0.1434  0.1361
  256TIP3    H1  774   2.550   1.891   2.510 -1.1248 -1.5540  1.0035
  256TIP3    H2  775   2.524   1.939   2.651  0.1677  2.9689 -0.1291
  257TIP3   OH2  776   1.817   5.701   1.902 -0.3345  0.1893  0.0426
  257TIP3    H1  777   1.868   5.620   1.896  0.4924  0.6524  0.6638
  257TIP3    H2  778   1.725   5.672   1.902 -0.0487 -0.7337  0.1275
  258TIP3   OH2  779   2.205   1.992   2.991 -0.6540 -0.4260  0.5743
  258TIP3    H1  780   2.111   1.975   3.000 -0.7802 -0.7218 -1.0165
  258TIP3    H2  781   2.211   2.086   2.975 -0.8056 -0.5974 -0.5752
  259TIP3   OH2  782   1.586   5.904   5.078 -0.0246 -0.0835  0.0423
  259TIP3    H1  783   1.578   5.824   5.026  0.5398 -0.3119  0.2975
  259TIP3    H2  784   1.600   5.873   5.167  1.4789  0.2681 -0.0365
  260TIP3   OH2  785   3.584   4.544   4.751 -0.3050 -0.4580 -0.0128
  260TIP3    H1  786   3.580   4.457   4.710 -1.0574 -0.0448 -0.8556
  260TIP3    H2  787   3.549   4.530   4.839 -0.6800 -0.9637 -0.2352
  261TIP3   OH2  788   0.833   0.823   1.960 -0.4691  0.7698 -0.4597
  261TIP3    H1  789   0.871   0.778   1.885 -1.9226  0.0526 -0.8116
  261TIP3    H2  790   0.764   0.877   1.923 -2.3905 -0.8999  0.4479
  262TIP3   OH2  791  -0.005   3.991   4.201  0.2082  0.1735 -0.1417
  262TIP3    H1  792  -0.036   4.025   4.117 -0.1727  2.0422  0.6874
  262TIP3    H2  793   0.082   3.955   4.182  0.0299  0.3491 -1.3729
  263TIP3   OH2  794   4.050   5.107   0.815 -0.5067 -0.4901 -0.3694
  263TIP3    H1  795   3.961   5.127   0.785 -0.2338  0.5685 -0.5317
  263TIP3    H2  796   4.092   5.066   0.740 -0.8290 -0.9313 -0.3147
  264TIP3   OH2  797   1.196   1.639   0.337 -0.0537 -0.3727 -0.2020
  264TIP3    H1  798   1.182   1.604   0.249  0.7990  0.5769 -0.7433
  264TIP3    H2  799   1.274   1.695   0.328 -0.5028  0.4797  0.9455
  265TIP3   OH2  800   1.969   1.661   0.717 -0.0890 -0.1681  0.7191
  265TIP3    H1  801   1.915   1.631   0.790 -2.2020  0.7645 -0.3657
  265TIP3    H2  802   1.982   1.583   0.663  0.3579 -0.5717  1.3976
  266TIP3   OH2  803   5.799   0.004   4.747  0.3497  0.9041 -0.2813
  266TIP3    H1  804   5.784   0.022   4.654  0.4158  1.5130 -0.1748
  266TIP3    H2  805   5.799   0.090   4.789 -0.8588  0.5586  0.4669
  267TIP3   OH2  806   3.564   5.151   0.910  0.5259 -0.2600 -0.2315
  267TIP3    H1  807   3.572   5.056   0.907 -0.6850 -0.3701 -1.9705
  267TIP3    H2  808   3.506   5.169   0.983  0.7917 -0.8560  0.1248
  268TIP3   OH2  809   1.296   5.238   4.499  0.0958 -0.1702  0.6245
  268TIP3    H1  810   1.318   5.148   4.523 -1.8006 -1.0675 -0.6546
  268TIP3    H2  811   1.362   5.263   4.435  0.2945 -0.8971  0.5375
  269TIP3   OH2  812   5.642   1.393   0.618  0.6405 -0.1522 -0.3353
  269TIP3    H1  813   5.716   1.419   0.563  0.8114 -2.1459 -1.1137
  269TIP3    H2  814   5.580   1.465   0.609  2.4366  1.5851  0.3502
  270TIP3   OH2  815   3.730   4.775   2.817 -0.1434 -0.6808  0.1478
  270TIP3    H1  816   3.661   4.841   2.827 -0.9479 -1.3370 -0.8324
  270TIP3    H2  817   3.795   4.798   2.883 -0.4157  1.0699 -0.1507
  271TIP3   OH2  818   4.745   4.792   0.748  0.0693 -0.4124 -1.2396
  271TIP3    H1  819   4.805   4.797   0.822 -0.6928 -0.0686 -0.6287
  271TIP3    H2  820   4.739   4.698   0.729  0.9789 -0.4286 -1.4650
  272TIP3   OH2  821   4.451   0.802   4.846  0.1259 -0.3554  0.2235
  272TIP3    H1  822   4.494   0.720   4.822 -0.3890 -0.8012  0.7913
  272TIP3    H2  823   4.371   0.775   4.890 -0.0359  0.4592  0.4489
  273TIP3   OH2  824   5.165   1.147   4.414 -0.2842 -0.7127 -0.1185
  273TIP3    H1  825   5.162   1.222   4.354 -1.5431 -0.1777  0.5802
  273TIP3    H2  826   5.215   1.178   4.489  0.9663 -1.2644 -0.6821
  274TIP3   OH2  827   0.799   3.908   0.246  0.1033 -0.0046 -0.3929
  274TIP3    H1  828   0.804   3.991   0.292 -0.1737  1.1078 -2.2591
  274TIP3    H2  829   0.867   3.854   0.287  0.4994  1.2385  0.6595
  275TIP3   OH2  830   3.701   4.652   2.099 -0.2651  0.1928 -0.1890
  275TIP3    H1  831   3.688   4.672   2.007  1.2547  0.0555 -0.4535
  275TIP3    H2  832   3.757   4.722   2.132 -0.5302  0.0673  0.5638
  276TIP3   OH2  833   1.671   1.768   3.048 -0.5703  0.0244  0.1206
  276TIP3    H1  834   1.659   1.720   2.966  0.4039  1.1888 -0.7362
  276TIP3    H2  835   1.640   1.856   3.030  1.9271  0.9916  0.1821
  277TIP3   OH2  836   5.741   4.365   0.139 -0.6368  0.0712 -0.8476
  277TIP3    H1  837   5.779   4.318   0.065 -1.1285  1.1467 -1.8163
  277TIP3    H2  838   5.646   4.357   0.126 -0.7502 -0.9817  0.4907
  278TIP3   OH2  839   2.068   0.811   2.585  0.7489  0.3318  0.0980
  278TIP3    H1  840   2.031   0.755   2.517  2.3705 -0.5526 -0.0976
  278TIP3    H2  841   2.089   0.893   2.540 -2.8991  1.7681  0.6630
  279TIP3   OH2  842   5.253   1.695   1.221  0.0726  0.2593  0.2352
  279TIP3    H1  843   5.320   1.762   1.234 -0.0771  0.4357  0.1207
  279TIP3    H2  844   5.298   1.612   1.235  0.7952  0.2706 -1.6681
  280TIP3   OH2  845   1.066   0.118   3.683  0.1312 -0.5092  0.2532
  280TIP3    H1  846   1.157   0.141   3.667  0.5472 -0.1056  2.7157
  280TIP3    H2  847   1.057   0.029   3.650  1.6649 -0.8594  0.7014
  281TIP3   OH2  848   3.191   1.966   3.765 -0.4938  0.3863  0.5260
  281TIP3    H1  849   3.245   1.913   3.707 -0.7664  0.0690  0.5601
  281TIP3    H2  850   3.106   1.972   3.721 -0.2673  1.3684  0.1945
  282TIP3   OH2  851   3.766   1.647   2.837  0.3762 -0.6567  0.0052
  282TIP3    H1  852   3.726   1.731   2.861 -1.1298 -1.2889 -0.1919
  282TIP3    H2  853   3.826   1.669   2.766  0.4186  0.3333  0.3245
  283TIP3   OH2  854   4.005   5.934   0.917 -0.3279  0.0926 -0.5343
  283TIP3    H1  855   3.982   5.999   0.850 -2.1886  0.2685  0.1923
  283TIP3    H2  856   3.982   5.850   0.878  1.1442 -0.0758 -1.0985
  284TIP3   OH2  857   5.792   2.697   5.093  0.1212  0.3928  0.1202
  284TIP3    H1  858   5.776   2.641   5.017  0.5131 -0.7564  0.8592
  284TIP3    H2  859   5.855   2.763   5.061 -0.7992  0.8087 -0.9176
  285TIP3   OH2  860   5.729   4.034   3.889  0.3942  0.1565  0.3017
  285TIP3    H1  861   5.638   4.039   3.859  0.6059 -0.1272 -0.3966
  285TIP3    H2  862   5.779   4.010   3.811  0.8568 -1.3531  1.0185
  286TIP3   OH2  863   3.625   2.085   1.730  0.2292 -0.4161  0.5577
  286TIP3    H1  864   3.638   2.006   1.783 -0.9596 -1.2688 -0.3662
  286TIP3    H2  865   3.536   2.076   1.696  1.0178 -0.0149 -1.7650
  287TIP3   OH2  866   5.185   2.308   4.890  0.3176  0.1854  0.0101
  287TIP3    H1  867   5.189   2.216   4.916 -0.5828 -0.5066 -2.0667
  287TIP3    H2  868   5.097   2.336   4.915  0.6013  0.5152  0.6688
  288TIP3   OH2  869   5.469   5.882   2.457  0.1126 -0.6508  0.0302
  288TIP3    H1  870   5.433   5.793   2.453 -1.4941  0.0029 -1.7083
  288TIP3    H2  871   5.422   5.924   2.528 -1.5382 -0.2892 -1.2002
  289TIP3   OH2  872   0.360   3.394   0.061 -0.1366 -0.0830 -0.0123
  289TIP3    H1  873   0.359   3.467   0.124  1.0206  0.7407 -0.8940
  289TIP3    H2  874   0.270   3.363   0.058 -0.2189 -0.1749  2.0637
  290TIP3   OH2  875   4.364   0.323   0.263  0.0542 -0.2032  0.3968
  290TIP3    H1  876   4.323   0.241   0.235 -0.0249 -0.5619  1.5265
  290TIP3    H2  877   4.295   0.388   0.254 -0.3814 -0.5650  1.0420
  291TIP3   OH2  878   3.572   4.946   0.217  0.1713  0.0537  0.0929
  291TIP3    H1  879   3.654   4.901   0.234  1.0731  1.1837 -1.0704
  291TIP3    H2  880   3.522   4.884   0.163 -0.0710 -0.9186  1.3766
  292TIP3   OH2  881   2.772   0.612   1.726 -0.1900  0.5260 -0.8101
  292TIP3    H1  882   2.803   0.533   1.771  0.1339  0.1166 -1.7318
  292TIP3    H2  883   2.677   0.605   1.730 -0.2492  1.5648  1.6416
  293TIP3   OH2  884   3.333   1.230   0.910  0.4359  0.1092 -0.5560
  293TIP3    H1  885   3.428   1.236   0.918  0.4455  0.4108 -0.8868
  293TIP3    H2  886   3.312   1.278   0.830  0.0086  0.0127 -0.5053
  294TIP3   OH2  887   0.349   2.332   4.295 -0.3270  0.2448  0.0796
  294TIP3    H1  888   0.283   2.332   4.225  1.0586 -0.1210 -1.2757
  294TIP3    H2  889   0.404   2.256   4.276 -1.1083 -1.1005  2.7805
  295TIP3   OH2  890   1.316   2.823   0.183  0.6457 -0.2501  0.1152
  295TIP3    H1  891   1.240   2.768   0.163  0.2012 -0.1785  1.5261
  295TIP3    H2  892   1.296   2.863   0.267  3.1194 -1.8935  1.6228
  296TIP3   OH2  893   2.949   3.689   1.824 -0.2198 -0.3847 -0.5348
  296TIP3    H1  894   3.029   3.679   1.875  1.3026  0.8695 -2.5380
  296TIP3    H2  895   2.906   3.767   1.861  0.7705  0.3987 -0.9874
  297TIP3   OH2  896   1.922   4.522   0.897  0.3631 -0.4620  0.7624
  297TIP3    H1  897   1.897   4.614   0.909  0.9861  0.4339 -3.3176
  297TIP3    H2  898   1.874   4.476   0.966 -1.6020  2.6787  1.7506
  298TIP3   OH2  899   2.788   2.278   0.734 -0.6362  0.5420  0.3377
  298TIP3    H1  900   2.764   2.223   0.809  1.7807  0.2837  0.9996
  298TIP3    H2  901   2.842   2.221   0.678  0.1191  1.6028 -0.0556
  299TIP3   OH2  902   0.259   5.075   2.189 -0.9076  0.3354  0.2168
  299TIP3    H1  903   0.255   5.168   2.212  3.2505  0.7198  0.2059
  299TIP3    H2  904   0.234   5.029   2.269  1.9586  1.6172  1.9913
  300TIP3   OH2  905   5.328   3.336   3.430 -0.0733  0.3849  0.1220
  300TIP3    H1  906   5.335   3.422   3.388 -1.9043 -0.0084 -1.1021
  300TIP3    H2  907   5.336   3.354   3.523  0.5640  1.7458 -0.1714
  301TIP3   OH2  908   3.191   1.855   1.921  0.1642 -0.2163 -0.1425
  301TIP3    H1  909   3.205   1.902   2.002  3.6491 -1.3442  0.0378
  301TIP3    H2  910   3.118   1.795   1.940  1.0138 -0.5792  2.2132
  302TIP3   OH2  911   2.534   4.486   4.406 -0.0832  0.1333 -0.2405
  302TIP3    H1  912   2.626   4.467   4.427 -0.1225  0.0719 -0.1238
  302TIP3    H2  913   2.517   4.571   4.447  0.3776  0.8996 -1.5924
  303TIP3   OH2  914   1.553   0.420   4.961 -0.0804  0.2827  0.6509
  303TIP3    H1  915   1.490   0.425   4.889 -1.2996 -0.3370  1.6298
  303TIP3    H2  916   1.626   0.475   4.933 -0.1593 -0.5529 -1.3896
  304TIP3   OH2  917   0.262   4.876   5.198  0.5165  0.2643  0.2485
  304TIP3    H1  918   0.232   4.932   5.126 -1.0086 -0.3897  0.3337
  304TIP3    H2  919   0.213   4.794   5.187  1.9629 -0.7067  0.7038
  305TIP3   OH2  920   1.468   3.409   4.610 -0.2148  0.6329 -0.2939
  305TIP3    H1  921   1.468   3.357   4.530  0.7857  0.2296 -0.0452
  305TIP3    H2  922   1.519   3.357   4.672  0.1252  1.5365  0.1999
  306TIP3   OH2  923   5.585   0.286   0.309 -0.0514  0.0669  0.1246
  306TIP3    H1  924   5.634   0.334   0.242  0.6103  0.9242  1.1773
  306TIP3    H2  925   5.652   0.236   0.356 -0.6614 -1.4636 -0.5742
  307TIP3   OH2  926   5.530   5.605   1.871  0.2582  0.1279  0.6725
  307TIP3    H1  927   5.508   5.696   1.850 -0.2362 -0.3700 -1.1553
  307TIP3    H2  928   5.486   5.588   1.954 -0.8771  1.1126  0.2964
  308TIP3   OH2  929   0.957   0.411   2.279  0.1253 -0.2041  0.2411
  308TIP3    H1  930   0.935   0.475   2.211 -2.8302 -1.3464 -0.0428
  308TIP3    H2  931   0.959   0.462   2.360  2.4231  0.9535 -0.4688
  309TIP3   OH2  932   1.622   4.748   1.409 -0.1945  0.0125 -0.2397
  309TIP3    H1  933   1.592   4.746   1.500 -0.7033 -1.6281 -0.4136
  309TIP3    H2  934   1.715   4.730   1.414  0.0293  1.1460  0.0187
  310TIP3   OH2  935   4.468   2.468   2.173  0.1291  0.0479 -0.3438
  310TIP3    H1  936   4.394   2.409   2.188 -0.9350  1.4085 -0.0862
  310TIP3    H2  937   4.512   2.432   2.095  0.0529 -1.5804  0.3401
  311TIP3   OH2  938   3.368   4.365   1.857  0.0163 -0.2775  0.6785
  311TIP3    H1  939   3.336   4.453   1.840  0.1718 -0.5810 -1.5213
  311TIP3    H2  940   3.310   4.330   1.925 -0.9913  0.9759  0.4859
  312TIP3   OH2  941   4.814   3.820   3.838  0.4678 -0.1661  0.5523
  312TIP3    H1  942   4.783   3.849   3.924  1.0344 -0.5903  0.9054
  312TIP3    H2  943   4.897   3.777   3.856  1.1126  0.6633 -0.3385
  313TIP3   OH2  944   4.720  -0.009   0.347  0.0564  0.4690  0.5356
  313TIP3    H1  945   4.755   0.033   0.268  2.1455 -1.5634  0.2639
  313TIP3    H2  946   4.680   0.063   0.397  0.4514  2.1480 -1.4164
  314TIP3   OH2  947   4.531   1.778   4.972  0.3547 -0.3960  0.1593
  314TIP3    H1  948   4.447   1.820   4.987  0.0050 -0.7106 -0.8617
  314TIP3    H2  949   4.539   1.771   4.877  0.7998 -1.8068  0.2715
  315TIP3   OH2  950   4.417   2.058   2.189 -0.0345 -0.1011 -0.0318
  315TIP3    H1  951   4.377   2.140   2.218  0.5251 -0.1212  0.8076
  315TIP3    H2  952   4.482   2.037   2.256  1.2010 -0.2196 -1.2349
  316TIP3   OH2  953   0.499   5.374   4.328  0.0896 -0.4068 -0.3534
  316TIP3    H1  954   0.423   5.371   4.387 -0.8431  0.4288 -1.4483
  316TIP3    H2  955   0.478   5.310   4.260  0.4443 -0.2747 -0.5858
  317TIP3   OH2  956   2.266   0.438   4.727  0.0876  0.2346 -0.0046
  317TIP3    H1  957   2.268   0.359   4.781 -1.2188  1.3865  1.8355
  317TIP3    H2  958   2.357   0.468   4.725  0.1948  0.0549  1.3988
  318TIP3   OH2  959   0.719   2.774   0.356  0.1830  0.1404 -0.3401
  318TIP3    H1  960   0.680   2.690   0.334  1.8643 -0.5165 -0.9693
  318TIP3    H2  961   0.648   2.823   0.397 -2.1376 -0.0013 -3.7057
  319TIP3   OH2  962   5.643   2.482   3.963 -0.4502  0.0285  0.1871
  319TIP3    H1  963   5.551   2.494   3.941 -0.5821  0.7802  1.0880
  319TIP3    H2  964   5.691   2.512   3.886 -0.9649 -0.5031 -0.3366
  320TIP3   OH2  965   1.429   4.174   4.400  0.0418  0.4820  0.3290
  320TIP3    H1  966   1.506   4.119   4.384  1.3568  2.0120  1.0754
  320TIP3    H2  967   1.384   4.177   4.316 -1.2147 -3.2526  0.6640
  321TIP3   OH2  968   0.471   3.328   3.683 -0.0040  0.1740  0.4024
  321TIP3    H1  969   0.438   3.296   3.766 -1.4629 -1.6100 -0.7937
  321TIP3    H2  970   0.403   3.387   3.651  0.3853  0.5749  0.2957
  322TIP3   OH2  971   4.901   2.836   2.085  0.6177 -0.2281  0.7916
  322TIP3    H1  972   4.974   2.798   2.036 -0.8228 -1.4898 -0.4769
  322TIP3    H2  973   4.894   2.926   2.052  0.9500 -0.4238  0.1721
  323TIP3   OH2  974   0.158   2.866   0.573  0.2017  0.1359  0.2526
  323TIP3    H1  975   0.078   2.843   0.526  1.1244 -0.0178 -1.3344
  323TIP3    H2  976   0.209   2.918   0.510  0.2469  2.5182  2.0993
  324TIP3   OH2  977   5.065   3.798   4.753 -0.5156  0.0760 -0.0149
  324TIP3    H1  978   5.045   3.868   4.692  0.5563 -0.3606 -0.8985
  324TIP3    H2  979   5.087   3.723   4.697 -0.5810 -0.6436  0.9033
  325TIP3   OH2  980   2.323   1.282   3.971  0.3531 -0.1501  0.0930
  325TIP3    H1  981   2.396   1.222   3.954 -1.1616 -2.3629  0.9619
  325TIP3    H2  982   2.283   1.296   3.885 -0.3526 -1.9084  0.1025
  326TIP3   OH2  983   2.683   4.720   0.979 -0.6250 -0.5020 -0.0517
  326TIP3    H1  984   2.645   4.669   1.052 -0.0420 -0.5304  0.2405
  326TIP3    H2  985   2.613   4.780   0.953 -0.3064  0.7031  1.6687
  327TIP3   OH2  986   4.582   2.609   4.226  0.0631 -0.1307 -0.4852
  327TIP3    H1  987   4.540   2.684   4.267 -1.0015 -1.4909  1.0216
  327TIP3    H2  988   4.643   2.576   4.291  0.4391 -0.6467 -1.0813
  328TIP3   OH2  989   4.545   1.813   2.852  0.3594 -0.0732 -0.4796
  328TIP3    H1  990   4.486   1.740   2.868 -0.2296  0.5808  0.4689
  328TIP3    H2  991   4.608   1.780   2.787 -0.7172 -0.9558 -1.1105
  329TIP3   OH2  992   2.319   4.245   4.562  0.3420  0.6031 -0.5630
  329TIP3    H1  993   2.257   4.173   4.568  1.2935 -0.2459 -0.7176
  329TIP3    H2  994   2.347   4.261   4.652 -0.4210  1.2818 -0.4402
  330TIP3   OH2  995   2.682   2.968   0.280 -0.1292 -0.2116 -0.0659
  330TIP3    H1  996   2.742   3.033   0.316 -0.5683  0.3841 -0.3935
  330TIP3    H2  997   2.608   2.968   0.342  0.0479 -0.6797  0.1435
  331TIP3   OH2  998   1.575   5.461   0.976 -0.0917  0.2168 -0.5086
  331TIP3    H1  999   1.500   5.472   0.918 -2.0441  1.9772  2.1339
  331TIP3    H2 1000   1.552   5.386   1.032 -0.3524  1.3110  0.9011
  332TIP3   OH2 1001   0.725   5.486   5.057 -0.3372  0.0953 -0.5024
  332TIP3    H1 1002   0.686   5.572   5.039  1.0941  0.4122 -2.2783
  332TIP3    H2 1003   0.710   5.435   4.977  3.0080  0.3095 -1.3933
  333TIP3   OH2 1004   4.162   1.517   3.866  0.6534  0.1936 -0.1933
  333TIP3    H1 1005   4.137   1.473   3.947  0.0623  1.6127  0.4409
  333TIP3    H2 1006   4.257   1.526   3.870  0.7573 -0.7982 -0.2386
  334TIP3   OH2 1007   4.372   4.349   3.814  0.3697 -0.9678  0.4078
  334TIP3    H1 1008   4.405   4.342   3.903 -0.0100  1.7246  0.8356
  334TIP3    H2 1009   4.295   4.405   3.821  0.8446  0.0416 -1.7075
  335TIP3   OH2 1010   2.268   1.472   3.316  0.0089  0.0426 -0.0861
  335TIP3    H1 1011   2.219   1.471   3.399  1.0717  0.3653  0.5595
  335TIP3    H2 1012   2.314   1.556   3.317  1.6560 -0.8294 -0.0272
  336TIP3   OH2 1013   5.764   0.930   3.264  0.0655  0.3470  0.0410
  336TIP3    H1 1014   5.838   0.964   3.213 -1.2450  2.0919 -0.7994
  336TIP3    H2 1015   5.802   0.901   3.346  1.6518  1.4231 -0.2770
  337TIP3   OH2 1016   5.172   5.845   0.428 -0.1693  0.0079  0.1458
  337TIP3    H1 1017   5.081   5.871   0.412 -0.6879 -1.3886  0.7324
  337TIP3    H2 1018   5.217   5.928   0.446 -1.5717  0.6082  1.0647
  338TIP3   OH2 1019   3.339   2.693   2.388 -0.2911 -0.3638  0.4025
  338TIP3    H1 1020   3.257   2.677   2.342  0.0333 -1.3852  0.1485
  338TIP3    H2 1021   3.406   2.648   2.335  0.2953 -0.3221  1.0868
  339TIP3   OH2 1022   5.737   2.328   1.095  0.0605  0.3951  0.1856
  339TIP3    H1 1023   5.799   2.257   1.113 -0.1004 -0.3093 -1.7857
  339TIP3    H2 1024   5.788   2.408   1.110  0.2375 -0.0748  2.4614
  340TIP3   OH2 1025   2.932   4.689   3.507 -0.2473  0.1006 -0.1002
  340TIP3    H1 1026   3.012   4.655   3.468  0.4637  2.7114 -1.1333
  340TIP3    H2 1027   2.861   4.637   3.467  0.8247 -2.7848  1.4145
  341TIP3   OH2 1028   3.970   0.824   0.083  0.6129  0.4282  0.4969
  341TIP3    H1 1029   4.006   0.897   0.032  0.5628  0.1614  0.0774
  341TIP3    H2 1030   3.944   0.759   0.017 -2.1515  1.2687  0.6188
  342TIP3   OH2 1031   4.557   5.797   0.605  0.4235  0.0248 -0.0888
  342TIP3    H1 1032   4.503   5.857   0.656 -0.3323 -1.9425  1.5882
  342TIP3    H2 1033   4.630   5.775   0.663  0.8617 -0.4068 -0.7901
  343TIP3   OH2 1034   0.088   0.523   4.674 -0.2613 -0.2922 -0.0374
  343TIP3    H1 1035   0.025   0.488   4.736  0.5488 -1.0037  0.4010
  343TIP3    H2 1036   0.070   0.478   4.592  1.3716 -2.5302  0.7408
  344TIP3   OH2 1037   5.198   3.565   1.041 -0.1524  0.4114 -0.1550
  344TIP3    H1 1038   5.108   3.541   1.020  0.4657 -2.1055 -0.2205
  344TIP3    H2 1039   5.224   3.624   0.969 -1.5349  0.7167 -0.4363
  345TIP3   OH2 1040   2.887   4.807   0.106  0.2076 -0.0019  0.3788
  345TIP3    H1 1041   2.806   4.826   0.154  1.0580  0.3388  1.7437
  345TIP3    H2 1042   2.875   4.847   0.020 -1.3076 -0.4783  0.3401
  346TIP3   OH2 1043   2.214   1.481   1.288  0.0932  0.2900 -0.8719
  346TIP3    H1 1044   2.277   1.535   1.241  0.2914  0.2070 -0.7028
  346TIP3    H2 1045   2.176   1.540   1.353  1.0365 -0.0299 -0.0154
  347TIP3   OH2 1046   6.137   1.355   3.543  0.1549  0.0935  0.1162
  347TIP3    H1 1047   6.142   1.353   3.448 -0.6680  0.6678  0.0516
  347TIP3    H2 1048   6.189   1.430   3.569 -1.4643  1.3305 -0.0500
  348TIP3   OH2 1049   6.016   2.458   1.254 -0.0509  0.3810  0.4075
  348TIP3    H1 1050   5.984   2.546   1.273 -2.1036 -0.0575 -0.6916
  348TIP3    H2 1051   5.975   2.402   1.320 -1.7085 -0.1944 -1.0292
  349TIP3   OH2 1052   0.533   3.857   3.425  0.3391  0.3029 -0.8065
  349TIP3    H1 1053   0.466   3.872   3.357 -1.0900  1.7488  0.8250
  349TIP3    H2 1054   0.615   3.885   3.384 -0.4720  1.1273 -1.9625
  350TIP3   OH2 1055   1.399   1.799   3.654 -0.0193 -0.1788  0.0691
  350TIP3    H1 1056   1.479   1.749   3.639  0.4007 -0.2245  2.2079
  350TIP3    H2 1057   1.419   1.887   3.624  0.8153 -0.2046  0.5444
  351TIP3   OH2 1058   4.275   3.274   4.440 -0.7249 -0.1241  0.1387
  351TIP3    H1 1059   4.209   3.209   4.464 -0.6794 -0.5625 -0.8560
  351TIP3    H2 1060   4.358   3.228   4.452 -0.6068  0.3156  1.0630
  352TIP3   OH2 1061   5.026   3.902   3.209 -0.1782 -0.4639 -0.5082
  352TIP3    H1 1062   4.944   3.874   3.251  0.0561  0.8182  0.8679
  352TIP3    H2 1063   5.013   3.995   3.190  0.9098 -0.2892 -0.4351
  353TIP3   OH2 1064   0.179   0.783   1.679 -0.5991  0.3149  0.3673
  353TIP3    H1 1065   0.087   0.792   1.703 -1.1332 -1.9017 -0.5221
  353TIP3    H2 1066   0.197   0.858   1.622 -1.8258  0.8228  0.6280
  354TIP3   OH2 1067   2.099   3.862   1.251 -0.1088  0.3238  0.5589
  354TIP3    H1 1068   2.006   3.859   1.228  0.3569  0.7662 -1.6069
  354TIP3    H2 1069   2.119   3.955   1.257  0.1873  0.2292  1.0709
  355TIP3   OH2 1070   0.406   1.776   0.408 -0.3017 -0.6667  0.7428
  355TIP3    H1 1071   0.463   1.743   0.339  1.0168  2.2287  0.3041
  355TIP3    H2 1072   0.345   1.704   0.425 -0.2872 -1.7591 -2.9600
  356TIP3   OH2 1073   1.419   4.409   1.803 -0.0624  0.1173 -0.3129
  356TIP3    H1 1074   1.367   4.453   1.737 -1.3624 -1.7274 -0.5899
  356TIP3    H2 1075   1.403   4.459   1.884 -0.7352  0.6863 -0.7867
  357TIP3   OH2 1076   1.553   0.503   1.161  0.0261  0.1856  0.0648
  357TIP3    H1 1077   1.503   0.511   1.080  2.7560 -0.3175 -1.7901
  357TIP3    H2 1078   1.634   0.551   1.144  1.4578 -1.4749  1.8004
  358TIP3   OH2 1079   1.605   1.281   3.338  0.3038 -0.1243 -0.4303
  358TIP3    H1 1080   1.697   1.277   3.364 -0.1886  1.0155  1.6787
  358TIP3    H2 1081   1.593   1.207   3.279  2.8227  0.3407 -1.6416
  359TIP3   OH2 1082   0.557   5.548   2.420 -0.7579  0.0293 -0.1992
  359TIP3    H1 1083   0.560   5.639   2.388  2.8182  0.1085 -0.1082
  359TIP3    H2 1084   0.588   5.496   2.347 -1.4431 -0.9586  0.1988
  360TIP3   OH2 1085   1.495   5.479   2.157 -0.1009 -0.0695  0.8933
  360TIP3    H1 1086   1.558   5.424   2.204  0.8136  0.4695  0.3374
  360TIP3    H2 1087   1.432   5.417   2.120  0.5019 -0.6925  0.8842
  361TIP3   OH2 1088   5.110   4.311   2.602 -0.1342 -0.6412  0.3063
  361TIP3    H1 1089   5.035   4.332   2.657 -1.5815 -0.9340 -1.4764
  361TIP3    H2 1090   5.154   4.239   2.648  1.1228  1.7601  3.1287
  362TIP3   OH2 1091   5.156   1.845   4.787 -0.0879 -0.1065 -0.6558
  362TIP3    H1 1092   5.086   1.783   4.806 -1.2081  1.3498  0.2247
  362TIP3    H2 1093   5.111   1.920   4.747  0.6398  1.6395  1.5895
  363TIP3   OH2 1094   3.349   2.374   3.309  0.4992 -0.3308 -0.1569
  363TIP3    H1 1095   3.346   2.354   3.402  1.0013 -1.3338 -0.3407
  363TIP3    H2 1096   3.442   2.375   3.287  0.4601  1.2761 -0.3876
  364TIP3   OH2 1097   2.895   4.398   3.510 -0.3277  0.1079 -0.0213
  364TIP3    H1 1098   2.865   4.363   3.426  0.0969  0.5203 -0.3525
  364TIP3    H2 1099   2.816   4.426   3.555 -0.6972 -1.4242  0.3271
  365TIP3   OH2 1100   2.379   3.288   4.960  0.0527 -0.3314 -0.1234
  365TIP3    H1 1101   2.293   3.253   4.983  0.3527 -1.8586 -1.1558
  365TIP3    H2 1102   2.362   3.378   4.930 -0.7214  0.5771  2.7691
  366TIP3   OH2 1103   4.093   5.823   1.324 -0.0104 -0.4337  0.3630
  366TIP3    H1 1104   4.087   5.834   1.419  0.2798 -2.4030  0.6542
  366TIP3    H2 1105   4.003   5.803   1.296 -0.0165 -0.3149  0.2978
  367TIP3   OH2 1106   0.553   0.970   2.755 -0.8294 -0.2001  0.9545
  367TIP3    H1 1107   0.620   1.035   2.736 -1.6374  0.6299  0.8396
  367TIP3    H2 1108   0.531   0.984   2.847  1.1531 -2.4003  1.8567
  368TIP3   OH2 1109   0.359   0.138   2.892  0.2827 -0.3059 -0.2458
  368TIP3    H1 1110   0.352   0.210   2.954  0.2191 -0.3064 -0.2521
  368TIP3    H2 1111   0.316   0.170   2.812  0.8066 -0.1234 -0.4565
  369TIP3   OH2 1112   1.868   3.486   4.541  0.0735  0.2218 -0.1129
  369TIP3    H1 1113   1.817   3.410   4.569 -1.6394  1.7964  1.4031
  369TIP3    H2 1114   1.943   3.450   4.495 -0.0329 -2.4267  1.5809
  370TIP3   OH2 1115   6.237   1.293   3.168  0.5927 -0.0678  0.5730
  370TIP3    H1 1116   6.295   1.231   3.123 -1.2766 -0.3699 -1.5975
  370TIP3    H2 1117   6.271   1.379   3.145  0.1906 -0.2390 -0.7304
  371TIP3   OH2 1118   6.164   4.241   2.178  0.2679  0.5442  0.3337
  371TIP3    H1 1119   6.231   4.297   2.138  0.9753 -1.2893 -1.2285
  371TIP3    H2 1120   6.081   4.275   2.145  0.8016 -0.6268 -2.5280
  372TIP3   OH2 1121   6.260   3.156   4.548  0.6048 -0.1863 -0.6488
  372TIP3    H1 1122   6.351   3.177   4.527  0.9244  0.5857  1.2866
  372TIP3    H2 1123   6.212   3.236   4.531  0.5400 -0.1507 -0.3017
  373TIP3   OH2 1124   5.462   0.550   0.328 -0.6684  0.3473  0.1582
  373TIP3    H1 1125   5.430   0.595   0.406 -3.0701 -0.2316 -0.3994
  373TIP3    H2 1126   5.490   0.465   0.360 -0.6470  0.5008  0.5537
  374TIP3   OH2 1127   4.667   3.272   2.038  0.7099 -0.2031  0.1709
  374TIP3    H1 1128   4.573   3.261   2.023  0.6211 -1.4056  1.4320
  374TIP3    H2 1129   4.672   3.336   2.109  0.7068 -1.8028  1.6842
  375TIP3   OH2 1130   3.857   1.880   1.912  0.0850  0.4133  0.0781
  375TIP3    H1 1131   3.781   1.827   1.938  1.3113 -0.7565  1.4795
  375TIP3    H2 1132   3.899   1.829   1.843 -1.2088  1.8240 -1.8543
  376TIP3   OH2 1133   5.316   5.314   2.440 -0.1199 -0.2178 -0.2625
  376TIP3    H1 1134   5.273   5.374   2.501  1.3089  0.3628  0.2368
  376TIP3    H2 1135   5.396   5.360   2.415  1.2675 -2.0943  0.5043
  377TIP3   OH2 1136   5.586   1.051   3.084  0.0909 -0.3434  0.3366
  377TIP3    H1 1137   5.643   0.992   3.134  0.4642 -0.0168  0.3023
  377TIP3    H2 1138   5.574   1.127   3.141  0.2452 -0.1164  0.0718
  378TIP3   OH2 1139   3.267   1.622   5.004 -0.8891 -0.0571 -0.6545
  378TIP3    H1 1140   3.237   1.712   5.017 -2.6794 -0.5939 -0.8076
  378TIP3    H2 1141   3.325   1.605   5.079 -2.4253  0.4683  0.7224
  379TIP3   OH2 1142   2.136   2.601   0.831  0.3552  0.6099  0.1138
  379TIP3    H1 1143   2.121   2.658   0.907  1.8163  0.6505  0.4024
  379TIP3    H2 1144   2.080   2.637   0.762 -0.7279  0.7869  1.0473
  380TIP3   OH2 1145   3.128   0.281   2.125  0.3303 -0.2510 -0.4562
  380TIP3    H1 1146   3.112   0.367   2.086  1.0536  0.8457  1.4963
  380TIP3    H2 1147   3.164   0.300   2.212 -0.1798 -2.5388  0.3395
  381TIP3   OH2 1148   6.057   2.183   2.503  0.1004 -0.3765  0.1324
  381TIP3    H1 1149   6.015   2.265   2.528  1.9188  0.1433  1.7532
  381TIP3    H2 1150   6.024   2.119   2.567 -0.5514 -0.6818 -0.5044
  382TIP3   OH2 1151   3.453   1.143   3.294 -0.3828  0.3440  0.2804
  382TIP3    H1 1152   3.408   1.225   3.275  1.5281  1.2126 -0.7891
  382TIP3    H2 1153   3.502   1.123   3.214  0.4293 -1.0075  1.0704
  383TIP3   OH2 1154   1.436   2.269   2.108  0.2745  0.5661 -0.2868
  383TIP3    H1 1155   1.353   2.244   2.068  1.0694 -0.2278 -1.4833
  383TIP3    H2 1156   1.483   2.315   2.039  0.7522  1.2208  0.4531
  384TIP3   OH2 1157   1.018   1.363   1.972 -0.6696 -0.0402 -0.0214
  384TIP3    H1 1158   0.925   1.381   1.962 -0.4341  0.4170 -1.6595
  384TIP3    H2 1159   1.049   1.426   2.037 -0.8462  2.2602 -2.0355
  385TIP3   OH2 1160   1.072   1.444   2.244  0.3509  0.6555  0.4376
  385TIP3    H1 1161   1.149   1.468   2.193 -1.2122 -0.2766 -2.6065
  385TIP3    H2 1162   1.098   1.364   2.291  1.1285  0.0175 -1.0023
  386TIP3   OH2 1163   0.167   5.237   4.746  0.3018  0.1937  0.4011
  386TIP3    H1 1164   0.079   5.202   4.731  0.8079 -0.8430 -0.2316
  386TIP3    H2 1165   0.152   5.319   4.794 -0.9121 -1.2630  2.7325
  387TIP3   OH2 1166   0.511   1.206   2.957  0.1452  0.5390  0.1441
  387TIP3    H1 1167   0.551   1.224   2.871  1.9511  0.8180  0.9976
  387TIP3    H2 1168   0.462   1.285   2.977 -0.4437  0.4042 -0.6934
  388TIP3   OH2 1169   0.737   0.163   2.213 -0.1169  0.2456  0.0200
  388TIP3    H1 1170   0.802   0.221   2.173 -0.5239  0.5583 -0.1857
  388TIP3    H2 1171   0.653   0.205   2.197 -0.5182 -0.9161 -1.0284
  389TIP3   OH2 1172   4.495   3.698   4.778  0.3843  0.1944  0.5554
  389TIP3    H1 1173   4.436   3.625   4.757  0.5684  0.3831 -0.7056
  389TIP3    H2 1174   4.441   3.776   4.765  0.4509  0.3192  1.0115
  390TIP3   OH2 1175   0.482   2.689   4.973 -0.4472  0.4250  0.4389
  390TIP3    H1 1176   0.549   2.727   4.916  0.0972 -1.5186 -0.3077
  390TIP3    H2 1177   0.447   2.763   5.022  0.7224  1.8118 -0.7313
  391TIP3   OH2 1178   0.197   3.823   4.579 -0.1665 -0.5801  0.0388
  391TIP3    H1 1179   0.175   3.884   4.508 -1.7085  0.1610  1.0895
  391TIP3    H2 1180   0.159   3.740   4.551 -0.0880 -0.4891 -0.3521
  392TIP3   OH2 1181   4.204   3.138   0.592 -0.3981  0.3446 -0.0134
  392TIP3    H1 1182   4.175   3.180   0.511 -0.1968 -1.0943 -0.8688
  392TIP3    H2 1183   4.238   3.053   0.564  0.7152  0.2656  1.4613
  393TIP3   OH2 1184   4.064   3.647   5.139 -0.2482  0.2750  0.0429
  393TIP3    H1 1185   4.063   3.554   5.116 -0.5854 -0.0308  1.1928
  393TIP3    H2 1186   3.993   3.685   5.086  0.6214  0.1183 -1.2760
  394TIP3   OH2 1187   2.741   0.329   0.805  1.1139 -0.4108  0.6119
  394TIP3    H1 1188   2.805   0.388   0.765  1.7922 -0.5922  1.4010
  394TIP3    H2 1189   2.784   0.297   0.884 -0.9381  1.6524  2.7445
  395TIP3   OH2 1190   3.086   1.777   0.352 -0.0166  0.6876  0.9791
  395TIP3    H1 1191   3.135   1.733   0.282 -0.5903 -1.2749  1.7583
  395TIP3    H2 1192   3.150   1.789   0.422  0.1985  1.3592  0.6801
  396TIP3   OH2 1193   0.521   3.502   0.630  0.1430 -0.2761  0.4487
  396TIP3    H1 1194   0.515   3.547   0.545  0.3826 -0.7361  0.1893
  396TIP3    H2 1195   0.582   3.555   0.680  0.0042 -0.0029  0.3369
  397TIP3   OH2 1196   0.723   3.469   4.141  0.3570 -0.4748 -0.2901
  397TIP3    H1 1197   0.700   3.458   4.049  0.8361 -1.6654 -0.2848
  397TIP3    H2 1198   0.692   3.389   4.183  0.1284  0.0620  0.6047
  398TIP3   OH2 1199   0.039   3.411   3.903  0.1791  0.1190  0.0758
  398TIP3    H1 1200   0.030   3.363   3.986  2.1968 -1.1069 -0.3535
  398TIP3    H2 1201  -0.016   3.363   3.841  0.9648 -0.7602  0.0313
  399TIP3   OH2 1202   6.081   3.026   2.032  0.6481  0.1591  0.4305
  399TIP3    H1 1203   6.099   2.935   2.056  0.5545  0.3778  1.3356
  399TIP3    H2 1204   6.002   3.021   1.977  0.8822 -0.3420  0.1325
  400TIP3   OH2 1205   5.880   2.096   1.068 -0.4870  0.0316  0.0358
  400TIP3    H1 1206   5.938   2.070   1.140  0.3253  1.9244  0.1434
  400TIP3    H2 1207   5.939   2.109   0.993 -1.0723 -0.1162 -0.4574
  401TIP3   OH2 1208   3.075   4.137   3.707  0.3550 -0.1076  0.4661
  401TIP3    H1 1209   3.143   4.070   3.701  0.1035 -0.3027 -0.4092
  401TIP3    H2 1210   3.111   4.211   3.659  0.8835  0.6297  1.9371
  402TIP3   OH2 1211   0.923   1.125   4.861  0.2613  0.3220 -0.3017
  402TIP3    H1 1212   0.854   1.060   4.871  1.0623 -0.4053  0.7707
  402TIP3    H2 1213   0.909   1.186   4.934 -0.0537  0.9500 -0.8794
  403TIP3   OH2 1214   3.491   2.268   5.028 -0.3466  0.6226  0.1351
  403TIP3    H1 1215   3.437   2.335   5.068 -0.7741 -0.2095  0.9743
  403TIP3    H2 1216   3.566   2.258   5.087 -1.0506 -0.7067  0.8610
  404TIP3   OH2 1217   3.970   4.572   2.994 -0.0386 -0.2926  0.4681
  404TIP3    H1 1218   3.944   4.659   2.962 -1.0376 -0.5946  0.4279
  404TIP3    H2 1219   3.997   4.588   3.085  1.2195  0.2912  0.0139
  405TIP3   OH2 1220   5.242   5.493   4.404 -0.2228  0.2357  0.1351
  405TIP3    H1 1221   5.305   5.441   4.455 -0.5848  2.1219  2.7267
  405TIP3    H2 1222   5.296   5.556   4.357  0.0144 -0.4386 -0.5193
  406TIP3   OH2 1223   3.824   2.415   2.628 -0.4100 -0.4016 -0.6983
  406TIP3    H1 1224   3.772   2.486   2.667 -0.3015  0.0656 -1.3960
  406TIP3    H2 1225   3.885   2.389   2.697  0.3376  0.9755 -0.8150
  407TIP3   OH2 1226   4.311   5.426   2.433 -0.1467  0.3443 -0.2634
  407TIP3    H1 1227   4.402   5.456   2.442 -0.5702  1.6184 -0.0326
  407TIP3    H2 1228   4.260   5.489   2.484 -1.0573 -1.0223  0.5790
  408TIP3   OH2 1229   4.850   1.921   0.374 -0.1321  0.1476 -0.5221
  408TIP3    H1 1230   4.908   1.891   0.303 -0.3411 -0.7463 -0.3323
  408TIP3    H2 1231   4.771   1.950   0.330  0.2870  0.9597 -0.7534
  409TIP3   OH2 1232   6.049   0.379   1.202 -0.2208 -0.3009  0.2510
  409TIP3    H1 1233   6.044   0.440   1.276 -0.9965 -1.0657  0.8502
  409TIP3    H2 1234   6.143   0.367   1.187 -0.0170  1.8165 -0.5575
  410TIP3   OH2 1235   1.935   3.246   2.512  0.7431 -0.3053 -0.1874
  410TIP3    H1 1236   1.883   3.188   2.568 -0.2030  0.1416 -0.5629
  410TIP3    H2 1237   1.879   3.262   2.436  1.0157  0.9968 -0.1453
  411TIP3   OH2 1238   1.660   4.892   3.203 -0.1690  0.0047  0.5459
  411TIP3    H1 1239   1.727   4.960   3.214  3.4747 -2.9184 -1.1963
  411TIP3    H2 1240   1.626   4.906   3.115  0.8023 -0.5111  0.0693
  412TIP3   OH2 1241   4.030   0.328   3.425 -0.8247 -0.0497  0.0213
  412TIP3    H1 1242   4.000   0.384   3.497 -0.4973 -0.5279  0.5401
  412TIP3    H2 1243   4.031   0.385   3.349 -0.6128  0.6249  0.5165
  413TIP3   OH2 1244   1.370   2.082   3.505  0.2379 -0.2968 -0.0802
  413TIP3    H1 1245   1.419   2.155   3.469  1.1249 -0.1541  1.3525
  413TIP3    H2 1246   1.285   2.120   3.529  0.0228 -0.1661 -1.0072
  414TIP3   OH2 1247   0.541   3.386   4.726  0.4557 -0.0088  0.0602
  414TIP3    H1 1248   0.518   3.311   4.672 -0.6917 -0.2723  0.8835
  414TIP3    H2 1249   0.562   3.349   4.811  0.5923  0.5402  0.2691
  415TIP3   OH2 1250   3.200   1.969   4.713  0.1132 -0.3283 -0.0101
  415TIP3    H1 1251   3.255   1.947   4.637 -0.1314 -0.7354 -0.0731
  415TIP3    H2 1252   3.247   2.039   4.757  0.5334 -0.4628 -0.2380
  416TIP3   OH2 1253   3.640   0.394   4.024 -0.3623  0.3016 -0.3565
  416TIP3    H1 1254   3.579   0.427   3.959 -0.9594 -1.0985 -0.5337
  416TIP3    H2 1255   3.633   0.299   4.019  1.5061  0.0950 -0.0693
  417TIP3   OH2 1256   4.467   0.443   4.106 -0.3643 -0.1905  1.1620
  417TIP3    H1 1257   4.426   0.390   4.174  1.0377  0.7027  2.7874
  417TIP3    H2 1258   4.522   0.505   4.154 -0.4340  1.4470 -0.7429
  418TIP3   OH2 1259   4.914   1.480   0.748  0.3021  0.5689 -0.2455
  418TIP3    H1 1260   4.821   1.500   0.735  0.2252  0.0695 -0.5079
  418TIP3    H2 1261   4.914   1.392   0.785  0.7466 -0.6267 -2.8438
  419TIP3   OH2 1262   5.239   5.168   3.169 -0.1261  0.5284 -0.1157
  419TIP3    H1 1263   5.262   5.078   3.149 -0.2765  0.0280  1.7477
  419TIP3    H2 1264   5.245   5.174   3.265 -1.1978  2.1896 -0.1031
  420TIP3   OH2 1265   2.635   4.036   4.343 -0.1422 -0.6896 -0.5200
  420TIP3    H1 1266   2.573   4.107   4.328  1.2361  0.7212  0.1409
  420TIP3    H2 1267   2.720   4.080   4.354  0.2696 -2.0891  3.4074
  421TIP3   OH2 1268   1.568   4.447   0.784 -0.4368 -0.5311 -0.2339
  421TIP3    H1 1269   1.600   4.516   0.842  0.9800  1.2611 -2.9338
  421TIP3    H2 1270   1.473   4.445   0.799 -0.5216  1.9953  0.0083
  422TIP3   OH2 1271   1.596   2.422   1.457  0.4573 -0.8026  0.1388
  422TIP3    H1 1272   1.553   2.452   1.378  0.0359 -1.3254  0.1608
  422TIP3    H2 1273   1.663   2.361   1.426  1.5875  0.4311  0.0651
  423TIP3   OH2 1274   6.272   3.372   4.168  0.0547 -0.5414 -0.4943
  423TIP3    H1 1275   6.206   3.331   4.224  0.9044 -0.3941  0.6773
  423TIP3    H2 1276   6.243   3.463   4.159  0.3010 -0.3580  0.3992
  424TIP3   OH2 1277   5.431   2.838   1.127  0.0887 -0.0260  0.0681
  424TIP3    H1 1278   5.337   2.821   1.134 -0.0332  0.4143 -0.5008
  424TIP3    H2 1279   5.444   2.865   1.036  0.8382 -0.5276  0.0213
  425TIP3   OH2 1280   3.285   2.878   3.470 -0.1863 -0.9214  0.5638
  425TIP3    H1 1281   3.339   2.888   3.548  1.4043  1.7696 -0.7188
  425TIP3    H2 1282   3.275   2.967   3.436 -2.4279 -1.7685 -1.2756
  426TIP3   OH2 1283   6.183   2.828   2.434 -0.1736 -0.2101  0.6366
  426TIP3    H1 1284   6.203   2.746   2.478  0.6260 -0.5728 -0.3629
  426TIP3    H2 1285   6.168   2.803   2.342  0.4677  0.7978  0.2426
  427TIP3   OH2 1286   5.996   0.727   4.857  0.0640 -0.0143 -0.0516
  427TIP3    H1 1287   5.992   0.682   4.773  1.2167  1.2008 -0.7925
  427TIP3    H2 1288   6.080   0.703   4.894 -0.0356  0.1940  0.3227
  428TIP3   OH2 1289   4.547   0.595   1.906  0.0487  0.3565  0.9437
  428TIP3    H1 1290   4.611   0.543   1.955 -0.1216  1.2284  2.1195
  428TIP3    H2 1291   4.544   0.553   1.820  0.6941 -0.9344  1.5180
  429TIP3   OH2 1292   1.710   0.146   3.578  0.3751 -0.1216  0.5857
  429TIP3    H1 1293   1.672   0.188   3.655  1.3364 -0.4874  1.2823
  429TIP3    H2 1294   1.784   0.202   3.554  1.1747 -0.9552  1.0369
  430TIP3   OH2 1295   1.217   2.971   5.074  0.0030  0.0136 -0.1349
  430TIP3    H1 1296   1.196   3.062   5.056 -0.0731 -0.0318 -0.2843
  430TIP3    H2 1297   1.165   2.949   5.151 -0.8418 -0.2215 -0.7546
  431TIP3   OH2 1298   2.440   3.991   0.248 -0.1555  0.3691 -0.4315
  431TIP3    H1 1299   2.439   3.902   0.213  0.9548 -0.6561  1.9386
  431TIP3    H2 1300   2.404   3.983   0.336 -0.4140  2.3575 -0.3126
  432TIP3   OH2 1301   1.934   1.396   3.787  0.4349 -0.2312  0.7504
  432TIP3    H1 1302   1.949   1.303   3.802 -0.6991 -1.0255 -2.3907
  432TIP3    H2 1303   1.839   1.403   3.774  0.6722  1.0605 -0.5451
  433TIP3   OH2 1304   4.483   5.513   3.410 -0.6563  0.2049 -0.3416
  433TIP3    H1 1305   4.567   5.488   3.448 -0.2092  0.4836 -1.1364
  433TIP3    H2 1306   4.500   5.523   3.317 -1.5813  0.2351 -0.5210
  434TIP3   OH2 1307   2.198   0.713   1.675 -0.3041 -0.3424  0.4487
  434TIP3    H1 1308   2.109   0.736   1.701 -0.5517  0.9702 -1.3518
  434TIP3    H2 1309   2.187   0.650   1.603  0.1853  0.0788 -0.0062
  435TIP3   OH2 1310   6.263   0.679   4.920 -0.2065  0.1760 -0.3314
  435TIP3    H1 1311   6.302   0.727   4.847  1.2803  0.2787  0.4870
  435TIP3    H2 1312   6.326   0.689   4.991 -1.7615  0.3417  1.0776
  436TIP3   OH2 1313   1.937   5.227   1.327  0.1685 -0.3265  0.3256
  436TIP3    H1 1314   2.010   5.281   1.359  0.4911  0.6817 -1.9106
  436TIP3    H2 1315   1.860   5.284   1.336  0.0933 -0.4189  0.2632
  437TIP3   OH2 1316   6.044   1.882   4.496  0.3524 -0.2639 -0.4270
  437TIP3    H1 1317   5.966   1.918   4.538  0.5026 -1.3088  0.8352
  437TIP3    H2 1318   6.108   1.873   4.567  1.0750 -0.8868 -1.1259
  438TIP3   OH2 1319   4.641   4.116   5.000 -0.0636  0.2586 -0.3192
  438TIP3    H1 1320   4.698   4.170   5.054 -0.6278  0.1195  0.4381
  438TIP3    H2 1321   4.560   4.167   4.992 -0.8889 -0.7808  1.0533
  439TIP3   OH2 1322   3.250   2.539   0.178 -0.0356 -0.0354  0.3752
  439TIP3    H1 1323   3.273   2.616   0.230 -0.7852  0.8712 -0.6144
  439TIP3    H2 1324   3.269   2.465   0.237  1.6111  0.8190  1.0076
  440TIP3   OH2 1325   5.076   2.606   5.168  0.2724 -0.5008 -0.1635
  440TIP3    H1 1326   5.060   2.526   5.118  1.6790 -2.1574  1.8776
  440TIP3    H2 1327   5.020   2.598   5.245  0.8269  0.2301  0.3302
  441TIP3   OH2 1328   4.156   1.248   2.223  0.6832  0.1422  0.0942
  441TIP3    H1 1329   4.172   1.296   2.141  1.3816  1.2237  0.8401
  441TIP3    H2 1330   4.162   1.315   2.291  0.4847 -0.8149  1.0715
  442TIP3   OH2 1331   5.945   2.427   2.579  0.0059  0.3729  0.1946
  442TIP3    H1 1332   5.865   2.422   2.631  0.0401 -1.6949  0.1288
  442TIP3    H2 1333   6.015   2.436   2.643 -0.1321  0.1767  0.3766
  443TIP3   OH2 1334   3.179   0.775   2.740  0.5610 -0.6178  0.5078
  443TIP3    H1 1335   3.255   0.820   2.776  1.3186 -0.6051 -1.0395
  443TIP3    H2 1336   3.214   0.718   2.672 -0.6762 -1.6144  0.6430
  444TIP3   OH2 1337   2.907   2.038   0.283 -0.1528  0.2902 -0.4544
  444TIP3    H1 1338   2.974   1.974   0.309 -0.8354 -0.5364 -0.6974
  444TIP3    H2 1339   2.952   2.095   0.220  0.5422  0.2395 -0.0237
  445TIP3   OH2 1340   6.070   2.170   3.242  0.3493 -0.3738 -0.3166
  445TIP3    H1 1341   6.073   2.198   3.334  1.2730 -1.1658 -0.0932
  445TIP3    H2 1342   5.978   2.149   3.226  0.2779 -0.7941  0.6045
  446TIP3   OH2 1343   5.069   5.373   3.610 -0.4164 -0.1714 -0.3627
  446TIP3    H1 1344   5.101   5.448   3.660  0.4027 -0.2614 -0.7394
  446TIP3    H2 1345   4.975   5.370   3.628 -0.6675  1.6283 -1.2452
  447TIP3   OH2 1346   2.189   4.063   2.458 -0.3508  0.4715 -1.2267
  447TIP3    H1 1347   2.215   4.154   2.445  1.5539 -0.0968 -1.7878
  447TIP3    H2 1348   2.110   4.052   2.405 -0.1553  1.5842 -1.7659
  448TIP3   OH2 1349   3.122   0.744   2.384  0.2843 -0.0144 -0.0816
  448TIP3    H1 1350   3.068   0.664   2.382  0.8298 -0.4087  0.6428
  448TIP3    H2 1351   3.068   0.810   2.340 -0.9881 -0.2929  0.9915
  449TIP3   OH2 1352   0.974   0.175   2.993 -0.3918 -0.6194 -0.1690
  449TIP3    H1 1353   1.046   0.218   3.039 -0.4108 -1.5346  0.7505
  449TIP3    H2 1354   0.912   0.245   2.973 -0.6343 -0.2619  1.7036
  450TIP3   OH2 1355   1.778   3.521  -0.000 -0.0071  0.0259  0.3559
  450TIP3    H1 1356   1.849   3.537   0.062  0.3547 -0.8329  0.1692
  450TIP3    H2 1357   1.770   3.603  -0.049  0.1605  0.4759  1.0753
  451TIP3   OH2 1358   0.599   4.893   1.583 -0.4904  0.0974 -0.6567
  451TIP3    H1 1359   0.505   4.874   1.577 -0.2758 -0.7859 -1.5242
  451TIP3    H2 1360   0.610   4.974   1.532 -0.5741 -0.6158 -1.8502
  452TIP3   OH2 1361   6.264   4.766   0.010  0.1021 -0.2380  0.2990
  452TIP3    H1 1362   6.318   4.689  -0.009  0.4003  0.1612 -0.5353
  452TIP3    H2 1363   6.209   4.739   0.083 -0.9587 -1.8200 -1.0121
  453TIP3   OH2 1364   0.925   1.997   4.140  0.3858 -0.2368 -0.2696
  453TIP3    H1 1365   1.004   2.047   4.159 -0.6366  1.9109 -1.3980
  453TIP3    H2 1366   0.876   2.050   4.078 -2.0490 -1.4110  0.5035
  454TIP3   OH2 1367   2.588   2.477   2.215  0.1815  0.0487  0.2805
  454TIP3    H1 1368   2.633   2.418   2.274  0.1660  1.0231  1.3124
  454TIP3    H2 1369   2.600   2.564   2.254  0.8363  0.8359 -1.5691
  455TIP3   OH2 1370   5.954   3.943   4.091  0.0543 -0.2754  0.1778
  455TIP3    H1 1371   5.893   3.890   4.041  1.0235  1.8051 -3.5830
  455TIP3    H2 1372   5.923   4.033   4.080  2.8150  0.6934 -0.5540
  456TIP3   OH2 1373   0.661   1.599   3.222  0.2914 -0.2647 -0.3483
  456TIP3    H1 1374   0.726   1.529   3.214  0.0609 -0.6280  0.7534
  456TIP3    H2 1375   0.687   1.647   3.300  0.1337  0.5605 -0.7947
  457TIP3   OH2 1376   5.541   0.695   4.388  0.0100 -0.2051 -0.3683
  457TIP3    H1 1377   5.612   0.757   4.371 -0.2356 -0.2339 -1.6006
  457TIP3    H2 1378   5.479   0.711   4.318 -2.0267  0.9447  1.5678
  458TIP3   OH2 1379   3.082   6.000   4.606  0.3288 -0.8348 -0.4407
  458TIP3    H1 1380   3.072   5.989   4.511 -2.5487 -1.2600 -0.1817
  458TIP3    H2 1381   3.061   5.915   4.643  0.7324 -0.4905  0.6245
  459TIP3   OH2 1382   2.699   3.345   2.951 -0.0151 -0.1165  0.7292
  459TIP3    H1 1383   2.693   3.393   2.868 -0.1802 -0.6744  0.4132
  459TIP3    H2 1384   2.621   3.372   2.999 -0.5318 -0.6711  0.2215
  460TIP3   OH2 1385   0.832   5.367   1.405  0.2420 -0.2037  0.5715
  460TIP3    H1 1386   0.739   5.382   1.420  0.3942  1.9624 -0.2983
  460TIP3    H2 1387   0.876   5.419   1.472  0.8470 -0.5398  0.4454
  461TIP3   OH2 1388   1.192   3.513   1.835  0.4198  0.2473  0.0239
  461TIP3    H1 1389   1.279   3.481   1.811  0.4033  0.5078 -0.3948
  461TIP3    H2 1390   1.145   3.518   1.752  0.2879  0.9491  0.1307
  462TIP3   OH2 1391   1.905   5.404   2.282  0.1923 -0.8652  0.4577
  462TIP3    H1 1392   1.980   5.358   2.246  0.0265  0.6453 -2.0282
  462TIP3    H2 1393   1.941   5.485   2.317 -0.0891 -0.8949  0.8313
  463TIP3   OH2 1394   0.194   0.544   2.689  0.8195 -0.2539 -0.1939
  463TIP3    H1 1395   0.136   0.469   2.708  0.9517 -0.7186 -1.5561
  463TIP3    H2 1396   0.276   0.521   2.732  1.0293 -1.1590 -1.0394
  464TIP3   OH2 1397   1.938   2.668   0.511  0.4159  0.8749  0.3879
  464TIP3    H1 1398   1.867   2.652   0.448 -0.3359  0.1148  1.3918
  464TIP3    H2 1399   1.990   2.588   0.508  0.7760  1.1140  0.2366
  465TIP3   OH2 1400   3.272   1.516   4.075 -0.2729 -0.1385 -0.1883
  465TIP3    H1 1401   3.286   1.424   4.098  0.5127 -0.0945 -0.4694
  465TIP3    H2 1402   3.313   1.526   3.989 -0.0246  0.5568  0.0054
  466TIP3   OH2 1403   4.229   3.394   1.365  0.0920 -0.3038 -0.6152
  466TIP3    H1 1404   4.293   3.346   1.312  1.8295  1.0231  0.1542
  466TIP3    H2 1405   4.240   3.358   1.453 -1.7000 -1.4419 -0.8143
  467TIP3   OH2 1406   5.479   0.050   0.482 -1.1628 -0.2500 -0.1453
  467TIP3    H1 1407   5.507   0.121   0.425 -0.4848 -0.6955 -0.3734
  467TIP3    H2 1408   5.484   0.087   0.571 -1.5666  0.2266 -0.3191
  468TIP3   OH2 1409   4.696   2.482   2.793  0.9892  0.2510  0.2946
  468TIP3    H1 1410   4.735   2.436   2.719  0.4751 -1.0133  0.7685
  468TIP3    H2 1411   4.688   2.573   2.764 -0.2472 -0.4070 -1.6612
  469TIP3   OH2 1412   5.230   4.069   2.716  0.3596 -0.0004 -0.7751
  469TIP3    H1 1413   5.157   4.017   2.683 -0.1018  0.1412 -0.0048
  469TIP3    H2 1414   5.305   4.044   2.661 -0.0215 -0.9210 -0.8863
  470TIP3   OH2 1415   2.340   1.091   4.255 -0.4085 -0.6283  0.0730
  470TIP3    H1 1416   2.358   1.046   4.173 -0.7187 -1.1485  0.2863
  470TIP3    H2 1417   2.333   1.184   4.230  3.0594 -0.2437  0.0441
  471TIP3   OH2 1418   4.807   0.888   3.641  0.5760  0.0406 -0.3477
  471TIP3    H1 1419   4.801   0.981   3.623 -0.4905 -0.0530 -0.5576
  471TIP3    H2 1420   4.850   0.851   3.564 -1.8604 -0.0455 -1.7597
  472TIP3   OH2 1421   5.762   0.481   0.185 -0.2331  0.0616 -0.3202
  472TIP3    H1 1422   5.794   0.527   0.107 -1.5988  0.7915 -0.4847
  472TIP3    H2 1423   5.837   0.479   0.244  0.3571  0.9708 -1.0046
  473TIP3   OH2 1424   1.954   4.655   2.477 -0.5618  0.4720 -0.5206
  473TIP3    H1 1425   1.982   4.576   2.523  1.5460  1.2432 -0.3891
  473TIP3    H2 1426   1.897   4.700   2.539 -0.9969 -0.4407 -0.2351
  474TIP3   OH2 1427   3.701   1.813   0.784 -0.8700 -0.3817  0.1082
  474TIP3    H1 1428   3.671   1.904   0.778 -0.3069 -0.2574 -1.1838
  474TIP3    H2 1429   3.738   1.794   0.697  0.4887 -1.3131  0.8475
  475TIP3   OH2 1430   2.412   2.267   1.491 -0.1059 -0.1365  0.1735
  475TIP3    H1 1431   2.369   2.335   1.543 -2.2482 -0.5435 -0.9515
  475TIP3    H2 1432   2.481   2.313   1.444 -1.7738  1.4201 -0.8841
  476TIP3   OH2 1433   2.178   0.315   2.279  0.1059  0.0038 -0.0655
  476TIP3    H1 1434   2.162   0.308   2.185  0.3691  1.1835 -0.2138
  476TIP3    H2 1435   2.180   0.409   2.296  0.3144 -0.1930  1.0839
  477TIP3   OH2 1436   2.958   0.885   3.737  0.2023 -0.3408  0.0540
  477TIP3    H1 1437   2.948   0.824   3.664 -1.0124  2.1890 -2.0492
  477TIP3    H2 1438   3.052   0.906   3.736  0.4337 -1.2961  0.1018
  478TIP3   OH2 1439   2.119   4.864   4.789 -0.0741  0.2929  0.0784
  478TIP3    H1 1440   2.065   4.923   4.736  1.6001  1.4811 -0.3982
  478TIP3    H2 1441   2.120   4.903   4.876 -1.4542 -0.7476  0.5916
  479TIP3   OH2 1442   3.929   3.312  -0.023 -0.0585 -0.0026  0.0461
  479TIP3    H1 1443   3.866   3.363   0.027  1.8618  0.3483  2.3212
  479TIP3    H2 1444   3.919   3.222   0.010  0.3087 -0.0239  0.1118
  480TIP3   OH2 1445   1.392   3.514   3.590 -0.1067 -0.1418 -0.3330
  480TIP3    H1 1446   1.379   3.472   3.675  1.0870 -1.4587 -0.7622
  480TIP3    H2 1447   1.473   3.564   3.600 -1.0889  1.4683 -0.0779
  481TIP3   OH2 1448   0.475   2.241   1.550  0.4023  0.5742  0.0209
  481TIP3    H1 1449   0.436   2.277   1.470 -0.3787  0.5287  0.3734
  481TIP3    H2 1450   0.474   2.147   1.536 -1.2426  0.4471  0.7285
  482TIP3   OH2 1451   4.217   2.805   2.372  0.2113  0.2738 -0.1443
  482TIP3    H1 1452   4.263   2.828   2.453 -1.4520 -1.2352  1.3240
  482TIP3    H2 1453   4.159   2.880   2.356  1.0858  0.9123 -0.3883
  483TIP3   OH2 1454   5.602   1.642   4.243 -0.2189  0.4846 -0.8008
  483TIP3    H1 1455   5.562   1.690   4.316 -0.5275 -0.5086 -0.3027
  483TIP3    H2 1456   5.633   1.560   4.281  0.9469  0.5843 -1.4992
  484TIP3   OH2 1457   5.701   4.021   4.656  0.1362 -0.2575 -0.0232
  484TIP3    H1 1458   5.732   3.992   4.570 -1.4712 -1.8624 -0.1171
  484TIP3    H2 1459   5.620   3.972   4.670  0.0751  0.3728  2.1856
  485TIP3   OH2 1460   3.563   2.925   3.625  0.0807  0.3875  0.1143
  485TIP3    H1 1461   3.488   2.949   3.680  1.0603 -0.6036  1.9920
  485TIP3    H2 1462   3.633   2.984   3.653 -0.1052  1.7581 -2.0894
  486TIP3   OH2 1463   0.740   5.072   0.609  0.3876  0.1576 -0.1414
  486TIP3    H1 1464   0.769   5.038   0.524  1.7444 -0.1743  0.4327
  486TIP3    H2 1465   0.704   5.158   0.589  1.4271  0.4194 -0.9605
  487TIP3   OH2 1466   0.232   0.784   2.064 -0.0925  0.0735 -0.1223
  487TIP3    H1 1467   0.170   0.811   1.996  0.5357 -0.0803 -0.7599
  487TIP3    H2 1468   0.251   0.693   2.045  0.4956  0.1775 -0.0523
  488TIP3   OH2 1469   6.049   4.810   3.714 -0.1167  0.4614  0.2013
  488TIP3    H1 1470   6.140   4.824   3.687 -0.3451  2.0155  0.1609
  488TIP3    H2 1471   6.050   4.821   3.809  0.0361 -1.4342  0.4750
  489TIP3   OH2 1472   2.738   3.979   0.709 -0.2517  0.2090 -0.1567
  489TIP3    H1 1473   2.679   3.953   0.781  2.8655 -0.5002  2.3912
  489TIP3    H2 1474   2.705   4.064   0.681 -1.8442  0.3615  1.9003
  490TIP3   OH2 1475   4.540   3.181   4.474 -0.0301 -0.1913 -0.2693
  490TIP3    H1 1476   4.514   3.108   4.531 -0.5221  0.3314  0.1848
  490TIP3    H2 1477   4.622   3.212   4.512  1.4009 -1.8968 -1.7543
  491TIP3   OH2 1478   5.777   3.357   4.458 -0.2507 -0.1704 -0.1298
  491TIP3    H1 1479   5.734   3.302   4.393 -1.4537  0.6020 -0.0185
  491TIP3    H2 1480   5.789   3.441   4.414  1.8449 -0.5502 -0.4020
  492TIP3   OH2 1481   6.272   0.639   1.230  0.3288  0.0217  0.1588
  492TIP3    H1 1482   6.351   0.586   1.245  0.8819  1.0873  1.1467
  492TIP3    H2 1483   6.237   0.606   1.147  1.6306 -0.6912 -0.1408
  493TIP3   OH2 1484   5.348   5.511   3.550 -0.0705  0.3766  0.1825
  493TIP3    H1 1485   5.263   5.472   3.569  0.7658 -1.0995  1.1048
  493TIP3    H2 1486   5.411   5.440   3.562  1.3603  1.5453  0.0297
  494TIP3   OH2 1487   0.869   4.749   2.647 -0.1513  0.0209 -0.0512
  494TIP3    H1 1488   0.862   4.809   2.720  0.4995  0.4935 -0.3691
  494TIP3    H2 1489   0.962   4.732   2.638 -0.0481  1.2792 -1.8036
  495TIP3   OH2 1490   2.137   2.857   4.067  0.1527 -0.3762 -0.2044
  495TIP3    H1 1491   2.110   2.925   4.006 -0.8153 -1.7245 -1.3653
  495TIP3    H2 1492   2.069   2.790   4.060  0.8605 -1.3050  1.1774
  496TIP3   OH2 1493   2.722   1.215   0.046 -0.2053 -0.0331  0.2388
  496TIP3    H1 1494   2.765   1.199   0.131 -0.3346 -0.3945  0.2361
  496TIP3    H2 1495   2.749   1.304   0.023  0.4474 -0.2089  0.2962
  497TIP3   OH2 1496   2.703   5.106   1.205  0.0148  0.0544  0.0054
  497TIP3    H1 1497   2.736   5.018   1.223 -1.3992 -0.5815 -0.4099
  497TIP3    H2 1498   2.661   5.099   1.119 -1.6304  0.6813  0.7216
  498TIP3   OH2 1499   0.790   4.121   4.189  0.1120  0.4695 -0.3252
  498TIP3    H1 1500   0.822   4.116   4.279 -1.4142 -0.9162  0.1965
  498TIP3    H2 1501   0.830   4.047   4.145  0.1456  0.6160 -0.5412
  499TIP3   OH2 1502   4.464   4.482   4.459  0.6077 -0.5242  0.1837
  499TIP3    H1 1503   4.457   4.406   4.402 -2.4747  0.7867 -1.4086
  499TIP3    H2 1504   4.408   4.462   4.533  2.3815 -1.0607  1.4358
  500TIP3   OH2 1505   5.926   2.085   1.727 -0.0594 -0.1157 -0.1272
  500TIP3    H1 1506   5.926   2.018   1.796 -0.0820 -0.8982 -0.8804
  500TIP3    H2 1507   5.835   2.110   1.717 -0.3846 -1.6783 -1.4593
  501TIP3   OH2 1508   5.696   2.310   4.800  0.0432 -0.1828  0.6008
  501TIP3    H1 1509   5.712   2.237   4.861  0.2225  0.4123  1.2718
  501TIP3    H2 1510   5.614   2.349   4.831 -2.3224 -2.4931 -2.1056
  502TIP3   OH2 1511   5.738   0.660   0.416  0.2566 -0.5472  0.0415
  502TIP3    H1 1512   5.712   0.602   0.344  0.5064  0.5743 -0.9816
  502TIP3    H2 1513   5.717   0.610   0.495  0.9390 -2.2416 -0.7875
  503TIP3   OH2 1514   2.683   4.487   2.977  0.0903  0.4861 -0.5066
  503TIP3    H1 1515   2.763   4.510   3.024 -0.9601  2.2630  0.5054
  503TIP3    H2 1516   2.652   4.570   2.941 -1.7894  0.0063 -0.0648
  504TIP3   OH2 1517   2.459   4.121   0.957 -0.4055  0.8088 -0.1416
  504TIP3    H1 1518   2.489   4.035   0.929  0.0827  1.8417 -3.0632
  504TIP3    H2 1519   2.375   4.104   1.000  0.7604 -1.3100  1.5399
  505TIP3   OH2 1520   2.605   1.646   3.774  0.5243  0.3752 -0.3567
  505TIP3    H1 1521   2.611   1.599   3.857 -0.9072  0.3473 -0.2539
  505TIP3    H2 1522   2.545   1.719   3.792 -1.5311 -0.8571 -1.8925
  506TIP3   OH2 1523   5.185   1.928   3.259  0.3065  0.3110  0.5781
  506TIP3    H1 1524   5.243   1.991   3.216 -0.4148 -0.4963 -1.7963
  506TIP3    H2 1525   5.107   1.927   3.204 -0.0176 -2.0505  0.9819
  507TIP3   OH2 1526   2.881   5.928   4.827 -0.2523  0.4285 -0.4201
  507TIP3    H1 1527   2.844   5.964   4.908 -0.8337  1.6884 -1.2128
  507TIP3    H2 1528   2.942   5.861   4.857  1.0001  2.1661  1.1478
  508TIP3   OH2 1529   5.363   1.207   2.752 -0.6939 -0.3987 -0.3920
  508TIP3    H1 1530   5.297   1.236   2.816 -1.4578 -2.1051 -0.3353
  508TIP3    H2 1531   5.394   1.287   2.711 -2.1556  0.5331  0.2395
  509TIP3   OH2 1532   5.043   5.866   4.826  0.8583  0.7151 -0.0523
  509TIP3    H1 1533   5.014   5.939   4.771  1.0075  0.5347 -0.3673
  509TIP3    H2 1534   4.986   5.793   4.802  1.5508  0.3645 -0.6588
  510TIP3   OH2 1535   3.331   5.619   2.252  0.0838 -0.1432 -0.3598
  510TIP3    H1 1536   3.242   5.587   2.268 -0.1451  1.0550  1.0437
  510TIP3    H2 1537   3.352   5.589   2.164 -1.6858 -0.5031 -0.7009
  511TIP3   OH2 1538   2.597   2.676   2.757 -0.1328  0.1613 -0.5726
  511TIP3    H1 1539   2.554   2.611   2.701 -0.4005  1.0756 -1.4654
  511TIP3    H2 1540   2.609   2.752   2.700 -1.7904  1.6979  0.9764
  512TIP3   OH2 1541   3.985   4.396   4.174  0.3528  0.2003 -0.9629
  512TIP3    H1 1542   3.967   4.345   4.253  1.3798  1.9467  0.4776
  512TIP3    H2 1543   3.906   4.447   4.160  0.4540  0.4793 -0.5572
  513TIP3   OH2 1544   2.094   1.064   2.489  0.0588  0.4788  0.1609
  513TIP3    H1 1545   2.124   1.076   2.399  0.8374  0.7651  0.4530
  513TIP3    H2 1546   2.036   1.138   2.505  1.3519  1.4675  0.4808
  514TIP3   OH2 1547   3.845   2.268   3.715  0.2299  0.4638  0.0361
  514TIP3    H1 1548   3.838   2.293   3.623 -0.2941  0.2773  0.0239
  514TIP3    H2 1549   3.761   2.292   3.753 -1.6988 -4.0458 -0.6674
  515TIP3   OH2 1550   2.760   1.588   1.976  0.5634  0.1553 -0.0298
  515TIP3    H1 1551   2.828   1.522   1.991  0.2619 -0.0355  0.5263
  515TIP3    H2 1552   2.782   1.660   2.035 -0.8276 -0.7505  1.7062
  516TIP3   OH2 1553   2.436   1.560   0.460  0.1754  0.4922 -0.4181
  516TIP3    H1 1554   2.446   1.546   0.554 -1.5275 -1.2770 -0.4332
  516TIP3    H2 1555   2.495   1.633   0.439  0.5434  0.9489  2.0096
  517TIP3   OH2 1556   1.108   2.521   2.685  0.1649  0.2661 -0.1594
  517TIP3    H1 1557   1.015   2.514   2.665  0.5206 -1.3780 -1.4729
  517TIP3    H2 1558   1.136   2.602   2.642 -0.8444  1.3991  1.2249
  518TIP3   OH2 1559   0.401   1.016   3.650  0.2225 -0.0491 -0.7834
  518TIP3    H1 1560   0.434   0.945   3.704 -0.8347 -0.7509 -1.0378
  518TIP3    H2 1561   0.415   0.986   3.560 -1.5385 -0.6031 -0.9067
  519TIP3   OH2 1562   0.312   0.394   2.013 -0.0455  0.3637 -0.2724
  519TIP3    H1 1563   0.320   0.459   1.943 -1.7634 -0.0530 -0.9104
  519TIP3    H2 1564   0.247   0.332   1.980  2.2078 -2.2640 -0.1215
  520TIP3   OH2 1565   5.671   1.460   3.875 -0.0808 -0.5411  0.3033
  520TIP3    H1 1566   5.601   1.452   3.939 -1.6658  0.5666 -1.2193
  520TIP3    H2 1567   5.699   1.370   3.858 -2.2704 -1.1706 -0.2278
  521TIP3   OH2 1568   0.487   2.281   2.099  0.0677 -0.0461 -0.1709
  521TIP3    H1 1569   0.538   2.203   2.120 -0.4069 -0.5445 -0.7990
  521TIP3    H2 1570   0.487   2.285   2.003 -0.2909  0.4683 -0.1568
  522TIP3   OH2 1571   5.998   2.035   3.747 -0.2935  0.2823  0.6469
  522TIP3    H1 1572   5.950   1.980   3.808  0.8247 -0.3390  1.0063
  522TIP3    H2 1573   6.085   1.994   3.742  0.0950  1.1799 -0.2095
  523TIP3   OH2 1574   5.101   5.232   2.689  0.5681  0.2555  0.2106
  523TIP3    H1 1575   5.063   5.320   2.685  2.1130  0.9198 -1.5844
  523TIP3    H2 1576   5.195   5.248   2.701  1.3545 -0.9169 -3.1493
  524TIP3   OH2 1577   3.381   0.902   2.870  0.1935  1.0797  0.3410
  524TIP3    H1 1578   3.362   0.918   2.962 -0.0402  1.6684  0.1958
  524TIP3    H2 1579   3.353   0.983   2.825  2.9304  1.9868  0.0889
  525TIP3   OH2 1580   0.229   0.802   0.878 -0.4098  0.3413  0.0938
  525TIP3    H1 1581   0.290   0.854   0.825  0.2355 -1.7159 -1.2840
  525TIP3    H2 1582   0.233   0.842   0.965  1.6200  1.3202 -0.3866
  526TIP3   OH2 1583   2.946   1.599   5.115  0.2666  0.3114  0.1962
  526TIP3    H1 1584   2.897   1.680   5.130  1.0387  1.1469 -1.4758
  526TIP3    H2 1585   3.038   1.626   5.119  0.5609  0.1149 -2.8994
  527TIP3   OH2 1586   4.976   3.792   0.962  0.2018 -0.2054  0.3559
  527TIP3    H1 1587   4.970   3.701   0.988 -1.8629 -0.9612 -2.2404
  527TIP3    H2 1588   5.053   3.796   0.905  1.1166  0.0575  1.5649
  528TIP3   OH2 1589   2.268   2.090   1.301 -0.0165  0.2552  0.5206
  528TIP3    H1 1590   2.302   2.159   1.245 -3.0969  1.2502 -0.3104
  528TIP3    H2 1591   2.277   2.124   1.390  0.4047  0.7784  0.2804
  529TIP3   OH2 1592   6.042   3.113   0.610 -0.1393  0.6554 -0.0753
  529TIP3    H1 1593   5.997   3.195   0.630 -1.9195 -1.1364  4.7445
  529TIP3    H2 1594   5.974   3.046   0.613  1.7030 -1.3878 -0.7220
  530TIP3   OH2 1595   3.094   2.720   1.966 -0.6224 -0.5921 -0.2066
  530TIP3    H1 1596   3.086   2.813   1.945 -2.1052 -0.7662 -0.5051
  530TIP3    H2 1597   3.155   2.686   1.900 -1.5165 -0.1887 -1.2733
  531TIP3   OH2 1598   1.031   1.094   1.798  0.5042 -0.4915 -0.8812
  531TIP3    H1 1599   1.010   1.182   1.828  1.6851  0.5405 -2.9031
  531TIP3    H2 1600   0.947   1.055   1.774  0.1204  0.7136 -1.5481
  532TIP3   OH2 1601   5.716   5.057   1.311 -0.1767  0.6426 -0.5242
  532TIP3    H1 1602   5.751   5.104   1.236  0.3611 -1.9661 -2.0389
  532TIP3    H2 1603   5.685   4.974   1.275 -1.2951 -0.0904  1.9243
  533TIP3   OH2 1604   5.681   3.267   5.111  0.4634 -0.0170  0.3191
  533TIP3    H1 1605   5.710   3.261   5.202  0.2328 -0.9172  0.3442
  533TIP3    H2 1606   5.588   3.287   5.116 -0.1392 -2.4471  0.3727
  534TIP3   OH2 1607   0.736   5.749   4.934  0.0247 -0.2816  0.3871
  534TIP3    H1 1608   0.776   5.829   4.969 -0.3173 -0.2526  0.7234
  534TIP3    H2 1609   0.793   5.723   4.862  0.4326 -0.0258  0.6123
  535TIP3   OH2 1610   0.500   0.835   3.024  0.0476 -0.3292  0.7483
  535TIP3    H1 1611   0.434   0.803   2.963  1.3474  2.3710 -2.3353
  535TIP3    H2 1612   0.569   0.768   3.022 -0.4792 -0.8622  0.2210
  536TIP3   OH2 1613   5.871   1.874   2.339 -0.2635 -0.5365 -0.2856
  536TIP3    H1 1614   5.805   1.932   2.301  0.0363 -0.1768 -0.2731
  536TIP3    H2 1615   5.889   1.912   2.425 -0.4374 -0.9486 -0.0660
  537TIP3   OH2 1616   1.288   2.084   0.775 -0.1615 -0.2467 -0.2870
  537TIP3    H1 1617   1.292   2.090   0.871 -0.2963  2.4638 -0.3838
  537TIP3    H2 1618   1.202   2.048   0.757  0.0315 -1.2155  0.6002
  538TIP3   OH2 1619   5.241   5.735   3.063  0.3999  0.2458  0.1311
  538TIP3    H1 1620   5.154   5.763   3.093  0.3568  1.7007 -1.2581
  538TIP3    H2 1621   5.269   5.671   3.129 -1.6312 -0.1087  0.7131
  539TIP3   OH2 1622   2.552   3.493   0.125  0.6552 -0.2824 -0.5611
  539TIP3    H1 1623   2.543   3.408   0.083  2.1107 -1.0718  0.6227
  539TIP3    H2 1624   2.570   3.472   0.217 -0.1801  1.3387  0.0070
  540TIP3   OH2 1625   1.286   0.514   2.314  0.1897 -0.0402  0.3355
  540TIP3    H1 1626   1.324   0.427   2.325 -2.5718 -1.3247  0.6776
  540TIP3    H2 1627   1.229   0.524   2.390 -0.7184  1.4131 -0.4947
  541TIP3   OH2 1628   2.120   1.061   3.237 -0.3392 -0.2576  0.4677
  541TIP3    H1 1629   2.112   0.966   3.240  0.4856 -0.3685 -0.3865
  541TIP3    H2 1630   2.209   1.077   3.206  0.0669  0.8094  2.0575
  542TIP3   OH2 1631   1.948   5.221   0.692  0.4930 -0.3326 -0.5728
  542TIP3    H1 1632   1.893   5.293   0.721 -2.1271 -1.4601 -2.3437
  542TIP3    H2 1633   1.893   5.143   0.702  2.7272 -1.9559 -0.0059
  543TIP3   OH2 1634   4.147   5.810   3.497 -0.4106  0.7782 -0.3384
  543TIP3    H1 1635   4.239   5.831   3.513 -0.2697  0.2113 -0.3671
  543TIP3    H2 1636   4.126   5.742   3.561 -0.9981  1.3539  0.0902
  544TIP3   OH2 1637   4.925   1.642   1.718 -0.4325  0.1324  0.0419
  544TIP3    H1 1638   4.855   1.597   1.764 -0.5819  0.8997  0.5832
  544TIP3    H2 1639   4.886   1.724   1.688  0.0185  0.2114 -0.3547
  545TIP3   OH2 1640   2.497   3.589   2.434 -0.0109 -0.2590 -0.1598
  545TIP3    H1 1641   2.552   3.511   2.434  0.3441 -0.0241 -0.9101
  545TIP3    H2 1642   2.537   3.646   2.368 -0.0986  0.6705  0.5694
  546TIP3   OH2 1643   3.151   1.855   0.650 -0.0243 -0.0005  0.0946
  546TIP3    H1 1644   3.084   1.882   0.712 -3.7513 -0.5007 -3.3336
  546TIP3    H2 1645   3.185   1.937   0.613  2.2418  0.3006  2.5439
  547TIP3   OH2 1646   2.033   5.597   0.388 -0.4351 -0.6033 -0.0013
  547TIP3    H1 1647   1.949   5.624   0.423 -1.3075  0.2481 -2.5139
  547TIP3    H2 1648   2.042   5.645   0.306  0.9147 -3.1610 -1.5109
  548TIP3   OH2 1649   6.028   5.775   0.098 -0.2472 -0.3664  0.1971
  548TIP3    H1 1650   5.975   5.755   0.175 -0.0738  1.8789  0.9760
  548TIP3    H2 1651   6.037   5.692   0.052 -1.3482 -1.5228  1.9806
  549TIP3   OH2 1652   2.197   2.916   2.503  0.1657 -0.3104  0.8572
  549TIP3    H1 1653   2.190   2.912   2.598 -1.4080  1.0187  0.8495
  549TIP3    H2 1654   2.153   2.837   2.472  0.4286 -0.5995  1.2131
  550TIP3   OH2 1655   5.852   0.295   5.158 -0.2662  0.2521 -0.7029
  550TIP3    H1 1656   5.903   0.223   5.197 -0.5951  0.3307 -0.1168
  550TIP3    H2 1657   5.913   0.369   5.155  0.0323 -0.0096 -1.1807
  551TIP3   OH2 1658   1.334   4.199   3.935  0.1222  0.5397  0.3456
  551TIP3    H1 1659   1.340   4.175   3.843  1.7525  1.3653  0.2038
  551TIP3    H2 1660   1.390   4.276   3.944  2.6841 -1.3925  2.6183
  552TIP3   OH2 1661   5.715   0.106   2.917 -0.0074  0.3366  0.8529
  552TIP3    H1 1662   5.682   0.019   2.894  0.4713  0.5461 -0.7123
  552TIP3    H2 1663   5.705   0.111   3.013 -0.2416 -1.3382  0.9393
  553TIP3   OH2 1664   5.401   1.595   4.037  0.6226 -0.6809 -0.2796
  553TIP3    H1 1665   5.464   1.601   4.108  1.0385  0.9425 -0.7286
  553TIP3    H2 1666   5.374   1.686   4.021  0.0408 -1.0693 -1.7259
  554TIP3   OH2 1667   1.034   2.510   0.806  0.7653  0.3916  0.3368
  554TIP3    H1 1668   0.991   2.430   0.777  2.9383  0.2783 -3.1577
  554TIP3    H2 1669   0.962   2.571   0.823 -0.8765 -1.0148 -1.1237
  555TIP3   OH2 1670   5.770   3.941   0.731 -0.3403 -0.1564  0.3251
  555TIP3    H1 1671   5.854   3.921   0.691 -0.5040  0.9759 -0.6557
  555TIP3    H2 1672   5.736   4.015   0.680 -2.1233 -0.8623  0.4263
  556TIP3   OH2 1673   0.165   1.964   4.803  0.1916 -0.0073 -0.4702
  556TIP3    H1 1674   0.179   2.052   4.839  1.0763 -0.3919  0.1718
  556TIP3    H2 1675   0.240   1.950   4.745  1.8298 -1.5308  1.8647
  557TIP3   OH2 1676   2.054   4.553   1.535 -0.0625 -0.2440 -0.0214
  557TIP3    H1 1677   2.114   4.611   1.582 -1.0467 -1.4693  2.9976
  557TIP3    H2 1678   2.110   4.483   1.502  0.4969 -0.0949  0.5856
  558TIP3   OH2 1679   2.819   3.093   0.928 -0.3106  0.4444 -0.3428
  558TIP3    H1 1680   2.757   3.020   0.932  2.2080 -1.8775 -0.6330
  558TIP3    H2 1681   2.848   3.106   1.018 -0.2441  0.6044 -0.3866
  559TIP3   OH2 1682   5.200   3.242   1.473 -0.0082 -0.5181 -0.4996
  559TIP3    H1 1683   5.263   3.314   1.463 -0.2909 -0.2180 -0.1701
  559TIP3    H2 1684   5.132   3.260   1.408 -0.0698 -0.4950 -0.4295
  560TIP3   OH2 1685   2.115   1.200   1.277 -0.4563  0.2971 -0.0770
  560TIP3    H1 1686   2.130   1.293   1.259 -1.0481  1.0362  2.7435
  560TIP3    H2 1687   2.033   1.199   1.326 -0.2193 -1.6774  0.3402
  561TIP3   OH2 1688   2.825   1.214   1.156 -0.2173 -0.1639  0.0660
  561TIP3    H1 1689   2.761   1.143   1.151  0.4528 -0.7680 -0.0066
  561TIP3    H2 1690   2.907   1.175   1.127 -0.0835  0.9516 -1.1767
  562TIP3   OH2 1691   6.002   3.861   2.094  0.6562 -0.6023  0.1605
  562TIP3    H1 1692   6.034   3.810   2.020  1.7528  0.1223  0.1072
  562TIP3    H2 1693   6.032   3.813   2.171  0.0660 -1.0157  0.1409
  563TIP3   OH2 1694   1.319   3.280   4.211  0.1566  0.3841 -0.1202
  563TIP3    H1 1695   1.399   3.232   4.190 -1.1053 -2.8187  1.5926
  563TIP3    H2 1696   1.312   3.274   4.306 -3.3985 -2.0828 -0.3150
  564TIP3   OH2 1697   5.288   3.125   2.190  0.2947  1.0641  0.0017
  564TIP3    H1 1698   5.225   3.170   2.247  1.2147  3.1321 -0.5293
  564TIP3    H2 1699   5.373   3.143   2.231  0.6683 -0.6804  0.0445
  565TIP3   OH2 1700   0.919   4.711   3.097  0.2912 -0.1616 -0.2664
  565TIP3    H1 1701   0.994   4.658   3.123  0.5056 -0.0847 -0.7211
  565TIP3    H2 1702   0.920   4.785   3.158  1.6425  0.7772 -1.3801
  566TIP3   OH2 1703   5.097   1.118   2.008  0.2742 -0.4139 -0.7153
  566TIP3    H1 1704   5.085   1.152   1.919  0.9880  0.0330 -0.6509
  566TIP3    H2 1705   5.018   1.067   2.025 -0.4977  0.6235 -1.0939
  567TIP3   OH2 1706   2.112   0.679   4.225 -0.1257 -0.5914 -0.2111
  567TIP3    H1 1707   2.139   0.747   4.164  1.2295 -0.5504  0.3912
  567TIP3    H2 1708   2.172   0.690   4.300 -0.0644 -2.2678  0.0074
  568TIP3   OH2 1709   2.871   5.102   1.496  0.5124 -0.0474 -0.7464
  568TIP3    H1 1710   2.953   5.062   1.526  0.8763 -0.1888 -1.8856
  568TIP3    H2 1711   2.898   5.159   1.424 -0.4519 -0.4463 -1.4272
  569TIP3   OH2 1712   3.713   5.938   3.523 -0.6311 -0.0038  0.3415
  569TIP3    H1 1713   3.718   5.849   3.490  2.4253  0.6788 -1.4057
  569TIP3    H2 1714   3.678   5.989   3.450  1.3997  0.7422 -0.1926
  570TIP3   OH2 1715   2.555   0.917   1.581  0.0986  0.6440 -0.5741
  570TIP3    H1 1716   2.508   0.917   1.498 -0.2344  1.2098 -0.3870
  570TIP3    H2 1717   2.632   0.862   1.565  0.2353  1.0612 -1.3707
  571TIP3   OH2 1718   0.439   0.566   0.511 -0.1419 -0.1234 -0.1314
  571TIP3    H1 1719   0.347   0.576   0.485 -0.7602  0.6903  2.1822
  571TIP3    H2 1720   0.477   0.653   0.501 -0.2944  0.1193  1.1977
  572TIP3   OH2 1721   5.028   0.084   3.274 -0.0085 -0.2568 -0.2519
  572TIP3    H1 1722   5.063   0.148   3.212 -0.3331  0.3257  0.1630
  572TIP3    H2 1723   5.105   0.037   3.306  0.1034 -1.1816 -1.7401
  573TIP3   OH2 1724   4.251   3.954   1.593  0.3277 -0.1382 -0.0869
  573TIP3    H1 1725   4.296   3.988   1.670 -1.0636  0.4181  0.4983
  573TIP3    H2 1726   4.266   3.859   1.597  0.3365 -0.1110  0.8354
  574TIP3   OH2 1727   6.131   4.609   2.021  0.1438 -0.1122 -0.0206
  574TIP3    H1 1728   6.056   4.601   2.079  0.2335 -0.1731  0.0871
  574TIP3    H2 1729   6.183   4.681   2.057 -0.3921  0.6314 -0.6906
  575TIP3   OH2 1730   0.960   1.897   2.133 -0.6013  0.3180 -0.5299
  575TIP3    H1 1731   0.885   1.838   2.125 -0.0826 -0.6028  0.9660
  575TIP3    H2 1732   0.926   1.983   2.108 -1.6614 -0.4019 -1.6682
  576TIP3   OH2 1733   1.384   2.418   0.064 -0.4166  0.4599  0.0683
  576TIP3    H1 1734   1.375   2.486  -0.003 -0.7815  0.3799  0.0323
  576TIP3    H2 1735   1.371   2.336   0.016 -2.1259  0.4551  0.4605
  577TIP3   OH2 1736   5.167   5.958   1.690 -0.2173  0.2562 -0.1308
  577TIP3    H1 1737   5.216   5.884   1.725  0.5322 -0.4291 -2.4714
  577TIP3    H2 1738   5.199   6.033   1.739  0.2207 -0.7262  1.1460
  578TIP3   OH2 1739   2.832   3.579   4.534 -0.0271  0.0136  0.4467
  578TIP3    H1 1740   2.848   3.630   4.613 -0.2451 -0.7236  0.9843
  578TIP3    H2 1741   2.797   3.496   4.566  2.0237 -1.2070 -0.2618
  579TIP3   OH2 1742   6.016   2.354   3.787  0.2018 -0.0408  0.2194
  579TIP3    H1 1743   5.951   2.371   3.719 -2.6146  0.6924  2.8376
  579TIP3    H2 1744   6.002   2.263   3.813  1.0345 -0.2214  0.0809
  580TIP3   OH2 1745   2.861   1.812   2.555 -0.5978 -0.2464 -0.2561
  580TIP3    H1 1746   2.870   1.816   2.651  0.0036  4.0668 -0.3250
  580TIP3    H2 1747   2.774   1.846   2.538  0.4419  2.0810 -1.2823
  581TIP3   OH2 1748   3.550   0.565   2.027 -0.3737 -0.0936 -0.1462
  581TIP3    H1 1749   3.611   0.540   2.096 -0.8854 -0.8799  0.0367
  581TIP3    H2 1750   3.547   0.488   1.969 -0.0117  0.5195 -1.0084
  582TIP3   OH2 1751   3.673   0.601   0.354  0.2618  0.4353  0.0469
  582TIP3    H1 1752   3.585   0.588   0.389  0.7426 -2.0856  0.5005
  582TIP3    H2 1753   3.704   0.680   0.397 -0.7255 -0.2442  2.1249
  583TIP3   OH2 1754   5.686   4.037   4.224  0.3167  0.6559 -0.5719
  583TIP3    H1 1755   5.599   4.067   4.199 -0.2252 -0.3942 -0.0178
  583TIP3    H2 1756   5.685   3.943   4.205  1.0279  0.4693  0.2644
  584TIP3   OH2 1757   4.628   5.205   4.437  0.2147  0.3801  0.1915
  584TIP3    H1 1758   4.646   5.179   4.527 -0.4895  0.9119  0.5045
  584TIP3    H2 1759   4.574   5.284   4.446 -0.9939 -0.3067 -0.6740
  585TIP3   OH2 1760   4.961   5.580   1.071 -0.3878 -0.1994 -0.1330
  585TIP3    H1 1761   4.869   5.598   1.092 -0.1636 -0.0802  0.7878
  585TIP3    H2 1762   4.975   5.489   1.098  0.5494  0.6845  2.6354
  586TIP3   OH2 1763   3.365   2.173   1.303 -0.1134  0.4920 -0.9687
  586TIP3    H1 1764   3.326   2.108   1.244 -1.0901 -1.8283  1.9894
  586TIP3    H2 1765   3.294   2.235   1.320 -0.1706  0.5388 -1.3594
  587TIP3   OH2 1766   2.947   5.634   3.759 -0.0797 -0.2220  0.2531
  587TIP3    H1 1767   2.945   5.578   3.836  0.0275  1.3509  1.4467
  587TIP3    H2 1768   3.037   5.666   3.754  0.2321 -1.2028 -1.2368
  588TIP3   OH2 1769   3.421   4.046   1.061  0.1361 -0.1748 -0.1159
  588TIP3    H1 1770   3.424   3.952   1.080  0.3429  0.0315  0.9340
  588TIP3    H2 1771   3.441   4.051   0.968 -1.3345 -1.2628 -0.5296
  589TIP3   OH2 1772   5.467   2.595   0.604 -0.0868 -0.4958 -0.0240
  589TIP3    H1 1773   5.406   2.542   0.553  1.0060 -1.9356  0.0705
  589TIP3    H2 1774   5.553   2.556   0.586  0.3576 -1.0838  2.8423
  590TIP3   OH2 1775   6.028   0.397   3.859 -0.5079 -0.3127  0.1374
  590TIP3    H1 1776   5.952   0.371   3.807 -1.3623 -1.2056  1.7520
  590TIP3    H2 1777   5.999   0.386   3.950  1.7169 -1.2105  0.7989
  591TIP3   OH2 1778   1.372   5.510   3.412 -0.1050  0.7915  0.6480
  591TIP3    H1 1779   1.465   5.531   3.403  0.2324 -0.5895  0.7026
  591TIP3    H2 1780   1.366   5.457   3.491 -1.2403  2.3938  1.7098
  592TIP3   OH2 1781   2.738   0.403   2.065 -0.0760  0.0090  0.1085
  592TIP3    H1 1782   2.759   0.359   1.983 -1.8340  0.7042 -0.7668
  592TIP3    H2 1783   2.658   0.361   2.096 -0.0604  0.5094  0.8590
  593TIP3   OH2 1784   5.093   1.686   4.310 -0.6243 -0.0732  0.4626
  593TIP3    H1 1785   5.136   1.767   4.337 -1.4810 -0.0210  1.7009
  593TIP3    H2 1786   5.055   1.706   4.224 -0.4440  0.6893  0.5592
  594TIP3   OH2 1787   1.677   4.407   4.578  0.0434  0.0928  0.1219
  594TIP3    H1 1788   1.658   4.314   4.570 -0.8185  0.0031  2.4640
  594TIP3    H2 1789   1.773   4.412   4.578  0.0994 -0.8598  0.6311
  595TIP3   OH2 1790   5.746   4.264   1.311 -0.7614  0.0192  0.1292
  595TIP3    H1 1791   5.769   4.257   1.404  2.3091 -0.9304 -0.5771
  595TIP3    H2 1792   5.754   4.174   1.278 -0.9392  0.4740 -1.2131
  596TIP3   OH2 1793   5.128   1.598   0.667 -0.5667 -0.0681 -0.0991
  596TIP3    H1 1794   5.055   1.539   0.684 -1.5338  0.7898 -1.1171
  596TIP3    H2 1795   5.158   1.627   0.753 -0.8059 -1.1598  0.3580
  597TIP3   OH2 1796   2.335   2.610   1.572 -0.5232  0.2607 -0.3261
  597TIP3    H1 1797   2.251   2.592   1.530 -0.6256  0.2505 -0.1182
  597TIP3    H2 1798   2.392   2.638   1.500 -0.8205  0.6670 -0.4062
  598TIP3   OH2 1799   3.703   0.620   1.624  0.7964  0.0580  0.1496
  598TIP3    H1 1800   3.612   0.608   1.651  1.3111 -2.4480  1.0827
  598TIP3    H2 1801   3.699   0.677   1.548 -1.3027  2.0366  1.6518
  599TIP3   OH2 1802   4.467   1.692   4.158  0.1273 -0.3443  0.3136
  599TIP3    H1 1803   4.383   1.648   4.145 -0.8653  1.3335  0.7608
  599TIP3    H2 1804   4.506   1.648   4.233 -1.6342  0.6138  1.8697
  600TIP3   OH2 1805   2.134   2.508   4.083 -0.2325  0.3170  0.2838
  600TIP3    H1 1806   2.226   2.535   4.076  0.0453 -0.1091  1.9718
  600TIP3    H2 1807   2.113   2.519   4.176 -1.1666 -1.8734  0.3853
  601TIP3   OH2 1808   0.319   0.769   3.222  0.3078 -0.4405  0.3202
  601TIP3    H1 1809   0.370   0.778   3.141 -0.1204  1.5534  0.2139
  601TIP3    H2 1810   0.260   0.844   3.221 -0.2546 -0.8204  2.1077
  602TIP3   OH2 1811   1.060   1.994   2.386 -0.0164 -1.2154 -0.0993
  602TIP3    H1 1812   1.025   1.936   2.317  0.0027 -1.4006  0.0469
  602TIP3    H2 1813   1.146   1.958   2.406  1.0855  0.3329 -1.7884
  603TIP3   OH2 1814   3.817   0.226   2.913 -0.4040  0.6767  0.1352
  603TIP3    H1 1815   3.763   0.211   2.835  0.6757  0.8545 -0.6577
  603TIP3    H2 1816   3.802   0.317   2.935  0.6210  1.1335 -0.9295
  604TIP3   OH2 1817   3.251   0.229   4.654 -0.0128 -0.4016  0.1902
  604TIP3    H1 1818   3.325   0.289   4.658  0.1377 -0.4116 -1.6352
  604TIP3    H2 1819   3.204   0.255   4.575 -0.3017 -2.2847 -0.2932
  605TIP3   OH2 1820   6.071   5.629   2.897  0.1423  0.2652 -0.5298
  605TIP3    H1 1821   6.082   5.709   2.948  0.4085  0.2558 -0.5697
  605TIP3    H2 1822   6.082   5.657   2.806 -1.3187  0.4616 -0.6717
  606TIP3   OH2 1823   1.976   1.171   1.928 -0.6037  0.2254  0.5034
  606TIP3    H1 1824   1.995   1.102   1.864 -2.4909  0.5177 -0.4452
  606TIP3    H2 1825   2.013   1.250   1.888 -0.8873  0.2269  0.2317
  607TIP3   OH2 1826   2.816   0.201   4.317  0.0737  0.0260  0.0925
  607TIP3    H1 1827   2.775   0.179   4.234  2.3699 -2.2343 -0.5923
  607TIP3    H2 1828   2.752   0.175   4.383 -0.9460 -0.1911 -0.9614
  608TIP3   OH2 1829   1.339   2.526   2.020 -0.1472  0.4500 -0.5649
  608TIP3    H1 1830   1.323   2.616   1.990  3.2372  1.0774 -0.8808
  608TIP3    H2 1831   1.324   2.472   1.943 -4.1182  0.3313  0.0771
  609TIP3   OH2 1832   5.560   2.386   3.068  0.4635 -0.6260 -0.0369
  609TIP3    H1 1833   5.584   2.353   3.154  0.6115 -0.1300  0.1134
  609TIP3    H2 1834   5.593   2.476   3.066 -1.3612  0.0817  0.1790
  610TIP3   OH2 1835   5.104   2.755   2.555  0.4541  0.0579  0.5409
  610TIP3    H1 1836   5.194   2.734   2.533 -0.2087 -2.7194  0.1014
  610TIP3    H2 1837   5.082   2.696   2.627 -0.7528  1.3224  1.2570
  611TIP3   OH2 1838   4.206   0.008   2.168  0.4514  0.1311  0.2102
  611TIP3    H1 1839   4.295  -0.022   2.153  0.7375  1.1205 -0.1640
  611TIP3    H2 1840   4.213   0.103   2.170 -0.7737  0.2824 -1.0464
  612TIP3   OH2 1841   1.650   0.870   3.256  0.0172 -0.4528 -0.4982
  612TIP3    H1 1842   1.589   0.941   3.234 -0.3079 -0.8322 -0.8353
  612TIP3    H2 1843   1.713   0.870   3.185  2.1296  1.7751  1.1867
  613TIP3   OH2 1844   0.805   0.904   0.084  0.1179 -0.4659  0.2213
  613TIP3    H1 1845   0.794   0.994   0.053 -1.7166 -0.6382  0.2811
  613TIP3    H2 1846   0.877   0.870   0.030  0.1244  0.6937 -0.5534
  614TIP3   OH2 1847   5.324   0.204   2.465  0.0596 -0.2933  0.3218
  614TIP3    H1 1848   5.392   0.180   2.527  0.7809 -0.1870 -0.4167
  614TIP3    H2 1849   5.302   0.295   2.487  0.1380 -0.3359  0.5735
  615TIP3   OH2 1850   0.471   4.565   2.421 -0.0840  0.6154  0.2616
  615TIP3    H1 1851   0.554   4.601   2.388 -0.1312  1.9288  1.4963
  615TIP3    H2 1852   0.492   4.532   2.508 -0.6555  0.0593  0.1950
  616TIP3   OH2 1853   0.626   0.690   2.397 -0.3524  0.3505  0.1395
  616TIP3    H1 1854   0.671   0.635   2.461 -1.7546  0.1551  0.9971
  616TIP3    H2 1855   0.682   0.767   2.389 -0.6794  0.9486  2.5641
  617TIP3   OH2 1856   1.086   5.726   4.938 -0.0213 -0.2054 -0.0553
  617TIP3    H1 1857   1.090   5.819   4.918  2.2198 -0.5356 -1.5413
  617TIP3    H2 1858   1.116   5.683   4.857 -0.1597 -2.1591  0.8761
  618TIP3   OH2 1859   5.376   0.522   4.736  0.1701 -0.4258 -0.2940
  618TIP3    H1 1860   5.371   0.502   4.643 -0.8645  2.0726 -0.8440
  618TIP3    H2 1861   5.440   0.594   4.742  1.1833 -1.3783  1.1157
  619TIP3   OH2 1862   3.499   1.862   2.679 -0.4350 -0.7826 -0.9170
  619TIP3    H1 1863   3.570   1.926   2.692  1.8175 -3.2606 -0.0510
  619TIP3    H2 1864   3.476   1.871   2.587  0.2945  0.7841 -0.9827
  620TIP3   OH2 1865   4.152   0.874   3.495 -0.1540  0.2625  0.1159
  620TIP3    H1 1866   4.208   0.807   3.534 -0.3999 -0.0351 -0.0384
  620TIP3    H2 1867   4.063   0.840   3.505 -0.1743 -0.1754 -1.3718
  621TIP3   OH2 1868   5.722   1.676   2.547  0.2301 -0.7906 -0.1008
  621TIP3    H1 1869   5.806   1.637   2.569 -0.0499 -1.5604 -0.3482
  621TIP3    H2 1870   5.675   1.607   2.501 -0.6826 -0.5060  0.3652
  622TIP3   OH2 1871   1.876   2.333   3.793  0.2150 -0.3578  0.0315
  622TIP3    H1 1872   1.947   2.362   3.735  0.9984  1.2026  1.6574
  622TIP3    H2 1873   1.922   2.293   3.867 -0.6378  0.0490  0.7881
  623TIP3   OH2 1874   6.311   0.947   1.907  0.3866  0.4970 -0.0363
  623TIP3    H1 1875   6.266   0.920   1.827  0.7937  2.1351 -0.8650
  623TIP3    H2 1876   6.244   0.945   1.975 -0.0157 -0.6995 -0.4460
  624TIP3   OH2 1877   2.458   4.688   0.173 -0.1276  0.2818  0.3603
  624TIP3    H1 1878   2.385   4.650   0.221  0.9359 -2.7421 -0.1607
  624TIP3    H2 1879   2.440   4.668   0.081  1.0243 -0.0165  0.1756
  625TIP3   OH2 1880   1.088   2.057   0.392  0.1919 -0.3230 -0.0443
  625TIP3    H1 1881   1.166   2.111   0.401 -0.2081  0.0644  1.3092
  625TIP3    H2 1882   1.104   2.004   0.314  0.7863  1.4101 -1.1491
  626TIP3   OH2 1883   1.305   0.685   2.996  0.0832 -0.0006  0.4488
  626TIP3    H1 1884   1.381   0.673   3.054  0.2591 -0.9214  0.0463
  626TIP3    H2 1885   1.311   0.613   2.934 -0.7123  0.3566 -0.0542
  627TIP3   OH2 1886   5.598   1.736   2.249 -0.0459 -0.0960 -0.3855
  627TIP3    H1 1887   5.608   1.831   2.258 -0.5557  0.0841 -1.5313
  627TIP3    H2 1888   5.685   1.700   2.271  0.4954  0.7257 -1.1249
  628TIP3   OH2 1889   5.920   4.227   0.428  0.4986 -0.1443  0.8378
  628TIP3    H1 1890   5.910   4.310   0.474 -0.6579 -0.3131  0.9180
  628TIP3    H2 1891   6.000   4.237   0.377  0.1721  1.1484  0.5638
  629TIP3   OH2 1892   1.598   2.031   4.945  0.1390 -0.3663  0.5454
  629TIP3    H1 1893   1.559   2.077   5.019  0.5701  0.9613 -0.0260
  629TIP3    H2 1894   1.644   2.099   4.896  1.8161 -1.5938  0.3071
  630TIP3   OH2 1895   4.016   1.340   0.061 -0.1777  0.3729 -0.4640
  630TIP3    H1 1896   4.105   1.342   0.024  0.6685 -1.3481  1.2414
  630TIP3    H2 1897   4.024   1.389   0.143 -0.5570 -0.4783  0.0977
  631TIP3   OH2 1898   5.297   4.904   2.058  0.9511 -0.3478 -0.7841
  631TIP3    H1 1899   5.356   4.847   2.008  1.5304  0.5669 -1.1669
  631TIP3    H2 1900   5.240   4.943   1.992  2.6228  1.9556 -1.0014
  632TIP3   OH2 1901   0.552   0.670   4.393  0.4010 -0.1046  0.2017
  632TIP3    H1 1902   0.551   0.583   4.433  2.0636 -0.4287 -0.3773
  632TIP3    H2 1903   0.592   0.656   4.307 -1.0530  0.9373 -0.6881
  633TIP3   OH2 1904   5.722   4.883   4.845  0.1260 -0.1222  0.6752
  633TIP3    H1 1905   5.683   4.877   4.758  0.1480 -0.4185  0.6857
  633TIP3    H2 1906   5.691   4.805   4.891 -1.8863  1.2265  1.7509
  634TIP3   OH2 1907   5.786   2.185   2.087 -0.2603 -0.1402 -0.5597
  634TIP3    H1 1908   5.879   2.199   2.107  0.0546 -0.2889 -1.8490
  634TIP3    H2 1909   5.741   2.254   2.135  0.3805 -0.8521  1.1437
  635TIP3   OH2 1910   4.761   2.958   2.316  0.0523 -0.5149  0.1673
  635TIP3    H1 1911   4.822   2.908   2.261 -0.8151 -1.0125 -0.3512
  635TIP3    H2 1912   4.694   2.989   2.256  0.0015  0.3861  0.6698
  636TIP3   OH2 1913   4.249   2.533   1.716 -0.4002 -0.2307 -0.4543
  636TIP3    H1 1914   4.312   2.603   1.731 -1.2630  0.7751 -1.3711
  636TIP3    H2 1915   4.184   2.544   1.786 -0.1791 -0.5320 -0.2025
  637TIP3   OH2 1916   5.974   3.130   4.361 -0.2161 -0.0969  0.6199
  637TIP3    H1 1917   6.050   3.074   4.347  0.7357  0.9310  1.5270
  637TIP3    H2 1918   6.010   3.216   4.382 -1.5435 -0.2586  4.1686
  638TIP3   OH2 1919   6.355   0.505   1.962  0.5079 -0.0808 -0.2266
  638TIP3    H1 1920   6.276   0.514   2.015  1.9860  0.3120  2.0348
  638TIP3    H2 1921   6.353   0.414   1.931 -0.3641 -0.3527  0.5806
  639TIP3   OH2 1922   5.589   3.838   5.027  0.0774 -0.1202 -0.3213
  639TIP3    H1 1923   5.508   3.887   5.014  0.7472  0.6480 -1.7767
  639TIP3    H2 1924   5.563   3.746   5.026 -0.9116  0.1376  0.3524
  640TIP3   OH2 1925   4.756   5.325   0.996 -0.1247  0.2297  0.7366
  640TIP3    H1 1926   4.681   5.369   0.957  1.5172  0.5833 -2.3251
  640TIP3    H2 1927   4.754   5.236   0.961  1.9184  0.8281 -1.1467
  641TIP3   OH2 1928   3.916   2.111   0.891  0.0595 -0.1130 -0.4053
  641TIP3    H1 1929   3.833   2.149   0.920 -0.3080 -1.2822  0.1322
  641TIP3    H2 1930   3.969   2.187   0.865 -0.8611  0.7139  0.0452
  642TIP3   OH2 1931   4.078   3.409   5.027  0.0963  0.2907  0.0117
  642TIP3    H1 1932   4.140   3.372   5.090 -1.0407  0.1293  1.0671
  642TIP3    H2 1933   4.096   3.361   4.946  0.3624 -0.7907  0.6902
  643TIP3   OH2 1934   5.773   4.692   1.979 -1.2302  0.4245  0.3298
  643TIP3    H1 1935   5.826   4.771   1.978 -0.5122 -0.0163 -1.7214
  643TIP3    H2 1936   5.760   4.672   2.072 -0.5498  2.3371  0.8697
  644TIP3   OH2 1937   3.708   4.004   2.584  0.0598 -0.3974  0.0400
  644TIP3    H1 1938   3.734   4.086   2.626 -0.1912 -0.3271  0.0604
  644TIP3    H2 1939   3.681   3.948   2.656 -0.3982 -0.2677 -0.0227
  645TIP3   OH2 1940   2.948   4.014   1.440 -0.2692  0.1778 -0.2794
  645TIP3    H1 1941   3.001   4.025   1.361  1.0500 -0.0260  0.5482
  645TIP3    H2 1942   3.000   3.956   1.496 -0.6308  1.2520  1.2191
  646TIP3   OH2 1943   6.285   4.934   2.585 -0.3733 -0.1729 -0.1103
  646TIP3    H1 1944   6.324   4.891   2.661 -1.5648  0.3891  0.8420
  646TIP3    H2 1945   6.230   4.866   2.545 -0.4380 -0.2030  0.0322
  647TIP3   OH2 1946   0.009   1.840   4.981 -0.2142 -0.7488 -0.0117
  647TIP3    H1 1947   0.045   1.895   4.912 -2.5125  0.2458 -0.5066
  647TIP3    H2 1948  -0.011   1.900   5.053 -0.5578 -1.3189  0.3835
  648TIP3   OH2 1949   4.128   3.692   4.013 -0.0267 -0.1509  0.1270
  648TIP3    H1 1950   4.208   3.743   4.022 -0.9696  1.1546  1.6773
  648TIP3    H2 1951   4.089   3.723   3.930 -0.8383  2.1458  1.2740
  649TIP3   OH2 1952   5.431   1.011   4.815 -0.0675 -0.2044 -0.0458
  649TIP3    H1 1953   5.479   1.043   4.891  0.4577  1.1436 -0.9013
  649TIP3    H2 1954   5.342   0.995   4.847 -0.0060  0.9142  0.7362
  650TIP3   OH2 1955   3.044   2.389   2.337 -0.0477  0.3098 -0.4526
  650TIP3    H1 1956   3.081   2.356   2.255 -1.5415  0.6872 -1.3191
  650TIP3    H2 1957   3.064   2.483   2.335 -0.7086  0.4528 -0.7608
  651TIP3   OH2 1958   5.878   4.275   0.817  0.4890  0.3735  0.1570
  651TIP3    H1 1959   5.859   4.332   0.892  3.0994  2.3802 -0.5661
  651TIP3    H2 1960   5.799   4.279   0.763 -0.7693  0.3058  1.9016
  652TIP3   OH2 1961   4.614   5.174   3.275 -0.0593 -0.2037  0.1267
  652TIP3    H1 1962   4.578   5.169   3.363 -1.4449  1.6982 -0.2595
  652TIP3    H2 1963   4.561   5.114   3.222 -0.4974  0.1124  0.2100
  653TIP3   OH2 1964   6.143   3.730   1.905  0.0862  0.3343 -0.4554
  653TIP3    H1 1965   6.117   3.696   1.820 -3.5345  3.4746 -0.9075
  653TIP3    H2 1966   6.223   3.779   1.889 -0.7691  1.2350 -2.2487
  654TIP3   OH2 1967   3.895   1.612   1.067  0.1132  0.2237 -0.1069
  654TIP3    H1 1968   3.915   1.697   1.028  1.1309  0.4349  0.8342
  654TIP3    H2 1969   3.803   1.597   1.045  0.3744  0.7980 -1.6847
  655TIP3   OH2 1970   3.889   1.001   0.960  0.5911 -0.3719 -0.0975
  655TIP3    H1 1971   3.952   0.930   0.953  1.6680  0.4891  0.5620
  655TIP3    H2 1972   3.942   1.081   0.964 -0.3063  0.2384  3.2098
  656TIP3   OH2 1973   4.154   0.744   1.382 -0.4319  0.4274 -0.3583
  656TIP3    H1 1974   4.209   0.701   1.447 -0.2789  0.0933 -0.7055
  656TIP3    H2 1975   4.077   0.687   1.373 -1.0667  1.1298  0.4693
  657TIP3   OH2 1976   4.440   3.757   0.283  0.4628  0.3190  0.0089
  657TIP3    H1 1977   4.363   3.811   0.264  1.3374  1.4935 -0.3453
  657TIP3    H2 1978   4.492   3.760   0.203  1.0112 -0.2292  0.3342
  658TIP3   OH2 1979   1.009   4.465   3.719  0.4916  0.0019 -0.4194
  658TIP3    H1 1980   1.051   4.546   3.692 -1.0438  0.7503 -0.6791
  658TIP3    H2 1981   0.915   4.480   3.704  0.0081 -1.2032  1.0790
  659TIP3   OH2 1982   2.323   2.718   2.902 -0.1781  0.2351 -0.4275
  659TIP3    H1 1983   2.417   2.701   2.891 -0.5594 -1.3114 -1.5136
  659TIP3    H2 1984   2.281   2.669   2.831 -1.8670  0.3490  0.4507
  660TIP3   OH2 1985   1.372   0.956   0.140 -0.1545  0.3955 -0.3346
  660TIP3    H1 1986   1.324   1.006   0.073 -0.0629 -0.5666 -1.1436
  660TIP3    H2 1987   1.304   0.928   0.202 -0.2944  0.9775 -0.2163
  661TIP3   OH2 1988   3.358   2.622   1.902 -0.0181  0.0061  0.5471
  661TIP3    H1 1989   3.395   2.691   1.846  0.3928  1.1311  2.1197
  661TIP3    H2 1990   3.430   2.561   1.915 -0.0829 -0.2038 -0.0544
  662TIP3   OH2 1991   4.306   5.363   1.755  0.0623  0.3195  0.2603
  662TIP3    H1 1992   4.292   5.431   1.822 -1.9520  1.0183 -0.7890
  662TIP3    H2 1993   4.292   5.409   1.672  1.4550 -0.7812 -0.6180
  663TIP3   OH2 1994   4.381   3.162   1.196 -0.8235 -0.2153  0.3882
  663TIP3    H1 1995   4.436   3.227   1.151 -0.7451 -0.4530  0.1394
  663TIP3    H2 1996   4.415   3.078   1.167 -1.0567 -0.3666  0.5545
  664TIP3   OH2 1997   4.950   0.310   0.047 -0.2796  0.1475  0.2270
  664TIP3    H1 1998   4.900   0.235   0.078  0.3937 -0.4113 -0.0194
  664TIP3    H2 1999   4.908   0.386   0.089  0.1080 -0.5019  1.8610
  665TIP3   OH2 2000   5.072   5.663   3.418  0.1661 -0.2034  0.3174
  665TIP3    H1 2001   5.132   5.630   3.351  1.5550 -1.0324  1.8961
  665TIP3    H2 2002   5.008   5.593   3.431 -0.0797 -0.0578 -0.1030
  666TIP3   OH2 2003   2.239   1.702   3.696  0.3955  0.1985 -0.5078
  666TIP3    H1 2004   2.314   1.667   3.649 -0.4915 -2.2241 -0.2424
  666TIP3    H2 2005   2.166   1.693   3.635 -0.4075 -1.2501  0.5945
  667TIP3   OH2 2006   4.713   1.212   4.169 -0.0250 -0.0708 -0.0139
  667TIP3    H1 2007   4.762   1.259   4.101  1.1616 -3.0893 -1.4118
  667TIP3    H2 2008   4.752   1.125   4.171 -4.0293 -2.0678  0.2387
  668TIP3   OH2 2009  -0.003   2.444   3.156  0.4338  0.1972  0.2491
  668TIP3    H1 2010   0.001   2.464   3.249  0.2494  1.5807 -0.0160
  668TIP3    H2 2011   0.068   2.496   3.117  0.5444 -0.4059 -0.3706
  669TIP3   OH2 2012   2.870   3.056   4.136  0.5187  0.4372 -0.1980
  669TIP3    H1 2013   2.813   3.102   4.198  0.7988  0.0152  0.3798
  669TIP3    H2 2014   2.829   3.072   4.050  0.2077  1.1479  0.0686
  670TIP3   OH2 2015   0.546   2.480   3.291  0.0360  0.0252 -0.0396
  670TIP3    H1 2016   0.482   2.530   3.343  0.0903 -0.1468  0.1911
  670TIP3    H2 2017   0.624   2.536   3.290  0.7359 -0.8435  1.7674
  671TIP3   OH2 2018   4.511   2.935   4.611  0.4356  0.4102 -0.6547
  671TIP3    H1 2019   4.509   2.932   4.706  2.4597 -0.7747 -0.5883
  671TIP3    H2 2020   4.458   2.861   4.582 -1.2131  1.4831 -0.5388
  672TIP3   OH2 2021   1.289   0.104   1.447 -0.5788  0.6272  0.5242
  672TIP3    H1 2022   1.376   0.092   1.408 -0.3185  2.0794  0.6123
  672TIP3    H2 2023   1.235   0.135   1.374 -0.9672  0.0139  0.5403
  673TIP3   OH2 2024   1.155   0.367   4.935  0.0718 -0.5130  0.3435
  673TIP3    H1 2025   1.097   0.354   4.860 -1.2396  2.8998  0.5584
  673TIP3    H2 2026   1.145   0.460   4.956  1.8247 -0.9288  3.6058
  674TIP3   OH2 2027   0.463   5.844   4.315 -0.0036 -0.1833 -0.3310
  674TIP3    H1 2028   0.545   5.863   4.360 -0.9740 -1.5171  2.1800
  674TIP3    H2 2029   0.425   5.770   4.363 -2.3564 -0.0566 -1.8178
  675TIP3   OH2 2030   0.986   1.931   4.659 -0.3521 -0.5378 -0.0727
  675TIP3    H1 2031   1.023   1.920   4.571  0.3386  0.9290  0.0058
  675TIP3    H2 2032   0.929   2.008   4.652  2.9143  2.3159  1.6331
  676TIP3   OH2 2033   0.636   4.887   0.790 -0.1913  0.1893  0.8363
  676TIP3    H1 2034   0.689   4.931   0.856  3.2140  0.1344 -1.5722
  676TIP3    H2 2035   0.658   4.932   0.708 -1.4344 -1.9668 -0.7866
  677TIP3   OH2 2036   0.278   3.948   0.162  0.1345  0.0080  0.1571
  677TIP3    H1 2037   0.364   3.980   0.189 -0.4584  2.2390 -0.4035
  677TIP3    H2 2038   0.289   3.853   0.158  2.5817  0.2149  0.0497
  678TIP3   OH2 2039   3.574   5.474   0.292  0.1444 -0.4655  0.2188
  678TIP3    H1 2040   3.524   5.522   0.225  1.4217  0.6725  0.0277
  678TIP3    H2 2041   3.656   5.450   0.248  0.9752  0.2257  1.3345
  679TIP3   OH2 2042   3.349   1.681   4.747 -0.0717  0.2336 -0.2348
  679TIP3    H1 2043   3.314   1.670   4.836 -0.0267 -0.9443 -0.3488
  679TIP3    H2 2044   3.397   1.764   4.751 -2.8613  1.9801 -0.0866
  680TIP3   OH2 2045   0.740   1.678   0.728  0.3103  0.0287  0.4678
  680TIP3    H1 2046   0.654   1.710   0.755 -0.3868  0.2108 -1.7218
  680TIP3    H2 2047   0.803   1.736   0.771 -0.8139  2.1917 -0.6421
  681TIP3   OH2 2048   5.724   3.857   0.998 -0.2066  0.5438 -0.1835
  681TIP3    H1 2049   5.745   3.764   0.994  0.6111  0.3739  3.7735
  681TIP3    H2 2050   5.743   3.890   0.911 -0.6629 -2.9707 -1.7775
  682TIP3   OH2 2051   2.916   1.593   3.250 -0.3151  0.0333  0.0133
  682TIP3    H1 2052   2.841   1.589   3.310 -0.2851  3.2915  0.4767
  682TIP3    H2 2053   2.982   1.642   3.299  0.8005  0.2542 -1.6464
  683TIP3   OH2 2054   0.584   1.772   2.483  0.3171  0.0775 -0.0188
  683TIP3    H1 2055   0.677   1.784   2.503  0.3313 -0.2713  0.1406
  683TIP3    H2 2056   0.542   1.849   2.521  0.4665 -0.0865  0.4967
  684TIP3   OH2 2057   5.569   1.924   2.509 -0.3966  0.2691 -0.3373
  684TIP3    H1 2058   5.631   1.853   2.522  0.4646  1.1092  0.1824
  684TIP3    H2 2059   5.491   1.897   2.557  0.7701  0.7602  1.9548
  685TIP3   OH2 2060   0.696   2.802   3.882 -0.6423 -0.3464  0.3926
  685TIP3    H1 2061   0.729   2.876   3.830 -0.4169  0.2426  1.3442
  685TIP3    H2 2062   0.623   2.768   3.832  0.4507 -0.7095 -1.0231
  686TIP3   OH2 2063   3.042   3.783   1.568  0.0130 -0.3211  0.3741
  686TIP3    H1 2064   2.982   3.772   1.642 -0.4594 -1.5110 -0.1610
  686TIP3    H2 2065   3.129   3.781   1.609 -0.2723  1.4641  1.1574
  687TIP3   OH2 2066   2.432   2.172   0.830  0.6614  0.7484 -0.0387
  687TIP3    H1 2067   2.507   2.206   0.879 -0.0025 -0.2587  1.7939
  687TIP3    H2 2068   2.361   2.232   0.849  0.8164  1.3539 -1.2733
  688TIP3   OH2 2069   2.283   4.345   2.404 -0.0599  0.0403 -0.0651
  688TIP3    H1 2070   2.360   4.290   2.416 -0.6486 -0.2962  3.2779
  688TIP3    H2 2071   2.310   4.431   2.437 -0.2836  0.7506 -1.6563
  689TIP3   OH2 2072   3.383   0.351   3.099  0.0106  0.2021  0.3172
  689TIP3    H1 2073   3.374   0.256   3.088  1.0373 -0.1060  1.9566
  689TIP3    H2 2074   3.425   0.380   3.018 -2.1454 -0.4029 -1.1016
  690TIP3   OH2 2075   4.981   3.946   5.172  0.4976 -0.0851 -0.5893
  690TIP3    H1 2076   4.944   3.879   5.113 -0.1687 -1.6256  1.4489
  690TIP3    H2 2077   4.909   4.008   5.185  0.4124 -0.1271 -0.8489
  691TIP3   OH2 2078   5.243   1.058   2.243  0.3828  0.1372  0.4744
  691TIP3    H1 2079   5.211   1.134   2.292  1.0957  0.1567  0.9230
  691TIP3    H2 2080   5.212   1.071   2.154  0.8864  1.1823  0.4468
  692TIP3   OH2 2081   2.915   0.494   0.675 -0.7592  0.0379 -0.2808
  692TIP3    H1 2082   2.860   0.566   0.644  1.8660  2.9653  1.2338
  692TIP3    H2 2083   2.972   0.473   0.601 -1.0017  0.0874 -0.4811
  693TIP3   OH2 2084   4.889   1.442   2.554  0.5904 -0.3758  0.3488
  693TIP3    H1 2085   4.861   1.523   2.510 -1.4267 -0.2428  1.6858
  693TIP3    H2 2086   4.936   1.473   2.632  2.7209 -0.5861 -0.7977
  694TIP3   OH2 2087   1.673   2.093   2.168 -0.5042 -0.5045 -0.1232
  694TIP3    H1 2088   1.621   2.171   2.150  0.7627  0.3044 -0.3906
  694TIP3    H2 2089   1.626   2.049   2.239 -1.7813 -0.0467 -0.6438
  695TIP3   OH2 2090   0.920   2.753   2.540 -0.4296  0.0080 -0.4719
  695TIP3    H1 2091   0.839   2.776   2.494 -0.0306 -0.1305 -1.2458
  695TIP3    H2 2092   0.897   2.760   2.633 -0.7868  1.8854 -0.6666
  696TIP3   OH2 2093   0.916   0.585   1.260 -0.3685 -0.3664 -0.0251
  696TIP3    H1 2094   0.986   0.648   1.245 -1.2629  1.7427  3.5046
  696TIP3    H2 2095   0.836   0.631   1.232 -0.8120 -0.8809  0.3576
  697TIP3   OH2 2096   3.433   4.690   2.685  0.0633 -0.5566  0.0154
  697TIP3    H1 2097   3.489   4.623   2.723 -2.0203 -3.4863 -1.6244
  697TIP3    H2 2098   3.478   4.716   2.604  1.5716  1.2487  1.3362
  698TIP3   OH2 2099   4.851   3.370   0.461 -0.0189 -0.2247  0.1954
  698TIP3    H1 2100   4.857   3.334   0.550  0.8399 -1.3180 -0.2830
  698TIP3    H2 2101   4.861   3.294   0.404  0.3992  0.5942 -0.8416
  699TIP3   OH2 2102   2.034   2.722   3.754  0.3791 -0.2153  0.2481
  699TIP3    H1 2103   2.117   2.770   3.759  0.1185  0.2764 -0.0147
  699TIP3    H2 2104   2.003   2.719   3.845  0.3598  0.1931  0.2592
  700TIP3   OH2 2105   3.588   3.856   1.890  0.4197 -0.3151  0.1861
  700TIP3    H1 2106   3.578   3.921   1.821  0.1038 -0.9350 -0.3618
  700TIP3    H2 2107   3.681   3.861   1.914  0.3686  0.4260  0.2534
  701TIP3   OH2 2108   1.555   1.954   2.374  0.3786  0.0904 -0.1243
  701TIP3    H1 2109   1.503   1.881   2.406 -1.3921  0.2882 -2.3048
  701TIP3    H2 2110   1.518   2.031   2.418  0.3786 -0.0226  0.0738
  702TIP3   OH2 2111   5.615   1.091   2.821  0.4686 -0.0700  0.0573
  702TIP3    H1 2112   5.530   1.119   2.787  1.3264  3.7316  0.6293
  702TIP3    H2 2113   5.604   1.092   2.916  0.8770 -0.6417  0.1166
  703TIP3   OH2 2114   1.156   2.352   3.286 -0.0033  0.0757  0.1659
  703TIP3    H1 2115   1.222   2.417   3.311 -0.3393  0.2095  0.7393
  703TIP3    H2 2116   1.203   2.290   3.230 -0.2153  2.0791 -2.4117
  704TIP3   OH2 2117   3.297   2.273   4.358  0.4307  0.3743 -0.5833
  704TIP3    H1 2118   3.325   2.182   4.365  2.0428  0.9252  0.9621
  704TIP3    H2 2119   3.223   2.271   4.297  0.0955 -2.0093 -0.1912
  705TIP3   OH2 2120   3.514   3.801   2.723  0.0561 -0.5711 -0.0304
  705TIP3    H1 2121   3.471   3.783   2.806 -0.0879 -2.5449 -0.4987
  705TIP3    H2 2122   3.451   3.854   2.674 -0.4934 -0.7175  0.5086
  706TIP3   OH2 2123   0.573   2.130   4.778 -0.4565 -0.0727  0.0720
  706TIP3    H1 2124   0.599   2.209   4.826 -0.0461 -0.4338  0.4497
  706TIP3    H2 2125   0.648   2.111   4.722 -1.5683  1.3113 -2.0009
  707TIP3   OH2 2126   1.110   3.330   3.701  0.3096 -0.5744 -0.1717
  707TIP3    H1 2127   1.051   3.336   3.626 -0.4306  1.2035  0.5057
  707TIP3    H2 2128   1.053   3.338   3.777  1.4309  2.1095  0.4928
  708TIP3   OH2 2129   0.221   5.409   1.071  0.1717 -0.4874 -0.5041
  708TIP3    H1 2130   0.281   5.338   1.092  0.9722  0.4072  0.3493
  708TIP3    H2 2131   0.135   5.367   1.068 -0.1135 -0.9396  4.5276
  709TIP3   OH2 2132   3.173   2.590   4.206 -0.1508 -0.1107  0.0584
  709TIP3    H1 2133   3.159   2.654   4.276 -1.0367  0.6043 -0.7543
  709TIP3    H2 2134   3.124   2.513   4.233 -1.6743  0.6571 -0.4153
  710TIP3   OH2 2135   5.845   0.541   4.204 -0.0398 -0.0076  0.3624
  710TIP3    H1 2136   5.918   0.598   4.227 -0.2406  0.4850 -0.1700
  710TIP3    H2 2137   5.809   0.580   4.124 -0.3953 -0.6926  0.1769
  711TIP3   OH2 2138   4.958   1.857   2.071 -0.2722  0.7545  0.5929
  711TIP3    H1 2139   4.907   1.936   2.085 -2.6098 -0.7825  1.5195
  711TIP3    H2 2140   5.024   1.857   2.140 -0.8803  1.4141  1.1738
  712TIP3   OH2 2141   5.492   5.662   0.951  0.3192  0.6029  0.1632
  712TIP3    H1 2142   5.417   5.641   1.007 -0.2957 -0.6750 -1.0750
  712TIP3    H2 2143   5.559   5.693   1.012  0.7366 -3.4213  2.0812
  713TIP3   OH2 2144   0.848   0.820   3.785 -0.2593  0.1195 -0.3247
  713TIP3    H1 2145   0.894   0.903   3.797 -0.1389  0.0769 -0.5060
  713TIP3    H2 2146   0.804   0.829   3.700  0.4695 -0.3486 -0.7513
  714TIP3   OH2 2147   4.946   1.508   1.292 -0.6658 -0.2184  0.3805
  714TIP3    H1 2148   4.968   1.466   1.209 -0.9324 -0.4115  0.4053
  714TIP3    H2 2149   4.952   1.438   1.357 -0.3750 -0.0500  0.5402
  715TIP3   OH2 2150   3.514   0.935   1.746  0.5033  0.3454  0.2227
  715TIP3    H1 2151   3.495   0.854   1.697 -2.4784  1.7196 -1.1567
  715TIP3    H2 2152   3.605   0.955   1.724  0.6827 -1.5574 -1.0283
  716TIP3   OH2 2153   4.295   2.568   3.449 -0.2467  0.1667 -0.4419
  716TIP3    H1 2154   4.265   2.482   3.417  1.2536 -0.1081 -1.1926
  716TIP3    H2 2155   4.265   2.572   3.540 -2.8387  0.0873 -1.1957
  717TIP3   OH2 2156   0.763   2.318   4.906  0.3639 -0.4534 -0.5713
  717TIP3    H1 2157   0.831   2.283   4.963 -1.3504 -1.0632  1.1988
  717TIP3    H2 2158   0.702   2.362   4.965 -0.8151  0.0358 -2.0826
  718TIP3   OH2 2159   4.320   4.577   0.250 -0.1103 -0.2447  0.0889
  718TIP3    H1 2160   4.326   4.503   0.311 -0.2384 -0.1900  0.1691
  718TIP3    H2 2161   4.254   4.634   0.289 -2.4042 -1.5899 -1.5798
  719TIP3   OH2 2162   4.830   4.411   3.151  0.0720 -0.2496 -0.1338
  719TIP3    H1 2163   4.757   4.439   3.095 -0.3833 -0.3753  0.3922
  719TIP3    H2 2164   4.890   4.486   3.151 -0.6369  0.3396  0.4071
  720TIP3   OH2 2165   2.533   2.399   3.098  0.0897 -0.2306  0.5978
  720TIP3    H1 2166   2.574   2.484   3.115 -0.2746  0.2627 -0.8369
  720TIP3    H2 2167   2.488   2.411   3.014  0.6140 -2.0431  0.0166
  721TIP3   OH2 2168   3.460   1.943   2.067  0.3973  0.0800 -0.5086
  721TIP3    H1 2169   3.420   2.012   2.013 -0.9937 -0.5942 -0.3895
  721TIP3    H2 2170   3.397   1.928   2.137  1.2946 -0.4052  0.2067
  722TIP3   OH2 2171   5.242   0.980   3.839 -0.2196 -0.7176 -0.8574
  722TIP3    H1 2172   5.226   1.070   3.868  1.6696 -0.7522  0.4092
  722TIP3    H2 2173   5.158   0.936   3.853 -0.8602  0.5555 -0.4499
  723TIP3   OH2 2174   3.762   3.222   2.071 -0.4041 -0.1838 -0.4596
  723TIP3    H1 2175   3.678   3.205   2.029 -1.0550  2.3758 -0.3578
  723TIP3    H2 2176   3.744   3.213   2.165 -0.8985  1.4151 -0.3708
  724TIP3   OH2 2177   3.247   1.587   1.682  0.4940  0.2567  0.4548
  724TIP3    H1 2178   3.296   1.511   1.714 -1.1046 -0.0432  2.4024
  724TIP3    H2 2179   3.190   1.611   1.756 -1.0855  1.5793 -1.1211
  725TIP3   OH2 2180   5.145   3.899   1.741  0.2381 -0.4205  0.1835
  725TIP3    H1 2181   5.099   3.816   1.749  0.0149 -0.3009  0.1537
  725TIP3    H2 2182   5.138   3.923   1.649 -1.8144  0.8204  0.6024
  726TIP3   OH2 2183   3.905   3.536   3.866  0.4681  0.1206 -0.1149
  726TIP3    H1 2184   3.820   3.519   3.824 -0.1752  1.0929  0.7462
  726TIP3    H2 2185   3.916   3.631   3.860  2.2240 -0.1337 -1.5354
  727TIP3   OH2 2186   6.253   0.117   5.118 -0.0685 -0.1760 -1.0315
  727TIP3    H1 2187   6.237   0.025   5.096 -2.7250  0.3024 -1.3943
  727TIP3    H2 2188   6.166   0.156   5.123  0.7812  1.7056  2.0173
  728TIP3   OH2 2189   3.600   1.439   3.410  0.2915  0.1740  0.1351
  728TIP3    H1 2190   3.656   1.411   3.482 -0.5348 -0.3646  0.5982
  728TIP3    H2 2191   3.659   1.452   3.337  1.1862  0.9449  0.9610
  729TIP3   OH2 2192   1.409   2.456   1.230 -0.0986 -0.1821  0.1291
  729TIP3    H1 2193   1.381   2.368   1.253 -0.3881 -0.2276 -0.3724
  729TIP3    H2 2194   1.339   2.490   1.174 -0.1831  0.5174  0.6470
  730TIP3   OH2 2195   0.759   1.734   3.476  0.1095  0.5042 -0.1305
  730TIP3    H1 2196   0.824   1.804   3.471  0.3025  0.3201 -0.2418
  730TIP3    H2 2197   0.677   1.778   3.498  0.3331  0.7071  0.3149
  731TIP3   OH2 2198   1.953   4.836   1.890  0.1438  0.1936  0.2871
  731TIP3    H1 2199   2.001   4.919   1.889  1.1100 -0.3126 -1.6492
  731TIP3    H2 2200   1.922   4.826   1.980  1.1099  2.0114  0.8604
  732TIP3   OH2 2201   5.213   0.401   4.155 -0.2110 -0.1638 -0.2422
  732TIP3    H1 2202   5.299   0.441   4.169 -0.7812  1.9877 -2.3018
  732TIP3    H2 2203   5.223   0.354   4.072 -1.2223  0.8557 -0.9669
  733TIP3   OH2 2204   1.328   0.920   3.200  0.4170 -0.0588 -0.1956
  733TIP3    H1 2205   1.272   0.994   3.220 -2.5952 -1.4628 -2.6214
  733TIP3    H2 2206   1.315   0.859   3.272 -1.6185 -0.5211 -0.8992
  734TIP3   OH2 2207   0.406   3.598   4.175  0.0345  0.1314  0.0476
  734TIP3    H1 2208   0.377   3.577   4.086  1.8839  1.2450 -0.8911
  734TIP3    H2 2209   0.486   3.649   4.162  1.1952 -0.9626  2.4010
  735TIP3   OH2 2210   5.581   2.641   0.137 -0.4590 -0.2356 -0.9297
  735TIP3    H1 2211   5.578   2.644   0.041  0.0012  0.3989 -0.9268
  735TIP3    H2 2212   5.650   2.578   0.157 -0.9504 -0.8103 -1.0072
  736TIP3   OH2 2213   4.496   1.348   1.850 -0.2447  0.3476  0.2845
  736TIP3    H1 2214   4.557   1.420   1.866 -0.4238  0.1610  1.9829
  736TIP3    H2 2215   4.505   1.292   1.927  2.1813 -3.1710 -2.2360
  737TIP3   OH2 2216   1.126   0.496   0.991  0.4099  0.6830 -0.0847
  737TIP3    H1 2217   1.065   0.531   0.926 -0.1580  0.6246  0.4079
  737TIP3    H2 2218   1.077   0.426   1.035  1.5124 -0.7275 -1.0260
  738TIP3   OH2 2219   6.122   2.617   3.659  0.3730  0.0305  0.2477
  738TIP3    H1 2220   6.118   2.701   3.705 -0.5175  0.1930 -0.1128
  738TIP3    H2 2221   6.031   2.593   3.644  0.6303 -0.7110 -0.1895
  739TIP3   OH2 2222   3.159   1.857   5.102  0.2013  0.5238  0.0635
  739TIP3    H1 2223   3.130   1.840   5.192 -1.4497 -0.7959 -0.6640
  739TIP3    H2 2224   3.175   1.951   5.099  2.6576  0.2884  2.3623
  740TIP3   OH2 2225   6.306   2.568   0.672  0.1049 -0.2927  0.0199
  740TIP3    H1 2226   6.247   2.519   0.729 -2.2368  1.5283 -0.6980
  740TIP3    H2 2227   6.369   2.609   0.731 -1.6519  0.7301  1.2627
  741TIP3   OH2 2228   0.423   1.394   3.756  0.4804 -0.0349  0.0057
  741TIP3    H1 2229   0.423   1.378   3.851 -1.0691  0.8415  0.1798
  741TIP3    H2 2230   0.469   1.319   3.720 -1.6323 -2.0469  1.2239
  742TIP3   OH2 2231   3.543   0.885   0.763 -0.4384 -0.7226  0.2399
  742TIP3    H1 2232   3.458   0.909   0.798  0.8426  0.0627  3.1053
  742TIP3    H2 2233   3.565   0.955   0.702 -0.3113  1.1008  2.2703
  743TIP3   OH2 2234   1.045   1.052   1.222 -0.2822  0.8251 -0.3032
  743TIP3    H1 2235   1.034   1.008   1.138  0.5223  0.2229 -0.1071
  743TIP3    H2 2236   1.131   1.023   1.253 -1.0607  0.0701  1.2895
  744TIP3   OH2 2237   2.910   1.676   0.750 -0.6203  0.3583  0.2362
  744TIP3    H1 2238   2.861   1.679   0.668  0.2187 -0.3399 -0.3090
  744TIP3    H2 2239   2.997   1.646   0.725 -0.8331 -1.5815  1.6087
  745TIP3   OH2 2240   0.575   2.012   0.408 -0.3993  0.2558  0.4737
  745TIP3    H1 2241   0.664   1.977   0.419  0.2123  2.4653  3.7286
  745TIP3    H2 2242   0.519   1.935   0.412  1.1630 -0.8776  2.5380
  746TIP3   OH2 2243   1.219   0.855   3.443  0.0245  0.0061 -0.4636
  746TIP3    H1 2244   1.212   0.797   3.519  0.9232  1.5508  0.8730
  746TIP3    H2 2245   1.128   0.873   3.418 -0.2699 -1.2117 -0.3201
  747TIP3   OH2 2246   4.726   1.861   4.693 -0.4566  0.1940  0.2097
  747TIP3    H1 2247   4.805   1.814   4.667 -0.9786 -1.0372  0.7868
  747TIP3    H2 2248   4.754   1.914   4.768 -0.1921 -0.3087  0.4714
  748TIP3   OH2 2249   4.248   3.859   5.078 -0.0853 -0.4995  0.2576
  748TIP3    H1 2250   4.180   3.793   5.092  0.4415 -1.3449 -1.0085
  748TIP3    H2 2251   4.330   3.811   5.084  0.3375  0.2042  0.1715
  749TIP3   OH2 2252   2.666   5.881   3.657  0.4321  0.1091  0.2628
  749TIP3    H1 2253   2.640   5.790   3.670 -2.3532  0.6450 -0.8349
  749TIP3    H2 2254   2.669   5.917   3.746 -1.2847 -0.4223  0.5951
  750TIP3   OH2 2255   1.773   5.002   0.727 -0.0067 -0.5180 -0.7400
  750TIP3    H1 2256   1.723   5.015   0.808 -0.1049  0.4793 -0.9504
  750TIP3    H2 2257   1.727   4.932   0.681  0.2021 -1.2815  0.1775
  751TIP3   OH2 2258   3.684   5.484   2.303  0.2582 -0.0924  0.1138
  751TIP3    H1 2259   3.692   5.497   2.209 -1.7802 -1.4879 -0.3202
  751TIP3    H2 2260   3.590   5.474   2.318  0.5046  0.3924  2.3569
  752TIP3   OH2 2261   3.835   4.214   4.628 -0.4318  0.2258  0.5004
  752TIP3    H1 2262   3.911   4.184   4.579 -0.7770  1.2295 -0.7120
  752TIP3    H2 2263   3.794   4.134   4.661 -1.1100 -0.6968 -2.3035
  753TIP3   OH2 2264   5.244   4.759   3.730  0.4993 -0.0087 -0.4607
  753TIP3    H1 2265   5.300   4.706   3.787  0.9789 -1.1849 -1.9509
  753TIP3    H2 2266   5.252   4.848   3.765  1.9194 -0.4390  0.4052
  754TIP3   OH2 2267   0.698   2.100   2.170  0.0468  0.5796  0.0540
  754TIP3    H1 2268   0.749   2.136   2.242 -0.9411  1.2435  0.4453
  754TIP3    H2 2269   0.664   2.017   2.204  0.8742  0.1168 -0.2215
  755TIP3   OH2 2270   4.188   3.335   3.896  0.6126  0.4537 -0.4980
  755TIP3    H1 2271   4.123   3.346   3.827 -0.8755  0.5707  0.8750
  755TIP3    H2 2272   4.224   3.248   3.882 -0.7486 -0.1170 -0.5635
  756TIP3   OH2 2273   5.732   4.720   2.250  0.4183  0.2917 -0.2333
  756TIP3    H1 2274   5.651   4.671   2.264  0.5125 -0.0683 -0.8969
  756TIP3    H2 2275   5.728   4.792   2.313  0.0877 -0.3376  0.4863
  757TIP3   OH2 2276   2.296   1.649   2.199  0.4016  0.3100 -0.1447
  757TIP3    H1 2277   2.242   1.616   2.126  0.6382  0.0989 -0.2254
  757TIP3    H2 2278   2.386   1.629   2.173  0.5113  0.5515  0.0482
  758TIP3   OH2 2279   0.344   5.050   2.684 -0.0996  0.5052  0.6284
  758TIP3    H1 2280   0.309   5.056   2.773 -0.8646  0.3357  0.3469
  758TIP3    H2 2281   0.414   4.984   2.690  0.6995  1.3778  1.3503
  759TIP3   OH2 2282   2.413   2.659   3.255 -0.0290  0.4064  0.2412
  759TIP3    H1 2283   2.345   2.625   3.196  2.1968 -1.8275 -1.2301
  759TIP3    H2 2284   2.432   2.585   3.313  1.3503  0.8786  0.4141
  760TIP3   OH2 2285   2.411   0.287   4.482 -0.3631  0.0705 -0.0605
  760TIP3    H1 2286   2.397   0.264   4.574 -0.0507  1.2530  0.2973
  760TIP3    H2 2287   2.323   0.305   4.449 -0.6278 -1.6393 -0.3748
  761TIP3   OH2 2288   0.236   1.837   2.453 -0.0324 -0.0580 -0.0630
  761TIP3    H1 2289   0.300   1.880   2.510  0.6847 -0.6177 -0.4268
  761TIP3    H2 2290   0.155   1.836   2.503 -0.0099  1.4873  0.0598
  762TIP3   OH2 2291   4.769   5.774   4.744 -0.1305 -0.0324 -0.2257
  762TIP3    H1 2292   4.732   5.814   4.822 -1.0963 -0.9659 -0.1966
  762TIP3    H2 2293   4.726   5.819   4.671  2.1758  2.2422 -0.3506
  763TIP3   OH2 2294   5.896   1.076   0.402  0.4968  0.2622  0.1483
  763TIP3    H1 2295   5.800   1.078   0.401  0.4363  0.6631  2.2161
  763TIP3    H2 2296   5.923   1.154   0.355 -0.2658  1.2386  1.2795
  764TIP3   OH2 2297   6.157   4.750   0.273 -0.2652 -0.1013  0.2063
  764TIP3    H1 2298   6.130   4.664   0.305 -0.4121 -0.2622 -0.3418
  764TIP3    H2 2299   6.195   4.793   0.350 -0.7324 -0.4313  0.6289
  765TIP3   OH2 2300   2.393   0.173   3.740 -0.2831  0.3878 -0.1620
  765TIP3    H1 2301   2.352   0.254   3.769 -0.0280  0.4841 -0.0632
  765TIP3    H2 2302   2.457   0.202   3.675 -0.6080  0.2080 -0.5641
  766TIP3   OH2 2303   4.600   3.838   4.096  0.0318 -0.0228 -0.1705
  766TIP3    H1 2304   4.592   3.924   4.055 -0.8806 -0.3670 -0.7508
  766TIP3    H2 2305   4.510   3.809   4.110  0.3272 -0.6918  0.4290
  767TIP3   OH2 2306   3.262   0.713   4.312 -0.0014  0.2761 -0.0250
  767TIP3    H1 2307   3.275   0.803   4.340 -1.1520  0.3676  0.2550
  767TIP3    H2 2308   3.292   0.712   4.221 -2.3628  1.6125 -0.9145
  768TIP3   OH2 2309   6.226   3.357   5.123 -0.8777 -0.0395 -0.1733
  768TIP3    H1 2310   6.197   3.269   5.098 -0.9988  0.3066 -1.3434
  768TIP3    H2 2311   6.211   3.410   5.044 -1.0548  1.0888  0.5977
  769TIP3   OH2 2312   3.882   4.107   1.678 -0.0636  0.1761  0.4480
  769TIP3    H1 2313   3.891   4.018   1.644  0.9867  0.0264  1.0617
  769TIP3    H2 2314   3.802   4.141   1.638 -0.5621 -1.0999  0.3425
  770TIP3   OH2 2315   5.082   4.763   4.895 -0.0058  0.4618 -0.6046
  770TIP3    H1 2316   5.131   4.786   4.975 -0.7299 -1.7800  0.5980
  770TIP3    H2 2317   5.069   4.846   4.850  1.4349  1.6720  1.0265
  771TIP3   OH2 2318   5.422   3.343   3.708 -0.7588 -0.2030  0.0318
  771TIP3    H1 2319   5.440   3.252   3.681 -0.1656 -0.1597  0.2562
  771TIP3    H2 2320   5.403   3.337   3.801  2.1074  0.1945  0.7485
  772TIP3   OH2 2321   4.487   0.711   0.720 -0.0139  0.6179  0.2094
  772TIP3    H1 2322   4.425   0.783   0.707 -0.9397 -0.4586 -1.7721
  772TIP3    H2 2323   4.433   0.633   0.725  1.1199 -0.4610 -2.3488
  773TIP3   OH2 2324   2.484   5.877   1.500  0.3615 -0.3004 -0.4994
  773TIP3    H1 2325   2.449   5.956   1.461 -0.0917 -0.9908 -1.5386
  773TIP3    H2 2326   2.516   5.904   1.586 -1.3706  0.6676 -0.1173
  774TIP3   OH2 2327   3.710   3.949   4.679 -0.3115 -0.1472  0.2402
  774TIP3    H1 2328   3.755   3.876   4.637  0.8571  0.6110  0.1228
  774TIP3    H2 2329   3.661   3.909   4.751 -0.8344 -1.2132 -0.6720
  775TIP3   OH2 2330   5.485   0.684   2.461 -0.0097  0.4125  0.3945
  775TIP3    H1 2331   5.423   0.752   2.434 -0.0433  1.1707  2.2341
  775TIP3    H2 2332   5.554   0.731   2.509  0.0919 -0.7885  1.4982
  776TIP3   OH2 2333   1.241   1.386   0.445 -0.4194 -0.1011 -0.2577
  776TIP3    H1 2334   1.192   1.467   0.430 -1.0978 -0.3261  0.6542
  776TIP3    H2 2335   1.329   1.405   0.413  0.0250  1.7488  1.8429
  777TIP3   OH2 2336   0.708   1.172   2.414  0.2196 -0.0334 -0.1191
  777TIP3    H1 2337   0.726   1.230   2.340 -0.8392  1.0625  0.4398
  777TIP3    H2 2338   0.736   1.223   2.490 -0.0872 -0.5420  0.3330
  778TIP3   OH2 2339   5.832   5.422   4.794 -0.2671  1.2225 -0.4339
  778TIP3    H1 2340   5.882   5.345   4.821 -0.2152  1.7804  1.1409
  778TIP3    H2 2341   5.741   5.401   4.818 -0.1061  2.0494  0.9683
  779TIP3   OH2 2342   3.589   1.018   2.414 -0.2572  0.4459 -0.2088
  779TIP3    H1 2343   3.500   1.044   2.439 -0.6968  0.8078 -2.0097
  779TIP3    H2 2344   3.636   1.012   2.497 -2.0496 -0.1156  0.8175
  780TIP3   OH2 2345   2.008   0.128   3.417  0.4922 -0.0286  0.5114
  780TIP3    H1 2346   2.024   0.222   3.426 -0.2625 -0.0182  2.1035
  780TIP3    H2 2347   2.075   0.087   3.471  1.8253 -0.5286 -1.4342
  781TIP3   OH2 2348   0.013   1.549   1.691  0.8711  0.3362  0.1202
  781TIP3    H1 2349   0.050   1.506   1.768 -0.3025  0.1200  0.5864
  781TIP3    H2 2350  -0.019   1.633   1.724  1.4888  0.7846 -0.4034
  782TIP3   OH2 2351   0.937   3.298   5.040  0.5706 -0.3455  0.1009
  782TIP3    H1 2352   0.926   3.213   4.998 -0.4135  0.4190 -1.2972
  782TIP3    H2 2353   0.865   3.304   5.102  0.7282 -0.5942  0.3065
  783TIP3   OH2 2354   6.306   1.755   3.055 -0.2054 -0.3491 -0.4484
  783TIP3    H1 2355   6.247   1.738   2.981 -0.6752 -1.4449  0.1499
  783TIP3    H2 2356   6.255   1.813   3.112 -0.2397 -0.3392 -0.4879
  784TIP3   OH2 2357   4.308   4.184   4.866 -0.1192  0.4155  0.1101
  784TIP3    H1 2358   4.343   4.244   4.932 -0.6502 -1.6898  2.5036
  784TIP3    H2 2359   4.213   4.195   4.872 -0.1877 -0.1464  0.0988
  785TIP3   OH2 2360   6.089   3.781   3.182 -0.2959  0.4425 -0.5758
  785TIP3    H1 2361   6.007   3.761   3.136  0.9805  1.8505 -3.7077
  785TIP3    H2 2362   6.148   3.813   3.114  2.1372  1.7236  1.9430
  786TIP3   OH2 2363   4.110   1.148   3.518  0.2356  0.1862  0.0166
  786TIP3    H1 2364   4.131   1.057   3.501  2.3725  0.8090 -1.1629
  786TIP3    H2 2365   4.145   1.165   3.606  0.8331  0.1169 -0.2017
  787TIP3   OH2 2366   0.054   5.450   4.250 -0.1856  0.5116  0.7228
  787TIP3    H1 2367   0.101   5.425   4.330  1.1486 -2.0843 -0.7318
  787TIP3    H2 2368  -0.020   5.502   4.281  1.3168  1.2243  3.4603
  788TIP3   OH2 2369   1.148   1.674   4.182 -0.4544 -0.2659  0.0491
  788TIP3    H1 2370   1.140   1.632   4.268 -0.7482 -0.2381  0.0365
  788TIP3    H2 2371   1.211   1.746   4.197 -1.1706  0.2915  0.4568
  789TIP3   OH2 2372   4.045   5.128   0.293  0.5732 -0.1688 -0.6873
  789TIP3    H1 2373   3.996   5.046   0.287  1.1435 -0.6432  0.7161
  789TIP3    H2 2374   4.024   5.175   0.213 -1.4392 -0.7611 -0.5499
  790TIP3   OH2 2375   1.502   5.602   0.391 -0.5058 -0.6707 -0.2576
  790TIP3    H1 2376   1.461   5.546   0.457  0.2056 -1.4814 -0.4831
  790TIP3    H2 2377   1.476   5.563   0.307 -0.6651 -0.1819 -0.4350
  791TIP3   OH2 2378   5.151   1.303   2.954  0.2594  0.7677  0.0163
  791TIP3    H1 2379   5.080   1.367   2.959 -0.1592  0.3975 -0.9816
  791TIP3    H2 2380   5.153   1.263   3.041  0.5680  2.1578  0.6832
  792TIP3   OH2 2381   5.390   3.380   5.144  0.0291 -0.1158 -0.3172
  792TIP3    H1 2382   5.334   3.458   5.149  0.1232 -0.1200  1.0792
  792TIP3    H2 2383   5.345   3.315   5.197  0.4184 -0.7369 -0.7331
  793TIP3   OH2 2384   0.833   1.354   5.002  0.2848  0.1522 -0.0078
  793TIP3    H1 2385   0.742   1.352   4.971  0.7200 -0.9422 -1.3444
  793TIP3    H2 2386   0.830   1.319   5.091 -0.6530  0.5203  0.1083
  794TIP3   OH2 2387   0.576   3.006   4.120  0.4700 -0.1439 -0.0438
  794TIP3    H1 2388   0.501   2.982   4.066 -0.7483 -0.3858  1.6929
  794TIP3    H2 2389   0.649   3.010   4.058 -1.1744  1.3746 -2.0367
  795TIP3   OH2 2390   1.552   5.904   1.126  0.1762  0.2771  0.1226
  795TIP3    H1 2391   1.471   5.863   1.159  0.6376 -1.1845 -0.5018
  795TIP3    H2 2392   1.611   5.902   1.201 -0.2960  1.1907  0.5312
  796TIP3   OH2 2393   4.888   0.921   2.040  0.2345  0.0962  0.0685
  796TIP3    H1 2394   4.926   0.879   2.117 -0.3953  0.7598  0.7620
  796TIP3    H2 2395   4.872   0.849   1.979  2.3867 -0.2231 -0.1783
  797TIP3   OH2 2396   4.159   5.008   0.566 -0.3901 -0.8747 -0.0852
  797TIP3    H1 2397   4.236   4.952   0.555 -0.3787 -0.8667 -0.0449
  797TIP3    H2 2398   4.104   4.988   0.490 -0.5726 -1.2402  0.1392
  798TIP3   OH2 2399   4.895   5.871   3.352  0.6150  0.2525  0.0059
  798TIP3    H1 2400   4.944   5.889   3.271  1.1066 -0.2678  0.1774
  798TIP3    H2 2401   4.937   5.792   3.388 -0.4698 -0.3100  0.0741
  799TIP3   OH2 2402   5.807   5.033   2.897  0.2158  0.1020  0.3656
  799TIP3    H1 2403   5.779   5.064   2.811  1.6132 -0.4170 -0.3131
  799TIP3    H2 2404   5.884   4.979   2.879 -0.4791 -1.4390  1.7924
  800TIP3   OH2 2405   1.250   2.845   2.960 -0.6475  0.0336 -0.1014
  800TIP3    H1 2406   1.190   2.908   2.920  0.1308  0.9841  0.1843
  800TIP3    H2 2407   1.264   2.877   3.049  0.8679  0.2820 -0.4001
  801TIP3   OH2 2408   6.094   1.968   1.560 -0.1874 -0.0702  0.5245
  801TIP3    H1 2409   6.153   2.040   1.584  0.1322 -0.5518  1.2238
  801TIP3    H2 2410   6.021   1.975   1.622  0.1324 -0.6951  0.9843
  802TIP3   OH2 2411   0.097   4.511   0.198  0.6235  0.2977 -0.3066
  802TIP3    H1 2412   0.139   4.516   0.284 -0.5481  1.3266  0.2413
  802TIP3    H2 2413   0.138   4.581   0.147 -0.9106  1.8321  0.4835
  803TIP3   OH2 2414   3.974   5.175   0.037  0.5081  0.6971  0.0738
  803TIP3    H1 2415   3.960   5.190  -0.057 -2.6335 -1.0586  0.1420
  803TIP3    H2 2416   4.044   5.110   0.041 -1.1225 -1.2254 -1.2528
  804TIP3   OH2 2417   5.930   2.873   0.776  0.1386  0.2939 -0.5282
  804TIP3    H1 2418   5.960   2.934   0.844  1.0355  0.5572 -1.1428
  804TIP3    H2 2419   5.849   2.837   0.811  0.6036  0.3879  0.7059
  805TIP3   OH2 2420   3.288   0.150   2.730  0.0761 -0.3090 -0.6493
  805TIP3    H1 2421   3.301   0.221   2.667 -1.0648 -0.4787 -1.0969
  805TIP3    H2 2422   3.236   0.190   2.800  0.4071 -0.4119 -0.3406
  806TIP3   OH2 2423   4.955   0.922   4.494  0.5270  0.2467 -0.4412
  806TIP3    H1 2424   4.977   0.842   4.446  1.0423  1.3399 -2.1326
  806TIP3    H2 2425   5.028   0.981   4.477  0.8354  0.6388  1.9426
  807TIP3   OH2 2426   6.201   3.077   4.150 -0.1756  0.1836 -0.6993
  807TIP3    H1 2427   6.281   3.128   4.159 -0.9840  1.1411  1.6533
  807TIP3    H2 2428   6.227   3.003   4.094  1.8565  1.3819 -1.4767
  808TIP3   OH2 2429   0.617   0.408   1.717 -0.3094 -0.1371  0.4320
  808TIP3    H1 2430   0.573   0.326   1.738  0.0659 -0.6769 -0.8079
  808TIP3    H2 2431   0.709   0.383   1.703  0.0613  0.6960  1.2606
  809TIP3   OH2 2432   4.967   5.610   4.473  0.5274  0.2606  0.0145
  809TIP3    H1 2433   4.959   5.517   4.451  0.5190  0.1336  0.5299
  809TIP3    H2 2434   4.955   5.613   4.568  3.9229  0.3520  0.5534
  810TIP3   OH2 2435   2.881   3.714   0.937  0.3936 -0.3807  0.6545
  810TIP3    H1 2436   2.827   3.668   0.873  0.5927  0.2230  0.0468
  810TIP3    H2 2437   2.932   3.776   0.886  1.1865 -0.4848  1.3000
  811TIP3   OH2 2438   4.650   4.633   3.249 -0.6049 -0.8449  0.3206
  811TIP3    H1 2439   4.627   4.540   3.243 -0.8741 -0.7657  0.1002
  811TIP3    H2 2440   4.566   4.679   3.241 -0.3517 -0.5396 -0.8546
  812TIP3   OH2 2441   6.256   3.477   0.468  0.5078  0.0600 -0.6987
  812TIP3    H1 2442   6.164   3.454   0.457  0.3926 -0.3817  0.9828
  812TIP3    H2 2443   6.256   3.573   0.476 -0.1845 -0.0893  2.0325
  813TIP3   OH2 2444   4.209   0.064   1.855 -0.0743  0.1114  0.1923
  813TIP3    H1 2445   4.160   0.001   1.802 -0.7145  0.3123  0.5378
  813TIP3    H2 2446   4.254   0.119   1.790 -1.0349  0.5003 -0.1728
  814TIP3   OH2 2447   6.170   2.164   3.496  0.0310  0.3422 -0.6193
  814TIP3    H1 2448   6.216   2.238   3.536  3.9800 -1.8076 -0.6071
  814TIP3    H2 2449   6.129   2.118   3.569 -0.3382  1.1563 -0.3045
  815TIP3   OH2 2450   3.975   1.861   1.377 -0.7562 -0.0528  0.3944
  815TIP3    H1 2451   3.973   1.935   1.316 -0.2119  0.9243  1.5202
  815TIP3    H2 2452   3.905   1.879   1.439 -0.4745 -0.3642  0.8070
  816TIP3   OH2 2453   3.000   3.422   1.952  0.0919  0.5394 -0.2547
  816TIP3    H1 2454   3.029   3.469   2.030  0.6319  0.4618 -0.4079
  816TIP3    H2 2455   2.961   3.490   1.897  2.2870  1.1436 -1.1802
  817TIP3   OH2 2456   1.285   0.242   4.572 -0.5465 -0.7339 -0.1528
  817TIP3    H1 2457   1.317   0.163   4.616  1.5816  0.4263  0.4913
  817TIP3    H2 2458   1.204   0.263   4.619  0.8124 -0.4537  2.2435
  818TIP3   OH2 2459   4.009   4.968   4.969 -0.1506  0.2610  0.1501
  818TIP3    H1 2460   3.967   5.050   4.943  0.8931  1.0691  0.9277
  818TIP3    H2 2461   3.974   4.949   5.056 -0.4847 -0.2001 -0.0780
  819TIP3   OH2 2462   4.408   1.972   3.646 -0.2158  0.5805 -0.3841
  819TIP3    H1 2463   4.420   1.957   3.739 -0.1654  0.7830 -0.3580
  819TIP3    H2 2464   4.422   2.066   3.634  0.7597  0.3968 -0.7446
  820TIP3   OH2 2465   1.797   5.179   1.824 -0.1917  0.9921  0.3347
  820TIP3    H1 2466   1.875   5.132   1.853  0.4915  2.1359  0.3747
  820TIP3    H2 2467   1.795   5.259   1.876 -1.1418  1.1975  0.0125
  821TIP3   OH2 2468   2.340   0.564   2.936 -0.0919  0.5727 -0.1594
  821TIP3    H1 2469   2.370   0.502   3.003  1.1404  0.3782 -0.8591
  821TIP3    H2 2470   2.408   0.561   2.869 -0.9407  1.3141 -1.0787
  822TIP3   OH2 2471   3.177   0.813   1.653 -0.3994 -0.1556  0.7910
  822TIP3    H1 2472   3.125   0.759   1.713 -0.5610 -0.7732  0.1068
  822TIP3    H2 2473   3.141   0.901   1.664 -1.1025 -0.4446  0.8677
  823TIP3   OH2 2474   3.024   5.434   3.993  0.2687 -0.3521 -0.1438
  823TIP3    H1 2475   3.056   5.345   3.981  1.6201  0.1025 -0.0375
  823TIP3    H2 2476   2.928   5.426   3.987  0.3363 -1.8736  0.3674
  824TIP3   OH2 2477   5.580   0.242   5.115 -0.4890 -0.2893 -0.0467
  824TIP3    H1 2478   5.524   0.290   5.177 -1.2987  0.1294 -1.0685
  824TIP3    H2 2479   5.669   0.265   5.141 -0.6267 -2.3630  2.7512
  825TIP3   OH2 2480   3.183   1.491   3.451  0.1508 -0.4339  0.0750
  825TIP3    H1 2481   3.198   1.585   3.462 -0.8988 -0.2603  0.2039
  825TIP3    H2 2482   3.154   1.461   3.537 -0.9082 -0.5709 -0.3172
  826TIP3   OH2 2483   4.301   0.123   5.034 -0.4411 -0.0843 -0.1699
  826TIP3    H1 2484   4.281   0.195   4.974 -2.1371 -0.4824 -0.1444
  826TIP3    H2 2485   4.396   0.114   5.031 -0.2045  1.9836 -0.3705
  827TIP3   OH2 2486   0.301   2.963   3.086 -0.1351  0.1293 -0.4060
  827TIP3    H1 2487   0.327   2.874   3.111  0.4202 -0.2758 -2.2763
  827TIP3    H2 2488   0.211   2.953   3.055 -0.5412  0.4901  0.5993
  828TIP3   OH2 2489   0.209   4.132   3.108  0.3136 -0.1860  0.1389
  828TIP3    H1 2490   0.160   4.118   3.027  0.8065  1.6529 -0.5285
  828TIP3    H2 2491   0.141   4.139   3.176 -0.1492 -0.8516 -0.2409
  829TIP3   OH2 2492   1.915   5.893   2.741 -0.5284  0.0211 -0.1304
  829TIP3    H1 2493   1.940   5.961   2.679 -0.1658  2.3091  2.2988
  829TIP3    H2 2494   1.921   5.811   2.692  1.7014  1.4538 -2.4881
  830TIP3   OH2 2495   0.704   3.760   4.139 -0.2444 -0.4690  0.3513
  830TIP3    H1 2496   0.744   3.674   4.152  0.4461 -0.3664 -0.8910
  830TIP3    H2 2497   0.756   3.800   4.070 -0.8225  0.7878  0.6152
  831TIP3   OH2 2498   5.251   3.292   1.130  0.0925 -0.5279 -0.6238
  831TIP3    H1 2499   5.166   3.278   1.172  1.1899  1.1220  2.5401
  831TIP3    H2 2500   5.247   3.381   1.095  1.0616  0.4000  1.4141
  832TIP3   OH2 2501   0.478   0.375   4.509 -0.2391 -0.0400 -0.2274
  832TIP3    H1 2502   0.507   0.293   4.469 -0.6541 -0.6597  0.7113
  832TIP3    H2 2503   0.429   0.348   4.586 -0.0222  1.1114  0.3321
  833TIP3   OH2 2504   5.539   5.915   4.114  0.1382  0.2684 -0.4911
  833TIP3    H1 2505   5.600   5.938   4.043  1.0948  1.9232  0.8074
  833TIP3    H2 2506   5.453   5.933   4.077  0.5938  0.7886 -1.3571
  834TIP3   OH2 2507   5.241   1.904   0.013  0.1809 -0.5415 -0.0785
  834TIP3    H1 2508   5.262   1.817   0.048  0.8081 -0.1283  0.6117
  834TIP3    H2 2509   5.251   1.963   0.088  2.3115  0.4803 -1.0651
  835TIP3   OH2 2510   1.471   0.675   3.205  0.0225 -0.0614 -0.2775
  835TIP3    H1 2511   1.558   0.645   3.178  0.3430  1.2516 -0.7497
  835TIP3    H2 2512   1.477   0.770   3.205 -1.0817  0.0355  0.8378
  836TIP3   OH2 2513   6.045   2.459   4.950 -0.4692 -0.2256 -0.3203
  836TIP3    H1 2514   5.978   2.407   4.994 -0.4416 -1.5185 -1.7046
  836TIP3    H2 2515   6.128   2.426   4.985 -0.4982 -0.0130 -0.0515
  837TIP3   OH2 2516   1.456   5.360   4.312 -0.1066  0.3240  0.3089
  837TIP3    H1 2517   1.423   5.315   4.235  0.0240 -0.4090  0.6709
  837TIP3    H2 2518   1.514   5.428   4.278 -0.2879  0.1984 -0.2496
  838TIP3   OH2 2519   1.439   3.275   0.264 -0.1051 -0.2911  0.9007
  838TIP3    H1 2520   1.352   3.240   0.284 -0.4158 -0.1637 -0.1777
  838TIP3    H2 2521   1.487   3.201   0.227  0.3845 -0.4629  1.8537
  839TIP3   OH2 2522   3.079   0.277   2.516 -0.5245  0.3427  0.0551
  839TIP3    H1 2523   3.038   0.364   2.521 -1.2783 -0.0411  0.5703
  839TIP3    H2 2524   3.154   0.290   2.458 -1.6712  0.9350 -1.3473
  840TIP3   OH2 2525   6.201   4.569   3.563 -0.3263  0.6697 -0.2045
  840TIP3    H1 2526   6.221   4.660   3.583 -2.3473  0.9867  0.5999
  840TIP3    H2 2527   6.130   4.545   3.623  0.5846 -1.6574  0.0725
  841TIP3   OH2 2528   2.172   5.791   3.979  0.2439 -0.6690  0.1960
  841TIP3    H1 2529   2.228   5.864   4.002 -0.8505  0.0268  0.7454
  841TIP3    H2 2530   2.127   5.819   3.899 -0.7679 -0.3804  0.8410
  842TIP3   OH2 2531   2.249   3.303   2.167  0.0176  0.2046  0.0180
  842TIP3    H1 2532   2.158   3.326   2.185 -0.1050 -1.3875  1.6714
  842TIP3    H2 2533   2.285   3.380   2.122 -2.2502  0.6601 -1.1393
  843TIP3   OH2 2534   5.050   5.048   0.909 -0.2763  0.4952 -0.0613
  843TIP3    H1 2535   5.109   4.991   0.958 -1.0270 -1.1860 -1.0260
  843TIP3    H2 2536   5.076   5.038   0.818 -0.3165  1.8617 -0.2454
  844TIP3   OH2 2537   1.852   3.962   4.019 -0.0210 -0.0887  0.1647
  844TIP3    H1 2538   1.756   3.967   4.022 -0.1609 -1.7818 -0.1754
  844TIP3    H2 2539   1.882   4.046   4.052 -1.6309  0.3797  0.5128
  845TIP3   OH2 2540   5.171   0.833   0.971  0.2903 -0.1362 -0.2964
  845TIP3    H1 2541   5.080   0.838   0.943  0.0552  1.5764  0.6590
  845TIP3    H2 2542   5.167   0.799   1.061  0.4414  1.3369  0.2933
  846TIP3   OH2 2543   3.694   3.525   4.243 -0.6515  0.0325  0.1587
  846TIP3    H1 2544   3.644   3.592   4.196  0.6582  0.4916 -0.6413
  846TIP3    H2 2545   3.785   3.549   4.229 -0.0648 -2.5472 -1.1581
  847TIP3   OH2 2546   1.173   5.536   2.944  0.7507 -0.2154  0.4627
  847TIP3    H1 2547   1.164   5.507   3.034  0.8921 -0.1777  0.4891
  847TIP3    H2 2548   1.205   5.459   2.896 -1.4710 -0.9120  0.0086
  848TIP3   OH2 2549   4.808   0.192   2.946 -0.1932 -0.4490  0.0079
  848TIP3    H1 2550   4.729   0.182   2.893 -0.8692 -1.8168  1.2228
  848TIP3    H2 2551   4.776   0.213   3.033  0.6979 -2.2937  0.8243
  849TIP3   OH2 2552   1.741   3.299   1.740 -0.6709  0.3573 -0.0804
  849TIP3    H1 2553   1.812   3.354   1.708 -1.3317  1.5779  0.4550
  849TIP3    H2 2554   1.782   3.241   1.804  0.4276 -1.2572 -2.1213
  850TIP3   OH2 2555   3.546   3.416   5.015  0.1037 -0.1211  0.0914
  850TIP3    H1 2556   3.612   3.349   5.000  1.2278  0.8740  0.4389
  850TIP3    H2 2557   3.475   3.395   4.954  1.5272 -0.1699 -1.6187
  851TIP3   OH2 2558   3.990   4.056   1.943  0.1094 -0.1202 -0.4381
  851TIP3    H1 2559   3.974   4.109   1.866  0.5993  1.0697  0.2504
  851TIP3    H2 2560   3.941   3.976   1.928 -1.9722  1.1678 -0.8001
  852TIP3   OH2 2561   0.654   1.112   1.306 -0.7492 -0.4015  0.3103
  852TIP3    H1 2562   0.729   1.137   1.251 -0.4064 -0.3351  0.8024
  852TIP3    H2 2563   0.644   1.185   1.367 -1.1215 -0.4804  0.3440
  853TIP3   OH2 2564   0.987   5.203   2.999 -0.2819  0.0341 -0.0438
  853TIP3    H1 2565   0.934   5.142   3.050 -0.4389  1.5015  1.6393
  853TIP3    H2 2566   1.070   5.207   3.046  0.2043  0.1288 -0.8944
  854TIP3   OH2 2567   3.443   5.366   4.856 -0.2961  0.1624 -0.1548
  854TIP3    H1 2568   3.425   5.345   4.764  0.0035  0.8161 -0.3701
  854TIP3    H2 2569   3.523   5.419   4.853 -0.6146  0.6835  0.4272
  855TIP3   OH2 2570   2.655   3.435   3.242 -0.6302 -0.0509 -0.2995
  855TIP3    H1 2571   2.681   3.354   3.285 -0.8836  0.1143  0.1720
  855TIP3    H2 2572   2.727   3.495   3.257 -0.2671 -0.3080 -0.9901
  856TIP3   OH2 2573   2.117   3.232   5.026  0.5122  0.0167 -0.3542
  856TIP3    H1 2574   2.071   3.288   4.964  1.5419 -0.0489 -1.2037
  856TIP3    H2 2575   2.047   3.188   5.075 -0.3102  0.6966 -0.8964
  857TIP3   OH2 2576   0.432   4.808   0.616 -0.7224  0.2023 -0.5434
  857TIP3    H1 2577   0.496   4.795   0.545 -0.0922  3.4362 -0.7040
  857TIP3    H2 2578   0.486   4.827   0.693 -1.4383 -2.3323  0.6987
  858TIP3   OH2 2579   1.508   3.788   0.965  0.2892  0.4494  0.3169
  858TIP3    H1 2580   1.441   3.839   0.920  1.5942  1.0827 -0.9671
  858TIP3    H2 2581   1.527   3.838   1.044  0.1473  0.9390  0.0461
  859TIP3   OH2 2582   0.494   5.399   0.080  0.8460 -0.2176 -0.0363
  859TIP3    H1 2583   0.492   5.325   0.141  2.3437  0.3920  0.7858
  859TIP3    H2 2584   0.411   5.444   0.096  0.9825 -0.3587  1.1904
  860TIP3   OH2 2585   6.098   0.441   3.188  1.1267  0.3659  0.7135
  860TIP3    H1 2586   6.004   0.426   3.181  0.8237  2.2287  0.3463
  860TIP3    H2 2587   6.138   0.358   3.162 -0.3661  0.3640 -1.8382
  861TIP3   OH2 2588   1.014   4.134   1.300 -0.4936 -0.1131 -0.2524
  861TIP3    H1 2589   0.971   4.194   1.239  2.5086  1.7072 -0.7707
  861TIP3    H2 2590   1.017   4.182   1.383  0.8979  0.0105 -0.3545
  862TIP3   OH2 2591   0.228   5.954   3.904 -0.6176 -0.5992 -0.4577
  862TIP3    H1 2592   0.238   6.034   3.852 -0.6874 -1.1304 -1.2869
  862TIP3    H2 2593   0.166   5.901   3.855 -1.1493 -0.8646  0.4654
  863TIP3   OH2 2594   4.814   3.524   5.152 -0.7713 -0.4652  0.0337
  863TIP3    H1 2595   4.757   3.531   5.075 -0.8485 -0.5996  0.0799
  863TIP3    H2 2596   4.764   3.566   5.222  0.5786  2.6462 -0.6801
  864TIP3   OH2 2597   2.010   0.385   4.955  0.4610 -0.5623 -0.0830
  864TIP3    H1 2598   2.087   0.381   5.012  1.0364  0.4546 -0.7751
  864TIP3    H2 2599   1.937   0.362   5.013  0.9179  1.2619  1.3042
  865TIP3   OH2 2600   4.811   1.835   0.629  0.5444  0.2077 -0.4805
  865TIP3    H1 2601   4.825   1.862   0.538  0.5752 -0.9945 -0.8498
  865TIP3    H2 2602   4.731   1.783   0.626  0.4149  0.3617  0.2302
  866TIP3   OH2 2603   5.773   1.940   3.944  0.4477 -0.3950  0.0139
  866TIP3    H1 2604   5.700   1.989   3.981  1.2592  0.5920  0.3423
  866TIP3    H2 2605   5.789   1.870   4.008 -0.9352 -1.3359 -0.6269
  867TIP3   OH2 2606   5.468   5.138   1.537 -0.3716  0.2139 -0.0806
  867TIP3    H1 2607   5.486   5.213   1.594  1.5447  1.2284 -1.8637
  867TIP3    H2 2608   5.469   5.175   1.448 -0.7044 -1.7171 -0.9317
  868TIP3   OH2 2609   2.898   0.029   0.916  0.2260  0.0004 -0.3895
  868TIP3    H1 2610   2.907  -0.066   0.913 -0.3200 -0.0417 -0.8693
  868TIP3    H2 2611   2.831   0.049   0.850 -0.2073  0.6464  0.2302
  869TIP3   OH2 2612   3.372   2.477   3.646 -0.1905  0.0788 -0.3931
  869TIP3    H1 2613   3.345   2.393   3.607 -1.6131  1.2707 -2.1783
  869TIP3    H2 2614   3.298   2.502   3.701 -0.4462  0.8480 -1.0654
  870TIP3   OH2 2615   1.424   0.736   0.796  0.1145  0.5982  0.1085
  870TIP3    H1 2616   1.357   0.701   0.738 -0.6357 -1.0576  1.8515
  870TIP3    H2 2617   1.377   0.797   0.853 -0.0677 -0.8131  1.5540
  871TIP3   OH2 2618   3.129   1.359   5.011 -0.1043  0.0761 -0.1601
  871TIP3    H1 2619   3.191   1.307   4.960 -0.2452 -0.4820  0.2217
  871TIP3    H2 2620   3.162   1.448   5.007  1.4326 -0.4003  1.0744
  872TIP3   OH2 2621   3.900   4.029   2.870  0.3757  0.0384  0.2412
  872TIP3    H1 2622   3.841   4.042   2.943 -1.0778  0.6096 -0.9774
  872TIP3    H2 2623   3.916   4.117   2.836  0.9458 -0.2223 -0.1884
  873TIP3   OH2 2624   4.764   5.863   0.131  0.2351 -0.7566 -0.1851
  873TIP3    H1 2625   4.741   5.949   0.096  0.4854  0.5674  2.6182
  873TIP3    H2 2626   4.720   5.860   0.216  2.0108 -2.4739  0.7346
  874TIP3   OH2 2627   3.386   3.442   2.265 -0.7774  0.0482  0.3527
  874TIP3    H1 2628   3.369   3.385   2.190 -1.6549  1.1704 -0.3256
  874TIP3    H2 2629   3.475   3.473   2.252 -0.7778 -0.0885  0.0072
  875TIP3   OH2 2630   5.428   3.820   1.790  0.0928  0.5377 -0.0920
  875TIP3    H1 2631   5.367   3.850   1.722  1.2295  0.8834 -0.9990
  875TIP3    H2 2632   5.483   3.896   1.808  0.9741 -0.0765 -0.1200
  876TIP3   OH2 2633   1.771   0.306   1.647  0.0567 -0.2119 -0.1590
  876TIP3    H1 2634   1.781   0.340   1.558 -1.4619  0.2411 -0.1831
  876TIP3    H2 2635   1.680   0.277   1.651  0.3324 -0.9820  1.0022
  877TIP3   OH2 2636   2.209   3.944   0.935 -0.3104  0.5638  0.5117
  877TIP3    H1 2637   2.147   4.017   0.933 -0.4709  0.7409 -5.1256
  877TIP3    H2 2638   2.155   3.866   0.939 -0.4616  0.7137  1.5543
  878TIP3   OH2 2639   4.985   2.677   2.308  0.5594  0.0450 -0.1110
  878TIP3    H1 2640   5.015   2.718   2.389  1.6301  0.6777 -0.8170
  878TIP3    H2 2641   4.968   2.750   2.248  0.3003 -0.4431 -0.6442
  879TIP3   OH2 2642   4.034   4.455   2.617 -0.8636 -0.3960 -0.4842
  879TIP3    H1 2643   3.945   4.489   2.606 -0.4714  0.7541 -0.2345
  879TIP3    H2 2644   4.074   4.465   2.530 -0.0134  2.0556  0.0988
  880TIP3   OH2 2645   4.495   2.348   5.005  0.6026 -0.0482  0.1776
  880TIP3    H1 2646   4.518   2.434   5.039  2.3022 -0.0512 -0.8102
  880TIP3    H2 2647   4.509   2.288   5.079 -1.6700  0.5906  1.2028
  881TIP3   OH2 2648   4.366   0.540   0.921 -0.0375  0.1807  0.4367
  881TIP3    H1 2649   4.291   0.480   0.920 -0.0217  0.0969 -1.6428
  881TIP3    H2 2650   4.354   0.593   0.999 -0.7448 -1.6755  1.6577
  882TIP3   OH2 2651   1.780   2.863   0.243 -0.5144 -0.6767  0.0479
  882TIP3    H1 2652   1.796   2.832   0.153 -0.4498  1.6431 -0.8011
  882TIP3    H2 2653   1.868   2.877   0.278 -0.4373  2.4628 -1.0967
  883TIP3   OH2 2654   2.560   4.879   2.151  0.4430 -0.0494  0.2739
  883TIP3    H1 2655   2.567   4.929   2.232 -1.9176 -1.3836  1.4433
  883TIP3    H2 2656   2.493   4.924   2.100 -0.7517 -1.2068  0.7584
  884TIP3   OH2 2657   5.948   5.869   1.209 -0.1309 -0.0265  0.0479
  884TIP3    H1 2658   6.006   5.796   1.233 -1.1487 -0.4378  1.3471
  884TIP3    H2 2659   6.001   5.922   1.149  1.1832 -0.9944  0.2923
  885TIP3   OH2 2660   5.279   4.048   2.294  0.0621  0.1624 -1.0185
  885TIP3    H1 2661   5.373   4.068   2.296  0.4919 -1.6413 -1.1723
  885TIP3    H2 2662   5.253   4.065   2.204  0.6680 -0.9501 -1.4275
  886TIP3   OH2 2663   5.495   1.133   5.088 -0.1101 -0.1316 -0.6592
  886TIP3    H1 2664   5.527   1.169   5.170 -0.5284  0.2364 -0.6514
  886TIP3    H2 2665   5.498   1.207   5.027 -1.4147  0.0539 -0.5233
  887TIP3   OH2 2666   0.479   5.413   3.420  0.1246 -0.2532 -0.2255
  887TIP3    H1 2667   0.557   5.459   3.392  0.0073 -0.4663 -0.9146
  887TIP3    H2 2668   0.444   5.374   3.340 -0.0898 -1.0598  0.2556
  888TIP3   OH2 2669   2.794   0.806   4.618 -0.2791  0.2339 -0.0195
  888TIP3    H1 2670   2.792   0.720   4.576 -0.0116 -0.3024  1.0326
  888TIP3    H2 2671   2.721   0.804   4.681  1.6336 -0.4745  2.3260
  889TIP3   OH2 2672   0.290   5.921   1.213 -0.2338 -0.3511 -0.0681
  889TIP3    H1 2673   0.257   5.961   1.294  0.8929 -0.5897  0.5235
  889TIP3    H2 2674   0.241   5.838   1.207 -1.1225  0.1707 -0.2357
  890TIP3   OH2 2675   0.261   4.695   1.304 -0.0630 -0.1007 -0.0993
  890TIP3    H1 2676   0.179   4.734   1.336  1.3151  2.4999  0.4569
  890TIP3    H2 2677   0.255   4.603   1.333 -1.7406  0.5803  2.0339
  891TIP3   OH2 2678   4.077   0.257   3.830  0.3366 -0.3151  0.3341
  891TIP3    H1 2679   4.096   0.251   3.736  0.9035  1.7200  0.2524
  891TIP3    H2 2680   3.992   0.217   3.840  0.0904 -0.2260 -1.1436
  892TIP3   OH2 2681   4.835   5.736   1.413 -0.0187 -0.5253  0.3462
  892TIP3    H1 2682   4.805   5.770   1.329 -2.4397 -0.7406  1.0481
  892TIP3    H2 2683   4.900   5.799   1.442 -0.0308  0.2125 -1.1171
  893TIP3   OH2 2684   6.297   1.397   2.803  0.0239  0.3375 -0.1534
  893TIP3    H1 2685   6.341   1.324   2.847 -0.7724  0.9585  1.7721
  893TIP3    H2 2686   6.363   1.432   2.743  0.7952 -1.2355 -0.2769
  894TIP3   OH2 2687   3.327   2.350   0.999  0.3081  0.0307 -0.2951
  894TIP3    H1 2688   3.323   2.382   0.909  0.4985 -1.4233 -0.8513
  894TIP3    H2 2689   3.325   2.255   0.991 -0.0931 -0.1271  1.2719
  895TIP3   OH2 2690   1.056   3.398   4.609  0.1591  0.7892  0.3432
  895TIP3    H1 2691   1.001   3.424   4.535  2.2470  1.2094 -1.1684
  895TIP3    H2 2692   1.019   3.444   4.684 -1.1947  1.4935 -0.7091
  896TIP3   OH2 2693   3.377   2.166   1.931 -0.4916 -0.0953  0.5877
  896TIP3    H1 2694   3.360   2.172   1.837  0.8171 -0.4377  0.3083
  896TIP3    H2 2695   3.339   2.245   1.968  0.9338  1.1953 -0.5690
  897TIP3   OH2 2696   3.364   1.676   0.717  0.0590 -0.5107  0.1084
  897TIP3    H1 2697   3.283   1.725   0.705 -0.1857 -0.6681  1.0406
  897TIP3    H2 2698   3.409   1.721   0.789  1.7011  0.7192 -1.5856
  898TIP3   OH2 2699   0.734   3.902   3.265 -0.0667 -0.2076 -0.2378
  898TIP3    H1 2700   0.809   3.955   3.290 -0.7300  1.4582 -1.5728
  898TIP3    H2 2701   0.768   3.840   3.201  0.4230 -0.3656  0.1724
  899TIP3   OH2 2702   1.591   5.543   3.844  0.2896  0.4926 -0.1207
  899TIP3    H1 2703   1.598   5.447   3.847  0.7325  0.5486  2.0021
  899TIP3    H2 2704   1.677   5.571   3.812 -0.0045  0.1954 -1.2305
  900TIP3   OH2 2705   0.487   1.792   0.701 -0.0255 -0.0758 -0.7115
  900TIP3    H1 2706   0.446   1.747   0.627  2.3630 -0.1720 -2.0638
  900TIP3    H2 2707   0.473   1.885   0.683  0.5880 -0.0983 -1.3247
  901TIP3   OH2 2708   2.355   3.547   2.083  0.0139 -0.3186 -0.2254
  901TIP3    H1 2709   2.328   3.594   2.004 -1.1861  0.0150  0.3623
  901TIP3    H2 2710   2.379   3.617   2.145 -0.3778 -0.5303  0.1671
  902TIP3   OH2 2711   3.424   2.171   2.319 -0.6680 -0.5650  0.1683
  902TIP3    H1 2712   3.387   2.252   2.282  0.8652  0.2609  0.3640
  902TIP3    H2 2713   3.362   2.146   2.388 -0.9655  0.6924  0.3815
  903TIP3   OH2 2714   4.678   0.651   1.375  0.2899  0.6511 -0.0068
  903TIP3    H1 2715   4.616   0.660   1.303 -0.6515  0.5157  0.7636
  903TIP3    H2 2716   4.654   0.721   1.436  0.5198  0.2507  0.5560
  904TIP3   OH2 2717   2.644   0.767   2.298  0.8495 -0.3427 -0.1407
  904TIP3    H1 2718   2.585   0.842   2.297  2.1474  0.8221  2.1401
  904TIP3    H2 2719   2.657   0.745   2.205 -0.8059  1.1981 -0.7959
  905TIP3   OH2 2720   3.664   2.376   2.105  1.2645  0.7099 -0.1804
  905TIP3    H1 2721   3.643   2.403   2.015  0.5284  0.4981 -0.0785
  905TIP3    H2 2722   3.685   2.283   2.098 -0.3651  0.2852  0.0807
  906TIP3   OH2 2723   0.442   3.597   1.292 -0.4452  0.5648 -0.4522
  906TIP3    H1 2724   0.346   3.595   1.296 -0.4806  0.9356 -0.9786
  906TIP3    H2 2725   0.462   3.668   1.231  0.2193  1.6433  0.9828
  907TIP3   OH2 2726   3.074   3.621   3.739  0.3050 -0.1743  0.7210
  907TIP3    H1 2727   3.107   3.532   3.754 -3.7860 -2.4080 -1.6816
  907TIP3    H2 2728   3.099   3.640   3.648 -1.0598 -0.0374  0.3591
  908TIP3   OH2 2729   0.486   2.641   0.861 -0.1611 -0.3774  0.1213
  908TIP3    H1 2730   0.535   2.623   0.781 -0.9161  0.5777 -0.5772
  908TIP3    H2 2731   0.469   2.735   0.859  0.0665 -0.2672  1.5727
  909TIP3   OH2 2732   2.921   3.013   2.523  0.2460  0.3745 -0.0945
  909TIP3    H1 2733   3.015   3.002   2.512  0.2453  0.5550 -0.2904
  909TIP3    H2 2734   2.886   3.017   2.434 -0.0811 -0.7771 -0.0326
  910TIP3   OH2 2735   0.306   5.126   0.036  0.6817  0.0019 -0.1052
  910TIP3    H1 2736   0.354   5.109   0.117 -1.0593  0.3908  1.0812
  910TIP3    H2 2737   0.247   5.052   0.027  1.0973 -0.2066 -1.2268
  911TIP3   OH2 2738   2.103   1.327   3.125 -0.1437 -0.1830 -0.6480
  911TIP3    H1 2739   2.149   1.391   3.180 -1.5866 -0.4149  0.8935
  911TIP3    H2 2740   2.113   1.244   3.171 -1.7387 -0.3103 -0.4831
  912TIP3   OH2 2741   0.829   5.143   4.729  0.2505  0.3071  0.4661
  912TIP3    H1 2742   0.810   5.143   4.823  0.5575  0.5478  0.5297
  912TIP3    H2 2743   0.744   5.129   4.687  0.2575 -0.8535  0.8057
  913TIP3   OH2 2744   2.325   2.065   2.596 -0.0179  0.1701 -0.2793
  913TIP3    H1 2745   2.239   2.107   2.589  0.5189  1.2591 -0.6337
  913TIP3    H2 2746   2.386   2.129   2.560  1.1996  0.2864  1.7810
  914TIP3   OH2 2747   2.733   3.624   0.714  0.4821 -0.5198  0.1329
  914TIP3    H1 2748   2.791   3.590   0.646  0.7058  0.1898 -0.0479
  914TIP3    H2 2749   2.672   3.682   0.668 -0.0267 -0.8408  0.3982
  915TIP3   OH2 2750   3.418   5.522   0.573 -0.0726  0.0809  0.3520
  915TIP3    H1 2751   3.397   5.603   0.526  1.6764  0.8352  0.8111
  915TIP3    H2 2752   3.448   5.462   0.505 -3.0760 -0.9080 -0.2738
  916TIP3   OH2 2753   4.603   5.866   3.221 -0.0952  0.4669  0.1650
  916TIP3    H1 2754   4.595   5.770   3.221  0.2952  0.4231 -1.0935
  916TIP3    H2 2755   4.697   5.882   3.228  0.0439  0.7020 -1.7888
  917TIP3   OH2 2756   1.779   1.444   2.013 -0.5411  0.2238  0.6764
  917TIP3    H1 2757   1.849   1.459   2.077 -0.5634  0.1155  0.7273
  917TIP3    H2 2758   1.823   1.443   1.929 -0.7080  1.9656  0.5187
  918TIP3   OH2 2759   1.529   1.535   4.950  0.2109  0.1867 -0.0936
  918TIP3    H1 2760   1.556   1.510   4.862  3.1012 -2.7042  1.4064
  918TIP3    H2 2761   1.434   1.543   4.945  0.3207  0.7729 -3.5469
  919TIP3   OH2 2762   0.060   5.979   0.686 -0.3926 -0.3352 -0.7034
  919TIP3    H1 2763  -0.005   6.021   0.743  2.0471  1.9975  0.5504
  919TIP3    H2 2764   0.074   5.893   0.727 -1.8175 -0.4439 -0.3662
  920TIP3   OH2 2765   0.108   0.491   2.271 -0.4162  0.5263 -0.1091
  920TIP3    H1 2766   0.189   0.520   2.312 -1.0633 -0.2057  1.7893
  920TIP3    H2 2767   0.126   0.495   2.177  1.5604  1.0391  0.2435
  921TIP3   OH2 2768   1.329   2.456   2.958  0.2195  0.1346 -0.4514
  921TIP3    H1 2769   1.294   2.468   2.870  1.9757 -0.1460 -1.2222
  921TIP3    H2 2770   1.317   2.363   2.977 -0.2701  0.2188 -0.3243
  922TIP3   OH2 2771   0.402   5.231   4.124 -0.1306 -0.6194  0.6377
  922TIP3    H1 2772   0.307   5.228   4.118 -0.2203  2.3109 -2.9578
  922TIP3    H2 2773   0.432   5.154   4.075 -0.7604  0.2987 -1.2611
  923TIP3   OH2 2774   5.997   0.577   2.869  0.2208  0.4095 -0.5004
  923TIP3    H1 2775   6.078   0.573   2.921  0.1526 -0.2698 -0.4345
  923TIP3    H2 2776   6.020   0.632   2.794 -0.2176  2.9864  1.1500
  924TIP3   OH2 2777   1.847   0.164   4.837  0.5033 -0.0056 -0.1679
  924TIP3    H1 2778   1.899   0.238   4.869 -1.3952  0.7081  1.4346
  924TIP3    H2 2779   1.786   0.203   4.774  0.5418 -0.4812 -0.5051
  925TIP3   OH2 2780   3.535   4.316   4.617  0.3372 -0.3891 -0.1448
  925TIP3    H1 2781   3.615   4.303   4.566 -0.2916 -2.1361 -0.7436
  925TIP3    H2 2782   3.467   4.329   4.551 -0.2270 -1.1019  0.2997
  926TIP3   OH2 2783   1.979   1.264   4.316 -0.1946 -0.5361  0.2847
  926TIP3    H1 2784   2.070   1.282   4.292 -0.8049 -0.8722 -2.6496
  926TIP3    H2 2785   1.929   1.291   4.239 -2.6594  0.0774  1.9966
  927TIP3   OH2 2786   3.289   5.672   0.253  0.2604  0.1975 -0.0587
  927TIP3    H1 2787   3.379   5.656   0.224 -0.0917 -0.9021 -0.5759
  927TIP3    H2 2788   3.257   5.740   0.195  1.5993  2.6105  1.8250
  928TIP3   OH2 2789   3.473   2.483   4.435 -0.1579 -0.7701  0.2676
  928TIP3    H1 2790   3.394   2.433   4.412  0.5767 -2.9323  2.0068
  928TIP3    H2 2791   3.546   2.427   4.408  0.7337 -0.1410  1.2837
  929TIP3   OH2 2792   2.509   0.629   0.144  0.1088  0.5406  0.1159
  929TIP3    H1 2793   2.431   0.631   0.088 -1.0907  0.3544  1.7142
  929TIP3    H2 2794   2.503   0.710   0.195  0.9254  0.4791  0.3134
  930TIP3   OH2 2795   5.860   1.627   3.714  0.0084 -0.0118  0.0719
  930TIP3    H1 2796   5.778   1.609   3.760  0.2791  0.1940  0.6501
  930TIP3    H2 2797   5.926   1.631   3.783  0.2058  1.6370 -0.1652
  931TIP3   OH2 2798   5.551   1.998   4.083  0.6616  0.1970  0.0456
  931TIP3    H1 2799   5.564   1.961   4.171  0.6453 -0.2661 -0.1458
  931TIP3    H2 2800   5.482   1.943   4.044 -2.3693  2.8199  1.2082
  932TIP3   OH2 2801   5.931   0.688   1.791  0.7639 -0.0200 -0.1766
  932TIP3    H1 2802   5.863   0.621   1.796  0.8628 -0.0871  0.4601
  932TIP3    H2 2803   6.011   0.640   1.772  0.7655 -0.0350 -0.1313
  933TIP3   OH2 2804   3.662   3.189   0.188  0.5663 -0.1526  0.0926
  933TIP3    H1 2805   3.619   3.234   0.116  1.7089  0.0446 -0.4812
  933TIP3    H2 2806   3.665   3.254   0.259 -0.1797 -0.2117  0.1849
  934TIP3   OH2 2807   0.756   1.418   1.302 -0.7683  0.1081 -0.1350
  934TIP3    H1 2808   0.847   1.435   1.328 -1.0059 -0.1483  0.9090
  934TIP3    H2 2809   0.721   1.504   1.280 -1.1559  0.6906  2.4579
  935TIP3   OH2 2810   0.583   4.612   4.786 -0.2968 -0.0640  0.3907
  935TIP3    H1 2811   0.664   4.628   4.835 -0.4269 -1.8635  1.3044
  935TIP3    H2 2812   0.514   4.612   4.852 -0.7062 -0.8778 -0.0132
  936TIP3   OH2 2813   5.967   3.323   1.981  0.2649  0.2232 -0.1681
  936TIP3    H1 2814   5.925   3.407   1.962  0.4593  0.2673 -0.4010
  936TIP3    H2 2815   5.897   3.270   2.019 -0.0056  0.2983 -0.5525
  937TIP3   OH2 2816   4.728   3.153   0.885  0.4204 -0.5993 -0.2097
  937TIP3    H1 2817   4.783   3.098   0.940 -1.5137 -2.4271  0.0383
  937TIP3    H2 2818   4.730   3.110   0.799 -0.2410 -0.4127 -0.3209
  938TIP3   OH2 2819   0.741   3.516   3.284  0.0056 -0.2949 -0.3249
  938TIP3    H1 2820   0.744   3.469   3.200 -0.5145  0.2910 -0.6764
  938TIP3    H2 2821   0.829   3.554   3.293 -0.3600  0.8359 -1.3060
  939TIP3   OH2 2822   0.944   5.604   2.808 -0.4723  0.4583 -0.4263
  939TIP3    H1 2823   1.026   5.569   2.843 -0.8751  0.0263  0.1003
  939TIP3    H2 2824   0.885   5.530   2.808 -1.6607  1.3130  1.6697
  940TIP3   OH2 2825   2.543   3.876   1.597  0.0683 -0.2650  0.1768
  940TIP3    H1 2826   2.533   3.782   1.583 -1.1597 -0.2735  1.0311
  940TIP3    H2 2827   2.564   3.885   1.689 -2.0558  0.4052  0.6558
  941TIP3   OH2 2828   4.197   3.800   2.868 -0.2381 -0.3759  0.3864
  941TIP3    H1 2829   4.268   3.810   2.932 -0.1321  2.3177 -0.0241
  941TIP3    H2 2830   4.242   3.787   2.784 -0.2060  0.8410  0.1990
  942TIP3   OH2 2831   5.974   3.307   4.052 -0.1480  0.3935 -1.0273
  942TIP3    H1 2832   6.033   3.348   3.989  0.8724 -0.9794 -1.0078
  942TIP3    H2 2833   6.001   3.216   4.055 -0.6125  0.2650  0.8984
  943TIP3   OH2 2834   1.424   4.444  -0.001 -0.3910 -0.1363  0.2231
  943TIP3    H1 2835   1.444   4.370   0.055 -0.2461 -0.3970 -0.1724
  943TIP3    H2 2836   1.507   4.490  -0.012 -0.3926 -0.1574  0.1185
  944TIP3   OH2 2837   5.320   2.493   3.591 -0.2025  0.2576  0.3883
  944TIP3    H1 2838   5.389   2.494   3.524 -0.4654  1.5186  0.1055
  944TIP3    H2 2839   5.239   2.480   3.541 -0.3091  0.2154  0.5702
  945TIP3   OH2 2840   4.996   4.169   3.136 -0.3750  0.0216 -0.1494
  945TIP3    H1 2841   5.069   4.214   3.095 -0.7385  0.5847 -0.1862
  945TIP3    H2 2842   4.930   4.237   3.150 -1.3591 -0.6791 -1.1929
  946TIP3   OH2 2843   4.532   0.209   0.733 -0.0091  0.5281  0.6108
  946TIP3    H1 2844   4.458   0.230   0.677 -0.0483  0.3873  0.6111
  946TIP3    H2 2845   4.571   0.131   0.694 -0.0671  0.4002  0.8090
  947TIP3   OH2 2846   1.802   0.910   1.990  0.3537 -0.1876 -0.6042
  947TIP3    H1 2847   1.745   0.903   1.914  0.2306 -2.7928 -0.3600
  947TIP3    H2 2848   1.886   0.941   1.955  0.1723 -0.9274 -1.7496
  948TIP3   OH2 2849   1.952   3.104   0.997 -0.2121 -0.0310  0.6362
  948TIP3    H1 2850   1.888   3.133   0.933 -1.1648  1.3149  2.1063
  948TIP3    H2 2851   2.037   3.120   0.955 -0.8100  0.3781 -0.4547
  949TIP3   OH2 2852   1.650   4.362   1.691  0.1776  0.0822  0.2756
  949TIP3    H1 2853   1.566   4.343   1.734 -0.0576 -0.3258 -0.3539
  949TIP3    H2 2854   1.651   4.457   1.682  0.1615  0.1649  1.0374
  950TIP3   OH2 2855   1.960   0.176   0.751  0.0063 -0.1356  0.3000
  950TIP3    H1 2856   1.922   0.258   0.722  0.2082  0.1951  0.9529
  950TIP3    H2 2857   1.897   0.109   0.725 -0.4269  0.2832  0.2745
  951TIP3   OH2 2858   0.519   5.755   3.869  0.0222  0.5726  0.0686
  951TIP3    H1 2859   0.505   5.699   3.792 -1.8074  1.6292 -0.4308
  951TIP3    H2 2860   0.460   5.828   3.856 -0.1929  0.8866  2.4254
  952TIP3   OH2 2861   0.231   1.062   1.907  0.1360  0.0646 -0.2167
  952TIP3    H1 2862   0.138   1.049   1.924 -0.4569  3.2357 -0.4566
  952TIP3    H2 2863   0.269   1.076   1.993  0.4156 -1.0090 -0.1410
  953TIP3   OH2 2864   1.052   3.843   0.828 -0.0749 -0.0272  0.5992
  953TIP3    H1 2865   1.048   3.785   0.904  0.1867  0.7057  1.1813
  953TIP3    H2 2866   1.128   3.899   0.845  0.0744  0.0449 -0.2755
  954TIP3   OH2 2867   1.952   5.869   4.156 -0.0788 -0.0760 -0.0044
  954TIP3    H1 2868   1.928   5.962   4.159 -1.1020 -0.2466 -1.7519
  954TIP3    H2 2869   2.045   5.868   4.136 -0.1314  0.5625 -0.2786
  955TIP3   OH2 2870   1.165   3.179   3.291  0.5157 -0.6615 -0.2764
  955TIP3    H1 2871   1.214   3.253   3.256 -2.0649  0.8056 -1.1075
  955TIP3    H2 2872   1.203   3.103   3.249  3.1881  0.1403  0.5069
  956TIP3   OH2 2873   2.577   4.931   4.317  0.1254  0.1785 -0.7167
  956TIP3    H1 2874   2.566   4.942   4.411 -0.6900 -1.0714 -0.6428
  956TIP3    H2 2875   2.488   4.932   4.282  0.3159 -1.0370 -1.2680
  957TIP3   OH2 2876   4.692   4.973   2.010  0.0426 -0.3132 -0.2876
  957TIP3    H1 2877   4.629   4.937   1.948  2.0512 -1.6948 -1.6426
  957TIP3    H2 2878   4.682   4.920   2.089  0.6028 -1.6433 -1.0840
  958TIP3   OH2 2879   0.906   3.889   0.603  0.1556  0.4241 -0.0766
  958TIP3    H1 2880   0.917   3.984   0.608 -1.5079  0.7279 -1.1303
  958TIP3    H2 2881   0.949   3.855   0.681 -1.7469  2.3060  1.9263
  959TIP3   OH2 2882   1.016   3.044   3.587  0.1477  0.3749 -0.7265
  959TIP3    H1 2883   1.002   3.031   3.681 -0.1535  4.3557 -0.0752
  959TIP3    H2 2884   1.107   3.071   3.579  0.7480 -1.7362 -1.9361
  960TIP3   OH2 2885   4.197   2.277   3.469  0.5230 -0.2746  0.6453
  960TIP3    H1 2886   4.175   2.198   3.420  1.6159 -0.3487  0.2255
  960TIP3    H2 2887   4.266   2.249   3.530  0.3870  0.1911  1.0207
  961TIP3   OH2 2888   2.392   3.130   2.771  0.2914 -0.7612  0.1720
  961TIP3    H1 2889   2.470   3.161   2.725 -0.4327  0.9658  0.0151
  961TIP3    H2 2890   2.319   3.170   2.724 -0.5593 -0.3616  1.7690
  962TIP3   OH2 2891   2.698   3.891   1.368 -0.6614  0.0673  0.4317
  962TIP3    H1 2892   2.772   3.949   1.386  0.1445 -0.8794  0.2828
  962TIP3    H2 2893   2.652   3.884   1.451  0.9402 -1.3962  1.2499
  963TIP3   OH2 2894   6.253   5.387   1.187  0.1313 -0.0936  0.0515
  963TIP3    H1 2895   6.184   5.344   1.238 -0.0627  0.6315  0.4209
  963TIP3    H2 2896   6.309   5.429   1.253 -0.1786  0.9362 -0.3239
  964TIP3   OH2 2897   1.363   1.034   1.280  0.3300  0.3414  0.8034
  964TIP3    H1 2898   1.356   1.087   1.360  0.1231  0.9001  0.4180
  964TIP3    H2 2899   1.399   0.950   1.310 -1.1331  0.0085  1.7095
  965TIP3   OH2 2900   0.889   4.819   4.653 -0.4420  0.0201  0.4644
  965TIP3    H1 2901   0.827   4.747   4.640  1.5090 -1.8304  0.6593
  965TIP3    H2 2902   0.896   4.827   4.749 -1.9117  1.7003  0.4714
  966TIP3   OH2 2903   2.355   4.808   0.894  0.1190  0.1169 -0.1104
  966TIP3    H1 2904   2.363   4.733   0.835  2.2853  0.5913 -0.5109
  966TIP3    H2 2905   2.338   4.882   0.836  0.1738  0.2604  0.0551
  967TIP3   OH2 2906   4.014   0.891   4.014  0.0238 -0.3921  0.1253
  967TIP3    H1 2907   4.060   0.843   4.083 -1.8884 -0.9751  1.0940
  967TIP3    H2 2908   4.038   0.982   4.027  0.8234 -0.6661  0.6320
  968TIP3   OH2 2909   5.337   5.622   0.735  0.3631 -0.1133 -0.4821
  968TIP3    H1 2910   5.313   5.530   0.748  0.8919 -0.1783  0.0377
  968TIP3    H2 2911   5.394   5.643   0.808 -1.0721  1.1240  0.3388
  969TIP3   OH2 2912   2.760   0.708   4.002  0.1058 -0.6757  0.0203
  969TIP3    H1 2913   2.834   0.651   3.982  1.0160  0.4973 -0.0665
  969TIP3    H2 2914   2.760   0.713   4.098  1.0878  0.4959 -0.0199
  970TIP3   OH2 2915   1.889   3.700   3.562 -0.2452 -0.0478  0.3390
  970TIP3    H1 2916   1.956   3.647   3.607  0.3281 -0.7156 -1.2461
  970TIP3    H2 2917   1.921   3.709   3.473 -1.6263  0.7853 -0.1048
  971TIP3   OH2 2918   4.562   2.062   2.685  0.1842 -0.2510  0.5202
  971TIP3    H1 2919   4.568   1.976   2.726 -0.9290 -0.1078  1.0149
  971TIP3    H2 2920   4.468   2.078   2.674  0.3029  1.3658  1.4658
  972TIP3   OH2 2921   3.181   5.884   4.135  0.0132  0.8054  0.4591
  972TIP3    H1 2922   3.086   5.891   4.130 -0.0174  0.0140 -0.5047
  972TIP3    H2 2923   3.208   5.956   4.191 -1.3013 -0.0373  2.2962
  973TIP3   OH2 2924   2.872   5.517   1.380 -0.0799  0.1458 -0.4899
  973TIP3    H1 2925   2.821   5.490   1.304 -0.9457  1.7084 -0.5110
  973TIP3    H2 2926   2.810   5.513   1.453 -0.1805  1.7458 -0.4555
  974TIP3   OH2 2927   1.937   4.911   3.611 -0.5034  0.1341  0.0394
  974TIP3    H1 2928   1.998   4.985   3.619 -1.1018  0.6807 -0.4484
  974TIP3    H2 2929   1.976   4.856   3.544  0.0341 -0.0898  0.5241
  975TIP3   OH2 2930   1.105   2.396   0.209 -0.2263  0.1081 -0.1915
  975TIP3    H1 2931   1.053   2.358   0.139  0.6247 -0.1082 -0.7169
  975TIP3    H2 2932   1.189   2.417   0.169  0.2488  0.0605  0.7389
  976TIP3   OH2 2933   5.125   0.406   5.022  0.2125 -0.1081 -0.1426
  976TIP3    H1 2934   5.157   0.345   4.955 -1.0922 -3.5107  2.0891
  976TIP3    H2 2935   5.030   0.399   5.018  0.0652  0.8983  0.9974
  977TIP3   OH2 2936   0.436   4.959   3.199 -0.0913  0.3904 -0.1942
  977TIP3    H1 2937   0.481   4.875   3.207  0.5144  0.7315 -0.0140
  977TIP3    H2 2938   0.348   4.936   3.168  0.2636 -0.2654 -0.7467
  978TIP3   OH2 2939   3.379   4.967   2.705 -0.5157 -0.0930  0.2987
  978TIP3    H1 2940   3.397   4.873   2.705 -0.7323 -0.1393 -0.7670
  978TIP3    H2 2941   3.451   5.004   2.756  0.4428 -0.6852 -0.5899
  979TIP3   OH2 2942   0.164   1.941   1.706 -0.0078 -0.2120 -0.5118
  979TIP3    H1 2943   0.134   2.017   1.755 -0.4724  1.1703 -2.7760
  979TIP3    H2 2944   0.086   1.888   1.693  0.1792 -0.7454  0.4699
  980TIP3   OH2 2945   5.071   1.727   3.408 -0.2252  0.7698 -0.2854
  980TIP3    H1 2946   5.081   1.655   3.345  1.0714 -0.8586  1.6614
  980TIP3    H2 2947   5.105   1.803   3.361 -0.5568 -0.0759 -2.0144
  981TIP3   OH2 2948   0.957   0.893   1.007 -0.1183 -0.4668 -0.3018
  981TIP3    H1 2949   0.872   0.862   1.038 -1.0750  2.7457  0.7127
  981TIP3    H2 2950   0.936   0.965   0.947  1.8940 -0.6218 -1.2618
  982TIP3   OH2 2951   3.870   3.137   0.554  0.3392 -0.3512 -0.1666
  982TIP3    H1 2952   3.924   3.182   0.619 -0.2234 -0.6668  0.5437
  982TIP3    H2 2953   3.813   3.205   0.519  0.5340 -0.2108 -0.2119
  983TIP3   OH2 2954   1.605   0.335   0.553 -0.1676  0.9846 -0.5051
  983TIP3    H1 2955   1.617   0.343   0.648 -1.3177  1.8914 -0.4094
  983TIP3    H2 2956   1.666   0.398   0.515  1.5700 -0.6075 -0.4900
  984TIP3   OH2 2957   1.210   1.467   1.227 -0.2470  0.0315  0.6820
  984TIP3    H1 2958   1.169   1.409   1.163 -1.2062  2.2124 -0.7566
  984TIP3    H2 2959   1.195   1.423   1.311  1.0466 -2.9110 -0.4574
  985TIP3   OH2 2960   3.329   3.845   3.253 -0.0143 -0.2681 -0.4043
  985TIP3    H1 2961   3.364   3.928   3.286 -1.0335 -0.9747  2.8849
  985TIP3    H2 2962   3.382   3.778   3.296 -1.5051 -1.3001 -0.0920
  986TIP3   OH2 2963   1.635   0.805   4.545 -0.2201 -0.1823  0.1350
  986TIP3    H1 2964   1.681   0.728   4.579 -1.1785 -0.4996  0.7612
  986TIP3    H2 2965   1.550   0.772   4.519  0.2026  0.2170 -1.9017
  987TIP3   OH2 2966   2.574   4.765   1.707  0.0288 -0.3294  0.2253
  987TIP3    H1 2967   2.624   4.817   1.645  1.2972  0.3398  1.7271
  987TIP3    H2 2968   2.487   4.806   1.708  0.9461  1.7444  1.2606
  988TIP3   OH2 2969   5.105   1.651   3.993 -0.0062 -0.3462 -0.2031
  988TIP3    H1 2970   5.016   1.670   3.963 -0.4237 -2.3248 -0.3448
  988TIP3    H2 2971   5.140   1.591   3.927  0.6942 -1.1781  0.8863
  989TIP3   OH2 2972   2.586   0.640   0.774  0.0015 -0.3743  0.6994
  989TIP3    H1 2973   2.569   0.546   0.772 -0.3518 -0.3298  1.3061
  989TIP3    H2 2974   2.505   0.679   0.808  0.3800  0.0849  1.0974
  990TIP3   OH2 2975   1.859   1.167   1.340 -0.0923 -0.1716  0.5188
  990TIP3    H1 2976   1.841   1.240   1.399 -0.1709  0.9963 -0.9051
  990TIP3    H2 2977   1.810   1.094   1.378 -0.8375  0.7553  1.4177
  991TIP3   OH2 2978   4.684   2.325   3.003  0.0531 -0.7682 -0.5036
  991TIP3    H1 2979   4.686   2.378   2.924  2.0148 -0.9035 -0.5986
  991TIP3    H2 2980   4.690   2.389   3.075 -0.4796 -0.7096 -0.5121
  992TIP3   OH2 2981   5.614   4.197   2.085  0.0455  0.0475  0.7433
  992TIP3    H1 2982   5.550   4.136   2.121 -1.1630  0.4401 -0.6602
  992TIP3    H2 2983   5.644   4.248   2.160 -3.7125  2.0707  1.0746
  993TIP3   OH2 2984   2.911   2.775   1.170  0.2041  0.2752 -0.1562
  993TIP3    H1 2985   2.977   2.738   1.112  0.1331  0.0842 -0.1178
  993TIP3    H2 2986   2.920   2.870   1.160  0.7650  0.2573  0.1641
  994TIP3   OH2 2987   0.528   0.363   2.639  0.0162 -0.0454  0.3308
  994TIP3    H1 2988   0.586   0.288   2.630 -1.2749 -1.1491  0.9372
  994TIP3    H2 2989   0.455   0.345   2.579 -1.6228 -0.6072  2.3862
  995TIP3   OH2 2990   1.660   4.879   2.353  0.1833  0.5956  0.1289
  995TIP3    H1 2991   1.710   4.872   2.434  2.8290  0.5937 -1.3830
  995TIP3    H2 2992   1.662   4.972   2.331 -0.4930  0.5900  0.0097
  996TIP3   OH2 2993   4.002   4.790   3.498  0.4130 -0.3101 -0.7296
  996TIP3    H1 2994   3.962   4.763   3.581  0.1807  0.3545 -0.6214
  996TIP3    H2 2995   4.088   4.749   3.499  0.4076 -0.3230 -0.1627
  997TIP3   OH2 2996   6.228   3.849   2.961 -0.1107  0.4886  0.0222
  997TIP3    H1 2997   6.208   3.849   2.867  1.1893 -0.8303 -0.2972
  997TIP3    H2 2998   6.280   3.928   2.975  1.7318 -0.5079 -0.8874
  998TIP3   OH2 2999   2.197   2.530   3.080 -0.0368  0.4935 -0.0868
  998TIP3    H1 3000   2.151   2.575   3.151  0.3018  0.4495  0.1665
  998TIP3    H2 3001   2.226   2.600   3.022  2.3145  0.8429  1.3810
  999TIP3   OH2 3002   5.127   3.976   4.555  0.5312 -0.2145  0.3415
  999TIP3    H1 3003   5.081   4.048   4.599  1.2354  0.5557 -0.1360
  999TIP3    H2 3004   5.060   3.933   4.502  0.0764  0.0346  0.7155
 1000TIP3   OH2 3005   2.887   2.635   3.961 -0.2168  0.1934 -0.5023
 1000TIP3    H1 3006   2.922   2.562   3.909  0.5984  1.1916 -1.4020
 1000TIP3    H2 3007   2.916   2.714   3.914 -1.3213  1.1002  0.2869
 1001TIP3   OH2 3008   1.783   1.763   1.743 -0.2245  0.2978  0.4279
 1001TIP3    H1 3009   1.770   1.851   1.779  0.6282 -0.1145  1.7880
 1001TIP3    H2 3010   1.710   1.712   1.777  0.0671  0.1373  0.8201
 1002TIP3   OH2 3011   0.136   5.055   4.452  0.0153 -0.4662  0.3926
 1002TIP3    H1 3012   0.083   5.035   4.375 -0.6069  2.4938 -0.0744
 1002TIP3    H2 3013   0.222   5.017   4.433 -0.8536 -2.1232 -0.4912
 1003TIP3   OH2 3014   0.415   2.814   1.333 -0.6661 -0.7994  0.2369
 1003TIP3    H1 3015   0.328   2.779   1.354 -2.1017  2.4911  0.3869
 1003TIP3    H2 3016   0.407   2.848   1.244 -0.0097  0.7679  0.7401
 1004TIP3   OH2 3017   2.655   5.097   0.823  0.3965 -0.1444 -0.3763
 1004TIP3    H1 3018   2.732   5.040   0.824  0.6333  0.1639 -0.8353
 1004TIP3    H2 3019   2.643   5.119   0.730  0.1126  0.2869 -0.2384
 1005TIP3   OH2 3020   5.123   0.449   0.488 -1.0454  0.1445  0.4736
 1005TIP3    H1 3021   5.081   0.363   0.481 -0.0184 -0.3936  0.7234
 1005TIP3    H2 3022   5.144   0.458   0.581  1.4489 -0.6460  0.0639
 1006TIP3   OH2 3023   0.210   1.128   4.136 -0.4225  0.4548 -0.3283
 1006TIP3    H1 3024   0.137   1.190   4.130 -0.4091  0.8517  2.3448
 1006TIP3    H2 3025   0.243   1.139   4.225  1.8397 -0.9376 -0.9289
 1007TIP3   OH2 3026   3.887   0.755   2.068 -0.1576  0.1542  0.3318
 1007TIP3    H1 3027   3.821   0.816   2.101  0.2005  1.0930 -0.6110
 1007TIP3    H2 3028   3.838   0.677   2.044 -0.7924  0.4943  0.4987
 1008TIP3   OH2 3029   1.260   5.620   2.251  0.3086 -0.5701  0.4035
 1008TIP3    H1 3030   1.336   5.673   2.276  1.2332 -2.7034  2.5617
 1008TIP3    H2 3031   1.298   5.542   2.210 -0.7611 -1.2068  0.6013
 1009TIP3   OH2 3032   0.414   3.733   3.032  0.1339  0.6344 -0.1089
 1009TIP3    H1 3033   0.462   3.714   3.113 -0.1972  0.6232  0.0874
 1009TIP3    H2 3034   0.323   3.737   3.059  0.0691  1.1242 -0.4022
 1010TIP3   OH2 3035   5.065   2.142   1.523 -0.9113  0.5152  0.9901
 1010TIP3    H1 3036   5.056   2.219   1.467  2.2944  1.6401  1.7954
 1010TIP3    H2 3037   5.114   2.173   1.599 -0.0657 -2.1801  1.6631
 1011TIP3   OH2 3038   4.532   5.427   3.746  0.2567  0.3109 -0.0151
 1011TIP3    H1 3039   4.493   5.514   3.749 -0.7854 -0.1590  0.7115
 1011TIP3    H2 3040   4.577   5.417   3.829  0.2748  0.1154 -0.0463
 1012TIP3   OH2 3041   4.956   5.911   3.942  0.0839 -0.5024  0.1759
 1012TIP3    H1 3042   4.952   5.921   3.847  1.5276  0.0060  0.1469
 1012TIP3    H2 3043   4.942   5.999   3.976  2.8653 -0.0141  0.2756
 1013TIP3   OH2 3044   4.053   1.432   4.101  0.0823  0.1117  0.0747
 1013TIP3    H1 3045   4.012   1.380   4.170 -2.2569 -0.5776 -1.6857
 1013TIP3    H2 3046   4.068   1.517   4.141 -1.7841 -0.0622  1.2786
 1014TIP3   OH2 3047   4.040   4.059   5.028  0.0353 -0.2738  0.2604
 1014TIP3    H1 3048   4.108   3.993   5.043  0.1468 -0.5298 -1.2358
 1014TIP3    H2 3049   4.001   4.035   4.944 -1.9614 -0.1551  1.0982
 1015TIP3   OH2 3050   6.217   4.164   4.386 -0.2427  0.1793 -0.1080
 1015TIP3    H1 3051   6.264   4.162   4.469  0.3643  1.7126 -0.3718
 1015TIP3    H2 3052   6.276   4.121   4.324  0.2389  0.8887 -0.1570
 1016TIP3   OH2 3053   4.903   2.194   2.898  0.5713  0.3318  0.3525
 1016TIP3    H1 3054   4.922   2.205   2.805 -1.1127 -1.3158 -0.2414
 1016TIP3    H2 3055   4.816   2.231   2.910  1.0975  1.2594  1.4623
 1017TIP3   OH2 3056   1.277   5.066   2.100 -0.0923  0.0790 -0.3146
 1017TIP3    H1 3057   1.307   5.018   2.023  0.2364  1.4617 -1.0835
 1017TIP3    H2 3058   1.184   5.081   2.085  0.2000  1.3387 -1.0307
 1018TIP3   OH2 3059   4.545   2.746   3.005 -0.2140  0.0125  0.0087
 1018TIP3    H1 3060   4.557   2.777   2.916  0.6550 -1.3649 -0.3725
 1018TIP3    H2 3061   4.501   2.819   3.050 -0.8966  0.6210 -1.5862
 1019TIP3   OH2 3062   0.426   2.082   3.955  0.3227 -0.1628  0.0420
 1019TIP3    H1 3063   0.464   2.036   3.880 -0.5644  1.3103 -1.3807
 1019TIP3    H2 3064   0.450   2.174   3.941 -0.6914  0.2738  1.0405
 1020TIP3   OH2 3065   5.351   4.006   3.276 -0.3337 -0.3183 -0.1307
 1020TIP3    H1 3066   5.403   3.949   3.333 -0.0702 -1.3809 -1.3894
 1020TIP3    H2 3067   5.261   3.986   3.298 -0.2751  1.2710  1.8102
 1021TIP3   OH2 3068   3.510   3.313   3.330 -0.4013 -0.8097  0.1119
 1021TIP3    H1 3069   3.514   3.354   3.244 -0.3293 -1.5888 -0.2725
 1021TIP3    H2 3070   3.600   3.283   3.347 -0.7650 -2.2899 -0.3856
 1022TIP3   OH2 3071   6.226   2.309   5.094 -0.5608  0.1424 -0.8750
 1022TIP3    H1 3072   6.280   2.230   5.088 -0.8419  0.0133 -1.8902
 1022TIP3    H2 3073   6.173   2.296   5.172  1.2606  0.5244  0.4787
 1023TIP3   OH2 3074   1.389   5.871   2.368  0.2723 -0.0099  0.5897
 1023TIP3    H1 3075   1.419   5.796   2.420  0.0663 -0.2440  0.3746
 1023TIP3    H2 3076   1.307   5.899   2.410  1.8529  2.0297  2.5389
 1024TIP3   OH2 3077   0.271   0.176   1.137 -0.7078  1.0279  0.4468
 1024TIP3    H1 3078   0.336   0.225   1.086 -1.1532  0.4690 -0.6792
 1024TIP3    H2 3079   0.188   0.196   1.095 -0.8996 -0.7017 -0.0407
 1025TIP3   OH2 3080   0.622   2.531   0.269 -0.6325  0.6036  0.1547
 1025TIP3    H1 3081   0.604   2.444   0.306 -0.9603  0.4822 -0.2767
 1025TIP3    H2 3082   0.595   2.523   0.177  1.1411  0.5659 -0.4009
 1026TIP3   OH2 3083   2.556   5.760   4.877  0.0261 -0.0596 -0.4736
 1026TIP3    H1 3084   2.607   5.838   4.854 -0.0257 -0.2643 -1.2759
 1026TIP3    H2 3085   2.548   5.766   4.973  0.7655  0.4591 -0.4278
 1027TIP3   OH2 3086   1.924   0.365   0.401  0.2599 -0.0618  0.8059
 1027TIP3    H1 3087   1.836   0.399   0.383  0.0617 -0.7410  0.4618
 1027TIP3    H2 3088   1.915   0.270   0.397  1.1712 -0.1325 -0.0164
 1028TIP3   OH2 3089   3.858   5.869   1.744 -0.4646  0.1528 -0.2950
 1028TIP3    H1 3090   3.793   5.904   1.683  0.6814  0.4771 -1.3728
 1028TIP3    H2 3091   3.936   5.856   1.691  0.5638  0.3930  1.0980
 1029TIP3   OH2 3092   0.181   1.525   1.906  0.2140  0.1108  0.4799
 1029TIP3    H1 3093   0.221   1.573   1.833 -0.7000 -1.5289 -1.1867
 1029TIP3    H2 3094   0.254   1.483   1.950  0.7056  0.4446 -0.0016
 1030TIP3   OH2 3095   2.059   4.293   3.446  0.6657  0.3689  0.2598
 1030TIP3    H1 3096   2.098   4.217   3.488 -1.8225 -1.6455 -0.8329
 1030TIP3    H2 3097   2.115   4.309   3.369  0.0151 -1.8601 -0.7689
 1031TIP3   OH2 3098   4.005   4.003   2.287  0.4061  0.5168  0.6976
 1031TIP3    H1 3099   4.023   3.937   2.354  0.2550  1.1344  1.3530
 1031TIP3    H2 3100   4.000   3.953   2.205 -0.0806 -0.3390  1.2318
 1032TIP3   OH2 3101   2.698   0.270   2.824 -0.2522  0.5675  0.5454
 1032TIP3    H1 3102   2.623   0.293   2.769 -0.4477 -1.4963 -0.1151
 1032TIP3    H2 3103   2.672   0.189   2.867  1.3192  0.2027  0.8618
 1033TIP3   OH2 3104   0.665   4.617   2.230 -0.8165 -0.4200  0.4220
 1033TIP3    H1 3105   0.756   4.620   2.202 -0.5660  0.1235  1.2556
 1033TIP3    H2 3106   0.642   4.524   2.230 -0.4747 -0.5053 -0.4364
 1034TIP3   OH2 3107   5.223   1.662   1.536  0.0128  0.1654 -0.0184
 1034TIP3    H1 3108   5.216   1.671   1.441  1.5930  0.4725 -0.1278
 1034TIP3    H2 3109   5.184   1.742   1.571  0.4356  0.5733 -0.4617
 1035TIP3   OH2 3110   1.815   4.038   0.430  0.3527 -0.0319  0.0280
 1035TIP3    H1 3111   1.854   4.051   0.343  1.9249 -2.7219  0.2095
 1035TIP3    H2 3112   1.852   4.108   0.483  0.0212  1.1545 -1.2540
 1036TIP3   OH2 3113   2.698   2.738   0.091 -0.1119  0.1338 -0.2621
 1036TIP3    H1 3114   2.712   2.658   0.142 -1.2061 -0.3450 -0.6763
 1036TIP3    H2 3115   2.693   2.808   0.156  1.4945 -0.0185  0.0626
 1037TIP3   OH2 3116   3.770   5.423   3.234 -0.1357 -0.2425  0.3955
 1037TIP3    H1 3117   3.798   5.337   3.202  0.9029 -0.2192  1.1529
 1037TIP3    H2 3118   3.761   5.411   3.328 -0.2574  0.4033  0.4689
 1038TIP3   OH2 3119   5.057   5.931   3.119  0.5232  0.2297  0.3636
 1038TIP3    H1 3120   5.117   6.005   3.115 -0.1817  0.7835 -0.3553
 1038TIP3    H2 3121   4.971   5.968   3.098  0.0816 -0.7091  0.4297
 1039TIP3   OH2 3122   0.520   2.172   1.157 -0.5158 -0.3510  0.4313
 1039TIP3    H1 3123   0.515   2.170   1.062  0.2725 -1.1180  0.3962
 1039TIP3    H2 3124   0.449   2.114   1.186  1.2177 -2.7374  0.1992
 1040TIP3   OH2 3125   1.837   5.843   3.016 -0.2471  0.1377  0.7928
 1040TIP3    H1 3126   1.772   5.809   2.954  0.4806 -2.3259  1.3024
 1040TIP3    H2 3127   1.895   5.897   2.962 -0.0349 -1.3885 -0.5682
 1041TIP3   OH2 3128   5.119   3.254   4.414 -0.0285 -0.5391 -0.7670
 1041TIP3    H1 3129   5.101   3.160   4.404  0.9895 -0.6864 -1.2923
 1041TIP3    H2 3130   5.152   3.263   4.504 -0.6300 -0.5850 -0.5303
 1042TIP3   OH2 3131   4.826   5.717   4.085 -0.0226 -0.4250 -0.3574
 1042TIP3    H1 3132   4.864   5.786   4.031 -2.7365  0.8613 -0.7968
 1042TIP3    H2 3133   4.820   5.756   4.172 -0.4769 -0.5297 -0.3383
 1043TIP3   OH2 3134   4.280   2.622   4.153 -0.2121  0.5661  0.3436
 1043TIP3    H1 3135   4.369   2.656   4.145 -0.2863  0.5154 -1.1213
 1043TIP3    H2 3136   4.291   2.529   4.172  0.0746  0.4961 -0.1288
 1044TIP3   OH2 3137   5.383   2.259   3.717  0.0390 -0.2292 -0.4637
 1044TIP3    H1 3138   5.463   2.225   3.676  0.1367  1.9347 -2.2805
 1044TIP3    H2 3139   5.365   2.340   3.670 -2.8262 -0.2410  0.4269
 1045TIP3   OH2 3140   4.876   3.893   0.439 -0.4138  0.3467 -0.0577
 1045TIP3    H1 3141   4.797   3.841   0.447 -0.3415  0.3719  0.9082
 1045TIP3    H2 3142   4.880   3.918   0.346 -2.1103  1.2705  0.0840
 1046TIP3   OH2 3143   2.459   5.414   3.970  0.4296  0.3223 -0.0745
 1046TIP3    H1 3144   2.419   5.465   3.899 -1.1237  2.3298  2.0778
 1046TIP3    H2 3145   2.424   5.325   3.958  0.6040  0.4689 -2.0483
 1047TIP3   OH2 3146   0.846   4.339   2.325 -0.2379 -0.3949 -0.4414
 1047TIP3    H1 3147   0.842   4.381   2.411 -0.7079 -1.5289  0.1074
 1047TIP3    H2 3148   0.902   4.262   2.338  0.6426  0.0451 -1.4345
 1048TIP3   OH2 3149   2.780   2.797   4.907  0.1777  0.2172 -0.0776
 1048TIP3    H1 3150   2.713   2.777   4.842 -1.5692  1.6075  1.2108
 1048TIP3    H2 3151   2.796   2.715   4.952 -0.7980 -0.1008 -0.2917
 1049TIP3   OH2 3152   4.850   5.348   2.620  0.1073  0.8759 -0.0490
 1049TIP3    H1 3153   4.837   5.367   2.713 -1.4457  2.2363 -0.4841
 1049TIP3    H2 3154   4.822   5.257   2.610 -0.7979  1.0616  0.6401
 1050TIP3   OH2 3155   6.150   3.611   2.329  0.6115 -0.5036  0.3574
 1050TIP3    H1 3156   6.192   3.582   2.249 -0.6400 -1.1593 -0.0872
 1050TIP3    H2 3157   6.086   3.543   2.349 -0.9530  0.9264  0.4212
 1051TIP3   OH2 3158   3.838   5.855   3.145  0.1137  0.0218 -0.4194
 1051TIP3    H1 3159   3.861   5.864   3.052 -0.8669 -0.7181 -0.7554
 1051TIP3    H2 3160   3.774   5.924   3.161  0.0631 -0.0385 -0.3637
 1052TIP3   OH2 3161   2.551   3.844   3.922  0.3034  0.3374 -0.1119
 1052TIP3    H1 3162   2.506   3.912   3.874  2.7173  2.0822 -0.1132
 1052TIP3    H2 3163   2.640   3.878   3.934  0.9265 -1.7572  2.0644
 1053TIP3   OH2 3164   4.938   2.189   3.552  0.4979 -0.0744 -0.4399
 1053TIP3    H1 3165   4.875   2.131   3.594  0.1834  0.4632 -0.1583
 1053TIP3    H2 3166   5.015   2.134   3.537  0.5067 -0.3576  0.5545
 1054TIP3   OH2 3167   0.662   0.586   4.162 -0.3600  0.7824 -0.1881
 1054TIP3    H1 3168   0.708   0.523   4.106 -1.8151  0.4956 -1.1306
 1054TIP3    H2 3169   0.581   0.606   4.114 -0.3664  2.6739  0.5301
 1055TIP3   OH2 3170   2.949   5.243   1.245 -0.1565  0.5146 -0.1068
 1055TIP3    H1 3171   2.947   5.311   1.177  2.1397 -0.8240 -1.6205
 1055TIP3    H2 3172   2.867   5.195   1.233  0.5975 -0.2766 -2.6405
 1056TIP3   OH2 3173   3.072   2.003   2.992  0.2783 -0.1779 -0.1413
 1056TIP3    H1 3174   3.078   2.096   3.015  1.1523 -0.7321  2.1116
 1056TIP3    H2 3175   3.162   1.975   2.978 -0.0178 -0.5969 -1.3360
 1057TIP3   OH2 3176   2.168   2.311   1.680 -0.2942  0.1250  0.2107
 1057TIP3    H1 3177   2.250   2.323   1.728 -0.4035  1.0661  0.1818
 1057TIP3    H2 3178   2.116   2.388   1.703 -1.3838 -0.7130  0.6424
 1058TIP3   OH2 3179   3.658   0.085   4.614  0.0492 -0.0405  0.2437
 1058TIP3    H1 3180   3.595   0.152   4.585 -0.0504 -0.3234 -0.2000
 1058TIP3    H2 3181   3.681   0.038   4.534  0.8309  0.0585  0.4024
 1059TIP3   OH2 3182   5.622   4.742   0.289 -0.0403  0.4067  0.3707
 1059TIP3    H1 3183   5.547   4.769   0.342  0.0253 -0.5231  0.9564
 1059TIP3    H2 3184   5.611   4.789   0.206 -0.6394  1.1674  0.8722
 1060TIP3   OH2 3185   4.269   2.164   0.846  0.6171  0.0456 -0.0818
 1060TIP3    H1 3186   4.211   2.104   0.893 -0.6659  1.1034 -0.2512
 1060TIP3    H2 3187   4.357   2.137   0.871  0.1451 -2.4733 -0.8597
 1061TIP3   OH2 3188   1.873   2.410   1.094  0.2270 -0.2335 -0.0500
 1061TIP3    H1 3189   1.864   2.493   1.047  1.5567 -0.7719 -1.3367
 1061TIP3    H2 3190   1.913   2.351   1.030 -0.1805 -1.7210  1.0161
 1062TIP3   OH2 3191   1.967   2.728   2.056 -0.1517  0.4036 -0.3408
 1062TIP3    H1 3192   1.875   2.750   2.045 -0.2622 -0.5631 -1.7778
 1062TIP3    H2 3193   1.967   2.634   2.075  0.5165  0.4533 -0.0681
 1063TIP3   OH2 3194   3.250   4.680   4.231  0.1194  0.0363  0.1669
 1063TIP3    H1 3195   3.164   4.658   4.266 -0.1544 -1.0976 -1.0983
 1063TIP3    H2 3196   3.267   4.770   4.261 -1.5051  0.2816  0.4255
 1064TIP3   OH2 3197   5.139   3.595   4.567  0.6777  0.3509  0.6210
 1064TIP3    H1 3198   5.104   3.578   4.480 -2.1243  1.9519  1.2999
 1064TIP3    H2 3199   5.110   3.520   4.620  0.2176  0.5665  0.6820
 1065TIP3   OH2 3200   3.236   5.640   5.073  0.3247  0.3398 -0.3761
 1065TIP3    H1 3201   3.317   5.597   5.046 -0.0057 -1.0887  0.8151
 1065TIP3    H2 3202   3.167   5.594   5.024  0.0072 -0.2156  0.5766
 1066TIP3   OH2 3203   0.612   3.234   4.247  0.1088  0.0573 -0.8416
 1066TIP3    H1 3204   0.671   3.187   4.306  0.4806  0.8194 -0.5930
 1066TIP3    H2 3205   0.576   3.166   4.189 -0.2680 -0.7039  0.2521
 1067TIP3   OH2 3206   1.486   3.158   3.846  0.3924 -0.0579  0.4305
 1067TIP3    H1 3207   1.418   3.114   3.795  1.6037 -0.2131 -1.1466
 1067TIP3    H2 3208   1.456   3.249   3.852  0.6848  0.2167 -1.5186
 1068TIP3   OH2 3209   0.166   2.517   4.173  0.5308 -0.3704 -0.6454
 1068TIP3    H1 3210   0.071   2.510   4.182  0.3484  1.3662 -0.9416
 1068TIP3    H2 3211   0.198   2.521   4.263  0.4251 -1.8860 -0.5227
 1069TIP3   OH2 3212   1.485   4.871   3.996  0.6348  0.3090  0.0799
 1069TIP3    H1 3213   1.484   4.849   4.089 -0.2544 -0.0062  0.0054
 1069TIP3    H2 3214   1.517   4.962   3.994 -0.4645  0.7392  0.8052
 1070TIP3   OH2 3215   3.234   4.163   3.953  0.6889  0.1438 -0.7173
 1070TIP3    H1 3216   3.151   4.133   3.990  1.5046 -1.7408 -0.2890
 1070TIP3    H2 3217   3.210   4.206   3.871 -0.6479 -1.3118 -1.1261
 1071TIP3   OH2 3218   4.105   2.663   0.715  0.1318 -0.6239  0.1374
 1071TIP3    H1 3219   4.098   2.579   0.670  1.4925  0.2690 -1.9206
 1071TIP3    H2 3220   4.021   2.706   0.700  0.1653 -0.8069 -0.6009
 1072TIP3   OH2 3221   0.859   3.658   2.825  0.6447 -0.2749 -0.7197
 1072TIP3    H1 3222   0.798   3.586   2.837  0.1331  0.4094  1.0907
 1072TIP3    H2 3223   0.804   3.731   2.797  0.5030  0.4406  1.2497
 1073TIP3   OH2 3224   4.257   3.164   3.574 -0.3980 -0.0408  0.0934
 1073TIP3    H1 3225   4.172   3.190   3.539  1.0950  0.8037 -3.4432
 1073TIP3    H2 3226   4.267   3.073   3.547 -0.0675 -0.0317  0.1812
 1074TIP3   OH2 3227   0.590   0.632   1.919 -0.0131 -0.1162 -0.1090
 1074TIP3    H1 3228   0.608   0.725   1.928  1.9626 -0.5010  0.3648
 1074TIP3    H2 3229   0.613   0.595   2.004 -2.5134 -0.8362  0.3438
 1075TIP3   OH2 3230   3.951   3.821   3.819 -0.0379 -0.0346  0.0087
 1075TIP3    H1 3231   3.857   3.826   3.836 -0.0154  2.1823 -0.3040
 1075TIP3    H2 3232   3.983   3.911   3.828  1.7081 -0.3734 -1.9023
 1076TIP3   OH2 3233   3.496   3.179   2.684 -0.4093  0.0968 -0.2361
 1076TIP3    H1 3234   3.435   3.123   2.732 -0.6765  0.8947  0.3751
 1076TIP3    H2 3235   3.582   3.140   2.701 -0.5822 -0.0930  0.2295
 1077TIP3   OH2 3236   1.007   4.148   0.591  0.1629  0.6769 -0.1386
 1077TIP3    H1 3237   1.096   4.184   0.589 -0.5514  2.7146  1.3639
 1077TIP3    H2 3238   0.950   4.225   0.583 -1.4629 -0.0817  2.7764
 1078TIP3   OH2 3239   5.892   1.413   1.577 -0.5164  0.7212  0.2452
 1078TIP3    H1 3240   5.857   1.488   1.625 -2.6092  0.2671 -0.4454
 1078TIP3    H2 3241   5.924   1.451   1.495  1.7761  1.2954  1.3178
 1079TIP3   OH2 3242   1.586   5.557   1.393  0.3290 -0.4015 -0.3126
 1079TIP3    H1 3243   1.648   5.488   1.369  0.0697 -0.3215 -1.2467
 1079TIP3    H2 3244   1.641   5.631   1.419  0.6893  0.0504 -2.1864
 1080TIP3   OH2 3245   1.911   2.583   1.386  0.5685 -0.0671 -0.1087
 1080TIP3    H1 3246   1.837   2.611   1.333  0.4517 -0.0809  0.0481
 1080TIP3    H2 3247   1.947   2.508   1.338  0.4038 -0.1409 -0.1163
 1081TIP3   OH2 3248   0.692   0.271   3.222  0.6923  0.0825  0.2326
 1081TIP3    H1 3249   0.749   0.283   3.146 -0.0026  0.6550 -0.2168
 1081TIP3    H2 3250   0.749   0.234   3.290  2.0072  2.2570  0.3788
 1082TIP3   OH2 3251   6.317   5.402   1.449  0.1367 -0.1617 -0.2393
 1082TIP3    H1 3252   6.379   5.427   1.518  0.2909  0.2096 -0.5127
 1082TIP3    H2 3253   6.233   5.395   1.494  0.3497 -0.5593  0.1123
 1083TIP3   OH2 3254   4.220   5.106   1.760 -0.1025 -0.0865  0.3768
 1083TIP3    H1 3255   4.235   5.197   1.784 -0.0849 -0.2579  1.0275
 1083TIP3    H2 3256   4.151   5.109   1.694  0.6888  0.4856 -0.4511
 1084TIP3   OH2 3257   6.314   4.440   3.268  0.0951 -0.0869  0.0935
 1084TIP3    H1 3258   6.291   4.349   3.249  0.8200 -0.4211  0.7345
 1084TIP3    H2 3259   6.313   4.446   3.363 -3.3063  1.5022  0.1087
 1085TIP3   OH2 3260   2.037   5.048   0.168  0.3142 -0.0672  0.0910
 1085TIP3    H1 3261   2.129   5.060   0.144  0.5108  2.0124  1.6079
 1085TIP3    H2 3262   2.039   5.030   0.261 -0.8481  1.8045  0.5371
 1086TIP3   OH2 3263   2.129   2.228   3.514  0.1665  0.3132 -0.3120
 1086TIP3    H1 3264   2.103   2.146   3.556 -2.6852  0.1946 -2.0103
 1086TIP3    H2 3265   2.063   2.291   3.541 -0.3466  0.8249 -2.5330
 1087TIP3   OH2 3266   4.581   3.669   2.358  0.3171  0.2653  0.1127
 1087TIP3    H1 3267   4.621   3.594   2.314  0.3003  0.5752 -0.4319
 1087TIP3    H2 3268   4.572   3.641   2.450 -1.4404 -1.1548 -0.4329
 1088TIP3   OH2 3269   5.293   4.365   2.227  0.0402 -0.2942  0.0265
 1088TIP3    H1 3270   5.340   4.361   2.310 -0.5093  0.1760  0.3669
 1088TIP3    H2 3271   5.295   4.458   2.203  2.5032 -0.7126 -1.8481
 1089TIP3   OH2 3272   3.792   4.063   5.137  0.1937 -0.9635 -0.1030
 1089TIP3    H1 3273   3.807   4.004   5.210  0.6623 -0.1187  0.4948
 1089TIP3    H2 3274   3.879   4.081   5.101 -0.0463 -1.5486 -1.0236
 1090TIP3   OH2 3275   3.864   1.552   5.143 -0.4104 -0.0092 -0.0532
 1090TIP3    H1 3276   3.935   1.520   5.199 -0.9835 -0.1614  0.5949
 1090TIP3    H2 3277   3.809   1.475   5.127 -0.8211  0.2629  0.0371
 1091TIP3   OH2 3278   0.176   5.553   4.039  0.3220  0.0076  0.5963
 1091TIP3    H1 3279   0.205   5.640   4.064  0.5150 -0.1828  1.0341
 1091TIP3    H2 3280   0.127   5.521   4.114  1.5048 -0.8432  1.0281
 1092TIP3   OH2 3281   4.948   0.533   4.610 -0.7770 -0.6158 -0.3492
 1092TIP3    H1 3282   4.932   0.445   4.643 -1.3030 -0.4193 -0.0716
 1092TIP3    H2 3283   4.864   0.577   4.616 -0.3970  0.0757  0.0299
 1093TIP3   OH2 3284   0.326   5.896   2.882  0.4275  0.0721 -0.3187
 1093TIP3    H1 3285   0.293   5.831   2.943  1.5571  0.0476  0.2899
 1093TIP3    H2 3286   0.249   5.948   2.858 -0.0805 -0.0713  0.9403
 1094TIP3   OH2 3287   0.607   5.053   3.005  0.1335 -0.0160  0.1941
 1094TIP3    H1 3288   0.680   5.070   3.064  0.8072 -0.1936 -0.5832
 1094TIP3    H2 3289   0.548   4.997   3.056  1.8272 -2.1759 -0.0584
 1095TIP3   OH2 3290   4.687   1.340   4.729  0.2532  0.2451  0.0654
 1095TIP3    H1 3291   4.690   1.245   4.721  0.5838  0.2164  0.4770
 1095TIP3    H2 3292   4.704   1.372   4.641 -0.1670 -0.0779 -0.1358
 1096TIP3   OH2 3293   5.662   2.138   1.653 -0.7716  0.5283  0.4117
 1096TIP3    H1 3294   5.589   2.167   1.706 -0.7372 -1.1237  1.4214
 1096TIP3    H2 3295   5.626   2.127   1.565 -1.2386  1.6383  0.4570
 1097TIP3   OH2 3296   1.014   4.140   0.912 -0.2134  0.1878 -0.3369
 1097TIP3    H1 3297   1.071   4.209   0.879 -2.0951  1.0586 -1.9181
 1097TIP3    H2 3298   0.927   4.179   0.916 -0.7491 -1.0398  2.1839
 1098TIP3   OH2 3299   1.643   5.389   2.401 -0.0855 -0.2574  0.2042
 1098TIP3    H1 3300   1.612   5.472   2.437 -1.7896 -1.3676  1.4620
 1098TIP3    H2 3301   1.732   5.408   2.371 -0.4968  2.0608  0.2457
 1099TIP3   OH2 3302   4.967   5.889   4.536  0.4469  0.6221 -1.0470
 1099TIP3    H1 3303   5.061   5.902   4.519  1.3166 -1.0316  1.7067
 1099TIP3    H2 3304   4.953   5.796   4.521 -0.2334  0.4609  0.4071
 1100TIP3   OH2 3305   4.529   0.018   2.408  0.2197 -0.1853 -0.4910
 1100TIP3    H1 3306   4.586   0.042   2.481 -0.2572 -0.4266 -0.0346
 1100TIP3    H2 3307   4.516   0.099   2.360  0.1153  0.0803 -0.0123
 1101TIP3   OH2 3308   2.818   4.281   2.834  0.0772  0.2448 -0.5324
 1101TIP3    H1 3309   2.754   4.210   2.841  1.8130 -1.3484 -0.0194
 1101TIP3    H2 3310   2.775   4.356   2.876 -1.4474 -0.7471 -0.2331
 1102TIP3   OH2 3311   4.614   4.932   3.683 -0.2001  0.2906 -0.6658
 1102TIP3    H1 3312   4.530   4.894   3.709 -0.8645  0.7662 -2.0008
 1102TIP3    H2 3313   4.623   5.009   3.739 -1.4359  1.1122 -1.5398
 1103TIP3   OH2 3314   6.008   3.444   2.933  0.2772 -0.4437 -0.1265
 1103TIP3    H1 3315   6.039   3.395   2.857  0.5224 -0.7121  0.1395
 1103TIP3    H2 3316   6.003   3.535   2.903  1.2055 -0.4099 -0.2217
 1104TIP3   OH2 3317   4.646   3.370   0.234  0.2281  0.0525 -0.1783
 1104TIP3    H1 3318   4.631   3.398   0.325  0.9165 -0.1191 -0.0035
 1104TIP3    H2 3319   4.716   3.427   0.203 -0.0094  0.1123 -0.6047
 1105TIP3   OH2 3320   2.905   0.743   2.689  0.1581 -0.4686  0.2765
 1105TIP3    H1 3321   2.854   0.815   2.650 -1.9398 -1.4123  1.1005
 1105TIP3    H2 3322   2.996   0.772   2.684 -0.3249  0.8913 -2.2288
 1106TIP3   OH2 3323   3.093   5.486   1.934 -0.9458  0.6293  0.4269
 1106TIP3    H1 3324   3.145   5.406   1.943 -1.6677  0.2338  1.2138
 1106TIP3    H2 3325   3.051   5.497   2.019 -3.6295 -0.1017 -0.7177
 1107TIP3   OH2 3326   4.778   0.481   2.555  0.1778 -0.7790 -0.5337
 1107TIP3    H1 3327   4.699   0.427   2.555  0.4793 -1.2384  0.1289
 1107TIP3    H2 3328   4.825   0.454   2.634  0.9906 -0.5068 -0.9130
 1108TIP3   OH2 3329   3.938   4.785   0.021 -0.0702 -0.0675  0.2790
 1108TIP3    H1 3330   3.910   4.832   0.100 -1.7101 -1.0948  0.3545
 1108TIP3    H2 3331   3.870   4.718   0.008  1.5745 -1.6552 -0.4917
 1109TIP3   OH2 3332   6.131   5.128   1.313 -0.2530 -0.3970 -0.4476
 1109TIP3    H1 3333   6.062   5.195   1.310 -1.3788 -1.5345 -2.8330
 1109TIP3    H2 3334   6.084   5.047   1.334  0.8469 -0.7227  0.8504
 1110TIP3   OH2 3335   1.304   0.064   1.974 -0.4776 -0.0703 -0.0036
 1110TIP3    H1 3336   1.333   0.119   2.047  2.9085 -3.3267  1.4801
 1110TIP3    H2 3337   1.240   0.004   2.014  0.7043 -1.2745  0.1442
 1111TIP3   OH2 3338   4.010   3.092   1.953 -0.3813  0.3386 -0.3312
 1111TIP3    H1 3339   3.984   3.003   1.928 -0.1471  0.2534 -0.2724
 1111TIP3    H2 3340   3.934   3.127   2.000 -1.0805  0.7307 -1.7031
 1112TIP3   OH2 3341   0.757   0.393   0.109 -0.1460  0.2559  0.0218
 1112TIP3    H1 3342   0.763   0.300   0.128 -2.9431 -0.3907 -1.7296
 1112TIP3    H2 3343   0.754   0.435   0.195 -0.0184 -1.3551  0.8444
 1113TIP3   OH2 3344   4.169   4.917   3.781  0.5491  0.0100  0.6319
 1113TIP3    H1 3345   4.074   4.912   3.768  0.5177 -0.8413  1.1174
 1113TIP3    H2 3346   4.184   5.007   3.811  0.1223  0.7092 -1.0815
 1114TIP3   OH2 3347   2.469   0.793   5.198 -0.2155 -0.4423  0.5226
 1114TIP3    H1 3348   2.454   0.742   5.118  1.0456  0.5942 -0.4204
 1114TIP3    H2 3349   2.486   0.882   5.167  1.6087 -0.2826  1.8333
 1115TIP3   OH2 3350   0.860   0.584   4.608 -0.3488 -0.2444  0.2177
 1115TIP3    H1 3351   0.867   0.566   4.514 -0.4076 -1.0712  0.3661
 1115TIP3    H2 3352   0.903   0.510   4.650 -1.7793 -0.7261  0.8851
 1116TIP3   OH2 3353   0.172   3.931   2.676  0.5701 -0.0687  0.3207
 1116TIP3    H1 3354   0.162   3.859   2.613 -0.2930 -0.9698  1.4384
 1116TIP3    H2 3355   0.263   3.925   2.705  0.5503 -0.6014  0.2777
 1117TIP3   OH2 3356   3.950   5.073   4.604 -0.0892  0.3917  0.4306
 1117TIP3    H1 3357   4.003   5.133   4.553  1.9163 -1.4486  0.1893
 1117TIP3    H2 3358   3.986   5.077   4.692 -0.7542  0.4387  0.7096
 1118TIP3   OH2 3359   5.738   1.275   1.793 -0.0461  0.0272 -0.4486
 1118TIP3    H1 3360   5.811   1.319   1.749  0.4092 -0.6609 -0.3870
 1118TIP3    H2 3361   5.726   1.326   1.874  1.0458 -0.4581  0.0391
 1119TIP3   OH2 3362   2.674   2.071   3.391  0.1024 -0.0476  0.5263
 1119TIP3    H1 3363   2.691   2.115   3.475  1.4109 -1.6309  1.1450
 1119TIP3    H2 3364   2.693   1.979   3.408 -2.4892 -0.9136 -0.7312
 1120TIP3   OH2 3365   3.983   1.147   2.646  0.3951 -0.0776 -0.6110
 1120TIP3    H1 3366   3.914   1.197   2.601 -0.5652 -0.1427  0.7391
 1120TIP3    H2 3367   3.954   1.141   2.736  2.1458 -0.1936 -0.0075
 1121TIP3   OH2 3368   0.883   0.369   3.603 -0.2659 -0.2097 -0.0861
 1121TIP3    H1 3369   0.972   0.382   3.635 -0.3399  0.5249 -0.1748
 1121TIP3    H2 3370   0.884   0.280   3.567  0.6960  0.1214 -0.9331
 1122TIP3   OH2 3371   0.344   3.554   2.831 -0.1086 -0.2495 -0.0947
 1122TIP3    H1 3372   0.363   3.636   2.877 -0.1959 -0.2729 -0.0171
 1122TIP3    H2 3373   0.280   3.578   2.764 -1.4034 -0.5566  0.9924
 1123TIP3   OH2 3374   4.084   2.343   3.821 -0.4476  0.9105 -0.3747
 1123TIP3    H1 3375   4.029   2.385   3.888  0.6810  2.0316 -0.1104
 1123TIP3    H2 3376   4.025   2.328   3.747 -1.7612 -0.4774  0.8811
 1124TIP3   OH2 3377   2.762   5.461   0.701 -0.2351  0.1599  0.0075
 1124TIP3    H1 3378   2.718   5.438   0.783 -2.2759  1.9235 -0.5157
 1124TIP3    H2 3379   2.839   5.512   0.727 -0.8582  0.6854  0.8152
 1125TIP3   OH2 3380   5.529   3.298   4.879  0.6674 -0.0995  0.0977
 1125TIP3    H1 3381   5.624   3.311   4.875  1.0530 -2.4300  0.5411
 1125TIP3    H2 3382   5.517   3.204   4.867 -1.7601  0.3581 -2.1092
 1126TIP3   OH2 3383   4.517   5.222   3.537 -0.0258 -0.0415 -0.4255
 1126TIP3    H1 3384   4.448   5.168   3.577  0.1908 -0.3148 -0.4152
 1126TIP3    H2 3385   4.511   5.306   3.582  0.3796 -0.4278  0.3644
 1127TIP3   OH2 3386   2.095   3.098   3.141 -0.6976 -0.6652 -0.1330
 1127TIP3    H1 3387   2.032   3.101   3.069  0.8298  2.5087 -1.4917
 1127TIP3    H2 3388   2.180   3.091   3.098  0.2322  1.0437  1.3050
 1128TIP3   OH2 3389   6.255   1.110   4.601 -0.3284  0.0099 -1.0198
 1128TIP3    H1 3390   6.195   1.090   4.673 -0.8996  0.4646 -1.3562
 1128TIP3    H2 3391   6.204   1.091   4.522 -1.1664  3.2116 -1.4056
 1129TIP3   OH2 3392   4.279   0.257   2.184  0.3219 -0.3491 -0.5083
 1129TIP3    H1 3393   4.237   0.283   2.266 -0.1475 -2.1873 -0.1171
 1129TIP3    H2 3394   4.366   0.297   2.188 -0.3908  1.2215 -0.0533
 1130TIP3   OH2 3395   3.680   4.512   3.520 -0.4514  0.4438  0.0157
 1130TIP3    H1 3396   3.652   4.427   3.553  1.6426  0.6367  2.6479
 1130TIP3    H2 3397   3.755   4.493   3.463 -0.4538  0.4736  0.0023
 1131TIP3   OH2 3398   0.841   3.824   2.247  0.4450  0.0146 -0.0082
 1131TIP3    H1 3399   0.926   3.817   2.205  0.5255 -0.0909  0.1760
 1131TIP3    H2 3400   0.795   3.743   2.222  2.1451 -2.4182  3.8976
 1132TIP3   OH2 3401   1.703   2.693   4.151  0.1809 -0.7372  0.3884
 1132TIP3    H1 3402   1.646   2.753   4.102  0.3403 -0.6481  0.3090
 1132TIP3    H2 3403   1.667   2.692   4.240 -0.4503 -1.3359  0.1378
 1133TIP3   OH2 3404   4.902   5.650   5.013 -0.2782  0.5664  0.6824
 1133TIP3    H1 3405   4.834   5.677   5.074 -0.5157 -0.9628  1.1366
 1133TIP3    H2 3406   4.984   5.666   5.061 -0.3063  1.8527  0.3557
 1134TIP3   OH2 3407   4.115   4.584   5.011  0.4069  0.4425 -0.0882
 1134TIP3    H1 3408   4.071   4.600   4.928 -0.5143  2.1282  0.6655
 1134TIP3    H2 3409   4.102   4.490   5.028  0.5175  0.1034 -1.7646
 1135TIP3   OH2 3410   4.353   0.049   2.851 -0.4795  0.0649 -0.5051
 1135TIP3    H1 3411   4.349   0.077   2.942 -1.7345 -1.4955 -0.0415
 1135TIP3    H2 3412   4.265   0.020   2.830  0.2539 -1.5976 -1.5428
 1136TIP3   OH2 3413   4.175   4.424   3.518  0.6508 -0.3297  0.4165
 1136TIP3    H1 3414   4.188   4.516   3.541  0.9574  0.2353 -1.8045
 1136TIP3    H2 3415   4.260   4.383   3.537  2.2666  0.9558 -3.1642
 1137TIP3   OH2 3416   4.075   3.972   4.148 -0.0974  0.4425 -0.2320
 1137TIP3    H1 3417   4.153   3.943   4.100 -0.3544  0.3878 -0.6210
 1137TIP3    H2 3418   4.072   4.066   4.135  1.7670  1.0038  2.5378
 1138TIP3   OH2 3419   0.244   1.063   5.169  0.1051 -0.8607 -0.5408
 1138TIP3    H1 3420   0.304   1.036   5.238 -1.6381 -2.5577  0.4295
 1138TIP3    H2 3421   0.275   1.017   5.091  0.0108 -1.8577 -0.0120
 1139TIP3   OH2 3422   5.545   3.641   2.009  0.2506 -0.2451 -0.1764
 1139TIP3    H1 3423   5.507   3.685   1.933 -2.0124  1.1158  1.6350
 1139TIP3    H2 3424   5.574   3.711   2.067 -0.6660 -1.1255  1.4407
 1140TIP3   OH2 3425   1.548   0.667   2.302 -0.7031  0.1672  0.0540
 1140TIP3    H1 3426   1.458   0.635   2.292  0.2256 -3.1992  1.2019
 1140TIP3    H2 3427   1.592   0.637   2.222 -0.1083 -0.3004  0.5456
 1141TIP3   OH2 3428   3.031   1.989   3.494 -0.0512  0.1880  0.7228
 1141TIP3    H1 3429   2.999   2.072   3.530  0.0578  0.7420 -0.4262
 1141TIP3    H2 3430   3.000   1.989   3.403  1.8031 -0.0212  0.0605
 1142TIP3   OH2 3431   5.416   4.016   4.153  0.7422  0.1302 -0.2042
 1142TIP3    H1 3432   5.325   4.022   4.123  0.4380  0.2228  0.6896
 1142TIP3    H2 3433   5.409   4.009   4.248  1.6856  0.5930 -0.0870
 1143TIP3   OH2 3434   2.602   1.825   1.323  0.5847 -0.0556 -0.0839
 1143TIP3    H1 3435   2.584   1.915   1.350  0.0575  0.0453 -0.7577
 1143TIP3    H2 3436   2.668   1.794   1.385 -0.3368  0.2913  1.0946
 1144TIP3   OH2 3437   4.386   1.078   0.894 -0.1129 -0.2563  0.6616
 1144TIP3    H1 3438   4.414   1.079   0.985  2.7105  0.2768 -0.1134
 1144TIP3    H2 3439   4.443   1.141   0.850 -0.9161 -0.9779 -1.5821
 1145TIP3   OH2 3440   0.884   4.001   4.493 -0.5037  0.0984  0.3594
 1145TIP3    H1 3441   0.802   4.008   4.541 -0.2185  0.4854  0.8066
 1145TIP3    H2 3442   0.930   4.083   4.513  0.6299 -0.7378  1.3340
 1146TIP3   OH2 3443   5.440   1.825   2.838  0.1083 -0.7374  0.0059
 1146TIP3    H1 3444   5.386   1.793   2.765 -0.2691 -0.6180  0.2273
 1146TIP3    H2 3445   5.389   1.898   2.875 -0.5852 -1.9479  1.5339
 1147TIP3   OH2 3446   5.757   1.885   3.018  0.2182 -0.1475  0.0533
 1147TIP3    H1 3447   5.837   1.831   3.021 -1.0024 -2.1192 -0.7746
 1147TIP3    H2 3448   5.753   1.917   2.928  0.5281  0.7374  0.3406
 1148TIP3   OH2 3449   2.236   5.491   4.226 -0.0813 -0.1369 -0.1577
 1148TIP3    H1 3450   2.180   5.518   4.153 -0.3913  0.5664  0.3331
 1148TIP3    H2 3451   2.176   5.459   4.292  0.2636 -1.8745 -0.6352
 1149TIP3   OH2 3452   5.408   5.679   4.231  0.1331  0.2477 -0.5725
 1149TIP3    H1 3453   5.328   5.727   4.210  0.0874  0.5614  0.2759
 1149TIP3    H2 3454   5.456   5.675   4.149 -1.2164 -0.8464 -1.3340
 1150TIP3   OH2 3455   6.290   5.434   2.602  0.0563  0.1307 -0.0551
 1150TIP3    H1 3456   6.301   5.354   2.552  0.7561 -0.3026  0.7635
 1150TIP3    H2 3457   6.378   5.458   2.630 -0.2286  0.7827  0.3195
 1151TIP3   OH2 3458   3.482   2.326   0.285 -0.0205  0.1063 -0.4280
 1151TIP3    H1 3459   3.534   2.382   0.227 -1.2357  1.3729 -0.3406
 1151TIP3    H2 3460   3.503   2.358   0.373 -0.9495  0.6416 -0.3954
 1152TIP3   OH2 3461   4.033   2.674   4.088  0.1181  0.0968 -0.3722
 1152TIP3    H1 3462   4.002   2.590   4.053  0.4386  0.6157 -1.9806
 1152TIP3    H2 3463   4.112   2.651   4.137 -1.0741 -0.8301  1.2381
 1153TIP3   OH2 3464   0.236   2.020   1.280  0.3720  0.4377  0.1363
 1153TIP3    H1 3465   0.161   1.961   1.266  0.7454 -0.3409  1.3022
 1153TIP3    H2 3466   0.200   2.107   1.265 -0.7131  0.0572  0.4133
 1154TIP3   OH2 3467   0.612   2.281   0.378  0.4991 -0.2975  0.1119
 1154TIP3    H1 3468   0.578   2.193   0.357 -1.0476  0.5756 -1.2465
 1154TIP3    H2 3469   0.700   2.264   0.412  0.0203 -2.4250  0.4848
 1155TIP3   OH2 3470   5.441   3.124   4.280 -0.1649 -0.1444 -0.3627
 1155TIP3    H1 3471   5.536   3.129   4.268 -0.1841 -0.3602 -0.6111
 1155TIP3    H2 3472   5.424   3.030   4.291 -0.4508 -0.1845 -1.1469
 1156TIP3   OH2 3473   2.483   4.361   0.816 -0.3698  0.1650  0.1094
 1156TIP3    H1 3474   2.455   4.426   0.881  0.1705 -0.1572  0.6875
 1156TIP3    H2 3475   2.463   4.277   0.857 -0.2858 -0.0379 -0.2681
 1157TIP3   OH2 3476   5.230   5.838   4.470 -0.1545  0.3268 -0.0119
 1157TIP3    H1 3477   5.315   5.795   4.481 -0.2487 -0.0001 -0.5413
 1157TIP3    H2 3478   5.189   5.793   4.396 -0.8311  0.4218  0.2943
 1158TIP3   OH2 3479   2.687   0.731   1.030 -0.0640 -0.2322 -0.1275
 1158TIP3    H1 3480   2.768   0.781   1.038 -0.6083  0.5416  0.9489
 1158TIP3    H2 3481   2.676   0.717   0.936  0.5697  0.9204 -0.3903
 1159TIP3   OH2 3482   0.175   1.187   2.397  0.1124  0.1848  0.0500
 1159TIP3    H1 3483   0.087   1.226   2.407  0.5861  1.3498 -0.1164
 1159TIP3    H2 3484   0.182   1.168   2.303 -0.7348 -1.8924  0.3520
 1160TIP3   OH2 3485   1.143   1.404   3.037 -0.2644  0.2589  0.4497
 1160TIP3    H1 3486   1.070   1.382   2.979 -0.3847 -2.3143  1.4546
 1160TIP3    H2 3487   1.215   1.349   3.007  0.4146  0.6876  1.2379
 1161TIP3   OH2 3488   4.908   3.224   2.366  0.1872  0.6778 -0.0811
 1161TIP3    H1 3489   4.862   3.140   2.360 -0.1482  0.9361 -1.7332
 1161TIP3    H2 3490   4.883   3.259   2.451 -2.1737  0.4928 -0.6307
 1162TIP3   OH2 3491   0.795   0.444   0.462  0.4784  0.0876  0.2807
 1162TIP3    H1 3492   0.712   0.477   0.497 -0.3164 -1.0285 -0.4742
 1162TIP3    H2 3493   0.843   0.413   0.539 -0.3839 -0.4895  0.5986
 1163TIP3   OH2 3494   5.612   2.063   0.655  0.0971 -0.3751 -0.3566
 1163TIP3    H1 3495   5.612   2.145   0.704 -0.2939  1.2520 -2.8646
 1163TIP3    H2 3496   5.520   2.041   0.644  0.1852 -0.8403 -0.2168
 1164TIP3   OH2 3497   4.872   3.577   0.162  0.7397  0.3686  0.4714
 1164TIP3    H1 3498   4.944   3.575   0.225  1.5758  0.1565 -0.4652
 1164TIP3    H2 3499   4.856   3.671   0.148  1.3287  0.4273  0.1483
 1165TIP3   OH2 3500   4.698   2.601   3.178  0.1496 -0.5779  0.4268
 1165TIP3    H1 3501   4.618   2.580   3.225 -0.4408 -0.5461 -0.5253
 1165TIP3    H2 3502   4.667   2.636   3.094  1.1582 -0.2581  0.1795
 1166TIP3   OH2 3503   0.988   1.344   3.827 -0.1833  0.1783  0.0768
 1166TIP3    H1 3504   0.954   1.337   3.738 -1.1823 -1.2296  0.5341
 1166TIP3    H2 3505   0.976   1.257   3.864  1.3839  0.3912  1.1978
 1167TIP3   OH2 3506   1.057   1.400   4.089 -0.2264 -0.0063  0.1918
 1167TIP3    H1 3507   1.054   1.405   3.994  0.3174 -0.2484  0.1557
 1167TIP3    H2 3508   1.105   1.478   4.116  3.0377 -1.7688 -0.0015
 1168TIP3   OH2 3509   0.984   2.229   3.762 -0.3274 -0.3093 -0.5250
 1168TIP3    H1 3510   0.945   2.317   3.763  0.2397 -0.0473  1.3136
 1168TIP3    H2 3511   0.928   2.177   3.819  0.6697 -0.5285  0.2758
 1169TIP3   OH2 3512   3.652   2.560   4.160  0.0857  0.7604  0.1820
 1169TIP3    H1 3513   3.683   2.650   4.161  1.1850  0.4147 -0.6259
 1169TIP3    H2 3514   3.640   2.539   4.067  2.3892 -0.7214  0.1355
 1170TIP3   OH2 3515   0.660   1.571   4.132 -0.0802  0.0952 -0.0498
 1170TIP3    H1 3516   0.608   1.493   4.151 -1.2881  0.8384 -0.1916
 1170TIP3    H2 3517   0.727   1.572   4.201 -1.3606  0.0619  1.2501
 1171TIP3   OH2 3518   3.522   0.351   4.945  0.1971 -0.3085 -0.2311
 1171TIP3    H1 3519   3.503   0.332   5.037 -1.6343 -0.7547 -0.6638
 1171TIP3    H2 3520   3.567   0.273   4.913 -0.3038 -0.6818 -0.0287
 1172TIP3   OH2 3521   2.927   2.905   5.162 -0.1131  0.2047  0.0886
 1172TIP3    H1 3522   2.862   2.852   5.208 -0.1277 -1.0046 -1.2739
 1172TIP3    H2 3523   2.886   2.926   5.078  0.9762  0.0439 -0.4947
 1173TIP3   OH2 3524   5.095   5.726   0.857 -0.1431  0.3169 -0.1042
 1173TIP3    H1 3525   5.073   5.664   0.926 -0.5850  0.8206  0.2151
 1173TIP3    H2 3526   5.160   5.681   0.803 -0.2124 -0.2884  0.3180
 1174TIP3   OH2 3527   5.832   1.212   4.990  0.1993 -0.0471 -0.0269
 1174TIP3    H1 3528   5.837   1.192   5.084 -0.2343  1.7038  0.3967
 1174TIP3    H2 3529   5.919   1.245   4.968  0.0108  0.4573 -0.0169
 1175TIP3   OH2 3530   4.390   4.432   1.468  0.1238 -0.1817 -0.3257
 1175TIP3    H1 3531   4.463   4.457   1.525  1.6442 -0.1837 -2.1938
 1175TIP3    H2 3532   4.406   4.340   1.447 -0.9618 -0.4576 -0.0193
 1176TIP3   OH2 3533   1.931   5.884   0.886  0.6023 -0.2925  0.1654
 1176TIP3    H1 3534   1.922   5.796   0.850  1.0965  0.2591 -1.3540
 1176TIP3    H2 3535   2.024   5.893   0.904  0.4274 -0.3913  1.2056
 1177TIP3   OH2 3536   1.146   0.898   4.479 -1.0269 -0.2937  0.9549
 1177TIP3    H1 3537   1.077   0.887   4.544 -1.4159  0.2602  0.6464
 1177TIP3    H2 3538   1.150   0.993   4.464 -0.6884 -0.3823  0.4534
 1178TIP3   OH2 3539   1.373   3.825   3.213  0.2515 -0.0537  0.3438
 1178TIP3    H1 3540   1.456   3.835   3.165 -1.4225 -3.0804 -3.7813
 1178TIP3    H2 3541   1.374   3.734   3.243 -1.0758  0.2393  1.3746
 1179TIP3   OH2 3542   1.533   5.205   1.743 -0.5909  0.7011  0.3720
 1179TIP3    H1 3543   1.620   5.196   1.782  0.1480  0.2166 -1.3040
 1179TIP3    H2 3544   1.528   5.296   1.715 -0.7032  0.7789  0.6443
 1180TIP3   OH2 3545   2.594   1.205   3.978 -0.1275  0.1502 -0.2218
 1180TIP3    H1 3546   2.679   1.162   3.962  0.1238  0.3899  0.4431
 1180TIP3    H2 3547   2.590   1.215   4.073 -1.0765 -0.1974 -0.2156
 1181TIP3   OH2 3548   5.077   4.812   4.479  0.3687 -0.7329  0.0644
 1181TIP3    H1 3549   5.023   4.759   4.538  0.9969 -0.1276  1.2325
 1181TIP3    H2 3550   5.107   4.885   4.534  0.9564 -0.1310 -1.0266
 1182TIP3   OH2 3551   0.177   4.576   3.606 -0.2063 -0.3590 -1.0493
 1182TIP3    H1 3552   0.187   4.660   3.651  0.1773 -1.8356  1.8269
 1182TIP3    H2 3553   0.096   4.585   3.557 -0.3022  1.6082 -0.6223
 1183TIP3   OH2 3554   2.621   4.399   2.648 -0.4844 -0.2620  0.0582
 1183TIP3    H1 3555   2.682   4.333   2.681 -0.4860  0.3944  1.4249
 1183TIP3    H2 3556   2.668   4.439   2.575  1.2848  1.0311  1.7923
 1184TIP3   OH2 3557   4.714   5.092   2.577  0.3099 -0.4519 -0.1995
 1184TIP3    H1 3558   4.698   5.069   2.485 -0.2647  1.2935 -0.5683
 1184TIP3    H2 3559   4.627   5.110   2.612  0.6370  0.1281  0.3275
 1185TIP3   OH2 3560   3.167   4.060   0.974  0.0372  0.4273  0.0302
 1185TIP3    H1 3561   3.255   4.027   0.960 -0.1638 -0.5843  0.9958
 1185TIP3    H2 3562   3.153   4.052   1.068 -1.5913 -0.8266 -0.2653
 1186TIP3   OH2 3563   4.884   4.575   2.204  0.5481  0.1269  0.0511
 1186TIP3    H1 3564   4.947   4.647   2.197 -0.9565  1.5509  0.7339
 1186TIP3    H2 3565   4.913   4.526   2.282  2.1156 -0.6070 -0.9373
 1187TIP3   OH2 3566   1.517   1.903   0.947 -0.2241 -0.3902 -0.4530
 1187TIP3    H1 3567   1.524   1.983   0.895 -1.6494 -0.3673 -0.6512
 1187TIP3    H2 3568   1.552   1.927   1.032 -0.1685  0.3078 -0.6658
 1188TIP3   OH2 3569   4.508   3.165   4.861  0.4341 -0.6600 -0.1970
 1188TIP3    H1 3570   4.424   3.208   4.872 -0.0437 -1.2014 -1.5455
 1188TIP3    H2 3571   4.493   3.075   4.890  0.2221 -1.0441 -1.4129
 1189TIP3   OH2 3572   1.010   3.602   0.056  0.5072 -0.7407 -0.2634
 1189TIP3    H1 3573   1.053   3.584  -0.027 -0.6024 -0.7394 -0.8542
 1189TIP3    H2 3574   0.922   3.632   0.032  0.0878 -0.9690  0.9130
 1190TIP3   OH2 3575   4.066   1.651   2.172 -0.0619  0.2986 -0.0965
 1190TIP3    H1 3576   4.056   1.744   2.191  2.2060  0.5429  0.1384
 1190TIP3    H2 3577   4.120   1.648   2.093  1.2755 -0.8200  0.8232
 1191TIP3   OH2 3578   2.441   3.644   1.483  0.7221  0.2734  0.2893
 1191TIP3    H1 3579   2.364   3.702   1.487  1.5310  1.3324  1.4616
 1191TIP3    H2 3580   2.408   3.559   1.510 -0.4562  0.1822 -1.2621
 1192TIP3   OH2 3581   0.056   4.845   1.432  0.0413 -0.0341  0.1147
 1192TIP3    H1 3582  -0.023   4.830   1.483 -1.1974  0.1440 -1.6648
 1192TIP3    H2 3583   0.032   4.912   1.369  1.6903  0.1805 -0.3350
 1193TIP3   OH2 3584   5.680   4.594   4.636 -0.5807  0.7968  0.5131
 1193TIP3    H1 3585   5.733   4.564   4.563  0.8198  0.4199  1.6258
 1193TIP3    H2 3586   5.591   4.566   4.614 -0.2369  0.8938 -1.1242
 1194TIP3   OH2 3587   0.536   0.248   4.907 -0.2245 -0.6038 -0.2246
 1194TIP3    H1 3588   0.555   0.339   4.933  0.4279 -0.2081 -1.9617
 1194TIP3    H2 3589   0.467   0.256   4.841  1.1523 -1.1750 -1.8006
 1195TIP3   OH2 3590   4.798   2.646   3.922 -0.0483  0.1592 -0.0790
 1195TIP3    H1 3591   4.814   2.574   3.860  1.9568  0.1147  0.4012
 1195TIP3    H2 3592   4.714   2.682   3.896  0.1734 -0.6261 -2.0882
 1196TIP3   OH2 3593   1.917   4.578   4.961  0.1477  0.1675 -0.1987
 1196TIP3    H1 3594   1.933   4.672   4.968 -0.8733  0.6522 -2.9606
 1196TIP3    H2 3595   1.829   4.566   4.997 -0.7634  0.7689 -2.0937
 1197TIP3   OH2 3596   0.004   4.835   3.936  0.6458 -0.3556 -0.0834
 1197TIP3    H1 3597   0.086   4.883   3.952 -0.0834  1.4513 -1.3616
 1197TIP3    H2 3598   0.033   4.747   3.912  2.1477 -0.1234  0.7009
 1198TIP3   OH2 3599   6.032   0.173   4.967  0.2976  0.3298  0.5597
 1198TIP3    H1 3600   5.998   0.101   5.021 -0.6463  0.3875  0.0678
 1198TIP3    H2 3601   6.068   0.129   4.889 -1.4245  0.4161 -0.3469
 1199TIP3   OH2 3602   2.410   1.812   3.902  0.4896  0.1512  0.2495
 1199TIP3    H1 3603   2.345   1.812   3.831  1.7433  0.4874 -0.9392
 1199TIP3    H2 3604   2.395   1.729   3.948 -0.2764 -0.1302 -0.4847
 1200TIP3   OH2 3605   0.047   5.749   0.819  0.4850 -0.2919  0.4695
 1200TIP3    H1 3606   0.010   5.795   0.894  1.6348 -0.8182  1.3904
 1200TIP3    H2 3607   0.079   5.666   0.854  0.7658 -0.6770 -0.6568
 1201TIP3   OH2 3608   1.173   5.638   4.694 -0.2232 -0.1385 -0.4018
 1201TIP3    H1 3609   1.242   5.674   4.638 -0.2732 -0.8466 -0.9197
 1201TIP3    H2 3610   1.200   5.548   4.710  0.5265  0.4054  1.8726
 1202TIP3   OH2 3611   0.655   3.961   3.916  0.2169  0.0181 -0.0945
 1202TIP3    H1 3612   0.691   3.897   3.854  0.3015 -2.1418  2.0294
 1202TIP3    H2 3613   0.587   3.913   3.963  0.8868  1.1727  2.2092
 1203TIP3   OH2 3614   4.990   1.935   2.997 -0.0492 -0.6365 -0.1006
 1203TIP3    H1 3615   4.954   2.023   2.995  1.7063  0.1546  0.9432
 1203TIP3    H2 3616   4.915   1.878   3.014 -1.2476  0.6019 -1.0329
 1204TIP3   OH2 3617   2.795   4.151   2.532 -0.1203  0.0159  0.2166
 1204TIP3    H1 3618   2.882   4.191   2.526 -0.0639 -0.2109 -0.5836
 1204TIP3    H2 3619   2.809   4.070   2.580 -0.0724  0.4803  1.0071
 1205TIP3   OH2 3620   5.150   1.175   0.893 -0.3892  0.0190  0.2198
 1205TIP3    H1 3621   5.242   1.190   0.913  0.2085  0.1617 -2.2819
 1205TIP3    H2 3622   5.151   1.118   0.816 -2.4517 -1.8130  1.4379
 1206TIP3   OH2 3623   3.251   0.029   4.403 -0.3965 -0.1690  0.2521
 1206TIP3    H1 3624   3.317   0.005   4.338 -0.3074 -0.5584  0.4826
 1206TIP3    H2 3625   3.288  -0.001   4.486  0.5077  2.2379  0.8167
 1207TIP3   OH2 3626   4.553   5.837   1.833 -0.0391 -0.3058 -0.0786
 1207TIP3    H1 3627   4.572   5.930   1.842 -0.2955 -0.1434 -1.0708
 1207TIP3    H2 3628   4.613   5.807   1.764 -1.1716 -0.4715 -1.0316
 1208TIP3   OH2 3629   5.634   3.028   2.009 -0.0018  0.3342 -0.2641
 1208TIP3    H1 3630   5.703   2.968   1.984 -1.1319 -0.3951 -1.8107
 1208TIP3    H2 3631   5.555   2.993   1.967 -1.1490  1.6113  0.7150
 1209TIP3   OH2 3632   0.507   0.824   1.362  0.3033  0.1812 -1.0891
 1209TIP3    H1 3633   0.482   0.873   1.283 -2.0509  0.8651 -0.0085
 1209TIP3    H2 3634   0.538   0.891   1.422 -0.0835 -0.0287 -0.6527
 1210TIP3   OH2 3635   2.852   4.988   5.200 -0.0182  0.3773  0.3751
 1210TIP3    H1 3636   2.804   5.045   5.140 -0.1959 -0.6226 -0.4644
 1210TIP3    H2 3637   2.838   4.900   5.165 -0.6307 -0.3039  2.2428
 1211TIP3   OH2 3638   2.484   5.376   0.738 -0.1959 -0.0232  0.2335
 1211TIP3    H1 3639   2.504   5.327   0.657  0.0357  1.9101 -0.9404
 1211TIP3    H2 3640   2.389   5.369   0.746 -0.9251  3.3005 -2.7671
 1212TIP3   OH2 3641   1.443   1.054   4.652 -0.5986 -0.7940 -0.3341
 1212TIP3    H1 3642   1.484   1.043   4.737  0.2522  0.0744 -0.6152
 1212TIP3    H2 3643   1.508   1.023   4.589  0.1689  1.6246 -0.8596
 1213TIP3   OH2 3644   3.646   2.008   4.675  0.0708 -0.4479  0.1391
 1213TIP3    H1 3645   3.576   1.973   4.620  1.5584 -1.7211 -1.0611
 1213TIP3    H2 3646   3.621   2.099   4.692 -1.9137 -0.9053 -0.1055
 1214TIP3   OH2 3647   1.595   3.932   1.193  0.2041  0.3427  0.4199
 1214TIP3    H1 3648   1.663   3.993   1.219  0.1190  0.0037  1.5072
 1214TIP3    H2 3649   1.519   3.987   1.175  0.2673  0.5950  0.9092
 1215TIP3   OH2 3650   4.524   5.453   4.567  0.6472 -0.1794 -0.0773
 1215TIP3    H1 3651   4.579   5.481   4.494 -0.3391  1.1338 -0.3723
 1215TIP3    H2 3652   4.585   5.430   4.637  1.6187 -1.6428 -1.3448
 1216TIP3   OH2 3653   0.411   0.251   3.334  0.5238  0.5163 -0.2084
 1216TIP3    H1 3654   0.390   0.344   3.343  1.5417  0.9179 -1.5436
 1216TIP3    H2 3655   0.496   0.250   3.290 -0.3228 -1.0528 -1.9481
 1217TIP3   OH2 3656   5.025   4.570   4.272  0.0667 -0.5189  1.2642
 1217TIP3    H1 3657   5.074   4.524   4.340  1.1563  0.2748  1.0472
 1217TIP3    H2 3658   5.018   4.507   4.201  0.2619 -0.8395  1.5274
 1218TIP3   OH2 3659   5.865   3.320   1.051  0.1432 -0.5960  0.0724
 1218TIP3    H1 3660   5.945   3.273   1.027  0.5055  0.5037 -1.0074
 1218TIP3    H2 3661   5.796   3.254   1.050  0.6278 -1.1182 -1.4608
 1219TIP3   OH2 3662   0.233   2.398   1.768  0.1259  0.4887  0.9122
 1219TIP3    H1 3663   0.142   2.418   1.788 -0.2178  0.3584 -0.4468
 1219TIP3    H2 3664   0.270   2.481   1.738 -0.6711 -0.2410 -2.4551
 1220TIP3   OH2 3665   0.998   5.190   0.886 -0.2551  0.1986  0.9530
 1220TIP3    H1 3666   1.022   5.243   0.810 -0.7246 -0.5316  0.2877
 1220TIP3    H2 3667   1.043   5.232   0.959 -0.2344  1.2371  0.3632
 1221TIP3   OH2 3668   0.824   1.072   4.470  0.1493  0.0261  0.4895
 1221TIP3    H1 3669   0.889   1.130   4.432  1.4047 -1.8472 -0.3823
 1221TIP3    H2 3670   0.875   1.010   4.523 -0.8669 -1.4835 -0.2163
 1222TIP3   OH2 3671   3.127   5.867   3.374 -0.2799 -0.3408  0.5438
 1222TIP3    H1 3672   3.185   5.912   3.435 -0.8775  0.4697  0.5324
 1222TIP3    H2 3673   3.058   5.829   3.430  0.1304 -1.1118  0.5374
 1223TIP3   OH2 3674   1.191   4.075   0.293 -0.0599 -0.1848  0.6116
 1223TIP3    H1 3675   1.125   4.140   0.267  1.5630  1.2167 -0.2373
 1223TIP3    H2 3676   1.158   3.992   0.259 -0.7941  0.7002 -0.9313
 1224TIP3   OH2 3677   4.458   4.148   1.145  0.0976 -0.3655  0.2101
 1224TIP3    H1 3678   4.412   4.154   1.228 -2.4411  0.8917 -1.1593
 1224TIP3    H2 3679   4.549   4.169   1.165 -0.3517 -0.5235  2.6858
 1225TIP3   OH2 3680   2.310   4.949   0.212  0.3427 -0.6713 -0.5225
 1225TIP3    H1 3681   2.346   4.927   0.126  1.3421  0.0006 -0.2969
 1225TIP3    H2 3682   2.276   4.866   0.246  0.6251 -1.0905 -1.2527
 1226TIP3   OH2 3683   5.464   1.961   3.156 -0.8764 -0.3579  1.2390
 1226TIP3    H1 3684   5.475   1.889   3.219  0.5125 -0.9382  0.3680
 1226TIP3    H2 3685   5.513   1.934   3.079 -2.4709  0.3891 -0.0933
 1227TIP3   OH2 3686   1.145   3.597   0.315  0.1770 -0.1895 -0.3591
 1227TIP3    H1 3687   1.064   3.637   0.345 -1.4387 -4.1652  1.3058
 1227TIP3    H2 3688   1.130   3.579   0.222  0.1314  1.1375 -0.6203
 1228TIP3   OH2 3689   5.284   2.542   0.811  0.0995 -0.1732  0.1327
 1228TIP3    H1 3690   5.364   2.521   0.859  1.1342 -2.6025 -2.3583
 1228TIP3    H2 3691   5.315   2.583   0.730 -1.3698  0.8995  0.0733
 1229TIP3   OH2 3692   1.688   4.136   0.068  0.1774 -0.0331  0.1513
 1229TIP3    H1 3693   1.769   4.104   0.027  0.2588 -0.2220  0.4599
 1229TIP3    H2 3694   1.629   4.061   0.066  0.0873  0.0371  0.1412
 1230TIP3   OH2 3695   0.708   0.409   1.064  0.0113  0.1936 -0.4627
 1230TIP3    H1 3696   0.620   0.413   1.102  0.9380  2.0415  1.7138
 1230TIP3    H2 3697   0.701   0.461   0.984 -1.1698 -0.8371 -1.0619
 1231TIP3   OH2 3698   3.771   3.105   5.099 -0.3654 -0.0129  0.7928
 1231TIP3    H1 3699   3.788   3.030   5.043 -0.1683  0.5679  0.0506
 1231TIP3    H2 3700   3.695   3.080   5.151 -2.2416  0.4017 -1.5996
 1232TIP3   OH2 3701   3.706   0.479   2.219  0.4876 -0.0147 -0.3043
 1232TIP3    H1 3702   3.787   0.520   2.251  0.9948 -0.2794 -1.2217
 1232TIP3    H2 3703   3.729   0.387   2.206  0.0499 -0.0843 -0.6028
 1233TIP3   OH2 3704   3.264   0.450   2.718 -0.0823 -0.2892  0.4152
 1233TIP3    H1 3705   3.347   0.425   2.757 -0.4065  0.5108  1.6752
 1233TIP3    H2 3706   3.288   0.512   2.649  0.3373  0.8118  1.5065
 1234TIP3   OH2 3707   1.415   4.647   2.452  0.3903  0.5978  0.0044
 1234TIP3    H1 3708   1.324   4.662   2.475  0.1458 -0.0288 -0.5339
 1234TIP3    H2 3709   1.412   4.600   2.368  1.1776 -0.4382  0.5303
 1235TIP3   OH2 3710   1.891   5.198   1.053 -0.0052 -0.1385 -0.4586
 1235TIP3    H1 3711   1.910   5.199   1.146  0.3951 -0.9468 -0.5224
 1235TIP3    H2 3712   1.822   5.133   1.042 -0.3564  0.2631 -0.6746
 1236TIP3   OH2 3713   0.130   1.829   2.851 -0.1683 -0.3505 -0.0035
 1236TIP3    H1 3714   0.199   1.763   2.858 -0.9435 -1.3464 -1.3833
 1236TIP3    H2 3715   0.069   1.808   2.922  0.2991 -0.2177  0.4468
 1237TIP3   OH2 3716   0.402   5.505   4.675  0.2442  0.6324  0.0175
 1237TIP3    H1 3717   0.470   5.462   4.727 -1.8495 -1.8509  0.9009
 1237TIP3    H2 3718   0.366   5.573   4.732  1.1130  1.1264 -0.0080
 1238TIP3   OH2 3719   6.194   3.261   3.728 -0.0586 -0.1260 -0.1087
 1238TIP3    H1 3720   6.188   3.313   3.648  0.0887 -0.5604 -0.4069
 1238TIP3    H2 3721   6.224   3.175   3.698  0.7702 -0.0577  0.5143
 1239TIP3   OH2 3722   3.081   0.261   4.435  0.5397 -0.5666 -0.1144
 1239TIP3    H1 3723   2.996   0.247   4.394  0.6914 -0.3418 -0.5199
 1239TIP3    H2 3724   3.131   0.182   4.414  0.2270 -0.9823  0.6710
 1240TIP3   OH2 3725   2.336   1.231   0.974 -0.3319 -0.6818  0.2033
 1240TIP3    H1 3726   2.273   1.258   0.907 -1.8295 -1.2271  1.3110
 1240TIP3    H2 3727   2.396   1.305   0.982 -0.6647 -0.2500 -1.0988
 1241TIP3   OH2 3728   3.160   3.317   1.596 -0.0611 -0.7651  0.3594
 1241TIP3    H1 3729   3.094   3.351   1.536 -1.9660 -0.2992  2.5588
 1241TIP3    H2 3730   3.184   3.391   1.651  0.1820 -1.5784  1.4008
 1242TIP3   OH2 3731   3.143   4.087   0.342  0.5397 -0.3293 -0.4921
 1242TIP3    H1 3732   3.104   4.147   0.280  0.7028  0.5130  0.2062
 1242TIP3    H2 3733   3.070   4.030   0.369 -0.1978  1.0807  0.6306
 1243TIP3   OH2 3734   6.083   3.023   3.108 -0.2918  0.4359  0.4829
 1243TIP3    H1 3735   6.044   2.979   3.033  0.6540 -0.2993  0.3909
 1243TIP3    H2 3736   6.107   3.110   3.076  0.9066 -0.1691 -0.3470
 1244TIP3   OH2 3737   3.738   2.592   2.917 -0.3513  0.2916 -0.0292
 1244TIP3    H1 3738   3.658   2.619   2.961 -0.9653  1.0022 -1.5337
 1244TIP3    H2 3739   3.787   2.544   2.985 -1.0657  1.6575  1.5287
 1245TIP3   OH2 3740   0.176   0.230   2.711 -0.3848  0.0005  0.2520
 1245TIP3    H1 3741   0.107   0.281   2.753  0.2305  0.3938  0.8152
 1245TIP3    H2 3742   0.130   0.166   2.657 -1.1823  0.2267  0.6539
 1246TIP3   OH2 3743   4.809   2.590   0.540 -0.0490 -0.0346 -0.2143
 1246TIP3    H1 3744   4.845   2.582   0.628  0.3495 -0.5648 -0.4207
 1246TIP3    H2 3745   4.726   2.543   0.544 -0.1347  0.1299 -0.0635
 1247TIP3   OH2 3746   4.357   4.854   4.129  0.1128 -0.1796  0.0367
 1247TIP3    H1 3747   4.444   4.894   4.127 -0.2211  0.7527  1.8063
 1247TIP3    H2 3748   4.358   4.800   4.208 -0.1560 -2.0808 -1.1998
 1248TIP3   OH2 3749   5.329   5.914   3.964  0.2803  0.5578  1.0193
 1248TIP3    H1 3750   5.243   5.951   3.945  0.3330  0.9243  1.4717
 1248TIP3    H2 3751   5.344   5.852   3.893  0.5450  1.9940 -0.2499
 1249TIP3   OH2 3752   1.878   1.635   2.427  0.1098  0.3970 -0.4604
 1249TIP3    H1 3753   1.844   1.684   2.502  0.3729  0.5475 -0.4395
 1249TIP3    H2 3754   1.943   1.693   2.388 -0.4835  0.5936 -1.1949
 1250TIP3   OH2 3755   5.252   2.063   4.998  0.1335  0.2362  0.1385
 1250TIP3    H1 3756   5.310   1.987   4.988 -0.5137 -0.1103 -1.2055
 1250TIP3    H2 3757   5.300   2.123   5.056 -0.2532 -2.1089  3.1823
 1251TIP3   OH2 3758   3.213   2.912   3.084  0.1118 -0.1613  0.0968
 1251TIP3    H1 3759   3.235   2.970   3.157  1.2172 -0.9591  0.4191
 1251TIP3    H2 3760   3.133   2.949   3.047  0.4094  1.1650  0.7287
 1252TIP3   OH2 3761   4.729   4.484   2.437  0.3015 -0.2902  0.1167
 1252TIP3    H1 3762   4.710   4.575   2.459  0.4414  0.0731 -1.2129
 1252TIP3    H2 3763   4.718   4.437   2.520 -0.2168  0.8582  0.7237
 1253TIP3   OH2 3764   5.907   2.662   1.983 -0.6818 -0.2926 -0.0081
 1253TIP3    H1 3765   5.880   2.585   1.934 -0.2731  0.6858 -1.8313
 1253TIP3    H2 3766   5.826   2.695   2.022 -1.1841 -0.5191 -0.8491
 1254TIP3   OH2 3767   5.225   0.389   3.510  0.2781  0.4218  0.4112
 1254TIP3    H1 3768   5.293   0.420   3.450  0.3085  2.0995  1.2526
 1254TIP3    H2 3769   5.184   0.315   3.464  1.9659  0.0333 -0.5564
 1255TIP3   OH2 3770   2.697   4.064   0.225 -0.8576 -0.2492  0.2478
 1255TIP3    H1 3771   2.631   4.025   0.283 -1.7413  1.7734  0.6850
 1255TIP3    H2 3772   2.654   4.069   0.140 -0.4123 -1.0285 -0.0337
 1256TIP3   OH2 3773   1.623   3.419   1.497  0.0225  0.5468 -0.2469
 1256TIP3    H1 3774   1.661   3.378   1.419 -0.4138 -1.1446  0.3831
 1256TIP3    H2 3775   1.647   3.361   1.569 -1.1894  1.0482  0.5972
 1257TIP3   OH2 3776   0.422   4.316   1.748  0.8997 -0.1584  0.4406
 1257TIP3    H1 3777   0.425   4.396   1.696  0.5348 -0.3352  0.1431
 1257TIP3    H2 3778   0.512   4.304   1.778  0.7560  0.9122  1.3409
 1258TIP3   OH2 3779   1.858   1.854   3.328 -0.3156  0.2296  0.1600
 1258TIP3    H1 3780   1.811   1.933   3.356 -1.3415 -0.5595  0.7108
 1258TIP3    H2 3781   1.938   1.888   3.288 -1.3708  1.6174 -0.8732
 1259TIP3   OH2 3782   5.042   3.540   2.594 -0.2452 -0.1157  0.4387
 1259TIP3    H1 3783   5.037   3.574   2.683 -1.6798  0.1873  0.2637
 1259TIP3    H2 3784   5.064   3.448   2.604 -0.1487 -0.0245  1.0960
 1260TIP3   OH2 3785   3.993   4.604   0.651  0.3934 -0.2758 -0.4881
 1260TIP3    H1 3786   4.039   4.614   0.734 -0.4612 -0.5602  0.0224
 1260TIP3    H2 3787   3.957   4.691   0.633 -0.9592 -0.6355  0.3624
 1261TIP3   OH2 3788   3.576   0.198   4.268  0.0265  0.2262 -0.4605
 1261TIP3    H1 3789   3.654   0.249   4.247 -0.5413  1.4233  0.2160
 1261TIP3    H2 3790   3.608   0.109   4.283  1.1551  0.5512 -0.8845
 1262TIP3   OH2 3791   2.964   2.246   3.652  0.2118  0.1071  0.0893
 1262TIP3    H1 3792   2.906   2.301   3.706  0.1158  0.6443 -0.5472
 1262TIP3    H2 3793   2.995   2.305   3.583  1.3962 -0.2085  0.3166
 1263TIP3   OH2 3794   1.028   4.406   2.747  0.4764  0.0640  0.1166
 1263TIP3    H1 3795   0.979   4.381   2.826  0.5738  0.5589  0.3398
 1263TIP3    H2 3796   1.054   4.323   2.708  0.9967 -0.1990  0.9702
 1264TIP3   OH2 3797   3.470   5.012   3.609 -0.3552 -0.0609  0.7635
 1264TIP3    H1 3798   3.434   4.976   3.690  0.5228 -0.2034  1.0938
 1264TIP3    H2 3799   3.549   4.961   3.592 -0.1458  0.4354  0.1959
 1265TIP3   OH2 3800   0.025   0.715   0.696 -0.2353  0.5834 -0.7029
 1265TIP3    H1 3801   0.053   0.761   0.775 -0.5906  2.7397 -1.7539
 1265TIP3    H2 3802  -0.032   0.777   0.651  0.5655 -0.2678 -3.0384
 1266TIP3   OH2 3803   0.427   3.945   2.776  0.5445  0.4389  0.2588
 1266TIP3    H1 3804   0.435   3.887   2.851  1.2261  0.6165  0.3292
 1266TIP3    H2 3805   0.508   3.931   2.726  0.0149  0.1749 -0.5501
 1267TIP3   OH2 3806   0.872   2.345   2.676 -0.2371  0.2237 -0.0404
 1267TIP3    H1 3807   0.815   2.289   2.730  0.2544 -0.0285  0.2289
 1267TIP3    H2 3808   0.813   2.407   2.634 -0.5863  0.7359  1.1617
 1268TIP3   OH2 3809   3.112   5.005   1.614 -0.8113  0.2271  0.2781
 1268TIP3    H1 3810   3.193   4.960   1.590 -1.5231 -1.3122  0.6578
 1268TIP3    H2 3811   3.133   5.050   1.695 -0.0831  0.6104 -0.1108
 1269TIP3   OH2 3812   2.512   5.346   1.476  0.0078  0.2630  0.1948
 1269TIP3    H1 3813   2.589   5.379   1.522  1.1580 -1.5676 -0.3221
 1269TIP3    H2 3814   2.526   5.372   1.385  1.5958 -2.5771 -0.4796
 1270TIP3   OH2 3815   0.202   5.841   0.166 -0.1654 -0.3670 -0.3827
 1270TIP3    H1 3816   0.196   5.813   0.257  2.1230  0.2278  0.0216
 1270TIP3    H2 3817   0.226   5.934   0.171  0.7059 -0.5020 -1.5628
 1271TIP3   OH2 3818   0.467   5.335   2.122  0.4120 -0.0435  0.7889
 1271TIP3    H1 3819   0.531   5.340   2.192  0.7795 -0.9601  0.5302
 1271TIP3    H2 3820   0.389   5.297   2.163  0.3971  0.0579  0.8547
 1272TIP3   OH2 3821   4.952   0.749   2.248  0.2778 -0.2093  0.3698
 1272TIP3    H1 3822   5.003   0.669   2.235 -0.4695 -0.4429 -1.3965
 1272TIP3    H2 3823   4.918   0.741   2.338  1.6837 -0.9853  0.8607
 1273TIP3   OH2 3824   4.445   4.702   1.339 -0.7072 -0.0867  0.4048
 1273TIP3    H1 3825   4.455   4.620   1.387  0.0323  0.0265  0.4604
 1273TIP3    H2 3826   4.529   4.715   1.295 -0.7282  0.7615  0.5915
 1274TIP3   OH2 3827   2.513   0.825   4.738  0.0603 -0.2524 -0.1229
 1274TIP3    H1 3828   2.551   0.897   4.789 -0.9135 -0.0461  0.3460
 1274TIP3    H2 3829   2.432   0.862   4.702  0.1913 -0.7381 -0.9275
 1275TIP3   OH2 3830   4.290   4.870   1.479  0.5509 -0.8139 -0.5009
 1275TIP3    H1 3831   4.342   4.809   1.426  1.6878 -0.3327  0.0259
 1275TIP3    H2 3832   4.347   4.891   1.554 -0.3643 -0.1797  0.0374
 1276TIP3   OH2 3833   5.261  -0.024   3.074 -0.7234 -0.1451 -0.5247
 1276TIP3    H1 3834   5.168  -0.004   3.061 -0.4933  0.5303 -1.2276
 1276TIP3    H2 3835   5.289   0.034   3.144 -1.1513 -1.3725  0.7233
 1277TIP3   OH2 3836   2.347   2.511   0.353 -0.2872 -0.2789  0.0163
 1277TIP3    H1 3837   2.375   2.491   0.442 -1.0963  0.3325  0.4211
 1277TIP3    H2 3838   2.255   2.486   0.351 -0.7648  1.3836 -0.0893
 1278TIP3   OH2 3839   6.179   0.909   0.629 -0.3088 -0.7122 -0.9185
 1278TIP3    H1 3840   6.104   0.908   0.688  2.1415 -0.4710  2.5658
 1278TIP3    H2 3841   6.181   0.997   0.592 -0.8607 -0.1658  0.2923
 1279TIP3   OH2 3842   6.163   2.513   3.970 -0.3566  0.2408 -0.0096
 1279TIP3    H1 3843   6.198   2.462   4.043 -0.2392 -0.5269 -0.5858
 1279TIP3    H2 3844   6.103   2.453   3.925 -1.1168  0.9929 -0.0249
 1280TIP3   OH2 3845   1.137   5.710   0.745 -0.1720 -0.2168 -0.2275
 1280TIP3    H1 3846   1.228   5.682   0.751 -0.0961 -0.1992 -1.1858
 1280TIP3    H2 3847   1.136   5.797   0.783  0.8236  1.0428 -2.8541
 1281TIP3   OH2 3848   5.330   4.254   4.596  0.1170  0.4336 -0.2603
 1281TIP3    H1 3849   5.345   4.243   4.690 -1.4060  2.9981  0.3803
 1281TIP3    H2 3850   5.309   4.166   4.565 -1.5948 -0.1740  2.2715
 1282TIP3   OH2 3851   0.640   2.646   1.320 -0.6572 -0.6365  0.0754
 1282TIP3    H1 3852   0.582   2.570   1.326 -0.1723 -1.0053  0.1838
 1282TIP3    H2 3853   0.581   2.721   1.310 -1.1304 -1.0611 -0.3547
 1283TIP3   OH2 3854   5.647   4.958   3.110  0.2571  0.0965 -0.3195
 1283TIP3    H1 3855   5.677   4.874   3.144 -1.1104  0.0814  0.9218
 1283TIP3    H2 3856   5.706   4.977   3.037  1.9071 -0.9269  0.6918
 1284TIP3   OH2 3857   5.477   4.977   3.749 -0.2023  0.0885 -0.1968
 1284TIP3    H1 3858   5.537   4.984   3.823 -0.8461  1.1803  0.2371
 1284TIP3    H2 3859   5.534   4.980   3.672  0.4516 -0.8635  0.2225
 1285TIP3   OH2 3860   0.090   5.067   3.534 -0.2818  0.3006 -0.1926
 1285TIP3    H1 3861   0.040   5.148   3.533 -0.1503  0.3816 -0.1722
 1285TIP3    H2 3862   0.053   5.016   3.461  0.4928  0.9027 -1.0341
 1286TIP3   OH2 3863   3.979   3.558   1.716 -0.0296 -0.0816 -0.2636
 1286TIP3    H1 3864   4.056   3.561   1.774 -0.1016  2.1427 -0.2015
 1286TIP3    H2 3865   3.918   3.499   1.761  0.7643 -0.1006  0.8411
 1287TIP3   OH2 3866   4.619   4.301   3.754 -0.2271 -0.0437  0.5056
 1287TIP3    H1 3867   4.531   4.331   3.736  0.1038  0.2938 -0.6364
 1287TIP3    H2 3868   4.607   4.221   3.805 -1.1398  0.8964  1.8273
 1288TIP3   OH2 3869   3.412   4.766   0.075  0.8400  0.4102  0.4280
 1288TIP3    H1 3870   3.385   4.675   0.087  1.3391 -0.3113 -2.9256
 1288TIP3    H2 3871   3.330   4.815   0.067  0.5603 -0.0862  0.2313
 1289TIP3   OH2 3872   2.791   0.780   0.630 -0.0063 -0.4942 -0.5621
 1289TIP3    H1 3873   2.857   0.811   0.691 -0.9719 -0.8370  0.6957
 1289TIP3    H2 3874   2.715   0.759   0.685 -1.5210  0.7903 -2.0364
 1290TIP3   OH2 3875   3.450   3.263   2.079 -0.0903 -0.0542  0.7774
 1290TIP3    H1 3876   3.471   3.212   2.157  0.3534 -0.2869  0.5081
 1290TIP3    H2 3877   3.400   3.204   2.024  2.2054 -0.9434 -0.4736
 1291TIP3   OH2 3878   5.639   2.889   1.709 -0.6502  0.2668 -0.7620
 1291TIP3    H1 3879   5.618   2.949   1.637 -0.8899 -1.3789 -2.1206
 1291TIP3    H2 3880   5.706   2.831   1.672  0.4666  0.4181  0.9152
 1292TIP3   OH2 3881   5.785   4.008   5.089 -0.1040  0.4150  0.4569
 1292TIP3    H1 3882   5.846   3.989   5.018  0.6763  3.9160 -0.0110
 1292TIP3    H2 3883   5.717   3.942   5.081  1.7191 -1.3866 -1.3312
 1293TIP3   OH2 3884   6.137   5.566   1.764 -0.1602 -0.0367  0.2301
 1293TIP3    H1 3885   6.047   5.599   1.768 -0.8204 -1.7362  0.1544
 1293TIP3    H2 3886   6.128   5.472   1.746  1.5791 -0.5393  1.6701
 1294TIP3   OH2 3887   6.322   3.124   0.782 -0.6360 -0.8011 -0.1122
 1294TIP3    H1 3888   6.259   3.176   0.834  0.5394  0.7419 -0.1406
 1294TIP3    H2 3889   6.280   3.039   0.771 -1.1977 -1.0320  2.9206
 1295TIP3   OH2 3890   5.365   0.263   2.960  0.1897  0.1307 -0.0160
 1295TIP3    H1 3891   5.408   0.260   2.874  1.9414  4.1551  0.4971
 1295TIP3    H2 3892   5.289   0.320   2.948 -1.5631 -1.9567  0.4958
 1296TIP3   OH2 3893   1.700   2.906   1.284 -0.1415  0.0893 -0.2171
 1296TIP3    H1 3894   1.793   2.910   1.264  0.2310 -0.5251  1.2520
 1296TIP3    H2 3895   1.660   2.972   1.228  0.9864 -0.5392 -1.8405
 1297TIP3   OH2 3896   4.530   4.798   1.835 -0.3634 -0.0960  0.2581
 1297TIP3    H1 3897   4.550   4.704   1.835  0.3896  0.0334 -1.1623
 1297TIP3    H2 3898   4.564   4.829   1.751  0.3854  1.6588  1.1635
 1298TIP3   OH2 3899   2.583   2.111   2.093  0.0650  0.0083  0.1388
 1298TIP3    H1 3900   2.488   2.115   2.087  0.0462  2.0308  1.1428
 1298TIP3    H2 3901   2.600   2.050   2.166 -0.5031  0.6672  0.8311
 1299TIP3   OH2 3902   3.596   3.806   0.747  0.2634  0.2240 -0.3351
 1299TIP3    H1 3903   3.556   3.804   0.834  2.7151  0.0462  0.8597
 1299TIP3    H2 3904   3.528   3.843   0.691 -1.4121  0.3137  1.6258
 1300TIP3   OH2 3905   5.003   1.030   0.421  0.2017  0.2113 -0.5214
 1300TIP3    H1 3906   4.965   0.947   0.391  1.6736 -0.2224 -1.2816
 1300TIP3    H2 3907   5.041   1.069   0.343  1.8786  0.2953  0.2926
 1301TIP3   OH2 3908   0.665   0.192   1.403  0.5544 -0.2586 -0.0675
 1301TIP3    H1 3909   0.573   0.215   1.398  0.3000 -0.8394  1.3599
 1301TIP3    H2 3910   0.680   0.134   1.329  0.2748  1.3328 -1.4318
 1302TIP3   OH2 3911   0.543   5.465   1.345 -0.2359  0.0271 -0.1764
 1302TIP3    H1 3912   0.460   5.509   1.364  0.4521  1.2460  0.1062
 1302TIP3    H2 3913   0.523   5.406   1.273 -1.8850 -1.4448  1.3903
 1303TIP3   OH2 3914   1.382   1.896   0.361 -0.2221 -0.1049  0.0930
 1303TIP3    H1 3915   1.421   1.925   0.443  0.8090  0.8435 -0.6934
 1303TIP3    H2 3916   1.358   1.977   0.316 -0.4764 -0.5932 -0.6675
 1304TIP3   OH2 3917   4.389   0.288   1.937  0.2201  0.1716  0.2547
 1304TIP3    H1 3918   4.373   0.232   2.013  0.7956 -1.2115 -0.6137
 1304TIP3    H2 3919   4.482   0.276   1.918  0.1128  0.6241 -0.5886
 1305TIP3   OH2 3920   1.244   0.392   1.538 -0.3176 -0.3217 -0.2930
 1305TIP3    H1 3921   1.156   0.405   1.503 -0.7457 -2.1833 -0.0226
 1305TIP3    H2 3922   1.263   0.300   1.519  1.3378 -0.1031  0.1953
 1306TIP3   OH2 3923   5.623   5.166   4.669 -0.3361 -0.0553 -0.2571
 1306TIP3    H1 3924   5.674   5.172   4.749  2.4433 -1.3770 -1.7896
 1306TIP3    H2 3925   5.588   5.254   4.656  2.1147  1.1419  0.6113
 1307TIP3   OH2 3926   1.210   1.790   2.142  0.0902  0.4536  0.1380
 1307TIP3    H1 3927   1.207   1.770   2.236 -0.4451  0.0787  0.0447
 1307TIP3    H2 3928   1.131   1.841   2.126 -0.1316  0.0058 -0.2225
 1308TIP3   OH2 3929   3.315   2.980   3.749  0.7553  0.1488  0.3151
 1308TIP3    H1 3930   3.281   3.066   3.775  0.0330  0.0923 -0.3963
 1308TIP3    H2 3931   3.285   2.920   3.817 -1.6335 -0.1089 -0.8637
 1309TIP3   OH2 3932   6.251   2.548   0.268  0.3978 -0.2471  0.3803
 1309TIP3    H1 3933   6.310   2.547   0.193  0.1087 -1.6585  0.1502
 1309TIP3    H2 3934   6.165   2.528   0.230 -0.0093  0.5071  0.8909
 1310TIP3   OH2 3935   4.669   0.563   3.050 -0.0768 -0.3360 -0.2175
 1310TIP3    H1 3936   4.641   0.613   2.974 -0.4778  0.3447  0.3671
 1310TIP3    H2 3937   4.754   0.600   3.074 -1.6005  2.1352  1.9469
 1311TIP3   OH2 3938   0.356   5.832   0.559  0.6399 -0.0751 -0.1941
 1311TIP3    H1 3939   0.401   5.842   0.643  2.6543 -0.9552 -1.1059
 1311TIP3    H2 3940   0.337   5.922   0.531 -1.2454  0.2080  1.7348
 1312TIP3   OH2 3941   2.430   0.398   3.116  0.1411  0.0203 -0.9012
 1312TIP3    H1 3942   2.408   0.383   3.208  2.7555 -2.0018 -0.4855
 1312TIP3    H2 3943   2.407   0.316   3.072  1.0294  0.1324 -1.6008
 1313TIP3   OH2 3944   5.045   0.992   2.980 -0.1041 -0.0354 -0.0321
 1313TIP3    H1 3945   4.979   1.051   3.016  0.7656  0.8664  0.1296
 1313TIP3    H2 3946   5.050   1.017   2.888  0.2883  0.1680  0.0441
 1314TIP3   OH2 3947   3.784   4.374   2.971 -0.3654 -0.4183  0.2555
 1314TIP3    H1 3948   3.851   4.443   2.973  0.0129 -0.7625 -0.1438
 1314TIP3    H2 3949   3.701   4.420   2.984 -0.1378  0.1421 -0.2140
 1315TIP3   OH2 3950   2.836   1.074   4.442  0.2881  0.0487  0.6248
 1315TIP3    H1 3951   2.840   1.033   4.356 -0.2994 -0.4398  0.8224
 1315TIP3    H2 3952   2.784   1.153   4.429  1.9504  1.1072  0.1132
 1316TIP3   OH2 3953   1.574   0.232   1.129 -0.3784 -0.1734 -0.0462
 1316TIP3    H1 3954   1.550   0.325   1.127 -0.5156 -0.2082 -0.0278
 1316TIP3    H2 3955   1.670   0.232   1.129 -0.3571 -0.0458 -1.2210
 1317TIP3   OH2 3956   2.681   1.545   3.426 -0.5495 -0.4795  0.1103
 1317TIP3    H1 3957   2.588   1.541   3.449 -0.2737 -1.8707  1.1203
 1317TIP3    H2 3958   2.704   1.455   3.402 -0.1955  0.4200 -3.4662
 1318TIP3   OH2 3959   0.339   3.892   5.088  0.3810  0.2650  0.8775
 1318TIP3    H1 3960   0.390   3.863   5.012  0.6026  0.4795  0.9430
 1318TIP3    H2 3961   0.289   3.815   5.114  0.0320  0.2929  0.2910
 1319TIP3   OH2 3962   1.070   2.149   2.619  0.7315 -0.3417 -0.3711
 1319TIP3    H1 3963   1.047   2.107   2.537  1.7682 -0.1985 -0.7437
 1319TIP3    H2 3964   0.994   2.203   2.641  0.3972 -0.4881 -1.1612
 1320TIP3   OH2 3965   1.523   2.119   4.088 -0.1781 -0.7888  0.0346
 1320TIP3    H1 3966   1.476   2.050   4.135 -0.4305 -1.0419 -0.5884
 1320TIP3    H2 3967   1.573   2.073   4.021  1.7723 -0.6362  1.2986
 1321TIP3   OH2 3968   4.561   1.181   3.224 -0.2490 -0.2719 -0.2506
 1321TIP3    H1 3969   4.640   1.128   3.239  0.0252  0.0263 -0.5947
 1321TIP3    H2 3970   4.492   1.136   3.271 -0.3221 -1.7229 -1.6721
 1322TIP3   OH2 3971   4.543   3.538   2.586  0.2962 -0.2071 -0.1884
 1322TIP3    H1 3972   4.582   3.555   2.672 -0.0657  1.5302 -0.3383
 1322TIP3    H2 3973   4.560   3.445   2.571 -0.0142 -0.6696  1.9523
 1323TIP3   OH2 3974   3.530   0.125   1.404  0.1511 -0.3002 -0.1288
 1323TIP3    H1 3975   3.500   0.154   1.491 -0.1646  0.1966 -0.3963
 1323TIP3    H2 3976   3.514   0.030   1.404 -1.2654 -0.0958 -0.1759
 1324TIP3   OH2 3977   5.662   3.076   1.024  0.0833 -0.5621  0.2634
 1324TIP3    H1 3978   5.609   3.111   1.096  1.1173 -1.3801  1.4788
 1324TIP3    H2 3979   5.599   3.035   0.965 -0.8524  0.7257  0.3170
 1325TIP3   OH2 3980   1.095   4.696   3.498 -0.2821  0.0911 -0.4899
 1325TIP3    H1 3981   1.102   4.770   3.437 -0.8065 -1.6760 -2.8373
 1325TIP3    H2 3982   1.012   4.710   3.542 -0.8409  0.4387 -1.6010
 1326TIP3   OH2 3983   1.233   1.871   4.824 -0.4905 -0.1470  0.2898
 1326TIP3    H1 3984   1.149   1.884   4.779  0.9132 -1.0432 -2.8468
 1326TIP3    H2 3985   1.235   1.939   4.891 -2.9599  1.0052 -0.6690
 1327TIP3   OH2 3986   5.827   5.656   3.517 -0.4305 -0.3544 -0.5051
 1327TIP3    H1 3987   5.809   5.618   3.603  1.7019 -1.2579 -0.4172
 1327TIP3    H2 3988   5.765   5.612   3.458 -0.9200 -0.7827  0.3137
 1328TIP3   OH2 3989   0.233   0.997   1.459  0.7935  0.1473 -0.5943
 1328TIP3    H1 3990   0.245   1.080   1.413 -1.6310  1.8864  1.6143
 1328TIP3    H2 3991   0.142   0.973   1.442  0.9683 -1.1876  0.1931
 1329TIP3   OH2 3992   1.094   2.109   1.248  0.1477  0.4151 -0.3864
 1329TIP3    H1 3993   1.092   2.090   1.341 -1.5472  1.4409 -0.1643
 1329TIP3    H2 3994   1.186   2.124   1.228  0.5228  0.3230  1.1503
 1330TIP3   OH2 3995   3.177   5.062   1.933  0.5043 -0.2176  0.4281
 1330TIP3    H1 3996   3.102   5.007   1.911 -0.9484  1.2665  1.4594
 1330TIP3    H2 3997   3.238   5.003   1.977  1.1740 -2.0453 -2.6551
 1331TIP3   OH2 3998   2.879   1.977   3.231  0.8627 -0.9407  0.1557
 1331TIP3    H1 3999   2.829   1.916   3.286 -1.0285  0.6284  0.2685
 1331TIP3    H2 4000   2.876   1.938   3.144 -2.7828  0.2398 -0.3934
 1332TIP3   OH2 4001   2.592   3.153   2.135 -0.0070 -0.1661 -0.1654
 1332TIP3    H1 4002   2.501   3.126   2.147 -0.5392  1.6945  0.3013
 1332TIP3    H2 4003   2.636   3.074   2.105 -1.6320 -1.2867  0.2274
 1333TIP3   OH2 4004   0.708   1.318   4.562  0.0043  0.2599 -0.0706
 1333TIP3    H1 4005   0.784   1.364   4.597  0.0302 -1.5265  2.4354
 1333TIP3    H2 4006   0.745   1.243   4.515 -0.1675  0.8897 -1.2637
 1334TIP3   OH2 4007   1.876   0.098   1.401  0.8880  0.1933 -0.4860
 1334TIP3    H1 4008   1.802   0.154   1.422  2.0799  0.9641  2.0087
 1334TIP3    H2 4009   1.919   0.082   1.485  2.3145 -2.0365 -1.5362
 1335TIP3   OH2 4010   1.837   1.081   4.009  0.0760 -0.3334 -0.2204
 1335TIP3    H1 4011   1.896   1.089   3.934  0.2532 -0.3731 -0.0866
 1335TIP3    H2 4012   1.749   1.087   3.971  0.0889 -2.4723 -0.7259
 1336TIP3   OH2 4013   3.890   2.669   4.951 -0.4403  0.2946 -0.0298
 1336TIP3    H1 4014   3.816   2.619   4.984 -0.3126 -0.3145 -0.6628
 1336TIP3    H2 4015   3.967   2.619   4.978 -0.3320 -0.1501 -1.1391
 1337TIP3   OH2 4016   2.258   2.598   3.562 -0.0290 -0.0429 -0.3259
 1337TIP3    H1 4017   2.295   2.639   3.640 -0.4411 -0.1095 -0.0986
 1337TIP3    H2 4018   2.333   2.555   3.520  0.3682  0.7416 -0.4437
 1338TIP3   OH2 4019   3.008   1.544   0.492 -0.0447  0.2991 -0.3172
 1338TIP3    H1 4020   3.074   1.475   0.499  0.7073  1.1827  2.2545
 1338TIP3    H2 4021   3.050   1.610   0.437  0.9393  0.4980  0.6283
 1339TIP3   OH2 4022   5.362   0.265   1.941 -0.1071 -0.2410 -0.3555
 1339TIP3    H1 4023   5.356   0.226   2.028 -1.0006 -1.1328 -0.7934
 1339TIP3    H2 4024   5.326   0.198   1.883 -0.8414  0.8879 -1.2457
 1340TIP3   OH2 4025   1.942   4.396   4.661  0.6284 -0.8600  0.2963
 1340TIP3    H1 4026   2.011   4.462   4.654  0.6322 -0.7126  1.5988
 1340TIP3    H2 4027   1.937   4.375   4.754  0.3066 -2.3690 -0.0297
 1341TIP3   OH2 4028   2.095   1.772   2.344 -0.1863 -0.8179 -0.2666
 1341TIP3    H1 4029   2.102   1.765   2.439  0.0660  1.3487 -0.0614
 1341TIP3    H2 4030   2.177   1.736   2.311  0.4405 -0.0895  0.4600
 1342TIP3   OH2 4031   2.602   4.662   1.249 -0.6444 -0.4167 -0.3085
 1342TIP3    H1 4032   2.698   4.663   1.255 -0.6236 -0.7043 -0.5696
 1342TIP3    H2 4033   2.575   4.746   1.286 -0.2386  0.0738 -1.0915
 1343TIP3   OH2 4034   0.120   4.360   1.134 -0.3401  0.2356  0.4624
 1343TIP3    H1 4035   0.076   4.323   1.057 -1.0697  2.6403 -0.3587
 1343TIP3    H2 4036   0.212   4.340   1.120 -0.4367  0.7418 -1.1520
 1344TIP3   OH2 4037   2.995   4.820   1.915 -0.2518  0.5371  0.0083
 1344TIP3    H1 4038   2.943   4.764   1.858 -1.6263  0.1049  1.6196
 1344TIP3    H2 4039   3.044   4.760   1.971 -1.1883  0.8935  1.2587
 1345TIP3   OH2 4040   1.290   2.474   3.944 -0.7540  0.2180 -0.2976
 1345TIP3    H1 4041   1.340   2.476   4.025  0.0972  0.2481 -0.8152
 1345TIP3    H2 4042   1.349   2.509   3.878 -1.1324 -0.6188 -1.1053
 1346TIP3   OH2 4043   1.950   5.064   4.662 -0.2968 -0.3053  0.2163
 1346TIP3    H1 4044   1.898   5.084   4.740 -1.1631 -1.0798 -0.1415
 1346TIP3    H2 4045   1.959   5.148   4.617 -0.9594 -0.0953  0.4615
 1347TIP3   OH2 4046   4.544   5.240   4.978  0.2026  0.5418  0.3498
 1347TIP3    H1 4047   4.637   5.243   5.001  0.8293  0.3903 -1.9011
 1347TIP3    H2 4048   4.514   5.331   4.983  1.3924  1.1516 -2.0578
 1348TIP3   OH2 4049   5.335   1.926   1.990  0.1966 -0.1131  0.2429
 1348TIP3    H1 4050   5.320   1.861   1.921  2.7801 -0.1681 -0.3852
 1348TIP3    H2 4051   5.382   1.997   1.946  0.0134  0.8416  1.5359
 1349TIP3   OH2 4052   5.759   5.169   4.916  0.1119 -0.6320 -0.1474
 1349TIP3    H1 4053   5.793   5.187   5.004  0.4513  0.7591 -0.5363
 1349TIP3    H2 4054   5.759   5.073   4.910 -1.5792 -0.8667  1.9884
 1350TIP3   OH2 4055   0.151   5.407   1.683  0.1645  0.3070  0.2557
 1350TIP3    H1 4056   0.200   5.353   1.746  0.0359  1.3132  1.2390
 1350TIP3    H2 4057   0.101   5.468   1.737 -0.6635  0.5965 -0.8036
 1351TIP3   OH2 4058   2.500   5.936   1.816 -0.2617 -0.1308 -0.4934
 1351TIP3    H1 4059   2.461   5.945   1.903 -0.4515  0.5182 -0.6419
 1351TIP3    H2 4060   2.581   5.986   1.821 -0.0431 -0.4736 -0.5549
 1352TIP3   OH2 4061   0.654   3.071   2.252  0.2287 -0.4497  0.4713
 1352TIP3    H1 4062   0.642   3.015   2.175 -0.9971 -1.8627  1.6208
 1352TIP3    H2 4063   0.740   3.112   2.238  0.5647 -1.5680 -1.0869
 1353TIP3   OH2 4064   4.083   5.746   4.830 -0.0485  0.3014 -0.0040
 1353TIP3    H1 4065   4.052   5.715   4.745 -2.0513 -0.1092  0.8250
 1353TIP3    H2 4066   4.122   5.669   4.871  0.6773  0.4357 -0.4258
 1354TIP3   OH2 4067   2.557   2.688   3.658 -0.1833  0.0077  0.0494
 1354TIP3    H1 4068   2.536   2.781   3.660 -0.0235  0.0389  1.7298
 1354TIP3    H2 4069   2.622   2.679   3.589  1.6648  1.5785  1.4976
 1355TIP3   OH2 4070   1.960   4.473   0.595 -0.4553 -0.5089  0.1269
 1355TIP3    H1 4071   1.880   4.524   0.585  0.3241  0.7904  0.2861
 1355TIP3    H2 4072   1.983   4.481   0.687 -1.9647 -3.7799  0.9479
 1356TIP3   OH2 4073   2.264   0.173   3.004 -0.2946 -0.2938  0.3971
 1356TIP3    H1 4074   2.286   0.095   3.054 -0.6141 -0.0342  0.9604
 1356TIP3    H2 4075   2.214   0.141   2.929  1.4411 -0.8389 -0.5964
 1357TIP3   OH2 4076   1.624   5.689   2.397  0.0764  0.1643  0.3219
 1357TIP3    H1 4077   1.591   5.685   2.487  0.0329  0.1159  0.3037
 1357TIP3    H2 4078   1.684   5.763   2.397  1.3059 -0.7910  0.8067
 1358TIP3   OH2 4079   0.926   5.083   4.469  0.0910 -0.3003  0.7896
 1358TIP3    H1 4080   0.885   5.093   4.555  0.5000 -0.8665  1.0637
 1358TIP3    H2 4081   0.882   5.147   4.414  0.1166  0.3737  1.5255
 1359TIP3   OH2 4082   3.003   1.678   1.869 -0.2848  0.3448 -0.8199
 1359TIP3    H1 4083   2.937   1.631   1.818  1.1271 -2.3517 -0.3505
 1359TIP3    H2 4084   2.958   1.699   1.951 -0.4845 -2.0728 -0.2161
 1360TIP3   OH2 4085   1.962   4.733   4.090 -0.2141  0.0668 -0.1796
 1360TIP3    H1 4086   2.021   4.659   4.107 -1.4587 -0.9880 -0.3551
 1360TIP3    H2 4087   1.945   4.729   3.996 -2.3324 -1.0570  0.1882
 1361TIP3   OH2 4088   5.245   0.782   1.627  0.2178  0.0902 -0.8289
 1361TIP3    H1 4089   5.153   0.792   1.650  0.1450 -3.4404  1.0228
 1361TIP3    H2 4090   5.249   0.702   1.576  2.3837 -0.5586  0.2435
 1362TIP3   OH2 4091   4.594   3.854   5.113 -0.8095 -0.8084 -0.1788
 1362TIP3    H1 4092   4.632   3.899   5.037 -0.2830  0.6202  0.8985
 1362TIP3    H2 4093   4.594   3.762   5.088  0.6289 -0.5152 -1.3848
 1363TIP3   OH2 4094   4.243   1.507   4.381  0.3878  0.1628  1.0617
 1363TIP3    H1 4095   4.191   1.568   4.329 -0.4954 -0.4904  1.1655
 1363TIP3    H2 4096   4.235   1.538   4.471 -0.6850 -0.5183  1.2190
 1364TIP3   OH2 4097   1.737   0.707   2.498 -0.6128 -0.3209 -0.2547
 1364TIP3    H1 4098   1.675   0.674   2.432 -0.0374  0.7979 -1.4045
 1364TIP3    H2 4099   1.822   0.675   2.468 -0.5072 -1.2327  0.9178
 1365TIP3   OH2 4100   1.717   0.162   2.622 -0.2611 -0.1301 -0.0849
 1365TIP3    H1 4101   1.760   0.091   2.575 -1.4686 -0.2916 -0.9909
 1365TIP3    H2 4102   1.624   0.152   2.602 -0.6283  0.7988  1.0158
 1366TIP3   OH2 4103   1.302   3.804   4.626 -0.1874  0.4606 -0.7463
 1366TIP3    H1 4104   1.393   3.807   4.595  0.5886  1.6100  1.3752
 1366TIP3    H2 4105   1.259   3.739   4.570  1.8786  0.0144 -1.9295
 1367TIP3   OH2 4106   5.029   1.206   4.125  0.2023  0.0429  0.3963
 1367TIP3    H1 4107   5.024   1.266   4.200 -1.3023  1.1977 -0.5549
 1367TIP3    H2 4108   4.974   1.132   4.150  0.7069 -0.1720  0.9039
 1368TIP3   OH2 4109   4.590   1.017   2.899 -0.6515 -0.0538  0.4791
 1368TIP3    H1 4110   4.664   1.064   2.937  0.8487  0.4424 -2.6661
 1368TIP3    H2 4111   4.538   1.085   2.855 -1.0320 -0.7868 -0.2447
 1369TIP3   OH2 4112   3.647   4.723   1.823  0.2853 -0.5484  0.5938
 1369TIP3    H1 4113   3.649   4.686   1.735 -0.9554  0.2570  0.1938
 1369TIP3    H2 4114   3.721   4.784   1.825 -0.7478  0.8242 -0.5855
 1370TIP3   OH2 4115   4.940   5.008   2.248 -0.7762  0.1847  0.0989
 1370TIP3    H1 4116   4.846   5.020   2.231 -0.8527  1.4296  1.2490
 1370TIP3    H2 4117   4.951   5.033   2.340  0.5321 -0.9286  0.2819
 1371TIP3   OH2 4118   5.487   5.754   4.534 -0.0897 -0.6600 -0.3117
 1371TIP3    H1 4119   5.496   5.826   4.596 -2.9430 -2.9354  3.1707
 1371TIP3    H2 4120   5.553   5.690   4.562 -0.6590 -1.2584 -0.3159
 1372TIP3   OH2 4121   0.711   0.826   3.546  0.0264 -0.3386 -0.1430
 1372TIP3    H1 4122   0.655   0.899   3.517  0.1058  0.0081  0.5735
 1372TIP3    H2 4123   0.684   0.753   3.490 -0.6902 -0.0015 -0.2560
 1373TIP3   OH2 4124   6.070   0.383   4.194  0.6770 -0.1087  0.4954
 1373TIP3    H1 4125   5.988   0.410   4.233 -0.2819 -0.3951 -1.2239
 1373TIP3    H2 4126   6.113   0.464   4.168 -0.1582  0.0031 -0.6561
 1374TIP3   OH2 4127   4.529   1.165   3.651 -0.5895  0.4788 -0.9787
 1374TIP3    H1 4128   4.617   1.128   3.644 -1.2340 -2.2166  2.5802
 1374TIP3    H2 4129   4.543   1.260   3.655  1.9401  0.2245 -1.9612
 1375TIP3   OH2 4130   2.529   3.806   1.170 -0.6891  0.5617  0.1493
 1375TIP3    H1 4131   2.589   3.825   1.243  1.6014 -0.0299 -1.4780
 1375TIP3    H2 4132   2.470   3.738   1.205 -0.3822  1.0831  1.7735
 1376TIP3   OH2 4133   6.140   2.510   2.732 -0.4573 -0.0283 -0.6751
 1376TIP3    H1 4134   6.135   2.495   2.826 -0.1305  0.4530 -0.5790
 1376TIP3    H2 4135   6.221   2.560   2.720 -0.9131  0.6187 -1.1192
 1377TIP3   OH2 4136   1.088   3.863   0.164 -0.1951  0.0803 -0.7106
 1377TIP3    H1 4137   1.055   3.773   0.164 -0.3015  0.1137  0.3981
 1377TIP3    H2 4138   1.051   3.902   0.085 -0.1596 -0.8403 -1.1957
 1378TIP3   OH2 4139   0.002   3.676   4.028 -0.4531 -0.3639 -0.1873
 1378TIP3    H1 4140   0.043   3.642   3.948 -2.5649 -0.9624 -1.0905
 1378TIP3    H2 4141  -0.015   3.768   4.009 -0.2643 -0.3156 -0.1243
 1379TIP3   OH2 4142   4.333   1.541   3.477 -0.2416  0.8874 -0.4921
 1379TIP3    H1 4143   4.370   1.539   3.389  0.7200  0.1280 -0.0901
 1379TIP3    H2 4144   4.396   1.592   3.528  0.8622 -1.2553  0.4318
 1380TIP3   OH2 4145   4.020   4.235   3.619 -0.2288  0.1485  0.0663
 1380TIP3    H1 4146   3.958   4.279   3.677  0.3863  2.4034 -0.9013
 1380TIP3    H2 4147   4.070   4.305   3.578  2.5617 -1.5554  0.3035
 1381TIP3   OH2 4148   1.948   1.623   4.438 -0.1519  0.0311  0.6091
 1381TIP3    H1 4149   1.987   1.612   4.351 -1.7993  0.3337 -0.2200
 1381TIP3    H2 4150   1.900   1.542   4.453 -2.9930  1.3777 -0.5034
 1382TIP3   OH2 4151   1.860   5.624   4.236  0.1356  0.3104 -0.4588
 1382TIP3    H1 4152   1.897   5.606   4.322 -0.5085  0.4112 -0.1576
 1382TIP3    H2 4153   1.907   5.702   4.206  1.3443 -0.5077 -0.8099
 1383TIP3   OH2 4154   6.259   2.183   2.287 -0.2032  0.3200  0.6141
 1383TIP3    H1 4155   6.211   2.177   2.370 -2.8145  0.9202 -0.7196
 1383TIP3    H2 4156   6.296   2.096   2.275  0.1646  0.1929  2.3257
 1384TIP3   OH2 4157   3.892   1.926   3.538  0.0993  0.0961 -0.5473
 1384TIP3    H1 4158   3.955   1.965   3.599 -0.0544 -3.0747  1.9874
 1384TIP3    H2 4159   3.946   1.882   3.473  0.5005 -0.4658  0.1397
 1385TIP3   OH2 4160   2.160   0.861   2.156  0.0672 -0.1019  0.3836
 1385TIP3    H1 4161   2.159   0.830   2.066 -0.9507  0.8812  0.0212
 1385TIP3    H2 4162   2.144   0.783   2.209 -0.3202 -0.5334 -0.3523
 1386TIP3   OH2 4163   2.915   0.738   0.160  0.7018 -0.0369 -0.7785
 1386TIP3    H1 4164   2.869   0.805   0.109  0.2681  0.7011  0.5392
 1386TIP3    H2 4165   2.986   0.786   0.202 -1.3270  0.3636  2.5590
 1387TIP3   OH2 4166   0.025   2.044   1.935 -0.7057  0.2964  0.0663
 1387TIP3    H1 4167   0.088   2.101   1.979  0.1637 -0.5288 -0.0824
 1387TIP3    H2 4168  -0.059   2.091   1.942 -0.0141  1.6061 -0.1026
 1388TIP3   OH2 4169   6.046   2.799   2.912 -0.1649  0.0137  0.2001
 1388TIP3    H1 4170   5.964   2.760   2.943 -0.2763 -0.2888 -0.4666
 1388TIP3    H2 4171   6.115   2.750   2.958 -0.0491 -4.0923 -3.6887
 1389TIP3   OH2 4172   2.285   0.802   3.407  0.4897 -0.4993 -0.4360
 1389TIP3    H1 4173   2.216   0.782   3.344 -1.1775 -0.8579  1.4195
 1389TIP3    H2 4174   2.308   0.718   3.445 -1.1906  0.0421  2.0087
 1390TIP3   OH2 4175   2.952   0.136   1.163 -0.2662  0.2208 -0.3707
 1390TIP3    H1 4176   2.890   0.155   1.233  1.0895 -4.5546  2.6276
 1390TIP3    H2 4177   2.901   0.086   1.099 -0.7284  1.5098 -1.0360
 1391TIP3   OH2 4178   3.676   5.031   4.683  0.0697  0.4622  0.3262
 1391TIP3    H1 4179   3.618   5.106   4.672 -0.8540 -0.3334 -0.4198
 1391TIP3    H2 4180   3.760   5.060   4.648 -0.2114  1.2170  0.2642
 1392TIP3   OH2 4181   0.292   1.483   0.245 -0.6713 -0.1990  0.4937
 1392TIP3    H1 4182   0.236   1.515   0.315 -1.0177 -0.0431  0.1510
 1392TIP3    H2 4183   0.233   1.474   0.170 -0.4253 -0.9244  0.3837
 1393TIP3   OH2 4184   3.281   4.423   4.827  0.3747 -0.5255  0.5557
 1393TIP3    H1 4185   3.240   4.339   4.846 -1.3765  0.1080 -0.1624
 1393TIP3    H2 4186   3.291   4.465   4.912 -0.1268 -0.8600  0.7812
 1394TIP3   OH2 4187   2.808   4.284   4.300 -0.4601 -0.1966  0.3480
 1394TIP3    H1 4188   2.903   4.272   4.298 -0.5733 -1.5614  1.6742
 1394TIP3    H2 4189   2.795   4.375   4.272  1.2388  0.0983  0.4018
 1395TIP3   OH2 4190   2.644   3.795   4.212  0.2327  0.0277  0.3462
 1395TIP3    H1 4191   2.572   3.802   4.149  1.3897  0.5775 -0.9749
 1395TIP3    H2 4192   2.634   3.872   4.267  0.1423  0.4312 -0.2186
 1396TIP3   OH2 4193   4.106   1.691   4.225 -0.1677  0.4052 -0.5152
 1396TIP3    H1 4194   4.085   1.733   4.309 -0.1301 -1.7144  0.6229
 1396TIP3    H2 4195   4.124   1.764   4.166  0.2121  1.9840  1.4178
 1397TIP3   OH2 4196   3.575   2.474   1.833  0.2022  0.1429 -1.5710
 1397TIP3    H1 4197   3.651   2.519   1.795  0.1296 -0.0619 -1.9575
 1397TIP3    H2 4198   3.537   2.425   1.761 -0.6012  0.6497 -1.5067
 1398TIP3   OH2 4199   3.626   1.051   0.523 -0.5021  0.1359 -0.4158
 1398TIP3    H1 4200   3.533   1.032   0.510 -1.3026  1.3533  2.6056
 1398TIP3    H2 4201   3.638   1.138   0.483 -1.0867  0.6612  0.5140
 1399TIP3   OH2 4202   3.342   0.940   5.052 -0.3081 -0.2225 -0.2516
 1399TIP3    H1 4203   3.363   0.867   5.109  1.8280  1.2396  0.9825
 1399TIP3    H2 4204   3.314   0.900   4.970  0.2875 -2.3940  0.5527
 1400TIP3   OH2 4205   5.008   2.519   2.683 -0.1885  0.1240  0.3410
 1400TIP3    H1 4206   5.032   2.427   2.684 -1.2658 -0.2389  3.5362
 1400TIP3    H2 4207   4.926   2.522   2.633  0.1920 -0.5095 -0.3386
 1401TIP3   OH2 4208   0.954   3.291   2.446 -1.0264  0.1144  0.3328
 1401TIP3    H1 4209   0.939   3.197   2.459 -0.6934 -0.5061 -2.9211
 1401TIP3    H2 4210   1.046   3.297   2.421 -0.7092  1.5191  1.6902
 1402TIP3   OH2 4211   2.397   5.945   2.090  0.1251  0.0003 -0.0440
 1402TIP3    H1 4212   2.387   5.882   2.161 -4.7847  1.4467  0.9125
 1402TIP3    H2 4213   2.486   5.979   2.100  0.5571 -1.7879  3.6875
 1403TIP3   OH2 4214   4.799   2.852   0.455  0.6220 -0.1254 -0.1749
 1403TIP3    H1 4215   4.822   2.771   0.500  0.6384  0.7228  1.4224
 1403TIP3    H2 4216   4.798   2.828   0.362  3.5702 -1.2928 -0.0419
 1404TIP3   OH2 4217   6.117   2.763   0.009 -0.0279  0.1838 -0.7325
 1404TIP3    H1 4218   6.058   2.754   0.084  0.2119  0.0299 -0.5577
 1404TIP3    H2 4219   6.127   2.857  -0.003 -1.8859  0.2695 -2.0277
 1405TIP3   OH2 4220   3.783   0.192   2.103  0.0245  0.1426 -0.0909
 1405TIP3    H1 4221   3.871   0.226   2.093  0.4179 -0.5233  1.0210
 1405TIP3    H2 4222   3.794   0.099   2.119 -0.8080  0.2374  1.2155
 1406TIP3   OH2 4223   0.282   1.226   4.359  0.1102  0.1815 -0.0744
 1406TIP3    H1 4224   0.269   1.320   4.350  1.7426  0.4130 -0.2864
 1406TIP3    H2 4225   0.311   1.215   4.450 -0.1069 -0.1278 -0.0413
 1407TIP3   OH2 4226   3.108   2.330   5.126 -0.1052  0.1514 -0.6664
 1407TIP3    H1 4227   3.152   2.412   5.148  0.9449 -0.5959  0.1170
 1407TIP3    H2 4228   3.174   2.262   5.142 -0.8839 -0.8391 -1.4851
 1408TIP3   OH2 4229   3.905   3.234   2.661  0.1787  0.9111 -0.2378
 1408TIP3    H1 4230   3.824   3.275   2.630  0.3250  1.7123  0.3788
 1408TIP3    H2 4231   3.890   3.223   2.755  0.3016 -0.1175 -0.3320
 1409TIP3   OH2 4232   3.693   3.047   4.138  0.0094 -0.2299 -0.0384
 1409TIP3    H1 4233   3.673   3.037   4.045  0.3009 -1.7612  0.0354
 1409TIP3    H2 4234   3.729   3.135   4.145 -2.2521  0.8550 -0.9494
 1410TIP3   OH2 4235   1.329   3.955   0.848  0.1872 -0.2734  0.0033
 1410TIP3    H1 4236   1.322   3.957   0.753  0.6251 -0.9294 -0.0466
 1410TIP3    H2 4237   1.385   4.030   0.870  0.0535 -0.0981 -0.2438
 1411TIP3   OH2 4238   4.795   0.715   4.893 -0.1121 -0.0695  0.2279
 1411TIP3    H1 4239   4.731   0.719   4.964 -0.6523  0.7589 -0.2848
 1411TIP3    H2 4240   4.799   0.623   4.870  0.3994 -0.4227  1.6168
 1412TIP3   OH2 4241   4.668   5.053   2.315  0.1264 -0.3248  0.5061
 1412TIP3    H1 4242   4.619   5.118   2.264 -0.2046 -0.3345  0.8132
 1412TIP3    H2 4243   4.601   4.996   2.353  0.2754  0.4328  1.9883
 1413TIP3   OH2 4244   3.793   0.579   0.110 -0.1780 -1.1987 -0.1048
 1413TIP3    H1 4245   3.745   0.622   0.039  1.1699  1.3615  0.4408
 1413TIP3    H2 4246   3.758   0.618   0.190  1.9427 -0.1363  0.3554
 1414TIP3   OH2 4247   4.941   2.409   3.182 -0.4144  0.1943  0.0980
 1414TIP3    H1 4248   4.898   2.476   3.129 -0.8300 -1.1269 -1.3051
 1414TIP3    H2 4249   4.947   2.333   3.125  1.9394 -0.3478  0.9367
 1415TIP3   OH2 4250   0.984   1.766   3.976  0.2478  0.2430  0.1802
 1415TIP3    H1 4251   1.050   1.722   4.029  0.2201  0.4135  0.3568
 1415TIP3    H2 4252   0.942   1.828   4.036  0.0810  0.2951  0.0113
 1416TIP3   OH2 4253   5.738   2.572   3.717 -0.2404  0.3409  0.4014
 1416TIP3    H1 4254   5.722   2.481   3.696 -2.2443  0.8501 -0.4748
 1416TIP3    H2 4255   5.775   2.610   3.637  0.1933  0.4184  0.6292
 1417TIP3   OH2 4256   1.091   5.910   3.238 -0.5370  0.9395 -0.1262
 1417TIP3    H1 4257   1.130   5.843   3.294 -0.1054  0.9454 -0.4184
 1417TIP3    H2 4258   1.042   5.859   3.173 -1.8008  0.9428  0.7806
 1418TIP3   OH2 4259   0.984   5.179   2.083 -0.1686  0.1798 -0.4054
 1418TIP3    H1 4260   1.001   5.267   2.116 -2.4609  0.1489  1.1100
 1418TIP3    H2 4261   0.907   5.190   2.027 -0.1396 -0.7803 -0.6410
 1419TIP3   OH2 4262   4.012   3.710   4.768 -0.5877 -0.0484  0.0046
 1419TIP3    H1 4263   4.093   3.761   4.770 -1.0682  0.8147  3.2365
 1419TIP3    H2 4264   4.041   3.619   4.755  0.8008  0.3570  0.1405
 1420TIP3   OH2 4265   0.361   4.480   2.173 -0.8162  0.3371 -0.3423
 1420TIP3    H1 4266   0.368   4.550   2.237 -2.0665 -1.4380  1.8917
 1420TIP3    H2 4267   0.439   4.426   2.187 -1.1413 -0.1103 -0.2321
 1421TIP3   OH2 4268   4.535   4.910   1.597 -0.2724  0.1230 -0.1067
 1421TIP3    H1 4269   4.510   4.997   1.564  1.6545  0.2145 -1.5300
 1421TIP3    H2 4270   4.595   4.876   1.530  1.4343 -1.0068  1.8948
 1422TIP3   OH2 4271   1.432   2.076   4.512  0.3136 -0.9539  0.1782
 1422TIP3    H1 4272   1.518   2.047   4.541  0.0811 -1.2734  0.5592
 1422TIP3    H2 4273   1.410   2.018   4.439  0.0194 -1.4910  0.6867
 1423TIP3   OH2 4274   3.769   3.707   1.060  0.3694  0.1564 -0.5343
 1423TIP3    H1 4275   3.697   3.731   1.119  1.3835  0.6893  0.5469
 1423TIP3    H2 4276   3.757   3.614   1.043 -1.6749  0.6250 -1.9796
 1424TIP3   OH2 4277   0.906   5.373   4.851  0.6775 -0.3708 -0.4814
 1424TIP3    H1 4278   0.883   5.326   4.770  0.5925 -0.7126 -0.2614
 1424TIP3    H2 4279   0.949   5.453   4.820 -2.1952  1.1326 -0.9730
 1425TIP3   OH2 4280   5.293   3.542   2.442 -0.0284  0.0293 -0.5737
 1425TIP3    H1 4281   5.243   3.624   2.449 -0.8794 -0.6053  1.1825
 1425TIP3    H2 4282   5.289   3.520   2.349 -0.7398  1.3913 -0.9000
 1426TIP3   OH2 4283   3.894   1.794   0.573  0.2243 -0.7917  0.1596
 1426TIP3    H1 4284   3.864   1.713   0.532 -0.6192 -1.4683  1.9868
 1426TIP3    H2 4285   3.984   1.776   0.599 -0.2322 -1.4997  1.3354
 1427TIP3   OH2 4286   4.280   1.287   1.664 -0.1800 -0.1943 -0.3010
 1427TIP3    H1 4287   4.237   1.217   1.713  0.8219 -1.1442 -0.7305
 1427TIP3    H2 4288   4.348   1.320   1.722 -1.3099  1.1600  0.2962
 1428TIP3   OH2 4289   0.498   0.995   0.240 -0.0317  0.1502 -0.2504
 1428TIP3    H1 4290   0.493   1.090   0.228 -3.4884 -0.0328 -1.5067
 1428TIP3    H2 4291   0.547   0.964   0.164  0.5218  0.8708 -0.1944
 1429TIP3   OH2 4292   0.112   3.294   0.540 -0.2751 -0.0091  0.2465
 1429TIP3    H1 4293   0.174   3.321   0.608  0.3522  0.3915 -0.4672
 1429TIP3    H2 4294   0.036   3.351   0.553  0.3987  1.0145 -0.2512
 1430TIP3   OH2 4295   2.727   1.465   1.089 -0.3373  0.3132  0.2735
 1430TIP3    H1 4296   2.783   1.526   1.137 -1.7742  2.0874 -0.1984
 1430TIP3    H2 4297   2.768   1.380   1.102  1.4216  1.2761  1.4602
 1431TIP3   OH2 4298   1.784   1.358   4.945 -0.3751 -0.4543  0.6745
 1431TIP3    H1 4299   1.691   1.346   4.961 -0.4712 -1.0841 -0.2944
 1431TIP3    H2 4300   1.790   1.435   4.889 -0.1433  0.8537  2.4213
 1432TIP3   OH2 4301   5.679   4.102   0.319  0.2883 -0.1915  0.0617
 1432TIP3    H1 4302   5.769   4.133   0.325  0.2117 -0.0706  0.6431
 1432TIP3    H2 4303   5.664   4.090   0.225  1.7669 -2.7157  0.0369
 1433TIP3   OH2 4304   1.903   2.439   3.389  0.4752 -0.0405 -0.0372
 1433TIP3    H1 4305   1.886   2.438   3.483  0.2772 -0.0033 -0.0734
 1433TIP3    H2 4306   1.953   2.519   3.375  0.4749 -0.0279  0.0305
 1434TIP3   OH2 4307   4.226   2.209   4.608  0.6401 -0.4040  0.0951
 1434TIP3    H1 4308   4.290   2.165   4.553 -0.5306 -0.7017 -1.0844
 1434TIP3    H2 4309   4.225   2.158   4.689  2.7929  0.3683  0.6745
 1435TIP3   OH2 4310   3.006   4.305   0.292  0.0140  0.6963  0.0849
 1435TIP3    H1 4311   3.003   4.347   0.378  1.5037  3.0056 -0.8767
 1435TIP3    H2 4312   3.000   4.378   0.230 -2.0548 -0.9595 -1.8550
 1436TIP3   OH2 4313   5.863   0.419   2.608 -0.3646  1.0193  0.0713
 1436TIP3    H1 4314   5.948   0.456   2.585 -0.2448  1.7624  1.5911
 1436TIP3    H2 4315   5.883   0.350   2.671 -0.7987  0.1412 -0.7134
 1437TIP3   OH2 4316   3.672   5.704   0.987 -0.7962 -0.3763 -0.2691
 1437TIP3    H1 4317   3.646   5.762   1.059  1.1845 -1.2034  1.2046
 1437TIP3    H2 4318   3.599   5.643   0.979 -1.6234  0.5240  0.1331
 1438TIP3   OH2 4319   0.883   1.262   3.571  0.8445 -0.1564 -0.0653
 1438TIP3    H1 4320   0.870   1.206   3.494 -1.1761  0.8160 -0.5050
 1438TIP3    H2 4321   0.903   1.348   3.535  4.4355 -0.5491  0.6112
 1439TIP3   OH2 4322   5.451   0.692   0.581 -0.1740  0.1235  0.0650
 1439TIP3    H1 4323   5.375   0.726   0.534 -0.4685  3.1576  2.4353
 1439TIP3    H2 4324   5.428   0.701   0.673  2.4287 -0.4939  0.8683
 1440TIP3   OH2 4325   4.009   4.848   4.132  0.6851  0.3966 -0.2144
 1440TIP3    H1 4326   3.959   4.787   4.186 -0.7460 -0.2350 -2.1487
 1440TIP3    H2 4327   4.088   4.800   4.108  0.0931 -0.3374 -0.7906
 1441TIP3   OH2 4328   2.366   4.021   2.659  0.1473  0.2544  0.4405
 1441TIP3    H1 4329   2.321   3.944   2.694 -0.1397 -0.2980 -1.0668
 1441TIP3    H2 4330   2.305   4.056   2.594  1.6763 -0.2549 -1.3527
 1442TIP3   OH2 4331   3.989   2.741   4.674  0.0009  0.1506  0.3950
 1442TIP3    H1 4332   3.925   2.781   4.614  1.4318  2.8592  0.5414
 1442TIP3    H2 4333   3.939   2.724   4.754 -0.8996  0.7385 -0.0264
 1443TIP3   OH2 4334   4.875   4.051   4.876 -0.2584 -0.2084 -0.7676
 1443TIP3    H1 4335   4.797   4.100   4.904 -0.6960 -0.2260 -1.8793
 1443TIP3    H2 4336   4.865   3.965   4.916  0.1789  0.3763  0.6638
 1444TIP3   OH2 4337   3.865   1.385   2.000  0.2887  0.2635 -0.0240
 1444TIP3    H1 4338   3.862   1.450   2.070  0.7627 -0.4421  0.6778
 1444TIP3    H2 4339   3.860   1.301   2.046 -2.5554 -0.2079 -1.0339
 1445TIP3   OH2 4340   3.791   4.834   2.278 -0.2312  0.6555 -0.0991
 1445TIP3    H1 4341   3.721   4.855   2.339  0.2286 -1.6794  1.3774
 1445TIP3    H2 4342   3.859   4.795   2.332  0.6670 -0.5277 -1.9614
 1446TIP3   OH2 4343   0.430   3.131   0.622  0.1211 -0.1196 -0.5044
 1446TIP3    H1 4344   0.386   3.087   0.548  1.2715 -0.3251 -1.0873
 1446TIP3    H2 4345   0.432   3.223   0.597 -0.9993  0.0737  0.0597
 1447TIP3   OH2 4346   1.407   4.188   0.958 -0.0290  0.1612 -0.2476
 1447TIP3    H1 4347   1.387   4.206   1.050 -2.9160  0.1275 -0.7535
 1447TIP3    H2 4348   1.362   4.258   0.910 -0.5315 -1.1122 -1.7037
 1448TIP3   OH2 4349   2.008   3.762   3.336 -0.4995 -0.2579 -0.4521
 1448TIP3    H1 4350   2.091   3.810   3.330 -0.8567  0.4936  0.4713
 1448TIP3    H2 4351   1.984   3.746   3.245  1.1642 -1.3921 -0.7459
 1449TIP3   OH2 4352   5.573   3.404   0.741 -0.4142  0.5036 -0.3477
 1449TIP3    H1 4353   5.628   3.481   0.727 -0.6198  0.8190  0.5176
 1449TIP3    H2 4354   5.488   3.439   0.768 -0.1902 -0.0318  1.1305
 1450TIP3   OH2 4355   5.644   1.355   4.283 -0.3388 -0.0628  0.3033
 1450TIP3    H1 4356   5.609   1.294   4.218  0.1018  0.2427 -0.2366
 1450TIP3    H2 4357   5.712   1.304   4.329 -0.7163 -0.3086  0.5915
 1451TIP3   OH2 4358   3.099   1.676   2.933 -0.3699 -0.2224 -0.6492
 1451TIP3    H1 4359   3.140   1.599   2.972  0.8084  0.0336 -1.3373
 1451TIP3    H2 4360   3.005   1.657   2.936 -0.3501 -0.3095  2.0715
 1452TIP3   OH2 4361   2.889   0.510   3.125  0.4182 -0.4917  0.3476
 1452TIP3    H1 4362   2.958   0.443   3.121  1.0105  0.0914  0.5404
 1452TIP3    H2 4363   2.849   0.508   3.038  1.5269  0.0181 -0.1981
 1453TIP3   OH2 4364   0.257   1.593   2.343  0.4441  0.0291  0.4183
 1453TIP3    H1 4365   0.162   1.595   2.339  0.4843 -0.0202 -1.5946
 1453TIP3    H2 4366   0.281   1.675   2.388 -0.5379 -0.8939  2.7957
 1454TIP3   OH2 4367   6.208   3.442   4.651 -0.2298  0.4248 -0.1920
 1454TIP3    H1 4368   6.178   3.427   4.561 -0.9760 -0.9710  0.2685
 1454TIP3    H2 4369   6.148   3.508   4.685  0.2526  1.1992 -0.7980
 1455TIP3   OH2 4370   0.722   0.852   4.045 -0.1797  0.0127  0.2516
 1455TIP3    H1 4371   0.750   0.837   3.955 -0.8275 -0.3164  0.0976
 1455TIP3    H2 4372   0.800   0.834   4.098  0.5622  1.3991 -0.3116
 1456TIP3   OH2 4373   1.818   2.296   1.972 -0.0346  0.4932 -0.8549
 1456TIP3    H1 4374   1.879   2.358   2.012 -1.1585  0.3589  1.2175
 1456TIP3    H2 4375   1.870   2.216   1.962  0.4736  0.7237 -0.2134
 1457TIP3   OH2 4376   2.937   4.466   5.077  0.4498 -0.1056 -0.1182
 1457TIP3    H1 4377   2.846   4.490   5.091  0.2829  0.4405 -1.9114
 1457TIP3    H2 4378   2.938   4.371   5.086 -0.0657 -0.0288  0.9595
 1458TIP3   OH2 4379   0.421   0.337   0.955 -0.3538 -0.2097 -0.6899
 1458TIP3    H1 4380   0.368   0.416   0.957 -0.3007 -0.1818 -0.3515
 1458TIP3    H2 4381   0.473   0.345   0.875 -0.0886  0.2735 -0.4747
 1459TIP3   OH2 4382   0.980   5.931   1.601 -0.4782  0.0783  0.0079
 1459TIP3    H1 4383   1.049   5.951   1.538 -0.5227 -0.9969 -0.4015
 1459TIP3    H2 4384   1.022   5.877   1.667 -0.6111  0.5683  0.4943
 1460TIP3   OH2 4385   1.887   5.439   3.775 -0.0231  0.6359  0.4771
 1460TIP3    H1 4386   1.883   5.518   3.828  2.4081 -0.4372  2.4595
 1460TIP3    H2 4387   1.928   5.468   3.693  0.0399  1.5689  0.8210
 1461TIP3   OH2 4388   1.176   0.144   1.736 -0.0912  0.0676 -0.4414
 1461TIP3    H1 4389   1.228   0.130   1.816  0.2577  1.0186 -0.4892
 1461TIP3    H2 4390   1.233   0.113   1.665  0.3027  0.8338 -0.4672
 1462TIP3   OH2 4391   3.041   0.978   4.685  0.6617  0.0877 -0.5200
 1462TIP3    H1 4392   3.114   0.918   4.700  0.3245  0.4456  4.1048
 1462TIP3    H2 4393   3.082   1.060   4.659  1.9510  0.0928  1.3623
 1463TIP3   OH2 4394   1.057   5.196   1.676 -0.5566 -0.4382 -0.2011
 1463TIP3    H1 4395   1.081   5.281   1.714 -0.3760  0.2201 -1.7058
 1463TIP3    H2 4396   0.963   5.203   1.660 -0.4130 -0.2501 -0.9709
 1464TIP3   OH2 4397   5.052   1.874   3.713 -0.0977 -0.4012 -0.1716
 1464TIP3    H1 4398   5.095   1.873   3.628  0.9780 -1.5635  0.3648
 1464TIP3    H2 4399   5.094   1.945   3.761 -1.1194  0.6561 -0.7809
 1465TIP3   OH2 4400   5.613   5.022   4.274 -0.2058 -0.2621  0.2445
 1465TIP3    H1 4401   5.660   5.012   4.357 -0.3472  0.8800  0.4852
 1465TIP3    H2 4402   5.616   5.117   4.257  3.1812 -0.6962 -2.9927
 1466TIP3   OH2 4403   2.302   4.845   2.717  0.1556 -0.2036 -0.3104
 1466TIP3    H1 4404   2.228   4.879   2.668  0.9450 -1.4935 -2.4935
 1466TIP3    H2 4405   2.265   4.819   2.802 -1.5880  0.4120 -0.8476
 1467TIP3   OH2 4406   2.066   2.930   0.753 -0.5820 -0.5131 -0.5688
 1467TIP3    H1 4407   2.000   2.944   0.685 -2.1888 -2.0592  0.5693
 1467TIP3    H2 4408   2.019   2.886   0.823  1.4251 -0.5797  0.8261
 1468TIP3   OH2 4409   5.058   2.401   3.430  0.3784 -0.9836 -0.1847
 1468TIP3    H1 4410   5.014   2.328   3.474  0.3069 -0.8385 -0.0122
 1468TIP3    H2 4411   5.010   2.412   3.348  0.0165 -0.7459  0.0587
 1469TIP3   OH2 4412   0.545   0.499   2.868  0.2215 -0.9356 -0.0030
 1469TIP3    H1 4413   0.547   0.447   2.788  0.7474 -0.8415 -0.0594
 1469TIP3    H2 4414   0.610   0.568   2.853  0.1076 -0.7395  0.3849
 1470TIP3   OH2 4415   4.879   2.272   4.256 -0.0929  0.1595 -0.0389
 1470TIP3    H1 4416   4.892   2.366   4.242  0.0048  0.4155  1.6236
 1470TIP3    H2 4417   4.890   2.234   4.169 -0.7376  1.7427 -0.8562
 1471TIP3   OH2 4418   6.052   5.950   2.431 -0.6051  0.4610 -0.6783
 1471TIP3    H1 4419   6.136   5.980   2.397 -0.5314  2.5669  1.1358
 1471TIP3    H2 4420   6.002   5.923   2.353  0.9940  1.0978 -1.9752
 1472TIP3   OH2 4421   0.359   2.897   4.612  0.6489  0.7194  0.4043
 1472TIP3    H1 4422   0.370   2.966   4.546  1.6018  0.2680  0.0697
 1472TIP3    H2 4423   0.267   2.903   4.638  0.0458  0.4197 -1.5098
 1473TIP3   OH2 4424   1.847   4.714   0.096  0.2044 -0.3095 -0.0104
 1473TIP3    H1 4425   1.794   4.718   0.175  1.2128 -2.8329  0.9106
 1473TIP3    H2 4426   1.935   4.691   0.127  1.0690  0.4618 -1.7407
 1474TIP3   OH2 4427   5.210   5.254   5.023  0.0779 -0.1797 -0.2023
 1474TIP3    H1 4428   5.115   5.244   5.010  0.1912 -0.4003 -0.9124
 1474TIP3    H2 4429   5.224   5.234   5.115 -0.7247  1.0027  0.2085
 1475TIP3   OH2 4430   4.587   0.165   2.770 -0.7164 -0.5695  0.5704
 1475TIP3    H1 4431   4.558   0.242   2.720 -0.5423 -2.1328 -2.1288
 1475TIP3    H2 4432   4.506   0.122   2.796 -0.8254 -0.3876  0.5330
 1476TIP3   OH2 4433   2.530   0.121   1.847 -0.1156 -0.4412 -0.4735
 1476TIP3    H1 4434   2.532   0.114   1.942 -1.6295 -1.5938 -0.5001
 1476TIP3    H2 4435   2.596   0.058   1.817 -1.7694 -2.4052 -0.2199
 1477TIP3   OH2 4436   5.232   5.565   1.598 -0.0825  0.5642  0.1089
 1477TIP3    H1 4437   5.189   5.532   1.676 -0.9680  3.0464  0.7643
 1477TIP3    H2 4438   5.161   5.579   1.535  0.6153 -1.4398 -1.2517
 1478TIP3   OH2 4439   2.880   5.368   4.675 -0.1014  0.0427 -0.1374
 1478TIP3    H1 4440   2.954   5.317   4.709 -0.5198  0.1026  0.9163
 1478TIP3    H2 4441   2.845   5.315   4.604  0.4872 -0.3442 -0.1510
 1479TIP3   OH2 4442   0.281   4.970   2.436 -0.2364 -0.5914  0.1941
 1479TIP3    H1 4443   0.363   5.018   2.426  1.4169 -3.1501  0.4359
 1479TIP3    H2 4444   0.258   4.982   2.529 -1.0945  1.4553 -0.2288
 1480TIP3   OH2 4445   6.157   1.999   0.767  0.1905  0.0803  0.0351
 1480TIP3    H1 4446   6.092   1.989   0.697  0.9458  1.0660 -0.8385
 1480TIP3    H2 4447   6.179   2.092   0.766  1.1056 -0.1148  0.7896
 1481TIP3   OH2 4448   3.947   5.052   2.850 -0.7759  0.2045  0.2881
 1481TIP3    H1 4449   3.972   5.010   2.767 -2.6861  0.3097 -0.3775
 1481TIP3    H2 4450   4.015   5.117   2.865  0.4512 -0.8653 -0.3726
 1482TIP3   OH2 4451   6.126   2.221   4.084 -0.0368 -0.0457  0.3193
 1482TIP3    H1 4452   6.153   2.179   4.165 -1.8487 -0.1588  0.9122
 1482TIP3    H2 4453   6.034   2.196   4.074 -0.4144  1.6039 -0.7130
 1483TIP3   OH2 4454   5.210   4.484   4.477  0.1449 -0.1927 -0.0173
 1483TIP3    H1 4455   5.211   4.551   4.545 -1.2833  0.3375 -0.4859
 1483TIP3    H2 4456   5.261   4.411   4.514  1.6743  1.0971  0.5192
 1484TIP3   OH2 4457   5.932   1.932   2.632  0.1209  0.2170  0.7678
 1484TIP3    H1 4458   5.998   1.969   2.691 -0.5881 -0.6587  2.2002
 1484TIP3    H2 4459   5.971   1.850   2.602  0.0807  0.1773  0.8241
 1485TIP3   OH2 4460   4.169   3.994   2.621 -0.1158 -0.0582 -0.4574
 1485TIP3    H1 4461   4.138   3.914   2.578  1.2964 -0.1251 -1.4289
 1485TIP3    H2 4462   4.257   3.972   2.651 -0.1047  0.8179  0.1682
 1486TIP3   OH2 4463   3.292   0.804   3.810 -0.2146 -0.4782  0.0494
 1486TIP3    H1 4464   3.273   0.731   3.751 -1.3380  0.4015 -0.7260
 1486TIP3    H2 4465   3.379   0.834   3.783  0.0206 -1.1709  0.0090
 1487TIP3   OH2 4466   4.936   2.815   4.415  0.2035 -0.3200  0.0771
 1487TIP3    H1 4467   4.940   2.905   4.381  1.0528 -0.5841 -0.5649
 1487TIP3    H2 4468   4.896   2.824   4.502 -0.2609  0.6030 -0.2124
 1488TIP3   OH2 4469   2.209   2.636   2.662 -0.1114 -0.0475 -0.9462
 1488TIP3    H1 4470   2.181   2.656   2.573 -2.1356 -0.4704 -0.4576
 1488TIP3    H2 4471   2.146   2.571   2.693  1.7087 -1.3824  0.1411
 1489TIP3   OH2 4472   4.191   2.993   0.133  0.3826 -0.1479 -0.3904
 1489TIP3    H1 4473   4.239   3.075   0.122 -0.3631  0.8267  2.6394
 1489TIP3    H2 4474   4.130   3.010   0.204  1.8102 -4.0037  2.0713
 1490TIP3   OH2 4475   5.951   2.977   3.779 -0.2090 -0.5132  0.2613
 1490TIP3    H1 4476   5.938   3.014   3.866 -0.8928 -0.1756  0.0241
 1490TIP3    H2 4477   6.042   2.947   3.778  0.6380  1.8585  0.1923
 1491TIP3   OH2 4478   0.117   5.327   5.148 -1.1577  0.0607  0.1262
 1491TIP3    H1 4479   0.087   5.417   5.141  0.7372  0.6606 -1.1393
 1491TIP3    H2 4480   0.038   5.274   5.138 -2.3782  1.5636  1.4731
 1492TIP3   OH2 4481   4.585   2.435   0.536 -0.3644  0.2346 -0.4966
 1492TIP3    H1 4482   4.504   2.394   0.567  0.5482 -0.8734  0.5400
 1492TIP3    H2 4483   4.630   2.365   0.488 -1.1329  1.5437 -3.3265
 1493TIP3   OH2 4484   1.933   5.650   2.594 -0.3424  0.3518 -0.6777
 1493TIP3    H1 4485   2.013   5.685   2.554 -0.1041  0.6698  0.0498
 1493TIP3    H2 4486   1.864   5.671   2.532 -0.4356  3.3072  0.2346
 1494TIP3   OH2 4487   0.291   5.795   5.199 -0.3838  0.4801  0.4368
 1494TIP3    H1 4488   0.357   5.785   5.130 -0.1564  0.3572  0.6720
 1494TIP3    H2 4489   0.235   5.867   5.168 -0.7695 -0.1120 -0.2645
 1495TIP3   OH2 4490   0.971   1.783   3.172  0.1443 -0.1285 -0.4128
 1495TIP3    H1 4491   1.054   1.745   3.145 -0.5663 -2.3738  0.3574
 1495TIP3    H2 4492   0.986   1.814   3.261  0.1403 -0.6102 -0.2429
 1496TIP3   OH2 4493   1.504   4.144   0.459 -0.1363 -0.3963 -0.2838
 1496TIP3    H1 4494   1.571   4.204   0.492 -0.3133 -0.0312 -0.5749
 1496TIP3    H2 4495   1.553   4.071   0.422  0.1267  0.1142 -0.9719
 1497TIP3   OH2 4496   2.352   2.255   4.656 -0.2950  0.2102 -0.3528
 1497TIP3    H1 4497   2.369   2.335   4.605 -2.8788  1.6029  0.7737
 1497TIP3    H2 4498   2.262   2.266   4.688 -0.3994 -2.7576  0.6442
 1498TIP3   OH2 4499   6.152   1.124   2.897  0.3858  0.1999 -0.0148
 1498TIP3    H1 4500   6.204   1.204   2.896 -1.4394  1.4673 -1.5959
 1498TIP3    H2 4501   6.062   1.154   2.901 -0.3632 -1.7846 -0.7352
 1499TIP3   OH2 4502   1.630   4.268   2.693 -0.3790  0.1884 -0.3517
 1499TIP3    H1 4503   1.715   4.247   2.734 -1.1593  0.8500  1.7506
 1499TIP3    H2 4504   1.612   4.193   2.637  1.1932 -0.3696 -0.1803
 1500TIP3   OH2 4505   4.660   3.119   0.185  0.4831  0.2459 -0.1923
 1500TIP3    H1 4506   4.637   3.209   0.206  0.8372  0.0757  1.0131
 1500TIP3    H2 4507   4.597   3.066   0.233  0.9227 -0.1570 -0.0433
 1501TIP3   OH2 4508   6.192   4.373   3.876  0.0133  0.2186  0.1649
 1501TIP3    H1 4509   6.191   4.282   3.846  1.5735 -0.0070  0.7324
 1501TIP3    H2 4510   6.199   4.368   3.971 -0.1573  0.9334  0.2238
 1502TIP3   OH2 4511   0.884   2.543   1.290  0.3691  0.6756 -0.0233
 1502TIP3    H1 4512   0.800   2.582   1.315  1.0939  1.8702  0.6928
 1502TIP3    H2 4513   0.869   2.506   1.203 -1.7392 -1.9430  1.3031
 1503TIP3   OH2 4514   2.409   0.566   2.634  0.1037 -0.4113  0.0265
 1503TIP3    H1 4515   2.323   0.543   2.670 -0.1451  1.5024  0.7875
 1503TIP3    H2 4516   2.392   0.642   2.578  1.2405 -0.3174 -0.2133
 1504TIP3   OH2 4517   0.533   3.784   2.039  0.3384  0.8075  0.0073
 1504TIP3    H1 4518   0.489   3.706   2.071  0.4474  1.3909  1.6427
 1504TIP3    H2 4519   0.625   3.758   2.031  0.1841  0.4289 -0.6607
 1505TIP3   OH2 4520   0.619   1.028   4.230 -0.2360  0.2615  0.1135
 1505TIP3    H1 4521   0.705   1.051   4.267 -0.0440  1.0622 -0.8129
 1505TIP3    H2 4522   0.639   0.990   4.144 -0.8186  0.4947 -0.1264
 1506TIP3   OH2 4523   3.427   4.483   4.073  0.5583  0.0190 -0.3940
 1506TIP3    H1 4524   3.485   4.546   4.030 -1.5731  1.4241 -1.3602
 1506TIP3    H2 4525   3.405   4.523   4.157  1.0321 -0.5658  0.0212
 1507TIP3   OH2 4526   0.554   4.726   0.155  0.9505 -0.5739  0.4889
 1507TIP3    H1 4527   0.559   4.685   0.069 -0.8803  1.7101 -0.8161
 1507TIP3    H2 4528   0.464   4.757   0.163  1.7487  1.6483  2.0633
 1508TIP3   OH2 4529   4.905   2.703   1.439 -0.5315 -0.5304 -0.0279
 1508TIP3    H1 4530   4.957   2.770   1.394  0.6436 -1.1591  0.3363
 1508TIP3    H2 4531   4.868   2.748   1.515  1.0071 -0.4695  0.7350
 1509TIP3   OH2 4532   3.274   5.767   0.550 -0.2700  0.1634  0.6367
 1509TIP3    H1 4533   3.227   5.734   0.474 -0.4690 -2.0276  1.6317
 1509TIP3    H2 4534   3.310   5.851   0.522 -0.0249 -0.7344 -1.9626
 1510TIP3   OH2 4535   2.351   4.596   0.677 -0.1685  0.4517  0.1470
 1510TIP3    H1 4536   2.412   4.604   0.604 -0.3076  1.1060  0.0974
 1510TIP3    H2 4537   2.371   4.511   0.716 -0.6867 -0.3258 -1.1971
 1511TIP3   OH2 4538   2.938   2.031   2.192  0.2954 -0.3958  0.5537
 1511TIP3    H1 4539   2.933   2.063   2.282 -1.8591 -0.6704  0.5770
 1511TIP3    H2 4540   2.950   2.110   2.139 -0.7102  0.0109  0.9215
 1512TIP3   OH2 4541   5.450   3.824   2.878 -0.3053 -0.0331  0.3373
 1512TIP3    H1 4542   5.426   3.818   2.785 -1.1359  0.5022  0.5063
 1512TIP3    H2 4543   5.382   3.879   2.917  1.5657  2.0921  0.7416
 1513TIP3   OH2 4544   6.272   4.146   3.240 -0.4518  0.0165 -0.0651
 1513TIP3    H1 4545   6.220   4.125   3.162  0.0227  1.7577 -0.8850
 1513TIP3    H2 4546   6.211   4.135   3.313 -1.2167 -0.5615 -0.7707
 1514TIP3   OH2 4547   3.572   5.936   4.482  0.3811  0.4616  0.0274
 1514TIP3    H1 4548   3.575   5.992   4.405  0.9850 -0.9730 -1.0286
 1514TIP3    H2 4549   3.479   5.933   4.505 -0.2534 -1.3688 -2.4131
 1515TIP3   OH2 4550   5.771   1.737   1.093 -0.0454 -0.5725  0.2688
 1515TIP3    H1 4551   5.714   1.814   1.087  0.4967 -0.1265  0.7199
 1515TIP3    H2 4552   5.748   1.698   1.178 -0.1981 -0.8117  0.1178
 1516TIP3   OH2 4553   2.318   5.814   4.398  0.1424  0.1547 -0.2058
 1516TIP3    H1 4554   2.353   5.774   4.478 -0.5455  1.3915  0.7525
 1516TIP3    H2 4555   2.345   5.906   4.404 -1.2887  0.6191 -0.5784
 1517TIP3   OH2 4556   0.713   2.533   2.563 -0.5279 -0.1296 -0.0587
 1517TIP3    H1 4557   0.694   2.614   2.515  2.4921  0.2929 -0.7485
 1517TIP3    H2 4558   0.646   2.530   2.632 -1.5361  2.2381 -0.8244
 1518TIP3   OH2 4559   4.309   2.070   2.623 -0.2128 -0.0715 -0.2902
 1518TIP3    H1 4560   4.247   2.059   2.695  0.3857 -0.7294  0.1436
 1518TIP3    H2 4561   4.264   2.127   2.561 -1.0523 -0.1363  0.2398
 1519TIP3   OH2 4562   3.603   5.184   3.861 -0.2322  0.2407  0.0739
 1519TIP3    H1 4563   3.647   5.268   3.871 -0.1602  0.2966 -0.6578
 1519TIP3    H2 4564   3.569   5.185   3.772 -2.4074  0.5162  0.8621
 1520TIP3   OH2 4565   0.412   4.183   4.143 -0.1524  0.1327  0.1278
 1520TIP3    H1 4566   0.458   4.104   4.171  0.3276  0.5985  0.6814
 1520TIP3    H2 4567   0.473   4.226   4.083 -0.1673  0.3715  0.2802
 1521TIP3   OH2 4568   1.480   0.051   2.562 -0.7459 -0.4672  0.0507
 1521TIP3    H1 4569   1.424  -0.010   2.610 -0.5497 -0.5016  0.2397
 1521TIP3    H2 4570   1.485   0.014   2.474 -3.9376  1.3907 -1.0734
 1522TIP3   OH2 4571   3.457   0.862   3.376  0.2254 -0.5040  0.9518
 1522TIP3    H1 4572   3.510   0.834   3.302 -0.3789  1.2918 -0.2302
 1522TIP3    H2 4573   3.489   0.950   3.396 -2.8291  1.0789 -0.4488
 1523TIP3   OH2 4574   1.197   3.347   0.488 -0.1799 -0.3581  0.1340
 1523TIP3    H1 4575   1.183   3.320   0.397 -1.6021  1.7982 -0.3497
 1523TIP3    H2 4576   1.119   3.398   0.511  1.3553  1.4581  1.6589
 1524TIP3   OH2 4577   2.131   2.931   2.786  0.1596  0.2194 -0.1457
 1524TIP3    H1 4578   2.045   2.891   2.777 -0.0752  0.6233  0.2369
 1524TIP3    H2 4579   2.184   2.865   2.830 -0.7416  0.9650  2.2599
 1525TIP3   OH2 4580   1.246   2.962   0.379  0.1615 -0.3877 -0.1562
 1525TIP3    H1 4581   1.297   3.023   0.431  0.3220 -0.5282 -0.1502
 1525TIP3    H2 4582   1.174   2.936   0.437  1.1987 -1.7615  0.5847
 1526TIP3   OH2 4583   3.624   5.446   1.484  0.1324 -0.6428 -0.1899
 1526TIP3    H1 4584   3.532   5.471   1.482  0.2444 -0.2717 -1.2855
 1526TIP3    H2 4585   3.663   5.501   1.553 -0.0969  0.5639 -0.9910
 1527TIP3   OH2 4586   1.153   1.706   2.404  0.4110 -0.9307 -0.2908
 1527TIP3    H1 4587   1.104   1.624   2.396 -2.1845  0.4766 -0.1163
 1527TIP3    H2 4588   1.127   1.741   2.489 -0.2287  1.0146 -1.2207
 1528TIP3   OH2 4589   2.180   0.146   4.076  0.6292  0.0315 -0.2510
 1528TIP3    H1 4590   2.249   0.100   4.029  0.4092 -2.0997  1.3953
 1528TIP3    H2 4591   2.223   0.183   4.153  0.4522  1.1886 -0.6746
 1529TIP3   OH2 4592   3.025   1.350   3.052 -0.0968 -0.1524  0.4456
 1529TIP3    H1 4593   3.004   1.305   3.134 -0.3628  1.6357  1.4236
 1529TIP3    H2 4594   2.954   1.413   3.041  0.5935  0.4927 -0.4870
 1530TIP3   OH2 4595   1.284   4.431   0.825 -0.3140  0.1920  0.7238
 1530TIP3    H1 4596   1.254   4.508   0.775  1.3886  2.5277  3.0033
 1530TIP3    H2 4597   1.208   4.404   0.876 -0.9161  0.3745 -0.0444
 1531TIP3   OH2 4598   5.406   5.103   4.884  0.3682  0.7225 -0.1273
 1531TIP3    H1 4599   5.332   5.128   4.940 -1.1910 -0.4750 -1.5447
 1531TIP3    H2 4600   5.382   5.137   4.798  0.6630 -1.1098 -0.9678
 1532TIP3   OH2 4601   2.390   4.619   2.382 -0.5794 -0.1284  0.3319
 1532TIP3    H1 4602   2.318   4.677   2.355  0.2591  0.7723 -0.0002
 1532TIP3    H2 4603   2.436   4.599   2.300  0.0212 -0.0538  0.6501
 1533TIP3   OH2 4604   2.907   3.144   4.968  0.6922 -0.4343 -0.0475
 1533TIP3    H1 4605   2.828   3.194   4.988  0.8055 -0.3006  0.0627
 1533TIP3    H2 4606   2.979   3.195   5.005  0.7477 -0.9991  0.6660
 1534TIP3   OH2 4607   3.967   3.643   0.164  0.3161 -0.1944 -0.4924
 1534TIP3    H1 4608   3.975   3.656   0.070  0.7433  1.0687 -0.3013
 1534TIP3    H2 4609   3.889   3.588   0.175  0.6655 -0.9498 -1.6059
 1535TIP3   OH2 4610   2.102   1.392   0.244  0.3374 -0.3209 -0.1134
 1535TIP3    H1 4611   2.186   1.345   0.248  1.7347  1.8947 -1.5244
 1535TIP3    H2 4612   2.091   1.413   0.151  0.0136  2.4221  0.4698
 1536TIP3   OH2 4613   2.351   3.646   0.497  0.2304  0.6683  0.4896
 1536TIP3    H1 4614   2.257   3.639   0.480 -0.0268  1.5617  1.4711
 1536TIP3    H2 4615   2.357   3.701   0.575  1.5829  0.8111  0.2978
 1537TIP3   OH2 4616   1.220   1.469   3.574  0.5203  0.4774 -0.4773
 1537TIP3    H1 4617   1.251   1.492   3.662  0.5376 -2.8558  0.5192
 1537TIP3    H2 4618   1.129   1.498   3.572 -0.0214 -0.9605  1.3540
 1538TIP3   OH2 4619   3.022   4.718   4.060 -0.1863 -0.0277 -0.8540
 1538TIP3    H1 4620   3.025   4.680   3.972 -1.0516 -1.3986 -0.3338
 1538TIP3    H2 4621   3.113   4.730   4.084  0.0681 -0.0125 -1.7955
 1539TIP3   OH2 4622   0.176   3.602   1.329 -0.5329 -0.1292 -0.2579
 1539TIP3    H1 4623   0.144   3.604   1.419  1.1824  0.9030  0.3845
 1539TIP3    H2 4624   0.116   3.659   1.280 -0.9209  0.0644  0.4382
 1540TIP3   OH2 4625   5.867   1.891   3.458  0.0518  0.1769  0.5162
 1540TIP3    H1 4626   5.836   1.872   3.547 -0.9517 -1.0719 -0.0796
 1540TIP3    H2 4627   5.941   1.832   3.445  1.5438  1.7767  1.2095
 1541TIP3   OH2 4628   0.450   1.908   2.232 -0.5970  0.1572  0.6908
 1541TIP3    H1 4629   0.384   1.925   2.165 -0.3595 -1.3973  0.0246
 1541TIP3    H2 4630   0.401   1.874   2.306 -0.5605 -1.2570  0.1008
 1542TIP3   OH2 4631   1.011   1.291   4.666  0.0314  0.3711 -0.2181
 1542TIP3    H1 4632   1.080   1.262   4.607  1.3635 -0.0952  1.4874
 1542TIP3    H2 4633   0.972   1.210   4.699 -1.5871  0.6255 -1.3789
 1543TIP3   OH2 4634   1.809   5.927   2.090  0.2817 -0.1705  0.4656
 1543TIP3    H1 4635   1.900   5.958   2.087  0.1976  0.0369 -2.0131
 1543TIP3    H2 4636   1.801   5.870   2.014 -2.0964  1.1593 -0.3836
 1544TIP3   OH2 4637   0.742   0.189   4.020  0.2256 -0.0552  0.0741
 1544TIP3    H1 4638   0.703   0.277   4.025  2.6110  1.0436  0.7786
 1544TIP3    H2 4639   0.828   0.203   3.983  1.0634 -1.9745  1.1503
 1545TIP3   OH2 4640   2.877   4.663   1.728  0.2372 -0.4842 -0.1697
 1545TIP3    H1 4641   2.840   4.729   1.669  1.1052 -1.3543 -1.7438
 1545TIP3    H2 4642   2.924   4.603   1.670  2.6076 -0.4224  1.5439
 1546TIP3   OH2 4643   2.381   5.099   5.092  0.2158  0.0814 -0.0975
 1546TIP3    H1 4644   2.402   5.037   5.162 -1.0401 -0.9239 -0.5639
 1546TIP3    H2 4645   2.356   5.179   5.138 -0.3399 -0.4834  0.6203
 1547TIP3   OH2 4646   4.024   2.431   4.561 -1.3107 -0.2937 -0.0870
 1547TIP3    H1 4647   3.981   2.515   4.546 -1.0092  0.9501  4.4630
 1547TIP3    H2 4648   3.952   2.370   4.577 -1.4801 -0.0945 -0.0826
 1548TIP3   OH2 4649   1.612   0.758   4.106  0.3453  0.3371  0.3062
 1548TIP3    H1 4650   1.654   0.836   4.141  1.5393 -0.7805  1.4559
 1548TIP3    H2 4651   1.573   0.715   4.182 -0.5076 -0.0772 -0.3481
 1549TIP3   OH2 4652   4.980   2.573   0.731 -0.3387 -0.1899  0.0054
 1549TIP3    H1 4653   5.016   2.507   0.790 -0.6450 -0.0910  0.3035
 1549TIP3    H2 4654   5.055   2.601   0.678 -0.3821 -1.3994 -0.7189
 1550TIP3   OH2 4655   1.738   0.542   3.200 -0.0222  0.2923  0.1055
 1550TIP3    H1 4656   1.716   0.547   3.293 -0.1354  1.0873  0.0481
 1550TIP3    H2 4657   1.726   0.450   3.177 -0.6577  0.2137  0.7181
 1551TIP3   OH2 4658   3.950   5.779   0.148 -0.1172 -0.9718 -0.0729
 1551TIP3    H1 4659   3.894   5.763   0.224 -0.1137 -1.0543 -0.0871
 1551TIP3    H2 4660   3.897   5.834   0.089 -0.4901 -1.7171 -0.4486
 1552TIP3   OH2 4661   1.183   1.451   1.750  0.0937  0.3836  0.0950
 1552TIP3    H1 4662   1.128   1.435   1.827 -1.1232 -1.9783 -1.1798
 1552TIP3    H2 4663   1.169   1.543   1.729 -2.7178  0.0760  0.3335
 1553TIP3   OH2 4664   5.718   0.314   3.428 -0.3484  0.7990  0.0994
 1553TIP3    H1 4665   5.763   0.272   3.502  0.3323  0.7493 -0.3328
 1553TIP3    H2 4666   5.737   0.257   3.353 -0.9364  0.9118 -0.1395
 1554TIP3   OH2 4667   1.397   1.650   1.077  0.6102 -0.6554 -0.2409
 1554TIP3    H1 4668   1.353   1.683   1.155  0.2532  0.0654 -0.7384
 1554TIP3    H2 4669   1.434   1.566   1.104  1.6017  0.1553  1.0903
 1555TIP3   OH2 4670   4.624   4.077   3.181  0.4469 -0.2134  0.8001
 1555TIP3    H1 4671   4.680   4.138   3.228 -0.4710  0.8802  0.5149
 1555TIP3    H2 4672   4.610   4.005   3.243  0.9621  0.2019  1.4123
 1556TIP3   OH2 4673   2.818   4.251   0.938 -0.2012  0.1582 -0.0372
 1556TIP3    H1 4674   2.729   4.231   0.907 -0.0449 -0.7058  0.0259
 1556TIP3    H2 4675   2.832   4.343   0.916 -0.2028 -0.3311 -2.3353
 1557TIP3   OH2 4676   0.689   5.132   3.931 -0.8758 -0.2535 -0.2012
 1557TIP3    H1 4677   0.698   5.092   4.018 -2.4063  0.1088  0.1531
 1557TIP3    H2 4678   0.722   5.221   3.943 -3.3179  0.6338  0.7350
 1558TIP3   OH2 4679   3.315   0.602   2.180 -0.1537  0.1909  0.0158
 1558TIP3    H1 4680   3.397   0.597   2.130  0.7416  0.9376  1.3452
 1558TIP3    H2 4681   3.324   0.682   2.233 -1.3897 -0.1603  0.8067
 1559TIP3   OH2 4682   0.284   2.818   1.916 -0.5877 -0.0655  0.1027
 1559TIP3    H1 4683   0.377   2.825   1.894 -0.7462  1.8924 -0.0367
 1559TIP3    H2 4684   0.245   2.900   1.887 -1.9384  0.1249  2.2223
 1560TIP3   OH2 4685   2.248   5.459   3.727 -0.2832  0.3938  0.4643
 1560TIP3    H1 4686   2.239   5.534   3.668 -1.2203 -0.0987 -0.0329
 1560TIP3    H2 4687   2.258   5.384   3.669 -0.3923  0.0043  0.9447
 1561TIP3   OH2 4688   3.083   1.006   3.001  0.0987 -0.0642  0.0004
 1561TIP3    H1 4689   3.050   0.923   3.036  3.5749 -1.4083  0.4574
 1561TIP3    H2 4690   3.164   1.022   3.048  0.2637  2.9324 -1.0719
 1562TIP3   OH2 4691   0.321   3.382   3.239  0.4456 -0.5719 -0.2602
 1562TIP3    H1 4692   0.243   3.437   3.233  1.1157  0.4394  0.0011
 1562TIP3    H2 4693   0.394   3.444   3.240  1.1953 -1.4300  0.9662
 1563TIP3   OH2 4694   2.109   3.269   1.488 -0.2508  0.0654 -0.6099
 1563TIP3    H1 4695   2.055   3.310   1.554  0.2012  0.8508 -0.7226
 1563TIP3    H2 4696   2.086   3.313   1.406  0.3765  0.2361 -0.7004
 1564TIP3   OH2 4697   0.399   4.521   4.448 -0.2393  0.8958 -0.1186
 1564TIP3    H1 4698   0.325   4.468   4.420 -1.4443  2.0407  0.7414
 1564TIP3    H2 4699   0.404   4.592   4.384 -0.2959  1.1677  0.1739
 1565TIP3   OH2 4700   3.871   0.184   5.094 -0.5078 -0.2460  0.0092
 1565TIP3    H1 4701   3.805   0.184   5.163  0.2292 -1.6291  0.7455
 1565TIP3    H2 4702   3.821   0.171   5.014 -1.2956  0.6400  0.3280
 1566TIP3   OH2 4703   1.726   5.271   3.044  0.1404  0.1897 -0.3180
 1566TIP3    H1 4704   1.723   5.355   3.089  3.1191  0.2083  0.0693
 1566TIP3    H2 4705   1.686   5.288   2.959 -0.9231  1.4942  0.4072
 1567TIP3   OH2 4706   4.729   1.622   5.081  0.0261 -0.2629 -0.4148
 1567TIP3    H1 4707   4.669   1.548   5.089  0.2750 -0.4158  0.0989
 1567TIP3    H2 4708   4.676   1.692   5.043 -0.6398 -0.2250  0.5464
 1568TIP3   OH2 4709   0.637   2.215   3.082  0.9121 -0.3040 -0.4535
 1568TIP3    H1 4710   0.652   2.124   3.105  1.7654  0.0754  0.5488
 1568TIP3    H2 4711   0.683   2.265   3.150 -1.2566  0.8883  0.2319
 1569TIP3   OH2 4712   6.155   3.147   2.324  0.3966  1.0008  0.0819
 1569TIP3    H1 4713   6.228   3.208   2.313  0.1965  1.0976 -0.7458
 1569TIP3    H2 4714   6.187   3.065   2.287  0.2920  0.8832  0.2500
 1570TIP3   OH2 4715   3.601   0.567   2.678  0.1707 -0.0352 -0.4097
 1570TIP3    H1 4716   3.574   0.634   2.616  0.6043 -0.8914 -1.5622
 1570TIP3    H2 4717   3.611   0.488   2.625  2.1542 -0.4176  0.4483
 1571TIP3   OH2 4718   2.743   2.273   4.875  0.3610  0.0291  0.3072
 1571TIP3    H1 4719   2.779   2.185   4.863  1.2707  0.4255  0.0415
 1571TIP3    H2 4720   2.813   2.331   4.846 -0.8730  0.8125 -1.2383
 1572TIP3   OH2 4721   1.310   3.526   4.109  0.1297  0.0825  0.0761
 1572TIP3    H1 4722   1.385   3.583   4.128 -1.7716  1.4115  5.0666
 1572TIP3    H2 4723   1.322   3.450   4.166 -1.5492 -0.4800 -0.2511
 1573TIP3   OH2 4724   4.723   1.084   4.457 -0.0449 -0.2644 -0.7527
 1573TIP3    H1 4725   4.723   1.180   4.453 -0.6552 -0.2841 -1.7233
 1573TIP3    H2 4726   4.812   1.059   4.430  0.5829  0.0415  0.9303
 1574TIP3   OH2 4727   0.034   2.733   2.900 -0.5202  0.2417 -0.2880
 1574TIP3    H1 4728   0.105   2.690   2.947 -1.1818  0.5209  1.0074
 1574TIP3    H2 4729   0.023   2.817   2.945 -0.3857  1.0592 -1.7026
 1575TIP3   OH2 4730   5.411   0.129   4.232  0.4425 -0.5213  1.0268
 1575TIP3    H1 4731   5.361   0.162   4.307  1.0235  1.8238  0.4550
 1575TIP3    H2 4732   5.499   0.115   4.266  0.6132  0.1860  0.8950
 1576TIP3   OH2 4733   5.937   0.603   4.625  0.0072 -0.2290  0.1200
 1576TIP3    H1 4734   5.846   0.599   4.596  0.2837 -0.9667 -0.6832
 1576TIP3    H2 4735   5.987   0.620   4.546  0.4978  1.2050  0.7129
 1577TIP3   OH2 4736   3.554   1.480   0.662 -0.2847 -0.1554  0.5346
 1577TIP3    H1 4737   3.480   1.540   0.673 -1.0350 -0.8394 -0.5870
 1577TIP3    H2 4738   3.605   1.517   0.590 -0.7312 -0.8207 -0.1402
 1578TIP3   OH2 4739   4.267   4.060   0.944 -0.1885  0.4413  0.1434
 1578TIP3    H1 4740   4.326   4.092   1.013 -0.7292  2.8825 -0.4170
 1578TIP3    H2 4741   4.211   3.996   0.988  0.4905  0.7852  1.5780
 1579TIP3   OH2 4742   2.334   5.535   1.588  0.0190 -0.0288  0.4414
 1579TIP3    H1 4743   2.394   5.584   1.646  2.6126  0.6177 -2.4917
 1579TIP3    H2 4744   2.371   5.447   1.586  0.3377  0.1222 -0.6572
 1580TIP3   OH2 4745   3.757   5.368   3.501  0.3656 -0.1050 -0.3548
 1580TIP3    H1 4746   3.667   5.354   3.529 -0.4286 -0.2561 -2.7673
 1580TIP3    H2 4747   3.804   5.290   3.530 -0.2119  0.0604  1.0925
 1581TIP3   OH2 4748   3.684   3.744   3.065  0.3001 -0.4078  0.1067
 1581TIP3    H1 4749   3.728   3.739   2.980  0.7166 -0.6720  0.3302
 1581TIP3    H2 4750   3.593   3.722   3.047  0.6895 -1.9659 -0.0403
 1582TIP3   OH2 4751   1.863   3.765   1.586  0.4637 -0.3229  0.4347
 1582TIP3    H1 4752   1.855   3.854   1.551  1.5882 -0.5700 -0.5335
 1582TIP3    H2 4753   1.873   3.710   1.508  0.5972 -1.1990  1.0541
 1583TIP3   OH2 4754   4.998   0.349   3.778  0.3142 -0.6601  0.0420
 1583TIP3    H1 4755   5.035   0.437   3.774  3.1872 -1.7925 -0.7230
 1583TIP3    H2 4756   4.963   0.334   3.690  2.6883 -1.3346 -0.8619
 1584TIP3   OH2 4757   3.703   5.965   3.802  0.1009 -0.4072 -0.2850
 1584TIP3    H1 4758   3.782   5.995   3.848 -0.8608  2.0273 -0.0507
 1584TIP3    H2 4759   3.731   5.955   3.711  0.8021  0.0264 -0.1293
 1585TIP3   OH2 4760   1.631   0.389   3.747 -0.1942  0.7838 -0.1268
 1585TIP3    H1 4761   1.683   0.451   3.695 -1.1961  0.5970 -1.3780
 1585TIP3    H2 4762   1.673   0.391   3.834  0.5926  2.2198 -0.4989
 1586TIP3   OH2 4763   2.991   2.750   0.402 -0.1170  1.2206  0.3715
 1586TIP3    H1 4764   3.085   2.747   0.383 -0.1470  0.8781  0.2628
 1586TIP3    H2 4765   2.973   2.842   0.422  0.0133  1.5251 -0.7962
 1587TIP3   OH2 4766   4.919   5.642   1.696  0.8762  0.0531 -0.1511
 1587TIP3    H1 4767   4.889   5.704   1.630  1.9980 -0.7118 -1.4409
 1587TIP3    H2 4768   4.840   5.597   1.725  0.1387  1.6134  0.3400
 1588TIP3   OH2 4769   4.341   1.335   1.130  0.2736  0.3766 -0.7976
 1588TIP3    H1 4770   4.342   1.364   1.221  0.6381  1.0162 -0.9988
 1588TIP3    H2 4771   4.379   1.247   1.132 -0.2244  0.1761 -0.2635
 1589TIP3   OH2 4772   2.823   5.707   3.062  0.1460 -0.0737  0.1334
 1589TIP3    H1 4773   2.833   5.800   3.043  0.3222 -0.0846  0.1680
 1589TIP3    H2 4774   2.729   5.691   3.057  0.1303  0.0722 -0.0289
 1590TIP3   OH2 4775   4.662   0.522   4.297 -0.8005 -0.1533 -0.3130
 1590TIP3    H1 4776   4.682   0.611   4.326  1.6827 -1.4146  2.3665
 1590TIP3    H2 4777   4.745   0.490   4.262 -1.4673 -1.6168 -0.5840
 1591TIP3   OH2 4778   4.112   5.519   0.784 -0.5763  0.5524 -0.5705
 1591TIP3    H1 4779   4.101   5.614   0.780  1.0417  1.0058  2.5646
 1591TIP3    H2 4780   4.049   5.490   0.850  1.2741  0.0349  1.0629
 1592TIP3   OH2 4781   0.700   4.649   4.156  0.2360 -0.3525  0.2691
 1592TIP3    H1 4782   0.731   4.728   4.112  2.0516 -0.5180  1.1591
 1592TIP3    H2 4783   0.773   4.622   4.212 -0.1016 -2.9645 -0.3916
 1593TIP3   OH2 4784   5.654   1.215   0.223  0.3333 -0.0181 -0.2088
 1593TIP3    H1 4785   5.733   1.203   0.171  1.4975 -1.7229  1.7893
 1593TIP3    H2 4786   5.592   1.151   0.188  0.8386 -0.6244 -0.0227
 1594TIP3   OH2 4787   1.096   0.056   4.924  0.0998 -0.2974 -0.5679
 1594TIP3    H1 4788   1.076   0.149   4.925  0.4316 -0.1986  1.8557
 1594TIP3    H2 4789   1.186   0.050   4.956  0.4217 -1.4033 -1.5938
 1595TIP3   OH2 4790   3.475   5.807   2.730  0.1323 -0.3094  0.5239
 1595TIP3    H1 4791   3.552   5.752   2.723  1.4414  1.1390  2.6015
 1595TIP3    H2 4792   3.439   5.810   2.641  2.5450 -0.9069 -0.5272
 1596TIP3   OH2 4793   4.346   1.009   0.285  0.4297 -0.5866  0.4440
 1596TIP3    H1 4794   4.262   0.970   0.307  0.4156 -1.4261 -0.9705
 1596TIP3    H2 4795   4.364   1.070   0.356 -2.1864  0.9094 -0.0422
 1597TIP3   OH2 4796   4.598   1.050   4.880  0.1703 -0.5838 -0.5946
 1597TIP3    H1 4797   4.539   1.079   4.949  0.4647 -1.9451  0.2695
 1597TIP3    H2 4798   4.555   0.973   4.843  0.5348 -0.5026 -1.2062
 1598TIP3   OH2 4799   6.159   3.620   1.656  0.0035 -0.1784  0.1190
 1598TIP3    H1 4800   6.159   3.701   1.605  0.0828  0.7841  1.5850
 1598TIP3    H2 4801   6.250   3.592   1.656 -0.3752 -1.7340 -2.5296
 1599TIP3   OH2 4802   0.589   3.197   1.828  0.0402  0.0641 -0.0783
 1599TIP3    H1 4803   0.513   3.253   1.844 -0.8505 -1.0738 -0.2113
 1599TIP3    H2 4804   0.615   3.215   1.738 -0.2955  0.1921 -0.1467
 1600TIP3   OH2 4805   2.444   4.818   4.818  0.3161 -0.0134 -0.2212
 1600TIP3    H1 4806   2.350   4.809   4.802 -0.0900 -0.0481  1.8433
 1600TIP3    H2 4807   2.484   4.744   4.774 -0.7462 -0.5250 -0.3427
 1601TIP3   OH2 4808   2.532   2.097   1.693 -0.3093 -0.7844  0.2845
 1601TIP3    H1 4809   2.478   2.102   1.614  1.3696  0.0150 -0.8750
 1601TIP3    H2 4810   2.477   2.052   1.757 -1.3918 -2.3048 -1.6148
 1602TIP3   OH2 4811   3.265   2.056   2.524 -0.2585  0.3295  0.8056
 1602TIP3    H1 4812   3.259   1.967   2.559  0.5138  0.1079  0.4062
 1602TIP3    H2 4813   3.174   2.084   2.516 -0.6612 -1.2753 -1.1506
 1603TIP3   OH2 4814   4.130   2.932   4.461  0.0577  0.3299 -0.0114
 1603TIP3    H1 4815   4.116   2.852   4.510  0.6679  0.1233 -0.1622
 1603TIP3    H2 4816   4.068   2.995   4.498  3.0671  1.4192  3.8122
 1604TIP3   OH2 4817   3.978   2.841   1.834  0.2347  0.3447  0.5926
 1604TIP3    H1 4818   3.912   2.884   1.778 -1.0301  0.3656  2.0285
 1604TIP3    H2 4819   4.062   2.868   1.797 -0.4946 -0.8520 -2.2092
 1605TIP3   OH2 4820   4.270   0.633   4.585  0.8591 -0.1511 -0.4068
 1605TIP3    H1 4821   4.352   0.599   4.553 -0.1611 -0.9151 -2.3250
 1605TIP3    H2 4822   4.222   0.557   4.618  0.4723  0.1240 -0.3110
 1606TIP3   OH2 4823   2.310   1.940   1.813  0.1026  0.0216  0.1111
 1606TIP3    H1 4824   2.215   1.938   1.810 -0.0814  0.2812  3.0634
 1606TIP3    H2 4825   2.338   1.874   1.749 -1.9540  0.8997 -1.8183
 1607TIP3   OH2 4826   4.267   2.738   2.841  0.1990 -0.1318  0.1353
 1607TIP3    H1 4827   4.185   2.723   2.795  0.8445 -0.5892 -0.9115
 1607TIP3    H2 4828   4.316   2.656   2.830  2.1248  1.1776 -2.1499
 1608TIP3   OH2 4829   4.092   2.363   1.150 -0.2823  0.1666  0.0956
 1608TIP3    H1 4830   4.053   2.431   1.205  0.4980  0.8283 -0.1452
 1608TIP3    H2 4831   4.121   2.410   1.071 -1.5217 -0.7907 -0.9703
 1609TIP3   OH2 4832   5.148   0.277   3.143  0.1342  0.2342  0.0162
 1609TIP3    H1 4833   5.243   0.284   3.149  0.1540  1.1181 -1.0891
 1609TIP3    H2 4834   5.123   0.338   3.073 -1.1550 -0.6475 -0.3359
 1610TIP3   OH2 4835   4.598   0.158   1.390  0.0996  0.1544 -0.2938
 1610TIP3    H1 4836   4.564   0.130   1.305 -0.5315 -0.2990  0.0997
 1610TIP3    H2 4837   4.634   0.245   1.374 -0.9868  0.5328 -0.7966
 1611TIP3   OH2 4838   0.895   4.621   4.367 -0.8476  0.6347 -0.6272
 1611TIP3    H1 4839   0.969   4.675   4.394 -1.7972  1.4981  0.3490
 1611TIP3    H2 4840   0.827   4.639   4.432 -2.2023  0.4838 -1.9429
 1612TIP3   OH2 4841   1.747   2.105   0.733 -0.0048 -0.0981 -0.4779
 1612TIP3    H1 4842   1.818   2.044   0.752 -0.4713 -0.8567 -1.1079
 1612TIP3    H2 4843   1.757   2.126   0.640 -0.1960  0.3298 -0.4039
 1613TIP3   OH2 4844   2.209   2.795   4.336  0.6929  0.0596 -0.0125
 1613TIP3    H1 4845   2.125   2.822   4.374  0.8530  0.5802 -0.0103
 1613TIP3    H2 4846   2.203   2.822   4.244  0.6532 -0.3853 -0.1413
 1614TIP3   OH2 4847   0.426   5.692   3.367  0.5748  0.1627  0.0290
 1614TIP3    H1 4848   0.501   5.651   3.411  1.7361  2.1833  0.0384
 1614TIP3    H2 4849   0.463   5.766   3.319 -1.1982  0.2132 -1.3738
 1615TIP3   OH2 4850   2.456   3.849   5.109  0.0636  0.3544 -0.3736
 1615TIP3    H1 4851   2.496   3.935   5.096 -0.4777  0.5751 -0.6304
 1615TIP3    H2 4852   2.452   3.838   5.204  0.3043  0.5292 -0.3414
 1616TIP3   OH2 4853   2.688   5.067   2.830 -0.6125  0.0200 -0.3411
 1616TIP3    H1 4854   2.730   4.981   2.839 -1.9830 -0.7381 -0.8070
 1616TIP3    H2 4855   2.752   5.129   2.865  0.6674 -1.1201 -0.5559
 1617TIP3   OH2 4856   0.043   4.883   3.332  0.0878  0.2550  0.2567
 1617TIP3    H1 4857  -0.032   4.843   3.288  1.4135  1.2245 -3.2970
 1617TIP3    H2 4858   0.118   4.858   3.278  1.9367  1.6516  2.0124
 1618TIP3   OH2 4859   3.477   4.682   3.569 -0.2744  0.1148  0.0403
 1618TIP3    H1 4860   3.479   4.757   3.509 -2.2065 -0.4065 -0.7592
 1618TIP3    H2 4861   3.556   4.633   3.548 -0.1145  0.7750 -0.9756
 1619TIP3   OH2 4862   2.751   1.831   3.427  0.2117 -0.2513  0.2794
 1619TIP3    H1 4863   2.804   1.810   3.504 -1.7856 -1.8328  1.3532
 1619TIP3    H2 4864   2.717   1.746   3.398  1.7705  0.1380 -3.1169
 1620TIP3   OH2 4865   4.836   0.566   0.674 -0.6729  0.3072 -0.3166
 1620TIP3    H1 4866   4.860   0.474   0.688 -0.0237  0.7430  1.6057
 1620TIP3    H2 4867   4.755   0.577   0.724  0.0556  1.1342  0.7219
 1621TIP3   OH2 4868   5.537   2.205   3.310 -0.4690  0.6099  0.0561
 1621TIP3    H1 4869   5.443   2.212   3.324 -0.5678 -0.0616 -0.2362
 1621TIP3    H2 4870   5.546   2.149   3.233  0.1311  2.0969 -0.9969
 1622TIP3   OH2 4871   4.598   3.279   3.273 -0.0534 -0.3465 -0.1477
 1622TIP3    H1 4872   4.573   3.229   3.351 -0.1065 -1.0034 -0.5785
 1622TIP3    H2 4873   4.616   3.367   3.306  0.9125 -0.8556  0.7634
 1623TIP3   OH2 4874   5.277   3.866   4.917 -0.3594 -0.7169  0.5146
 1623TIP3    H1 4875   5.215   3.864   4.845  1.4351 -1.3732 -1.0882
 1623TIP3    H2 4876   5.242   3.932   4.977 -2.1976 -0.5612 -0.6591
 1624TIP3   OH2 4877   3.057   2.115   1.464  0.2843 -0.1048 -0.6924
 1624TIP3    H1 4878   3.026   2.044   1.408 -0.1437  0.0466 -0.6515
 1624TIP3    H2 4879   3.064   2.076   1.551  1.5623 -0.5128 -0.9510
 1625TIP3   OH2 4880   2.445   1.909   3.101  0.3755  0.2232 -0.0569
 1625TIP3    H1 4881   2.499   1.985   3.122  0.0509  0.2812  0.5768
 1625TIP3    H2 4882   2.377   1.944   3.044 -0.2484  0.5768  0.8845
 1626TIP3   OH2 4883   4.300   5.891   1.768  0.1469 -0.1592 -0.9379
 1626TIP3    H1 4884   4.273   5.957   1.832  0.6283 -1.0455  0.2110
 1626TIP3    H2 4885   4.396   5.896   1.766  0.1613 -0.4524 -1.2560
 1627TIP3   OH2 4886   6.336   4.838   1.941  0.3379  0.1816 -1.2366
 1627TIP3    H1 4887   6.333   4.810   2.033  2.2099  0.0607 -1.1607
 1627TIP3    H2 4888   6.273   4.910   1.936 -0.7013 -0.6097 -0.1722
 1628TIP3   OH2 4889   0.487   0.317   2.221  0.2649 -0.5875  0.0846
 1628TIP3    H1 4890   0.428   0.354   2.155  1.9332  0.8043 -0.7251
 1628TIP3    H2 4891   0.440   0.326   2.304 -0.4555  1.0398 -0.4511
 1629TIP3   OH2 4892   3.057   4.528   1.561 -0.0675  0.7113  0.0345
 1629TIP3    H1 4893   3.115   4.453   1.571 -1.4416 -0.3664  0.1901
 1629TIP3    H2 4894   3.109   4.592   1.511  0.8904 -0.6007 -0.7065
 1630TIP3   OH2 4895   6.335   1.524   2.329  0.1312 -0.1151  0.0707
 1630TIP3    H1 4896   6.287   1.534   2.247  0.4337 -0.2288 -0.1235
 1630TIP3    H2 4897   6.269   1.497   2.393  0.1112 -1.3555 -0.4347
 1631TIP3   OH2 4898   4.174   4.443   0.044 -0.3365  0.2357 -0.7657
 1631TIP3    H1 4899   4.215   4.501   0.108  0.6573 -0.1634 -1.0247
 1631TIP3    H2 4900   4.146   4.501  -0.027 -2.7596  0.8894  0.6297
 1632TIP3   OH2 4901   5.555   4.950   1.109  0.3832 -0.0805  0.1261
 1632TIP3    H1 4902   5.591   4.897   1.038 -1.5616 -0.7639 -0.4134
 1632TIP3    H2 4903   5.553   5.039   1.075  0.8153 -0.1650 -0.1215
 1633TIP3   OH2 4904   1.267   4.026   2.013 -0.8509 -0.2193  0.2274
 1633TIP3    H1 4905   1.252   4.081   1.937  1.8515 -0.5476 -0.6596
 1633TIP3    H2 4906   1.223   4.071   2.085 -0.7468  1.8214 -0.9319
 1634TIP3   OH2 4907   3.435   5.619   1.751  0.0369 -0.4014 -0.2161
 1634TIP3    H1 4908   3.420   5.550   1.687  0.4661 -0.2156 -0.5225
 1634TIP3    H2 4909   3.424   5.577   1.836  1.2088 -1.0716 -0.3815
 1635TIP3   OH2 4910   2.402   1.012   3.639  0.0862  0.0387 -0.2532
 1635TIP3    H1 4911   2.478   1.037   3.587 -1.6749  1.2675 -2.4450
 1635TIP3    H2 4912   2.426   0.929   3.679  1.9205 -0.5364 -2.3711
 1636TIP3   OH2 4913   3.121   3.234   1.279  0.0639 -0.3236 -0.4706
 1636TIP3    H1 4914   3.215   3.241   1.258  0.2381 -0.7499  0.1570
 1636TIP3    H2 4915   3.104   3.311   1.334  1.0406 -2.3418  2.9603
 1637TIP3   OH2 4916   0.176   1.635   4.151  0.2238 -0.7323 -0.1445
 1637TIP3    H1 4917   0.140   1.694   4.216 -0.6538 -0.5803 -0.7485
 1637TIP3    H2 4918   0.245   1.685   4.108  0.0009 -0.4166 -0.1340
 1638TIP3   OH2 4919   1.646   3.461   3.713  0.2380 -0.2846 -0.4416
 1638TIP3    H1 4920   1.690   3.520   3.652 -0.4100 -1.4534 -2.1130
 1638TIP3    H2 4921   1.640   3.511   3.794  1.8229  1.0477 -1.0772
 1639TIP3   OH2 4922   6.272   5.676   0.570 -0.0124  0.2814 -0.1494
 1639TIP3    H1 4923   6.311   5.707   0.652  0.9762 -0.3583 -0.3595
 1639TIP3    H2 4924   6.344   5.633   0.524 -0.1347  2.0571 -2.1185
 1640TIP3   OH2 4925   2.937   5.411   1.059 -0.2729  0.3973 -0.0690
 1640TIP3    H1 4926   2.854   5.423   1.013  0.0280 -0.1278 -0.7578
 1640TIP3    H2 4927   2.999   5.466   1.012  0.1342 -0.4706 -0.5739
 1641TIP3   OH2 4928   2.726   5.831   4.603 -0.2317  0.1245  0.0038
 1641TIP3    H1 4929   2.752   5.739   4.596 -0.7358 -0.1962  1.7973
 1641TIP3    H2 4930   2.790   5.870   4.662 -1.4596  0.2795  1.2916
 1642TIP3   OH2 4931   3.994   1.870   1.006 -0.4245  0.3095 -0.5282
 1642TIP3    H1 4932   4.076   1.909   1.036 -0.0362 -0.0233 -1.1582
 1642TIP3    H2 4933   3.941   1.945   0.978 -0.1779  0.4839 -0.5269
 1643TIP3   OH2 4934   4.077   1.769   4.492 -0.3636  0.2945 -0.2451
 1643TIP3    H1 4935   4.151   1.828   4.477  0.8761 -1.0176  0.4824
 1643TIP3    H2 4936   4.071   1.761   4.587 -2.3320  1.4033 -0.2130
 1644TIP3   OH2 4937   3.570   5.557   4.001 -0.4097  0.9335  0.3165
 1644TIP3    H1 4938   3.651   5.609   3.991 -1.0211  1.4876 -3.2537
 1644TIP3    H2 4939   3.541   5.542   3.911 -3.1248 -1.1760  1.4259
 1645TIP3   OH2 4940   2.906   3.683   1.353 -0.1524  0.3461  0.5668
 1645TIP3    H1 4941   2.951   3.729   1.424 -2.2190 -0.4417  2.5089
 1645TIP3    H2 4942   2.847   3.749   1.317  0.4821  0.5790 -0.0779
 1646TIP3   OH2 4943   1.360   3.304   1.434 -0.1321 -0.7687  0.3281
 1646TIP3    H1 4944   1.444   3.338   1.463  0.3728 -2.5391  1.0457
 1646TIP3    H2 4945   1.299   3.377   1.446  1.5248  1.0996 -1.6841
 1647TIP3   OH2 4946   3.506   3.970   4.503  0.0831 -0.4765 -0.5648
 1647TIP3    H1 4947   3.433   4.003   4.555  0.3064 -1.3356  0.3313
 1647TIP3    H2 4948   3.584   3.998   4.551  0.3331 -0.2460 -1.0910
 1648TIP3   OH2 4949   4.128   3.744   0.709  0.0092  0.1405 -0.2261
 1648TIP3    H1 4950   4.097   3.654   0.700 -0.4279  0.3973 -1.4347
 1648TIP3    H2 4951   4.061   3.787   0.763  0.5148 -0.3867  0.8467
 1649TIP3   OH2 4952   4.348   4.450   4.697  0.0269  0.8870 -0.3023
 1649TIP3    H1 4953   4.381   4.438   4.786  0.0344 -0.9365 -0.5101
 1649TIP3    H2 4954   4.276   4.513   4.706 -0.0909  0.5860  1.0308
 1650TIP3   OH2 4955   2.511   1.042   5.123  0.3887  0.1170 -0.0697
 1650TIP3    H1 4956   2.572   1.034   5.051 -0.1785 -0.2999 -0.5142
 1650TIP3    H2 4957   2.509   1.135   5.144  1.3476  0.1029  0.1111
 1651TIP3   OH2 4958   5.071   2.488   3.976  0.0473  0.1528 -0.2797
 1651TIP3    H1 4959   4.994   2.432   3.968  0.3325 -0.5946  1.7379
 1651TIP3    H2 4960   5.037   2.577   3.970 -0.8658 -0.1835 -0.2127
 1652TIP3   OH2 4961   2.783   5.171   1.827  0.1573  0.7498 -0.4655
 1652TIP3    H1 4962   2.812   5.128   1.908 -0.7284  1.0064  0.0038
 1652TIP3    H2 4963   2.764   5.099   1.767 -2.5107  0.3276  0.7182
 1653TIP3   OH2 4964   5.167   3.621   2.908  0.3185 -0.1188  0.3469
 1653TIP3    H1 4965   5.193   3.708   2.936 -1.8865  0.7943 -0.2572
 1653TIP3    H2 4966   5.076   3.612   2.937  0.4370 -2.1812  0.2900
 1654TIP3   OH2 4967   0.468   2.797   4.371 -0.0842  0.7075 -0.1122
 1654TIP3    H1 4968   0.422   2.870   4.331  0.4019  0.9804 -0.1875
 1654TIP3    H2 4969   0.557   2.803   4.336 -0.5476 -1.1522 -1.7873
 1655TIP3   OH2 4970   3.901   1.899   3.090  0.0667 -0.2718 -1.0226
 1655TIP3    H1 4971   3.906   1.816   3.138  0.2353  0.3218  0.0209
 1655TIP3    H2 4972   3.835   1.883   3.023 -0.4634 -1.0185 -0.3543
 1656TIP3   OH2 4973   4.734   0.817   4.007 -0.1068 -0.4340  0.7042
 1656TIP3    H1 4974   4.791   0.742   3.990  1.3928  0.5128  1.4172
 1656TIP3    H2 4975   4.645   0.782   3.995  0.5707 -1.4164 -2.6417
 1657TIP3   OH2 4976   1.673   3.638   3.924 -0.3140 -0.8836 -0.1213
 1657TIP3    H1 4977   1.669   3.676   4.012 -0.0102 -0.8882 -0.1059
 1657TIP3    H2 4978   1.648   3.710   3.866  1.7168 -0.1844 -0.2209
 1658TIP3   OH2 4979   2.904   0.040   2.621 -0.1083  0.0837 -0.6092
 1658TIP3    H1 4980   2.886   0.072   2.710 -0.0822 -0.5728 -0.3595
 1658TIP3    H2 4981   2.964   0.105   2.584 -1.2047  1.0992 -0.6491
 1659TIP3   OH2 4982   3.736   5.697   4.464 -0.2392 -0.2051  0.1891
 1659TIP3    H1 4983   3.680   5.775   4.468 -0.1182 -0.1320  0.4846
 1659TIP3    H2 4984   3.766   5.695   4.373  3.1959  2.5395  1.0481
 1660TIP3   OH2 4985   2.258   5.224   1.387  0.2876 -0.3156 -0.0979
 1660TIP3    H1 4986   2.288   5.211   1.297  0.3187  1.0801 -0.3111
 1660TIP3    H2 4987   2.331   5.266   1.431  0.5301 -1.6220  0.7883
 1661TIP3   OH2 4988   2.996   2.139   2.464  0.3991 -0.5468  0.6424
 1661TIP3    H1 4989   2.914   2.133   2.512  0.2097  0.0663  0.4045
 1661TIP3    H2 4990   3.002   2.231   2.436  2.0250 -0.1277  2.1690
 1662TIP3   OH2 4991   2.625   0.579   3.229  0.4793 -0.2218  0.1869
 1662TIP3    H1 4992   2.717   0.573   3.203  0.0439 -1.3076 -1.1879
 1662TIP3    H2 4993   2.584   0.502   3.191 -0.9921  0.1883  0.8799
 1663TIP3   OH2 4994   5.228   4.175   1.777 -0.1854 -0.0533 -0.2443
 1663TIP3    H1 4995   5.236   4.080   1.775  0.9438  0.0417 -1.4724
 1663TIP3    H2 4996   5.134   4.191   1.764  0.0047 -0.9894 -3.8781
 1664TIP3   OH2 4997   0.805   1.596   4.873 -0.0846  0.2205  0.2652
 1664TIP3    H1 4998   0.811   1.525   4.937  0.5342 -1.1778 -1.2553
 1664TIP3    H2 4999   0.716   1.590   4.839 -0.3021  0.7343  0.7364
 1665TIP3   OH2 5000   4.719   4.685   3.561 -0.5432  0.0282  0.1045
 1665TIP3    H1 5001   4.696   4.766   3.607  1.0390  0.9067 -0.5516
 1665TIP3    H2 5002   4.673   4.692   3.477 -2.3784 -0.9616  0.9623
 1666TIP3   OH2 5003   0.452   3.146   1.237  0.0817  0.3376 -0.3109
 1666TIP3    H1 5004   0.402   3.075   1.196  0.0956  0.3481 -0.3468
 1666TIP3    H2 5005   0.387   3.206   1.272  0.0623  0.6213 -0.8225
 1667TIP3   OH2 5006   2.910   0.019   2.298  0.2054  0.2530 -0.7850
 1667TIP3    H1 5007   2.915   0.053   2.387  1.9309 -0.1601 -0.6897
 1667TIP3    H2 5008   2.825  -0.026   2.294  1.3351 -2.4040  1.6674
 1668TIP3   OH2 5009   0.447   4.155   0.831 -0.3132 -0.8266 -0.3349
 1668TIP3    H1 5010   0.364   4.108   0.831 -0.6751 -0.2002 -1.2283
 1668TIP3    H2 5011   0.508   4.095   0.873 -1.3076 -1.1156  0.7343
 1669TIP3   OH2 5012   2.932   1.782   2.100  0.2156 -0.5288 -0.1389
 1669TIP3    H1 5013   2.923   1.875   2.123 -4.2622 -0.2462 -1.9698
 1669TIP3    H2 5014   2.874   1.736   2.161  0.5868 -1.8363 -0.7291
 1670TIP3   OH2 5015   0.351   2.906   5.116  0.9141 -0.0375  0.2109
 1670TIP3    H1 5016   0.282   2.948   5.066  1.2215  1.3136  0.8821
 1670TIP3    H2 5017   0.305   2.851   5.179  0.5181 -1.2581 -1.0856
 1671TIP3   OH2 5018   3.297   3.864   2.560  0.0912 -0.3106  0.1771
 1671TIP3    H1 5019   3.280   3.784   2.509 -1.1157  0.0749 -0.0472
 1671TIP3    H2 5020   3.293   3.934   2.496  0.3813  0.0120  0.5098
 1672TIP3   OH2 5021   1.445   3.495   0.064 -0.4494 -0.6377 -0.0877
 1672TIP3    H1 5022   1.414   3.432   0.130  1.3304 -0.9217  0.5340
 1672TIP3    H2 5023   1.524   3.454   0.027  1.1247  1.4494  0.7678
 1673TIP3   OH2 5024   1.300   3.616   0.519 -0.2025  1.3041 -0.0655
 1673TIP3    H1 5025   1.341   3.530   0.524 -0.1685  1.3850  3.4666
 1673TIP3    H2 5026   1.246   3.613   0.440  0.4274 -1.6390 -0.4807
 1674TIP3   OH2 5027   0.916   1.646   0.395 -0.6766 -0.3754 -0.1190
 1674TIP3    H1 5028   0.876   1.623   0.311 -1.9714  0.3398  0.2781
 1674TIP3    H2 5029   1.010   1.647   0.377 -0.9277 -0.2873 -1.5372
 1675TIP3   OH2 5030   6.059   3.867   2.382 -0.2133 -0.0266 -0.2515
 1675TIP3    H1 5031   6.097   3.779   2.378 -0.5196 -0.1222 -1.3164
 1675TIP3    H2 5032   6.130   3.925   2.354  0.2345  0.1656  1.1964
 1676TIP3   OH2 5033   4.782   4.710   4.262  0.1730 -0.3564 -0.5388
 1676TIP3    H1 5034   4.871   4.693   4.293 -0.2696 -0.9836  0.4510
 1676TIP3    H2 5035   4.727   4.652   4.315 -0.7984 -0.1768 -1.3235
 1677TIP3   OH2 5036   3.853   4.035   0.035 -0.6454 -0.0744 -0.2642
 1677TIP3    H1 5037   3.937   4.000   0.065 -0.0304  2.0269  0.6898
 1677TIP3    H2 5038   3.804   4.054   0.115 -1.9249 -0.9553 -0.8038
 1678TIP3   OH2 5039   4.331   2.917   3.507  0.1662 -0.3492 -0.2202
 1678TIP3    H1 5040   4.338   2.932   3.412  1.0007 -0.2170 -0.1453
 1678TIP3    H2 5041   4.315   2.823   3.515  2.8640 -0.9197 -0.4274
 1679TIP3   OH2 5042   5.070   0.563   1.958 -0.0626 -0.1629 -0.1261
 1679TIP3    H1 5043   5.117   0.644   1.975 -0.7828 -0.0824  1.7151
 1679TIP3    H2 5044   4.983   0.591   1.929  0.1586 -0.2958 -0.9362
 1680TIP3   OH2 5045   2.431   3.088   0.521 -0.4878 -0.6225 -0.0119
 1680TIP3    H1 5046   2.435   3.103   0.615 -0.8268 -2.0096  0.2497
 1680TIP3    H2 5047   2.377   3.010   0.511 -1.2657  0.0433 -1.4266
 1681TIP3   OH2 5048   5.671   2.315   4.170  0.2191 -0.0030 -0.4029
 1681TIP3    H1 5049   5.667   2.364   4.252 -3.1807 -1.4090  0.4505
 1681TIP3    H2 5050   5.652   2.379   4.102  2.8319  1.1232 -0.2053
 1682TIP3   OH2 5051   5.416   5.073   0.781 -0.3220 -0.5564 -0.3994
 1682TIP3    H1 5052   5.408   5.127   0.703 -0.5469 -1.3034 -0.9058
 1682TIP3    H2 5053   5.454   5.131   0.847  0.2951 -0.0395 -1.1943
 1683TIP3   OH2 5054   6.032   0.265   0.476 -0.2351 -0.0739  0.4381
 1683TIP3    H1 5055   6.085   0.209   0.533 -2.0674  0.3136  2.6605
 1683TIP3    H2 5056   6.088   0.340   0.457  0.3776 -0.1286  1.9203
 1684TIP3   OH2 5057   3.925   4.164   4.324  0.7859 -0.2103  0.4026
 1684TIP3    H1 5058   3.832   4.184   4.333  0.7616  0.7149 -1.3530
 1684TIP3    H2 5059   3.932   4.071   4.347 -0.7267 -0.5189 -0.2374
 1685TIP3   OH2 5060   1.941   3.714   3.950  0.0238  0.2122  0.3062
 1685TIP3    H1 5061   1.916   3.655   4.021  2.5518  0.5062  1.5608
 1685TIP3    H2 5062   1.905   3.799   3.975 -0.9506 -0.1311  0.1003
 1686TIP3   OH2 5063   5.123   5.559   3.808 -0.4520 -0.2519 -0.1518
 1686TIP3    H1 5064   5.038   5.593   3.780  0.3615  1.0451 -1.1888
 1686TIP3    H2 5065   5.119   5.560   3.904 -1.2409  0.7582 -0.1784
 1687TIP3   OH2 5066   6.005   3.068   0.942 -0.1579 -0.1737  0.2434
 1687TIP3    H1 5067   6.051   3.146   0.913  0.4836 -0.3564  0.7522
 1687TIP3    H2 5068   6.027   3.060   1.035 -1.6905  0.0690  0.6544
 1688TIP3   OH2 5069   1.784   5.540   0.539 -0.2372 -0.0948  0.0125
 1688TIP3    H1 5070   1.742   5.455   0.535 -0.7965  0.1751  0.0055
 1688TIP3    H2 5071   1.738   5.593   0.474  0.1964  0.1762 -0.0808
 1689TIP3   OH2 5072   5.785   2.855   0.201 -0.0704  0.4382 -0.4159
 1689TIP3    H1 5073   5.809   2.788   0.265  0.7925  0.6487 -0.5058
 1689TIP3    H2 5074   5.708   2.818   0.156  1.3075 -1.2366 -1.5428
 1690TIP3   OH2 5075   0.201   5.655   3.748 -0.3055 -0.2302  0.4796
 1690TIP3    H1 5076   0.201   5.600   3.826  4.2346 -0.0552  0.8825
 1690TIP3    H2 5077   0.218   5.594   3.676 -0.6006  0.0590  0.1623
 1691TIP3   OH2 5078   4.072   3.744   0.437 -0.3158 -0.4307  0.3295
 1691TIP3    H1 5079   4.002   3.686   0.466 -1.5218  0.3633 -0.8899
 1691TIP3    H2 5080   4.106   3.782   0.518 -0.2737 -1.9244  1.0566
 1692TIP3   OH2 5081   1.735   5.503   3.178  0.2019  0.4170 -0.1625
 1692TIP3    H1 5082   1.708   5.509   3.269 -1.4200  2.4491 -0.7106
 1692TIP3    H2 5083   1.814   5.557   3.172  0.9001 -0.5346  0.2029
 1693TIP3   OH2 5084   4.016   4.344   0.301 -0.0823 -0.0483  0.2898
 1693TIP3    H1 5085   3.949   4.406   0.328 -1.4773 -1.7067  0.8593
 1693TIP3    H2 5086   3.982   4.304   0.221  0.0506 -1.1268  0.7467
 1694TIP3   OH2 5087   1.571   1.136   3.103  0.1711 -0.0432  0.3662
 1694TIP3    H1 5088   1.503   1.116   3.038 -0.9121 -2.0582  2.0099
 1694TIP3    H2 5089   1.630   1.196   3.057  0.1666 -2.2810 -2.9211
 1695TIP3   OH2 5090   1.396   5.692   1.230  0.2375  0.2479  0.4185
 1695TIP3    H1 5091   1.316   5.639   1.237  1.1353 -1.2177 -0.0080
 1695TIP3    H2 5092   1.462   5.640   1.276  1.2837  0.7165 -0.5412
 1696TIP3   OH2 5093   3.706   2.358   4.334 -0.5263 -0.0617 -0.1847
 1696TIP3    H1 5094   3.758   2.298   4.281 -0.4665  0.8043 -1.1365
 1696TIP3    H2 5095   3.689   2.433   4.276  0.5056  1.4385  1.3614
 1697TIP3   OH2 5096   5.694   5.273   0.690  0.2132 -0.1842  0.0255
 1697TIP3    H1 5097   5.770   5.218   0.708  0.2949  0.3050  1.2888
 1697TIP3    H2 5098   5.701   5.295   0.597  0.0768 -2.4129 -0.5679
 1698TIP3   OH2 5099   5.842   0.266   4.688  0.2674 -0.2270  0.3361
 1698TIP3    H1 5100   5.813   0.291   4.600  0.6800 -0.8830  0.0105
 1698TIP3    H2 5101   5.938   0.274   4.685  0.3019 -0.5130  0.6447
 1699TIP3   OH2 5102   5.671   0.439   0.575 -0.4203 -0.2136 -0.0621
 1699TIP3    H1 5103   5.585   0.421   0.612  1.1145 -2.3235  2.8390
 1699TIP3    H2 5104   5.699   0.356   0.536  2.4148 -1.5038  4.0364
 1700TIP3   OH2 5105   0.350   1.224   2.589  0.0050  0.1475 -0.0811
 1700TIP3    H1 5106   0.284   1.189   2.529 -1.1514  1.9642  0.0526
 1700TIP3    H2 5107   0.432   1.220   2.540 -0.6570  0.2077 -1.2279
 1701TIP3   OH2 5108   3.068   2.302   4.222 -0.4896 -0.3051 -0.7538
 1701TIP3    H1 5109   2.999   2.365   4.204 -1.2261 -0.4244  1.3850
 1701TIP3    H2 5110   3.050   2.229   4.162 -0.4085  0.8776 -2.2999
 1702TIP3   OH2 5111   4.178   0.785   2.893  0.1836  0.2759  0.1417
 1702TIP3    H1 5112   4.216   0.699   2.874  0.4498  0.1962  1.0192
 1702TIP3    H2 5113   4.083   0.770   2.893  0.2405 -0.6467  2.9793
 1703TIP3   OH2 5114   6.305   1.729   0.522  0.2545 -0.1048  0.5206
 1703TIP3    H1 5115   6.257   1.660   0.568  0.4198 -0.6563 -0.1170
 1703TIP3    H2 5116   6.242   1.764   0.459  0.5269 -0.4894  0.0265
 1704TIP3   OH2 5117   0.953   4.930   1.447 -0.4182 -0.2669 -0.3843
 1704TIP3    H1 5118   1.040   4.905   1.478 -0.3870 -0.9925 -1.0137
 1704TIP3    H2 5119   0.900   4.936   1.527  0.1049 -0.2154 -0.0331
 1705TIP3   OH2 5120   3.284   4.640   3.742 -0.7610  0.1113 -0.6630
 1705TIP3    H1 5121   3.354   4.655   3.680 -0.3137  0.4409 -0.0924
 1705TIP3    H2 5122   3.217   4.592   3.693 -0.7031  0.9319 -1.5706
 1706TIP3   OH2 5123   1.371   1.806   2.962 -0.4116 -0.1232 -0.1165
 1706TIP3    H1 5124   1.334   1.884   2.921  1.1943  0.7909  0.0631
 1706TIP3    H2 5125   1.433   1.840   3.027  1.6901 -1.4973 -1.2687
 1707TIP3   OH2 5126   4.594   0.828   2.041  0.0768  0.2115  0.5372
 1707TIP3    H1 5127   4.618   0.881   1.965 -0.6155  0.0565  0.2015
 1707TIP3    H2 5128   4.595   0.738   2.009  1.0630  0.0317  1.0566
 1708TIP3   OH2 5129   1.153   4.870   0.329 -0.1437 -0.4174 -0.2883
 1708TIP3    H1 5130   1.224   4.925   0.361 -0.5085  0.7579 -1.4291
 1708TIP3    H2 5131   1.138   4.807   0.400  1.0558  0.2131  0.5624
 1709TIP3   OH2 5132   1.639   2.847   4.395 -0.2646 -0.0522 -0.4787
 1709TIP3    H1 5133   1.604   2.902   4.466 -1.1408 -0.8628 -0.2650
 1709TIP3    H2 5134   1.670   2.768   4.440 -0.8934 -0.6019 -0.9916
 1710TIP3   OH2 5135   5.261   4.958   2.324 -0.4319 -0.1346 -0.1874
 1710TIP3    H1 5136   5.220   4.883   2.368 -1.9156 -0.1466 -1.4645
 1710TIP3    H2 5137   5.270   4.930   2.233 -0.1670  0.9130 -0.5002
 1711TIP3   OH2 5138   4.484   4.151   1.729  0.2018  0.3325  0.1786
 1711TIP3    H1 5139   4.531   4.205   1.793 -1.4031  2.2557 -0.1642
 1711TIP3    H2 5140   4.482   4.064   1.769  2.3031  0.6160  1.0737
 1712TIP3   OH2 5141   2.304   4.290   3.794  0.3355 -0.0895  0.1289
 1712TIP3    H1 5142   2.383   4.276   3.846  0.8559  3.0633  0.3700
 1712TIP3    H2 5143   2.336   4.314   3.707 -0.3371  0.5074  0.0326
 1713TIP3   OH2 5144   3.731   1.212   3.831  0.0183  0.2813 -0.0038
 1713TIP3    H1 5145   3.782   1.260   3.766 -3.0495 -0.2158 -3.0831
 1713TIP3    H2 5146   3.775   1.128   3.840  0.6284  0.4548 -1.2566
 1714TIP3   OH2 5147   1.596   4.658   3.863  0.6886 -0.4195  0.0646
 1714TIP3    H1 5148   1.580   4.740   3.910  1.3480 -0.9489  1.2838
 1714TIP3    H2 5149   1.625   4.685   3.776 -1.7220  0.5873 -0.5012
 1715TIP3   OH2 5150   4.710   3.491   2.836  0.0237 -0.1403 -0.3436
 1715TIP3    H1 5151   4.702   3.427   2.907 -0.5818  0.6572  0.3204
 1715TIP3    H2 5152   4.758   3.564   2.875 -0.2974  0.2954 -0.7595
 1716TIP3   OH2 5153   3.464   1.809   0.944 -0.4070 -0.4324  0.0809
 1716TIP3    H1 5154   3.452   1.831   1.037  0.2313  0.4654 -0.0310
 1716TIP3    H2 5155   3.547   1.850   0.921 -0.6741 -0.4524 -0.9575
 1717TIP3   OH2 5156   6.155   4.623   2.363  0.2779  0.2469  0.8081
 1717TIP3    H1 5157   6.108   4.691   2.411  0.1423  1.3303 -0.7772
 1717TIP3    H2 5158   6.087   4.580   2.310  0.8466  1.0579 -0.6302
 1718TIP3   OH2 5159   1.501   3.053   4.518  0.1579 -0.4280 -0.1551
 1718TIP3    H1 5160   1.517   3.045   4.613  0.3855  1.1089 -0.0453
 1718TIP3    H2 5161   1.444   3.129   4.510 -0.2392 -0.8289 -1.2373
 1719TIP3   OH2 5162   2.313   5.685   0.111 -0.4235 -0.2840 -0.4388
 1719TIP3    H1 5163   2.219   5.701   0.114 -0.2811  0.5006  0.1854
 1719TIP3    H2 5164   2.321   5.597   0.074 -1.3470  0.0546 -1.4966
 1720TIP3   OH2 5165   0.857   4.483   2.542 -0.3733 -0.4579  0.5489
 1720TIP3    H1 5166   0.918   4.439   2.601 -1.1343 -0.4836  1.3487
 1720TIP3    H2 5167   0.845   4.570   2.580 -0.2688 -0.1987 -0.0075
 1721TIP3   OH2 5168   0.567   1.298   4.955 -0.2996 -0.0846 -0.0274
 1721TIP3    H1 5169   0.521   1.310   5.038 -0.3414  0.4444 -0.1219
 1721TIP3    H2 5170   0.528   1.220   4.916  2.1694 -2.5677  2.0936
 1722TIP3   OH2 5171   3.015   1.351   2.322 -0.4269  0.4518  0.3847
 1722TIP3    H1 5172   3.103   1.315   2.312 -0.0560  0.2911  3.3439
 1722TIP3    H2 5173   2.960   1.275   2.341 -0.4327  0.9063  2.3997
 1723TIP3   OH2 5174   3.960   3.004   3.530  0.6273 -0.4361  0.0695
 1723TIP3    H1 5175   3.936   2.936   3.467 -1.0135 -0.2453  0.4534
 1723TIP3    H2 5176   3.995   3.075   3.477  2.8419 -1.7058 -0.3093
 1724TIP3   OH2 5177   6.293   3.735   2.556  0.2304  0.3202  0.6086
 1724TIP3    H1 5178   6.353   3.793   2.509 -1.5388  1.1100 -0.7836
 1724TIP3    H2 5179   6.255   3.680   2.488  0.1210 -0.8824  1.6030
 1725TIP3   OH2 5180   2.400   4.372   2.808  0.3329 -0.2575  0.6844
 1725TIP3    H1 5181   2.393   4.450   2.863 -0.3255 -0.6168  1.1321
 1725TIP3    H2 5182   2.466   4.394   2.742 -0.3608  0.9512  0.3550
 1726TIP3   OH2 5183   2.249   2.385   2.033  0.3554  0.4100  0.0299
 1726TIP3    H1 5184   2.308   2.426   1.970 -0.8214  0.7403 -0.9132
 1726TIP3    H2 5185   2.260   2.291   2.018  0.8155  0.4646  0.0279
 1727TIP3   OH2 5186   3.650   1.142   0.916  0.1868  0.0864 -0.1830
 1727TIP3    H1 5187   3.651   1.186   0.831  1.7135 -0.8747 -0.6908
 1727TIP3    H2 5188   3.735   1.098   0.922 -0.4177 -0.9691  1.2659
 1728TIP3   OH2 5189   4.970   3.554   2.329  0.0599  0.0308 -0.0151
 1728TIP3    H1 5190   4.991   3.530   2.419 -0.2777  0.6515  0.2326
 1728TIP3    H2 5191   4.973   3.649   2.327 -1.5629  0.1109 -0.2332
 1729TIP3   OH2 5192   5.655   2.241   0.861 -0.5054 -0.5209  0.2025
 1729TIP3    H1 5193   5.694   2.265   0.946 -0.2885  2.0540 -0.5276
 1729TIP3    H2 5194   5.565   2.215   0.883 -1.4426  2.8513  1.1277
 1730TIP3   OH2 5195   6.288   5.307   0.291  0.2890  0.3670  0.4499
 1730TIP3    H1 5196   6.299   5.290   0.385 -0.1909  1.7425  0.7757
 1730TIP3    H2 5197   6.376   5.302   0.255  0.7240  1.5048  1.2954
 1731TIP3   OH2 5198   2.427   5.599   1.228 -0.1609  0.0642 -0.0621
 1731TIP3    H1 5199   2.463   5.645   1.304  1.9694 -2.1530  0.4200
 1731TIP3    H2 5200   2.504   5.579   1.174 -1.6363  1.9240 -3.1285
 1732TIP3   OH2 5201   1.263   3.956   0.576 -0.6391  0.6656 -0.7144
 1732TIP3    H1 5202   1.196   3.889   0.569  1.6730 -1.6825 -2.3873
 1732TIP3    H2 5203   1.243   4.019   0.507 -1.2925  0.1700 -0.9756
 1733TIP3   OH2 5204   2.678   4.811   0.280 -0.0631 -0.6748 -0.4363
 1733TIP3    H1 5205   2.647   4.844   0.364 -0.5218 -0.4840 -0.6754
 1733TIP3    H2 5206   2.601   4.773   0.239  0.1343 -0.6721 -0.8162
 1734TIP3   OH2 5207   1.209   0.380   3.068  0.2850  0.0605 -0.1987
 1734TIP3    H1 5208   1.223   0.437   3.144 -0.4653  0.7630 -0.5695
 1734TIP3    H2 5209   1.163   0.435   3.005 -0.4175 -0.9332 -0.5894
 1735TIP3   OH2 5210   2.604   2.995   5.008  0.6004  0.5326  0.1288
 1735TIP3    H1 5211   2.659   2.923   4.978  0.3826 -0.1601  1.3342
 1735TIP3    H2 5212   2.585   3.045   4.929  2.1213  0.2209 -0.4790
 1736TIP3   OH2 5213   3.682   4.212   2.776 -0.3946 -0.0997  0.2173
 1736TIP3    H1 5214   3.742   4.274   2.818 -0.2917  0.0475 -0.1417
 1736TIP3    H2 5215   3.643   4.163   2.849  0.0904 -0.1321  0.4618
 1737TIP3   OH2 5216   2.321   1.358   2.834 -0.1061 -0.2664  0.4354
 1737TIP3    H1 5217   2.342   1.433   2.889 -0.9630 -0.4635  1.0516
 1737TIP3    H2 5218   2.407   1.320   2.812  0.4649  1.7939 -1.2430
 1738TIP3   OH2 5219   0.006   4.596   1.210 -0.6100 -0.3281 -0.1549
 1738TIP3    H1 5220  -0.014   4.580   1.303 -0.7411 -1.3661 -0.3502
 1738TIP3    H2 5221   0.053   4.518   1.182  1.1317  0.7836 -0.4953
 1739TIP3   OH2 5222   1.636   4.731   0.282  0.2151  0.0048  0.2002
 1739TIP3    H1 5223   1.628   4.637   0.265  1.3169 -0.3538  1.5115
 1739TIP3    H2 5224   1.560   4.770   0.238 -0.9330 -1.6244  0.6434
 1740TIP3   OH2 5225   2.771   2.833   1.791 -0.6262  0.2556  0.3286
 1740TIP3    H1 5226   2.800   2.824   1.701 -0.4475  0.7554  0.3298
 1740TIP3    H2 5227   2.788   2.748   1.831 -0.3686  0.1436 -0.0161
 1741TIP3   OH2 5228   1.149   0.761   0.209 -0.5295  0.2886 -0.0900
 1741TIP3    H1 5229   1.106   0.678   0.230 -0.3982  0.3856  0.5815
 1741TIP3    H2 5230   1.193   0.744   0.125 -0.5919 -0.2834 -0.0135
 1742TIP3   OH2 5231   4.807   4.013   1.899 -0.3891 -0.8678  0.7366
 1742TIP3    H1 5232   4.749   4.044   1.830 -0.5471  0.4627  1.4379
 1742TIP3    H2 5233   4.893   4.006   1.856 -0.3836  0.3954  0.4885
 1743TIP3   OH2 5234   5.474   1.831   0.375  0.3125 -0.2410 -0.0520
 1743TIP3    H1 5235   5.398   1.779   0.401  0.7899 -0.5885  0.7186
 1743TIP3    H2 5236   5.441   1.920   0.366 -0.0417 -0.2354  1.0869
 1744TIP3   OH2 5237   4.490   2.091   4.885  0.2337  0.3590  0.0750
 1744TIP3    H1 5238   4.443   2.058   4.962  1.7096 -0.1605  0.7846
 1744TIP3    H2 5239   4.487   2.186   4.894 -3.3795  0.5738 -1.5727
 1745TIP3   OH2 5240   0.067   1.965   0.440 -0.0456  0.3911  0.3777
 1745TIP3    H1 5241   0.120   2.021   0.496 -0.3809  0.2142  0.8773
 1745TIP3    H2 5242   0.077   1.877   0.476 -0.4671  0.3156  0.3233
 1746TIP3   OH2 5243   0.517   0.180   1.816  0.1039 -0.2966  0.0548
 1746TIP3    H1 5244   0.467   0.161   1.896 -1.2277 -0.0436 -0.6920
 1746TIP3    H2 5245   0.584   0.112   1.813  0.9718  0.3983  2.0159
 1747TIP3   OH2 5246   4.185   5.374   1.500 -0.4006 -0.0336 -0.1083
 1747TIP3    H1 5247   4.160   5.281   1.502 -0.9223  0.0965 -0.3475
 1747TIP3    H2 5248   4.117   5.416   1.447 -0.1809  0.4895  0.0166
 1748TIP3   OH2 5249   2.844   3.817   3.817  0.7093  0.2574  0.2424
 1748TIP3    H1 5250   2.829   3.758   3.891  1.7915  2.0207  1.9567
 1748TIP3    H2 5251   2.865   3.758   3.744 -1.2873 -1.5929  1.0279
 1749TIP3   OH2 5252   3.974   2.960   2.385  0.5382 -0.5087 -0.1339
 1749TIP3    H1 5253   3.951   2.917   2.303  0.9935 -0.3173 -0.3622
 1749TIP3    H2 5254   3.971   2.890   2.450 -0.0212 -0.6198 -0.2761
 1750TIP3   OH2 5255   2.137   4.710   0.552 -0.1091  0.0093  0.0734
 1750TIP3    H1 5256   2.104   4.622   0.534  2.0785 -1.0472  0.8474
 1750TIP3    H2 5257   2.209   4.696   0.614  0.9933  2.2356 -0.6069
 1751TIP3   OH2 5258   4.865   1.175   3.718 -0.1650 -0.2381  0.1624
 1751TIP3    H1 5259   4.948   1.209   3.753  0.1940  1.0234 -1.7376
 1751TIP3    H2 5260   4.829   1.248   3.668 -2.1933 -0.9405  0.5186
 1752TIP3   OH2 5261   3.081   3.321   4.229 -0.2467  0.0200  0.1119
 1752TIP3    H1 5262   3.020   3.318   4.156  0.3397 -1.1601 -0.3645
 1752TIP3    H2 5263   3.136   3.398   4.212 -0.2972 -0.0831 -0.5533
 1753TIP3   OH2 5264   0.970   0.996   3.961  0.2168 -0.0313 -0.4624
 1753TIP3    H1 5265   0.892   1.053   3.961  0.9973  1.0803 -0.0198
 1753TIP3    H2 5266   0.973   0.961   4.050  1.1206  1.2574  0.0515
 1754TIP3   OH2 5267   5.043   0.173   1.936  0.1970 -0.3144 -0.6083
 1754TIP3    H1 5268   5.119   0.121   1.909  0.2331 -0.4423 -0.2694
 1754TIP3    H2 5269   5.080   0.245   1.987  0.1573  0.1379 -1.2239
 1755TIP3   OH2 5270   3.932   1.684   1.725 -0.1543  0.0550  0.4179
 1755TIP3    H1 5271   4.005   1.632   1.692 -1.3692 -0.6315 -1.3042
 1755TIP3    H2 5272   3.867   1.683   1.655 -1.7787  0.7592  1.8284
 1756TIP3   OH2 5273   3.046   5.548   2.238 -0.8067 -0.1462  0.1472
 1756TIP3    H1 5274   2.963   5.524   2.197 -0.1853 -0.8417 -0.7432
 1756TIP3    H2 5275   3.038   5.517   2.329 -0.9780 -1.5179 -0.3177
 1757TIP3   OH2 5276   1.233   0.555   3.275  0.1490  0.2361  0.0584
 1757TIP3    H1 5277   1.314   0.597   3.245 -0.1919  0.2808 -0.8276
 1757TIP3    H2 5278   1.208   0.604   3.353  1.0427  0.1440  0.4124
 1758TIP3   OH2 5279   2.883   1.188   0.272  0.1595 -0.3428  0.5440
 1758TIP3    H1 5280   2.833   1.112   0.302 -0.8984  0.4993  0.9944
 1758TIP3    H2 5281   2.928   1.219   0.350 -1.9031  1.3256  1.1832
 1759TIP3   OH2 5282   0.615   1.888   1.508 -0.1963  0.3829  0.4634
 1759TIP3    H1 5283   0.645   1.957   1.449  0.4361  0.7719  1.2298
 1759TIP3    H2 5284   0.530   1.919   1.540  0.9565  1.7631  2.3252
 1760TIP3   OH2 5285   4.194   5.760   0.523 -0.4630 -0.2929  0.1735
 1760TIP3    H1 5286   4.255   5.718   0.461 -0.4676  0.5098 -0.3839
 1760TIP3    H2 5287   4.115   5.705   0.518 -0.3763 -0.3802 -0.3495
 1761TIP3   OH2 5288   3.526   1.772   3.888  0.6624 -0.7977 -0.1305
 1761TIP3    H1 5289   3.568   1.814   3.813  0.3530 -1.2349 -0.5541
 1761TIP3    H2 5290   3.534   1.678   3.871 -0.3033 -0.8915 -0.1299
 1762TIP3   OH2 5291   1.618   2.333   4.812 -0.7052  0.2470 -0.5368
 1762TIP3    H1 5292   1.526   2.327   4.839 -1.2975  1.1221 -2.1899
 1762TIP3    H2 5293   1.617   2.393   4.737  1.0735 -0.5323 -1.2462
 1763TIP3   OH2 5294   2.290   4.319   0.097 -0.1077  0.0636  0.0901
 1763TIP3    H1 5295   2.297   4.229   0.066 -1.3914  0.5046 -1.6400
 1763TIP3    H2 5296   2.269   4.370   0.019  1.5512  2.0484  0.8406
 1764TIP3   OH2 5297   4.836   2.983   1.076 -0.2561 -0.2486  0.0846
 1764TIP3    H1 5298   4.838   2.897   1.119 -0.4902 -0.5238 -0.4424
 1764TIP3    H2 5299   4.894   2.973   1.001  1.8283  0.8667  1.4671
 1765TIP3   OH2 5300   4.731   5.471   4.762  0.3122 -0.0954 -0.2364
 1765TIP3    H1 5301   4.727   5.565   4.746  0.4342 -0.2775 -1.4540
 1765TIP3    H2 5302   4.824   5.452   4.773  0.2758 -0.0587  0.1555
 1766TIP3   OH2 5303   4.789   3.171   4.143  0.7244  0.2004 -0.2561
 1766TIP3    H1 5304   4.801   3.266   4.152  0.5867  0.1507  0.4816
 1766TIP3    H2 5305   4.877   3.137   4.127  1.2168  0.1720  2.1268
 1767TIP3   OH2 5306   4.329   3.321   3.358 -0.5446  0.6932  0.3788
 1767TIP3    H1 5307   4.324   3.244   3.414  1.8777  0.2625  0.1171
 1767TIP3    H2 5308   4.330   3.395   3.419  0.4261  0.3161  0.8466
 1768TIP3   OH2 5309   2.659   1.756   2.981  0.1886  0.2835 -0.0228
 1768TIP3    H1 5310   2.716   1.810   2.926 -1.0439 -0.0064 -1.6716
 1768TIP3    H2 5311   2.610   1.819   3.034  0.7755  0.6171  0.1272
 1769TIP3   OH2 5312   6.262   0.210   3.169 -0.8133  0.8975 -0.7435
 1769TIP3    H1 5313   6.357   0.204   3.157 -1.0003 -0.8371 -1.7302
 1769TIP3    H2 5314   6.239   0.128   3.213 -2.0115  0.6023 -1.8546
 1770TIP3   OH2 5315   0.459   2.091   4.228  0.4701 -0.2239 -0.1469
 1770TIP3    H1 5316   0.546   2.057   4.250  1.5366  2.2084 -0.3336
 1770TIP3    H2 5317   0.454   2.087   4.133  0.3004 -0.4709 -0.1312
 1771TIP3   OH2 5318   1.869   3.116   2.884  0.3184 -0.7941  0.4541
 1771TIP3    H1 5319   1.821   3.199   2.880  1.1214 -0.2575  1.5598
 1771TIP3    H2 5320   1.857   3.078   2.797 -0.5609  0.1901  0.1158
 1772TIP3   OH2 5321   3.461   4.202   4.888 -0.3980 -0.6274  0.0151
 1772TIP3    H1 5322   3.488   4.267   4.824 -0.7385 -1.2370 -0.7645
 1772TIP3    H2 5323   3.400   4.248   4.946  0.5618  0.1480  0.4279
 1773TIP3   OH2 5324   1.230   3.557   1.435  0.2083  0.4534 -0.3469
 1773TIP3    H1 5325   1.240   3.652   1.426  1.1904  0.3823 -0.1650
 1773TIP3    H2 5326   1.226   3.524   1.346 -0.5545  0.7019 -0.4081
 1774TIP3   OH2 5327   3.032   0.760   4.958 -0.4422 -0.0984 -0.8270
 1774TIP3    H1 5328   3.024   0.687   4.896 -0.8774 -1.4389  0.7259
 1774TIP3    H2 5329   3.067   0.832   4.906  1.1439 -1.7482 -2.1810
 1775TIP3   OH2 5330   1.537   2.457   3.564  0.5334  0.5201 -0.0800
 1775TIP3    H1 5331   1.578   2.444   3.650  0.5885 -1.7976 -0.3960
 1775TIP3    H2 5332   1.443   2.450   3.580  0.5959 -1.2221 -0.3720
 1776TIP3   OH2 5333   4.679   1.788   3.777 -0.1566 -0.5715 -0.3891
 1776TIP3    H1 5334   4.758   1.742   3.807  0.4197 -0.2791 -1.4284
 1776TIP3    H2 5335   4.631   1.807   3.858  0.4365 -1.4704  0.1929
 1777TIP3   OH2 5336   3.856   2.040   0.073  0.5038 -0.6085  0.2142
 1777TIP3    H1 5337   3.831   1.971   0.012 -0.0838 -0.4684  0.2932
 1777TIP3    H2 5338   3.794   2.031   0.146 -0.7986  1.1740 -0.6049
 1778TIP3   OH2 5339   3.446   3.665   2.046 -0.3318  0.1877 -0.1267
 1778TIP3    H1 5340   3.504   3.737   2.020 -0.0570 -0.0601 -0.2057
 1778TIP3    H2 5341   3.506   3.595   2.070 -0.6029 -0.0896 -0.2636
 1779TIP3   OH2 5342   4.206   0.325   2.449 -0.0160 -0.0790  0.6371
 1779TIP3    H1 5343   4.293   0.315   2.488 -0.2183 -1.7249  0.7390
 1779TIP3    H2 5344   4.163   0.392   2.502  0.3113 -1.0568  2.1964
 1780TIP3   OH2 5345   3.419   5.886   2.180  0.8182 -0.2341 -0.3669
 1780TIP3    H1 5346   3.462   5.856   2.101  1.3068 -0.1896 -0.1217
 1780TIP3    H2 5347   3.378   5.808   2.217  1.5804 -0.4864 -0.0455
 1781TIP3   OH2 5348   0.813   5.445   2.532  0.4263  0.5549  0.3044
 1781TIP3    H1 5349   0.805   5.442   2.628  0.4552  1.5619  0.3466
 1781TIP3    H2 5350   0.804   5.538   2.510  0.1543  0.3036 -0.6962
 1782TIP3   OH2 5351   0.804   4.619   5.088 -0.3633 -0.7969  0.0115
 1782TIP3    H1 5352   0.870   4.576   5.034 -0.0783 -0.5480  0.1600
 1782TIP3    H2 5353   0.852   4.686   5.136 -1.1555  1.2144 -1.8494
 1783TIP3   OH2 5354   6.172   0.046   2.096 -0.4397 -0.2550 -0.4836
 1783TIP3    H1 5355   6.168  -0.040   2.054 -0.4434 -0.0384 -0.9375
 1783TIP3    H2 5356   6.245   0.090   2.052  0.1084 -0.3218  0.3232
 1784TIP3   OH2 5357   0.358   1.475   1.544 -0.1342  0.1506  0.7286
 1784TIP3    H1 5358   0.318   1.542   1.600 -0.3455 -0.5266  1.3941
 1784TIP3    H2 5359   0.346   1.393   1.591 -0.2771 -0.4348 -0.2796
 1785TIP3   OH2 5360   2.366   3.987   0.512 -0.0231  0.2185  0.0011
 1785TIP3    H1 5361   2.341   4.075   0.538  0.8833  0.6564 -0.5683
 1785TIP3    H2 5362   2.362   3.936   0.594  1.0743  1.1723  0.6731
 1786TIP3   OH2 5363   5.322   3.270   0.441 -0.3484  0.6062 -0.0730
 1786TIP3    H1 5364   5.310   3.332   0.369  1.4051 -2.7543 -3.6027
 1786TIP3    H2 5365   5.414   3.244   0.436 -0.3146 -0.3361  3.0245
 1787TIP3   OH2 5366   0.861   3.768   3.078 -0.0648  0.1936 -0.5207
 1787TIP3    H1 5367   0.953   3.778   3.102 -0.6468  1.8297  1.2377
 1787TIP3    H2 5368   0.863   3.724   2.993  2.3554  0.8294 -0.8497
 1788TIP3   OH2 5369   5.520   5.164   1.849  0.2001  0.0850  0.1742
 1788TIP3    H1 5370   5.426   5.176   1.838  0.1999  0.6485  0.7116
 1788TIP3    H2 5371   5.545   5.104   1.779 -0.7779 -1.1299  0.8387
 1789TIP3   OH2 5372   2.828   5.071  -0.017 -0.0554 -0.0171 -0.1211
 1789TIP3    H1 5373   2.908   5.124  -0.013 -0.0326 -0.0508 -0.1297
 1789TIP3    H2 5374   2.799   5.065   0.074  0.4676 -0.7924  0.0042
 1790TIP3   OH2 5375   1.232   2.412   1.811 -0.9122 -0.0591  0.0447
 1790TIP3    H1 5376   1.268   2.325   1.830 -1.5572 -0.4318 -0.4046
 1790TIP3    H2 5377   1.225   2.415   1.716 -1.3748  0.2920  0.0864
 1791TIP3   OH2 5378   4.986   3.226   3.613  0.3137 -0.3277 -0.2511
 1791TIP3    H1 5379   5.015   3.269   3.694 -2.1998 -0.5157  0.8449
 1791TIP3    H2 5380   5.067   3.198   3.571  1.7870  1.0199  1.4920
 1792TIP3   OH2 5381   1.860   4.802   0.433  0.0336 -0.4205 -0.2463
 1792TIP3    H1 5382   1.768   4.813   0.411 -0.0646  1.1729  0.7561
 1792TIP3    H2 5383   1.871   4.708   0.446 -1.4886 -0.6158 -0.2029
 1793TIP3   OH2 5384   4.831   3.480   1.279  0.0748 -0.3124  0.1422
 1793TIP3    H1 5385   4.780   3.554   1.312  1.2519 -0.2499  2.0362
 1793TIP3    H2 5386   4.789   3.403   1.317  1.4347 -0.2404  1.9861
 1794TIP3   OH2 5387   2.164   0.968   1.131 -0.4577 -0.1218  0.4123
 1794TIP3    H1 5388   2.258   0.948   1.139  0.1847  1.5075 -1.8028
 1794TIP3    H2 5389   2.154   1.052   1.176 -0.3634  0.6803 -0.9766
 1795TIP3   OH2 5390   0.227   5.665   2.974 -0.2802  0.2844  0.3915
 1795TIP3    H1 5391   0.210   5.637   3.064 -0.8911 -0.5456  0.0353
 1795TIP3    H2 5392   0.151   5.633   2.924  0.4839 -0.0820 -0.5736
 1796TIP3   OH2 5393   5.352   0.130   2.201  0.0725  0.0794 -0.0899
 1796TIP3    H1 5394   5.428   0.071   2.202  1.8593  2.1302 -2.6721
 1796TIP3    H2 5395   5.340   0.154   2.293  3.7179  0.9932  0.3176
 1797TIP3   OH2 5396   4.608   1.723   1.418  0.2565 -0.2811 -0.4950
 1797TIP3    H1 5397   4.575   1.810   1.396 -0.3189 -0.6387 -1.0763
 1797TIP3    H2 5398   4.639   1.688   1.336  0.9886 -0.4230 -0.1619
 1798TIP3   OH2 5399   0.243   4.081   1.780 -0.1488  0.5552  0.5143
 1798TIP3    H1 5400   0.312   4.041   1.833  0.5458 -1.6880 -1.8440
 1798TIP3    H2 5401   0.284   4.157   1.739  0.1263  0.7237  1.1051
 1799TIP3   OH2 5402   5.308   4.021   2.012 -0.5468  0.2535 -0.2607
 1799TIP3    H1 5403   5.315   3.972   1.930 -2.1280  0.5467 -0.6019
 1799TIP3    H2 5404   5.286   4.110   1.985 -2.6283  0.0262  0.4769
 1800TIP3   OH2 5405   5.629   4.979   0.098  0.3247 -0.2018  0.3676
 1800TIP3    H1 5406   5.700   5.010   0.154  0.0019 -0.3115  0.8424
 1800TIP3    H2 5407   5.667   4.976   0.011  0.6854  0.4426  0.5010
 1801TIP3   OH2 5408   2.611   3.483   0.401  0.0376  0.0446 -0.3600
 1801TIP3    H1 5409   2.518   3.474   0.423 -0.2165 -2.2371 -2.0500
 1801TIP3    H2 5410   2.657   3.427   0.463  0.0924 -0.3346 -0.7423
 1802TIP3   OH2 5411   4.335   4.120   3.241  0.5592 -0.1513  0.2545
 1802TIP3    H1 5412   4.345   4.036   3.286 -1.0339 -0.5453 -0.0579
 1802TIP3    H2 5413   4.413   4.127   3.186  0.4482 -1.7177 -0.1454
 1803TIP3   OH2 5414   1.958   4.956   1.248  0.2982 -0.3070  0.1291
 1803TIP3    H1 5415   2.015   5.024   1.284  0.4512 -0.0194 -0.6349
 1803TIP3    H2 5416   1.956   4.974   1.154 -1.6764  0.1536  0.2314
 1804TIP3   OH2 5417   5.180   3.026   0.288  0.6093  0.0058 -0.3668
 1804TIP3    H1 5418   5.226   3.108   0.302  1.1610 -0.0743 -1.5714
 1804TIP3    H2 5419   5.097   3.036   0.334  0.6200  1.2894 -0.6007
 1805TIP3   OH2 5420   3.042   4.577   4.694  0.1137 -0.0208 -0.4516
 1805TIP3    H1 5421   3.104   4.555   4.764  0.7351  0.7106 -0.7638
 1805TIP3    H2 5422   2.995   4.495   4.677  0.9375 -0.5624 -0.1597
 1806TIP3   OH2 5423   2.850   1.739   3.676 -0.1407 -0.6861  0.3278
 1806TIP3    H1 5424   2.849   1.812   3.737  0.8762  0.0195 -0.4695
 1806TIP3    H2 5425   2.769   1.691   3.694 -0.5161  0.2772  1.2769
 1807TIP3   OH2 5426   1.327   3.951   1.152 -0.1861  0.1825  0.2052
 1807TIP3    H1 5427   1.285   3.923   1.071  1.0018  0.9684 -0.7192
 1807TIP3    H2 5428   1.267   4.016   1.190 -1.0885 -0.7218  0.3495
 1808TIP3   OH2 5429   4.490   1.222   2.502 -0.2557  0.2763  0.6532
 1808TIP3    H1 5430   4.445   1.182   2.427  1.0697  0.4134 -0.2445
 1808TIP3    H2 5431   4.453   1.177   2.578 -1.8594  0.3402 -0.0324
 1809TIP3   OH2 5432   2.548   3.526   1.251  0.2699 -0.0057  0.2640
 1809TIP3    H1 5433   2.508   3.446   1.285 -2.2515  0.4260 -1.4292
 1809TIP3    H2 5434   2.546   3.587   1.324  0.1066 -0.7605  0.9023
 1810TIP3   OH2 5435   0.705   3.565   2.182  0.6275 -0.6618 -0.6625
 1810TIP3    H1 5436   0.610   3.563   2.192  0.7567 -0.5191  1.0510
 1810TIP3    H2 5437   0.725   3.490   2.127 -0.4238 -1.2149 -0.3313
 1811TIP3   OH2 5438   0.224   3.059   4.912  0.8055 -0.1981 -0.1839
 1811TIP3    H1 5439   0.254   3.140   4.870 -0.9930  0.2957 -0.5941
 1811TIP3    H2 5440   0.157   3.025   4.853  0.4817 -1.1883  0.7275
 1812TIP3   OH2 5441   0.231   2.657   3.122  0.0054 -0.5487  0.1547
 1812TIP3    H1 5442   0.324   2.677   3.115  0.7005 -2.4134  2.7193
 1812TIP3    H2 5443   0.207   2.685   3.210 -1.5928 -1.0882 -0.0832
 1813TIP3   OH2 5444   3.051   5.417   4.354  0.8157  0.3758 -0.2782
 1813TIP3    H1 5445   3.086   5.477   4.289  0.8602  0.0890 -0.5221
 1813TIP3    H2 5446   3.032   5.336   4.305  2.1559 -0.3327  0.3130
 1814TIP3   OH2 5447   0.800   5.985   0.206  0.3412  0.3016  0.1997
 1814TIP3    H1 5448   0.839   5.904   0.174  0.8027  0.2933  0.7616
 1814TIP3    H2 5449   0.707   5.966   0.214  0.3379  0.0596 -0.3739
 1815TIP3   OH2 5450   5.029   3.708   3.945 -0.0341  0.0476  0.2834
 1815TIP3    H1 5451   5.024   3.615   3.922 -0.4279 -0.2999  1.6601
 1815TIP3    H2 5452   5.093   3.712   4.016 -1.0102  0.6062  1.1727
 1816TIP3   OH2 5453   0.457   2.881   0.757  0.5512  0.0730  0.5027
 1816TIP3    H1 5454   0.454   2.896   0.663  0.6719  0.0810  0.5003
 1816TIP3    H2 5455   0.458   2.969   0.795 -0.9630  0.0982  0.5621
 1817TIP3   OH2 5456   2.790   4.073   3.420  0.5409 -0.6578 -0.7931
 1817TIP3    H1 5457   2.866   4.040   3.467 -0.4463 -1.4478  0.3038
 1817TIP3    H2 5458   2.821   4.152   3.376  1.0554  1.3244  2.8028
 1818TIP3   OH2 5459   0.187   4.624   5.145  0.2497  0.0153 -0.0527
 1818TIP3    H1 5460   0.191   4.585   5.057 -0.9221 -0.0417 -0.0982
 1818TIP3    H2 5461   0.232   4.561   5.200 -2.4385 -2.0110  0.0392
 1819TIP3   OH2 5462   1.850   5.141   3.820 -0.7157 -0.0101  0.1701
 1819TIP3    H1 5463   1.828   5.064   3.766 -1.8404  1.1208 -1.0608
 1819TIP3    H2 5464   1.927   5.178   3.778  0.0168 -0.5969  0.9484
 1820TIP3   OH2 5465   3.785   2.315   4.598  0.0571 -0.1188  0.2158
 1820TIP3    H1 5466   3.757   2.330   4.507  0.6192 -1.9592 -0.2997
 1820TIP3    H2 5467   3.704   2.289   4.643 -0.0524 -0.1699 -0.0052
 1821TIP3   OH2 5468   0.217   3.317   1.030 -0.3432  0.1136 -0.0284
 1821TIP3    H1 5469   0.259   3.394   0.991 -0.5874  1.0489  1.4941
 1821TIP3    H2 5470   0.241   3.245   0.971  2.6802  0.7405  0.2525
 1822TIP3   OH2 5471   1.805   3.545   2.655 -0.2098 -0.3176 -0.1433
 1822TIP3    H1 5472   1.776   3.557   2.565  0.5735  0.7799 -0.2696
 1822TIP3    H2 5473   1.888   3.498   2.648  0.0203  0.0642 -0.0218
 1823TIP3   OH2 5474   4.959   5.247   4.131 -0.1703  0.3623 -0.6801
 1823TIP3    H1 5475   4.939   5.163   4.173  0.8290  0.5955  0.2875
 1823TIP3    H2 5476   4.874   5.286   4.115 -0.6145 -0.3551 -0.1447
 1824TIP3   OH2 5477   4.408   4.411   0.443 -0.2488 -0.0274  0.6462
 1824TIP3    H1 5478   4.383   4.433   0.533 -1.3614 -3.3764  1.2802
 1824TIP3    H2 5479   4.498   4.380   0.450  0.4451  1.7246  0.1548
 1825TIP3   OH2 5480   5.092   2.468   4.580  0.3973 -0.7535  0.1964
 1825TIP3    H1 5481   5.021   2.427   4.629  0.4331 -1.5816 -0.4337
 1825TIP3    H2 5482   5.101   2.555   4.620 -1.2927 -0.4378 -0.0330
 1826TIP3   OH2 5483   2.970   0.174   3.528  0.5121 -0.1521  0.2812
 1826TIP3    H1 5484   2.996   0.198   3.617  4.7234  1.3085 -1.0753
 1826TIP3    H2 5485   2.933   0.254   3.491  1.4093  0.1343 -0.0407
 1827TIP3   OH2 5486   2.112   1.200   0.682  0.2257 -0.6795 -0.0061
 1827TIP3    H1 5487   2.126   1.197   0.587 -0.8604  0.1988 -0.2178
 1827TIP3    H2 5488   2.096   1.293   0.701 -0.6690 -0.9830  0.8497
 1828TIP3   OH2 5489   3.769   1.479   2.334 -0.8981 -0.0769 -0.3397
 1828TIP3    H1 5490   3.712   1.478   2.411 -2.6538  0.6116 -1.5677
 1828TIP3    H2 5491   3.709   1.489   2.260  0.7397 -0.6476 -1.8052
 1829TIP3   OH2 5492   3.858   0.829   1.787 -0.2135  0.0879 -0.2752
 1829TIP3    H1 5493   3.806   0.750   1.775  1.7648 -1.5507  1.2324
 1829TIP3    H2 5494   3.901   0.817   1.872  0.1448  2.8379  0.0411
 1830TIP3   OH2 5495   0.464   1.359   0.598  0.2778  0.6583  0.0464
 1830TIP3    H1 5496   0.509   1.438   0.566 -0.0831  0.5196 -0.8430
 1830TIP3    H2 5497   0.515   1.331   0.674  0.5059  1.6593  0.2782
 1831TIP3   OH2 5498   4.259   2.860   0.600 -0.1014  0.1875  0.5984
 1831TIP3    H1 5499   4.210   2.801   0.656  0.8369 -1.2204 -0.0272
 1831TIP3    H2 5500   4.243   2.828   0.511 -1.0016  1.9561  0.0741
 1832TIP3   OH2 5501   2.355   1.702   1.706 -0.1033  0.1024  0.3951
 1832TIP3    H1 5502   2.278   1.649   1.729 -0.0411 -0.6199 -0.9453
 1832TIP3    H2 5503   2.430   1.649   1.734 -0.0513  1.1998  2.5260
 1833TIP3   OH2 5504   2.466   5.094   3.043 -0.2377  0.0944 -0.3372
 1833TIP3    H1 5505   2.532   5.084   2.974 -0.7330  1.5051 -1.0682
 1833TIP3    H2 5506   2.512   5.073   3.124  0.4192 -1.4137 -1.0626
 1834TIP3   OH2 5507   0.571   0.568   4.697  0.0585 -0.3045 -0.2575
 1834TIP3    H1 5508   0.660   0.560   4.663  0.3176  0.5236  0.2207
 1834TIP3    H2 5509   0.529   0.485   4.672  0.8890 -0.6114 -0.6762
 1835TIP3   OH2 5510   0.919   5.367   3.296  0.3983  0.3740  0.0672
 1835TIP3    H1 5511   0.899   5.319   3.377 -0.7586  0.4753 -0.1357
 1835TIP3    H2 5512   0.839   5.360   3.244  1.4576 -0.5700 -1.5220
 1836TIP3   OH2 5513   5.927   0.823   0.503  0.1767 -0.3791 -0.4076
 1836TIP3    H1 5514   5.854   0.768   0.475  0.1765  0.7800 -2.9320
 1836TIP3    H2 5515   5.904   0.911   0.474  2.2609  0.1264 -0.7148
 1837TIP3   OH2 5516   2.162   0.872   3.646  0.1872  0.3989  0.1745
 1837TIP3    H1 5517   2.239   0.927   3.661  0.2846  0.1011  0.7787
 1837TIP3    H2 5518   2.175   0.836   3.558  0.1102  1.3557 -0.2435
 1838TIP3   OH2 5519   5.988   3.646   0.665 -0.7752 -0.2588 -0.2080
 1838TIP3    H1 5520   5.995   3.601   0.580 -1.0776  2.6230 -1.8780
 1838TIP3    H2 5521   6.078   3.661   0.692 -0.6249  1.0088 -1.3227
 1839TIP3   OH2 5522   2.602   5.464   3.647 -0.0727 -0.0817 -0.5390
 1839TIP3    H1 5523   2.581   5.550   3.685  2.1623  1.2283 -2.0796
 1839TIP3    H2 5524   2.628   5.411   3.722 -0.5084  0.8792  0.3220
 1840TIP3   OH2 5525   3.420   1.203   3.569  0.2068 -0.5229  0.1723
 1840TIP3    H1 5526   3.444   1.201   3.476  0.3790  2.3373  0.0735
 1840TIP3    H2 5527   3.494   1.162   3.614  1.3528  0.4416 -0.7788
 1841TIP3   OH2 5528   5.189   5.372   1.359 -0.1564 -0.5827 -1.1966
 1841TIP3    H1 5529   5.111   5.421   1.335 -0.0503  0.8895  1.1029
 1841TIP3    H2 5530   5.165   5.328   1.441  0.8042 -1.7755 -1.5211
 1842TIP3   OH2 5531   3.656   2.455   3.571  0.7435 -0.1799  0.5195
 1842TIP3    H1 5532   3.579   2.498   3.608  0.7727 -0.2268  0.6353
 1842TIP3    H2 5533   3.730   2.497   3.615  0.7883 -0.0694  0.3400
 1843TIP3   OH2 5534   0.263   1.488   4.610 -0.0908  0.2463  0.2564
 1843TIP3    H1 5535   0.201   1.559   4.627  0.2481  1.5476 -3.1106
 1843TIP3    H2 5536   0.269   1.484   4.514  2.1427 -2.4063  0.3768
 1844TIP3   OH2 5537   4.284   0.507   2.827  0.1128  0.0672  0.0907
 1844TIP3    H1 5538   4.315   0.505   2.917 -0.0308 -0.7873  0.1255
 1844TIP3    H2 5539   4.357   0.545   2.777 -0.8454  3.3729  0.9372
 1845TIP3   OH2 5540   6.067   0.506   2.049  0.0395 -0.4097  0.2408
 1845TIP3    H1 5541   6.059   0.412   2.065  0.1891 -0.6624 -1.0886
 1845TIP3    H2 5542   5.983   0.531   2.012  0.7497 -0.5000 -1.5472
 1846TIP3   OH2 5543   2.788   3.233   1.431  0.3223  0.4517  0.4088
 1846TIP3    H1 5544   2.770   3.193   1.517 -2.0676  1.0152  0.2408
 1846TIP3    H2 5545   2.702   3.261   1.400  0.9955 -0.4847 -2.5754
 1847TIP3   OH2 5546   2.964   4.709   0.640  0.1391  0.2477 -0.1323
 1847TIP3    H1 5547   2.934   4.788   0.684  2.9886  2.2300 -1.4084
 1847TIP3    H2 5548   3.039   4.679   0.691 -1.2412 -2.1241  0.6836
 1848TIP3   OH2 5549   6.252   1.789   0.921  0.1197  0.1577 -0.4533
 1848TIP3    H1 5550   6.250   1.871   0.873 -0.4151 -0.4186 -1.4313
 1848TIP3    H2 5551   6.164   1.754   0.914  0.7607 -1.3151 -1.4987
 1849TIP3   OH2 5552   1.051   4.669   0.980  0.3196  0.5624  0.2489
 1849TIP3    H1 5553   1.105   4.743   1.009 -1.1743  1.7380  0.1341
 1849TIP3    H2 5554   1.003   4.643   1.059 -2.6047  2.7730 -0.6468
 1850TIP3   OH2 5555   4.687   1.688   1.114  0.3493 -0.1539  0.2628
 1850TIP3    H1 5556   4.759   1.727   1.163  0.4216 -0.3137  0.2850
 1850TIP3    H2 5557   4.682   1.598   1.146 -2.5593  0.9021  3.4405
 1851TIP3   OH2 5558   0.147   3.299   4.491 -0.8454 -0.1011  0.7695
 1851TIP3    H1 5559   0.139   3.379   4.542 -0.9912  0.5466 -0.2334
 1851TIP3    H2 5560   0.204   3.322   4.418 -0.6510 -0.9974  0.6225
 1852TIP3   OH2 5561   0.514   5.154   2.409  0.6634  0.2516  0.8622
 1852TIP3    H1 5562   0.551   5.084   2.463  2.3985  2.1613  2.3082
 1852TIP3    H2 5563   0.580   5.168   2.341 -0.7407 -0.9943 -0.8345
 1853TIP3   OH2 5564   1.993   1.085   3.786 -0.4822 -0.6375 -0.1613
 1853TIP3    H1 5565   2.085   1.108   3.776 -0.4505 -0.2565  0.8489
 1853TIP3    H2 5566   1.983   1.003   3.739  0.3238 -0.5687 -0.4640
 1854TIP3   OH2 5567   0.754   4.176   0.375  0.2334  0.2608 -0.2481
 1854TIP3    H1 5568   0.686   4.154   0.438 -0.0527 -0.7270 -0.8664
 1854TIP3    H2 5569   0.823   4.219   0.426  0.3049 -1.1031  0.8549
 1855TIP3   OH2 5570   3.329   1.931   2.957  0.6805 -0.0251 -0.7958
 1855TIP3    H1 5571   3.362   1.858   2.905  1.2228 -2.1927  2.2695
 1855TIP3    H2 5572   3.399   1.949   3.020  0.2984  2.8029 -1.0696
 1856TIP3   OH2 5573   5.371   4.638   1.505  0.3201  0.1068 -0.6697
 1856TIP3    H1 5574   5.428   4.702   1.462  1.8803 -0.1628  0.8869
 1856TIP3    H2 5575   5.430   4.585   1.558 -1.3227 -0.6593  0.4701
 1857TIP3   OH2 5576   3.973   0.087   3.348  0.2095  0.1234 -0.2140
 1857TIP3    H1 5577   3.902   0.079   3.285 -1.6782  1.5851  1.5813
 1857TIP3    H2 5578   3.981   0.181   3.364  0.0944 -0.2151  2.2156
 1858TIP3   OH2 5579   0.673   5.189   1.129  0.3671  0.4048 -0.5312
 1858TIP3    H1 5580   0.707   5.123   1.069 -0.8778 -1.5753  0.8112
 1858TIP3    H2 5581   0.579   5.172   1.132  0.3907  0.3965  1.9308
 1859TIP3   OH2 5582   1.767   4.425   3.241 -0.7184 -0.1843  0.1707
 1859TIP3    H1 5583   1.775   4.483   3.318  0.4692 -1.2494  0.8773
 1859TIP3    H2 5584   1.699   4.467   3.187 -1.1755  0.8986  1.5193
 1860TIP3   OH2 5585   0.736   0.763   1.132  0.0614 -0.4070  0.1149
 1860TIP3    H1 5586   0.681   0.841   1.123 -0.3822 -0.7436 -0.1558
 1860TIP3    H2 5587   0.684   0.692   1.092 -0.5145 -1.2871  2.2667
 1861TIP3   OH2 5588   1.185   5.341   3.173  0.6675  0.2512  0.1218
 1861TIP3    H1 5589   1.255   5.343   3.238  1.2170 -0.0228 -0.4604
 1861TIP3    H2 5590   1.104   5.347   3.225  1.1327  1.8528  0.7161
 1862TIP3   OH2 5591   0.144   5.328   3.348  0.1764 -0.4323 -0.0429
 1862TIP3    H1 5592   0.091   5.290   3.278  0.2709 -0.3405 -0.1657
 1862TIP3    H2 5593   0.084   5.338   3.422  0.1394 -0.7749 -0.0249
 1863TIP3   OH2 5594   4.662   3.721   3.236  0.3786 -0.0653  0.0550
 1863TIP3    H1 5595   4.645   3.780   3.309  1.0271 -0.7397  0.7631
 1863TIP3    H2 5596   4.643   3.633   3.271 -1.5050 -0.2457 -1.2525
 1864TIP3   OH2 5597   3.167   4.337   4.314  0.3200  0.8114  0.7124
 1864TIP3    H1 5598   3.209   4.372   4.236  1.4824  1.2527  1.4994
 1864TIP3    H2 5599   3.218   4.373   4.387 -0.1187 -0.3592  1.6418
 1865TIP3   OH2 5600   6.075   4.844   3.979  0.5843 -0.0639 -0.4311
 1865TIP3    H1 5601   6.037   4.762   4.010  0.8783 -1.1893 -2.8314
 1865TIP3    H2 5602   6.169   4.831   3.985  0.6374  0.3488 -0.2783
 1866TIP3   OH2 5603   1.904   1.245   2.187 -0.4362 -0.1059 -0.6906
 1866TIP3    H1 5604   1.914   1.225   2.094 -0.3928  0.9612 -0.9295
 1866TIP3    H2 5605   1.993   1.262   2.218 -0.5809  1.0680 -0.8410
 1867TIP3   OH2 5606   4.682   5.197   0.321  0.2456  0.3850 -0.3267
 1867TIP3    H1 5607   4.675   5.151   0.404 -0.2861  1.1629  0.0608
 1867TIP3    H2 5608   4.613   5.159   0.266 -0.7959  1.3427  0.2968
 1868TIP3   OH2 5609   6.118   4.371   1.054 -0.4330 -0.2400  0.3276
 1868TIP3    H1 5610   6.034   4.348   1.094 -0.6272  1.0790  0.7385
 1868TIP3    H2 5611   6.172   4.293   1.066 -1.4176 -0.9157  0.5439
 1869TIP3   OH2 5612   4.192   3.182   2.572  0.0761 -0.8278  0.5128
 1869TIP3    H1 5613   4.235   3.102   2.601  0.5146 -0.8565 -0.1838
 1869TIP3    H2 5614   4.100   3.168   2.591  0.1440 -1.5157  0.3750
 1870TIP3   OH2 5615   3.422   3.527   3.807 -0.6211 -0.4965 -0.2017
 1870TIP3    H1 5616   3.338   3.551   3.847 -1.8086 -2.2865 -1.5140
 1870TIP3    H2 5617   3.452   3.453   3.859  0.4064  0.3943  0.5222
 1871TIP3   OH2 5618   2.522   5.574   2.751 -0.4156  0.0301 -0.6551
 1871TIP3    H1 5619   2.441   5.622   2.734 -1.3918 -1.5342 -0.6501
 1871TIP3    H2 5620   2.497   5.482   2.744  0.9979 -0.5373  0.9908
 1872TIP3   OH2 5621   2.008   0.680   1.339  0.1867 -0.3229 -0.2787
 1872TIP3    H1 5622   1.944   0.654   1.272 -0.1759 -0.9590  0.3052
 1872TIP3    H2 5623   2.093   0.668   1.296  0.0552 -2.7493  0.0066
 1873TIP3   OH2 5624   3.878   2.870   3.299  0.3174 -0.3994 -0.3680
 1873TIP3    H1 5625   3.788   2.847   3.325  0.8867 -0.4047  1.7872
 1873TIP3    H2 5626   3.869   2.900   3.209 -1.6104 -1.8460 -0.7382
 1874TIP3   OH2 5627   0.963   5.788   0.123 -0.0006 -0.8712  0.0268
 1874TIP3    H1 5628   0.919   5.717   0.076  1.0098 -1.0969 -0.6048
 1874TIP3    H2 5629   1.028   5.744   0.177  0.5205 -0.4386 -0.2412
 1875TIP3   OH2 5630   5.832   1.155   4.261  0.5084 -0.1079 -0.2857
 1875TIP3    H1 5631   5.855   1.241   4.223 -1.6327  1.2397  1.2623
 1875TIP3    H2 5632   5.785   1.110   4.191 -0.3365  0.9327 -0.4139
 1876TIP3   OH2 5633   3.147   2.570   3.798  0.2600  0.2162  0.0508
 1876TIP3    H1 5634   3.147   2.641   3.862  3.1589 -0.0262  0.4389
 1876TIP3    H2 5635   3.140   2.490   3.849  0.0610  0.0976 -0.1557
 1877TIP3   OH2 5636   5.906   3.716   3.736 -0.1840  0.3050  0.3279
 1877TIP3    H1 5637   5.892   3.683   3.647 -1.3225 -2.2294  1.3344
 1877TIP3    H2 5638   5.860   3.800   3.738  0.5604  0.8212 -1.6705
 1878TIP3   OH2 5639   4.236   2.079   0.583  0.1099  0.8748  0.1750
 1878TIP3    H1 5640   4.323   2.086   0.544  0.2141 -0.8460  0.0460
 1878TIP3    H2 5641   4.246   2.115   0.671  1.1599 -0.0390  0.4471
 1879TIP3   OH2 5642   3.567   0.606   3.135 -0.1810 -0.6082 -0.7324
 1879TIP3    H1 5643   3.477   0.576   3.147 -0.2013 -0.0376  0.7257
 1879TIP3    H2 5644   3.620   0.528   3.149 -0.3137 -0.3518  1.6397
 1880TIP3   OH2 5645   6.263   2.375   3.652 -0.2234  1.2836 -0.3360
 1880TIP3    H1 5646   6.246   2.327   3.734 -1.0994  0.6917 -0.8503
 1880TIP3    H2 5647   6.228   2.463   3.669 -0.0574  1.2777  0.0573
 1881TIP3   OH2 5648   3.827   3.324   4.046 -0.4078  0.1866  0.0937
 1881TIP3    H1 5649   3.889   3.368   3.987 -0.7586 -0.0291 -0.4456
 1881TIP3    H2 5650   3.742   3.362   4.024 -0.4692  0.4928  0.8470
 1882TIP3   OH2 5651   3.798   1.894   4.151 -0.5407 -0.2916 -0.3342
 1882TIP3    H1 5652   3.802   1.830   4.223  0.3309 -1.6949 -1.5684
 1882TIP3    H2 5653   3.759   1.845   4.079 -1.0086  0.9696 -0.9453
 1883TIP3   OH2 5654   3.459   0.696   4.645  0.2738 -0.1899 -0.1486
 1883TIP3    H1 5655   3.383   0.728   4.597 -0.3484  0.3288  1.1223
 1883TIP3    H2 5656   3.494   0.626   4.590 -0.1277  0.6627 -1.5448
 1884TIP3   OH2 5657   0.379   2.062   2.848  0.2099  0.3602  0.0493
 1884TIP3    H1 5658   0.418   2.000   2.910 -1.6035  0.4116  1.3027
 1884TIP3    H2 5659   0.354   2.137   2.901 -0.5304  0.8062 -0.9040
 1885TIP3   OH2 5660   2.138   4.475   4.882  0.1560 -0.2133 -0.0099
 1885TIP3    H1 5661   2.185   4.551   4.849 -0.5283  0.1647 -0.1507
 1885TIP3    H2 5662   2.050   4.509   4.903  0.0946 -0.7779  0.7139
 1886TIP3   OH2 5663   4.775   1.864   3.159 -0.0247 -0.4258 -0.3831
 1886TIP3    H1 5664   4.710   1.881   3.090 -0.3419 -0.3620 -0.0710
 1886TIP3    H2 5665   4.814   1.949   3.177  0.6289 -0.5739 -1.0428
 1887TIP3   OH2 5666   5.998   2.689   0.251  0.3709 -0.2274  0.6439
 1887TIP3    H1 5667   5.966   2.664   0.337 -1.0081  0.2169  0.2732
 1887TIP3    H2 5668   5.998   2.785   0.251 -1.3980 -0.1913 -0.4540
 1888TIP3   OH2 5669   4.245   1.757   1.257 -0.0191 -0.3656 -0.3738
 1888TIP3    H1 5670   4.333   1.779   1.288  0.1780 -0.3239 -0.9403
 1888TIP3    H2 5671   4.189   1.763   1.334  0.6466 -1.3703  0.2110
 1889TIP3   OH2 5672   3.956   3.830   3.104  0.5048 -0.2790  0.3328
 1889TIP3    H1 5673   4.020   3.782   3.052  1.8081 -0.9867  2.4663
 1889TIP3    H2 5674   3.913   3.888   3.041  1.7091 -1.3403 -1.5722
 1890TIP3   OH2 5675   1.843   5.677   3.892 -0.2542  0.4910  0.1903
 1890TIP3    H1 5676   1.831   5.750   3.831 -1.1645  0.2001  0.0068
 1890TIP3    H2 5677   1.855   5.718   3.977  0.8780  0.9009 -0.1522
 1891TIP3   OH2 5678   3.839   1.180   2.178  0.2734  0.2601  0.6814
 1891TIP3    H1 5679   3.789   1.101   2.198 -0.3593  0.8915  1.6807
 1891TIP3    H2 5680   3.925   1.164   2.215 -0.0708  0.3224  1.5188
 1892TIP3   OH2 5681   5.896   0.744   0.856 -0.3416  0.3605 -0.1968
 1892TIP3    H1 5682   5.987   0.717   0.840 -0.3716  0.7637 -1.1458
 1892TIP3    H2 5683   5.847   0.662   0.861 -0.2747  0.1646 -1.9950
 1893TIP3   OH2 5684   4.559   3.318   1.048 -0.1386  0.3516 -0.2106
 1893TIP3    H1 5685   4.632   3.285   0.995  0.7396  0.3656  0.9640
 1893TIP3    H2 5686   4.573   3.413   1.051 -0.4742  0.4083 -0.3558
 1894TIP3   OH2 5687   2.824   1.790   0.503 -0.0763  0.1939 -0.8040
 1894TIP3    H1 5688   2.914   1.772   0.476  0.1832  2.1640 -1.4364
 1894TIP3    H2 5689   2.777   1.806   0.421 -1.0413 -0.8207 -0.4814
 1895TIP3   OH2 5690   5.570   3.815   0.192  0.4402 -0.2192 -0.2256
 1895TIP3    H1 5691   5.482   3.851   0.207  0.5231 -0.6491  1.4239
 1895TIP3    H2 5692   5.564   3.774   0.105 -0.7570  0.4138 -0.4691
 1896TIP3   OH2 5693   5.631   1.624   2.928 -0.2186  0.0334 -0.1059
 1896TIP3    H1 5694   5.637   1.610   3.023  0.2204 -0.6183 -0.2204
 1896TIP3    H2 5695   5.581   1.704   2.919  0.5154  0.6144  0.7122
 1897TIP3   OH2 5696   1.294   5.348   2.060  0.0479  0.3206 -0.6381
 1897TIP3    H1 5697   1.237   5.351   2.137  2.0944  1.0805  0.9555
 1897TIP3    H2 5698   1.311   5.255   2.047  0.0189  0.1930  0.1519
 1898TIP3   OH2 5699   0.840   2.286   3.479 -0.2921 -0.2778  0.3849
 1898TIP3    H1 5700   0.824   2.292   3.385  2.4430  0.5437 -0.1121
 1898TIP3    H2 5701   0.872   2.373   3.503  0.5811 -0.9322  1.7215
 1899TIP3   OH2 5702   3.968   2.078   3.919 -0.6480 -0.2395 -0.1347
 1899TIP3    H1 5703   3.873   2.068   3.913 -0.7187  0.5685 -0.5127
 1899TIP3    H2 5704   3.991   2.131   3.843 -0.0592  0.5680  0.5896
 1900TIP3   OH2 5705   2.172   4.712   0.268  0.5540 -0.9838 -0.3501
 1900TIP3    H1 5706   2.149   4.732   0.358 -1.0423  1.5432 -1.2200
 1900TIP3    H2 5707   2.117   4.636   0.246 -1.3883  0.2460 -0.0375
 1901TIP3   OH2 5708   1.262   0.190   4.151  0.0985  0.2478  0.1806
 1901TIP3    H1 5709   1.314   0.110   4.152 -0.8903 -0.4192  1.4234
 1901TIP3    H2 5710   1.188   0.171   4.209  0.1108  2.2389  0.9220
 1902TIP3   OH2 5711   3.267   1.420   0.710 -0.1205  0.1293  0.5717
 1902TIP3    H1 5712   3.295   1.418   0.618  0.1460  0.3511  0.6490
 1902TIP3    H2 5713   3.288   1.508   0.740 -2.9491  1.1283 -0.0165
 1903TIP3   OH2 5714   0.524   5.939   0.278 -0.3082 -0.1755 -0.5436
 1903TIP3    H1 5715   0.510   5.857   0.324 -0.0305 -0.9469 -1.7873
 1903TIP3    H2 5716   0.492   6.007   0.339  2.7847 -0.8364  2.0623
 1904TIP3   OH2 5717   3.683   0.624   4.173 -0.3278  0.3636 -0.4773
 1904TIP3    H1 5718   3.684   0.538   4.130 -2.1587 -0.0422  0.2245
 1904TIP3    H2 5719   3.677   0.687   4.101 -1.8801 -0.2465 -0.9288
 1905TIP3   OH2 5720   5.274   2.412   4.170  0.2484 -0.0512  0.0323
 1905TIP3    H1 5721   5.336   2.363   4.115  0.1598 -0.7054  0.4960
 1905TIP3    H2 5722   5.198   2.425   4.113  0.8949  0.9812 -0.6242
 1906TIP3   OH2 5723   5.026   2.594   0.269 -0.3343 -0.8058 -0.2632
 1906TIP3    H1 5724   5.078   2.647   0.208  0.2253  0.5308  1.2830
 1906TIP3    H2 5725   4.940   2.636   0.270  0.1402  0.2493  1.0429
 1907TIP3   OH2 5726   2.627   3.999   4.618 -0.0170  0.0052  0.0460
 1907TIP3    H1 5727   2.545   3.958   4.646  0.6775 -0.2520  1.8257
 1907TIP3    H2 5728   2.624   3.995   4.523 -2.6167  1.0926 -0.0158
 1908TIP3   OH2 5729   4.088   1.409   0.319  0.0843 -0.2595  0.5999
 1908TIP3    H1 5730   4.164   1.351   0.310  1.5207  1.5363  0.3257
 1908TIP3    H2 5731   4.081   1.424   0.413  2.0163  1.8655  0.4878
 1909TIP3   OH2 5732   2.083   0.319   3.142  0.0939  0.2356 -0.0625
 1909TIP3    H1 5733   2.164   0.279   3.109  0.3649  0.8179 -0.1201
 1909TIP3    H2 5734   2.013   0.274   3.095  0.3797 -0.2899  0.0024
 1910TIP3   OH2 5735   4.862   4.057   3.581  0.4076 -0.1132 -0.3576
 1910TIP3    H1 5736   4.878   4.149   3.560  0.9114 -0.4706 -1.6771
 1910TIP3    H2 5737   4.873   4.051   3.676  2.3803  0.8203 -0.4841
 1911TIP3   OH2 5738   0.104   2.997   3.430 -0.2177  0.3147  0.3413
 1911TIP3    H1 5739   0.184   3.049   3.421  1.1460 -1.5515  1.2303
 1911TIP3    H2 5740   0.038   3.047   3.380  1.4968  1.8111 -0.5561
 1912TIP3   OH2 5741   2.940   5.361   3.586  0.1604 -0.0174 -0.2867
 1912TIP3    H1 5742   2.946   5.277   3.632 -0.1340 -0.4848 -1.0687
 1912TIP3    H2 5743   2.910   5.423   3.652 -0.4921 -0.7198  0.0943
 1913TIP3   OH2 5744   0.484   4.258   0.056  0.0037  0.2288 -0.2702
 1913TIP3    H1 5745   0.429   4.270  -0.021  1.1188  1.4928 -0.9061
 1913TIP3    H2 5746   0.550   4.194   0.030  0.1893  0.4148 -0.2617
 1914TIP3   OH2 5747   0.483   1.678   4.353  0.0090 -0.7421  0.5288
 1914TIP3    H1 5748   0.517   1.708   4.437  1.2874 -0.9720  0.1292
 1914TIP3    H2 5749   0.554   1.697   4.291  0.1373 -2.8357 -0.0468
 1915TIP3   OH2 5750   4.217   2.651   4.972 -0.2796  0.1724 -0.2013
 1915TIP3    H1 5751   4.155   2.641   5.044 -1.2939 -2.1238 -1.2909
 1915TIP3    H2 5752   4.279   2.716   5.003 -2.6596  1.8822  1.3305
 1916TIP3   OH2 5753   2.209   5.251   0.664  0.0631  0.3193  0.4687
 1916TIP3    H1 5754   2.114   5.241   0.669 -0.0356  0.6009 -0.7149
 1916TIP3    H2 5755   2.228   5.260   0.571  1.2875 -0.0583  0.6602
 1917TIP3   OH2 5756   1.876   4.835   5.050 -0.2559 -0.3393 -0.0206
 1917TIP3    H1 5757   1.806   4.901   5.055  0.9860  0.9236  1.5639
 1917TIP3    H2 5758   1.954   4.881   5.080  0.8463 -2.3082  0.2479
 1918TIP3   OH2 5759   3.043   1.542   1.335 -0.3625  0.4390 -0.1886
 1918TIP3    H1 5760   3.035   1.539   1.240  1.5462 -0.1515 -0.3793
 1918TIP3    H2 5761   3.059   1.452   1.361  2.5027  0.9623  0.2501
 1919TIP3   OH2 5762   0.163   4.145   2.074 -0.3628  0.1756 -0.7845
 1919TIP3    H1 5763   0.146   4.120   1.983  0.4581 -1.9775 -0.3935
 1919TIP3    H2 5764   0.159   4.241   2.073 -0.2549  0.2188 -3.1159
 1920TIP3   OH2 5765   3.858   4.294   3.842  0.3229  0.1143  0.3926
 1920TIP3    H1 5766   3.839   4.379   3.879  1.2452  0.2270  0.6475
 1920TIP3    H2 5767   3.846   4.232   3.914  0.7928  0.1739  0.5269
 1921TIP3   OH2 5768   0.231   2.358   3.842  0.2673  0.2037  0.2152
 1921TIP3    H1 5769   0.266   2.315   3.764 -1.8187 -1.3277  0.0313
 1921TIP3    H2 5770   0.177   2.429   3.807  0.6904  0.5968  0.3542
 1922TIP3   OH2 5771   5.690   0.507   1.784 -0.0781 -0.3279  0.4813
 1922TIP3    H1 5772   5.713   0.489   1.876 -0.8911  2.1975  1.2592
 1922TIP3    H2 5773   5.629   0.580   1.789 -0.7844 -0.6509 -2.0744
 1923TIP3   OH2 5774   2.920   0.970   3.239  0.5516  0.3819  0.2215
 1923TIP3    H1 5775   2.940   0.878   3.222 -1.8534 -0.9076  3.4117
 1923TIP3    H2 5776   2.980   0.995   3.310 -0.4482  0.4480  1.0683
 1924TIP3   OH2 5777   0.755   3.006   4.399 -0.2786 -0.8215 -0.4202
 1924TIP3    H1 5778   0.736   2.995   4.306  0.3347  1.6074 -0.8988
 1924TIP3    H2 5779   0.839   2.962   4.412  0.7319  0.6588 -1.5756
 1925TIP3   OH2 5780   3.789   0.412   3.199  0.3175 -0.7148  0.4971
 1925TIP3    H1 5781   3.878   0.404   3.165  0.1963  0.0045 -0.0158
 1925TIP3    H2 5782   3.787   0.356   3.276  0.9397 -1.4784 -0.0332
 1926TIP3   OH2 5783   4.274   2.098   0.172  0.6270 -0.2006  0.2466
 1926TIP3    H1 5784   4.249   2.190   0.166  2.3132  0.1991 -1.5298
 1926TIP3    H2 5785   4.301   2.074   0.083  0.6218 -2.2939  0.7566
 1927TIP3   OH2 5786   0.510   0.233   3.822 -0.3379 -0.3529  0.2791
 1927TIP3    H1 5787   0.437   0.173   3.835  0.7255 -2.0681 -1.0649
 1927TIP3    H2 5788   0.586   0.175   3.810  1.1799  1.3361  1.2075
 1928TIP3   OH2 5789   6.268   3.148   3.322  0.0339  0.1209 -0.6055
 1928TIP3    H1 5790   6.225   3.198   3.252  0.6130  1.0204 -0.3276
 1928TIP3    H2 5791   6.230   3.182   3.403 -0.9005 -1.1644 -0.4513
 1929TIP3   OH2 5792   2.863   5.403   3.289 -0.6027 -0.9480  0.0774
 1929TIP3    H1 5793   2.793   5.407   3.223  0.2965 -4.0082 -1.2300
 1929TIP3    H2 5794   2.925   5.470   3.261 -1.6813 -0.0975 -0.3660
 1930TIP3   OH2 5795   6.364   2.946   3.049  0.1051  0.1487  0.5497
 1930TIP3    H1 5796   6.375   3.029   3.002 -1.7229  0.2948  0.3351
 1930TIP3    H2 5797   6.276   2.950   3.086  0.3177 -1.3346  1.2940
 1931TIP3   OH2 5798   4.762   5.991   0.900  0.3080  0.3888 -0.2669
 1931TIP3    H1 5799   4.681   6.018   0.855  1.2048  1.2145 -1.4691
 1931TIP3    H2 5800   4.769   5.897   0.881 -0.2910  0.3326 -0.2562
 1932TIP3   OH2 5801   1.739   0.806   0.979 -0.0494  0.0273 -0.3658
 1932TIP3    H1 5802   1.792   0.885   0.991  0.5221 -0.3049 -0.6627
 1932TIP3    H2 5803   1.703   0.815   0.891 -1.0680  0.5932  0.1047
 1933TIP3   OH2 5804   5.974   0.212   3.507 -0.0123 -0.1333  0.0446
 1933TIP3    H1 5805   6.066   0.187   3.514 -0.3719 -2.4245 -1.9885
 1933TIP3    H2 5806   5.925   0.134   3.531 -1.4496  0.9688  0.8514
 1934TIP3   OH2 5807   0.050   3.584   0.022  0.0575  0.6477  0.9964
 1934TIP3    H1 5808   0.065   3.552   0.111  1.9822  1.0766  0.8748
 1934TIP3    H2 5809  -0.018   3.526  -0.014 -0.3844  0.1615  2.5681
 1935TIP3   OH2 5810   6.190   3.985   5.062  0.1096 -0.1992  0.1283
 1935TIP3    H1 5811   6.205   3.981   4.967  0.1614 -0.3968  0.1447
 1935TIP3    H2 5812   6.269   4.024   5.097 -0.0490  0.1947  0.0551
 1936TIP3   OH2 5813   1.045   4.646   0.071 -0.2166 -0.3459  0.2478
 1936TIP3    H1 5814   1.110   4.717   0.077  0.8502 -1.1299 -1.4149
 1936TIP3    H2 5815   0.972   4.685   0.024 -0.2975  0.0812  0.7129
 1937TIP3   OH2 5816   4.672   0.237   4.283  0.3100 -0.0956  0.0393
 1937TIP3    H1 5817   4.669   0.333   4.279  3.7522  0.1475  0.3141
 1937TIP3    H2 5818   4.654   0.208   4.194  0.4053  0.8706 -0.3026
 1938TIP3   OH2 5819   0.719   5.776   4.417 -0.2750  0.1048  0.3269
 1938TIP3    H1 5820   0.770   5.696   4.403 -2.7358 -1.5318  0.0326
 1938TIP3    H2 5821   0.703   5.778   4.512  1.7753  1.6392  0.7069
 1939TIP3   OH2 5822   4.914   4.718   0.954 -0.3070  0.2602 -0.6414
 1939TIP3    H1 5823   4.843   4.660   0.983 -0.2350  0.8805  0.8689
 1939TIP3    H2 5824   4.988   4.695   1.011  0.4982  0.1331 -1.7072
 1940TIP3   OH2 5825   5.511   2.164   2.389  0.1108 -0.0699 -0.5704
 1940TIP3    H1 5826   5.442   2.213   2.434  0.6482  2.0831 -1.9674
 1940TIP3    H2 5827   5.535   2.095   2.452 -2.2170  0.0368  0.5643
 1941TIP3   OH2 5828   5.632   2.708   2.053 -0.7541  0.1974  0.2176
 1941TIP3    H1 5829   5.556   2.728   1.998 -0.3096  0.7598 -0.2058
 1941TIP3    H2 5830   5.600   2.717   2.143 -1.1040  0.7911  0.0432
 1942TIP3   OH2 5831   5.517   0.188   1.514  0.0134  0.6724 -0.1370
 1942TIP3    H1 5832   5.444   0.126   1.513  0.7874 -0.2895 -1.9182
 1942TIP3    H2 5833   5.556   0.178   1.601 -0.5640 -0.5284  0.0070
 1943TIP3   OH2 5834   5.768   5.292   1.429 -0.0676  0.4003  0.0670
 1943TIP3    H1 5835   5.741   5.214   1.381 -0.5998  0.9139 -0.4729
 1943TIP3    H2 5836   5.806   5.258   1.510 -2.7915 -0.3817  1.1377
 1944TIP3   OH2 5837   3.251   3.570   4.013  0.2664 -0.2224 -0.3756
 1944TIP3    H1 5838   3.247   3.555   4.108 -0.6166 -1.7780 -0.6226
 1944TIP3    H2 5839   3.174   3.623   3.994  0.1407 -0.3759 -0.2974
 1945TIP3   OH2 5840   3.218   1.870   2.199 -0.1955  0.0371  0.1978
 1945TIP3    H1 5841   3.172   1.952   2.215  1.0573  0.4431  1.9895
 1945TIP3    H2 5842   3.167   1.805   2.248 -1.2173 -0.3025 -1.2635
 1946TIP3   OH2 5843   0.241   3.072   0.854 -0.3374  0.1365 -0.4066
 1946TIP3    H1 5844   0.286   3.093   0.772 -1.1243  0.3464 -0.8014
 1946TIP3    H2 5845   0.148   3.075   0.831 -0.5486 -1.5956  0.0540
 1947TIP3   OH2 5846   5.669   4.376   2.294 -0.9033  0.0975  0.2080
 1947TIP3    H1 5847   5.592   4.411   2.340  1.2913  3.7718  1.5890
 1947TIP3    H2 5848   5.724   4.340   2.364 -0.8352 -1.4372 -0.6049
 1948TIP3   OH2 5849   0.858   1.614   4.307 -0.0163 -0.1300 -0.3397
 1948TIP3    H1 5850   0.948   1.589   4.287  0.7162  1.7083  0.4551
 1948TIP3    H2 5851   0.861   1.640   4.400 -1.7688 -1.7393  0.2341
 1949TIP3   OH2 5852   0.175   2.284   1.508 -0.0566  0.2163  0.0326
 1949TIP3    H1 5853   0.194   2.337   1.585 -0.2826  0.1586  0.1287
 1949TIP3    H2 5854   0.261   2.268   1.468  0.0005  0.7587 -0.0702
 1950TIP3   OH2 5855   4.384   5.837   1.245  0.7798 -0.5248  0.1914
 1950TIP3    H1 5856   4.424   5.905   1.299 -0.7235 -0.3491  1.1304
 1950TIP3    H2 5857   4.291   5.839   1.267  0.2932 -1.2368 -1.5819
 1951TIP3   OH2 5858   3.130   5.006   0.279  0.3636  0.4333  0.2790
 1951TIP3    H1 5859   3.091   4.919   0.270  0.4520  0.4687 -0.5630
 1951TIP3    H2 5860   3.142   5.036   0.189  0.3736  1.3020  0.5580
 1952TIP3   OH2 5861   0.162   2.565   1.136 -0.4496 -0.4731 -0.2341
 1952TIP3    H1 5862   0.076   2.545   1.174 -1.0708  2.6345  0.2896
 1952TIP3    H2 5863   0.141   2.618   1.058  0.9818 -1.5655 -1.4129
 1953TIP3   OH2 5864   1.560   4.600   3.188 -0.2361 -0.5249 -0.2592
 1953TIP3    H1 5865   1.540   4.674   3.131  2.7885  0.6601  0.0689
 1953TIP3    H2 5866   1.574   4.638   3.274  2.7249 -1.1808 -0.3583
 1954TIP3   OH2 5867   3.798   5.733   4.824 -0.3655 -0.1092  0.1138
 1954TIP3    H1 5868   3.884   5.767   4.846 -0.2043 -1.8882  2.6862
 1954TIP3    H2 5869   3.749   5.809   4.795  1.8567  1.0605 -0.7981
 1955TIP3   OH2 5870   2.478   2.925   3.211 -0.1818  0.2038 -0.1941
 1955TIP3    H1 5871   2.396   2.945   3.165  0.8338  1.5152 -1.4963
 1955TIP3    H2 5872   2.462   2.839   3.250 -2.1228  0.3444 -0.5371
 1956TIP3   OH2 5873   3.021   1.775   1.508 -0.2124 -0.0962  0.7474
 1956TIP3    H1 5874   3.029   1.703   1.445  0.7258 -0.1736  0.9357
 1956TIP3    H2 5875   2.932   1.766   1.543 -0.2113 -0.9919  0.5618
 1957TIP3   OH2 5876   1.969   2.860   1.487  0.3959 -0.1550 -0.4095
 1957TIP3    H1 5877   2.048   2.905   1.516 -0.9481  1.3544  1.1498
 1957TIP3    H2 5878   1.961   2.884   1.395  1.4640  0.1063 -0.4551
 1958TIP3   OH2 5879   5.136   4.162   3.813 -0.0788  0.2538  0.6603
 1958TIP3    H1 5880   5.147   4.245   3.765  0.1942  0.9382  1.8678
 1958TIP3    H2 5881   5.129   4.188   3.904  1.8769 -1.1594  1.2881
 1959TIP3   OH2 5882   1.276   5.019   5.012  0.2309  0.4674 -0.3627
 1959TIP3    H1 5883   1.248   4.970   5.089 -1.2880 -1.5153 -2.0767
 1959TIP3    H2 5884   1.364   4.986   4.994  0.0648 -0.0403 -0.2557
 1960TIP3   OH2 5885   3.688   0.285   3.435  0.3070  0.1153  0.0219
 1960TIP3    H1 5886   3.596   0.307   3.420  0.6905  0.2283 -2.6304
 1960TIP3    H2 5887   3.717   0.344   3.504 -1.6469 -0.1012  1.0813
 1961TIP3   OH2 5888   1.530   1.399   1.169  0.1780 -0.0231  0.0404
 1961TIP3    H1 5889   1.455   1.401   1.229  1.2512  0.5902  1.4346
 1961TIP3    H2 5890   1.515   1.322   1.115 -1.4178  0.0431  0.3226
 1962TIP3   OH2 5891   5.244   3.354   0.695  0.2620  0.0799 -0.3853
 1962TIP3    H1 5892   5.271   3.376   0.606  3.7707  1.8392  0.9126
 1962TIP3    H2 5893   5.303   3.283   0.721 -0.0394  0.2557  0.8229
 1963TIP3   OH2 5894   5.993   1.776   0.379 -0.6255 -0.0736  0.3456
 1963TIP3    H1 5895   5.925   1.844   0.375 -1.9209 -1.3527 -0.6749
 1963TIP3    H2 5896   5.979   1.734   0.464  1.7270  2.3531  2.0909
 1964TIP3   OH2 5897   3.055   4.551   2.255  0.1611  0.2413  0.2378
 1964TIP3    H1 5898   3.085   4.603   2.181 -2.2879  3.0826  1.0356
 1964TIP3    H2 5899   2.966   4.525   2.232 -0.3200  0.4167  1.7458
 1965TIP3   OH2 5900   3.880   5.095   2.088 -0.1205 -0.0781 -0.5195
 1965TIP3    H1 5901   3.939   5.061   2.155 -0.1318  0.4226 -0.2591
 1965TIP3    H2 5902   3.792   5.081   2.123 -0.1136  2.6397  0.8107
 1966TIP3   OH2 5903   1.553   4.428   1.252  0.0149 -0.1394 -0.2298
 1966TIP3    H1 5904   1.528   4.477   1.330 -0.4757  1.8033 -1.5410
 1966TIP3    H2 5905   1.647   4.444   1.243  0.0555 -0.2947 -0.0768
 1967TIP3   OH2 5906   0.261   5.474   1.987 -0.2907  0.0185  0.5028
 1967TIP3    H1 5907   0.222   5.520   2.061  0.6590  0.8844  0.4919
 1967TIP3    H2 5908   0.339   5.432   2.023  0.3556  0.7112 -0.0620
 1968TIP3   OH2 5909   0.883   2.491   3.766 -0.5609  1.1953  0.1833
 1968TIP3    H1 5910   0.791   2.516   3.762 -0.9135 -0.2113 -1.2975
 1968TIP3    H2 5911   0.919   2.516   3.681  0.0179  0.2387  0.1294
 1969TIP3   OH2 5912   5.193   4.403   5.060  0.1359  0.5102 -0.0619
 1969TIP3    H1 5913   5.282   4.427   5.033 -0.0818  0.1904 -1.0968
 1969TIP3    H2 5914   5.187   4.433   5.151  0.0591  3.9502 -1.0579
 1970TIP3   OH2 5915   3.383   4.128   3.227  0.3654  0.3320 -0.4204
 1970TIP3    H1 5916   3.454   4.152   3.286 -1.5424  0.4487  1.9657
 1970TIP3    H2 5917   3.325   4.204   3.227 -1.4330 -0.9611  0.4317
 1971TIP3   OH2 5918   4.313   3.473   4.705  0.1684  0.4011 -0.1796
 1971TIP3    H1 5919   4.269   3.481   4.621  0.7638  0.5415 -0.4832
 1971TIP3    H2 5920   4.351   3.385   4.704  3.4313  1.6649 -1.6992
 1972TIP3   OH2 5921   4.684   0.869   2.597 -0.1196  0.2262  0.3908
 1972TIP3    H1 5922   4.590   0.878   2.611 -0.6495  0.5038 -2.5340
 1972TIP3    H2 5923   4.705   0.941   2.537  1.8928 -0.0268  0.7384
 1973TIP3   OH2 5924   2.631   1.307   2.821  0.2663  0.0068  0.1366
 1973TIP3    H1 5925   2.715   1.317   2.776  1.3278  0.3345  2.0687
 1973TIP3    H2 5926   2.597   1.223   2.790  0.3823  0.7076 -2.0607
 1974TIP3   OH2 5927   2.451   1.513   3.575 -0.2126 -0.3601 -0.2265
 1974TIP3    H1 5928   2.494   1.533   3.658  1.1340 -0.1332 -0.9310
 1974TIP3    H2 5929   2.467   1.420   3.562 -0.9030 -0.5152  0.0275
 1975TIP3   OH2 5930   0.905   1.667   4.626 -0.1552  0.0757 -0.1640
 1975TIP3    H1 5931   0.939   1.754   4.645  0.9773 -0.1113 -1.1703
 1975TIP3    H2 5932   0.886   1.629   4.711 -0.8187  1.3445  0.2849
 1976TIP3   OH2 5933   4.079   2.052   3.289 -0.1779  0.4357 -0.5642
 1976TIP3    H1 5934   4.155   2.075   3.236  0.8920 -1.5282  0.0130
 1976TIP3    H2 5935   4.016   2.016   3.226  0.0614  0.4514 -0.8153
 1977TIP3   OH2 5936   6.116   1.817   2.202 -0.3406  0.5817  0.1506
 1977TIP3    H1 5937   6.041   1.826   2.261 -0.2082 -2.4962  0.9908
 1977TIP3    H2 5938   6.191   1.849   2.253 -0.5255 -0.2089  0.9565
 1978TIP3   OH2 5939   1.074   2.973   2.788  0.1192  0.2661  0.2993
 1978TIP3    H1 5940   0.980   2.977   2.775  0.0378 -0.0229  0.7854
 1978TIP3    H2 5941   1.110   3.033   2.722 -0.3760  0.0927 -0.1348
 1979TIP3   OH2 5942   5.964   3.395   2.375 -0.1261  0.0670  0.0332
 1979TIP3    H1 5943   5.937   3.311   2.338  0.5554 -0.4954  0.7959
 1979TIP3    H2 5944   5.954   3.384   2.469  0.2748  0.7402  0.1548
 1980TIP3   OH2 5945   5.709   3.808   2.175 -0.2269  0.7710 -0.0475
 1980TIP3    H1 5946   5.757   3.827   2.255 -3.0186  0.5279  1.8011
 1980TIP3    H2 5947   5.747   3.725   2.144  1.1892  1.0937  0.7377
 1981TIP3   OH2 5948   4.003   2.716   0.995  0.0382  0.1077 -0.0828
 1981TIP3    H1 5949   4.058   2.658   0.943  0.0076 -0.1572  0.1825
 1981TIP3    H2 5950   4.002   2.798   0.946 -0.2359 -0.2320 -0.6611
 1982TIP3   OH2 5951   3.127   2.615   5.161  0.2051 -0.4641 -0.2332
 1982TIP3    H1 5952   3.104   2.696   5.114  2.6755 -0.5366 -1.7744
 1982TIP3    H2 5953   3.128   2.640   5.253 -0.3938  0.9018 -0.5732
 1983TIP3   OH2 5954   1.313   3.559   3.325  0.2790 -0.0353  0.1573
 1983TIP3    H1 5955   1.323   3.477   3.277 -3.2352 -0.8551  0.5376
 1983TIP3    H2 5956   1.323   3.534   3.417  0.1515  0.1541  0.2234
 1984TIP3   OH2 5957   5.747   2.475   4.414  0.5502 -0.4253  0.3482
 1984TIP3    H1 5958   5.671   2.519   4.453 -1.8156 -3.4212 -0.5105
 1984TIP3    H2 5959   5.790   2.433   4.488  1.0592  0.7730  0.7587
 1985TIP3   OH2 5960   0.157   4.275   4.163 -0.2352  0.5213 -0.8675
 1985TIP3    H1 5961   0.237   4.237   4.128  0.9383  1.6476  0.4384
 1985TIP3    H2 5962   0.187   4.344   4.223 -2.1852  1.1708 -0.5398
 1986TIP3   OH2 5963   2.808   4.003   4.895  0.0507 -0.1207 -0.0823
 1986TIP3    H1 5964   2.713   3.999   4.910  0.0096  0.0747 -0.2852
 1986TIP3    H2 5965   2.840   4.066   4.959  0.1339 -0.6554  0.4094
 1987TIP3   OH2 5966   1.917   2.101   4.302  0.1997  0.4151  0.3411
 1987TIP3    H1 5967   2.002   2.076   4.339  0.1774  0.7974  0.6600
 1987TIP3    H2 5968   1.859   2.028   4.322  0.6064 -0.1261 -0.4269
 1988TIP3   OH2 5969   1.709   3.324   2.791 -0.4504 -0.0377  0.4164
 1988TIP3    H1 5970   1.676   3.280   2.712 -0.6045  0.4556  0.2040
 1988TIP3    H2 5971   1.705   3.417   2.770  1.0275  0.0518  0.3990
 1989TIP3   OH2 5972   2.963   0.019   5.033  0.1815 -0.2872 -0.9334
 1989TIP3    H1 5973   3.041   0.005   4.979  1.1559  1.3738 -0.0268
 1989TIP3    H2 5974   2.986   0.092   5.090 -0.8013 -1.8859  1.6999
 1990TIP3   OH2 5975   2.100   4.982   2.586  0.0434 -1.0049  0.6478
 1990TIP3    H1 5976   2.073   4.970   2.494  0.3470  2.4695 -0.0113
 1990TIP3    H2 5977   2.018   4.982   2.635 -0.5541  1.0543 -0.2313
 1991TIP3   OH2 5978   3.472   3.575   1.551  0.2007  0.2337 -0.1724
 1991TIP3    H1 5979   3.537   3.639   1.580 -0.9315  0.0208  3.2764
 1991TIP3    H2 5980   3.517   3.491   1.557  0.3835  0.3075 -0.4640
 1992TIP3   OH2 5981   4.670   3.044   3.161 -0.1007 -0.2580  0.0012
 1992TIP3    H1 5982   4.757   3.015   3.188  0.3612 -0.2222 -1.3894
 1992TIP3    H2 5983   4.662   3.133   3.194 -0.2793 -0.8187  1.5549
 1993TIP3   OH2 5984   3.615   1.517   2.118 -0.1776 -0.6964  0.1694
 1993TIP3    H1 5985   3.657   1.564   2.045  0.6109 -3.0509 -0.9877
 1993TIP3    H2 5986   3.531   1.561   2.130  0.8248  1.4762 -0.3080
 1994TIP3   OH2 5987   2.165   4.030   3.112  0.6087  0.3647 -0.5241
 1994TIP3    H1 5988   2.205   3.944   3.124  0.0894  0.1582 -0.2506
 1994TIP3    H2 5989   2.117   4.046   3.193  1.3816  1.2910 -0.2290
 1995TIP3   OH2 5990   4.225   4.830   5.105  0.3973  0.2709  0.0922
 1995TIP3    H1 5991   4.220   4.737   5.082  1.2639 -0.0050  0.9679
 1995TIP3    H2 5992   4.235   4.875   5.021  0.2037 -0.4498 -0.3194
 1996TIP3   OH2 5993   0.172   3.636   4.916  0.0606 -0.9692 -0.4031
 1996TIP3    H1 5994   0.170   3.547   4.953 -0.6967 -0.5374  0.6547
 1996TIP3    H2 5995   0.080   3.663   4.916  0.2447 -0.3082 -1.0610
 1997TIP3   OH2 5996   3.608   5.118   2.143 -0.0964  0.2838 -0.0263
 1997TIP3    H1 5997   3.632   5.128   2.051  1.4880  2.1990  0.5218
 1997TIP3    H2 5998   3.538   5.181   2.157 -0.7729 -0.4493 -0.0380
 1998TIP3   OH2 5999   4.562   4.222   0.554 -0.3606  0.0715 -0.4801
 1998TIP3    H1 6000   4.555   4.174   0.636  1.6072  0.1345 -0.2169
 1998TIP3    H2 6001   4.537   4.158   0.487 -0.0583 -0.6074  0.0386
 1999TIP3   OH2 6002   1.766   1.744   1.365 -0.3881  0.2197  0.1349
 1999TIP3    H1 6003   1.790   1.820   1.313  0.6336 -0.0773  0.1583
 1999TIP3    H2 6004   1.785   1.669   1.308 -1.2609 -0.0373  0.1564
 2000TIP3   OH2 6005   4.648   5.138   4.733  0.2172  0.4482  0.3696
 2000TIP3    H1 6006   4.741   5.156   4.746  0.8765  0.3130 -3.2272
 2000TIP3    H2 6007   4.604   5.208   4.782  2.2605  1.6079  0.6773
 2001TIP3   OH2 6008   6.347   4.909   1.103 -0.0191  0.4501 -0.3342
 2001TIP3    H1 6009   6.391   4.863   1.031 -1.6507  0.0998 -1.1628
 2001TIP3    H2 6010   6.277   4.849   1.130  0.5035  0.6209  1.4970
 2002TIP3   OH2 6011   2.298   4.285   0.594 -0.0813 -0.3739 -0.5263
 2002TIP3    H1 6012   2.384   4.327   0.604 -1.0125  1.9680 -1.6053
 2002TIP3    H2 6013   2.256   4.297   0.679  0.6172 -1.6085  0.0374
 2003TIP3   OH2 6014   3.740   5.709   3.384 -0.4200 -0.1788 -0.1563
 2003TIP3    H1 6015   3.754   5.622   3.348  1.2814  0.6673 -1.6842
 2003TIP3    H2 6016   3.733   5.766   3.307  0.7190  1.3303  0.7931
 2004TIP3   OH2 6017   5.150   0.352   2.126 -0.5359 -0.1769  0.1869
 2004TIP3    H1 6018   5.117   0.428   2.077 -0.7467  0.0455  0.6613
 2004TIP3    H2 6019   5.166   0.387   2.214  1.2792 -0.1965 -0.1027
 2005TIP3   OH2 6020   2.763   2.980   2.299  0.1698  0.3879  0.1914
 2005TIP3    H1 6021   2.672   3.011   2.304  0.1830  0.4417  0.0991
 2005TIP3    H2 6022   2.756   2.890   2.267  0.1358  0.3164  0.3975
 2006TIP3   OH2 6023   0.315   2.823   0.241  0.1177  0.0047  0.2062
 2006TIP3    H1 6024   0.317   2.749   0.303 -1.7641  1.5702  2.3053
 2006TIP3    H2 6025   0.239   2.805   0.185  0.2614 -0.1446  0.0593
 2007TIP3   OH2 6026   2.953   1.511   3.899 -0.2846 -0.1999  0.9813
 2007TIP3    H1 6027   2.898   1.488   3.824 -0.4399 -0.6426  1.2222
 2007TIP3    H2 6028   3.021   1.567   3.863  0.0163 -0.9226  0.3842
 2008TIP3   OH2 6029   5.123   5.440   0.744  0.0933  0.0547  0.0600
 2008TIP3    H1 6030   5.039   5.420   0.702  0.9066 -2.4749 -0.5115
 2008TIP3    H2 6031   5.115   5.403   0.832 -0.0448  1.5025  0.6773
 2009TIP3   OH2 6032   5.816   3.543   1.922  0.6407  0.1346 -0.5345
 2009TIP3    H1 6033   5.732   3.520   1.961  0.4487 -0.7691 -1.4480
 2009TIP3    H2 6034   5.801   3.629   1.883 -0.1797 -0.4480 -1.5645
 2010TIP3   OH2 6035   5.157   1.618   2.722  0.3628  0.4233 -0.6531
 2010TIP3    H1 6036   5.166   1.531   2.683 -2.3552  0.0868 -0.7449
 2010TIP3    H2 6037   5.103   1.604   2.800  1.4475  1.7955  0.3868
 2011TIP3   OH2 6038   2.078   2.147   2.537 -0.0508  0.2088  0.0849
 2011TIP3    H1 6039   2.033   2.129   2.455 -0.3270 -0.0735  0.2990
 2011TIP3    H2 6040   2.012   2.135   2.605 -0.6427  3.2424  0.2032
 2012TIP3   OH2 6041   3.082   4.681   1.130  0.6027  0.0242  0.5990
 2012TIP3    H1 6042   3.169   4.704   1.165 -0.5906  2.6992  2.1443
 2012TIP3    H2 6043   3.036   4.641   1.203  0.7861 -2.4433 -0.5285
 2013TIP3   OH2 6044   0.273   1.887   5.125  0.2538  0.2139 -0.5017
 2013TIP3    H1 6045   0.255   1.796   5.102 -0.8016  0.0119  0.9896
 2013TIP3    H2 6046   0.359   1.905   5.088  1.8228 -2.3128  1.6059
 2014TIP3   OH2 6047   2.430   3.629   0.955  0.1188  0.0580 -0.2343
 2014TIP3    H1 6048   2.492   3.698   0.980 -0.3766  0.5085 -0.2198
 2014TIP3    H2 6049   2.354   3.644   1.012  0.2168 -0.8424  0.1567
 2015TIP3   OH2 6050   5.659   0.474   2.370 -0.0745  0.5029  0.0527
 2015TIP3    H1 6051   5.736   0.493   2.423  0.0152 -0.3791  0.2442
 2015TIP3    H2 6052   5.590   0.529   2.408  0.2575  0.6847  0.3941
 2016TIP3   OH2 6053   0.360   4.236   2.783 -0.4157  0.4766  0.2046
 2016TIP3    H1 6054   0.340   4.233   2.876 -1.2798  0.3944  0.0259
 2016TIP3    H2 6055   0.364   4.144   2.757 -0.4137  0.5011  0.1164
 2017TIP3   OH2 6056   0.150   2.018   3.702 -0.1542  0.5759 -0.2464
 2017TIP3    H1 6057   0.234   2.039   3.742 -0.8490  0.7004  1.1933
 2017TIP3    H2 6058   0.172   1.959   3.630  0.9770 -1.3020  1.5500
 2018TIP3   OH2 6059   5.709   5.314   0.418  0.2108 -0.4545  0.7682
 2018TIP3    H1 6060   5.635   5.255   0.402 -1.5286  1.3058  1.9140
 2018TIP3    H2 6061   5.774   5.290   0.351 -1.3821 -2.0359 -0.2971
 2019TIP3   OH2 6062   0.358   1.458   2.109  0.7573 -0.3599  0.3946
 2019TIP3    H1 6063   0.395   1.375   2.138 -0.6090 -1.2662 -0.3439
 2019TIP3    H2 6064   0.294   1.481   2.177 -0.2662 -0.9399 -0.3417
 2020TIP3   OH2 6065   5.949   5.098   3.747 -0.2213  0.0398  0.3084
 2020TIP3    H1 6066   6.032   5.051   3.758  0.7443  2.0061  2.3580
 2020TIP3    H2 6067   5.891   5.060   3.813 -0.7284 -0.8253 -0.6194
 2021TIP3   OH2 6068   4.561   2.770   1.521 -0.6856  0.4685  0.2025
 2021TIP3    H1 6069   4.514   2.818   1.453 -0.4736  1.3500  0.6598
 2021TIP3    H2 6070   4.620   2.835   1.559 -0.5284 -0.1106  0.9670
 2022TIP3   OH2 6071   5.661   1.904   3.704  0.0010 -0.0064 -0.6722
 2022TIP3    H1 6072   5.708   1.918   3.787  0.2255  1.3032 -0.9995
 2022TIP3    H2 6073   5.591   1.842   3.726  1.4963 -1.5558 -0.0375
 2023TIP3   OH2 6074   3.128   5.600   3.077 -0.2420  0.1971  0.2502
 2023TIP3    H1 6075   3.050   5.652   3.096 -1.4746 -1.6844  0.5999
 2023TIP3    H2 6076   3.183   5.658   3.023 -1.8813  1.5469 -0.0538
 2024TIP3   OH2 6077   0.720   5.931   3.481  0.0151  0.3544 -0.3090
 2024TIP3    H1 6078   0.799   5.985   3.491  0.1604  0.4181 -1.6143
 2024TIP3    H2 6079   0.730   5.862   3.547 -0.0857  1.7740  1.2884
 2025TIP3   OH2 6080   2.387   5.129   4.817 -0.0444  0.2704  0.1282
 2025TIP3    H1 6081   2.391   5.116   4.912  1.7160 -0.8186 -0.0521
 2025TIP3    H2 6082   2.422   5.217   4.804 -0.6370  0.5702  0.4976
 2026TIP3   OH2 6083   1.689   4.675   1.910  0.4541  0.4159 -0.1076
 2026TIP3    H1 6084   1.753   4.745   1.923 -0.8078  1.2696  2.1081
 2026TIP3    H2 6085   1.664   4.681   1.818  0.6553  2.6644 -0.0634
 2027TIP3   OH2 6086   5.182   4.680   1.745  0.3282  0.3516  0.2360
 2027TIP3    H1 6087   5.220   4.704   1.661  0.6166 -1.7172 -0.2864
 2027TIP3    H2 6088   5.251   4.632   1.790 -0.4272 -0.1740  0.8685
 2028TIP3   OH2 6089   5.184   3.842   1.413  0.1326  0.0549  0.1508
 2028TIP3    H1 6090   5.100   3.887   1.403  0.0416 -0.1571 -0.0456
 2028TIP3    H2 6091   5.169   3.754   1.379 -0.4827 -1.0613  3.0330
 2029TIP3   OH2 6092   1.061   2.365   4.469 -0.1855 -0.2778  0.4272
 2029TIP3    H1 6093   1.120   2.436   4.493  0.2038 -1.3702  3.0194
 2029TIP3    H2 6094   1.115   2.304   4.420 -0.2500  0.6341 -0.8364
 2030TIP3   OH2 6095   3.357   5.326   0.794  0.2604  0.3524 -0.3428
 2030TIP3    H1 6096   3.422   5.268   0.834 -1.3981 -2.8520 -1.8441
 2030TIP3    H2 6097   3.394   5.349   0.709  0.1631 -0.1094 -0.5159
 2031TIP3   OH2 6098   4.900   5.296   1.770 -0.9284 -0.3707 -0.3137
 2031TIP3    H1 6099   4.824   5.341   1.734 -1.3412 -1.7571 -1.2390
 2031TIP3    H2 6100   4.946   5.261   1.694 -0.5129 -1.3270  0.3557
 2032TIP3   OH2 6101   0.699   4.376   0.193 -0.1442 -0.2366 -0.6233
 2032TIP3    H1 6102   0.646   4.346   0.119 -0.7132 -0.0361 -0.3032
 2032TIP3    H2 6103   0.675   4.318   0.265 -0.4217  0.2725 -0.2995
 2033TIP3   OH2 6104   2.517   0.487   4.991 -0.7190  0.5227  0.2287
 2033TIP3    H1 6105   2.522   0.535   4.908 -2.7680  0.8543  0.2447
 2033TIP3    H2 6106   2.608   0.469   5.014 -0.0928  0.7754 -1.8772
 2034TIP3   OH2 6107   2.742   0.541   4.475 -0.0725 -0.5286  0.1068
 2034TIP3    H1 6108   2.734   0.552   4.380 -1.5699 -1.5939  0.0671
 2034TIP3    H2 6109   2.786   0.457   4.485 -1.8040 -1.4598  0.3048
 2035TIP3   OH2 6110   2.745   2.628   3.473 -0.1672 -0.1786 -0.3575
 2035TIP3    H1 6111   2.832   2.604   3.504 -0.3605  0.4415  0.7097
 2035TIP3    H2 6112   2.735   2.579   3.391  0.9146 -0.7732 -0.1620
 2036TIP3   OH2 6113   5.551   1.742   0.130  0.1827  0.3928  0.0358
 2036TIP3    H1 6114   5.464   1.708   0.107  0.0483  0.9692 -0.3607
 2036TIP3    H2 6115   5.546   1.758   0.224 -0.8045  2.1784 -0.2706
 2037TIP3   OH2 6116   4.195   3.553   3.199  0.0016  0.2241 -0.4857
 2037TIP3    H1 6117   4.245   3.480   3.235 -0.1612 -0.3396 -1.3618
 2037TIP3    H2 6118   4.108   3.516   3.181  0.0651  0.4897 -1.4034
 2038TIP3   OH2 6119   1.604   0.832   2.771  0.3790 -0.1010 -0.3532
 2038TIP3    H1 6120   1.607   0.768   2.842  0.3350  0.7143  0.3992
 2038TIP3    H2 6121   1.625   0.782   2.692  0.0425 -1.0968  0.1777
 2039TIP3   OH2 6122   4.633   1.656   0.338 -0.1517  0.0415  0.5897
 2039TIP3    H1 6123   4.538   1.657   0.325 -0.3463  2.1951  1.7311
 2039TIP3    H2 6124   4.655   1.747   0.359  1.8578 -0.7967  2.4601
 2040TIP3   OH2 6125   2.978   5.926   4.343 -0.1293  0.0600 -0.7335
 2040TIP3    H1 6126   2.937   5.860   4.287  2.5776 -0.4777 -2.2948
 2040TIP3    H2 6127   2.944   6.009   4.310 -2.6804 -0.4104  0.4829
 2041TIP3   OH2 6128   0.282   0.739   2.879 -0.6028 -0.5623  0.5228
 2041TIP3    H1 6129   0.267   0.690   2.798  1.0832  1.5984 -1.2316
 2041TIP3    H2 6130   0.207   0.798   2.884  0.5021  1.0753 -0.9712
 2042TIP3   OH2 6131   1.828   2.342   4.197 -0.1608 -0.1444  0.1691
 2042TIP3    H1 6132   1.854   2.425   4.236  0.0446 -0.6995  1.2396
 2042TIP3    H2 6133   1.860   2.275   4.258 -0.9396 -0.9832 -0.3162
 2043TIP3   OH2 6134   4.086   5.909   3.234  0.2855  0.0505 -0.4406
 2043TIP3    H1 6135   3.992   5.898   3.217  0.1293  0.0323  0.3861
 2043TIP3    H2 6136   4.100   5.867   3.319  1.3776 -1.4306 -1.2967
 2044TIP3   OH2 6137   0.079   5.165   1.039 -0.0126 -0.4673  0.4408
 2044TIP3    H1 6138  -0.003   5.201   1.072  0.0118 -0.7699  0.8428
 2044TIP3    H2 6139   0.071   5.071   1.055  0.7937 -0.4044  1.3462
 2045TIP3   OH2 6140   0.801   5.362   4.032 -0.5079  0.0241 -0.3908
 2045TIP3    H1 6141   0.879   5.395   3.989 -0.5052  1.0095  0.3267
 2045TIP3    H2 6142   0.742   5.438   4.036 -0.8292 -0.2581  0.5645
 2046TIP3   OH2 6143   4.536   1.553   4.386  0.0993  0.2016 -0.6416
 2046TIP3    H1 6144   4.474   1.573   4.457 -0.8041  0.6967 -1.5440
 2046TIP3    H2 6145   4.503   1.473   4.347  0.6684 -0.1372 -0.4461
 2047TIP3   OH2 6146   0.786   0.105   0.745  0.1956 -0.0723  0.3851
 2047TIP3    H1 6147   0.824   0.051   0.814  0.0210  1.0497  1.3839
 2047TIP3    H2 6148   0.701   0.132   0.779 -0.3757 -0.4075 -0.7405
 2048TIP3   OH2 6149   3.135   0.527   1.705  0.2537  0.1343 -0.8808
 2048TIP3    H1 6150   3.197   0.535   1.777 -0.3111  0.4457 -0.4253
 2048TIP3    H2 6151   3.051   0.510   1.746 -0.3704  1.8295 -1.3518
 2049TIP3   OH2 6152   2.157   5.271   0.957 -0.2535  0.4253  0.3312
 2049TIP3    H1 6153   2.076   5.233   0.990 -0.2589 -1.7410 -1.9181
 2049TIP3    H2 6154   2.147   5.270   0.861  1.9268  1.2896  0.0400
 2050TIP3   OH2 6155   4.581   2.097   1.112 -0.1397 -0.0938  0.3549
 2050TIP3    H1 6156   4.576   2.193   1.113  1.2309  0.0038  0.3830
 2050TIP3    H2 6157   4.670   2.078   1.141 -0.3573 -1.3828  0.2281
 2051TIP3   OH2 6158   2.731   2.666   0.674 -0.2752 -0.5277  0.3541
 2051TIP3    H1 6159   2.696   2.590   0.628  0.6167 -0.9687  0.3979
 2051TIP3    H2 6160   2.690   2.741   0.630 -0.9221 -1.0146  0.1144
 2052TIP3   OH2 6161   1.431   0.634   0.376 -0.6402  0.1051 -0.7021
 2052TIP3    H1 6162   1.413   0.720   0.414 -1.0207 -0.4639  0.4317
 2052TIP3    H2 6163   1.354   0.582   0.397 -0.4625 -0.4971 -1.4855
 2053TIP3   OH2 6164   0.246   3.087   0.408  0.8688 -0.5327  0.4676
 2053TIP3    H1 6165   0.229   3.108   0.315 -0.6972 -1.9145  0.3963
 2053TIP3    H2 6166   0.204   3.159   0.456  0.1383 -0.7097  0.1193
 2054TIP3   OH2 6167   4.701   5.958   2.293 -0.7760  0.3347 -0.0229
 2054TIP3    H1 6168   4.669   5.963   2.203  0.9012 -0.8686 -0.7507
 2054TIP3    H2 6169   4.796   5.953   2.284 -0.6067 -0.6969  1.7632
 2055TIP3   OH2 6170   5.534   0.334   4.582  0.4083  0.1007 -0.2763
 2055TIP3    H1 6171   5.560   0.347   4.673 -0.8431  0.6452  0.0206
 2055TIP3    H2 6172   5.584   0.400   4.533 -0.1733  0.9584  0.2494
 2056TIP3   OH2 6173   4.474   2.586   0.781  0.0582 -0.0170  0.3647
 2056TIP3    H1 6174   4.449   2.508   0.731  1.8604 -1.5609  1.7212
 2056TIP3    H2 6175   4.549   2.558   0.833 -0.4116  2.1054  2.3429
 2057TIP3   OH2 6176   0.588   4.598   3.492 -0.1556  0.0461  0.0221
 2057TIP3    H1 6177   0.644   4.529   3.528  1.5287  0.5193 -1.5832
 2057TIP3    H2 6178   0.649   4.667   3.465 -1.6781  1.4309 -0.0146
 2058TIP3   OH2 6179   1.822   0.601   4.615  0.3897 -0.5430 -0.1285
 2058TIP3    H1 6180   1.903   0.570   4.656  0.5653  1.4048  1.1233
 2058TIP3    H2 6181   1.845   0.611   4.523  1.7672  0.4729  0.2917
 2059TIP3   OH2 6182   1.457   0.005   0.272  0.3033  0.1330 -0.0391
 2059TIP3    H1 6183   1.467   0.010   0.177  1.5412  1.1718  0.1159
 2059TIP3    H2 6184   1.479   0.093   0.302  1.4825 -0.6009  1.3381
 2060TIP3   OH2 6185   4.439   1.068   1.165  0.1568  0.0415  0.2618
 2060TIP3    H1 6186   4.526   1.029   1.155  1.1098  1.5956  1.8364
 2060TIP3    H2 6187   4.394   1.010   1.226 -0.1804 -1.1277 -1.0592
 2061TIP3   OH2 6188   1.459   2.317   0.761 -0.3682 -0.0064 -0.6778
 2061TIP3    H1 6189   1.510   2.275   0.830 -0.4357  0.7434 -0.1510
 2061TIP3    H2 6190   1.376   2.271   0.760 -0.2691 -0.1872 -0.4328
 2062TIP3   OH2 6191   0.417   2.214   5.121  0.2313 -0.0399 -0.4989
 2062TIP3    H1 6192   0.489   2.271   5.094  2.7249 -1.8319  1.8333
 2062TIP3    H2 6193   0.421   2.141   5.059 -0.9706  0.7503 -1.5781
 2063TIP3   OH2 6194   5.480   0.664   3.997 -0.1311  0.1121 -0.1500
 2063TIP3    H1 6195   5.476   0.730   3.927  1.5634 -0.4848 -0.8565
 2063TIP3    H2 6196   5.438   0.587   3.958  1.7173 -0.5518 -0.9717
 2064TIP3   OH2 6197   2.317   4.549   3.354  0.0010  0.1845  0.1577
 2064TIP3    H1 6198   2.237   4.540   3.302 -0.5849 -3.8439  1.3917
 2064TIP3    H2 6199   2.387   4.521   3.295  0.7375  3.7709 -0.9434
 2065TIP3   OH2 6200   1.211   3.439   2.317 -0.3834 -0.0151 -0.7347
 2065TIP3    H1 6201   1.248   3.506   2.260 -1.4422  0.6485 -0.6565
 2065TIP3    H2 6202   1.152   3.389   2.261  0.1247 -0.6579 -0.7039
 2066TIP3   OH2 6203   1.572   3.248   2.508  0.6432  0.6065  0.5857
 2066TIP3    H1 6204   1.602   3.334   2.478  0.5036  0.2541 -0.6549
 2066TIP3    H2 6205   1.512   3.220   2.439  0.1055 -0.1608  1.3580
 2067TIP3   OH2 6206   3.863   4.888   1.790 -0.3338 -0.2471  0.1417
 2067TIP3    H1 6207   3.934   4.839   1.749 -0.0483  0.9398 -0.8143
 2067TIP3    H2 6208   3.906   4.941   1.857 -0.3447  0.2975 -0.2789
 2068TIP3   OH2 6209   6.035   1.089   1.751 -0.2117 -0.2702 -0.3663
 2068TIP3    H1 6210   6.017   1.102   1.658  0.3836 -0.8380 -0.5682
 2068TIP3    H2 6211   6.033   1.177   1.789 -1.1116 -0.0974 -0.7921
 2069TIP3   OH2 6212   2.999   4.072   4.048  0.0199  0.1420 -0.4462
 2069TIP3    H1 6213   2.909   4.104   4.052  0.2093  0.9302 -1.9153
 2069TIP3    H2 6214   2.991   3.976   4.054 -0.8273  0.2491  0.3238
 2070TIP3   OH2 6215   1.000   3.483   0.827 -0.1193  0.6712  0.0790
 2070TIP3    H1 6216   1.079   3.508   0.874  0.1540 -1.6010  0.9422
 2070TIP3    H2 6217   0.964   3.410   0.877 -0.8885 -0.5810 -2.1803
 2071TIP3   OH2 6218   0.441   1.568   0.877  0.2530  0.1978  0.2827
 2071TIP3    H1 6219   0.347   1.550   0.878  0.1060  0.8886 -0.1472
 2071TIP3    H2 6220   0.448   1.655   0.838  1.0553  0.2711  0.5710
 2072TIP3   OH2 6221   2.781   0.818   5.054  0.2473 -0.1572  0.3211
 2072TIP3    H1 6222   2.723   0.857   4.988 -0.5191 -1.1868  0.3792
 2072TIP3    H2 6223   2.851   0.778   5.002  1.0269  1.2296  0.2583
 2073TIP3   OH2 6224   5.495   0.686   3.553  0.2399  0.2848  0.3618
 2073TIP3    H1 6225   5.555   0.696   3.479 -1.1979  0.4099 -0.8666
 2073TIP3    H2 6226   5.501   0.769   3.601 -0.7260  1.3220 -1.1964
 2074TIP3   OH2 6227   0.908   3.696   0.431  0.0094 -0.0434 -0.4093
 2074TIP3    H1 6228   0.900   3.771   0.490  2.0321 -0.1027  0.0208
 2074TIP3    H2 6229   0.896   3.619   0.488 -1.9472 -0.1062 -0.8294
 2075TIP3   OH2 6230   5.234   4.828   0.501  0.3649  0.3487  0.4542
 2075TIP3    H1 6231   5.153   4.818   0.551  0.2823 -2.9231 -0.1322
 2075TIP3    H2 6232   5.301   4.784   0.554  0.7047 -1.3170 -1.2609
 2076TIP3   OH2 6233   2.464   0.958   4.050 -0.3483  0.1208  0.8964
 2076TIP3    H1 6234   2.493   0.872   4.079 -1.4409 -1.5028 -2.2956
 2076TIP3    H2 6235   2.538   1.016   4.070  2.1318 -2.3736 -0.3081
 2077TIP3   OH2 6236   4.263   2.307   1.604 -0.4980  0.5393 -0.1328
 2077TIP3    H1 6237   4.233   2.387   1.649  0.0523  1.4817 -1.3733
 2077TIP3    H2 6238   4.274   2.334   1.513  0.0830 -0.8739 -0.5037
 2078TIP3   OH2 6239   1.521   5.423   4.883 -0.3079 -0.1023 -0.1829
 2078TIP3    H1 6240   1.484   5.392   4.800 -0.2818  0.0904 -0.2677
 2078TIP3    H2 6241   1.606   5.380   4.888 -0.6748 -0.7980  0.1704
 2079TIP3   OH2 6242   2.336   1.917   3.475 -0.5137  0.2656 -0.5002
 2079TIP3    H1 6243   2.313   1.941   3.565 -0.3705  0.7706 -0.5962
 2079TIP3    H2 6244   2.337   2.000   3.428  1.7666  0.3422 -0.4399
 2080TIP3   OH2 6245   2.488   0.588   1.689  1.0113 -0.0656  0.2560
 2080TIP3    H1 6246   2.396   0.593   1.663  1.2081  1.2410 -0.2733
 2080TIP3    H2 6247   2.495   0.504   1.734 -0.7436  0.3640  1.4571
 2081TIP3   OH2 6248   0.066   0.733   3.832  0.0649 -0.1200  0.4873
 2081TIP3    H1 6249   0.103   0.806   3.882 -0.7290  0.7086 -0.0840
 2081TIP3    H2 6250   0.130   0.663   3.840  0.8047  0.6091  1.1482
 2082TIP3   OH2 6251   3.679   2.696   3.394 -0.3198 -0.0740  0.2200
 2082TIP3    H1 6252   3.704   2.663   3.308 -1.0068 -0.3426  0.1115
 2082TIP3    H2 6253   3.587   2.672   3.403  0.0114 -0.9840  1.4703
 2083TIP3   OH2 6254   1.293   2.980   0.812 -0.5523  0.2614  0.0916
 2083TIP3    H1 6255   1.298   2.893   0.852  0.5965 -0.0743 -0.7440
 2083TIP3    H2 6256   1.207   2.981   0.769 -1.5269  0.3922  1.9550
 2084TIP3   OH2 6257   5.779   0.500   0.847  0.1137  0.0429  0.1486
 2084TIP3    H1 6258   5.829   0.418   0.855  0.0338  0.0775  1.1008
 2084TIP3    H2 6259   5.728   0.489   0.767  3.6560  1.1144 -2.5340
 2085TIP3   OH2 6260   1.061   1.777   2.674  0.3135  0.1930  0.2613
 2085TIP3    H1 6261   1.105   1.827   2.742  1.6563 -1.7579  0.9269
 2085TIP3    H2 6262   1.101   1.690   2.679 -1.9245 -0.9803 -0.7816
 2086TIP3   OH2 6263   2.215   1.107   2.816 -0.0333 -0.2589  0.3165
 2086TIP3    H1 6264   2.250   1.193   2.839  0.0644 -0.4910  1.0822
 2086TIP3    H2 6265   2.125   1.124   2.788  0.0504  0.1150  0.2723
 2087TIP3   OH2 6266   1.062   5.357   4.352 -0.2813  0.0971  1.0225
 2087TIP3    H1 6267   1.034   5.275   4.313  0.6918  0.1046  0.2738
 2087TIP3    H2 6268   1.118   5.331   4.425  0.4773  0.0789  0.4475
 2088TIP3   OH2 6269   0.845   3.910   2.497 -0.3101 -0.5708  0.3610
 2088TIP3    H1 6270   0.836   3.867   2.412 -2.5503  1.6799 -0.6724
 2088TIP3    H2 6271   0.914   3.976   2.483 -0.5713 -0.3044  0.3177
 2089TIP3   OH2 6272   2.383   0.884   1.798 -0.3382  0.5650  0.9786
 2089TIP3    H1 6273   2.447   0.921   1.737  0.6093 -1.0519  0.9131
 2089TIP3    H2 6274   2.344   0.810   1.750 -2.0967  1.3598  1.1159
 2090TIP3   OH2 6275   5.011   2.059   4.658 -0.1704 -0.1398 -0.7960
 2090TIP3    H1 6276   5.028   2.136   4.713 -1.3951 -0.8992  0.7169
 2090TIP3    H2 6277   4.939   2.086   4.601 -0.3067 -0.0197 -0.5677
 2091TIP3   OH2 6278   5.330   0.751   4.212 -0.4343 -0.2773  0.0754
 2091TIP3    H1 6279   5.308   0.841   4.187  1.6068 -0.1772 -1.6424
 2091TIP3    H2 6280   5.359   0.710   4.131  0.5261 -1.9191  1.1938
 2092TIP3   OH2 6281   2.024   3.006   2.151 -0.0823  0.3614 -0.0211
 2092TIP3    H1 6282   2.011   2.914   2.127 -3.5018  0.5651  0.5640
 2092TIP3    H2 6283   2.039   3.051   2.068 -1.0686 -0.3835 -0.6231
 2093TIP3   OH2 6284   0.288   0.553   4.275  0.0650 -0.1969 -0.0591
 2093TIP3    H1 6285   0.296   0.461   4.248  0.3174  0.4558 -2.4567
 2093TIP3    H2 6286   0.369   0.571   4.322 -0.1903 -1.3034  0.8521
 2094TIP3   OH2 6287   6.119   5.323   1.623 -0.2535 -0.5506 -0.3921
 2094TIP3    H1 6288   6.166   5.241   1.609  1.1077 -0.0142  0.7848
 2094TIP3    H2 6289   6.028   5.296   1.637 -0.1846 -1.6786 -1.9002
 2095TIP3   OH2 6290   0.010   3.032   1.293  0.4996  0.1161  0.1537
 2095TIP3    H1 6291   0.037   2.975   1.221 -0.1021 -0.3724  0.3082
 2095TIP3    H2 6292   0.043   3.118   1.269 -0.5516  0.1695 -1.2126
 2096TIP3   OH2 6293   4.759   2.810   4.154  0.9945 -0.0697 -0.1359
 2096TIP3    H1 6294   4.766   2.749   4.081 -0.1747 -1.1032  0.5753
 2096TIP3    H2 6295   4.837   2.793   4.207  0.0976 -1.8670  0.6933
 2097TIP3   OH2 6296   5.618   4.958   0.637 -0.3923  0.5238  0.0839
 2097TIP3    H1 6297   5.562   5.008   0.696  0.6472  2.0814 -0.1796
 2097TIP3    H2 6298   5.590   4.986   0.549 -0.4687 -0.1163 -0.0962
 2098TIP3   OH2 6299   4.539   4.064   4.428  0.2166 -0.4104  0.1896
 2098TIP3    H1 6300   4.547   4.118   4.507 -2.0452 -0.5823  0.6244
 2098TIP3    H2 6301   4.544   3.974   4.460  0.1544 -0.4707  0.0331
 2099TIP3   OH2 6302   1.516   4.496   2.680 -0.2676 -0.1645 -0.0497
 2099TIP3    H1 6303   1.546   4.553   2.609 -1.3866 -0.7069 -1.0073
 2099TIP3    H2 6304   1.578   4.422   2.679  0.4652  0.4275  0.3957
 2100TIP3   OH2 6305   3.883   3.653   2.453 -0.0502  0.3657 -0.0586
 2100TIP3    H1 6306   3.792   3.648   2.481  0.1338  0.3781  0.5553
 2100TIP3    H2 6307   3.915   3.563   2.458 -0.3183  0.1862 -1.2938
 2101TIP3   OH2 6308   2.133   0.055   4.508 -0.2235  0.5677  0.1063
 2101TIP3    H1 6309   2.123   0.040   4.414  1.4706  1.9446 -0.3457
 2101TIP3    H2 6310   2.087   0.138   4.523 -1.1714 -0.0429  0.6746
 2102TIP3   OH2 6311   5.872   2.702   3.492 -0.5899 -0.0566  0.2453
 2102TIP3    H1 6312   5.894   2.639   3.423 -2.3494  0.5545 -0.9478
 2102TIP3    H2 6313   5.903   2.786   3.459 -0.4318  0.0794  0.7290
 2103TIP3   OH2 6314   6.259   5.039   2.284 -0.2806  0.8775  1.0779
 2103TIP3    H1 6315   6.267   5.041   2.379  0.7784 -2.5045  1.1750
 2103TIP3    H2 6316   6.290   4.952   2.259 -0.8355  1.5334 -2.3561
 2104TIP3   OH2 6317   5.604   5.226   3.944  0.5718 -0.2557  0.0917
 2104TIP3    H1 6318   5.611   5.249   4.037 -0.2632 -2.1789  0.6828
 2104TIP3    H2 6319   5.524   5.270   3.915  0.7991  0.3004  0.2919
 2105TIP3   OH2 6320   2.716   5.574   4.820  0.5488  0.1868  0.3361
 2105TIP3    H1 6321   2.750   5.597   4.734  0.2858 -0.8437 -0.0694
 2105TIP3    H2 6322   2.662   5.648   4.846  3.3110  2.0693  1.1813
 2106TIP3   OH2 6323   4.849   4.005   1.114 -0.5634 -0.3772  0.2742
 2106TIP3    H1 6324   4.894   3.933   1.068  0.0090 -0.2314  0.6058
 2106TIP3    H2 6325   4.763   4.009   1.072  0.2180  0.2834 -1.3626
 2107TIP3   OH2 6326   4.542   2.283   1.876 -0.0667 -0.3174 -0.4624
 2107TIP3    H1 6327   4.467   2.223   1.873  0.1329 -0.5650 -0.5016
 2107TIP3    H2 6328   4.589   2.266   1.795  0.8473 -1.2157  0.2337
 2108TIP3   OH2 6329   1.290   2.270   4.369 -0.2261  0.6419 -0.1518
 2108TIP3    H1 6330   1.268   2.215   4.295  0.0577  0.4699 -0.1114
 2108TIP3    H2 6331   1.342   2.213   4.427 -1.4129  0.4152  0.7405
 2109TIP3   OH2 6332   3.844   0.345   3.646 -0.2061 -0.3586 -0.3539
 2109TIP3    H1 6333   3.824   0.390   3.728  0.0602 -2.1713  0.7735
 2109TIP3    H2 6334   3.839   0.252   3.668 -1.3948 -0.9493 -2.7197
 2110TIP3   OH2 6335   4.794   5.261   3.560  0.3018  0.1574  0.0688
 2110TIP3    H1 6336   4.832   5.201   3.624 -0.8717  0.8498  1.4906
 2110TIP3    H2 6337   4.699   5.247   3.567  0.1567 -0.0816 -1.8880
 2111TIP3   OH2 6338   3.670   0.551   5.100  0.4211 -0.2113 -0.0992
 2111TIP3    H1 6339   3.600   0.616   5.103  0.9751  0.3613  1.1447
 2111TIP3    H2 6340   3.646   0.493   5.028 -0.6178  0.7661 -0.5697
 2112TIP3   OH2 6341   5.838   3.813   1.422 -0.4814  0.2055 -0.5258
 2112TIP3    H1 6342   5.916   3.765   1.393 -2.0687 -1.8505 -1.6449
 2112TIP3    H2 6343   5.818   3.777   1.508  0.4162  1.5965  0.3176
 2113TIP3   OH2 6344   5.915   1.725   3.152  0.1259  0.4026  0.5000
 2113TIP3    H1 6345   5.978   1.654   3.166  0.3323  0.8375  1.8662
 2113TIP3    H2 6346   5.965   1.805   3.166 -0.0339  0.8614 -1.3309
 2114TIP3   OH2 6347   4.709   3.700   1.389  0.0312  0.4792  0.6983
 2114TIP3    H1 6348   4.740   3.669   1.474 -1.7847 -1.8384  0.6283
 2114TIP3    H2 6349   4.634   3.756   1.410 -0.7008 -0.4565  0.6624
 2115TIP3   OH2 6350   1.628   5.535   4.133  0.1959 -0.3491  0.4444
 2115TIP3    H1 6351   1.628   5.489   4.049  1.1470  0.0809  0.1954
 2115TIP3    H2 6352   1.720   5.547   4.153 -0.0208 -0.7399  1.7249
 2116TIP3   OH2 6353   1.203   0.015   0.982 -0.5853  0.2678  0.1095
 2116TIP3    H1 6354   1.112  -0.002   1.009 -0.5214 -1.0523 -0.4238
 2116TIP3    H2 6355   1.204  -0.008   0.889  0.6404 -1.2146  0.4566
 2117TIP3   OH2 6356   5.312   2.426   0.413  0.2630  0.1401  0.4428
 2117TIP3    H1 6357   5.385   2.365   0.402  0.6194  0.4082  1.2453
 2117TIP3    H2 6358   5.301   2.466   0.327  0.2769 -0.7627  0.0033
 2118TIP3   OH2 6359   4.470   4.170   2.196  0.2083 -0.3304  0.3065
 2118TIP3    H1 6360   4.422   4.153   2.277  0.5361  1.2317  0.8747
 2118TIP3    H2 6361   4.406   4.155   2.126 -0.7837  0.5194  0.9857
 2119TIP3   OH2 6362   5.572   2.471   1.650  0.5372 -0.0272 -0.0503
 2119TIP3    H1 6363   5.515   2.411   1.699  2.6931 -1.3555  0.9774
 2119TIP3    H2 6364   5.592   2.540   1.713  1.4268 -0.5015  0.2095
 2120TIP3   OH2 6365   1.970   1.275   2.897 -0.0898 -0.2584 -0.2793
 2120TIP3    H1 6366   1.914   1.200   2.876  0.6753 -1.2438  1.0422
 2120TIP3    H2 6367   1.974   1.275   2.992  2.8160 -0.7399 -0.3304
 2121TIP3   OH2 6368   5.474   4.254   1.670 -0.1886  0.0153 -0.0435
 2121TIP3    H1 6369   5.388   4.267   1.710 -0.0459  0.7328  0.0565
 2121TIP3    H2 6370   5.505   4.343   1.651  0.2021 -0.2676 -0.7858
 2122TIP3   OH2 6371   0.305   1.495   4.335  0.4746  0.3887  0.1001
 2122TIP3    H1 6372   0.373   1.561   4.345 -0.6281  1.4058  1.0532
 2122TIP3    H2 6373   0.249   1.528   4.265  0.7192 -0.2470 -0.4057
 2123TIP3   OH2 6374   3.808   1.258   5.114  0.1928  0.1647  0.0297
 2123TIP3    H1 6375   3.773   1.213   5.037  0.1354 -0.5828  0.4852
 2123TIP3    H2 6376   3.837   1.187   5.172  0.5083  0.7274  0.5663
 2124TIP3   OH2 6377   4.860   5.464   3.188 -0.2483 -0.0546 -0.2084
 2124TIP3    H1 6378   4.860   5.481   3.282  1.6153  0.0222 -0.1794
 2124TIP3    H2 6379   4.876   5.370   3.182 -0.3771 -0.0599 -0.4584
 2125TIP3   OH2 6380   3.434   1.446   4.368 -0.3709 -0.4103  0.0402
 2125TIP3    H1 6381   3.367   1.451   4.299 -1.6126  1.2167  1.2746
 2125TIP3    H2 6382   3.477   1.531   4.366  1.5912 -1.3726 -0.5945
 2126TIP3   OH2 6383   5.900   5.885   3.852 -0.0653 -0.5984  0.3915
 2126TIP3    H1 6384   5.913   5.802   3.897 -0.3834 -0.9136 -0.0955
 2126TIP3    H2 6385   5.977   5.894   3.795  0.2829 -0.2521  0.9084
 2127TIP3   OH2 6386   5.133   2.721   2.864  0.0986  0.3023  0.0189
 2127TIP3    H1 6387   5.086   2.777   2.926 -1.8302  1.1485 -2.0608
 2127TIP3    H2 6388   5.068   2.657   2.836  1.1249 -0.5015 -0.6154
 2128TIP3   OH2 6389   4.765   2.774   3.557 -0.2148  0.9946 -0.0634
 2128TIP3    H1 6390   4.700   2.718   3.516  0.3215 -0.3066  0.8006
 2128TIP3    H2 6391   4.713   2.841   3.602 -0.9681  0.1012  0.4472
 2129TIP3   OH2 6392   3.990   0.475   2.598 -0.2104  0.1954 -0.2395
 2129TIP3    H1 6393   3.939   0.553   2.575  0.5394  0.6271 -0.4685
 2129TIP3    H2 6394   3.956   0.449   2.683 -0.4394  0.8016 -0.1379
 2130TIP3   OH2 6395   5.140   2.004   2.215 -0.4721  0.2805  0.1531
 2130TIP3    H1 6396   5.188   1.984   2.135 -0.0175  1.2750  0.1614
 2130TIP3    H2 6397   5.190   1.960   2.284 -0.3058  0.2322  0.0027
 2131TIP3   OH2 6398   3.349   3.495   1.165 -0.0832 -0.0242  0.4263
 2131TIP3    H1 6399   3.322   3.522   1.253  0.4354  1.0421  0.2831
 2131TIP3    H2 6400   3.269   3.499   1.113 -0.1243  0.7644  0.5369
 2132TIP3   OH2 6401   2.333   5.186   3.529  0.3683  0.0091  0.2483
 2132TIP3    H1 6402   2.294   5.151   3.449  0.0851 -0.2248  0.4879
 2132TIP3    H2 6403   2.382   5.263   3.499  0.4611 -0.2085 -0.1840
 2133TIP3   OH2 6404   4.296   1.207   3.812  0.1894  0.1517 -0.9486
 2133TIP3    H1 6405   4.374   1.171   3.771  0.1542  0.4824 -1.3095
 2133TIP3    H2 6406   4.327   1.283   3.861  0.4351 -0.9447  0.6749
 2134TIP3   OH2 6407   0.519   1.057   4.770  0.5678  0.3436 -0.6465
 2134TIP3    H1 6408   0.486   1.132   4.720  0.6584  0.1969 -0.9275
 2134TIP3    H2 6409   0.577   1.012   4.710  1.5064  0.7455 -0.0616
 2135TIP3   OH2 6410   0.247   5.800   2.085 -0.2542 -0.3074 -0.1958
 2135TIP3    H1 6411   0.272   5.869   2.146  1.8023 -1.1465 -0.0109
 2135TIP3    H2 6412   0.216   5.728   2.141 -0.2083 -0.3620 -0.2390
 2136TIP3   OH2 6413   1.015   2.687   4.826  0.0272 -0.1166 -0.3975
 2136TIP3    H1 6414   0.939   2.639   4.793 -1.9037  1.1971  1.9001
 2136TIP3    H2 6415   1.015   2.769   4.778  0.7365 -0.5489 -1.1866
 2137TIP3   OH2 6416   2.280   3.806   2.417 -0.3994 -0.0545 -0.1304
 2137TIP3    H1 6417   2.256   3.891   2.452 -1.8889 -0.5211  0.0391
 2137TIP3    H2 6418   2.375   3.811   2.404  0.0863  0.5001  2.9941
 2138TIP3   OH2 6419   4.480   2.864   0.761 -0.0646  0.1771 -0.0659
 2138TIP3    H1 6420   4.414   2.879   0.693  1.8531  1.4690 -1.8199
 2138TIP3    H2 6421   4.490   2.769   0.766 -1.2919  0.0165 -0.5280
 2139TIP3   OH2 6422   0.483   0.942   3.391 -0.1856  0.0175 -0.3019
 2139TIP3    H1 6423   0.471   1.006   3.321 -1.0808 -0.0148 -0.1964
 2139TIP3    H2 6424   0.442   0.862   3.358  0.6593 -0.4160 -0.3104
 2140TIP3   OH2 6425   5.786   5.127   1.048 -0.8689  0.1715  0.1414
 2140TIP3    H1 6426   5.780   5.038   1.014 -1.4004  0.3468 -0.2558
 2140TIP3    H2 6427   5.857   5.167   0.999 -1.8250  0.5143 -1.0333
 2141TIP3   OH2 6428   4.526   2.672   0.374 -0.2471  0.2682  0.0747
 2141TIP3    H1 6429   4.578   2.614   0.430  0.4668  1.4589  0.6963
 2141TIP3    H2 6430   4.570   2.669   0.289  1.1271  1.5392  0.6889
 2142TIP3   OH2 6431   2.137   2.444   0.113 -0.2058  0.4554  0.3279
 2142TIP3    H1 6432   2.045   2.417   0.111 -0.3514  0.9615 -0.8604
 2142TIP3    H2 6433   2.185   2.369   0.078 -0.1683  0.2497  0.8045
 2143TIP3   OH2 6434   0.904   3.744   1.694  0.3443 -0.3479  0.5046
 2143TIP3    H1 6435   0.944   3.663   1.663  2.3188  0.6977  0.1525
 2143TIP3    H2 6436   0.978   3.797   1.725 -0.6818  1.9091 -0.6354
 2144TIP3   OH2 6437   3.570   4.100   2.202 -0.4415 -0.5733 -0.5494
 2144TIP3    H1 6438   3.621   4.142   2.271 -2.7611  0.6724  0.5336
 2144TIP3    H2 6439   3.607   4.133   2.121  0.2735  0.5193  0.1985
 2145TIP3   OH2 6440   1.857   5.331   4.047  0.5352  0.2221  0.0832
 2145TIP3    H1 6441   1.940   5.379   4.040  2.2653 -2.4371  0.8268
 2145TIP3    H2 6442   1.827   5.321   3.957  1.1136  1.0616 -0.2126
 2146TIP3   OH2 6443   5.456   2.947   0.216 -0.2392 -0.0588 -0.1361
 2146TIP3    H1 6444   5.447   2.857   0.247 -0.4067 -0.2913 -0.8518
 2146TIP3    H2 6445   5.372   2.988   0.237  0.2259  0.2505  1.1934
 2147TIP3   OH2 6446   4.331   3.459   2.337  0.2338  0.0434 -0.5548
 2147TIP3    H1 6447   4.414   3.499   2.313  0.2402 -0.2225 -0.9654
 2147TIP3    H2 6448   4.344   3.365   2.327  0.7014 -0.2245  1.8845
 2148TIP3   OH2 6449   4.069   0.229   1.446 -0.6807 -0.3849 -0.1764
 2148TIP3    H1 6450   3.975   0.241   1.433 -0.5106  2.5956  0.7072
 2148TIP3    H2 6451   4.110   0.304   1.403  1.0983 -0.3472  1.4347
 2149TIP3   OH2 6452   2.519   4.511   0.484  0.3944  0.0440 -0.1496
 2149TIP3    H1 6453   2.604   4.493   0.525  0.5528  0.1001 -0.4537
 2149TIP3    H2 6454   2.538   4.516   0.391 -0.1620 -1.2629 -0.3508
 2150TIP3   OH2 6455   1.512   4.517   2.059  0.5552  0.2116 -0.0836
 2150TIP3    H1 6456   1.562   4.585   2.014 -1.8812  2.1755 -0.0229
 2150TIP3    H2 6457   1.441   4.564   2.103 -0.7860 -2.3041  0.6505
 2151TIP3   OH2 6458   3.715   5.194   1.490 -0.5732 -0.6000 -0.1099
 2151TIP3    H1 6459   3.673   5.279   1.502  0.3021  0.1140 -1.6810
 2151TIP3    H2 6460   3.805   5.216   1.465 -0.5313 -1.9613 -1.2771
 2152TIP3   OH2 6461   4.127   5.470   4.924 -0.2863  0.3732  0.2846
 2152TIP3    H1 6462   4.138   5.411   4.999  1.1815  1.8752  1.3273
 2152TIP3    H2 6463   4.035   5.495   4.926 -0.2377  0.5489  1.7379
 2153TIP3   OH2 6464   4.062   2.149   1.704  0.6038  0.4997 -0.2107
 2153TIP3    H1 6465   3.987   2.165   1.647  0.3623  4.3966  0.8710
 2153TIP3    H2 6466   4.134   2.195   1.661  0.9525  1.5810  1.4449
 2154TIP3   OH2 6467   0.727   3.582   0.237  0.5296 -0.3483 -0.1893
 2154TIP3    H1 6468   0.717   3.641   0.162 -2.3572  2.2078  1.9634
 2154TIP3    H2 6469   0.798   3.620   0.288  0.2292 -0.0824  0.0347
 2155TIP3   OH2 6470   5.590   3.567   5.022 -0.0149 -0.3125  0.4792
 2155TIP3    H1 6471   5.529   3.527   5.083  0.9398  0.6491  2.1256
 2155TIP3    H2 6472   5.648   3.495   4.995  0.4139 -0.4966  1.8105
 2156TIP3   OH2 6473   5.908   4.001   4.839 -0.0506  0.2022 -0.2476
 2156TIP3    H1 6474   5.837   3.994   4.774 -1.2031  3.0201  0.5298
 2156TIP3    H2 6475   5.951   4.084   4.818  1.5734 -0.3372  0.7373
 2157TIP3   OH2 6476   5.656   2.785   3.271  0.7608 -0.2122  0.0026
 2157TIP3    H1 6477   5.736   2.735   3.255  0.9507  0.1124 -0.0888
 2157TIP3    H2 6478   5.673   2.870   3.229  1.0351  0.4592  1.4362
 2158TIP3   OH2 6479   4.411   1.343   0.274 -0.6003  0.4204 -0.1345
 2158TIP3    H1 6480   4.472   1.328   0.202 -0.2512  0.7500  0.0853
 2158TIP3    H2 6481   4.395   1.438   0.273 -0.6157  0.4248  0.1979
 2159TIP3   OH2 6482   5.834   1.685   1.655  0.3304  0.4752 -0.3679
 2159TIP3    H1 6483   5.833   1.696   1.750 -0.0023 -0.6495 -0.2274
 2159TIP3    H2 6484   5.769   1.747   1.623  0.5102  0.9267  0.1289
 2160TIP3   OH2 6485   1.605   1.509   3.159 -0.2495 -0.0961 -0.2241
 2160TIP3    H1 6486   1.567   1.460   3.232  0.6109 -1.1150 -0.4350
 2160TIP3    H2 6487   1.587   1.455   3.082 -0.2045  0.4461 -0.6260
 2161TIP3   OH2 6488   1.545   2.658   0.165 -0.8883 -0.1850  0.1064
 2161TIP3    H1 6489   1.497   2.579   0.143 -2.2966  0.4589  0.7421
 2161TIP3    H2 6490   1.478   2.722   0.188  0.2793  0.4057  2.1959
 2162TIP3   OH2 6491   5.566   3.384   1.760  1.0462 -0.0470  0.6307
 2162TIP3    H1 6492   5.491   3.442   1.755  0.2373 -1.1419 -0.7503
 2162TIP3    H2 6493   5.587   3.380   1.853 -1.4564 -0.7467  1.2353
 2163TIP3   OH2 6494   1.338   0.751   2.667  0.3545 -0.0149 -0.2545
 2163TIP3    H1 6495   1.247   0.743   2.694 -0.0474 -0.3984 -1.6341
 2163TIP3    H2 6496   1.363   0.839   2.693 -0.6372  0.3588 -0.5294
 2164TIP3   OH2 6497   4.688   5.724   2.083 -0.1012  0.2041 -0.3263
 2164TIP3    H1 6498   4.617   5.774   2.045  0.2722 -0.0983 -1.4561
 2164TIP3    H2 6499   4.648   5.676   2.155 -1.0201  0.0786 -0.9133
 2165TIP3   OH2 6500   4.852   1.854   4.406  0.2250 -0.0628  0.4480
 2165TIP3    H1 6501   4.765   1.886   4.381 -0.7741 -0.7885  2.8069
 2165TIP3    H2 6502   4.879   1.799   4.332 -1.4493 -0.0901 -0.1858
 2166TIP3   OH2 6503   3.413   5.515   2.020 -0.0833 -0.4722  0.2470
 2166TIP3    H1 6504   3.508   5.506   2.026  0.4340  2.2247 -1.8855
 2166TIP3    H2 6505   3.382   5.429   1.991  1.9988 -0.8225 -1.1337
 2167TIP3   OH2 6506   4.527   2.114   3.304 -0.1655 -0.1636  0.1595
 2167TIP3    H1 6507   4.515   2.032   3.353  0.4036  0.2105  0.9359
 2167TIP3    H2 6508   4.558   2.085   3.218 -0.0308 -0.7729  0.4029
 2168TIP3   OH2 6509   5.263   1.627   3.609 -0.4241  0.2341  0.4243
 2168TIP3    H1 6510   5.309   1.558   3.562  0.2629  1.0975 -0.2079
 2168TIP3    H2 6511   5.201   1.663   3.545  1.3110  2.1793 -0.2639
 2169TIP3   OH2 6512   4.704   1.463   1.560  0.3254  0.3120 -0.8582
 2169TIP3    H1 6513   4.734   1.554   1.563  0.2540  0.3171 -0.0544
 2169TIP3    H2 6514   4.690   1.446   1.467 -0.0827  1.2649 -0.9914
 2170TIP3   OH2 6515   3.348   4.391   2.301 -0.2835 -0.8002  0.5611
 2170TIP3    H1 6516   3.402   4.462   2.266  0.2715 -1.8530 -0.8015
 2170TIP3    H2 6517   3.264   4.400   2.255 -0.5459 -0.4770  1.0876
 2171TIP3   OH2 6518   5.574   2.871   0.565  0.1496  0.2240 -0.1644
 2171TIP3    H1 6519   5.618   2.898   0.645 -1.1270  0.3644  0.5116
 2171TIP3    H2 6520   5.560   2.777   0.575 -0.4788  0.3317  0.0261
 2172TIP3   OH2 6521   4.104   3.142   4.216  0.3527 -0.0476  0.5036
 2172TIP3    H1 6522   4.031   3.183   4.263  0.7247  0.7546  0.3890
 2172TIP3    H2 6523   4.133   3.071   4.274 -0.3992 -0.2612  0.6282
 2173TIP3   OH2 6524   2.116   1.946   3.272 -0.0522 -0.0941  0.3799
 2173TIP3    H1 6525   2.189   1.926   3.214  1.9760  1.5818  2.1375
 2173TIP3    H2 6526   2.137   1.899   3.353 -1.9836 -1.1256  0.3256
 2174TIP3   OH2 6527   4.909   3.930   1.570 -0.4226 -0.1845  0.4307
 2174TIP3    H1 6528   4.829   3.981   1.583 -1.5280 -1.6409 -0.2788
 2174TIP3    H2 6529   4.947   3.963   1.489  0.1840  1.0816  1.2037
 2175TIP3   OH2 6530   3.843   1.608   3.943  0.5212 -0.7393  0.0111
 2175TIP3    H1 6531   3.901   1.636   3.873 -0.0811  1.6776  0.4059
 2175TIP3    H2 6532   3.901   1.573   4.011  1.3204 -0.4637 -0.5240
 2176TIP3   OH2 6533   4.306   5.639   1.566 -0.1208 -0.1607  0.2077
 2176TIP3    H1 6534   4.385   5.692   1.556 -1.0505  1.1198 -0.6667
 2176TIP3    H2 6535   4.312   5.573   1.497 -0.3851  0.6903 -0.6411
 2177TIP3   OH2 6536   4.424   3.839   0.707 -0.1614  0.3065  0.4684
 2177TIP3    H1 6537   4.335   3.805   0.698 -1.1694  3.0041 -1.3308
 2177TIP3    H2 6538   4.471   3.805   0.631  0.0819 -0.3791  0.9216
 2178TIP3   OH2 6539   4.175   5.134   3.339  0.5420  0.1485  0.4414
 2178TIP3    H1 6540   4.141   5.121   3.250 -1.0692  1.7000  0.7813
 2178TIP3    H2 6541   4.187   5.228   3.346  1.0525  0.0000  1.7571
 2179TIP3   OH2 6542   4.483   4.419   0.931 -0.0527 -0.1980  0.1385
 2179TIP3    H1 6543   4.409   4.412   0.993 -0.2777 -1.9692 -0.2523
 2179TIP3    H2 6544   4.559   4.393   0.983 -0.0526 -0.4949 -0.0084
 2180TIP3   OH2 6545   5.301   1.867   4.002 -0.5050  0.1055 -0.0635
 2180TIP3    H1 6546   5.302   1.955   4.041  1.1700  0.6307 -1.1664
 2180TIP3    H2 6547   5.210   1.837   4.011 -1.2471  2.1756 -0.1483
 2181TIP3   OH2 6548   4.071   5.941   2.366  0.3420  0.2139 -0.8153
 2181TIP3    H1 6549   4.088   6.006   2.298 -2.1549  1.5184 -0.2731
 2181TIP3    H2 6550   4.020   5.873   2.321 -1.7822  1.3346 -0.2475
 2182TIP3   OH2 6551   2.238   4.388   1.901 -0.3208  0.0702  0.2973
 2182TIP3    H1 6552   2.168   4.330   1.932  0.6414 -1.7009 -0.7032
 2182TIP3    H2 6553   2.192   4.465   1.866 -1.5795  0.3985  2.5117
 2183TIP3   OH2 6554   1.552   3.678   2.158  0.1905 -0.0093 -0.7073
 2183TIP3    H1 6555   1.646   3.666   2.146  0.0530 -1.1509 -0.7078
 2183TIP3    H2 6556   1.538   3.772   2.145  1.2312  0.0713 -1.3390
 2184TIP3   OH2 6557   0.570   5.801   2.607  0.2340 -0.0135 -0.0778
 2184TIP3    H1 6558   0.602   5.829   2.693 -0.7486  0.7211  0.0598
 2184TIP3    H2 6559   0.580   5.705   2.608  1.5225  0.1042  0.3139
 2185TIP3   OH2 6560   5.103   4.398   2.962  0.1641  0.8008 -0.2547
 2185TIP3    H1 6561   5.107   4.493   2.976 -2.8276  1.3119 -1.9001
 2185TIP3    H2 6562   5.022   4.385   2.913  0.5716 -2.6298 -0.2501
 2186TIP3   OH2 6563   2.207   0.043   2.732 -0.0628  0.5977  0.6617
 2186TIP3    H1 6564   2.210   0.121   2.678  0.3033  0.2994  0.2451
 2186TIP3    H2 6565   2.124   0.001   2.709 -0.1193  0.7058  0.6664
 2187TIP3   OH2 6566   1.420   0.099   2.240 -0.1921  0.3782 -0.1673
 2187TIP3    H1 6567   1.439   0.181   2.286  1.0364 -0.1975  0.4053
 2187TIP3    H2 6568   1.352   0.058   2.293 -0.0116  0.5256  0.1897
 2188TIP3   OH2 6569   4.353   1.216   2.731 -0.7119  0.6232 -0.2230
 2188TIP3    H1 6570   4.278   1.252   2.685 -2.1649 -0.0326  1.5322
 2188TIP3    H2 6571   4.370   1.279   2.802  0.5759  0.8953 -0.7435
 2189TIP3   OH2 6572   5.219   0.797   0.470  0.5790 -0.4889 -0.1170
 2189TIP3    H1 6573   5.263   0.877   0.441 -0.4737 -0.3114 -1.2898
 2189TIP3    H2 6574   5.188   0.755   0.390  1.1684 -2.1384  0.4736
 2190TIP3   OH2 6575   0.884   3.026   4.132 -0.6832 -0.3189 -0.3081
 2190TIP3    H1 6576   0.967   3.067   4.158 -0.2574 -0.6861 -1.0292
 2190TIP3    H2 6577   0.901   2.932   4.140 -0.9045 -0.4047 -0.8058
 2191TIP3   OH2 6578   3.761   0.942   5.196 -0.2997 -0.3919  0.0505
 2191TIP3    H1 6579   3.782   0.966   5.106 -1.2467 -0.9604 -0.3417
 2191TIP3    H2 6580   3.673   0.977   5.210  0.1135  0.3089  1.0078
 2192TIP3   OH2 6581   0.070   1.394   4.089  0.3844 -0.1570  0.6040
 2192TIP3    H1 6582   0.097   1.482   4.113  1.5638 -0.4688  0.5138
 2192TIP3    H2 6583   0.069   1.394   3.993 -1.4984  0.2752  0.5831
 2193TIP3   OH2 6584   4.070   5.305   1.971 -0.3536  0.6238 -0.3406
 2193TIP3    H1 6585   4.009   5.234   1.993  1.1512 -0.7632 -0.3971
 2193TIP3    H2 6586   4.106   5.332   2.055  2.0881 -1.5863 -0.5483
 2194TIP3   OH2 6587   3.942   5.145   3.779  0.3947 -0.3062 -0.4881
 2194TIP3    H1 6588   3.878   5.210   3.751  0.0837 -0.1152  0.6216
 2194TIP3    H2 6589   4.020   5.196   3.802  0.0101 -0.2533  0.7918
 2195TIP3   OH2 6590   6.322   2.245   4.514  0.5343 -0.2645  0.1365
 2195TIP3    H1 6591   6.406   2.251   4.469  0.4923 -1.1213 -0.0578
 2195TIP3    H2 6592   6.264   2.201   4.452 -0.0664  0.3057  0.2700
 2196TIP3   OH2 6593   5.124   3.020   0.981  1.1222 -0.0476  0.1894
 2196TIP3    H1 6594   5.106   3.017   0.887  2.6027 -1.1762 -0.1003
 2196TIP3    H2 6595   5.160   3.108   0.995 -1.3405  1.0243  0.1958
 2197TIP3   OH2 6596   5.443   3.391   2.631 -0.1987 -0.3152  0.2042
 2197TIP3    H1 6597   5.402   3.441   2.561 -1.0893 -0.0901  0.8656
 2197TIP3    H2 6598   5.456   3.454   2.702  0.6634 -0.5440  0.2588
 2198TIP3   OH2 6599   3.429   1.883   4.549 -0.0630 -0.5213  0.2208
 2198TIP3    H1 6600   3.424   1.934   4.468  2.6102 -0.9198 -0.2722
 2198TIP3    H2 6601   3.416   1.793   4.521  2.4209 -0.8417 -0.0907
 2199TIP3   OH2 6602   0.550   3.958   4.239  0.1787  0.2800  0.8722
 2199TIP3    H1 6603   0.590   4.023   4.296  0.9580  0.5422  0.0484
 2199TIP3    H2 6604   0.624   3.914   4.197 -0.3731 -0.2391  0.4247
 2200TIP3   OH2 6605   1.540   3.017   0.265  0.0547  0.0411  0.4175
 2200TIP3    H1 6606   1.471   2.951   0.268  2.2962 -2.6308 -1.6211
 2200TIP3    H2 6607   1.621   2.969   0.283  1.6324  2.7168  1.1080
 2201TIP3   OH2 6608   5.062   0.104   0.909 -0.1828 -0.0516  0.3514
 2201TIP3    H1 6609   5.114   0.181   0.935  0.9355 -0.9568  0.8753
 2201TIP3    H2 6610   5.127   0.040   0.880 -0.9603 -1.3398  1.3338
 2202TIP3   OH2 6611   2.868   5.767   1.806 -0.3240  0.1543  0.0785
 2202TIP3    H1 6612   2.864   5.739   1.898 -0.2653  1.7212  0.5959
 2202TIP3    H2 6613   2.817   5.847   1.804  1.4697  1.3372 -0.7816
 2203TIP3   OH2 6614   4.869   4.281   1.164  0.4165  0.2361 -0.4264
 2203TIP3    H1 6615   4.874   4.188   1.142  2.1953  0.5214 -1.4195
 2203TIP3    H2 6616   4.959   4.313   1.154  0.1018  1.7992  1.1473
 2204TIP3   OH2 6617   4.467   4.498   1.838 -0.2038 -0.0020  0.1596
 2204TIP3    H1 6618   4.427   4.443   1.906 -1.0982 -0.6498 -0.8700
 2204TIP3    H2 6619   4.394   4.527   1.784  0.4901  0.5536 -0.4959
 2205TIP3   OH2 6620   5.233   4.831   5.131 -0.0371 -0.0853  0.6732
 2205TIP3    H1 6621   5.313   4.811   5.084  0.3324  0.3782  1.0846
 2205TIP3    H2 6622   5.238   4.780   5.212 -0.0714  0.0736  0.7780
 2206TIP3   OH2 6623   3.521   3.253   0.995 -0.1240  0.0398 -0.1611
 2206TIP3    H1 6624   3.466   3.215   0.927 -1.9780 -2.1420  2.3657
 2206TIP3    H2 6625   3.467   3.322   1.034  0.0378 -0.2011  0.5074
 2207TIP3   OH2 6626   4.623   4.492   1.589  0.1854 -0.2310  0.0829
 2207TIP3    H1 6627   4.622   4.474   1.683 -0.4716  0.2266  0.1712
 2207TIP3    H2 6628   4.712   4.523   1.572  0.7509 -1.7055  0.2702
 2208TIP3   OH2 6629   5.090   4.353   0.818  0.5658 -0.3843 -0.1502
 2208TIP3    H1 6630   5.136   4.373   0.900 -0.5113 -3.4280  1.3663
 2208TIP3    H2 6631   5.142   4.282   0.779  0.0694 -0.2034 -1.1725
 2209TIP3   OH2 6632   0.290   5.718   4.858 -0.0986 -0.0550 -0.5850
 2209TIP3    H1 6633   0.266   5.773   4.784 -0.3440 -1.6046 -1.6952
 2209TIP3    H2 6634   0.257   5.765   4.935 -1.6559  0.5940 -1.6119
 2210TIP3   OH2 6635   4.121   4.026   4.565 -0.2087 -0.3819  0.2179
 2210TIP3    H1 6636   4.062   4.030   4.639  1.1055  0.0427  1.2890
 2210TIP3    H2 6637   4.140   4.117   4.544 -0.4990 -0.5010 -0.5937
 2211TIP3   OH2 6638   3.630   1.962   5.039 -0.1140 -0.6012 -0.4291
 2211TIP3    H1 6639   3.623   1.914   4.956  2.7796 -0.7747 -0.6874
 2211TIP3    H2 6640   3.685   1.905   5.093  0.2347  0.7195  0.6352
 2212TIP3   OH2 6641   2.992   2.929   3.317 -0.3196  0.1232 -0.4267
 2212TIP3    H1 6642   2.991   2.957   3.225  1.4035  0.8537 -0.2518
 2212TIP3    H2 6643   3.029   2.841   3.316 -2.0302 -0.6540 -0.5665
 2213TIP3   OH2 6644   2.315   2.825   0.628  0.7223 -0.2022 -0.2627
 2213TIP3    H1 6645   2.339   2.738   0.662  2.2709  1.2724  2.8470
 2213TIP3    H2 6646   2.229   2.843   0.667  0.1458 -0.5070 -1.3531
 2214TIP3   OH2 6647   6.050   2.201   2.121 -0.0013  0.2118  0.0540
 2214TIP3    H1 6648   6.091   2.199   2.034  1.9150  0.0167  0.9238
 2214TIP3    H2 6649   6.123   2.209   2.182 -1.2836 -0.1233  1.6963
 2215TIP3   OH2 6650   3.324   3.000   1.043  0.5056  0.6559 -0.1897
 2215TIP3    H1 6651   3.417   2.985   1.056  0.7293  0.8134 -1.4824
 2215TIP3    H2 6652   3.318   3.043   0.957 -0.8601 -0.7882 -0.8721
 2216TIP3   OH2 6653   0.406   2.071   0.884 -0.1411  0.5658  0.3264
 2216TIP3    H1 6654   0.332   2.128   0.900 -0.2547  0.4692  0.1491
 2216TIP3    H2 6655   0.440   2.098   0.799 -0.1446  0.4242  0.2794
 2217TIP3   OH2 6656   1.875   4.298   4.914  0.0818 -0.0220  0.0877
 2217TIP3    H1 6657   1.800   4.247   4.884  1.0463 -0.4077 -1.8117
 2217TIP3    H2 6658   1.836   4.371   4.963 -1.4575 -0.8323  0.1212
 2218TIP3   OH2 6659   4.448   2.981   0.292 -0.0537  0.2406 -0.3195
 2218TIP3    H1 6660   4.435   2.921   0.366 -2.2337  1.6718  0.5557
 2218TIP3    H2 6661   4.396   2.942   0.221  0.9718 -0.4313 -0.7339
 2219TIP3   OH2 6662   4.194   1.605   1.667 -0.1614 -0.3356 -0.1252
 2219TIP3    H1 6663   4.278   1.565   1.645  0.4904 -0.1439  1.8084
 2219TIP3    H2 6664   4.191   1.686   1.616  1.2110  0.0377  0.3481
 2220TIP3   OH2 6665   4.148   4.104   2.973 -0.2019  0.4964  0.3756
 2220TIP3    H1 6666   4.107   4.039   2.915  1.0896  0.1796 -0.2269
 2220TIP3    H2 6667   4.128   4.188   2.931 -0.5863  0.3816  0.3216
 2221TIP3   OH2 6668   4.040   1.342   1.210 -0.2582  0.2398 -0.2508
 2221TIP3    H1 6669   4.018   1.434   1.219 -2.7376 -0.3589  0.7025
 2221TIP3    H2 6670   4.092   1.321   1.287  0.6924  0.9124 -0.6958
 2222TIP3   OH2 6671   4.533   4.829   5.103  0.2997 -0.8725  0.1678
 2222TIP3    H1 6672   4.487   4.748   5.125 -0.9378 -0.2642 -0.0954
 2222TIP3    H2 6673   4.463   4.890   5.078  1.3890 -0.9319 -3.6303
 2223TIP3   OH2 6674   2.176   4.538   4.094 -0.6365 -0.1435 -0.4864
 2223TIP3    H1 6675   2.258   4.568   4.131 -0.8519  0.9721 -0.8793
 2223TIP3    H2 6676   2.177   4.443   4.107  1.0755 -0.2595 -1.2317
 2224TIP3   OH2 6677   2.734   2.206   2.883 -0.0476  0.0730  0.2475
 2224TIP3    H1 6678   2.685   2.180   2.961 -0.0245 -0.8485 -0.0293
 2224TIP3    H2 6679   2.819   2.235   2.917 -0.1273 -0.0758  0.5803
 2225TIP3   OH2 6680   2.633   0.152   2.118 -0.2256 -0.2185 -0.1739
 2225TIP3    H1 6681   2.725   0.174   2.129 -0.1589 -0.3217 -0.5272
 2225TIP3    H2 6682   2.598   0.149   2.207  0.7337 -2.9384  0.1843
 2226TIP3   OH2 6683   1.444   3.713   4.263  0.0799 -0.2067 -0.1941
 2226TIP3    H1 6684   1.530   3.724   4.221  0.0579 -1.7922 -0.7377
 2226TIP3    H2 6685   1.460   3.734   4.355  0.4855  1.8251 -0.6792
 2227TIP3   OH2 6686   4.294   5.204   4.638  0.2137  0.1012 -0.2878
 2227TIP3    H1 6687   4.305   5.278   4.578 -1.1223  0.5974  0.0307
 2227TIP3    H2 6688   4.310   5.127   4.584  0.5913  0.5917 -0.8894
 2228TIP3   OH2 6689   5.590   1.008   1.167  0.0279 -0.3918  0.4972
 2228TIP3    H1 6690   5.549   0.940   1.221 -1.1531 -1.8059 -2.0068
 2228TIP3    H2 6691   5.565   0.986   1.077 -0.1523  3.2014 -0.5077
 2229TIP3   OH2 6692   3.822   1.114   3.537  0.6026  0.1607  0.8651
 2229TIP3    H1 6693   3.820   1.068   3.621  1.1435 -1.1367  0.1953
 2229TIP3    H2 6694   3.914   1.134   3.522  1.3769 -4.0809 -1.6651
 2230TIP3   OH2 6695   1.300   2.139   1.918 -0.4014  0.0230 -0.1432
 2230TIP3    H1 6696   1.334   2.074   1.979 -1.4357  1.1672  1.7593
 2230TIP3    H2 6697   1.291   2.092   1.835  0.8932 -1.6453  0.6091
 2231TIP3   OH2 6698   5.516   5.550   0.217  0.2200  0.1760 -0.5880
 2231TIP3    H1 6699   5.487   5.494   0.289  0.4405  0.4675 -0.2732
 2231TIP3    H2 6700   5.453   5.622   0.216 -0.1078 -0.1140 -1.0417
 2232TIP3   OH2 6701   3.456   5.145   1.141  0.9071 -0.7392  0.0415
 2232TIP3    H1 6702   3.412   5.201   1.206  0.0191  0.7456 -1.7542
 2232TIP3    H2 6703   3.535   5.115   1.186  0.9931  1.2862  1.3947
 2233TIP3   OH2 6704   6.046   4.811   4.840  0.2925  0.0084 -0.0837
 2233TIP3    H1 6705   5.968   4.814   4.894  0.5993  1.3582  0.3249
 2233TIP3    H2 6706   6.118   4.799   4.902  0.4793 -0.4972 -0.3908
 2234TIP3   OH2 6707   0.810   5.293   1.738  0.0898  0.0810  0.2364
 2234TIP3    H1 6708   0.730   5.306   1.688 -0.0136  1.5471  0.7373
 2234TIP3    H2 6709   0.781   5.292   1.830  0.8401  2.8778  0.5689
 2235TIP3   OH2 6710   0.788   1.580   0.169 -0.5718  0.0973  0.4327
 2235TIP3    H1 6711   0.814   1.619   0.086 -0.9032 -0.9855 -0.2022
 2235TIP3    H2 6712   0.697   1.605   0.180 -0.5606  0.1491  0.4077
 2236TIP3   OH2 6713   4.988   4.112   0.542  0.1807 -0.3118 -0.7417
 2236TIP3    H1 6714   4.911   4.116   0.600 -0.4073  0.8496 -1.5482
 2236TIP3    H2 6715   4.982   4.026   0.501 -1.4815  0.2275 -1.7684
 2237TIP3   OH2 6716   1.240   5.367   0.286 -0.0379  0.1657  0.5062
 2237TIP3    H1 6717   1.325   5.380   0.244  0.4884 -0.6758  1.2878
 2237TIP3    H2 6718   1.259   5.315   0.364 -1.5573 -2.1014 -0.5183
 2238TIP3   OH2 6719   5.993   2.247   2.984  0.0063 -0.4575 -0.6020
 2238TIP3    H1 6720   6.032   2.215   3.065 -1.3597 -1.3933 -0.3024
 2238TIP3    H2 6721   6.026   2.337   2.977 -0.5071 -0.0567  1.4290
 2239TIP3   OH2 6722   6.180   0.194   0.724  0.0064 -0.5896 -0.2591
 2239TIP3    H1 6723   6.209   0.285   0.721 -1.2869 -0.1338  0.2850
 2239TIP3    H2 6724   6.252   0.148   0.767  0.8552  0.0843 -0.9102
 2240TIP3   OH2 6725   4.191   1.027   1.357 -0.0497 -0.1129 -0.1882
 2240TIP3    H1 6726   4.108   1.074   1.357  0.7026  1.4279 -3.0758
 2240TIP3    H2 6727   4.166   0.935   1.347 -1.4239  0.1827  0.2965
 2241TIP3   OH2 6728   4.746   3.336   3.053 -0.3402  0.1422 -0.0677
 2241TIP3    H1 6729   4.820   3.294   3.097  0.2029 -0.9414 -1.8993
 2241TIP3    H2 6730   4.681   3.347   3.123  0.6983 -0.9179  1.1428
 2242TIP3   OH2 6731   1.940   2.697   4.010 -0.1664  1.3063  0.6210
 2242TIP3    H1 6732   1.994   2.619   4.026 -0.9770  0.6092  0.0793
 2242TIP3    H2 6733   1.870   2.691   4.075 -0.5668  1.2553  0.1902
 2243TIP3   OH2 6734   4.879   0.543   0.139 -0.7584  0.1090 -0.3493
 2243TIP3    H1 6735   4.963   0.589   0.143 -0.7308  0.1197 -0.9656
 2243TIP3    H2 6736   4.847   0.544   0.230  2.1179 -4.1123  1.0236
 2244TIP3   OH2 6737   4.750   1.150   2.131 -0.2568  0.0601 -0.0324
 2244TIP3    H1 6738   4.806   1.100   2.072  0.9486  0.6669  0.5769
 2244TIP3    H2 6739   4.725   1.087   2.199 -0.7170 -0.3355 -0.5556
 2245TIP3   OH2 6740   4.779   5.058   0.952 -0.0162  0.3941 -0.2339
 2245TIP3    H1 6741   4.748   5.015   1.031  0.0096 -0.9206 -0.9148
 2245TIP3    H2 6742   4.874   5.055   0.958 -0.0127  0.5874 -0.1683
 2246TIP3   OH2 6743   5.219   4.428   1.366 -0.0317  0.6715  0.3180
 2246TIP3    H1 6744   5.269   4.356   1.404 -0.0533  1.0071  0.9956
 2246TIP3    H2 6745   5.244   4.504   1.418 -0.5501  1.0152  0.0671
 2247TIP3   OH2 6746   4.158   4.661   2.088 -0.2979 -0.3670  0.0043
 2247TIP3    H1 6747   4.222   4.590   2.078  0.6995  0.4425  0.4690
 2247TIP3    H2 6748   4.192   4.731   2.032 -1.0886 -0.1252 -0.1839
 2248TIP3   OH2 6749   1.492   3.220   4.815  0.0755  0.2660  0.6276
 2248TIP3    H1 6750   1.402   3.247   4.832  0.1780  0.8755  0.2270
 2248TIP3    H2 6751   1.509   3.151   4.880 -1.3958 -1.4214 -0.6771
 2249TIP3   OH2 6752   5.014   3.013   1.603 -0.1696 -0.2646  0.3048
 2249TIP3    H1 6753   5.082   3.070   1.637 -0.2039  0.0231 -0.1101
 2249TIP3    H2 6754   5.044   2.924   1.624  0.9480 -0.2196 -0.9918
 2250TIP3   OH2 6755   1.505   3.475   4.956  0.8512 -0.2409  0.1579
 2250TIP3    H1 6756   1.566   3.440   4.892  0.5524 -1.1273  0.3356
 2250TIP3    H2 6757   1.421   3.477   4.910  1.0954  1.5313 -0.2786
 2251TIP3   OH2 6758   5.261   2.313   2.776 -0.2766 -0.1349 -0.6379
 2251TIP3    H1 6759   5.279   2.399   2.814 -1.0766 -0.2321 -0.0355
 2251TIP3    H2 6760   5.335   2.259   2.804 -0.5697 -0.0587  0.3199
 2252TIP3   OH2 6761   1.387   5.684   5.027 -0.1429 -0.9670 -0.4985
 2252TIP3    H1 6762   1.315   5.629   4.995  0.4913 -1.5712 -0.9137
 2252TIP3    H2 6763   1.465   5.648   4.985  0.7087 -1.6326  1.5337
 2253TIP3   OH2 6764   3.700   5.505   2.035  0.3065  0.2057  0.2037
 2253TIP3    H1 6765   3.736   5.589   2.006 -1.6543  0.6701 -1.0755
 2253TIP3    H2 6766   3.738   5.441   1.976 -1.7111  0.8394 -1.9324
 2254TIP3   OH2 6767   5.379   4.254   0.418  0.6278  0.2869  0.3468
 2254TIP3    H1 6768   5.349   4.276   0.330  0.2691  0.2770  0.4654
 2254TIP3    H2 6769   5.368   4.335   0.468  1.1334  0.3835  0.3041
 2255TIP3   OH2 6770   2.217   0.574   1.972  0.2713  0.4503  0.0487
 2255TIP3    H1 6771   2.191   0.483   1.958 -1.1295  0.6931  0.9073
 2255TIP3    H2 6772   2.188   0.620   1.893 -0.5462  0.4372  0.3313
 2256TIP3   OH2 6773   3.028   4.075   4.722  0.0780  0.5851 -0.2681
 2256TIP3    H1 6774   3.039   4.020   4.645  1.6054 -1.4028  1.2737
 2256TIP3    H2 6775   2.972   4.024   4.780  3.6266 -0.7885  2.3010
 2257TIP3   OH2 6776   3.906   4.334   0.044  0.1263  0.7005  0.0396
 2257TIP3    H1 6777   3.889   4.335  -0.050 -0.5954  0.9912  0.1675
 2257TIP3    H2 6778   4.001   4.329   0.051  0.1409 -1.3430 -0.7209
 2258TIP3   OH2 6779   5.216   0.432   1.785  0.0610  0.3805  0.0260
 2258TIP3    H1 6780   5.281   0.381   1.832 -0.2299 -0.3377 -0.3335
 2258TIP3    H2 6781   5.159   0.468   1.853  0.0760 -0.0410  0.2633
 2259TIP3   OH2 6782   0.043   2.533   2.389  0.0440  0.2997  0.4885
 2259TIP3    H1 6783   0.023   2.593   2.460  0.0376  1.1473 -0.2113
 2259TIP3    H2 6784  -0.042   2.509   2.352  0.1055  0.9334 -0.0861
 2260TIP3   OH2 6785   4.031   1.771   2.466 -0.1872 -0.3854  0.0782
 2260TIP3    H1 6786   4.088   1.825   2.412 -0.7161  0.5196  0.4089
 2260TIP3    H2 6787   4.064   1.682   2.453  0.3036 -0.0707 -0.9554
 2261TIP3   OH2 6788   2.887   3.443   0.559 -0.1445 -0.2411  0.1711
 2261TIP3    H1 6789   2.965   3.468   0.609 -0.4245 -1.2132  1.1269
 2261TIP3    H2 6790   2.852   3.367   0.606 -0.3893 -1.2408 -1.5273
 2262TIP3   OH2 6791   0.195   0.154   5.099  0.5195  0.1245  0.3862
 2262TIP3    H1 6792   0.195   0.144   5.003  2.7037 -0.2570  0.3903
 2262TIP3    H2 6793   0.102   0.144   5.123 -0.3577  1.9555 -1.8201
 2263TIP3   OH2 6794   2.636   0.272   3.637  0.1617 -0.0160 -0.7036
 2263TIP3    H1 6795   2.704   0.324   3.594  0.2367  1.5132  1.1075
 2263TIP3    H2 6796   2.683   0.201   3.680  0.5123  0.4528 -0.2967
 2264TIP3   OH2 6797   0.906   0.730   2.198 -0.3033  0.2890 -0.5694
 2264TIP3    H1 6798   0.861   0.796   2.250 -0.0817  0.5629 -0.7218
 2264TIP3    H2 6799   0.863   0.732   2.113  0.3710  0.9781 -0.9146
 2265TIP3   OH2 6800   1.263   4.243   2.368 -0.0351  0.0448  0.0556
 2265TIP3    H1 6801   1.283   4.294   2.446 -0.0573 -0.1827  0.2131
 2265TIP3    H2 6802   1.339   4.186   2.357  0.5137  0.9215 -0.7948
 2266TIP3   OH2 6803   5.709   0.630   4.914 -0.6229 -0.2534  0.3093
 2266TIP3    H1 6804   5.634   0.673   4.873  0.0836 -0.4023 -1.2390
 2266TIP3    H2 6805   5.694   0.537   4.898  0.0212 -0.2642 -0.2826
 2267TIP3   OH2 6806   3.160   1.150   3.922 -0.2299 -0.0481 -0.0562
 2267TIP3    H1 6807   3.101   1.200   3.978  0.2489  0.0140  0.4012
 2267TIP3    H2 6808   3.244   1.153   3.967  0.2254  0.2039 -0.8952
 2268TIP3   OH2 6809   1.496   3.412   2.944  0.8140  0.6987  0.0174
 2268TIP3    H1 6810   1.573   3.364   2.914  0.1777 -0.9057  0.8373
 2268TIP3    H2 6811   1.481   3.478   2.876  2.2259  0.3035 -0.7179
 2269TIP3   OH2 6812   1.488   4.657   2.883  0.2172 -0.3212 -0.1496
 2269TIP3    H1 6813   1.395   4.637   2.885  0.0755  0.4149  1.0484
 2269TIP3    H2 6814   1.520   4.614   2.803 -0.6014 -2.9154  0.8280
 2270TIP3   OH2 6815   3.887   0.117   1.044 -0.4307 -0.1288 -0.3315
 2270TIP3    H1 6816   3.959   0.066   1.008  0.7380 -0.1291  1.8392
 2270TIP3    H2 6817   3.818   0.053   1.061 -0.5954 -0.2823 -1.5175
 2271TIP3   OH2 6818   4.000   0.612   3.454  0.3543 -0.7819  0.1319
 2271TIP3    H1 6819   3.912   0.641   3.479  0.7558  2.0660 -1.3484
 2271TIP3    H2 6820   4.050   0.611   3.535 -0.3832  0.2486  0.6209
 2272TIP3   OH2 6821   5.880   5.881   4.175 -0.2453 -0.0319 -0.1555
 2272TIP3    H1 6822   5.915   5.810   4.121  1.1545  1.6490 -1.5430
 2272TIP3    H2 6823   5.799   5.844   4.212  0.9449 -2.6853  0.0414
 2273TIP3   OH2 6824   0.871   0.606   4.899 -0.2696 -0.1490  0.0834
 2273TIP3    H1 6825   0.956   0.610   4.942  1.0279  0.1754 -2.3597
 2273TIP3    H2 6826   0.862   0.515   4.871 -0.2337  0.0259 -0.5260
 2274TIP3   OH2 6827   2.895   4.971   4.835 -0.1679  0.3296 -0.3178
 2274TIP3    H1 6828   2.884   5.008   4.747  0.3404  1.9570  0.2752
 2274TIP3    H2 6829   2.845   5.030   4.892 -0.5253 -0.7283  0.5030
 2275TIP3   OH2 6830   2.707   1.122   1.908  0.0778 -0.0087  0.6340
 2275TIP3    H1 6831   2.774   1.088   1.849  0.8549  1.2289  0.7681
 2275TIP3    H2 6832   2.624   1.107   1.862  0.4377 -1.3392  0.3681
 2276TIP3   OH2 6833   5.742   1.529   0.099 -0.4883 -0.5806 -0.4700
 2276TIP3    H1 6834   5.674   1.591   0.128  1.1150  2.0622 -1.8998
 2276TIP3    H2 6835   5.824   1.566   0.132  0.4670 -2.6582 -0.3845
 2277TIP3   OH2 6836   1.112   1.021   0.285  0.0125 -0.7041  0.3133
 2277TIP3    H1 6837   1.081   0.931   0.270  1.6086 -1.3343  0.5677
 2277TIP3    H2 6838   1.035   1.069   0.313 -0.7224 -2.1854  0.9183
 2278TIP3   OH2 6839   1.554   2.612   2.945 -0.0632  0.2148  0.1676
 2278TIP3    H1 6840   1.512   2.682   2.894  0.2989  0.6388  0.4481
 2278TIP3    H2 6841   1.481   2.566   2.987 -0.4430 -0.6107 -1.2958
 2279TIP3   OH2 6842   2.067   3.433   0.807 -0.2688 -0.1463  0.1087
 2279TIP3    H1 6843   2.077   3.404   0.716  0.7098  0.8502 -0.1189
 2279TIP3    H2 6844   2.108   3.364   0.858  0.8835  0.1751 -0.3451
 2280TIP3   OH2 6845   0.648   1.565   1.640  0.4432  0.1625  0.3111
 2280TIP3    H1 6846   0.661   1.658   1.623  2.2100  0.1252  1.2794
 2280TIP3    H2 6847   0.563   1.545   1.599  0.3789  2.0079 -0.5551
 2281TIP3   OH2 6848   4.069   2.488   2.199  0.3179 -0.5745 -0.5232
 2281TIP3    H1 6849   4.008   2.423   2.235 -1.2229  0.5435 -1.0114
 2281TIP3    H2 6850   4.121   2.516   2.274  1.2559 -2.5862 -0.3662
 2282TIP3   OH2 6851   5.201   1.446   2.269  0.4767 -0.4358 -0.1283
 2282TIP3    H1 6852   5.270   1.509   2.249  0.4334  0.0478  1.1766
 2282TIP3    H2 6853   5.151   1.439   2.188  0.2940  1.4475 -0.2152
 2283TIP3   OH2 6854   6.190   4.625   1.719  0.7663 -0.6216  0.1737
 2283TIP3    H1 6855   6.233   4.630   1.804  1.2215 -1.3254 -0.0104
 2283TIP3    H2 6856   6.109   4.577   1.736  2.2064 -3.4331 -0.2645
 2284TIP3   OH2 6857   2.041   0.576   4.751  0.4702  0.4382 -0.1424
 2284TIP3    H1 6858   2.130   0.552   4.723  0.1885 -0.3786 -0.3720
 2284TIP3    H2 6859   2.017   0.507   4.813  0.1190  0.8360  0.1616
 2285TIP3   OH2 6860   1.479   5.530   0.654  0.3209  0.2005  0.2466
 2285TIP3    H1 6861   1.421   5.509   0.727  1.6149 -0.0887  1.2430
 2285TIP3    H2 6862   1.539   5.595   0.689 -0.5373  1.9163 -1.3217
 2286TIP3   OH2 6863   4.335   1.854   0.364  0.2343 -0.0635  0.3182
 2286TIP3    H1 6864   4.295   1.883   0.446  0.8667  0.7281  0.3580
 2286TIP3    H2 6865   4.402   1.919   0.346 -0.4846  0.2877 -1.2843
 2287TIP3   OH2 6866   2.097   3.309   0.559  0.2194  0.1549  0.1246
 2287TIP3    H1 6867   2.112   3.324   0.466 -0.8817 -0.0436 -0.1021
 2287TIP3    H2 6868   2.058   3.221   0.563 -0.7333  0.5852  0.6601
 2288TIP3   OH2 6869   6.241   1.864   3.721  0.3081  0.3581  0.0134
 2288TIP3    H1 6870   6.239   1.841   3.814 -0.4671 -2.5092 -0.6197
 2288TIP3    H2 6871   6.323   1.913   3.710  1.6489 -1.3407  1.7872
 2289TIP3   OH2 6872   1.670   3.147   0.507  0.3610  0.1261  0.2950
 2289TIP3    H1 6873   1.614   3.102   0.571  1.1158 -0.5961  0.4630
 2289TIP3    H2 6874   1.641   3.113   0.422 -0.5641  0.9995  0.2324
 2290TIP3   OH2 6875   4.978   5.199   1.529  0.0902 -0.4872  0.7106
 2290TIP3    H1 6876   4.963   5.115   1.487 -0.8434  0.4102 -0.8799
 2290TIP3    H2 6877   4.922   5.260   1.481  0.8234  1.0712  1.7344
 2291TIP3   OH2 6878   0.747   5.718   0.878 -0.3359  0.3642 -0.0929
 2291TIP3    H1 6879   0.734   5.725   0.973 -0.6582 -0.3297 -0.0836
 2291TIP3    H2 6880   0.786   5.631   0.866  2.7315  1.6185 -0.2868
 2292TIP3   OH2 6881   1.504   0.581   1.884 -0.3368  0.0197  0.3819
 2292TIP3    H1 6882   1.465   0.511   1.936  0.7244 -0.4727  0.5294
 2292TIP3    H2 6883   1.462   0.661   1.917  1.1001 -0.1316  2.8307
 2293TIP3   OH2 6884   1.208   3.867   3.730  0.0916  0.7169  0.4660
 2293TIP3    H1 6885   1.193   3.961   3.723 -2.4378  0.5261  2.1228
 2293TIP3    H2 6886   1.120   3.829   3.730  1.0201 -1.5663  0.9361
 2294TIP3   OH2 6887   5.059   0.086   2.591 -0.2318  0.0722  0.3649
 2294TIP3    H1 6888   5.059   0.008   2.535 -0.0361  1.1691 -1.2305
 2294TIP3    H2 6889   5.123   0.145   2.551 -1.3897  1.6291  0.6843
 2295TIP3   OH2 6890   3.376   1.669   2.107  0.5257 -0.3503 -0.4063
 2295TIP3    H1 6891   3.321   1.746   2.122  0.7264  0.1050 -1.8342
 2295TIP3    H2 6892   3.320   1.608   2.059  0.7582 -0.5606 -0.4113
 2296TIP3   OH2 6893   5.440   3.022   4.861  0.0316 -0.7215 -0.2245
 2296TIP3    H1 6894   5.370   2.978   4.908 -0.7332  0.2261 -0.4430
 2296TIP3    H2 6895   5.521   2.983   4.895 -0.5542 -0.9789  0.9023
 2297TIP3   OH2 6896   0.748   2.057   3.660  0.2881  0.4779  0.1106
 2297TIP3    H1 6897   0.834   2.026   3.688 -0.2386 -1.5587 -0.3566
 2297TIP3    H2 6898   0.766   2.126   3.596  1.5895 -0.1973 -0.2725
 2298TIP3   OH2 6899   4.291   0.456   3.839 -0.3713  0.0007 -0.0236
 2298TIP3    H1 6900   4.318   0.445   3.930 -1.1780  0.7925  0.3271
 2298TIP3    H2 6901   4.246   0.374   3.817  0.8554 -0.6807 -0.1138
 2299TIP3   OH2 6902   2.420   4.073   4.073  0.0150  0.3599 -0.0735
 2299TIP3    H1 6903   2.397   4.161   4.105  0.0519  0.9213 -1.5112
 2299TIP3    H2 6904   2.340   4.022   4.084  0.4589  0.0768  2.2981
 2300TIP3   OH2 6905   1.142   1.129   3.226 -0.3342  0.0076  0.6299
 2300TIP3    H1 6906   1.050   1.118   3.246 -0.2702  0.6197  1.2926
 2300TIP3    H2 6907   1.157   1.223   3.232  0.4762 -0.1454  1.1731
 2301TIP3   OH2 6908   0.977   5.015   1.192 -0.6180  0.1991  0.0011
 2301TIP3    H1 6909   0.995   5.107   1.175 -0.4258 -0.0380 -1.1656
 2301TIP3    H2 6910   0.978   5.007   1.288  1.0573  1.0799  0.0916
 2302TIP3   OH2 6911   5.024   3.930   2.591  0.6488  0.9305 -0.5499
 2302TIP3    H1 6912   4.971   3.980   2.529 -0.4228 -0.2701 -0.6289
 2302TIP3    H2 6913   4.963   3.907   2.662  1.0983 -0.2951 -0.5375
 2303TIP3   OH2 6914   5.378   1.482   3.396 -0.9538  0.3550 -0.1619
 2303TIP3    H1 6915   5.397   1.493   3.303 -0.3117  1.8887  0.1147
 2303TIP3    H2 6916   5.444   1.419   3.427 -1.5588 -0.6335 -0.8535
 2304TIP3   OH2 6917   4.828   4.676   4.962  0.0229 -0.6533  0.2974
 2304TIP3    H1 6918   4.812   4.751   5.019  1.1442 -0.3566  0.2429
 2304TIP3    H2 6919   4.914   4.692   4.925 -0.1960 -1.4301 -0.5771
 2305TIP3   OH2 6920   4.067   5.884   4.365  0.1786 -0.3978  0.0080
 2305TIP3    H1 6921   4.083   5.817   4.299 -0.2511  0.0635 -0.5809
 2305TIP3    H2 6922   4.015   5.951   4.319 -2.5873 -1.3303  1.4953
 2306TIP3   OH2 6923   0.071   5.895   1.909  0.9158 -0.1318 -0.4674
 2306TIP3    H1 6924  -0.011   5.866   1.949  0.1212  0.9784 -1.2447
 2306TIP3    H2 6925   0.136   5.886   1.980  0.2759 -1.6208 -0.0367
 2307TIP3   OH2 6926   5.223   3.214   2.441  0.4090  0.5010 -0.2864
 2307TIP3    H1 6927   5.150   3.236   2.500  0.3802 -0.4109  0.0326
 2307TIP3    H2 6928   5.258   3.299   2.414  0.6665  0.9548  1.3422
 2308TIP3   OH2 6929   0.649   2.291   2.799  0.5488  0.5198 -0.1634
 2308TIP3    H1 6930   0.628   2.208   2.841  2.3913  0.3777  0.5381
 2308TIP3    H2 6931   0.643   2.355   2.871  1.2478  0.6539 -0.2204
 2309TIP3   OH2 6932   4.298   4.615   2.693 -0.2151 -0.5926 -0.5100
 2309TIP3    H1 6933   4.294   4.571   2.608 -0.8624 -1.9389  0.1769
 2309TIP3    H2 6934   4.206   4.626   2.718 -0.0275 -0.2242  0.0290
 2310TIP3   OH2 6935   5.313   4.500   1.878  0.5588 -0.8660  0.0303
 2310TIP3    H1 6936   5.387   4.464   1.928 -1.7392 -1.3126  3.3878
 2310TIP3    H2 6937   5.258   4.424   1.860  0.1312 -0.3079 -1.0708
 2311TIP3   OH2 6938   0.365   1.140   3.238 -0.5475  0.3997 -0.4748
 2311TIP3    H1 6939   0.278   1.106   3.214  0.8418 -2.7485 -1.6126
 2311TIP3    H2 6940   0.410   1.150   3.154  0.6781  0.5100  0.1818
 2312TIP3   OH2 6941   4.078   2.611   3.249 -0.2810 -0.2717  0.5752
 2312TIP3    H1 6942   4.160   2.630   3.295 -0.5156 -0.2378  0.9850
 2312TIP3    H2 6943   4.030   2.693   3.253 -0.7433 -0.5709  1.1872
 2313TIP3   OH2 6944   4.024   3.677   3.404 -0.3028 -0.2594  0.1222
 2313TIP3    H1 6945   3.937   3.686   3.365 -0.3030  2.0646  0.5327
 2313TIP3    H2 6946   4.070   3.616   3.346 -1.2106  0.8869 -1.8910
 2314TIP3   OH2 6947   1.196   3.211   2.699 -0.5838 -0.1649  0.2951
 2314TIP3    H1 6948   1.274   3.157   2.714 -0.8758  0.0494  2.9987
 2314TIP3    H2 6949   1.231   3.296   2.671  0.0428 -0.5742 -0.1992
 2315TIP3   OH2 6950   3.563   4.864   3.344  0.1261 -0.3554 -0.2006
 2315TIP3    H1 6951   3.477   4.903   3.356 -0.7293 -2.1318 -0.2060
 2315TIP3    H2 6952   3.548   4.789   3.286  2.0341  0.4730 -1.9417
 2316TIP3   OH2 6953   4.630   3.759   2.913 -0.5645 -0.3433 -0.6288
 2316TIP3    H1 6954   4.573   3.822   2.869 -0.6000 -0.4800 -0.7801
 2316TIP3    H2 6955   4.570   3.695   2.950 -0.5788  0.1622  0.2434
 2317TIP3   OH2 6956   0.527   1.386   1.075  0.2423 -0.1780  0.2930
 2317TIP3    H1 6957   0.474   1.400   1.153 -0.2449 -2.4623  0.4292
 2317TIP3    H2 6958   0.506   1.460   1.018 -1.1379  0.3044  1.3801
 2318TIP3   OH2 6959   3.185   3.689   1.998 -0.0678  0.4961  0.0369
 2318TIP3    H1 6960   3.280   3.687   2.010 -0.0245 -0.3909 -0.3516
 2318TIP3    H2 6961   3.151   3.726   2.079  0.6071  0.8426  0.1691
 2319TIP3   OH2 6962   2.265   5.268   0.388 -0.5894 -0.3185 -0.3232
 2319TIP3    H1 6963   2.346   5.225   0.359 -0.1845  0.7746 -0.8898
 2319TIP3    H2 6964   2.196   5.223   0.340 -0.3399 -1.3771  0.2946
 2320TIP3   OH2 6965   5.623   5.553   4.363 -0.2623  0.5767 -0.4501
 2320TIP3    H1 6966   5.700   5.601   4.394 -0.0876  1.0424 -1.5628
 2320TIP3    H2 6967   5.574   5.616   4.311 -1.4222  0.2822  0.2650
 2321TIP3   OH2 6968   4.252   3.667   1.627 -0.0341 -0.0968 -0.4474
 2321TIP3    H1 6969   4.207   3.677   1.543 -0.7971  0.1931 -0.0152
 2321TIP3    H2 6970   4.265   3.573   1.636  0.7623 -0.0824 -1.2433
 2322TIP3   OH2 6971   0.682   4.946   0.279 -0.0184 -0.4352 -0.4058
 2322TIP3    H1 6972   0.755   4.910   0.329  0.5132 -0.1607 -0.9770
 2322TIP3    H2 6973   0.631   4.869   0.251 -1.2194 -0.5381  1.8553
 2323TIP3   OH2 6974   6.281   5.305   2.323 -0.0205  0.3599  0.2597
 2323TIP3    H1 6975   6.186   5.310   2.335 -0.1550 -0.7905 -0.2952
 2323TIP3    H2 6976   6.297   5.220   2.283  1.2704  0.4599  0.5067
 2324TIP3   OH2 6977   6.137   0.800   0.332 -0.2905  0.2473  0.0927
 2324TIP3    H1 6978   6.180   0.882   0.308 -0.2339  0.2382  0.1626
 2324TIP3    H2 6979   6.097   0.819   0.417  1.3056 -0.3610  1.0267
 2325TIP3   OH2 6980   1.012   3.016   2.474 -0.1949  0.2446 -0.5208
 2325TIP3    H1 6981   1.104   3.023   2.450 -0.1758  0.6369 -0.3475
 2325TIP3    H2 6982   0.999   2.924   2.496  0.8805  0.6492  2.2467
 2326TIP3   OH2 6983   4.886   0.611   3.904  0.1595  0.0057  0.1750
 2326TIP3    H1 6984   4.850   0.523   3.901 -1.4497  0.6325  0.1317
 2326TIP3    H2 6985   4.976   0.602   3.874 -0.6652 -1.2825 -2.0576
 2327TIP3   OH2 6986   5.735   4.725   3.585 -0.3518  0.4277 -0.1226
 2327TIP3    H1 6987   5.710   4.706   3.676 -1.0755 -1.2549 -0.6474
 2327TIP3    H2 6988   5.706   4.816   3.571  0.4275  0.9749  1.5281
 2328TIP3   OH2 6989   3.610   3.539   2.853 -0.6356  0.2811  0.7416
 2328TIP3    H1 6990   3.699   3.518   2.827 -1.9672 -2.8786 -1.8909
 2328TIP3    H2 6991   3.594   3.626   2.815  0.2141 -0.7131 -2.1769
 2329TIP3   OH2 6992   3.188   3.227   1.934  0.4478  0.1846 -0.3100
 2329TIP3    H1 6993   3.158   3.317   1.920 -1.6573 -0.1653  1.5526
 2329TIP3    H2 6994   3.136   3.175   1.874  0.9028  0.0755 -0.6155
 2330TIP3   OH2 6995   5.595   4.403   4.177 -0.2636 -0.8428 -0.4450
 2330TIP3    H1 6996   5.569   4.494   4.188  0.5962 -0.4117 -1.7280
 2330TIP3    H2 6997   5.545   4.355   4.243 -0.9441  0.5123  0.0537
 2331TIP3   OH2 6998   2.253   5.238   3.954  0.0033  0.1243 -0.0583
 2331TIP3    H1 6999   2.205   5.320   3.964 -0.2429 -0.1042  0.6475
 2331TIP3    H2 7000   2.201   5.173   4.001  0.8071 -0.2002  0.3970
 2332TIP3   OH2 7001   2.307   3.922   1.879  0.3077 -0.5275  0.2782
 2332TIP3    H1 7002   2.396   3.890   1.895 -0.3094 -2.2669  0.5111
 2332TIP3    H2 7003   2.319   4.003   1.830  1.9925 -1.6703 -1.3667
 2333TIP3   OH2 7004   2.625   2.889   0.894 -0.0370 -0.0247 -0.4092
 2333TIP3    H1 7005   2.639   2.818   0.831  0.5219 -1.0738  0.8479
 2333TIP3    H2 7006   2.596   2.844   0.974 -0.2040  1.2265  0.2541
 2334TIP3   OH2 7007   2.866   3.358   2.396 -0.3056 -0.4061  0.0754
 2334TIP3    H1 7008   2.927   3.284   2.405  1.0542  0.8591  2.1775
 2334TIP3    H2 7009   2.868   3.401   2.482 -2.4431  1.0503 -0.5188
 2335TIP3   OH2 7010   5.273   5.111   0.312  0.1948  0.3714 -0.3050
 2335TIP3    H1 7011   5.220   5.181   0.273  0.5303  1.7205  1.5276
 2335TIP3    H2 7012   5.226   5.031   0.291 -0.8235  1.2392 -1.4980
 2336TIP3   OH2 7013   5.820   2.334   3.594 -0.4853 -0.6163 -0.1938
 2336TIP3    H1 7014   5.857   2.331   3.506  0.9363 -1.1765  0.3897
 2336TIP3    H2 7015   5.774   2.251   3.603  2.5219 -2.3387  0.8289
 2337TIP3   OH2 7016   5.878   2.302   4.596 -0.1786 -0.1783  0.3042
 2337TIP3    H1 7017   5.957   2.253   4.618  0.4010  0.4721 -0.2793
 2337TIP3    H2 7018   5.823   2.297   4.674  0.7126 -0.1085  0.9384
 2338TIP3   OH2 7019   4.060   2.173   0.361  0.3249  0.2588  0.0739
 2338TIP3    H1 7020   4.075   2.124   0.442  0.4206 -0.0974 -0.1573
 2338TIP3    H2 7021   4.148   2.181   0.322  0.2186  0.0338 -0.2173
 2339TIP3   OH2 7022   4.371   1.892   3.387  0.3687  0.0886  0.3076
 2339TIP3    H1 7023   4.350   1.942   3.466 -0.6640  0.1447  0.0105
 2339TIP3    H2 7024   4.436   1.827   3.415  0.4789  0.5147  1.0532
 2340TIP3   OH2 7025   3.211   2.449   1.251  0.2279  0.2490 -0.4767
 2340TIP3    H1 7026   3.261   2.517   1.295  0.1337 -0.2277  0.3893
 2340TIP3    H2 7027   3.258   2.434   1.169  1.1858  0.2040  0.0665
 2341TIP3   OH2 7028   1.463   3.996   0.124  0.1408 -0.3750  0.1689
 2341TIP3    H1 7029   1.423   3.941   0.056 -0.2765 -1.5825  1.3508
 2341TIP3    H2 7030   1.441   3.952   0.206  3.2965 -0.6980  0.9500
 2342TIP3   OH2 7031   3.479   3.675   3.387 -0.1654  0.2870  0.2199
 2342TIP3    H1 7032   3.469   3.580   3.387  0.5606  0.1927  1.1022
 2342TIP3    H2 7033   3.475   3.700   3.480  1.1841  0.9233  0.1326
 2343TIP3   OH2 7034   2.046   1.431   3.541 -0.1637  0.1726  0.0943
 2343TIP3    H1 7035   2.033   1.339   3.516  1.9227 -0.1768  0.0629
 2343TIP3    H2 7036   2.007   1.437   3.628  1.0557 -1.2222  0.7937
 2344TIP3   OH2 7037   0.925   2.839   0.534 -0.6176  0.5897  0.2220
 2344TIP3    H1 7038   0.864   2.823   0.462 -0.5330  1.9959 -0.1885
 2344TIP3    H2 7039   0.870   2.865   0.608 -0.5519  2.1758 -0.2384
 2345TIP3   OH2 7040   5.209   1.452   1.713  0.1263  0.4280  0.1784
 2345TIP3    H1 7041   5.201   1.524   1.650  0.6290  0.1453 -0.2084
 2345TIP3    H2 7042   5.137   1.393   1.690 -0.2291  0.7538  0.4352
 2346TIP3   OH2 7043   2.371   0.078   1.454 -0.1228 -0.7325 -0.1736
 2346TIP3    H1 7044   2.347   0.006   1.511 -0.4737 -0.1893  0.3803
 2346TIP3    H2 7045   2.296   0.137   1.457  1.5450  1.5192  2.3997
 2347TIP3   OH2 7046   3.879   5.874   2.866  0.1027  0.1430 -0.8107
 2347TIP3    H1 7047   3.888   5.968   2.850 -0.3212  0.0570 -1.6236
 2347TIP3    H2 7048   3.896   5.834   2.780 -1.7938 -0.3836 -0.9730
 2348TIP3   OH2 7049   1.199   0.182   1.186  0.7173  0.5041  0.1695
 2348TIP3    H1 7050   1.231   0.124   1.116  0.2116 -0.2359  0.5409
 2348TIP3    H2 7051   1.135   0.238   1.142 -0.0570 -0.3711  0.1525
 2349TIP3   OH2 7052   5.008   4.403   0.491 -0.3785  0.8051  0.2966
 2349TIP3    H1 7053   4.922   4.393   0.449 -0.2393  1.8336 -0.2709
 2349TIP3    H2 7054   5.022   4.320   0.537 -0.3188 -0.5919 -2.0900
 2350TIP3   OH2 7055   1.468   4.024   5.026  0.5971  0.2008 -0.3594
 2350TIP3    H1 7056   1.469   3.983   5.112 -1.5856 -1.7612 -1.1489
 2350TIP3    H2 7057   1.406   3.971   4.975  1.3248  1.6634 -2.9512
 2351TIP3   OH2 7058   4.213   1.086   0.528  0.9999 -0.5660  0.3465
 2351TIP3    H1 7059   4.118   1.089   0.530  0.9488  0.5746 -1.4656
 2351TIP3    H2 7060   4.237   1.027   0.599 -1.1057 -1.9769 -0.0162
 2352TIP3   OH2 7061   5.089   2.434   1.463 -0.0472 -0.1870 -0.2405
 2352TIP3    H1 7062   5.134   2.465   1.385 -0.2653 -0.6290 -0.5473
 2352TIP3    H2 7063   4.998   2.425   1.436 -0.7860  2.5999  0.8838
 2353TIP3   OH2 7064   2.293   3.125   1.363 -0.0544 -0.1848  0.1915
 2353TIP3    H1 7065   2.233   3.188   1.402 -0.7038 -0.0124 -1.0348
 2353TIP3    H2 7066   2.304   3.058   1.431 -2.0395 -0.4795  0.2899
 2354TIP3   OH2 7067   1.602   4.793   1.124  0.7154  0.1850  0.0599
 2354TIP3    H1 7068   1.539   4.725   1.098  0.1156  0.7411  0.0475
 2354TIP3    H2 7069   1.609   4.784   1.219  0.3510  0.3528  0.1016
 2355TIP3   OH2 7070   3.366   1.310   4.889 -0.5907  0.4450 -0.2307
 2355TIP3    H1 7071   3.375   1.339   4.798 -1.6075 -0.1854 -0.5454
 2355TIP3    H2 7072   3.402   1.221   4.889  2.0614  1.4302  0.6239
 2356TIP3   OH2 7073   2.366   3.100   1.740  0.2037 -0.7009  0.3835
 2356TIP3    H1 7074   2.387   3.192   1.755  1.4122 -0.3632 -2.6587
 2356TIP3    H2 7075   2.429   3.052   1.793  2.8546  0.3347 -1.6235
 2357TIP3   OH2 7076   2.073   0.461   0.634  1.1379  0.0297  0.4286
 2357TIP3    H1 7077   2.140   0.393   0.634  0.1688 -0.9811 -0.8075
 2357TIP3    H2 7078   2.003   0.426   0.578 -0.8443  0.6483  2.3548
 2358TIP3   OH2 7079   1.650   5.019   0.356  0.7665 -0.1398 -0.3892
 2358TIP3    H1 7080   1.741   5.021   0.328  0.6235 -2.0628 -1.1820
 2358TIP3    H2 7081   1.653   4.991   0.448  0.9878  0.0443 -0.3419
 2359TIP3   OH2 7082   2.705   2.914   2.888 -0.0032 -0.7339  0.2270
 2359TIP3    H1 7083   2.689   2.836   2.834  0.1214 -0.3937 -0.3066
 2359TIP3    H2 7084   2.732   2.981   2.825  1.6157 -0.7462  0.8737
 2360TIP3   OH2 7085   2.198   3.372   1.870 -0.1329 -0.0279 -0.2336
 2360TIP3    H1 7086   2.105   3.386   1.884  0.0766 -0.5037  2.0149
 2360TIP3    H2 7087   2.240   3.448   1.911  0.5136 -0.7182  0.4216
 2361TIP3   OH2 7088   2.952   2.436   1.164  0.3437 -0.1104 -0.1960
 2361TIP3    H1 7089   2.969   2.521   1.123  1.0686 -0.8078 -1.3962
 2361TIP3    H2 7090   3.027   2.423   1.223  0.9033 -0.4912 -0.9835
 2362TIP3   OH2 7091   3.659   2.493   1.104  0.2377  0.3185 -0.0235
 2362TIP3    H1 7092   3.623   2.430   1.166  3.7261 -0.1711  1.7297
 2362TIP3    H2 7093   3.697   2.439   1.034  1.0767  0.5986  0.2138
 2363TIP3   OH2 7094   2.451   0.944   2.802  0.6132 -0.0880 -0.4766
 2363TIP3    H1 7095   2.527   0.890   2.822  1.2424  0.8341 -0.3173
 2363TIP3    H2 7096   2.484   1.012   2.743 -0.2501 -0.1037 -1.0038
 2364TIP3   OH2 7097   5.218   4.658   2.754 -0.4282 -0.3785 -0.2954
 2364TIP3    H1 7098   5.221   4.741   2.802  0.2934 -0.1723 -0.6794
 2364TIP3    H2 7099   5.128   4.627   2.766 -0.7378  0.5010 -0.2131
 2365TIP3   OH2 7100   4.009   0.341   1.716 -0.6906  0.0620  0.9720
 2365TIP3    H1 7101   4.015   0.267   1.776  4.7721 -0.9742 -0.2226
 2365TIP3    H2 7102   4.012   0.301   1.629 -1.5741  1.6422  0.1739
 2366TIP3   OH2 7103   2.704   5.255   3.474  0.6381 -0.1634  0.0134
 2366TIP3    H1 7104   2.779   5.291   3.428  0.7805 -1.1452 -0.5414
 2366TIP3    H2 7105   2.658   5.332   3.509  0.1181  0.6762 -2.3511
 2367TIP3   OH2 7106   3.221   3.562   4.291 -0.0539  0.2616 -0.3349
 2367TIP3    H1 7107   3.242   3.510   4.369  1.2199 -0.3554 -1.0489
 2367TIP3    H2 7108   3.261   3.647   4.309 -0.4212  0.3650  0.0041
 2368TIP3   OH2 7109   1.387   5.728   4.551 -0.5135 -0.0750  0.0365
 2368TIP3    H1 7110   1.444   5.727   4.474 -1.3498  1.0951 -0.6387
 2368TIP3    H2 7111   1.384   5.820   4.578 -0.4472 -0.4256  1.3206
 2369TIP3   OH2 7112   4.345   1.637   2.425  0.3538 -0.5996 -0.0013
 2369TIP3    H1 7113   4.354   1.731   2.438 -0.1897 -0.6839  1.1343
 2369TIP3    H2 7114   4.299   1.628   2.342  0.0304  0.1591  0.0901
 2370TIP3   OH2 7115   5.644   3.303   0.056 -0.3327 -0.2848  0.6904
 2370TIP3    H1 7116   5.689   3.231   0.099  1.3882  0.8398  0.8695
 2370TIP3    H2 7117   5.652   3.377   0.117 -0.4046  0.5504 -0.2812
 2371TIP3   OH2 7118   1.334   1.264   2.899 -0.0992 -0.1207 -0.4352
 2371TIP3    H1 7119   1.418   1.309   2.906 -0.1951  0.2458 -1.4300
 2371TIP3    H2 7120   1.357   1.172   2.884  0.1128 -0.1281 -0.0652
 2372TIP3   OH2 7121   0.516   5.545   3.656  0.2300 -0.4376 -0.0062
 2372TIP3    H1 7122   0.516   5.488   3.733 -0.6259 -0.1748  0.1978
 2372TIP3    H2 7123   0.502   5.486   3.583  0.5918 -0.6325  0.0775
 2373TIP3   OH2 7124   5.600   1.298   4.865  0.2659 -0.1668  0.2155
 2373TIP3    H1 7125   5.635   1.383   4.839  0.6811 -0.5491 -0.5064
 2373TIP3    H2 7126   5.677   1.246   4.887  0.0215 -0.3828  0.5610
 2374TIP3   OH2 7127   2.117   1.932   2.108 -0.4230 -0.3309  0.4340
 2374TIP3    H1 7128   2.025   1.916   2.088 -0.0547 -3.1431  0.5684
 2374TIP3    H2 7129   2.130   1.893   2.194  0.5797  1.5090  1.1836
 2375TIP3   OH2 7130   3.430   0.775   0.140  0.0231  0.1877 -0.4661
 2375TIP3    H1 7131   3.435   0.680   0.147  0.2147  0.2857  1.1071
 2375TIP3    H2 7132   3.521   0.805   0.145 -0.1385  0.5271  0.7499
 2376TIP3   OH2 7133   4.326   5.082   0.285  0.4322  0.2797 -0.0392
 2376TIP3    H1 7134   4.333   5.019   0.356 -0.6221 -0.8534 -0.9023
 2376TIP3    H2 7135   4.232   5.101   0.280  0.7661  2.2921  0.4982
 2377TIP3   OH2 7136   3.751   1.448   3.163 -0.2879  0.3614 -0.7858
 2377TIP3    H1 7137   3.754   1.353   3.176  0.7422  0.5420  0.6130
 2377TIP3    H2 7138   3.740   1.459   3.069  2.1074 -1.1794 -1.3505
 2378TIP3   OH2 7139   5.959   4.094   2.585  0.4892 -0.1628 -0.2327
 2378TIP3    H1 7140   5.983   4.003   2.603 -0.4358 -0.5992 -1.0699
 2378TIP3    H2 7141   6.042   4.141   2.578  1.0639 -1.3197 -1.6373
 2379TIP3   OH2 7142   2.070   2.379   2.402  0.5140 -0.2312  0.2162
 2379TIP3    H1 7143   2.164   2.388   2.388  0.5924 -1.0910  0.1781
 2379TIP3    H2 7144   2.062   2.319   2.476 -0.0263 -1.0546 -0.4922
 2380TIP3   OH2 7145   1.468   1.422   4.677 -0.0617 -0.4105  0.0065
 2380TIP3    H1 7146   1.441   1.461   4.594  2.1234  0.8857 -0.1724
 2380TIP3    H2 7147   1.482   1.329   4.656 -0.1444 -0.2293 -0.8989
 2381TIP3   OH2 7148   3.117   3.745   0.004  0.1901 -0.6937  0.8212
 2381TIP3    H1 7149   3.027   3.762   0.031  0.0718 -0.0815  0.0826
 2381TIP3    H2 7150   3.168   3.817   0.042  0.5955 -1.7613  2.3583
 2382TIP3   OH2 7151   4.721   0.774   4.643 -0.4427 -0.2981 -0.2999
 2382TIP3    H1 7152   4.779   0.837   4.601 -0.3511  0.0232  0.3040
 2382TIP3    H2 7153   4.756   0.762   4.731  0.1125 -1.9478 -0.7150
 2383TIP3   OH2 7154   4.168   3.069   3.964  0.1291  0.0614 -0.1048
 2383TIP3    H1 7155   4.134   3.083   4.052 -1.0163 -0.1085 -0.5065
 2383TIP3    H2 7156   4.107   3.007   3.924  0.7143  0.0247 -0.9778
 2384TIP3   OH2 7157   1.089   2.669   0.172 -0.3106 -0.3486 -0.0020
 2384TIP3    H1 7158   1.065   2.677   0.080  0.2361  0.2247 -0.0976
 2384TIP3    H2 7159   1.093   2.574   0.188 -3.2068 -0.5391  0.1874
 2385TIP3   OH2 7160   3.490   2.644   3.058 -0.2695  0.2007  0.1827
 2385TIP3    H1 7161   3.449   2.648   3.145  0.4732 -0.0116  0.5485
 2385TIP3    H2 7162   3.418   2.622   2.999 -1.6488  4.0915  0.1053
 2386TIP3   OH2 7163   4.285   0.901   0.722  0.4201  0.7020 -0.0447
 2386TIP3    H1 7164   4.311   0.962   0.790  0.7329 -0.5925  1.0221
 2386TIP3    H2 7165   4.210   0.854   0.759 -0.9855  1.6355 -1.5467
 2387TIP3   OH2 7166   5.932   2.895   2.281  0.4151  0.2437  0.3146
 2387TIP3    H1 7167   6.009   2.850   2.246  1.1115  0.6175  1.2959
 2387TIP3    H2 7168   5.872   2.825   2.304  0.8317 -0.1045  0.3574
 2388TIP3   OH2 7169   3.218   1.747   1.147 -0.1747 -0.0290  0.3574
 2388TIP3    H1 7170   3.241   1.739   1.240  0.8058 -0.2026  0.1064
 2388TIP3    H2 7171   3.170   1.829   1.141  0.3495  0.3187  0.9056
 2389TIP3   OH2 7172   4.523   1.708   3.560 -0.5498 -0.4799 -0.3656
 2389TIP3    H1 7173   4.595   1.732   3.502 -0.7161 -0.0274 -0.3888
 2389TIP3    H2 7174   4.539   1.757   3.641 -1.1538  0.1001 -0.5876
 2390TIP3   OH2 7175   4.859   2.142   0.009  0.4669 -0.2447 -0.0868
 2390TIP3    H1 7176   4.769   2.171  -0.007  0.5033  0.1175  0.3398
 2390TIP3    H2 7177   4.899   2.215   0.057  0.3559 -1.2712  1.6419
 2391TIP3   OH2 7178   5.247   4.558   4.797 -0.3043 -0.0336  0.2354
 2391TIP3    H1 7179   5.197   4.628   4.837 -1.6132 -1.1468  0.6117
 2391TIP3    H2 7180   5.297   4.520   4.869  0.3681  0.4696  0.0411
 2392TIP3   OH2 7181   6.233   3.247   0.097  0.4641  0.1425 -0.0690
 2392TIP3    H1 7182   6.198   3.160   0.074 -0.4648  0.3061  0.6366
 2392TIP3    H2 7183   6.223   3.298   0.017  0.0010 -0.1082 -0.1782
 2393TIP3   OH2 7184   6.229   3.110   0.423  0.5864 -0.4194 -0.9716
 2393TIP3    H1 7185   6.319   3.144   0.427 -0.0288  1.2255 -0.3749
 2393TIP3    H2 7186   6.194   3.124   0.511 -1.7141  3.3005 -2.2474
 2394TIP3   OH2 7187   0.052   5.926   1.051 -0.2598  0.0226  0.4645
 2394TIP3    H1 7188   0.023   5.931   1.142  1.6942  0.4704  1.0995
 2394TIP3    H2 7189   0.145   5.904   1.056 -0.2323 -0.4648 -1.4495
 2395TIP3   OH2 7190   5.909   4.528   1.773 -0.4890  0.2297 -0.8518
 2395TIP3    H1 7191   5.884   4.438   1.793  2.3916 -0.7006 -0.9549
 2395TIP3    H2 7192   5.888   4.577   1.853 -0.7874 -0.8264 -0.2629
 2396TIP3   OH2 7193   5.053   2.865   1.252 -0.0376 -0.1277  0.2346
 2396TIP3    H1 7194   5.125   2.916   1.290  1.6895 -1.9111 -0.4554
 2396TIP3    H2 7195   5.061   2.879   1.158  0.4916 -1.6016  0.0251
 2397TIP3   OH2 7196   4.757   4.948   4.989  0.2471  0.2197  0.1756
 2397TIP3    H1 7197   4.687   4.898   5.032  2.1839 -2.6441  0.2955
 2397TIP3    H2 7198   4.718   4.978   4.907 -1.3255 -0.6864  0.5403
 2398TIP3   OH2 7199   2.881   3.935   1.923 -0.1479 -0.2881  0.3182
 2398TIP3    H1 7200   2.820   3.989   1.973  2.1353  1.0928  1.8279
 2398TIP3    H2 7201   2.927   3.997   1.866  1.2630 -0.8786  0.7560
 2399TIP3   OH2 7202   3.834   0.965   3.825 -0.1757 -0.6996  0.6759
 2399TIP3    H1 7203   3.765   0.900   3.842  0.1082 -1.2742 -0.2667
 2399TIP3    H2 7204   3.906   0.939   3.882  0.1524 -1.5882 -0.1162
 2400TIP3   OH2 7205   6.193   1.757   1.351  0.1490  0.5513 -0.0348
 2400TIP3    H1 7206   6.243   1.818   1.297  0.9928  1.0158  1.2328
 2400TIP3    H2 7207   6.142   1.813   1.409 -1.7808  0.0881 -1.1814
 2401TIP3   OH2 7208   5.571   5.101   2.112 -0.3513  0.5164  0.0142
 2401TIP3    H1 7209   5.525   5.023   2.142  1.3090 -0.7692 -0.6281
 2401TIP3    H2 7210   5.531   5.122   2.028 -1.8907  1.3595  0.9264
 2402TIP3   OH2 7211   1.270   5.312   2.777 -0.0423 -0.6869 -0.1393
 2402TIP3    H1 7212   1.236   5.365   2.705  0.6086  0.0813  0.1066
 2402TIP3    H2 7213   1.312   5.238   2.735  0.9088  0.0908 -0.6002
 2403TIP3   OH2 7214   0.516   4.153   3.366 -0.0228 -0.1805 -0.5632
 2403TIP3    H1 7215   0.477   4.089   3.306  0.7141  0.3780 -1.6766
 2403TIP3    H2 7216   0.495   4.120   3.453 -0.4989 -1.4139 -1.1161
 2404TIP3   OH2 7217   5.723   0.684   2.637 -0.1546 -0.2166 -0.2567
 2404TIP3    H1 7218   5.789   0.745   2.606  1.1254 -2.4934 -2.3973
 2404TIP3    H2 7219   5.773   0.617   2.685 -0.8192 -1.9210 -1.8033
 2405TIP3   OH2 7220   5.163   5.576   0.493 -0.1475 -0.0770 -0.1539
 2405TIP3    H1 7221   5.183   5.670   0.491  1.2510 -0.3648 -1.0925
 2405TIP3    H2 7222   5.160   5.555   0.587  1.5290  0.5396  0.0844
 2406TIP3   OH2 7223   4.312   3.245   3.093 -0.2047  0.4282 -0.3113
 2406TIP3    H1 7224   4.335   3.257   3.185 -0.5649 -0.4454 -0.1017
 2406TIP3    H2 7225   4.222   3.214   3.095  0.0857 -0.4781 -0.9188
 2407TIP3   OH2 7226   5.435   1.206   0.935 -0.0224 -0.0556 -0.3236
 2407TIP3    H1 7227   5.520   1.210   0.977  1.0602  1.2352 -2.4946
 2407TIP3    H2 7228   5.451   1.164   0.851 -2.3655 -3.9510  0.8477
 2408TIP3   OH2 7229   5.204   3.771   0.050 -0.5751  0.5849  0.2339
 2408TIP3    H1 7230   5.112   3.784   0.073 -0.8609  1.3127 -1.1916
 2408TIP3    H2 7231   5.203   3.760  -0.045  0.4719 -2.6792  0.4966
 2409TIP3   OH2 7232   3.634   5.144   0.007 -0.7401 -0.3638 -0.1620
 2409TIP3    H1 7233   3.677   5.226   0.030 -2.0482  0.2272  0.2616
 2409TIP3    H2 7234   3.646   5.088   0.084 -1.2385  0.0143  0.1962
 2410TIP3   OH2 7235   4.822   1.499   0.009 -0.3765 -0.9667 -0.2925
 2410TIP3    H1 7236   4.854   1.502   0.099 -1.3449 -0.4899  0.0458
 2410TIP3    H2 7237   4.884   1.553  -0.040 -0.4517 -0.3425  0.2900
 2411TIP3   OH2 7238   1.294   0.413   0.078 -0.4318  0.0363 -0.2698
 2411TIP3    H1 7239   1.339   0.401  -0.006 -1.2593  0.6801 -0.8150
 2411TIP3    H2 7240   1.278   0.507   0.083 -1.5685 -0.1652 -0.0030
 2412TIP3   OH2 7241   2.113   0.324   2.007  0.0428 -0.5911 -0.2778
 2412TIP3    H1 7242   2.024   0.341   1.977  1.0330  1.7535 -2.2917
 2412TIP3    H2 7243   2.151   0.268   1.940  0.0472 -1.7882  0.6989
 2413TIP3   OH2 7244   1.764   4.811   2.652 -0.3014  0.3606  0.3457
 2413TIP3    H1 7245   1.797   4.781   2.737  1.1288  1.3215  0.1627
 2413TIP3    H2 7246   1.780   4.905   2.652 -0.3519  0.3787 -0.9753
 2414TIP3   OH2 7247   5.117   3.009   2.774 -0.4251 -0.0953  0.3353
 2414TIP3    H1 7248   5.175   3.048   2.840 -0.0963  0.1531 -0.1003
 2414TIP3    H2 7249   5.154   2.922   2.759  0.9741  0.7253 -1.3130
 2415TIP3   OH2 7250   5.331   5.341   2.744  0.4583  0.1746 -0.1067
 2415TIP3    H1 7251   5.378   5.272   2.791  1.9136  1.5672  0.5826
 2415TIP3    H2 7252   5.391   5.415   2.745 -1.4576  1.8019  0.1242
 2416TIP3   OH2 7253   4.997   2.294   2.100  0.2730 -0.7534 -0.0746
 2416TIP3    H1 7254   5.066   2.344   2.143 -0.9310 -0.3974  1.4967
 2416TIP3    H2 7255   5.010   2.204   2.132 -0.1219 -0.6421  0.4078
 2417TIP3   OH2 7256   3.691   2.487   3.193  0.1348 -0.3288  0.2047
 2417TIP3    H1 7257   3.636   2.432   3.249 -1.3108  1.0946  0.2572
 2417TIP3    H2 7258   3.773   2.439   3.185 -0.3772 -1.5506  1.8273
 2418TIP3   OH2 7259   2.061   2.937   0.306  0.0072 -0.0642  0.2552
 2418TIP3    H1 7260   2.126   2.868   0.293  1.3398  1.2868 -0.5870
 2418TIP3    H2 7261   2.105   3.017   0.277 -1.8770  0.9786  0.1131
 2419TIP3   OH2 7262   3.790   2.786   4.211  0.2724 -0.0118  0.7050
 2419TIP3    H1 7263   3.744   2.860   4.173 -0.3930  0.3919  2.2268
 2419TIP3    H2 7264   3.869   2.776   4.157 -0.2602  0.9882 -0.2830
 2420TIP3   OH2 7265   4.194   3.433   2.104 -0.2218 -0.5231 -0.0888
 2420TIP3    H1 7266   4.230   3.509   2.060 -0.8054 -0.5863 -0.6856
 2420TIP3    H2 7267   4.228   3.439   2.194 -0.5716  0.6455 -0.0206
 2421TIP3   OH2 7268   2.926   0.395   1.829 -0.2008 -0.4521 -0.2058
 2421TIP3    H1 7269   2.945   0.313   1.785  0.4594  1.1592 -3.2008
 2421TIP3    H2 7270   2.987   0.398   1.902  0.5546 -2.0899 -0.7338
 2422TIP3   OH2 7271   2.006   2.442   2.129 -0.0958 -0.0574 -0.2900
 2422TIP3    H1 7272   2.092   2.426   2.090  0.5304  2.9598 -0.4034
 2422TIP3    H2 7273   2.019   2.432   2.223  0.5379  0.8206 -0.2702
 2423TIP3   OH2 7274   5.918   5.463   4.536  0.0063 -0.6186  0.1534
 2423TIP3    H1 7275   5.974   5.537   4.561 -1.3861  0.3919  0.3531
 2423TIP3    H2 7276   5.871   5.440   4.616  1.3552 -2.6171  0.4489
 2424TIP3   OH2 7277   0.915   1.567   1.513  0.0334 -0.4490 -0.0837
 2424TIP3    H1 7278   0.826   1.540   1.537 -0.2516  0.4303 -0.1250
 2424TIP3    H2 7279   0.917   1.661   1.531  1.0344 -0.5036  0.1450
 2425TIP3   OH2 7280   5.495   0.790   2.090  0.3694 -0.3763  0.8276
 2425TIP3    H1 7281   5.458   0.704   2.111  0.2361  0.0802  2.6970
 2425TIP3    H2 7282   5.589   0.779   2.100  0.3541 -0.3297  1.0393
 2426TIP3   OH2 7283   2.749   1.770   4.157 -0.2213 -0.7085  0.2798
 2426TIP3    H1 7284   2.738   1.787   4.250  1.5001  1.5307  0.1545
 2426TIP3    H2 7285   2.711   1.846   4.113 -3.8068 -3.0205 -1.1652
 2427TIP3   OH2 7286   2.211   4.750   2.989  0.3881  0.1676 -0.3659
 2427TIP3    H1 7287   2.125   4.716   2.964 -0.2191  1.5606 -0.2268
 2427TIP3    H2 7288   2.195   4.800   3.069  1.4272 -0.0123 -0.0300
 2428TIP3   OH2 7289   6.245   0.241   3.875 -0.0995 -0.4488 -0.2318
 2428TIP3    H1 7290   6.314   0.303   3.901  0.4565 -1.1337 -0.0267
 2428TIP3    H2 7291   6.164   0.291   3.883  0.3388  0.2701 -0.1282
 2429TIP3   OH2 7292   4.302   2.504   4.750 -0.0535 -0.0997 -0.0702
 2429TIP3    H1 7293   4.256   2.531   4.829  1.0084  0.8360  0.2599
 2429TIP3    H2 7294   4.360   2.578   4.730  1.3502 -1.2542 -0.4102
 2430TIP3   OH2 7295   0.733   4.269   1.052  0.2609  0.2892  0.3403
 2430TIP3    H1 7296   0.780   4.313   1.123  0.3148 -0.9698  1.1244
 2430TIP3    H2 7297   0.683   4.339   1.009  0.3241  1.1018  1.5399
 2431TIP3   OH2 7298   0.737   3.203   3.963  0.3341 -0.1108 -0.0778
 2431TIP3    H1 7299   0.799   3.273   3.944 -0.5075  0.7134  0.1150
 2431TIP3    H2 7300   0.783   3.144   4.023  1.6592 -0.6647 -1.5816
 2432TIP3   OH2 7301   5.760   3.038   2.703 -0.4197  0.0720  0.6345
 2432TIP3    H1 7302   5.767   3.132   2.686  1.0236  0.3623  2.5441
 2432TIP3    H2 7303   5.825   2.999   2.644  0.0691  0.4348  0.9228
 2433TIP3   OH2 7304   4.951   1.669   4.828 -0.1592 -0.0644 -0.2248
 2433TIP3    H1 7305   4.905   1.679   4.911 -0.4123  1.2892 -0.4897
 2433TIP3    H2 7306   4.961   1.575   4.816  0.8156 -0.2766  1.8371
 2434TIP3   OH2 7307   3.594   3.729   1.301 -0.2743  0.2270 -0.0664
 2434TIP3    H1 7308   3.597   3.751   1.395  0.7028 -1.5654  0.3573
 2434TIP3    H2 7309   3.531   3.657   1.296 -0.8127  0.7427 -0.9070
 2435TIP3   OH2 7310   0.306   2.678   2.607  0.3494  0.4812 -0.3596
 2435TIP3    H1 7311   0.360   2.601   2.624  0.3837  0.3569 -1.0116
 2435TIP3    H2 7312   0.338   2.744   2.669  0.1000 -0.1260  0.4214
 2436TIP3   OH2 7313   6.302   1.538   3.380  0.4924  0.4068  0.1833
 2436TIP3    H1 7314   6.378   1.551   3.436 -0.5401 -1.0589  2.0773
 2436TIP3    H2 7315   6.336   1.495   3.302  1.7050  0.5533  0.6141
 2437TIP3   OH2 7316   2.597   5.654   2.038  0.0781  0.0753 -0.2058
 2437TIP3    H1 7317   2.628   5.569   2.007  1.0275 -0.2931  1.5974
 2437TIP3    H2 7318   2.675   5.709   2.036 -0.0451  0.2935  0.5727
 2438TIP3   OH2 7319   3.501   4.471   2.989  0.0061 -0.3410  0.9236
 2438TIP3    H1 7320   3.518   4.450   3.081 -0.6171  1.6260  1.5361
 2438TIP3    H2 7321   3.409   4.500   2.988 -0.1838 -0.9226 -0.4444
 2439TIP3   OH2 7322   1.764   2.383   3.159 -0.3443  0.3884  0.3259
 2439TIP3    H1 7323   1.676   2.372   3.193 -0.3759  1.2744  0.5583
 2439TIP3    H2 7324   1.815   2.415   3.234  0.2571 -0.4277  0.2821
 2440TIP3   OH2 7325   3.400   0.360   0.532  0.1087 -0.7268  0.5965
 2440TIP3    H1 7326   3.331   0.293   0.535  0.2288 -0.8387  0.9626
 2440TIP3    H2 7327   3.406   0.391   0.623  1.5378 -1.7388  0.8935
 2441TIP3   OH2 7328   3.398   0.982   1.290  0.4889 -0.2152  0.4249
 2441TIP3    H1 7329   3.440   1.068   1.293  0.3927 -0.1182 -0.6305
 2441TIP3    H2 7330   3.457   0.929   1.237  0.1962 -0.5955  0.4804
 2442TIP3   OH2 7331   2.837   1.412   1.671 -0.0113 -0.6197 -0.1551
 2442TIP3    H1 7332   2.902   1.381   1.734 -1.0550 -0.6031  0.9672
 2442TIP3    H2 7333   2.853   1.360   1.593  0.9660 -1.0262  0.2967
 2443TIP3   OH2 7334   0.140   1.111   3.621  0.4651 -0.0117 -0.6676
 2443TIP3    H1 7335   0.100   1.086   3.538 -1.9263 -1.2138  0.7405
 2443TIP3    H2 7336   0.210   1.048   3.634 -1.1233 -1.8118 -0.4011
 2444TIP3   OH2 7337   0.704   4.125   2.815  0.0151 -0.5091 -0.2289
 2444TIP3    H1 7338   0.657   4.136   2.897 -0.7236 -0.3443 -0.6701
 2444TIP3    H2 7339   0.724   4.031   2.811 -1.6275 -0.8739 -0.7474
 2445TIP3   OH2 7340   5.271   4.615   3.100 -0.5759 -0.5425  0.0726
 2445TIP3    H1 7341   5.185   4.614   3.142 -0.2834  0.1409  0.7184
 2445TIP3    H2 7342   5.330   4.577   3.165  0.1566  1.9332  0.9949
 2446TIP3   OH2 7343   3.144   3.463   0.985 -0.2785  0.4088 -0.0654
 2446TIP3    H1 7344   3.122   3.378   0.947 -1.1296 -0.0929  1.4594
 2446TIP3    H2 7345   3.059   3.502   1.005  0.1227  0.6304  1.3117
 2447TIP3   OH2 7346   3.388   3.969   4.130 -0.2414  0.2216 -0.1788
 2447TIP3    H1 7347   3.440   3.893   4.105  1.3858  0.7364  1.4614
 2447TIP3    H2 7348   3.369   4.014   4.047 -0.7286 -1.6056 -1.1057
 2448TIP3   OH2 7349   3.477   5.560   3.716  0.0361 -0.0149  0.2929
 2448TIP3    H1 7350   3.460   5.621   3.644  1.3709  1.3663  1.0808
 2448TIP3    H2 7351   3.533   5.492   3.677 -0.2423  0.0636 -0.2545
 2449TIP3   OH2 7352   1.635   1.706   4.555  0.1201 -0.3788 -0.2754
 2449TIP3    H1 7353   1.582   1.768   4.606 -1.7022 -1.3368 -0.8904
 2449TIP3    H2 7354   1.654   1.635   4.616 -0.0493 -0.4171 -0.2639
 2450TIP3   OH2 7355   2.456   1.161   2.633  0.4314  0.7700  0.5127
 2450TIP3    H1 7356   2.361   1.172   2.628  0.2707 -0.2937  0.9509
 2450TIP3    H2 7357   2.488   1.184   2.545 -0.1525  1.7436  0.5454
 2451TIP3   OH2 7358   1.827   5.856   2.349 -0.1542  0.6218 -0.5335
 2451TIP3    H1 7359   1.905   5.806   2.328 -1.0542 -0.7928 -0.5820
 2451TIP3    H2 7360   1.797   5.891   2.265 -0.0016  0.5522 -0.6169
 2452TIP3   OH2 7361   3.158   0.533   1.443  0.3836  0.4345 -0.3703
 2452TIP3    H1 7362   3.156   0.557   1.535 -2.2619  2.1900 -0.7600
 2452TIP3    H2 7363   3.131   0.441   1.441  0.6908  0.3121  0.5888
 2453TIP3   OH2 7364   3.819   0.517   1.857 -0.1878  0.1813  0.5159
 2453TIP3    H1 7365   3.771   0.519   1.774  0.7631 -0.8484 -0.0906
 2453TIP3    H2 7366   3.898   0.467   1.837 -0.6174 -1.3747  2.4025
 2454TIP3   OH2 7367   5.213   5.050   1.586 -0.2739 -0.9286  0.0535
 2454TIP3    H1 7368   5.304   5.081   1.584 -0.0907 -0.6133  4.3889
 2454TIP3    H2 7369   5.162   5.123   1.550  1.0676 -0.9894 -2.1628
 2455TIP3   OH2 7370   5.489   2.787   2.254  0.0788 -0.1220  0.2294
 2455TIP3    H1 7371   5.443   2.794   2.170  0.5190  0.9163  0.0684
 2455TIP3    H2 7372   5.422   2.806   2.320 -0.6864 -2.5052  0.2633
 2456TIP3   OH2 7373   5.969   4.268   4.448 -0.0013  0.0326  0.1947
 2456TIP3    H1 7374   6.064   4.273   4.460 -0.0498 -1.9082  1.8617
 2456TIP3    H2 7375   5.955   4.184   4.404 -0.9411  0.4872 -0.4017
 2457TIP3   OH2 7376   2.669   0.257   3.247  0.1792 -0.1713  0.2117
 2457TIP3    H1 7377   2.677   0.183   3.306 -0.3999  0.6865  1.3951
 2457TIP3    H2 7378   2.633   0.220   3.166 -0.1796 -1.1521  0.8083
 2458TIP3   OH2 7379   5.920   3.110   3.511 -0.1047  0.3332  0.1830
 2458TIP3    H1 7380   5.994   3.076   3.459 -1.2863  0.1918 -1.4686
 2458TIP3    H2 7381   5.926   3.061   3.593 -0.3187 -2.2167 -1.1952
 2459TIP3   OH2 7382   5.941   4.544   3.668 -0.3133 -0.6793  0.5440
 2459TIP3    H1 7383   5.873   4.515   3.608  0.4138  0.4351 -0.8721
 2459TIP3    H2 7384   5.949   4.638   3.652  0.0600 -0.3939  2.2401
 2460TIP3   OH2 7385   0.959   0.877   4.665  0.1679  0.1752  0.0901
 2460TIP3    H1 7386   0.913   0.914   4.741  0.4640 -0.3415  0.5282
 2460TIP3    H2 7387   0.934   0.785   4.665  2.8890 -0.6710  1.6550
 2461TIP3   OH2 7388   4.257   0.470   1.771  0.5019  0.4052  0.7283
 2461TIP3    H1 7389   4.199   0.400   1.741 -0.9257  1.5107  0.8200
 2461TIP3    H2 7390   4.316   0.427   1.833  0.2742 -0.8949  0.0655
 2462TIP3   OH2 7391   5.560   4.068   1.853 -0.2154  0.0486  0.0932
 2462TIP3    H1 7392   5.616   4.115   1.913 -1.0792  1.3571 -0.0876
 2462TIP3    H2 7393   5.542   4.131   1.783  0.4250 -1.2920 -1.3354
 2463TIP3   OH2 7394   1.405   1.755   2.510 -0.0001 -0.4625 -0.0086
 2463TIP3    H1 7395   1.316   1.741   2.478 -0.4630 -2.7057  1.9202
 2463TIP3    H2 7396   1.455   1.680   2.477  0.6340 -0.3581  0.6711
 2464TIP3   OH2 7397   1.617   2.418   2.434 -0.6008 -0.0733  0.0174
 2464TIP3    H1 7398   1.549   2.485   2.442 -0.4628 -0.0126  0.7354
 2464TIP3    H2 7399   1.569   2.338   2.415 -0.8170  0.1079 -0.2081
 2465TIP3   OH2 7400   5.755   1.958   1.432  0.3769  0.2978  0.7240
 2465TIP3    H1 7401   5.694   1.885   1.427  0.6903  0.1005 -0.5151
 2465TIP3    H2 7402   5.782   1.961   1.524 -1.4355  0.3653  1.2966
 2466TIP3   OH2 7403   2.029   5.892   1.249  0.1470  0.3755  0.1663
 2466TIP3    H1 7404   2.088   5.891   1.325  0.6934  0.2698 -0.2561
 2466TIP3    H2 7405   2.012   5.800   1.230  1.2962  0.3529 -0.8221
 2467TIP3   OH2 7406   0.082   3.537   2.707  0.1936  0.7747  0.5182
 2467TIP3    H1 7407   0.020   3.596   2.663 -0.3004  0.3332  0.6063
 2467TIP3    H2 7408   0.079   3.457   2.655 -0.1464  0.3634  1.1549
 2468TIP3   OH2 7409   2.207   5.713   0.767 -0.4105 -0.3040  0.3353
 2468TIP3    H1 7410   2.127   5.662   0.758 -0.4621 -0.2325  0.3905
 2468TIP3    H2 7411   2.251   5.675   0.844 -1.0439  0.5330  1.1350
 2469TIP3   OH2 7412   3.860   4.840   0.635 -0.2652 -0.1464  0.1308
 2469TIP3    H1 7413   3.818   4.908   0.688  0.4766  1.0306 -0.7541
 2469TIP3    H2 7414   3.879   4.882   0.552  2.7578 -0.5668  0.4891
 2470TIP3   OH2 7415   5.256   0.945   3.564  0.1312  0.1999 -0.1476
 2470TIP3    H1 7416   5.244   0.978   3.654  0.7433 -0.2771  0.1162
 2470TIP3    H2 7417   5.204   0.865   3.561  1.2248 -0.5426  0.2301
 2471TIP3   OH2 7418   1.575   0.746   0.156 -0.6586  0.5194  0.2801
 2471TIP3    H1 7419   1.524   0.817   0.119  1.1302  0.9991 -1.4535
 2471TIP3    H2 7420   1.523   0.715   0.230 -2.6670  1.9505 -0.4414
 2472TIP3   OH2 7421   0.180   2.751   3.362 -0.2407  0.7689  0.3567
 2472TIP3    H1 7422   0.175   2.845   3.376 -0.2010  0.9044 -0.5201
 2472TIP3    H2 7423   0.090   2.720   3.368 -0.5216  1.1636 -1.3425
 2473TIP3   OH2 7424   0.317   4.477   3.280  0.4208 -0.2133 -0.2786
 2473TIP3    H1 7425   0.250   4.461   3.214  0.3376  1.7293 -0.7311
 2473TIP3    H2 7426   0.398   4.447   3.240  0.4880  1.5950 -1.6320
 2474TIP3   OH2 7427   3.431   1.428   2.997  0.2221 -0.0816  0.0402
 2474TIP3    H1 7428   3.521   1.395   2.986 -0.1123 -1.1545  0.3994
 2474TIP3    H2 7429   3.407   1.402   3.086  0.2734  2.0294  0.7290
 2475TIP3   OH2 7430   2.423   5.084   2.589  0.0916  0.0483  0.1393
 2475TIP3    H1 7431   2.411   5.022   2.661  0.0020 -0.1729 -0.0666
 2475TIP3    H2 7432   2.339   5.086   2.544  0.6745 -1.2026 -1.0591
 2476TIP3   OH2 7433   0.225   2.247   4.824  0.4211 -0.6987  0.1092
 2476TIP3    H1 7434   0.238   2.219   4.734  2.7668 -0.9604  0.4592
 2476TIP3    H2 7435   0.265   2.334   4.828 -1.3992  0.1869  0.4849
 2477TIP3   OH2 7436   2.862   2.643   2.872 -0.1636 -0.0882  0.2619
 2477TIP3    H1 7437   2.848   2.619   2.781  0.8704  2.9362 -0.8485
 2477TIP3    H2 7438   2.776   2.638   2.913 -0.5526 -2.0011 -0.6886
 2478TIP3   OH2 7439   0.499   2.949   4.866 -0.1097 -0.7379  0.5184
 2478TIP3    H1 7440   0.431   3.001   4.908 -0.2752 -0.8827  0.4362
 2478TIP3    H2 7441   0.464   2.931   4.778  1.3340  1.7375 -0.6475
 2479TIP3   OH2 7442   5.708   2.105   4.964  0.1528  0.2466 -0.2399
 2479TIP3    H1 7443   5.643   2.043   4.932  0.9748 -0.7047 -0.1188
 2479TIP3    H2 7444   5.783   2.051   4.988  1.3620  1.3959 -1.2689
 2480TIP3   OH2 7445   1.823   5.004   1.491 -0.1457 -0.2020 -0.0522
 2480TIP3    H1 7446   1.729   5.019   1.488 -0.1504  0.1187  1.1151
 2480TIP3    H2 7447   1.856   5.040   1.409 -0.9265  0.5855 -0.0306
 2481TIP3   OH2 7448   5.793   2.438   1.930 -0.7741 -0.5975  0.5040
 2481TIP3    H1 7449   5.826   2.348   1.932  1.5272  0.1816  2.9728
 2481TIP3    H2 7450   5.740   2.447   2.009  1.6227  0.9874  2.0685
 2482TIP3   OH2 7451   1.160   5.396   2.527  0.1709 -0.3612  0.2748
 2482TIP3    H1 7452   1.100   5.321   2.530  0.0530 -0.2967 -0.3656
 2482TIP3    H2 7453   1.104   5.473   2.531  0.0397 -0.2651 -2.0806
 2483TIP3   OH2 7454   1.957   3.094   0.508 -0.6902 -0.3743 -0.4342
 2483TIP3    H1 7455   1.982   3.025   0.445 -1.1581 -0.6533 -0.3221
 2483TIP3    H2 7456   1.862   3.086   0.515 -0.6877 -0.0629 -0.0113
 2484TIP3   OH2 7457   6.115   5.658   4.614 -0.3438  0.5616  0.3389
 2484TIP3    H1 7458   6.114   5.754   4.618 -1.6278  0.5743  0.0954
 2484TIP3    H2 7459   6.115   5.630   4.705 -3.2373  0.8253  0.4998
 2485TIP3   OH2 7460   1.886   2.089   2.734  0.1870 -0.1313 -0.2177
 2485TIP3    H1 7461   1.910   2.128   2.817 -0.9103  0.6225 -0.2297
 2485TIP3    H2 7462   1.823   2.150   2.696  0.2670 -0.7243 -1.3590
 2486TIP3   OH2 7463   5.884   1.180   2.893 -0.2665  0.0421 -0.6793
 2486TIP3    H1 7464   5.811   1.129   2.857 -0.7118 -0.4733  0.8643
 2486TIP3    H2 7465   5.843   1.245   2.949  0.4443 -1.7362  2.0881
 2487TIP3   OH2 7466   0.214   1.111   0.329  0.2368 -0.0753 -0.2530
 2487TIP3    H1 7467   0.272   1.054   0.380 -0.4171 -0.7180 -0.1937
 2487TIP3    H2 7468   0.272   1.159   0.271  0.9632  0.4161  0.8574
 2488TIP3   OH2 7469   1.080   0.845   3.004  0.2962 -0.1152  0.5716
 2488TIP3    H1 7470   1.158   0.797   2.976  0.2210 -0.6033  1.1796
 2488TIP3    H2 7471   1.111   0.902   3.074  0.3483  0.6100 -0.0227
 2489TIP3   OH2 7472   4.162   4.768   0.339 -0.1707  0.3670  0.1662
 2489TIP3    H1 7473   4.203   4.786   0.423  1.3481 -0.6621 -0.3201
 2489TIP3    H2 7474   4.068   4.779   0.355  0.0563 -0.1568  2.0798
 2490TIP3   OH2 7475   0.745   0.737   3.075  0.1463  0.0582  0.0218
 2490TIP3    H1 7476   0.824   0.746   3.021 -0.8260 -0.1653 -1.4763
 2490TIP3    H2 7477   0.768   0.670   3.139  0.3473 -1.9485 -2.0284
 2491TIP3   OH2 7478   1.069   3.224   4.050  0.2508 -0.4840  0.6247
 2491TIP3    H1 7479   1.028   3.292   4.103 -0.7286 -0.2710 -0.3723
 2491TIP3    H2 7480   1.162   3.244   4.054  0.1050  0.1002  1.4623
 2492TIP3   OH2 7481   5.891   2.024   0.602  0.6131  0.4533 -0.4869
 2492TIP3    H1 7482   5.893   2.040   0.508  0.1381 -0.8491 -0.7359
 2492TIP3    H2 7483   5.800   2.039   0.627  0.8256  1.2225 -0.1427
 2493TIP3   OH2 7484   3.317   0.925   4.500 -0.0166 -0.4095  0.5695
 2493TIP3    H1 7485   3.400   0.945   4.457 -0.7539  0.5604 -0.4414
 2493TIP3    H2 7486   3.276   1.010   4.515 -2.2212 -0.9453 -1.7868
 2494TIP3   OH2 7487   4.347   1.381   1.394  0.2273  0.6279  0.6836
 2494TIP3    H1 7488   4.316   1.315   1.456 -1.8600  0.5749 -0.3156
 2494TIP3    H2 7489   4.361   1.459   1.447 -0.5244  0.2972  1.3898
 2495TIP3   OH2 7490   2.851   2.499   4.730  0.2202 -0.2415  0.0940
 2495TIP3    H1 7491   2.864   2.519   4.823  0.4989  0.1206 -0.0211
 2495TIP3    H2 7492   2.824   2.582   4.691 -0.3188 -0.4898 -0.0715
 2496TIP3   OH2 7493   3.296   4.007   5.115  0.1089 -0.1542 -0.1653
 2496TIP3    H1 7494   3.276   4.082   5.060 -0.5574  0.4567  0.8785
 2496TIP3    H2 7495   3.215   3.955   5.117 -0.2892  0.4665  1.1918
 2497TIP3   OH2 7496   2.552   2.471   0.162 -0.0118 -0.5032  0.1345
 2497TIP3    H1 7497   2.470   2.492   0.204 -0.7836  2.6278 -2.5419
 2497TIP3    H2 7498   2.620   2.498   0.224 -0.9913 -0.4031  1.1829
 2498TIP3   OH2 7499   5.461   4.638   2.901 -0.0917  0.3080 -0.5194
 2498TIP3    H1 7500   5.375   4.606   2.875  0.4710 -1.9547  0.2316
 2498TIP3    H2 7501   5.450   4.664   2.993 -0.3237  1.4804 -0.8655
 2499TIP3   OH2 7502   6.023   5.905   4.634  0.2143 -0.3444 -0.1584
 2499TIP3    H1 7503   6.081   5.961   4.686  0.6687 -0.8828 -0.0779
 2499TIP3    H2 7504   5.992   5.961   4.563  0.0745  0.2224  0.3432
 2500TIP3   OH2 7505   0.299   3.491   3.959 -0.0243 -0.6019 -0.0131
 2500TIP3    H1 7506   0.205   3.474   3.971  0.2228 -1.0225  1.6391
 2500TIP3    H2 7507   0.335   3.406   3.935 -0.1173 -0.3517 -1.0526
 2501TIP3   OH2 7508   2.510   2.470   1.027 -0.5295 -0.2696 -0.2212
 2501TIP3    H1 7509   2.521   2.560   1.058  0.9085 -0.9028  1.2942
 2501TIP3    H2 7510   2.574   2.461   0.956 -0.4683 -0.1616 -0.1805
 2502TIP3   OH2 7511   5.852   1.724   4.128  0.0086  0.1016 -0.3176
 2502TIP3    H1 7512   5.771   1.698   4.172 -0.6775  0.4312 -1.3721
 2502TIP3    H2 7513   5.909   1.753   4.200 -1.2081  0.9584  0.3376
 2503TIP3   OH2 7514   2.255   2.183   0.197 -0.0466  0.2167 -0.1143
 2503TIP3    H1 7515   2.214   2.175   0.283  0.5321 -0.2930  0.1220
 2503TIP3    H2 7516   2.200   2.130   0.139  0.5579 -0.8717  0.3009
 2504TIP3   OH2 7517   5.938   0.293   0.780 -0.0597  0.0014 -0.0840
 2504TIP3    H1 7518   6.004   0.263   0.717  0.8493  0.2359  0.7225
 2504TIP3    H2 7519   5.961   0.248   0.862  0.3965  1.6608  0.7433
 2505TIP3   OH2 7520   2.120   2.142   0.451  0.1524  0.5125 -0.2100
 2505TIP3    H1 7521   2.132   2.128   0.545  1.2106  1.2430 -0.2211
 2505TIP3    H2 7522   2.120   2.054   0.413  1.4685  0.2792  0.2848
 2506TIP3   OH2 7523   0.360   4.947   1.293  0.1198  0.3107 -0.0504
 2506TIP3    H1 7524   0.317   4.980   1.372 -0.8936 -0.6489 -0.1615
 2506TIP3    H2 7525   0.321   4.860   1.280  3.0368 -1.2087  0.5689
 2507TIP3   OH2 7526   4.142   5.612   3.726 -0.1900  0.4030 -0.4056
 2507TIP3    H1 7527   4.121   5.577   3.812  2.1377 -0.5260 -0.1674
 2507TIP3    H2 7528   4.058   5.611   3.679 -1.2648 -0.1771  1.4410
 2508TIP3   OH2 7529   1.083   1.668   0.637 -0.8126  0.2950  0.8114
 2508TIP3    H1 7530   1.041   1.582   0.648  1.0233 -1.0547 -1.8432
 2508TIP3    H2 7531   1.085   1.682   0.543 -1.5313  3.5883  1.1814
 2509TIP3   OH2 7532   4.615   4.789   0.174 -0.3893  0.0246  0.4361
 2509TIP3    H1 7533   4.611   4.704   0.132 -1.4350  0.6871 -0.8818
 2509TIP3    H2 7534   4.647   4.771   0.262  2.7737 -1.3367 -0.8477
 2510TIP3   OH2 7535   0.545   5.056   1.789  0.3578 -0.0872 -0.3598
 2510TIP3    H1 7536   0.469   5.023   1.837 -0.9150  0.9532 -1.6023
 2510TIP3    H2 7537   0.581   4.978   1.746  0.2159 -0.6457  0.4930
 2511TIP3   OH2 7538   0.072   4.290   5.151  0.4278  0.1115 -0.2107
 2511TIP3    H1 7539   0.072   4.195   5.143 -1.2741 -0.2164  2.3264
 2511TIP3    H2 7540   0.163   4.314   5.166  0.7456 -1.2831  0.2225
 2512TIP3   OH2 7541   2.423   0.121   0.108 -0.3828 -0.4301 -0.3453
 2512TIP3    H1 7542   2.468   0.154   0.185  0.6622  0.4041 -1.2900
 2512TIP3    H2 7543   2.484   0.135   0.036 -2.0309  0.4562 -1.6311
 2513TIP3   OH2 7544   4.287   2.238   1.297  0.0094 -0.0903 -0.1027
 2513TIP3    H1 7545   4.317   2.174   1.232  0.0061 -2.7361  2.3191
 2513TIP3    H2 7546   4.212   2.281   1.256  2.7557  1.9066 -3.6583
 2514TIP3   OH2 7547   2.091   5.756   4.771 -0.4636 -0.1212 -0.3813
 2514TIP3    H1 7548   2.096   5.747   4.675  2.6413 -0.5725 -0.2911
 2514TIP3    H2 7549   2.084   5.666   4.803  0.5187 -0.1420 -0.1811
 2515TIP3   OH2 7550   0.976   3.580   2.327 -0.1906  0.0447  0.3390
 2515TIP3    H1 7551   0.887   3.591   2.295 -0.2888  0.6326  0.8098
 2515TIP3    H2 7552   0.981   3.487   2.351  0.0195 -0.5204 -1.7439
 2516TIP3   OH2 7553   0.468   2.166   3.396  0.1013  0.0904  0.1070
 2516TIP3    H1 7554   0.529   2.186   3.326 -0.0925 -0.6964 -0.3021
 2516TIP3    H2 7555   0.387   2.210   3.371  0.1080  0.0252 -0.0307
 2517TIP3   OH2 7556   4.800   4.712   4.000  0.1035  1.2935  0.0938
 2517TIP3    H1 7557   4.800   4.702   4.096 -0.0685  0.2236 -0.0019
 2517TIP3    H2 7558   4.889   4.739   3.979  1.7047 -3.0961  0.1790
 2518TIP3   OH2 7559   5.948   2.938   4.975  0.0477  0.1550  0.4427
 2518TIP3    H1 7560   6.007   2.943   4.900 -0.9545 -2.5605 -0.6555
 2518TIP3    H2 7561   6.004   2.915   5.049  0.6202 -0.4782 -0.1775
 2519TIP3   OH2 7562   2.770   3.501   1.102 -0.1272  0.1469  0.0454
 2519TIP3    H1 7563   2.803   3.585   1.071  2.0619 -0.8314 -0.4152
 2519TIP3    H2 7564   2.690   3.523   1.150 -0.2375  2.3412 -1.0442
 2520TIP3   OH2 7565   0.087   2.643   3.875  0.2814  0.2161 -0.1794
 2520TIP3    H1 7566   0.014   2.580   3.871  0.6853 -0.2217 -1.0782
 2520TIP3    H2 7567   0.130   2.624   3.958  1.3417 -1.8188 -1.1029
 2521TIP3   OH2 7568   0.652   3.543   3.838 -0.5498 -0.4615  0.2696
 2521TIP3    H1 7569   0.620   3.470   3.785 -2.1237 -0.3566  1.0172
 2521TIP3    H2 7570   0.574   3.598   3.851  0.2602  0.5209  1.0424
 2522TIP3   OH2 7571   6.307   4.800   3.606  0.2490  0.6994 -0.0435
 2522TIP3    H1 7572   6.323   4.830   3.516 -1.7839  0.0110 -0.6860
 2522TIP3    H2 7573   6.381   4.835   3.656  2.4403 -0.3792 -2.2807
 2523TIP3   OH2 7574   1.289   3.605   2.115 -0.2371 -0.1446 -0.1886
 2523TIP3    H1 7575   1.384   3.596   2.129 -0.5079 -3.3799  0.5878
 2523TIP3    H2 7576   1.274   3.564   2.030 -0.9878 -0.0683 -0.0939
 2524TIP3   OH2 7577   6.340   3.605   2.950 -0.6223  0.3496 -0.4405
 2524TIP3    H1 7578   6.393   3.592   2.871  0.0035  0.8406 -0.1052
 2524TIP3    H2 7579   6.273   3.668   2.924 -1.3501 -0.6112 -0.9944
 2525TIP3   OH2 7580   6.137   4.126   3.723  0.0364  0.0803 -0.2298
 2525TIP3    H1 7581   6.094   4.048   3.687  0.2627 -0.7382  1.1986
 2525TIP3    H2 7582   6.069   4.194   3.720 -0.6205 -0.5586 -0.1823
 2526TIP3   OH2 7583   4.833   1.005   0.045  0.1469 -0.1738  0.4381
 2526TIP3    H1 7584   4.743   0.975   0.044  0.5177 -1.3299 -0.2948
 2526TIP3    H2 7585   4.849   1.029   0.136 -1.6397  2.5235  0.1516
 2527TIP3   OH2 7586   0.585   5.810   0.016 -0.3734 -0.2152  0.0224
 2527TIP3    H1 7587   0.545   5.844   0.097 -0.2923  0.4509 -0.2065
 2527TIP3    H2 7588   0.555   5.871  -0.052 -1.4905 -1.4997 -0.6764
 2528TIP3   OH2 7589   4.485   1.874   0.614  0.2549 -0.1103 -0.0823
 2528TIP3    H1 7590   4.437   1.793   0.594  0.0381  0.1461 -0.6363
 2528TIP3    H2 7591   4.484   1.880   0.709  1.8418 -1.7114  0.0865
 2529TIP3   OH2 7592   4.863   0.991   4.895 -0.2356  0.2800 -0.1766
 2529TIP3    H1 7593   4.840   0.898   4.898 -0.6731  0.4044  1.6636
 2529TIP3    H2 7594   4.779   1.036   4.887 -0.0642  0.5258 -0.5893
 2530TIP3   OH2 7595   6.116   2.714   5.071 -0.4968  0.5257 -0.3879
 2530TIP3    H1 7596   6.070   2.645   5.022 -0.4087  1.3977 -1.7650
 2530TIP3    H2 7597   6.190   2.738   5.014  0.4086  0.6628  0.8010
 2531TIP3   OH2 7598   5.599   3.329   2.328 -0.3993  0.6613  0.0989
 2531TIP3    H1 7599   5.598   3.237   2.300  1.2348  1.3322 -2.5005
 2531TIP3    H2 7600   5.617   3.325   2.421  0.5808 -1.6529 -0.1136
 2532TIP3   OH2 7601   4.200   5.665   2.581  0.0308 -0.0752  0.1419
 2532TIP3    H1 7602   4.130   5.727   2.559  0.2482 -0.2009 -1.0064
 2532TIP3    H2 7603   4.277   5.721   2.596  0.1170 -0.0279 -0.4414
 2533TIP3   OH2 7604   2.146   3.905   4.589 -0.5296  0.2643  0.1926
 2533TIP3    H1 7605   2.155   3.928   4.681 -1.6128  0.3032  0.3001
 2533TIP3    H2 7606   2.189   3.819   4.582  0.2144  0.5980  0.5655
 2534TIP3   OH2 7607   3.040   4.221   1.735  0.2995 -0.3510  0.7183
 2534TIP3    H1 7608   3.049   4.226   1.639 -0.2204 -1.5350  0.5915
 2534TIP3    H2 7609   3.096   4.148   1.760  0.1879 -0.2432  1.2865
 2535TIP3   OH2 7610   0.668   4.208   4.953 -0.5391 -0.9795 -0.3279
 2535TIP3    H1 7611   0.721   4.211   5.032  0.4127  0.8040 -0.9822
 2535TIP3    H2 7612   0.613   4.130   4.964 -1.8837  0.2689  2.9966
 2536TIP3   OH2 7613   4.404   5.786   3.497 -0.2562  0.1124  0.6908
 2536TIP3    H1 7614   4.481   5.818   3.449 -0.8201 -0.3371 -0.5669
 2536TIP3    H2 7615   4.393   5.696   3.467 -1.4962  0.2926  0.5433
 2537TIP3   OH2 7616   1.332   0.234   0.545 -0.4105  0.4313 -0.1778
 2537TIP3    H1 7617   1.348   0.230   0.640 -0.3701  0.5902 -0.1785
 2537TIP3    H2 7618   1.416   0.261   0.508 -0.9132  2.2221 -0.1068
 2538TIP3   OH2 7619   1.732   1.031   2.248  0.2325 -0.3651 -0.4198
 2538TIP3    H1 7620   1.755   0.992   2.164  0.1013 -0.0341 -0.6127
 2538TIP3    H2 7621   1.777   1.116   2.248 -0.5975  0.0845 -0.6038
 2539TIP3   OH2 7622   1.418   2.789   1.446  0.1903 -0.2463 -0.0655
 2539TIP3    H1 7623   1.395   2.862   1.503  0.4165 -1.5289  1.7578
 2539TIP3    H2 7624   1.499   2.754   1.483  0.3607 -1.1226 -1.1894
 2540TIP3   OH2 7625   5.935   2.240   0.821  0.3188  0.7173  0.8043
 2540TIP3    H1 7626   5.842   2.261   0.822  0.3348  0.8200  1.9518
 2540TIP3    H2 7627   5.943   2.166   0.761 -0.3574  1.2742  0.0081
 2541TIP3   OH2 7628   4.016   4.378   1.953  0.2571 -0.1227  0.1877
 2541TIP3    H1 7629   3.991   4.363   1.862  0.7091 -0.9802  0.1952
 2541TIP3    H2 7630   4.009   4.473   1.965 -1.1695 -0.1446 -0.3251
 2542TIP3   OH2 7631   3.061   5.890   2.422 -0.4469  0.0812 -0.2809
 2542TIP3    H1 7632   3.142   5.867   2.468 -0.6029 -0.3448 -0.2180
 2542TIP3    H2 7633   3.088   5.904   2.331  0.2228  2.8757  0.2577
 2543TIP3   OH2 7634   1.029   5.637   2.407  0.0474 -0.5292 -0.2990
 2543TIP3    H1 7635   1.001   5.701   2.472 -0.6554 -1.6604  0.5443
 2543TIP3    H2 7636   1.111   5.673   2.372  1.5901 -0.8410  2.6995
 2544TIP3   OH2 7637   6.039   1.914   1.944 -0.1902  0.6219  0.3715
 2544TIP3    H1 7638   5.945   1.898   1.954 -0.1417  0.2028  0.1738
 2544TIP3    H2 7639   6.076   1.900   2.031 -0.3737  1.2530  0.5576
 2545TIP3   OH2 7640   1.934   0.234   4.466 -0.4157 -0.3787  0.0020
 2545TIP3    H1 7641   1.897   0.162   4.414 -0.6009 -0.8478  0.7742
 2545TIP3    H2 7642   1.864   0.257   4.527  0.1968 -0.6040  0.8075
 2546TIP3   OH2 7643   4.991   0.598   3.193 -0.3691  0.6903  0.0996
 2546TIP3    H1 7644   5.085   0.580   3.190 -0.6504 -0.7188 -1.2120
 2546TIP3    H2 7645   4.975   0.651   3.115 -0.9052 -0.4564 -0.5921
 2547TIP3   OH2 7646   5.457   0.961   2.621  0.2702 -0.2899  0.6833
 2547TIP3    H1 7647   5.411   1.034   2.580 -0.7209 -1.4374 -0.3095
 2547TIP3    H2 7648   5.394   0.925   2.684  0.2679 -1.0606  0.2570
 2548TIP3   OH2 7649   2.773   0.113   0.648  0.1201 -0.5159  0.3120
 2548TIP3    H1 7650   2.764   0.189   0.705  0.9468 -0.6506  0.6379
 2548TIP3    H2 7651   2.781   0.148   0.560 -1.0488 -0.2989  0.2717
 2549TIP3   OH2 7652   4.514   1.658   4.734 -0.2305  0.0420 -0.0095
 2549TIP3    H1 7653   4.579   1.590   4.751 -0.1612 -0.4274 -1.9083
 2549TIP3    H2 7654   4.565   1.734   4.705 -0.3985  0.4333  0.7000
 2550TIP3   OH2 7655   3.456   3.300   3.982  0.2554  0.6260  0.2512
 2550TIP3    H1 7656   3.373   3.253   3.976 -1.0449  2.6459  1.3093
 2550TIP3    H2 7657   3.490   3.275   4.068  0.7449 -0.1529 -0.1569
 2551TIP3   OH2 7658   5.217   3.110   3.290  0.6196  0.0874 -0.0938
 2551TIP3    H1 7659   5.299   3.080   3.252  1.0300  0.7032  0.2804
 2551TIP3    H2 7660   5.244   3.164   3.364 -0.1368 -0.2248  0.4238
 2552TIP3   OH2 7661   1.678   0.674   1.698  0.4327 -0.9458  0.1648
 2552TIP3    H1 7662   1.610   0.626   1.746  0.4631  0.5403  1.8214
 2552TIP3    H2 7663   1.645   0.764   1.695  1.9149 -0.3853  0.2012
 2553TIP3   OH2 7664   5.273   3.034   4.084 -0.1163  0.5335 -0.0989
 2553TIP3    H1 7665   5.331   3.091   4.135  0.1939 -1.3058  1.7488
 2553TIP3    H2 7666   5.331   2.987   4.024  0.0470  0.0814  0.4084
 2554TIP3   OH2 7667   5.882   2.577   4.152 -0.1393  0.4935  0.2109
 2554TIP3    H1 7668   5.896   2.531   4.069 -0.9672  0.2530  0.1912
 2554TIP3    H2 7669   5.826   2.518   4.202 -0.4632  1.0844  0.5488
 2555TIP3   OH2 7670   0.055   0.659   4.193  0.1644 -0.3292  0.5551
 2555TIP3    H1 7671   0.047   0.748   4.159 -2.3626  0.0806  1.9540
 2555TIP3    H2 7672   0.146   0.651   4.221  0.7012  1.4288 -0.5641
 2556TIP3   OH2 7673   1.182   4.905   0.051 -1.1131  0.1527 -0.9862
 2556TIP3    H1 7674   1.188   4.997   0.025 -0.0473  0.2959 -0.2792
 2556TIP3    H2 7675   1.177   4.907   0.146  0.8867 -0.5733 -0.8266
 2557TIP3   OH2 7676   5.974   5.514   3.756 -0.4583  0.5383  0.0263
 2557TIP3    H1 7677   6.026   5.471   3.824 -1.1272  0.5917  0.5750
 2557TIP3    H2 7678   6.001   5.472   3.675  1.4528  1.4854  0.1134
 2558TIP3   OH2 7679   2.445   3.290   4.413  0.1631  0.0563 -0.1028
 2558TIP3    H1 7680   2.504   3.228   4.370  0.2021 -0.0091  0.0452
 2558TIP3    H2 7681   2.358   3.251   4.406  0.3530 -0.6338  1.1062
 2559TIP3   OH2 7682   1.300   5.149   3.440  0.0219  0.3851 -0.3125
 2559TIP3    H1 7683   1.274   5.215   3.503 -0.8132  1.0700 -1.3378
 2559TIP3    H2 7684   1.366   5.192   3.385 -0.0785  0.1695 -0.6073
 2560TIP3   OH2 7685   2.424   0.403   1.301  0.0027  0.5552  0.0805
 2560TIP3    H1 7686   2.387   0.318   1.278  1.4954 -0.0102 -0.4094
 2560TIP3    H2 7687   2.500   0.412   1.242  1.1826  1.1988  1.6324
 2561TIP3   OH2 7688   2.696   2.345   4.523 -0.1703  0.2516  0.0670
 2561TIP3    H1 7689   2.783   2.322   4.492 -0.0537  0.1714  0.4576
 2561TIP3    H2 7690   2.709   2.378   4.611 -0.5472  0.1464  0.1644
 2562TIP3   OH2 7691   4.911   4.177   4.627  0.3849 -0.0011  0.1262
 2562TIP3    H1 7692   4.956   4.260   4.618  0.6820 -0.2749 -0.9634
 2562TIP3    H2 7693   4.928   4.150   4.718 -1.6833  2.2330  1.3004
 2563TIP3   OH2 7694   1.624   3.041   1.937 -0.2657  0.0162 -0.2414
 2563TIP3    H1 7695   1.690   2.988   1.893 -0.9010 -1.4384  0.4862
 2563TIP3    H2 7696   1.556   3.055   1.871 -0.2670 -0.4086 -0.3329
 2564TIP3   OH2 7697   3.683   0.878   0.195 -0.2905  0.2778 -0.1616
 2564TIP3    H1 7698   3.717   0.849   0.279  1.5519 -2.5121 -1.6943
 2564TIP3    H2 7699   3.753   0.930   0.156 -1.4157  2.2040  0.2239
 2565TIP3   OH2 7700   6.169   3.944   0.317 -0.6400  0.4278 -0.2604
 2565TIP3    H1 7701   6.147   3.877   0.252 -0.8445 -0.3733  0.6080
 2565TIP3    H2 7702   6.263   3.958   0.305 -0.0087 -1.8986  1.1784
 2566TIP3   OH2 7703   2.764   3.837   2.579 -0.1764 -0.4840 -0.6988
 2566TIP3    H1 7704   2.791   3.812   2.667  1.2851  2.6724 -0.0972
 2566TIP3    H2 7705   2.698   3.773   2.554  0.7709 -2.6279  1.8756
 2567TIP3   OH2 7706   0.268   3.427   0.781 -0.0344 -0.0340 -0.3106
 2567TIP3    H1 7707   0.353   3.433   0.738 -0.0594  0.4483 -0.2918
 2567TIP3    H2 7708   0.267   3.498   0.845  0.6446 -1.7299  1.6805
 2568TIP3   OH2 7709   1.565   3.682   1.771  0.4877 -0.1825 -0.1636
 2568TIP3    H1 7710   1.500   3.612   1.779  1.7492 -1.4574 -0.4900
 2568TIP3    H2 7711   1.631   3.646   1.712  1.9090  0.7101  0.8034
 2569TIP3   OH2 7712   2.584   5.103   1.599 -0.4792 -0.2465  0.6452
 2569TIP3    H1 7713   2.675   5.103   1.569 -0.0396  1.2428  1.8511
 2569TIP3    H2 7714   2.549   5.187   1.567 -1.5892 -1.0020 -0.2027
 2570TIP3   OH2 7715   1.353   3.338   3.157  0.4450 -0.3097  0.0060
 2570TIP3    H1 7716   1.405   3.264   3.185 -0.7702 -0.9339  0.7289
 2570TIP3    H2 7717   1.395   3.369   3.077  1.7649 -0.9083  0.4419
 2571TIP3   OH2 7718   4.523   1.314   2.130  0.2781  0.2524  0.8818
 2571TIP3    H1 7719   4.607   1.268   2.131 -0.1142 -0.7230 -1.7927
 2571TIP3    H2 7720   4.544   1.403   2.156  2.0483 -0.1177  0.8546
 2572TIP3   OH2 7721   5.522   5.931   2.757 -0.3911  0.3356  0.1598
 2572TIP3    H1 7722   5.519   5.866   2.827  4.5327 -0.0023  0.4027
 2572TIP3    H2 7723   5.528   6.015   2.803 -1.8854  0.5729 -0.0432
 2573TIP3   OH2 7724   5.503   1.577   1.570  0.0201  0.2828 -0.0708
 2573TIP3    H1 7725   5.409   1.587   1.555 -0.2879 -1.5662  0.4034
 2573TIP3    H2 7726   5.511   1.506   1.634  1.7827 -0.9998 -1.5722
 2574TIP3   OH2 7727   1.179   5.789   2.032  0.0604  0.0652  1.2968
 2574TIP3    H1 7728   1.187   5.720   2.098  0.0043  0.5717  1.8424
 2574TIP3    H2 7729   1.144   5.864   2.080  0.0434  0.4487  0.6921
 2575TIP3   OH2 7730   0.781   1.386   2.238 -0.4808  0.1885 -0.5325
 2575TIP3    H1 7731   0.874   1.374   2.253 -0.4350  1.8306  0.8116
 2575TIP3    H2 7732   0.766   1.480   2.253 -1.8552  0.5896 -3.6401
 2576TIP3   OH2 7733   4.399   1.596   2.924 -0.0918  0.2338 -0.4726
 2576TIP3    H1 7734   4.323   1.582   2.867 -1.6556 -0.3464  1.6312
 2576TIP3    H2 7735   4.425   1.508   2.951 -1.7387  0.5396  2.5392
 2577TIP3   OH2 7736   6.296   2.376   0.488 -0.4974  0.2372 -0.1411
 2577TIP3    H1 7737   6.305   2.458   0.537 -0.1709  0.3788 -0.4376
 2577TIP3    H2 7738   6.269   2.403   0.400 -3.3305 -0.1281  0.5277
 2578TIP3   OH2 7739   2.881   2.040   4.880 -0.1399 -0.1819 -0.2908
 2578TIP3    H1 7740   2.850   2.003   4.963 -2.1793  1.5047 -0.2065
 2578TIP3    H2 7741   2.933   1.970   4.840 -2.6414 -2.6567  0.4401
 2579TIP3   OH2 7742   3.518   4.547   4.360  0.1168 -0.4148  0.4519
 2579TIP3    H1 7743   3.544   4.611   4.294  1.0623  0.5689  1.7319
 2579TIP3    H2 7744   3.465   4.597   4.422 -0.5133 -1.2605  0.6124
 2580TIP3   OH2 7745   4.616   1.465   1.270  0.3766  0.4131  0.1000
 2580TIP3    H1 7746   4.685   1.413   1.227  0.2532  1.2539 -1.1623
 2580TIP3    H2 7747   4.537   1.412   1.261  0.9865 -1.0269  2.4431
 2581TIP3   OH2 7748   5.785   4.025   3.383  0.4441  0.7055  0.4244
 2581TIP3    H1 7749   5.800   3.995   3.294 -0.4228 -1.8935  1.0717
 2581TIP3    H2 7750   5.775   4.120   3.375 -2.1270  0.3376 -2.6059
 2582TIP3   OH2 7751   1.319   5.078   2.963 -0.3497  0.1664 -0.5355
 2582TIP3    H1 7752   1.357   5.153   3.010  0.4299 -0.0185 -0.8546
 2582TIP3    H2 7753   1.265   5.117   2.895 -0.4044  0.4357 -0.3402
 2583TIP3   OH2 7754   3.694   3.382   2.596  0.1989 -0.2216  0.0245
 2583TIP3    H1 7755   3.679   3.466   2.553  0.3840 -0.7438 -1.0911
 2583TIP3    H2 7756   3.608   3.355   2.629 -0.2529 -0.5130 -1.3443
 2584TIP3   OH2 7757   3.438   5.414   2.420 -0.1610 -0.5967 -0.4385
 2584TIP3    H1 7758   3.377   5.341   2.432  0.7330 -1.0081  2.2737
 2584TIP3    H2 7759   3.384   5.485   2.385 -1.4987 -1.8858 -1.0875
 2585TIP3   OH2 7760   5.200   4.252   4.203 -0.1852  0.7231 -0.0117
 2585TIP3    H1 7761   5.112   4.231   4.172  0.0838  2.2117 -1.9447
 2585TIP3    H2 7762   5.246   4.168   4.204 -1.8293 -0.2392  1.9518
 2586TIP3   OH2 7763   5.306   5.494   1.106 -0.5595 -0.7809  0.2310
 2586TIP3    H1 7764   5.344   5.435   1.041 -3.0010 -0.0549 -2.0186
 2586TIP3    H2 7765   5.259   5.436   1.166 -0.3883 -1.3233 -0.1493
 2587TIP3   OH2 7766   3.849   4.907   3.887 -0.5288 -0.0299 -0.0623
 2587TIP3    H1 7767   3.861   5.002   3.886  1.8387 -0.2718 -1.2773
 2587TIP3    H2 7768   3.894   4.878   3.966 -0.1662 -0.2293 -0.3375
 2588TIP3   OH2 7769   6.151   5.340   2.953  0.1752 -0.1383  0.2978
 2588TIP3    H1 7770   6.232   5.340   2.902 -1.3510 -0.9551 -2.3006
 2588TIP3    H2 7771   6.120   5.430   2.948  0.1054 -0.1826 -0.1525
 2589TIP3   OH2 7772   1.300   2.058   5.026 -0.2629  0.4893 -0.3806
 2589TIP3    H1 7773   1.358   2.093   5.093  1.5404 -1.8150 -0.6401
 2589TIP3    H2 7774   1.306   2.121   4.954 -0.1801  1.6134  0.5669
 2590TIP3   OH2 7775   1.571   3.200   3.525  0.1708  0.1886  0.2881
 2590TIP3    H1 7776   1.636   3.169   3.460 -0.2449  1.7331 -0.9293
 2590TIP3    H2 7777   1.601   3.288   3.547 -0.6409  0.3040  0.9286
 2591TIP3   OH2 7778   1.743   5.071   4.255  0.3492  0.2094  0.2107
 2591TIP3    H1 7779   1.797   5.028   4.320  0.3376  1.3443  0.9992
 2591TIP3    H2 7780   1.770   5.163   4.258 -0.6515  0.5395 -0.3614
 2592TIP3   OH2 7781   3.840   1.150   0.099  0.0628  0.0546  0.2002
 2592TIP3    H1 7782   3.800   1.103   0.026 -0.3114 -0.0156  0.4477
 2592TIP3    H2 7783   3.906   1.206   0.059 -0.4659  0.3691 -0.2370
 2593TIP3   OH2 7784   0.256   2.875   2.399  0.2575 -0.4023 -0.4106
 2593TIP3    H1 7785   0.290   2.808   2.458 -0.3483 -1.2850 -1.0404
 2593TIP3    H2 7786   0.285   2.848   2.312  1.7439  1.2607 -0.4815
 2594TIP3   OH2 7787   4.117   0.862   4.585  0.2708 -0.1795  0.0723
 2594TIP3    H1 7788   4.170   0.784   4.567 -0.5611 -1.3916  2.5199
 2594TIP3    H2 7789   4.175   0.919   4.636 -0.3666 -1.0629  1.8656
 2595TIP3   OH2 7790   0.497   4.752   3.690 -0.8406 -0.3625  0.0046
 2595TIP3    H1 7791   0.510   4.697   3.613 -2.7064 -2.1350  0.8693
 2595TIP3    H2 7792   0.559   4.824   3.679  0.4864 -1.7291 -2.0296
 2596TIP3   OH2 7793   2.575   5.923   1.035 -0.0567 -0.4127 -0.1873
 2596TIP3    H1 7794   2.616   6.008   1.017  0.1483 -0.5121 -0.1900
 2596TIP3    H2 7795   2.510   5.942   1.103 -0.3633 -0.1613 -0.5493
 2597TIP3   OH2 7796   5.692   2.021   2.733  0.0700 -0.1864 -0.3944
 2597TIP3    H1 7797   5.780   2.020   2.696  0.9337  0.1834  1.5057
 2597TIP3    H2 7798   5.642   1.959   2.680  1.4982 -0.5011 -1.4198
 2598TIP3   OH2 7799   4.079   5.190   4.805  0.0787  0.0528 -0.2871
 2598TIP3    H1 7800   4.103   5.182   4.897  0.7105 -1.9120 -0.5704
 2598TIP3    H2 7801   4.163   5.202   4.760  0.4124 -3.6382 -0.9747
 2599TIP3   OH2 7802   6.103   2.079   2.770 -0.1888  0.2313  0.4451
 2599TIP3    H1 7803   6.075   2.153   2.823  0.6304  0.5129  0.4875
 2599TIP3    H2 7804   6.198   2.079   2.776 -0.1430 -0.3862 -0.1466
 2600TIP3   OH2 7805   0.838   2.160   4.635  0.1123  0.0561  0.2465
 2600TIP3    H1 7806   0.817   2.219   4.562  2.8482 -0.2400 -0.8744
 2600TIP3    H2 7807   0.913   2.201   4.678  2.2353 -2.6438 -0.6918
 2601TIP3   OH2 7808   5.640   0.686   3.334 -0.0065  0.1476  0.0517
 2601TIP3    H1 7809   5.686   0.639   3.264 -0.9881  1.0589 -1.2605
 2601TIP3    H2 7810   5.641   0.778   3.305 -1.5165  0.3681  0.6322
 2602TIP3   OH2 7811   2.667   4.244   0.660  0.2756 -0.2071  0.6822
 2602TIP3    H1 7812   2.590   4.282   0.704 -1.5925  0.9255 -3.1139
 2602TIP3    H2 7813   2.729   4.317   0.655  0.9438 -0.6303  2.1938
 2603TIP3   OH2 7814   0.503   5.382   3.886  0.4765  0.2240 -0.2217
 2603TIP3    H1 7815   0.421   5.428   3.905  1.6481  2.2902  0.0399
 2603TIP3    H2 7816   0.505   5.309   3.949 -0.8163  0.5550  0.2322
 2604TIP3   OH2 7817   3.659   1.775   4.836  0.4350 -0.0196 -0.3997
 2604TIP3    H1 7818   3.664   1.720   4.758  0.1334 -0.6882  0.0521
 2604TIP3    H2 7819   3.657   1.865   4.801 -1.1705 -0.3424 -1.2393
 2605TIP3   OH2 7820   3.323   4.091   4.659 -0.0404 -0.0350 -0.8051
 2605TIP3    H1 7821   3.367   4.146   4.723 -1.6060 -1.0114  1.2384
 2605TIP3    H2 7822   3.236   4.131   4.649 -0.7187 -1.3162 -0.3088
 2606TIP3   OH2 7823   5.320   2.961   2.468  0.3969  0.3542  0.5603
 2606TIP3    H1 7824   5.324   3.056   2.473  0.3880  0.5080 -1.5553
 2606TIP3    H2 7825   5.228   2.939   2.483 -0.1575  0.9428 -1.6210
 2607TIP3   OH2 7826   3.997   1.285   3.767 -0.0832  0.2650 -0.2179
 2607TIP3    H1 7827   4.052   1.358   3.796  0.5190 -0.2941  0.0773
 2607TIP3    H2 7828   4.039   1.207   3.803 -0.9950 -0.1947 -0.1147
 2608TIP3   OH2 7829   1.174   5.589   1.470  0.1217 -0.2632 -0.3753
 2608TIP3    H1 7830   1.092   5.551   1.502  0.1544  0.9410  1.2835
 2608TIP3    H2 7831   1.147   5.668   1.424  0.1953 -1.2376 -2.1719
 2609TIP3   OH2 7832   4.382   3.244   2.011  0.1440 -0.3954  0.0887
 2609TIP3    H1 7833   4.320   3.312   2.036 -0.1320 -1.4008  2.3361
 2609TIP3    H2 7834   4.331   3.163   2.013  1.3011 -1.1283  1.1080
 2610TIP3   OH2 7835   3.970   4.203   1.390  0.3771  0.1351 -0.0084
 2610TIP3    H1 7836   3.895   4.166   1.436  1.1501 -0.8279  0.5153
 2610TIP3    H2 7837   3.939   4.220   1.301  0.2467 -2.7582 -0.5964
 2611TIP3   OH2 7838   5.626   5.313   4.197  0.2966 -0.7367  0.7836
 2611TIP3    H1 7839   5.721   5.312   4.188  0.2517  0.3262  0.0460
 2611TIP3    H2 7840   5.609   5.382   4.261  0.0312 -1.1781  1.1979
 2612TIP3   OH2 7841   1.446   0.056   3.905  0.4607  0.7089 -0.7343
 2612TIP3    H1 7842   1.488   0.142   3.913 -0.4056  0.9405  2.6951
 2612TIP3    H2 7843   1.518  -0.005   3.887  0.9843  2.1142 -4.3151
 2613TIP3   OH2 7844   0.275   5.557   0.092 -0.7379  0.4940  0.1252
 2613TIP3    H1 7845   0.239   5.530   0.177 -3.1553  0.6546 -0.7499
 2613TIP3    H2 7846   0.262   5.651   0.090 -1.4438  0.3942 -0.7024
 2614TIP3   OH2 7847   5.274   1.089   1.160  0.3853 -0.2627 -0.5596
 2614TIP3    H1 7848   5.250   1.021   1.098  0.1925 -0.2450 -0.5031
 2614TIP3    H2 7849   5.361   1.118   1.131  0.6971 -0.8945 -0.2752
 2615TIP3   OH2 7850   3.139   2.772   4.005 -0.3215  0.3892  0.1916
 2615TIP3    H1 7851   3.109   2.830   4.075 -0.9189 -0.6201  0.7873
 2615TIP3    H2 7852   3.153   2.687   4.048  0.5403  0.0795 -0.6649
 2616TIP3   OH2 7853   5.533   5.988   5.101  0.0329 -0.0718  0.2222
 2616TIP3    H1 7854   5.600   6.034   5.049 -1.4636  1.5448 -0.3508
 2616TIP3    H2 7855   5.579   5.912   5.136  1.8431  0.2921 -1.1951
 2617TIP3   OH2 7856   2.041   4.942   0.981 -0.3017  0.5469 -0.0943
 2617TIP3    H1 7857   2.066   4.914   0.893  2.1271  0.3719  0.5925
 2617TIP3    H2 7858   2.074   5.031   0.989 -0.2957  0.4828  0.7170
 2618TIP3   OH2 7859   3.919   5.323   1.370  0.2542  0.5552 -0.0567
 2618TIP3    H1 7860   3.879   5.404   1.338  1.3062  0.3526 -2.0186
 2618TIP3    H2 7861   3.918   5.264   1.295 -0.1623 -1.1730  1.2248
 2619TIP3   OH2 7862   2.922   2.386   3.005 -0.1025  0.1904  0.2884
 2619TIP3    H1 7863   3.015   2.366   2.994 -0.1448 -0.2089  0.6298
 2619TIP3    H2 7864   2.908   2.465   2.953  0.6491  0.8249  1.0127
 2620TIP3   OH2 7865   0.810   1.327   0.243  0.5922  0.3864  0.2213
 2620TIP3    H1 7866   0.787   1.263   0.176 -1.6192 -1.2618  2.3850
 2620TIP3    H2 7867   0.821   1.409   0.195 -0.5358 -0.7817 -2.2017
 2621TIP3   OH2 7868   4.531   0.159   1.102 -0.3766 -0.3242 -0.0043
 2621TIP3    H1 7869   4.437   0.176   1.096  0.1019  2.6895 -0.6528
 2621TIP3    H2 7870   4.571   0.215   1.036  1.9489 -0.9553  0.7355
 2622TIP3   OH2 7871   5.157   2.726   0.981 -0.0727  0.3509 -0.1762
 2622TIP3    H1 7872   5.195   2.654   0.931 -0.1101 -0.0636  0.3809
 2622TIP3    H2 7873   5.145   2.796   0.917 -2.3023 -0.9449 -1.2721
 2623TIP3   OH2 7874   5.751   2.536   0.576  0.2186 -0.2846  0.0041
 2623TIP3    H1 7875   5.745   2.508   0.485 -1.4519 -0.8840  0.2595
 2623TIP3    H2 7876   5.840   2.570   0.585  0.3901 -0.1368 -1.8609
 2624TIP3   OH2 7877   5.326   4.384   4.007 -0.5051 -0.1219 -0.4412
 2624TIP3    H1 7878   5.273   4.344   4.075  0.8036 -0.8029  0.2064
 2624TIP3    H2 7879   5.414   4.348   4.019  0.2485  1.3491 -1.1507
 2625TIP3   OH2 7880   0.066   0.449   3.047  0.2070  0.7130 -0.1505
 2625TIP3    H1 7881  -0.010   0.395   3.023  0.6585  0.1611 -0.3488
 2625TIP3    H2 7882   0.055   0.464   3.141  0.2641 -0.0419 -0.0098
 2626TIP3   OH2 7883   5.443   4.441   4.962  0.1223  0.5749 -0.2854
 2626TIP3    H1 7884   5.445   4.361   4.911 -1.0830  0.9531 -0.9695
 2626TIP3    H2 7885   5.533   4.474   4.959  0.4920 -0.4211 -0.5029
 2627TIP3   OH2 7886   2.029   1.626   3.891  0.2791  0.0537  0.0627
 2627TIP3    H1 7887   2.014   1.539   3.852 -0.3582  0.0853  0.2163
 2627TIP3    H2 7888   2.113   1.654   3.856  0.5821 -0.7129  0.1575
 2628TIP3   OH2 7889   4.931   0.499   4.243 -0.0544  0.2308  0.3892
 2628TIP3    H1 7890   4.993   0.460   4.181  0.8795  0.2953  1.2505
 2628TIP3    H2 7891   4.962   0.589   4.254 -0.0129  0.1221  1.1919
 2629TIP3   OH2 7892   4.760   2.616   5.024 -0.4985 -0.1490 -0.1835
 2629TIP3    H1 7893   4.785   2.678   5.093 -3.0482  0.6478  0.1134
 2629TIP3    H2 7894   4.737   2.536   5.071  0.0121 -0.3824 -0.3254
 2630TIP3   OH2 7895   3.547   4.489   0.950 -0.1525  0.3236  0.3629
 2630TIP3    H1 7896   3.610   4.529   0.890  0.5938 -2.1888 -0.6532
 2630TIP3    H2 7897   3.467   4.480   0.898 -0.2107  0.1769  0.4785
 2631TIP3   OH2 7898   0.413   4.632   3.018 -0.4770  0.3353 -0.0192
 2631TIP3    H1 7899   0.500   4.624   3.058 -0.3169  0.2108 -0.3940
 2631TIP3    H2 7900   0.366   4.554   3.048  0.7908 -1.7495 -2.9291
 2632TIP3   OH2 7901   5.145   2.312   0.702 -0.0875  0.1706 -0.1979
 2632TIP3    H1 7902   5.107   2.331   0.616  1.8794 -0.6559 -1.3274
 2632TIP3    H2 7903   5.202   2.387   0.720 -0.7745  0.5143  0.5689
 2633TIP3   OH2 7904   4.756   2.811   0.200 -0.0411 -0.2143 -0.0806
 2633TIP3    H1 7905   4.814   2.829   0.126 -0.0553  0.1328 -0.0109
 2633TIP3    H2 7906   4.668   2.824   0.165 -0.0057  1.4807  0.3792
 2634TIP3   OH2 7907   1.577   1.496   2.403 -0.2550 -0.0653 -0.1368
 2634TIP3    H1 7908   1.563   1.438   2.329 -0.6653 -1.5905  1.0802
 2634TIP3    H2 7909   1.671   1.511   2.405 -0.0304 -1.4203  0.0442
 2635TIP3   OH2 7910   0.112   2.189   0.660  1.1894  0.2510 -0.3327
 2635TIP3    H1 7911   0.075   2.221   0.742  1.8355  1.5258 -0.5095
 2635TIP3    H2 7912   0.094   2.259   0.597  1.3955 -0.3613 -1.0851
 2636TIP3   OH2 7913   5.006   5.472   4.812 -0.7135  0.3327 -0.2162
 2636TIP3    H1 7914   5.097   5.498   4.802 -0.1913 -0.5006  1.8284
 2636TIP3    H2 7915   4.985   5.492   4.903 -2.5059  0.2712 -0.5750
 2637TIP3   OH2 7916   1.455   2.233   1.621  0.4498  0.5410 -0.4713
 2637TIP3    H1 7917   1.501   2.234   1.706 -0.7643 -0.5681  0.2398
 2637TIP3    H2 7918   1.481   2.315   1.579  0.3203  1.6125  1.4075
 2638TIP3   OH2 7919   2.505   4.298   1.555 -0.3059  0.6995 -0.4841
 2638TIP3    H1 7920   2.594   4.278   1.526 -0.0949  2.9214 -1.5647
 2638TIP3    H2 7921   2.515   4.375   1.610 -1.3326 -0.4524  1.4290
 2639TIP3   OH2 7922   2.734   5.734   2.582  0.0138  0.1169  0.0011
 2639TIP3    H1 7923   2.654   5.703   2.626  1.4009 -0.9320  1.9091
 2639TIP3    H2 7924   2.805   5.710   2.641  1.7910  0.9019 -1.7065
 2640TIP3   OH2 7925   2.957   4.663   3.782  0.0682  0.2450 -0.0002
 2640TIP3    H1 7926   2.962   4.678   3.687 -0.5256 -2.2932 -0.4940
 2640TIP3    H2 7927   2.882   4.716   3.810 -0.7461 -0.1898 -1.2551
 2641TIP3   OH2 7928   3.286   3.335   4.830  0.2931  0.7738 -0.1654
 2641TIP3    H1 7929   3.340   3.266   4.869 -0.9646  1.1121  2.4047
 2641TIP3    H2 7930   3.223   3.289   4.775 -0.2051 -0.1274  1.1225
 2642TIP3   OH2 7931   4.896   0.718   2.528  0.3402  0.3086  0.6079
 2642TIP3    H1 7932   4.814   0.758   2.557  0.4331  0.7967  0.2227
 2642TIP3    H2 7933   4.873   0.627   2.509 -0.8205  1.0509 -2.1755
 2643TIP3   OH2 7934   4.783   2.535   2.473 -0.3631 -0.2593  0.3706
 2643TIP3    H1 7935   4.787   2.444   2.446  0.4524 -0.4003  0.9268
 2643TIP3    H2 7936   4.838   2.581   2.409 -0.3056 -0.2476  0.4281
 2644TIP3   OH2 7937   0.313   3.176   3.429 -0.1681  0.1174 -0.2060
 2644TIP3    H1 7938   0.299   3.259   3.384  1.2371 -0.1663 -1.2144
 2644TIP3    H2 7939   0.381   3.196   3.494 -1.2992  0.2217  0.9940
 2645TIP3   OH2 7940   2.345   2.189   3.353  0.4117 -0.4607 -0.1386
 2645TIP3    H1 7941   2.400   2.267   3.365 -0.1800  0.1684 -1.3067
 2645TIP3    H2 7942   2.266   2.208   3.404  0.2150 -0.2284 -0.5235
 2646TIP3   OH2 7943   0.327   5.622   1.465 -0.6567  0.4913  0.0973
 2646TIP3    H1 7944   0.291   5.580   1.543 -0.7951 -0.5408 -0.4952
 2646TIP3    H2 7945   0.384   5.691   1.499 -0.6726  0.0275  1.1117
 2647TIP3   OH2 7946   0.205   2.251   2.064 -0.2308 -0.3118  0.3097
 2647TIP3    H1 7947   0.295   2.282   2.075 -0.9068  1.5236  1.0278
 2647TIP3    H2 7948   0.150   2.328   2.080 -1.9051 -1.0495 -1.4733
 2648TIP3   OH2 7949   3.199   5.988   1.565  0.8401 -0.3691  0.4667
 2648TIP3    H1 7950   3.117   5.939   1.558  0.5017 -0.7376  4.7533
 2648TIP3    H2 7951   3.268   5.923   1.553  0.5540 -0.3811 -1.3599
 2649TIP3   OH2 7952   6.127   2.193   1.860  0.0711 -0.0208 -0.1299
 2649TIP3    H1 7953   6.057   2.157   1.805  1.3162 -2.8040 -0.0704
 2649TIP3    H2 7954   6.176   2.251   1.803  0.2917 -1.5139 -1.5367
 2650TIP3   OH2 7955   0.387   3.932   1.541  0.4264 -0.2827 -0.4464
 2650TIP3    H1 7956   0.393   3.849   1.587 -1.0699  0.0087  0.3398
 2650TIP3    H2 7957   0.323   3.983   1.591  1.7038  1.5651 -0.5782
 2651TIP3   OH2 7958   2.273   5.553   0.993  0.0808  0.0177  0.0714
 2651TIP3    H1 7959   2.270   5.458   1.005  0.7157  0.1345  1.3461
 2651TIP3    H2 7960   2.308   5.587   1.076 -1.5900  1.5002  0.2359
 2652TIP3   OH2 7961   3.954   4.525   1.110 -0.1917  0.1969  0.0045
 2652TIP3    H1 7962   4.004   4.461   1.058  0.8932 -1.4766  2.8776
 2652TIP3    H2 7963   3.879   4.475   1.143  1.0835 -0.0001  2.9442
 2653TIP3   OH2 7964   3.081   1.060   0.123  0.2432  0.0494 -0.0671
 2653TIP3    H1 7965   3.014   1.022   0.065 -1.4400  1.5235  0.8048
 2653TIP3    H2 7966   3.034   1.127   0.172  1.7681 -0.6481  2.5010
 2654TIP3   OH2 7967   1.234   3.252   5.036  0.3281 -0.0472  0.4709
 2654TIP3    H1 7968   1.139   3.266   5.037  0.3560  0.1166  2.0795
 2654TIP3    H2 7969   1.271   3.339   5.020  0.2266 -0.2168 -0.8704
 2655TIP3   OH2 7970   4.511   4.849   3.371 -0.0852  0.0316  0.2471
 2655TIP3    H1 7971   4.505   4.900   3.290 -1.8367 -2.7384 -1.5521
 2655TIP3    H2 7972   4.477   4.908   3.438 -0.7984  1.6602 -1.4293
 2656TIP3   OH2 7973   1.545   5.677   1.994  0.8460 -0.7965  0.3294
 2656TIP3    H1 7974   1.538   5.599   2.049 -2.3624  0.5967  2.1490
 2656TIP3    H2 7975   1.550   5.750   2.056 -2.0209  0.8072 -1.1026
 2657TIP3   OH2 7976   0.893   4.076   2.027 -0.6324 -0.0270 -0.2195
 2657TIP3    H1 7977   0.837   4.039   2.094  1.1602 -3.3988 -0.3795
 2657TIP3    H2 7978   0.907   4.005   1.965  2.8595  0.9264 -0.7447
 2658TIP3   OH2 7979   2.065   3.035   1.832 -0.1386 -0.3251 -0.0781
 2658TIP3    H1 7980   2.138   3.075   1.785 -0.4318 -1.2255 -1.3653
 2658TIP3    H2 7981   2.071   2.942   1.811 -1.9995 -0.3495 -0.7151
 2659TIP3   OH2 7982   4.280   4.040   2.041 -0.0625  0.3521 -0.4717
 2659TIP3    H1 7983   4.272   3.958   2.090  0.5069  0.4652 -0.1898
 2659TIP3    H2 7984   4.192   4.078   2.044 -0.7092 -0.9023 -1.7750
 2660TIP3   OH2 7985   5.462   2.402   4.886 -0.0103 -0.5634  0.1019
 2660TIP3    H1 7986   5.374   2.371   4.908 -0.1402  0.9417  1.9894
 2660TIP3    H2 7987   5.452   2.495   4.868  1.2092 -0.2960  0.6513
 2661TIP3   OH2 7988   2.962   0.720   3.499 -0.2630  0.0614  0.3553
 2661TIP3    H1 7989   2.906   0.751   3.428 -0.8541  0.8140  1.1286
 2661TIP3    H2 7990   3.050   0.747   3.473 -0.1976 -1.2433 -0.9346
 2662TIP3   OH2 7991   6.169   2.024   0.080 -0.3050 -0.9226  0.6406
 2662TIP3    H1 7992   6.142   2.101   0.030 -0.2642 -1.7068 -0.6088
 2662TIP3    H2 7993   6.114   2.026   0.158 -1.5011 -0.5472 -0.1871
 2663TIP3   OH2 7994   3.536   1.121   4.724 -0.2049 -0.4435 -0.3723
 2663TIP3    H1 7995   3.582   1.168   4.654  2.5932 -0.9045  1.0409
 2663TIP3    H2 7996   3.572   1.033   4.722 -0.1047 -0.4891  1.5617
 2664TIP3   OH2 7997   6.038   3.586   4.241 -0.2498  0.5554 -0.1064
 2664TIP3    H1 7998   6.014   3.567   4.151  1.2894  0.9679 -0.6344
 2664TIP3    H2 7999   6.056   3.680   4.242 -0.0598  0.5205  0.5866
 2665TIP3   OH2 8000   3.366   5.782   2.483 -0.2022  0.6889  0.4757
 2665TIP3    H1 8001   3.423   5.855   2.459 -1.1817  1.3870  0.1764
 2665TIP3    H2 8002   3.379   5.717   2.414  2.1192 -0.3049  1.7428
 2666TIP3   OH2 8003   0.978   4.007   3.325  0.1218  0.2006 -0.1661
 2666TIP3    H1 8004   1.033   4.084   3.316  0.8317 -0.3059 -0.2672
 2666TIP3    H2 8005   1.037   3.933   3.308 -0.2468 -0.4320  1.1565
 2667TIP3   OH2 8006   3.356   1.475   3.833 -0.0732  0.3502  0.0097
 2667TIP3    H1 8007   3.448   1.489   3.808 -0.4836  1.9751 -0.7197
 2667TIP3    H2 8008   3.333   1.392   3.792 -0.0341  1.7988 -3.2334
 2668TIP3   OH2 8009   0.250   0.606   1.081 -0.1280  0.3209 -0.3668
 2668TIP3    H1 8010   0.223   0.693   1.052 -0.0081  0.4818 -0.0109
 2668TIP3    H2 8011   0.238   0.609   1.176 -1.5244 -0.5387 -0.4919
 2669TIP3   OH2 8012   4.931   3.341   1.844  0.1374 -0.1043  0.0613
 2669TIP3    H1 8013   4.990   3.274   1.811  0.6000  0.8023 -1.0374
 2669TIP3    H2 8014   4.930   3.329   1.939  1.8272 -0.3358  0.0650
 2670TIP3   OH2 8015   3.208   5.697   3.743 -0.7695 -0.4349 -0.4421
 2670TIP3    H1 8016   3.244   5.761   3.682  0.9582  0.6921  1.6266
 2670TIP3    H2 8017   3.270   5.624   3.740 -0.3888 -0.1523  0.3008
 2671TIP3   OH2 8018   2.795   4.071   3.779 -0.1727  0.0115  0.2762
 2671TIP3    H1 8019   2.883   4.109   3.776 -0.1016 -0.2177 -2.6573
 2671TIP3    H2 8020   2.810   3.979   3.800  0.4465 -0.3161 -1.4774
 2672TIP3   OH2 8021   1.375   1.612   1.503  0.5257 -0.3746  0.0564
 2672TIP3    H1 8022   1.442   1.546   1.522 -1.1475 -1.6822  1.9370
 2672TIP3    H2 8023   1.303   1.563   1.464  0.0560  0.7337 -0.5270
 2673TIP3   OH2 8024   4.794   3.345   2.592 -0.2871  0.2711 -0.0904
 2673TIP3    H1 8025   4.877   3.336   2.638 -1.7646 -1.3761  2.5016
 2673TIP3    H2 8026   4.739   3.396   2.651 -2.5602 -2.7004  0.6583
 2674TIP3   OH2 8027   4.316   1.791   3.919  0.4397  0.0055  0.3444
 2674TIP3    H1 8028   4.402   1.816   3.954  0.9275 -0.3287 -0.5902
 2674TIP3    H2 8029   4.268   1.761   3.996  1.3155 -0.2426  0.8181
 2675TIP3   OH2 8030   5.980   2.680   0.548 -0.2470  0.0396 -0.4542
 2675TIP3    H1 8031   5.964   2.724   0.632  1.5355  0.1251 -0.1119
 2675TIP3    H2 8032   6.075   2.681   0.539 -0.4174  0.1342 -2.5551
 2676TIP3   OH2 8033   0.056   3.244   3.040  0.7749 -0.5868  0.4574
 2676TIP3    H1 8034   0.124   3.257   2.974 -0.0927  0.4811 -0.2809
 2676TIP3    H2 8035   0.104   3.235   3.122  1.8394 -0.7351 -0.1573
 2677TIP3   OH2 8036   4.601   2.823   3.868 -0.0693 -0.5789 -0.0029
 2677TIP3    H1 8037   4.592   2.872   3.787  0.0783  0.1394  0.4064
 2677TIP3    H2 8038   4.530   2.854   3.924  2.1774  2.0478  1.6807
 2678TIP3   OH2 8039   3.516   2.710   1.231 -0.5609  0.3923  0.2167
 2678TIP3    H1 8040   3.509   2.623   1.191 -2.7833  1.3607 -1.7675
 2678TIP3    H2 8041   3.594   2.749   1.191 -0.2076 -0.2600  0.2569
 2679TIP3   OH2 8042   0.588   4.214   2.487 -0.2692 -0.0699 -0.6633
 2679TIP3    H1 8043   0.578   4.160   2.565 -0.6293 -1.0998 -1.3931
 2679TIP3    H2 8044   0.601   4.302   2.520 -1.1214 -0.3700  0.5518
 2680TIP3   OH2 8045   0.384   1.642   2.818  0.0051 -0.8110 -0.0349
 2680TIP3    H1 8046   0.352   1.667   2.732 -0.1487  1.3798  0.5947
 2680TIP3    H2 8047   0.450   1.575   2.801 -0.2833 -0.6819 -1.8065
 2681TIP3   OH2 8048   5.524   2.575   4.535  0.0594  0.2566  0.6416
 2681TIP3    H1 8049   5.525   2.637   4.608  0.3888  1.3970 -0.2978
 2681TIP3    H2 8050   5.434   2.579   4.502  0.4103  1.3077 -0.2678
 2682TIP3   OH2 8051   3.685   1.507   0.271 -0.2681  0.5413 -1.0189
 2682TIP3    H1 8052   3.760   1.542   0.223 -0.0778 -0.6757 -1.6201
 2682TIP3    H2 8053   3.636   1.585   0.297  0.6641  1.3087 -1.4815
 2683TIP3   OH2 8054   5.447   3.873   1.484  0.6069 -0.0905  0.5778
 2683TIP3    H1 8055   5.484   3.877   1.396 -1.2614  0.3687 -0.2389
 2683TIP3    H2 8056   5.355   3.852   1.470  0.9023 -3.6706  2.6083
 2684TIP3   OH2 8057   4.094   0.365   3.124  0.6732 -0.2029  0.3089
 2684TIP3    H1 8058   4.085   0.449   3.079 -1.6774  0.4366  1.7786
 2684TIP3    H2 8059   4.087   0.299   3.054 -0.2760  0.7749 -0.5480
 2685TIP3   OH2 8060   3.023   0.864   0.783  0.0385 -0.7093  0.6984
 2685TIP3    H1 8061   3.019   0.950   0.743  0.6537 -1.3167 -0.7470
 2685TIP3    H2 8062   2.970   0.871   0.863 -0.5635  0.7678  0.1882
 2686TIP3   OH2 8063   2.056   0.527   0.977 -0.5355 -0.0868  0.1017
 2686TIP3    H1 8064   2.089   0.585   0.909  0.4848 -2.1396 -1.2540
 2686TIP3    H2 8065   2.121   0.533   1.048 -2.1595  2.9081  1.5512
 2687TIP3   OH2 8066   3.880   2.187   4.148  0.2382 -0.1618 -0.3217
 2687TIP3    H1 8067   3.933   2.159   4.223  2.4037 -1.5970 -2.2535
 2687TIP3    H2 8068   3.836   2.107   4.120 -1.0146  0.4920 -0.3025
 2688TIP3   OH2 8069   4.153   5.439   2.211  0.1807 -0.3915  0.5339
 2688TIP3    H1 8070   4.159   5.535   2.206 -0.3664 -0.1748  2.9354
 2688TIP3    H2 8071   4.229   5.412   2.263 -1.1786 -0.9054  2.3718
 2689TIP3   OH2 8072   4.296   3.231   0.057  0.5848  0.5608  0.2114
 2689TIP3    H1 8073   4.353   3.292   0.009 -1.4621  0.7310 -2.1759
 2689TIP3    H2 8074   4.254   3.285   0.124 -1.1065  1.8699 -1.7885
 2690TIP3   OH2 8075   0.434   5.529   1.771  0.0533  0.0527 -0.9272
 2690TIP3    H1 8076   0.410   5.621   1.774  4.5698  1.4236  1.7790
 2690TIP3    H2 8077   0.391   5.490   1.847 -1.6781 -0.1596 -1.9513
 2691TIP3   OH2 8078   0.000   5.014   0.707  0.3830 -0.4106  0.1450
 2691TIP3    H1 8079   0.053   5.090   0.683  1.2771 -0.9434  0.3379
 2691TIP3    H2 8080  -0.049   5.042   0.784  1.7102 -0.4114  1.0323
 2692TIP3   OH2 8081   1.771   2.669   0.966 -0.0596  0.0312  0.2670
 2692TIP3    H1 8082   1.801   2.699   0.880 -0.0866 -0.7978 -0.0420
 2692TIP3    H2 8083   1.694   2.723   0.985  0.9382  1.4165  0.5639
 2693TIP3   OH2 8084   2.977   1.834   4.033  0.0729  0.0710  0.1920
 2693TIP3    H1 8085   3.035   1.760   4.016 -0.3709 -0.2265 -0.0730
 2693TIP3    H2 8086   2.899   1.795   4.074  0.5414  0.6065  1.6705
 2694TIP3   OH2 8087   5.873   1.595   5.125  0.1327  0.2513  0.0119
 2694TIP3    H1 8088   5.900   1.589   5.033 -0.8109  2.3014 -0.4670
 2694TIP3    H2 8089   5.928   1.665   5.161  0.9252 -0.9430  1.2213
 2695TIP3   OH2 8090   2.562   1.363   2.028 -0.0838 -0.5379 -0.0099
 2695TIP3    H1 8091   2.491   1.406   1.980 -0.3061 -0.5108  0.3416
 2695TIP3    H2 8092   2.599   1.300   1.965 -1.2676 -1.4957  0.2154
 2696TIP3   OH2 8093   0.500   4.631   1.979  0.3825  0.3021  0.0395
 2696TIP3    H1 8094   0.440   4.571   2.024 -0.3889  0.7103 -0.4120
 2696TIP3    H2 8095   0.468   4.718   2.002  1.2601  0.5452  0.3802
 2697TIP3   OH2 8096   0.262   5.115   0.831 -0.2943  0.3548  0.8361
 2697TIP3    H1 8097   0.208   5.148   0.903 -1.4062 -0.4400  0.3996
 2697TIP3    H2 8098   0.252   5.020   0.836  0.9040  0.2095  0.6013
 2698TIP3   OH2 8099   5.588   1.503   2.058  1.0571  0.6693 -1.0116
 2698TIP3    H1 8100   5.572   1.466   2.145  1.0007  0.6715 -1.0216
 2698TIP3    H2 8101   5.504   1.538   2.030  1.4118  2.0295 -0.4296
 2699TIP3   OH2 8102   3.951   3.651   4.232 -0.4648  0.0533  0.5194
 2699TIP3    H1 8103   4.003   3.679   4.308 -1.1198 -0.8628  1.3352
 2699TIP3    H2 8104   4.014   3.648   4.160  0.7564 -1.4905  1.5898
 2700TIP3   OH2 8105   3.370   5.246   2.988 -0.0140  0.2906  0.6193
 2700TIP3    H1 8106   3.379   5.329   3.034  0.7917  0.6855 -0.2278
 2700TIP3    H2 8107   3.346   5.270   2.899 -1.8364 -0.4750  0.8539
 2701TIP3   OH2 8108   2.199   2.035   0.710  0.4252  0.2517  0.4927
 2701TIP3    H1 8109   2.242   1.952   0.692  0.5579  0.4358 -0.0449
 2701TIP3    H2 8110   2.259   2.080   0.771 -0.6254 -0.8951  2.4778
 2702TIP3   OH2 8111   0.081   4.921   0.260  0.1975 -0.0194  0.0316
 2702TIP3    H1 8112   0.016   4.909   0.191  0.4641 -0.2947 -0.1793
 2702TIP3    H2 8113   0.030   4.938   0.339 -0.0867  1.8341 -0.5001
 2703TIP3   OH2 8114   5.778  -0.031   1.586  0.2410 -0.3913  0.0968
 2703TIP3    H1 8115   5.715   0.019   1.638  1.4276  1.1459  0.1412
 2703TIP3    H2 8116   5.786   0.019   1.505  0.3242 -1.3675 -0.4979
 2704TIP3   OH2 8117   5.526   4.389   4.473 -1.4583  0.0541 -0.1173
 2704TIP3    H1 8118   5.610   4.371   4.515 -0.2928  0.9887 -1.8957
 2704TIP3    H2 8119   5.462   4.339   4.523  0.0115  0.0522  1.8773
 2705TIP3   OH2 8120   6.144   0.055   4.775 -0.5116 -0.4730  0.0051
 2705TIP3    H1 8121   6.161   0.070   4.682 -0.7137 -0.6676 -0.0667
 2705TIP3    H2 8122   6.157  -0.040   4.785 -1.2039 -0.5726  0.0174
 2706TIP3   OH2 8123   1.083   1.969   5.183 -0.0874  0.2166 -0.1281
 2706TIP3    H1 8124   1.154   2.004   5.130  0.1312  0.3638  0.2544
 2706TIP3    H2 8125   1.057   1.888   5.139 -0.0912  0.4755 -0.6028
 2707TIP3   OH2 8126   0.353   1.320   4.014  0.3195 -0.0256  0.1684
 2707TIP3    H1 8127   0.307   1.246   4.053 -1.2551  1.0435  0.3911
 2707TIP3    H2 8128   0.420   1.343   4.079  0.7073 -1.0946  0.1800
 2708TIP3   OH2 8129   3.193   5.887   0.115  0.0870  0.0119 -0.3357
 2708TIP3    H1 8130   3.173   5.980   0.121 -0.4888 -0.1505  0.5111
 2708TIP3    H2 8131   3.109   5.846   0.094  0.6895 -0.1645 -2.6132
 2709TIP3   OH2 8132   1.715   0.949   1.513 -0.4468  0.4735 -0.2113
 2709TIP3    H1 8133   1.775   0.877   1.529  0.2877  1.2242  0.5188
 2709TIP3    H2 8134   1.638   0.908   1.475 -1.1530 -1.0563  2.6542
 2710TIP3   OH2 8135   1.501   5.870   1.769 -0.0063 -0.0318  0.0631
 2710TIP3    H1 8136   1.567   5.940   1.765  2.1679 -2.0075 -1.8443
 2710TIP3    H2 8137   1.509   5.834   1.857 -1.8545  2.6119  1.4332
 2711TIP3   OH2 8138   0.761   3.344   2.022  0.1416 -0.3929  0.6655
 2711TIP3    H1 8139   0.824   3.315   1.956  0.4139  0.6733  0.4374
 2711TIP3    H2 8140   0.675   3.323   1.985  0.2889  0.3056 -0.1004
 2712TIP3   OH2 8141   0.788   2.113   3.913 -0.3920 -0.0757 -0.1970
 2712TIP3    H1 8142   0.748   2.089   3.830 -0.2044  1.1063 -0.6612
 2712TIP3    H2 8143   0.723   2.170   3.956  0.6690  1.7646 -0.9074
 2713TIP3   OH2 8144   2.548   3.255   1.052  0.0928  0.0844  0.1741
 2713TIP3    H1 8145   2.568   3.348   1.046  0.3894  0.0473  0.5037
 2713TIP3    H2 8146   2.627   3.216   1.090  0.2165 -0.3950 -0.5534
 2714TIP3   OH2 8147   1.129   2.208   3.535 -0.6192  0.2302  0.5362
 2714TIP3    H1 8148   1.081   2.244   3.461 -0.8993  0.4891  0.8434
 2714TIP3    H2 8149   1.068   2.212   3.609 -0.4112 -0.2036  0.7414
 2715TIP3   OH2 8150   1.363   2.557   3.236  0.6541 -0.5758 -0.2689
 2715TIP3    H1 8151   1.382   2.639   3.282  0.3901 -0.9040  0.4454
 2715TIP3    H2 8152   1.318   2.584   3.156 -1.0491 -0.0940  0.7981
 2716TIP3   OH2 8153   3.553   4.243   3.945 -0.1367 -0.2668 -0.4986
 2716TIP3    H1 8154   3.626   4.211   3.998 -0.2363 -0.3721 -0.4233
 2716TIP3    H2 8155   3.512   4.311   3.999 -1.3275 -1.5966  0.3468
 2717TIP3   OH2 8156   6.026   5.115   2.720  0.3738  1.3585  0.0480
 2717TIP3    H1 8157   6.066   5.047   2.774 -1.1333  0.2726 -0.1472
 2717TIP3    H2 8158   6.030   5.194   2.774  0.1114  0.6036  1.2023
 2718TIP3   OH2 8159   4.044   3.260   1.735 -0.0468 -0.1066 -0.3669
 2718TIP3    H1 8160   3.950   3.274   1.729 -0.2708 -1.6968 -1.1976
 2718TIP3    H2 8161   4.054   3.190   1.800  0.5403 -0.1624 -0.5079
 2719TIP3   OH2 8162   1.608   2.035   1.207 -0.1155  0.4002 -0.1163
 2719TIP3    H1 8163   1.702   2.024   1.217  0.1909  2.4888 -0.1969
 2719TIP3    H2 8164   1.570   1.977   1.273  1.1201 -1.7092 -1.1493
 2720TIP3   OH2 8165   0.275   0.757   0.195  0.2345  0.0250  0.7242
 2720TIP3    H1 8166   0.297   0.811   0.270 -1.5589 -1.5983  2.5476
 2720TIP3    H2 8167   0.180   0.751   0.196  0.0361  0.7122 -2.3194
 2721TIP3   OH2 8168   5.489   4.706   0.611  0.5347  0.0916 -0.0341
 2721TIP3    H1 8169   5.555   4.775   0.615  2.3923 -1.3798 -2.5486
 2721TIP3    H2 8170   5.537   4.626   0.630 -0.9653 -0.8406 -0.0157
 2722TIP3   OH2 8171   0.994   2.165  -0.006  0.0564 -0.2245 -0.3922
 2722TIP3    H1 8172   0.927   2.099   0.012 -1.2066  1.5784  1.9720
 2722TIP3    H2 8173   1.070   2.137   0.045 -0.0633 -0.4742 -0.3523
 2723TIP3   OH2 8174   6.299   4.649   4.315 -0.0987  0.2031  0.5339
 2723TIP3    H1 8175   6.292   4.744   4.308  2.6299  0.4566  0.2873
 2723TIP3    H2 8176   6.220   4.616   4.272 -0.7227  2.3277 -0.0777
 2724TIP3   OH2 8177   2.089   2.694   2.381  0.0222  0.1484  0.3216
 2724TIP3    H1 8178   2.021   2.630   2.362 -1.6339  1.9600 -0.1512
 2724TIP3    H2 8179   2.162   2.670   2.323 -0.4025 -1.4990  0.4400
 2725TIP3   OH2 8180   0.238   0.091   4.839 -0.3836  0.1085  0.3770
 2725TIP3    H1 8181   0.193   0.042   4.770 -0.1902  0.7423 -0.2070
 2725TIP3    H2 8182   0.320   0.043   4.852  0.5774  1.1778 -1.3776
 2726TIP3   OH2 8183   0.532   1.351   4.218  0.0723  0.8313 -0.1926
 2726TIP3    H1 8184   0.480   1.377   4.295 -2.9552 -1.1388 -1.3783
 2726TIP3    H2 8185   0.566   1.264   4.240 -1.2888  0.0055 -1.1998
 2727TIP3   OH2 8186   5.735   3.096   0.740  0.4458  0.2588 -0.2355
 2727TIP3    H1 8187   5.755   3.092   0.833 -0.7395  0.9286  0.0755
 2727TIP3    H2 8188   5.786   3.170   0.707  1.8049 -0.7154 -0.3997
 2728TIP3   OH2 8189   3.099   3.227   2.775  0.4337  0.0843 -0.3589
 2728TIP3    H1 8190   3.105   3.251   2.682  0.8142 -1.2773 -0.7090
 2728TIP3    H2 8191   3.012   3.187   2.783  1.3020 -1.9877 -0.7047
 2729TIP3   OH2 8192   3.303   5.258   0.332  0.3747  0.5124 -0.2527
 2729TIP3    H1 8193   3.396   5.279   0.341  0.0173  1.3324  3.5208
 2729TIP3    H2 8194   3.297   5.165   0.354  0.2786  0.4822 -0.4027
 2730TIP3   OH2 8195   2.055   5.082   1.869  0.2638  0.3957 -0.1317
 2730TIP3    H1 8196   2.063   5.098   1.774  1.0832  1.0681  0.0351
 2730TIP3    H2 8197   2.088   5.163   1.909 -1.1851  0.5822  0.7261
 2731TIP3   OH2 8198   3.156   4.991   4.912 -0.1975 -0.4735 -0.1457
 2731TIP3    H1 8199   3.139   4.908   4.956  0.5875 -0.1388  0.8432
 2731TIP3    H2 8200   3.072   5.017   4.876 -0.2223 -2.2490 -1.4705
 2732TIP3   OH2 8201   4.624   2.464   4.474  0.4268 -0.3414 -0.0649
 2732TIP3    H1 8202   4.619   2.368   4.480  0.7103 -0.3772 -0.3685
 2732TIP3    H2 8203   4.712   2.486   4.505  0.8275 -0.2921 -1.1976
 2733TIP3   OH2 8204   3.859   5.283   0.411 -0.3436 -0.3917 -0.0102
 2733TIP3    H1 8205   3.917   5.215   0.379 -0.5089 -0.3877 -0.3206
 2733TIP3    H2 8206   3.856   5.348   0.341  1.6521  1.1009  1.1824
 2734TIP3   OH2 8207   5.563   4.394   0.971 -0.3371 -0.4237  0.5344
 2734TIP3    H1 8208   5.582   4.301   0.958  0.1650 -0.2530 -0.0212
 2734TIP3    H2 8209   5.507   4.417   0.897 -3.3114 -1.0464  2.4200
 2735TIP3   OH2 8210   4.022   0.369   0.445  0.0011  0.5853 -0.0619
 2735TIP3    H1 8211   4.064   0.419   0.375  0.7578  0.6205  0.4080
 2735TIP3    H2 8212   3.939   0.340   0.408 -0.2564  1.8298 -0.4882
 2736TIP3   OH2 8213   4.848   0.125   2.320  0.0220  0.3945 -0.9374
 2736TIP3    H1 8214   4.861   0.032   2.299  1.0043  0.3421 -0.1868
 2736TIP3    H2 8215   4.795   0.124   2.400  1.3587  0.3973 -0.0019
 2737TIP3   OH2 8216   2.975   0.730   4.202 -0.3649  0.1984  0.3772
 2737TIP3    H1 8217   3.070   0.738   4.198 -0.3172  0.3216  1.4321
 2737TIP3    H2 8218   2.958   0.658   4.262 -0.9457  0.1568  0.1799
 2738TIP3   OH2 8219   2.609   1.651   0.631  0.2110  0.0926 -0.1627
 2738TIP3    H1 8220   2.659   1.572   0.610  2.3629  0.2231  3.4950
 2738TIP3    H2 8221   2.674   1.722   0.630 -0.8853  1.1382  0.1446
 2739TIP3   OH2 8222   5.695   0.916   4.412 -0.2228 -0.1272  0.0222
 2739TIP3    H1 8223   5.622   0.946   4.465 -0.6166 -1.2609  0.1499
 2739TIP3    H2 8224   5.753   0.992   4.407 -0.5293  0.2436  1.4419
 2740TIP3   OH2 8225   0.393   4.706   4.972 -0.8347 -0.0028  0.4647
 2740TIP3    H1 8226   0.388   4.720   5.066  1.1917  1.4443  0.4226
 2740TIP3    H2 8227   0.309   4.736   4.938 -1.3215  0.1193  1.7433
 2741TIP3   OH2 8228   4.707   5.095   2.953  0.0340  0.5013 -0.4038
 2741TIP3    H1 8229   4.799   5.075   2.966 -0.0497 -0.1856 -0.7924
 2741TIP3    H2 8230   4.707   5.180   2.909  0.4725  0.5596 -0.2975
 2742TIP3   OH2 8231   0.852   5.271   0.223  0.0033 -0.1079 -0.2027
 2742TIP3    H1 8232   0.913   5.221   0.277 -0.0445 -0.4780 -0.4917
 2742TIP3    H2 8233   0.815   5.336   0.283 -0.7041 -1.0744  0.4448
 2743TIP3   OH2 8234   6.272   0.058   2.835  0.3080  0.1422  0.3605
 2743TIP3    H1 8235   6.283   0.137   2.888 -2.7606  0.3603  0.8752
 2743TIP3    H2 8236   6.239   0.091   2.751  0.9274 -0.4854 -0.1374
 2744TIP3   OH2 8237   2.581   4.228   3.809  0.0314  0.1166 -0.5805
 2744TIP3    H1 8238   2.573   4.234   3.905  1.2025  2.1541 -0.5377
 2744TIP3    H2 8239   2.654   4.167   3.795 -0.5959 -0.7328 -0.2171
 2745TIP3   OH2 8240   2.853   3.119   2.772 -0.0255 -0.4929 -0.1167
 2745TIP3    H1 8241   2.856   3.082   2.684  0.6126  0.6139 -0.5913
 2745TIP3    H2 8242   2.802   3.200   2.762  0.4249 -0.1344  0.4400
 2746TIP3   OH2 8243   1.285   2.454   3.627  0.0115  0.1416  0.5998
 2746TIP3    H1 8244   1.249   2.532   3.670 -0.1636  0.3202  0.1354
 2746TIP3    H2 8245   1.209   2.399   3.609 -0.1300  0.7830 -0.9164
 2747TIP3   OH2 8246   0.769   1.727   3.005 -0.2833 -0.8408 -0.9308
 2747TIP3    H1 8247   0.835   1.773   3.056 -0.4753  2.2309 -3.1702
 2747TIP3    H2 8248   0.707   1.693   3.070  0.1271  1.7728  0.9633
 2748TIP3   OH2 8249   5.447   5.794   3.437 -0.2207 -0.2470 -0.4715
 2748TIP3    H1 8250   5.507   5.724   3.412  0.6697 -0.2589  1.5803
 2748TIP3    H2 8251   5.500   5.873   3.436 -0.5593 -0.0119 -0.1482
 2749TIP3   OH2 8252   1.616   4.828   0.596  0.6358  0.0851 -0.5118
 2749TIP3    H1 8253   1.650   4.744   0.565 -0.2535 -0.3556 -0.3514
 2749TIP3    H2 8254   1.521   4.821   0.581  0.4596  0.7258  0.2770
 2750TIP3   OH2 8255   3.719   2.875   4.946 -0.8064 -0.1231 -0.3660
 2750TIP3    H1 8256   3.790   2.815   4.923 -1.3602 -0.5309 -1.0495
 2750TIP3    H2 8257   3.647   2.849   4.889 -1.3984  0.5018  0.0916
 2751TIP3   OH2 8258   5.048   3.180   3.970  0.2780 -0.1486  0.0256
 2751TIP3    H1 8259   4.996   3.114   3.923  0.3448 -0.3849  0.2840
 2751TIP3    H2 8260   5.125   3.132   4.002 -0.9843 -0.6069  2.6035
 2752TIP3   OH2 8261   2.450   3.714   0.222  0.1097 -0.1972 -0.3544
 2752TIP3    H1 8262   2.493   3.642   0.175  2.9027 -0.1802  1.8700
 2752TIP3    H2 8263   2.455   3.688   0.315 -0.5555  1.9919  0.3546
 2753TIP3   OH2 8264   2.261   0.004   5.056  0.4221  0.4674 -0.3079
 2753TIP3    H1 8265   2.326   0.069   5.029  0.2288  0.6035 -0.4502
 2753TIP3    H2 8266   2.194   0.054   5.101  0.4892  0.3059 -0.0285
 2754TIP3   OH2 8267   2.683   5.923   3.198  0.8057 -0.1878 -0.6667
 2754TIP3    H1 8268   2.723   5.836   3.203  0.4886 -0.3310 -0.6248
 2754TIP3    H2 8269   2.756   5.984   3.210  0.9811 -0.4520 -0.3920
 2755TIP3   OH2 8270   4.128   4.321   3.272  0.0541 -0.3417  0.2164
 2755TIP3    H1 8271   4.172   4.387   3.217 -0.6427  0.3618  0.4743
 2755TIP3    H2 8272   4.155   4.343   3.361  1.3422 -1.6064  0.1665
 2756TIP3   OH2 8273   1.525   5.905   4.260 -0.1091 -0.4021  0.3415
 2756TIP3    H1 8274   1.504   5.877   4.171  1.5514 -0.6773  0.0072
 2756TIP3    H2 8275   1.570   5.830   4.299  0.6705  0.3007  0.8341
 2757TIP3   OH2 8276   2.772   4.214   1.481  0.0219 -0.0482  0.5341
 2757TIP3    H1 8277   2.841   4.149   1.484 -0.3620 -0.4979 -0.0868
 2757TIP3    H2 8278   2.788   4.264   1.401  1.8824  2.4302  2.3024
 2758TIP3   OH2 8279   0.860   3.184   0.570  0.5139 -0.8606  0.5810
 2758TIP3    H1 8280   0.803   3.193   0.493  2.0916 -0.3548 -0.5927
 2758TIP3    H2 8281   0.800   3.170   0.643 -1.4062  3.0101  0.0045
 2759TIP3   OH2 8282   1.153   5.566   1.090  0.3992 -0.4758  0.2523
 2759TIP3    H1 8283   1.126   5.477   1.109 -0.4102 -0.3055 -0.1012
 2759TIP3    H2 8284   1.180   5.565   0.999  0.0647 -0.2835  0.1494
 2760TIP3   OH2 8285   5.426   0.957   3.332 -0.3687  0.1024  0.0232
 2760TIP3    H1 8286   5.374   0.922   3.260 -0.5888 -0.4730  0.4494
 2760TIP3    H2 8287   5.363   0.971   3.403 -0.3203  1.6027 -0.2138
 2761TIP3   OH2 8288   4.359   1.345   4.876  0.2604 -0.4462 -0.0107
 2761TIP3    H1 8289   4.325   1.355   4.787  0.9173 -0.4435 -0.2716
 2761TIP3    H2 8290   4.285   1.315   4.927 -0.5570  1.0873 -0.2254
 2762TIP3   OH2 8291   3.093   2.832   2.764 -0.5829 -0.5639 -0.0283
 2762TIP3    H1 8292   3.037   2.776   2.710 -1.9939  1.0874 -0.3971
 2762TIP3    H2 8293   3.153   2.873   2.701 -0.9537 -0.0967 -0.0871
 2763TIP3   OH2 8294   0.913   5.738   3.051 -0.0703  0.1288 -0.8398
 2763TIP3    H1 8295   0.967   5.729   2.972 -0.8997  2.8901 -1.8506
 2763TIP3    H2 8296   0.845   5.671   3.041  1.5837 -1.6250 -0.8528
 2764TIP3   OH2 8297   5.401   1.556   0.564 -0.5807 -0.2559 -0.0558
 2764TIP3    H1 8298   5.399   1.549   0.469 -1.1212 -1.6636  0.0293
 2764TIP3    H2 8299   5.311   1.577   0.589  0.0029  2.3961  0.0450
 2765TIP3   OH2 8300   1.284   1.632   4.941  0.8673 -0.0433  0.6453
 2765TIP3    H1 8301   1.275   1.715   4.894  2.0853  0.9895  2.1368
 2765TIP3    H2 8302   1.233   1.570   4.889  3.5948  0.4905 -3.1528
 2766TIP3   OH2 8303   4.535   2.310   1.394 -0.2544  0.0949 -0.1720
 2766TIP3    H1 8304   4.570   2.388   1.349 -1.1209  0.0643 -0.9193
 2766TIP3    H2 8305   4.440   2.315   1.381 -0.5828  0.2371  1.9213
 2767TIP3   OH2 8306   2.452   4.535   4.149  0.4340 -0.3197 -0.0495
 2767TIP3    H1 8307   2.480   4.538   4.241  0.2153 -0.4442  0.0238
 2767TIP3    H2 8308   2.533   4.534   4.099  0.5746  1.4326  0.0762
 2768TIP3   OH2 8309   0.511   2.356   4.009  0.4113 -0.5018  0.2521
 2768TIP3    H1 8310   0.515   2.412   3.931  1.4055 -0.4813  0.3040
 2768TIP3    H2 8311   0.529   2.416   4.082 -3.4503  0.1321  0.8934
 2769TIP3   OH2 8312   2.539   5.324   2.607  0.1562 -0.4168  0.0873
 2769TIP3    H1 8313   2.498   5.237   2.617 -0.1443 -0.5138 -1.7151
 2769TIP3    H2 8314   2.467   5.380   2.578  0.8285 -0.0952 -0.9926
 2770TIP3   OH2 8315   5.796   3.199   1.726  0.4934 -0.2628  0.0004
 2770TIP3    H1 8316   5.792   3.283   1.771  1.1855 -0.8667  1.2351
 2770TIP3    H2 8317   5.713   3.193   1.679  0.5867  1.2760 -0.4389
 2771TIP3   OH2 8318   5.854   3.586   1.002  0.2662 -0.2790 -0.0062
 2771TIP3    H1 8319   5.945   3.609   1.020  0.9498  0.0249 -3.2352
 2771TIP3    H2 8320   5.849   3.492   1.019  1.6546 -0.6105 -1.2753
 2772TIP3   OH2 8321   0.201   4.454   0.451  0.3939  0.1606 -0.1516
 2772TIP3    H1 8322   0.139   4.392   0.490 -0.9217  0.5837 -1.4623
 2772TIP3    H2 8323   0.284   4.436   0.495 -0.6342 -0.4676  1.6234
 2773TIP3   OH2 8324   1.331   2.496   4.224  0.1639  0.0668  0.1816
 2773TIP3    H1 8325   1.298   2.419   4.269  0.7154 -0.1169  0.2827
 2773TIP3    H2 8326   1.420   2.473   4.198 -0.8022 -0.6176 -2.9019
 2774TIP3   OH2 8327   6.114   0.702   3.258 -0.1700 -0.1815  0.0037
 2774TIP3    H1 8328   6.090   0.615   3.226 -3.4966  0.8592 -0.7407
 2774TIP3    H2 8329   6.046   0.724   3.322  0.2554  2.0807 -0.2381
 2775TIP3   OH2 8330   5.103   5.940   2.851 -0.4287 -0.6356  0.4517
 2775TIP3    H1 8331   5.148   5.993   2.916 -0.4108  0.3641 -0.3492
 2775TIP3    H2 8332   5.015   5.926   2.888 -0.0070 -1.2186  1.2743
 2776TIP3   OH2 8333   4.738   0.092   2.563  0.1596  0.0675 -0.2605
 2776TIP3    H1 8334   4.826   0.105   2.599  0.0196  2.6298 -0.6383
 2776TIP3    H2 8335   4.679   0.115   2.635 -0.1366  2.0479 -1.0893
 2777TIP3   OH2 8336   0.620   4.340   1.917 -0.8306  0.2203 -0.4888
 2777TIP3    H1 8337   0.578   4.425   1.930 -1.8731 -0.3599  0.0342
 2777TIP3    H2 8338   0.634   4.305   2.005 -1.0392 -0.4402 -0.7075
 2778TIP3   OH2 8339   0.936   5.503   1.614  0.1893 -0.9032 -0.7792
 2778TIP3    H1 8340   0.977   5.572   1.667  1.5380 -1.4189 -1.1182
 2778TIP3    H2 8341   0.885   5.452   1.677 -1.1532  0.5849 -0.5787
 2779TIP3   OH2 8342   2.943   4.327   4.634  0.4545  0.5179  0.4692
 2779TIP3    H1 8343   2.968   4.242   4.670  0.2485  0.2736  0.0460
 2779TIP3    H2 8344   2.897   4.306   4.553  0.7056  1.0510  0.1838
 2780TIP3   OH2 8345   2.721   4.113   2.259 -0.3088  0.4554 -0.0644
 2780TIP3    H1 8346   2.804   4.159   2.258  0.5137 -0.9742  0.2561
 2780TIP3    H2 8347   2.695   4.113   2.351  0.4689 -1.0100  0.1861
 2781TIP3   OH2 8348   2.500   0.771   3.705 -0.4484  0.1116 -0.3094
 2781TIP3    H1 8349   2.594   0.756   3.696 -0.5153 -1.7975  1.4688
 2781TIP3    H2 8350   2.463   0.685   3.723 -2.2123  1.1520  1.4684
 2782TIP3   OH2 8351   4.228   0.037   3.230 -0.4211 -0.3211  0.5603
 2782TIP3    H1 8352   4.144   0.075   3.254 -0.7695 -1.4190  1.1356
 2782TIP3    H2 8353   4.247   0.072   3.143 -1.3318  0.1466  0.5441
 2783TIP3   OH2 8354   1.661   4.470   5.034 -0.1836 -0.3311  0.4099
 2783TIP3    H1 8355   1.578   4.482   4.988 -0.4714 -1.7383  0.5226
 2783TIP3    H2 8356   1.642   4.494   5.125 -0.3100 -0.1284  0.3326
 2784TIP3   OH2 8357   5.614   4.085   0.042 -0.4064  0.1135 -0.0460
 2784TIP3    H1 8358   5.566   4.162   0.072  0.5304  1.2942 -1.4407
 2784TIP3    H2 8359   5.564   4.053  -0.033 -0.9986 -0.9047  0.7512
 2785TIP3   OH2 8360   3.046   5.542   0.835  0.2246  0.6433  0.2068
 2785TIP3    H1 8361   3.079   5.620   0.791  0.8420 -0.0198 -0.5247
 2785TIP3    H2 8362   3.054   5.472   0.770  1.6955 -0.4941  1.5367
 2786TIP3   OH2 8363   1.978   4.526   0.285  0.1489  0.2641  0.4265
 2786TIP3    H1 8364   1.921   4.476   0.226  1.3975 -0.9047  0.1584
 2786TIP3    H2 8365   2.014   4.459   0.344 -0.1568  1.2420  1.7581
 2787TIP3   OH2 8366   0.315   1.683   1.737 -0.5086 -0.0422 -0.6281
 2787TIP3    H1 8367   0.371   1.669   1.814 -0.0526  0.2171 -0.9057
 2787TIP3    H2 8368   0.300   1.778   1.736 -2.1195 -0.2642  0.2387
 2788TIP3   OH2 8369   0.960   2.802   1.380  0.4631 -0.2223  0.0261
 2788TIP3    H1 8370   0.896   2.804   1.452 -0.1923  0.6815 -0.5487
 2788TIP3    H2 8371   0.950   2.715   1.342 -0.6971  0.0140 -0.2692
 2789TIP3   OH2 8372   2.623   1.022   1.157  0.2463  0.5720 -0.5110
 2789TIP3    H1 8373   2.580   0.937   1.152  1.0761  0.2109 -1.8668
 2789TIP3    H2 8374   2.552   1.083   1.179 -0.2142 -0.5513  1.3470
 2790TIP3   OH2 8375   0.888   5.780   4.041  0.8373  0.0667  0.1202
 2790TIP3    H1 8376   0.904   5.817   4.127  0.6410  1.4653 -0.4216
 2790TIP3    H2 8377   0.799   5.744   4.046  0.6768  0.5011  0.3787
 2791TIP3   OH2 8378   2.560   4.697   4.596  0.3955  0.2163  0.3045
 2791TIP3    H1 8379   2.533   4.788   4.586  1.0613  0.5357  1.2565
 2791TIP3    H2 8380   2.646   4.702   4.637 -0.1909 -0.8529  1.7531
 2792TIP3   OH2 8381   2.130   4.412   1.179  0.0566  0.1418 -0.6517
 2792TIP3    H1 8382   2.173   4.468   1.114  1.6316 -1.9992 -1.5666
 2792TIP3    H2 8383   2.179   4.429   1.260  0.5737  0.0564 -0.9398
 2793TIP3   OH2 8384   3.977   4.183   2.597  0.6290 -0.0474  0.2746
 2793TIP3    H1 8385   4.035   4.108   2.610  0.8101  0.2041  0.9483
 2793TIP3    H2 8386   4.003   4.246   2.664 -0.1683  0.2264  0.3463
 2794TIP3   OH2 8387   2.575   0.621   1.407  0.0249  0.7021 -0.2530
 2794TIP3    H1 8388   2.542   0.536   1.379  0.2182  0.2407  0.8830
 2794TIP3    H2 8389   2.555   0.626   1.500  1.0776  1.3839 -0.0363
 2795TIP3   OH2 8390   2.983   4.223   3.046 -0.2239 -0.1935 -0.0586
 2795TIP3    H1 8391   3.023   4.137   3.061  0.8472  0.0442 -1.3553
 2795TIP3    H2 8392   2.938   4.214   2.962 -2.9291 -0.4259  1.3179
 2796TIP3   OH2 8393   4.235   4.898   4.706 -0.7965  0.0219  0.3588
 2796TIP3    H1 8394   4.162   4.942   4.750 -2.9688 -2.7943 -0.1369
 2796TIP3    H2 8395   4.202   4.879   4.619  1.0135 -0.3347 -0.2868
 2797TIP3   OH2 8396   4.335   1.614   0.246 -0.1854  0.1259  0.1744
 2797TIP3    H1 8397   4.309   1.639   0.157  2.3769  0.3621 -0.5695
 2797TIP3    H2 8398   4.314   1.691   0.299 -1.2691  0.1665 -0.2791
 2798TIP3   OH2 8399   1.846   3.241   2.273  0.2051  0.2081  0.4759
 2798TIP3    H1 8400   1.816   3.279   2.191 -0.6277  0.1965  0.7689
 2798TIP3    H2 8401   1.901   3.167   2.246 -0.1112  0.1639 -0.0707
 2799TIP3   OH2 8402   3.375   0.077   3.642  0.7555 -0.1404 -1.2062
 2799TIP3    H1 8403   3.347   0.063   3.551 -0.3886  1.4079 -1.1188
 2799TIP3    H2 8404   3.340   0.163   3.665  2.2396  0.1139  0.2535
 2800TIP3   OH2 8405   1.309   4.964   4.297 -0.0394 -0.3310 -0.2390
 2800TIP3    H1 8406   1.390   4.914   4.292  0.8316  0.9357  0.8314
 2800TIP3    H2 8407   1.313   5.010   4.381 -2.6944 -1.6120  0.7267
 2801TIP3   OH2 8408   2.986   3.426   1.429 -0.6972  0.5930  0.1690
 2801TIP3    H1 8409   2.956   3.508   1.390  0.6427  0.3224 -1.5635
 2801TIP3    H2 8410   2.910   3.368   1.422 -0.8232  0.8656 -1.1747
 2802TIP3   OH2 8411   4.935   0.737   3.449  0.1159 -0.0352 -0.0033
 2802TIP3    H1 8412   5.013   0.716   3.501 -1.0285  0.6411  2.1366
 2802TIP3    H2 8413   4.937   0.675   3.376  1.5358 -1.4207  1.1385
 2803TIP3   OH2 8414   5.690   1.652   1.365  0.1795 -0.2281  0.0935
 2803TIP3    H1 8415   5.637   1.592   1.417  0.5084 -0.7922 -0.2121
 2803TIP3    H2 8416   5.780   1.619   1.376  0.2082 -0.6004 -1.1463
 2804TIP3   OH2 8417   1.082   4.536   5.014  0.1901  0.2007  0.4655
 2804TIP3    H1 8418   1.141   4.487   5.073  1.9993 -1.7814 -2.7019
 2804TIP3    H2 8419   1.129   4.618   4.997  0.4623  0.0561  0.5030
 2805TIP3   OH2 8420   4.568   1.445   3.327 -0.3800  0.4332 -0.2654
 2805TIP3    H1 8421   4.567   1.355   3.295 -2.3644  0.4223 -0.3257
 2805TIP3    H2 8422   4.629   1.491   3.270  1.5191 -1.0561  0.4401
 2806TIP3   OH2 8423   4.421   1.010   3.396 -0.2483  0.6779 -0.1230
 2806TIP3    H1 8424   4.334   0.980   3.423 -0.6290  1.0349 -0.9205
 2806TIP3    H2 8425   4.459   1.048   3.475 -0.8384  0.5558  0.2201
 2807TIP3   OH2 8426   4.628   2.347   0.807 -0.7155  0.2028 -0.0219
 2807TIP3    H1 8427   4.693   2.315   0.744  0.4156  0.6435  0.8833
 2807TIP3    H2 8428   4.555   2.285   0.800  1.2127 -2.4240  1.3872
 2808TIP3   OH2 8429   0.956   4.905   2.155 -0.1968  0.1630  0.6134
 2808TIP3    H1 8430   0.972   4.877   2.065  0.0844  1.6915  0.1733
 2808TIP3    H2 8431   0.944   4.999   2.150  1.1836  0.4787  2.3741
 2809TIP3   OH2 8432   5.032   5.519   2.795  0.5449  0.2064  0.5132
 2809TIP3    H1 8433   5.087   5.486   2.866  1.6374  1.4503  0.2725
 2809TIP3    H2 8434   5.093   5.560   2.734 -0.4947  0.1698 -0.5817
 2810TIP3   OH2 8435   5.031   4.953   4.170 -0.3824 -0.6120  0.1395
 2810TIP3    H1 8436   4.949   4.944   4.218 -0.6499 -0.3070 -0.2441
 2810TIP3    H2 8437   5.099   4.925   4.231 -0.6978 -0.0649  0.7457
 2811TIP3   OH2 8438   1.314   3.389   3.847  0.0440  0.4473  0.9126
 2811TIP3    H1 8439   1.273   3.453   3.906 -0.5004 -0.6717  1.7815
 2811TIP3    H2 8440   1.241   3.353   3.797  0.4946  1.3198 -0.4201
 2812TIP3   OH2 8441   3.159   0.065   0.978 -0.1819 -0.3080  0.3164
 2812TIP3    H1 8442   3.070   0.044   0.950 -0.0931 -1.4246  0.8240
 2812TIP3    H2 8443   3.147   0.109   1.062 -0.4637  3.2714 -1.4098
 2813TIP3   OH2 8444   3.039   0.714   1.282  0.2450  0.6355 -0.0368
 2813TIP3    H1 8445   3.063   0.671   1.364 -0.3109  0.4709  0.0454
 2813TIP3    H2 8446   3.002   0.644   1.227  3.3248  0.0844 -1.6165
 2814TIP3   OH2 8447   5.772   1.822   1.926 -0.2727 -0.6144  0.2137
 2814TIP3    H1 8448   5.698   1.868   1.965  0.0903 -0.7202  1.0465
 2814TIP3    H2 8449   5.765   1.732   1.958 -1.4706 -1.4346 -2.0841
 2815TIP3   OH2 8450   1.304   4.589   1.250  0.1988  0.4603 -0.6597
 2815TIP3    H1 8451   1.280   4.658   1.311  0.9725  0.2036 -0.0356
 2815TIP3    H2 8452   1.326   4.514   1.306  0.5549  0.0986 -1.2623
 2816TIP3   OH2 8453   3.607   1.752   0.266  0.3350  0.1811 -0.0542
 2816TIP3    H1 8454   3.580   1.753   0.174 -0.2240  0.1636  0.1061
 2816TIP3    H2 8455   3.644   1.840   0.281 -1.5851  0.9686  0.2818
 2817TIP3   OH2 8456   1.860   0.132   2.071  0.0534  0.4330 -0.8776
 2817TIP3    H1 8457   1.830   0.043   2.054  1.5365 -0.4539  0.8021
 2817TIP3    H2 8458   1.894   0.162   1.986 -2.2257  0.1936 -1.9439
 2818TIP3   OH2 8459   1.055   0.742   2.713 -0.1434 -0.0100 -0.4008
 2818TIP3    H1 8460   1.007   0.773   2.789 -0.0541 -0.4331 -0.1657
 2818TIP3    H2 8461   1.036   0.806   2.644 -0.7611  0.0188 -0.2139
 2819TIP3   OH2 8462   6.016   5.286   0.315 -0.3826 -0.2776  0.3719
 2819TIP3    H1 8463   6.112   5.286   0.307 -0.4318 -1.1711 -0.4093
 2819TIP3    H2 8464   5.997   5.356   0.378  0.6160  1.9934 -1.6730
 2820TIP3   OH2 8465   4.728   1.588   3.157  0.4778 -0.0807 -0.0643
 2820TIP3    H1 8466   4.748   1.550   3.071  3.2017 -0.1108  0.4862
 2820TIP3    H2 8467   4.745   1.681   3.146 -0.0986  0.0615  0.2158
 2821TIP3   OH2 8468   4.630   4.563   4.680  0.2479 -0.3555  0.0637
 2821TIP3    H1 8469   4.561   4.614   4.723 -0.9121 -2.9645  1.5574
 2821TIP3    H2 8470   4.595   4.544   4.593 -0.6672 -1.1454  0.5937
 2822TIP3   OH2 8471   5.960   5.373   1.252  0.1875 -0.0011  0.0163
 2822TIP3    H1 8472   5.930   5.357   1.163  0.6387 -0.4375 -0.0560
 2822TIP3    H2 8473   5.884   5.352   1.307  0.4033 -1.2657 -0.1534
 2823TIP3   OH2 8474   2.644   2.748   1.132  0.5011 -0.2816 -0.6072
 2823TIP3    H1 8475   2.636   2.835   1.172 -0.6433 -0.1489 -1.0918
 2823TIP3    H2 8476   2.738   2.739   1.113  0.7018  0.6522 -0.1460
 2824TIP3   OH2 8477   0.667   5.557   3.092 -0.0082  0.6017  0.7303
 2824TIP3    H1 8478   0.654   5.467   3.122 -0.3011  0.6348  0.7060
 2824TIP3    H2 8479   0.578   5.592   3.084  0.1494  1.3955  2.2434
 2825TIP3   OH2 8480   4.926   5.213   4.833 -0.2855  0.6422 -0.4324
 2825TIP3    H1 8481   4.962   5.283   4.779 -1.0027  0.7929 -0.7252
 2825TIP3    H2 8482   4.885   5.258   4.907 -0.5998  0.5238 -0.5331
 2826TIP3   OH2 8483   2.723   1.511   4.033  0.0106 -0.4632  0.0893
 2826TIP3    H1 8484   2.761   1.577   4.091  1.3993 -1.0935 -0.0670
 2826TIP3    H2 8485   2.788   1.499   3.963 -1.5513  0.1777 -1.5567
 2827TIP3   OH2 8486   0.438   2.526   1.096  0.5366 -0.1008  0.1135
 2827TIP3    H1 8487   0.346   2.550   1.105  0.5584  0.4016 -0.8301
 2827TIP3    H2 8488   0.463   2.561   1.010  1.4427 -0.7525  0.0976
 2828TIP3   OH2 8489   0.359   2.449   2.746  0.2256  0.5859 -0.4107
 2828TIP3    H1 8490   0.354   2.407   2.832  0.3843  2.1891  0.4102
 2828TIP3    H2 8491   0.290   2.406   2.695  1.1514 -1.4935 -0.0287
 2829TIP3   OH2 8492   5.558   4.827   2.703  0.3105  0.5174 -0.4344
 2829TIP3    H1 8493   5.578   4.921   2.705  1.9532  0.2209 -1.2019
 2829TIP3    H2 8494   5.529   4.807   2.792  0.5600  1.6153 -0.0870
 2830TIP3   OH2 8495   5.906   5.986   3.150 -0.3390 -0.2486 -0.6096
 2830TIP3    H1 8496   5.853   5.907   3.139 -1.5081  0.3754  0.2816
 2830TIP3    H2 8497   5.890   6.037   3.071 -1.1577 -0.0306 -0.3127
 2831TIP3   OH2 8498   1.144   1.940   0.974  0.2997 -0.0006  0.6428
 2831TIP3    H1 8499   1.169   1.933   1.066  0.9337  1.0055  0.5656
 2831TIP3    H2 8500   1.051   1.916   0.972  0.4566 -0.7097  1.4290
 2832TIP3   OH2 8501   1.154   5.433   4.112  0.4267 -0.0434  0.1471
 2832TIP3    H1 8502   1.138   5.422   4.205  0.4983 -0.0627  0.1571
 2832TIP3    H2 8503   1.233   5.381   4.095 -0.1946 -0.9408 -0.1271
 2833TIP3   OH2 8504   3.936   5.757   2.261  0.2560  0.1385  0.3196
 2833TIP3    H1 8505   3.867   5.729   2.321 -1.6437  1.7461 -0.9947
 2833TIP3    H2 8506   3.920   5.706   2.181 -0.1452  1.3208 -0.3743
 2834TIP3   OH2 8507   0.911   1.353   2.589 -0.0889  0.1883 -0.3316
 2834TIP3    H1 8508   0.979   1.418   2.609  0.3654 -0.5584  0.6635
 2834TIP3    H2 8509   0.952   1.294   2.526 -0.0428  0.1219 -0.2401
 2835TIP3   OH2 8510   3.896   3.917   0.308 -0.0270  0.6066  0.4175
 2835TIP3    H1 8511   3.810   3.959   0.310 -0.6035 -0.4985  0.0309
 2835TIP3    H2 8512   3.938   3.943   0.390 -1.3275 -0.0128  1.3184
 2836TIP3   OH2 8513   4.264   0.143   1.120 -0.0999  0.0279  0.3477
 2836TIP3    H1 8514   4.276   0.094   1.039 -2.9819  0.3631 -0.3828
 2836TIP3    H2 8515   4.210   0.086   1.176 -1.5891  1.3709  0.3668
 2837TIP3   OH2 8516   2.639   5.224   4.603  0.5046  0.9646  0.1123
 2837TIP3    H1 8517   2.610   5.133   4.609  0.9703  0.6177 -2.0402
 2837TIP3    H2 8518   2.592   5.269   4.673 -0.1790 -0.8100  0.8513
 2838TIP3   OH2 8519   1.871   4.598   2.798  0.3372 -0.1908 -0.8996
 2838TIP3    H1 8520   1.807   4.528   2.808 -3.2277  3.0336  1.9168
 2838TIP3    H2 8521   1.901   4.616   2.887  1.6261  1.4529 -1.5975
 2839TIP3   OH2 8522   2.600   5.037   2.365  0.0823  0.0810 -0.0576
 2839TIP3    H1 8523   2.647   5.118   2.383  0.4023 -0.3855  1.3383
 2839TIP3    H2 8524   2.548   5.021   2.444 -0.1784 -0.9356 -0.4187
 2840TIP3   OH2 8525   3.016   3.780   4.099  0.7147  0.0477 -0.4779
 2840TIP3    H1 8526   3.009   3.757   4.192  0.0326 -1.0009 -0.7642
 2840TIP3    H2 8527   2.949   3.726   4.056  1.7106 -0.2542 -1.7102
 2841TIP3   OH2 8528   2.613   3.335   2.353  0.1260  0.0630  0.2100
 2841TIP3    H1 8529   2.708   3.346   2.340 -0.2434  1.6933 -1.6511
 2841TIP3    H2 8530   2.586   3.276   2.282 -0.3497  0.1633  0.3077
 2842TIP3   OH2 8531   5.766   1.899   0.358  0.5981 -0.1161 -0.6863
 2842TIP3    H1 8532   5.692   1.859   0.404  1.1366  2.3206  2.7611
 2842TIP3    H2 8533   5.728   1.974   0.312  0.6854  0.3596 -0.0057
 2843TIP3   OH2 8534   3.695   3.845   3.931 -0.2918  0.1086 -0.5097
 2843TIP3    H1 8535   3.630   3.903   3.890 -1.4570 -2.0273 -1.8499
 2843TIP3    H2 8536   3.644   3.771   3.963  1.1812 -0.3092  1.0001
 2844TIP3   OH2 8537   3.552   0.185   2.312 -0.0401 -0.3205  0.0129
 2844TIP3    H1 8538   3.628   0.203   2.255 -0.5305  1.6456 -0.0979
 2844TIP3    H2 8539   3.546   0.090   2.314  2.6356 -0.5650  0.2832
 2845TIP3   OH2 8540   3.853   2.900   0.715 -0.4047 -0.2899  0.0711
 2845TIP3    H1 8541   3.865   2.971   0.652  0.9748 -1.3170 -0.8759
 2845TIP3    H2 8542   3.895   2.931   0.795  1.6531 -0.6353 -0.8229
 2846TIP3   OH2 8543   4.413   2.730   1.846 -0.0261 -0.1869 -0.4930
 2846TIP3    H1 8544   4.380   2.714   1.934  1.0577 -2.3376 -0.4126
 2846TIP3    H2 8545   4.440   2.822   1.846 -1.1442  0.1789  1.0116
 2847TIP3   OH2 8546   0.638   0.613  -0.013 -0.0911 -0.5428 -0.0701
 2847TIP3    H1 8547   0.668   0.522  -0.005  0.1456 -0.4194  0.5354
 2847TIP3    H2 8548   0.681   0.658   0.060 -1.3301 -0.2415  0.4994
 2848TIP3   OH2 8549   1.015   4.371   3.385 -0.2338 -0.2399  0.4295
 2848TIP3    H1 8550   1.092   4.381   3.442 -0.3061  1.5352  0.2439
 2848TIP3    H2 8551   0.941   4.371   3.445 -0.2622  0.9339  0.4170
 2849TIP3   OH2 8552   5.324   4.998   4.283  0.2904  0.0325  0.4018
 2849TIP3    H1 8553   5.329   5.083   4.240  1.1420 -0.3959 -0.3799
 2849TIP3    H2 8554   5.415   4.972   4.296  0.0441 -0.3447  1.4857
 2850TIP3   OH2 8555   4.957   0.209   1.187 -0.4750 -0.2158  0.3004
 2850TIP3    H1 8556   4.890   0.210   1.119 -2.4373 -0.7209  2.1143
 2850TIP3    H2 8557   4.963   0.118   1.214 -0.1127  0.0444  1.1501
 2851TIP3   OH2 8558   2.667   4.497   3.643 -0.1024  0.3282  0.3436
 2851TIP3    H1 8559   2.585   4.452   3.623 -0.7924  0.9438  1.6532
 2851TIP3    H2 8560   2.685   4.474   3.734  1.8998 -0.8624 -0.3005
 2852TIP3   OH2 8561   1.038   3.510   1.603  0.3391  0.2198  0.4126
 2852TIP3    H1 8562   1.028   3.416   1.619  2.0708 -0.0039  0.3362
 2852TIP3    H2 8563   1.103   3.516   1.534 -2.3381  1.4005 -2.2095
 2853TIP3   OH2 8564   1.204   3.853   3.441 -0.2456 -0.3037  0.0951
 2853TIP3    H1 8565   1.276   3.871   3.381  0.4284  1.6954  1.3909
 2853TIP3    H2 8566   1.246   3.845   3.527 -1.4545 -0.2459  0.7150
 2854TIP3   OH2 8567   5.253   5.151   1.905  0.2966 -0.0488 -0.1573
 2854TIP3    H1 8568   5.201   5.072   1.890 -1.2800  0.7604  0.8428
 2854TIP3    H2 8569   5.248   5.166   1.999  0.4053  1.3650 -0.3579
 2855TIP3   OH2 8570   4.533   4.847   2.410 -0.3172  0.5495  0.1490
 2855TIP3    H1 8571   4.556   4.784   2.341  1.5967  0.4739  0.7984
 2855TIP3    H2 8572   4.579   4.816   2.488 -1.1616  1.5186  1.0769
 2856TIP3   OH2 8573   0.237   4.698   2.348 -0.2615  0.1268 -0.3354
 2856TIP3    H1 8574   0.313   4.652   2.385 -0.2138 -0.6962 -1.3892
 2856TIP3    H2 8575   0.241   4.785   2.385  1.4273  0.2104 -0.6329
 2857TIP3   OH2 8576   3.946   2.387   3.200 -0.1770 -0.2104  0.6555
 2857TIP3    H1 8577   3.983   2.466   3.240  0.8792 -0.8321  0.9205
 2857TIP3    H2 8578   3.957   2.319   3.265  0.6826 -1.0153 -0.3066
 2858TIP3   OH2 8579   6.176   3.595   0.962  0.1771  0.2874 -0.2819
 2858TIP3    H1 8580   6.229   3.664   0.922  0.8168 -0.4022 -0.6700
 2858TIP3    H2 8581   6.238   3.546   1.016 -0.2231 -0.0846 -0.1514
 2859TIP3   OH2 8582   0.258   0.868   4.066 -0.6738  0.0565  0.0510
 2859TIP3    H1 8583   0.228   0.958   4.077 -0.2697  0.4417 -1.6983
 2859TIP3    H2 8584   0.296   0.845   4.151  0.9203  2.2180  0.0014
 2860TIP3   OH2 8585   3.071   0.841   1.947 -0.1722 -0.2551 -0.0274
 2860TIP3    H1 8586   2.982   0.837   1.984  0.1058 -0.2431  0.6471
 2860TIP3    H2 8587   3.112   0.760   1.976  0.6354  0.5707  1.2166
 2861TIP3   OH2 8588   5.263   2.700   1.454 -0.3727  0.2252 -0.1951
 2861TIP3    H1 8589   5.281   2.794   1.452  2.8795 -0.2628  0.3411
 2861TIP3    H2 8590   5.216   2.682   1.372 -0.3921  2.1891 -0.6491
 2862TIP3   OH2 8591   1.039   2.454   4.047 -0.6403  0.1449  0.2401
 2862TIP3    H1 8592   1.017   2.547   4.041 -0.9214  0.0295 -0.5940
 2862TIP3    H2 8593   1.121   2.445   3.999 -2.0049 -0.4808 -2.1283
 2863TIP3   OH2 8594   5.316   4.657   3.973  0.2432 -0.0912 -0.1880
 2863TIP3    H1 8595   5.333   4.565   3.992  1.6287  0.2244  0.2048
 2863TIP3    H2 8596   5.307   4.698   4.059  0.5736  0.3048 -0.3390
 2864TIP3   OH2 8597   3.567   0.097   2.777 -1.4624 -0.3913  0.4663
 2864TIP3    H1 8598   3.595   0.009   2.805 -1.3440  0.0350  1.7350
 2864TIP3    H2 8599   3.472   0.090   2.768 -1.7330 -0.1678  2.5503
 2865TIP3   OH2 8600   3.991   0.695   3.204 -0.7070 -0.1952  0.0789
 2865TIP3    H1 8601   4.077   0.662   3.179  0.0044  1.8254 -0.3807
 2865TIP3    H2 8602   3.976   0.659   3.292  1.3617  0.6473  0.8613
 2866TIP3   OH2 8603   3.137   4.257   2.174  0.5016 -0.1580 -0.4719
 2866TIP3    H1 8604   3.215   4.223   2.130  0.9028 -0.0393  0.1382
 2866TIP3    H2 8605   3.089   4.303   2.105 -1.0641 -3.4840 -1.8585
 2867TIP3   OH2 8606   5.249   0.648   2.825  0.5686 -0.1559  0.7844
 2867TIP3    H1 8607   5.212   0.721   2.775 -0.9091  0.9142  3.2425
 2867TIP3    H2 8608   5.335   0.680   2.854  1.3596 -0.7186 -0.8014
 2868TIP3   OH2 8609   4.579   0.536   0.257 -0.1555  0.2404 -0.3497
 2868TIP3    H1 8610   4.573   0.513   0.350  0.6548 -0.8162 -0.5430
 2868TIP3    H2 8611   4.536   0.622   0.251 -1.0479 -0.1004  0.8248
 2869TIP3   OH2 8612   0.390   3.946   3.210  0.2978  0.0165 -0.5145
 2869TIP3    H1 8613   0.400   3.885   3.136  1.0301 -2.2106  1.3052
 2869TIP3    H2 8614   0.304   3.986   3.196  0.3414 -0.4283 -2.4756
 2870TIP3   OH2 8615   5.608   3.239   3.382  0.3938  0.1445  0.7717
 2870TIP3    H1 8616   5.609   3.299   3.456  0.8521  1.8651 -0.5458
 2870TIP3    H2 8617   5.517   3.241   3.351 -0.0244 -1.3121  1.8039
 2871TIP3   OH2 8618   6.348   0.891   1.346  0.3435  0.5277 -0.0398
 2871TIP3    H1 8619   6.303   0.812   1.317  2.4232 -0.6021 -0.3321
 2871TIP3    H2 8620   6.282   0.960   1.337 -1.2435 -0.9927 -0.6443
 2872TIP3   OH2 8621   3.993   0.381   1.149 -0.2837  0.3886 -0.2967
 2872TIP3    H1 8622   4.063   0.319   1.169 -1.1353 -0.2132  0.9738
 2872TIP3    H2 8623   3.929   0.331   1.099 -0.8588  0.2917  0.5173
 2873TIP3   OH2 8624   2.473   0.775   1.207  0.0708  0.1615 -0.1216
 2873TIP3    H1 8625   2.534   0.747   1.139 -1.1589 -1.1381 -0.7419
 2873TIP3    H2 8626   2.488   0.713   1.279 -0.3911 -0.0491 -0.2067
 2874TIP3   OH2 8627   0.288   5.868   3.542  0.1345 -0.2162 -0.3585
 2874TIP3    H1 8628   0.330   5.804   3.485  2.3895  0.1243  0.7827
 2874TIP3    H2 8629   0.231   5.816   3.599 -1.8381 -0.5925 -2.5498
 2875TIP3   OH2 8630   1.098   2.310   2.338 -0.0619  0.1960  0.2369
 2875TIP3    H1 8631   1.088   2.215   2.333  0.7674  0.1658 -2.9562
 2875TIP3    H2 8632   1.019   2.345   2.295 -0.3458  1.0016  1.3503
 2876TIP3   OH2 8633   5.169   3.894   2.978 -0.3176  0.1306 -0.1917
 2876TIP3    H1 8634   5.151   3.973   2.927  0.9709  2.1158  2.2467
 2876TIP3    H2 8635   5.126   3.909   3.062  2.1442 -0.5118  1.2826
 2877TIP3   OH2 8636   1.201   5.678   3.974 -0.0071  0.7585  0.1525
 2877TIP3    H1 8637   1.125   5.708   3.925  1.4158  1.6639 -1.5997
 2877TIP3    H2 8638   1.172   5.597   4.016 -2.0270  1.2821 -0.1458
 2878TIP3   OH2 8639   0.295   3.665   0.180 -0.0237 -0.1803  0.6986
 2878TIP3    H1 8640   0.211   3.626   0.205 -0.7240  0.5033 -0.5119
 2878TIP3    H2 8641   0.354   3.644   0.253 -0.7392 -2.2368  0.7421
 2879TIP3   OH2 8642   3.116   4.268   0.808  0.0746  0.7062 -0.1445
 2879TIP3    H1 8643   3.041   4.235   0.857  1.8005  0.6808  2.7010
 2879TIP3    H2 8644   3.189   4.214   0.836  1.4888  1.7379 -1.6172
 2880TIP3   OH2 8645   2.150   4.145   1.256 -0.4068  0.0607 -0.0879
 2880TIP3    H1 8646   2.204   4.144   1.335  0.9773 -2.3590 -0.9583
 2880TIP3    H2 8647   2.153   4.235   1.226  0.3856  0.6824  1.7222
 2881TIP3   OH2 8648   4.020   5.311   2.945 -0.1526 -0.4138 -0.1301
 2881TIP3    H1 8649   4.114   5.327   2.959 -0.1502 -0.7289  0.2062
 2881TIP3    H2 8650   3.979   5.396   2.962  0.0383 -0.3505  0.0192
 2882TIP3   OH2 8651   3.417   3.241   3.575  0.2510 -0.3611  0.3559
 2882TIP3    H1 8652   3.454   3.255   3.488  0.8142 -3.1581  0.0541
 2882TIP3    H2 8653   3.492   3.242   3.634  0.4690 -2.5863  0.1981
 2883TIP3   OH2 8654   1.630   3.732   3.471  0.4247  0.0346  0.0595
 2883TIP3    H1 8655   1.577   3.783   3.533 -0.0068  1.3430 -1.3197
 2883TIP3    H2 8656   1.719   3.738   3.504  0.0076 -0.5199  1.3329
 2884TIP3   OH2 8657   0.955   0.659   1.761 -0.4593  0.1060  0.1085
 2884TIP3    H1 8658   1.009   0.585   1.734 -0.8082 -0.5422  1.1063
 2884TIP3    H2 8659   0.899   0.676   1.686  0.9773  0.6607 -0.8657
 2885TIP3   OH2 8660   1.437   3.048   2.681  0.6015  0.3832 -0.1156
 2885TIP3    H1 8661   1.505   3.110   2.708  1.1996 -1.1305  2.1144
 2885TIP3    H2 8662   1.471   2.963   2.707 -2.2954 -0.4173  1.4270
 2886TIP3   OH2 8663   1.499   0.520   1.424 -0.4285  0.4963 -0.1617
 2886TIP3    H1 8664   1.413   0.516   1.466 -0.6038 -0.5936 -0.5787
 2886TIP3    H2 8665   1.481   0.501   1.332  0.4170 -1.4540  0.0204
 2887TIP3   OH2 8666   1.604   4.721   3.562 -0.7857  0.3230 -0.0779
 2887TIP3    H1 8667   1.552   4.651   3.602 -1.6790  0.2714 -1.2596
 2887TIP3    H2 8668   1.540   4.783   3.529 -0.0008  1.7694  1.0001
 2888TIP3   OH2 8669   1.364   3.250   1.167  0.8648 -0.2493 -0.0333
 2888TIP3    H1 8670   1.385   3.266   1.259  2.6986 -1.6998 -0.1460
 2888TIP3    H2 8671   1.357   3.155   1.159  0.9819 -0.1758 -1.4173
 2889TIP3   OH2 8672   0.322   0.179   0.589  0.1547 -0.4139 -0.0754
 2889TIP3    H1 8673   0.259   0.230   0.537 -0.9870 -2.1679 -0.5084
 2889TIP3    H2 8674   0.381   0.141   0.525  0.9198  0.2199  0.2347
 2890TIP3   OH2 8675   0.788   1.347   0.508 -0.1607 -0.1146 -0.2302
 2890TIP3    H1 8676   0.780   1.326   0.415 -1.2430 -0.4865 -0.0640
 2890TIP3    H2 8677   0.736   1.426   0.521 -1.7007 -1.1791  0.4082
 2891TIP3   OH2 8678   0.866   3.536   3.583  0.0038  0.1829  0.1449
 2891TIP3    H1 8679   0.905   3.577   3.506 -0.3879  0.8596  0.2966
 2891TIP3    H2 8680   0.871   3.442   3.566 -1.4278  0.3504 -1.3582
 2892TIP3   OH2 8681   6.317   1.581   4.406 -0.1977 -0.4304  0.1999
 2892TIP3    H1 8682   6.297   1.487   4.415  0.4151 -0.7041 -1.0892
 2892TIP3    H2 8683   6.347   1.607   4.493 -2.1259 -0.9769  1.0786
 2893TIP3   OH2 8684   2.964   2.976   3.012  0.1418 -0.1787  0.0073
 2893TIP3    H1 8685   2.925   3.063   3.002  0.6774 -0.0711 -1.3104
 2893TIP3    H2 8686   2.928   2.924   2.940  0.3239 -0.8624  0.4002
 2894TIP3   OH2 8687   2.779   0.346   5.054 -0.0770  0.2239 -0.0976
 2894TIP3    H1 8688   2.727   0.287   5.108  0.0283  1.1201  1.0063
 2894TIP3    H2 8689   2.869   0.334   5.084 -0.1943  1.8462  1.0685
 2895TIP3   OH2 8690   0.610   3.035   3.317  0.3425 -0.2714 -0.0610
 2895TIP3    H1 8691   0.527   3.056   3.274  0.6202  1.2102  0.0639
 2895TIP3    H2 8692   0.626   3.110   3.375  1.3616 -0.9262  0.5174
 2896TIP3   OH2 8693   3.994   0.147   4.195  0.0479  0.2339  0.2261
 2896TIP3    H1 8694   4.064   0.210   4.213 -0.1747  0.1285  1.5727
 2896TIP3    H2 8695   3.921   0.178   4.248 -0.8432  0.1495 -0.9011
 2897TIP3   OH2 8696   6.207   2.853   0.794 -0.2520 -0.0948  0.1753
 2897TIP3    H1 8697   6.123   2.862   0.748 -1.0789 -1.7761  1.2284
 2897TIP3    H2 8698   6.261   2.801   0.734  0.0531  0.9665 -0.4932
 2898TIP3   OH2 8699   3.208   1.801   2.696  0.3872 -0.0843 -0.3518
 2898TIP3    H1 8700   3.284   1.742   2.699 -0.0716 -0.6400  0.7368
 2898TIP3    H2 8701   3.188   1.819   2.788  0.3821  1.6161 -0.6645
 2899TIP3   OH2 8702   1.172   4.492   1.707  0.0066  0.6710 -0.2656
 2899TIP3    H1 8703   1.162   4.527   1.796 -1.3288  0.6075 -0.3795
 2899TIP3    H2 8704   1.099   4.530   1.658  0.3431  0.1684 -1.1719
 2900TIP3   OH2 8705   5.124   1.441   0.174  0.0922 -0.3489 -0.2414
 2900TIP3    H1 8706   5.039   1.449   0.217 -0.9917 -1.3728 -2.0544
 2900TIP3    H2 8707   5.104   1.401   0.089  2.3814 -0.5079 -0.7696
 2901TIP3   OH2 8708   1.460   5.864   3.031 -0.1896 -0.2729  0.1640
 2901TIP3    H1 8709   1.439   5.778   3.065  0.8743 -0.5207  0.2422
 2901TIP3    H2 8710   1.537   5.892   3.081  1.9977 -1.0277 -2.5369
 2902TIP3   OH2 8711   2.318   1.466   1.902  0.2508 -0.1229  0.0558
 2902TIP3    H1 8712   2.292   1.552   1.935  0.2406 -1.1941  3.2130
 2902TIP3    H2 8713   2.239   1.432   1.859  0.1715  1.2673 -0.9618
 2903TIP3   OH2 8714   3.565   1.809   1.445  0.2351  0.3318 -0.1981
 2903TIP3    H1 8715   3.582   1.857   1.526  0.1713  1.1756 -0.6652
 2903TIP3    H2 8716   3.476   1.835   1.421 -0.9987 -2.3292  1.0773
 2904TIP3   OH2 8717   3.380   2.499   5.143  0.9650  0.2534 -0.1012
 2904TIP3    H1 8718   3.322   2.574   5.128 -0.5229 -0.7753  0.3008
 2904TIP3    H2 8719   3.392   2.497   5.238 -0.5386 -1.0699  0.1067
 2905TIP3   OH2 8720   1.068   1.885   4.403  0.0538 -0.5675  0.1920
 2905TIP3    H1 8721   1.146   1.907   4.351  0.4550 -0.5848  0.7747
 2905TIP3    H2 8722   0.995   1.911   4.348  0.4183 -1.9682 -1.0177
 2906TIP3   OH2 8723   5.962   1.232   0.160  0.5844 -0.2816 -0.6924
 2906TIP3    H1 8724   5.926   1.312   0.197  0.3425 -0.0749 -1.3615
 2906TIP3    H2 8725   6.052   1.253   0.137  0.8810 -0.5488  0.2001
 2907TIP3   OH2 8726   3.904   4.674   3.756 -0.0956 -0.1286  0.3936
 2907TIP3    H1 8727   3.880   4.764   3.779 -0.4689 -0.1966  0.2772
 2907TIP3    H2 8728   3.821   4.627   3.753  0.0951 -0.4699  0.4142
 2908TIP3   OH2 8729   3.179   5.690   1.172  0.2834  0.1300 -0.5653
 2908TIP3    H1 8730   3.084   5.688   1.161  0.0200 -2.6119  1.1131
 2908TIP3    H2 8731   3.199   5.780   1.197 -1.8072  0.8511 -1.2833
 2909TIP3   OH2 8732   0.705   3.008   3.684  0.1712 -0.0153  0.3670
 2909TIP3    H1 8733   0.727   3.077   3.745 -0.8422  0.0510  0.6824
 2909TIP3    H2 8734   0.714   3.049   3.597 -0.0710  0.4085  0.5373
 2910TIP3   OH2 8735   3.436   4.191   4.362 -0.5618  0.3082 -0.2123
 2910TIP3    H1 8736   3.461   4.105   4.394 -0.1449 -0.1234 -1.6264
 2910TIP3    H2 8737   3.351   4.177   4.320  0.9358 -0.1829 -3.3340
 2911TIP3   OH2 8738   4.623   2.047   3.045 -0.1055 -0.4826 -0.2528
 2911TIP3    H1 8739   4.607   2.016   2.956 -0.1883  1.4840 -0.9678
 2911TIP3    H2 8740   4.645   2.139   3.035 -2.1933  0.3637  1.9509
 2912TIP3   OH2 8741   0.452   5.009   4.381 -0.0801 -0.0803 -0.0570
 2912TIP3    H1 8742   0.383   4.963   4.333 -0.3243 -0.6148  0.7836
 2912TIP3    H2 8743   0.531   4.959   4.364 -0.2405 -0.4979  0.4065
 2913TIP3   OH2 8744   4.537   0.535   4.781  0.1711 -0.5150  0.1745
 2913TIP3    H1 8745   4.622   0.492   4.797 -0.6405 -2.2436  0.0444
 2913TIP3    H2 8746   4.528   0.536   4.686 -0.4282 -1.3317  0.2151
 2914TIP3   OH2 8747   1.176   5.396   1.817  0.5554 -0.2671  0.0185
 2914TIP3    H1 8748   1.227   5.468   1.780 -1.2513  0.5098 -1.1022
 2914TIP3    H2 8749   1.226   5.368   1.894  1.8072  1.4965 -0.0910
 2915TIP3   OH2 8750   1.815   3.741   2.142 -0.2562  0.0040 -0.6496
 2915TIP3    H1 8751   1.908   3.754   2.160 -0.4547 -0.2024  0.6239
 2915TIP3    H2 8752   1.797   3.797   2.066  0.5467  1.3004  0.0728
 2916TIP3   OH2 8753   5.803   0.002   4.096  0.0069 -0.1076  0.0742
 2916TIP3    H1 8754   5.791   0.061   4.022  0.5857  0.1613  0.1876
 2916TIP3    H2 8755   5.722  -0.049   4.100  0.4158 -0.9435 -1.4553
 2917TIP3   OH2 8756   1.857   2.543   2.376 -0.1679 -0.2385 -0.0269
 2917TIP3    H1 8757   1.917   2.474   2.402  0.1771 -0.6019 -1.6336
 2917TIP3    H2 8758   1.770   2.504   2.382 -0.0243 -0.5993 -0.2452
 2918TIP3   OH2 8759   1.374   5.039   0.406 -0.0130  0.1830 -0.4564
 2918TIP3    H1 8760   1.460   5.020   0.370  0.2933 -0.5831  0.6323
 2918TIP3    H2 8761   1.385   5.120   0.455 -0.0251  0.3150 -0.6689
 2919TIP3   OH2 8762   4.805   2.782   1.665 -0.2166  0.6231  0.2437
 2919TIP3    H1 8763   4.867   2.710   1.678 -0.9089 -0.0234  0.0409
 2919TIP3    H2 8764   4.858   2.861   1.674  0.3301  0.1260  1.7735
 2920TIP3   OH2 8765   6.338   4.148   0.927  0.4420 -0.7035 -0.1842
 2920TIP3    H1 8766   6.283   4.089   0.876 -0.5750 -1.2431  1.4493
 2920TIP3    H2 8767   6.369   4.094   1.000 -2.3997  1.2285  2.7025
 2921TIP3   OH2 8768   0.127   0.796   2.623 -0.2846  0.0906  0.1296
 2921TIP3    H1 8769   0.125   0.701   2.637  2.5087  0.1552  1.7650
 2921TIP3    H2 8770   0.109   0.807   2.530  0.9533 -2.2075 -0.4601
 2922TIP3   OH2 8771   1.178   4.640   2.667 -0.6263 -0.5727  0.6045
 2922TIP3    H1 8772   1.200   4.699   2.740 -1.6054 -0.9630  1.2350
 2922TIP3    H2 8773   1.148   4.560   2.709 -2.5159 -0.3360 -0.1906
 2923TIP3   OH2 8774   6.262   4.570   2.910  0.3169  0.7140  0.0923
 2923TIP3    H1 8775   6.209   4.509   2.859  1.0257  0.1261  0.0328
 2923TIP3    H2 8776   6.209   4.588   2.988 -0.0997  0.3788 -0.1072
 2924TIP3   OH2 8777   3.842   4.685   4.369  0.0217  0.0512  0.0022
 2924TIP3    H1 8778   3.775   4.706   4.434 -1.6819 -0.9419 -1.3345
 2924TIP3    H2 8779   3.890   4.612   4.407  2.2245  2.4232  2.1432
 2925TIP3   OH2 8780   1.735   0.498   3.989 -0.6336  0.0222 -0.2744
 2925TIP3    H1 8781   1.831   0.499   3.983 -0.7074  2.4236 -2.6399
 2925TIP3    H2 8782   1.714   0.567   4.052 -0.8595 -0.9230  0.7279
 2926TIP3   OH2 8783   2.894   1.312   5.174 -0.4217  0.0177 -0.1547
 2926TIP3    H1 8784   2.971   1.293   5.120 -0.8850 -1.2135 -0.4179
 2926TIP3    H2 8785   2.879   1.405   5.162  0.1809 -0.0044 -1.2375
 2927TIP3   OH2 8786   1.276   3.239   4.464  0.1018  0.5269  0.5846
 2927TIP3    H1 8787   1.238   3.155   4.438 -1.2658  1.3573 -0.2147
 2927TIP3    H2 8788   1.210   3.278   4.521 -0.4391  2.1394 -1.0648
 2928TIP3   OH2 8789   4.638   5.499   1.420 -0.6501  0.5042 -0.2582
 2928TIP3    H1 8790   4.664   5.590   1.437  0.1447  0.3522 -0.6114
 2928TIP3    H2 8791   4.559   5.507   1.367  0.8963  1.0620 -2.6836
 2929TIP3   OH2 8792   3.060   1.088   1.188 -0.0614  0.0695  0.1850
 2929TIP3    H1 8793   3.121   1.161   1.176  1.5735 -1.2895 -0.3625
 2929TIP3    H2 8794   3.079   1.056   1.276  0.2272 -0.5049 -0.0762
 2930TIP3   OH2 8795   5.812   1.540   1.917  0.3462 -0.3616  0.7516
 2930TIP3    H1 8796   5.878   1.523   1.984  0.2764 -0.6312  0.7562
 2930TIP3    H2 8797   5.728   1.525   1.961  0.3073 -0.7911  0.5417
 2931TIP3   OH2 8798   2.704   1.006   3.400  0.1379  0.6944  0.2428
 2931TIP3    H1 8799   2.645   0.937   3.370  0.1657  1.0555 -0.6923
 2931TIP3    H2 8800   2.766   1.017   3.328  2.5995 -1.0208  1.9313
 2932TIP3   OH2 8801   6.334   2.823   4.332  0.7223  0.0889 -0.2899
 2932TIP3    H1 8802   6.277   2.815   4.255 -0.6214 -0.0759  0.6975
 2932TIP3    H2 8803   6.277   2.810   4.407  2.1403 -0.4647  0.7493
 2933TIP3   OH2 8804   5.569   5.966   4.711 -0.9286 -0.7305  0.4234
 2933TIP3    H1 8805   5.648   5.930   4.750 -0.2933  0.2158  0.0395
 2933TIP3    H2 8806   5.537   6.028   4.777  0.0161  0.6966 -0.3967
 2934TIP3   OH2 8807   2.162   3.407   2.440 -0.1703  0.2364  0.9349
 2934TIP3    H1 8808   2.083   3.363   2.470 -0.3607 -0.6672 -0.7616
 2934TIP3    H2 8809   2.220   3.336   2.411  0.1598  1.0076 -0.3628
 2935TIP3   OH2 8810   2.462   2.977   2.496 -0.0498  0.0056 -0.2862
 2935TIP3    H1 8811   2.449   3.068   2.467 -0.8891  0.0342  0.1544
 2935TIP3    H2 8812   2.384   2.957   2.548  1.4925  0.0807  2.2503
 2936TIP3   OH2 8813   5.314   1.655   4.680 -0.3555 -0.5376  0.0413
 2936TIP3    H1 8814   5.394   1.677   4.727 -0.0053  0.0895 -0.8481
 2936TIP3    H2 8815   5.258   1.732   4.689 -0.4915 -0.6145 -0.1344
 2937TIP3   OH2 8816   4.351   3.558   3.815 -0.2154  0.2298 -0.1971
 2937TIP3    H1 8817   4.274   3.519   3.855 -0.0852  0.0978 -0.0777
 2937TIP3    H2 8818   4.424   3.502   3.841  0.3341  1.7488  1.8518
 2938TIP3   OH2 8819   5.778   4.314   3.991 -0.4328  0.3493  0.5306
 2938TIP3    H1 8820   5.770   4.219   3.978 -0.7008  0.4878 -0.3918
 2938TIP3    H2 8821   5.705   4.336   4.050 -1.2915  0.1913 -0.4368
 2939TIP3   OH2 8822   4.213   3.166   4.873  0.3568  0.5071 -0.3995
 2939TIP3    H1 8823   4.219   3.173   4.968 -2.0972  1.2348 -0.2108
 2939TIP3    H2 8824   4.193   3.073   4.857 -2.8616  0.9630  0.2077
 2940TIP3   OH2 8825   0.464   0.049   3.553 -0.2044 -0.4209 -0.0667
 2940TIP3    H1 8826   0.465   0.102   3.473 -0.1270  1.7390  1.2667
 2940TIP3    H2 8827   0.379   0.068   3.593 -0.1666 -1.3147  0.4685
 2941TIP3   OH2 8828   2.182   3.895   4.872 -0.1294  0.0773  0.5742
 2941TIP3    H1 8829   2.128   3.967   4.904 -2.5275  0.0112 -2.7422
 2941TIP3    H2 8830   2.163   3.822   4.930 -2.0957  0.6507  0.7278
 2942TIP3   OH2 8831   1.921   0.208   4.081  0.1580 -0.2579  0.1110
 2942TIP3    H1 8832   2.010   0.174   4.088  0.1957  0.2533  3.3895
 2942TIP3    H2 8833   1.933   0.298   4.049  0.6607 -0.6519 -0.8653
 2943TIP3   OH2 8834   3.638   3.339   1.537  0.7778  0.1473  0.1332
 2943TIP3    H1 8835   3.602   3.251   1.548  0.5601  0.1491 -0.5372
 2943TIP3    H2 8836   3.715   3.327   1.481  0.3717  0.4587 -0.5062
 2944TIP3   OH2 8837   3.695   1.387   2.895  0.3072  0.7526  0.0982
 2944TIP3    H1 8838   3.788   1.369   2.879  0.2110  1.5638 -1.5005
 2944TIP3    H2 8839   3.682   1.477   2.865 -1.0081  0.6566  0.3203
 2945TIP3   OH2 8840   4.536   4.731   2.804 -0.2119  0.3983  0.2827
 2945TIP3    H1 8841   4.461   4.678   2.777 -0.1652  0.0327  0.8353
 2945TIP3    H2 8842   4.497   4.809   2.845 -0.3107 -0.0974  1.1628
 2946TIP3   OH2 8843   0.208   4.884   4.260  0.1224 -0.4779 -0.2382
 2946TIP3    H1 8844   0.130   4.849   4.301  0.2378 -0.8413 -0.3256
 2946TIP3    H2 8845   0.229   4.822   4.190  0.2852 -0.1971 -0.4440
 2947TIP3   OH2 8846   6.162   0.561   1.735  0.0109 -0.3044 -0.0968
 2947TIP3    H1 8847   6.221   0.554   1.811  0.1143  0.9909 -0.0403
 2947TIP3    H2 8848   6.190   0.491   1.677  1.6650  0.3208 -0.1006
 2948TIP3   OH2 8849   3.211   0.832   3.455  0.0098 -0.1208 -0.4297
 2948TIP3    H1 8850   3.180   0.922   3.467 -0.1188 -0.2088 -0.1250
 2948TIP3    H2 8851   3.306   0.842   3.441 -0.1873  0.1799 -1.7424
 2949TIP3   OH2 8852   2.537   4.925   1.326 -0.2865  0.3402 -0.2091
 2949TIP3    H1 8853   2.548   5.003   1.271 -0.6109 -0.3861 -1.3351
 2949TIP3    H2 8854   2.471   4.950   1.390  1.0926  1.6647  0.7779
 2950TIP3   OH2 8855   0.607   3.133   0.105  0.2836  0.4028  0.1663
 2950TIP3    H1 8856   0.615   3.184   0.185 -0.0497  2.1555 -0.8574
 2950TIP3    H2 8857   0.687   3.082   0.101  0.1000 -0.0754  1.8321
 2951TIP3   OH2 8858   0.486   5.899   5.019  0.5255  0.4708 -0.2621
 2951TIP3    H1 8859   0.457   5.985   4.988  0.0060 -0.0074 -1.1542
 2951TIP3    H2 8860   0.579   5.896   4.997  0.3294  0.4357 -1.1189
 2952TIP3   OH2 8861   3.648   4.269   3.666 -0.2512  0.3234 -0.2728
 2952TIP3    H1 8862   3.580   4.277   3.734 -0.9479 -0.8600 -0.8148
 2952TIP3    H2 8863   3.728   4.248   3.715 -0.2901  1.5216  0.3521
 2953TIP3   OH2 8864   4.997   3.839   2.240  0.3105  0.3178  0.0794
 2953TIP3    H1 8865   5.083   3.838   2.283 -0.0980  1.3009  0.9566
 2953TIP3    H2 8866   4.957   3.921   2.267 -1.8756 -1.1430  1.6485
 2954TIP3   OH2 8867   5.517   1.908   4.911  0.5696 -0.1990  0.6149
 2954TIP3    H1 8868   5.483   1.836   4.964  0.7254  0.0405  1.0412
 2954TIP3    H2 8869   5.586   1.869   4.858 -0.3660 -0.7004 -0.2831
 2955TIP3   OH2 8870   2.050   3.102   4.166  0.7872 -0.1636  0.0143
 2955TIP3    H1 8871   2.076   3.018   4.130  1.8753 -0.0516  0.4688
 2955TIP3    H2 8872   1.982   3.135   4.107 -0.4448 -1.8284  0.4453
 2956TIP3   OH2 8873   0.550   2.891   1.566 -0.2655 -0.4217  0.5836
 2956TIP3    H1 8874   0.501   2.864   1.488  0.6423 -1.0471  0.2049
 2956TIP3    H2 8875   0.485   2.933   1.622 -0.8266  0.5994 -0.7696
 2957TIP3   OH2 8876   3.871  -0.011   1.318 -0.1100  0.8163  0.0261
 2957TIP3    H1 8877   3.958  -0.049   1.302 -0.5646  0.6420 -2.3950
 2957TIP3    H2 8878   3.875   0.075   1.276 -1.0712  0.8483 -0.0151
 2958TIP3   OH2 8879   5.740   3.477   4.126 -0.0262 -0.5462  0.5616
 2958TIP3    H1 8880   5.751   3.566   4.092 -0.6258 -0.0537  1.6100
 2958TIP3    H2 8881   5.811   3.427   4.085  0.1134  0.3304 -0.3045
 2959TIP3   OH2 8882   6.134   0.385   2.550  0.2043  0.3767  0.3796
 2959TIP3    H1 8883   6.184   0.427   2.480  2.0449 -1.1315  0.7293
 2959TIP3    H2 8884   6.167   0.296   2.554  0.1208  0.3754  3.1125
 2960TIP3   OH2 8885   1.536   1.240   4.234 -0.2189  0.8225  0.0978
 2960TIP3    H1 8886   1.622   1.277   4.212 -0.3926  2.2661  1.6220
 2960TIP3    H2 8887   1.521   1.269   4.324 -0.2541 -3.3211  1.6128
 2961TIP3   OH2 8888   1.853   0.439   0.840 -0.1985 -0.0768  0.0602
 2961TIP3    H1 8889   1.859   0.499   0.765  0.1518 -0.5278 -0.2775
 2961TIP3    H2 8890   1.930   0.458   0.893  0.4116 -0.8441 -0.5196
 2962TIP3   OH2 8891   6.220   4.289   4.154 -0.1297  0.1229  0.2383
 2962TIP3    H1 8892   6.198   4.235   4.229 -0.1850 -1.0682 -0.5988
 2962TIP3    H2 8893   6.315   4.299   4.158 -0.1255 -0.0033  0.4340
 2963TIP3   OH2 8894   5.397   5.585   1.380 -0.5727  0.2599 -0.2193
 2963TIP3    H1 8895   5.323   5.529   1.357 -0.3942 -1.1956  2.4243
 2963TIP3    H2 8896   5.373   5.624   1.464  0.6060  1.8033 -0.5493
 2964TIP3   OH2 8897   3.859   0.702   0.725 -0.5574 -0.8948 -0.1837
 2964TIP3    H1 8898   3.829   0.702   0.816  0.8652 -0.0706  0.3085
 2964TIP3    H2 8899   3.867   0.609   0.702 -2.9948 -1.1641 -0.2126
 2965TIP3   OH2 8900   5.573   0.420   3.650  0.7689  0.0677 -0.6383
 2965TIP3    H1 8901   5.563   0.506   3.609  0.8462  0.8268  0.8546
 2965TIP3    H2 8902   5.598   0.362   3.578 -0.1234  1.1015 -1.8380
 2966TIP3   OH2 8903   3.625   3.913   4.984  0.0129 -0.0358 -0.1323
 2966TIP3    H1 8904   3.536   3.947   4.978  0.0998  0.1877 -0.1927
 2966TIP3    H2 8905   3.666   3.966   5.053  0.0304 -0.2915  0.0537
 2967TIP3   OH2 8906   1.437   5.910   2.106  0.0678 -0.0437 -0.2407
 2967TIP3    H1 8907   1.362   5.944   2.056 -0.3125  0.3017  0.5454
 2967TIP3    H2 8908   1.400   5.886   2.191  0.6590 -0.8678 -0.2069
 2968TIP3   OH2 8909   2.112   4.999   2.232  0.1197 -0.0557 -0.4890
 2968TIP3    H1 8910   2.141   4.910   2.254 -1.4285 -0.1964  1.2449
 2968TIP3    H2 8911   2.025   4.986   2.193 -0.3353  0.7062  0.2350
 2969TIP3   OH2 8912   1.386   2.876   3.459  0.1816  0.0157  0.1251
 2969TIP3    H1 8913   1.464   2.822   3.463  1.2147  1.3611 -0.9675
 2969TIP3    H2 8914   1.399   2.942   3.527  0.4916  0.8332 -0.7037
 2970TIP3   OH2 8915   5.891   1.512   2.902  0.4847 -0.3642 -0.2467
 2970TIP3    H1 8916   5.898   1.465   2.985  0.1226 -0.2113 -0.1283
 2970TIP3    H2 8917   5.815   1.568   2.912 -0.4090 -1.3635 -1.1884
 2971TIP3   OH2 8918   4.090   1.157   1.024 -0.4354 -0.0367 -0.6785
 2971TIP3    H1 8919   4.090   1.233   1.082 -0.3340  0.1148 -0.8738
 2971TIP3    H2 8920   4.179   1.123   1.028 -0.8805 -1.1321  0.6718
 2972TIP3   OH2 8921   2.204   1.684   0.346  0.2836  0.3354  0.2354
 2972TIP3    H1 8922   2.153   1.614   0.304 -1.0437  0.6781  1.2088
 2972TIP3    H2 8923   2.281   1.639   0.381  1.6644  0.0892 -2.7804
 2973TIP3   OH2 8924   0.281   3.575   1.821  0.1125  0.0896 -0.1655
 2973TIP3    H1 8925   0.324   3.579   1.907 -3.6443  1.4336  1.8627
 2973TIP3    H2 8926   0.215   3.506   1.830 -1.8137  1.7163 -1.1613
 2974TIP3   OH2 8927   3.253   2.643   4.700  0.4552 -0.1820  0.4114
 2974TIP3    H1 8928   3.182   2.633   4.636 -0.0468  1.6297  0.6128
 2974TIP3    H2 8929   3.311   2.569   4.683 -1.1675 -1.3823 -0.1580
 2975TIP3   OH2 8930   2.124   5.103   3.704 -0.1943 -0.0498 -0.7777
 2975TIP3    H1 8931   2.143   5.094   3.797 -0.7395 -1.4178 -0.7675
 2975TIP3    H2 8932   2.207   5.128   3.664 -0.4369  2.8054  0.3216
 2976TIP3   OH2 8933   5.510   0.154   0.736  0.1934 -0.2721  0.0052
 2976TIP3    H1 8934   5.564   0.188   0.807  0.5553 -0.9528  0.0677
 2976TIP3    H2 8935   5.464   0.230   0.702 -0.1550  0.0200  1.1150
 2977TIP3   OH2 8936   0.170   3.721   2.052 -0.3932 -0.0844 -0.0712
 2977TIP3    H1 8937   0.195   3.632   2.079  0.2375  0.1360  0.0820
 2977TIP3    H2 8938   0.249   3.773   2.062 -1.0779  0.7908  1.0952
 2978TIP3   OH2 8939   3.864   5.421   4.124  0.1641  0.4882  0.9986
 2978TIP3    H1 8940   3.950   5.389   4.151  1.3818  0.8619 -2.0584
 2978TIP3    H2 8941   3.867   5.515   4.139  0.4375  0.5475  0.5906
 2979TIP3   OH2 8942   1.551   5.058   1.463 -0.1479  0.0021  0.1383
 2979TIP3    H1 8943   1.487   5.004   1.416  0.2741 -0.8386  0.5116
 2979TIP3    H2 8944   1.500   5.098   1.534 -0.6187  0.6716 -0.5651
 2980TIP3   OH2 8945   1.092   1.166   2.756  0.2373  0.2310 -0.0910
 2980TIP3    H1 8946   1.045   1.138   2.834 -2.0431  2.4907 -0.5280
 2980TIP3    H2 8947   1.178   1.193   2.789  1.0235 -2.9756  0.8736
 2981TIP3   OH2 8948   4.958   1.913   0.135 -0.2819 -0.5104 -0.2004
 2981TIP3    H1 8949   4.911   1.984   0.091  2.0783  2.0563  1.0936
 2981TIP3    H2 8950   4.984   1.854   0.064 -0.4616  1.0931 -1.6778
 2982TIP3   OH2 8951   0.855   2.663   0.931 -0.2376 -0.4065  0.1064
 2982TIP3    H1 8952   0.826   2.743   0.887 -0.3838 -0.8073 -0.5335
 2982TIP3    H2 8953   0.774   2.623   0.962 -0.2869 -1.0073 -0.7857
 2983TIP3   OH2 8954   0.055   3.299   2.577 -0.2849  0.0835 -0.0531
 2983TIP3    H1 8955   0.066   3.317   2.484  2.7554  0.7725  0.3444
 2983TIP3    H2 8956   0.046   3.204   2.582  0.4634 -0.0483 -0.9966
 2984TIP3   OH2 8957   5.560   3.606   1.202 -0.2397  0.3071  0.0248
 2984TIP3    H1 8958   5.508   3.676   1.164 -4.2739 -3.5875 -2.7270
 2984TIP3    H2 8959   5.637   3.599   1.147 -1.4552  0.5911 -1.7893
 2985TIP3   OH2 8960   4.440   4.304   3.455  0.2899  0.0236  0.3312
 2985TIP3    H1 8961   4.533   4.286   3.466  0.3352 -0.4530 -0.7525
 2985TIP3    H2 8962   4.404   4.225   3.415 -0.8986 -0.4417  2.1928
 2986TIP3   OH2 8963   5.004   4.681   3.153 -0.3787  0.5864 -0.5765
 2986TIP3    H1 8964   5.030   4.694   3.244  0.2845  0.8881 -0.7999
 2986TIP3    H2 8965   4.930   4.740   3.140 -1.7231 -0.8129  0.2791
 2987TIP3   OH2 8966   5.090   2.729   4.685  0.0161 -1.0209  0.9802
 2987TIP3    H1 8967   5.059   2.751   4.773  0.2982 -1.3175  1.1560
 2987TIP3    H2 8968   5.091   2.813   4.639  0.6483 -0.7247  1.5056
 2988TIP3   OH2 8969   3.224   2.498   0.595 -0.1526 -0.3587  0.1024
 2988TIP3    H1 8970   3.215   2.593   0.603 -0.9571 -0.2695 -1.4602
 2988TIP3    H2 8971   3.300   2.477   0.649 -1.0459  0.9029  1.9813
 2989TIP3   OH2 8972   2.753   1.900   5.105 -0.3738  0.5024  0.2596
 2989TIP3    H1 8973   2.663   1.926   5.127 -0.3669  0.9406 -0.2229
 2989TIP3    H2 8974   2.808   1.949   5.166 -0.3895  1.2294 -0.3057
 2990TIP3   OH2 8975   5.802   3.639   3.482 -0.6005  0.1927  0.4104
 2990TIP3    H1 8976   5.729   3.686   3.442 -0.2509  1.0400  0.7530
 2990TIP3    H2 8977   5.765   3.554   3.507 -0.8700 -0.3145 -1.5676
 2991TIP3   OH2 8978   6.302   5.513   0.944 -0.4913  0.0141  0.5583
 2991TIP3    H1 8979   6.273   5.482   1.029 -1.6308 -1.4907 -0.3342
 2991TIP3    H2 8980   6.224   5.553   0.905 -0.6223 -1.3073 -0.6366
 2992TIP3   OH2 8981   2.380   5.436   0.024  0.1778 -0.2990  0.0658
 2992TIP3    H1 8982   2.444   5.445   0.094 -0.5457 -1.3396  0.8892
 2992TIP3    H2 8983   2.391   5.345  -0.007 -0.1668 -0.1502 -0.5095
 2993TIP3   OH2 8984   4.643   1.438   0.629 -0.1963 -0.2848  0.4516
 2993TIP3    H1 8985   4.697   1.450   0.552  1.3090  2.2441  1.7646
 2993TIP3    H2 8986   4.582   1.368   0.605  2.7284 -2.3903 -1.5812
 2994TIP3   OH2 8987   4.613   5.868   4.535  0.1197  0.1955 -0.2830
 2994TIP3    H1 8988   4.677   5.849   4.466  1.6018  1.7550  0.5682
 2994TIP3    H2 8989   4.593   5.961   4.524  0.0499  0.3585  1.0788
 2995TIP3   OH2 8990   1.597   1.996   1.815  0.6465  0.2500  0.1503
 2995TIP3    H1 8991   1.596   2.049   1.895 -0.5496  0.2003  0.1817
 2995TIP3    H2 8992   1.516   1.944   1.819  1.1790 -0.6670 -0.4909
 2996TIP3   OH2 8993   5.210   1.755   0.398 -0.8561 -0.3568 -0.0537
 2996TIP3    H1 8994   5.166   1.838   0.382  0.6467  0.4566 -0.1422
 2996TIP3    H2 8995   5.173   1.724   0.481 -1.7023  0.1999 -0.2115
 2997TIP3   OH2 8996   4.112   3.882   1.112 -0.0324 -0.0214  0.5593
 2997TIP3    H1 8997   4.073   3.795   1.116  0.7090 -0.3347  1.2799
 2997TIP3    H2 8998   4.109   3.913   1.203 -0.5235  0.8119  0.2647
 2998TIP3   OH2 8999   3.278   4.320   2.548  0.6168 -0.0084 -0.5126
 2998TIP3    H1 9000   3.345   4.345   2.613  0.0743 -0.3447  0.1882
 2998TIP3    H2 9001   3.314   4.351   2.464  0.8218  1.4442  0.0701
 2999TIP3   OH2 9002   2.565   3.992   3.260  0.6847  0.0895 -0.4096
 2999TIP3    H1 9003   2.534   4.082   3.251 -0.0691 -0.1659 -0.4478
 2999TIP3    H2 9004   2.657   4.000   3.287  0.4844  0.8645  0.0597
 3000TIP3   OH2 9005   2.063   5.085   4.086 -0.2305 -0.6161  0.0754
 3000TIP3    H1 9006   2.005   5.159   4.097 -0.8452 -0.9378 -0.9189
 3000TIP3    H2 9007   2.023   5.015   4.138 -0.4478 -0.6918 -0.1987
 3001TIP3   OH2 9008   2.591   0.051   3.425  0.2255  0.1718 -0.1075
 3001TIP3    H1 9009   2.676   0.044   3.468 -0.0611  2.8238  1.0917
 3001TIP3    H2 9010   2.530   0.010   3.486  0.3473  0.4054  0.1763
 3002TIP3   OH2 9011   1.484   1.839   1.346 -0.3486 -0.1440 -0.6179
 3002TIP3    H1 9012   1.565   1.788   1.349  0.0193  0.2904  3.5009
 3002TIP3    H2 9013   1.418   1.780   1.382 -0.8857  0.7875 -0.0277
 3003TIP3   OH2 9014   5.574   2.833   2.920 -0.4394  0.2991  0.7069
 3003TIP3    H1 9015   5.637   2.763   2.905  0.9716  1.4881  0.8385
 3003TIP3    H2 9016   5.505   2.793   2.973  1.0000 -0.6810  1.9380
 3004TIP3   OH2 9017   2.895   5.868   4.067 -0.4041  0.2722  0.0175
 3004TIP3    H1 9018   2.827   5.806   4.092 -0.4277  0.4702  0.4441
 3004TIP3    H2 9019   2.847   5.941   4.026 -0.2512 -0.9034 -2.4637
 3005TIP3   OH2 9020   1.721   3.669   5.112 -0.9273  0.2944  0.2489
 3005TIP3    H1 9021   1.794   3.609   5.098 -0.5875  0.3347  1.7022
 3005TIP3    H2 9022   1.747   3.750   5.067 -0.7278 -0.1542 -0.4518
 3006TIP3   OH2 9023   0.913   0.219   1.972 -0.0614 -0.3554 -0.0176
 3006TIP3    H1 9024   0.939   0.309   1.994 -0.5134 -0.1775 -0.1996
 3006TIP3    H2 9025   0.888   0.223   1.879 -1.9195 -0.2330  0.4359
 3007TIP3   OH2 9026   1.106   0.442   1.786  0.0802 -0.0544 -0.4206
 3007TIP3    H1 9027   1.166   0.402   1.722 -0.2912  0.4236 -1.0736
 3007TIP3    H2 9028   1.135   0.407   1.870  2.0622  1.0916 -0.5612
 3008TIP3   OH2 9029   0.422   4.707   1.077 -0.1440  0.1969  0.2041
 3008TIP3    H1 9030   0.398   4.682   0.988  0.4221  0.1369  0.0599
 3008TIP3    H2 9031   0.344   4.690   1.129 -0.1239 -0.8626 -0.0811
 3009TIP3   OH2 9032   6.241   0.662   4.465  0.1665 -0.1843 -0.4138
 3009TIP3    H1 9033   6.259   0.593   4.402 -0.5823  1.1775 -2.2086
 3009TIP3    H2 9034   6.328   0.696   4.489  0.5142 -1.4371  0.1903
 3010TIP3   OH2 9035   5.191   1.907   4.447 -0.0980  0.2717  0.0330
 3010TIP3    H1 9036   5.250   1.952   4.506 -0.6966  0.8452  0.2078
 3010TIP3    H2 9037   5.103   1.932   4.477 -0.4105  0.3726 -0.9381
 3011TIP3   OH2 9038   1.246   2.777   1.952 -0.4300 -0.2301  0.2525
 3011TIP3    H1 9039   1.178   2.759   1.887 -1.4380  1.4014  0.7962
 3011TIP3    H2 9040   1.327   2.780   1.901 -1.1274  0.4866 -0.8555
 3012TIP3   OH2 9041   1.156   4.524   4.354 -0.0476  0.0490  0.1844
 3012TIP3    H1 9042   1.172   4.575   4.275  2.0152  0.6287  0.9224
 3012TIP3    H2 9043   1.242   4.492   4.381 -0.6687 -0.0352  2.2665
 3013TIP3   OH2 9044   6.175   4.473   0.142 -0.6656 -0.8986  0.2183
 3013TIP3    H1 9045   6.132   4.488   0.226  0.2658  2.0006  0.2660
 3013TIP3    H2 9046   6.268   4.468   0.163 -0.2919  1.2640 -0.7293
 3014TIP3   OH2 9047   2.182   3.057   4.721 -0.0769 -0.1442 -0.5154
 3014TIP3    H1 9048   2.132   3.131   4.753  0.6613  0.3814 -0.5497
 3014TIP3    H2 9049   2.223   3.088   4.640 -0.1429 -0.7399 -0.7836
 3015TIP3   OH2 9050   5.131   1.443   4.574  0.1893  0.5374  0.0413
 3015TIP3    H1 9051   5.084   1.421   4.655  0.4777 -0.5557 -0.0671
 3015TIP3    H2 9052   5.213   1.482   4.603 -0.5522  2.0096  0.2384
 3016TIP3   OH2 9053   5.738   4.283   4.635 -0.1169  0.4239 -0.3359
 3016TIP3    H1 9054   5.720   4.189   4.643 -0.3941  0.5591  0.7421
 3016TIP3    H2 9055   5.824   4.287   4.591  0.9168 -0.3945  1.5036
 3017TIP3   OH2 9056   1.898   3.479   1.607 -0.1761 -0.2401 -0.3467
 3017TIP3    H1 9057   1.876   3.520   1.523 -1.1307 -1.5596 -0.7682
 3017TIP3    H2 9058   1.972   3.531   1.640  0.9891 -0.3754 -2.5524
 3018TIP3   OH2 9059   2.207   1.626   4.552  0.2005 -0.0642 -0.5531
 3018TIP3    H1 9060   2.122   1.659   4.521  0.1995  0.3352 -0.1267
 3018TIP3    H2 9061   2.242   1.696   4.607  0.4123 -0.5829 -0.0128
 3019TIP3   OH2 9062   4.694   1.073   3.917 -0.0071 -0.6008  0.6621
 3019TIP3    H1 9063   4.755   1.089   3.845  0.5034  1.7556  1.5380
 3019TIP3    H2 9064   4.705   0.980   3.938  1.1209 -0.9057 -1.1046
 3020TIP3   OH2 9065   1.104   1.598   4.439 -0.0042 -0.2689 -0.0230
 3020TIP3    H1 9066   1.135   1.686   4.462 -0.5181  0.0804 -0.6407
 3020TIP3    H2 9067   1.032   1.581   4.500  0.7282 -0.6707  0.7470
 3021TIP3   OH2 9068   2.902   3.926   0.367  0.0793 -0.1161  0.6075
 3021TIP3    H1 9069   2.889   3.831   0.358  2.1070 -0.3554 -0.4023
 3021TIP3    H2 9070   2.828   3.965   0.320 -0.8072 -1.1672  1.0712
 3022TIP3   OH2 9071   6.141   5.412   3.946 -0.0794 -0.1454  0.1832
 3022TIP3    H1 9072   6.132   5.432   4.039 -1.9384 -0.6824  0.1728
 3022TIP3    H2 9073   6.123   5.318   3.941 -0.3486 -0.0490 -0.7547
 3023TIP3   OH2 9074   6.190   5.213   5.162 -0.0482 -0.9311  0.3844
 3023TIP3    H1 9075   6.177   5.149   5.092 -0.6486  1.7442 -2.1743
 3023TIP3    H2 9076   6.131   5.184   5.232 -0.4720 -3.0060 -0.7509
 3024TIP3   OH2 9077   2.791   2.356   1.744  0.1774 -0.1601 -0.0499
 3024TIP3    H1 9078   2.839   2.273   1.749  1.0593  0.3431 -0.0870
 3024TIP3    H2 9079   2.719   2.346   1.807  0.6120 -0.7334  0.3609
 3025TIP3   OH2 9080   1.271   5.017   0.846  0.3369  0.3259 -0.0137
 3025TIP3    H1 9081   1.325   5.064   0.909 -0.0352 -0.1365  0.6579
 3025TIP3    H2 9082   1.212   4.963   0.899 -2.0524  2.1443 -0.6173
 3026TIP3   OH2 9083   2.933   5.166   4.304  0.4346 -0.2397  0.1608
 3026TIP3    H1 9084   2.869   5.237   4.305 -0.9038 -1.3990 -0.0657
 3026TIP3    H2 9085   2.881   5.087   4.287  1.8092 -1.3484  0.8930
 3027TIP3   OH2 9086   4.336   0.667   3.500 -0.1960  0.2267 -0.5778
 3027TIP3    H1 9087   4.352   0.573   3.489 -0.3226  0.3061 -1.5156
 3027TIP3    H2 9088   4.400   0.694   3.566  1.6242 -0.0238 -2.1498
 3028TIP3   OH2 9089   4.828   1.862   0.924 -0.9123  0.2060 -0.2525
 3028TIP3    H1 9090   4.774   1.791   0.961  1.9157 -1.5542  0.8041
 3028TIP3    H2 9091   4.852   1.831   0.837 -1.9259  1.2066 -0.9133
 3029TIP3   OH2 9092   1.161   4.756   2.393 -0.9521 -0.1239 -0.0092
 3029TIP3    H1 9093   1.148   4.850   2.396  2.2564  0.4045  1.3215
 3029TIP3    H2 9094   1.152   4.727   2.484 -2.4203 -1.2356 -0.4677
 3030TIP3   OH2 9095   0.354   0.613   5.063  0.0339 -0.2181  0.2514
 3030TIP3    H1 9096   0.402   0.580   5.139  0.6984  0.2939  0.0651
 3030TIP3    H2 9097   0.404   0.582   4.987 -0.0083  0.1887  0.0513
 3031TIP3   OH2 9098   0.415   5.108   3.802  0.0829 -0.5065 -0.1401
 3031TIP3    H1 9099   0.436   5.148   3.718  0.2424 -0.5650 -0.1277
 3031TIP3    H2 9100   0.499   5.100   3.847 -0.0398 -0.1649  0.1599
 3032TIP3   OH2 9101   1.166   5.317   3.826 -0.2296 -0.3586  0.4621
 3032TIP3    H1 9102   1.181   5.250   3.893  2.5080 -0.5001 -0.1780
 3032TIP3    H2 9103   1.141   5.395   3.875  1.0827 -0.6377  1.6479
 3033TIP3   OH2 9104   4.800   2.476   3.683  0.1475  0.3123 -0.2148
 3033TIP3    H1 9105   4.732   2.514   3.627 -0.8072  0.3733  0.9341
 3033TIP3    H2 9106   4.832   2.400   3.634 -0.9714  0.1099 -0.6670
 3034TIP3   OH2 9107   0.677   1.862   4.222 -0.3049  0.4772  0.5004
 3034TIP3    H1 9108   0.749   1.924   4.224 -1.3299  1.7193  0.1036
 3034TIP3    H2 9109   0.715   1.781   4.187  0.7265  1.3286 -0.4001
 3035TIP3   OH2 9110   2.549   1.206   4.567 -0.3888  0.3300  0.4214
 3035TIP3    H1 9111   2.546   1.301   4.582  1.9324  0.4678  0.3606
 3035TIP3    H2 9112   2.610   1.173   4.632 -0.8985 -1.0997  0.2166
 3036TIP3   OH2 9113   5.261   3.424   4.178 -0.4621  0.3201  0.1273
 3036TIP3    H1 9114   5.332   3.422   4.114 -0.7791  2.9124 -0.4273
 3036TIP3    H2 9115   5.282   3.353   4.239  0.6719 -1.2500 -1.9459
 3037TIP3   OH2 9116   2.824   5.922   1.382 -0.0026  0.0275  0.0898
 3037TIP3    H1 9117   2.908   5.904   1.425  0.3281 -0.8269 -0.8753
 3037TIP3    H2 9118   2.761   5.868   1.430  0.5369 -1.7473 -1.0722
 3038TIP3   OH2 9119   4.630   0.427   0.864  0.4952 -0.2987  0.9225
 3038TIP3    H1 9120   4.596   0.361   0.803 -0.2752 -0.3477  1.3850
 3038TIP3    H2 9121   4.552   0.472   0.896  1.1149  2.6796 -1.3643
 3039TIP3   OH2 9122   6.263   1.956   4.653  0.1163  0.1627  0.3715
 3039TIP3    H1 9123   6.290   2.014   4.581  0.0612 -0.7299 -0.3871
 3039TIP3    H2 9124   6.335   1.962   4.716  1.0390 -0.4497 -0.5985
 3040TIP3   OH2 9125   5.533   5.581   3.957  0.5962 -0.9747 -0.2038
 3040TIP3    H1 9126   5.495   5.625   3.881 -1.5418  0.5142  1.6147
 3040TIP3    H2 9127   5.484   5.500   3.965 -0.8980 -0.0284  0.8933
 3041TIP3   OH2 9128   6.317   3.666   3.556 -0.3138 -0.4178  0.0283
 3041TIP3    H1 9129   6.223   3.663   3.540 -0.2781  0.7127 -0.4782
 3041TIP3    H2 9130   6.357   3.650   3.470 -0.1024  2.3579 -0.4943
 3042TIP3   OH2 9131   2.696   2.284   1.179  0.2734  0.1253  0.3099
 3042TIP3    H1 9132   2.769   2.338   1.210 -1.2646  1.8947  1.0581
 3042TIP3    H2 9133   2.620   2.320   1.223 -0.8495 -2.8741  1.0151
 3043TIP3   OH2 9134   3.085   4.588   0.868 -0.4108 -0.7744  0.2642
 3043TIP3    H1 9135   3.079   4.615   0.960  0.2653  0.4960 -0.0420
 3043TIP3    H2 9136   3.173   4.551   0.861  0.3496  1.0216 -0.3075
 3044TIP3   OH2 9137   0.087   4.093   0.285  0.4305 -0.0652 -0.0254
 3044TIP3    H1 9138   0.095   4.165   0.222 -1.1249  0.1500 -0.0079
 3044TIP3    H2 9139   0.155   4.031   0.259 -0.0260  0.1186 -1.8009
 3045TIP3   OH2 9140   2.331   2.987   2.988 -0.4938 -0.1729 -0.2093
 3045TIP3    H1 9141   2.352   3.024   2.902 -1.2450 -0.6414 -0.6060
 3045TIP3    H2 9142   2.319   2.893   2.971 -3.1933  0.0848 -0.1011
 3046TIP3   OH2 9143   4.632   4.521   2.992  0.1959  0.1109 -0.0232
 3046TIP3    H1 9144   4.591   4.606   2.976  1.1201  0.2993 -1.5667
 3046TIP3    H2 9145   4.599   4.465   2.921 -0.3060 -0.8078  0.9076
 3047TIP3   OH2 9146   0.755   0.526   2.563 -0.4072 -0.7215 -0.2759
 3047TIP3    H1 9147   0.674   0.476   2.564  0.2084 -1.7411  1.0234
 3047TIP3    H2 9148   0.824   0.460   2.555  0.3582  0.0268  0.0149
 3048TIP3   OH2 9149   5.703   3.093   2.978 -0.1899 -0.1820 -0.0724
 3048TIP3    H1 9150   5.734   3.075   3.067  0.9768 -0.4686 -0.5272
 3048TIP3    H2 9151   5.741   3.178   2.955  0.6400 -0.7270 -0.7870
 3049TIP3   OH2 9152   6.309   3.199   2.048 -0.1120 -0.3939 -0.1255
 3049TIP3    H1 9153   6.226   3.153   2.060 -0.2627 -0.5294 -1.4867
 3049TIP3    H2 9154   6.374   3.129   2.046 -0.4817 -0.8047 -3.5697
 3050TIP3   OH2 9155   2.109   4.314   2.765 -0.4463  0.3344 -0.6146
 3050TIP3    H1 9156   2.104   4.219   2.774  0.4432  0.2294 -1.1026
 3050TIP3    H2 9157   2.200   4.336   2.787 -0.2975  0.9090 -1.6974
 3051TIP3   OH2 9158   3.752   2.592   0.849  0.6590  0.5428  0.4819
 3051TIP3    H1 9159   3.751   2.625   0.759 -0.9018 -2.9338 -0.9550
 3051TIP3    H2 9160   3.691   2.649   0.896 -0.5345  0.8526 -1.3443
 3052TIP3   OH2 9161   5.927   0.152   2.758 -0.6051  0.5333  0.5410
 3052TIP3    H1 9162   5.909   0.104   2.677  0.4004 -0.3576  0.8179
 3052TIP3    H2 9163   5.860   0.122   2.819  1.1212 -2.1667  1.3334
 3053TIP3   OH2 9164   0.772   5.826   0.583  0.1727  0.1451  0.3946
 3053TIP3    H1 9165   0.741   5.912   0.613  0.0034  0.1931  0.0849
 3053TIP3    H2 9166   0.785   5.776   0.664  0.7439  0.6190  0.6091
 3054TIP3   OH2 9167   0.644   1.956   3.211 -0.3648 -0.5934 -0.0258
 3054TIP3    H1 9168   0.620   1.941   3.302 -2.5718  3.0401  0.1554
 3054TIP3    H2 9169   0.573   1.917   3.161 -0.6655 -0.0519 -0.0286
 3055TIP3   OH2 9170   6.085   5.052   2.008 -0.1245 -0.4337 -0.7102
 3055TIP3    H1 9171   6.125   5.070   2.094  0.5779  0.8268 -1.2697
 3055TIP3    H2 9172   5.996   5.025   2.028 -0.5316  1.5413  0.3645
 3056TIP3   OH2 9173   5.178   0.979   5.070 -0.0232 -0.1326 -0.1744
 3056TIP3    H1 9174   5.193   1.073   5.057 -0.8251  0.0674  0.2707
 3056TIP3    H2 9175   5.186   0.941   4.983  0.7203  0.2865 -0.2949
 3057TIP3   OH2 9176   1.001   3.853   1.279 -0.0790 -0.3289  0.1231
 3057TIP3    H1 9177   0.995   3.948   1.291  1.6002 -0.1304 -0.3353
 3057TIP3    H2 9178   1.077   3.827   1.330  0.1131 -1.2561 -0.6056
 3058TIP3   OH2 9179   3.556   3.080   1.824 -0.3204  0.0736 -0.5005
 3058TIP3    H1 9180   3.576   2.992   1.855  1.4976 -0.1707 -2.1791
 3058TIP3    H2 9181   3.548   3.071   1.729  0.8102  1.8410 -0.8041
 3059TIP3   OH2 9182   5.377   4.918   3.087 -0.4164  0.2277 -0.5842
 3059TIP3    H1 9183   5.462   4.958   3.107  0.1854 -0.7568 -1.1141
 3059TIP3    H2 9184   5.384   4.829   3.122 -1.6512  0.4699  0.3686
 3060TIP3   OH2 9185   0.299   2.394   2.461 -0.0526 -0.0084  0.8611
 3060TIP3    H1 9186   0.244   2.468   2.438  0.6999 -0.0050 -1.0698
 3060TIP3    H2 9187   0.237   2.323   2.478 -0.7780 -0.5897 -3.2312
 3061TIP3   OH2 9188   5.229   0.561   2.302 -0.4908  0.3521 -0.2723
 3061TIP3    H1 9189   5.249   0.531   2.391  3.1825  1.4293 -0.5633
 3061TIP3    H2 9190   5.242   0.656   2.306 -1.4288  0.5804 -1.7565
 3062TIP3   OH2 9191   6.223   0.461   0.649  0.3241  0.0406 -0.1283
 3062TIP3    H1 9192   6.136   0.498   0.634  0.4467 -0.0241 -1.0334
 3062TIP3    H2 9193   6.269   0.529   0.700  0.1548  0.6228 -0.7340
 3063TIP3   OH2 9194   3.897   0.646   4.981 -0.1381  0.0675  0.1544
 3063TIP3    H1 9195   3.815   0.657   5.030 -0.0392 -1.0569  0.6110
 3063TIP3    H2 9196   3.873   0.662   4.890 -0.9963 -0.7640  0.2182
 3064TIP3   OH2 9197   3.180   0.708   1.052 -0.0583  0.3720 -0.4163
 3064TIP3    H1 9198   3.204   0.624   1.013 -0.0499  0.5177 -0.7282
 3064TIP3    H2 9199   3.155   0.686   1.142 -0.6897 -0.0531 -0.6835
 3065TIP3   OH2 9200   5.905   4.815   5.110  0.1400 -0.2182  0.4900
 3065TIP3    H1 9201   5.927   4.724   5.093  2.3862  0.1392  1.1149
 3065TIP3    H2 9202   5.814   4.813   5.140 -0.0505 -2.1547 -0.0643
 3066TIP3   OH2 9203  -0.005   0.368   1.242  0.4084  0.1695  0.2508
 3066TIP3    H1 9204   0.065   0.386   1.304  1.3259 -1.6344 -0.1835
 3066TIP3    H2 9205   0.025   0.291   1.193 -1.1239  0.3783 -1.1258
 3067TIP3   OH2 9206   4.952   4.705   2.816 -0.7275 -0.3901  0.0190
 3067TIP3    H1 9207   4.918   4.781   2.769 -1.2342 -1.2436 -1.0536
 3067TIP3    H2 9208   4.966   4.736   2.905 -1.3891  0.8172 -0.2731
 3068TIP3   OH2 9209   3.000   2.157   1.915 -0.1137 -0.2205  0.3133
 3068TIP3    H1 9210   2.930   2.101   1.880 -0.8196  0.5087  0.5277
 3068TIP3    H2 9211   3.054   2.177   1.840 -0.9471  0.3685 -0.1446
 3069TIP3   OH2 9212   3.365   1.215   0.284 -0.2365  0.3314 -0.4617
 3069TIP3    H1 9213   3.355   1.172   0.369 -1.3377 -1.0111 -1.2186
 3069TIP3    H2 9214   3.428   1.161   0.237  0.4204  1.1063 -0.5019
 3070TIP3   OH2 9215   1.707   3.949   2.819 -0.1506  0.1063 -0.3359
 3070TIP3    H1 9216   1.627   3.957   2.767 -0.0722  2.1931 -0.2003
 3070TIP3    H2 9217   1.675   3.938   2.909 -0.2681 -2.0798 -0.5926
 3071TIP3   OH2 9218   4.353   5.609   1.859  0.7479  0.2808 -0.5346
 3071TIP3    H1 9219   4.357   5.664   1.781  2.7345 -0.9420 -1.3751
 3071TIP3    H2 9220   4.384   5.666   1.930 -0.4431  1.2050 -0.7186
 3072TIP3   OH2 9221   1.992   1.550   2.149  0.0690  0.1620 -0.6021
 3072TIP3    H1 9222   2.040   1.491   2.207 -0.2470 -1.2614 -1.7251
 3072TIP3    H2 9223   2.005   1.637   2.187  0.5749 -0.6132  1.0904
 3073TIP3   OH2 9224   1.945   5.994   4.833 -0.9890 -0.7481  0.4338
 3073TIP3    H1 9225   1.889   5.933   4.881 -2.0940 -0.7544 -0.7890
 3073TIP3    H2 9226   2.008   5.937   4.787 -1.4442 -0.9170  0.0087
 3074TIP3   OH2 9227   0.255   2.632   4.412 -0.3452 -0.1135  1.0211
 3074TIP3    H1 9228   0.186   2.689   4.377 -0.4536 -1.4965 -1.2219
 3074TIP3    H2 9229   0.334   2.686   4.411 -0.4821  0.1269 -0.8737
 3075TIP3   OH2 9230   6.315   5.848   4.271  0.0726  0.1162 -0.5595
 3075TIP3    H1 9231   6.306   5.871   4.178 -1.2465  0.2485 -0.4168
 3075TIP3    H2 9232   6.289   5.756   4.276  1.6717 -0.3708 -0.5363
 3076TIP3   OH2 9233   5.852   4.709   2.937 -0.3560  0.0103 -0.2251
 3076TIP3    H1 9234   5.784   4.713   3.004 -0.9486 -0.9667 -0.7406
 3076TIP3    H2 9235   5.864   4.615   2.921  2.5324 -0.0051  1.2471
 3077TIP3   OH2 9236   2.403   4.049   1.426  0.2423  0.4900  0.2059
 3077TIP3    H1 9237   2.402   3.969   1.478  0.0854 -0.0441 -0.5895
 3077TIP3    H2 9238   2.416   4.119   1.489  0.5088 -0.1746  0.9046
 3078TIP3   OH2 9239   3.457   2.895   2.498 -0.3259 -0.0952  0.5412
 3078TIP3    H1 9240   3.418   2.820   2.454  0.8502 -1.0149  1.0080
 3078TIP3    H2 9241   3.535   2.860   2.541  0.7370  1.5567  0.0722
 3079TIP3   OH2 9242   0.552   3.518   0.967 -0.3905 -0.5701 -0.0729
 3079TIP3    H1 9243   0.506   3.588   1.013  2.1565  0.2219  1.4897
 3079TIP3    H2 9244   0.615   3.563   0.911 -0.9563 -1.6222 -1.6411
 3080TIP3   OH2 9245   4.382   3.795   3.230  0.1618 -0.1967  0.4738
 3080TIP3    H1 9246   4.471   3.771   3.203 -0.1821  0.4428 -1.3908
 3080TIP3    H2 9247   4.333   3.713   3.228  0.6250 -0.5048  1.2402
 3081TIP3   OH2 9248   2.034   1.260   4.589  0.1090 -0.1318  0.6078
 3081TIP3    H1 9249   2.115   1.209   4.584  0.9701  1.2834 -1.1312
 3081TIP3    H2 9250   1.999   1.257   4.500 -0.4729  1.2299  0.7750
 3082TIP3   OH2 9251   3.243   2.780   0.598  0.0337 -0.2161 -0.0572
 3082TIP3    H1 9252   3.274   2.822   0.679  1.3952  0.1599 -0.7479
 3082TIP3    H2 9253   3.232   2.852   0.536 -3.3042 -0.1682  0.3985
 3083TIP3   OH2 9254   0.147   3.182   4.113  0.0362  0.4807  0.1023
 3083TIP3    H1 9255   0.239   3.208   4.104 -0.2155  0.9173 -1.5403
 3083TIP3    H2 9256   0.102   3.262   4.140 -0.0068  0.5553 -0.1786
 3084TIP3   OH2 9257   2.831   3.586   4.006 -0.1112 -0.1800  0.1805
 3084TIP3    H1 9258   2.752   3.568   4.056 -0.4574  1.1590  0.1546
 3084TIP3    H2 9259   2.880   3.503   4.007  0.9172  0.2376  4.5053
 3085TIP3   OH2 9260   4.684   0.236   3.730  0.0007 -0.0530 -0.0705
 3085TIP3    H1 9261   4.774   0.215   3.706 -0.1245 -0.1205 -0.4859
 3085TIP3    H2 9262   4.670   0.325   3.697  0.1005  0.1810  0.5076
 3086TIP3   OH2 9263   5.364   2.082   0.208  0.1405 -0.3687 -0.2416
 3086TIP3    H1 9264   5.286   2.098   0.263 -0.6739 -1.5150 -1.0175
 3086TIP3    H2 9265   5.379   2.166   0.165  0.2089  0.2787  0.9741
 3087TIP3   OH2 9266   1.991   2.201   1.488 -0.2064 -0.7117 -0.3468
 3087TIP3    H1 9267   2.035   2.235   1.566 -0.8576 -2.0830  0.6573
 3087TIP3    H2 9268   1.917   2.150   1.522 -0.6138 -1.1963 -1.8724
 3088TIP3   OH2 9269   4.135   4.559   3.838 -0.1411  0.6142  0.1438
 3088TIP3    H1 9270   4.159   4.630   3.897  1.4310  3.1783 -3.2207
 3088TIP3    H2 9271   4.041   4.570   3.825 -0.5071  0.0196  2.0420
 3089TIP3   OH2 9272   1.887   4.139   4.514 -0.1652 -0.0866 -0.3889
 3089TIP3    H1 9273   1.953   4.178   4.571 -0.1238  0.0279 -0.5140
 3089TIP3    H2 9274   1.879   4.201   4.441  1.2102 -1.1600 -1.5171
 3090TIP3   OH2 9275   4.824   3.301   4.537 -0.1879 -0.2339 -0.1253
 3090TIP3    H1 9276   4.782   3.383   4.512 -1.9021 -1.0987 -0.1907
 3090TIP3    H2 9277   4.905   3.329   4.581 -2.3049  1.6746  2.9391
 3091TIP3   OH2 9278   3.126   3.193   2.203 -0.4219 -0.1995 -0.3396
 3091TIP3    H1 9279   3.164   3.105   2.205 -1.4604 -0.6597 -0.3880
 3091TIP3    H2 9280   3.147   3.226   2.116  0.4037 -0.1994 -0.1474
 3092TIP3   OH2 9281   0.043   1.536   1.409 -0.4269  0.3222 -0.7298
 3092TIP3    H1 9282   0.040   1.523   1.503  2.3273  0.6986 -0.5055
 3092TIP3    H2 9283  -0.017   1.609   1.393  1.9325  2.9643  1.3842
 3093TIP3   OH2 9284   0.149   0.457   1.465  0.1051 -0.3629  0.4418
 3093TIP3    H1 9285   0.217   0.523   1.454 -0.0307 -0.5252 -1.8004
 3093TIP3    H2 9286   0.162   0.424   1.554 -0.0996  2.9335  1.8703
 3094TIP3   OH2 9287   2.386   3.541   4.509 -0.2106  0.0696  0.2562
 3094TIP3    H1 9288   2.433   3.458   4.499  2.1014  1.4781 -1.5785
 3094TIP3    H2 9289   2.446   3.596   4.560 -1.6931  0.6918  1.4184
 3095TIP3   OH2 9290   5.130   1.742   1.857  0.3534  0.2688 -0.8057
 3095TIP3    H1 9291   5.068   1.776   1.922  1.7057  0.9779  0.1630
 3095TIP3    H2 9292   5.076   1.687   1.800 -1.0794  0.4741  0.2688
 3096TIP3   OH2 9293   1.319   4.262   2.934 -0.3330  0.0700 -0.0444
 3096TIP3    H1 9294   1.328   4.356   2.918  0.4496  0.1305  0.6642
 3096TIP3    H2 9295   1.397   4.239   2.985 -0.9043 -0.8103  0.4572
 3097TIP3   OH2 9296   4.076   0.645   4.216 -0.4182  0.1928  0.5828
 3097TIP3    H1 9297   4.077   0.587   4.141 -0.6490 -0.8435  1.3606
 3097TIP3    H2 9298   4.162   0.688   4.214 -0.4583  0.2401 -0.3084
 3098TIP3   OH2 9299   1.838   1.842   0.202 -0.0887  0.0279 -0.3823
 3098TIP3    H1 9300   1.758   1.877   0.164  1.3946  1.8688 -2.0546
 3098TIP3    H2 9301   1.862   1.769   0.144  0.5426  0.8747 -1.2297
 3099TIP3   OH2 9302   3.882   2.502   1.290 -0.4316  0.2901  0.7753
 3099TIP3    H1 9303   3.830   2.575   1.255  1.1261 -0.0551 -2.7433
 3099TIP3    H2 9304   3.825   2.426   1.280  0.1276  0.1123 -1.8782
 3100TIP3   OH2 9305   4.581   3.148   2.479 -0.0364 -0.4515 -0.5613
 3100TIP3    H1 9306   4.677   3.151   2.476  0.2096 -1.3984  2.4761
 3100TIP3    H2 9307   4.560   3.177   2.568 -2.4505 -2.2381 -0.4724
 3101TIP3   OH2 9308   4.563   4.515   0.115 -0.1805  0.2777 -0.1169
 3101TIP3    H1 9309   4.552   4.436   0.063  1.0054  0.9968 -1.5327
 3101TIP3    H2 9310   4.494   4.511   0.181  1.1132 -2.9970  1.2622
 3102TIP3   OH2 9311   4.344   1.415   0.876  0.2529  0.1981 -0.3897
 3102TIP3    H1 9312   4.353   1.359   0.953 -0.2278  0.2791 -0.2744
 3102TIP3    H2 9313   4.289   1.487   0.905 -0.2690  0.0210 -0.9252
 3103TIP3   OH2 9314   1.325   5.019   1.288 -0.1438  0.5065 -0.2533
 3103TIP3    H1 9315   1.296   5.098   1.334  0.7472 -0.5013  2.2177
 3103TIP3    H2 9316   1.368   5.051   1.209  0.4436  2.5189  0.8336
 3104TIP3   OH2 9317   4.792   2.331   2.258 -0.7005 -0.1629  0.4290
 3104TIP3    H1 9318   4.832   2.262   2.311  1.5632  1.4060  0.9140
 3104TIP3    H2 9319   4.858   2.352   2.192 -1.5046  1.2137  0.0210
 3105TIP3   OH2 9320   5.281   1.850   2.628 -0.2937 -0.0329  0.2753
 3105TIP3    H1 9321   5.240   1.768   2.655 -0.3563  0.7162  2.6705
 3105TIP3    H2 9322   5.252   1.914   2.694  3.1439  0.9783  0.9990
 3106TIP3   OH2 9323   0.184   1.397   4.984 -0.0382  0.3481  0.5033
 3106TIP3    H1 9324   0.132   1.477   4.985  0.1541  0.4912 -0.3065
 3106TIP3    H2 9325   0.126   1.331   4.946 -0.3984 -0.0518  1.7129
 3107TIP3   OH2 9326   6.318   1.559   4.970  0.0983  0.2139  0.1145
 3107TIP3    H1 9327   6.337   1.651   4.990  1.8354  0.2427 -1.4685
 3107TIP3    H2 9328   6.230   1.561   4.932 -0.0779  1.1500  0.5379
 3108TIP3   OH2 9329   4.576   2.580   3.471 -0.3815 -0.0816  0.2625
 3108TIP3    H1 9330   4.485   2.605   3.460  0.3256  1.5292 -3.3752
 3108TIP3    H2 9331   4.575   2.485   3.474 -2.1845 -0.0828  0.4206
 3109TIP3   OH2 9332   1.544   0.762   3.508  0.0881  0.0606  0.0522
 3109TIP3    H1 9333   1.518   0.805   3.426  0.5459  0.5063  0.1344
 3109TIP3    H2 9334   1.574   0.675   3.481 -0.8189 -0.2154 -0.1187
 3110TIP3   OH2 9335   1.588   2.429   4.075  0.2875  0.1046 -0.0079
 3110TIP3    H1 9336   1.679   2.429   4.106  0.8140  0.1598 -1.4334
 3110TIP3    H2 9337   1.561   2.338   4.080  1.0309 -0.2057 -1.1619
 3111TIP3   OH2 9338   3.740   1.247   0.345 -0.4329  0.3718  0.6009
 3111TIP3    H1 9339   3.711   1.335   0.322  0.3039  1.1013  2.2698
 3111TIP3    H2 9340   3.762   1.206   0.261  0.0813  2.0893 -0.1620
 3112TIP3   OH2 9341   5.487   3.730   0.651 -0.4867 -0.0160 -0.2023
 3112TIP3    H1 9342   5.539   3.772   0.583 -0.1365  1.1881  0.7870
 3112TIP3    H2 9343   5.551   3.701   0.716 -0.8724 -0.6068 -0.0712
 3113TIP3   OH2 9344   2.054   0.792   3.259  0.2566  0.2319 -0.0851
 3113TIP3    H1 9345   2.020   0.752   3.179 -0.5066  0.3774  0.1517
 3113TIP3    H2 9346   1.984   0.778   3.323 -0.5863  3.0113 -0.2934
 3114TIP3   OH2 9347   3.031   1.363   0.836 -0.0168  0.6661 -0.1261
 3114TIP3    H1 9348   3.031   1.417   0.915  1.2412 -1.6443  1.5719
 3114TIP3    H2 9349   3.117   1.381   0.795  1.1730 -1.2203  1.3924
 3115TIP3   OH2 9350   2.185   3.785   2.758 -0.0978  0.5690  0.2589
 3115TIP3    H1 9351   2.092   3.779   2.783 -0.1245 -1.4042 -0.1593
 3115TIP3    H2 9352   2.189   3.743   2.673  1.5632 -1.7327  1.3932
 3116TIP3   OH2 9353   1.476   2.783   4.791 -0.3136 -0.0428 -0.1845
 3116TIP3    H1 9354   1.569   2.794   4.774 -0.3171  0.3415  0.0150
 3116TIP3    H2 9355   1.466   2.691   4.816  0.1226  0.0851  0.4864
 3117TIP3   OH2 9356   5.295   5.571   3.273  0.2047 -0.1037  0.2446
 3117TIP3    H1 9357   5.348   5.494   3.251 -1.0851 -0.8318 -0.4307
 3117TIP3    H2 9358   5.318   5.591   3.364 -0.7105 -2.3874  1.0365
 3118TIP3   OH2 9359   4.951   1.192   1.431  0.0417 -0.5065 -0.4355
 3118TIP3    H1 9360   4.950   1.174   1.337  0.5635 -0.5572 -0.4337
 3118TIP3    H2 9361   5.024   1.139   1.465  0.7679  0.5931 -0.2225
 3119TIP3   OH2 9362   2.516   0.776   2.044 -0.1738 -0.0552  0.1139
 3119TIP3    H1 9363   2.528   0.688   2.009 -0.3052  0.1555 -0.4710
 3119TIP3    H2 9364   2.472   0.824   1.975 -2.0989 -0.0928  1.2345
 3120TIP3   OH2 9365   5.477   0.880   3.809 -0.1546 -0.3628 -0.7527
 3120TIP3    H1 9366   5.394   0.926   3.820 -0.8840 -1.9669  1.1947
 3120TIP3    H2 9367   5.525   0.931   3.744 -1.8047  1.7844 -0.3911
 3121TIP3   OH2 9368   0.667   5.290   3.192 -0.2819 -0.7786  0.1247
 3121TIP3    H1 9369   0.598   5.251   3.244  1.0593  0.3966  3.0290
 3121TIP3    H2 9370   0.727   5.218   3.173 -0.9546 -1.2892 -0.0752
 3122TIP3   OH2 9371   2.119   1.395   2.343 -0.5883  0.0369  0.3187
 3122TIP3    H1 9372   2.144   1.415   2.433  0.8170  1.9601 -0.4345
 3122TIP3    H2 9373   2.196   1.353   2.306 -1.7650 -2.3937  0.4289
 3123TIP3   OH2 9374   3.748   4.930   3.610  0.5470  0.4797 -0.3900
 3123TIP3    H1 9375   3.804   4.991   3.561  0.1340  0.9416 -0.2927
 3123TIP3    H2 9376   3.784   4.931   3.699  1.3530 -0.4273 -0.6936
 3124TIP3   OH2 9377   5.045   5.143   2.448  0.1784  0.5553  0.1442
 3124TIP3    H1 9378   5.044   5.171   2.539 -0.1313 -0.5995  0.5099
 3124TIP3    H2 9379   5.138   5.128   2.428  0.2766  1.1498  0.1601
 3125TIP3   OH2 9380   0.734   5.528   2.102 -0.2336  0.6020  0.1301
 3125TIP3    H1 9381   0.694   5.473   2.035 -0.4442 -0.5443  1.1704
 3125TIP3    H2 9382   0.819   5.553   2.065 -0.3770  0.0505 -0.5908
 3126TIP3   OH2 9383   0.084   3.606   1.615 -0.4845 -0.0487  0.0406
 3126TIP3    H1 9384   0.087   3.677   1.679 -0.9321 -1.4026  1.6512
 3126TIP3    H2 9385   0.168   3.560   1.626 -0.8350 -0.6786  0.1241
 3127TIP3   OH2 9386   1.169   0.744   2.202 -0.2590  0.1592  0.4953
 3127TIP3    H1 9387   1.197   0.659   2.238 -1.2443  0.2396  1.5354
 3127TIP3    H2 9388   1.073   0.739   2.204 -0.4568 -0.2937 -3.3177
 3128TIP3   OH2 9389   4.858   5.518   3.751  0.2146  0.2347 -0.4002
 3128TIP3    H1 9390   4.834   5.505   3.842 -0.3067  0.7081 -0.4671
 3128TIP3    H2 9391   4.788   5.572   3.714 -0.5258 -1.3937 -1.5509
 3129TIP3   OH2 9392   5.790   5.839   0.497  1.1371 -0.4954 -0.0738
 3129TIP3    H1 9393   5.742   5.872   0.421  2.4302  4.0740  0.7405
 3129TIP3    H2 9394   5.724   5.830   0.565  0.5718 -0.2395 -0.5832
 3130TIP3   OH2 9395   1.752   0.987   4.757 -0.4987  0.5114 -0.2616
 3130TIP3    H1 9396   1.799   1.057   4.803 -0.3795  0.1844  0.1202
 3130TIP3    H2 9397   1.754   1.014   4.665  2.5797 -0.6463 -0.6453
 3131TIP3   OH2 9398   4.046   4.734   2.316 -0.0597 -0.5215  0.0204
 3131TIP3    H1 9399   4.070   4.696   2.231 -0.1677  2.5192 -1.5316
 3131TIP3    H2 9400   4.041   4.828   2.299 -2.3911  0.0223  2.8710
 3132TIP3   OH2 9401   3.358   1.331   1.777 -0.0584  0.0839  0.2011
 3132TIP3    H1 9402   3.449   1.326   1.806  0.6805  2.3925 -1.4110
 3132TIP3    H2 9403   3.346   1.254   1.722  1.8738  1.0858 -1.7884
 3133TIP3   OH2 9404   3.548   2.858   0.787 -0.0589  0.3078 -0.0091
 3133TIP3    H1 9405   3.466   2.906   0.773 -0.1820 -0.2008 -1.0914
 3133TIP3    H2 9406   3.616   2.920   0.759 -0.0866  0.5605  0.4601
 3134TIP3   OH2 9407   1.847   2.361   0.248  0.1252  0.1258 -0.1121
 3134TIP3    H1 9408   1.818   2.335   0.161  2.1382 -2.2431 -0.1950
 3134TIP3    H2 9409   1.776   2.416   0.282 -1.6281 -0.5415 -2.4365
 3135TIP3   OH2 9410   0.091   2.261   0.066  0.3095  0.0513  0.7581
 3135TIP3    H1 9411   0.001   2.262   0.033 -0.1816  1.0797  2.0659
 3135TIP3    H2 9412   0.124   2.349   0.049  0.8043 -0.0873  0.9862
 3136TIP3   OH2 9413   5.183   1.136   0.227  0.2262 -0.7951  0.1625
 3136TIP3    H1 9414   5.190   1.231   0.230  1.2709 -0.8659  0.1749
 3136TIP3    H2 9415   5.229   1.105   0.305 -1.0050 -1.2837  0.7278
 3137TIP3   OH2 9416   2.903   5.061   4.557  0.0057  0.0032  0.2269
 3137TIP3    H1 9417   2.890   5.131   4.493  0.3433  0.6521  0.8432
 3137TIP3    H2 9418   2.965   5.001   4.515  0.1326  0.3596 -0.1061
 3138TIP3   OH2 9419   3.604   2.405   2.480  0.2839  0.5566 -0.4047
 3138TIP3    H1 9420   3.625   2.396   2.387  1.2559 -2.0107 -0.0255
 3138TIP3    H2 9421   3.689   2.399   2.523 -0.1034  2.2667  0.6552
 3139TIP3   OH2 9422   1.512   2.240   1.042 -0.4099 -0.0347 -0.3328
 3139TIP3    H1 9423   1.563   2.321   1.053  0.1651 -0.5149  0.6666
 3139TIP3    H2 9424   1.556   2.176   1.098 -1.0993 -0.9394 -0.8010
 3140TIP3   OH2 9425   6.300   4.051   3.929 -0.2330 -0.1456  0.1267
 3140TIP3    H1 9426   6.385   4.030   3.889 -0.0748  1.3858 -0.3998
 3140TIP3    H2 9427   6.247   4.083   3.856 -0.3892  1.4232  0.9060
 3141TIP3   OH2 9428   5.371   4.458   0.764  0.1156  0.1802 -0.3767
 3141TIP3    H1 9429   5.331   4.542   0.787  2.3607  0.9175  1.2006
 3141TIP3    H2 9430   5.309   4.417   0.705 -2.0293  2.0415  0.4456
 3142TIP3   OH2 9431   0.260   3.900   4.158 -0.4679  0.1199  0.0417
 3142TIP3    H1 9432   0.258   3.865   4.069 -0.7783 -0.0984  0.1329
 3142TIP3    H2 9433   0.353   3.913   4.176 -0.4268  0.5524 -0.4644
 3143TIP3   OH2 9434   5.257   2.298   1.193  0.3522  0.4460 -0.1172
 3143TIP3    H1 9435   5.247   2.387   1.226 -1.0533 -0.3054  1.6781
 3143TIP3    H2 9436   5.179   2.284   1.139  0.4043  0.1870 -0.1260
 3144TIP3   OH2 9437   5.537   3.922   0.458  1.5296  0.2147 -0.3293
 3144TIP3    H1 9438   5.480   3.910   0.382  1.2035  2.0190 -0.3993
 3144TIP3    H2 9439   5.598   3.991   0.432  2.2192 -0.0159  0.6168
 3145TIP3   OH2 9440   0.892   2.499   2.949 -0.2301 -0.1746  0.3919
 3145TIP3    H1 9441   0.935   2.445   2.883  2.1465  1.8581  0.1288
 3145TIP3    H2 9442   0.884   2.585   2.907 -3.2676 -0.0155  1.0206
 3146TIP3   OH2 9443   3.598   1.151   1.207  0.1783 -0.4029 -0.2555
 3146TIP3    H1 9444   3.635   1.227   1.251  0.0633 -0.4592 -0.0633
 3146TIP3    H2 9445   3.606   1.172   1.114 -0.6598  0.2323 -0.1903
 3147TIP3   OH2 9446   4.893   5.345   2.253 -0.4846  0.4228 -0.1149
 3147TIP3    H1 9447   4.905   5.263   2.302 -0.4303  0.9837  0.8244
 3147TIP3    H2 9448   4.838   5.320   2.178 -0.3739 -0.4937  0.0948
 3148TIP3   OH2 9449   1.879   0.419   3.583 -0.2367 -0.5185 -0.7699
 3148TIP3    H1 9450   1.951   0.413   3.520  1.3171 -0.6590  0.9262
 3148TIP3    H2 9451   1.884   0.509   3.616 -0.2812 -0.7890 -0.0128
 3149TIP3   OH2 9452   5.667   5.326   2.234 -0.3981  0.1592 -0.4001
 3149TIP3    H1 9453   5.626   5.251   2.190  0.8255  0.6329 -2.5022
 3149TIP3    H2 9454   5.761   5.313   2.221 -0.0121  0.7677  1.4681
 3150TIP3   OH2 9455   3.145   5.584   4.164 -0.0705  0.4553  0.2624
 3150TIP3    H1 9456   3.137   5.675   4.135  0.3205  0.4459  0.1267
 3150TIP3    H2 9457   3.091   5.535   4.103  0.2055  0.5205 -0.0400
 3151TIP3   OH2 9458   3.089   0.230   3.111  0.2682  0.4174  0.0392
 3151TIP3    H1 9459   3.164   0.174   3.094  0.5184  0.4564  0.9595
 3151TIP3    H2 9460   3.097   0.253   3.204 -0.7154  0.6592  0.0728
 3152TIP3   OH2 9461   0.795   2.621   2.032  0.3187  0.3838  0.1000
 3152TIP3    H1 9462   0.840   2.704   2.014  1.2886  0.0394  0.8665
 3152TIP3    H2 9463   0.864   2.555   2.029 -0.0869 -0.1356  1.4156
 3153TIP3   OH2 9464   3.619   4.297   0.054 -0.0286 -0.1972  0.5738
 3153TIP3    H1 9465   3.597   4.204   0.063  0.5295 -0.2658  1.3318
 3153TIP3    H2 9466   3.714   4.299   0.055 -0.0373  0.4530  1.4149
 3154TIP3   OH2 9467   2.350   4.436   1.364 -0.7198  0.3836 -0.2771
 3154TIP3    H1 9468   2.444   4.451   1.364 -0.5528 -0.6189 -1.3267
 3154TIP3    H2 9469   2.336   4.372   1.435 -0.9570  2.3212  1.5416
 3155TIP3   OH2 9470   6.014   5.476   4.189  0.2961  0.4292  0.6652
 3155TIP3    H1 9471   5.983   5.395   4.229  2.1292 -0.9777 -0.6217
 3155TIP3    H2 9472   5.936   5.517   4.153 -0.3679 -2.0663 -0.9080
 3156TIP3   OH2 9473   2.780   0.969   2.632 -0.3207 -0.1865 -0.0433
 3156TIP3    H1 9474   2.831   1.044   2.663 -1.6547 -0.0737  2.0836
 3156TIP3    H2 9475   2.713   1.008   2.576  1.0326 -0.2016 -1.7509
 3157TIP3   OH2 9476   0.826   1.885   2.598  0.1818 -0.4989 -0.3563
 3157TIP3    H1 9477   0.918   1.860   2.591  0.2204 -0.5412  0.3075
 3157TIP3    H2 9478   0.818   1.961   2.540  0.5376 -0.7402 -0.7299
 3158TIP3   OH2 9479   5.894   0.210   2.392  0.0157 -0.1786  0.9100
 3158TIP3    H1 9480   5.896   0.139   2.455 -0.9066 -0.6010  0.4887
 3158TIP3    H2 9481   5.888   0.290   2.445  0.6778 -0.4363  1.3738
 3159TIP3   OH2 9482   2.858   1.730   1.147  0.3378 -0.0950  0.1408
 3159TIP3    H1 9483   2.924   1.672   1.109 -0.2794 -0.2123 -0.7945
 3159TIP3    H2 9484   2.798   1.748   1.075 -0.5754  0.1213  0.9347
 3160TIP3   OH2 9485   4.859   4.942   0.537  0.1074  0.1769 -0.4846
 3160TIP3    H1 9486   4.802   4.923   0.611  1.4555 -0.4199  0.4578
 3160TIP3    H2 9487   4.941   4.972   0.577  0.8619 -0.1432 -1.7208
 3161TIP3   OH2 9488   6.257   0.634   2.917 -0.7152 -0.4069 -0.0501
 3161TIP3    H1 9489   6.289   0.700   2.856  1.0640 -2.0775 -1.0592
 3161TIP3    H2 9490   6.332   0.618   2.975 -0.4671 -2.6954 -0.9113
 3162TIP3   OH2 9491   5.996   3.707   2.791 -0.3300 -0.4739  0.0648
 3162TIP3    H1 9492   5.922   3.735   2.846  1.0556  0.2221  1.6611
 3162TIP3    H2 9493   6.042   3.788   2.769  0.3545 -0.9565 -0.3270
 3163TIP3   OH2 9494   3.444   0.714   1.609 -0.5079  0.3029  0.1539
 3163TIP3    H1 9495   3.453   0.687   1.517 -1.0271 -0.4237  0.3109
 3163TIP3    H2 9496   3.353   0.743   1.617 -0.7453 -0.5626  0.6722
 3164TIP3   OH2 9497   1.884   5.401   1.964  0.0300  0.5155  0.3732
 3164TIP3    H1 9498   1.966   5.424   1.919  0.2340 -2.9674 -1.2982
 3164TIP3    H2 9499   1.904   5.413   2.057  2.6625 -0.7635  0.0524
 3165TIP3   OH2 9500   1.807   1.416   4.663  0.2785 -0.3221  0.1421
 3165TIP3    H1 9501   1.857   1.494   4.684  1.8360 -1.0794 -0.5449
 3165TIP3    H2 9502   1.872   1.345   4.663 -0.4963 -1.1360 -2.0945
 3166TIP3   OH2 9503   2.366   4.962   1.713 -0.1325  0.2518 -0.0696
 3166TIP3    H1 9504   2.417   5.038   1.686 -3.2034  1.4110 -3.4628
 3166TIP3    H2 9505   2.324   4.989   1.794 -0.0912  1.6750 -0.4990
 3167TIP3   OH2 9506   0.893   3.261   1.329 -0.2705  0.1125 -0.1944
 3167TIP3    H1 9507   0.855   3.332   1.277  0.6198 -0.1023 -1.1810
 3167TIP3    H2 9508   0.823   3.196   1.336 -0.1148 -0.2934 -2.0049
 3168TIP3   OH2 9509   3.727   2.799   1.110 -0.2374  0.5803 -0.0555
 3168TIP3    H1 9510   3.703   2.891   1.110  0.8254  0.8719 -0.4620
 3168TIP3    H2 9511   3.803   2.794   1.052  0.0404 -0.4606  0.3806
 3169TIP3   OH2 9512   1.284   4.383   3.448 -0.4602  0.3701  0.0015
 3169TIP3    H1 9513   1.338   4.448   3.493  1.2404 -1.3068  0.5061
 3169TIP3    H2 9514   1.343   4.343   3.384 -1.2634 -1.0920  0.1232
 3170TIP3   OH2 9515   6.192   1.392   0.910 -0.0391 -0.3469  0.1117
 3170TIP3    H1 9516   6.119   1.453   0.924  1.3816  1.7249 -0.9197
 3170TIP3    H2 9517   6.253   1.412   0.980  0.1344 -1.1165  0.1810
 3171TIP3   OH2 9518   2.330   4.554   4.652  0.1991 -0.2306  0.1498
 3171TIP3    H1 9519   2.404   4.583   4.599 -1.3042  1.1319 -1.3337
 3171TIP3    H2 9520   2.331   4.458   4.645  0.3998 -0.1197 -1.8987
 3172TIP3   OH2 9521   1.572   4.731   4.835  0.2571  0.1486  0.2423
 3172TIP3    H1 9522   1.543   4.640   4.825  1.0502 -0.1499  0.6585
 3172TIP3    H2 9523   1.568   4.748   4.929  1.7799 -0.0206  0.3542
 3173TIP3   OH2 9524   1.362   1.146   0.567 -0.0953 -1.1203 -0.0037
 3173TIP3    H1 9525   1.422   1.172   0.497  0.9105  2.1855  1.8925
 3173TIP3    H2 9526   1.289   1.208   0.561 -0.0886 -0.8997  1.7030
 3174TIP3   OH2 9527   2.639   5.415   1.917 -0.0307 -0.0255 -0.4704
 3174TIP3    H1 9528   2.659   5.397   1.825  1.3777  3.1124 -0.8966
 3174TIP3    H2 9529   2.627   5.328   1.955  1.0694 -1.5396 -3.2167
 3175TIP3   OH2 9530   3.726   5.463   1.246  0.2445  0.0988 -0.2418
 3175TIP3    H1 9531   3.669   5.490   1.319  1.4959 -0.1751  0.8814
 3175TIP3    H2 9532   3.668   5.415   1.187 -0.7564  0.1201  0.6813
 3176TIP3   OH2 9533   3.724   3.225   2.368  0.0132 -0.1373  0.4062
 3176TIP3    H1 9534   3.818   3.206   2.368  0.3125  1.0284 -1.8077
 3176TIP3    H2 9535   3.709   3.275   2.449  1.4949  0.4713  0.3315
 3177TIP3   OH2 9536   3.049   4.605   4.422  0.6218  0.0530 -0.6574
 3177TIP3    H1 9537   2.989   4.600   4.496 -0.9837 -1.5252 -1.9644
 3177TIP3    H2 9538   3.113   4.536   4.437  0.9484  0.4375 -0.2448
 3178TIP3   OH2 9539   0.881   4.408   1.252  0.0283 -0.1101 -0.0584
 3178TIP3    H1 9540   0.902   4.498   1.224 -0.1787 -0.1970 -0.5054
 3178TIP3    H2 9541   0.809   4.418   1.313  1.8233  0.2718  2.1406
 3179TIP3   OH2 9542   0.621   4.698   0.452  0.1094 -0.4766 -0.0865
 3179TIP3    H1 9543   0.697   4.752   0.471 -0.2923  1.0791 -2.4162
 3179TIP3    H2 9544   0.619   4.693   0.356 -3.6263  1.0096 -0.2514
 3180TIP3   OH2 9545   5.732   3.174   4.221  0.0550  0.5129 -0.4342
 3180TIP3    H1 9546   5.780   3.235   4.165  0.6372 -1.0742 -1.7392
 3180TIP3    H2 9547   5.798   3.137   4.279  0.3147 -1.0365 -1.6539
 3181TIP3   OH2 9548   0.368   2.607   3.485  0.1611 -0.0885 -0.0309
 3181TIP3    H1 9549   0.423   2.684   3.497  1.4648 -0.9210 -0.4782
 3181TIP3    H2 9550   0.288   2.640   3.446  1.0298  0.9433 -1.0119
 3182TIP3   OH2 9551   3.097   4.749   0.396 -0.7962  0.4333 -0.4944
 3182TIP3    H1 9552   3.167   4.697   0.435 -0.3104  1.3248 -0.1665
 3182TIP3    H2 9553   3.026   4.746   0.460 -0.6617  0.4133 -0.3462
 3183TIP3   OH2 9554   1.473   2.828   4.037  0.3921  0.3202 -0.1528
 3183TIP3    H1 9555   1.406   2.830   4.106 -1.1073  1.1454 -1.5738
 3183TIP3    H2 9556   1.427   2.796   3.960  1.3495  1.8942 -1.4454
 3184TIP3   OH2 9557   0.372   5.213   1.200 -0.1935 -0.2813 -0.0313
 3184TIP3    H1 9558   0.370   5.145   1.133 -1.2254 -0.2094 -0.0900
 3184TIP3    H2 9559   0.347   5.167   1.281  0.5001 -0.2550  0.2053
 3185TIP3   OH2 9560   6.126   0.670   3.837  0.1072 -0.2773  0.2475
 3185TIP3    H1 9561   6.119   0.575   3.846  1.3734 -0.5108 -0.8713
 3185TIP3    H2 9562   6.209   0.693   3.879 -0.2950  0.3741  0.7093
 3186TIP3   OH2 9563   0.045   3.027   3.927  0.4342 -0.0073  0.5078
 3186TIP3    H1 9564   0.080   3.063   3.846  0.1661 -0.7855  0.0360
 3186TIP3    H2 9565   0.054   3.098   3.991  0.0416  0.8475 -0.3634
 3187TIP3   OH2 9566   5.247   1.992   0.910 -0.2866 -0.5392 -0.0454
 3187TIP3    H1 9567   5.278   1.902   0.907  0.1347 -0.4404  0.8166
 3187TIP3    H2 9568   5.164   1.987   0.957 -0.2471 -0.4779  0.0319
 3188TIP3   OH2 9569   2.765   5.412   3.963  0.0142 -0.3479 -0.4589
 3188TIP3    H1 9570   2.689   5.467   3.985 -0.6585 -1.5800  0.4759
 3188TIP3    H2 9571   2.742   5.326   3.999  1.9711 -0.6901  0.0431
 3189TIP3   OH2 9572   6.341   0.526   3.316  0.2122 -0.2208 -0.1014
 3189TIP3    H1 9573   6.254   0.489   3.299 -0.1958  0.7040 -0.0648
 3189TIP3    H2 9574   6.327   0.621   3.316  1.2577 -0.0630 -0.2570
 3190TIP3   OH2 9575   3.120   5.477   0.330  0.2369  0.1644 -0.0949
 3190TIP3    H1 9576   3.156   5.394   0.299 -0.3243  0.3382 -1.2704
 3190TIP3    H2 9577   3.189   5.541   0.312 -0.2052  0.3167 -1.3231
 3191TIP3   OH2 9578   6.027   5.661   4.884 -0.0469 -0.2930 -0.1203
 3191TIP3    H1 9579   6.053   5.743   4.925  2.1866 -1.1162  0.2669
 3191TIP3    H2 9580   6.087   5.596   4.921 -0.3404 -1.7209 -1.9974
 3192TIP3   OH2 9581   2.814   0.387   4.785  0.1131  0.5711 -0.2470
 3192TIP3    H1 9582   2.816   0.379   4.880  2.0432  0.8770 -0.2365
 3192TIP3    H2 9583   2.885   0.447   4.764 -1.4416  1.9831 -1.7716
 3193TIP3   OH2 9584   5.062   3.129   4.979 -0.2817  0.0182  0.4057
 3193TIP3    H1 9585   5.027   3.218   4.974 -0.7533 -0.1704  0.2963
 3193TIP3    H2 9586   5.063   3.099   4.888 -0.2638 -0.1395  0.4573
 3194TIP3   OH2 9587   2.099   1.617   4.184 -0.4836  0.5729  0.4393
 3194TIP3    H1 9588   2.174   1.677   4.188  0.7819 -0.8946 -0.0541
 3194TIP3    H2 9589   2.070   1.622   4.093 -0.8517  0.9731  0.5761
 3195TIP3   OH2 9590   4.473   4.376   4.980 -0.0875  0.2660  0.1067
 3195TIP3    H1 9591   4.485   4.432   5.057 -0.3888  0.0317  0.3268
 3195TIP3    H2 9592   4.559   4.376   4.937 -0.3998  1.9373 -0.6175
 3196TIP3   OH2 9593   2.369   4.538   3.027  0.0206  0.8637  0.1423
 3196TIP3    H1 9594   2.295   4.484   3.056 -0.2781  1.3127  0.2335
 3196TIP3    H2 9595   2.330   4.623   3.008  0.7350  1.5614  1.6537
 3197TIP3   OH2 9596   0.969   5.141   3.729  0.0013 -0.0157  0.2054
 3197TIP3    H1 9597   0.929   5.188   3.655  0.9677 -0.6916 -0.7750
 3197TIP3    H2 9598   1.026   5.206   3.770  0.0955  0.1285 -0.1504
 3198TIP3   OH2 9599   0.942   2.558   3.472  0.6541 -0.0517 -0.3122
 3198TIP3    H1 9600   0.865   2.568   3.416  0.0025 -0.0573  0.5403
 3198TIP3    H2 9601   1.013   2.601   3.425  0.1787 -0.2419 -1.2226
 3199TIP3   OH2 9602   2.718   2.115   1.391  0.1813  0.5072  0.2321
 3199TIP3    H1 9603   2.687   2.159   1.470 -0.7278  0.2849  0.0155
 3199TIP3    H2 9604   2.726   2.184   1.326  1.2283  0.7397  0.5947
 3200TIP3   OH2 9605   5.622   0.917   0.355  0.1345  0.3026  0.2010
 3200TIP3    H1 9606   5.644   0.902   0.263  0.7949  0.9759  0.2386
 3200TIP3    H2 9607   5.640   0.834   0.399  0.0525  0.0552 -0.2279
 3201TIP3   OH2 9608   0.976   3.276   1.872  0.3123 -0.3597  0.0996
 3201TIP3    H1 9609   1.017   3.334   1.807 -0.5670 -0.7023 -0.7839
 3201TIP3    H2 9610   0.989   3.188   1.836 -1.1661 -0.4817 -0.1955
 3202TIP3   OH2 9611   5.716   0.489   2.890  0.1425  0.7308  0.1623
 3202TIP3    H1 9612   5.733   0.575   2.929  2.6979  1.2119 -1.7291
 3202TIP3    H2 9613   5.803   0.453   2.874 -0.8622 -2.1006  0.5673
 3203TIP3   OH2 9614   1.633   0.963   1.768  0.2754  0.1989 -0.1236
 3203TIP3    H1 9615   1.686   0.970   1.689  0.3832 -0.8520 -0.1585
 3203TIP3    H2 9616   1.611   1.054   1.791 -0.8444  0.4631 -2.0753
 3204TIP3   OH2 9617   3.379   4.922   1.582 -0.3826  0.3177  0.3649
 3204TIP3    H1 9618   3.397   4.932   1.488 -0.2950 -2.6068 -0.0459
 3204TIP3    H2 9619   3.463   4.938   1.624  0.1755 -0.6607 -0.3260
 3205TIP3   OH2 9620   4.628   5.348   1.653 -0.0428 -0.4121 -0.3112
 3205TIP3    H1 9621   4.597   5.268   1.609 -0.5460  0.2032 -1.1153
 3205TIP3    H2 9622   4.638   5.412   1.582 -1.3168  0.7606  0.5055
 3206TIP3   OH2 9623   4.400   0.185   3.080  0.5194 -0.3072  0.0687
 3206TIP3    H1 9624   4.338   0.252   3.051  0.0317 -0.5045  0.6276
 3206TIP3    H2 9625   4.477   0.233   3.108 -0.4265  0.1598  2.0148
 3207TIP3   OH2 9626   5.280   2.583   4.399 -0.2413 -0.9120 -0.1030
 3207TIP3    H1 9627   5.287   2.527   4.321 -1.0619 -0.6948 -0.3467
 3207TIP3    H2 9628   5.214   2.539   4.453 -0.6780 -0.3454 -0.1645
 3208TIP3   OH2 9629   5.767   0.185   0.485  0.4408  0.3687  0.0643
 3208TIP3    H1 9630   5.854   0.224   0.494  0.1467  0.9598  0.3679
 3208TIP3    H2 9631   5.768   0.110   0.544  0.1508  1.4133  1.4504
 3209TIP3   OH2 9632   4.605   5.778   2.484  0.4080 -0.0713 -0.1324
 3209TIP3    H1 9633   4.619   5.836   2.409 -1.0267  1.1652  0.5003
 3209TIP3    H2 9634   4.688   5.780   2.532  0.4818  1.3053 -0.2643
 3210TIP3   OH2 9635   1.317   0.129   3.035 -0.4073 -0.4966  0.1844
 3210TIP3    H1 9636   1.248   0.195   3.039  0.5963  0.5262  2.6486
 3210TIP3    H2 9637   1.333   0.106   3.127  0.9110 -2.4571 -0.4726
 3211TIP3   OH2 9638   5.782   3.813   2.485 -0.2113 -0.6418 -0.0399
 3211TIP3    H1 9639   5.814   3.901   2.467 -2.4811  0.0889 -0.8563
 3211TIP3    H2 9640   5.827   3.757   2.421 -0.3661  0.2790 -0.9794
 3212TIP3   OH2 9641   0.378   5.231   3.220  0.0613  0.6086 -0.1035
 3212TIP3    H1 9642   0.388   5.136   3.227 -0.2318  0.5838 -0.0089
 3212TIP3    H2 9643   0.290   5.248   3.251 -1.0620  0.5596 -2.9282
 3213TIP3   OH2 9644   0.022   0.440   0.069  0.1284  0.6227 -0.2229
 3213TIP3    H1 9645   0.021   0.373   0.001  0.2163  0.4461 -0.0547
 3213TIP3    H2 9646   0.111   0.476   0.066 -0.3142  1.6958 -1.2281
 3214TIP3   OH2 9647   4.407   5.561   1.298 -0.1581  0.3132 -0.1042
 3214TIP3    H1 9648   4.390   5.655   1.296 -0.3367  0.3235 -3.3457
 3214TIP3    H2 9649   4.320   5.521   1.287  0.1686 -0.0790 -1.5567
 3215TIP3   OH2 9650   5.641   5.815   0.723 -0.6958  0.4739  0.3776
 3215TIP3    H1 9651   5.692   5.846   0.797 -0.5542  0.9638  0.0787
 3215TIP3    H2 9652   5.552   5.846   0.740 -0.7457  0.2502  0.5329
 3216TIP3   OH2 9653   4.138   1.843   0.148 -0.1962  0.3947  0.3234
 3216TIP3    H1 9654   4.202   1.880   0.208 -0.5020 -0.0138  0.9103
 3216TIP3    H2 9655   4.082   1.917   0.125  0.8679  0.9057 -0.7251
 3217TIP3   OH2 9656   3.968   2.277   2.811 -0.2735 -0.1930 -0.2078
 3217TIP3    H1 9657   4.019   2.198   2.798  0.0177 -0.4234  1.9466
 3217TIP3    H2 9658   3.902   2.253   2.877  0.4254  1.5625  1.2294
 3218TIP3   OH2 9659   1.442   2.643   2.437 -0.5769  0.0106 -0.1276
 3218TIP3    H1 9660   1.351   2.634   2.411 -0.1730 -0.6399 -1.4250
 3218TIP3    H2 9661   1.461   2.737   2.425 -0.9446  0.0638 -0.2944
 3219TIP3   OH2 9662   4.158   5.064   2.595 -0.4010  0.2288 -0.7392
 3219TIP3    H1 9663   4.226   5.125   2.567  1.0236 -1.1651 -0.4581
 3219TIP3    H2 9664   4.185   4.980   2.559 -1.5039 -0.5412  0.1557
 3220TIP3   OH2 9665   3.582   5.311   0.595 -0.4182  0.3205 -0.2437
 3220TIP3    H1 9666   3.542   5.226   0.578 -1.8329  0.6645  1.1220
 3220TIP3    H2 9667   3.660   5.313   0.539  0.3178 -2.3506  0.5420
 3221TIP3   OH2 9668   2.986   0.192   1.678 -0.1327  0.0868  0.9388
 3221TIP3    H1 9669   3.025   0.232   1.600  0.8308  0.2285  1.4708
 3221TIP3    H2 9670   2.996   0.097   1.664 -1.5053  0.0376  0.1355
 3222TIP3   OH2 9671   3.315   0.340   2.331  0.0845  0.1402 -0.5235
 3222TIP3    H1 9672   3.394   0.290   2.349  1.2324  2.0787  0.1626
 3222TIP3    H2 9673   3.342   0.405   2.266 -0.8835  0.9557 -0.1329
 3223TIP3   OH2 9674   2.034   4.366   2.290  0.1878  0.4392 -0.1642
 3223TIP3    H1 9675   2.015   4.323   2.373 -0.1828  0.1952 -0.3720
 3223TIP3    H2 9676   2.126   4.392   2.297 -0.0748  1.1962  0.6585
 3224TIP3   OH2 9677   4.636   5.592   0.801 -0.2279  0.7205 -0.0072
 3224TIP3    H1 9678   4.540   5.591   0.792 -0.1096  1.4378 -1.8338
 3224TIP3    H2 9679   4.651   5.599   0.895 -1.9636  0.1774  0.3465
 3225TIP3   OH2 9680   0.278   1.209   1.176  0.3257 -0.5129  0.2356
 3225TIP3    H1 9681   0.193   1.250   1.191  0.7329  0.3955  0.1050
 3225TIP3    H2 9682   0.341   1.272   1.209  1.0035 -0.7299 -0.6188
 3226TIP3   OH2 9683   2.303   5.947   4.807 -0.1421 -0.2762 -0.2413
 3226TIP3    H1 9684   2.292   5.911   4.895 -2.2946  1.1770  0.1619
 3226TIP3    H2 9685   2.259   5.884   4.750  2.7400 -2.1262 -0.6041
 3227TIP3   OH2 9686   0.813   1.859   0.517  0.0711 -0.1659 -0.8894
 3227TIP3    H1 9687   0.799   1.852   0.611  0.0328  1.0231 -0.7955
 3227TIP3    H2 9688   0.866   1.782   0.495  0.3006 -0.3184  0.1370
 3228TIP3   OH2 9689   3.979   0.456   0.707 -0.1322  0.0326 -0.1330
 3228TIP3    H1 9690   3.895   0.411   0.695 -0.0558 -0.2814  0.4625
 3228TIP3    H2 9691   4.033   0.426   0.634  0.0789 -1.2424  0.5178
 3229TIP3   OH2 9692   4.802   4.665   1.901 -0.0986  0.2240 -0.0438
 3229TIP3    H1 9693   4.811   4.652   1.996 -3.4336 -2.1164  0.1268
 3229TIP3    H2 9694   4.759   4.750   1.893  1.6324  1.1902  0.3563
 3230TIP3   OH2 9695   5.277   5.477   4.907  0.1539 -0.3205 -0.2550
 3230TIP3    H1 9696   5.248   5.553   4.956 -0.4910 -0.4626 -0.4107
 3230TIP3    H2 9697   5.273   5.405   4.970 -1.4061 -0.6529 -0.6841
 3231TIP3   OH2 9698   0.381   0.796   4.705 -0.7065 -0.4104 -0.0657
 3231TIP3    H1 9699   0.442   0.869   4.695 -0.8645 -0.3984 -1.1314
 3231TIP3    H2 9700   0.435   0.718   4.690 -0.6271 -0.4963  0.6365
 3232TIP3   OH2 9701   4.536   2.414   4.034  0.7117 -0.7491  0.3042
 3232TIP3    H1 9702   4.559   2.492   4.084  0.1045 -1.3480  1.5447
 3232TIP3    H2 9703   4.509   2.448   3.948  0.1003  0.4436  0.9452
 3233TIP3   OH2 9704   0.568   5.454   0.899  0.3369 -0.3896  0.6390
 3233TIP3    H1 9705   0.659   5.480   0.907  0.3585 -0.3880  0.3939
 3233TIP3    H2 9706   0.572   5.361   0.876  0.2738 -0.4345  0.8101
 3234TIP3   OH2 9707   2.988   3.528   2.203 -0.5847  0.2707 -0.3546
 3234TIP3    H1 9708   2.948   3.449   2.241 -1.8129  1.2695  0.5293
 3234TIP3    H2 9709   3.037   3.567   2.275  1.2806 -0.4412 -1.1875
 3235TIP3   OH2 9710   6.364   3.884   3.309 -0.6370 -0.1586  0.4413
 3235TIP3    H1 9711   6.357   3.978   3.327 -0.4705  0.2589 -1.4491
 3235TIP3    H2 9712   6.273   3.853   3.310 -0.6369 -0.1729  1.8741
 3236TIP3   OH2 9713   6.066   5.975   4.345 -0.0647 -0.4915  0.3486
 3236TIP3    H1 9714   5.989   5.940   4.299  0.7688 -0.1647 -1.3974
 3236TIP3    H2 9715   6.138   5.920   4.316  0.2481 -1.5043  2.8301
 3237TIP3   OH2 9716   5.543   2.548   3.396 -0.0688  0.2455 -0.3638
 3237TIP3    H1 9717   5.588   2.467   3.371  0.1123  0.6991 -1.5657
 3237TIP3    H2 9718   5.611   2.616   3.389 -0.4305  0.6286 -0.1763
 3238TIP3   OH2 9719   0.791   5.751   1.161  0.0106 -0.1598 -0.8039
 3238TIP3    H1 9720   0.787   5.656   1.168  2.5376 -0.2752 -0.0479
 3238TIP3    H2 9721   0.710   5.782   1.201  0.5283 -1.9114  1.7920
 3239TIP3   OH2 9722   2.716   5.346   4.368  0.0732 -0.2671 -0.2501
 3239TIP3    H1 9723   2.684   5.300   4.446 -1.0177  0.0659 -0.4828
 3239TIP3    H2 9724   2.637   5.365   4.317  0.7134  0.0515 -1.1475
 3240TIP3   OH2 9725   0.831   5.429   1.130  0.1853  0.2901  0.1059
 3240TIP3    H1 9726   0.774   5.354   1.114  0.6958  0.0460 -0.5814
 3240TIP3    H2 9727   0.845   5.428   1.225 -0.6756  0.1594  0.2427
 3241TIP3   OH2 9728   1.285   1.814   3.385  0.2196 -0.3119  0.3848
 3241TIP3    H1 9729   1.352   1.806   3.452  1.6188  2.2388 -0.5578
 3241TIP3    H2 9730   1.304   1.744   3.323  1.1499 -0.4641  0.8300
 3242TIP3   OH2 9731   1.992   3.526   3.754 -0.0103  0.0834 -0.1552
 3242TIP3    H1 9732   1.987   3.576   3.835  0.4718  0.2815 -0.2417
 3242TIP3    H2 9733   1.929   3.455   3.765 -0.9590  0.9102 -0.1765
 3243TIP3   OH2 9734   1.497   4.466   4.785  0.4674  0.1245  0.0563
 3243TIP3    H1 9735   1.458   4.378   4.788 -0.3820  0.4827 -0.3236
 3243TIP3    H2 9736   1.578   4.454   4.735 -0.7307 -0.0602 -1.9639
 3244TIP3   OH2 9737   0.144   4.383   1.855  0.0704 -0.4187 -0.2795
 3244TIP3    H1 9738   0.237   4.364   1.848  0.1993 -0.3563  1.0448
 3244TIP3    H2 9739   0.138   4.478   1.858  0.1207 -0.4344  1.1577
 3245TIP3   OH2 9740   5.907   2.216   4.313 -0.1800 -0.1256  0.2826
 3245TIP3    H1 9741   5.829   2.222   4.258 -0.3323 -0.7285  0.4151
 3245TIP3    H2 9742   5.895   2.283   4.380 -1.4353 -1.3387  1.3334
 3246TIP3   OH2 9743   5.451   4.245   1.388  0.0598 -0.4083  0.4236
 3246TIP3    H1 9744   5.446   4.159   1.345  1.6865 -0.1081 -0.4497
 3246TIP3    H2 9745   5.466   4.224   1.481  1.0595 -1.0956  0.1299
 3247TIP3   OH2 9746   3.837   2.364   0.573  0.1315  0.9998 -0.2170
 3247TIP3    H1 9747   3.851   2.313   0.494 -0.2352  0.0351  0.3154
 3247TIP3    H2 9748   3.741   2.370   0.581  0.0841 -1.0796  1.4590
 3248TIP3   OH2 9749   3.619   0.841   3.017 -0.0288  0.2707  0.3386
 3248TIP3    H1 9750   3.542   0.844   2.960 -1.6050  0.1519  2.3236
 3248TIP3    H2 9751   3.610   0.758   3.064  2.0990 -0.4002 -0.3400
 3249TIP3   OH2 9752   4.911   1.092   5.160  0.2885  0.7537 -0.1157
 3249TIP3    H1 9753   5.003   1.070   5.172  0.5440  1.1155 -1.2790
 3249TIP3    H2 9754   4.890   1.060   5.072 -1.0780 -0.5330  0.6303
 3250TIP3   OH2 9755   5.048   4.768   3.959  0.2504 -0.5254  0.1243
 3250TIP3    H1 9756   5.112   4.765   3.888 -1.1012  0.2934 -1.1979
 3250TIP3    H2 9757   5.079   4.837   4.017  1.4857 -1.3441  0.4812
 3251TIP3   OH2 9758   5.780   5.013   3.932  0.0712 -0.3304 -0.1992
 3251TIP3    H1 9759   5.738   4.943   3.982 -1.1095 -0.6090 -1.5313
 3251TIP3    H2 9760   5.720   5.087   3.940 -0.1406 -0.3894 -1.2236
 3252TIP3   OH2 9761   0.393   0.873   4.292  0.5875  0.6595 -0.7873
 3252TIP3    H1 9762   0.448   0.948   4.273 -0.7189  1.6386 -0.8131
 3252TIP3    H2 9763   0.451   0.812   4.338  1.8522  1.3551 -1.3991
 3253TIP3   OH2 9764   3.208   4.662   2.036  0.1363 -0.1021  0.0945
 3253TIP3    H1 9765   3.267   4.671   1.961  0.2881 -0.1183  0.2111
 3253TIP3    H2 9766   3.256   4.701   2.110 -0.5241  1.0925 -0.0740
 3254TIP3   OH2 9767   5.142   4.702   3.387 -0.9131  0.0379 -0.0595
 3254TIP3    H1 9768   5.105   4.790   3.379 -0.0696  0.4557  0.4250
 3254TIP3    H2 9769   5.108   4.669   3.470 -0.6022  0.2251  0.1445
 3255TIP3   OH2 9770   1.885   5.376   2.687 -0.0327  0.0820  0.1099
 3255TIP3    H1 9771   1.875   5.461   2.644 -0.0250  0.5889  1.1099
 3255TIP3    H2 9772   1.927   5.395   2.770 -0.5782 -0.8297  0.6073
 3256TIP3   OH2 9773   5.498   0.810   1.350  0.2524 -0.2942 -0.0723
 3256TIP3    H1 9774   5.581   0.768   1.371  1.4136  1.6806 -0.3831
 3256TIP3    H2 9775   5.473   0.855   1.431 -0.6090 -0.9697  0.0559
 3257TIP3   OH2 9776   0.358   5.209   5.203  0.0576 -0.0854  0.3480
 3257TIP3    H1 9777   0.283   5.267   5.189  0.8302  1.0456  0.6615
 3257TIP3    H2 9778   0.348   5.139   5.139 -0.5297  0.8010 -0.5477
 3258TIP3   OH2 9779   2.798   3.752   3.288  0.4409 -0.3169  0.0209
 3258TIP3    H1 9780   2.761   3.826   3.239  2.3694  1.8134  1.5433
 3258TIP3    H2 9781   2.778   3.772   3.380  1.0406 -1.7122  0.4799
 3259TIP3   OH2 9782   1.209   2.971   4.390  0.6563  0.6127  0.0325
 3259TIP3    H1 9783   1.238   2.943   4.477  0.1402 -0.4678 -0.1221
 3259TIP3    H2 9784   1.255   2.913   4.330 -1.9472 -1.4079 -0.2128
 3260TIP3   OH2 9785   4.851   0.396   3.310  0.1892  0.1188  0.1827
 3260TIP3    H1 9786   4.902   0.463   3.265 -2.0116  1.0655 -1.0521
 3260TIP3    H2 9787   4.771   0.441   3.337  0.3266 -1.0357  2.9436
 3261TIP3   OH2 9788   5.642   4.215   2.798 -0.6573  0.3752 -0.0104
 3261TIP3    H1 9789   5.701   4.256   2.860  0.2007  0.3121 -0.7606
 3261TIP3    H2 9790   5.555   4.225   2.836 -0.3829  2.1584  0.2006
 3262TIP3   OH2 9791   5.327   5.268   4.176  0.1135 -0.5677  0.0618
 3262TIP3    H1 9792   5.413   5.291   4.140 -0.8629  0.2085 -1.9820
 3262TIP3    H2 9793   5.291   5.352   4.206  0.3247 -0.9972  1.5927
 3263TIP3   OH2 9794   6.100   2.479   0.836  0.0559 -0.4180  0.1664
 3263TIP3    H1 9795   6.053   2.551   0.878  0.8331 -0.0473  0.4032
 3263TIP3    H2 9796   6.040   2.405   0.843 -0.4038 -0.0093  0.6618
 3264TIP3   OH2 9797   4.163   4.619   4.632 -0.2011 -0.7074 -0.1489
 3264TIP3    H1 9798   4.110   4.661   4.699  0.1891  1.1421 -0.9432
 3264TIP3    H2 9799   4.102   4.562   4.585 -0.6064 -1.5690  1.3432
 3265TIP3   OH2 9800   1.639   0.457   3.434  0.4215 -0.5213  0.2830
 3265TIP3    H1 9801   1.718   0.450   3.488  0.4838 -1.2044  0.1093
 3265TIP3    H2 9802   1.643   0.381   3.376 -0.1865 -0.3646  0.0351
 3266TIP3   OH2 9803   3.892   4.567   0.390 -0.5018  0.1304 -0.0719
 3266TIP3    H1 9804   3.874   4.661   0.386  0.7833  0.4239  0.3982
 3266TIP3    H2 9805   3.955   4.558   0.462  0.4416 -0.9085 -0.9797
 3267TIP3   OH2 9806   0.669   4.629   3.137 -0.5434  0.3319 -0.1031
 3267TIP3    H1 9807   0.649   4.619   3.230 -2.6347  2.5264 -0.2112
 3267TIP3    H2 9808   0.758   4.662   3.134  0.4672 -2.0443  0.9102
 3268TIP3   OH2 9809   5.250   2.266   4.414 -0.1020 -0.5161  0.8292
 3268TIP3    H1 9810   5.178   2.303   4.465 -1.7658 -1.1109 -0.9218
 3268TIP3    H2 9811   5.276   2.336   4.355 -0.3449 -0.7830  0.3971
 3269TIP3   OH2 9812   4.474   0.831   4.499  0.5352 -0.3134 -0.0940
 3269TIP3    H1 9813   4.441   0.819   4.588 -1.0378  1.2964 -0.4078
 3269TIP3    H2 9814   4.550   0.773   4.494  0.9057 -0.1506  2.4184
 3270TIP3   OH2 9815   0.560   2.728   1.910  0.6614 -0.4171  0.5065
 3270TIP3    H1 9816   0.625   2.666   1.943 -0.5813 -1.3081  1.3880
 3270TIP3    H2 9817   0.596   2.814   1.930  0.6429 -0.9079  2.8956
 3271TIP3   OH2 9818   5.272   3.036   1.937  0.2327 -0.1762  0.1955
 3271TIP3    H1 9819   5.228   3.099   1.880  0.4884  0.3501  0.5790
 3271TIP3    H2 9820   5.265   3.074   2.024  0.5605 -0.5882  0.4016
 3272TIP3   OH2 9821   5.809   5.429   2.791 -0.2075 -0.4291  0.2309
 3272TIP3    H1 9822   5.873   5.426   2.720 -2.1639 -0.9933 -1.6066
 3272TIP3    H2 9823   5.845   5.371   2.858  1.7798  0.2515 -0.1772
 3273TIP3   OH2 9824   3.105   0.527   3.937  0.0506 -0.2438  0.6757
 3273TIP3    H1 9825   3.182   0.577   3.964  1.3900 -3.1975  2.8309
 3273TIP3    H2 9826   3.073   0.487   4.018 -2.6276 -0.6294 -0.4874
 3274TIP3   OH2 9827   5.675   4.611   4.911 -0.4633  0.3991 -0.6360
 3274TIP3    H1 9828   5.678   4.603   4.815  1.6552  0.5670 -0.6296
 3274TIP3    H2 9829   5.745   4.553   4.942 -1.5674 -0.1916  0.8839
 3275TIP3   OH2 9830   1.236   2.032   3.232  0.1924  0.4333 -0.2379
 3275TIP3    H1 9831   1.275   1.987   3.307 -0.3915  2.1452  1.1649
 3275TIP3    H2 9832   1.148   2.055   3.261  0.1808  1.7041 -1.2136
 3276TIP3   OH2 9833   2.901   0.524   2.273 -0.4554 -0.3764  0.2010
 3276TIP3    H1 9834   2.840   0.473   2.220 -0.1512 -1.0463  0.4848
 3276TIP3    H2 9835   2.846   0.579   2.329 -0.7800 -0.1793 -0.3124
 3277TIP3   OH2 9836   1.304   5.084   2.636 -0.2038  0.3141 -0.1197
 3277TIP3    H1 9837   1.350   5.002   2.617 -0.8633 -0.0639 -0.1088
 3277TIP3    H2 9838   1.227   5.081   2.580 -0.6071  0.5906  0.4143
 3278TIP3   OH2 9839   4.266   3.004   2.018 -0.0750  0.5571 -0.9559
 3278TIP3    H1 9840   4.228   2.917   2.031  0.1123  0.5956 -0.1112
 3278TIP3    H2 9841   4.199   3.052   1.968  0.2105 -0.3458 -2.2498
 3279TIP3   OH2 9842   1.936   2.856   4.348  0.0320 -0.3859  0.3626
 3279TIP3    H1 9843   1.940   2.936   4.400 -0.5364 -0.7984  1.0549
 3279TIP3    H2 9844   1.845   2.827   4.355  0.1671 -0.9428 -0.1100
 3280TIP3   OH2 9845   4.776   4.794   3.073 -0.0735 -0.4057 -0.4723
 3280TIP3    H1 9846   4.706   4.855   3.052  0.2500  0.5932  1.1385
 3280TIP3    H2 9847   4.736   4.731   3.134  0.1585 -0.4277 -0.3384
 3281TIP3   OH2 9848   1.639   1.320   4.466 -0.0465 -0.4820 -0.4767
 3281TIP3    H1 9849   1.667   1.373   4.540  0.4761 -0.3918 -0.7277
 3281TIP3    H2 9850   1.719   1.275   4.437 -0.3221 -0.8093 -0.7446
 3282TIP3   OH2 9851   5.137   2.136   3.768  0.1582  0.4417  0.6038
 3282TIP3    H1 9852   5.226   2.151   3.735  0.3364  0.2862  1.0022
 3282TIP3    H2 9853   5.085   2.206   3.728  0.2934  0.0425 -0.2775
 3283TIP3   OH2 9854   4.823   1.188   2.985 -0.4779 -0.7056  0.1827
 3283TIP3    H1 9855   4.826   1.253   3.055 -0.6581 -0.8389  0.3157
 3283TIP3    H2 9856   4.829   1.239   2.904  1.3083 -0.6498  0.3147
 3284TIP3   OH2 9857   5.528   5.250   1.042  0.2485 -0.3022  0.3066
 3284TIP3    H1 9858   5.490   5.282   0.960  1.4863  0.2375 -0.0710
 3284TIP3    H2 9859   5.618   5.282   1.042  0.6557 -1.3649  1.2916
 3285TIP3   OH2 9860   0.282   4.783   0.109 -0.1877  0.2179  0.4388
 3285TIP3    H1 9861   0.295   4.843   0.035  0.9843  1.9037  1.9089
 3285TIP3    H2 9862   0.208   4.820   0.157 -0.5841 -0.5468  0.4334
 3286TIP3   OH2 9863   4.300   1.928   4.409  0.1119 -0.0343  0.5167
 3286TIP3    H1 9864   4.366   1.965   4.468 -0.6269  0.3275  1.1307
 3286TIP3    H2 9865   4.337   1.941   4.321  1.7716 -1.6629  0.9194
 3287TIP3   OH2 9866   1.926   5.457   2.930 -0.5898  0.6417  0.6987
 3287TIP3    H1 9867   1.930   5.368   2.964 -0.5154  0.5426  0.4304
 3287TIP3    H2 9868   2.014   5.492   2.943 -0.7307  0.8256  1.2000
 3288TIP3   OH2 9869   4.945   4.513   1.731 -0.0552 -0.3551  0.6812
 3288TIP3    H1 9870   5.030   4.550   1.754  0.2280 -0.7369  0.2555
 3288TIP3    H2 9871   4.882   4.574   1.768  0.3244  2.1469 -2.3648
 3289TIP3   OH2 9872   0.173   0.765   4.519  0.3524 -0.0193  0.2466
 3289TIP3    H1 9873   0.252   0.815   4.499  0.1276 -0.1242 -0.9722
 3289TIP3    H2 9874   0.202   0.673   4.515  0.2923 -0.0433  0.3689
 3290TIP3   OH2 9875   3.714   3.082   1.121  0.3184  0.1842 -0.0956
 3290TIP3    H1 9876   3.801   3.065   1.084  0.0867 -0.5258 -0.3283
 3290TIP3    H2 9877   3.688   3.166   1.083  1.1466  0.7091  0.4435
 3291TIP3   OH2 9878   0.951   2.695   3.942 -0.4002 -0.1937  0.1198
 3291TIP3    H1 9879   0.866   2.739   3.937  0.0425  1.0907  2.4242
 3291TIP3    H2 9880   0.939   2.613   3.894 -3.6313 -1.0733  2.1484
 3292TIP3   OH2 9881   1.484   4.578   4.206  0.0537  0.8326  0.0438
 3292TIP3    H1 9882   1.484   4.667   4.243  2.1746  0.8970  0.0361
 3292TIP3    H2 9883   1.450   4.523   4.275 -1.4826  1.6518 -0.0155
 3293TIP3   OH2 9884   5.858   2.468   1.617  0.0428  0.1660  0.8738
 3293TIP3    H1 9885   5.837   2.438   1.529  2.1503  1.9695 -0.3618
 3293TIP3    H2 9886   5.795   2.424   1.674 -1.0907 -1.4139 -1.4625
 3294TIP3   OH2 9887   0.504   3.257   5.027 -0.1683 -0.0066 -0.0295
 3294TIP3    H1 9888   0.444   3.263   5.101 -0.1065  0.0338  0.0179
 3294TIP3    H2 9889   0.587   3.292   5.060  0.2141 -1.1602  0.2636
 3295TIP3   OH2 9890   5.667   2.407   2.210 -0.5567  0.1575 -0.6737
 3295TIP3    H1 9891   5.602   2.477   2.201  0.6627  1.3769 -0.4025
 3295TIP3    H2 9892   5.716   2.430   2.289 -0.9876 -1.7779  0.2044
 3296TIP3   OH2 9893   1.154   3.599   2.855 -0.2436 -0.9323  0.5407
 3296TIP3    H1 9894   1.062   3.621   2.844 -0.3617 -0.7296  1.7451
 3296TIP3    H2 9895   1.178   3.551   2.776 -0.4234  2.0463 -1.4964
 3297TIP3   OH2 9896   2.740   4.460   2.418 -0.0207  0.0733  0.5227
 3297TIP3    H1 9897   2.742   4.555   2.421 -0.3216  0.0682  1.0333
 3297TIP3    H2 9898   2.751   4.438   2.325 -2.1617  0.6619  0.0692
 3298TIP3   OH2 9899   0.551   4.147   1.471  0.0311 -0.7264 -0.5349
 3298TIP3    H1 9900   0.500   4.066   1.481  0.1187 -0.9269 -1.5663
 3298TIP3    H2 9901   0.619   4.141   1.539 -1.0606 -0.6312  0.6076
 3299TIP3   OH2 9902   3.771   5.414   3.845  0.4312 -0.4121 -0.0481
 3299TIP3    H1 9903   3.799   5.401   3.936  0.4592  1.1107  0.1899
 3299TIP3    H2 9904   3.772   5.509   3.833  0.2221 -0.5763 -1.5869
 3300TIP3   OH2 9905   2.247   5.831   5.059 -0.4967 -0.4160 -0.1959
 3300TIP3    H1 9906   2.271   5.762   5.120  0.6885 -1.0155 -1.2784
 3300TIP3    H2 9907   2.155   5.849   5.076 -0.6445 -1.8080  0.5383
 3301TIP3   OH2 9908   4.435   1.089   1.512  0.1930  0.1039 -0.0337
 3301TIP3    H1 9909   4.419   1.154   1.581 -1.2823  1.2531 -1.3980
 3301TIP3    H2 9910   4.354   1.086   1.463  1.4305 -0.1413 -2.1837
 3302TIP3   OH2 9911   3.361   3.189   0.291  0.2892  0.2926 -0.4274
 3302TIP3    H1 9912   3.393   3.231   0.212  0.7776  1.4335  0.3396
 3302TIP3    H2 9913   3.304   3.255   0.332 -2.2186 -1.2695 -1.1834
 3303TIP3   OH2 9914   3.163   0.672   0.657  0.1703  0.0281  0.6276
 3303TIP3    H1 9915   3.118   0.733   0.716 -1.7541 -1.7335  1.1084
 3303TIP3    H2 9916   3.098   0.605   0.638  2.3608 -2.2745  0.6882
 3304TIP3   OH2 9917   5.310   0.247   4.458 -0.6501  0.5559 -0.0044
 3304TIP3    H1 9918   5.248   0.320   4.459 -1.5940 -0.2256  1.8657
 3304TIP3    H2 9919   5.380   0.273   4.518 -0.6027  0.2339  0.0826
 3305TIP3   OH2 9920   1.904   2.731   5.028  0.0491 -0.5157  0.8173
 3305TIP3    H1 9921   1.925   2.820   5.000 -2.4541  0.5236  1.9895
 3305TIP3    H2 9922   1.961   2.717   5.104  3.1058 -1.4180 -1.4343
 3306TIP3   OH2 9923   1.812   0.599   1.141 -0.2172  0.9082  0.2973
 3306TIP3    H1 9924   1.800   0.688   1.107 -1.1239  0.8373  0.4231
 3306TIP3    H2 9925   1.887   0.565   1.091  0.9856  2.1837  1.1569
 3307TIP3   OH2 9926   2.085   3.752   2.202  0.1962  0.1120 -0.6630
 3307TIP3    H1 9927   2.114   3.824   2.146  0.6709  0.0128 -0.5511
 3307TIP3    H2 9928   2.154   3.744   2.268 -0.4479  0.3461  0.0453
 3308TIP3   OH2 9929   2.304   3.043   0.210  0.4610 -0.1306 -0.1147
 3308TIP3    H1 9930   2.304   2.960   0.162  0.4765  0.8726 -1.9319
 3308TIP3    H2 9931   2.382   3.089   0.177  0.1292  0.8372  0.4411
 3309TIP3   OH2 9932   4.762   3.131   3.477 -0.8628  0.3774  0.0601
 3309TIP3    H1 9933   4.839   3.156   3.527 -1.5967  0.6650  1.0934
 3309TIP3    H2 9934   4.790   3.132   3.386  0.6123 -0.5331  0.4788
 3310TIP3   OH2 9935   5.347   3.484   1.366 -0.1464  0.3646 -0.1599
 3310TIP3    H1 9936   5.262   3.516   1.336  0.6258  0.3963 -2.5050
 3310TIP3    H2 9937   5.410   3.524   1.307  1.4668 -0.2574  1.0516
 3311TIP3   OH2 9938   0.259   5.944   2.318  0.6488  0.1083  0.1847
 3311TIP3    H1 9939   0.284   5.941   2.411 -0.0284  0.2419  0.3806
 3311TIP3    H2 9940   0.216   6.029   2.308  0.1689 -0.1614 -0.1013
 3312TIP3   OH2 9941   2.229   1.206   3.693  0.3484  0.5716 -0.7438
 3312TIP3    H1 9942   2.190   1.249   3.617 -0.6402 -0.8617 -1.0814
 3312TIP3    H2 9943   2.295   1.147   3.657 -0.1629 -0.1597 -0.5234
 3313TIP3   OH2 9944   1.482   3.792   3.707  0.6619  0.5399  0.0938
 3313TIP3    H1 9945   1.386   3.790   3.703  0.5383  0.3791  2.0027
 3313TIP3    H2 9946   1.501   3.826   3.795  2.3015 -2.1200  0.8929
 3314TIP3   OH2 9947   5.639   1.187   4.553 -0.0376 -0.1977 -0.3139
 3314TIP3    H1 9948   5.615   1.280   4.549 -0.2745 -0.2204  0.4562
 3314TIP3    H2 9949   5.556   1.142   4.566  0.1980 -0.4370  0.3499
 3315TIP3   OH2 9950   2.985   3.223   3.725 -0.1535 -0.2993 -0.7208
 3315TIP3    H1 9951   2.974   3.207   3.632 -1.3344  1.4161 -0.9094
 3315TIP3    H2 9952   3.060   3.283   3.730 -1.7945  1.9076 -0.8757
 3316TIP3   OH2 9953   3.202   4.047   4.296  0.0927  0.0981  0.5688
 3316TIP3    H1 9954   3.160   4.118   4.248  1.1770 -0.1804 -0.8407
 3316TIP3    H2 9955   3.252   3.999   4.230 -1.5885 -2.7698  1.1918
 3317TIP3   OH2 9956   1.163   5.758   1.757 -0.2590  1.0994  0.0152
 3317TIP3    H1 9957   1.181   5.788   1.846 -0.3365 -0.5386  0.6187
 3317TIP3    H2 9958   1.232   5.694   1.738 -0.6811  0.8731 -0.8097
 3318TIP3   OH2 9959   5.445   2.817   1.896 -0.0177 -0.4960 -0.3770
 3318TIP3    H1 9960   5.387   2.893   1.903 -0.6800 -0.9748 -0.5930
 3318TIP3    H2 9961   5.507   2.840   1.827 -0.8164 -0.5442 -1.1117
 3319TIP3   OH2 9962   3.793   5.700   3.889  0.0845  0.4502 -0.1894
 3319TIP3    H1 9963   3.885   5.722   3.902  0.6403  0.4912 -3.3608
 3319TIP3    H2 9964   3.756   5.778   3.847 -1.3556  0.3546  0.8582
 3320TIP3   OH2 9965   4.840   1.300   0.470 -0.6255 -0.3635 -0.3591
 3320TIP3    H1 9966   4.857   1.214   0.431  0.6524 -0.4251  0.2972
 3320TIP3    H2 9967   4.846   1.285   0.564 -0.4309  0.4445 -0.2365
 3321TIP3   OH2 9968   1.977   2.585   4.350 -0.1526  0.3261 -0.7160
 3321TIP3    H1 9969   2.067   2.551   4.349 -0.2903 -0.1082 -2.4102
 3321TIP3    H2 9970   1.986   2.678   4.326 -0.0344  0.7270  0.8128
 3322TIP3   OH2 9971   0.580   5.708   0.411  0.0124 -0.3457  0.7358
 3322TIP3    H1 9972   0.648   5.736   0.473 -0.2972 -1.4062  1.5775
 3322TIP3    H2 9973   0.505   5.686   0.466 -0.4834 -0.7109 -0.0724
 3323TIP3   OH2 9974   4.959   1.790   1.298 -0.5711 -0.1359  0.5909
 3323TIP3    H1 9975   4.987   1.698   1.298 -0.7312 -0.1846  0.8388
 3323TIP3    H2 9976   5.014   1.832   1.364  0.7844  0.3463 -0.7622
 3324TIP3   OH2 9977   6.255   1.720   0.102  0.5363  0.7079 -0.4661
 3324TIP3    H1 9978   6.212   1.751   0.023  1.5183  2.5607 -0.3216
 3324TIP3    H2 9979   6.299   1.797   0.138  0.6074 -0.2077  1.5738
 3325TIP3   OH2 9980   5.746   0.691   3.995 -0.2789 -0.6295 -0.5978
 3325TIP3    H1 9981   5.652   0.683   4.010 -0.3728  1.1796 -0.0681
 3325TIP3    H2 9982   5.754   0.708   3.902 -0.9829  4.4285 -0.0066
 3326TIP3   OH2 9983   5.416   2.265   4.010 -0.1376  0.2022 -0.0394
 3326TIP3    H1 9984   5.417   2.262   3.914 -1.4384 -2.5078 -0.0661
 3326TIP3    H2 9985   5.492   2.213   4.036 -1.6514 -2.0353  0.2595
 3327TIP3   OH2 9986   0.909   1.103   0.539 -0.3519 -0.1348 -0.3075
 3327TIP3    H1 9987   0.934   1.100   0.631  0.2854  0.5516 -0.4449
 3327TIP3    H2 9988   0.887   1.194   0.523  0.8573  0.0469 -1.1500
 3328TIP3   OH2 9989   3.657   0.883   4.687  0.0453  0.2546 -0.2127
 3328TIP3    H1 9990   3.738   0.833   4.680 -0.7173 -1.3310  1.5665
 3328TIP3    H2 9991   3.588   0.817   4.695 -0.9311  1.4652  3.2259
 3329TIP3   OH2 9992   4.715   3.325   4.840  0.5340 -0.4324  0.1230
 3329TIP3    H1 9993   4.757   3.292   4.761  0.3560  0.8756 -0.5577
 3329TIP3    H2 9994   4.639   3.269   4.853  1.0728 -1.2247 -0.0940
 3330TIP3   OH2 9995   4.411   5.930   2.312 -0.4930 -0.2082  0.1411
 3330TIP3    H1 9996   4.504   5.931   2.289 -0.3692 -0.7580  0.5913
 3330TIP3    H2 9997   4.386   6.022   2.313  0.0495 -0.0523  0.0114
 3331TIP3   OH2 9998   0.692   0.548   3.524 -0.1455  0.0893  0.2545
 3331TIP3    H1 9999   0.609   0.530   3.567  0.0266  1.4682  1.2325
 3331TIP3    H210000   0.758   0.502   3.576 -0.1336  0.2703  0.4002
 3332TIP3   OH210001   3.719   4.498   2.366  0.4312 -0.1635 -0.7306
 3332TIP3    H110002   3.713   4.528   2.275 -2.0368  0.0930 -0.5525
 3332TIP3    H210003   3.755   4.409   2.360  2.2958  0.6047 -1.7367
 3333TIP3   OH210004   4.265   5.989   0.671  0.4386 -0.0971  0.4935
 3333TIP3    H110005   4.192   6.023   0.618 -0.2004  1.2774  2.1516
 3333TIP3    H210006   4.269   5.896   0.650 -1.0260  0.0327 -0.5135
 3334TIP3   OH210007   4.579   3.799   2.087  0.2751  0.2334  0.3475
 3334TIP3    H110008   4.640   3.871   2.105 -1.1498  0.9618  2.8808
 3334TIP3    H210009   4.552   3.770   2.174 -0.3720 -2.3767 -0.6618
 3335TIP3   OH210010   0.270   5.446   0.365 -0.3694  0.4068  0.0570
 3335TIP3    H110011   0.261   5.357   0.333  1.8362  1.1283 -3.0929
 3335TIP3    H210012   0.324   5.438   0.444 -1.7169 -1.0989  0.8816
 3336TIP3   OH210013   4.172   0.372   4.643  0.2498  0.2155  0.6492
 3336TIP3    H110014   4.242   0.312   4.618 -0.8570 -0.4217 -1.0916
 3336TIP3    H210015   4.092   0.323   4.627 -0.6696  1.9415 -0.2789
 3337TIP3   OH210016   5.392   3.446   0.004 -0.2551  0.1539 -0.0005
 3337TIP3    H110017   5.470   3.391   0.000  1.4945  2.3289  1.8079
 3337TIP3    H210018   5.384   3.471   0.096 -0.3639  3.5942 -0.8078
 3338TIP3   OH210019   0.388   5.474   0.618 -0.2680 -0.4844  0.5350
 3338TIP3    H110020   0.458   5.475   0.684 -0.8910  0.5433  1.2217
 3338TIP3    H210021   0.307   5.478   0.670 -0.8341 -1.4798 -0.2535
 3339TIP3   OH210022   4.360   3.685   4.160  0.0237  0.1718  0.3991
 3339TIP3    H110023   4.302   3.624   4.114  0.0895  1.0603 -0.8814
 3339TIP3    H210024   4.319   3.695   4.246 -0.3287 -1.1800  0.4195
 3340TIP3   OH210025   6.074   3.205   1.758 -0.3289 -0.0503 -0.5985
 3340TIP3    H110026   6.062   3.235   1.849  1.6195 -2.0576  0.4154
 3340TIP3    H210027   5.985   3.188   1.727 -0.9778 -1.8516  1.9211
 3341TIP3   OH210028   5.911   4.302   2.068 -0.0199  0.5558  0.0082
 3341TIP3    H110029   5.944   4.279   1.981 -1.2278 -0.9298 -0.1078
 3341TIP3    H210030   5.816   4.293   2.060 -0.1318  0.1664  1.5283
 3342TIP3   OH210031   1.722   2.136   3.648 -0.1540  0.6050  0.3158
 3342TIP3    H110032   1.629   2.135   3.670  0.2995  1.2847  2.5023
 3342TIP3    H210033   1.755   2.216   3.689  1.3337  0.5529 -0.7256
 3343TIP3   OH210034   5.098   0.043   5.149  0.0656  0.2617 -0.2926
 3343TIP3    H110035   5.119  -0.019   5.219 -1.8859  0.1177  0.2049
 3343TIP3    H210036   5.171   0.035   5.087  1.0034 -0.8070  0.9007
 3344TIP3   OH210037   3.548   5.843   1.953 -0.3448  0.1770 -0.1036
 3344TIP3    H110038   3.629   5.792   1.945 -1.0909 -0.8370 -1.4433
 3344TIP3    H210039   3.577   5.934   1.946  0.8846 -0.0538  1.2888
 3345TIP3   OH210040   5.671   2.742   0.795  0.0547  0.3829 -0.4532
 3345TIP3    H110041   5.580   2.754   0.822  0.2809  0.4855  0.2902
 3345TIP3    H210042   5.674   2.654   0.759 -0.0189 -0.2362  0.9665
 3346TIP3   OH210043   1.864   5.319   0.362 -0.3404 -0.2079  0.1478
 3346TIP3    H110044   1.934   5.384   0.368 -1.1066  0.6936 -0.2329
 3346TIP3    H210045   1.878   5.261   0.437  0.4008  0.3772  0.4788
 3347TIP3   OH210046   3.632   0.209   0.905  0.7141 -0.1512 -0.3710
 3347TIP3    H110047   3.709   0.163   0.936  0.1272 -2.2379 -1.8094
 3347TIP3    H210048   3.559   0.149   0.920 -1.0198  2.3410  2.3857
 3348TIP3   OH210049   5.478   5.408   4.543  0.1303  0.0033 -0.1147
 3348TIP3    H110050   5.515   5.459   4.471  1.8141 -1.0471 -0.0422
 3348TIP3    H210051   5.535   5.427   4.618 -0.5810 -0.2447  0.5140
 3349TIP3   OH210052   6.014   1.560   0.181 -0.3434 -0.3375  0.3495
 3349TIP3    H110053   6.007   1.634   0.241 -1.8218 -0.4626  0.3754
 3349TIP3    H210054   6.104   1.562   0.150 -0.6719  2.2884 -0.6759
 3350TIP3   OH210055   5.629   1.292   1.249 -0.3058  0.3116  0.3236
 3350TIP3    H110056   5.666   1.270   1.334  0.3444 -0.1926 -0.0890
 3350TIP3    H210057   5.631   1.211   1.200 -0.5807  0.6268 -0.2201
 3351TIP3   OH210058   5.738   5.031   1.621  0.2258  0.2360  0.1029
 3351TIP3    H110059   5.688   5.042   1.540  0.1293 -0.1034  0.1149
 3351TIP3    H210060   5.751   4.936   1.629 -1.2905  0.0855  1.3989
 3352TIP3   OH210061   5.738   4.900   0.913 -0.2539 -0.6363 -0.0606
 3352TIP3    H110062   5.759   4.807   0.921  2.7973 -0.0854 -0.6185
 3352TIP3    H210063   5.732   4.916   0.819  2.0380  0.1880 -0.1293
 3353TIP3   OH210064   2.514   3.287   1.409  0.2647 -0.2633 -1.1093
 3353TIP3    H110065   2.465   3.328   1.481  1.5712 -0.4020 -0.1200
 3353TIP3    H210066   2.449   3.231   1.366 -0.0958 -1.7421  1.1853
 3354TIP3   OH210067   0.776   2.980   2.736  0.2947  0.6963  0.6548
 3354TIP3    H110068   0.757   3.026   2.818  1.0266  0.2258  1.1092
 3354TIP3    H210069   0.748   3.040   2.667  0.4275  1.4490  1.2416
 3355TIP3   OH210070   2.241   2.724   0.192 -0.4711 -0.5404  0.0431
 3355TIP3    H110071   2.205   2.651   0.142  1.7571  0.4803 -3.4571
 3355TIP3    H210072   2.287   2.683   0.265 -2.2997 -2.3009  0.2946
 3356TIP3   OH210073   4.814   5.609   0.006 -0.0384 -0.3941 -0.4829
 3356TIP3    H110074   4.846   5.606   0.096 -0.8487  0.8362 -0.1248
 3356TIP3    H210075   4.762   5.689   0.002  0.5807 -0.0532 -2.2571
 3357TIP3   OH210076   2.759   2.371   2.424  0.4534 -0.0704  0.3211
 3357TIP3    H110077   2.849   2.401   2.407  0.5108 -0.6158 -0.4076
 3357TIP3    H210078   2.765   2.318   2.503  0.9117 -0.6531 -0.0888
 3358TIP3   OH210079   4.948   2.137   2.363 -0.3276 -0.5996  0.2922
 3358TIP3    H110080   5.004   2.089   2.301  0.8331 -0.5057  1.2245
 3358TIP3    H210081   4.937   2.077   2.436 -0.3162 -0.0927  0.7127
 3359TIP3   OH210082   1.479   0.335   4.404 -0.5853 -0.7523 -0.0857
 3359TIP3    H110083   1.530   0.255   4.401 -0.4377 -0.7158  0.9755
 3359TIP3    H210084   1.395   0.309   4.442 -1.8213 -1.0285 -2.8154
 3360TIP3   OH210085   0.082   1.248   1.391 -0.0967  0.0729 -0.2714
 3360TIP3    H110086   0.056   1.228   1.481  1.1090 -1.5673 -0.2278
 3360TIP3    H210087   0.090   1.343   1.389 -0.3590  0.1615  1.3057
 3361TIP3   OH210088   3.372   5.274   1.928 -0.3399  0.2842  0.6814
 3361TIP3    H110089   3.302   5.208   1.927 -0.5056  0.4598  0.1752
 3361TIP3    H210090   3.449   5.228   1.895 -0.3601  0.2439  0.6898
 3362TIP3   OH210091   3.619   1.400   4.928 -0.1517  0.2410 -0.1942
 3362TIP3    H110092   3.605   1.494   4.933 -0.1734  0.1750  1.4410
 3362TIP3    H210093   3.531   1.363   4.920 -0.2650  0.3004  0.6780
 3363TIP3   OH210094   5.824   0.805   2.950 -0.0991 -0.1990  0.3567
 3363TIP3    H110095   5.884   0.863   2.995 -0.6417 -0.5094  1.5173
 3363TIP3    H210096   5.868   0.784   2.868  1.0378  0.1624  0.8555
 3364TIP3   OH210097   1.197   4.869   1.074  0.3727  0.3043 -0.4524
 3364TIP3    H110098   1.149   4.928   1.132 -0.1938 -0.6015  0.0242
 3364TIP3    H210099   1.267   4.833   1.128  0.3342  0.0682 -0.5583
 3365TIP3   OH210100   1.888   1.837   3.789  0.2054 -0.7201 -0.6605
 3365TIP3    H110101   1.869   1.865   3.879  0.1313 -1.4122 -0.4588
 3365TIP3    H210102   1.929   1.751   3.799  2.6511  0.2949 -1.1182
 3366TIP3   OH210103   2.427   4.236   4.297  0.2781 -0.5967 -0.3731
 3366TIP3    H110104   2.401   4.207   4.385  1.2167 -0.3222  0.0010
 3366TIP3    H210105   2.430   4.332   4.303  0.7156 -0.5934 -0.5951
 3367TIP3   OH210106   3.315   1.062   2.470  0.1350  0.0366 -0.1316
 3367TIP3    H110107   3.229   1.021   2.463  0.5466 -0.6853 -1.0273
 3367TIP3    H210108   3.299   1.139   2.526 -1.0638 -0.1302 -0.2043
 3368TIP3   OH210109   0.814   2.718   2.809 -0.1562  0.1640 -0.2156
 3368TIP3    H110110   0.807   2.812   2.796 -0.2400  0.4548  1.6089
 3368TIP3    H210111   0.723   2.688   2.818 -0.0641  0.4103  2.0232
 3369TIP3   OH210112   3.699   0.384   0.684  0.3445 -0.3703 -0.2144
 3369TIP3    H110113   3.641   0.457   0.663  2.1148  1.3380  0.5413
 3369TIP3    H210114   3.642   0.320   0.727 -1.5673 -0.1766 -2.2675
 3370TIP3   OH210115   5.958   2.780   2.641 -0.5630 -0.0787 -0.4569
 3370TIP3    H110116   6.028   2.802   2.579  0.2993  0.0800  0.5340
 3370TIP3    H210117   6.003   2.737   2.714 -1.5448 -0.2458  0.0714
 3371TIP3   OH210118   5.410   1.835   3.707  0.5448 -0.5959  0.0567
 3371TIP3    H110119   5.370   1.757   3.666  0.1513  0.1575 -1.0383
 3371TIP3    H210120   5.351   1.856   3.779 -0.6034 -0.0317 -0.9934
 3372TIP3   OH210121   1.784   3.461   0.949  0.4426  0.1016  0.0339
 3372TIP3    H110122   1.856   3.485   1.007  0.8747 -2.6166  0.7394
 3372TIP3    H210123   1.817   3.387   0.899 -2.1660 -1.9408  1.1205
 3373TIP3   OH210124   3.078   3.631   0.392 -0.0690 -0.4080  0.4865
 3373TIP3    H110125   3.104   3.683   0.468  1.5594 -0.3224 -0.1057
 3373TIP3    H210126   2.982   3.632   0.395 -0.1262 -1.8952  3.5716
 3374TIP3   OH210127   6.359   0.151   1.478  0.7162  0.3645  0.2131
 3374TIP3    H110128   6.324   0.111   1.557 -0.4263  0.6980 -0.1045
 3374TIP3    H210129   6.282   0.179   1.428  1.3382 -1.0659 -1.6867
 3375TIP3   OH210130   4.526   4.968   3.104  0.1028  0.1310  0.1459
 3375TIP3    H110131   4.592   5.016   3.054  0.0513  0.2255  0.1690
 3375TIP3    H210132   4.443   4.987   3.060  0.1445 -0.3077 -0.1220
 3376TIP3   OH210133   4.218   0.294   4.212  0.1430  0.4070  0.1152
 3376TIP3    H110134   4.209   0.257   4.300 -0.5026 -0.3372 -0.2639
 3376TIP3    H210135   4.157   0.368   4.211 -0.0990  0.2087  0.1794
 3377TIP3   OH210136   0.688   5.235   1.967 -0.3568 -0.2605 -0.0578
 3377TIP3    H110137   0.602   5.259   2.000 -0.1268 -0.6679  0.8734
 3377TIP3    H210138   0.673   5.161   1.908 -0.4724 -1.5972  1.5780
 3378TIP3   OH210139   1.974   1.592   1.662  0.1862  0.4536  0.0705
 3378TIP3    H110140   1.916   1.667   1.679 -0.8111  0.0066 -1.1821
 3378TIP3    H210141   2.038   1.625   1.599 -1.1028 -0.0667 -1.5922
 3379TIP3   OH210142   5.139   5.180   2.157  0.1064  0.0568 -0.7859
 3379TIP3    H110143   5.049   5.149   2.167  0.0163  0.5387  0.0004
 3379TIP3    H210144   5.191   5.120   2.210  0.1358  0.2964 -0.5428
 3380TIP3   OH210145   4.268   3.846   3.469  0.5371 -0.1405 -0.0709
 3380TIP3    H110146   4.302   3.866   3.382  0.4086 -0.5470 -0.2160
 3380TIP3    H210147   4.173   3.854   3.460  0.4224 -1.6208 -0.3483
 3381TIP3   OH210148   4.733   1.353   4.455  0.5469  0.1058 -0.4970
 3381TIP3    H110149   4.676   1.387   4.386  0.0038 -0.7235 -0.4663
 3381TIP3    H210150   4.795   1.424   4.472  0.3910  0.4989 -1.5058
 3382TIP3   OH210151   2.542   4.781   2.583  0.4857  0.0573  0.3895
 3382TIP3    H110152   2.475   4.830   2.631 -0.7784  0.7548 -1.9313
 3382TIP3    H210153   2.494   4.712   2.538  1.5075 -0.2155 -0.3152
 3383TIP3   OH210154   0.210   1.972   4.421 -0.4092  0.1826 -0.2475
 3383TIP3    H110155   0.274   2.032   4.384  0.0534 -0.1849 -0.0454
 3383TIP3    H210156   0.243   1.952   4.509 -2.6354  2.8710  1.3883
 3384TIP3   OH210157   2.069   0.723   0.765 -0.2549 -0.3932 -0.6473
 3384TIP3    H110158   1.990   0.778   0.772 -0.9698 -1.5163  0.6506
 3384TIP3    H210159   2.047   0.658   0.698  0.2779  0.3608 -1.5816
 3385TIP3   OH210160   1.282   1.185   1.756  0.3396  0.1813  0.3815
 3385TIP3    H110161   1.295   1.263   1.810 -0.3674  0.1683  0.5804
 3385TIP3    H210162   1.200   1.148   1.787  0.1876 -0.1133 -0.3591
 3386TIP3   OH210163   2.390   1.310   2.246 -0.0906 -0.2070 -0.2231
 3386TIP3    H110164   2.444   1.311   2.167  0.3012  1.2375  0.0300
 3386TIP3    H210165   2.452   1.325   2.318 -0.6089 -0.2750  0.2464
 3387TIP3   OH210166   5.027   5.528   4.071 -0.0947 -0.4465 -0.6529
 3387TIP3    H110167   4.938   5.554   4.047 -0.4100 -0.5902  0.3491
 3387TIP3    H210168   5.024   5.432   4.075 -0.1561 -0.4057  0.3758
 3388TIP3   OH210169   1.837   2.128   0.450  0.4249  0.3756  0.1291
 3388TIP3    H110170   1.920   2.085   0.472  1.4829  2.1191 -0.2613
 3388TIP3    H210171   1.863   2.208   0.406 -1.5356  0.0403 -1.7711
 3389TIP3   OH210172   5.468   3.892   4.729  0.4222  0.2154  0.4653
 3389TIP3    H110173   5.436   3.874   4.818  1.3297  0.1244  0.7862
 3389TIP3    H210174   5.458   3.809   4.683  0.6776  0.0378  0.7201
 3390TIP3   OH210175   2.011   2.493   3.628 -0.0866  0.4729  0.8734
 3390TIP3    H110176   1.997   2.573   3.679 -0.1787  0.8658  0.2433
 3390TIP3    H210177   2.092   2.510   3.579  0.4348 -0.2071  1.4562
 3391TIP3   OH210178   4.392   0.827   2.236 -0.0246 -0.0124 -0.1570
 3391TIP3    H110179   4.366   0.919   2.233 -1.4467 -0.2872 -4.8494
 3391TIP3    H210180   4.464   0.820   2.173 -0.9909 -2.2807 -1.1304
 3392TIP3   OH210181   4.595   1.347   0.067  0.1219  0.1277  0.2492
 3392TIP3    H110182   4.665   1.412   0.058  0.0194  0.2252  0.1567
 3392TIP3    H210183   4.603   1.293  -0.012 -0.5756  0.7857 -0.2767
 3393TIP3   OH210184   3.340   0.613   1.868  0.1076  0.0971  0.0026
 3393TIP3    H110185   3.377   0.640   1.784  0.7579  0.4959  0.4044
 3393TIP3    H210186   3.407   0.637   1.932  0.0791 -1.1422  0.5315
 3394TIP3   OH210187   0.204   5.021   3.955 -0.4253  0.2485 -0.2756
 3394TIP3    H110188   0.276   5.061   3.907  1.0134 -2.1548 -0.2715
 3394TIP3    H210189   0.167   5.092   4.007  0.2971  2.1009 -2.1657
 3395TIP3   OH210190   3.894   0.632   3.876 -0.3315 -0.5750 -0.1975
 3395TIP3    H110191   3.934   0.708   3.917  0.0119 -2.0048  2.2978
 3395TIP3    H210192   3.803   0.656   3.863 -0.0644  0.4990 -0.1369
 3396TIP3   OH210193   3.217   3.012   2.474  0.3120 -0.0723  0.2961
 3396TIP3    H110194   3.288   2.966   2.518  0.8476 -0.5557 -1.0308
 3396TIP3    H210195   3.229   2.992   2.381 -0.2086  1.6941 -0.1962
 3397TIP3   OH210196   3.652   1.894   2.953 -0.4340  0.4105  0.3168
 3397TIP3    H110197   3.667   1.960   2.885  1.2799 -0.5776 -0.3467
 3397TIP3    H210198   3.609   1.941   3.024 -1.6179  1.6334 -1.1654
 3398TIP3   OH210199   4.692   1.011   0.589  0.8524  0.5674  0.0899
 3398TIP3    H110200   4.635   1.067   0.537  0.4856  0.1214  0.0033
 3398TIP3    H210201   4.653   1.013   0.677 -1.3643 -2.4095 -0.6665
 3399TIP3   OH210202   3.697   5.228   4.273  0.4470  0.1849  0.1497
 3399TIP3    H110203   3.719   5.320   4.255  1.0257 -0.1858 -1.1870
 3399TIP3    H210204   3.775   5.179   4.246 -0.2129 -0.7733 -0.0823
 3400TIP3   OH210205   1.879   2.776   2.758  0.3819 -0.3472  0.0521
 3400TIP3    H110206   1.801   2.755   2.707  1.1406 -1.6416 -0.6426
 3400TIP3    H210207   1.896   2.697   2.809  0.8336  0.1830  0.7357
 3401TIP3   OH210208   5.249   5.817   1.182 -0.3627 -0.0569  0.3045
 3401TIP3    H110209   5.308   5.872   1.233  0.6889  0.9866 -1.8847
 3401TIP3    H210210   5.289   5.730   1.185  0.5958  0.3561 -0.0729
 3402TIP3   OH210211   2.957   1.104   2.437  0.4037 -0.7118  0.2147
 3402TIP3    H110212   2.958   1.009   2.429  1.9496 -0.6185 -1.3617
 3402TIP3    H210213   3.033   1.124   2.493 -0.1836 -0.4136  0.9229
 3403TIP3   OH210214   2.211   5.729   3.137 -0.2987  0.3023 -0.5742
 3403TIP3    H110215   2.152   5.791   3.180 -0.1783 -0.1305  0.2205
 3403TIP3    H210216   2.285   5.783   3.109 -1.0550  0.8574 -1.6036
 3404TIP3   OH210217   3.046   0.438   4.205 -0.5324 -0.4419  0.0338
 3404TIP3    H110218   3.142   0.433   4.205 -0.4710  0.4614  0.5889
 3404TIP3    H210219   3.019   0.384   4.279 -0.4890 -1.2111 -0.5094
 3405TIP3   OH210220   4.135   3.657   1.391  0.0372  0.4744  0.4007
 3405TIP3    H110221   4.170   3.716   1.324  1.2174  1.6011  1.9287
 3405TIP3    H210222   4.160   3.570   1.363  3.3440  1.1375  0.8709
 3406TIP3   OH210223   0.453   0.979   0.752  0.3081 -0.0353  0.0939
 3406TIP3    H110224   0.420   0.999   0.664 -0.4372  0.9008  0.5635
 3406TIP3    H210225   0.476   1.064   0.789 -0.3035 -0.3034  1.1434
 3407TIP3   OH210226   1.894   4.064   2.660  0.3300  1.0776 -0.3879
 3407TIP3    H110227   1.824   4.019   2.706 -0.7127  0.1631 -2.7111
 3407TIP3    H210228   1.973   4.046   2.712 -0.5263 -1.1084  0.2626
 3408TIP3   OH210229   1.345   4.440   1.489 -0.3380 -0.0008  0.5842
 3408TIP3    H110230   1.280   4.457   1.558 -0.7037  0.0607  0.2265
 3408TIP3    H210231   1.365   4.347   1.497 -0.5967 -0.0562  0.5883
 3409TIP3   OH210232   4.283   2.286   2.255 -0.0233 -0.4647 -0.0370
 3409TIP3    H110233   4.206   2.300   2.200 -1.0716 -1.2274  1.1651
 3409TIP3    H210234   4.247   2.277   2.344  1.7017  2.1653  1.0474
 3410TIP3   OH210235   5.697   2.389   0.232  0.5542  0.0471 -0.2124
 3410TIP3    H110236   5.620   2.367   0.284  1.5545  0.1718  1.3785
 3410TIP3    H210237   5.691   2.333   0.154  0.7314 -2.6716  1.6151
 3411TIP3   OH210238   0.286   1.285   0.859  0.3777 -0.1683  0.0760
 3411TIP3    H110239   0.233   1.288   0.939 -2.5524 -2.0374 -1.5756
 3411TIP3    H210240   0.223   1.297   0.788  2.2734 -1.8512 -2.0645
 3412TIP3   OH210241   3.170   0.829   0.223 -0.5199 -0.2750  0.2868
 3412TIP3    H110242   3.257   0.803   0.193 -0.8046  1.5168 -2.4824
 3412TIP3    H210243   3.160   0.919   0.190 -2.9186  0.0257  1.6716
 3413TIP3   OH210244   4.182   4.221   0.739 -0.2508  0.2950 -0.8114
 3413TIP3    H110245   4.212   4.151   0.797 -0.0911 -1.0794 -2.4900
 3413TIP3    H210246   4.261   4.252   0.695 -0.3602  1.3616 -0.2932
 3414TIP3   OH210247   4.986   4.036   1.343 -0.2488 -0.4066  0.4546
 3414TIP3    H110248   4.980   4.128   1.370  0.3627 -0.5920  1.2451
 3414TIP3    H210249   4.923   4.028   1.271  1.8159  1.3499 -1.6798
 3415TIP3   OH210250   0.303   1.776   3.581 -0.0663  0.2817 -0.6448
 3415TIP3    H110251   0.279   1.691   3.544 -0.5604  0.5783 -1.0207
 3415TIP3    H210252   0.353   1.755   3.660  0.6532 -0.3675 -1.2512
 3416TIP3   OH210253   1.890   1.292   2.472 -0.5293  0.1870  0.0354
 3416TIP3    H110254   1.958   1.358   2.486  0.0803 -0.4100 -0.0417
 3416TIP3    H210255   1.868   1.299   2.379  0.0556 -0.1912 -0.1410
 3417TIP3   OH210256   3.878   0.896   1.409 -0.0500 -0.7108 -0.2204
 3417TIP3    H110257   3.895   0.963   1.343  0.4665 -0.3365  0.2795
 3417TIP3    H210258   3.826   0.830   1.364  0.0804 -0.3365 -0.9287
 3418TIP3   OH210259   5.758   3.302   2.627 -0.6376 -0.4405 -1.0293
 3418TIP3    H110260   5.679   3.344   2.662  1.2222 -0.0758  3.4692
 3418TIP3    H210261   5.823   3.372   2.627  0.9446 -1.8163  0.6050
 3419TIP3   OH210262   4.261   1.041   4.759  0.4905  0.1554 -0.3459
 3419TIP3    H110263   4.341   1.001   4.794 -0.2670 -0.6807  0.4800
 3419TIP3    H210264   4.293   1.113   4.704  1.8029 -0.0416  0.1091
 3420TIP3   OH210265   5.650   0.361   4.869 -0.2482  0.2686 -0.3093
 3420TIP3    H110266   5.718   0.312   4.823 -0.8859 -0.0956 -0.8766
 3420TIP3    H210267   5.630   0.308   4.946  0.2665  0.4903 -0.0183
 3421TIP3   OH210268   0.061   2.843   1.038  0.2079  0.0836  0.0124
 3421TIP3    H110269  -0.033   2.829   1.029  0.3851 -0.7232 -0.7363
 3421TIP3    H210270   0.098   2.806   0.958  1.3894 -2.0322  1.4157
 3422TIP3   OH210271   6.292   0.375   2.806  0.5232 -0.2529 -0.2983
 3422TIP3    H110272   6.207   0.372   2.762 -0.2988 -2.2231  1.2456
 3422TIP3    H210273   6.299   0.465   2.839 -0.1336  0.4265 -1.9090
 3423TIP3   OH210274   0.755   5.302  -0.020  0.3136 -0.2776 -0.1066
 3423TIP3    H110275   0.795   5.283   0.065  0.3494  2.4024  0.5562
 3423TIP3    H210276   0.665   5.328   0.001 -0.0030 -0.5925 -1.0107
 3424TIP3   OH210277   1.572   0.782   3.838  0.4021 -0.0230  0.3028
 3424TIP3    H110278   1.597   0.750   3.925 -3.6834 -0.8343  1.4153
 3424TIP3    H210279   1.541   0.871   3.854  0.1484  0.0182 -0.4115
 3425TIP3   OH210280   2.606   0.356   1.759  0.4520  0.6911  0.2809
 3425TIP3    H110281   2.581   0.283   1.816  0.0512  0.2189 -0.4783
 3425TIP3    H210282   2.613   0.317   1.672  1.1694  1.3786  0.0245
 3426TIP3   OH210283   2.343   1.308   1.462  0.2855 -0.7330 -0.6797
 3426TIP3    H110284   2.319   1.383   1.407 -0.6112 -0.3034  0.2581
 3426TIP3    H210285   2.433   1.325   1.489  0.9330 -1.2130 -2.4046
 3427TIP3   OH210286   5.042   3.483   1.632  0.1993  0.5065 -0.1594
 3427TIP3    H110287   5.027   3.437   1.715  0.2488  0.2561 -0.2909
 3427TIP3    H210288   5.131   3.519   1.640  1.1563 -1.5008 -1.0344
 3428TIP3   OH210289   3.897   4.197   3.155 -0.3589  0.1137 -0.3896
 3428TIP3    H110290   3.875   4.255   3.082 -0.7830  1.2341  0.5990
 3428TIP3    H210291   3.819   4.142   3.167 -1.1325  1.3678  0.5484
 3429TIP3   OH210292   0.265   2.341   4.553 -0.7190  0.1200 -0.4103
 3429TIP3    H110293   0.286   2.336   4.459 -0.0294  0.7013 -0.2921
 3429TIP3    H210294   0.261   2.435   4.571  1.7466  0.0636  0.7060
 3430TIP3   OH210295   2.774   4.874   3.154  0.0886 -0.3528 -0.4212
 3430TIP3    H110296   2.737   4.958   3.180  2.5651  0.9200 -0.7514
 3430TIP3    H210297   2.789   4.881   3.060  2.9264  0.0355 -0.0357
 3431TIP3   OH210298   4.527   2.038   0.859  0.1890  0.4150 -0.1183
 3431TIP3    H110299   4.560   2.083   0.936  1.8095 -1.4171  0.3326
 3431TIP3    H210300   4.518   1.947   0.886 -1.2447  0.0865 -1.5083
 3432TIP3   OH210301   3.121   1.172   2.023 -0.4421  0.6436 -0.6933
 3432TIP3    H110302   3.137   1.078   2.023 -1.2370  0.5071 -0.4387
 3432TIP3    H210303   3.175   1.205   2.095  0.2098  0.4527 -1.0884
 3433TIP3   OH210304   6.007   3.601   3.978 -0.2222 -0.8386  0.4633
 3433TIP3    H110305   6.095   3.614   3.943 -0.1586 -2.0294  0.1536
 3433TIP3    H210306   5.950   3.645   3.916  0.0478 -1.2946 -0.1210
 3434TIP3   OH210307   6.257   2.650   3.386  0.1333  0.3594 -0.2677
 3434TIP3    H110308   6.201   2.727   3.371 -0.4910 -0.3951 -2.0255
 3434TIP3    H210309   6.232   2.620   3.473  0.3414  2.0964  0.4406
 3435TIP3   OH210310   1.688   1.738   0.633  0.3695 -0.2255  0.0141
 3435TIP3    H110311   1.616   1.800   0.645  0.4221 -0.1907  0.1521
 3435TIP3    H210312   1.761   1.791   0.600 -0.0236 -0.4552 -1.2943
 3436TIP3   OH210313   6.150   2.536   4.464  0.1555  0.5540  0.6731
 3436TIP3    H110314   6.074   2.592   4.446 -1.5575 -1.7058  0.3881
 3436TIP3    H210315   6.141   2.513   4.557  1.1601  1.1644  0.9332
 3437TIP3   OH210316   0.394   1.299   3.479  0.0063  0.5640 -0.4184
 3437TIP3    H110317   0.365   1.224   3.531  1.8475 -0.0815 -0.2409
 3437TIP3    H210318   0.403   1.265   3.390 -1.7254  1.2916 -0.8999
 3438TIP3   OH210319   3.820   3.769   2.822  0.0965  0.2123 -0.1832
 3438TIP3    H110320   3.902   3.724   2.799 -0.7099 -1.2844 -0.2359
 3438TIP3    H210321   3.845   3.861   2.831  1.7999 -0.2240 -0.1261
 3439TIP3   OH210322   4.449   2.876   1.295  0.6543  0.4924  0.2483
 3439TIP3    H110323   4.496   2.895   1.214  1.2296  0.5017  0.5735
 3439TIP3    H210324   4.369   2.831   1.268 -0.0685  2.1227 -0.4569
 3440TIP3   OH210325   4.352   3.388   2.864  0.5475  0.3079  0.5910
 3440TIP3    H110326   4.310   3.325   2.805  0.1215  0.1613  1.0403
 3440TIP3    H210327   4.336   3.352   2.951  0.1183  1.1451  0.8642
 3441TIP3   OH210328   3.356   3.775   1.042 -0.3595  0.0270 -0.1848
 3441TIP3    H110329   3.268   3.750   1.072  0.1058 -2.7124 -0.8843
 3441TIP3    H210330   3.413   3.707   1.075  1.3432  1.0729 -0.8631
 3442TIP3   OH210331   3.387   3.350   0.611 -0.4102  0.8457  0.0262
 3442TIP3    H110332   3.329   3.343   0.536  0.0193  0.5781 -0.2830
 3442TIP3    H210333   3.365   3.275   0.666  1.2431 -0.6378 -1.2256
 3443TIP3   OH210334   0.679   2.570   0.672 -0.0608  0.4658 -0.4934
 3443TIP3    H110335   0.701   2.495   0.728 -0.5157  0.2549 -0.5867
 3443TIP3    H210336   0.751   2.575   0.610  0.5965  0.8839  0.2866
 3444TIP3   OH210337   3.870   0.036   0.507  0.7210  0.1515  0.0387
 3444TIP3    H110338   3.788  -0.013   0.507  1.4971 -1.2245 -1.1293
 3444TIP3    H210339   3.845   0.126   0.487 -0.4025 -0.5165 -1.8390
 3445TIP3   OH210340   2.719   2.902   3.344 -0.3461  0.1512 -0.3709
 3445TIP3    H110341   2.803   2.924   3.383 -0.5931 -0.2757  0.4377
 3445TIP3    H210342   2.694   2.820   3.387 -1.1202  0.2155 -0.6808
 3446TIP3   OH210343   4.213   2.971   1.730 -0.3176 -0.3545 -0.2701
 3446TIP3    H110344   4.216   2.979   1.635 -0.0879 -1.0006 -0.3244
 3446TIP3    H210345   4.304   2.960   1.756 -0.4758 -1.4669 -0.1148
 3447TIP3   OH210346   6.178   4.860   1.562 -0.0599 -0.4843  0.1082
 3447TIP3    H110347   6.173   4.782   1.616  1.0042 -0.5375  0.1597
 3447TIP3    H210348   6.183   4.932   1.624 -0.2651 -0.4379  0.0703
 3448TIP3   OH210349   3.657   5.062   0.454 -0.4394 -0.3467  0.1645
 3448TIP3    H110350   3.740   5.019   0.434  0.5646  1.7669 -0.5217
 3448TIP3    H210351   3.598   5.037   0.383  0.6930  0.8280 -1.2477
 3449TIP3   OH210352   1.955   0.971   0.957 -0.7384 -0.1153  0.4083
 3449TIP3    H110353   1.996   1.022   0.888 -1.8807 -0.7997 -0.8197
 3449TIP3    H210354   2.029   0.940   1.010  0.3596 -1.0981 -1.5639
 3450TIP3   OH210355   0.333   0.370   3.034 -0.3892  0.1384  0.0897
 3450TIP3    H110356   0.403   0.433   3.019  1.0489 -1.2211  0.8445
 3450TIP3    H210357   0.254   0.414   3.003  0.3930  2.6675  1.4524
 3451TIP3   OH210358   1.409   0.979   2.913  0.3983 -0.3346 -0.2329
 3451TIP3    H110359   1.478   0.929   2.870 -0.3013  0.6883 -2.7132
 3451TIP3    H210360   1.369   0.917   2.974  0.6916 -2.2683 -1.9010
 3452TIP3   OH210361   4.447   1.560   1.607  0.3647 -0.5655  0.1878
 3452TIP3    H110362   4.499   1.491   1.649  0.0846 -1.0050 -0.1688
 3452TIP3    H210363   4.510   1.608   1.553  0.7825  0.1895  1.3168
 3453TIP3   OH210364   1.894   0.707   2.152  0.2067  0.2700 -0.7591
 3453TIP3    H110365   1.822   0.644   2.144 -1.1832  1.3207  2.0831
 3453TIP3    H210366   1.867   0.780   2.096  0.1438 -0.2275 -1.3935
 3454TIP3   OH210367   5.738   3.322   0.415 -0.0640  0.0724 -0.0085
 3454TIP3    H110368   5.674   3.256   0.440 -0.6379  0.4649 -0.4034
 3454TIP3    H210369   5.806   3.274   0.367 -1.1022 -0.0740 -1.4033
 3455TIP3   OH210370   0.004   4.972   4.682 -0.6902  0.6661  0.2262
 3455TIP3    H110371  -0.048   4.905   4.637  1.8384 -1.5378  0.3534
 3455TIP3    H210372   0.065   5.004   4.616  0.5498  0.1328  1.0701
 3456TIP3   OH210373   4.569   3.452   3.988 -0.1275 -0.4930  0.0550
 3456TIP3    H110374   4.524   3.369   4.000 -0.1034 -0.6417 -0.8438
 3456TIP3    H210375   4.563   3.495   4.073 -2.5766 -0.1864 -0.2058
 3457TIP3   OH210376   0.336   2.741   2.168  0.2501  0.5053  0.2610
 3457TIP3    H110377   0.315   2.753   2.075  0.3299  0.8606  0.2876
 3457TIP3    H210378   0.420   2.696   2.168 -0.9351 -1.8818  0.1378
 3458TIP3   OH210379   3.489   1.659   3.538 -0.2482 -0.0798 -0.0618
 3458TIP3    H110380   3.473   1.592   3.604  0.6272 -0.0363  0.2016
 3458TIP3    H210381   3.551   1.619   3.477  0.3059  0.5045  0.1169
 3459TIP3   OH210382   0.801   2.746   1.621 -0.0818 -0.1253  0.1409
 3459TIP3    H110383   0.729   2.806   1.604  0.3371  0.2458 -0.3327
 3459TIP3    H210384   0.759   2.661   1.632 -0.7434  0.3302  1.4458
 3460TIP3   OH210385   0.182   3.160   3.704  0.3714 -0.1994 -0.3221
 3460TIP3    H110386   0.181   3.249   3.668  0.6028 -0.5953 -1.3394
 3460TIP3    H210387   0.200   3.104   3.628 -0.0105 -1.1356  0.2673
 3461TIP3   OH210388   1.493   4.896   2.140 -0.1552  0.4940  0.6926
 3461TIP3    H110389   1.539   4.872   2.221  1.7813  0.6200 -0.3162
 3461TIP3    H210390   1.450   4.979   2.161  1.5062  1.2683  1.1963
 3462TIP3   OH210391   2.229   1.346   4.223  0.3617 -0.0411 -0.8861
 3462TIP3    H110392   2.189   1.433   4.223  1.2000  0.3575 -1.1348
 3462TIP3    H210393   2.235   1.323   4.131  1.0238  0.0679 -0.8774
 3463TIP3   OH210394   0.158   1.418   2.621  0.3560  0.2554 -0.0749
 3463TIP3    H110395   0.222   1.348   2.611  0.8982  0.8146 -0.5989
 3463TIP3    H210396   0.176   1.479   2.549  1.7494  2.3779  1.9007
 3464TIP3   OH210397   3.741   3.464   0.979  0.3369 -0.4724  0.4491
 3464TIP3    H110398   3.822   3.416   0.993  0.5559  0.1382  1.3443
 3464TIP3    H210399   3.676   3.397   0.960  0.4339 -1.2603  2.5890
 3465TIP3   OH210400   6.233   1.806   1.768 -0.6353  0.4078 -0.3922
 3465TIP3    H110401   6.227   1.853   1.852  0.1332  0.1770 -0.2060
 3465TIP3    H210402   6.149   1.823   1.726 -0.7330  1.1639  0.0893
 3466TIP3   OH210403   5.938   5.364   2.075 -0.3028  0.2757 -0.3213
 3466TIP3    H110404   5.990   5.425   2.022 -0.0464  1.5627  1.3095
 3466TIP3    H210405   5.849   5.376   2.044  0.1929 -1.4493 -2.6824
 3467TIP3   OH210406   5.618   1.705   0.737 -0.4507  0.4113  0.4544
 3467TIP3    H110407   5.583   1.660   0.814  1.7543 -3.0296 -0.3509
 3467TIP3    H210408   5.558   1.684   0.666  0.5682 -1.4557  0.0830
 3468TIP3   OH210409   0.389   5.641   0.983 -0.3858 -0.4903  0.2794
 3468TIP3    H110410   0.450   5.575   0.950  0.2526  0.0357  0.3836
 3468TIP3    H210411   0.332   5.592   1.043  0.3080 -0.8845  0.6390
 3469TIP3   OH210412   1.441   1.271   0.008  0.1776 -0.4142 -0.5436
 3469TIP3    H110413   1.361   1.249   0.055  1.1883 -0.8341  1.0437
 3469TIP3    H210414   1.494   1.191   0.011  1.0206  0.1199 -0.8008
 3470TIP3   OH210415   3.829   4.640   2.587  0.1769  0.6020  0.5884
 3470TIP3    H110416   3.781   4.717   2.617  0.9194  1.7560 -1.0268
 3470TIP3    H210417   3.774   4.602   2.519  0.4300  0.5038  0.4370
 3471TIP3   OH210418   4.614   4.156   2.543  0.1536  0.5745 -0.2299
 3471TIP3    H110419   4.683   4.174   2.480  2.0856  0.2543  1.6734
 3471TIP3    H210420   4.590   4.065   2.528  0.7263  0.4471 -0.3805
 3472TIP3   OH210421   5.792   2.011   4.572  0.8781  0.5481 -0.4392
 3472TIP3    H110422   5.781   2.106   4.578  0.5991  0.4354  1.2199
 3472TIP3    H210423   5.753   1.988   4.488 -0.4273  1.7109 -0.1809
 3473TIP3   OH210424   3.569   4.827   3.888  0.1536  0.3894 -0.5005
 3473TIP3    H110425   3.630   4.900   3.892 -0.9365  1.2832  1.2658
 3473TIP3    H210426   3.490   4.863   3.848  0.3428 -0.4198 -1.6373
 3474TIP3   OH210427   2.656   1.916   3.951 -0.6509  0.2110  0.3954
 3474TIP3    H110428   2.672   1.949   3.862  0.2298 -2.5573 -0.5701
 3474TIP3    H210429   2.568   1.880   3.948  0.0190 -1.5132  0.0205
 3475TIP3   OH210430   3.859   3.529   1.423  0.0863  0.2549 -0.0173
 3475TIP3    H110431   3.809   3.611   1.421  0.2809  0.3841  0.4867
 3475TIP3    H210432   3.910   3.534   1.503  0.3342 -0.2240 -0.1466
 3476TIP3   OH210433   5.393   1.976   4.604 -0.6148  0.1919  0.0420
 3476TIP3    H110434   5.398   1.953   4.697  0.9916  1.4115  0.2883
 3476TIP3    H210435   5.412   2.070   4.601 -0.4748  0.1421 -1.5344
 3477TIP3   OH210436   3.521   1.977   3.182 -0.3068  0.6952  0.0861
 3477TIP3    H110437   3.580   2.050   3.199  0.7703 -0.5057  1.9024
 3477TIP3    H210438   3.441   1.999   3.230 -0.7555  1.5330 -0.9847
 3478TIP3   OH210439   2.396   3.466   2.669  0.7112  0.1443  0.1959
 3478TIP3    H110440   2.419   3.538   2.610  0.4239  1.7337  1.9403
 3478TIP3    H210441   2.318   3.497   2.716  0.7442 -1.1807  1.1871
 3479TIP3   OH210442   2.357   4.379   3.556  0.3601 -0.8122 -0.2529
 3479TIP3    H110443   2.344   4.302   3.501 -0.0024  0.2213 -1.6803
 3479TIP3    H210444   2.318   4.451   3.506 -0.0748  0.1755  1.4033
 3480TIP3   OH210445   5.017   4.678   0.591 -0.0105 -0.0807 -0.1524
 3480TIP3    H110446   5.003   4.586   0.569 -1.4288 -0.3588  1.6512
 3480TIP3    H210447   4.930   4.717   0.584 -0.3213  0.1045  3.2430
 3481TIP3   OH210448   3.874   1.123   1.242  0.7382  0.2503 -0.3433
 3481TIP3    H110449   3.791   1.120   1.194  0.9980 -1.3972 -0.7633
 3481TIP3    H210450   3.924   1.191   1.198 -0.5162  1.5565  0.1696
 3482TIP3   OH210451   4.018   1.299   1.517 -0.3553  0.0774 -0.4221
 3482TIP3    H110452   4.085   1.278   1.582 -0.2527 -1.6024 -1.0249
 3482TIP3    H210453   3.944   1.331   1.568  0.1668 -0.0039  0.4066
 3483TIP3   OH210454   4.343   3.641   0.517 -0.5949 -0.2485 -0.5171
 3483TIP3    H110455   4.264   3.684   0.484 -0.0010  2.5121  1.2347
 3483TIP3    H210456   4.403   3.640   0.443 -2.0455 -1.9562 -1.7370
 3484TIP3   OH210457   1.396   4.730   0.143  0.8774  0.3228 -0.4207
 3484TIP3    H110458   1.335   4.795   0.109 -1.0340 -0.2312  1.6589
 3484TIP3    H210459   1.370   4.648   0.100 -2.1598 -0.5724  2.6530
 3485TIP3   OH210460   0.724   4.676   1.438 -0.0280 -0.0499 -0.1589
 3485TIP3    H110461   0.682   4.757   1.407 -0.5385 -0.4580 -0.5618
 3485TIP3    H210462   0.670   4.649   1.512  0.9753  0.7249  0.9021
 3486TIP3   OH210463   4.992   0.254   0.375 -0.2831  0.0680 -0.3392
 3486TIP3    H110464   4.969   0.163   0.397 -1.6085  0.6416  0.7990
 3486TIP3    H210465   4.908   0.297   0.359  0.3519  1.0190 -1.2674
 3487TIP3   OH210466   1.262   2.076   0.134  0.4300 -0.0453  0.2557
 3487TIP3    H110467   1.315   2.111   0.062 -0.8794  1.5664  0.0201
 3487TIP3    H210468   1.276   2.137   0.206 -1.0198  0.3827  0.2061
 3488TIP3   OH210469   5.839   3.624   4.467 -0.3743 -0.2811  0.3372
 3488TIP3    H110470   5.842   3.672   4.384  1.8622  0.4482  0.7597
 3488TIP3    H210471   5.747   3.624   4.492 -0.6375  2.8447 -0.2363
 3489TIP3   OH210472   3.434   2.342   1.644  0.2678  0.1423 -1.0357
 3489TIP3    H110473   3.410   2.254   1.617 -0.5090 -0.2038  0.6100
 3489TIP3    H210474   3.419   2.396   1.567 -1.9395 -0.7299 -1.3001
 3490TIP3   OH210475   1.025   3.041   0.978  0.1052  0.2467 -0.3013
 3490TIP3    H110476   0.998   3.133   0.976 -2.0410 -0.2606  1.3343
 3490TIP3    H210477   1.120   3.044   0.968 -0.0743  2.4759 -2.4815
 3491TIP3   OH210478   2.246   0.621   0.071  0.1726  0.2216 -0.3503
 3491TIP3    H110479   2.158   0.659   0.078 -0.0408 -0.3700  0.2852
 3491TIP3    H210480   2.241   0.539   0.121  1.0187  0.0649 -0.5071
 3492TIP3   OH210481   1.333   0.269   2.629  0.1595  0.0292 -0.0988
 3492TIP3    H110482   1.400   0.200   2.622 -0.8004 -1.0053  0.5632
 3492TIP3    H210483   1.377   0.348   2.597  1.6029 -0.6831  0.0267
 3493TIP3   OH210484   3.807   2.581   1.775  0.3683  0.4787 -0.2067
 3493TIP3    H110485   3.820   2.610   1.865  2.7868 -1.9688  0.3911
 3493TIP3    H210486   3.886   2.610   1.729 -1.0190  2.0734 -1.7393
 3494TIP3   OH210487   4.269   2.534   1.006  0.1272  0.6099 -0.6516
 3494TIP3    H110488   4.354   2.511   1.041  0.7490  1.9371 -1.2216
 3494TIP3    H210489   4.281   2.536   0.911 -0.9969 -0.8765 -0.8742
 3495TIP3   OH210490   1.746   3.284   1.290 -0.2897 -0.3239  0.5634
 3495TIP3    H110491   1.834   3.266   1.257  0.3059  0.8197  1.4653
 3495TIP3    H210492   1.689   3.228   1.237  0.8110  0.0285 -1.0715
 3496TIP3   OH210493   1.635   4.105   4.611  0.0305 -0.3062 -0.2445
 3496TIP3    H110494   1.720   4.086   4.571  0.1491  0.0984 -0.1857
 3496TIP3    H210495   1.652   4.108   4.705 -0.3157 -1.6223 -0.1130
 3497TIP3   OH210496   4.458   3.452   0.005  0.1741  0.2154  0.1339
 3497TIP3    H110497   4.520   3.424   0.073  1.0758 -0.5227 -0.9563
 3497TIP3    H210498   4.512   3.467  -0.072 -1.0507 -0.8126 -0.9628
 3498TIP3   OH210499   2.113   4.114   3.703 -0.1062  0.0298  0.0852
 3498TIP3    H110500   2.043   4.124   3.768  0.7321 -1.2157  1.2254
 3498TIP3    H210501   2.184   4.168   3.737 -0.4844  1.3289 -1.0962
 3499TIP3   OH210502   4.160   3.834   4.362 -0.5581  0.3804 -0.2268
 3499TIP3    H110503   4.149   3.882   4.443 -1.4033  0.1233 -0.1840
 3499TIP3    H210504   4.140   3.897   4.293  0.2543  0.6259 -0.2491
 3500TIP3   OH210505   5.491   5.833   3.010 -0.0753  0.2000  0.3396
 3500TIP3    H110506   5.495   5.929   3.011  0.4574  0.1853  1.8815
 3500TIP3    H210507   5.405   5.811   3.045  0.3574  0.1206  1.3952
 3501TIP3   OH210508   2.110   5.587   2.036 -0.1434  0.2265  0.1195
 3501TIP3    H110509   2.190   5.541   2.060 -0.2830 -1.1319 -1.7955
 3501TIP3    H210510   2.140   5.672   2.004  0.4726  0.0057  0.0935
 3502TIP3   OH210511   6.003   1.614   0.618  0.3740  0.0244  0.3904
 3502TIP3    H110512   5.972   1.671   0.688  1.0279  0.6182  0.2058
 3502TIP3    H210513   6.064   1.554   0.661  2.7032  1.9503 -0.0253
 3503TIP3   OH210514   1.790   3.184   4.959 -0.5821  0.4984  0.4651
 3503TIP3    H110515   1.749   3.138   5.033  0.7562  1.9820  2.2339
 3503TIP3    H210516   1.760   3.275   4.968 -1.4778  0.4817 -1.6908
 3504TIP3   OH210517   3.056   0.240   0.107  0.6140  0.6532  0.0805
 3504TIP3    H110518   3.061   0.156   0.152 -0.4952  0.2377 -0.5121
 3504TIP3    H210519   3.004   0.222   0.029  1.6149  1.5799 -0.8311
 3505TIP3   OH210520   4.797   4.167   0.184 -0.0120  0.1904  0.2487
 3505TIP3    H110521   4.782   4.074   0.170  0.4118  0.2318 -0.5993
 3505TIP3    H210522   4.861   4.191   0.116 -1.2882  1.4256 -0.5636
 3506TIP3   OH210523   1.010   3.652   3.383  0.0086  0.0980  0.4974
 3506TIP3    H110524   1.045   3.730   3.426  1.4463 -0.2165 -0.0607
 3506TIP3    H210525   1.084   3.592   3.378 -0.3524 -0.2414 -1.5610
 3507TIP3   OH210526   2.744   0.089   3.803 -0.2354  0.0037 -0.4388
 3507TIP3    H110527   2.812   0.030   3.771 -0.1699  0.2280 -0.7211
 3507TIP3    H210528   2.723   0.056   3.890 -0.6393 -0.8028 -0.8310
 3508TIP3   OH210529   2.671   0.580   2.494  0.1633  0.2587 -0.0850
 3508TIP3    H110530   2.598   0.590   2.555  1.2965  0.0260  1.3789
 3508TIP3    H210531   2.659   0.650   2.430 -2.9390 -1.5460 -1.6721
 3509TIP3   OH210532   3.988   0.917   2.441  0.6338 -0.0179 -0.1584
 3509TIP3    H110533   4.004   0.995   2.494  1.0654 -0.7517  0.8141
 3509TIP3    H210534   4.017   0.941   2.353  0.7655  0.9117  0.1295
 3510TIP3   OH210535   4.424   3.235   4.065 -0.1305 -0.7440  0.0091
 3510TIP3    H110536   4.480   3.160   4.046 -1.6268 -1.6961 -0.8454
 3510TIP3    H210537   4.335   3.200   4.061 -0.8258  0.8292  0.7933
 3511TIP3   OH210538   5.694   5.373   1.910  0.0108 -0.1724 -0.1764
 3511TIP3    H110539   5.638   5.296   1.911 -1.4010  0.7956 -0.9666
 3511TIP3    H210540   5.634   5.446   1.892  1.6539  0.7909 -2.1996
 3512TIP3   OH210541   5.831   3.769   0.313 -0.0641  0.0472 -0.0487
 3512TIP3    H110542   5.856   3.844   0.367 -1.1426 -0.9564  1.9681
 3512TIP3    H210543   5.741   3.786   0.288  0.1962  0.1503 -0.9484
 3513TIP3   OH210544   5.953   4.261   4.798 -0.6529 -0.2920  0.2356
 3513TIP3    H110545   5.975   4.320   4.725 -1.7307 -1.1964 -0.8461
 3513TIP3    H210546   5.860   4.273   4.812 -0.6389 -0.8303  0.8343
 3514TIP3   OH210547   0.944   5.535   3.873  0.8162  0.4917  0.6299
 3514TIP3    H110548   0.910   5.609   3.924 -1.9966  0.0725 -0.4718
 3514TIP3    H210549   0.934   5.563   3.782  3.1435  0.1289  0.2024
 3515TIP3   OH210550   5.318   5.739   4.883 -0.0388 -0.7072 -0.1797
 3515TIP3    H110551   5.321   5.673   4.813  0.0481 -0.4566 -0.4148
 3515TIP3    H210552   5.405   5.735   4.923 -0.8951 -2.7501  1.7051
 3516TIP3   OH210553   1.525   2.235   2.856  0.5934  0.1709 -0.4739
 3516TIP3    H110554   1.467   2.283   2.797  0.6396 -0.6614 -1.2172
 3516TIP3    H210555   1.467   2.179   2.907  0.6934 -0.3913 -0.9614
 3517TIP3   OH210556   1.697   5.021   3.600  0.0949  0.0444 -0.2538
 3517TIP3    H110557   1.621   4.977   3.561  0.0086  1.2683 -1.5485
 3517TIP3    H210558   1.768   4.957   3.592 -0.5912 -0.7959  0.2002
 3518TIP3   OH210559   2.977   2.666   2.580  0.0530  0.0017 -0.2761
 3518TIP3    H110560   2.910   2.657   2.513  0.3400 -1.1843 -0.4249
 3518TIP3    H210561   3.049   2.611   2.550  0.1678 -0.5996  1.0332
 3519TIP3   OH210562   4.728   4.515   0.601  0.6193 -0.1577 -0.2535
 3519TIP3    H110563   4.728   4.466   0.683 -3.6470 -0.9059 -0.4365
 3519TIP3    H210564   4.736   4.448   0.533  0.1333 -0.0203 -0.4527
 3520TIP3   OH210565   1.290   0.828   4.234  0.0239  0.0871  0.4164
 3520TIP3    H110566   1.290   0.922   4.216 -1.5616  0.1193  0.4157
 3520TIP3    H210567   1.227   0.817   4.306  0.1216 -0.9760  0.3605
 3521TIP3   OH210568   5.627   0.029   2.409 -0.2885 -0.0978  0.0522
 3521TIP3    H110569   5.605   0.122   2.410  1.9125  0.4684  0.3287
 3521TIP3    H210570   5.615   0.001   2.318 -1.8055  0.1975  0.1351
 3522TIP3   OH210571   3.170   1.676   3.830  0.1678 -0.7550 -0.3187
 3522TIP3    H110572   3.246   1.618   3.829  1.0148  0.3303 -0.5704
 3522TIP3    H210573   3.156   1.699   3.738 -0.3362 -0.7846 -0.2520
 3523TIP3   OH210574   4.936   5.023   0.270  0.1772 -0.1702 -0.1195
 3523TIP3    H110575   4.898   5.023   0.357 -0.8762  0.0532 -0.5662
 3523TIP3    H210576   4.918   5.110   0.235  1.6696  0.1704 -0.1159
 3524TIP3   OH210577   0.178   2.170   4.057  0.3614 -0.5635 -0.5692
 3524TIP3    H110578   0.247   2.105   4.048  0.9703  0.2475 -2.1158
 3524TIP3    H210579   0.196   2.234   3.988 -0.0892  1.3613  0.9977
 3525TIP3   OH210580   0.417   3.009   1.765  0.2868  0.0921 -0.6652
 3525TIP3    H110581   0.499   3.047   1.796  0.6150 -0.5618 -0.7063
 3525TIP3    H210582   0.362   3.084   1.744  0.3892  0.5424  0.6199
 3526TIP3   OH210583   3.463   0.448   1.518  0.0279  0.0443 -0.4756
 3526TIP3    H110584   3.375   0.453   1.555 -0.4654 -0.3019 -1.5611
 3526TIP3    H210585   3.449   0.426   1.426  1.2717 -0.3598 -0.5820
 3527TIP3   OH210586   4.504   2.046   4.619 -0.2634  0.7285 -0.5657
 3527TIP3    H110587   4.570   1.977   4.629 -0.3692  0.4140 -1.8043
 3527TIP3    H210588   4.490   2.079   4.708 -2.1542 -2.6608  0.6090
 3528TIP3   OH210589   3.295   3.224   4.378 -0.0878 -0.3108 -0.1048
 3528TIP3    H110590   3.267   3.238   4.469  0.3374 -1.5161  0.2348
 3528TIP3    H210591   3.214   3.225   4.327 -0.3928 -0.2026  0.3772
 3529TIP3   OH210592   2.491   1.532   2.948 -0.0156  0.1458 -0.0202
 3529TIP3    H110593   2.560   1.489   2.897 -0.1826  0.4199 -0.4874
 3529TIP3    H210594   2.538   1.588   3.010  0.1993  1.2065 -1.0883
 3530TIP3   OH210595   2.446   2.966   4.361 -0.3225 -0.2597  0.1767
 3530TIP3    H110596   2.410   3.007   4.283  0.4318  0.6179  0.2741
 3530TIP3    H210597   2.479   2.881   4.331 -2.7957 -1.3213  0.1703
 3531TIP3   OH210598   2.263   0.380   3.858  0.2134  0.4599  0.0641
 3531TIP3    H110599   2.192   0.436   3.827 -0.2809 -0.6568 -0.8938
 3531TIP3    H210600   2.268   0.397   3.952 -1.2053  0.6745  0.1204
 3532TIP3   OH210601   2.685   4.831   0.580  0.3962 -0.1651 -0.4882
 3532TIP3    H110602   2.679   4.737   0.599 -0.6766  0.1348  0.8753
 3532TIP3    H210603   2.770   4.857   0.614 -0.1873 -0.2750  1.1683
 3533TIP3   OH210604   3.547   5.689   0.116 -0.1568  0.4143  0.1134
 3533TIP3    H110605   3.552   5.776   0.157 -0.1491  0.6303 -0.3338
 3533TIP3    H210606   3.619   5.688   0.053 -0.4332  0.2600 -0.2075
 3534TIP3   OH210607   3.308   0.490   0.830 -0.1557 -0.3421  0.2806
 3534TIP3    H110608   3.256   0.551   0.778  0.3847 -0.7722 -0.7958
 3534TIP3    H210609   3.278   0.403   0.803 -0.2966 -0.5720  1.1444
 3535TIP3   OH210610   2.806   0.777   1.513 -0.1701 -0.1608 -0.2031
 3535TIP3    H110611   2.746   0.722   1.462  1.1307 -0.9775 -0.8943
 3535TIP3    H210612   2.820   0.728   1.594 -1.2575  0.5486  0.4403
 3536TIP3   OH210613   5.166   2.342   1.706  0.5030 -0.3329 -0.5266
 3536TIP3    H110614   5.078   2.361   1.739  0.6656 -0.5631  0.0442
 3536TIP3    H210615   5.167   2.381   1.618  0.4630  1.3755  0.1821
 3537TIP3   OH210616   4.511   2.575   2.418  0.4036 -0.4304 -0.3243
 3537TIP3    H110617   4.601   2.563   2.449  0.1054  0.9023  1.2159
 3537TIP3    H210618   4.509   2.533   2.333  2.4725 -0.5733 -0.3525
 3538TIP3   OH210619   4.946   5.267   0.058 -0.0362 -0.8472  0.1010
 3538TIP3    H110620   5.040   5.266   0.041  0.1670 -0.1034  1.0864
 3538TIP3    H210621   4.935   5.327   0.132 -1.3095 -0.7663 -0.1250
 3539TIP3   OH210622   5.471   2.165   1.377 -0.5492  0.1858  0.6010
 3539TIP3    H110623   5.425   2.101   1.323  2.0683 -0.1354 -1.4554
 3539TIP3    H210624   5.439   2.250   1.346  0.7635 -0.0015 -1.4311
 3540TIP3   OH210625   1.862   2.271   4.967 -0.1822  0.2786 -0.1690
 3540TIP3    H110626   1.921   2.344   4.947  0.3065 -0.2673 -0.7710
 3540TIP3    H210627   1.776   2.301   4.937  0.2500  0.1091 -1.6839
 3541TIP3   OH210628   1.660   2.639   5.093  0.4014  0.5517  0.1396
 3541TIP3    H110629   1.610   2.614   5.014  0.3615  0.0954  0.3068
 3541TIP3    H210630   1.743   2.672   5.059  0.6733 -0.3163 -0.0739
 3542TIP3   OH210631   0.488   3.880   0.494  0.3615  0.5976  0.2450
 3542TIP3    H110632   0.415   3.851   0.549  0.7101 -2.3977 -0.7366
 3542TIP3    H210633   0.498   3.973   0.516 -1.4253  0.2621  2.9983
 3543TIP3   OH210634   2.539   5.369   4.831  0.9920 -0.2863  0.1270
 3543TIP3    H110635   2.615   5.426   4.822  0.0855  0.7968 -1.0218
 3543TIP3    H210636   2.467   5.428   4.856  0.2306 -1.0502 -0.2056
 3544TIP3   OH210637   4.376   1.905   2.412 -0.0085  0.5347 -0.0933
 3544TIP3    H110638   4.343   1.960   2.483  1.2541  0.7930  0.3156
 3544TIP3    H210639   4.467   1.933   2.399  0.6375 -1.3156  0.0187
 3545TIP3   OH210640   6.023   5.387   2.622  0.2905 -0.1002  0.1850
 3545TIP3    H110641   6.111   5.423   2.612 -0.2349  0.9481 -0.8881
 3545TIP3    H210642   6.002   5.347   2.537  0.1728 -1.4338  0.8017
 3546TIP3   OH210643   3.414   4.046   3.602 -1.1744  0.5239  0.2702
 3546TIP3    H110644   3.446   4.133   3.579 -0.4480  0.1395 -0.2132
 3546TIP3    H210645   3.477   3.985   3.562 -1.4622 -0.2190  0.9025
 3547TIP3   OH210646   3.818   5.287   5.193 -0.2649 -0.0137 -0.4476
 3547TIP3    H110647   3.735   5.240   5.186  0.3372 -1.3360  0.6585
 3547TIP3    H210648   3.843   5.308   5.103 -0.8369 -1.3605 -0.9449
 3548TIP3   OH210649   4.780   5.344   2.898 -0.3987  0.1429  0.3817
 3548TIP3    H110650   4.751   5.386   2.979  0.5868  2.1101 -0.2409
 3548TIP3    H210651   4.861   5.389   2.875 -0.3678 -0.7487 -1.4305
 3549TIP3   OH210652   6.160   5.898   4.041 -0.0285  0.1713  0.2247
 3549TIP3    H110653   6.193   5.921   3.954 -1.7446 -0.1785 -0.5543
 3549TIP3    H210654   6.150   5.981   4.086 -3.0053  0.8009 -1.3880
 3550TIP3   OH210655   5.430   4.243   3.378  0.3766  0.1971 -0.8019
 3550TIP3    H110656   5.390   4.160   3.353 -0.8829  0.9919 -1.5394
 3550TIP3    H210657   5.439   4.237   3.473 -0.5453 -0.4279 -0.7403
 3551TIP3   OH210658   1.758   5.751   1.506  0.1620  0.4807  0.3045
 3551TIP3    H110659   1.722   5.831   1.468 -1.2525 -0.4922 -0.5050
 3551TIP3    H210660   1.786   5.776   1.594  0.8475  2.1245 -0.3422
 3552TIP3   OH210661   6.307   1.122   5.181  0.0109 -0.5757 -0.5095
 3552TIP3    H110662   6.402   1.113   5.190  0.0609  0.5597  0.3305
 3552TIP3    H210663   6.294   1.151   5.091  0.4897 -0.4116 -0.5298
 3553TIP3   OH210664   3.680   0.121   4.890  0.5160 -0.0056 -0.0964
 3553TIP3    H110665   3.680   0.095   4.798  1.5023 -1.9803  0.4019
 3553TIP3    H210666   3.656   0.041   4.937  0.7300  0.7797  1.4065
 3554TIP3   OH210667   2.166   0.225  -0.028 -0.2880  0.1249 -0.0475
 3554TIP3    H110668   2.123   0.195   0.052  0.2310 -1.7170 -0.4202
 3554TIP3    H210669   2.258   0.235  -0.004 -0.3475  0.8684 -0.0924
 3555TIP3   OH210670   0.314   1.615   5.096 -0.8169 -0.3798 -0.5425
 3555TIP3    H110671   0.397   1.610   5.049  1.4251 -1.1618  3.0672
 3555TIP3    H210672   0.266   1.536   5.071  1.0776 -1.6893 -0.2398
 3556TIP3   OH210673   0.647   3.614   4.592  0.1910  0.7010  0.5351
 3556TIP3    H110674   0.601   3.541   4.634 -0.2568  0.5529 -0.2017
 3556TIP3    H210675   0.579   3.680   4.576  0.3581  0.7563  0.0372
 3557TIP3   OH210676   5.167   3.966   4.107 -0.2592 -0.2896  0.1897
 3557TIP3    H110677   5.075   3.987   4.092 -0.4694 -1.4787 -0.2791
 3557TIP3    H210678   5.170   3.871   4.108  1.4684 -0.4315 -3.3878
 3558TIP3   OH210679   2.230   3.135   4.443 -0.1181 -0.1549 -0.4473
 3558TIP3    H110680   2.287   3.064   4.413  0.3737  0.7741 -1.8203
 3558TIP3    H210681   2.146   3.118   4.400 -0.1231 -0.1399 -0.4433
 3559TIP3   OH210682   4.961   4.217   1.736 -0.0262 -0.1502  0.1206
 3559TIP3    H110683   4.867   4.214   1.750 -0.1080  0.6812 -0.1957
 3559TIP3    H210684   4.981   4.310   1.728  0.9820 -0.2455  1.2315
 3560TIP3   OH210685   4.219   5.827   3.012  0.1079 -0.2135 -0.0787
 3560TIP3    H110686   4.176   5.879   2.944  1.4532  0.0959 -0.7285
 3560TIP3    H210687   4.186   5.863   3.095 -0.3898  0.4244 -0.5424
 3561TIP3   OH210688   2.944   4.501   1.307  0.0349  0.0461 -0.1315
 3561TIP3    H110689   2.910   4.415   1.285  0.7469 -0.0227 -0.9904
 3561TIP3    H210690   2.964   4.495   1.401  1.9107 -1.3836 -0.5593
 3562TIP3   OH210691   2.833   5.149   3.732  0.2710  0.1054  0.0101
 3562TIP3    H110692   2.782   5.149   3.813 -0.3848 -1.4476 -0.3596
 3562TIP3    H210693   2.923   5.137   3.760 -0.1639 -2.7324  0.4910
 3563TIP3   OH210694   3.632   3.568   2.218 -0.2263 -0.5088  0.1872
 3563TIP3    H110695   3.722   3.541   2.204  0.1347 -0.0714  1.4767
 3563TIP3    H210696   3.639   3.653   2.262 -1.2511 -0.6582  0.6827
 3564TIP3   OH210697   6.185   0.080   0.006 -0.3495 -0.0629 -0.2156
 3564TIP3    H110698   6.095   0.047   0.009 -0.0919 -0.7614 -0.1963
 3564TIP3    H210699   6.191   0.139   0.081 -0.2443 -1.4477  0.9030
 3565TIP3   OH210700   1.419   4.171   4.761  0.5783  0.0298  0.1816
 3565TIP3    H110701   1.483   4.130   4.703  1.0544  0.6727  0.2365
 3565TIP3    H210702   1.423   4.121   4.842  1.4856  0.4561  0.4080
 3566TIP3   OH210703   3.827   5.966   5.148 -0.2164 -0.0905 -0.5162
 3566TIP3    H110704   3.733   5.973   5.164 -0.1076 -0.9452  0.5860
 3566TIP3    H210705   3.845   5.872   5.151  0.2349 -0.1904 -3.4753
 3567TIP3   OH210706   3.844   2.045   2.350  0.3086 -0.5049 -0.0496
 3567TIP3    H110707   3.925   1.995   2.362 -0.1720 -1.6193 -1.2048
 3567TIP3    H210708   3.794   1.994   2.287 -1.2360  0.2431  0.5243
 3568TIP3   OH210709   0.768   3.425   3.014 -0.2120 -0.5644  0.2017
 3568TIP3    H110710   0.691   3.435   2.958  0.5331  0.8945 -0.6147
 3568TIP3    H210711   0.842   3.418   2.953  0.4849 -0.2175  0.9853
 3569TIP3   OH210712   3.175   3.140   4.639  0.3134 -0.0798  0.3279
 3569TIP3    H110713   3.219   3.063   4.604  0.7257 -0.1221  0.9406
 3569TIP3    H210714   3.102   3.105   4.689  0.1232 -0.0429  0.0808
 3570TIP3   OH210715   3.675   2.674   0.305  0.3077  0.1855 -0.0579
 3570TIP3    H110716   3.647   2.655   0.395  0.5607 -0.2312 -0.0662
 3570TIP3    H210717   3.674   2.769   0.299  2.2039  0.3209  1.0027
 3571TIP3   OH210718   5.051   1.878   1.525  0.0413 -0.2561  0.1426
 3571TIP3    H110719   4.970   1.871   1.576  0.5669 -0.0088  1.0334
 3571TIP3    H210720   5.072   1.972   1.525 -0.8667  0.0153 -2.0295
 3572TIP3   OH210721   4.033   4.341   1.645  0.1503  0.0497 -0.3434
 3572TIP3    H110722   3.980   4.271   1.682  0.6849  0.1770  0.7148
 3572TIP3    H210723   4.035   4.323   1.551 -1.6178 -0.0340 -0.3993
 3573TIP3   OH210724   3.382   1.993   4.296  0.1896 -0.2537 -0.3156
 3573TIP3    H110725   3.429   2.031   4.222  2.2670 -1.4481  0.3152
 3573TIP3    H210726   3.352   1.908   4.264 -2.3596  0.7982 -0.9632
 3574TIP3   OH210727   4.444   5.691   4.266 -0.0173  0.3099  0.1021
 3574TIP3    H110728   4.370   5.690   4.326 -1.4108 -3.2966 -1.4280
 3574TIP3    H210729   4.505   5.627   4.301  0.1008 -0.3230 -1.1973
 3575TIP3   OH210730   2.857   3.742   4.759 -0.0543 -0.3011  0.0667
 3575TIP3    H110731   2.889   3.832   4.764  1.7091 -0.9485  1.2726
 3575TIP3    H210732   2.792   3.735   4.829 -2.0521  0.6712 -1.5966
 3576TIP3   OH210733   2.481   1.011   2.355  0.1130 -0.1765 -0.1951
 3576TIP3    H110734   2.452   1.028   2.265  1.4103 -1.3339 -0.8599
 3576TIP3    H210735   2.527   1.091   2.380 -1.3172  0.6557 -0.0590
 3577TIP3   OH210736   4.458   1.414   3.930 -0.0864 -0.7861  0.2246
 3577TIP3    H110737   4.467   1.343   3.993  2.4507 -1.4117 -0.7304
 3577TIP3    H210738   4.544   1.457   3.929 -0.7259  0.5680 -1.2077
 3578TIP3   OH210739   5.974   1.983   4.896  0.0055 -0.0060 -0.2308
 3578TIP3    H110740   6.017   1.969   4.980 -2.0630 -1.5734  0.6723
 3578TIP3    H210741   6.013   2.063   4.861 -0.0615  1.5416  2.8900
 3579TIP3   OH210742   6.096   1.362   3.926 -0.6985 -0.2877 -0.2137
 3579TIP3    H110743   6.083   1.457   3.923  0.7336 -0.0821 -1.7506
 3579TIP3    H210744   6.151   1.343   3.850  0.8333 -2.0671  1.2425
 3580TIP3   OH210745   4.076   2.974   5.145 -0.0779  0.6538  0.2267
 3580TIP3    H110746   4.058   3.063   5.176  0.3579  0.5669  0.7461
 3580TIP3    H210747   4.002   2.922   5.176 -0.1403  0.7578  0.2545
 3581TIP3   OH210748   3.465   3.100   2.324  0.2572 -0.3543  0.0483
 3581TIP3    H110749   3.450   3.029   2.386 -0.7360  0.9686  1.3726
 3581TIP3    H210750   3.546   3.142   2.354 -2.2918  2.8932  3.1926
 3582TIP3   OH210751   4.103   1.147   3.990  0.6988 -0.5715  0.1846
 3582TIP3    H110752   4.168   1.166   3.922  0.1798  1.2124  0.1326
 3582TIP3    H210753   4.121   1.212   4.058  0.1334 -1.2504  1.0012
 3583TIP3   OH210754   1.042   3.519   4.125 -0.2134  0.1777  0.8066
 3583TIP3    H110755   0.995   3.569   4.192 -1.0945  0.2948  0.1174
 3583TIP3    H210756   1.134   3.542   4.138 -0.1622 -0.9704  2.9478
 3584TIP3   OH210757   0.370   2.345   0.477  0.2347  0.4235 -0.5055
 3584TIP3    H110758   0.444   2.343   0.417  0.7711  1.2880  0.0985
 3584TIP3    H210759   0.300   2.299   0.431  1.8787 -2.8694 -0.0491
 3585TIP3   OH210760   0.165   3.033   2.097 -0.0610 -0.0026  1.0782
 3585TIP3    H110761   0.211   3.075   2.169  0.1813  0.5763  0.5890
 3585TIP3    H210762   0.203   2.945   2.091  1.5377  0.7102  0.1907
 3586TIP3   OH210763   3.216   2.257   3.093 -0.0041  0.2842 -0.5602
 3586TIP3    H110764   3.274   2.289   3.163  0.2018 -0.1094 -0.5527
 3586TIP3    H210765   3.270   2.261   3.014 -0.7462  2.3515 -1.0237
 3587TIP3   OH210766   2.193   4.845   3.932  0.0470 -0.3363  0.3253
 3587TIP3    H110767   2.161   4.907   3.998  0.1290  2.9647 -2.4622
 3587TIP3    H210768   2.118   4.788   3.915 -2.1357  2.6375 -0.8842
 3588TIP3   OH210769   3.938   3.761   2.152 -0.3350  0.6744 -0.2272
 3588TIP3    H110770   3.869   3.794   2.210  0.1380 -0.4704  1.0264
 3588TIP3    H210771   3.935   3.666   2.162 -0.0150  0.4638 -1.8512
 3589TIP3   OH210772   4.034   3.590   1.130  0.4080 -0.0504  0.1711
 3589TIP3    H110773   4.039   3.600   1.225 -0.3060 -1.5275  0.3907
 3589TIP3    H210774   3.940   3.590   1.111  0.5065 -1.0576 -0.3710
 3590TIP3   OH210775   2.975   0.318   0.976  0.1919  0.2287  0.7772
 3590TIP3    H110776   3.042   0.308   0.909 -0.9414 -0.6439 -0.2613
 3590TIP3    H210777   2.995   0.250   1.041  1.0922  0.8584  1.1832
 3591TIP3   OH210778   3.323   5.032   2.455  0.6107  0.1342 -0.1844
 3591TIP3    H110779   3.350   5.031   2.547  1.9817  0.3437 -0.5626
 3591TIP3    H210780   3.291   5.121   2.441  0.3563  0.0897  0.0994
 3592TIP3   OH210781   0.939   0.921   3.454  0.1819  0.1419 -0.3741
 3592TIP3    H110782   0.861   0.894   3.504  0.9423  0.3471  0.9674
 3592TIP3    H210783   0.917   1.008   3.420 -0.1193  0.2659  0.1333
 3593TIP3   OH210784   3.355   0.575   4.859 -0.3810  1.0317  0.0217
 3593TIP3    H110785   3.386   0.491   4.893 -0.7605  0.4977 -0.9323
 3593TIP3    H210786   3.412   0.593   4.784 -1.7563  0.4661 -1.2174
 3594TIP3   OH210787   6.042   0.628   1.373 -0.8413  0.4484 -0.0331
 3594TIP3    H110788   6.114   0.666   1.323 -1.0815 -0.6298 -1.2357
 3594TIP3    H210789   5.971   0.692   1.364 -0.7210  0.5020 -0.6588
 3595TIP3   OH210790   5.011   3.410   3.844 -0.3643  0.1868  0.2391
 3595TIP3    H110791   4.915   3.412   3.838 -0.3335 -0.0040 -0.3563
 3595TIP3    H210792   5.030   3.331   3.893 -0.5335  0.5526  0.9079
 3596TIP3   OH210793   0.619   3.244   0.981 -0.0439 -0.4628  0.2058
 3596TIP3    H110794   0.582   3.226   1.068  1.4028  2.1180  1.4878
 3596TIP3    H210795   0.589   3.333   0.960  0.1708 -0.7950 -1.6766
 3597TIP3   OH210796   5.612   1.641   3.207 -0.2575  0.0580  0.1487
 3597TIP3    H110797   5.636   1.560   3.251  0.5181  1.3466  2.2387
 3597TIP3    H210798   5.682   1.702   3.228 -0.9379  1.3715 -1.1711
 3598TIP3   OH210799   3.028   1.217   0.527  0.2772 -0.1257 -0.4394
 3598TIP3    H110800   2.973   1.179   0.595  1.8940 -0.1318  0.9367
 3598TIP3    H210801   3.111   1.235   0.571  1.2722  0.1859 -2.3487
 3599TIP3   OH210802   3.383   4.937   2.097 -0.4186  0.1273 -0.0274
 3599TIP3    H110803   3.353   4.913   2.184  0.1924 -2.2372 -0.3800
 3599TIP3    H210804   3.472   4.971   2.110 -0.7365  0.8255  0.3579
 3600TIP3   OH210805   0.401   0.457   3.609 -0.4654 -0.2264  0.9747
 3600TIP3    H110806   0.386   0.473   3.516 -1.1574  1.0862  1.2997
 3600TIP3    H210807   0.399   0.361   3.617  0.9261 -0.4319 -0.5538
 3601TIP3   OH210808   5.101   1.405   4.307 -0.6921  0.4374  0.1171
 3601TIP3    H110809   5.108   1.431   4.398  2.3236  1.0771 -0.1778
 3601TIP3    H210810   5.099   1.487   4.258 -1.6039  0.0948 -0.4563
 3602TIP3   OH210811   1.727   2.287   2.650  0.1287  0.3472  0.0451
 3602TIP3    H110812   1.691   2.329   2.572  1.4815  1.0517 -0.2409
 3602TIP3    H210813   1.665   2.308   2.720  0.5211  2.5073 -0.1759
 3603TIP3   OH210814   1.837   3.809   1.097 -0.0592 -0.0299 -0.3432
 3603TIP3    H110815   1.865   3.778   1.011 -0.4779  1.1452 -0.9133
 3603TIP3    H210816   1.744   3.827   1.088 -0.2187 -0.3758  0.5050
 3604TIP3   OH210817   4.267   4.824   2.465 -0.2422 -0.2915 -0.2729
 3604TIP3    H110818   4.203   4.785   2.405 -0.6343  1.8783 -1.3542
 3604TIP3    H210819   4.346   4.835   2.413 -0.0052 -0.0281  0.1343
 3605TIP3   OH210820   2.708   4.451   0.227  0.3814 -0.0373  0.1303
 3605TIP3    H110821   2.791   4.464   0.180 -0.4774 -1.3473 -1.9080
 3605TIP3    H210822   2.732   4.452   0.319  2.6213 -0.0691 -0.3931
 3606TIP3   OH210823   4.654   3.777   4.579 -0.1570 -0.1476  0.4687
 3606TIP3    H110824   4.599   3.743   4.650 -0.0242  1.0334  1.1687
 3606TIP3    H210825   4.624   3.730   4.501  0.4838 -2.3324  1.4745
 3607TIP3   OH210826   1.624   3.552   3.258  0.7087  0.5093 -0.0769
 3607TIP3    H110827   1.531   3.562   3.237  0.3598 -0.4720  0.8908
 3607TIP3    H210828   1.647   3.633   3.305  0.4081  0.8533 -0.5144
 3608TIP3   OH210829   3.321   1.080   1.617  0.6389 -0.1453  0.5264
 3608TIP3    H110830   3.378   1.024   1.671  1.9163  0.0789 -0.5288
 3608TIP3    H210831   3.349   1.063   1.527 -0.8831  0.1128 -0.0201
 3609TIP3   OH210832   3.964   1.347   2.934  0.0125 -0.1782 -0.1503
 3609TIP3    H110833   3.989   1.371   3.023  0.0678 -0.0816 -0.1924
 3609TIP3    H210834   3.976   1.252   2.931 -1.0965 -0.3411  0.3025
 3610TIP3   OH210835   3.179   5.450   0.050  0.3490 -0.0746 -0.3228
 3610TIP3    H110836   3.245   5.479  -0.013 -0.9778 -0.5591 -2.0059
 3610TIP3    H210837   3.169   5.525   0.109  1.8351  0.2896 -0.4895
 3611TIP3   OH210838   3.083   3.839   2.194  0.5236  0.3725  0.6470
 3611TIP3    H110839   3.002   3.803   2.157  0.1179  0.4266  1.4758
 3611TIP3    H210840   3.055   3.892   2.267  1.3662 -0.2141  1.4221
 3612TIP3   OH210841   3.106   5.117   3.689 -0.4086  0.0686 -0.0127
 3612TIP3    H110842   3.166   5.043   3.682  0.3970  0.7293 -0.2519
 3612TIP3    H210843   3.122   5.153   3.776  1.7360  2.0442 -1.1216
 3613TIP3   OH210844   1.319   1.993   1.641  0.1722 -0.0577 -0.0263
 3613TIP3    H110845   1.362   2.077   1.622 -0.9192  0.4582 -0.2743
 3613TIP3    H210846   1.274   1.970   1.560 -3.0285  1.2512  1.1992
 3614TIP3   OH210847   3.421   4.130   0.403  0.3049 -0.2411  0.5944
 3614TIP3    H110848   3.433   4.222   0.427 -0.4331  0.3076 -1.0174
 3614TIP3    H210849   3.332   4.125   0.368  1.5259 -0.7078 -2.8166
 3615TIP3   OH210850   0.160   5.902   3.153  0.1011 -0.2018 -0.5269
 3615TIP3    H110851   0.171   5.817   3.194  0.8887  1.1805  2.4043
 3615TIP3    H210852   0.067   5.923   3.167  0.3652  0.2601  0.5912
 3616TIP3   OH210853   1.903   1.607   0.986  0.3768  0.1113 -0.1222
 3616TIP3    H110854   1.979   1.548   0.982 -0.4535 -1.0593  0.7922
 3616TIP3    H210855   1.941   1.693   1.006  1.5645 -0.1809 -0.9750
 3617TIP3   OH210856   1.637   2.913   2.950 -0.4387  0.0157  0.0019
 3617TIP3    H110857   1.702   2.921   2.880 -0.9576  0.4641 -0.4465
 3617TIP3    H210858   1.619   2.819   2.955  0.8527 -0.2147  0.7228
 3618TIP3   OH210859   0.312   4.703   2.774 -0.1372 -0.7301  0.1600
 3618TIP3    H110860   0.337   4.661   2.856  1.3015  0.6311  0.4662
 3618TIP3    H210861   0.389   4.753   2.748 -0.5971 -1.0443 -1.9871
 3619TIP3   OH210862   2.864   1.891   2.845 -0.2377 -0.0364  0.0799
 3619TIP3    H110863   2.867   1.967   2.787  0.7641 -0.9825 -1.1675
 3619TIP3    H210864   2.947   1.893   2.892 -0.3042 -0.2430  0.2058
 3620TIP3   OH210865   5.025   4.798   2.109  0.1114 -0.7166  0.7146
 3620TIP3    H110866   5.000   4.872   2.165  1.5211  0.0338  0.3809
 3620TIP3    H210867   5.054   4.838   2.027 -0.2256 -1.7181  0.0885
 3621TIP3   OH210868   1.260   0.416   2.041  0.2981 -0.4020  0.0741
 3621TIP3    H110869   1.211   0.347   2.085  0.3951 -0.6727 -0.2381
 3621TIP3    H210870   1.255   0.490   2.101  0.0007 -0.6071  0.3089
 3622TIP3   OH210871   4.798   1.282   1.148  0.0973 -0.0065  0.6144
 3622TIP3    H110872   4.814   1.192   1.118  0.0318  0.4677 -0.9430
 3622TIP3    H210873   4.872   1.332   1.114 -0.4267  0.7104  0.5064
 3623TIP3   OH210874   5.242   5.966   2.096  0.1853  0.5956  0.2696
 3623TIP3    H110875   5.197   6.031   2.043  0.5009  0.1530 -0.5477
 3623TIP3    H210876   5.177   5.897   2.110  0.5798 -0.0240 -0.8759
 3624TIP3   OH210877   0.857   2.252   0.524 -0.1929 -0.2176 -0.0450
 3624TIP3    H110878   0.865   2.343   0.497  0.7121 -0.2770 -0.0012
 3624TIP3    H210879   0.931   2.208   0.483  0.8168 -0.4506  1.9086
 3625TIP3   OH210880   4.412   1.336   4.278  0.4991  0.6166  0.4013
 3625TIP3    H110881   4.331   1.377   4.308 -1.2018  0.4464 -3.4358
 3625TIP3    H210882   4.409   1.248   4.316 -2.4134 -0.1934 -1.3918
 3626TIP3   OH210883   1.684   2.559   0.379 -0.0612  0.0873 -0.0168
 3626TIP3    H110884   1.637   2.592   0.303 -1.0888 -2.6181 -0.6600
 3626TIP3    H210885   1.620   2.559   0.449  0.7609  2.1428  0.8071
 3627TIP3   OH210886   5.438   5.392   1.665 -0.0371  0.3592  0.4102
 3627TIP3    H110887   5.382   5.460   1.626  0.1950 -0.1751 -0.9237
 3627TIP3    H210888   5.469   5.430   1.747  1.1296  2.3936 -0.9134
 3628TIP3   OH210889   4.162   4.284   4.558 -0.1786  0.0752  0.1830
 3628TIP3    H110890   4.208   4.284   4.474  0.5890  3.2732  0.4960
 3628TIP3    H210891   4.222   4.327   4.618 -1.7801  0.2314  1.7359
 3629TIP3   OH210892   2.899   2.055   0.564 -0.1151  0.7182  0.0245
 3629TIP3    H110893   2.885   1.962   0.582  0.0516  0.9115  1.3111
 3629TIP3    H210894   2.911   2.061   0.470  3.3266 -1.0076  0.2317
 3630TIP3   OH210895   2.813   4.972   2.025  0.0699  0.1227  0.1398
 3630TIP3    H110896   2.762   4.904   2.068  0.7731 -0.1488  0.5613
 3630TIP3    H210897   2.871   4.924   1.966  0.4784  0.3672  0.3446
 3631TIP3   OH210898   3.831   2.108   4.915  0.6671  0.0871 -0.4664
 3631TIP3    H110899   3.841   2.203   4.924  0.5806 -0.0107  0.9270
 3631TIP3    H210900   3.746   2.090   4.954  2.0819 -0.9123  2.4587
 3632TIP3   OH210901   6.139   4.149   3.028 -0.7610  1.1515 -0.0653
 3632TIP3    H110902   6.184   4.184   2.950 -0.2236 -0.6643 -0.6129
 3632TIP3    H210903   6.066   4.099   2.992 -0.9546  0.9199  0.6465
 3633TIP3   OH210904   4.979   4.911   2.646 -0.3335  0.3661 -0.2659
 3633TIP3    H110905   5.058   4.932   2.695 -2.1254 -0.5363  3.4181
 3633TIP3    H210906   4.938   4.997   2.630 -0.8578  0.6816  2.2234
 3634TIP3   OH210907   2.599   5.514   0.499 -0.0438  0.0416 -0.2571
 3634TIP3    H110908   2.645   5.462   0.433 -0.6294 -0.3705 -0.3505
 3634TIP3    H210909   2.639   5.489   0.582  0.1446 -0.0410 -0.3704
 3635TIP3   OH210910   5.389   3.627   3.806  0.3238  0.6573  0.6858
 3635TIP3    H110911   5.370   3.573   3.729  1.7504 -1.1040  1.4783
 3635TIP3    H210912   5.314   3.613   3.863 -0.3876  1.3669 -0.0541
 3636TIP3   OH210913   0.784   1.206   3.998  0.5677  0.7256  0.3290
 3636TIP3    H110914   0.749   1.239   3.915  1.0755 -0.7265 -0.4912
 3636TIP3    H210915   0.784   1.282   4.055 -0.8194  1.5135 -0.6615
 3637TIP3   OH210916   3.313   0.268   4.223 -0.3525 -0.6638  0.3371
 3637TIP3    H110917   3.407   0.255   4.211 -0.2929  0.4756 -0.6379
 3637TIP3    H210918   3.282   0.187   4.262  1.2356 -0.6342  1.8054
 3638TIP3   OH210919   5.426   1.506   2.780 -0.4094 -0.3612  0.6769
 3638TIP3    H110920   5.503   1.536   2.829  1.0502  0.3822 -1.8690
 3638TIP3    H210921   5.353   1.516   2.841  0.9928  2.2274  2.1087
 3639TIP3   OH210922   5.659   0.372   4.090 -0.6891  0.0794  0.5728
 3639TIP3    H110923   5.580   0.395   4.139 -1.2275 -0.3014 -0.0953
 3639TIP3    H210924   5.726   0.434   4.121 -1.5519  1.1629  0.3308
 3640TIP3   OH210925   6.151   3.330   2.718  0.0636 -0.0952  0.1632
 3640TIP3    H110926   6.241   3.351   2.694  0.3348 -0.5262  0.7830
 3640TIP3    H210927   6.153   3.238   2.742 -0.4461  0.0117  0.6490
 3641TIP3   OH210928   2.615   3.877   0.484  0.4450  0.0262 -0.4052
 3641TIP3    H110929   2.542   3.933   0.511  0.2048 -0.5244  0.1355
 3641TIP3    H210930   2.687   3.901   0.543 -0.1630 -1.3711  1.0109
 3642TIP3   OH210931   4.403   0.463   3.060 -0.0787 -0.1637 -0.2696
 3642TIP3    H110932   4.494   0.492   3.069 -0.1195  0.0358 -0.4986
 3642TIP3    H210933   4.355   0.517   3.123 -0.1156  0.0828 -0.5103
 3643TIP3   OH210934   1.322   1.402   4.416 -0.0970 -0.3645 -0.2201
 3643TIP3    H110935   1.391   1.450   4.370  0.2082  0.1593  0.7631
 3643TIP3    H210936   1.248   1.462   4.418  0.1485 -0.0652  0.6392
 3644TIP3   OH210937   2.564   5.008   3.559 -0.2021 -0.0057  0.3891
 3644TIP3    H110938   2.478   5.047   3.577 -0.0146 -0.0820  1.5426
 3644TIP3    H210939   2.548   4.914   3.557  0.0087 -0.0854  1.6479
 3645TIP3   OH210940   3.695   5.055   1.248  0.4102 -0.2627 -0.2112
 3645TIP3    H110941   3.722   5.089   1.333 -2.4416 -1.1749  1.1629
 3645TIP3    H210942   3.765   5.082   1.188  2.2662  0.8336  2.2903
 3646TIP3   OH210943   5.359   0.197   3.975  0.0109  0.5947  0.8760
 3646TIP3    H110944   5.370   0.172   4.067  1.4182 -0.1950  0.5262
 3646TIP3    H210945   5.422   0.143   3.928 -1.0247  0.6297 -0.6257
 3647TIP3   OH210946   3.448   1.651   2.381 -0.6167  0.2924 -0.0502
 3647TIP3    H110947   3.480   1.728   2.429  1.2593 -0.0214 -0.7071
 3647TIP3    H210948   3.438   1.681   2.291  0.5059 -0.2977 -0.3893
 3648TIP3   OH210949   1.853   4.427   1.226 -0.1177 -0.5904 -0.4035
 3648TIP3    H110950   1.857   4.517   1.258 -2.6692 -0.1329 -1.1928
 3648TIP3    H210951   1.942   4.410   1.193  0.6323  1.3384  0.4650
 3649TIP3   OH210952   4.393   2.986   3.256 -0.2862 -0.1412  0.8119
 3649TIP3    H110953   4.476   3.026   3.230  0.0924 -1.2494  0.2269
 3649TIP3    H210954   4.342   2.984   3.175 -0.5579 -0.2479  0.9854
 3650TIP3   OH210955   0.875   0.315   1.706  0.2874  0.3807  0.5218
 3650TIP3    H110956   0.958   0.348   1.739  0.6492 -0.0259  0.0426
 3650TIP3    H210957   0.887   0.312   1.611  0.2638 -1.0923  0.5482
 3651TIP3   OH210958   5.964   4.657   1.259 -0.0633 -0.0056  0.0429
 3651TIP3    H110959   5.990   4.746   1.285  1.8109 -0.0594 -1.4089
 3651TIP3    H210960   5.877   4.667   1.222 -0.3738  1.0145  0.9947
 3652TIP3   OH210961   2.002   5.603   1.179 -0.5527 -0.1960  0.1303
 3652TIP3    H110962   1.913   5.608   1.144 -0.3077 -2.0706 -0.8458
 3652TIP3    H210963   2.058   5.589   1.102  0.7369  1.7416  0.6185
 3653TIP3   OH210964   3.540   1.927   2.417 -0.0582 -0.0477  0.4824
 3653TIP3    H110965   3.570   1.886   2.336 -0.4622 -2.3498  1.4121
 3653TIP3    H210966   3.532   2.020   2.396 -0.7860 -0.6498 -2.2964
 3654TIP3   OH210967   1.728   4.399   3.811  0.0786 -0.6515 -0.0795
 3654TIP3    H110968   1.707   4.483   3.852 -1.1654 -1.0705  0.1757
 3654TIP3    H210969   1.793   4.421   3.745 -1.0118  0.7038 -0.7599
 3655TIP3   OH210970   3.535   2.632   2.209  0.3069 -0.2130 -0.2453
 3655TIP3    H110971   3.550   2.546   2.168  2.4944 -0.7762  1.5415
 3655TIP3    H210972   3.619   2.678   2.200 -0.1641  0.8781  0.7230
 3656TIP3   OH210973   0.104   2.284   2.600  0.2179 -0.5551 -1.0043
 3656TIP3    H110974   0.077   2.233   2.677 -0.1341  0.1691 -0.6406
 3656TIP3    H210975   0.023   2.298   2.551  0.1444  0.4561 -0.6142
 3657TIP3   OH210976   4.339   5.871   4.714  0.1311  0.5244 -0.1761
 3657TIP3    H110977   4.421   5.837   4.678 -2.0934 -0.5545 -5.0143
 3657TIP3    H210978   4.291   5.793   4.742  0.0143  1.0031  1.0297
 3658TIP3   OH210979   0.316   1.402   3.006  0.0885 -0.5901 -0.2211
 3658TIP3    H110980   0.337   1.422   3.097 -1.7072  1.7360 -0.2244
 3658TIP3    H210981   0.373   1.460   2.956  1.2413 -2.0314 -0.6473
 3659TIP3   OH210982   3.942   5.129   1.150 -0.2895  0.0793  0.2221
 3659TIP3    H110983   3.988   5.045   1.150  0.4714  0.4820 -0.5706
 3659TIP3    H210984   3.948   5.160   1.060 -2.4290 -0.0095  0.0009
 3660TIP3   OH210985   0.944   2.232   5.141 -0.5180  0.5027  0.0167
 3660TIP3    H110986   0.993   2.314   5.143 -0.7495  0.6369  1.6287
 3660TIP3    H210987   1.010   2.165   5.129 -0.1631  0.8149  0.2047
 3661TIP3   OH210988   2.037   4.922   4.293 -0.0939 -0.5493  0.1510
 3661TIP3    H110989   1.990   4.908   4.375 -0.4331 -1.4416 -0.1845
 3661TIP3    H210990   2.014   4.847   4.238  1.2234 -0.6947 -0.2525
 3662TIP3   OH210991   2.206   3.786   1.483 -0.0106 -0.2464  0.0187
 3662TIP3    H110992   2.184   3.849   1.552 -0.5847 -0.7488  0.3090
 3662TIP3    H210993   2.143   3.804   1.413  0.4831  0.1714 -0.3235
 3663TIP3   OH210994   4.046   0.588   1.619  0.0910  0.0316 -0.1960
 3663TIP3    H110995   3.980   0.612   1.554  0.9867 -0.7770 -1.4526
 3663TIP3    H210996   4.014   0.506   1.656  0.3932 -0.3654 -0.8117
 3664TIP3   OH210997   1.585   2.354   1.863 -0.2220  0.0487  0.1413
 3664TIP3    H110998   1.606   2.444   1.838  0.2357  0.3784  1.6069
 3664TIP3    H210999   1.665   2.323   1.906 -0.5099 -0.9388 -0.0226
 3665TIP3   OH211000   1.582   1.048   3.557  0.3137  0.8343  0.3444
 3665TIP3    H111001   1.492   1.071   3.535  0.3197  2.1074  1.5429
 3665TIP3    H211002   1.582   0.952   3.560 -1.0641  0.8266  0.5964
 3666TIP3   OH211003   3.275   3.714   4.626  0.8560 -0.3885 -0.4031
 3666TIP3    H111004   3.314   3.798   4.646  1.6864 -0.7153 -0.6090
 3666TIP3    H211005   3.194   3.735   4.580  0.3704  0.3080  0.7328
 3667TIP3   OH211006   3.167   0.589   2.958 -0.5394  0.4147 -0.0408
 3667TIP3    H111007   3.113   0.525   2.912  2.7169 -0.6219 -2.8191
 3667TIP3    H211008   3.204   0.644   2.888  1.6684  1.2600  1.6797
 3668TIP3   OH211009   2.538   4.746   3.566 -0.2972 -0.8398  0.1532
 3668TIP3    H111010   2.582   4.722   3.484  1.3567 -1.5480  1.1729
 3668TIP3    H211011   2.577   4.687   3.631 -1.1584  0.0774  1.5494
 3669TIP3   OH211012   2.162   0.384   0.263  0.0208  0.0975 -0.3026
 3669TIP3    H111013   2.184   0.291   0.264  1.2279  0.3620 -0.4473
 3669TIP3    H211014   2.067   0.387   0.267 -0.1652 -1.1901 -2.4327
 3670TIP3   OH211015   5.524   3.097   3.684 -0.1426 -0.1994 -0.2372
 3670TIP3    H111016   5.557   3.107   3.773 -1.8613 -1.3771  0.5925
 3670TIP3    H211017   5.551   3.010   3.657  1.1654  0.4900 -1.2677
 3671TIP3   OH211018   0.653   2.589   4.130 -0.3847 -0.2482  0.3541
 3671TIP3    H111019   0.694   2.608   4.215  1.2883  1.1729 -0.7070
 3671TIP3    H211020   0.565   2.626   4.137  0.0396  0.6469  1.1613
 3672TIP3   OH211021   0.842   5.888   3.786  0.2631  0.1174 -0.1748
 3672TIP3    H111022   0.858   5.871   3.879 -0.4151  1.7823  0.2852
 3672TIP3    H211023   0.900   5.961   3.765 -0.4562  0.5304 -0.7478
 3673TIP3   OH211024   4.928   0.135   4.491 -0.4186 -0.0729 -0.1707
 3673TIP3    H111025   5.011   0.091   4.471 -1.2299 -1.7243 -0.0919
 3673TIP3    H211026   4.902   0.175   4.408 -0.2770 -0.8172 -0.5786
 3674TIP3   OH211027   0.038   1.680   4.687 -0.2742 -0.4024 -0.0264
 3674TIP3    H111028   0.060   1.714   4.773  1.0897  2.2025 -1.2856
 3674TIP3    H211029  -0.029   1.740   4.653 -0.4988 -1.1378 -0.9431
 3675TIP3   OH211030   0.563   0.101   0.475 -0.1747 -0.2579 -0.4417
 3675TIP3    H111031   0.590   0.021   0.430 -2.6586 -1.6553  0.3602
 3675TIP3    H211032   0.617   0.104   0.553 -1.4438 -2.4194  0.6186
 3676TIP3   OH211033   2.832   2.542   1.530  0.8252 -1.1698 -0.4627
 3676TIP3    H111034   2.916   2.498   1.518  0.7500 -1.6737  0.6895
 3676TIP3    H211035   2.797   2.506   1.612 -0.2458 -0.5433 -0.6151
 3677TIP3   OH211036   4.667   2.310   1.641 -0.3179  0.0772 -0.7100
 3677TIP3    H111037   4.670   2.403   1.663  0.6754  0.0207 -0.5661
 3677TIP3    H211038   4.611   2.305   1.563  0.9030  0.9880 -1.6620
 3678TIP3   OH211039   0.909   4.469   2.052 -0.4804 -0.2036 -0.2522
 3678TIP3    H111040   0.933   4.403   2.117 -1.0765 -1.0035 -0.8295
 3678TIP3    H211041   0.993   4.498   2.015 -0.2584 -1.5576 -0.8725
 3679TIP3   OH211042   5.014   5.342   4.405 -0.5222  0.1416 -0.1371
 3679TIP3    H111043   5.000   5.310   4.316 -1.4087  1.1252 -0.3731
 3679TIP3    H211044   5.102   5.379   4.404 -0.1190 -0.8067 -0.3048
 3680TIP3   OH211045   2.596   2.122   3.130 -0.2091  0.2133 -0.4605
 3680TIP3    H111046   2.538   2.196   3.147  1.3408  1.3365  0.1421
 3680TIP3    H211047   2.647   2.112   3.210  1.6404  0.4104 -1.5469
 3681TIP3   OH211048   5.483   3.160   2.781 -0.7005  0.0273  0.1349
 3681TIP3    H111049   5.411   3.156   2.844 -0.1316  0.0967  0.8030
 3681TIP3    H211050   5.457   3.227   2.718 -1.6291 -0.5926 -0.1549
 3682TIP3   OH211051   1.886   5.903   4.470 -0.2772  0.1911 -0.4548
 3682TIP3    H111052   1.860   5.887   4.379 -1.7949  2.7329 -0.5538
 3682TIP3    H211053   1.942   5.828   4.492 -1.1629 -1.3283 -2.9304
 3683TIP3   OH211054   5.387   2.231   2.148  0.2051 -0.2003  0.2525
 3683TIP3    H111055   5.293   2.232   2.165  0.3293 -0.8974  0.9889
 3683TIP3    H211056   5.427   2.197   2.228  1.0475 -0.4225 -0.2465
 3684TIP3   OH211057   2.434   1.048   2.104  0.8344  0.5831 -0.5341
 3684TIP3    H111058   2.386   1.089   2.032 -1.3451  0.9197  1.0133
 3684TIP3    H211059   2.444   0.957   2.078  0.3182  0.7649 -1.3796
 3685TIP3   OH211060   3.951   0.193   4.662  0.2861  1.0465  0.1372
 3685TIP3    H111061   3.900   0.131   4.610  2.2938  0.1768 -0.9182
 3685TIP3    H211062   3.988   0.140   4.733  0.3249  1.4990  0.4588
 3686TIP3   OH211063   0.455   4.323   0.319 -0.1958  0.5110 -0.2522
 3686TIP3    H111064   0.461   4.232   0.351 -0.4224  1.3082  2.2813
 3686TIP3    H211065   0.448   4.314   0.224 -0.9410 -2.1617 -0.0452
 3687TIP3   OH211066   4.517   5.176   1.466 -0.2169  0.4748 -0.7609
 3687TIP3    H111067   4.547   5.205   1.380 -1.7002 -0.2263 -1.5624
 3687TIP3    H211068   4.424   5.198   1.468 -0.4811 -0.6114  0.1808
 3688TIP3   OH211069   1.321   4.714   3.326  0.8222 -0.0482  0.1844
 3688TIP3    H111070   1.335   4.675   3.240 -1.1257 -0.4334 -0.0044
 3688TIP3    H211071   1.246   4.667   3.362 -1.0596  2.8210  0.3343
 3689TIP3   OH211072   4.386   2.913   4.009  0.7954  0.1312  0.7046
 3689TIP3    H111073   4.448   2.959   4.066  2.1964  0.5150 -1.0340
 3689TIP3    H211074   4.303   2.960   4.021  1.0169  0.1401  2.4475
 3690TIP3   OH211075   5.081   0.195   3.975 -0.1515 -0.0192  0.7735
 3690TIP3    H111076   5.026   0.237   3.908  1.1373  2.0791  0.9338
 3690TIP3    H211077   5.162   0.173   3.929  0.3861  0.5785  1.4113
 3691TIP3   OH211078   4.794   5.849   4.315  0.2607 -0.0503  0.1443
 3691TIP3    H111079   4.867   5.859   4.375  0.2124 -0.4920  0.2777
 3691TIP3    H211080   4.767   5.939   4.294 -0.0170  0.1068  1.1299
 3692TIP3   OH211081   5.218   3.744   0.803  0.2096  0.3301 -0.1493
 3692TIP3    H111082   5.177   3.709   0.724 -1.6758  1.0826  0.4557
 3692TIP3    H211083   5.267   3.820   0.773 -0.0285  0.2815 -0.6653
 3693TIP3   OH211084   0.160   5.400   0.798 -1.0980  0.1602  0.0829
 3693TIP3    H111085   0.081   5.439   0.836 -2.0809 -1.9951  0.4492
 3693TIP3    H211086   0.200   5.352   0.871 -1.0280 -1.0899 -0.7521
 3694TIP3   OH211087   3.188   5.043   3.038 -0.0667 -0.2197  0.8907
 3694TIP3    H111088   3.166   4.981   2.968  1.5361 -1.0491  1.0764
 3694TIP3    H211089   3.240   5.111   2.996 -1.1125  0.5815  0.8513
 3695TIP3   OH211090   1.081   3.027   0.648  0.2216 -0.4277 -0.8920
 3695TIP3    H111091   1.027   3.102   0.622  1.6202  0.5646 -1.0472
 3695TIP3    H211092   1.040   2.952   0.605 -0.5531  0.4209 -1.6710
 3696TIP3   OH211093   4.121   1.992   1.899 -0.3209 -0.4270 -0.0221
 3696TIP3    H111094   4.102   2.055   1.829  0.6869  0.2967  0.3363
 3696TIP3    H211095   4.041   1.989   1.951 -0.5755  0.1295 -0.3759
 3697TIP3   OH211096   0.420   2.319   3.633 -0.0403 -0.3734  0.4390
 3697TIP3    H111097   0.403   2.387   3.568 -2.0630 -0.9581  0.2822
 3697TIP3    H211098   0.459   2.248   3.582 -0.3466 -0.3049  0.0988
 3698TIP3   OH211099   3.742   1.820   2.224 -0.6814 -0.5698 -0.0753
 3698TIP3    H111100   3.803   1.755   2.257 -0.4769 -0.1368  0.4132
 3698TIP3    H211101   3.706   1.781   2.144 -0.1982 -1.0690 -0.0545
 3699TIP3   OH211102   3.396   2.686   3.333 -0.5877 -0.0400  0.1100
 3699TIP3    H111103   3.332   2.617   3.347  1.4182 -1.5930  2.5117
 3699TIP3    H211104   3.368   2.758   3.390  1.1862 -1.8630  3.6308
 3700TIP3   OH211105   3.084   5.393   0.585 -0.1619 -0.1303  0.2549
 3700TIP3    H111106   3.117   5.431   0.503 -1.8394  1.6383  0.3254
 3700TIP3    H211107   3.040   5.312   0.558 -0.4926  0.3163 -0.5743
 3701TIP3   OH211108   1.299   2.208   0.358  0.4226  0.2454  0.2499
 3701TIP3    H111109   1.391   2.200   0.334  0.2215  1.6857 -1.1917
 3701TIP3    H211110   1.293   2.294   0.401 -0.3241  0.3877 -0.1272
 3702TIP3   OH211111   3.210   3.383   3.690  0.1053 -0.0303  0.3060
 3702TIP3    H111112   3.282   3.445   3.698  1.4360 -1.2184 -1.5358
 3702TIP3    H211113   3.248   3.308   3.644 -2.2096 -0.8924 -0.3772
 3703TIP3   OH211114   6.339   3.308   1.659 -0.0693 -0.1291 -0.3003
 3703TIP3    H111115   6.360   3.377   1.722 -1.8089  0.1458  0.0331
 3703TIP3    H211116   6.247   3.289   1.675 -0.5757 -0.0502 -2.7735
 3704TIP3   OH211117   2.613   2.349   1.972 -0.0217 -0.7765 -0.0330
 3704TIP3    H111118   2.604   2.420   2.035  0.8023 -0.1499 -0.6022
 3704TIP3    H211119   2.630   2.271   2.025 -0.3411 -0.4459  0.5644
 3705TIP3   OH211120   4.822   1.426   2.156 -0.2241  0.0622  0.0049
 3705TIP3    H111121   4.743   1.463   2.197  1.0090  1.1004  1.5704
 3705TIP3    H211122   4.815   1.332   2.171 -1.8665 -0.0422 -1.1951
 3706TIP3   OH211123   6.323   1.523   0.268 -0.0728  0.0372  0.3365
 3706TIP3    H111124   6.303   1.597   0.211  1.9592  0.0022 -0.5000
 3706TIP3    H211125   6.368   1.562   0.343  0.3610 -0.2770  0.2400
 3707TIP3   OH211126   3.058   2.763   4.505 -0.2835 -0.2170 -0.3235
 3707TIP3    H111127   3.133   2.804   4.548  0.3849  0.4485 -2.0645
 3707TIP3    H211128   2.991   2.832   4.503 -0.1321 -0.0827 -0.8000
 3708TIP3   OH211129   2.789   0.289   1.353 -0.4301  0.5982  0.5820
 3708TIP3    H111130   2.740   0.257   1.429 -0.3888  0.9032  0.7390
 3708TIP3    H211131   2.740   0.365   1.323  0.0882  1.0698  0.9049
 3709TIP3   OH211132   0.767   5.683   3.645 -0.1612  0.1031 -0.4905
 3709TIP3    H111133   0.787   5.737   3.721  0.6872  0.0462 -0.6624
 3709TIP3    H211134   0.677   5.653   3.660 -0.3608  0.8947 -0.0016
 3710TIP3   OH211135   3.544   3.021   4.368 -0.2894 -0.6794  0.1845
 3710TIP3    H111136   3.601   3.057   4.436 -0.9711  0.0185  0.4060
 3710TIP3    H211137   3.581   3.054   4.286 -0.1011 -0.6243  0.2902
 3711TIP3   OH211138   6.149   1.620   2.858 -0.2305  0.3091  0.1028
 3711TIP3    H111139   6.064   1.581   2.878  0.0404  0.3443  1.4428
 3711TIP3    H211140   6.208   1.545   2.850 -0.0013  0.3462  1.2247
 3712TIP3   OH211141   2.695   4.517   4.910 -0.7117 -0.1072  0.2868
 3712TIP3    H111142   2.722   4.587   4.850  1.5133  0.0169  1.3161
 3712TIP3    H211143   2.751   4.443   4.888  0.0705 -0.1083  2.0353
 3713TIP3   OH211144   4.227   1.753   3.078  0.1331 -0.2166  0.2967
 3713TIP3    H111145   4.260   1.843   3.082 -0.9790  0.1497  2.0207
 3713TIP3    H211146   4.305   1.699   3.064  1.0224  0.8946  0.8695
 3714TIP3   OH211147   5.416   0.562   1.269 -0.8681  0.0701 -0.7233
 3714TIP3    H111148   5.446   0.644   1.308  1.7317 -1.9574  2.0752
 3714TIP3    H211149   5.350   0.529   1.331  0.5383 -1.4025  0.0919
 3715TIP3   OH211150   3.730   3.524   4.797  0.2094  0.7339  0.0530
 3715TIP3    H111151   3.755   3.443   4.841  0.1545 -0.3211 -1.7631
 3715TIP3    H211152   3.774   3.520   4.712 -1.3040  1.6968 -0.8186
 3716TIP3   OH211153   5.728   4.034   1.547 -0.6509  0.1536  0.2756
 3716TIP3    H111154   5.636   4.010   1.556 -0.5236 -0.1676  0.7167
 3716TIP3    H211155   5.767   3.962   1.497 -0.5687  0.1339  0.3683
 3717TIP3   OH211156   5.940   1.289   4.707 -0.4146  0.0472  0.3186
 3717TIP3    H111157   5.973   1.310   4.619 -0.0575 -1.7890 -0.0483
 3717TIP3    H211158   5.889   1.209   4.694 -1.3735  0.4219  1.6177
 3718TIP3   OH211159   1.983   5.851   3.490  0.2000 -0.1144 -0.2106
 3718TIP3    H111160   2.077   5.860   3.475  0.4636 -0.1193  1.2910
 3718TIP3    H211161   1.947   5.937   3.467  0.9644  0.7940  1.7674
 3719TIP3   OH211162   6.284   3.381   1.383  0.6996 -0.9016  0.4126
 3719TIP3    H111163   6.204   3.333   1.406  0.0548 -0.5325 -0.9771
 3719TIP3    H211164   6.333   3.385   1.465 -0.8410 -0.8720  1.3788
 3720TIP3   OH211165   5.618   2.637   1.178 -0.0076 -0.1506 -0.1836
 3720TIP3    H111166   5.561   2.712   1.160 -0.2548 -0.2365  0.2348
 3720TIP3    H211167   5.579   2.594   1.254  0.0608 -0.7788 -0.4902
 3721TIP3   OH211168   0.488   1.664   0.176  0.1009  0.0612 -0.2470
 3721TIP3    H111169   0.431   1.594   0.207 -0.1789  0.4344  0.0884
 3721TIP3    H211170   0.440   1.705   0.104  0.1132  0.1266 -0.2186
 3722TIP3   OH211171   2.825   1.144   2.170  0.0704  0.0214 -0.3294
 3722TIP3    H111172   2.774   1.202   2.226 -1.5193 -1.6259  0.0265
 3722TIP3    H211173   2.773   1.137   2.090 -0.0074 -1.2621 -0.1785
 3723TIP3   OH211174   2.104   1.561   2.973  0.2562 -0.2928 -0.2771
 3723TIP3    H111175   2.066   1.474   2.970 -0.1608 -0.0953 -2.1489
 3723TIP3    H211176   2.198   1.547   2.961  0.1585 -0.4935 -0.8561
 3724TIP3   OH211177   3.667   0.339   2.555  0.6305 -0.0906 -0.2520
 3724TIP3    H111178   3.621   0.274   2.502  1.1361 -1.1578  0.5763
 3724TIP3    H211179   3.760   0.322   2.539  0.8027 -0.7219  1.2666
 3725TIP3   OH211180   4.557   3.225   2.735  0.1278 -0.3468  0.1250
 3725TIP3    H111181   4.549   3.306   2.785 -0.2369  0.2160 -0.8151
 3725TIP3    H211182   4.573   3.158   2.801 -1.6617  0.1534  1.1300
 3726TIP3   OH211183   2.416   2.284   0.497 -0.1194 -0.2587 -0.3228
 3726TIP3    H111184   2.447   2.262   0.408  0.9370 -1.5436  0.3241
 3726TIP3    H211185   2.424   2.202   0.545  2.8742  1.1947  1.9650
 3727TIP3   OH211186   4.743   4.711   1.269  0.2312  0.1875  0.1589
 3727TIP3    H111187   4.747   4.799   1.231 -0.6933 -0.6546 -2.0557
 3727TIP3    H211188   4.799   4.716   1.346  0.2816  2.6807  0.0455
 3728TIP3   OH211189   5.503   3.408   4.006 -0.0294 -0.2600 -0.0337
 3728TIP3    H111190   5.581   3.451   4.041  0.7389 -0.2965 -1.6033
 3728TIP3    H211191   5.535   3.328   3.965 -1.2224 -1.4708  1.3070
 3729TIP3   OH211192   4.809   0.183   0.939 -0.2467  0.1358  0.2531
 3729TIP3    H111193   4.902   0.171   0.918 -0.5586 -0.1653 -1.0252
 3729TIP3    H211194   4.780   0.251   0.879 -1.1417 -0.6122 -0.1753
 3730TIP3   OH211195   3.558   1.692   4.369  0.8868  0.2542  0.1442
 3730TIP3    H111196   3.531   1.728   4.284 -0.6591  0.8520  0.8512
 3730TIP3    H211197   3.653   1.691   4.365  0.8488  0.5365 -1.4913
 3731TIP3   OH211198   5.376   3.982   4.427 -0.0008  0.0440  0.1369
 3731TIP3    H111199   5.286   3.974   4.459  0.6019  3.2043  3.2351
 3731TIP3    H211200   5.427   3.924   4.484  0.1890 -0.3941 -0.4599
 3732TIP3   OH211201   5.816   0.557   3.485 -0.5652 -0.3360 -0.2712
 3732TIP3    H111202   5.769   0.613   3.423 -1.8905 -1.8062 -0.6503
 3732TIP3    H211203   5.806   0.469   3.451  1.9315 -0.8050  0.0363
 3733TIP3   OH211204   6.256   4.034   1.915  0.2168  0.5801 -0.1651
 3733TIP3    H111205   6.255   4.041   2.011 -0.5339 -0.5835 -0.0650
 3733TIP3    H211206   6.177   4.079   1.887 -2.4635 -3.3677  0.2028
 3734TIP3   OH211207   1.306   2.221   4.801  0.2469 -0.2591 -0.2070
 3734TIP3    H111208   1.216   2.252   4.787  0.3900  0.2684  0.0209
 3734TIP3    H211209   1.337   2.195   4.714  0.1793  0.3839 -0.4246
 3735TIP3   OH211210   3.866   3.831   0.817 -0.0484 -0.5074  0.0652
 3735TIP3    H111211   3.818   3.766   0.869 -1.6462  0.7328  0.2353
 3735TIP3    H211212   3.797   3.883   0.776  1.1055 -1.4055 -3.3435
 3736TIP3   OH211213   0.577   5.326   4.805  0.3031 -0.2732  0.0813
 3736TIP3    H111214   0.505   5.269   4.834  1.1398 -2.2495 -1.4596
 3736TIP3    H211215   0.641   5.266   4.768  2.1512  1.5649  0.1280
 3737TIP3   OH211216   5.229   5.732   2.738  0.6041 -0.0890  0.3980
 3737TIP3    H111217   5.310   5.733   2.790  1.5317 -0.2530 -0.9925
 3737TIP3    H211218   5.184   5.813   2.763  0.6093 -0.5609  2.0552
 3738TIP3   OH211219   0.323   0.644   2.292 -0.6115  0.3976  0.2149
 3738TIP3    H111220   0.409   0.628   2.329 -1.0438 -1.9497  0.3658
 3738TIP3    H211221   0.331   0.728   2.247  2.1572 -0.3763 -0.9394
 3739TIP3   OH211222   3.098   4.967   2.741 -0.7741  0.1389  0.1345
 3739TIP3    H111223   3.065   4.916   2.666 -0.3943 -0.7928  0.5787
 3739TIP3    H211224   3.193   4.968   2.729 -0.6956 -0.1763  0.6933
 3740TIP3   OH211225   5.943   5.085   2.434  0.7048 -0.0373  0.4872
 3740TIP3    H111226   5.955   5.097   2.528 -0.5166  1.8668  0.4504
 3740TIP3    H211227   5.977   5.165   2.395  0.4115 -0.4431 -0.6388
 3741TIP3   OH211228   4.893   3.797   4.964 -0.2922  0.3207  0.3843
 3741TIP3    H111229   4.850   3.715   4.939  1.7263 -0.8226  0.4946
 3741TIP3    H211230   4.967   3.805   4.904  0.2521  1.4469  1.1689
 3742TIP3   OH211231   2.156   2.637   1.246  0.1649  0.3699 -0.3546
 3742TIP3    H111232   2.105   2.675   1.317 -0.4438 -0.1835 -0.4835
 3742TIP3    H211233   2.144   2.542   1.255 -0.0137  0.2942 -1.2544
 3743TIP3   OH211234   1.855   3.776   0.704  0.1364 -0.0101  0.0769
 3743TIP3    H111235   1.856   3.767   0.608  0.7336 -1.1446  0.1706
 3743TIP3    H211236   1.788   3.843   0.721  0.7102  0.9433 -1.1807
 3744TIP3   OH211237   4.259   5.635   4.448  0.0546  0.3956  0.0651
 3744TIP3    H111238   4.304   5.615   4.531  0.8553  1.3537 -0.1072
 3744TIP3    H211239   4.169   5.656   4.474 -0.1154 -0.8258  0.5075
 3745TIP3   OH211240   5.471   2.161   2.881  0.2386 -0.7728  0.8109
 3745TIP3    H111241   5.546   2.104   2.863  0.4880 -0.0147 -0.7381
 3745TIP3    H211242   5.495   2.207   2.961  2.7068  1.3887 -0.9866
 3746TIP3   OH211243   6.298   1.530   3.678 -0.3511  0.3261  0.4426
 3746TIP3    H111244   6.354   1.458   3.707 -0.4504  0.4400  0.9280
 3746TIP3    H211245   6.345   1.609   3.704 -1.6356  0.4404  2.7219
 3747TIP3   OH211246   5.171   3.225   1.754  0.4569  0.0166  0.6824
 3747TIP3    H111247   5.222   3.294   1.796 -1.0722  1.4831  0.2386
 3747TIP3    H211248   5.183   3.241   1.660  1.5230 -1.4636  0.5335
 3748TIP3   OH211249   1.032   5.584   0.533 -0.4158 -0.1421 -0.0314
 3748TIP3    H111250   1.104   5.617   0.480  0.8145 -1.2116  0.9069
 3748TIP3    H211251   1.040   5.630   0.616  0.2687 -1.4831  0.6777
 3749TIP3   OH211252   2.113   2.672   3.294 -0.2843  1.0405 -0.1185
 3749TIP3    H111253   2.143   2.661   3.384  0.0761  1.3374 -0.2028
 3749TIP3    H211254   2.101   2.767   3.283 -0.1171  1.0258 -0.4521
 3750TIP3   OH211255   6.008   4.898   1.376 -0.3718 -0.1825  0.5593
 3750TIP3    H111256   6.059   4.869   1.451  0.1249 -1.8832 -0.3983
 3750TIP3    H211257   5.923   4.922   1.413  0.1869 -0.0085  1.7814
 3751TIP3   OH211258   4.823   4.126   4.364 -0.1026 -0.3815 -0.4340
 3751TIP3    H111259   4.859   4.147   4.450  0.5970 -1.2306 -0.5073
 3751TIP3    H211260   4.745   4.074   4.382  1.3478 -2.6240 -0.3035
 3752TIP3   OH211261   5.455   1.481   2.517 -0.0906  0.8036 -0.0881
 3752TIP3    H111262   5.362   1.471   2.500  0.1206 -0.9976 -0.4287
 3752TIP3    H211263   5.462   1.495   2.611 -0.5782 -2.0858  0.4530
 3753TIP3   OH211264   2.809   4.720   4.732  0.0401 -0.0019 -0.6722
 3753TIP3    H111265   2.898   4.702   4.701  0.8479 -0.3125  1.6510
 3753TIP3    H211266   2.815   4.807   4.773 -0.4559 -0.4607  0.4142
 3754TIP3   OH211267   3.254   5.781   1.901  0.1299 -0.2082  0.2200
 3754TIP3    H111268   3.234   5.690   1.879 -0.6076 -0.1147  0.4583
 3754TIP3    H211269   3.349   5.783   1.911  0.0440 -1.2789  1.5762
 3755TIP3   OH211270   5.268   0.560   3.209 -0.0254  0.4660  0.1551
 3755TIP3    H111271   5.341   0.513   3.249  0.1845 -0.6868 -1.4742
 3755TIP3    H211272   5.302   0.647   3.191 -0.1055  1.0050  2.3118
 3756TIP3   OH211273   3.841   2.264   0.268 -0.2264 -0.6502  0.0515
 3756TIP3    H111274   3.851   2.240   0.176  0.9348 -0.2144  0.0429
 3756TIP3    H211275   3.912   2.218   0.313 -0.7372 -0.8058  0.7300
 3757TIP3   OH211276   1.253   2.179   3.009 -0.6757 -0.5768 -0.1988
 3757TIP3    H111277   1.162   2.193   2.981 -0.1010 -0.6896 -2.2234
 3757TIP3    H211278   1.245   2.124   3.087 -2.3504 -0.4632 -0.2501
 3758TIP3   OH211279   0.404   4.306   1.138  0.0164 -0.1378  0.1037
 3758TIP3    H111280   0.475   4.335   1.196 -1.0840  2.4760  0.2630
 3758TIP3    H211281   0.446   4.292   1.053  0.8887  0.5066  0.4165
 3759TIP3   OH211282   5.166   5.188   3.943  0.3143 -0.0964 -0.2550
 3759TIP3    H111283   5.077   5.194   3.975  0.4280  1.3969 -0.1638
 3759TIP3    H211284   5.217   5.158   4.018  0.0863  0.3173  0.0658
 3760TIP3   OH211285   4.335   2.522   3.075 -0.2303  0.4850 -0.6008
 3760TIP3    H111286   4.377   2.602   3.042 -1.1573  2.1126  1.8176
 3760TIP3    H211287   4.326   2.466   2.999 -0.7893  3.2579 -2.7417
 3761TIP3   OH211288   1.241   2.456   0.472 -0.0886  0.2940 -0.1116
 3761TIP3    H111289   1.179   2.438   0.401 -1.5070 -0.8574  1.3379
 3761TIP3    H211290   1.198   2.523   0.525 -1.0579 -1.8173  1.9405
 3762TIP3   OH211291   1.307   3.647   0.796 -0.0608  0.8783  0.0723
 3762TIP3    H111292   1.301   3.644   0.701  1.1000  0.5345  0.0027
 3762TIP3    H211293   1.226   3.691   0.823 -0.6355  0.5525 -1.0322
 3763TIP3   OH211294   3.324   3.103   3.258  0.2516  0.1760 -0.0835
 3763TIP3    H111295   3.405   3.154   3.261  0.4381 -0.0960 -0.4583
 3763TIP3    H211296   3.255   3.168   3.273  0.5818  0.2693  1.1339
 3764TIP3   OH211297   1.209   4.831   2.852 -0.5933  0.2698  0.1410
 3764TIP3    H111298   1.196   4.906   2.910  1.6850 -0.1294  1.2850
 3764TIP3    H211299   1.275   4.860   2.789  0.2416 -0.7041  0.5358
 3765TIP3   OH211300   0.216   3.463   3.650  0.2252 -0.0246  0.2698
 3765TIP3    H111301   0.150   3.488   3.715 -1.1258 -0.9932 -0.6738
 3765TIP3    H211302   0.213   3.534   3.586 -1.2313 -0.8996 -0.6915
 3766TIP3   OH211303   0.769   3.794   1.084  0.5789  0.0717 -0.3028
 3766TIP3    H111304   0.855   3.781   1.125  0.9047  0.3259 -0.8994
 3766TIP3    H211305   0.715   3.833   1.153  1.3252  1.1607 -0.3297
 3767TIP3   OH211306   3.210   2.965   1.313 -0.0216  0.6414 -0.0919
 3767TIP3    H111307   3.183   3.056   1.321  0.5156  0.8249 -0.3001
 3767TIP3    H211308   3.257   2.961   1.230 -1.4679 -0.2002 -0.8974
 3768TIP3   OH211309   1.976   4.124   0.977 -0.2004  0.2779  0.0308
 3768TIP3    H111310   1.883   4.112   0.962 -0.0316 -1.7524  0.3142
 3768TIP3    H211311   1.985   4.128   1.072  0.0209  0.1813  0.0153
 3769TIP3   OH211312   0.884   3.017   4.977 -0.1143 -0.2344 -0.7605
 3769TIP3    H111313   0.836   2.975   4.906  1.7296 -1.6286 -1.2594
 3769TIP3    H211314   0.843   2.984   5.057 -2.0691  1.1821 -1.1005
 3770TIP3   OH211315   0.550   5.178   0.847 -0.3826  0.0075 -0.6358
 3770TIP3    H111316   0.483   5.119   0.883  0.5746  0.1604  1.5790
 3770TIP3    H211317   0.593   5.127   0.779 -3.3444  0.2578 -2.9246
 3771TIP3   OH211318   3.410   5.847   1.548 -0.0365  0.4432  0.0340
 3771TIP3    H111319   3.498   5.853   1.511  0.5062 -0.0144  1.2102
 3771TIP3    H211320   3.413   5.768   1.603 -0.8660  1.0084  0.9022
 3772TIP3   OH211321   4.416   5.995   3.661  0.2028  0.2966  0.2287
 3772TIP3    H111322   4.450   5.983   3.750 -2.3188  0.1392  1.2462
 3772TIP3    H211323   4.401   5.906   3.629 -2.3836  0.3095  1.1625
 3773TIP3   OH211324   4.022   5.703   4.582  0.2469 -0.3584 -0.1477
 3773TIP3    H111325   4.023   5.771   4.515  1.7109 -0.1164  0.0766
 3773TIP3    H211326   3.933   5.670   4.582 -0.1897  0.7635 -1.0720
 3774TIP3   OH211327   2.670   2.428   0.507 -0.1082 -0.1304 -0.1291
 3774TIP3    H111328   2.736   2.376   0.554 -1.0973 -1.1177  0.1925
 3774TIP3    H211329   2.587   2.387   0.529 -0.8971  1.4072 -0.1384
 3775TIP3   OH211330   5.926   4.065   2.863 -0.2100  0.3182 -0.2855
 3775TIP3    H111331   5.976   4.099   2.789  1.9930 -2.1272 -0.0928
 3775TIP3    H211332   5.856   4.014   2.824  1.8547 -2.2610 -0.8810
 3776TIP3   OH211333   5.756   0.933   4.889  0.2911 -0.9964  0.5045
 3776TIP3    H111334   5.707   0.997   4.940  1.6221 -0.4556  1.1231
 3776TIP3    H211335   5.771   0.975   4.804  0.7063 -0.6922  0.7275
 3777TIP3   OH211336   4.079   4.868   4.472 -0.4918 -0.2084  0.1070
 3777TIP3    H111337   4.035   4.805   4.415  0.2201 -0.9195  0.3289
 3777TIP3    H211338   4.008   4.921   4.508 -1.3396 -2.1602  1.4809
 3778TIP3   OH211339   5.784   0.931   2.468 -0.2464  0.7360  0.8585
 3778TIP3    H111340   5.698   0.959   2.498 -0.1022  0.8009  1.2173
 3778TIP3    H211341   5.841   1.007   2.481  0.0027  0.4981  1.2320
 3779TIP3   OH211342   3.285   1.748   1.426 -0.2854 -0.2921  0.1172
 3779TIP3    H111343   3.201   1.768   1.469 -0.0861 -3.3547  2.2440
 3779TIP3    H211344   3.330   1.689   1.487  2.0688 -1.2836 -2.3674
 3780TIP3   OH211345   4.291   3.653   2.637  0.0224  0.1213  0.2765
 3780TIP3    H111346   4.382   3.640   2.611 -0.3826  0.1492 -1.2290
 3780TIP3    H211347   4.276   3.587   2.706  1.3584  0.5863  1.0422
 3781TIP3   OH211348   1.559   1.107   0.775 -0.0206  0.1586  0.0846
 3781TIP3    H111349   1.474   1.132   0.740 -1.7887 -1.7300  2.6391
 3781TIP3    H211350   1.563   1.148   0.861  0.5904 -1.5605  0.9427
 3782TIP3   OH211351   1.006   2.410   1.982 -0.4176  0.5151 -0.0969
 3782TIP3    H111352   1.098   2.396   1.958 -0.1110  1.0144  0.7174
 3782TIP3    H211353   0.958   2.401   1.900  0.2974 -0.3101 -0.4347
 3783TIP3   OH211354   6.012   3.205   5.077  0.2386 -0.0684 -0.1532
 3783TIP3    H111355   6.027   3.114   5.052 -1.0551  0.2639 -2.4423
 3783TIP3    H211356   5.922   3.206   5.110  0.6617  0.1888  1.0367
 3784TIP3   OH211357   5.671   4.696   3.173 -0.3913  0.7709  0.1789
 3784TIP3    H111358   5.631   4.609   3.178  1.8291 -0.3252  0.0161
 3784TIP3    H211359   5.738   4.695   3.242  1.4461  1.3439 -1.5042
 3785TIP3   OH211360   3.807   0.351   4.316  0.2907  0.1870 -0.1427
 3785TIP3    H111361   3.764   0.418   4.262 -0.3197 -0.5495 -0.5920
 3785TIP3    H211362   3.804   0.387   4.405 -1.1974  0.2190 -0.1684
 3786TIP3   OH211363   1.482   0.433   4.669 -0.2291 -0.8363 -0.3337
 3786TIP3    H111364   1.460   0.380   4.592  0.0945 -1.1702 -0.1990
 3786TIP3    H211365   1.424   0.508   4.664 -0.2461 -0.8857 -0.8770
 3787TIP3   OH211366   3.260   4.339   1.142 -0.3349  0.2109 -0.1685
 3787TIP3    H111367   3.190   4.280   1.113 -1.0966  0.9564  0.1106
 3787TIP3    H211368   3.226   4.427   1.125  0.9706  0.5800 -1.0032
 3788TIP3   OH211369   2.408   5.741   0.582  0.3828  0.0823 -0.1530
 3788TIP3    H111370   2.473   5.782   0.640  0.3113  1.8992 -1.2742
 3788TIP3    H211371   2.325   5.752   0.628  0.7225 -1.4295  0.8676
 3789TIP3   OH211372   2.041   5.705   0.146  0.3170 -0.7508  0.2322
 3789TIP3    H111373   2.019   5.716   0.054  0.0007 -1.8185  0.1658
 3789TIP3    H211374   1.966   5.740   0.193  0.5148 -0.1264  0.0964
 3790TIP3   OH211375   0.414   3.746   4.849 -0.5419  0.1876 -0.2488
 3790TIP3    H111376   0.452   3.686   4.913 -1.0410 -0.2354 -0.3438
 3790TIP3    H211377   0.335   3.701   4.818 -1.3166  1.1907  0.2088
 3791TIP3   OH211378   4.877   3.076   4.375 -0.3284  0.0750 -0.2776
 3791TIP3    H111379   4.842   3.124   4.299 -0.4609 -0.3185 -0.4671
 3791TIP3    H211380   4.880   3.141   4.445  1.9079  1.0653 -1.2051
 3792TIP3   OH211381   1.828   4.763   0.964 -0.1660 -0.2492  0.0408
 3792TIP3    H111382   1.883   4.836   0.991 -0.9595  0.8156 -1.1313
 3792TIP3    H211383   1.745   4.777   1.008 -0.1245 -0.7861  0.2939
 3793TIP3   OH211384   2.772   0.528   2.879  0.1022 -0.3226  0.3652
 3793TIP3    H111385   2.731   0.447   2.848 -0.0219 -0.4835  0.9390
 3793TIP3    H211386   2.812   0.566   2.801 -0.5729 -0.4998 -0.0749
 3794TIP3   OH211387   5.228   0.773   1.999 -0.4549 -0.1323 -0.5314
 3794TIP3    H111388   5.312   0.789   2.042 -0.9063 -1.7059  1.0508
 3794TIP3    H211389   5.182   0.857   2.005  0.5360  0.4205 -0.3760
 3795TIP3   OH211390   1.824   2.916   1.776  0.1000 -0.2888 -0.3041
 3795TIP3    H111391   1.857   2.881   1.693 -0.2267  0.1693 -0.6286
 3795TIP3    H211392   1.892   2.976   1.806 -0.0555  0.0059 -0.5438
 3796TIP3   OH211393   3.579   0.904   1.060  0.1342  0.4652  0.3183
 3796TIP3    H111394   3.633   0.981   1.041 -0.1442  0.4858 -0.4313
 3796TIP3    H211395   3.501   0.915   1.006 -0.2400  0.0192  0.7634
 3797TIP3   OH211396   6.062   5.919   5.024  0.7396 -0.2228 -0.3230
 3797TIP3    H111397   6.090   5.992   4.968 -3.1796  1.9466  0.1747
 3797TIP3    H211398   6.017   5.961   5.097 -1.7595 -3.1213 -0.0004
 3798TIP3   OH211399   5.500   4.083   3.062  0.0093  0.2309 -0.7143
 3798TIP3    H111400   5.454   4.147   3.008 -1.0178 -1.2489 -1.6646
 3798TIP3    H211401   5.430   4.042   3.114  0.7074  0.1765  0.1949
 3799TIP3   OH211402   2.021   1.866   1.020 -0.3433 -0.0449 -0.3457
 3799TIP3    H111403   2.115   1.873   1.038 -0.1302 -2.4128 -0.2617
 3799TIP3    H211404   2.004   1.934   0.955  0.6945  2.6898  2.0542
 3800TIP3   OH211405   0.890   5.643   4.694 -0.2441  0.7486 -0.3603
 3800TIP3    H111406   0.877   5.612   4.604  0.4200  0.0982 -0.2360
 3800TIP3    H211407   0.979   5.678   4.694  0.2381 -0.4257  0.3672
 3801TIP3   OH211408   2.496   2.449   4.977 -0.4901  0.1052 -0.4354
 3801TIP3    H111409   2.538   2.530   5.007  0.2188  0.4564 -2.2866
 3801TIP3    H211410   2.408   2.476   4.951 -1.2721 -0.2832  1.6221
 3802TIP3   OH211411   3.919   4.877   1.366  0.3070  0.0048 -0.3690
 3802TIP3    H111412   3.848   4.898   1.306 -0.5535  0.8612  0.9022
 3802TIP3    H211413   3.956   4.795   1.332 -1.8316 -0.9248 -0.6118
 3803TIP3   OH211414   5.490   1.642   5.020  0.6488 -0.1237  0.7783
 3803TIP3    H111415   5.547   1.590   5.076  1.1606  0.7148  1.0473
 3803TIP3    H211416   5.475   1.586   4.943  1.0046 -0.7559  1.1632
 3804TIP3   OH211417   4.832   5.229   2.030  0.4856 -0.2724  0.0363
 3804TIP3    H111418   4.870   5.250   1.945 -1.2409  0.3009 -0.6407
 3804TIP3    H211419   4.747   5.189   2.009  0.0870 -0.2340  1.4810
 3805TIP3   OH211420   1.980   3.303   4.348 -0.2481  0.3613 -0.4990
 3805TIP3    H111421   1.886   3.298   4.327 -0.1949 -0.4958 -0.5754
 3805TIP3    H211422   2.021   3.245   4.284  0.3286  0.6833 -0.4209
 3806TIP3   OH211423   4.282   5.349   0.644 -0.5279 -0.3999 -0.0022
 3806TIP3    H111424   4.218   5.282   0.623 -0.9897 -0.7131  2.1664
 3806TIP3    H211425   4.231   5.417   0.688  0.4230 -0.0723  0.6098
 3807TIP3   OH211426   5.106   3.278   2.703  0.5949  0.3273  0.2855
 3807TIP3    H111427   5.175   3.315   2.759  2.1533  1.5442 -2.2807
 3807TIP3    H211428   5.110   3.184   2.719  0.4096  0.6584  2.7575
 3808TIP3   OH211429   4.522   5.232   1.895 -0.4680  0.3670  0.2341
 3808TIP3    H111430   4.587   5.273   1.839 -0.0772 -0.9670 -0.3310
 3808TIP3    H211431   4.440   5.238   1.846 -0.7005  1.6524  0.7520
 3809TIP3   OH211432   0.645   1.669   1.292 -0.3743  0.2909 -0.0695
 3809TIP3    H111433   0.659   1.740   1.354  2.5601 -0.5541  0.4378
 3809TIP3    H211434   0.558   1.684   1.256 -0.6621  2.9503  1.4823
 3810TIP3   OH211435   6.198   5.431   3.269  0.0890  0.4537  0.2906
 3810TIP3    H111436   6.146   5.487   3.211 -1.8762  0.2051  1.7297
 3810TIP3    H211437   6.196   5.476   3.353  1.2867 -0.1608  0.6678
 3811TIP3   OH211438   2.085   5.116   2.865 -0.4198 -0.3863 -0.1247
 3811TIP3    H111439   2.122   5.159   2.941 -0.9100 -0.5215  0.1957
 3811TIP3    H211440   2.155   5.059   2.832  0.1788  0.5317 -0.4605
 3812TIP3   OH211441   3.767   5.120   4.967  0.0647 -0.6507  0.2673
 3812TIP3    H111442   3.747   5.167   4.886 -0.0309  0.0795  0.7035
 3812TIP3    H211443   3.695   5.057   4.976 -0.8548  0.4090  0.6468
 3813TIP3   OH211444   6.294   1.779   3.978  0.1948 -0.4777 -0.5075
 3813TIP3    H111445   6.367   1.732   3.938  1.6893  0.1471  1.3320
 3813TIP3    H211446   6.330   1.815   4.059 -1.6912  1.3922 -0.4183
 3814TIP3   OH211447   5.735   2.396   1.369 -0.8306  0.0224 -0.5165
 3814TIP3    H111448   5.642   2.387   1.389 -1.0594  0.4116 -1.3479
 3814TIP3    H211449   5.738   2.401   1.273  0.1491 -1.1847 -0.5670
 3815TIP3   OH211450   1.529   4.993   4.799 -0.5210 -0.0607 -0.2721
 3815TIP3    H111451   1.559   4.908   4.830 -1.2088  0.0745  0.8163
 3815TIP3    H211452   1.602   5.052   4.817 -0.9263  0.0302  1.2239
 3816TIP3   OH211453   3.146   5.885   4.974  0.4973 -0.2835 -0.6459
 3816TIP3    H111454   3.171   5.913   4.886 -0.9093 -1.3774 -1.4347
 3816TIP3    H211455   3.196   5.805   4.989  1.5996  0.5089  0.0428
 3817TIP3   OH211456   4.679   4.736   2.597 -0.3043  0.2789 -0.0626
 3817TIP3    H111457   4.766   4.773   2.613  0.1791 -0.2877 -1.3052
 3817TIP3    H211458   4.637   4.737   2.683  1.5983 -1.1983  0.9569
 3818TIP3   OH211459   6.111   4.931   0.895 -0.2364  0.1918 -0.1457
 3818TIP3    H111460   6.084   4.897   0.810 -0.3578  1.1526 -0.5025
 3818TIP3    H211461   6.104   4.856   0.954  1.3860 -0.9236 -1.2768
 3819TIP3   OH211462   1.865   4.017   1.459  0.5051 -0.2803 -0.9459
 3819TIP3    H111463   1.780   4.056   1.481  0.2334 -1.7322  0.7937
 3819TIP3    H211464   1.896   4.069   1.385 -2.2282 -0.1563 -2.1519
 3820TIP3   OH211465   3.693   0.201   0.167 -0.5285  0.2700 -0.3654
 3820TIP3    H111466   3.732   0.238   0.246  0.3239 -0.1592 -0.5686
 3820TIP3    H211467   3.684   0.108   0.186 -2.1362  0.4677 -0.0669
 3821TIP3   OH211468   3.421   2.562   1.442 -0.1601  0.7313  0.1159
 3821TIP3    H111469   3.443   2.635   1.383 -2.0405  1.7942  0.6242
 3821TIP3    H211470   3.473   2.579   1.520  0.3099  0.8549 -0.2152
 3822TIP3   OH211471   5.151   2.023   3.500  0.1005 -0.1129  0.6328
 3822TIP3    H111472   5.157   2.004   3.407 -1.3060  1.2769  0.2124
 3822TIP3    H211473   5.240   2.042   3.528  0.3085  1.3051 -0.8720
 3823TIP3   OH211474   3.634   1.036   2.675 -0.0279  0.0927 -0.4672
 3823TIP3    H111475   3.578   1.112   2.694  0.6620  0.7490 -0.9964
 3823TIP3    H211476   3.617   0.976   2.747 -0.7606  0.6500 -0.1537
 3824TIP3   OH211477   2.693   3.730   3.562 -0.0212 -0.4579 -0.5760
 3824TIP3    H111478   2.685   3.636   3.577  1.6314 -0.5287  0.1166
 3824TIP3    H211479   2.678   3.770   3.647 -3.7649  0.2176 -1.4020
 3825TIP3   OH211480   2.968   2.531   3.589 -0.3652  0.5066 -0.3774
 3825TIP3    H111481   3.034   2.512   3.522  0.9703 -2.2888  1.5413
 3825TIP3    H211482   3.019   2.553   3.667 -1.8377  1.6541  0.3093
 3826TIP3   OH211483   3.403   1.756   4.143 -0.1148 -0.1963  0.6273
 3826TIP3    H111484   3.447   1.761   4.058  1.1618 -0.3484  1.2500
 3826TIP3    H211485   3.347   1.679   4.136 -1.6465  0.9706 -0.7761
 3827TIP3   OH211486   4.323   1.597   5.055  0.1692 -0.1654  0.1084
 3827TIP3    H111487   4.405   1.618   5.011 -1.1366  4.0310 -0.7673
 3827TIP3    H211488   4.272   1.550   4.989  0.7566 -0.1100 -0.3980
 3828TIP3   OH211489   5.464   3.155   0.718 -0.9494 -0.2618  0.0003
 3828TIP3    H111490   5.476   3.244   0.751 -0.7544 -0.6349  0.9798
 3828TIP3    H211491   5.548   3.133   0.678 -1.3915  0.4260 -1.3576
 3829TIP3   OH211492   0.177   0.592   0.503 -0.2341  0.3628  0.7885
 3829TIP3    H111493   0.102   0.623   0.555 -0.1358  0.1718  1.0471
 3829TIP3    H211494   0.145   0.514   0.459 -0.0494  0.0118  1.2669
 3830TIP3   OH211495   2.157   4.303   0.332 -0.2861  1.0599  0.8497
 3830TIP3    H111496   2.211   4.331   0.258 -2.3488 -1.7938 -1.9927
 3830TIP3    H211497   2.220   4.275   0.398  1.8359 -1.1171 -1.8702
 3831TIP3   OH211498   2.244   5.238   3.048  0.2535 -0.3448  0.4404
 3831TIP3    H111499   2.328   5.193   3.050 -0.1292 -1.0644  1.3465
 3831TIP3    H211500   2.265   5.331   3.054  1.1012 -0.2955 -2.2095
 3832TIP3   OH211501   5.880   2.614   0.988  0.1843  0.2862 -0.0370
 3832TIP3    H111502   5.786   2.617   1.007  0.2812 -1.2722  0.8519
 3832TIP3    H211503   5.918   2.683   1.043 -0.3305  0.3006  0.3124
 3833TIP3   OH211504   3.362   0.111   2.017  0.1117 -0.0660  0.4438
 3833TIP3    H111505   3.296   0.154   1.963 -0.2040  0.6583  1.3782
 3833TIP3    H211506   3.320   0.099   2.102  1.1118  0.2558  1.0075
 3834TIP3   OH211507   1.843   4.893   4.468  0.1473  0.1516  0.4472
 3834TIP3    H111508   1.854   4.965   4.531 -0.4602  0.6466 -0.0011
 3834TIP3    H211509   1.773   4.840   4.505 -0.1841  0.4219  0.2111
 3835TIP3   OH211510   2.472   0.488   3.696 -0.2918  0.2211 -0.0443
 3835TIP3    H111511   2.523   0.410   3.674 -1.2215 -0.1441 -1.0301
 3835TIP3    H211512   2.441   0.473   3.785  1.8498  0.7609  0.8258
 3836TIP3   OH211513   1.682   3.783  -0.035 -0.2718  0.2711 -0.0009
 3836TIP3    H111514   1.637   3.763   0.047 -0.0491 -1.3199 -0.2393
 3836TIP3    H211515   1.772   3.803  -0.008 -0.5517  1.2276  0.2634
 3837TIP3   OH211516   4.399   0.891   2.672  0.0049 -0.0234  0.5812
 3837TIP3    H111517   4.359   0.974   2.649 -2.1201 -0.1267  3.3864
 3837TIP3    H211518   4.380   0.880   2.765  2.6494 -2.3636  0.9735
 3838TIP3   OH211519   2.689   5.214   2.138  0.2745 -0.1436  0.6728
 3838TIP3    H111520   2.711   5.121   2.144  1.4891 -0.0144 -1.1968
 3838TIP3    H211521   2.656   5.236   2.226  0.2072 -2.2508  1.2317
 3839TIP3   OH211522   1.977   4.497   3.597 -0.3475  0.3120 -0.0548
 3839TIP3    H111523   2.048   4.495   3.661 -0.1636  0.0409 -0.2670
 3839TIP3    H211524   1.990   4.418   3.544 -0.5659  0.4770 -0.3543
 3840TIP3   OH211525   2.509   4.413   3.225 -0.2362 -0.1889  0.3343
 3840TIP3    H111526   2.495   4.455   3.140  0.6072 -0.3342  0.1174
 3840TIP3    H211527   2.490   4.320   3.208  0.6557 -0.3409  0.1083
 3841TIP3   OH211528   2.747   1.362   3.789 -0.0744  0.5411  0.2093
 3841TIP3    H111529   2.751   1.290   3.726  0.0602  0.4981  0.2664
 3841TIP3    H211530   2.695   1.328   3.861  1.1646 -0.0111  0.8857
 3842TIP3   OH211531   2.546   5.719   0.278  0.3297 -0.7824  0.5822
 3842TIP3    H111532   2.481   5.724   0.208 -1.4126 -1.7218  2.0433
 3842TIP3    H211533   2.561   5.810   0.304 -0.4558 -0.5478  0.2453
 3843TIP3   OH211534   3.630   4.400   3.222  0.1295 -0.3387  0.1798
 3843TIP3    H111535   3.699   4.450   3.265  1.7197 -1.2876 -1.1733
 3843TIP3    H211536   3.620   4.321   3.275 -1.7117  0.8446  1.7645
 3844TIP3   OH211537   3.531   2.859   4.001  0.4472 -0.0222  0.2506
 3844TIP3    H111538   3.471   2.807   3.949  0.0297  0.4561  0.2476
 3844TIP3    H211539   3.475   2.910   4.059  0.8911 -0.4053  1.0504
 3845TIP3   OH211540   1.124   0.992   0.761 -0.5713 -0.1471  0.2993
 3845TIP3    H111541   1.167   0.965   0.842 -1.4472  2.5254  1.7502
 3845TIP3    H211542   1.090   0.910   0.724  2.2384 -1.8216  1.0974
 3846TIP3   OH211543   1.715   2.790   1.530 -0.2300  0.3114  0.3537
 3846TIP3    H111544   1.693   2.856   1.466 -1.0560  0.1082  0.4140
 3846TIP3    H211545   1.811   2.787   1.530 -0.2153  0.1406 -1.0375
 3847TIP3   OH211546   1.778   4.385   0.113 -0.2535  0.2168 -0.3574
 3847TIP3    H111547   1.725   4.306   0.109 -1.2427  0.8942 -1.0893
 3847TIP3    H211548   1.783   4.416   0.023  2.4113 -0.4550 -0.5151
 3848TIP3   OH211549   5.251   0.811   2.372  0.6140  0.2308  1.0464
 3848TIP3    H111550   5.211   0.823   2.458 -2.6143 -0.3008 -0.2406
 3848TIP3    H211551   5.235   0.893   2.326  1.4466  0.1581  0.5946
 3849TIP3   OH211552   5.333   0.003   0.935  0.2769 -0.3788 -0.5451
 3849TIP3    H111553   5.383  -0.010   1.015 -1.3727 -1.2676  0.3865
 3849TIP3    H211554   5.387   0.063   0.883  2.3245 -1.3662  0.3386
 3850TIP3   OH211555   3.852   1.417   1.730 -0.6565  0.3150 -0.2647
 3850TIP3    H111556   3.855   1.509   1.707 -0.7537  0.3385 -0.1823
 3850TIP3    H211557   3.851   1.415   1.825 -1.1674  0.2450 -0.2685
 3851TIP3   OH211558   4.086   3.096   1.257 -0.1434 -0.1965 -0.0873
 3851TIP3    H111559   4.159   3.147   1.292  0.1424  0.4836 -1.6293
 3851TIP3    H211560   4.095   3.010   1.299  1.6726 -0.1956 -0.4233
 3852TIP3   OH211561   6.163   1.133   1.296 -0.2459 -0.2767  0.8007
 3852TIP3    H111562   6.247   1.173   1.319 -1.0360  0.6347  2.2822
 3852TIP3    H211563   6.160   1.137   1.200  1.2144  0.0096  0.7385
 3853TIP3   OH211564   4.528   0.953   4.152 -0.5336 -0.9828 -0.3453
 3853TIP3    H111565   4.532   1.048   4.167 -0.1970 -1.3247  2.2643
 3853TIP3    H211566   4.552   0.942   4.060  0.1301  1.4047 -0.5250
 3854TIP3   OH211567   1.172   3.468   1.184 -0.2464  0.2653  0.3968
 3854TIP3    H111568   1.233   3.400   1.155 -0.1666  0.1390  0.8435
 3854TIP3    H211569   1.086   3.426   1.180 -0.0214 -0.5543  2.5408
 3855TIP3   OH211570   3.330   0.632   2.516 -0.2629  0.0227  0.2896
 3855TIP3    H111571   3.408   0.674   2.480  0.1876  0.8810  2.1047
 3855TIP3    H211572   3.258   0.662   2.461  0.6343 -0.6531 -1.3156
 3856TIP3   OH211573   1.184   4.249   1.851 -0.5198 -0.0720 -0.6052
 3856TIP3    H111574   1.170   4.256   1.945  0.7389 -0.2250 -0.3898
 3856TIP3    H211575   1.162   4.336   1.817 -0.8297  0.0283 -0.1555
 3857TIP3   OH211576   2.672   1.025   0.865  0.0748 -0.0179  0.0225
 3857TIP3    H111577   2.659   1.029   0.960 -0.5627  1.2450 -0.1012
 3857TIP3    H211578   2.588   0.995   0.831  0.6840 -1.7257 -0.0844
 3858TIP3   OH211579   2.300   1.136   4.517 -0.6593 -0.4243  0.1301
 3858TIP3    H111580   2.312   1.136   4.422  1.4661 -2.0656  0.3091
 3858TIP3    H211581   2.384   1.169   4.550 -0.4052 -2.2431  1.4377
 3859TIP3   OH211582   1.553   5.859   0.482 -0.0470  0.2097  0.3832
 3859TIP3    H111583   1.463   5.878   0.508 -0.3015  1.0053 -0.9920
 3859TIP3    H211584   1.552   5.767   0.457 -0.3255  0.0521  0.9699
 3860TIP3   OH211585   4.719   4.021   2.171  0.3109 -0.2971 -0.2938
 3860TIP3    H111586   4.763   4.026   2.086 -1.8616 -1.0868 -1.5591
 3860TIP3    H211587   4.642   4.077   2.161 -1.8638 -3.0570 -0.1600
 3861TIP3   OH211588   0.530   4.018   0.214  0.4569  0.9108 -0.4978
 3861TIP3    H111589   0.575   4.061   0.141  0.7537 -1.2975 -1.6862
 3861TIP3    H211590   0.599   3.976   0.264  0.1096  1.2285  0.2714
 3862TIP3   OH211591   6.116   0.371   4.639 -0.3776 -0.0128 -0.0659
 3862TIP3    H111592   6.146   0.359   4.729  1.9492  1.3634 -0.5965
 3862TIP3    H211593   6.109   0.466   4.628 -0.5200 -0.1528 -1.3916
 3863TIP3   OH211594   6.302   4.397   4.609 -0.3219  0.3699 -0.8318
 3863TIP3    H111595   6.300   4.303   4.627 -1.5340 -0.2222 -3.5494
 3863TIP3    H211596   6.227   4.433   4.656  0.4185  0.1016  0.6050
 3864TIP3   OH211597   5.059   0.749   4.274 -0.2194  0.0687 -0.4209
 3864TIP3    H111598   5.044   0.827   4.222  0.6365  1.3422  1.1595
 3864TIP3    H211599   5.154   0.740   4.278 -0.2778 -0.2734  0.5213
 3865TIP3   OH211600   3.838   3.896   4.274  0.6450 -0.6220  0.3459
 3865TIP3    H111601   3.914   3.910   4.218 -1.2764 -0.1148 -2.3428
 3865TIP3    H211602   3.819   3.802   4.266 -0.2357 -0.3761 -0.8130
 3866TIP3   OH211603   1.490   1.251   2.593 -0.6700 -0.1919  0.2224
 3866TIP3    H111604   1.565   1.302   2.625 -1.4022  0.1526  1.4280
 3866TIP3    H211605   1.526   1.163   2.578  0.0154  0.0052  0.6515
 3867TIP3   OH211606   0.816   2.828   5.169  0.0283  0.1097 -0.7678
 3867TIP3    H111607   0.793   2.781   5.088  0.1224 -1.0024 -0.1777
 3867TIP3    H211608   0.751   2.799   5.232  0.7085 -0.0422 -0.1159
 3868TIP3   OH211609   6.247   1.153   2.573  0.4408 -0.7618  0.3657
 3868TIP3    H111610   6.261   1.127   2.665  0.2867 -1.2776  0.2507
 3868TIP3    H211611   6.233   1.070   2.527  0.6995 -0.5184 -0.1595
 3869TIP3   OH211612   2.771   1.280   3.367 -0.0296 -0.3796 -0.0355
 3869TIP3    H111613   2.719   1.305   3.291 -0.6127 -0.9045  0.1741
 3869TIP3    H211614   2.728   1.200   3.399  1.5575 -1.4680 -0.5071
 3870TIP3   OH211615   4.629   4.105   2.918 -0.2543  0.4831 -0.3163
 3870TIP3    H111616   4.629   4.113   3.013 -0.2148  2.1603 -0.4264
 3870TIP3    H211617   4.632   4.196   2.886  0.4422 -0.0564 -1.9115
 3871TIP3   OH211618   0.300   3.243   1.777  0.7455 -0.0089  0.2110
 3871TIP3    H111619   0.320   3.307   1.709  0.0292  0.3406  0.3097
 3871TIP3    H211620   0.233   3.286   1.831  0.2077 -0.8595  0.2482
 3872TIP3   OH211621   1.794   3.069   3.134  0.3962  0.3335 -0.4355
 3872TIP3    H111622   1.734   2.997   3.113  0.9892 -0.0861 -0.7137
 3872TIP3    H211623   1.849   3.077   3.056  2.0494 -0.6547  0.5814
 3873TIP3   OH211624   5.823   4.753   1.593 -0.5253 -0.2371  0.2204
 3873TIP3    H111625   5.818   4.712   1.679  2.2426 -0.8464  0.2025
 3873TIP3    H211626   5.804   4.682   1.531 -0.9202 -0.1893  0.2835
 3874TIP3   OH211627   3.366   1.379   3.278  0.1330  0.7653  0.3079
 3874TIP3    H111628   3.435   1.405   3.340  0.5599 -0.9684  0.6198
 3874TIP3    H211629   3.286   1.415   3.315  0.7608  2.3081  0.2580
 3875TIP3   OH211630   1.937   4.227   3.909  0.5957  0.1785 -0.1141
 3875TIP3    H111631   1.998   4.299   3.922 -0.2877  1.2574 -1.5488
 3875TIP3    H211632   1.854   4.269   3.889 -0.7314 -1.2375  1.9842
 3876TIP3   OH211633   3.133   0.549   4.505 -0.1473  0.3060  0.1442
 3876TIP3    H111634   3.142   0.466   4.458  1.4390  0.8721 -0.6293
 3876TIP3    H211635   3.180   0.612   4.450 -0.8513  1.6038  0.9960
 3877TIP3   OH211636   4.875   5.833   2.555  0.1335 -0.1024 -0.3856
 3877TIP3    H111637   4.948   5.883   2.519  1.6290 -0.1820  2.3400
 3877TIP3    H211638   4.888   5.744   2.521  1.5106 -0.1868  0.3139
 3878TIP3   OH211639   0.622   2.450   5.111 -0.2857  0.0520 -0.1913
 3878TIP3    H111640   0.668   2.517   5.162  2.7536  0.0735 -2.6406
 3878TIP3    H211641   0.538   2.490   5.090  0.7686  2.4670 -0.1834
 3879TIP3   OH211642   4.899   0.579   0.406 -0.2906 -0.0689 -0.0579
 3879TIP3    H111643   4.882   0.616   0.493  0.4053 -1.4611  0.6954
 3879TIP3    H211644   4.976   0.523   0.418  0.1824  0.1694 -1.7088
 3880TIP3   OH211645   5.659   5.835   4.335 -0.0974  0.5635 -0.3392
 3880TIP3    H111646   5.602   5.823   4.411 -1.2339 -0.0373 -1.2541
 3880TIP3    H211647   5.600   5.862   4.264  0.5903 -1.0145 -1.5773
 3881TIP3   OH211648   1.829   4.649   3.411  0.3090 -0.1353  0.5162
 3881TIP3    H111649   1.748   4.686   3.445 -0.7221 -2.3440  0.6769
 3881TIP3    H211650   1.869   4.604   3.486 -0.0205 -1.8007 -0.2576
 3882TIP3   OH211651   2.216   0.263   2.552 -0.3935  0.0072  0.2578
 3882TIP3    H111652   2.184   0.282   2.464 -0.8836  1.0948  0.6581
 3882TIP3    H211653   2.189   0.338   2.604  1.4065  0.2053  0.9747
 3883TIP3   OH211654   1.281   1.120   4.224 -0.6908  0.1641 -0.2309
 3883TIP3    H111655   1.288   1.155   4.135 -0.5144  1.2093  0.1722
 3883TIP3    H211656   1.360   1.151   4.268 -1.1402  0.3166  0.4973
 3884TIP3   OH211657   4.369   4.495   0.687  0.0630  0.1857  0.2597
 3884TIP3    H111658   4.313   4.570   0.706  0.8628  0.8807 -0.0689
 3884TIP3    H211659   4.401   4.466   0.772 -0.9336 -0.3448  0.4704
 3885TIP3   OH211660   3.518   5.601   3.118 -0.2364  0.4550 -0.2753
 3885TIP3    H111661   3.449   5.642   3.171 -0.6514 -0.6784  0.0826
 3885TIP3    H211662   3.509   5.641   3.032 -0.8873  0.8300 -0.0420
 3886TIP3   OH211663   4.140   5.482   3.956 -0.0881 -0.7100 -0.2278
 3886TIP3    H111664   4.111   5.410   4.012 -0.3216  0.6680  1.5350
 3886TIP3    H211665   4.228   5.503   3.987  0.3841 -0.8669 -1.4020
 3887TIP3   OH211666   3.687   4.325   4.308 -0.1563 -0.6452 -0.1764
 3887TIP3    H111667   3.657   4.406   4.348 -0.5373 -1.2024  0.7087
 3887TIP3    H211668   3.613   4.293   4.257 -0.2784 -0.8348  0.1173
 3888TIP3   OH211669   5.913   1.469   2.630  0.0240  0.3877 -0.4868
 3888TIP3    H111670   5.836   1.413   2.620  0.9738 -0.8982 -0.8858
 3888TIP3    H211671   5.935   1.464   2.723  1.3254 -1.6355 -0.8575
 3889TIP3   OH211672   1.793   3.786   0.433 -0.2108  0.0824 -0.3015
 3889TIP3    H111673   1.804   3.881   0.427  2.4921 -0.2300 -3.7872
 3889TIP3    H211674   1.730   3.764   0.364  0.3339 -0.7854 -0.5423
 3890TIP3   OH211675   4.642   1.405   2.814  0.1618 -0.4351  0.0850
 3890TIP3    H111676   4.627   1.426   2.722  0.5856 -1.7696 -0.3112
 3890TIP3    H211677   4.716   1.460   2.840  1.0259 -1.1263 -0.8226
 3891TIP3   OH211678   5.986   0.245   2.142 -0.0981  0.4038  0.2887
 3891TIP3    H111679   6.024   0.158   2.150 -1.4195 -0.2490 -0.1482
 3891TIP3    H211680   5.955   0.267   2.230 -0.6033  0.0144  0.2120
 3892TIP3   OH211681   1.586   1.671   5.191 -0.2571  0.1852  0.1806
 3892TIP3    H111682   1.583   1.631   5.104  0.5360  2.2967 -0.8792
 3892TIP3    H211683   1.509   1.728   5.194  1.7399  3.1785 -0.8083
 3893TIP3   OH211684   3.177   4.196   4.944  0.3165 -0.0624 -0.7559
 3893TIP3    H111685   3.113   4.211   5.013  0.0767 -3.4801 -0.0614
 3893TIP3    H211686   3.125   4.165   4.869  0.9677 -0.9825 -0.8389
 3894TIP3   OH211687   3.649   3.669   0.344 -0.8112 -0.3064 -0.2287
 3894TIP3    H111688   3.629   3.763   0.346 -0.5450 -0.2171 -1.2397
 3894TIP3    H211689   3.679   3.649   0.433  0.5715  0.9079 -0.3751
 3895TIP3   OH211690   2.336   5.436   2.168  0.1880 -0.3264 -0.4435
 3895TIP3    H111691   2.416   5.419   2.218  0.2698  0.0566 -0.4339
 3895TIP3    H211692   2.273   5.371   2.199  0.4321 -0.4966 -0.2998
 3896TIP3   OH211693   0.059   4.802   2.827 -0.3414 -0.7923 -1.0438
 3896TIP3    H111694   0.045   4.716   2.866  1.2579 -0.8237 -0.4522
 3896TIP3    H211695   0.141   4.794   2.778  0.4824  0.6748 -0.0095
 3897TIP3   OH211696   0.202   0.516   3.768 -0.0991 -0.2890 -0.1372
 3897TIP3    H111697   0.126   0.490   3.716 -0.3263 -0.3471  0.2232
 3897TIP3    H211698   0.274   0.516   3.706 -0.7777  1.9901 -1.0684
 3898TIP3   OH211699   3.986   2.802   1.288  0.6772 -0.2044 -0.0652
 3898TIP3    H111700   4.080   2.784   1.288  0.7806  0.2560 -1.0406
 3898TIP3    H211701   3.952   2.748   1.217  0.0856 -0.8634  0.6936
 3899TIP3   OH211702   4.268   0.675   1.130 -0.3063 -0.6489  0.2477
 3899TIP3    H111703   4.185   0.683   1.082 -0.7100  0.0643  1.0307
 3899TIP3    H211704   4.245   0.698   1.220  1.2946  2.6001 -0.0320
 3900TIP3   OH211705   0.629   3.879   1.310  0.1028 -0.1198 -0.0958
 3900TIP3    H111706   0.674   3.955   1.346  1.0425 -0.3801 -0.6977
 3900TIP3    H211707   0.641   3.810   1.376  1.5663 -0.5103 -0.7356
 3901TIP3   OH211708   4.955   2.244   2.606  0.6299 -0.2305  0.2164
 3901TIP3    H111709   4.872   2.231   2.560  1.6235 -0.7371 -1.5228
 3901TIP3    H211710   5.020   2.256   2.537  1.9272  0.8011  1.5405
 3902TIP3   OH211711   1.697   0.984   4.221  0.1290  0.1690 -0.0401
 3902TIP3    H111712   1.641   1.061   4.213 -0.6565 -0.2923  0.8452
 3902TIP3    H211713   1.784   1.014   4.194  0.0663  1.6194  1.2574
 3903TIP3   OH211714   0.277   4.757   4.004  0.5262  0.3444  0.6950
 3903TIP3    H111715   0.282   4.838   3.953 -2.1806  0.3721  0.2984
 3903TIP3    H211716   0.285   4.687   3.938 -0.3887  0.3619  0.5449
 3904TIP3   OH211717   2.229   2.334   0.895 -0.3784 -0.4509 -0.8503
 3904TIP3    H111718   2.229   2.429   0.892  0.3238 -0.3994  0.2227
 3904TIP3    H211719   2.138   2.309   0.881 -0.7159  0.4224 -0.2528
 3905TIP3   OH211720   0.566   0.810   0.447  0.0578 -0.1725  0.3908
 3905TIP3    H111721   0.543   0.855   0.365  0.1313 -1.5661 -0.4141
 3905TIP3    H211722   0.546   0.875   0.515 -3.8245 -0.3090 -0.3722
 3906TIP3   OH211723   0.909   4.563   0.299  0.0020  0.8595  0.5523
 3906TIP3    H111724   0.961   4.567   0.219  1.6359  0.2694  1.5261
 3906TIP3    H211725   0.830   4.515   0.274  1.2266 -0.8026 -0.3567
 3907TIP3   OH211726   3.628   2.684   1.601 -0.3198  0.7538 -0.6399
 3907TIP3    H111727   3.676   2.734   1.535  0.0054  0.2163 -0.8094
 3907TIP3    H211728   3.695   2.632   1.646 -0.8009 -0.4173 -1.2379
 3908TIP3   OH211729   1.560   4.828   4.296  0.0599  0.1669 -0.0921
 3908TIP3    H111730   1.569   4.793   4.384 -0.9190 -0.6820 -0.3067
 3908TIP3    H211731   1.647   4.859   4.273  0.5930 -0.6708  0.7395
 3909TIP3   OH211732   1.034   2.035   0.684  0.3720 -0.1075 -1.0395
 3909TIP3    H111733   1.004   1.951   0.719  0.4681  0.1668 -0.2860
 3909TIP3    H211734   1.045   2.019   0.590 -0.4147 -0.7077 -1.0433
 3910TIP3   OH211735   0.553   2.571   2.160 -0.0952  0.2178 -0.7353
 3910TIP3    H111736   0.531   2.478   2.153 -1.5903  0.6072 -1.8560
 3910TIP3    H211737   0.624   2.584   2.097 -1.4883  0.2470 -2.3769
 3911TIP3   OH211738   1.605   0.566   2.853  0.2729 -0.6937  0.3970
 3911TIP3    H111739   1.687   0.518   2.839 -0.6795 -1.6608 -2.6658
 3911TIP3    H211740   1.543   0.498   2.881  0.1134 -0.2548  1.1352
 3912TIP3   OH211741   1.085   3.060   4.772  0.3421 -0.1907  0.2055
 3912TIP3    H111742   1.089   3.152   4.747  2.2985 -0.2337  0.1677
 3912TIP3    H211743   1.030   3.058   4.850  1.7508  1.3109  1.3151
 3913TIP3   OH211744   2.672   2.844   2.578 -0.2745 -0.3238  0.0491
 3913TIP3    H111745   2.593   2.884   2.544 -0.2331  0.3104  0.6814
 3913TIP3    H211746   2.743   2.884   2.529 -0.1620  1.1144  1.3136
 3914TIP3   OH211747   0.854   5.545   4.436 -0.1382 -0.1930  0.3598
 3914TIP3    H111748   0.812   5.461   4.453 -1.1127  0.4241  1.0841
 3914TIP3    H211749   0.931   5.523   4.383 -1.4016 -1.3541 -1.0970
 3915TIP3   OH211750   3.861   5.700   1.256 -0.0542 -0.2606 -0.1135
 3915TIP3    H111751   3.840   5.611   1.283  0.2367  0.0757  1.3078
 3915TIP3    H211752   3.778   5.737   1.224 -0.3229 -0.8007 -0.0411
 3916TIP3   OH211753   4.320   3.225   0.812  0.2208  0.7085  0.6677
 3916TIP3    H111754   4.331   3.180   0.728  2.1891 -0.4622  1.4856
 3916TIP3    H211755   4.276   3.160   0.868 -0.1368  1.1021  0.8485
 3917TIP3   OH211756   4.370   1.108   2.269  0.2794 -0.1984 -0.6888
 3917TIP3    H111757   4.282   1.139   2.247  0.7391  0.5066 -1.5987
 3917TIP3    H211758   4.428   1.157   2.211  1.4020  0.2784  0.7744
 3918TIP3   OH211759   5.319   4.171   1.064 -0.2106 -0.1623  0.4070
 3918TIP3    H111760   5.367   4.090   1.045  0.7389  0.2512  0.9657
 3918TIP3    H211761   5.378   4.241   1.035 -1.1033  0.3415 -0.2496
 3919TIP3   OH211762   3.321   5.247   1.365 -0.0903  0.1907  0.3789
 3919TIP3    H111763   3.288   5.336   1.370 -0.0097  0.3585 -1.3281
 3919TIP3    H211764   3.299   5.208   1.449 -0.8801  1.5608  0.8341
 3920TIP3   OH211765   1.155   0.432   3.684  0.0458 -0.4375 -0.0541
 3920TIP3    H111766   1.248   0.439   3.707 -0.1183 -2.4819  1.5037
 3920TIP3    H211767   1.120   0.520   3.702  1.4877  0.1327  0.1848
 3921TIP3   OH211768   3.784   1.302   0.719  0.5104  0.1907 -0.2066
 3921TIP3    H111769   3.742   1.366   0.662 -0.4748  1.7184  2.0941
 3921TIP3    H211770   3.856   1.350   0.761 -1.0709  0.3577  2.5787
 3922TIP3   OH211771   0.900   0.546   4.333  0.2850 -0.2428  0.3028
 3922TIP3    H111772   0.821   0.579   4.292  1.0080 -0.2890 -1.1853
 3922TIP3    H211773   0.899   0.452   4.316  0.3415 -0.3465  0.8496
 3923TIP3   OH211774   4.150   5.203   5.073 -0.1071  0.2880  0.0135
 3923TIP3    H111775   4.129   5.155   5.153  1.4934  0.7791  0.7582
 3923TIP3    H211776   4.227   5.160   5.038 -0.5779  0.3135 -1.0760
 3924TIP3   OH211777   2.899   2.545   4.992 -0.2248 -0.6799 -0.1955
 3924TIP3    H111778   2.843   2.498   5.054  2.3073 -5.1014 -0.8746
 3924TIP3    H211779   2.982   2.556   5.038  0.8312 -1.5792 -1.8030
 3925TIP3   OH211780   5.670   3.299   2.023  0.3528 -0.0521  0.2283
 3925TIP3    H111781   5.644   3.212   1.992  1.4082  0.3214 -1.9013
 3925TIP3    H211782   5.702   3.284   2.112  0.4060 -1.8295 -0.0556
 3926TIP3   OH211783   1.319   0.858   1.680  0.0172 -0.1079  0.3862
 3926TIP3    H111784   1.336   0.806   1.759  1.5849  2.2487  1.7291
 3926TIP3    H211785   1.273   0.935   1.712  0.6400  0.8757 -1.0112
 3927TIP3   OH211786   4.907   5.568   2.475  0.2846  0.3047  0.1106
 3927TIP3    H111787   4.915   5.557   2.380  1.9108  2.1273 -0.0145
 3927TIP3    H211788   4.910   5.478   2.509  1.3624 -0.2981 -1.4559
 3928TIP3   OH211789   1.440   4.606   1.005 -0.6153 -0.3372  0.3483
 3928TIP3    H111790   1.371   4.599   0.939 -1.1744  2.1678  0.5671
 3928TIP3    H211791   1.406   4.558   1.081 -1.3815 -0.5304 -0.1115
 3929TIP3   OH211792   1.986   0.965   1.754  0.1484 -0.6014 -0.1223
 3929TIP3    H111793   2.055   1.016   1.712 -2.4552  1.1905 -2.6364
 3929TIP3    H211794   1.952   0.908   1.684 -1.4465 -0.8167  0.7759
 3930TIP3   OH211795   4.859   0.430   2.851 -0.2984  0.1897 -0.4195
 3930TIP3    H111796   4.795   0.481   2.902 -1.7853 -0.1711 -1.8428
 3930TIP3    H211797   4.843   0.339   2.877  0.5565  0.2113  0.1934
 3931TIP3   OH211798   4.610   3.043   1.563 -0.1581  0.2842  0.5073
 3931TIP3    H111799   4.585   3.135   1.576  0.0166  0.3908  0.0887
 3931TIP3    H211800   4.567   2.997   1.635 -1.7937  0.4294 -0.3180
 3932TIP3   OH211801   0.725   3.769   4.841 -0.5006 -0.1254 -0.0842
 3932TIP3    H111802   0.638   3.754   4.805 -0.6329 -0.1069  0.2216
 3932TIP3    H211803   0.757   3.847   4.797  0.1508 -1.2135 -1.6162
 3933TIP3   OH211804   0.137   0.281   0.839 -0.3705  0.1374 -0.2975
 3933TIP3    H111805   0.145   0.375   0.855 -1.3440 -0.1433  2.3902
 3933TIP3    H211806   0.219   0.257   0.797  0.0772  2.1018 -0.6743
 3934TIP3   OH211807   0.775   3.289   0.306 -0.0289  0.0544  0.5289
 3934TIP3    H111808   0.736   3.377   0.310  0.7661  0.4344  0.1163
 3934TIP3    H211809   0.856   3.301   0.257  0.1334 -0.9024  0.5461
 3935TIP3   OH211810   1.911   2.557   4.795 -0.5284 -0.1771  0.0570
 3935TIP3    H111811   1.879   2.594   4.878 -1.4638  0.0049 -0.3724
 3935TIP3    H211812   1.955   2.630   4.752  1.0775 -0.5874  0.9298
 3936TIP3   OH211813   2.297   4.148   3.410  0.0758  0.2211 -0.3958
 3936TIP3    H111814   2.355   4.151   3.334  0.9573 -2.8158  0.0428
 3936TIP3    H211815   2.348   4.104   3.478 -1.4251  0.9725  1.3237
 3937TIP3   OH211816   3.625   1.240   4.473 -0.1559 -0.2065 -0.0545
 3937TIP3    H111817   3.551   1.292   4.443  0.3938  0.5074 -0.1927
 3937TIP3    H211818   3.694   1.304   4.492  0.4423 -0.8608  0.0368
 3938TIP3   OH211819   5.508   3.967   1.245 -0.5132 -0.5303  0.4046
 3938TIP3    H111820   5.479   3.932   1.160  0.1321 -2.0244  0.7652
 3938TIP3    H211821   5.602   3.981   1.234 -0.6228  0.3661  0.5317
 3939TIP3   OH211822   0.624   1.587   0.495  0.1134 -0.0741  0.0795
 3939TIP3    H111823   0.676   1.636   0.431  2.4126 -0.9258  1.1658
 3939TIP3    H211824   0.643   1.630   0.579 -0.5203 -0.7471  0.5790
 3940TIP3   OH211825   4.998   3.734   0.645  0.0968 -0.6174  0.6659
 3940TIP3    H111826   4.973   3.802   0.582  0.6912 -1.6761 -0.7520
 3940TIP3    H211827   4.927   3.736   0.710 -0.5939  0.4251 -0.0745
 3941TIP3   OH211828   4.981   5.030   3.036  0.3626  0.3615  0.3645
 3941TIP3    H111829   4.908   4.987   3.081 -0.3636 -0.0608 -1.1683
 3941TIP3    H211830   5.030   5.073   3.106 -1.9659  1.5789  1.3170
 3942TIP3   OH211831   4.366   2.332   4.231  0.0369 -0.2211 -0.5148
 3942TIP3    H111832   4.444   2.352   4.180 -0.0237 -0.0516 -0.5419
 3942TIP3    H211833   4.309   2.284   4.170  1.1442 -2.5861  0.2256
 3943TIP3   OH211834   5.365   2.320   0.082 -0.1030  0.0237 -0.0579
 3943TIP3    H111835   5.407   2.366   0.010  0.9435 -0.9688 -0.1209
 3943TIP3    H211836   5.272   2.323   0.062 -0.1472  2.4809  0.1941
 3944TIP3   OH211837  -0.011   4.162   1.360 -0.4505 -0.1373  0.0234
 3944TIP3    H111838   0.068   4.215   1.353 -0.8922  0.3189 -2.1082
 3944TIP3    H211839   0.008   4.099   1.430  0.6676  1.7992  1.5565
 3945TIP3   OH211840   2.615   0.243   2.373 -0.3191  0.0043  0.1497
 3945TIP3    H111841   2.630   0.194   2.454 -1.8084  1.1636  1.1708
 3945TIP3    H211842   2.624   0.335   2.399  0.5268  0.3669 -1.3205
 3946TIP3   OH211843   2.402   0.143   4.716 -0.7617 -0.4245 -0.2139
 3946TIP3    H111844   2.333   0.094   4.672  0.5219 -2.1941 -0.3844
 3946TIP3    H211845   2.483   0.100   4.689  0.2450 -0.0094  1.8996
 3947TIP3   OH211846   6.135   5.599   3.478 -0.3352 -0.0917  0.0043
 3947TIP3    H111847   6.192   5.652   3.535 -0.1426 -1.5504  1.2376
 3947TIP3    H211848   6.051   5.645   3.479 -0.1691  0.2274  1.0437
 3948TIP3   OH211849   3.593   4.731   4.160  0.4571  0.3890 -0.6041
 3948TIP3    H111850   3.587   4.811   4.211 -1.8104 -0.0606 -0.0578
 3948TIP3    H211851   3.577   4.758   4.070 -1.7168  0.4590 -0.2610
 3949TIP3   OH211852   3.730   1.622   1.538 -0.3433 -0.6781  0.5765
 3949TIP3    H111853   3.657   1.664   1.493  0.7750  0.5426 -0.1967
 3949TIP3    H211854   3.803   1.630   1.477  0.5148 -1.5944  1.4457
 3950TIP3   OH211855   4.100   5.832   5.100  0.0496  0.1701  0.5963
 3950TIP3    H111856   4.073   5.843   5.008 -1.2874 -1.5477  0.7214
 3950TIP3    H211857   4.039   5.767   5.135  0.8979  0.3599  2.5656
 3951TIP3   OH211858   0.928   0.568   3.899  0.2630  0.3433  0.0133
 3951TIP3    H111859   0.885   0.647   3.865  0.4445 -0.4025 -2.0887
 3951TIP3    H211860   0.877   0.495   3.861  1.6798 -0.5405 -0.2497
 3952TIP3   OH211861   1.285   3.833   1.406 -0.2263  0.1984 -0.1756
 3952TIP3    H111862   1.348   3.836   1.334 -1.3814 -0.6931 -1.2761
 3952TIP3    H211863   1.339   3.828   1.485  1.1655 -3.1006 -1.1628
 3953TIP3   OH211864   1.427   0.382   5.195  0.1426  0.7297 -0.0731
 3953TIP3    H111865   1.341   0.355   5.162 -0.2711  2.5898 -0.6222
 3953TIP3    H211866   1.473   0.416   5.118  0.1987  2.5648  0.7206
 3954TIP3   OH211867   5.008   0.010   2.871 -0.5828  0.2671  0.0744
 3954TIP3    H111868   5.050   0.038   2.790 -0.7248 -0.9735 -0.4567
 3954TIP3    H211869   4.948   0.081   2.893 -1.3660  0.1663 -1.5470
 3955TIP3   OH211870   2.934   1.959   1.279  0.2051 -0.0475 -0.7029
 3955TIP3    H111871   2.882   1.884   1.250 -0.2159  0.2236 -0.6602
 3955TIP3    H211872   2.875   2.007   1.338  1.2354 -0.9554  1.1830
 3956TIP3   OH211873   0.346   2.011   1.521 -0.2410  0.5553  0.4762
 3956TIP3    H111874   0.303   2.004   1.436  1.3298  0.2324 -0.3210
 3956TIP3    H211875   0.277   1.989   1.584 -0.4879 -3.4716 -0.8892
 3957TIP3   OH211876   2.203   0.848   4.021 -0.4857 -0.1576  0.1904
 3957TIP3    H111877   2.298   0.846   4.008 -0.2516 -0.8652  1.7490
 3957TIP3    H211878   2.184   0.938   4.046 -0.4758  0.3727 -1.5951
 3958TIP3   OH211879   0.385   4.731   3.359 -0.4533 -0.0635  0.4695
 3958TIP3    H111880   0.445   4.686   3.419  1.0301  0.5614 -0.4816
 3958TIP3    H211881   0.338   4.660   3.314 -0.2514 -0.5738  1.0541
 3959TIP3   OH211882   4.619   3.752   0.485  0.7952  0.0709  0.1063
 3959TIP3    H111883   4.561   3.781   0.415 -0.9998  0.7037  1.7719
 3959TIP3    H211884   4.625   3.657   0.473 -0.4304  0.0176 -0.2317
 3960TIP3   OH211885   4.397   2.076   1.611 -0.4825 -0.1341  0.3408
 3960TIP3    H111886   4.417   2.057   1.703 -0.8498  2.5355  1.0523
 3960TIP3    H211887   4.341   2.154   1.614 -0.6007 -0.0377 -2.1572
 3961TIP3   OH211888   1.498   2.784   1.816  0.2104 -0.6096 -0.2302
 3961TIP3    H111889   1.588   2.804   1.843  0.4860 -2.1355  0.0430
 3961TIP3    H211890   1.503   2.696   1.779 -1.1338 -0.6090 -0.4561
 3962TIP3   OH211891   5.447   3.370   4.393 -0.1072 -0.0546 -0.3541
 3962TIP3    H111892   5.434   3.288   4.346 -0.3807 -0.6066  0.6598
 3962TIP3    H211893   5.416   3.352   4.482  0.4169  0.9562  0.0498
 3963TIP3   OH211894   5.417   0.542   2.084  0.2959 -0.4888  0.2880
 3963TIP3    H111895   5.372   0.524   2.167 -0.5164 -3.1695 -0.6458
 3963TIP3    H211896   5.414   0.460   2.036  0.1360  1.1414 -2.7450
 3964TIP3   OH211897   0.120   0.715   5.116  0.4463  0.8046  0.1316
 3964TIP3    H111898   0.132   0.753   5.203  1.2224 -2.4018  1.5623
 3964TIP3    H211899   0.203   0.671   5.096 -1.1190 -2.3018 -0.1424
 3965TIP3   OH211900   1.122   5.142   4.833 -0.0920  0.1076 -0.4348
 3965TIP3    H111901   1.062   5.069   4.817  0.8186 -0.4226 -1.5842
 3965TIP3    H211902   1.188   5.107   4.893 -0.6001  0.5270  0.3924
 3966TIP3   OH211903   5.204   1.084   1.430 -0.4503 -0.2586 -0.3106
 3966TIP3    H111904   5.223   1.097   1.337  0.0106  1.1039 -0.0518
 3966TIP3    H211905   5.290   1.072   1.471 -0.6438 -0.7489 -0.0309
 3967TIP3   OH211906   3.761   2.055   3.323  0.1175  0.6760 -0.3619
 3967TIP3    H111907   3.795   2.048   3.412  1.2090  1.6725 -0.6740
 3967TIP3    H211908   3.774   1.968   3.286  1.7493  0.8312 -0.2439
 3968TIP3   OH211909   4.101   3.349   0.429  0.6154 -0.7330 -0.0611
 3968TIP3    H111910   4.031   3.408   0.456 -0.8315 -1.5279 -1.8706
 3968TIP3    H211911   4.154   3.401   0.368  1.1398 -0.4028  0.6550
 3969TIP3   OH211912   1.767   1.061   4.493 -0.8377  1.0072 -0.3235
 3969TIP3    H111913   1.851   1.046   4.449 -0.1300 -1.2806  1.5640
 3969TIP3    H211914   1.706   1.000   4.452 -0.3228 -0.7081  1.3270
 3970TIP3   OH211915   5.660   3.433   3.614  0.1275 -0.1160  0.0755
 3970TIP3    H111916   5.573   3.438   3.653  0.0700 -3.2053  0.6383
 3970TIP3    H211917   5.708   3.372   3.670  2.1339  0.2251 -1.1536
 3971TIP3   OH211918   4.485   5.957   0.823  0.3462 -0.3104  0.2284
 3971TIP3    H111919   4.435   5.911   0.891  2.3024  0.6412  2.4388
 3971TIP3    H211920   4.426   6.025   0.791 -0.3593 -0.2569  1.5841
 3972TIP3   OH211921   5.448   1.110   0.078  0.0141  0.2072  0.2242
 3972TIP3    H111922   5.389   1.059   0.134 -0.8537 -1.2515 -1.9108
 3972TIP3    H211923   5.421   1.090  -0.011  2.8105  0.6424 -0.8312
 3973TIP3   OH211924   5.893   1.608   2.245 -0.2346 -0.5213  0.6071
 3973TIP3    H111925   5.891   1.702   2.260 -0.7699 -0.3110 -0.6224
 3973TIP3    H211926   5.824   1.573   2.302 -0.0214 -0.1774  1.0793
 3974TIP3   OH211927   3.347   2.968   4.171  0.4306  0.6031  0.0809
 3974TIP3    H111928   3.274   2.919   4.208  0.6233 -0.2025 -0.5857
 3974TIP3    H211929   3.406   2.984   4.245 -0.5012  1.4461  0.6666
 3975TIP3   OH211930   2.086   0.423   3.400  0.0634 -0.4961 -0.0306
 3975TIP3    H111931   2.169   0.467   3.420  0.2630 -0.4617 -0.8826
 3975TIP3    H211932   2.099   0.388   3.311 -1.6484  1.5169 -1.1487
 3976TIP3   OH211933   1.024   2.998   3.870  0.5755  0.3203 -0.5654
 3976TIP3    H111934   0.998   3.083   3.906 -0.7085  0.6659 -2.1522
 3976TIP3    H211935   1.054   2.948   3.946  0.8434  1.9838  0.4964
 3977TIP3   OH211936   2.898   4.965   0.716  0.1990 -0.2141 -0.6141
 3977TIP3    H111937   2.926   4.931   0.801 -0.4993  0.4689 -0.0920
 3977TIP3    H211938   2.967   5.026   0.691  0.0093  0.2118 -0.1286
 3978TIP3   OH211939   1.008   2.338   1.448 -0.4601  0.1215  0.1074
 3978TIP3    H111940   1.096   2.331   1.412 -1.2964 -1.5566 -1.8454
 3978TIP3    H211941   0.969   2.412   1.401  0.2170  1.6382  1.8312
 3979TIP3   OH211942   5.503   3.363   3.089  0.1559 -0.0290 -0.4837
 3979TIP3    H111943   5.546   3.428   3.033 -0.5980 -0.0152 -1.0529
 3979TIP3    H211944   5.500   3.405   3.176  2.7973 -0.6765  0.0263
 3980TIP3   OH211945   3.346   4.019   2.077 -0.1083 -0.5836  0.0798
 3980TIP3    H111946   3.312   3.931   2.093 -0.6852 -0.4143 -0.1918
 3980TIP3    H211947   3.421   4.027   2.136 -0.4488 -1.0207  0.5735
 3981TIP3   OH211948   1.154   0.208   2.201 -0.6814  0.2664  0.1222
 3981TIP3    H111949   1.109   0.130   2.169  1.3782 -2.0028  2.3234
 3981TIP3    H211950   1.085   0.262   2.239 -2.1704 -0.3694 -1.5623
 3982TIP3   OH211951   2.294   1.930   1.059  0.1802 -0.7514  0.3662
 3982TIP3    H111952   2.272   1.983   1.136 -1.5301  0.7869 -1.0640
 3982TIP3    H211953   2.377   1.965   1.028  0.2757 -0.5658  0.8295
 3983TIP3   OH211954   1.530   3.409   0.532 -0.1925 -0.3742 -0.1140
 3983TIP3    H111955   1.598   3.344   0.545  0.7674  0.4718 -0.7251
 3983TIP3    H211956   1.475   3.373   0.462 -0.1506 -0.8878  0.1164
 3984TIP3   OH211957   4.685   0.809   4.342 -0.1463 -0.3888  0.2708
 3984TIP3    H111958   4.612   0.847   4.293  0.7052  0.6313 -0.2303
 3984TIP3    H211959   4.697   0.867   4.417  0.3755 -0.3601  0.1670
 3985TIP3   OH211960   0.832   2.549   4.702  0.1952  0.4344  0.1367
 3985TIP3    H111961   0.792   2.483   4.757  0.2427  1.0067  0.8672
 3985TIP3    H211962   0.760   2.587   4.652  0.0737  0.2958  0.2086
 3986TIP3   OH211963   0.778   1.065   0.834 -0.2549 -0.0009 -0.2922
 3986TIP3    H111964   0.795   1.122   0.909 -1.4486 -0.4003  0.3089
 3986TIP3    H211965   0.693   1.093   0.802 -1.2035 -1.8999  0.4702
 3987TIP3   OH211966   2.358   3.430   1.658  0.0265 -0.5478  0.5009
 3987TIP3    H111967   2.338   3.508   1.711 -2.0995  0.2273 -1.3000
 3987TIP3    H211968   2.311   3.359   1.701 -2.2559  0.2068 -0.5711
 3988TIP3   OH211969   4.329   1.030  -0.008 -0.3953 -0.0277 -0.0130
 3988TIP3    H111970   4.337   1.043   0.087 -1.3668  1.1870 -0.0742
 3988TIP3    H211971   4.417   1.004  -0.036  0.1060  0.4091  1.1021
 3989TIP3   OH211972   1.262   5.967   4.632  0.0174  0.1322 -0.5201
 3989TIP3    H111973   1.291   5.918   4.709  0.0641  1.2097  0.1694
 3989TIP3    H211974   1.199   6.030   4.666  0.7851  1.3012 -1.2087
 3990TIP3   OH211975   4.220   5.393   3.414 -0.6559 -0.2338 -0.8233
 3990TIP3    H111976   4.174   5.477   3.406 -1.7484 -0.5037  1.7074
 3990TIP3    H211977   4.309   5.418   3.440 -0.9141  0.1831 -0.3015
 3991TIP3   OH211978   1.666   5.212   1.245  0.4023 -0.1142  0.5158
 3991TIP3    H111979   1.622   5.155   1.307  1.5898 -1.7399 -0.0555
 3991TIP3    H211980   1.609   5.212   1.168  0.2570 -0.2942  0.6233
 3992TIP3   OH211981   5.910   0.189   0.202 -0.4926  0.5264 -0.9138
 3992TIP3    H111982   5.983   0.212   0.260 -1.9766  0.1058  1.2188
 3992TIP3    H211983   5.900   0.266   0.145  2.0000  0.3241 -1.7532
 3993TIP3   OH211984   6.057   4.416   0.632  0.1723 -0.4390  0.1320
 3993TIP3    H111985   6.024   4.346   0.688 -0.6735  0.6224  1.0201
 3993TIP3    H211986   6.065   4.492   0.690 -0.7610  0.7087 -1.1631
 3994TIP3   OH211987   1.475   0.207   1.679  0.1039 -0.0530  0.1604
 3994TIP3    H111988   1.442   0.159   1.604 -0.6488  2.8763 -1.5326
 3994TIP3    H211989   1.416   0.282   1.688  0.5514  0.0923  3.3119
 3995TIP3   OH211990   6.255   3.711   1.277 -0.1602  0.2222  0.0069
 3995TIP3    H111991   6.199   3.638   1.300 -1.0156  0.8391 -0.0656
 3995TIP3    H211992   6.197   3.774   1.234  0.3306  1.3658  0.9458
 3996TIP3   OH211993   0.686   4.871   2.508  0.5860 -0.3240  0.5444
 3996TIP3    H111994   0.704   4.871   2.415 -0.4606 -0.7826  0.3234
 3996TIP3    H211995   0.760   4.825   2.548  0.8473 -0.4539 -0.0906
 3997TIP3   OH211996   2.600   5.550   5.161 -0.4346  0.7079  0.2070
 3997TIP3    H111997   2.625   5.642   5.171 -1.1668  1.0552 -1.0555
 3997TIP3    H211998   2.504   5.551   5.163 -0.4540 -0.2414  1.7626
 3998TIP3   OH211999   1.948   1.968   3.002  0.4479  0.0339 -0.5922
 3998TIP3    H112000   1.869   2.005   2.964 -1.1280  0.5125  2.7524
 3998TIP3    H212001   1.959   2.015   3.085  2.9387 -1.6012  0.1234
 3999TIP3   OH212002   0.467   1.515   4.799  0.1377  0.2722  0.4244
 3999TIP3    H112003   0.372   1.518   4.789  0.1120 -0.3435  0.4515
 3999TIP3    H212004   0.484   1.429   4.836  0.8234 -0.1591 -0.8512
 4000TIP3   OH212005   0.603   5.813   2.865  0.1469 -0.4804  0.4456
 4000TIP3    H112006   0.662   5.867   2.917  0.2403 -1.0893  0.9852
 4000TIP3    H212007   0.516   5.831   2.901 -0.0870  0.8177 -0.6956
 4001TIP3   OH212008   5.871   2.973   1.878 -0.9835  0.3935 -0.0721
 4001TIP3    H112009   5.815   3.032   1.827 -3.4504 -1.0491  0.8087
 4001TIP3    H212010   5.875   2.893   1.826 -1.3606 -0.1823  0.7623
 4002TIP3   OH212011   4.022   1.462   2.373 -0.0757 -0.5346  0.3027
 4002TIP3    H112012   4.048   1.492   2.286  1.1906  1.2639  1.2201
 4002TIP3    H212013   3.927   1.461   2.371 -0.0882 -3.1794 -1.8862
 4003TIP3   OH212014   2.634   0.179   1.541 -0.1418 -0.5041  0.2815
 4003TIP3    H112015   2.560   0.135   1.499 -0.6526  0.5737  0.0197
 4003TIP3    H212016   2.681   0.109   1.586 -0.5282 -1.4245 -0.7045
 4004TIP3   OH212017   5.543   2.673   4.808  0.2381 -0.0747  0.2137
 4004TIP3    H112018   5.458   2.683   4.851  1.1174 -0.6466  2.1799
 4004TIP3    H212019   5.590   2.754   4.829  0.6637 -0.3461  0.3323
 4005TIP3   OH212020   3.164   3.350   0.408  0.6618  0.3508  0.3632
 4005TIP3    H112021   3.146   3.443   0.422  0.2635  0.8063 -2.5096
 4005TIP3    H212022   3.081   3.314   0.376  1.3526 -0.4861 -0.5496
 4006TIP3   OH212023   0.704   5.551   3.372 -0.0402  0.3749 -0.0421
 4006TIP3    H112024   0.727   5.586   3.458 -0.2640 -0.2013  0.2595
 4006TIP3    H212025   0.788   5.527   3.333  0.0187  0.0729  0.2648
 4007TIP3   OH212026   3.056   0.275   1.414  0.0340 -0.3460  0.2586
 4007TIP3    H112027   2.965   0.261   1.385  0.5161 -0.6317 -1.2124
 4007TIP3    H212028   3.098   0.190   1.403  1.3741  0.5583 -2.5973
 4008TIP3   OH212029   3.858   0.515   2.844 -0.0885 -0.2650  0.2088
 4008TIP3    H112030   3.885   0.599   2.881 -0.0083  0.2564 -0.9690
 4008TIP3    H212031   3.807   0.539   2.767  0.8896 -1.2978 -0.7950
 4009TIP3   OH212032   5.260   2.901   5.015  0.3970 -0.3084 -0.3631
 4009TIP3    H112033   5.256   2.920   5.109  1.1544  0.6037 -0.5027
 4009TIP3    H212034   5.171   2.873   4.993 -0.3921  1.5850  0.2092
 4010TIP3   OH212035   1.900   0.445   1.900 -0.2835 -0.1116  0.1308
 4010TIP3    H112036   1.846   0.524   1.905 -0.0206  0.2224 -1.6500
 4010TIP3    H212037   1.852   0.388   1.840 -0.1127 -1.0295  0.8510
 4011TIP3   OH212038   6.295   2.417   4.739  0.2245  0.2899 -0.6706
 4011TIP3    H112039   6.354   2.418   4.814 -0.9950 -1.6404  0.3999
 4011TIP3    H212040   6.325   2.344   4.685  0.4708  1.0298 -1.5618
 4012TIP3   OH212041   2.640   3.209   4.236  0.1421  0.2478  0.4719
 4012TIP3    H112042   2.605   3.166   4.158  0.8022  0.0162  0.2945
 4012TIP3    H212043   2.658   3.299   4.208  1.2685 -0.0847  0.0724
 4013TIP3   OH212044   2.719   0.490   4.205 -0.3418 -0.5294 -0.2983
 4013TIP3    H112045   2.673   0.440   4.137 -0.2429  0.3306 -1.0207
 4013TIP3    H212046   2.811   0.483   4.182 -0.3405  0.1295 -0.5165
 4014TIP3   OH212047   1.884   3.603   1.359 -0.4943 -0.2131 -0.3700
 4014TIP3    H112048   1.815   3.559   1.310  0.5833 -0.1782 -1.9854
 4014TIP3    H212049   1.942   3.638   1.292 -0.0289  1.6017  0.9113
 4015TIP3   OH212050   1.129   3.896   1.836 -0.3195 -0.4389  0.0241
 4015TIP3    H112051   1.151   3.936   1.920 -0.4346 -1.3487  0.4974
 4015TIP3    H212052   1.212   3.864   1.802 -0.6325 -2.7093  1.2021
 4016TIP3   OH212053   1.794   3.093   3.403 -0.2253 -0.6515  0.0250
 4016TIP3    H112054   1.875   3.044   3.410  0.7420  0.8805  0.0404
 4016TIP3    H212055   1.779   3.102   3.308  1.4380  1.8141 -0.0972
 4017TIP3   OH212056   6.250   3.017   3.610 -0.4913  0.0360  0.0424
 4017TIP3    H112057   6.208   2.944   3.655 -0.6078 -0.7184 -1.2783
 4017TIP3    H212058   6.313   2.977   3.551  1.0906  1.0993  0.9131
 4018TIP3   OH212059   0.529   1.935   3.766 -0.0384 -0.1998  0.2319
 4018TIP3    H112060   0.532   1.840   3.762 -0.1932 -0.1946  0.0035
 4018TIP3    H212061   0.604   1.964   3.715  0.5963 -0.2141  1.1327
 4019TIP3   OH212062   2.819   4.287   1.192  0.5886 -0.0706 -0.4047
 4019TIP3    H112063   2.735   4.244   1.211  2.0699 -2.1473  1.9670
 4019TIP3    H212064   2.828   4.279   1.097 -1.8228  0.1662 -0.7327
 4020TIP3   OH212065   3.772   5.132   3.176  0.0226  0.1253  0.3878
 4020TIP3    H112066   3.679   5.120   3.156 -0.1139 -0.0195  1.0813
 4020TIP3    H212067   3.795   5.057   3.231  0.4605  0.3494  0.5173
 4021TIP3   OH212068   4.981   2.856   3.046 -0.2085  0.6501  0.6655
 4021TIP3    H112069   4.934   2.830   3.125 -1.8133  1.6865  0.1001
 4021TIP3    H212070   4.973   2.951   3.043  0.3524  0.6793 -0.4155
 4022TIP3   OH212071   1.858   0.729   0.375 -0.2505  0.0475 -0.2448
 4022TIP3    H112072   1.942   0.698   0.342 -0.1590 -0.9970  0.9001
 4022TIP3    H212073   1.799   0.655   0.361 -0.8455  0.5668 -0.5085
 4023TIP3   OH212074   1.460   4.924   3.449 -0.2302 -0.1451 -0.3509
 4023TIP3    H112075   1.395   4.988   3.478  1.1224  0.0331  2.6642
 4023TIP3    H212076   1.409   4.858   3.403 -1.9956  1.8310 -1.4412
 4024TIP3   OH212077   0.872   4.389   0.511  0.5058  0.3677 -0.3969
 4024TIP3    H112078   0.778   4.408   0.511 -0.0982 -2.2373 -0.6833
 4024TIP3    H212079   0.910   4.461   0.461 -1.1699  2.0097  0.5315
 4025TIP3   OH212080   3.622   4.000   1.280 -0.2629  0.1605 -0.2114
 4025TIP3    H112081   3.639   3.907   1.268  1.4981  0.5633 -1.2238
 4025TIP3    H212082   3.586   4.030   1.196  0.4680  0.6327 -0.3705
 4026TIP3   OH212083   3.106   4.535   2.530 -0.4753 -0.0688 -0.5640
 4026TIP3    H112084   3.185   4.489   2.559  1.4009  3.6104  0.9116
 4026TIP3    H212085   3.110   4.532   2.435  0.8613 -0.9002 -0.5070
 4027TIP3   OH212086   3.578   2.979   1.343 -0.3037 -0.5718 -0.1789
 4027TIP3    H112087   3.576   2.885   1.321  0.4062 -0.1230 -2.3733
 4027TIP3    H212088   3.639   3.017   1.280 -0.5929  1.3943  0.6723
 4028TIP3   OH212089   2.917   4.453   4.032  0.5485  0.2820 -0.0483
 4028TIP3    H112090   2.982   4.395   3.992  0.0414 -1.4420  1.5074
 4028TIP3    H212091   2.964   4.534   4.047  1.0922  0.6362 -2.9574
 4029TIP3   OH212092   1.260   1.723   1.738 -0.0929 -0.1208  0.0241
 4029TIP3    H112093   1.276   1.715   1.644 -0.7345  1.0618 -0.2001
 4029TIP3    H212094   1.257   1.817   1.754 -0.2924 -0.3108  1.1768
 4030TIP3   OH212095   2.096   2.303   4.761 -0.0981 -0.0639  0.5974
 4030TIP3    H112096   2.036   2.377   4.775  1.5850  1.6697 -0.7997
 4030TIP3    H212097   2.133   2.287   4.848  1.2700  2.4203  0.5863
 4031TIP3   OH212098   0.655   1.206   2.031  0.6777 -0.2295  0.5878
 4031TIP3    H112099   0.680   1.272   1.967  1.0724  0.6203  1.5930
 4031TIP3    H212100   0.737   1.180   2.073  0.4343 -0.8224  0.7141
 4032TIP3   OH212101   0.755   0.690   0.245 -0.4295  0.7533  0.3767
 4032TIP3    H112102   0.788   0.766   0.196  1.1734  0.7945  1.4454
 4032TIP3    H212103   0.723   0.727   0.327 -1.4699  0.4693  0.1162
 4033TIP3   OH212104   4.030   5.608   3.212  0.2415  0.4690 -0.0441
 4033TIP3    H112105   3.954   5.554   3.187  1.0413 -0.2238 -1.0846
 4033TIP3    H212106   3.993   5.695   3.228 -0.8977 -0.0677  0.3765
 4034TIP3   OH212107   1.522   3.468   1.004 -0.4219  0.6430  0.3236
 4034TIP3    H112108   1.500   3.430   1.089 -0.7960 -1.4647 -0.6486
 4034TIP3    H212109   1.616   3.454   0.995 -0.6421 -0.6512 -0.2567
 4035TIP3   OH212110   5.739   5.932   3.490 -0.4273 -0.3341 -0.0542
 4035TIP3    H112111   5.781   5.847   3.498  0.3908  0.1177  0.7510
 4035TIP3    H212112   5.809   5.995   3.509 -0.3389  0.6561 -3.0861
 4036TIP3   OH212113   0.594   0.063   3.080 -0.1731 -0.1799 -0.1469
 4036TIP3    H112114   0.605   0.148   3.121 -0.8943  0.5534 -1.4114
 4036TIP3    H212115   0.504   0.063   3.048  0.2277 -0.8584 -1.3609
 4037TIP3   OH212116   1.481   2.164   3.775  0.1741  0.1270  0.1881
 4037TIP3    H112117   1.388   2.178   3.792  0.1100  0.6320 -0.5421
 4037TIP3    H212118   1.523   2.245   3.803  0.2572  0.3212 -0.4715
 4038TIP3   OH212119   2.381   0.162   0.701  0.0491 -0.3275 -0.5360
 4038TIP3    H112120   2.298   0.116   0.683  0.2977 -1.0435  0.0835
 4038TIP3    H212121   2.407   0.131   0.788  0.0001  1.3647  0.1060
 4039TIP3   OH212122   0.513   2.234   2.559  0.4131 -0.2727  0.3238
 4039TIP3    H112123   0.459   2.313   2.565  2.6987  1.5515 -1.0232
 4039TIP3    H212124   0.563   2.234   2.641 -0.2284 -0.8389  0.7156
 4040TIP3   OH212125   4.872   2.874   2.717 -0.1623  0.4309 -0.3662
 4040TIP3    H112126   4.893   2.938   2.785 -1.2154 -1.4714  1.8902
 4040TIP3    H212127   4.958   2.851   2.680  0.8713 -0.6213  2.4141
 4041TIP3   OH212128   1.017   5.907   0.447  1.0851 -1.4113  0.7031
 4041TIP3    H112129   1.019   5.930   0.355  0.9403 -1.1078  0.7762
 4041TIP3    H212130   0.934   5.858   0.458  0.4452 -0.3057  0.9404
 4042TIP3   OH212131   1.079   1.463   4.897 -0.0828  0.5009 -0.2610
 4042TIP3    H112132   1.047   1.432   4.812  0.9667  1.0708 -0.8755
 4042TIP3    H212133   1.027   1.414   4.961 -0.5356 -0.3057 -1.2227
 4043TIP3   OH212134   4.933   0.747   2.961 -1.0139 -0.1064  0.1384
 4043TIP3    H112135   4.919   0.740   2.866  1.3522 -1.3093 -0.1979
 4043TIP3    H212136   4.978   0.831   2.973  0.0022 -0.6117 -0.0245
 4044TIP3   OH212137   5.611   1.584   4.771  0.4989 -0.0857  0.3138
 4044TIP3    H112138   5.670   1.659   4.762 -0.3167  0.4202 -1.0839
 4044TIP3    H212139   5.614   1.540   4.685 -0.3198 -0.6739  0.5686
 4045TIP3   OH212140   3.601   5.916   1.197  0.0661  0.3842 -0.4513
 4045TIP3    H112141   3.665   5.975   1.237  1.9204 -1.6887 -0.1616
 4045TIP3    H212142   3.557   5.970   1.132  1.3622  2.2002  0.0846
 4046TIP3   OH212143   5.163   0.369   1.270  0.0662 -0.1889  0.1203
 4046TIP3    H112144   5.149   0.410   1.355  1.1986  0.6187 -0.0574
 4046TIP3    H212145   5.079   0.328   1.249 -0.8108  1.2033  0.7656
 4047TIP3   OH212146   1.476   1.597   4.312  0.2323  0.2763 -0.4485
 4047TIP3    H112147   1.542   1.609   4.379  0.7019 -0.2720 -0.7971
 4047TIP3    H212148   1.432   1.682   4.305 -0.3002  0.1462  1.0273
 4048TIP3   OH212149   2.315   0.745   0.882  1.0011  0.1548 -0.7131
 4048TIP3    H112150   2.295   0.838   0.893  0.6875 -0.0108  0.2741
 4048TIP3    H212151   2.249   0.713   0.821 -0.1180  0.1851  0.4421
 4049TIP3   OH212152   5.488   0.768   4.717  0.1834  0.3751 -0.1768
 4049TIP3    H112153   5.494   0.858   4.748  1.2169  0.5053 -0.7105
 4049TIP3    H212154   5.394   0.755   4.700 -0.2293  0.7339  1.6359
 4050TIP3   OH212155   2.069   2.019   0.122 -0.3937  0.3100 -0.1946
 4050TIP3    H112156   2.101   1.949   0.064 -1.5216  0.5024 -1.0840
 4050TIP3    H212157   2.005   1.976   0.179 -1.1405  0.6009 -0.7882
 4051TIP3   OH212158   5.744   1.813   4.787 -0.1068  0.1872  0.4724
 4051TIP3    H112159   5.770   1.863   4.710 -1.2788  0.5404  0.2851
 4051TIP3    H212160   5.790   1.855   4.859  0.9437 -0.0965 -0.0077
 4052TIP3   OH212161   3.101   3.832   0.602 -0.3900  0.5520 -0.6049
 4052TIP3    H112162   3.074   3.843   0.693  2.0664  0.2785  0.2290
 4052TIP3    H212163   3.032   3.875   0.551 -0.7828  2.6121  1.4839
 4053TIP3   OH212164   1.652   1.675   3.395 -0.7029 -0.2367  0.3087
 4053TIP3    H112165   1.664   1.719   3.479  0.0735 -0.9586  0.5837
 4053TIP3    H212166   1.575   1.620   3.408 -1.4858  0.7736  0.0630
 4054TIP3   OH212167   3.749   3.216   3.251 -0.1950 -0.1135 -0.4049
 4054TIP3    H112168   3.717   3.215   3.161 -0.6460 -0.9258 -0.2397
 4054TIP3    H212169   3.734   3.127   3.283 -1.6914  0.6330  1.0689
 4055TIP3   OH212170   5.865   3.190   2.188  0.0341  0.5433 -0.1367
 4055TIP3    H112171   5.959   3.185   2.203 -0.0671  1.6365  1.0649
 4055TIP3    H212172   5.837   3.099   2.177  0.7919 -0.0719  2.4809
 4056TIP3   OH212173   6.171   5.152   3.318  0.0645  0.5722  0.4980
 4056TIP3    H112174   6.175   5.233   3.369 -2.3675  2.3046 -1.7981
 4056TIP3    H212175   6.251   5.153   3.265 -0.2852  1.9411 -0.0580
 4057TIP3   OH212176   5.294   1.289   0.453  0.1488 -0.3220 -0.6745
 4057TIP3    H112177   5.344   1.351   0.401  0.9158  0.0988  0.5209
 4057TIP3    H212178   5.256   1.342   0.523 -0.7561 -0.8926 -0.7115
 4058TIP3   OH212179   6.289   5.678   0.157 -0.5787 -0.6386 -0.0434
 4058TIP3    H112180   6.356   5.699   0.221 -0.5466 -0.4081 -0.1550
 4058TIP3    H212181   6.249   5.762   0.134  0.5201 -0.4942 -1.5731
 4059TIP3   OH212182   0.873   4.011   3.592  0.6770 -0.8855 -0.3938
 4059TIP3    H112183   0.821   3.936   3.621 -1.9441  0.5716 -0.9976
 4059TIP3    H212184   0.916   3.981   3.512  0.1489 -1.9278 -0.3140
 4060TIP3   OH212185   4.361   4.754   0.042  0.8059  0.3460  0.7954
 4060TIP3    H112186   4.306   4.703   0.101  2.2528 -1.5764  0.5625
 4060TIP3    H212187   4.443   4.768   0.090  1.8092 -0.7978 -0.4864
 4061TIP3   OH212188   5.895   4.272   3.728 -0.0921 -0.7481  0.3878
 4061TIP3    H112189   5.910   4.361   3.695 -0.3202 -0.6009  0.6801
 4061TIP3    H212190   5.882   4.283   3.822 -1.1453 -0.9719  0.2819
 4062TIP3   OH212191   3.917   4.492   4.570 -0.0601 -0.1378 -0.0879
 4062TIP3    H112192   3.879   4.405   4.559  0.5254 -0.4608  0.4587
 4062TIP3    H212193   3.865   4.532   4.639 -1.0504  0.3736 -1.0850
 4063TIP3   OH212194   4.840   0.294   0.676 -0.0394 -0.9916 -0.3680
 4063TIP3    H112195   4.898   0.218   0.665  0.0556 -0.9906  0.0926
 4063TIP3    H212196   4.767   0.277   0.617  1.1429 -0.2572 -2.1155
 4064TIP3   OH212197   3.649   1.227   1.832  0.0478  0.3342  0.3232
 4064TIP3    H112198   3.670   1.178   1.753 -0.3241  0.1782  0.3211
 4064TIP3    H212199   3.729   1.277   1.851  0.1725  0.2981 -0.0923
 4065TIP3   OH212200   2.675   3.326   5.057 -0.2553  0.1661 -0.2212
 4065TIP3    H112201   2.627   3.394   5.104  1.1790  1.1212 -0.0975
 4065TIP3    H212202   2.607   3.266   5.027 -1.5059  1.3578  0.1316
 4066TIP3   OH212203   1.420   2.566   4.949 -0.1748 -0.0818  0.1119
 4066TIP3    H112204   1.385   2.478   4.963  0.5634 -0.5821 -1.0228
 4066TIP3    H212205   1.356   2.624   4.989 -0.5194 -1.1424  1.1623
 4067TIP3   OH212206   3.654   1.581   0.913  0.1181 -0.0284 -0.3036
 4067TIP3    H112207   3.613   1.517   0.855  1.4961 -1.7539  0.5233
 4067TIP3    H212208   3.672   1.656   0.857 -1.5770 -0.3044 -1.2966
 4068TIP3   OH212209   0.685   5.581   0.208 -0.0152  0.9280  0.8296
 4068TIP3    H112210   0.620   5.519   0.174 -0.4771  1.8391  0.0090
 4068TIP3    H212211   0.634   5.642   0.262  0.6293 -0.1777  2.8203
 4069TIP3   OH212212   4.878   1.477   0.274  0.3689  0.4948 -0.4728
 4069TIP3    H112213   4.874   1.411   0.343 -0.1791 -0.7847 -1.6808
 4069TIP3    H212214   4.800   1.532   0.288 -0.2444 -0.3220 -0.5964
 4070TIP3   OH212215   2.176   5.560   2.921 -0.6016  0.0058  0.3033
 4070TIP3    H112216   2.195   5.605   2.839  0.2971 -1.2678 -0.2289
 4070TIP3    H212217   2.179   5.629   2.987  1.1875  0.6899 -0.4118
 4071TIP3   OH212218   5.503   4.070   2.592 -0.1050  0.4384  0.2397
 4071TIP3    H112219   5.543   4.089   2.506 -0.9155  0.9880 -0.0281
 4071TIP3    H212220   5.567   4.102   2.655  0.7616 -0.4836 -0.1358
 4072TIP3   OH212221   3.373   2.083   1.571 -0.1265 -0.1534 -0.0909
 4072TIP3    H112222   3.340   2.089   1.481 -2.0520 -0.5792  0.5453
 4072TIP3    H212223   3.302   2.041   1.620  1.5956 -1.6260  1.2809
 4073TIP3   OH212224   2.005   3.955   1.869 -0.6274  0.0641  0.2090
 4073TIP3    H112225   2.068   3.883   1.854 -0.6353 -0.5822  2.7987
 4073TIP3    H212226   1.920   3.911   1.874 -0.5579  0.0725  2.4734
 4074TIP3   OH212227   5.874   2.304   5.074  0.2083  0.1153  0.3761
 4074TIP3    H112228   5.905   2.269   5.158  1.1473 -0.1561 -0.0674
 4074TIP3    H212229   5.808   2.241   5.045 -0.9955  0.8264  1.4467
 4075TIP3   OH212230   5.168   4.931   2.860 -0.3901  0.5719 -0.6255
 4075TIP3    H112231   5.092   4.961   2.911 -0.8625 -1.5293 -0.0104
 4075TIP3    H212232   5.244   4.957   2.913 -0.8331 -0.5647  0.6280
 4076TIP3   OH212233   5.721   2.676   2.623  0.0778  0.1428 -0.3472
 4076TIP3    H112234   5.719   2.625   2.704 -2.1897  1.7024  0.6718
 4076TIP3    H212235   5.811   2.709   2.618  1.4406 -3.2071 -0.6919
 4077TIP3   OH212236   3.669   2.956   2.805 -0.8254 -0.0375  0.2906
 4077TIP3    H112237   3.605   2.962   2.876 -0.9558  2.9306  0.0387
 4077TIP3    H212238   3.659   2.867   2.772 -1.5087 -1.1914  3.2441
 4078TIP3   OH212239   0.891   5.058   2.679 -0.2652 -0.1085  0.4090
 4078TIP3    H112240   0.880   5.036   2.772 -1.1754  0.1119  0.3554
 4078TIP3    H212241   0.873   5.152   2.674  0.2545 -0.0217  0.0800
 4079TIP3   OH212242   5.734   3.880   2.775 -0.2915 -0.0300 -0.2076
 4079TIP3    H112243   5.649   3.874   2.818 -0.2792  0.4718 -0.1049
 4079TIP3    H212244   5.727   3.821   2.700  0.1903 -2.1127  1.2848
 4080TIP3   OH212245   4.304   2.321   2.878  0.3279  0.5173 -0.7030
 4080TIP3    H112246   4.222   2.303   2.833 -0.4218  2.8204 -0.3839
 4080TIP3    H212247   4.352   2.378   2.819 -0.1322  2.5695  0.8033
 4081TIP3   OH212248   5.993   3.472   0.092 -0.2578  0.0433 -0.2513
 4081TIP3    H112249   5.918   3.455   0.034 -0.4134 -0.7583  0.1608
 4081TIP3    H212250   6.069   3.439   0.043 -0.0338  1.6098 -1.0225
 4082TIP3   OH212251   0.154   2.513   2.132  0.1051 -0.5331  0.4356
 4082TIP3    H112252   0.217   2.583   2.114 -0.6008 -0.0321 -0.2124
 4082TIP3    H212253   0.116   2.537   2.217 -2.1362  1.5009 -1.0018
 4083TIP3   OH212254   0.193   0.101   0.270 -0.2742  0.4608  0.1452
 4083TIP3    H112255   0.217   0.079   0.180 -1.3588  0.3047 -0.1158
 4083TIP3    H212256   0.238   0.036   0.323 -1.0203 -0.5409 -0.4167
 4084TIP3   OH212257   3.157   2.799   4.899 -0.4559 -0.2872  0.2182
 4084TIP3    H112258   3.097   2.857   4.852  0.7160  1.6677  1.0129
 4084TIP3    H212259   3.168   2.724   4.841 -0.2836  1.3129 -1.9524
 4085TIP3   OH212260   0.349   3.075   4.401  0.2957  0.3002 -0.6837
 4085TIP3    H112261   0.348   3.167   4.375 -2.2752  0.6964  0.5382
 4085TIP3    H212262   0.289   3.032   4.340  0.9059 -0.4506 -0.7771
 4086TIP3   OH212263   5.257   0.033   1.842 -0.2825 -0.0138 -0.4366
 4086TIP3    H112264   5.296  -0.052   1.863 -0.8694 -0.3261 -0.5725
 4086TIP3    H212265   5.277   0.046   1.749  2.0069  1.2015  0.1694
 4087TIP3   OH212266   6.261   1.049   0.310 -0.4604 -0.2411 -0.4550
 4087TIP3    H112267   6.354   1.071   0.311 -0.2424 -1.1393  0.5349
 4087TIP3    H212268   6.222   1.116   0.254  0.7699  0.1657 -0.8690
 4088TIP3   OH212269   3.964   2.103   1.240  0.1463  0.0647 -0.1963
 4088TIP3    H112270   3.993   2.166   1.174  1.0237 -0.6881 -0.5502
 4088TIP3    H212271   3.894   2.149   1.288  1.3630  1.6604  0.1586
 4089TIP3   OH212272   6.237   5.961   0.481  0.2090  0.1462 -0.1244
 4089TIP3    H112273   6.300   5.992   0.547 -0.9836 -0.3655  1.3229
 4089TIP3    H212274   6.259   5.869   0.469 -0.2289 -0.0216  0.3486
 4090TIP3   OH212275   1.625   0.866   0.661  0.1647  0.9060 -0.1348
 4090TIP3    H112276   1.602   0.951   0.698 -0.4227  0.8308 -0.3299
 4090TIP3    H212277   1.553   0.808   0.686  0.2605  0.6107 -0.5349
 4091TIP3   OH212278   5.250   3.001   1.395 -0.1887 -0.1611 -0.4958
 4091TIP3    H112279   5.301   3.035   1.321  0.3155  2.8748  1.0861
 4091TIP3    H212280   5.241   3.076   1.454 -1.1890 -2.2554  2.2013
 4092TIP3   OH212281   4.978   5.721   1.981 -0.0909 -0.6132  0.1129
 4092TIP3    H112282   4.889   5.746   2.007 -0.1755 -0.3915 -0.3924
 4092TIP3    H212283   4.974   5.711   1.886  1.0629  2.1794 -0.3305
 4093TIP3   OH212284   2.270   5.748   2.749  0.4999  0.0209 -0.1507
 4093TIP3    H112285   2.268   5.766   2.655  0.6877  2.7840  0.2973
 4093TIP3    H212286   2.284   5.833   2.789 -2.9938 -0.4749  2.5899
 4094TIP3   OH212287   0.077   5.938   1.638 -0.2364  0.4611 -0.2736
 4094TIP3    H112288   0.032   5.866   1.593  1.2854 -0.3231 -0.6058
 4094TIP3    H212289   0.045   5.933   1.728  0.9916 -1.6775  0.1142
 4095TIP3   OH212290   3.230   0.255   0.753 -0.4032 -0.2565 -0.1555
 4095TIP3    H112291   3.204   0.232   0.663 -0.9035 -2.0015  0.4050
 4095TIP3    H212292   3.271   0.176   0.787  0.2188  0.5480  1.0156
 4096TIP3   OH212293   1.240   4.715   4.854  0.2348  0.7022 -0.1677
 4096TIP3    H112294   1.246   4.700   4.760 -0.4143  2.0701 -0.4528
 4096TIP3    H212295   1.331   4.727   4.882  0.2877  3.1424 -1.1679
 4097TIP3   OH212296   3.145   5.115   0.782 -0.5148 -0.0949  0.4607
 4097TIP3    H112297   3.201   5.190   0.764  0.9070 -1.3285 -0.4662
 4097TIP3    H212298   3.129   5.119   0.876 -1.9404  2.3167  0.2035
 4098TIP3   OH212299   4.440   1.332   3.019  0.1177 -0.2610  0.2698
 4098TIP3    H112300   4.515   1.336   2.960 -0.3410  2.7697 -0.2534
 4098TIP3    H212301   4.469   1.277   3.091  2.3196 -0.3341 -0.5908
 4099TIP3   OH212302   2.786   4.559   4.279  0.0006  0.2479  0.1030
 4099TIP3    H112303   2.808   4.559   4.185 -1.4151 -0.6251 -0.2637
 4099TIP3    H212304   2.864   4.592   4.322  1.8155 -2.1075 -1.1512
 4100TIP3   OH212305   0.555   2.611   2.783  0.6559  0.8748 -0.1586
 4100TIP3    H112306   0.518   2.698   2.791  1.1172  1.1744 -1.1541
 4100TIP3    H212307   0.479   2.552   2.786  0.2551  1.3673 -0.4868
 4101TIP3   OH212308   3.813   5.493   4.951  0.6197 -0.8333 -0.3201
 4101TIP3    H112309   3.804   5.577   4.905  0.8852 -0.1233  0.8802
 4101TIP3    H212310   3.808   5.427   4.882 -2.6660 -0.0193 -1.0340
 4102TIP3   OH212311   5.541   5.378   4.836 -0.2680 -0.3180  0.2407
 4102TIP3    H112312   5.536   5.312   4.906  1.5307 -0.5438  0.1906
 4102TIP3    H212313   5.467   5.437   4.854 -1.7775 -2.1631  0.4435
 4103TIP3   OH212314   4.541   0.332   2.266  0.0750  0.6050  0.1928
 4103TIP3    H112315   4.635   0.323   2.250 -0.0616 -0.8897  0.0225
 4103TIP3    H212316   4.534   0.352   2.359  0.5562  0.3165  0.2934
 4104TIP3   OH212317   3.074   1.287   1.763  0.1055  0.3869 -0.1565
 4104TIP3    H112318   3.097   1.242   1.845  1.6388 -1.8766 -1.7232
 4104TIP3    H212319   3.139   1.357   1.755 -0.2506  0.8361  0.6782
 4105TIP3   OH212320   6.087   3.623   5.052 -0.2424  0.1771 -0.1310
 4105TIP3    H112321   6.056   3.557   5.113  1.6971 -0.4182  0.2814
 4105TIP3    H212322   6.010   3.648   5.002 -1.1606 -1.9676  0.1040
 4106TIP3   OH212323   4.905   2.960   3.901  0.4576  0.0504  0.2402
 4106TIP3    H112324   4.865   2.903   3.966 -1.1344 -0.4653 -1.1106
 4106TIP3    H212325   4.920   2.903   3.825  3.4243  0.3392  0.4996
 4107TIP3   OH212326   3.492   1.275   2.059 -0.5881  0.7078  0.2584
 4107TIP3    H112327   3.530   1.356   2.092 -1.2102  1.3314 -0.5090
 4107TIP3    H212328   3.547   1.250   1.985  0.6241 -0.5227  1.5355
 4108TIP3   OH212329   3.213   0.034   4.869 -0.4221 -0.2659 -0.3729
 4108TIP3    H112330   3.256   0.057   4.951  0.5826 -1.1398 -0.6382
 4108TIP3    H212331   3.207   0.117   4.821  0.9697 -0.1206 -0.3239
 4109TIP3   OH212332   4.945   1.059   1.092 -0.1767 -0.1877  0.7407
 4109TIP3    H112333   4.991   0.994   1.145  1.3650  0.6936  0.5455
 4109TIP3    H212334   5.011   1.091   1.031 -1.3589  0.3509 -0.3036
 4110TIP3   OH212335   0.354   0.031   3.899 -0.0859 -0.5862 -0.3029
 4110TIP3    H112336   0.319   0.038   3.988  0.3422  0.6324 -0.2022
 4110TIP3    H212337   0.404  -0.051   3.899 -0.7637 -1.0083  0.3296
 4111TIP3   OH212338   1.344   5.294   0.552 -0.3865 -0.1368  0.4701
 4111TIP3    H112339   1.403   5.368   0.567  0.2863 -1.0862  3.1891
 4111TIP3    H212340   1.296   5.285   0.635 -3.6561 -0.0731 -1.2590
 4112TIP3   OH212341   3.832   2.076   0.543  0.0665  0.0027 -0.3020
 4112TIP3    H112342   3.857   1.984   0.553  0.7514  0.2434  0.1780
 4112TIP3    H212343   3.797   2.101   0.628  0.5203  0.3803 -0.2225
 4113TIP3   OH212344   5.312   5.966  -0.017  0.5428  0.1845  0.3103
 4113TIP3    H112345   5.221   5.940   0.002  0.4101 -0.5747 -1.1793
 4113TIP3    H212346   5.354   5.969   0.069 -0.4858 -1.0612  0.9050
 4114TIP3   OH212347   2.571   0.084   3.068  0.0094 -0.4047  0.2522
 4114TIP3    H112348   2.542   0.042   2.988  0.0367 -1.2396  0.6666
 4114TIP3    H212349   2.615   0.015   3.117 -1.2976 -0.2921  1.6534
 4115TIP3   OH212350   4.765   1.730   2.722  0.1930 -0.0990 -0.5555
 4115TIP3    H112351   4.838   1.677   2.755  0.5078  0.7961  0.2233
 4115TIP3    H212352   4.711   1.668   2.673  0.6020 -1.1216  0.2408
 4116TIP3   OH212353   0.900   2.892   0.206  0.0667  0.9344  0.1371
 4116TIP3    H112354   0.966   2.823   0.213 -0.6872  0.0777 -0.9127
 4116TIP3    H212355   0.828   2.862   0.262 -0.3730  0.7220 -0.5320
 4117TIP3   OH212356   1.247   4.791   1.453  0.4191 -0.2685 -0.0974
 4117TIP3    H112357   1.274   4.869   1.404 -2.4422  0.1171 -1.2615
 4117TIP3    H212358   1.287   4.802   1.539 -0.7629  3.1469  0.1674
 4118TIP3   OH212359   0.561   4.436   4.064  0.3198  1.1754  0.3028
 4118TIP3    H112360   0.479   4.478   4.041 -0.5930 -0.5575  0.1785
 4118TIP3    H212361   0.619   4.507   4.089 -1.1452  2.4631  0.1699
 4119TIP3   OH212362   3.932   0.368   2.346  0.0724  0.4941  0.6827
 4119TIP3    H112363   3.945   0.393   2.437  0.7917  0.8913  0.4762
 4119TIP3    H212364   4.002   0.305   2.328  0.7907  1.4518  0.0183
 4120TIP3   OH212365   5.150   2.800   1.983  0.3064 -0.4002  0.1634
 4120TIP3    H112366   5.203   2.873   1.951 -0.1856  0.2682  0.7953
 4120TIP3    H212367   5.207   2.724   1.978  0.6366 -0.0927 -1.0969
 4121TIP3   OH212368   6.191   0.427   1.487 -0.8063  0.2409  0.2329
 4121TIP3    H112369   6.122   0.493   1.483 -1.7309 -0.7119 -0.3728
 4121TIP3    H212370   6.267   0.469   1.447 -1.2211  1.1107  0.3323
 4122TIP3   OH212371   1.742   4.638   1.639 -0.7465 -0.0663 -0.1130
 4122TIP3    H112372   1.780   4.719   1.673  0.9549 -1.5385  1.6789
 4122TIP3    H212373   1.807   4.604   1.579  0.5257 -2.1224  2.2619
 4123TIP3   OH212374   0.399   5.359   2.624 -0.3320 -0.1729 -0.0828
 4123TIP3    H112375   0.461   5.422   2.588  2.0285  0.0195  3.7209
 4123TIP3    H212376   0.428   5.274   2.591  1.8850 -0.0352  1.3110
 4124TIP3   OH212377   1.823   5.633   4.547 -0.4403  0.0283  0.5368
 4124TIP3    H112378   1.790   5.549   4.578  0.0123 -0.1498  0.5517
 4124TIP3    H212379   1.908   5.643   4.591 -1.1623  1.2222  1.7685
 4125TIP3   OH212380   3.907   5.364   2.398 -0.2802 -0.5157 -0.3515
 4125TIP3    H112381   3.832   5.390   2.345  0.0210 -0.0669 -0.5592
 4125TIP3    H212382   3.980   5.361   2.336  0.1425  0.3213  0.0898
 4126TIP3   OH212383   4.172   4.239   4.072 -0.2672  0.0971 -0.5799
 4126TIP3    H112384   4.097   4.292   4.097 -0.0640 -0.1851  0.6819
 4126TIP3    H212385   4.246   4.301   4.072  0.0248 -0.2074  1.1927
 4127TIP3   OH212386   1.178   0.331   3.422  0.6911  0.2331 -0.3691
 4127TIP3    H112387   1.155   0.376   3.504  1.7960 -1.2616  0.8446
 4127TIP3    H212388   1.190   0.401   3.359  0.0837  1.4720  0.8260
 4128TIP3   OH212389   1.312   1.512   5.206 -0.1810  0.3033  0.1721
 4128TIP3    H112390   1.355   1.429   5.186  2.7282  1.8783 -0.6892
 4128TIP3    H212391   1.317   1.561   5.124 -1.8285  1.3740  0.6633
 4129TIP3   OH212392   1.963   3.537   5.034 -0.8669 -0.3678  0.1399
 4129TIP3    H112393   1.957   3.507   5.125 -0.1858  0.7945  0.5980
 4129TIP3    H212394   2.043   3.590   5.032  0.0297 -1.6768 -1.5394
 4130TIP3   OH212395   6.103   1.706   2.596 -0.0507  0.0858  0.5071
 4130TIP3    H112396   6.092   1.618   2.559 -0.5937  0.4175 -0.1311
 4130TIP3    H212397   6.131   1.690   2.686 -0.3126 -0.7465  0.4527
 4131TIP3   OH212398   3.762   2.111   2.023 -0.3431  0.5837 -0.2116
 4131TIP3    H112399   3.804   2.035   1.982  1.1339  1.2632  0.0066
 4131TIP3    H212400   3.671   2.083   2.035  0.7497 -2.4967  2.9520
 4132TIP3   OH212401   6.069   4.881   4.572 -0.7991 -0.0310 -0.3872
 4132TIP3    H112402   6.080   4.853   4.663 -1.2149  0.5653 -0.1490
 4132TIP3    H212403   5.996   4.829   4.539 -2.3397  1.5240  0.4032
 4133TIP3   OH212404   3.597   4.554   0.262  0.1047 -0.4466 -0.2638
 4133TIP3    H112405   3.691   4.550   0.244  0.4892 -3.8356  1.8159
 4133TIP3    H212406   3.556   4.536   0.177  1.4748 -2.8836 -0.4804
 4134TIP3   OH212407   5.952   4.563   2.212  0.1432 -0.1735  0.4325
 4134TIP3    H112408   5.914   4.475   2.213  0.2590 -0.2260  0.3779
 4134TIP3    H212409   5.882   4.621   2.241  0.0599 -0.2824  0.4475
 4135TIP3   OH212410   1.333   1.590   2.804  0.0229  0.1758  0.1917
 4135TIP3    H112411   1.348   1.663   2.864  1.1422 -0.3771  0.6213
 4135TIP3    H212412   1.410   1.589   2.747  0.5443 -1.2568  0.8536
 4136TIP3   OH212413   0.735   4.202   1.674 -0.9366  0.3505 -0.0693
 4136TIP3    H112414   0.726   4.170   1.764 -2.3086  1.3009  0.1619
 4136TIP3    H212415   0.759   4.294   1.684  1.1792 -0.0775 -0.7217
 4137TIP3   OH212416   5.831   4.281   3.013 -0.2704 -0.1351  0.0284
 4137TIP3    H112417   5.886   4.346   2.967  0.1482  0.2836  1.0976
 4137TIP3    H212418   5.857   4.197   2.974 -0.2862  0.2557 -0.8551
 4138TIP3   OH212419   0.594   0.513   4.965  0.3046 -0.2685  0.4110
 4138TIP3    H112420   0.671   0.557   5.000  1.1939 -2.1734  1.0216
 4138TIP3    H212421   0.600   0.525   4.870  1.4639 -0.5334  0.4404
 4139TIP3   OH212422   0.533   0.388   0.694  0.2367  0.3482 -0.1263
 4139TIP3    H112423   0.497   0.312   0.649 -2.1034  0.8285  0.8305
 4139TIP3    H212424   0.491   0.463   0.653  0.6825  0.9983  0.5682
 4140TIP3   OH212425   3.497   4.279   0.692  0.1215 -0.4199  0.1926
 4140TIP3    H112426   3.486   4.311   0.602 -0.1814  0.4168  0.5151
 4140TIP3    H212427   3.589   4.296   0.713 -0.3893  1.7339  0.8961
 4141TIP3   OH212428   3.457   5.837   4.051 -0.3004 -0.1779  0.6307
 4141TIP3    H112429   3.366   5.844   4.082 -1.8699 -1.4753 -3.0996
 4141TIP3    H212430   3.484   5.749   4.077 -1.5650 -1.2191 -1.2847
 4142TIP3   OH212431   4.823   4.962   1.506  0.0981 -0.3319  0.1562
 4142TIP3    H112432   4.887   4.892   1.498  0.8472  0.2737  0.6533
 4142TIP3    H212433   4.811   4.974   1.600 -0.4740 -0.1864  0.0729
 4143TIP3   OH212434   1.515   5.141   3.234 -0.1533  0.1807 -0.3117
 4143TIP3    H112435   1.512   5.070   3.298 -0.8303 -1.3610 -1.9667
 4143TIP3    H212436   1.605   5.174   3.240  0.6049 -1.7206 -0.4263
 4144TIP3   OH212437   3.148   5.193   3.970  0.4462 -0.4267  0.7664
 4144TIP3    H112438   3.230   5.241   3.957  0.8812 -0.0075  4.1495
 4144TIP3    H212439   3.174   5.115   4.020 -1.1782 -0.2461  1.9703
 4145TIP3   OH212440   1.244   2.609   1.524 -0.0517 -0.1834 -0.0199
 4145TIP3    H112441   1.319   2.668   1.514  0.2292 -0.6079 -0.5018
 4145TIP3    H212442   1.195   2.618   1.442  0.3560 -1.0956 -0.3865
 4146TIP3   OH212443   5.070   1.761   5.076 -0.1207 -0.0361 -0.4630
 4146TIP3    H112444   5.030   1.839   5.115 -2.0994 -0.5088 -1.3889
 4146TIP3    H212445   5.096   1.788   4.988  2.2748  0.4205  0.3089
 4147TIP3   OH212446   1.220   2.561   2.254  0.2740  0.1864 -0.0581
 4147TIP3    H112447   1.248   2.552   2.163  0.8806  1.2459  0.0086
 4147TIP3    H212448   1.228   2.472   2.290  0.9746 -0.0599 -0.7836
 4148TIP3   OH212449   3.444   0.826   2.293 -0.4554  0.5232 -0.0487
 4148TIP3    H112450   3.451   0.873   2.210 -0.6037  0.1322 -0.2856
 4148TIP3    H212451   3.425   0.894   2.358 -1.4282  0.7039 -0.5043
 4149TIP3   OH212452   0.542   0.672   1.596 -0.0542 -0.0591  0.4247
 4149TIP3    H112453   0.525   0.761   1.564 -1.4629 -0.3707  0.2433
 4149TIP3    H212454   0.604   0.636   1.533 -2.2239 -0.4183 -1.6682
 4150TIP3   OH212455   6.297   2.613   1.448 -0.7170  0.4660  0.4433
 4150TIP3    H112456   6.219   2.650   1.406 -0.3500  1.5737  0.7341
 4150TIP3    H212457   6.262   2.548   1.509 -1.3542  0.2744 -0.1051
 4151TIP3   OH212458   6.021   1.653   3.936  0.6735 -0.0513  0.1495
 4151TIP3    H112459   6.085   1.720   3.959  1.4911 -1.2629  1.5796
 4151TIP3    H212460   5.943   1.675   3.987  0.5321  0.4515 -0.2747
 4152TIP3   OH212461   3.862   3.819   1.902  0.1406  0.2695  0.4595
 4152TIP3    H112462   3.868   3.792   1.994  1.5208  1.1381  0.6699
 4152TIP3    H212463   3.911   3.752   1.854  0.7245  0.6124  0.5642
 4153TIP3   OH212464   0.961   4.111   2.721 -0.3850  0.2375  0.3779
 4153TIP3    H112465   0.988   4.054   2.792  0.2775  0.1288  0.0500
 4153TIP3    H212466   0.868   4.124   2.734 -0.4171 -0.4070  0.8236
 4154TIP3   OH212467   0.757   0.802   0.768 -0.3096  0.2459  0.2621
 4154TIP3    H112468   0.749   0.893   0.794 -0.6853  0.6572 -1.2041
 4154TIP3    H212469   0.779   0.805   0.675 -0.9241 -1.1599  0.0446
 4155TIP3   OH212470   2.758   3.260   0.710  0.2090  0.0255 -0.1729
 4155TIP3    H112471   2.698   3.318   0.757  0.4306  0.2353 -0.1459
 4155TIP3    H212472   2.794   3.204   0.778 -0.2381 -0.3555 -0.2432
 4156TIP3   OH212473   4.825   3.658   1.636  0.4858 -0.3994  0.2848
 4156TIP3    H112474   4.856   3.742   1.602  2.1769 -0.4934  1.4702
 4156TIP3    H212475   4.903   3.602   1.638 -0.8843 -2.5599 -1.9329
 4157TIP3   OH212476   0.376   2.688   4.098  0.4282 -0.2183 -0.2980
 4157TIP3    H112477   0.326   2.609   4.120  1.2056 -0.3550  1.0982
 4157TIP3    H212478   0.327   2.760   4.139  1.2494 -0.3354  0.9388
 4158TIP3   OH212479   1.676   5.078   2.591  0.0842  0.2001  0.4662
 4158TIP3    H112480   1.585   5.067   2.562  0.5164 -0.9749 -0.5616
 4158TIP3    H212481   1.671   5.138   2.665 -1.4429  0.7695 -0.0646
 4159TIP3   OH212482   4.549   1.499   2.567 -0.3683 -0.2488  0.3503
 4159TIP3    H112483   4.469   1.539   2.532 -0.7460 -1.4414 -0.1937
 4159TIP3    H212484   4.555   1.414   2.523  1.5340  0.0572 -0.0812
 4160TIP3   OH212485   5.607   3.569   2.962 -0.1323  0.0967  0.0044
 4160TIP3    H112486   5.555   3.649   2.950 -2.1637 -1.2666 -0.8367
 4160TIP3    H212487   5.654   3.558   2.879 -2.6212 -1.3931 -1.3193
 4161TIP3   OH212488   3.017   3.576   3.286 -0.1415  0.5031 -0.6342
 4161TIP3    H112489   2.938   3.629   3.275  0.9563  2.0752 -1.3288
 4161TIP3    H212490   3.067   3.622   3.353  1.2200  0.8486 -1.8476
 4162TIP3   OH212491   1.394   0.525   0.945 -0.3106 -0.0357 -0.2604
 4162TIP3    H112492   1.407   0.612   0.910  0.2936 -0.4356 -1.0557
 4162TIP3    H212493   1.299   0.511   0.941 -0.3666  0.4203 -0.5078
 4163TIP3   OH212494   4.684   5.942   4.975  0.1601 -0.2570  0.0799
 4163TIP3    H112495   4.707   6.035   4.978 -1.1386  0.0760 -0.0378
 4163TIP3    H212496   4.713   5.907   5.059  0.4321  0.2984  0.2220
 4164TIP3   OH212497   6.046   3.038   1.205 -0.5966  0.0119 -0.6962
 4164TIP3    H112498   6.056   3.098   1.279 -3.0671  1.3052 -1.2630
 4164TIP3    H212499   5.969   2.986   1.227  0.6818 -2.0364 -0.8664
 4165TIP3   OH212500   1.718   0.594   4.860  0.4959 -0.1436 -0.0597
 4165TIP3    H112501   1.643   0.650   4.839  0.4984 -0.0593  0.1585
 4165TIP3    H212502   1.764   0.585   4.777  0.6021  0.3345 -0.0553
 4166TIP3   OH212503   0.152   1.342   3.807 -0.3883 -0.0441  0.2948
 4166TIP3    H112504   0.231   1.334   3.860 -0.3832  0.5143  0.3810
 4166TIP3    H212505   0.163   1.279   3.737 -0.9457 -1.6889  1.6298
 4167TIP3   OH212506   2.543   0.542   4.732 -0.2818  0.1995  0.3272
 4167TIP3    H112507   2.620   0.499   4.693  0.1783 -0.1755  1.6113
 4167TIP3    H212508   2.554   0.635   4.708 -0.0328 -0.0189 -0.4520
 4168TIP3   OH212509   5.480   5.638   5.129 -0.0093  0.3903  0.0794
 4168TIP3    H112510   5.569   5.659   5.158  0.3872 -1.4187  0.2765
 4168TIP3    H212511   5.433   5.620   5.210 -0.8753  2.3617  0.0573
 4169TIP3   OH212512   0.590   2.505   3.759 -0.1249  0.3150  0.6026
 4169TIP3    H112513   0.565   2.564   3.688  0.8803 -1.9503 -1.7933
 4169TIP3    H212514   0.524   2.435   3.755  0.4181 -0.2514  1.3524
 4170TIP3   OH212515   0.191   5.505   2.712 -0.0978  0.1947  0.2282
 4170TIP3    H112516   0.188   5.596   2.684 -0.6193 -0.0865 -0.6398
 4170TIP3    H212517   0.268   5.469   2.668 -0.6425 -0.1227 -0.4678
 4171TIP3   OH212518   3.250   3.969   0.109  0.1618 -1.0387 -0.1267
 4171TIP3    H112519   3.224   3.993   0.198  0.1704 -0.4737 -0.2716
 4171TIP3    H212520   3.249   4.052   0.061  0.8106 -1.2360 -0.4866
 4172TIP3   OH212521   1.340   0.770   1.982 -0.1935  0.7715 -0.3836
 4172TIP3    H112522   1.281   0.767   2.058  0.4007  1.6575  0.1382
 4172TIP3    H212523   1.361   0.863   1.972 -0.2822  0.6703 -1.6640
 4173TIP3   OH212524   3.810   5.354   1.827  0.6268 -0.3115 -0.1733
 4173TIP3    H112525   3.802   5.419   1.757  0.4284  1.0361  1.0515
 4173TIP3    H212526   3.903   5.358   1.852  0.1478  1.4232  1.6037
 4174TIP3   OH212527   0.824   2.897   3.173  0.1397  0.0468 -0.4053
 4174TIP3    H112528   0.822   2.941   3.088  4.7641  0.0913 -0.7504
 4174TIP3    H212529   0.789   2.961   3.234  0.8725  1.7778 -1.7273
 4175TIP3   OH212530   5.789   3.062   4.646  0.0803 -0.4448 -0.4436
 4175TIP3    H112531   5.878   3.065   4.683 -0.5989  0.2328  1.2199
 4175TIP3    H212532   5.782   3.144   4.596  0.4439 -0.5845 -0.7300
 4176TIP3   OH212533   2.409   1.270   3.222  0.0258 -0.5703 -0.4353
 4176TIP3    H112534   2.491   1.310   3.193  1.3744 -1.4655  1.8888
 4176TIP3    H212535   2.356   1.343   3.254  0.0545 -0.0405 -1.5487
 4177TIP3   OH212536   1.027   4.097   2.431  0.0533  0.4480 -0.0882
 4177TIP3    H112537   1.047   4.064   2.519 -2.1091 -2.3034 -0.4814
 4177TIP3    H212538   1.108   4.138   2.402  1.9872 -1.6662  1.8573
 4178TIP3   OH212539   0.767   1.042   1.670  0.1099 -0.4481  0.2653
 4178TIP3    H112540   0.808   0.994   1.598  0.5539 -0.0765  0.2699
 4178TIP3    H212541   0.673   1.041   1.649  0.0297 -1.8320  0.5724
 4179TIP3   OH212542   3.332   5.906   3.555 -0.2655 -0.6275  0.0072
 4179TIP3    H112543   3.397   5.848   3.516 -1.3216 -1.8782  0.0407
 4179TIP3    H212544   3.375   5.943   3.632  0.9250 -0.2013 -0.8409
 4180TIP3   OH212545   0.900   5.942   4.254  0.1818 -0.1143 -0.0873
 4180TIP3    H112546   0.820   5.953   4.304  0.6096 -1.1363  0.8787
 4180TIP3    H212547   0.969   5.933   4.320  0.8014 -1.2232 -0.8458
 4181TIP3   OH212548   1.948   1.158   4.828 -0.3431  0.3618 -0.6484
 4181TIP3    H112549   1.998   1.194   4.755  0.1953  1.1906  0.1109
 4181TIP3    H212550   1.901   1.234   4.865  0.8193  0.3433  0.9881
 4182TIP3   OH212551   1.784   1.005   2.525  0.2884  0.4766 -0.0505
 4182TIP3    H112552   1.752   1.016   2.435 -2.9890 -1.0724  0.7576
 4182TIP3    H212553   1.784   0.910   2.539  0.9138  0.6854  1.5253
 4183TIP3   OH212554   3.089   4.436   3.691  0.1118 -0.2287  0.1403
 4183TIP3    H112555   3.015   4.437   3.630  0.9414  2.7285 -1.0162
 4183TIP3    H212556   3.056   4.475   3.771 -0.1025 -0.9469  0.4113
 4184TIP3   OH212557   3.468   4.380   2.738  0.6454 -0.1942  0.0125
 4184TIP3    H112558   3.542   4.321   2.731  0.9124  0.1949 -0.4461
 4184TIP3    H212559   3.481   4.426   2.822  1.8274  1.0826 -0.8266
 4185TIP3   OH212560   4.392   4.778   3.802 -0.2097  0.1410  0.5155
 4185TIP3    H112561   4.387   4.747   3.892 -2.0000 -2.5051 -0.3597
 4185TIP3    H212562   4.315   4.834   3.792 -0.6684 -0.5107  0.3413
 4186TIP3   OH212563   3.570   4.051   1.701  0.0304  0.3443 -0.3482
 4186TIP3    H112564   3.583   4.118   1.768  0.5612  0.7920 -0.8918
 4186TIP3    H212565   3.621   4.081   1.627 -0.5547 -0.1495 -0.9629
 4187TIP3   OH212566   5.349   5.379   3.916  0.3702 -0.5926  0.0766
 4187TIP3    H112567   5.278   5.320   3.941  0.3114 -0.6137 -0.1396
 4187TIP3    H212568   5.313   5.431   3.845 -0.2415  1.0533  1.5417
 4188TIP3   OH212569   4.848   3.923   2.823 -0.2163  0.5940 -0.6962
 4188TIP3    H112570   4.786   3.859   2.858  1.3285 -0.2447  0.6488
 4188TIP3    H212571   4.810   4.008   2.845 -0.3181  0.0904  1.2579
 4189TIP3   OH212572   4.050   5.520   0.071  0.1753  0.2170 -0.2385
 4189TIP3    H112573   3.999   5.600   0.078  1.0417  0.9278 -1.6226
 4189TIP3    H212574   4.103   5.518   0.151 -1.3940 -0.1176  0.8257
 4190TIP3   OH212575   1.574   5.471   4.562  0.0239  0.3212 -0.2414
 4190TIP3    H112576   1.533   5.425   4.489 -0.6428  0.1844  0.2100
 4190TIP3    H212577   1.538   5.560   4.557 -1.9200 -0.2969  1.3130
 4191TIP3   OH212578   3.685   3.971   3.514 -0.1354 -0.4667 -0.0270
 4191TIP3    H112579   3.780   3.984   3.505 -0.3837  0.9829 -0.7706
 4191TIP3    H212580   3.672   3.960   3.608  0.6860  0.0315  0.1550
 4192TIP3   OH212581   1.611   4.096   4.124 -0.0098  0.5887 -0.9842
 4192TIP3    H112582   1.646   4.063   4.207 -0.4861  0.3731 -0.8691
 4192TIP3    H212583   1.639   4.188   4.121  1.5549  0.1327 -1.4291
 4193TIP3   OH212584   4.882   0.976   0.762  0.1122  0.3004 -0.5559
 4193TIP3    H112585   4.931   0.894   0.757  1.6429  1.1158  0.2155
 4193TIP3    H212586   4.830   0.978   0.682  1.9174 -0.2871 -1.8172
 4194TIP3   OH212587   2.993   3.930   0.823 -0.2355  0.5021  0.1103
 4194TIP3    H112588   2.913   3.976   0.797 -0.4515 -0.0892 -0.2701
 4194TIP3    H212589   3.027   3.981   0.897 -0.6235  1.1133 -0.1278
 4195TIP3   OH212590   3.197   2.328   3.910 -0.1115  0.3646  0.4198
 4195TIP3    H112591   3.201   2.238   3.944 -2.2265 -0.4733 -1.2481
 4195TIP3    H212592   3.272   2.372   3.949  0.9227 -2.0838  1.4267
 4196TIP3   OH212593   1.797   5.786   0.286  0.2187 -0.6503 -0.2103
 4196TIP3    H112594   1.724   5.805   0.228 -0.4263  1.6909  1.2092
 4196TIP3    H212595   1.815   5.870   0.330  1.9048 -1.8381  1.5511
 4197TIP3   OH212596   3.861   0.141   3.930  0.3990 -0.1431 -0.3343
 4197TIP3    H112597   3.766   0.134   3.940  0.3782 -0.0308 -0.4494
 4197TIP3    H212598   3.895   0.141   4.020  0.2812 -0.0569 -0.2893
 4198TIP3   OH212599   3.148   3.476   4.561 -0.4518 -0.0084 -0.3024
 4198TIP3    H112600   3.068   3.514   4.597 -0.6920 -0.4497 -0.3621
 4198TIP3    H212601   3.218   3.533   4.593 -0.6648 -0.3502  0.8241
 4199TIP3   OH212602   5.891   1.811   0.774 -0.4810 -0.1254 -0.0687
 4199TIP3    H112603   5.891   1.901   0.742  0.8320  0.4754  1.4798
 4199TIP3    H212604   5.799   1.787   0.779 -0.8107  0.0456 -3.2712
 4200TIP3   OH212605   4.039   3.492   3.615 -0.1390  0.1408 -0.4293
 4200TIP3    H112606   3.998   3.566   3.570  1.0650  1.9029  1.2203
 4200TIP3    H212607   4.013   3.503   3.707  1.1185 -0.7183  0.0563
 4201TIP3   OH212608   2.821   2.820   1.526 -0.3519 -0.0396 -0.2418
 4201TIP3    H112609   2.806   2.726   1.515 -0.9418  0.1558 -1.2934
 4201TIP3    H212610   2.891   2.841   1.464  1.9613 -0.2881  2.1277
 4202TIP3   OH212611   5.785   3.413   4.878 -0.3566 -0.4256  0.6352
 4202TIP3    H112612   5.825   3.366   4.951  0.4111 -0.1412  0.4081
 4202TIP3    H212613   5.859   3.450   4.830 -0.8860 -0.0745  0.0766
 4203TIP3   OH212614   3.232   2.932   2.213 -0.5483  0.5964  0.1208
 4203TIP3    H112615   3.295   2.936   2.142  2.4006 -1.4907  2.3621
 4203TIP3    H212616   3.157   2.884   2.178  0.8544 -0.4479 -1.5559
 4204TIP3   OH212617   0.694   2.108   1.373 -0.0404 -0.2278  0.1343
 4204TIP3    H112618   0.624   2.174   1.366  0.6021  0.4785  0.2234
 4204TIP3    H212619   0.740   2.112   1.289 -1.2746 -2.0812 -0.6991
 4205TIP3   OH212620   1.129   1.864  -0.013  0.0146  0.0646 -0.4123
 4205TIP3    H112621   1.054   1.866   0.047  0.6832 -0.4136  0.4567
 4205TIP3    H212622   1.196   1.917   0.031  0.7667 -0.8850 -0.3820
 4206TIP3   OH212623   5.676   4.476   0.619  0.0877 -0.4335  0.4893
 4206TIP3    H112624   5.696   4.480   0.525  0.2573  1.0243  0.5589
 4206TIP3    H212625   5.721   4.552   0.656 -0.8988 -0.3580  1.5759
 4207TIP3   OH212626   2.746   5.129   4.998 -0.0586  0.0975 -0.3654
 4207TIP3    H112627   2.778   5.219   4.996  0.7917 -0.1919 -1.7266
 4207TIP3    H212628   2.651   5.137   5.000  0.0179  1.0005  1.2559
 4208TIP3   OH212629   4.883   0.407   2.330  0.4707 -0.3665 -0.2312
 4208TIP3    H112630   4.907   0.314   2.329  0.1961 -0.4582  0.9951
 4208TIP3    H212631   4.852   0.423   2.418  2.1494  1.3075  0.1258
 4209TIP3   OH212632   3.286   1.439   2.465 -0.3854  0.2663 -0.0522
 4209TIP3    H112633   3.330   1.392   2.394 -2.2216  0.8486 -1.6423
 4209TIP3    H212634   3.329   1.524   2.467  1.1291 -0.4555  1.0579
 4210TIP3   OH212635   2.326   3.514   3.685 -0.0213 -0.1289  0.3567
 4210TIP3    H112636   2.298   3.582   3.624  0.7531  0.4105  0.5815
 4210TIP3    H212637   2.321   3.433   3.635 -0.6982  0.1196  0.0010
 4211TIP3   OH212638   4.888   5.171   3.283 -0.2059  0.1058  0.2129
 4211TIP3    H112639   4.795   5.188   3.267 -0.4703 -1.6323 -0.2298
 4211TIP3    H212640   4.905   5.213   3.367 -1.3512  0.5753  0.2382
 4212TIP3   OH212641   0.015   2.694   2.621 -0.0499 -0.2583 -0.7915
 4212TIP3    H112642   0.016   2.704   2.716 -2.1395 -1.5083 -0.5708
 4212TIP3    H212643   0.104   2.713   2.594  1.0266 -1.4180  1.6153
 4213TIP3   OH212644   3.572   3.168   4.811 -0.1856  0.2342  0.7194
 4213TIP3    H112645   3.575   3.092   4.752 -3.9574  1.2471 -1.0566
 4213TIP3    H212646   3.546   3.131   4.896 -0.3289 -0.6260  0.3152
 4214TIP3   OH212647   5.620   3.515   0.249 -0.4400 -0.1110 -0.1401
 4214TIP3    H112648   5.674   3.589   0.219 -3.5449  1.8840 -1.2588
 4214TIP3    H212649   5.665   3.483   0.327  1.9027  1.8767 -0.5320
 4215TIP3   OH212650   4.186   4.322   5.127  0.3507 -0.3358  0.6461
 4215TIP3    H112651   4.115   4.299   5.067 -0.4151  0.3788  1.2528
 4215TIP3    H212652   4.201   4.242   5.177  0.4896 -0.7157 -0.0010
 4216TIP3   OH212653   1.080   0.522   2.519  0.2721 -0.3820  0.2322
 4216TIP3    H112654   1.067   0.599   2.574 -1.0168  1.0615 -1.9454
 4216TIP3    H212655   1.059   0.448   2.576 -0.9807  1.0192  1.6968
 4217TIP3   OH212656   2.217   1.755   0.600  0.4223  0.0228  0.2090
 4217TIP3    H112657   2.220   1.708   0.517  1.5820  1.1221 -0.3898
 4217TIP3    H212658   2.142   1.717   0.646  0.1827 -1.0739 -1.0424
 4218TIP3   OH212659   3.923   3.869   1.561 -0.4346  0.2486 -0.6568
 4218TIP3    H112660   3.955   3.903   1.478 -1.1460  0.0322 -1.0306
 4218TIP3    H212661   3.987   3.802   1.586  0.4620  1.1882 -0.3837
 4219TIP3   OH212662   0.502   0.355   0.335  0.1800 -0.2916  0.2061
 4219TIP3    H112663   0.551   0.286   0.381  1.7518  0.3053 -0.4909
 4219TIP3    H212664   0.488   0.423   0.401  0.7316 -0.2614  0.2967
 4220TIP3   OH212665   5.202   0.986   4.187  0.2913 -0.2680 -0.1846
 4220TIP3    H112666   5.188   1.058   4.250 -0.5804  0.3318 -1.0388
 4220TIP3    H212667   5.185   1.025   4.102 -3.2985 -2.1887 -0.5178
 4221TIP3   OH212668   1.535   3.206   5.133  0.5480  0.1885  0.4374
 4221TIP3    H112669   1.447   3.177   5.156  0.6797 -0.1519  0.5190
 4221TIP3    H212670   1.521   3.283   5.077  0.1311 -1.2441 -1.5170
 4222TIP3   OH212671   5.653   0.237   2.227 -0.3387 -0.4136  0.7501
 4222TIP3    H112672   5.739   0.221   2.265 -0.0225  1.7730  1.1087
 4222TIP3    H212673   5.621   0.315   2.272 -0.7963  1.1649 -2.0375
 4223TIP3   OH212674   4.298   2.477   4.437  0.2531 -0.4307  0.4507
 4223TIP3    H112675   4.314   2.566   4.405 -1.5131 -0.5676 -0.9492
 4223TIP3    H212676   4.322   2.421   4.364 -0.5644 -0.9742  0.5851
 4224TIP3   OH212677   2.411   2.768   1.770  0.4580  0.1190 -0.3263
 4224TIP3    H112678   2.421   2.696   1.707 -0.6889 -0.2194 -0.1467
 4224TIP3    H212679   2.320   2.762   1.799  0.5298  1.2531  0.1846
 4225TIP3   OH212680   5.356   2.632   2.766 -0.4241 -0.2644 -0.3183
 4225TIP3    H112681   5.272   2.665   2.798 -0.4143  0.8969 -1.4169
 4225TIP3    H212682   5.415   2.642   2.841 -1.0619 -0.2739  0.1935
 4226TIP3   OH212683   0.024   4.049   1.603  0.4867 -0.5801  0.1004
 4226TIP3    H112684  -0.029   3.969   1.604 -0.0707 -0.2733 -2.0879
 4226TIP3    H212685   0.101   4.026   1.656  0.7458 -2.8762 -1.1243
 4227TIP3   OH212686   2.412   0.282   3.390  0.0551 -0.0029  0.1225
 4227TIP3    H112687   2.502   0.251   3.398 -0.3178 -0.7593  1.9733
 4227TIP3    H212688   2.362   0.205   3.363 -0.1358  0.2729 -0.3287
 4228TIP3   OH212689   2.155   4.669   1.060 -0.2167  0.1748 -0.0178
 4228TIP3    H112690   2.236   4.668   1.009 -0.4502 -0.8030 -0.3802
 4228TIP3    H212691   2.090   4.708   1.000 -0.0902  0.7037  0.1782
 4229TIP3   OH212692   2.519   0.843   3.242  0.5469  0.0329 -0.0537
 4229TIP3    H112693   2.539   0.750   3.227 -1.9343 -0.5216 -0.3752
 4229TIP3    H212694   2.461   0.842   3.319  0.4300  1.3096 -0.1162
 4230TIP3   OH212695   0.850   1.411   3.139 -0.1543 -0.0460 -0.1935
 4230TIP3    H112696   0.848   1.375   3.050  0.3428  0.2377 -0.3168
 4230TIP3    H212697   0.930   1.463   3.142  0.2547 -0.7057  0.6730
 4231TIP3   OH212698   1.385   5.696   0.936  0.0529  0.1350 -0.4363
 4231TIP3    H112699   1.477   5.707   0.914 -0.1969  1.4112 -1.0141
 4231TIP3    H212700   1.384   5.672   1.028  1.0250 -2.0875 -0.9404
 4232TIP3   OH212701   4.481   3.934   2.769 -0.1888  0.3180 -0.0249
 4232TIP3    H112702   4.532   4.005   2.809 -0.1480  0.1977  0.1393
 4232TIP3    H212703   4.495   3.945   2.675 -0.1421  0.4976  0.0016
 4233TIP3   OH212704   3.421   0.033   0.905 -0.1505  0.5121 -0.0468
 4233TIP3    H112705   3.364   0.052   0.979  0.2044  0.7442  0.1723
 4233TIP3    H212706   3.451  -0.057   0.920  0.1141  0.6434  0.2262
 4234TIP3   OH212707   1.154   5.096   4.014 -0.1553 -0.0399 -0.0475
 4234TIP3    H112708   1.070   5.112   4.056  0.5578 -0.2454  1.5205
 4234TIP3    H212709   1.179   5.009   4.044  0.5903 -0.0083 -0.5594
 4235TIP3   OH212710   0.490   3.027   2.456  0.1528 -0.4968  0.2938
 4235TIP3    H112711   0.408   2.997   2.417 -0.6841  0.7239  1.0143
 4235TIP3    H212712   0.542   3.060   2.383 -1.9011  2.9496  0.1869
 4236TIP3   OH212713   4.217   2.347   1.961  0.1605  0.3448 -0.5073
 4236TIP3    H112714   4.297   2.362   1.909 -1.0756  2.0979 -2.0385
 4236TIP3    H212715   4.180   2.435   1.972 -0.7834 -0.2721  1.4923
 4237TIP3   OH212716   1.930   0.115   1.787 -0.1851 -0.1069  0.2616
 4237TIP3    H112717   1.884   0.032   1.799  0.3192 -0.4917 -0.3716
 4237TIP3    H212718   1.872   0.168   1.733 -0.0763 -0.4278 -0.1727
 4238TIP3   OH212719   0.097   5.609   5.164 -0.3831  0.1277 -0.0046
 4238TIP3    H112720   0.169   5.666   5.190 -0.7941  0.2458  0.9151
 4238TIP3    H212721   0.019   5.664   5.170 -1.1019 -1.0200  3.0681
 4239TIP3   OH212722   0.915   5.640   5.165 -0.3326 -0.0042 -0.0016
 4239TIP3    H112723   0.952   5.670   5.082 -0.7447 -0.1562 -0.2410
 4239TIP3    H212724   0.854   5.570   5.141 -1.4990  0.8741  0.3020
 4240TIP3   OH212725   0.991   2.718   2.241 -0.6270 -0.3923 -0.0162
 4240TIP3    H112726   1.041   2.637   2.250  0.0610  0.1063  0.8124
 4240TIP3    H212727   0.932   2.718   2.316  1.3622  1.1980  1.6693
 4241TIP3   OH212728   5.605   4.225   0.670 -0.1687 -0.1204  0.1528
 4241TIP3    H112729   5.582   4.207   0.579  0.2557 -0.1008  0.0393
 4241TIP3    H212730   5.622   4.320   0.672 -0.1899 -0.1184  0.2563
 4242TIP3   OH212731   3.250   1.437   0.435 -0.1625  0.0647  0.0688
 4242TIP3    H112732   3.301   1.511   0.402 -0.4487  0.2188 -0.0297
 4242TIP3    H212733   3.267   1.367   0.372  0.1952  0.0108  0.2208
 4243TIP3   OH212734   5.162   1.037   0.650 -0.3127  0.5014  0.1534
 4243TIP3    H112735   5.131   0.949   0.673  2.8851 -1.0112 -0.7796
 4243TIP3    H212736   5.130   1.051   0.561  0.8943 -0.7034 -0.5119
 4244TIP3   OH212737   2.344   4.281   4.832 -0.2558  0.0417 -0.0023
 4244TIP3    H112738   2.426   4.321   4.862  0.1833  0.4764 -1.7142
 4244TIP3    H212739   2.279   4.350   4.841 -0.0472  0.2929 -0.4073
 4245TIP3   OH212740   6.172   2.820   4.560  0.3839 -0.7049 -0.0401
 4245TIP3    H112741   6.098   2.840   4.503  0.0868  0.6621  0.7728
 4245TIP3    H212742   6.138   2.755   4.622 -0.8330  1.3682  1.5992
 4246TIP3   OH212743   1.545   3.957   2.100  0.1781 -0.0561 -0.6702
 4246TIP3    H112744   1.580   4.042   2.073 -0.8554  0.6070  0.0123
 4246TIP3    H212745   1.468   3.944   2.045  0.2529 -0.4985 -0.6778
 4247TIP3   OH212746   1.305   5.240   2.336  0.1969 -0.2698  0.4133
 4247TIP3    H112747   1.268   5.303   2.399  0.2566  0.5790 -0.3816
 4247TIP3    H212748   1.229   5.202   2.293  0.1802 -0.1781  0.3606
 4248TIP3   OH212749   5.497   4.488   1.254  0.0054  0.1153 -0.1998
 4248TIP3    H112750   5.518   4.438   1.175  0.3007  0.3754 -0.2866
 4248TIP3    H212751   5.478   4.422   1.320 -0.8634 -0.1089 -0.6511
 4249TIP3   OH212752   2.322   2.516   2.292  0.1517 -0.1813  0.2305
 4249TIP3    H112753   2.372   2.571   2.352 -0.3711  1.1570 -0.5071
 4249TIP3    H212754   2.387   2.478   2.234  0.6903 -1.6786  1.7399
 4250TIP3   OH212755   0.417   2.356   1.309  0.0135  0.0898 -0.2207
 4250TIP3    H112756   0.386   2.406   1.233 -0.3300 -0.2193 -0.2911
 4250TIP3    H212757   0.497   2.315   1.279  0.2739  0.5583 -0.1770
 4251TIP3   OH212758   0.872   4.855   0.443  0.2668  0.4452 -0.2441
 4251TIP3    H112759   0.918   4.845   0.526  0.1851  1.1091 -0.1116
 4251TIP3    H212760   0.925   4.806   0.380 -0.6211 -1.5726  0.5172
 4252TIP3   OH212761   5.876   3.333   0.654  0.1892 -0.6399  0.4382
 4252TIP3    H112762   5.839   3.407   0.703  0.2430 -0.8399  0.7856
 4252TIP3    H212763   5.835   3.338   0.568 -0.8060 -0.9712  0.8702
 4253TIP3   OH212764   4.210   2.725   3.882  0.5028  0.4937 -0.0382
 4253TIP3    H112765   4.268   2.790   3.922  0.2925 -0.2239  1.5001
 4253TIP3    H212766   4.146   2.705   3.950 -0.1465 -0.4610 -0.8966
 4254TIP3   OH212767   5.083   5.717   4.246 -0.4771 -0.3680 -0.4916
 4254TIP3    H112768   5.029   5.675   4.313  0.1944  0.4964  0.6244
 4254TIP3    H212769   5.067   5.666   4.167 -2.0468 -0.8166  0.0797
 4255TIP3   OH212770   5.839   0.130   1.334  0.0684 -0.0778 -0.3168
 4255TIP3    H112771   5.923   0.146   1.376  0.2678 -0.2986 -0.6311
 4255TIP3    H212772   5.808   0.217   1.309 -0.3657  0.1296  0.8691
 4256TIP3   OH212773   5.246   4.884   1.022  0.3661  0.0946  0.0959
 4256TIP3    H112774   5.253   4.804   1.073 -1.5547 -0.9291 -1.1150
 4256TIP3    H212775   5.331   4.927   1.032  1.9007 -2.6635 -0.1639
 4257TIP3   OH212776   2.749   5.264   2.403 -0.4065 -0.4120 -0.6579
 4257TIP3    H112777   2.807   5.215   2.461 -0.0108  0.2687 -0.4629
 4257TIP3    H212778   2.688   5.309   2.461  0.5107  0.9370 -0.6844
 4258TIP3   OH212779   0.766   1.239   1.048 -0.5479 -0.2632  0.1422
 4258TIP3    H112780   0.684   1.277   1.081  0.1456  0.9977  0.5007
 4258TIP3    H212781   0.834   1.295   1.086  0.3937 -0.1541 -1.6172
 4259TIP3   OH212782   5.145   2.578   1.236 -0.1408 -0.2930  1.4601
 4259TIP3    H112783   5.142   2.620   1.150  1.2299 -2.9375 -0.0228
 4259TIP3    H212784   5.062   2.600   1.277 -2.6594 -2.0668 -2.1606
 4260TIP3   OH212785   5.686   4.624   1.066  0.3996  0.2772 -0.7611
 4260TIP3    H112786   5.611   4.630   1.125  0.2342 -0.8413 -0.8393
 4260TIP3    H212787   5.665   4.553   1.006  2.2072 -1.2629  0.2840
 4261TIP3   OH212788   3.401   4.060   0.795 -0.0079  0.0302  0.5989
 4261TIP3    H112789   3.368   4.007   0.723 -0.5737  0.7816  0.3056
 4261TIP3    H212790   3.417   4.146   0.757  0.1156  0.3091  1.2715
 4262TIP3   OH212791   3.630   1.702   1.215 -0.3607 -0.6792 -0.0864
 4262TIP3    H112792   3.574   1.625   1.215  0.5439 -1.4901  3.3579
 4262TIP3    H212793   3.606   1.750   1.294 -0.3038  2.2270 -1.6685
 4263TIP3   OH212794   1.245   4.018   2.714 -0.7932  0.6160  0.4427
 4263TIP3    H112795   1.202   4.001   2.798  1.4757 -0.3930  1.4860
 4263TIP3    H212796   1.263   4.112   2.715  0.2900  0.4321  1.6912
 4264TIP3   OH212797   3.058   3.719   3.041 -0.6170 -0.4627 -0.0219
 4264TIP3    H112798   3.072   3.667   3.120 -1.7942  0.2288  0.6830
 4264TIP3    H212799   3.112   3.677   2.974  0.4648 -1.0248  1.1636
 4265TIP3   OH212800   2.030   3.310   1.192 -0.3208  0.3915  0.5599
 4265TIP3    H112801   1.993   3.249   1.129 -1.8015  0.8633  0.9438
 4265TIP3    H212802   2.124   3.312   1.171 -0.6329 -0.1535 -1.0008
 4266TIP3   OH212803   2.344   3.404   3.353 -0.0784  0.5472 -0.4350
 4266TIP3    H112804   2.251   3.380   3.356 -0.5129  1.8012 -2.0396
 4266TIP3    H212805   2.390   3.320   3.352 -1.1079 -0.0983  1.3493
 4267TIP3   OH212806   0.880   1.843   1.578  0.3447  0.0864  0.1357
 4267TIP3    H112807   0.791   1.859   1.547  1.1790  0.6252 -2.1698
 4267TIP3    H212808   0.882   1.884   1.665 -1.3858  0.8693 -0.1486
 4268TIP3   OH212809   4.211   2.268   4.980 -0.1477  0.3091 -0.2085
 4268TIP3    H112810   4.156   2.290   5.055 -0.1280 -0.1976 -0.0474
 4268TIP3    H212811   4.251   2.351   4.955 -1.4380  0.8159 -0.6966
 4269TIP3   OH212812   2.429   0.763   0.413  0.6775 -0.0318 -0.1862
 4269TIP3    H112813   2.504   0.821   0.423 -0.7307  1.7468  0.4606
 4269TIP3    H212814   2.353   0.821   0.404 -0.5310 -1.7386 -2.0959
 4270TIP3   OH212815   2.792   2.544   0.264  0.1729 -0.0977 -0.5438
 4270TIP3    H112816   2.796   2.514   0.355  0.5872  0.5546 -0.3394
 4270TIP3    H212817   2.841   2.626   0.264  0.9403 -0.5327 -1.5429
 4271TIP3   OH212818   1.370   5.584   1.783 -0.6582 -0.2491  0.2617
 4271TIP3    H112819   1.402   5.624   1.864 -1.7870 -2.7162  2.0728
 4271TIP3    H212820   1.443   5.532   1.751  0.8336  2.9981 -2.1315
 4272TIP3   OH212821   5.781   2.287   2.840  0.0138  0.1956  0.1305
 4272TIP3    H112822   5.758   2.199   2.810 -0.3801  0.7649 -1.2888
 4272TIP3    H212823   5.851   2.272   2.904 -0.1970 -1.1621  0.0768
 4273TIP3   OH212824   2.141   5.524   3.949 -0.3642 -0.4776  0.7945
 4273TIP3    H112825   2.167   5.616   3.963 -0.6708 -0.4305  1.0774
 4273TIP3    H212826   2.165   5.506   3.858  2.1092 -0.9207  1.4492
 4274TIP3   OH212827   1.684   3.311   2.040  0.0919 -0.0996  0.0408
 4274TIP3    H112828   1.613   3.359   2.083  0.2162 -0.4578  0.6489
 4274TIP3    H212829   1.640   3.237   1.998  0.0772 -0.1947  0.2247
 4275TIP3   OH212830   5.005   1.045   3.455 -0.8610  0.1235  0.4197
 4275TIP3    H112831   5.085   1.092   3.477 -0.7125  0.5440 -0.9142
 4275TIP3    H212832   5.035   0.960   3.422 -0.9886  0.0919  0.3821
 4276TIP3   OH212833   0.506   1.905   3.432 -0.2546 -0.0344 -0.4930
 4276TIP3    H112834   0.485   1.998   3.426  1.6955  0.6631  1.8869
 4276TIP3    H212835   0.427   1.866   3.468 -0.6582  0.9403 -0.2790
 4277TIP3   OH212836   1.603   1.193   1.984 -0.1602 -0.5338 -0.0460
 4277TIP3    H112837   1.660   1.266   2.008 -0.6278  0.4016 -1.6766
 4277TIP3    H212838   1.655   1.114   2.003  0.9924  0.2534  0.1414
 4278TIP3   OH212839   0.323   0.557   1.760  0.1424 -0.5245  0.0477
 4278TIP3    H112840   0.277   0.639   1.746  1.7097  0.3667 -0.1516
 4278TIP3    H212841   0.261   0.489   1.734 -1.0924  0.6031 -0.0065
 4279TIP3   OH212842   5.537   0.940   0.913  0.3781  0.7742  0.4739
 4279TIP3    H112843   5.476   0.866   0.908  0.8032  0.2583  2.0621
 4279TIP3    H212844   5.567   0.952   0.824  2.1704 -2.6444  0.4278
 4280TIP3   OH212845   5.330   1.710   2.196 -0.1565  0.3087  0.4102
 4280TIP3    H112846   5.422   1.730   2.211  0.0721  0.4515 -1.0354
 4280TIP3    H212847   5.322   1.704   2.101 -1.9982  2.0985  0.3682
 4281TIP3   OH212848   1.075   0.284   0.169  0.0233  0.5110  0.0679
 4281TIP3    H112849   1.139   0.352   0.146 -0.8998  2.6010  3.0329
 4281TIP3    H212850   1.128   0.207   0.188  1.4416  1.3981 -0.1298
 4282TIP3   OH212851   4.814   0.509   1.059 -0.0487  0.2905  0.0251
 4282TIP3    H112852   4.818   0.604   1.069 -1.5773  0.4413 -0.4695
 4282TIP3    H212853   4.762   0.495   0.980 -0.2934 -0.9665  0.3773
 4283TIP3   OH212854   4.841   0.255   1.556 -0.3619 -0.0351  0.2597
 4283TIP3    H112855   4.788   0.217   1.486 -0.7450  3.7402 -1.8008
 4283TIP3    H212856   4.778   0.301   1.611  0.2893  0.0984  0.8989
 4284TIP3   OH212857   5.731   5.043   3.606  0.1909  0.4756  0.3645
 4284TIP3    H112858   5.820   5.067   3.633  1.1402 -1.4172 -0.8697
 4284TIP3    H212859   5.730   5.056   3.511 -0.6159 -0.1832  0.2722
 4285TIP3   OH212860   5.210   0.771   4.782  0.4019 -0.3826  0.3691
 4285TIP3    H112861   5.164   0.843   4.740  0.8456 -0.3771 -0.1122
 4285TIP3    H212862   5.143   0.706   4.799  0.2713 -0.5188 -0.6368
 4286TIP3   OH212863   2.855   2.484   4.209  0.2079 -0.3576 -0.1728
 4286TIP3    H112864   2.862   2.546   4.137 -0.6416 -1.0477 -0.8659
 4286TIP3    H212865   2.768   2.499   4.246  0.1911 -0.7886 -0.0272
 4287TIP3   OH212866   0.061   1.948   0.176 -0.3696 -0.2357  0.5820
 4287TIP3    H112867   0.055   1.962   0.271  0.8059  0.6759  0.5429
 4287TIP3    H212868  -0.018   1.991   0.141 -0.7644 -0.5011  1.1334
 4288TIP3   OH212869   2.654   3.356   2.671  0.2491  0.7953  0.3753
 4288TIP3    H112870   2.566   3.390   2.691  0.2139  0.6101  0.5497
 4288TIP3    H212871   2.703   3.432   2.642 -0.4758  0.6054 -1.5152
 4289TIP3   OH212872   1.808   2.525   2.895  0.1511  0.1489 -0.6476
 4289TIP3    H112873   1.719   2.559   2.885  0.6086  1.7792  0.3331
 4289TIP3    H212874   1.810   2.489   2.983  1.0949  2.4369  0.3536
 4290TIP3   OH212875   3.651   3.813   1.552 -0.2989  0.0846  0.0047
 4290TIP3    H112876   3.611   3.858   1.626 -0.1518 -0.1115  0.2060
 4290TIP3    H212877   3.744   3.829   1.561 -0.3626  0.8961 -0.7044
 4291TIP3   OH212878   0.264   0.018   1.425  1.0205  0.0474  0.1320
 4291TIP3    H112879   0.179   0.061   1.423  0.5398 -0.8679 -0.1167
 4291TIP3    H212880   0.326   0.087   1.448  0.2705  0.8232 -0.1182
 4292TIP3   OH212881   2.920   0.134   2.025 -0.4398  0.4103  0.1120
 4292TIP3    H112882   3.000   0.185   2.035 -0.4026  0.2036  0.8619
 4292TIP3    H212883   2.919   0.074   2.099 -1.0821  0.1241 -0.1172
 4293TIP3   OH212884   1.388   5.574   2.527 -0.1195 -0.6440 -0.0373
 4293TIP3    H112885   1.309   5.522   2.512  0.3859 -1.6632  0.7424
 4293TIP3    H212886   1.390   5.587   2.622  0.5140 -0.4090 -0.0792
 4294TIP3   OH212887   1.210   5.645   0.346  0.1496  0.6900 -0.2494
 4294TIP3    H112888   1.249   5.718   0.298  2.4568  0.5906  1.3427
 4294TIP3    H212889   1.224   5.569   0.290  2.6777  0.5964  0.4082
 4295TIP3   OH212890   5.607   1.039   1.756 -0.0124  0.4024 -0.6465
 4295TIP3    H112891   5.604   1.122   1.805  0.8583  0.0972 -0.0494
 4295TIP3    H212892   5.671   0.986   1.803 -0.5841 -0.6329 -1.0114
 4296TIP3   OH212893   3.010   5.781   1.555  0.3696  0.0628  0.5355
 4296TIP3    H112894   2.951   5.776   1.631 -1.5941  0.6045 -0.8752
 4296TIP3    H212895   3.066   5.703   1.563 -1.5436 -1.3203  1.1637
 4297TIP3   OH212896   2.237   0.178   1.828 -0.1283  0.5154 -0.1915
 4297TIP3    H112897   2.328   0.152   1.819  0.0665  1.0223  0.2544
 4297TIP3    H212898   2.189   0.096   1.840  0.2456  0.2381 -0.5764
 4298TIP3   OH212899   4.034   4.767   2.685  0.2685  0.1136 -0.1427
 4298TIP3    H112900   4.066   4.807   2.605 -0.3553  2.5088  0.7414
 4298TIP3    H212901   3.973   4.699   2.655  1.4194 -0.2882 -1.6938
 4299TIP3   OH212902   0.443   1.691   1.986  0.0637 -0.0847 -0.2510
 4299TIP3    H112903   0.408   1.606   2.013 -1.1123  0.5578  0.2811
 4299TIP3    H212904   0.408   1.753   2.049  1.7096  0.6931 -0.0443
 4300TIP3   OH212905   6.155   2.865   1.428  0.4098  0.3360 -0.3958
 4300TIP3    H112906   6.211   2.933   1.391  1.0668  0.5621  0.9638
 4300TIP3    H212907   6.131   2.897   1.514 -0.2214 -0.6448 -0.1870
 4301TIP3   OH212908   2.489   0.228   4.182 -0.2192  0.2816 -0.5500
 4301TIP3    H112909   2.450   0.312   4.158 -1.1535  0.3953  1.1620
 4301TIP3    H212910   2.471   0.219   4.276  1.2355 -1.1139 -0.3443
 4302TIP3   OH212911   0.657   3.235   3.505  0.5155 -0.2280  0.3991
 4302TIP3    H112912   0.595   3.273   3.567 -1.2487 -1.6146 -0.4108
 4302TIP3    H212913   0.712   3.308   3.477 -0.1536  0.8707  1.8249
 4303TIP3   OH212914   1.830   3.379   0.600  0.4967  0.4415 -0.0955
 4303TIP3    H112915   1.795   3.441   0.536 -0.5114 -0.0555 -0.0425
 4303TIP3    H212916   1.907   3.341   0.557 -0.2943 -0.0418 -1.1272
 4304TIP3   OH212917   5.513   0.205   2.711 -0.8074 -0.0651  0.1405
 4304TIP3    H112918   5.589   0.192   2.767 -0.0387 -0.9554 -1.0652
 4304TIP3    H212919   5.514   0.298   2.689 -0.0539 -0.0723  0.1215
 4305TIP3   OH212920   1.426   2.213   2.400  0.4910 -0.2916 -0.1969
 4305TIP3    H112921   1.362   2.232   2.469  1.4893  1.2525  0.3551
 4305TIP3    H212922   1.387   2.250   2.321  0.0166 -0.7427 -0.1809
 4306TIP3   OH212923   0.390   4.586   1.589 -0.0808 -0.7946  0.1530
 4306TIP3    H112924   0.335   4.660   1.611  1.6162  0.5056  0.2038
 4306TIP3    H212925   0.366   4.564   1.499 -1.3206 -0.8802  0.4901
 4307TIP3   OH212926   1.804   1.638   4.817  0.0427  0.2967  0.2974
 4307TIP3    H112927   1.724   1.640   4.869 -0.6353  1.1627 -0.7432
 4307TIP3    H212928   1.840   1.726   4.823 -0.3654  0.5944 -1.1390
 4308TIP3   OH212929   3.338   3.051   4.930 -0.0287 -0.4201  0.5964
 4308TIP3    H112930   3.288   3.035   5.010 -2.1743 -0.0739 -0.6046
 4308TIP3    H212931   3.367   2.964   4.903 -1.8238 -0.9502  0.2246
 4309TIP3   OH212932   5.602   3.815   3.425 -0.2496  0.1053 -1.3049
 4309TIP3    H112933   5.546   3.843   3.497  1.0741  0.6132 -0.4260
 4309TIP3    H212934   5.647   3.894   3.397  0.6199 -0.4152 -1.4312
 4310TIP3   OH212935   6.086   0.163   1.484 -0.0498 -0.2103  0.2240
 4310TIP3    H112936   6.060   0.174   1.576  1.2119  0.7166  0.4906
 4310TIP3    H212937   6.116   0.250   1.457 -1.4420 -0.1780 -1.4283
 4311TIP3   OH212938   2.899   2.348   3.908 -0.0777  0.3113  0.3277
 4311TIP3    H112939   2.989   2.315   3.903  0.7544  2.5256 -0.2157
 4311TIP3    H212940   2.860   2.299   3.980  1.6538 -0.4865  0.7837
 4312TIP3   OH212941   2.882   0.050   2.954 -0.2390 -0.1227  0.3154
 4312TIP3    H112942   2.907   0.142   2.945 -2.9380  0.7435  0.7104
 4312TIP3    H212943   2.957   0.009   2.997  0.7418  2.0522  0.8294
 4313TIP3   OH212944   0.761   2.910   4.765  0.1338 -0.0995  0.1821
 4313TIP3    H112945   0.678   2.941   4.800  0.0838  1.1974 -1.0030
 4313TIP3    H212946   0.737   2.839   4.705 -0.0832 -0.0135  0.1672
 4314TIP3   OH212947   5.790   4.482   4.409 -0.4295 -0.1018 -0.3478
 4314TIP3    H112948   5.737   4.466   4.331 -0.2164 -1.2830 -0.2666
 4314TIP3    H212949   5.852   4.409   4.411  1.6266  1.5262 -0.7797
 4315TIP3   OH212950   4.129   2.053   2.820  0.1151 -0.0027 -0.5864
 4315TIP3    H112951   4.104   1.962   2.808 -0.4352  0.1319 -0.4936
 4315TIP3    H212952   4.181   2.053   2.900 -0.8637 -0.0632  0.0631
 4316TIP3   OH212953   3.834   1.713   4.375  0.3562  0.4428 -0.3855
 4316TIP3    H112954   3.863   1.629   4.341  1.3774  1.3779 -2.0252
 4316TIP3    H212955   3.912   1.753   4.412  0.5121  1.6411 -1.8697
 4317TIP3   OH212956   1.566   0.075   4.484  0.5189  0.3951  0.3150
 4317TIP3    H112957   1.561   0.047   4.393  0.7165  1.6526 -0.1035
 4317TIP3    H212958   1.510   0.013   4.532  0.6006 -0.4124 -0.6109
 4318TIP3   OH212959   2.189   5.443   4.624  0.4338 -0.0638  0.0827
 4318TIP3    H112960   2.275   5.416   4.657  0.0833  0.6597  1.6470
 4318TIP3    H212961   2.135   5.453   4.702 -0.9602 -0.0418 -0.8465
 4319TIP3   OH212962   1.871   0.662   4.358 -0.3230 -0.1717 -0.1790
 4319TIP3    H112963   1.952   0.650   4.309  0.4468 -0.2807  1.0807
 4319TIP3    H212964   1.856   0.757   4.356  1.1686  0.1555  1.5797
 4320TIP3   OH212965   5.248   3.625   5.107 -0.5167 -0.0322  0.1388
 4320TIP3    H112966   5.253   3.708   5.059 -0.3267  0.1761  0.5165
 4320TIP3    H212967   5.238   3.651   5.199  0.7930 -0.4175  0.4013
 4321TIP3   OH212968   2.560   4.422   5.137 -0.0499  0.0241 -0.3446
 4321TIP3    H112969   2.481   4.467   5.168 -0.9543 -1.2149 -0.7797
 4321TIP3    H212970   2.589   4.475   5.063  0.4471  1.3538  0.7429
 4322TIP3   OH212971   2.049   1.179   3.479 -0.0064 -0.5593  0.2576
 4322TIP3    H112972   1.956   1.156   3.483 -0.2467  0.0976 -0.9389
 4322TIP3    H212973   2.080   1.135   3.400  0.5587 -0.3056  0.3362
 4323TIP3   OH212974   2.225   2.275   2.992 -0.2348  0.2356 -0.0590
 4323TIP3    H112975   2.289   2.281   3.063  0.5997 -0.7715 -0.6808
 4323TIP3    H212976   2.175   2.356   2.997  0.0637  0.3598  1.4208
 4324TIP3   OH212977   1.541   1.151   0.308 -0.0027 -0.3444  0.7283
 4324TIP3    H112978   1.506   1.237   0.286 -0.7811 -0.1735  2.4896
 4324TIP3    H212979   1.491   1.090   0.255  0.9661  0.2846 -0.9967
 4325TIP3   OH212980   4.502   0.457   4.518  0.5048 -0.2194  0.0292
 4325TIP3    H112981   4.535   0.486   4.433  1.7789 -1.0289  0.2072
 4325TIP3    H212982   4.550   0.375   4.535 -0.8626 -0.8853  0.8212
 4326TIP3   OH212983   4.224   2.897   3.062 -0.4596 -0.1499 -0.0832
 4326TIP3    H112984   4.258   2.843   2.990  0.4194 -0.0595  0.2639
 4326TIP3    H212985   4.129   2.887   3.055 -0.4171  0.1364 -1.4881
 4327TIP3   OH212986   0.467   0.184   0.108  0.3367 -0.2628 -0.2575
 4327TIP3    H112987   0.536   0.219   0.052  0.2438  0.4752  0.0752
 4327TIP3    H212988   0.447   0.255   0.169 -1.3500 -0.1237 -0.9153
 4328TIP3   OH212989   0.728   1.184   2.730 -0.5606  0.1827 -0.1598
 4328TIP3    H112990   0.746   1.265   2.682 -2.4174  0.0812 -1.1404
 4328TIP3    H212991   0.813   1.154   2.760  0.8207  0.1018 -3.6859
 4329TIP3   OH212992   0.487   3.724   2.585  0.4184  0.2973 -0.5927
 4329TIP3    H112993   0.516   3.633   2.570  1.7937  0.7271 -0.7068
 4329TIP3    H212994   0.447   3.749   2.502 -0.5859 -0.4015 -0.3464
 4330TIP3   OH212995   1.792   3.043   2.613 -0.0448  0.0705  0.2262
 4330TIP3    H112996   1.707   3.023   2.576 -0.3890  0.5558  0.7321
 4330TIP3    H212997   1.847   2.968   2.590 -0.4667 -0.0146 -0.5301
 4331TIP3   OH212998   1.455   3.424   1.777  0.1196 -0.7683  0.0321
 4331TIP3    H112999   1.539   3.398   1.741  1.2088 -0.1952  1.9919
 4331TIP3    H213000   1.433   3.354   1.838 -0.4017 -0.5001  0.1550
 4332TIP3   OH213001   5.740   5.847   1.786  0.1368 -0.1375  0.0926
 4332TIP3    H113002   5.705   5.760   1.805  0.1980  0.0853  1.2528
 4332TIP3    H213003   5.697   5.905   1.848  1.5217  0.3519  0.6243
 4333TIP3   OH213004   1.219   2.202   3.892 -0.1450 -0.1221  0.0719
 4333TIP3    H113005   1.235   2.296   3.889  1.0009 -0.3061 -0.2528
 4333TIP3    H213006   1.139   2.189   3.841  0.6906  0.4876 -1.4646
 4334TIP3   OH213007   4.337   2.478   3.830 -0.3433 -1.0702 -0.2671
 4334TIP3    H113008   4.250   2.442   3.851  0.4876 -2.5009  0.9550
 4334TIP3    H213009   4.325   2.572   3.830 -1.7118 -1.2104  0.8547
 4335TIP3   OH213010   1.986   0.612   2.398  0.1873 -0.1406  0.4508
 4335TIP3    H113011   1.960   0.643   2.311  2.4754  2.6949  0.6505
 4335TIP3    H213012   2.071   0.570   2.384 -0.5269 -1.8943  1.0303
 4336TIP3   OH213013   5.455   5.078   2.491 -0.1052 -0.1806 -0.0418
 4336TIP3    H113014   5.397   5.020   2.441 -0.8784 -0.2973  0.9302
 4336TIP3    H213015   5.409   5.162   2.491  0.3287  0.0558 -0.2788
 4337TIP3   OH213016   4.858   5.013   1.782  0.0366  0.2598 -0.3363
 4337TIP3    H113017   4.879   5.105   1.764 -0.9250  0.5293 -0.1737
 4337TIP3    H213018   4.806   5.016   1.862  0.7241 -0.5247  0.1548
 4338TIP3   OH213019   4.306   0.799   4.219 -0.0624  0.0125 -0.2951
 4338TIP3    H113020   4.352   0.873   4.178 -0.2972  0.7441  0.7385
 4338TIP3    H213021   4.336   0.799   4.309  0.0024 -1.2294 -0.3025
 4339TIP3   OH213022   4.978   3.538   3.595  0.2877  0.0749 -0.1792
 4339TIP3    H113023   5.012   3.510   3.680 -0.9181  1.5412  0.8345
 4339TIP3    H213024   4.913   3.471   3.572  0.1818 -0.0138  0.3618
 4340TIP3   OH213025   6.075   1.336   4.958  0.1626 -0.0881 -0.0287
 4340TIP3    H113026   6.166   1.365   4.957  0.1548 -0.0439 -1.5091
 4340TIP3    H213027   6.048   1.336   4.866 -0.4994 -2.7190  0.1001
 4341TIP3   OH213028   5.065   3.536   0.351 -0.2259 -0.1018 -0.2218
 4341TIP3    H113029   5.122   3.597   0.398  0.2705 -0.7209 -0.0080
 4341TIP3    H213030   4.994   3.518   0.413 -0.3673  0.2362 -0.2793
 4342TIP3   OH213031   4.058   0.450   4.021 -0.5379 -0.0480 -0.4973
 4342TIP3    H113032   4.070   0.384   3.952 -0.8775 -0.3791 -0.2450
 4342TIP3    H213033   3.978   0.496   3.996  0.0940  0.7641 -1.0635
 4343TIP3   OH213034   0.698   5.315   2.291  0.7589 -0.2498  0.2463
 4343TIP3    H113035   0.738   5.372   2.225  0.8682 -0.0784  0.4614
 4343TIP3    H213036   0.725   5.353   2.375 -0.3613  0.2317  0.4048
 4344TIP3   OH213037   5.815   3.005   0.478 -0.1754 -0.2289 -0.1496
 4344TIP3    H113038   5.760   3.002   0.556  0.1765 -0.3014  0.0968
 4344TIP3    H213039   5.755   3.025   0.407 -0.5938 -0.7537  0.0511
 4345TIP3   OH213040   2.173   1.840   4.967  0.2829  0.1126 -0.3147
 4345TIP3    H113041   2.079   1.825   4.956  0.2405  0.4381 -0.3969
 4345TIP3    H213042   2.197   1.787   5.043 -0.0412  0.3345 -0.0566
 4346TIP3   OH213043   1.580   0.081   1.360 -0.6067  0.1343 -0.2496
 4346TIP3    H113044   1.556   0.131   1.282 -0.0394  1.5649  0.4531
 4346TIP3    H213045   1.647   0.021   1.331  1.1734  2.1269 -0.4971
 4347TIP3   OH213046   0.623   4.029   2.268 -0.1357  0.3572  0.2058
 4347TIP3    H113047   0.692   3.966   2.291 -0.8039 -0.0110  1.3093
 4347TIP3    H213048   0.611   4.080   2.348 -1.5558  0.0168  0.2388
 4348TIP3   OH213049   1.456   1.490   3.426 -0.2691 -0.0874  0.3433
 4348TIP3    H113050   1.461   1.402   3.387 -1.6544  0.4670 -1.1829
 4348TIP3    H213051   1.367   1.497   3.459 -0.0733  0.6340  0.7416
 4349TIP3   OH213052   5.459   1.280   3.646 -0.1087 -0.2669  0.3054
 4349TIP3    H113053   5.530   1.254   3.587 -1.5224 -1.6237 -0.9156
 4349TIP3    H213054   5.491   1.258   3.734  1.2071 -0.2516 -0.1515
 4350TIP3   OH213055   2.099   4.047   2.843 -0.1919  0.3267 -0.0098
 4350TIP3    H113056   2.108   4.033   2.937 -0.4201 -0.0601 -0.0470
 4350TIP3    H213057   2.138   3.969   2.803  1.8985  1.4248 -0.2918
 4351TIP3   OH213058   1.381   5.834   1.503 -0.1093 -0.3641  0.5790
 4351TIP3    H113059   1.408   5.825   1.594 -0.8164 -1.6714  0.6856
 4351TIP3    H213060   1.384   5.745   1.467 -1.5287 -0.1566 -0.1610
 4352TIP3   OH213061   6.098   4.891   2.908  0.7347 -0.4763 -0.0035
 4352TIP3    H113062   6.189   4.866   2.924  0.7808 -0.9696 -0.9729
 4352TIP3    H213063   6.047   4.824   2.954  0.8693 -1.2332 -0.9104
 4353TIP3   OH213064   5.052   5.933   2.378  0.1297  0.0966  0.2427
 4353TIP3    H113065   5.093   5.867   2.323 -1.1571 -0.6551  0.1225
 4353TIP3    H213066   5.019   5.999   2.317  0.6342  0.3980  0.2933
 4354TIP3   OH213067   4.146   1.081   1.811 -0.0219 -0.2109 -0.0071
 4354TIP3    H113068   4.100   1.016   1.759 -0.7241  0.9798 -0.9061
 4354TIP3    H213069   4.152   1.041   1.898 -0.0480 -1.6452 -0.6320
 4355TIP3   OH213070   5.600   1.826   1.618 -0.3107  0.2775 -0.1840
 4355TIP3    H113071   5.557   1.742   1.605  0.7833 -0.1924 -0.8778
 4355TIP3    H213072   5.528   1.886   1.639 -1.0462 -0.9292  0.9011
 4356TIP3   OH213073   0.145   3.522   4.669  0.7156  0.0070 -0.2769
 4356TIP3    H113074   0.146   3.580   4.745 -1.0261 -0.7447  0.3599
 4356TIP3    H213075   0.054   3.523   4.638  1.2688 -0.1234 -2.0527
 4357TIP3   OH213076   0.143   4.538   3.069 -0.5454 -0.2997  0.0193
 4357TIP3    H113077   0.075   4.533   3.002  0.0708 -0.6813 -0.5850
 4357TIP3    H213078   0.096   4.529   3.152 -1.2474 -0.3733 -0.3820
 4358TIP3   OH213079   2.474   3.138   0.781  0.0942  0.0505  0.2782
 4358TIP3    H113080   2.489   3.226   0.816  1.6708 -0.9784  2.3618
 4358TIP3    H213081   2.479   3.080   0.857  0.0442 -1.9570 -1.1754
 4359TIP3   OH213082   2.192   1.435   2.608  0.2822  0.2912  0.2862
 4359TIP3    H113083   2.172   1.529   2.618 -1.9033 -0.1647  0.7524
 4359TIP3    H213084   2.228   1.410   2.694 -0.6098  0.3982  0.7062
 4360TIP3   OH213085   0.359   1.792   3.967  0.2190 -0.8990  0.1520
 4360TIP3    H113086   0.366   1.882   3.938  1.7314 -0.6058  1.2654
 4360TIP3    H213087   0.449   1.758   3.961 -0.4273 -2.5555 -0.8951
 4361TIP3   OH213088   4.235   3.464   0.190 -0.2797  0.3714  0.0602
 4361TIP3    H113089   4.315   3.515   0.199 -0.0338  0.1786 -0.9173
 4361TIP3    H213090   4.197   3.493   0.108 -1.2172  0.4526  0.5105
 4362TIP3   OH213091   4.490   5.507   5.056 -0.7072  0.6357 -0.0316
 4362TIP3    H113092   4.459   5.593   5.027 -0.1807  1.4315  1.6571
 4362TIP3    H213093   4.551   5.526   5.127 -0.3741 -1.1385  0.2037
 4363TIP3   OH213094   0.606   4.039   4.547 -0.0817  0.2446  0.1480
 4363TIP3    H113095   0.534   4.092   4.513  0.6751  0.1300 -1.7862
 4363TIP3    H213096   0.573   3.949   4.544 -0.7262  0.3975  1.7163
 4364TIP3   OH213097   3.617   1.747   1.961 -0.1457  0.4048 -0.2509
 4364TIP3    H113098   3.570   1.729   1.879  1.5741  2.5334 -1.8210
 4364TIP3    H213099   3.562   1.810   2.006 -0.5541  0.0966 -0.3106
 4365TIP3   OH213100   0.640   4.262   3.864  0.6905  0.3303 -0.2443
 4365TIP3    H113101   0.692   4.184   3.883 -0.2449 -0.0484  0.8614
 4365TIP3    H213102   0.634   4.308   3.947  3.2225  2.8921 -1.3195
 4366TIP3   OH213103   6.192   5.443   4.963  0.3379 -0.2412 -0.2162
 4366TIP3    H113104   6.282   5.450   4.931  0.0577  1.6102 -0.6957
 4366TIP3    H213105   6.192   5.362   5.014  1.9666 -0.8913 -1.1459
 4367TIP3   OH213106   5.144   4.111   4.979  0.3109 -0.2138  0.0821
 4367TIP3    H113107   5.050   4.103   4.968  0.0820  1.9865  0.0878
 4367TIP3    H213108   5.158   4.199   5.013  2.6196  1.1012 -3.6096
 4368TIP3   OH213109   1.387   4.689   0.477  0.0758  0.6642  0.1044
 4368TIP3    H113110   1.415   4.660   0.390  1.8650 -1.8562  1.3920
 4368TIP3    H213111   1.297   4.657   0.485 -0.0170  0.6972 -0.7006
 4369TIP3   OH213112   6.039   1.316   0.680 -0.0786  0.1333  0.3800
 4369TIP3    H113113   6.081   1.334   0.764  0.2264  2.3154 -0.1763
 4369TIP3    H213114   5.956   1.276   0.703  0.7221 -0.8935  1.6350
 4370TIP3   OH213115   2.751   5.642   0.119 -0.1982 -0.1195  0.2527
 4370TIP3    H113116   2.805   5.602   0.187  0.1677  1.1589  0.7471
 4370TIP3    H213117   2.678   5.682   0.167  0.4789  1.4690  0.0002
 4371TIP3   OH213118   1.872   5.126   3.227  0.4667  0.4888  0.5780
 4371TIP3    H113119   1.948   5.166   3.271  2.4671  0.6780 -2.7221
 4371TIP3    H213120   1.851   5.186   3.156  0.0920 -1.7080 -1.2607
 4372TIP3   OH213121   0.337   2.641   0.463  0.6137 -0.5174 -0.2690
 4372TIP3    H113122   0.359   2.553   0.493 -1.1622 -0.3971  1.6405
 4372TIP3    H213123   0.241   2.640   0.455  0.7071  0.6651 -2.2848
 4373TIP3   OH213124   3.503   3.678   4.079  0.3486 -0.0647  0.3633
 4373TIP3    H113125   3.434   3.628   4.034  0.5043  0.0493 -0.0016
 4373TIP3    H213126   3.459   3.714   4.156  0.2642 -0.8715  0.7050
 4374TIP3   OH213127   4.681   1.425   3.606  0.3944  0.1629 -0.2978
 4374TIP3    H113128   4.623   1.459   3.538  1.1621  1.8718 -0.1650
 4374TIP3    H213129   4.769   1.431   3.568  0.7679  0.4811  0.5804
 4375TIP3   OH213130   0.615   5.776   2.079  0.0993  0.4389 -0.2797
 4375TIP3    H113131   0.622   5.682   2.094 -2.1096 -0.0333 -1.6654
 4375TIP3    H213132   0.579   5.811   2.161 -2.8430 -0.6166 -0.9999
 4376TIP3   OH213133   1.380   2.981   1.215  0.6667  0.9637  0.2324
 4376TIP3    H113134   1.331   2.996   1.296  0.3874  1.5297 -0.0291
 4376TIP3    H213135   1.407   2.890   1.219 -0.3499  0.6606  0.4210
 4377TIP3   OH213136   6.239   0.180   3.600  0.0501 -0.4488 -0.4076
 4377TIP3    H113137   6.323   0.193   3.558 -0.0894 -0.1833 -0.6060
 4377TIP3    H213138   6.255   0.200   3.692 -0.2969  1.8264 -0.7836
 4378TIP3   OH213139   5.692   5.575   0.615  0.4578  0.0902  0.1282
 4378TIP3    H113140   5.693   5.659   0.661  0.7234 -0.2461  0.7519
 4378TIP3    H213141   5.743   5.591   0.535 -0.8494  0.9545 -0.5763
 4379TIP3   OH213142   2.126   4.985   5.021  0.5261 -0.1518  0.3127
 4379TIP3    H113143   2.065   5.036   5.076  1.4505  0.8236  0.4591
 4379TIP3    H213144   2.210   5.030   5.030  0.9325 -0.5784 -1.1115
 4380TIP3   OH213145   4.604   5.573   0.272 -0.2583 -0.7776  0.1302
 4380TIP3    H113146   4.564   5.565   0.185  2.0708 -1.6259 -0.9235
 4380TIP3    H213147   4.542   5.528   0.330 -0.9681 -1.8650 -1.3911
 4381TIP3   OH213148   3.315   0.334   3.732  0.1385  0.2216  0.3464
 4381TIP3    H113149   3.393   0.363   3.780  0.0448  0.3758  0.4062
 4381TIP3    H213150   3.281   0.414   3.691 -0.7368  0.3955  1.3777
 4382TIP3   OH213151   5.624   0.226   0.990  0.7587  0.1321 -0.4590
 4382TIP3    H113152   5.569   0.218   1.068  0.9652  0.2220 -0.3020
 4382TIP3    H213153   5.690   0.290   1.014  1.1504 -0.2447 -0.5214
 4383TIP3   OH213154   6.249   1.590   2.068  0.5849  0.6801  0.0847
 4383TIP3    H113155   6.340   1.583   2.040  0.7875  0.2266  0.8103
 4383TIP3    H213156   6.237   1.682   2.090  0.3777  1.0769 -1.5850
 4384TIP3   OH213157   6.032   4.489   4.193  0.5609 -0.2833 -0.2405
 4384TIP3    H113158   6.064   4.399   4.193  1.9524  0.0825 -3.4693
 4384TIP3    H213159   6.003   4.505   4.103 -0.1209  2.3433  0.3567
 4385TIP3   OH213160   3.641   2.580   5.003 -0.0554  0.7266 -0.5618
 4385TIP3    H113161   3.558   2.621   4.981 -0.2007  1.1298  0.7225
 4385TIP3    H213162   3.642   2.573   5.098  0.1499 -1.8586 -0.6603
 4386TIP3   OH213163   5.438   2.493   1.413 -0.6953 -0.0998  0.2303
 4386TIP3    H113164   5.391   2.576   1.420  1.8498  1.4590  0.1313
 4386TIP3    H213165   5.492   2.490   1.492  1.5001 -0.0885 -1.1747
 4387TIP3   OH213166   5.789   4.561   0.364 -0.0154  0.4872  0.9629
 4387TIP3    H113167   5.775   4.496   0.296  1.8057 -1.1256  2.0246
 4387TIP3    H213168   5.742   4.639   0.333  0.2587 -0.3526 -1.8297
 4388TIP3   OH213169   3.186   1.656   0.141 -0.2088 -0.0382 -0.1554
 4388TIP3    H113170   3.276   1.638   0.170  0.0004  0.8611 -0.2255
 4388TIP3    H213171   3.144   1.570   0.139  1.4130 -0.8939 -2.7491
 4389TIP3   OH213172   0.842   2.311   4.148 -0.0948  0.2125 -0.2689
 4389TIP3    H113173   0.931   2.323   4.115 -0.0043 -0.7990 -0.4360
 4389TIP3    H213174   0.789   2.374   4.100  0.1082 -0.9083 -2.0311
 4390TIP3   OH213175   1.404   0.706   4.888  0.4129  0.4006  0.4484
 4390TIP3    H113176   1.441   0.792   4.906  2.0454  0.1385 -1.2912
 4390TIP3    H213177   1.378   0.711   4.795  3.2406 -1.8045 -0.5962
 4391TIP3   OH213178   5.879   3.298   3.726 -0.2242  0.6709  0.0435
 4391TIP3    H113179   5.974   3.313   3.730  0.2316 -1.9104  0.8454
 4391TIP3    H213180   5.867   3.244   3.648 -0.8349 -0.1639  0.7028
 4392TIP3   OH213181   2.176   1.703   1.504  0.3644  0.3080 -0.6748
 4392TIP3    H113182   2.260   1.732   1.539  0.0500  1.0453 -0.5236
 4392TIP3    H213183   2.138   1.781   1.463 -0.2269 -0.0293 -0.7824
 4393TIP3   OH213184   1.940   0.648   5.080 -0.5465  0.0636  0.1273
 4393TIP3    H113185   1.894   0.570   5.049 -0.9066  0.1613  0.4132
 4393TIP3    H213186   1.891   0.722   5.043 -1.2490  0.1978  1.2607
 4394TIP3   OH213187   3.703   4.426   1.432  0.1128  0.1604 -0.1068
 4394TIP3    H113188   3.774   4.478   1.469  0.0359  0.0027  0.2662
 4394TIP3    H213189   3.637   4.491   1.407 -0.5151  0.1757  1.4962
 4395TIP3   OH213190   5.737   4.276   3.259  0.0575  0.0914 -0.1590
 4395TIP3    H113191   5.783   4.284   3.175  1.2258  1.5624  0.5809
 4395TIP3    H213192   5.656   4.229   3.237  0.8167 -0.4932 -1.9102
 4396TIP3   OH213193   5.024   4.993   4.722 -0.2747 -0.1580  0.3201
 4396TIP3    H113194   4.949   4.963   4.670 -0.4908 -0.2065  0.6492
 4396TIP3    H213195   4.992   5.071   4.767 -0.9021 -1.4200  2.2132
 4397TIP3   OH213196   5.769   5.686   1.158  0.7147  0.0398 -0.1059
 4397TIP3    H113197   5.764   5.654   1.247  0.6362  0.3178 -0.0088
 4397TIP3    H213198   5.829   5.761   1.162  2.5545 -1.3453 -0.7035
 4398TIP3   OH213199   5.956   3.090   2.533  0.0975  0.4110 -0.2553
 4398TIP3    H113200   6.030   3.126   2.484  0.0027 -0.5755 -1.1620
 4398TIP3    H213201   5.892   3.067   2.466 -0.4823  0.0351  0.4194
 4399TIP3   OH213202   2.617   2.050   0.463  0.4068 -0.5503 -0.3371
 4399TIP3    H113203   2.627   2.111   0.390 -0.6979 -0.5423 -0.4970
 4399TIP3    H213204   2.689   2.071   0.522  0.9578 -0.1485 -1.1310
 4400TIP3   OH213205   4.176   0.718   0.206  0.5443  0.0527 -0.3863
 4400TIP3    H113206   4.174   0.764   0.290 -0.1759 -2.5382  1.1215
 4400TIP3    H213207   4.091   0.737   0.166 -0.3267 -0.9713  0.8676
 4401TIP3   OH213208   1.569   4.464   0.291  0.6225  0.6437 -0.2203
 4401TIP3    H113209   1.508   4.392   0.273 -1.5371  2.3975 -0.2368
 4401TIP3    H213210   1.652   4.435   0.252  0.2077 -2.3672  0.8719
 4402TIP3   OH213211   0.044   2.114   2.831 -0.1272 -0.3899 -0.2439
 4402TIP3    H113212   0.126   2.071   2.805  0.3475 -0.4823  1.2981
 4402TIP3    H213213   0.036   2.095   2.924 -2.3779 -1.1395 -0.5177
 4403TIP3   OH213214   2.311   0.451   4.134 -0.2050  0.4310 -0.1018
 4403TIP3    H113215   2.360   0.532   4.147 -0.3956  0.6325 -0.6086
 4403TIP3    H213216   2.263   0.438   4.216  2.2414 -0.8672  1.2414
 4404TIP3   OH213217   3.215   2.056   0.477  0.2196 -0.6895 -0.6246
 4404TIP3    H113218   3.172   2.137   0.452  0.5625 -0.6493 -1.0913
 4404TIP3    H213219   3.299   2.058   0.431  0.4289 -1.0884 -0.2698
 4405TIP3   OH213220   0.588   5.091   4.625  0.4190 -0.1231 -0.4449
 4405TIP3    H113221   0.533   5.088   4.547  0.5924  1.2926 -0.6484
 4405TIP3    H213222   0.565   5.011   4.673 -0.8928 -0.1983 -1.1397
 4406TIP3   OH213223   5.993   0.552   0.296 -0.3224  0.3430  0.2975
 4406TIP3    H113224   5.960   0.563   0.386 -1.3147 -1.3336  0.1881
 4406TIP3    H213225   6.058   0.621   0.285 -0.2248  0.6205  2.2931
 4407TIP3   OH213226   4.804   2.717   1.161  0.1196  0.0081  0.9438
 4407TIP3    H113227   4.859   2.709   1.239 -0.5921 -1.8801  1.2946
 4407TIP3    H213228   4.766   2.630   1.148 -0.5085  0.5064 -0.9866
 4408TIP3   OH213229   1.282   5.376   0.809  0.2408  0.2282  0.5803
 4408TIP3    H113230   1.193   5.377   0.772 -0.0283  2.1168  1.1608
 4408TIP3    H213231   1.281   5.305   0.873 -0.3433 -0.8163 -0.5589
 4409TIP3   OH213232   0.753   2.344   0.809 -0.5486 -0.7764  0.0164
 4409TIP3    H113233   0.686   2.299   0.757 -1.4936 -0.4274  0.9042
 4409TIP3    H213234   0.833   2.294   0.792 -0.7715 -0.5885 -1.8822
 4410TIP3   OH213235   3.277   0.641   3.245 -0.1278 -0.2241 -0.3795
 4410TIP3    H113236   3.265   0.617   3.154  0.2591 -1.6699 -0.0680
 4410TIP3    H213237   3.243   0.567   3.295  1.6948 -0.4586  0.6155
 4411TIP3   OH213238   3.215   4.736   3.404  0.0447 -0.2305 -0.3994
 4411TIP3    H113239   3.167   4.760   3.324  0.0340  0.6339 -0.1466
 4411TIP3    H213240   3.291   4.688   3.372 -0.5690 -0.9153 -0.8527
 4412TIP3   OH213241   5.135   4.379   1.118  0.3247 -0.1286 -0.5588
 4412TIP3    H113242   5.205   4.317   1.102  0.3558 -0.5961  1.1847
 4412TIP3    H213243   5.142   4.401   1.211 -2.3093 -0.8267 -0.0958
 4413TIP3   OH213244   2.449   5.333   4.293 -0.3402  0.1745 -0.1011
 4413TIP3    H113245   2.402   5.407   4.255  0.4617 -0.8458 -3.3666
 4413TIP3    H213246   2.403   5.256   4.260  0.6758 -0.8221  0.7379
 4414TIP3   OH213247   1.370   5.216   4.105 -0.2212 -0.4550 -0.8826
 4414TIP3    H113248   1.299   5.153   4.092 -0.5032 -0.2487 -0.3916
 4414TIP3    H213249   1.445   5.177   4.060 -0.8350 -0.3031 -2.0618
 4415TIP3   OH213250   0.422   1.079   0.509  0.3393 -0.6649  0.5619
 4415TIP3    H113251   0.463   1.076   0.422 -1.1799 -0.1241 -0.2231
 4415TIP3    H213252   0.453   1.161   0.546  1.1202 -0.9704  0.6038
 4416TIP3   OH213253   4.825   0.364   5.103  0.3213  0.2371  0.0315
 4416TIP3    H113254   4.853   0.290   5.157 -0.6748  0.7815  1.3717
 4416TIP3    H213255   4.746   0.395   5.146  0.5590  1.9056 -0.6819
 4417TIP3   OH213256   1.318   3.139   3.608  0.4236 -0.2763 -0.3951
 4417TIP3    H113257   1.289   3.230   3.606  0.7365 -0.1653  0.0522
 4417TIP3    H213258   1.410   3.141   3.582  0.2046 -0.5648 -1.2241
 4418TIP3   OH213259   2.575   3.279   1.833  0.1625 -0.6698  0.3050
 4418TIP3    H113260   2.542   3.347   1.892 -1.2491 -0.1975 -0.9492
 4418TIP3    H213261   2.653   3.245   1.876 -1.4814 -1.2212  3.0576
 4419TIP3   OH213262   0.796   4.247   3.487  0.3410  0.2135 -0.4601
 4419TIP3    H113263   0.817   4.164   3.532 -0.3002  0.0539 -0.4467
 4419TIP3    H213264   0.761   4.220   3.402  3.5648  0.5351 -2.0488
 4420TIP3   OH213265   4.061   1.438   0.608 -0.3617  0.2528  0.4487
 4420TIP3    H113266   4.045   1.344   0.611  1.5006 -0.1735 -0.7146
 4420TIP3    H213267   4.085   1.461   0.698  0.9794 -0.7962  0.4019
 4421TIP3   OH213268   4.908   5.340   0.581 -0.4761  0.3964 -0.1664
 4421TIP3    H113269   4.854   5.398   0.527 -1.4458 -0.4447 -0.1361
 4421TIP3    H213270   4.848   5.270   0.608 -0.0618  0.8594  2.1200
 4422TIP3   OH213271   5.291   1.452   1.030  0.1235  0.1564 -0.1734
 4422TIP3    H113272   5.355   1.453   1.101  1.5689  0.6541 -1.4294
 4422TIP3    H213273   5.308   1.370   0.983 -2.6473 -1.5947  1.5458
 4423TIP3   OH213274   5.094   5.346   3.000  0.3473 -0.3814  0.2583
 4423TIP3    H113275   5.075   5.280   2.934  2.2232  0.5432 -1.3015
 4423TIP3    H213276   5.151   5.302   3.063  0.1121 -0.7382  0.2249
 4424TIP3   OH213277   4.655   3.115   3.923  0.9967 -0.2968  0.2054
 4424TIP3    H113278   4.705   3.157   3.993 -0.2657  0.7945  0.4810
 4424TIP3    H213279   4.703   3.034   3.904  2.3283  0.2675  1.0962
 4425TIP3   OH213280   6.086   3.800   4.582  0.4862  0.2507 -0.3634
 4425TIP3    H113281   6.110   3.797   4.490  0.1731  0.4040 -0.4497
 4425TIP3    H213282   6.056   3.890   4.597  0.8403  0.3176 -0.0349
 4426TIP3   OH213283   3.935   2.958   3.008 -0.5644  0.1224  0.1626
 4426TIP3    H113284   3.897   3.044   2.989  0.9486  0.4225 -1.7994
 4426TIP3    H213285   3.896   2.899   2.944 -1.4906 -0.6724  1.4141
 4427TIP3   OH213286   4.251   3.402   1.672 -0.7963  0.7167  0.2980
 4427TIP3    H113287   4.320   3.336   1.677  1.2766  2.4309 -2.6540
 4427TIP3    H213288   4.170   3.354   1.692  0.8951 -2.0430  0.9857
 4428TIP3   OH213289   2.152   3.830   0.181  0.2194 -0.7650  0.0240
 4428TIP3    H113290   2.154   3.771   0.257  1.4796  0.5773  1.1021
 4428TIP3    H213291   2.170   3.916   0.218  0.4541 -0.0039 -1.7752
 4429TIP3   OH213292   4.272   5.842   0.981  0.1372  0.3114 -0.2417
 4429TIP3    H113293   4.177   5.838   0.969  0.1767  0.6611 -0.7283
 4429TIP3    H213294   4.287   5.812   1.071 -0.2306 -2.0012 -0.8874
 4430TIP3   OH213295   1.687   1.369   0.898  0.1117 -0.3253  0.4602
 4430TIP3    H113296   1.732   1.328   0.824  0.8689 -0.5103  1.0207
 4430TIP3    H213297   1.735   1.341   0.975 -0.6584 -0.1119  1.0355
 4431TIP3   OH213298   0.860   5.335   2.800  0.2473 -0.0030  0.1946
 4431TIP3    H113299   0.775   5.294   2.815  0.9668 -2.2819 -1.3864
 4431TIP3    H213300   0.915   5.303   2.872 -0.3167  2.0358  1.6295
 4432TIP3   OH213301   3.326   5.340   2.732  0.1345 -0.5244 -0.3468
 4432TIP3    H113302   3.278   5.423   2.739  0.8275 -0.1980  0.8320
 4432TIP3    H213303   3.410   5.364   2.694  0.1439 -0.7751 -0.4859
 4433TIP3   OH213304   1.351   1.671   0.096  0.1024  0.1289 -0.1974
 4433TIP3    H113305   1.318   1.754   0.061 -2.8490  0.0767  2.0114
 4433TIP3    H213306   1.435   1.693   0.135  0.7236  1.3839 -2.0891
 4434TIP3   OH213307   3.094   3.888   2.774  0.7073 -0.3190  0.0028
 4434TIP3    H113308   3.112   3.968   2.823  1.2902 -1.4747  1.7611
 4434TIP3    H213309   3.153   3.893   2.699 -0.7455  1.8436 -1.0964
 4435TIP3   OH213310   5.925   5.916   2.814 -0.1162 -0.2566  0.4524
 4435TIP3    H113311   5.892   6.005   2.821 -0.9133 -0.4969 -0.1568
 4435TIP3    H213312   5.869   5.865   2.873  0.9481 -0.2158  1.5502
 4436TIP3   OH213313   1.262   3.456   2.579 -0.3137  0.2285 -0.1167
 4436TIP3    H113314   1.314   3.535   2.563  0.2912 -0.4252 -1.5261
 4436TIP3    H213315   1.217   3.440   2.496 -1.5042 -0.1474  0.5841
 4437TIP3   OH213316   0.103   2.119   5.068  0.1160  0.3900 -0.1056
 4437TIP3    H113317   0.154   2.041   5.090 -0.2329  0.2770  0.2966
 4437TIP3    H213318   0.161   2.169   5.009  0.1432 -0.4062 -0.7701
 4438TIP3   OH213319   2.135   5.382   1.703  0.3486  0.0927  0.1803
 4438TIP3    H113320   2.123   5.302   1.652  3.4521  0.2158 -0.9422
 4438TIP3    H213321   2.142   5.452   1.638  2.8552  0.4747  0.7534
 4439TIP3   OH213322   2.914   5.742   1.204 -0.3287  0.3037  0.2198
 4439TIP3    H113323   2.883   5.811   1.262  1.5440  0.0809  1.6046
 4439TIP3    H213324   2.906   5.661   1.255 -1.1207 -0.3023 -0.8293
 4440TIP3   OH213325   3.469   1.724   3.175  1.0626  0.2829 -0.3723
 4440TIP3    H113326   3.546   1.779   3.192  2.5911 -1.1389 -2.3070
 4440TIP3    H213327   3.503   1.634   3.174 -0.2319 -0.2748 -2.9941
 4441TIP3   OH213328   3.073   4.823   3.178  0.2687 -0.1249 -0.5666
 4441TIP3    H113329   3.129   4.885   3.132  0.9283 -0.3994 -0.1343
 4441TIP3    H213330   2.985   4.859   3.167  0.7502  1.5344  0.6827
 4442TIP3   OH213331   4.041   4.300   0.960 -0.5614 -0.2396  0.6643
 4442TIP3    H113332   3.977   4.232   0.982  0.3097 -0.9071  1.2217
 4442TIP3    H213333   4.100   4.258   0.897 -0.0838  0.0282  0.9240
 4443TIP3   OH213334   1.275   1.063   3.950 -0.0396  0.1964  0.3675
 4443TIP3    H113335   1.203   1.001   3.957  1.2550 -1.3752  0.3043
 4443TIP3    H213336   1.253   1.117   3.874 -1.9523  0.9277  1.3494
 4444TIP3   OH213337   2.881   2.973   4.455 -0.0991 -0.1945 -0.2610
 4444TIP3    H113338   2.793   2.965   4.490 -1.1019 -0.1890 -2.6208
 4444TIP3    H213339   2.897   3.067   4.450 -0.0131 -0.1931  0.0474
 4445TIP3   OH213340   1.701   4.075   4.870 -0.5999 -0.3991  0.0137
 4445TIP3    H113341   1.744   3.991   4.889  0.8346  0.4185  0.5486
 4445TIP3    H213342   1.646   4.092   4.946 -0.1847 -0.4202  0.3227
 4446TIP3   OH213343   2.978   1.909   0.867  0.2795  0.1620  0.0871
 4446TIP3    H113344   2.886   1.936   0.880 -0.5264 -1.7810 -1.1364
 4446TIP3    H213345   2.975   1.814   0.871  2.3878  0.0911  0.6601
 4447TIP3   OH213346   0.862   4.251   5.149  0.6754 -0.1182  0.1546
 4447TIP3    H113347   0.935   4.230   5.091 -0.3685 -1.1604 -0.8254
 4447TIP3    H213348   0.872   4.190   5.222  1.5410  0.6637  0.7090
 4448TIP3   OH213349   3.215   0.019   2.214  0.6832  0.3805 -0.2102
 4448TIP3    H113350   3.148   0.087   2.214  0.6239  0.3313 -0.9553
 4448TIP3    H213351   3.245   0.014   2.305  0.0776  0.7931  0.0142
 4449TIP3   OH213352   2.262   1.091   0.034 -0.0076 -0.7401  0.4149
 4449TIP3    H113353   2.352   1.060   0.020  0.2902  0.3937 -0.3628
 4449TIP3    H213354   2.207   1.026  -0.009  0.5338 -0.7773 -0.2395
 4450TIP3   OH213355   3.789   5.097   0.718  0.6469 -0.0678 -0.0838
 4450TIP3    H113356   3.723   5.101   0.787  0.6416 -0.5987 -0.0544
 4450TIP3    H213357   3.740   5.103   0.637  0.5345 -0.6829 -0.0678
 4451TIP3   OH213358   1.811   1.203   0.677 -0.3901 -0.2923  0.0516
 4451TIP3    H113359   1.879   1.137   0.665 -2.1016 -1.9865 -1.0294
 4451TIP3    H213360   1.730   1.153   0.684 -1.6519  1.6697  0.4607
 4452TIP3   OH213361   4.422   1.069   5.082 -0.4974 -0.2906 -0.0873
 4452TIP3    H113362   4.461   1.008   5.145 -0.6686 -2.0807 -1.6124
 4452TIP3    H213363   4.355   1.115   5.133  0.0829 -0.8879  1.2960
 4453TIP3   OH213364   2.747   2.153   2.621 -0.0416 -0.6515  0.4874
 4453TIP3    H113365   2.736   2.178   2.713  3.7898 -2.2276  1.5616
 4453TIP3    H213366   2.696   2.072   2.612 -0.2886 -0.5865  1.2719
 4454TIP3   OH213367   2.814   0.313   3.978 -0.6435 -0.6066  0.2914
 4454TIP3    H113368   2.786   0.238   3.926 -1.4407 -1.3145  1.6905
 4454TIP3    H213369   2.903   0.293   4.006 -1.1126 -1.4063  1.2739
 4455TIP3   OH213370   0.431   1.853   3.028 -0.4101 -0.0566  0.0006
 4455TIP3    H113371   0.355   1.854   3.086  0.2617 -1.3719  0.9576
 4455TIP3    H213372   0.424   1.771   2.980 -1.4791  1.4249 -2.5914
 4456TIP3   OH213373   0.667   4.981   3.685  0.0944 -0.6082 -0.1428
 4456TIP3    H113374   0.687   5.022   3.769  0.9423 -0.2518 -0.5008
 4456TIP3    H213375   0.634   5.052   3.630 -1.4806 -1.0433  0.1948
 4457TIP3   OH213376   0.207   1.825   3.223 -0.8909 -0.3193 -0.0872
 4457TIP3    H113377   0.185   1.865   3.308 -1.0165  1.8560 -1.0740
 4457TIP3    H213378   0.123   1.815   3.179 -0.8187 -1.3919 -0.0028
 4458TIP3   OH213379   6.234   1.287   0.151  0.4151  0.5889 -0.3425
 4458TIP3    H113380   6.269   1.302   0.063  1.0065  1.5074  0.0402
 4458TIP3    H213381   6.269   1.359   0.203 -0.9128  0.7386  0.3767
 4459TIP3   OH213382   5.410   5.724   3.740 -0.4430  0.9149  0.1867
 4459TIP3    H113383   5.459   5.803   3.719  2.7478 -0.9972 -0.2054
 4459TIP3    H213384   5.363   5.703   3.659  2.3158  0.0891 -1.3615
 4460TIP3   OH213385   1.174   4.052   4.634 -0.4034  0.2245  0.0931
 4460TIP3    H113386   1.196   3.961   4.655 -0.4409  0.3402  0.6635
 4460TIP3    H213387   1.258   4.098   4.638 -0.3489  0.1735 -0.4310
 4461TIP3   OH213388   3.167   2.587   0.876 -0.0718  0.0342  0.5855
 4461TIP3    H113389   3.147   2.670   0.918 -0.2901  0.7627 -0.9227
 4461TIP3    H213390   3.089   2.566   0.825  0.3901 -0.5615  0.1085
 4462TIP3   OH213391   5.228   5.571   2.532  0.3054  0.2591 -0.2739
 4462TIP3    H113392   5.247   5.646   2.589 -0.3121 -0.2991  0.7127
 4462TIP3    H213393   5.143   5.591   2.494  0.3569  0.2720 -0.3823
 4463TIP3   OH213394   5.765   3.992   3.116 -0.3531 -0.0063  1.0727
 4463TIP3    H113395   5.673   4.013   3.096 -0.7211 -2.0328  0.4517
 4463TIP3    H213396   5.804   3.973   3.031  0.6391  0.7311  1.3447
 4464TIP3   OH213397   2.574   3.158   4.773  0.0729 -0.3860 -0.9214
 4464TIP3    H113398   2.644   3.220   4.751  1.0773 -0.7981  0.9187
 4464TIP3    H213399   2.494   3.211   4.772  0.8542  0.8849  0.1917
 4465TIP3   OH213400   3.746   0.320   0.394 -0.5333 -0.0128 -0.0813
 4465TIP3    H113401   3.721   0.407   0.362 -1.1031 -0.3703 -0.6267
 4465TIP3    H213402   3.733   0.326   0.489  1.2442  1.0712  0.1479
 4466TIP3   OH213403   0.352   3.373   1.547 -0.1169 -0.3601  0.1341
 4466TIP3    H113404   0.447   3.381   1.538 -0.0717  1.3524  1.7753
 4466TIP3    H213405   0.327   3.317   1.473  2.3033 -2.0754  0.4650
 4467TIP3   OH213406   4.045   4.339   2.871 -0.2346  0.1637  0.6343
 4467TIP3    H113407   4.022   4.390   2.948  0.4040  0.6469  0.5132
 4467TIP3    H213408   4.046   4.403   2.799  0.9376  0.0687  0.5443
 4468TIP3   OH213409   4.258   0.384   1.289 -0.3555  0.1809 -0.3027
 4468TIP3    H113410   4.259   0.308   1.230  1.2871  1.3211 -1.8674
 4468TIP3    H213411   4.327   0.441   1.255 -0.2311  1.5128  1.9892
 4469TIP3   OH213412   3.223   3.533   1.764  0.2546 -0.2652 -0.8115
 4469TIP3    H113413   3.217   3.611   1.820 -1.9837 -0.7848 -0.2275
 4469TIP3    H213414   3.303   3.489   1.791 -0.1924  0.0980  1.2206
 4470TIP3   OH213415   4.225   0.142   0.121  0.2942  0.0101  0.1407
 4470TIP3    H113416   4.209   0.061   0.072  0.2602  0.4913 -0.6676
 4470TIP3    H213417   4.145   0.193   0.109  0.9285  0.8448 -0.7559
 4471TIP3   OH213418   5.710   4.283   4.949 -0.1387 -0.1054 -0.0648
 4471TIP3    H113419   5.744   4.234   5.024 -1.9237  1.9345  2.2564
 4471TIP3    H213420   5.633   4.234   4.922  1.1130 -1.4585 -1.4360
 4472TIP3   OH213421   2.700   5.413   3.082 -0.0868  0.6670 -0.0757
 4472TIP3    H113422   2.744   5.409   2.997  0.9448  4.3802  0.1214
 4472TIP3    H213423   2.646   5.492   3.077 -0.5659  0.5740  2.4825
 4473TIP3   OH213424   1.821   5.406   0.875 -0.1525 -0.0105 -0.1138
 4473TIP3    H113425   1.735   5.410   0.917  0.8178  1.0648  1.8890
 4473TIP3    H213426   1.870   5.343   0.927  0.5054 -0.1379 -0.8634
 4474TIP3   OH213427   5.138   2.084   0.327 -0.0699 -0.9254  0.2820
 4474TIP3    H113428   5.062   2.096   0.270  1.0946 -0.0680 -1.1626
 4474TIP3    H213429   5.103   2.090   0.416 -1.5848  0.2429 -0.3548
 4475TIP3   OH213430   1.200   5.212   1.413  0.1303  0.2437  0.2518
 4475TIP3    H113431   1.146   5.184   1.487 -2.0028  2.3858 -0.3900
 4475TIP3    H213432   1.272   5.261   1.453 -1.1035  1.5427  0.9340
 4476TIP3   OH213433   2.825   4.509   0.841 -0.6300  0.0214 -0.1924
 4476TIP3    H113434   2.916   4.531   0.819 -0.6495  0.8476  0.5285
 4476TIP3    H213435   2.788   4.590   0.875 -1.7334 -0.2367 -0.7373
 4477TIP3   OH213436   4.123   2.595   3.650  0.0282  0.2246 -0.7759
 4477TIP3    H113437   4.161   2.640   3.725  0.2971  0.7468 -1.2181
 4477TIP3    H213438   4.032   2.625   3.647  0.2846  0.9910 -1.2466
 4478TIP3   OH213439   0.687   1.292   3.758  0.0408  0.0672 -0.2846
 4478TIP3    H113440   0.747   1.261   3.690 -1.3644  0.1146 -1.6212
 4478TIP3    H213441   0.654   1.376   3.724  1.2352  1.4102  1.6906
 4479TIP3   OH213442   2.343   2.288   1.137  0.6929 -0.2387  0.1032
 4479TIP3    H113443   2.413   2.345   1.105 -0.3193  0.3885 -1.0729
 4479TIP3    H213444   2.281   2.282   1.064 -0.2027 -1.2494  0.9089
 4480TIP3   OH213445   2.648   5.330   0.962 -0.0794 -0.1780  0.2418
 4480TIP3    H113446   2.634   5.238   0.943  0.9750 -0.4996  0.9304
 4480TIP3    H213447   2.580   5.376   0.912  0.5306 -1.1787 -1.5905
 4481TIP3   OH213448   0.836   5.470   0.842  0.3425  0.3375  0.3010
 4481TIP3    H113449   0.873   5.452   0.929  0.3174 -1.8699 -0.0812
 4481TIP3    H213450   0.879   5.408   0.784 -0.1363  1.3211 -1.1621
 4482TIP3   OH213451   1.568   2.810   0.723  0.0211 -0.3593 -0.1447
 4482TIP3    H113452   1.491   2.785   0.774  0.9135 -2.6946  0.1882
 4482TIP3    H213453   1.553   2.769   0.637 -0.4830  1.7563 -1.1262
 4483TIP3   OH213454   5.133   3.078   0.593  0.7475  0.0095  0.0467
 4483TIP3    H113455   5.201   3.123   0.543  1.3789  0.1470  1.0040
 4483TIP3    H213456   5.071   3.148   0.617 -0.1454 -0.2307 -1.4354
 4484TIP3   OH213457   3.215   1.506   1.969  0.0140  1.3114  0.3374
 4484TIP3    H113458   3.122   1.492   1.953  0.1856  1.6879 -1.1114
 4484TIP3    H213459   3.243   1.426   2.014 -1.3539  1.9670  2.5107
 4485TIP3   OH213460   4.621   1.238   0.849  0.3829 -0.1777 -1.4970
 4485TIP3    H113461   4.714   1.251   0.831  1.0694  0.4629  1.8672
 4485TIP3    H213462   4.580   1.322   0.825  0.4525 -0.6998 -3.6742
 4486TIP3   OH213463   3.990   1.662   3.685 -0.7030  0.0444 -0.1420
 4486TIP3    H113464   4.079   1.650   3.719  0.4733 -0.6775 -3.1794
 4486TIP3    H213465   3.979   1.757   3.680  0.5315  0.1619 -1.1592
 4487TIP3   OH213466   5.883   3.997   4.429  0.2214  0.4174  0.6319
 4487TIP3    H113467   5.820   4.010   4.358 -0.9844  0.8341  1.7356
 4487TIP3    H213468   5.955   3.948   4.389 -0.7452  0.0417 -0.7057
 4488TIP3   OH213469   0.074   1.430   1.100  0.4137  0.3525 -0.0101
 4488TIP3    H113470   0.086   1.464   1.188 -0.0091 -0.5761  0.4271
 4488TIP3    H213471   0.118   1.493   1.043  0.8985  0.8398  0.8813
 4489TIP3   OH213472   0.395   1.769   1.239 -0.2786 -0.1292  0.0100
 4489TIP3    H113473   0.337   1.834   1.279 -1.9799 -2.5435  1.7818
 4489TIP3    H213474   0.381   1.779   1.145 -1.9269  0.8072  0.3102
 4490TIP3   OH213475   1.306   3.004   2.448 -0.0810 -0.1944 -0.0434
 4490TIP3    H113476   1.351   3.041   2.524 -0.6836 -0.9790  0.7075
 4490TIP3    H213477   1.375   2.992   2.383  0.1623  2.2135 -0.3420
 4491TIP3   OH213478   1.816   4.263   2.148 -0.1196  0.1209  0.6729
 4491TIP3    H113479   1.895   4.265   2.203  0.6855 -1.6802 -0.3159
 4491TIP3    H213480   1.744   4.260   2.210  0.5440  1.9449  1.6115
 4492TIP3   OH213481   3.269   4.453   4.553 -0.2512 -0.2130 -0.2659
 4492TIP3    H113482   3.302   4.542   4.538 -0.0416 -0.2560 -0.0647
 4492TIP3    H213483   3.294   4.434   4.643 -0.0765 -0.5689 -0.3876
 4493TIP3   OH213484   0.356   4.983   3.480 -0.3831 -0.5774  0.0132
 4493TIP3    H113485   0.380   4.915   3.418 -2.3596 -0.2373 -1.1903
 4493TIP3    H213486   0.261   4.987   3.477 -0.3847  1.5744  0.7736
 4494TIP3   OH213487   1.632   2.563   1.688 -0.1827 -0.1474 -0.1036
 4494TIP3    H113488   1.660   2.639   1.637 -1.0286 -0.2919 -0.8116
 4494TIP3    H213489   1.598   2.502   1.623 -0.0251 -0.9015  0.5159
 4495TIP3   OH213490   2.299   2.121   2.038 -0.2420  0.3046  0.2978
 4495TIP3    H113491   2.234   2.067   2.082 -0.6794  0.4575 -0.1473
 4495TIP3    H213492   2.296   2.093   1.947  1.1541 -0.5001  0.4773
 4496TIP3   OH213493   1.520   1.981   3.136 -0.2400  0.0973 -0.2756
 4496TIP3    H113494   1.436   1.997   3.178 -0.7844 -1.7256 -0.5634
 4496TIP3    H213495   1.584   2.026   3.191 -1.1661 -0.3616  1.2352
 4497TIP3   OH213496   2.858   0.984   4.175 -0.1669 -0.3629  0.0252
 4497TIP3    H113497   2.857   1.001   4.081  0.4411  0.5185  0.1694
 4497TIP3    H213498   2.895   0.896   4.183  1.6223  0.2965 -0.4760
 4498TIP3   OH213499   5.603   5.453   2.468 -0.2036 -0.4285  0.2556
 4498TIP3    H113500   5.629   5.400   2.393 -0.2192 -0.2594  0.1311
 4498TIP3    H213501   5.626   5.542   2.444 -1.8494 -0.1283 -0.2876
 4499TIP3   OH213502   5.726   1.174   2.315  0.4257 -0.6647  0.3621
 4499TIP3    H113503   5.646   1.121   2.313  0.3967 -0.6225 -1.0919
 4499TIP3    H213504   5.767   1.158   2.230  0.5584  1.4181 -0.0284
 4500TIP3   OH213505   1.029   4.528   0.741 -0.3134  0.4726 -0.3604
 4500TIP3    H113506   0.941   4.530   0.704  0.0558  1.2765 -1.2451
 4500TIP3    H213507   1.029   4.595   0.808 -0.2038  0.9172 -0.7977
 4501TIP3   OH213508   2.738   5.379   1.643 -0.2931  0.1598 -0.2766
 4501TIP3    H113509   2.808   5.444   1.652 -0.1286  0.1431 -1.3067
 4501TIP3    H213510   2.777   5.297   1.675 -0.2811  0.4137  0.3792
 4502TIP3   OH213511   2.127   4.487   3.141  0.6150 -0.7588 -0.1074
 4502TIP3    H113512   2.094   4.397   3.142  0.4024 -0.6810  0.2117
 4502TIP3    H213513   2.061   4.535   3.092 -0.4836 -0.3421  1.6769
 4503TIP3   OH213514   1.606   1.357   2.891  0.4433  0.3368 -0.4098
 4503TIP3    H113515   1.613   1.441   2.847  2.1445  0.3990 -0.0933
 4503TIP3    H213516   1.672   1.302   2.850  0.9243 -0.1181  0.8962
 4504TIP3   OH213517   3.445   1.247   2.714 -0.2103  0.3324 -0.2228
 4504TIP3    H113518   3.361   1.255   2.759 -0.8109 -0.0415 -1.2435
 4504TIP3    H213519   3.457   1.331   2.670  0.2838  0.6282  0.4610
 4505TIP3   OH213520   0.014   0.053   4.515 -0.0483  0.3247  0.0905
 4505TIP3    H113521  -0.036  -0.006   4.458  0.3847  0.9110 -0.9274
 4505TIP3    H213522   0.035   0.000   4.592 -1.9332 -0.0301  0.3967
 4506TIP3   OH213523   0.221   5.449   3.585  0.2800  0.0840  0.4452
 4506TIP3    H113524   0.234   5.409   3.499 -0.5223  0.8338 -0.0413
 4506TIP3    H213525   0.224   5.376   3.646  0.2299 -0.5370 -0.2788
 4507TIP3   OH213526   2.558   4.212   1.243  0.6350 -0.2016 -0.2537
 4507TIP3    H113527   2.511   4.183   1.165 -2.2162 -1.9874  1.9072
 4507TIP3    H213528   2.523   4.158   1.314  1.8946  2.3540  2.5692
 4508TIP3   OH213529   4.298   0.648   3.213 -0.1985 -0.2641  0.5531
 4508TIP3    H113530   4.324   0.673   3.302 -0.3980 -1.7629  1.0512
 4508TIP3    H213531   4.298   0.731   3.165  0.7103  0.4661  1.7356
 4509TIP3   OH213532   5.600   5.546   3.390 -0.0188 -0.0986 -0.3052
 4509TIP3    H113533   5.550   5.503   3.320 -1.0659  0.1824  0.2480
 4509TIP3    H213534   5.592   5.487   3.465 -0.4509  0.4802  0.1101
 4510TIP3   OH213535   6.020   3.996   0.557 -0.1929  0.2125 -0.3351
 4510TIP3    H113536   6.079   3.954   0.494  1.1219  1.9056 -0.2971
 4510TIP3    H213537   5.988   4.074   0.511 -0.6020  0.5188  0.4636
 4511TIP3   OH213538   4.888   4.442   5.093  0.3342 -1.0028  0.0209
 4511TIP3    H113539   4.837   4.507   5.043  0.0852 -1.6325 -0.5622
 4511TIP3    H213540   4.953   4.410   5.031  0.8324 -0.8944  0.4822
 4512TIP3   OH213541   4.028   0.909   0.344 -0.2159  0.1831  0.2583
 4512TIP3    H113542   3.954   0.910   0.405  0.5522  1.4683  1.2117
 4512TIP3    H213543   3.989   0.930   0.259 -1.2572 -1.3430  0.3173
 4513TIP3   OH213544   3.191   4.368   3.171 -0.4966 -0.7703 -0.2393
 4513TIP3    H113545   3.183   4.457   3.136 -1.5654 -1.0909 -0.8563
 4513TIP3    H213546   3.121   4.319   3.127  0.4784 -2.0700 -0.3964
 4514TIP3   OH213547   5.846   0.334   3.103  0.5273 -0.0742 -0.3809
 4514TIP3    H113548   5.775   0.364   3.047  0.4576  0.3468 -0.0786
 4514TIP3    H213549   5.812   0.255   3.145  0.0143  0.4395  0.1940
 4515TIP3   OH213550   5.413   2.848   3.935 -0.1738 -0.3649 -0.5756
 4515TIP3    H113551   5.368   2.767   3.910 -0.8500  0.2467 -1.3850
 4515TIP3    H213552   5.488   2.853   3.876  1.5042 -1.7942  1.2912
 4516TIP3   OH213553   3.809   4.208   2.385 -0.4997 -0.1408  0.1487
 4516TIP3    H113554   3.884   4.161   2.349 -0.9495 -1.5160  0.9580
 4516TIP3    H213555   3.811   4.187   2.479 -3.0427 -1.8447 -0.1082
 4517TIP3   OH213556   2.946   3.453   4.803 -0.1526  0.1737 -0.0174
 4517TIP3    H113557   2.983   3.428   4.888 -0.2985  0.2791  0.0788
 4517TIP3    H213558   2.935   3.548   4.808 -0.8281  0.0945  0.1211
 4518TIP3   OH213559   5.810   2.584   4.843  0.3395  0.0936  0.2838
 4518TIP3    H113560   5.720   2.592   4.813  0.3278 -0.4506  0.1590
 4518TIP3    H213561   5.830   2.490   4.835  0.7239  0.1194  0.8576
 4519TIP3   OH213562   2.169   1.137   2.236  0.5010 -0.0942  0.1141
 4519TIP3    H113563   2.175   1.056   2.185  0.4948  0.3057 -0.5208
 4519TIP3    H213564   2.250   1.184   2.218  0.0825  0.4885 -0.2801
 4520TIP3   OH213565   4.499   4.910   0.765 -0.1220 -0.4035 -0.2211
 4520TIP3    H113566   4.525   4.956   0.845 -0.4613  0.5579 -0.6516
 4520TIP3    H213567   4.571   4.848   0.749  0.4113  0.0668  0.3013
 4521TIP3   OH213568   5.682   0.211   1.737 -0.3913  0.0670  0.0093
 4521TIP3    H113569   5.696   0.306   1.729 -1.5119  0.1629 -1.0579
 4521TIP3    H213570   5.717   0.189   1.823  2.1968  1.0090 -0.6836
 4522TIP3   OH213571   2.855   4.837   2.904  0.0985  0.0352  0.8066
 4522TIP3    H113572   2.923   4.868   2.844  0.5596  0.1388  1.3618
 4522TIP3    H213573   2.807   4.770   2.855  0.3943  0.2003  0.2902
 4523TIP3   OH213574   3.607   2.928   0.283  0.2069 -0.1046  0.2668
 4523TIP3    H113575   3.647   3.015   0.281 -0.4458  0.2070 -1.3627
 4523TIP3    H213576   3.535   2.935   0.345  1.4698 -0.1321  1.7868
 4524TIP3   OH213577   4.080   0.790   0.854 -0.0600  0.4271  0.4111
 4524TIP3    H113578   4.013   0.784   0.786 -0.8916  2.1559  1.0210
 4524TIP3    H213579   4.049   0.731   0.923 -0.3985  0.4030  0.2392
 4525TIP3   OH213580   1.654   1.645   2.784 -0.1597 -0.0078 -0.4371
 4525TIP3    H113581   1.620   1.683   2.703  0.3221  0.9152 -0.2188
 4525TIP3    H213582   1.744   1.677   2.789 -0.6853  1.3465  1.2992
 4526TIP3   OH213583   1.665   4.179   1.934  0.3034 -0.3806 -0.5231
 4526TIP3    H113584   1.715   4.212   2.008  0.8898  0.4589 -1.2738
 4526TIP3    H213585   1.706   4.219   1.857 -0.8620 -0.4997 -1.2351
 4527TIP3   OH213586   4.478   5.863   2.928 -0.3882  0.6372 -0.1158
 4527TIP3    H113587   4.404   5.868   2.988  0.3105  1.5242  0.7168
 4527TIP3    H213588   4.516   5.951   2.929  0.8202  0.1434 -0.3119
 4528TIP3   OH213589   3.733   0.707   3.569  0.5272 -0.4610  0.1961
 4528TIP3    H113590   3.658   0.658   3.534  0.8324 -0.9138  0.1690
 4528TIP3    H213591   3.708   0.729   3.658  0.1136 -0.0842 -0.0086
 4529TIP3   OH213592   5.680   2.571   2.889 -0.6033  0.7185  0.5079
 4529TIP3    H113593   5.688   2.476   2.888  1.2314  0.8253 -1.4238
 4529TIP3    H213594   5.751   2.600   2.948  0.7623  0.9490 -1.1809
 4530TIP3   OH213595   1.251   3.493   4.811  0.2528 -0.1436  0.2554
 4530TIP3    H113596   1.259   3.458   4.723  0.4533 -0.9800  0.5943
 4530TIP3    H213597   1.185   3.562   4.804  0.5576  0.0683 -0.6168
 4531TIP3   OH213598   1.920   3.513   4.156 -0.2659  0.0513 -0.7304
 4531TIP3    H113599   2.000   3.496   4.206 -0.8191  3.3648  1.6604
 4531TIP3    H213600   1.904   3.432   4.109  4.0205 -1.0779 -0.7313
 4532TIP3   OH213601   0.605   0.103   2.704 -0.2926  0.3552 -0.4215
 4532TIP3    H113602   0.532   0.103   2.766  0.0673 -0.4766  0.0226
 4532TIP3    H213603   0.627   0.011   2.693 -0.5759  0.4495 -2.0810
 4533TIP3   OH213604   5.410   0.494   1.010 -0.2964  0.2160 -0.6018
 4533TIP3    H113605   5.471   0.421   1.022 -1.3882 -0.7882 -1.0114
 4533TIP3    H213606   5.396   0.528   1.098  0.2327 -0.0618 -0.4048
 4534TIP3   OH213607   2.078   0.242   1.011 -0.2484 -0.1443 -0.0930
 4534TIP3    H113608   2.058   0.335   1.002  0.4644  0.1253  0.9288
 4534TIP3    H213609   2.073   0.208   0.922 -2.7158  0.3804 -0.2345
 4535TIP3   OH213610   1.079   4.975   3.410  0.2699  0.5180 -0.2605
 4535TIP3    H113611   1.146   5.043   3.405  0.3606  0.6321  1.5882
 4535TIP3    H213612   1.003   5.013   3.365  1.3066  0.4960 -2.1149
 4536TIP3   OH213613   2.656   3.735   4.947 -0.3335 -0.0542  0.3523
 4536TIP3    H113614   2.597   3.791   4.998  1.4685  1.4584  0.8946
 4536TIP3    H213615   2.701   3.682   5.013 -0.9209 -1.0909 -0.0471
 4537TIP3   OH213616   3.657   4.961   1.603  0.3231 -0.2799 -0.0480
 4537TIP3    H113617   3.681   5.044   1.561 -0.0548 -0.5771 -0.8761
 4537TIP3    H213618   3.738   4.929   1.641  1.0350 -0.7331 -1.8564
 4538TIP3   OH213619   0.444   0.885   1.854  0.2974  0.3568  0.1597
 4538TIP3    H113620   0.355   0.920   1.852  0.5107  0.8685 -1.6596
 4538TIP3    H213621   0.474   0.903   1.943 -0.9171  1.4404  0.3812
 4539TIP3   OH213622   3.512   0.507   3.801  0.6390  0.0572 -0.2331
 4539TIP3    H113623   3.517   0.514   3.706 -1.1540 -1.0829 -0.4690
 4539TIP3    H213624   3.511   0.597   3.832 -0.0920  0.4715 -1.4106
 4540TIP3   OH213625   0.690   3.868   2.721 -0.0993 -0.0179 -0.4471
 4540TIP3    H113626   0.631   3.799   2.691  0.4316 -0.6690 -0.0332
 4540TIP3    H213627   0.742   3.891   2.645  0.1049 -0.4830 -0.4535
 4541TIP3   OH213628   3.197   1.307   1.124 -0.0485  0.2023 -0.4573
 4541TIP3    H113629   3.264   1.338   1.186 -0.5740 -2.3465  1.5495
 4541TIP3    H213630   3.247   1.272   1.051  0.9041 -1.1266  0.7526
 4542TIP3   OH213631   0.635   5.859   3.214  0.3062  0.1600  0.7341
 4542TIP3    H113632   0.714   5.810   3.192 -0.3309  0.1651 -1.7898
 4542TIP3    H213633   0.662   5.915   3.288  2.4380 -0.3607  0.4191
 4543TIP3   OH213634   0.883   3.534   4.443  0.1950 -0.5549  0.7814
 4543TIP3    H113635   0.846   3.484   4.371  0.3011 -1.4111  1.3023
 4543TIP3    H213636   0.807   3.575   4.486  0.2635  1.2929 -0.7496
 4544TIP3   OH213637   0.385   4.532   3.851 -0.1055 -0.1318  0.1414
 4544TIP3    H113638   0.419   4.615   3.818 -0.6525  0.0237 -0.0398
 4544TIP3    H213639   0.422   4.466   3.793 -1.3170  0.1657 -1.0098
 4545TIP3   OH213640   4.905   0.222   3.519 -0.1010  0.2088  0.1869
 4545TIP3    H113641   4.942   0.150   3.467  1.0061 -0.0382  1.2858
 4545TIP3    H213642   4.873   0.284   3.453 -1.7280 -1.5668 -0.7965
 4546TIP3   OH213643   4.401   0.189   4.642 -0.1815 -0.5059 -0.1037
 4546TIP3    H113644   4.402   0.121   4.709 -0.9985 -0.7363 -0.3238
 4546TIP3    H213645   4.494   0.213   4.631 -0.0067 -0.6947  0.8625
 4547TIP3   OH213646   1.582   3.055   0.834  0.2524 -0.1627  0.0234
 4547TIP3    H113647   1.509   3.095   0.786  1.1627  1.5477 -0.0071
 4547TIP3    H213648   1.596   2.971   0.791 -0.9652 -0.0220 -0.6940
 4548TIP3   OH213649   1.373   3.754  -0.001  0.8512  0.4632 -0.5026
 4548TIP3    H113650   1.387   3.661   0.018  0.9575  0.5650 -0.0699
 4548TIP3    H213651   1.278   3.763  -0.012  0.7606  0.4410  0.2163
 4549TIP3   OH213652   3.189   0.029   1.371  0.2843  0.2934 -1.0112
 4549TIP3    H113653   3.241   0.080   1.309  0.0136 -0.2817 -1.7309
 4549TIP3    H213654   3.144  -0.035   1.316  0.6560 -0.7473 -0.1244
 4550TIP3   OH213655   1.587   2.787   2.664  0.1153  0.3548 -0.0541
 4550TIP3    H113656   1.579   2.783   2.569 -2.0624 -1.0163  0.0989
 4550TIP3    H213657   1.528   2.718   2.696  3.3478 -1.6450  2.2152
 4551TIP3   OH213658   4.585   1.546   2.268 -0.0736 -0.1584  0.4362
 4551TIP3    H113659   4.511   1.598   2.236 -1.0823 -0.7500  1.6881
 4551TIP3    H213660   4.581   1.555   2.363  0.6468 -1.2865  0.5926
 4552TIP3   OH213661   6.162   0.405   4.918  0.5351  0.2372  0.0486
 4552TIP3    H113662   6.097   0.347   4.958 -0.6077  1.9504  0.8380
 4552TIP3    H213663   6.208   0.444   4.993  0.7851  0.8577 -0.4181
 4553TIP3   OH213664   1.666   4.098   3.639 -0.0671 -0.7107  0.3052
 4553TIP3    H113665   1.584   4.058   3.668 -0.0643  0.0457  1.4085
 4553TIP3    H213666   1.734   4.053   3.689 -0.0046  0.1355  1.0076
 4554TIP3   OH213667   5.223   3.690   4.159 -0.5771 -0.4219  0.1466
 4554TIP3    H113668   5.233   3.596   4.172 -0.9575 -0.6510 -1.0916
 4554TIP3    H213669   5.308   3.727   4.184  0.4437 -1.3724 -1.6970
 4555TIP3   OH213670   2.242   5.734   3.665 -0.4424  0.3549 -0.5112
 4555TIP3    H113671   2.251   5.771   3.577 -0.7916  0.0302 -0.6862
 4555TIP3    H213672   2.174   5.787   3.706  0.5673  1.2923 -0.0059
 4556TIP3   OH213673   2.758   2.714   4.609  0.0501 -0.4291  0.4439
 4556TIP3    H113674   2.745   2.680   4.520  0.3102 -0.3367  0.3703
 4556TIP3    H213675   2.699   2.790   4.614 -2.4719 -2.3214  1.4574
 4557TIP3   OH213676   3.805   3.185   2.958  0.3471 -0.7344  0.2915
 4557TIP3    H113677   3.736   3.141   2.909  0.2734  0.9161 -1.2128
 4557TIP3    H213678   3.788   3.279   2.944  0.8259 -0.1897  2.8491
 4558TIP3   OH213679   4.051   1.538   3.139  0.5628 -0.3543  1.0881
 4558TIP3    H113680   4.088   1.618   3.100 -0.9728  0.3460  0.9833
 4558TIP3    H213681   4.086   1.536   3.228 -0.4539  1.2265  1.5633
 4559TIP3   OH213682   5.374   4.244   2.880 -0.2647 -0.0191 -0.0280
 4559TIP3    H113683   5.312   4.202   2.820  0.5371 -0.6859 -0.4119
 4559TIP3    H213684   5.328   4.322   2.912  0.0385  1.5904 -3.1568
 4560TIP3   OH213685   4.405   4.547   3.324 -0.1797  0.4992 -0.3850
 4560TIP3    H113686   4.432   4.459   3.349 -0.3249 -0.1657 -2.3774
 4560TIP3    H213687   4.430   4.602   3.398  0.0728 -1.1792  0.8306
 4561TIP3   OH213688   0.148   3.186   0.164  0.2446 -0.0941  0.0071
 4561TIP3    H113689   0.056   3.186   0.140  0.3962  0.2385 -0.6065
 4561TIP3    H213690   0.191   3.136   0.093  0.3637 -1.4554  0.9960
 4562TIP3   OH213691   4.818   4.575   0.223  0.4159  0.3702  0.5541
 4562TIP3    H113692   4.831   4.516   0.298  2.8624 -0.4925 -0.4557
 4562TIP3    H213693   4.739   4.542   0.180  1.1404 -1.5649  0.6081
 4563TIP3   OH213694   2.505   5.888   3.944 -0.5581  0.4185 -0.3747
 4563TIP3    H113695   2.529   5.846   4.027  0.6336  0.2097 -0.7996
 4563TIP3    H213696   2.484   5.978   3.968 -1.6671 -0.0167  0.3441
 4564TIP3   OH213697   1.034   5.353   0.667 -0.1628 -0.1904 -0.0893
 4564TIP3    H113698   1.019   5.425   0.606 -1.6298 -1.0342 -0.7651
 4564TIP3    H213699   1.046   5.276   0.612  0.8907 -0.5637  0.6371
 4565TIP3   OH213700   0.075   0.821   2.351  0.0389  0.3842 -0.1258
 4565TIP3    H113701   0.008   0.799   2.286  0.7092  0.4012 -0.8518
 4565TIP3    H213702   0.156   0.788   2.312  0.7017  1.8879 -0.0743
 4566TIP3   OH213703   5.387   3.983   0.760 -0.1271 -0.3582 -0.1789
 4566TIP3    H113704   5.343   4.062   0.730  1.5548  0.5912 -0.2919
 4566TIP3    H213705   5.445   3.959   0.687 -1.3185 -2.3021 -0.5612
 4567TIP3   OH213706   1.731   2.816   4.749 -0.0522 -0.0755 -0.0695
 4567TIP3    H113707   1.813   2.837   4.793  0.0029 -0.1007 -0.1616
 4567TIP3    H213708   1.757   2.776   4.666 -0.1577 -0.8426  0.2585
 4568TIP3   OH213709   2.085   1.138   0.397 -0.0010 -0.1679 -0.1388
 4568TIP3    H113710   2.016   1.133   0.331 -0.8357  0.9611  0.6159
 4568TIP3    H213711   2.160   1.177   0.351 -0.4801  0.3336 -0.5002
 4569TIP3   OH213712   4.862   5.960   1.684 -0.2609  0.0914  0.2813
 4569TIP3    H113713   4.859   6.022   1.612  2.8743  2.5458  1.9981
 4569TIP3    H213714   4.951   5.925   1.682 -0.8233 -1.5748  1.6112
 4570TIP3   OH213715   0.440   3.221   3.949  0.1469  0.0349  0.5367
 4570TIP3    H113716   0.532   3.201   3.968 -0.3050 -1.8244  0.9457
 4570TIP3    H213717   0.399   3.136   3.933 -1.3553  0.8881 -0.4327
 4571TIP3   OH213718   5.158   2.628   0.522  0.3350  0.0293 -0.1059
 4571TIP3    H113719   5.104   2.644   0.444  0.0254 -0.5947 -0.0256
 4571TIP3    H213720   5.215   2.555   0.497  1.1612  0.6928 -0.1948
 4572TIP3   OH213721   4.653   3.652   4.321  0.0941 -0.9839 -0.3932
 4572TIP3    H113722   4.607   3.706   4.257 -2.0211 -1.2620  0.7823
 4572TIP3    H213723   4.643   3.562   4.288 -1.1957 -1.1512  0.3642
 4573TIP3   OH213724   4.379   5.608   0.862 -0.0067 -0.1480  0.3948
 4573TIP3    H113725   4.359   5.684   0.917  0.4896 -0.7079  1.3734
 4573TIP3    H213726   4.295   5.563   0.853 -0.2204  0.2931  0.1557
 4574TIP3   OH213727   3.418   5.600   0.896  0.3095  0.2422  0.3083
 4574TIP3    H113728   3.336   5.646   0.912  0.4846  1.2178 -1.4022
 4574TIP3    H213729   3.394   5.523   0.845  0.1743 -0.9734  2.1047
 4575TIP3   OH213730   1.633   4.148   1.519 -0.3554  0.3923 -0.2325
 4575TIP3    H113731   1.540   4.130   1.530 -0.4535  1.5995  1.2682
 4575TIP3    H213732   1.647   4.232   1.563  1.0832  1.2194 -2.0903
 4576TIP3   OH213733   4.557   1.997   0.268  0.0142 -0.5032 -0.3147
 4576TIP3    H113734   4.528   1.949   0.191 -0.4771  0.2603 -0.6168
 4576TIP3    H213735   4.565   2.088   0.239 -1.5871  0.0825  0.8468
 4577TIP3   OH213736   3.922   5.595   3.575  0.3342 -1.0005  0.0201
 4577TIP3    H113737   3.888   5.506   3.585  1.0354 -1.3581 -0.6757
 4577TIP3    H213738   3.854   5.640   3.525 -0.5610 -0.7935  1.3591
 4578TIP3   OH213739   0.122   5.023   5.014  0.4399 -0.0336 -0.0382
 4578TIP3    H113740   0.041   5.011   4.964  0.1314 -0.3088  0.5122
 4578TIP3    H213741   0.183   5.062   4.952  0.8672 -2.6265 -1.3722
 4579TIP3   OH213742   0.424   1.982   2.605  0.8701  0.1667 -0.1445
 4579TIP3    H113743   0.423   2.066   2.558 -2.1075 -0.8614 -2.1825
 4579TIP3    H213744   0.401   2.005   2.695  0.4726  1.5735 -0.5758
 4580TIP3   OH213745   5.340   1.554   1.974 -0.3225  0.1099 -0.4579
 4580TIP3    H113746   5.271   1.490   1.990  0.6648 -0.9471 -0.3592
 4580TIP3    H213747   5.354   1.551   1.879  0.0884 -0.1948 -0.3861
 4581TIP3   OH213748   4.522   3.006   2.159 -0.0147  0.5635  0.1102
 4581TIP3    H113749   4.486   3.092   2.136 -1.6087 -0.6471 -2.1976
 4581TIP3    H213750   4.446   2.949   2.167  0.8506 -0.3667  3.4088
 4582TIP3   OH213751   6.280   4.698   4.616  0.5629 -0.4272  0.1593
 4582TIP3    H113752   6.201   4.644   4.621  2.3730 -3.3029  0.0802
 4582TIP3    H213753   6.320   4.674   4.533  2.4237 -0.4271  1.0117
 4583TIP3   OH213754   1.811   0.122   0.353  0.4523  0.5489 -0.0175
 4583TIP3    H113755   1.870   0.061   0.397 -0.0024  0.4362  0.4515
 4583TIP3    H213756   1.725   0.081   0.361  0.3295  0.6517 -0.8065
 4584TIP3   OH213757   5.480   5.372   3.191  0.3553  0.4909  0.6324
 4584TIP3    H113758   5.458   5.284   3.160 -0.4203  0.3535  1.5421
 4584TIP3    H213759   5.498   5.421   3.111  0.4004 -0.3868  0.0884
 4585TIP3   OH213760   5.401   0.460   3.857  0.2370  0.3707 -0.9213
 4585TIP3    H113761   5.389   0.369   3.884  1.9861  0.5150  0.5526
 4585TIP3    H213762   5.472   0.457   3.793  1.8366  0.8743  0.7616
 4586TIP3   OH213763   2.088   5.285   2.527  0.7642 -0.3997  0.2122
 4586TIP3    H113764   2.043   5.200   2.527  0.2787 -0.1526  0.7525
 4586TIP3    H213765   2.049   5.332   2.600  1.5109  0.0403  0.3334
 4587TIP3   OH213766   3.351   0.191   1.206  0.0998 -0.5895 -0.5902
 4587TIP3    H113767   3.350   0.286   1.209 -1.9802 -0.5567 -1.1894
 4587TIP3    H213768   3.407   0.165   1.279 -1.0309  1.0656  0.9314
 4588TIP3   OH213769   3.848   1.444   4.327  0.1508  0.3177  0.0638
 4588TIP3    H113770   3.803   1.386   4.265  0.9468 -0.3456  0.0845
 4588TIP3    H213771   3.872   1.386   4.399  1.4032  0.5598 -0.1434
 4589TIP3   OH213772   2.795   4.309   3.260  0.5468 -0.1473 -0.3222
 4589TIP3    H113773   2.721   4.363   3.233  1.5070  1.6178  0.3780
 4589TIP3    H213774   2.857   4.315   3.188  1.8578  2.1386  0.8704
 4590TIP3   OH213775   2.172   4.278   4.143  0.3382 -0.3865 -0.2457
 4590TIP3    H113776   2.235   4.235   4.201  0.0823  0.0477  0.3669
 4590TIP3    H213777   2.141   4.208   4.085  1.9452 -0.4440 -1.0868
 4591TIP3   OH213778   5.336   2.646   4.999 -0.3025  0.1547  0.3440
 4591TIP3    H113779   5.273   2.592   5.046 -0.9910  1.8200  1.4267
 4591TIP3    H213780   5.318   2.735   5.029  1.7539  0.8232 -0.2792
 4592TIP3   OH213781   1.887   2.759   3.497 -0.2656 -0.4195 -0.5460
 4592TIP3    H113782   1.913   2.754   3.589 -0.3234 -0.4711 -0.5320
 4592TIP3    H213783   1.948   2.821   3.458 -0.2528 -0.3830 -0.4682
 4593TIP3   OH213784   0.065   4.415   2.139  0.6246 -0.5784  0.5087
 4593TIP3    H113785   0.024   4.410   2.052  0.9647 -0.8485  0.3618
 4593TIP3    H213786   0.147   4.462   2.124 -0.0379  0.7863  0.9584
 4594TIP3   OH213787   1.000   4.613   1.524 -0.3172  0.7232 -0.1479
 4594TIP3    H113788   1.070   4.676   1.502 -1.3064  2.0866  0.4783
 4594TIP3    H213789   0.926   4.642   1.471 -1.0126  0.5436  0.7196
 4595TIP3   OH213790   0.519   4.440   2.669 -0.2575 -0.0124 -0.1134
 4595TIP3    H113791   0.559   4.487   2.743 -0.5296  0.2668 -0.1396
 4595TIP3    H213792   0.471   4.368   2.710 -1.0564  0.6049  0.0507
 4596TIP3   OH213793   0.467   4.144   3.669 -0.1986  0.1627  0.0027
 4596TIP3    H113794   0.446   4.230   3.633  1.5538  1.0436  0.9461
 4596TIP3    H213795   0.547   4.159   3.721 -1.9026 -1.2239  3.2941
 4597TIP3   OH213796   0.629   2.528   1.592  0.2250  0.2929 -0.0647
 4597TIP3    H113797   0.581   2.610   1.590  1.0805  0.7906 -0.6384
 4597TIP3    H213798   0.561   2.461   1.582 -0.3394  0.9924 -1.2621
 4598TIP3   OH213799   4.415   5.691   3.779 -0.5828  0.6017 -0.0856
 4598TIP3    H113800   4.453   5.716   3.695  0.3732  1.9350  0.7084
 4598TIP3    H213801   4.322   5.675   3.759 -0.6714  2.1985 -1.1835
 4599TIP3   OH213802   3.824   4.564   4.047  0.4059  0.7935 -0.3533
 4599TIP3    H113803   3.752   4.542   3.987 -1.3464  1.0747  1.5257
 4599TIP3    H213804   3.786   4.628   4.107  2.1687  0.7490  0.8872
 4600TIP3   OH213805   3.388   3.423   2.704  0.5112  0.7761  0.0960
 4600TIP3    H113806   3.459   3.469   2.750  1.2442 -0.6305  0.4149
 4600TIP3    H213807   3.393   3.333   2.736 -0.1325  0.1803 -1.3896
 4601TIP3   OH213808   1.775   4.154   1.218  0.6412 -0.5463 -0.0536
 4601TIP3    H113809   1.788   4.241   1.255 -0.9469  0.0857 -0.8706
 4601TIP3    H213810   1.760   4.170   1.125 -2.8169 -1.3010  0.2520
 4602TIP3   OH213811   1.774   0.670   3.675  0.0682 -0.1831 -0.2305
 4602TIP3    H113812   1.816   0.733   3.733  1.0223  0.0198 -1.1103
 4602TIP3    H213813   1.680   0.681   3.691  0.2976  0.0475  1.0593
 4603TIP3   OH213814   3.336   5.118   4.538 -0.0988 -0.5644  0.0710
 4603TIP3    H113815   3.270   5.187   4.544 -0.1712 -0.6398  0.1427
 4603TIP3    H213816   3.417   5.164   4.516  0.4226 -0.1340  2.6446
 4604TIP3   OH213817   3.041   4.881   4.418 -0.3750  0.2735  0.4054
 4604TIP3    H113818   3.066   4.791   4.442 -0.7028 -0.6470 -2.2981
 4604TIP3    H213819   3.124   4.923   4.394 -0.5101 -0.5213 -1.7278
 4605TIP3   OH213820   3.443   5.662   1.240 -0.1991  0.2580  0.0699
 4605TIP3    H113821   3.469   5.752   1.262  0.1312  0.3186 -0.5421
 4605TIP3    H213822   3.368   5.672   1.181 -0.3228  0.1274  0.2045
 4606TIP3   OH213823   1.712   2.020   4.619  0.5574 -0.0955 -0.3053
 4606TIP3    H113824   1.674   1.962   4.684 -0.5173  1.0254  0.1130
 4606TIP3    H213825   1.806   2.004   4.624  0.3763 -0.9192  0.6426
 4607TIP3   OH213826   3.965   1.628   0.192  0.2948 -0.4585 -0.1756
 4607TIP3    H113827   4.012   1.711   0.201 -0.1146 -0.3561  1.2879
 4607TIP3    H213828   3.999   1.573   0.263 -0.1007 -1.2187 -0.5570
 4608TIP3   OH213829   4.778   2.965   4.957 -0.2419 -0.3693  0.2623
 4608TIP3    H113830   4.766   2.968   4.862 -1.1186  0.3111  0.3820
 4608TIP3    H213831   4.784   3.057   4.984 -1.7631 -0.4834  1.0666
 4609TIP3   OH213832   2.849   3.761   0.106  0.6489 -0.0173  0.1658
 4609TIP3    H113833   2.785   3.790   0.041  1.4316  1.6238  0.0836
 4609TIP3    H213834   2.796   3.721   0.175 -0.4732  1.1096  0.0084
 4610TIP3   OH213835   3.206   0.181   0.493  0.4381  0.0012  0.5116
 4610TIP3    H113836   3.133   0.237   0.466 -0.1657 -0.5599  0.9263
 4610TIP3    H213837   3.171   0.092   0.485  1.6283 -0.3753 -0.8785
 4611TIP3   OH213838   3.891   4.471   3.312 -0.1269  0.4040 -0.4568
 4611TIP3    H113839   3.949   4.396   3.319  0.5813  0.9462 -0.4089
 4611TIP3    H213840   3.949   4.545   3.293 -0.6641  1.1442  0.6452
 4612TIP3   OH213841   3.614   1.527   3.800  0.4412  0.0692 -0.2910
 4612TIP3    H113842   3.685   1.543   3.862  0.1106 -1.2650  0.4802
 4612TIP3    H213843   3.655   1.483   3.726  0.2780 -2.0029  0.7621
 4613TIP3   OH213844   1.191   2.690   5.036 -0.8664 -0.1187  0.2347
 4613TIP3    H113845   1.172   2.781   5.056  0.8424  0.6104 -1.1940
 4613TIP3    H213846   1.126   2.667   4.968 -0.4849  0.4610 -0.3388
 4614TIP3   OH213847   4.674   3.474   1.804 -0.1052  0.3495  0.3202
 4614TIP3    H113848   4.739   3.519   1.750 -1.1255  0.7897 -0.5887
 4614TIP3    H213849   4.721   3.401   1.844  1.0425  0.9248  0.0344
 4615TIP3   OH213850   0.762   1.447   1.914  0.0775 -0.5924 -0.0781
 4615TIP3    H113851   0.745   1.515   1.978 -0.6249  0.5971 -1.4552
 4615TIP3    H213852   0.714   1.476   1.836  1.2709 -1.7401 -1.2809
 4616TIP3   OH213853   2.967   4.777   2.557 -0.3413  0.2414 -0.7938
 4616TIP3    H113854   3.007   4.694   2.529  0.8334  0.9403 -1.2303
 4616TIP3    H213855   2.890   4.786   2.501 -0.8607 -0.8729 -0.2920
 4617TIP3   OH213856   3.304   5.773   2.936 -0.2793 -0.0046  0.9291
 4617TIP3    H113857   3.349   5.807   2.859 -1.4932 -1.5319 -0.5290
 4617TIP3    H213858   3.260   5.850   2.974  0.7212  0.8594  0.3925
 4618TIP3   OH213859   5.669   4.934   2.377  0.6483 -0.0529  0.1353
 4618TIP3    H113860   5.734   4.935   2.447 -0.1910  0.6094  0.9324
 4618TIP3    H213861   5.602   4.997   2.405 -0.8215 -1.3918 -0.1913
 4619TIP3   OH213862   4.278   4.066   2.379  0.2390 -0.3070 -0.4545
 4619TIP3    H113863   4.253   4.071   2.471  1.3911 -0.6905 -0.1177
 4619TIP3    H213864   4.217   4.126   2.335  0.6097  0.9898  0.7485
 4620TIP3   OH213865   4.835   5.429   0.283  0.7175 -0.0410 -0.1339
 4620TIP3    H113866   4.791   5.346   0.268 -0.7323  0.9794 -2.0471
 4620TIP3    H213867   4.765   5.494   0.277  2.0766  1.4473 -0.5804
 4621TIP3   OH213868   2.521   5.990   3.433 -0.4771 -0.5248  0.3268
 4621TIP3    H113869   2.588   5.958   3.493  0.2422  0.1875 -0.0855
 4621TIP3    H213870   2.553   5.964   3.346  0.3198  1.5723 -0.0624
 4622TIP3   OH213871   1.606   2.399   3.805  0.4721  0.0327 -0.2609
 4622TIP3    H113872   1.701   2.386   3.805  0.9111  2.6768 -0.8545
 4622TIP3    H213873   1.587   2.431   3.893  0.5105  1.3995 -0.7138
 4623TIP3   OH213874   5.796   4.687   2.629 -0.2154 -0.2067  0.1384
 4623TIP3    H113875   5.818   4.698   2.722  0.4035  0.5120 -0.0807
 4623TIP3    H213876   5.706   4.718   2.622 -0.4497 -0.7785  0.5977
 4624TIP3   OH213877   2.141   5.262   2.244  0.0222  0.7558 -0.3740
 4624TIP3    H113878   2.122   5.261   2.338  2.8663 -0.9970  0.3205
 4624TIP3    H213879   2.132   5.170   2.218 -2.1247  1.4058 -2.2497
 4625TIP3   OH213880   2.666   5.652   1.510 -0.3848  0.3420 -0.0642
 4625TIP3    H113881   2.623   5.616   1.588  1.9611  0.4047  1.3530
 4625TIP3    H213882   2.625   5.738   1.499  1.0125  1.5071  2.7940
 4626TIP3   OH213883   6.125   5.173   1.043  0.2893  0.2728  0.1000
 4626TIP3    H113884   6.139   5.091   0.994  1.1502  0.4967 -0.0559
 4626TIP3    H213885   6.132   5.147   1.135 -0.3338  0.0214  0.0818
 4627TIP3   OH213886   1.594   0.375   0.830 -0.2511  0.3802 -0.1142
 4627TIP3    H113887   1.535   0.437   0.873  1.2437  2.2193 -0.5569
 4627TIP3    H213888   1.681   0.405   0.854  0.5539 -2.0477  0.2494
 4628TIP3   OH213889   4.035   3.584   2.776 -0.0347  0.1314  0.0141
 4628TIP3    H113890   4.108   3.643   2.791  0.9433 -1.1300  0.3433
 4628TIP3    H213891   4.052   3.546   2.690 -0.5268  0.1369 -0.0893
 4629TIP3   OH213892   5.756   0.698   1.147 -0.1977  0.6702 -0.4361
 4629TIP3    H113893   5.778   0.749   1.069  0.9889  1.6522  0.4959
 4629TIP3    H213894   5.789   0.751   1.220  2.0292 -1.9067  0.5663
 4630TIP3   OH213895   2.633   0.839   4.277  0.1110 -0.0471 -0.1115
 4630TIP3    H113896   2.599   0.846   4.366  0.0905  1.6221 -0.2130
 4630TIP3    H213897   2.723   0.872   4.283 -0.0258  0.4663 -0.7661
 4631TIP3   OH213898   4.302   0.124   1.560  0.0791 -0.3827  0.0865
 4631TIP3    H113899   4.276   0.032   1.562  1.1003 -0.6711  1.5853
 4631TIP3    H213900   4.233   0.167   1.510 -0.1229 -2.0360 -1.1798
 4632TIP3   OH213901   3.615   2.277   1.295  0.1536 -0.1007 -0.2766
 4632TIP3    H113902   3.608   2.260   1.389  1.4377 -3.1754 -0.6148
 4632TIP3    H213903   3.544   2.226   1.256  0.9566 -0.6235 -1.0948
 4633TIP3   OH213904   4.168   4.966   0.034 -0.6007  0.0717  0.1083
 4633TIP3    H113905   4.098   4.906   0.059 -0.6212 -0.2300 -0.6688
 4633TIP3    H213906   4.246   4.912   0.026 -0.6238  0.1390 -0.6174
 4634TIP3   OH213907   0.933   5.791   2.605  0.0379 -0.2982  0.5585
 4634TIP3    H113908   0.844   5.825   2.596  0.1760 -0.0182  0.2202
 4634TIP3    H213909   0.931   5.739   2.685 -0.1039  0.7651  1.2725
 4635TIP3   OH213910   6.095   5.890   0.937  0.2052  0.2106 -0.0112
 4635TIP3    H113911   6.041   5.949   0.884 -0.2514  1.0376  1.3292
 4635TIP3    H213912   6.163   5.947   0.974 -0.5740  0.0607  1.7611
 4636TIP3   OH213913   1.184   3.809   4.184  0.6915  0.0037  0.2093
 4636TIP3    H113914   1.276   3.783   4.183 -0.0601 -3.0174  0.1102
 4636TIP3    H213915   1.154   3.787   4.272 -0.5949 -1.8987 -0.6431
 4637TIP3   OH213916   2.619   2.984   4.582 -0.0257 -0.3123  0.4861
 4637TIP3    H113917   2.613   3.064   4.634  2.4743 -0.4360  1.1129
 4637TIP3    H213918   2.540   2.984   4.528 -2.1683  0.4678  3.3455
 4638TIP3   OH213919   2.153   4.018   4.049 -0.4763  0.1127 -0.0972
 4638TIP3    H113920   2.084   3.969   4.093  0.5683 -1.4016 -0.0963
 4638TIP3    H213921   2.179   3.963   3.976 -0.0437  1.1924 -0.7750
 4639TIP3   OH213922   2.938   4.169   0.041  0.0187 -0.1248  0.2328
 4639TIP3    H113923   2.900   4.093  -0.003  0.2476  0.4352 -1.0008
 4639TIP3    H213924   2.870   4.200   0.100 -0.4063 -0.7569  0.0849
 4640TIP3   OH213925   3.943   3.016   0.932  0.0819 -0.9415  0.4639
 4640TIP3    H113926   4.039   3.021   0.930  0.0485 -0.4504 -0.3462
 4640TIP3    H213927   3.914   3.096   0.888 -0.7904  0.8023  3.8835
 4641TIP3   OH213928   3.258   4.588   2.930  0.0992  0.0066 -0.4017
 4641TIP3    H113929   3.181   4.562   2.880 -0.5949  0.4274  0.4208
 4641TIP3    H213930   3.303   4.652   2.875  0.7125 -1.3664 -1.5506
 4642TIP3   OH213931   3.746   5.698   2.476 -0.7878  0.2764  0.3548
 4642TIP3    H113932   3.746   5.665   2.566  0.8083 -1.7292 -0.3015
 4642TIP3    H213933   3.711   5.625   2.424 -0.9794  1.1190 -0.7398
 4643TIP3   OH213934   0.526   4.170   0.568  0.1994  0.3464  0.5623
 4643TIP3    H113935   0.505   4.262   0.552  3.9300  1.5256  1.4451
 4643TIP3    H213936   0.506   4.156   0.661 -0.2323  0.3059  0.4633
 4644TIP3   OH213937   2.250   0.696   4.447 -0.0134 -0.3192 -0.1196
 4644TIP3    H113938   2.257   0.755   4.522 -0.4036 -0.7058  0.2292
 4644TIP3    H213939   2.340   0.673   4.426  0.0901 -0.3811  0.3761
 4645TIP3   OH213940   5.554   2.984   1.455  0.0114  0.2307 -0.5798
 4645TIP3    H113941   5.473   2.957   1.411 -0.2837  0.6991 -0.3385
 4645TIP3    H213942   5.576   3.068   1.414  1.6221 -0.9243 -2.2330
 4646TIP3   OH213943   5.782   5.065   4.477 -0.3046 -0.2045  0.4815
 4646TIP3    H113944   5.730   5.109   4.544  1.2195  1.9426  0.3654
 4646TIP3    H213945   5.862   5.038   4.524  0.0011 -0.2824 -0.0780
 4647TIP3   OH213946   1.023   4.875   1.900  0.5289  0.1508  0.0833
 4647TIP3    H113947   0.968   4.859   1.824  0.4410  1.0579 -0.0477
 4647TIP3    H213948   1.068   4.957   1.882  0.6261  0.3024  0.9447
 4648TIP3   OH213949   3.886   5.741   0.785  0.0526  0.1970 -0.7020
 4648TIP3    H113950   3.805   5.744   0.836  0.5089 -2.7835  0.3978
 4648TIP3    H213951   3.870   5.674   0.719  1.7394 -0.8364 -0.1163
 4649TIP3   OH213952   5.579   4.550   1.663 -0.1374 -0.2217 -0.1764
 4649TIP3    H113953   5.626   4.593   1.734 -0.6886 -2.1814  1.4848
 4649TIP3    H213954   5.631   4.568   1.585  1.1642  0.9805  0.9043
 4650TIP3   OH213955   0.752   4.997   4.954 -0.3062 -0.1989  0.7967
 4650TIP3    H113956   0.744   5.061   5.025  0.9583  1.9152 -0.8344
 4650TIP3    H213957   0.841   4.961   4.965  0.2954  0.9127 -0.2802
 4651TIP3   OH213958   1.831   4.977  -0.026  0.0978 -0.2362 -0.3384
 4651TIP3    H113959   1.806   4.887  -0.007  2.1724 -1.1204 -1.3657
 4651TIP3    H213960   1.894   4.999   0.042  0.1712  0.1360 -0.5250
 4652TIP3   OH213961   4.212   0.259   2.767  1.1979 -0.0641 -0.4481
 4652TIP3    H113962   4.222   0.346   2.805  3.2164 -1.4593  2.5464
 4652TIP3    H213963   4.299   0.238   2.731  1.5674 -1.8066  1.2846
 4653TIP3   OH213964   3.919   2.308   2.364  0.0028 -0.6135 -0.3620
 4653TIP3    H113965   3.898   2.347   2.449  1.2666 -1.6117  0.4569
 4653TIP3    H213966   3.883   2.220   2.368  1.1334 -1.0966 -0.3397
 4654TIP3   OH213967   2.308   3.017   3.520 -0.0344  0.7874  0.7457
 4654TIP3    H113968   2.360   2.993   3.597  0.7359 -0.5369 -0.1656
 4654TIP3    H213969   2.372   3.048   3.456 -0.4620  0.0716 -0.0430
 4655TIP3   OH213970   2.968   3.002   0.481 -0.0487  0.0160 -0.4721
 4655TIP3    H113971   2.985   3.090   0.448  0.3783  0.0254 -0.2371
 4655TIP3    H213972   2.972   3.011   0.576  1.6426 -0.5682 -0.4668
 4656TIP3   OH213973   1.138   4.282   2.138 -0.1372 -0.1854 -0.3913
 4656TIP3    H113974   1.065   4.221   2.153 -1.0498  1.0764  0.5303
 4656TIP3    H213975   1.181   4.290   2.223  0.8645 -0.6299 -0.8449
 4657TIP3   OH213976   1.832   1.933   4.051  0.8804  0.2804 -0.3165
 4657TIP3    H113977   1.752   1.885   4.028  1.8563 -0.8939 -1.3875
 4657TIP3    H213978   1.826   1.945   4.146 -0.9333  0.9312 -0.4773
 4658TIP3   OH213979   1.375   0.723   4.569 -0.0123 -0.0408  0.3625
 4658TIP3    H113980   1.326   0.660   4.516  0.8161  0.0358 -0.5106
 4658TIP3    H213981   1.331   0.807   4.555  0.3713  0.0321 -0.4408
 4659TIP3   OH213982   1.051   3.728   5.041  0.6705  0.4289  0.1200
 4659TIP3    H113983   1.070   3.667   5.111 -1.1837  0.6960  0.9273
 4659TIP3    H213984   0.962   3.758   5.059 -0.5452 -0.6662 -3.1520
 4660TIP3   OH213985   1.892   2.870   2.380 -0.3556 -1.0415 -0.0111
 4660TIP3    H113986   1.951   2.795   2.378  1.8762  0.6192  0.3819
 4660TIP3    H213987   1.924   2.929   2.312 -1.0171  0.3032  0.7959
 4661TIP3   OH213988   4.723   3.229   5.129  0.2256 -0.0247  0.0295
 4661TIP3    H113989   4.742   3.268   5.044  1.7132 -0.0890  0.3108
 4661TIP3    H213990   4.746   3.297   5.192  0.3708 -0.4359  0.4233
 4662TIP3   OH213991   1.498   1.159   1.060  0.2074  0.3416  0.5919
 4662TIP3    H113992   1.586   1.157   1.096  0.0615  1.2068  1.0299
 4662TIP3    H213993   1.443   1.119   1.128  0.0165  1.4488  1.1201
 4663TIP3   OH213994   1.936   1.722   2.844 -0.4717 -0.2104  0.6702
 4663TIP3    H113995   1.922   1.789   2.911 -1.0874 -0.6628  1.0109
 4663TIP3    H213996   2.000   1.662   2.883  0.1398  0.2138  0.3334
 4664TIP3   OH213997   5.461   2.180   5.162  0.0979  0.2452 -0.0721
 4664TIP3    H113998   5.451   2.275   5.149 -1.6176 -0.1606 -2.2859
 4664TIP3    H213999   5.552   2.162   5.136  0.1489  1.1486 -0.5723
 4665TIP3   OH214000   3.840   1.954   1.586 -0.2283 -0.3167  0.0574
 4665TIP3    H114001   3.785   2.012   1.639 -0.6270 -0.0394 -0.6496
 4665TIP3    H214002   3.894   1.907   1.650  1.0368  1.7587  0.6250
 4666TIP3   OH214003   4.725   1.487   3.879 -0.0084 -0.3175 -0.7588
 4666TIP3    H114004   4.807   1.535   3.873 -0.1641 -0.1089 -1.2665
 4666TIP3    H214005   4.701   1.468   3.789 -0.8159  0.1507 -0.6561
 4667TIP3   OH214006   3.757   3.113   4.484 -0.1228 -0.1036  0.4708
 4667TIP3    H114007   3.811   3.165   4.425  0.7220 -0.3142  1.0446
 4667TIP3    H214008   3.814   3.094   4.558 -0.4423 -1.7676  0.3168
 4668TIP3   OH214009   2.181   1.161   1.640  0.5145  0.1578 -0.2919
 4668TIP3    H114010   2.225   1.227   1.587 -1.2653  1.0664 -0.7115
 4668TIP3    H214011   2.155   1.093   1.577  0.1520  0.2824 -0.2824
 4669TIP3   OH214012   2.484   0.386   0.804  0.1257 -0.1036  0.1034
 4669TIP3    H114013   2.427   0.310   0.790  0.1344 -0.0648 -0.1492
 4669TIP3    H214014   2.572   0.349   0.812  0.1385 -0.1166 -0.0865
 4670TIP3   OH214015   1.936   2.956   4.861 -0.3646  0.2815  0.6993
 4670TIP3    H114016   1.874   3.012   4.908  0.0674 -0.0082  1.6466
 4670TIP3    H214017   2.019   3.003   4.865  0.6775 -1.5198  3.8677
 4671TIP3   OH214018   2.292   2.913   1.538 -0.0064 -0.3733  0.5006
 4671TIP3    H114019   2.337   2.829   1.539  0.9415  0.1154  0.2620
 4671TIP3    H214020   2.332   2.963   1.608 -0.2780  0.0224  0.3778
 4672TIP3   OH214021   5.871   3.745   4.930  0.4227 -0.6642 -0.2927
 4672TIP3    H114022   5.897   3.835   4.909  0.9091 -1.2283 -2.4020
 4672TIP3    H214023   5.779   3.751   4.955  0.7002  0.5286  0.4804
 4673TIP3   OH214024   2.120   2.743   1.826  0.5171 -0.3676 -0.5096
 4673TIP3    H114025   2.082   2.773   1.908 -2.0440 -0.2651 -1.6373
 4673TIP3    H214026   2.094   2.651   1.819  1.3912 -0.6034 -0.8506
 4674TIP3   OH214027   2.803   2.688   2.370 -0.0341  0.4806  0.4484
 4674TIP3    H114028   2.740   2.724   2.432 -0.4689 -0.6448  0.6841
 4674TIP3    H214029   2.757   2.688   2.286 -0.9562 -1.7439  0.8902
 4675TIP3   OH214030   5.337   3.954   0.231  0.1079 -0.0611 -0.4669
 4675TIP3    H114031   5.297   3.890   0.171 -2.1683  0.3219  0.5059
 4675TIP3    H214032   5.269   4.021   0.243  0.4230 -0.1186  2.4895
 4676TIP3   OH214033   5.175   0.495   0.745 -1.1523  0.3341 -0.5441
 4676TIP3    H114034   5.179   0.591   0.749  1.1488  0.3372 -1.5253
 4676TIP3    H214035   5.166   0.468   0.837 -0.4071  1.4512 -0.1192
 4677TIP3   OH214036   2.676   4.111   1.990  0.4857  0.0708  0.0152
 4677TIP3    H114037   2.645   4.197   1.964 -1.9415  0.3607  3.1973
 4677TIP3    H214038   2.660   4.108   2.085  1.9877 -3.2827  0.2943
 4678TIP3   OH214039   3.673   2.218   1.020 -0.3406 -0.2745 -0.4900
 4678TIP3    H114040   3.706   2.254   1.102  2.0044  1.5535 -2.0963
 4678TIP3    H214041   3.683   2.124   1.029  1.1322 -0.0335  0.8525
 4679TIP3   OH214042   2.768   2.460   3.259  0.0354 -0.1007 -0.3578
 4679TIP3    H114043   2.774   2.467   3.163  0.3613 -0.3850 -0.3602
 4679TIP3    H214044   2.781   2.367   3.277 -1.4567 -0.2769 -0.1265
 4680TIP3   OH214045   6.316   2.471   1.870 -0.1929  0.2391 -0.0737
 4680TIP3    H114046   6.325   2.442   1.961  2.0167 -0.1444 -0.3664
 4680TIP3    H214047   6.317   2.567   1.876 -0.6373  0.2194  0.3511
 4681TIP3   OH214048   3.959   3.956   3.527  0.2996 -0.1501  0.5234
 4681TIP3    H114049   3.989   3.883   3.582  1.5837  0.3337  0.4927
 4681TIP3    H214050   3.984   4.034   3.576 -1.9619  0.3094  1.0374
 4682TIP3   OH214051   4.885   3.860   4.484 -0.1762 -0.3574 -0.1888
 4682TIP3    H114052   4.802   3.869   4.530 -0.5547  1.0921 -1.1157
 4682TIP3    H214053   4.894   3.765   4.469 -0.1844 -0.8533  2.5304
 4683TIP3   OH214054   2.737   3.113   1.681  0.3952  0.1163 -0.1361
 4683TIP3    H114055   2.761   3.063   1.758 -2.2487 -2.3613 -0.7597
 4683TIP3    H214056   2.664   3.169   1.709 -0.6530 -0.8747 -0.7861
 4684TIP3   OH214057   4.409   4.863   0.508 -0.0701  0.0905  0.4882
 4684TIP3    H114058   4.480   4.810   0.472  0.9860  0.4366  1.9776
 4684TIP3    H214059   4.446   4.902   0.587 -2.0798 -0.1326  1.6010
 4685TIP3   OH214060   0.846   4.969   0.957 -0.0699 -0.1183 -0.2171
 4685TIP3    H114061   0.885   4.968   1.045 -1.0540  0.7661  0.2584
 4685TIP3    H214062   0.881   5.048   0.916 -2.9492  2.0292  1.0504
 4686TIP3   OH214063   6.228   0.883   1.657  0.5725 -0.8560 -0.0407
 4686TIP3    H114064   6.145   0.929   1.671  1.6086  0.9277  0.5734
 4686TIP3    H214065   6.203   0.795   1.629 -1.5274  0.4859 -2.7889
 4687TIP3   OH214066   4.485   5.369   2.780  0.2728  0.0050  0.4584
 4687TIP3    H114067   4.480   5.462   2.759  0.6165 -0.0681  0.0373
 4687TIP3    H214068   4.568   5.359   2.827  1.2466 -0.4086 -1.2618
 4688TIP3   OH214069   1.504   4.801   5.092  0.0250 -0.0950  0.0005
 4688TIP3    H114070   1.432   4.767   5.144 -0.7642  0.0203 -0.9853
 4688TIP3    H214071   1.532   4.881   5.138 -0.0694 -0.4589  0.7051
 4689TIP3   OH214072   6.086   3.907   1.201 -0.2445  0.3528  0.5549
 4689TIP3    H114073   6.062   3.921   1.110  0.4751 -0.2782  0.2583
 4689TIP3    H214074   6.055   3.985   1.247 -1.2824  0.3363 -0.0950
 4690TIP3   OH214075   3.166   2.369   1.785 -0.0624 -0.0543  0.2030
 4690TIP3    H114076   3.120   2.403   1.708 -0.1327  0.2012  0.3581
 4690TIP3    H214077   3.237   2.430   1.799  0.3590 -0.4769 -0.0648
 4691TIP3   OH214078   1.566   0.138   2.942  0.0972 -0.2446 -0.0361
 4691TIP3    H114079   1.473   0.154   2.960 -0.4585 -2.1708 -0.8971
 4691TIP3    H214080   1.600   0.223   2.913 -0.8148  1.0522  2.3241
 4692TIP3   OH214081   0.852   0.248   4.948 -0.5276  0.1257 -0.1217
 4692TIP3    H114082   0.895   0.251   4.862  1.0025 -0.7110  0.5693
 4692TIP3    H214083   0.770   0.202   4.931 -0.9043  1.1976 -1.3748
 4693TIP3   OH214084   3.707   4.156   1.481 -0.0543  0.0458 -0.5744
 4693TIP3    H114085   3.653   4.129   1.406  0.5477  2.3128 -1.9183
 4693TIP3    H214086   3.695   4.251   1.486 -0.2065 -0.0366  2.3733
 4694TIP3   OH214087   6.122   5.534  -0.016 -0.3457  0.3502  0.0238
 4694TIP3    H114088   6.106   5.445   0.015  1.4680 -0.6475 -1.6548
 4694TIP3    H214089   6.185   5.570   0.046  1.5680 -0.8420 -1.1224
 4695TIP3   OH214090   5.811   5.334   3.416  0.3505 -0.4377 -0.0946
 4695TIP3    H114091   5.777   5.261   3.364  0.4979  0.0634 -0.9049
 4695TIP3    H214092   5.846   5.395   3.351  3.4270 -1.2045  0.6823
 4696TIP3   OH214093   1.427   5.796   4.036  0.7146  0.0226  0.1292
 4696TIP3    H114094   1.346   5.758   4.000  0.0309  3.1205 -2.0540
 4696TIP3    H214095   1.492   5.782   3.967  2.1013 -2.2735  1.7924
 4697TIP3   OH214096   3.150   4.963   4.104  0.3599  0.0233  0.4642
 4697TIP3    H114097   3.213   4.979   4.174  0.3197  2.0781  0.1094
 4697TIP3    H214098   3.070   4.935   4.149  0.9439 -0.7110  1.0632
 4698TIP3   OH214099   5.124   0.809   2.628 -0.0685 -0.0975  0.1235
 4698TIP3    H114100   5.091   0.894   2.654  2.0434  0.6358  0.6227
 4698TIP3    H214101   5.048   0.762   2.593 -1.0761  2.3319 -1.1216
 4699TIP3   OH214102   5.432   2.688   3.135  0.1171 -0.0423  0.0905
 4699TIP3    H114103   5.516   2.708   3.177  0.1140  2.4377 -0.8884
 4699TIP3    H214104   5.370   2.748   3.178 -0.6241 -0.0925 -0.8838
 4700TIP3   OH214105   5.774   0.151   1.997 -0.3389 -0.6214 -0.4075
 4700TIP3    H114106   5.699   0.182   2.048  1.2473  0.6743  1.2962
 4700TIP3    H214107   5.849   0.164   2.055  1.2606 -1.5709 -2.1557
 4701TIP3   OH214108   2.376   3.336   3.022 -0.4600  0.0018 -0.5559
 4701TIP3    H114109   2.370   3.261   2.964  1.8892  0.6595 -1.7651
 4701TIP3    H214110   2.424   3.303   3.099 -1.6651 -0.3259  0.0791
 4702TIP3   OH214111   4.239   4.677   3.609 -0.0208  0.1468  0.6471
 4702TIP3    H114112   4.193   4.642   3.686  1.8215  2.9941  3.2727
 4702TIP3    H214113   4.327   4.698   3.641  1.1376  0.6787 -2.5330
 4703TIP3   OH214114   0.410   4.952   2.001 -0.2770 -0.7068 -0.0103
 4703TIP3    H114115   0.489   4.960   2.055  0.8246 -0.1225 -1.6329
 4703TIP3    H214116   0.338   4.973   2.060  0.8830 -0.0128  1.2088
 4704TIP3   OH214117   5.592   1.154   3.879 -0.8385 -0.2024 -0.6123
 4704TIP3    H114118   5.681   1.169   3.846 -0.4443  2.7236  1.3802
 4704TIP3    H214119   5.596   1.068   3.921  1.1804  0.0550 -0.1777
 4705TIP3   OH214120   6.200   5.290   0.769  0.1785  0.7154 -0.3318
 4705TIP3    H114121   6.237   5.282   0.857 -0.0049  0.0548 -0.3153
 4705TIP3    H214122   6.127   5.351   0.779 -0.3626 -0.0070  0.1345
 4706TIP3   OH214123   2.212   5.812   2.483  0.4646  0.1200  0.0450
 4706TIP3    H114124   2.290   5.843   2.437  0.5348  1.2299  0.8473
 4706TIP3    H214125   2.165   5.893   2.506 -0.8731 -0.5211 -0.3287
 4707TIP3   OH214126   2.329   4.153   1.750 -0.6035 -0.2043 -0.2386
 4707TIP3    H114127   2.325   4.236   1.796 -1.3572 -0.0122 -0.6417
 4707TIP3    H214128   2.399   4.165   1.686  0.3513 -0.4263  0.7358
 4708TIP3   OH214129   1.707   3.713   4.199 -0.8973 -0.9455 -0.3756
 4708TIP3    H114130   1.778   3.649   4.198  0.2503  0.2536 -0.0441
 4708TIP3    H214131   1.740   3.784   4.255 -1.0496  1.0490 -2.6361
 4709TIP3   OH214132   0.664   3.080   1.369 -0.3259 -0.0767 -0.3199
 4709TIP3    H114133   0.591   3.107   1.313  0.3852 -0.2604 -1.3725
 4709TIP3    H214134   0.624   3.023   1.435 -1.2107  0.2599 -0.5479
 4710TIP3   OH214135   1.682   4.130   0.934  0.0467 -0.0431 -0.1207
 4710TIP3    H114136   1.590   4.151   0.949  0.4531  3.1063 -1.4174
 4710TIP3    H214137   1.681   4.075   0.855 -0.8233 -2.4825  1.4706
 4711TIP3   OH214138   0.932   3.471   0.574 -0.0221 -0.3872  0.1763
 4711TIP3    H114139   0.919   3.376   0.569 -0.1501 -0.3348 -0.5912
 4711TIP3    H214140   0.959   3.486   0.665 -0.1010 -1.1438  0.3367
 4712TIP3   OH214141   0.096   1.933   4.172  0.3460  0.0043 -0.2340
 4712TIP3    H114142   0.111   1.935   4.266 -1.1818 -1.5966  0.1007
 4712TIP3    H214143   0.107   2.023   4.143 -0.6661  0.8062  1.7320
 4713TIP3   OH214144   6.238   1.252   0.506 -0.4306  0.2902  0.4802
 4713TIP3    H114145   6.156   1.240   0.554  0.1684 -0.3695  1.3764
 4713TIP3    H214146   6.239   1.181   0.442 -0.1661 -0.2469  1.0636
 4714TIP3   OH214147   3.295   4.047   2.368  0.3427  0.1366  0.4161
 4714TIP3    H114148   3.312   4.010   2.281  1.1408 -2.0743  1.4299
 4714TIP3    H214149   3.310   4.141   2.357 -0.4517  0.0650 -2.0171
 4715TIP3   OH214150   4.753   1.194   1.641  0.1624 -0.6275 -0.5767
 4715TIP3    H114151   4.792   1.203   1.554  0.7906  1.7479 -0.1193
 4715TIP3    H214152   4.696   1.270   1.649 -0.2139 -1.0416  0.9292
 4716TIP3   OH214153   1.347   3.028   1.812  0.2972  0.3722 -0.4119
 4716TIP3    H114154   1.401   2.950   1.819 -0.4193 -0.0129  1.3477
 4716TIP3    H214155   1.307   3.022   1.725  2.7759  0.5277 -1.6593
 4717TIP3   OH214156   2.949   5.546   1.702  0.2792 -0.2833 -0.2265
 4717TIP3    H114157   3.000   5.529   1.781  0.1615 -0.6994 -0.2342
 4717TIP3    H214158   2.903   5.627   1.719  2.5874  1.3037 -1.0401
 4718TIP3   OH214159   4.834   4.291   2.128 -0.6551 -0.5083  0.6905
 4718TIP3    H114160   4.911   4.275   2.184  2.0755  0.1696 -2.5796
 4718TIP3    H214161   4.818   4.385   2.136 -0.9945 -0.6014  1.1517
 4719TIP3   OH214162   1.868   5.411   1.595 -0.3399 -0.0306 -0.6763
 4719TIP3    H114163   1.918   5.483   1.557 -1.3261  1.6945  1.0812
 4719TIP3    H214164   1.934   5.349   1.627  0.7933  2.0966  1.4484
 4720TIP3   OH214165   6.013   5.613   0.955 -0.2186  0.6040  0.6225
 4720TIP3    H114166   5.973   5.600   1.041  1.6367  0.5189  1.5180
 4720TIP3    H214167   6.041   5.705   0.955  1.3125  0.1623  0.8172
 4721TIP3   OH214168   5.413   0.159   3.204  0.2836  0.0235  0.7763
 4721TIP3    H114169   5.410   0.196   3.116 -0.5464 -1.1350  0.3092
 4721TIP3    H214170   5.493   0.106   3.205 -0.3707 -1.0087  0.2709
 4722TIP3   OH214171   3.156   3.526   2.861  0.1344  0.4833  0.3777
 4722TIP3    H114172   3.219   3.532   2.790  0.3316 -0.0145  0.5053
 4722TIP3    H214173   3.147   3.432   2.878 -0.5742  0.5476  0.4189
 4723TIP3   OH214174   4.679   0.534   1.648 -0.3217  0.2705 -0.1003
 4723TIP3    H114175   4.644   0.590   1.578 -0.3091 -0.3288 -0.5995
 4723TIP3    H214176   4.635   0.450   1.635 -0.7767  0.3186  0.9942
 4724TIP3   OH214177   3.097   2.720   1.403 -0.6163 -0.1124 -0.2394
 4724TIP3    H114178   3.028   2.717   1.337 -1.3597  1.3631  0.4320
 4724TIP3    H214179   3.150   2.796   1.379 -0.7127  0.2524  0.6706
 4725TIP3   OH214180   2.641   2.685   3.069 -0.0528 -0.2422 -0.0193
 4725TIP3    H114181   2.609   2.718   3.154  1.2529 -0.2284  0.4901
 4725TIP3    H214182   2.666   2.764   3.021 -0.4924 -0.2715 -0.3032
 4726TIP3   OH214183   3.354   4.691   1.813 -0.1709  0.1685 -0.1336
 4726TIP3    H114184   3.356   4.682   1.717  0.9132  0.2522 -0.1320
 4726TIP3    H214185   3.431   4.743   1.834  0.4009 -1.0474  0.9062
 4727TIP3   OH214186   1.345   2.676   2.753  0.0398  0.1955  0.2030
 4727TIP3    H114187   1.318   2.730   2.828 -1.1804 -2.4479  1.8090
 4727TIP3    H214188   1.298   2.714   2.679 -0.6314  1.4584  1.2268
 4728TIP3   OH214189   1.524  -0.000   0.936  0.5243 -0.1155  0.2492
 4728TIP3    H114190   1.439   0.003   0.979  0.3850  0.1443 -0.0426
 4728TIP3    H214191   1.578   0.064   0.983  0.4297  0.0330  0.1529
 4729TIP3   OH214192   2.854   5.612   0.389 -0.7062  0.0870  0.1087
 4729TIP3    H114193   2.946   5.588   0.395 -0.8716 -0.8509 -0.8035
 4729TIP3    H214194   2.818   5.596   0.476  0.1578  1.2657  0.7115
 4730TIP3   OH214195   5.859   5.843   2.223  0.0991  0.7688 -0.6821
 4730TIP3    H114196   5.775   5.876   2.257 -0.2263 -1.4583  0.8997
 4730TIP3    H214197   5.835   5.773   2.163  0.8213  1.8348 -2.2849
 4731TIP3   OH214198   5.270   3.248   4.679 -0.5986 -0.3731 -0.1830
 4731TIP3    H114199   5.300   3.322   4.731  1.3563 -0.4757 -1.0523
 4731TIP3    H214200   5.329   3.176   4.703 -0.6575 -0.8455 -1.3690
 4732TIP3   OH214201   5.494   2.240   4.582 -0.0969  0.0704  0.2144
 4732TIP3    H114202   5.436   2.305   4.543 -1.4420 -0.0501  1.9010
 4732TIP3    H214203   5.511   2.273   4.671  0.0567 -1.3317  0.7315
 4733TIP3   OH214204   5.955   4.093   1.700 -0.5278 -0.4413 -0.1571
 4733TIP3    H114205   5.901   4.087   1.621 -1.9265 -0.2764  0.7444
 4733TIP3    H214206   5.914   4.031   1.761 -0.2204  0.3179  0.8473
 4734TIP3   OH214207   5.358   3.878   1.053 -0.0231  0.2715  0.3541
 4734TIP3    H114208   5.359   3.873   0.957  0.8713 -0.0151  0.3693
 4734TIP3    H214209   5.265   3.877   1.076 -0.2252 -1.5161 -0.4205
 4735TIP3   OH214210   6.084   0.683   4.168 -0.2034 -0.3050 -0.0879
 4735TIP3    H114211   6.104   0.765   4.123  0.2762 -1.1148 -1.4154
 4735TIP3    H214212   6.165   0.662   4.215  0.0553 -0.5702 -0.6447
 4736TIP3   OH214213   0.150   3.714   3.784  0.1541  0.3448  0.0634
 4736TIP3    H114214   0.180   3.804   3.767 -0.3189  0.1418 -2.1505
 4736TIP3    H214215   0.087   3.696   3.714  0.2614 -1.7395  0.4374
 4737TIP3   OH214216   5.705   2.930   4.866 -0.0507 -0.1764 -0.6805
 4737TIP3    H114217   5.790   2.945   4.906 -0.1573 -1.0936 -0.0794
 4737TIP3    H214218   5.706   2.983   4.786  0.7169  0.5482 -0.2044
 4738TIP3   OH214219   3.070   3.233   0.866  0.6968 -0.5775 -0.5328
 4738TIP3    H114220   2.996   3.172   0.868 -0.8148  1.1159  2.0395
 4738TIP3    H214221   3.143   3.182   0.831 -0.7703 -3.4750  0.3188
 4739TIP3   OH214222   1.838   3.273   3.714 -0.2875  0.1635 -0.3178
 4739TIP3    H114223   1.909   3.292   3.652  0.4169  0.2809  0.5106
 4739TIP3    H214224   1.776   3.345   3.703  0.3183  0.7157 -0.1830
 4740TIP3   OH214225   0.163   4.845   0.868 -0.4618  0.1606  0.1425
 4740TIP3    H114226   0.192   4.753   0.863  1.3800  0.5960  1.7114
 4740TIP3    H214227   0.110   4.857   0.789  2.2457 -1.2507 -2.1013
 4741TIP3   OH214228   3.046   1.505   2.602  0.0155 -0.4489  0.6410
 4741TIP3    H114229   3.055   1.599   2.620  0.4609 -0.3549 -0.0595
 4741TIP3    H214230   3.123   1.483   2.550 -0.6875 -0.9570 -0.2059
 4742TIP3   OH214231   4.969   2.390   0.475 -0.6182  0.0343  0.1724
 4742TIP3    H114232   5.020   2.407   0.396 -0.5252  0.8334  0.3934
 4742TIP3    H214233   4.923   2.472   0.492 -0.5280 -0.0803  1.0278
 4743TIP3   OH214234   3.781   5.308   4.759  0.0497  0.1505 -0.3453
 4743TIP3    H114235   3.854   5.281   4.704 -0.8595  1.0882 -2.1127
 4743TIP3    H214236   3.727   5.363   4.702 -2.4659 -1.1259  0.6382
 4744TIP3   OH214237   2.939   2.196   4.522  0.2582 -0.9569 -0.1462
 4744TIP3    H114238   3.000   2.229   4.588 -0.9523  0.1026  0.5005
 4744TIP3    H214239   2.983   2.212   4.438 -0.6388  3.6770 -0.0318
 4745TIP3   OH214240   5.348   2.104   0.613  0.3249  0.5462  0.1991
 4745TIP3    H114241   5.296   2.030   0.646  1.8031  0.2500  2.0221
 4745TIP3    H214242   5.304   2.181   0.647  0.4315  0.3495  0.7964
 4746TIP3   OH214243   0.347   4.176   4.963 -0.4488  0.1245 -0.1679
 4746TIP3    H114244   0.396   4.145   4.888 -0.3894  0.4874 -0.2826
 4746TIP3    H214245   0.321   4.097   5.010  0.1328 -0.0699 -0.1769
 4747TIP3   OH214246   1.396   0.196   4.919  0.2636  0.0857 -0.0748
 4747TIP3    H114247   1.353   0.276   4.889 -0.4101 -0.9262 -1.9778
 4747TIP3    H214248   1.487   0.221   4.934  0.3550  0.9944 -1.8352
 4748TIP3   OH214249   1.522   3.008   2.201  0.1870  0.5841  0.2014
 4748TIP3    H114250   1.570   3.000   2.119  0.0926  0.2154  0.1834
 4748TIP3    H214251   1.473   3.090   2.192 -0.1865  0.3109 -0.2955
 4749TIP3   OH214252   3.119   1.110   4.315  0.0007  0.1258  0.1382
 4749TIP3    H114253   3.030   1.119   4.280 -0.3905 -0.3930  0.9513
 4749TIP3    H214254   3.161   1.046   4.258 -0.6678 -0.8104  0.6767
 4750TIP3   OH214255   0.388   2.306   3.007  0.1597 -0.4567  0.7053
 4750TIP3    H114256   0.468   2.266   3.041  1.3771  0.8084 -0.5243
 4750TIP3    H214257   0.328   2.306   3.082  1.6208 -0.6020  1.9426
 4751TIP3   OH214258   4.918   2.090   3.223  0.1358 -0.1821 -0.2930
 4751TIP3    H114259   4.891   2.174   3.260  2.0933  0.2618  0.2718
 4751TIP3    H214260   5.002   2.108   3.180  0.1019 -1.6444 -1.0624
 4752TIP3   OH214261   4.727   3.442   2.256  0.3955 -0.0931 -0.2189
 4752TIP3    H114262   4.798   3.506   2.244  0.3548  0.4546  2.0670
 4752TIP3    H214263   4.757   3.386   2.328 -2.0926  1.1582  1.9419
 4753TIP3   OH214264   3.381   5.555   1.494  0.8190  0.2843 -0.3529
 4753TIP3    H114265   3.293   5.519   1.482  1.1569 -0.9086  0.4317
 4753TIP3    H214266   3.402   5.598   1.412 -0.2066 -0.0837 -0.8209
 4754TIP3   OH214267   1.046   5.410   2.225 -0.1321  0.0009 -0.0017
 4754TIP3    H114268   1.037   5.473   2.153 -3.3276  0.8012  0.9613
 4754TIP3    H214269   1.068   5.464   2.301 -1.3251 -0.2008  0.5057
 4755TIP3   OH214270   0.587   0.617   0.910 -0.2409 -0.0396 -0.1806
 4755TIP3    H114271   0.637   0.669   0.847 -0.7135  0.2834 -0.2928
 4755TIP3    H214272   0.504   0.598   0.866 -0.3727 -0.2482  0.1484
 4756TIP3   OH214273   5.009   1.531   3.231  0.0797  0.7175 -0.3703
 4756TIP3    H114274   4.965   1.555   3.149 -0.8045  1.0905  0.1975
 4756TIP3    H214275   4.982   1.441   3.247 -0.3120  0.8738 -0.1359
 4757TIP3   OH214276   3.745   0.697   0.977  0.4588  0.0678  0.6400
 4757TIP3    H114277   3.679   0.764   0.994  0.6369  0.0163  1.5832
 4757TIP3    H214278   3.698   0.614   0.980 -0.3603  0.1852 -3.3734
 4758TIP3   OH214279   1.928   2.131   2.324 -0.3301 -0.1058  0.5773
 4758TIP3    H114280   1.836   2.140   2.298  0.1670  0.0666 -1.2946
 4758TIP3    H214281   1.967   2.216   2.302  0.5663 -0.6615 -0.0614
 4759TIP3   OH214282   2.666   5.644   1.083 -0.2346  0.7775  0.4127
 4759TIP3    H114283   2.751   5.662   1.123 -0.9642  1.3499  1.7608
 4759TIP3    H214284   2.621   5.728   1.081 -0.8476  0.4520 -0.1345
 4760TIP3   OH214285   1.681   3.280   4.329 -0.1424  0.1046  0.2534
 4760TIP3    H114286   1.653   3.189   4.336  1.3729 -0.4893 -0.7904
 4760TIP3    H214287   1.660   3.304   4.238  2.3193 -0.2783 -0.4835
 4761TIP3   OH214288   6.152   5.146   4.033 -0.0802  0.1217  0.0681
 4761TIP3    H114289   6.118   5.086   4.100 -0.7910 -0.4406 -0.7866
 4761TIP3    H214290   6.169   5.090   3.957  2.0518  0.5140  0.2027
 4762TIP3   OH214291   5.417   3.502   2.204  0.1102 -0.0375  0.0333
 4762TIP3    H114292   5.483   3.465   2.263  1.7917  2.0121 -0.4690
 4762TIP3    H214293   5.466   3.533   2.128 -1.3052  2.1284 -0.0958
 4763TIP3   OH214294   0.385   0.531   0.056 -0.3473 -0.0296 -0.2500
 4763TIP3    H114295   0.333   0.602   0.092 -0.8402 -0.0628 -0.8762
 4763TIP3    H214296   0.476   0.562   0.062 -0.4585  0.1337  0.6094
 4764TIP3   OH214297   4.439   4.134   1.423  0.1447  0.1080 -0.1404
 4764TIP3    H114298   4.448   4.041   1.404  2.4726 -0.0372  1.2632
 4764TIP3    H214299   4.418   4.138   1.516  2.3834  0.9590  0.3928
 4765TIP3   OH214300   0.842   2.901   0.814 -0.1134  0.3615 -0.2338
 4765TIP3    H114301   0.769   2.961   0.802 -1.1961 -0.5095  1.5613
 4765TIP3    H214302   0.898   2.943   0.878  0.9558  0.9653 -1.5067
 4766TIP3   OH214303   5.928   2.165   0.250 -0.3408 -0.5329  0.0610
 4766TIP3    H114304   5.870   2.241   0.258 -0.8275 -1.1053  2.6735
 4766TIP3    H214305   6.006   2.188   0.301  0.5700 -0.8785 -1.1288
 4767TIP3   OH214306   6.122   1.145   1.032 -0.3349 -0.5719  0.4993
 4767TIP3    H114307   6.160   1.213   0.976 -1.7961 -0.4135 -0.3509
 4767TIP3    H214308   6.120   1.067   0.978 -1.7272 -0.4269  0.2917
 4768TIP3   OH214309   6.059   0.392   0.063 -0.3363 -0.1801 -0.4487
 4768TIP3    H114310   6.024   0.453   0.127  0.5756  0.7425 -0.8073
 4768TIP3    H214311   6.132   0.349   0.108 -0.0176  0.1018 -0.6896
 4769TIP3   OH214312   2.043   2.435   0.444 -0.4365 -0.2060 -0.3210
 4769TIP3    H114313   2.085   2.351   0.458  2.3324  0.7344 -2.1566
 4769TIP3    H214314   1.985   2.421   0.369  0.8685 -0.2842 -1.3533
 4770TIP3   OH214315   2.527   2.207   0.224  0.9737 -0.7626  0.0722
 4770TIP3    H114316   2.441   2.180   0.194  0.7951 -0.7094  0.5373
 4770TIP3    H214317   2.544   2.289   0.178  1.0342 -1.0699 -0.4711
 4771TIP3   OH214318   5.730   0.491   4.443 -0.7863  0.6633  0.0342
 4771TIP3    H114319   5.750   0.451   4.359 -0.1436  1.4120 -0.1781
 4771TIP3    H214320   5.681   0.570   4.420 -4.2303 -1.1561  0.5297
 4772TIP3   OH214321   1.007   3.234   1.563  0.3235 -0.5112 -0.1709
 4772TIP3    H114322   1.032   3.145   1.539 -1.2029 -0.6803 -1.2525
 4772TIP3    H214323   0.952   3.264   1.492  1.6733  1.7415 -0.3768
 4773TIP3   OH214324   4.335   3.943   3.957 -0.3513 -0.1616 -0.0021
 4773TIP3    H114325   4.303   3.999   3.886  0.7489  0.1867 -0.2469
 4773TIP3    H214326   4.386   3.875   3.913 -0.5098 -0.5368  0.3912
 4774TIP3   OH214327   3.796   0.832   0.489  0.3902 -0.0468  0.0451
 4774TIP3    H114328   3.741   0.901   0.524  0.5147 -0.2725  0.7131
 4774TIP3    H214329   3.812   0.774   0.564  1.5717  0.0417 -0.1206
 4775TIP3   OH214330   4.099   2.615   1.929 -0.0492 -0.7154  0.6994
 4775TIP3    H114331   4.149   2.640   2.006  2.6873  0.4673 -1.2759
 4775TIP3    H214332   4.045   2.691   1.909 -0.3662 -0.8237  1.1387
 4776TIP3   OH214333   0.227   5.387   4.494  0.7261  0.5718 -0.0313
 4776TIP3    H114334   0.222   5.304   4.541 -2.3862  0.6106 -0.1135
 4776TIP3    H214335   0.274   5.445   4.553 -0.5208 -0.1843  1.7964
 4777TIP3   OH214336   0.505   0.977   1.596 -0.4962 -0.7661 -0.1228
 4777TIP3    H114337   0.419   1.013   1.578  0.2474  1.5443  0.5823
 4777TIP3    H214338   0.501   0.950   1.688 -0.1168  0.6499  0.3461
 4778TIP3   OH214339   6.214   5.931   3.785 -0.2222  0.5615 -0.4527
 4778TIP3    H114340   6.267   5.959   3.710  0.8746 -1.2721 -0.4128
 4778TIP3    H214341   6.203   5.837   3.774 -4.4898  0.9091 -1.0245
 4779TIP3   OH214342   3.410   3.766   2.977 -0.2957  0.6451  0.5458
 4779TIP3    H114343   3.389   3.814   3.057 -0.4185 -0.5907  1.2809
 4779TIP3    H214344   3.361   3.684   2.984  1.3598 -0.4265  0.2363
 4780TIP3   OH214345   2.239   3.345   0.293  0.4793  0.6106  0.4341
 4780TIP3    H114346   2.249   3.387   0.208 -1.4228  0.9033  0.3307
 4780TIP3    H214347   2.240   3.251   0.274  2.8894  0.5573  0.4626
 4781TIP3   OH214348   4.872   0.786   1.027 -0.7379  0.2366  0.6653
 4781TIP3    H114349   4.787   0.800   0.985 -0.9505 -0.3923  0.8905
 4781TIP3    H214350   4.894   0.872   1.063 -0.8529  0.6306 -0.1683
 4782TIP3   OH214351   3.331   4.937   4.326 -0.2702  0.0947  0.8092
 4782TIP3    H114352   3.426   4.923   4.324  0.0861  1.7714 -3.3669
 4782TIP3    H214353   3.319   5.007   4.391  1.2059 -0.6069  1.8984
 4783TIP3   OH214354   2.402   4.488   1.059  0.0679 -0.2107 -0.1125
 4783TIP3    H114355   2.422   4.404   1.101 -0.4237 -0.0411  0.4659
 4783TIP3    H214356   2.413   4.553   1.128 -3.9531 -0.2175  0.7754
 4784TIP3   OH214357   3.133   2.061   4.010  0.1609  0.4320  0.6526
 4784TIP3    H114358   3.083   1.989   4.047  1.7701 -0.9270  0.3552
 4784TIP3    H214359   3.161   2.028   3.924  0.3113  1.7051  0.1978
 4785TIP3   OH214360   2.644   3.508   4.190 -0.6476  0.0110  0.2010
 4785TIP3    H114361   2.667   3.511   4.283  0.2634 -1.0983  0.0410
 4785TIP3    H214362   2.587   3.583   4.177 -0.0456  0.7246  1.4542
 4786TIP3   OH214363   3.304   2.073   0.865  0.4284 -0.2157  1.1957
 4786TIP3    H114364   3.238   2.038   0.925 -0.3829 -2.5205 -0.8608
 4786TIP3    H214365   3.253   2.117   0.796  0.9802 -1.5505 -0.1314
 4787TIP3   OH214366   1.067   2.324   4.740  0.3260  0.2812  0.4002
 4787TIP3    H114367   1.030   2.406   4.772  0.5090  1.1550 -1.4871
 4787TIP3    H214368   1.077   2.337   4.645  1.6972 -1.4012  0.2612
 4788TIP3   OH214369   0.280   3.253   2.821 -0.1615 -0.1538 -0.3609
 4788TIP3    H114370   0.293   3.348   2.830  1.8081 -0.4606  0.6827
 4788TIP3    H214371   0.368   3.216   2.829 -0.9546 -2.1269 -0.1208
 4789TIP3   OH214372   5.700   1.207   1.495  0.6537  0.6276  0.4223
 4789TIP3    H114373   5.734   1.270   1.559 -2.5622  1.3241  1.6553
 4789TIP3    H214374   5.639   1.153   1.545  0.5895 -1.1076 -1.3986
 4790TIP3   OH214375   1.136   3.707   3.111  0.1614 -0.3686 -0.3622
 4790TIP3    H114376   1.204   3.762   3.151 -0.2243  1.4506 -2.0535
 4790TIP3    H214377   1.173   3.682   3.026 -0.8747 -0.1932 -0.8787
 4791TIP3   OH214378   4.105   1.747   3.390 -0.1392  0.3914  0.2277
 4791TIP3    H114379   4.149   1.684   3.447 -0.5931 -0.6176 -0.4902
 4791TIP3    H214380   4.176   1.787   3.340  0.0599 -0.8531 -0.5566
 4792TIP3   OH214381   3.929   5.088   4.233 -0.0953 -0.0972 -0.2200
 4792TIP3    H114382   3.961   5.000   4.211  0.5264 -0.1816  0.9332
 4792TIP3    H214383   4.002   5.146   4.212  0.3081 -0.1218  1.0321
 4793TIP3   OH214384   0.638   5.642   4.092  0.4380 -0.5032  0.1407
 4793TIP3    H114385   0.580   5.692   4.034  1.9226  0.6200 -0.4574
 4793TIP3    H214386   0.590   5.636   4.175 -0.9246 -0.4605 -0.6229
 4794TIP3   OH214387   2.371   1.727   3.285  0.8274  0.0845  0.0097
 4794TIP3    H114388   2.382   1.795   3.219 -2.1479  0.1432 -0.5636
 4794TIP3    H214389   2.372   1.774   3.368  2.7245  0.2507 -0.0663
 4795TIP3   OH214390   3.146   3.708   1.200  0.2447 -0.1284  0.3211
 4795TIP3    H114391   3.052   3.704   1.215  0.0747  1.5797 -0.0622
 4795TIP3    H214392   3.185   3.673   1.281 -0.7038 -0.9829  0.4217
 4796TIP3   OH214393   1.011   0.784   4.171  0.7185 -0.4182 -0.5652
 4796TIP3    H114394   1.104   0.793   4.191  0.6299  0.8622 -0.6828
 4796TIP3    H214395   0.986   0.699   4.209  1.2609  0.4886  1.9552
 4797TIP3   OH214396   2.339   1.866   4.174  0.2879 -0.6547  0.4748
 4797TIP3    H114397   2.420   1.894   4.217  0.8774 -1.5810  0.0104
 4797TIP3    H214398   2.356   1.875   4.081 -1.3084  2.1879  0.3745
 4798TIP3   OH214399   3.604   2.270   3.365  0.5634  0.2873  0.1019
 4798TIP3    H114400   3.614   2.278   3.460 -0.1273 -3.7788  0.6741
 4798TIP3    H214401   3.677   2.214   3.338 -2.1817 -3.2178 -0.7383
 4799TIP3   OH214402   0.230   0.361   0.334 -0.0545 -0.4009  0.6455
 4799TIP3    H114403   0.217   0.267   0.324  0.1198 -0.9519  4.1491
 4799TIP3    H214404   0.321   0.376   0.309  0.0916 -1.2816  0.6353
 4800TIP3   OH214405   2.278   2.563   4.878 -0.6408 -0.4021 -0.2560
 4800TIP3    H114406   2.201   2.527   4.921 -1.5155  1.1718 -0.4499
 4800TIP3    H214407   2.283   2.653   4.908  0.6091 -0.2151 -0.9451
 4801TIP3   OH214408   0.288   0.533   0.769 -0.0320 -0.1810 -0.1233
 4801TIP3    H114409   0.287   0.556   0.676  2.4519  0.9303  0.0488
 4801TIP3    H214410   0.237   0.601   0.812  2.7452  2.1356 -0.2352
 4802TIP3   OH214411   3.580   5.025   2.903  0.1318 -0.0583  0.2573
 4802TIP3    H114412   3.541   5.038   2.990  0.1433  0.7220  0.1572
 4802TIP3    H214413   3.606   5.113   2.876  1.0921 -0.4367 -0.0897
 4803TIP3   OH214414   4.554   4.602   3.966 -0.0936  0.5879  0.3452
 4803TIP3    H114415   4.646   4.627   3.973  0.8403 -2.5049  0.5951
 4803TIP3    H214416   4.523   4.647   3.887  2.0467  0.5359 -0.5900
 4804TIP3   OH214417   0.438   5.838   1.570  0.3725 -0.3733  0.0827
 4804TIP3    H114418   0.399   5.829   1.657  0.8741 -3.4121  0.1196
 4804TIP3    H214419   0.519   5.886   1.585 -0.2614  0.4502  1.0216
 4805TIP3   OH214420   3.942   2.385   0.825 -0.2270 -0.7733  0.2747
 4805TIP3    H114421   3.891   2.465   0.842  1.6895  0.4707  0.4711
 4805TIP3    H214422   3.931   2.370   0.731 -1.0322 -0.5959  0.3341
 4806TIP3   OH214423   1.750   1.431   0.163 -0.2065  0.2649 -0.1563
 4806TIP3    H114424   1.773   1.349   0.206 -1.4819  0.3973  0.8492
 4806TIP3    H214425   1.752   1.496   0.232 -1.0520  0.7223 -0.5469
 4807TIP3   OH214426   0.780   1.601   2.776 -0.1367  0.2012  0.6269
 4807TIP3    H114427   0.771   1.641   2.862  3.4952  0.0245  1.2432
 4807TIP3    H214428   0.825   1.667   2.723  1.8166 -1.2736  0.3174
 4808TIP3   OH214429   5.782   5.693   2.643  0.2799 -0.0050  0.2841
 4808TIP3    H114430   5.786   5.767   2.704 -0.6526  0.3092 -0.0272
 4808TIP3    H214431   5.778   5.616   2.700  1.9148  0.1047  0.6163
 4809TIP3   OH214432   0.467   3.168   3.094 -0.3857 -0.2421  0.7711
 4809TIP3    H114433   0.417   3.215   3.160  0.3818 -2.7799  3.3706
 4809TIP3    H214434   0.428   3.081   3.092  0.9936 -0.8878 -0.5548
 4810TIP3   OH214435   3.617   5.130   1.872 -0.1756  0.1463  0.3603
 4810TIP3    H114436   3.694   5.188   1.871  1.3656 -1.7798  0.0683
 4810TIP3    H214437   3.635   5.066   1.803 -1.4794 -1.0637  1.0883
 4811TIP3   OH214438   2.692   1.331   3.123  0.0274  0.4720  0.1421
 4811TIP3    H114439   2.661   1.377   3.045 -0.9014  0.4881  0.5083
 4811TIP3    H214440   2.696   1.239   3.095  1.7927  0.7172 -0.5591
 4812TIP3   OH214441   3.239   4.812   2.315 -0.8186  0.2050  0.1197
 4812TIP3    H114442   3.247   4.879   2.383 -0.8054 -1.1238  1.5141
 4812TIP3    H214443   3.163   4.759   2.343 -0.3274 -0.8422 -0.4588
 4813TIP3   OH214444   6.010   1.685   4.894 -0.0283  0.1389  0.0016
 4813TIP3    H114445   5.997   1.653   4.805 -0.6697  2.0714 -0.6302
 4813TIP3    H214446   6.033   1.777   4.884  0.7126  0.1976  1.8075
 4814TIP3   OH214447   3.665   1.879   3.688 -0.3394  0.1090 -0.0707
 4814TIP3    H114448   3.747   1.896   3.641 -0.0758  0.5031  0.5235
 4814TIP3    H214449   3.602   1.857   3.619  0.0418  0.6686 -0.6039
 4815TIP3   OH214450   4.613   4.025   3.792  0.2277 -0.3084 -0.4617
 4815TIP3    H114451   4.686   3.964   3.785  1.1448  0.6325  0.4378
 4815TIP3    H214452   4.542   3.984   3.743  0.5660 -2.4297  0.7318
 4816TIP3   OH214453   4.582   2.568   1.688  0.0437  0.4842  0.0226
 4816TIP3    H114454   4.518   2.568   1.759 -0.1564 -0.5195 -0.1431
 4816TIP3    H214455   4.565   2.649   1.640 -0.1141  0.9541  0.8464
 4817TIP3   OH214456   5.129   2.226   3.069  0.1704 -0.4942 -0.0851
 4817TIP3    H114457   5.161   2.316   3.070 -1.2736  0.0507  1.4469
 4817TIP3    H214458   5.073   2.222   2.991  0.0234  0.0354 -0.0142
 4818TIP3   OH214459   2.212   2.206   5.003  0.5495  0.4389 -0.2131
 4818TIP3    H114460   2.294   2.171   4.968  0.5372 -0.3569  0.5378
 4818TIP3    H214461   2.173   2.134   5.051 -1.0516  0.5256 -1.2889
 4819TIP3   OH214462   3.057   3.442   5.092  0.8098  0.0709  0.4823
 4819TIP3    H114463   3.127   3.482   5.144 -1.4011  2.5725  1.8224
 4819TIP3    H214464   2.982   3.439   5.151 -0.2020 -2.8400 -0.7746
 4820TIP3   OH214465   3.610   4.962   4.327  0.2473 -0.3230 -0.2062
 4820TIP3    H114466   3.697   4.959   4.367 -0.5198 -1.9504  1.5030
 4820TIP3    H214467   3.592   5.055   4.317  1.7436  0.0732  0.4019
 4821TIP3   OH214468   3.574   3.277   4.247  0.1311  0.4329  0.2909
 4821TIP3    H114469   3.514   3.270   4.321 -0.1838  1.4325  0.1490
 4821TIP3    H214470   3.605   3.368   4.250  1.0240  0.1567 -0.1137
 4822TIP3   OH214471   5.001   2.673   3.654  0.3836  0.1770  0.1686
 4822TIP3    H114472   4.917   2.699   3.615  0.8046 -0.6726 -1.4214
 4822TIP3    H214473   4.987   2.583   3.683  0.8174 -0.0749 -0.3823
 4823TIP3   OH214474   5.660   5.717   2.395 -0.1098  0.2017 -0.3933
 4823TIP3    H114475   5.591   5.783   2.400 -0.4648 -0.2122  0.2591
 4823TIP3    H214476   5.694   5.711   2.484  0.6257  0.2439 -0.6672
 4824TIP3   OH214477   2.233   5.794   1.931 -0.4933  0.1409  0.1436
 4824TIP3    H114478   2.299   5.818   1.996 -0.4552  0.0981  0.1210
 4824TIP3    H214479   2.208   5.876   1.890  2.9112 -0.2118 -3.1281
 4825TIP3   OH214480   1.010   0.935   2.529  0.1553  0.7095 -0.1273
 4825TIP3    H114481   1.098   0.942   2.490  0.5401  0.2101  0.6206
 4825TIP3    H214482   0.982   1.025   2.541  0.6925  0.8810 -0.1188
 4826TIP3   OH214483   0.286   1.974   2.019  0.2050 -0.1391  0.1499
 4826TIP3    H114484   0.212   1.979   1.959 -0.7322 -0.7831  1.2156
 4826TIP3    H214485   0.302   2.064   2.047  1.6174  0.4064 -2.1397
 4827TIP3   OH214486   1.246   2.583   4.499  0.1721 -0.3922  0.5147
 4827TIP3    H114487   1.280   2.623   4.419  1.5832 -0.5641  0.9906
 4827TIP3    H214488   1.218   2.657   4.553  0.6938 -0.1774  0.4967
 4828TIP3   OH214489   4.521   2.985   1.832 -0.2944 -0.0357 -0.2902
 4828TIP3    H114490   4.585   2.963   1.899 -0.5782  1.1770  0.4143
 4828TIP3    H214491   4.472   3.058   1.869 -0.3367  0.7967 -1.9057
 4829TIP3   OH214492   1.890   5.263   5.137  0.1386  0.2902 -0.0814
 4829TIP3    H114493   1.933   5.348   5.127  0.8869 -0.1068 -0.3380
 4829TIP3    H214494   1.861   5.240   5.049  1.7290 -0.6293 -0.3998
 4830TIP3   OH214495   5.436   2.784   3.539 -0.5390  0.3368  0.1315
 4830TIP3    H114496   5.433   2.702   3.489  0.3856 -0.9184  2.0140
 4830TIP3    H214497   5.510   2.832   3.501  1.7473 -1.6800  1.7477
 4831TIP3   OH214498   3.933   1.135   0.535 -0.5302 -0.0685  0.1937
 4831TIP3    H114499   3.888   1.186   0.467 -1.8728 -0.3807  0.8231
 4831TIP3    H214500   3.880   1.147   0.614  0.0458 -1.1198  0.7691
 4832TIP3   OH214501   4.744   0.092   4.882 -0.8671  0.6923  0.4015
 4832TIP3    H114502   4.682   0.063   4.816  0.3567  1.5175 -1.1943
 4832TIP3    H214503   4.823   0.114   4.832  0.6721 -0.1965  2.3304
 4833TIP3   OH214504   5.341   5.511   2.037  0.7902  0.5586  0.0136
 4833TIP3    H114505   5.292   5.474   1.964  0.9751  0.8027 -0.2319
 4833TIP3    H214506   5.295   5.478   2.115  1.4912 -0.9578 -0.1774
 4834TIP3   OH214507   4.756   1.845   1.639  0.3177 -0.1150  0.2431
 4834TIP3    H114508   4.756   1.926   1.587 -0.0616 -0.3871 -0.1913
 4834TIP3    H214509   4.686   1.793   1.601  1.3638 -1.1647 -0.2753
 4835TIP3   OH214510   0.846   2.173   1.604 -0.0322  0.5234  0.6516
 4835TIP3    H114511   0.888   2.245   1.557 -0.5089  0.9437  0.8557
 4835TIP3    H214512   0.812   2.115   1.535 -0.3861  0.9340  0.4734
 4836TIP3   OH214513   6.224   0.600   2.423 -0.8677  0.8069 -0.1126
 4836TIP3    H114514   6.292   0.550   2.377 -2.1353 -0.6736 -0.4991
 4836TIP3    H214515   6.214   0.680   2.372 -1.2438 -0.1645 -1.6376
 4837TIP3   OH214516   3.019   2.246   0.960 -0.2958  0.2867  0.6356
 4837TIP3    H114517   2.976   2.319   1.005 -0.0371  0.5367  0.4777
 4837TIP3    H214518   3.045   2.281   0.876 -2.1268 -0.5913 -0.3598
 4838TIP3   OH214519   1.817   5.344   4.565  0.0682  0.3797  0.2105
 4838TIP3    H114520   1.724   5.353   4.542  0.0146 -1.1559 -0.3102
 4838TIP3    H214521   1.820   5.359   4.660 -0.5898  1.1690  0.1161
 4839TIP3   OH214522   2.190   0.779   2.937  0.5073 -0.1648  0.4968
 4839TIP3    H114523   2.239   0.697   2.928  0.0939 -0.3195 -0.4606
 4839TIP3    H214524   2.108   0.754   2.979  0.4110 -0.2424  0.2684
 4840TIP3   OH214525   3.103   1.733   3.563 -0.3098  0.5318  0.1686
 4840TIP3    H114526   3.009   1.722   3.571 -0.4888  0.9911 -1.0031
 4840TIP3    H214527   3.113   1.813   3.510  0.7064 -0.1799 -0.7582
 4841TIP3   OH214528   5.058   0.899   1.276  0.0119 -0.2489 -0.2286
 4841TIP3    H114529   5.117   0.937   1.341 -1.5616  0.0359  1.1024
 4841TIP3    H214530   5.011   0.831   1.323 -2.0156  0.7440 -0.6694
 4842TIP3   OH214531   0.294   5.085   0.536  0.3723  0.4953 -0.3349
 4842TIP3    H114532   0.359   5.018   0.554  0.5447  0.7835  0.1442
 4842TIP3    H214533   0.277   5.126   0.621 -0.3847  0.4707 -0.4648
 4843TIP3   OH214534   6.185   1.116   3.670  0.0353 -0.6339  0.8641
 4843TIP3    H114535   6.280   1.105   3.674  0.1571  0.0401  0.0671
 4843TIP3    H214536   6.172   1.198   3.622 -0.9421 -0.5069  1.3252
 4844TIP3   OH214537   4.608   3.033   2.900 -0.6616 -0.1901  0.0529
 4844TIP3    H114538   4.655   2.954   2.874 -2.2281 -0.8960 -0.8295
 4844TIP3    H214539   4.628   3.044   2.993  2.2589  0.3461 -0.5468
 4845TIP3   OH214540   4.582   1.384   5.018  0.1334  0.3525 -0.1845
 4845TIP3    H114541   4.617   1.344   4.939 -1.0620 -0.2723 -0.4043
 4845TIP3    H214542   4.489   1.394   5.002  0.3155  3.0077 -0.0415
 4846TIP3   OH214543   4.791   2.907   4.620 -0.5480 -0.3145 -0.0242
 4846TIP3    H114544   4.704   2.930   4.588 -0.8391 -1.2631  0.0578
 4846TIP3    H214545   4.776   2.833   4.679  0.2131  0.0818  0.6983
 4847TIP3   OH214546   0.256   3.626   0.961  0.2361 -0.5086 -0.1807
 4847TIP3    H114547   0.308   3.687   1.014  0.0263 -1.2980  0.9630
 4847TIP3    H214548   0.167   3.662   0.964  0.3420 -0.2145 -0.5218
 4848TIP3   OH214549   1.796   1.198   1.088  0.1492 -0.9967 -0.0240
 4848TIP3    H114550   1.848   1.128   1.048  1.2991  0.0052 -0.3440
 4848TIP3    H214551   1.829   1.204   1.178  0.7919 -0.1928 -0.3002
 4849TIP3   OH214552   4.079   2.776   0.025  0.0934  0.0380  0.3730
 4849TIP3    H114553   4.122   2.843   0.079  2.4579  0.1941 -1.5560
 4849TIP3    H214554   4.038   2.824  -0.046  1.0106 -0.4623 -0.5174
 4850TIP3   OH214555   3.444   1.578   2.743  0.4840 -0.1047  0.2509
 4850TIP3    H114556   3.489   1.662   2.753  1.9391 -0.6743 -0.9923
 4850TIP3    H214557   3.445   1.540   2.831  2.0413  0.1441  0.3809
 4851TIP3   OH214558   1.928   1.606   3.207 -0.3463  0.1381 -0.4258
 4851TIP3    H114559   1.983   1.625   3.131 -0.2023 -0.3186 -0.4400
 4851TIP3    H214560   1.977   1.540   3.256  1.3664  2.9224  2.0138
 4852TIP3   OH214561   3.454   5.348   3.334 -0.3183  0.2291  0.0612
 4852TIP3    H114562   3.460   5.280   3.268 -2.0457  0.8106 -0.7711
 4852TIP3    H214563   3.495   5.425   3.294  1.1180 -0.1481  0.7748
 4853TIP3   OH214564   3.067   3.977   3.150 -0.2874  0.2203  0.1782
 4853TIP3    H114565   3.056   3.891   3.110 -0.7732 -0.5127  1.8187
 4853TIP3    H214566   3.145   3.968   3.204  0.1534  1.0913 -0.2900
 4854TIP3   OH214567   5.133   1.101   4.773  0.3939  0.0283  0.2033
 4854TIP3    H114568   5.039   1.087   4.768  0.3572  0.4831 -0.5308
 4854TIP3    H214569   5.143   1.187   4.813  0.5198 -0.3833  1.0609
 4855TIP3   OH214570   2.114   2.366   1.327  0.4391  0.0463 -0.6662
 4855TIP3    H114571   2.092   2.301   1.394  1.3362  0.6429  0.2337
 4855TIP3    H214572   2.171   2.320   1.266  0.9915 -0.0488 -0.0865
 4856TIP3   OH214573   2.667   3.222   0.459 -0.0001 -0.0277 -0.2851
 4856TIP3    H114574   2.579   3.186   0.448 -0.4581  0.3968  1.6348
 4856TIP3    H214575   2.681   3.224   0.554  1.6952  0.8572 -0.5033
 4857TIP3   OH214576   0.454   3.801   4.540 -0.4961  0.2930 -0.5632
 4857TIP3    H114577   0.454   3.807   4.444  0.0969 -2.0055 -0.7485
 4857TIP3    H214578   0.362   3.790   4.563 -0.5267 -0.2997 -0.9604
 4858TIP3   OH214579   3.802   2.302   1.660  0.0401 -0.8310 -0.0999
 4858TIP3    H114580   3.798   2.376   1.720  1.3129 -0.8147  0.0039
 4858TIP3    H214581   3.733   2.243   1.690  0.7514 -0.9013  1.5033
 4859TIP3   OH214582   5.580   4.121   0.954 -0.0557  0.0035  0.3247
 4859TIP3    H114583   5.543   4.110   0.866 -2.0908 -0.1614  1.1271
 4859TIP3    H214584   5.631   4.041   0.968 -1.6851 -1.1383  0.1399
 4860TIP3   OH214585   3.564   5.268   4.519 -0.1284  0.0837  0.2399
 4860TIP3    H114586   3.562   5.360   4.544  1.2114  0.3161 -0.4183
 4860TIP3    H214587   3.590   5.269   4.427 -0.3142 -0.9490  0.1683
 4861TIP3   OH214588   3.774   3.342   1.778  0.2197  0.7682 -0.4078
 4861TIP3    H114589   3.709   3.358   1.710 -0.1223 -0.1528 -0.3101
 4861TIP3    H214590   3.727   3.292   1.845  0.9388  0.4080 -0.1667
 4862TIP3   OH214591   1.234   2.838   4.688  0.5043 -0.1685  0.0781
 4862TIP3    H114592   1.216   2.923   4.728 -1.3148 -0.4924  0.0407
 4862TIP3    H214593   1.304   2.801   4.741  2.2634  1.8686 -0.7103
 4863TIP3   OH214594   1.781   2.204   2.962  0.2617 -0.4173  0.6557
 4863TIP3    H114595   1.688   2.209   2.942  0.1748  0.7458  1.2882
 4863TIP3    H214596   1.789   2.240   3.050  1.2614 -0.8580  0.7606
 4864TIP3   OH214597   1.134   0.642   4.970 -0.0100 -0.5749  0.8789
 4864TIP3    H114598   1.216   0.677   4.935 -0.2533 -1.3694 -0.5479
 4864TIP3    H214599   1.117   0.695   5.048  1.0736  0.5982  0.3582
 4865TIP3   OH214600   3.464   5.185   5.065 -0.7074  0.2635  0.3965
 4865TIP3    H114601   3.431   5.242   4.995  1.8644  0.4953 -0.7303
 4865TIP3    H214602   3.491   5.105   5.019  0.5163  0.2060  1.1727
 4866TIP3   OH214603   2.843   1.334   2.636 -0.5623  0.2970 -0.7055
 4866TIP3    H114604   2.895   1.413   2.622 -0.6343  0.5879  0.5190
 4866TIP3    H214605   2.907   1.264   2.649 -0.4616 -0.2756 -3.5882
 4867TIP3   OH214606   3.428   0.462   1.226  0.1909 -0.6383 -0.2203
 4867TIP3    H114607   3.493   0.479   1.157  1.2113 -0.6310  0.7253
 4867TIP3    H214608   3.401   0.548   1.255  2.2994 -0.5400  1.7090
 4868TIP3   OH214609   3.968   4.116   0.512 -0.1635 -0.6571 -0.5354
 4868TIP3    H114610   3.996   4.133   0.602 -2.1594 -0.3458  0.0783
 4868TIP3    H214611   4.026   4.170   0.458  0.8488 -0.5943  0.5858
 4869TIP3   OH214612   4.288   5.660   0.279  0.0553 -0.8393 -0.1328
 4869TIP3    H114613   4.305   5.712   0.201 -1.1630  0.3101  0.3243
 4869TIP3    H214614   4.366   5.605   0.289  1.3549  0.8168 -0.6974
 4870TIP3   OH214615   0.723   0.219   4.565 -0.3750  0.0683 -0.0213
 4870TIP3    H114616   0.816   0.222   4.590  1.0369  1.4517 -4.5080
 4870TIP3    H214617   0.703   0.125   4.563  1.1126 -0.2964  0.4478
 4871TIP3   OH214618   2.065   3.301   3.324 -0.0315  0.6533  0.0092
 4871TIP3    H114619   1.971   3.295   3.336  0.2033 -0.9350  1.4191
 4871TIP3    H214620   2.081   3.273   3.234 -0.8742  0.9305 -0.2342
 4872TIP3   OH214621   5.374   2.575   3.854  0.1908  0.4612 -0.5394
 4872TIP3    H114622   5.299   2.521   3.877  2.0985 -1.8669  0.6876
 4872TIP3    H214623   5.384   2.564   3.759  1.6907 -3.1932 -0.1167
 4873TIP3   OH214624   3.089   0.202   3.782 -0.4296  0.3713 -0.2540
 4873TIP3    H114625   3.175   0.245   3.780 -0.5622  0.6368 -0.3151
 4873TIP3    H214626   3.076   0.180   3.874 -0.1984  0.1329 -0.2782
 4874TIP3   OH214627   5.926   3.039   4.060 -0.8655  0.1581 -0.4451
 4874TIP3    H114628   5.869   2.982   4.112 -2.0920  1.2373 -0.5681
 4874TIP3    H214629   6.013   3.025   4.098 -1.4337 -0.4147  0.7292
 4875TIP3   OH214630   4.534   0.844   1.564  0.0662  0.0509 -0.7270
 4875TIP3    H114631   4.487   0.926   1.548  0.3169  0.4467  0.4756
 4875TIP3    H214632   4.466   0.778   1.575 -0.1841  0.3837 -0.2443
 4876TIP3   OH214633   6.036   1.359   4.463 -0.0543 -0.2883 -0.0245
 4876TIP3    H114634   6.012   1.391   4.376 -0.0086 -0.8179 -0.2351
 4876TIP3    H214635   6.122   1.318   4.451  1.0034  1.6060  0.7320
 4877TIP3   OH214636   4.538   0.513   0.526  0.1068  0.4537  0.3936
 4877TIP3    H114637   4.447   0.485   0.530 -0.2137  1.1076 -1.4549
 4877TIP3    H214638   4.545   0.582   0.591 -0.2464 -0.7419  1.7623
 4878TIP3   OH214639   1.851   4.920   2.938  0.6743 -0.1181  0.0930
 4878TIP3    H114640   1.800   4.994   2.906  0.7203 -0.8183 -1.6982
 4878TIP3    H214641   1.843   4.925   3.034 -2.2274  0.1669 -0.0675
 4879TIP3   OH214642   3.892   0.737   4.668  0.1538 -0.5684 -0.0398
 4879TIP3    H114643   3.973   0.783   4.687 -0.5804  0.5652  0.4337
 4879TIP3    H214644   3.893   0.725   4.573  0.8513 -0.5353 -0.0437
 4880TIP3   OH214645   2.001   3.252   4.751  0.2404 -0.3110  0.1478
 4880TIP3    H114646   1.915   3.286   4.777 -0.2362 -1.5072  0.1896
 4880TIP3    H214647   2.049   3.329   4.722 -1.2840  0.2233 -1.1013
 4881TIP3   OH214648   1.284   2.313   2.716  0.5415 -0.0428  0.2992
 4881TIP3    H114649   1.225   2.241   2.697  0.2122  0.5355 -0.9305
 4881TIP3    H214650   1.245   2.389   2.674  2.0084  0.4074 -0.3161
 4882TIP3   OH214651   5.118   3.895   3.611 -0.1093 -0.0462 -0.7473
 4882TIP3    H114652   5.143   3.975   3.658 -0.1766 -1.0268  1.0635
 4882TIP3    H214653   5.030   3.912   3.580  0.2266  0.9208 -1.2172
 4883TIP3   OH214654   1.946   1.414   0.561 -0.0744  0.3172 -0.6393
 4883TIP3    H114655   1.974   1.379   0.476  1.6641 -1.3884  0.5643
 4883TIP3    H214656   1.899   1.341   0.602  2.3688 -0.2642  1.3411
 4884TIP3   OH214657   1.535   0.261   0.292  0.0789 -0.2573  0.3305
 4884TIP3    H114658   1.554   0.328   0.227 -0.2423 -1.1006 -0.6656
 4884TIP3    H214659   1.575   0.293   0.373  0.9531  0.5653 -0.4092
 4885TIP3   OH214660   5.664   3.698   3.912  0.5318  0.2829 -0.2210
 4885TIP3    H114661   5.574   3.686   3.882  0.5204 -0.1070 -0.0457
 4885TIP3    H214662   5.717   3.653   3.845  0.6092  0.6524 -0.4101
 4886TIP3   OH214663   3.257   0.827   4.779  0.5874  0.3801 -0.4981
 4886TIP3    H114664   3.296   0.847   4.693 -0.5817 -1.0154 -1.4053
 4886TIP3    H214665   3.295   0.743   4.803  0.8542  0.7322  0.3356
 4887TIP3   OH214666   5.458   4.790   3.430  0.0155  0.2788  0.4772
 4887TIP3    H114667   5.460   4.717   3.369 -0.8571  0.7631 -0.1492
 4887TIP3    H214668   5.373   4.784   3.472 -0.7559  1.8451 -0.7524
 4888TIP3   OH214669   2.192   0.037   3.615 -0.2574 -0.8106  0.2443
 4888TIP3    H114670   2.246   0.102   3.660 -0.1517  0.1257 -1.1744
 4888TIP3    H214671   2.254  -0.015   3.564 -0.6605  0.4902 -1.6673
 4889TIP3   OH214672   4.272   1.271   4.598 -0.3011 -0.5242  0.0409
 4889TIP3    H114673   4.287   1.217   4.521 -0.4663 -1.8357  0.8957
 4889TIP3    H214674   4.220   1.345   4.565  0.5142 -0.5004 -1.2790
 4890TIP3   OH214675   4.128   1.787   4.756 -0.0019 -0.5514 -0.3130
 4890TIP3    H114676   4.110   1.879   4.773  1.4420 -0.2105 -0.5304
 4890TIP3    H214677   4.063   1.740   4.809 -1.0370  0.5738 -0.5389
 4891TIP3   OH214678   3.882   2.847   2.162  0.4298 -0.3026  0.4571
 4891TIP3    H114679   3.794   2.882   2.171  0.3622 -0.7830  1.8085
 4891TIP3    H214680   3.873   2.772   2.102 -0.0128 -0.1390  0.3217
 4892TIP3   OH214681   1.738   1.178   2.735  0.3616 -0.1015 -0.1214
 4892TIP3    H114682   1.707   1.092   2.707  2.0027  0.0028 -2.5191
 4892TIP3    H214683   1.784   1.214   2.659  1.2526  2.1718  1.3643
 4893TIP3   OH214684   4.852   2.368   4.644 -0.0419  0.3602  0.4923
 4893TIP3    H114685   4.824   2.352   4.735  0.8999 -0.7568  0.6116
 4893TIP3    H214686   4.821   2.291   4.596 -1.0344  1.2073 -0.2805
 4894TIP3   OH214687   0.039   0.889   4.721  0.5259  0.3784 -0.3000
 4894TIP3    H114688   0.088   0.832   4.662 -3.3122 -1.8691 -1.6321
 4894TIP3    H214689   0.015   0.965   4.667  1.2888  0.8226 -0.0376
 4895TIP3   OH214690   1.325   0.953   0.963 -0.1489  0.0799 -0.1153
 4895TIP3    H114691   1.328   0.929   1.056  0.4674 -1.9058 -0.6030
 4895TIP3    H214692   1.363   1.041   0.960 -0.0596  0.1334  1.4956
 4896TIP3   OH214693   2.541   3.427   0.779 -0.1923 -0.1506 -0.0695
 4896TIP3    H114694   2.473   3.479   0.822  0.3030 -0.9953  1.8263
 4896TIP3    H214695   2.612   3.490   0.763  0.2055 -0.0650  1.7611
 4897TIP3   OH214696   5.158   5.447   2.246 -0.9037 -0.0368  0.0507
 4897TIP3    H114697   5.184   5.390   2.319 -0.1345 -0.3872 -0.4909
 4897TIP3    H214698   5.078   5.407   2.213 -0.2553 -0.9363 -0.4584
 4898TIP3   OH214699   0.164   1.269   0.580  0.1096  0.6333 -0.5532
 4898TIP3    H114700   0.205   1.243   0.498  0.8607  2.1975 -0.7183
 4898TIP3    H214701   0.072   1.279   0.559  0.0538 -0.3546 -0.8328
 4899TIP3   OH214702   1.316   4.244   1.239 -0.3299 -0.1162  0.4215
 4899TIP3    H114703   1.293   4.212   1.326  0.2298 -1.2626  0.1641
 4899TIP3    H214704   1.383   4.310   1.255 -0.6229  0.0719  0.8901
 4900TIP3   OH214705   1.279   2.775   4.228  0.1730  0.5175 -0.2216
 4900TIP3    H114706   1.188   2.785   4.258  0.9414  2.4464  1.6946
 4900TIP3    H214707   1.286   2.682   4.205 -2.2627  0.3130 -0.4260
 4901TIP3   OH214708   3.394   1.931   3.524  0.1917  0.4405  0.1141
 4901TIP3    H114709   3.422   1.844   3.494 -0.5136 -0.0962  0.9800
 4901TIP3    H214710   3.362   1.974   3.445 -0.7915 -0.6167 -0.0841
 4902TIP3   OH214711   1.257   0.904   0.497  0.8713  0.0432  0.0746
 4902TIP3    H114712   1.211   0.942   0.423  0.5904  0.6377  0.5458
 4902TIP3    H214713   1.308   0.976   0.534  1.0897 -0.2700  0.3991
 4903TIP3   OH214714   1.134   5.947   2.481  0.3448  0.4931 -0.1291
 4903TIP3    H114715   1.162   5.988   2.563  1.0483 -1.2455  0.5642
 4903TIP3    H214716   1.050   5.906   2.502  1.6476 -2.0937  0.5809
 4904TIP3   OH214717   6.141   1.408   2.494  0.2002  0.0615  0.2376
 4904TIP3    H114718   6.165   1.320   2.522 -1.9985 -1.5724 -2.4219
 4904TIP3    H214719   6.062   1.428   2.543  1.6182  1.3985  2.1076
 4905TIP3   OH214720   5.415   2.827   4.338  0.1462 -0.2598  0.1128
 4905TIP3    H114721   5.489   2.792   4.288  0.5481  0.7332 -0.0097
 4905TIP3    H214722   5.368   2.749   4.369  0.6984 -0.8940 -0.6076
 4906TIP3   OH214723   4.654   0.984   1.794  0.3579  0.3107  0.1696
 4906TIP3    H114724   4.610   0.936   1.724 -0.0083 -0.1444  0.7011
 4906TIP3    H214725   4.680   1.067   1.754  2.3708 -0.9056 -1.2304
 4907TIP3   OH214726   5.385   0.821   0.149  0.3318 -0.2281  0.1918
 4907TIP3    H114727   5.428   0.883   0.090  1.0175 -0.2488  0.6519
 4907TIP3    H214728   5.446   0.748   0.155 -1.0704 -1.6218 -1.4394
 4908TIP3   OH214729   4.070   0.993   5.083 -0.3683 -0.4617 -0.2307
 4908TIP3    H114730   4.115   0.925   5.034  1.3232 -0.0145  0.6145
 4908TIP3    H214731   4.026   0.947   5.155  0.4106 -0.7137  0.0878
 4909TIP3   OH214732   4.683   1.549   1.905  0.0619 -0.3350  0.5692
 4909TIP3    H114733   4.624   1.624   1.901  0.8181  0.2753 -2.6643
 4909TIP3    H214734   4.757   1.578   1.958 -0.6940  0.3442  1.2707
 4910TIP3   OH214735   4.476   5.208   0.780  0.8232 -0.1824 -0.5387
 4910TIP3    H114736   4.446   5.118   0.770 -3.0078  0.5266  2.3053
 4910TIP3    H214737   4.414   5.260   0.729  2.5077  0.9581 -1.5036
 4911TIP3   OH214738   3.537   4.314   1.166  0.2045 -0.2415 -0.3933
 4911TIP3    H114739   3.569   4.363   1.090  2.7291  0.7510  1.1925
 4911TIP3    H214740   3.456   4.272   1.135 -0.1265  1.9864 -2.9019
 4912TIP3   OH214741   4.864   5.762   2.815 -0.3844 -0.2153 -0.0324
 4912TIP3    H114742   4.941   5.716   2.849  0.2059  1.4132  0.9353
 4912TIP3    H214743   4.882   5.772   2.721  0.8690  0.6122  0.2719
 4913TIP3   OH214744   5.117   3.295   0.231  0.5419 -0.1119  0.0389
 4913TIP3    H114745   5.097   3.386   0.250  0.8376 -0.1790  0.7034
 4913TIP3    H214746   5.042   3.246   0.265  1.1887 -0.2542  1.3375
 4914TIP3   OH214747   0.811   5.192   3.462 -0.3345  0.2653 -0.1414
 4914TIP3    H114748   0.818   5.126   3.393 -1.6333  0.4676 -0.4942
 4914TIP3    H214749   0.717   5.197   3.481  0.0003  0.2037  1.6554
 4915TIP3   OH214750   4.515   4.070   0.340  0.0146  0.0219 -0.4725
 4915TIP3    H114751   4.505   4.009   0.267  0.1040  0.4636 -0.8645
 4915TIP3    H214752   4.427   4.102   0.356 -0.5100 -2.2028  1.5313
 4916TIP3   OH214753   1.317   4.684   2.161 -0.1837 -0.2541 -0.2100
 4916TIP3    H114754   1.263   4.699   2.239  2.5599 -1.2185  2.0795
 4916TIP3    H214755   1.383   4.753   2.164  0.6363 -0.9743 -1.0239
 4917TIP3   OH214756   4.788   0.057   2.050 -0.1020 -0.4671  0.3409
 4917TIP3    H114757   4.868   0.024   2.009  0.7975  2.3948 -0.5007
 4917TIP3    H214758   4.819   0.120   2.116 -1.5655  1.8735 -1.0609
 4918TIP3   OH214759   3.175   3.708   3.494 -0.0281 -0.3367 -0.5528
 4918TIP3    H114760   3.163   3.795   3.455  1.2457 -0.2645 -0.8282
 4918TIP3    H214761   3.267   3.707   3.522 -0.0319 -1.5899 -0.5412
 4919TIP3   OH214762   0.574   5.734   4.648 -0.3368 -0.0060  0.0011
 4919TIP3    H114763   0.515   5.658   4.652 -1.6345  0.9882  0.7711
 4919TIP3    H214764   0.648   5.709   4.702  1.4522 -2.4062 -3.1685
 4920TIP3   OH214765   1.163   1.394   1.494 -0.1860  0.1218 -0.7271
 4920TIP3    H114766   1.200   1.378   1.581  0.4259 -1.2240 -1.2102
 4920TIP3    H214767   1.069   1.404   1.508 -0.0200  0.5127  0.1482
 4921TIP3   OH214768   3.131   4.271   3.422 -0.1167  0.0206  0.5538
 4921TIP3    H114769   3.057   4.313   3.466 -1.3287 -1.2262 -0.2199
 4921TIP3    H214770   3.125   4.303   3.331  1.2727  1.1509  0.8282
 4922TIP3   OH214771   4.895   1.224   0.831  0.1387 -0.2066  0.2686
 4922TIP3    H114772   4.875   1.134   0.808  1.2140 -0.6784  1.0589
 4922TIP3    H214773   4.978   1.219   0.878  1.8352  1.5132 -2.2396
 4923TIP3   OH214774   1.559   2.129   0.278 -0.2200  0.3343 -0.4706
 4923TIP3    H114775   1.575   2.079   0.198  0.9159  1.3464 -0.9184
 4923TIP3    H214776   1.647   2.141   0.315 -0.7555 -0.3887  1.1189
 4924TIP3   OH214777   0.239   2.272   0.983  0.4480 -0.2614  0.3755
 4924TIP3    H114778   0.209   2.354   0.941  0.4207 -0.2871  0.3446
 4924TIP3    H214779   0.161   2.237   1.025  0.0319 -1.1702 -1.0773
 4925TIP3   OH214780   3.051   5.193   2.157 -0.6297  0.1162  0.6274
 4925TIP3    H114781   3.093   5.142   2.088 -2.3304 -1.2913  0.5702
 4925TIP3    H214782   2.971   5.145   2.177  0.3522 -0.2723  4.4881
 4926TIP3   OH214783   4.995   4.770   0.198 -0.5353  0.0218 -0.3551
 4926TIP3    H114784   4.922   4.709   0.206 -1.8503  1.5277 -0.3041
 4926TIP3    H214785   4.954   4.857   0.199  1.2853  0.9342 -0.0021
 4927TIP3   OH214786   5.971   3.595   4.730  0.0124  0.7062  0.4273
 4927TIP3    H114787   5.941   3.612   4.640  1.5453  2.2142  0.1352
 4927TIP3    H214788   5.923   3.657   4.784 -2.5491 -1.6581  1.0622
 4928TIP3   OH214789   6.238   5.069   3.786 -0.0891  0.0505  0.4555
 4928TIP3    H114790   6.292   4.996   3.815 -0.2483 -0.0980  0.3843
 4928TIP3    H214791   6.295   5.146   3.793 -0.1554  0.0342  1.2560
 4929TIP3   OH214792   4.852   3.082   1.974  0.0102 -0.0898 -0.4389
 4929TIP3    H114793   4.790   3.140   2.020  0.3134  0.3989 -0.6363
 4929TIP3    H214794   4.816   3.073   1.886 -0.1228 -0.3394 -0.3605
 4930TIP3   OH214795   4.596   2.110   0.559  0.5712  0.1725 -0.3711
 4930TIP3    H114796   4.578   2.059   0.480  2.3966 -1.2847  0.0845
 4930TIP3    H214797   4.569   2.053   0.630 -2.3753  1.9987  0.1569
 4931TIP3   OH214798   1.067   5.780   1.219  0.1277 -0.4060  0.1334
 4931TIP3    H114799   0.975   5.776   1.193  0.2908  2.3406 -1.2247
 4931TIP3    H214800   1.107   5.704   1.177 -1.5466 -1.9763  1.2065
 4932TIP3   OH214801   4.190   5.249   3.681  0.2416  0.1224  0.1369
 4932TIP3    H114802   4.237   5.221   3.603  0.8403 -2.8788  1.4226
 4932TIP3    H214803   4.208   5.343   3.688  0.5524  0.3880 -2.9928
 4933TIP3   OH214804   2.364   2.510   0.699 -0.0968  0.1192  0.1587
 4933TIP3    H114805   2.273   2.512   0.729  0.1995 -0.5936  1.1491
 4933TIP3    H214806   2.364   2.449   0.625 -0.0969 -1.4054  1.3740
 4934TIP3   OH214807   2.357   3.829   0.746 -0.5123  0.4916  0.1010
 4934TIP3    H114808   2.308   3.865   0.820 -0.7844 -0.0867  0.2081
 4934TIP3    H214809   2.394   3.747   0.780 -0.6771  0.2011 -0.4186
 4935TIP3   OH214810   0.469   2.271   1.825  0.0703 -0.0513  0.0420
 4935TIP3    H114811   0.374   2.286   1.823 -0.1602 -1.3864  0.1333
 4935TIP3    H214812   0.496   2.277   1.733 -0.1112  0.2942  0.0108
 4936TIP3   OH214813   3.438   0.690   5.100  0.2202  0.0646 -0.0254
 4936TIP3    H114814   3.369   0.642   5.145 -1.5425  1.5613 -0.9894
 4936TIP3    H214815   3.432   0.662   5.009  1.5214 -0.4485  0.0242
 4937TIP3   OH214816   0.658   2.793   2.457 -0.5196  0.6301  0.1648
 4937TIP3    H114817   0.615   2.873   2.489 -0.9193  0.9007 -0.9894
 4937TIP3    H214818   0.613   2.773   2.375  2.1437  1.4413 -1.6146
 4938TIP3   OH214819   2.059   3.666   2.503  0.6834 -0.3788  0.5305
 4938TIP3    H114820   2.127   3.708   2.450 -1.3228  0.3461 -1.6153
 4938TIP3    H214821   2.091   3.577   2.518  1.0504 -0.8557 -2.5723
 4939TIP3   OH214822   2.498   0.650   4.081 -0.6213 -0.2242 -0.4725
 4939TIP3    H114823   2.565   0.633   4.014 -1.4137  0.2801 -1.4290
 4939TIP3    H214824   2.547   0.665   4.161  0.3148 -2.8187 -0.4559
 4940TIP3   OH214825   3.384   0.230   0.249 -0.0203  0.0411  0.1655
 4940TIP3    H114826   3.474   0.198   0.244 -0.1591 -0.1568 -1.5729
 4940TIP3    H214827   3.367   0.239   0.343  1.5325 -0.6890  0.5471
 4941TIP3   OH214828   2.849   5.789   2.077  0.3390 -0.1079  0.0816
 4941TIP3    H114829   2.810   5.797   2.164  0.6132  1.1078  0.1130
 4941TIP3    H214830   2.936   5.828   2.086  0.5276 -0.3345 -0.6434
 4942TIP3   OH214831   6.155   4.230   0.340 -0.0742  0.3092  0.2725
 4942TIP3    H114832   6.207   4.289   0.285  0.3148  0.2027  0.5234
 4942TIP3    H214833   6.174   4.143   0.306 -2.0630  0.4121 -1.3086
 4943TIP3   OH214834   4.698   5.109   3.874 -0.2914  0.1387  0.6255
 4943TIP3    H114835   4.779   5.105   3.823 -0.9723  0.0288 -0.4849
 4943TIP3    H214836   4.702   5.194   3.917  0.9334 -0.3343  1.4982
 4944TIP3   OH214837   5.544   5.948   3.680 -0.3173  0.0123 -0.0873
 4944TIP3    H114838   5.616   5.948   3.617 -0.7884  0.9782 -0.6657
 4944TIP3    H214839   5.579   5.991   3.757  1.0189 -3.2861  1.3168
 4945TIP3   OH214840   6.063   5.520   0.488 -0.0809 -0.0935 -0.1760
 4945TIP3    H114841   6.018   5.525   0.572  1.1529 -2.5260  0.7274
 4945TIP3    H214842   6.141   5.574   0.499  0.3011 -0.7528  0.4278
 4946TIP3   OH214843   3.202   1.175   4.570  0.1977 -0.2699  0.1152
 4946TIP3    H114844   3.235   1.264   4.585 -1.2901  0.3837 -0.2559
 4946TIP3    H214845   3.190   1.170   4.475 -0.6241 -0.5205  0.2282
 4947TIP3   OH214846   2.010   5.471   4.846  0.0373  0.3118  0.4118
 4947TIP3    H114847   1.929   5.425   4.822 -0.1880 -0.4470  2.4404
 4947TIP3    H214848   2.007   5.477   4.941  2.3001  0.4236  0.5295
 4948TIP3   OH214849   4.997   0.879   3.860 -0.4289 -0.8334 -0.4150
 4948TIP3    H114850   4.949   0.814   3.911 -0.0217  0.5501  1.9166
 4948TIP3    H214851   4.932   0.914   3.799 -1.7551 -0.7328  0.9815
 4949TIP3   OH214852   0.056   5.304   3.826 -0.2687  0.4662  0.0827
 4949TIP3    H114853   0.106   5.310   3.908 -0.6528 -0.1259  0.3685
 4949TIP3    H214854  -0.028   5.346   3.846 -1.0729 -1.2729  0.5800
 4950TIP3   OH214855   4.546   3.400   4.289  0.5548  0.3899  0.9524
 4950TIP3    H114856   4.468   3.421   4.237 -0.3877  1.9177  2.8343
 4950TIP3    H214857   4.533   3.308   4.315  2.1491 -1.2264 -3.1258
 4951TIP3   OH214858   3.346   0.709   1.334  0.0687 -0.1606 -0.3736
 4951TIP3    H114859   3.307   0.793   1.311  1.7944  0.8513  0.2424
 4951TIP3    H214860   3.275   0.660   1.374 -1.0419  0.8870 -0.9873
 4952TIP3   OH214861   3.909   5.116   3.471  0.5301 -0.9491  0.6149
 4952TIP3    H114862   3.976   5.130   3.404 -0.6743 -1.4728 -0.7594
 4952TIP3    H214863   3.958   5.104   3.552  1.9747  2.4390  0.4160
 4953TIP3   OH214864   3.312   5.703   3.288 -0.0916  0.6381  0.1926
 4953TIP3    H114865   3.259   5.634   3.248  0.1285  0.8600 -0.5032
 4953TIP3    H214866   3.249   5.767   3.321 -0.3964 -0.7846  2.6062
 4954TIP3   OH214867   3.697   5.060   2.662  0.1971  0.1167  0.5238
 4954TIP3    H114868   3.775   5.115   2.649 -0.5615  1.6223  1.9745
 4954TIP3    H214869   3.705   5.028   2.752 -1.0573  0.6393  0.8426
 4955TIP3   OH214870   2.525   3.222   0.035 -0.2814  0.2303  0.0323
 4955TIP3    H114871   2.467   3.169  -0.020 -0.6739  0.0180  0.6453
 4955TIP3    H214872   2.609   3.176   0.031 -0.4991 -0.1930  0.1949
 4956TIP3   OH214873   4.317   5.298   2.995 -0.4670  0.0118  0.0636
 4956TIP3    H114874   4.331   5.376   3.049 -2.1666  1.3396 -1.3062
 4956TIP3    H214875   4.344   5.325   2.907 -1.1575 -0.8987 -0.4397
 4957TIP3   OH214876   0.670   4.577   2.842 -0.2524 -1.0210 -0.5089
 4957TIP3    H114877   0.739   4.623   2.795 -0.5393 -1.1801 -1.0987
 4957TIP3    H214878   0.699   4.576   2.933 -0.3101  0.4499 -0.4542
 4958TIP3   OH214879   3.596   2.485   0.100 -0.2462  0.4374 -0.4955
 4958TIP3    H114880   3.656   2.495   0.026  0.1237 -0.4380 -0.3214
 4958TIP3    H214881   3.630   2.545   0.166  1.5668 -1.3800  0.3022
 4959TIP3   OH214882   5.571   4.006   2.328  0.3959  0.1837 -0.2847
 4959TIP3    H114883   5.663   4.027   2.318  0.3069  0.4324 -0.5928
 4959TIP3    H214884   5.560   3.921   2.284  0.0480  1.1646 -2.2176
 4960TIP3   OH214885   4.828   4.393   0.828 -0.4669  0.0133 -0.0964
 4960TIP3    H114886   4.923   4.390   0.837 -0.5053  1.8043  1.5822
 4960TIP3    H214887   4.798   4.440   0.906 -2.7076 -0.1576 -0.7756
 4961TIP3   OH214888   0.138   3.849   2.405 -0.1789 -0.1647 -0.0527
 4961TIP3    H114889   0.095   3.877   2.324  0.0414  0.1584 -0.0612
 4961TIP3    H214890   0.230   3.870   2.392  0.2658 -2.3629 -0.6776
 4962TIP3   OH214891   2.721   4.770   3.902 -0.4017  0.1861  0.2037
 4962TIP3    H114892   2.631   4.801   3.899 -0.3192  0.7695  2.2175
 4962TIP3    H214893   2.764   4.826   3.967  1.1212 -0.7807  0.0918
 4963TIP3   OH214894   5.370   0.353   0.610 -0.4757  0.3072  0.4808
 4963TIP3    H114895   5.314   0.377   0.684 -0.6918  1.7121 -0.1134
 4963TIP3    H214896   5.313   0.361   0.534  0.4704  1.6106 -0.1135
 4964TIP3   OH214897   5.256   1.675   0.149 -0.8808  0.4639 -0.3317
 4964TIP3    H114898   5.214   1.590   0.138  1.0869 -0.5003 -0.9185
 4964TIP3    H214899   5.237   1.700   0.239 -0.8757 -0.9534  0.0805
 4965TIP3   OH214900   5.679   0.974   4.128 -0.5699  0.3069  0.2770
 4965TIP3    H114901   5.709   0.893   4.087 -1.4975  0.3565 -0.5473
 4965TIP3    H214902   5.621   0.946   4.198 -1.7974  0.2371 -0.7270
 4966TIP3   OH214903   3.782   5.689   4.209 -0.3110 -0.0645  0.3980
 4966TIP3    H114904   3.875   5.710   4.203 -0.7105  1.9008  0.6838
 4966TIP3    H214905   3.738   5.759   4.163 -1.7222 -0.4154  1.1655
 4967TIP3   OH214906   0.104   5.200   2.556  0.0163  0.1454  0.6578
 4967TIP3    H114907   0.192   5.186   2.591  0.0037  2.3912  1.7555
 4967TIP3    H214908   0.050   5.132   2.599  0.8999 -0.1954  1.2509
 4968TIP3   OH214909   1.455   1.317   2.185 -0.7257 -0.1369  0.4533
 4968TIP3    H114910   1.511   1.247   2.154 -1.2530 -0.2644 -0.2425
 4968TIP3    H214911   1.440   1.372   2.108 -0.6393  0.5222  0.8927
 4969TIP3   OH214912   3.104   5.879   2.131 -0.6010  0.1190 -0.1512
 4969TIP3    H114913   3.168   5.852   2.064  0.6150 -0.4350  1.1783
 4969TIP3    H214914   3.130   5.968   2.154 -0.4283 -0.0314  0.2410
 4970TIP3   OH214915   2.742   2.751   2.111 -0.1939  0.0448  0.7707
 4970TIP3    H114916   2.662   2.779   2.066  0.4813  0.5409 -0.1475
 4970TIP3    H214917   2.793   2.705   2.045  1.0198  1.1791  0.8531
 4971TIP3   OH214918   3.341   4.924   4.729  0.0412 -0.0139  0.0242
 4971TIP3    H114919   3.272   4.920   4.796  2.5503 -0.2679  2.7978
 4971TIP3    H214920   3.319   5.000   4.676 -1.2963  1.1431  2.1118
 4972TIP3   OH214921   2.008   5.509   5.110 -0.0993  0.2590 -0.1888
 4972TIP3    H114922   1.966   5.592   5.134 -0.6321 -0.3367  1.0084
 4972TIP3    H214923   2.099   5.520   5.137 -0.1585  0.4661 -0.0684
 4973TIP3   OH214924   2.937   3.323   3.975 -0.1731 -0.0931 -0.0057
 4973TIP3    H114925   2.849   3.287   3.984 -0.2462  0.3764  1.2785
 4973TIP3    H214926   2.963   3.300   3.885 -1.9977  0.6812 -0.7742
 4974TIP3   OH214927   5.917   1.151   2.528 -0.3138  0.4481 -0.4441
 4974TIP3    H114928   5.873   1.214   2.471 -0.3679  0.6867 -0.1433
 4974TIP3    H214929   5.924   1.196   2.612 -0.6591 -0.0792 -0.1300
 4975TIP3   OH214930   2.892   3.324   0.039  0.5850  0.1026  0.4587
 4975TIP3    H114931   2.919   3.411   0.067  4.3717 -0.5415 -0.6055
 4975TIP3    H214932   2.924   3.317  -0.051  0.8047 -2.5159  0.6604
 4976TIP3   OH214933   0.746   0.838   4.838 -0.0652  0.0322 -0.9343
 4976TIP3    H114934   0.793   0.758   4.861 -1.9862 -0.7911  0.3715
 4976TIP3    H214935   0.716   0.823   4.748  0.7483 -0.1126 -1.1893
 4977TIP3   OH214936   3.132   2.055   1.128 -0.5185 -0.0572 -0.0838
 4977TIP3    H114937   3.092   2.114   1.063 -0.0335  0.5038  0.1136
 4977TIP3    H214938   3.057   2.013   1.170 -0.8291 -1.2308 -1.7079
 4978TIP3   OH214939   5.113   5.074   0.619 -0.2896  0.0618  0.5251
 4978TIP3    H114940   5.170   5.063   0.543  1.2641 -0.9146  1.7816
 4978TIP3    H214941   5.078   5.163   0.610 -0.8045 -0.3041 -1.7180
 4979TIP3   OH214942   5.127   5.891   5.133  0.1107 -0.0795 -0.4711
 4979TIP3    H114943   5.033   5.905   5.147  0.2792  1.8013 -0.9964
 4979TIP3    H214944   5.169   5.933   5.208  0.6082  1.4088 -1.5340
 4980TIP3   OH214945   5.648   4.820   5.186  0.3894  0.0617  0.1403
 4980TIP3    H114946   5.616   4.744   5.137  1.0890  0.2023 -0.5653
 4980TIP3    H214947   5.600   4.894   5.149 -3.2065 -0.3279  3.4008
 4981TIP3   OH214948   4.120   2.452   0.500  0.3833  0.3700 -0.0874
 4981TIP3    H114949   4.090   2.386   0.438  1.1874  0.5216 -0.6475
 4981TIP3    H214950   4.095   2.536   0.461  0.3458  0.4396  0.0842
 4982TIP3   OH214951   0.873   2.512   0.442 -0.0704  0.1606 -0.1317
 4982TIP3    H114952   0.789   2.495   0.399  0.1737 -1.7499  0.0430
 4982TIP3    H214953   0.912   2.583   0.392 -1.4114  0.4832 -0.7562
 4983TIP3   OH214954   2.415   2.333   1.798  0.0566 -0.3513 -0.5304
 4983TIP3    H114955   2.476   2.383   1.853 -0.5430  2.2328 -2.0394
 4983TIP3    H214956   2.468   2.264   1.759  1.3033 -0.0035  0.4934
 4984TIP3   OH214957   1.567   0.601   4.318  0.3457  0.2885  0.1248
 4984TIP3    H114958   1.661   0.601   4.336  0.5558 -0.1157 -0.9366
 4984TIP3    H214959   1.540   0.510   4.328 -0.1219  0.5261  1.2690
 4985TIP3   OH214960   2.568   2.201   5.135 -0.1821 -0.0941  0.4816
 4985TIP3    H114961   2.505   2.157   5.193  0.7140 -1.0353  0.7696
 4985TIP3    H214962   2.648   2.207   5.187 -0.0521  1.2226  0.1737
 4986TIP3   OH214963   3.355   2.339   2.573 -0.8383 -0.4966 -0.7643
 4986TIP3    H114964   3.426   2.367   2.515 -0.4544 -0.8206 -0.4504
 4986TIP3    H214965   3.357   2.244   2.571  0.3841 -0.5746  1.2079
 4987TIP3   OH214966   0.831   0.666   1.523  0.1835 -0.4803  0.3423
 4987TIP3    H114967   0.839   0.754   1.485  1.8462 -0.2044  1.2284
 4987TIP3    H214968   0.863   0.607   1.454  1.6304 -0.1309  0.6934
 4988TIP3   OH214969   5.463   0.685   1.791  0.2174  0.1985  0.0858
 4988TIP3    H114970   5.428   0.728   1.869  0.5324 -0.5441  0.6431
 4988TIP3    H214971   5.398   0.704   1.722 -0.7957 -0.3203  0.8610
 4989TIP3   OH214972   4.260   5.019   3.002 -0.3022  0.8913 -0.2365
 4989TIP3    H114973   4.299   4.997   2.917 -0.8397  0.7298 -0.4500
 4989TIP3    H214974   4.264   5.115   3.006  1.4603  0.8224  0.4108
 4990TIP3   OH214975   4.679   5.620   1.083  0.2617 -0.2600 -0.6769
 4990TIP3    H114976   4.601   5.590   1.129  0.8225 -0.3912  0.2397
 4990TIP3    H214977   4.695   5.708   1.118 -0.1999  0.2931 -1.8158
 4991TIP3   OH214978   5.610   2.151   3.587 -0.5161  0.1022 -0.0964
 4991TIP3    H114979   5.592   2.143   3.494  0.2227  1.4276 -0.3727
 4991TIP3    H214980   5.615   2.061   3.618  0.3882 -0.3747 -1.5621
 4992TIP3   OH214981   0.242   4.438   4.939  0.0338  0.1912  0.1879
 4992TIP3    H114982   0.262   4.474   4.853 -0.5851  1.2511  0.4705
 4992TIP3    H214983   0.276   4.348   4.936  0.4937  0.3873 -0.9653
 4993TIP3   OH214984   4.811   3.885   0.156  0.0983 -0.3057  0.2119
 4993TIP3    H114985   4.735   3.833   0.130 -0.7906  0.5918  0.9601
 4993TIP3    H214986   4.845   3.920   0.074 -1.1154  0.3869 -0.0222
 4994TIP3   OH214987   0.551   1.242   0.834  0.0080  0.2269  0.2800
 4994TIP3    H114988   0.469   1.268   0.876 -0.0424  0.5982 -0.0463
 4994TIP3    H214989   0.616   1.303   0.869 -0.2215  1.2180 -0.9480
 4995TIP3   OH214990   4.406   0.412   3.371  0.3382  0.2769 -0.0641
 4995TIP3    H114991   4.317   0.393   3.342  0.8201 -0.2922 -1.2560
 4995TIP3    H214992   4.423   0.349   3.441 -0.4692  0.9352  0.7361
 4996TIP3   OH214993   2.408   2.778   5.057  0.0270 -0.3052  0.2135
 4996TIP3    H114994   2.410   2.810   4.967 -0.2003 -0.9144 -0.0073
 4996TIP3    H214995   2.422   2.857   5.110  0.3649  0.0223 -0.3564
 4997TIP3   OH214996   1.281   4.739   0.739 -0.6998 -0.4959 -0.6510
 4997TIP3    H114997   1.300   4.831   0.756 -0.3892 -0.6685 -0.0158
 4997TIP3    H214998   1.318   4.722   0.653  0.7327 -0.4312 -0.0788
 4998TIP3   OH214999   3.284   2.303   4.679 -0.6825  0.3468  0.2361
 4998TIP3    H115000   3.222   2.334   4.613 -1.4462 -1.0231  0.2731
 4998TIP3    H215001   3.233   2.296   4.759 -0.6018 -1.0883  0.1975
 4999TIP3   OH215002   4.117   3.779   2.434  0.0927 -0.7141 -0.4951
 4999TIP3    H115003   4.032   3.736   2.429  0.2767 -0.9561 -2.4338
 4999TIP3    H215004   4.173   3.717   2.480 -0.4745 -1.1059 -0.3284
 5000TIP3   OH215005   3.689   5.639   2.726  0.2723 -0.1993  0.2982
 5000TIP3    H115006   3.754   5.632   2.795  1.6397 -0.5990 -0.9874
 5000TIP3    H215007   3.635   5.560   2.735 -0.9899  0.7855  2.2219
 5001TIP3   OH215008   4.582   3.006   4.193 -0.5822  0.1420  0.5468
 5001TIP3    H115009   4.653   3.064   4.166 -0.1279 -0.4949  0.3218
 5001TIP3    H215010   4.626   2.924   4.216 -1.2304 -0.2091  0.5694
 5002TIP3   OH215011   0.045   3.505   3.218 -0.4200  0.5783 -0.4061
 5002TIP3    H115012  -0.047   3.477   3.212 -0.6262  1.0260  0.5910
 5002TIP3    H215013   0.067   3.531   3.129 -0.9558 -0.4471 -0.8664
 5003TIP3   OH215014   0.611   3.499   2.809  0.1043  0.3464 -0.0512
 5003TIP3    H115015   0.528   3.546   2.817  0.2451  0.6384 -0.2743
 5003TIP3    H215016   0.598   3.440   2.735  0.2149  0.6523 -0.3182
 5004TIP3   OH215017   3.496   0.309   4.531 -0.6107 -0.2093  0.0017
 5004TIP3    H115018   3.479   0.273   4.444 -0.4249 -0.0456 -0.1018
 5004TIP3    H215019   3.522   0.399   4.516 -0.1727 -0.2996  0.1965
 5005TIP3   OH215020   6.027   5.312   3.596 -0.4216 -0.9135 -0.4823
 5005TIP3    H115021   5.981   5.319   3.512 -1.1136  0.9868 -0.0131
 5005TIP3    H215022   5.971   5.255   3.649 -0.9556 -0.6393 -0.7317
 5006TIP3   OH215023   2.882   5.790   3.524 -0.8528  0.4439 -0.6525
 5006TIP3    H115024   2.918   5.730   3.590  0.4390  1.3576 -0.4899
 5006TIP3    H215025   2.815   5.839   3.570 -0.1408  0.8896 -0.0693
 5007TIP3   OH215026   4.804   4.125   0.768  0.0391 -0.2650 -0.2966
 5007TIP3    H115027   4.809   4.220   0.780 -0.8191 -0.1198 -0.9845
 5007TIP3    H215028   4.711   4.105   0.780  0.2934 -1.0964  0.3632
 5008TIP3   OH215029   2.932   0.890   2.244 -0.4898  0.2011  0.2752
 5008TIP3    H115030   2.856   0.844   2.208 -1.2017 -0.0273  2.0004
 5008TIP3    H215031   2.914   0.983   2.230 -0.1963  0.0896 -0.9827
 5009TIP3   OH215032   4.697   5.739   3.859  0.1313  0.0698 -0.1376
 5009TIP3    H115033   4.727   5.712   3.945  1.4716  0.0347 -0.6014
 5009TIP3    H215034   4.608   5.704   3.853 -0.0097  0.1403  1.2460
 5010TIP3   OH215035   0.957   0.315   0.643  0.1407 -0.0189  0.5212
 5010TIP3    H115036   0.974   0.370   0.720  0.1733 -0.5863  0.9279
 5010TIP3    H215037   0.907   0.241   0.677  0.2870 -0.3539  0.0260
 5011TIP3   OH215038   3.362   2.338   2.859  0.0858  0.1959 -0.9807
 5011TIP3    H115039   3.345   2.432   2.870  0.4162  0.1928 -0.4201
 5011TIP3    H215040   3.342   2.321   2.767 -3.3351  0.1412 -0.3750
 5012TIP3   OH215041   0.072   3.808   1.800 -0.0253  0.4545 -0.8127
 5012TIP3    H115042   0.071   3.898   1.833  0.2632 -0.1448  0.9806
 5012TIP3    H215043   0.122   3.760   1.866 -0.8936 -1.1716 -1.3000
 5013TIP3   OH215044   1.063   1.199   2.423  0.0494 -0.1089 -0.4552
 5013TIP3    H115045   1.141   1.223   2.475 -0.3042  1.2224 -0.4896
 5013TIP3    H215046   1.096   1.140   2.356  1.3057  1.4400 -1.2778
 5014TIP3   OH215047   6.029   0.712   2.633 -0.4187  0.3708  0.2570
 5014TIP3    H115048   6.103   0.675   2.584 -1.2533 -1.1396  0.0586
 5014TIP3    H215049   6.020   0.801   2.600  0.3438  0.0677 -0.8254
 5015TIP3   OH215050   5.195   2.000   2.835 -0.3535  0.2616  0.2051
 5015TIP3    H115051   5.128   1.938   2.864 -2.2661  1.9147 -0.4125
 5015TIP3    H215052   5.176   2.081   2.882 -2.1347  2.3362 -3.5894
 5016TIP3   OH215053   5.709   5.655   4.673  0.1054  0.1088  0.0024
 5016TIP3    H115054   5.743   5.734   4.716  0.1310 -0.4738  1.0717
 5016TIP3    H215055   5.760   5.583   4.710 -1.4014 -0.6488  0.7121
 5017TIP3   OH215056   6.245   0.896   3.100  0.7102 -0.1554 -0.3300
 5017TIP3    H115057   6.238   0.881   3.005 -1.1333  1.1879 -0.4726
 5017TIP3    H215058   6.213   0.815   3.140 -0.0957 -0.1281 -0.8970
 5018TIP3   OH215059   5.816   1.243   0.815 -0.5499 -0.4799 -0.0269
 5018TIP3    H115060   5.818   1.301   0.892  0.5814 -0.9345  0.3129
 5018TIP3    H215061   5.729   1.255   0.778 -1.2093 -0.4301  1.4727
 5019TIP3   OH215062   5.265   0.160   0.132 -0.3861 -0.2445 -0.3635
 5019TIP3    H115063   5.332   0.182   0.197  0.6375 -0.9899 -1.1345
 5019TIP3    H215064   5.208   0.237   0.130  0.0444  0.1320  0.7963
 5020TIP3   OH215065   1.360   3.114   0.573 -0.0063 -0.1487 -0.2426
 5020TIP3    H115066   1.317   3.062   0.641  0.8578  1.1106  1.3576
 5020TIP3    H215067   1.303   3.190   0.561  0.6331  0.4306  0.2809
 5021TIP3   OH215068   0.804   4.877   2.901 -0.1199  0.4070 -0.3903
 5021TIP3    H115069   0.828   4.817   2.972 -2.0752 -0.4265 -0.3841
 5021TIP3    H215070   0.744   4.939   2.941 -0.0262  0.8890 -0.9769
 5022TIP3   OH215071   1.513   3.912   3.965  0.2666 -0.0413 -0.0213
 5022TIP3    H115072   1.538   4.004   3.971 -1.7442  0.6130 -0.9225
 5022TIP3    H215073   1.457   3.897   4.042 -0.1769 -0.2363 -0.3763
 5023TIP3   OH215074   3.367   0.759   0.500  0.6707 -0.7807 -0.1190
 5023TIP3    H115075   3.282   0.737   0.538 -0.2748  0.8567 -1.1799
 5023TIP3    H215076   3.364   0.723   0.411 -0.2342  1.8665 -1.2785
 5024TIP3   OH215077   3.492   5.705   3.491  0.4740  0.5519 -0.3135
 5024TIP3    H115078   3.429   5.690   3.421 -0.0780 -0.0246  0.3002
 5024TIP3    H215079   3.578   5.690   3.450  0.1235 -0.4751 -0.6890
 5025TIP3   OH215080   4.020   1.110   4.496  0.1127 -0.1410 -0.7417
 5025TIP3    H115081   4.020   1.032   4.440  0.3939 -0.5619 -0.1696
 5025TIP3    H215082   4.019   1.075   4.585  0.9344  0.4973 -0.4675
 5026TIP3   OH215083   1.051   4.870   4.339 -0.1550 -0.6647 -0.1195
 5026TIP3    H115084   1.006   4.936   4.393 -0.2735  0.1284 -1.1577
 5026TIP3    H215085   1.130   4.914   4.310 -0.8121 -0.5281 -1.8073
 5027TIP3   OH215086   2.449   5.746   4.614 -0.3978  0.5262 -0.1282
 5027TIP3    H115087   2.470   5.748   4.707  0.4641  3.2334 -0.3062
 5027TIP3    H215088   2.523   5.788   4.571 -1.6932  1.2228 -1.8136
 5028TIP3   OH215089   1.449   5.377   3.007 -0.5658 -0.0472 -0.1301
 5028TIP3    H115090   1.436   5.317   2.933 -0.2635 -0.0240 -0.2048
 5028TIP3    H215091   1.472   5.320   3.081 -0.6085 -0.0513 -0.1201
 5029TIP3   OH215092   3.212   5.256   2.377  0.4505 -0.5042 -0.1381
 5029TIP3    H115093   3.153   5.238   2.303  0.3531 -0.2783 -0.1146
 5029TIP3    H215094   3.168   5.323   2.428  0.1275 -1.2594  0.5948
 5030TIP3   OH215095   1.854   0.834   3.466  0.4213  1.0294  1.0244
 5030TIP3    H115096   1.829   0.781   3.541 -0.4359 -0.4843 -0.2735
 5030TIP3    H215097   1.784   0.822   3.402  1.6447  1.3653 -0.4631
 5031TIP3   OH215098   5.047   0.199   4.239  0.2980  0.1429 -0.0298
 5031TIP3    H115099   5.111   0.268   4.259  0.0329  0.8865 -1.5984
 5031TIP3    H215100   5.056   0.185   4.145 -2.5507  1.0597 -0.5365
 5032TIP3   OH215101   2.265   1.588  -0.012 -0.4061  0.0930  0.1952
 5032TIP3    H115102   2.238   1.597   0.080 -0.6299  1.0547  0.0426
 5032TIP3    H215103   2.201   1.528  -0.050  0.2690 -1.1213  0.8936
 5033TIP3   OH215104   1.483   2.448   4.602  0.1423  0.0803  0.1029
 5033TIP3    H115105   1.403   2.470   4.555  0.6275  0.4824 -0.5517
 5033TIP3    H215106   1.516   2.370   4.558 -1.0718 -1.4689  1.8201
 5034TIP3   OH215107   0.998   3.601   1.997  0.1786 -0.3508 -0.9644
 5034TIP3    H115108   1.082   3.594   1.953  1.7275  1.3429  1.4557
 5034TIP3    H215109   0.980   3.513   2.031  0.9071 -0.7469 -1.5889
 5035TIP3   OH215110   2.690   0.075   4.085  0.1420  0.3436 -0.6201
 5035TIP3    H115111   2.614   0.132   4.077 -0.9820 -1.2274 -1.8303
 5035TIP3    H215112   2.653  -0.012   4.104  1.3850 -0.9760 -3.5571
 5036TIP3   OH215113   1.805   3.838   4.900 -0.0797 -0.2287 -0.2010
 5036TIP3    H115114   1.720   3.806   4.871 -0.2590  2.3898 -2.9882
 5036TIP3    H215115   1.869   3.790   4.847 -0.0751  0.4953 -0.8674
 5037TIP3   OH215116   5.469   4.867   1.352 -0.1214 -0.3494 -0.0052
 5037TIP3    H115117   5.496   4.881   1.261  0.2851  1.0734  0.3060
 5037TIP3    H215118   5.472   4.954   1.392  0.8204 -1.0817  1.6687
 5038TIP3   OH215119   5.493   0.445   4.284 -0.9624 -0.0134  0.7575
 5038TIP3    H115120   5.490   0.529   4.330  0.9871 -0.4529  1.8052
 5038TIP3    H215121   5.486   0.379   4.354  0.4500 -0.7034  0.2756
 5039TIP3   OH215122   6.111   2.483   3.007 -0.0646 -0.7883  0.2086
 5039TIP3    H115123   6.195   2.475   3.052  0.0936  2.9547  0.8480
 5039TIP3    H215124   6.051   2.514   3.075 -1.9961 -3.0236 -0.3222
 5040TIP3   OH215125   1.222   0.492   0.488 -0.0851  0.0569 -0.0530
 5040TIP3    H115126   1.244   0.402   0.509  0.2755  0.5458  1.9153
 5040TIP3    H215127   1.148   0.486   0.428 -0.0461 -1.5391  0.0335
 5041TIP3   OH215128   6.103   1.017   4.811 -0.4110 -0.2761 -0.1985
 5041TIP3    H115129   6.110   0.928   4.779 -0.0624 -0.1400 -0.5062
 5041TIP3    H215130   6.009   1.036   4.810 -0.4991 -0.6857  0.0072
 5042TIP3   OH215131   2.313   1.225   0.283  0.5314 -0.1322  0.3157
 5042TIP3    H115132   2.405   1.244   0.302  0.7203  1.7736 -1.9044
 5042TIP3    H215133   2.314   1.187   0.195 -0.7906  0.2264  0.1178
 5043TIP3   OH215134   5.897   4.801   0.023 -0.6411 -0.0766 -0.0095
 5043TIP3    H115135   5.869   4.789   0.113 -0.5634 -0.7640 -0.0745
 5043TIP3    H215136   5.938   4.718  -0.002  1.6646  0.9302  0.1497
 5044TIP3   OH215137   0.124   0.197   3.448  0.1796 -0.0201  0.3313
 5044TIP3    H115138   0.142   0.167   3.359 -0.4229 -0.0454  0.2149
 5044TIP3    H215139   0.148   0.123   3.503 -0.3052 -0.3406  0.1208
 5045TIP3   OH215140   3.099   2.317   0.423 -0.0107 -0.0085 -0.5782
 5045TIP3    H115141   3.139   2.403   0.414  0.0622 -0.0028 -0.1966
 5045TIP3    H215142   3.039   2.311   0.349 -0.9892  0.9035  0.1086
 5046TIP3   OH215143   0.184   2.780   1.530 -0.1247  0.3346  0.1002
 5046TIP3    H115144   0.111   2.724   1.502 -0.2505  1.2431 -1.5458
 5046TIP3    H215145   0.143   2.862   1.557  0.2578  0.8718 -0.8893
 5047TIP3   OH215146   2.422   1.431   4.644 -0.2111  0.9227  0.1165
 5047TIP3    H115147   2.339   1.458   4.604 -0.4295  0.0399 -0.0500
 5047TIP3    H215148   2.478   1.509   4.637 -0.2088  0.8035 -2.0026
 5048TIP3   OH215149   0.226   0.893   1.132 -0.2510 -0.4695 -0.2830
 5048TIP3    H115150   0.261   0.976   1.163 -1.2976  0.0681 -0.4929
 5048TIP3    H215151   0.202   0.845   1.212 -0.1241 -0.3608 -0.1798
 5049TIP3   OH215152   0.459   2.885   0.452  0.0083 -0.4118  0.5087
 5049TIP3    H115153   0.418   2.914   0.370 -2.2001 -0.2462  1.5893
 5049TIP3    H215154   0.431   2.794   0.462  0.9330 -0.6866  0.7073
 5050TIP3   OH215155   0.964   4.797   4.095 -0.2681  0.1051 -0.2926
 5050TIP3    H115156   1.009   4.801   4.180  0.7398  1.5836 -0.8487
 5050TIP3    H215157   1.015   4.733   4.044 -0.9291 -0.8525  0.2192
 5051TIP3   OH215158   6.183   5.047   1.751  0.0023  0.0110 -0.4368
 5051TIP3    H115159   6.262   5.100   1.758 -0.5651  0.9044 -0.6360
 5051TIP3    H215160   6.135   5.065   1.832 -1.2943  1.6622 -1.5046
 5052TIP3   OH215161   1.822   3.261   4.022 -0.1595  0.9664  0.9360
 5052TIP3    H115162   1.761   3.203   4.067 -0.9186  0.7424 -0.3246
 5052TIP3    H215163   1.802   3.249   3.929  0.6686  2.1642  0.5805
 5053TIP3   OH215164   4.526   0.185   3.939  0.8024  0.2585  0.0145
 5053TIP3    H115165   4.589   0.173   3.868  1.6030  0.1646  0.7265
 5053TIP3    H215166   4.512   0.279   3.942 -1.0265  0.1043 -1.7684
 5054TIP3   OH215167   2.231   3.884   3.786 -0.3508 -0.2723  0.1965
 5054TIP3    H115168   2.167   3.941   3.744  0.2518  0.6460  0.4843
 5054TIP3    H215169   2.305   3.883   3.726  0.9187  1.8462  1.5731
 5055TIP3   OH215170   3.619   5.510   4.626  0.1607  0.0539  0.0816
 5055TIP3    H115171   3.675   5.569   4.576  0.0690 -0.4496 -0.6278
 5055TIP3    H215172   3.542   5.562   4.648  0.2690  0.3176 -0.1638
 5056TIP3   OH215173   3.290   1.216   2.237 -0.0220 -0.2151 -0.1248
 5056TIP3    H115174   3.309   1.140   2.293  0.3456  0.6485  0.9708
 5056TIP3    H215175   3.370   1.229   2.186  0.5446  0.4163  0.8905
 5057TIP3   OH215176   3.718   0.917   2.175  0.8027 -0.0527 -0.0995
 5057TIP3    H115177   3.644   0.943   2.120  1.4416  1.9737 -0.0568
 5057TIP3    H215178   3.694   0.945   2.263  1.4183  0.1897 -0.0040
 5058TIP3   OH215179   5.105   3.608   1.297  0.1035  0.6174  0.1249
 5058TIP3    H115180   5.030   3.550   1.298  1.5068 -1.2827  0.9149
 5058TIP3    H215181   5.138   3.603   1.207 -0.8896  1.7591 -0.3291
 5059TIP3   OH215182   3.126   2.817   0.992 -0.2059 -0.5959  0.2050
 5059TIP3    H115183   3.191   2.885   1.008  0.5924 -1.0151 -1.1458
 5059TIP3    H215184   3.074   2.851   0.919 -2.5936  0.4600  2.2447
 5060TIP3   OH215185   2.229   0.592   2.267  0.9743 -0.6893  0.3029
 5060TIP3    H115186   2.301   0.635   2.313  1.0089 -0.2250 -0.1700
 5060TIP3    H215187   2.252   0.600   2.175 -0.2835  0.6055  0.0633
 5061TIP3   OH215188   5.766   5.078   3.331  0.1390 -0.0387 -0.8406
 5061TIP3    H115189   5.859   5.058   3.324  0.0826 -0.0261 -1.7214
 5061TIP3    H215190   5.726   5.036   3.255 -0.6145 -0.2311 -0.3546
 5062TIP3   OH215191   5.440   5.349   0.814 -0.4211  0.0264 -0.1727
 5062TIP3    H115192   5.532   5.355   0.791 -0.2437 -0.1767  0.4747
 5062TIP3    H215193   5.398   5.313   0.736  0.1987 -0.8259 -0.1262
 5063TIP3   OH215194   1.715   0.257   4.617 -0.2202  1.1288 -0.0721
 5063TIP3    H115195   1.663   0.338   4.621 -0.8495  0.6862  2.4571
 5063TIP3    H215196   1.655   0.192   4.579 -0.8200  1.1546  0.7847
 5064TIP3   OH215197   5.106   5.641   1.345 -0.2269 -0.1135 -0.1911
 5064TIP3    H115198   5.102   5.633   1.250 -0.5219  0.2675 -0.2146
 5064TIP3    H215199   5.063   5.724   1.364 -0.3606 -0.2875  0.2928
 5065TIP3   OH215200   3.214   5.370   4.560  0.1961  0.2047  0.5038
 5065TIP3    H115201   3.153   5.387   4.488 -1.0066 -0.3451  1.3623
 5065TIP3    H215202   3.158   5.343   4.633  1.5310 -1.1931  1.0547
 5066TIP3   OH215203   1.582   3.114   4.092 -0.7495 -0.5239  0.1400
 5066TIP3    H115204   1.553   3.025   4.114 -0.6305 -0.8720 -1.0354
 5066TIP3    H215205   1.550   3.128   4.003  2.5566 -0.8999 -1.2245
 5067TIP3   OH215206   3.243   4.711   1.360 -0.3514 -0.2147 -0.5511
 5067TIP3    H115207   3.300   4.640   1.332  0.7964 -0.0917  1.2915
 5067TIP3    H215208   3.302   4.772   1.406 -1.4585  1.4783 -1.2888
 5068TIP3   OH215209   4.839   2.150   0.902  0.1439 -0.0599 -0.2767
 5068TIP3    H115210   4.825   2.056   0.917  2.0224 -0.2358  0.7633
 5068TIP3    H215211   4.832   2.160   0.808 -1.8537 -0.8868 -0.2751
 5069TIP3   OH215212   1.522   2.298   3.354  0.0237 -0.1783  0.1880
 5069TIP3    H115213   1.471   2.348   3.291  0.6669  0.2404 -0.0132
 5069TIP3    H215214   1.532   2.357   3.429 -1.7209 -1.0861  1.1925
 5070TIP3   OH215215   2.247   5.862   3.406 -0.0246  0.3270 -0.4358
 5070TIP3    H115216   2.333   5.898   3.430 -0.5503  1.3973 -0.1022
 5070TIP3    H215217   2.213   5.922   3.340 -0.6516  0.0907 -0.3361
 5071TIP3   OH215218   3.717   1.342   1.355 -0.2038 -0.0056 -0.7144
 5071TIP3    H115219   3.768   1.265   1.381 -2.4589 -0.8979  1.4831
 5071TIP3    H215220   3.779   1.415   1.360  1.7940 -1.5004 -2.0687
 5072TIP3   OH215221   0.489   2.834  -0.009  0.3675  0.5106  0.1473
 5072TIP3    H115222   0.460   2.837   0.082  1.7641  1.0697  0.5958
 5072TIP3    H215223   0.479   2.924  -0.040  0.6547  0.4920 -0.0027
 5073TIP3   OH215224   1.614   3.587   0.735  0.1469 -0.0870  0.2794
 5073TIP3    H115225   1.591   3.541   0.654 -0.9176 -0.0061  0.5086
 5073TIP3    H215226   1.708   3.573   0.746  0.2846 -0.1736 -0.9139
 5074TIP3   OH215227   6.218   4.892   4.348  0.2677  0.1863  0.5522
 5074TIP3    H115228   6.147   4.926   4.293  0.5695  1.2017  0.7719
 5074TIP3    H215229   6.185   4.901   4.438  1.0407  1.6160  0.7233
 5075TIP3   OH215230   0.942   1.877   3.729  0.2801  0.3330  0.0637
 5075TIP3    H115231   1.022   1.898   3.778  0.4494 -0.0607 -0.0381
 5075TIP3    H215232   0.934   1.782   3.736  0.1790  0.2981 -0.4781
 5076TIP3   OH215233   0.038   3.931   4.790  0.2513 -0.0520  0.4696
 5076TIP3    H115234   0.121   3.915   4.746  0.0017  0.2944 -0.1370
 5076TIP3    H215235  -0.004   3.846   4.796  0.0314 -0.0132 -0.4848
 5077TIP3   OH215236   4.500   5.259   2.174  0.6242 -0.3361  0.2845
 5077TIP3    H115237   4.507   5.352   2.195  2.0677 -0.5785  0.9558
 5077TIP3    H215238   4.497   5.256   2.078 -0.2663  0.4268  0.2713
 5078TIP3   OH215239   5.556   5.511   2.734 -0.0316 -0.0354  0.1564
 5078TIP3    H115240   5.550   5.475   2.645  0.4851  1.0981 -0.3451
 5078TIP3    H215241   5.640   5.479   2.767 -1.0094 -1.9684  0.9505
 5079TIP3   OH215242   1.178   3.186   0.205 -0.2390 -0.4818  0.2604
 5079TIP3    H115243   1.111   3.214   0.143 -0.8977 -0.1390  1.1020
 5079TIP3    H215244   1.168   3.091   0.209  0.2844 -0.5853 -0.6808
 5080TIP3   OH215245   3.720   1.604   4.619  0.6006  0.2827  0.6663
 5080TIP3    H115246   3.749   1.663   4.550  0.1913 -0.4592 -0.1552
 5080TIP3    H215247   3.776   1.527   4.610 -0.2767 -0.3307  0.3591
 5081TIP3   OH215248   4.941   3.509   1.043  0.0630  0.0948 -0.5523
 5081TIP3    H115249   4.865   3.516   0.986  0.1590  2.3981 -0.5049
 5081TIP3    H215250   4.905   3.495   1.131 -0.5166  3.0744 -0.2120
 5082TIP3   OH215251   2.005   1.996   1.780  0.4457 -0.6154  0.2913
 5082TIP3    H115252   1.966   1.924   1.828 -1.8193  0.8999  0.9330
 5082TIP3    H215253   1.947   2.008   1.704  0.8459  0.3852  0.1205
 5083TIP3   OH215254   2.542   1.310   0.384 -0.0490 -0.3525 -0.1995
 5083TIP3    H115255   2.482   1.384   0.389  0.4545  0.2428 -2.1287
 5083TIP3    H215256   2.626   1.344   0.415  0.1566 -0.1415 -0.9821
 5084TIP3   OH215257   3.758   1.737   2.572 -0.0428  0.1143  0.0076
 5084TIP3    H115258   3.826   1.781   2.521  0.1062 -0.6509 -0.4778
 5084TIP3    H215259   3.706   1.808   2.610 -0.4712  0.7058 -1.6321
 5085TIP3   OH215260   3.460   4.612   2.210 -0.0882 -0.5047  0.4779
 5085TIP3    H115261   3.543   4.634   2.168  0.0395 -1.0539  0.4338
 5085TIP3    H215262   3.424   4.696   2.239 -0.8888  0.1191 -2.0001
 5086TIP3   OH215263   1.293   4.152   1.480  0.2349  0.2590 -0.2316
 5086TIP3    H115264   1.299   4.059   1.501  0.0029  0.5390  1.2061
 5086TIP3    H215265   1.201   4.174   1.495  0.3588  0.7960 -0.2401
 5087TIP3   OH215266   0.225   2.833   3.727 -0.0174 -0.1844  0.7411
 5087TIP3    H115267   0.187   2.770   3.788 -0.1026 -3.1700 -2.1117
 5087TIP3    H215268   0.158   2.845   3.660  1.0607  0.8313 -0.1972
 5088TIP3   OH215269   2.583   3.891   1.869  0.2077  0.3881 -0.4174
 5088TIP3    H115270   2.661   3.838   1.884 -1.0152 -0.8987  1.8814
 5088TIP3    H215271   2.605   3.976   1.907  0.2676 -0.1880  0.8870
 5089TIP3   OH215272   0.255   0.155   4.470 -0.0017  0.5790  0.0309
 5089TIP3    H115273   0.166   0.126   4.492  0.0298  0.9323  0.6574
 5089TIP3    H215274   0.252   0.250   4.482  1.4115  0.3207  3.7208
 5090TIP3   OH215275   5.863   1.239   2.080  0.1542 -0.0812 -0.1159
 5090TIP3    H115276   5.925   1.310   2.069  0.4553 -0.3818 -0.3702
 5090TIP3    H215277   5.819   1.232   1.995  0.0291 -0.1121 -0.0498
 5091TIP3   OH215278   5.327   3.530   1.776  0.0726 -0.4872 -0.4310
 5091TIP3    H115279   5.348   3.623   1.782 -4.4445  0.8503 -1.3676
 5091TIP3    H215280   5.290   3.507   1.861 -1.4035 -0.5785 -1.0671
 5092TIP3   OH215281   5.520   3.194   1.259 -0.3553  0.5848 -0.0096
 5092TIP3    H115282   5.450   3.244   1.216  0.3346  1.7115  0.1251
 5092TIP3    H215283   5.557   3.256   1.322 -0.2474 -0.4979  1.0102
 5093TIP3   OH215284   2.411   3.259   2.481 -0.9085 -0.2145  0.0432
 5093TIP3    H115285   2.381   3.333   2.534  0.2655  0.9570 -0.8690
 5093TIP3    H215286   2.492   3.289   2.440  1.1214 -2.9428  1.7392
 5094TIP3   OH215287   1.050   4.203   1.571  0.2134 -0.1469 -0.4055
 5094TIP3    H115288   0.968   4.248   1.591 -1.2035 -2.2830 -1.0829
 5094TIP3    H215289   1.084   4.175   1.656 -0.9867 -1.2302 -0.2514
 5095TIP3   OH215290   6.283   0.025   0.384 -0.4776  0.0163  0.5488
 5095TIP3    H115291   6.365   0.063   0.350 -0.9882  0.6998  0.0464
 5095TIP3    H215292   6.308  -0.061   0.416  0.4065  0.1322  0.2002
 5096TIP3   OH215293   6.000   4.841   0.667 -0.1891  0.1803  0.4089
 5096TIP3    H115294   6.080   4.829   0.616  0.8536  1.1802  1.7299
 5096TIP3    H215295   5.941   4.889   0.609  1.0687  1.5280  0.1894
 5097TIP3   OH215296   0.775   2.646   3.186  0.1455  0.3933  0.2268
 5097TIP3    H115297   0.811   2.636   3.098 -1.6688  0.3000 -0.5500
 5097TIP3    H215298   0.793   2.737   3.209  0.2938  0.5262 -0.4059
 5098TIP3   OH215299   3.684   2.478   3.901  0.2292  0.0016 -0.0792
 5098TIP3    H115300   3.626   2.414   3.861 -1.3240 -0.2377  2.2858
 5098TIP3    H215301   3.640   2.562   3.886 -1.8213 -0.3194  3.0653
 5099TIP3   OH215302   2.670   3.328   3.951 -0.1395 -0.2640  0.0631
 5099TIP3    H115303   2.610   3.270   3.905  0.8794 -0.8719 -0.5408
 5099TIP3    H215304   2.681   3.403   3.893  0.8882 -0.8781 -0.5564
 5100TIP3   OH215305   5.286   3.378   2.879 -0.6295  0.0749  0.1429
 5100TIP3    H115306   5.359   3.387   2.941 -1.6754 -0.5041  1.5244
 5100TIP3    H215307   5.234   3.457   2.891 -0.3128  0.4229 -0.7380
 5101TIP3   OH215308   2.303   0.734   4.936  0.7745 -0.4225 -0.1090
 5101TIP3    H115309   2.314   0.777   4.851 -1.0710 -0.3853 -0.3722
 5101TIP3    H215310   2.355   0.654   4.929 -0.3242 -1.0509 -1.7785
 5102TIP3   OH215311   4.286   0.405   4.888  0.1837 -0.0461  0.3032
 5102TIP3    H115312   4.239   0.424   4.807 -1.1061 -0.9355  0.8129
 5102TIP3    H215313   4.374   0.439   4.873 -0.6338  1.8464 -0.6232
 5103TIP3   OH215314   5.846   1.032   4.643  0.1572 -0.2364  0.1549
 5103TIP3    H115315   5.769   1.068   4.599 -1.0564 -3.2932 -0.4578
 5103TIP3    H215316   5.893   0.985   4.574  1.5339 -0.1073  0.9528
 5104TIP3   OH215317   5.236   2.486   3.127 -0.2472 -0.1316 -0.0862
 5104TIP3    H115318   5.210   2.576   3.145 -1.7276 -0.4268 -0.6387
 5104TIP3    H215319   5.327   2.493   3.098 -0.4567  1.2208 -0.4928
 5105TIP3   OH215320   0.872   2.347   3.198  0.0625 -0.6441  0.3118
 5105TIP3    H115321   0.954   2.362   3.244  0.4300 -1.2403 -0.1341
 5105TIP3    H215322   0.874   2.406   3.124  0.8932 -1.8592 -0.6783
 5106TIP3   OH215323   3.834   0.130   1.812 -0.0452 -0.3552  0.3372
 5106TIP3    H115324   3.781   0.178   1.748 -2.5187 -2.0677  0.9422
 5106TIP3    H215325   3.808   0.166   1.897  1.1243 -0.0191  0.5729
 5107TIP3   OH215326   0.508   4.922   4.815  0.1196 -0.4057 -0.0092
 5107TIP3    H115327   0.471   4.844   4.858 -1.1187  0.7221  1.0812
 5107TIP3    H215328   0.589   4.939   4.863 -0.2935 -0.2593  0.6518
 5108TIP3   OH215329   5.983   1.002   0.794  0.0782  0.3601  0.0559
 5108TIP3    H115330   5.926   0.929   0.818  1.0442  0.1186  1.8108
 5108TIP3    H215331   5.926   1.079   0.795 -0.6284 -0.1480 -0.2643
 5109TIP3   OH215332   4.383   0.646   2.480 -1.1284 -0.0837 -0.3279
 5109TIP3    H115333   4.409   0.557   2.504 -0.7681  0.2130  0.4254
 5109TIP3    H215334   4.426   0.701   2.545  0.3393  0.8114 -1.9668
 5110TIP3   OH215335   6.219   0.251   0.234  0.6150 -0.3105 -0.4356
 5110TIP3    H115336   6.292   0.300   0.271 -0.1430 -0.2130  0.9848
 5110TIP3    H215337   6.212   0.172   0.288 -1.5348  0.6059  0.7442
 5111TIP3   OH215338   3.872   0.686   2.471 -0.2692 -0.0809 -0.3417
 5111TIP3    H115339   3.896   0.776   2.449  2.2702 -1.2929 -3.3484
 5111TIP3    H215340   3.777   0.684   2.463 -0.5121  2.5173  0.9140
 5112TIP3   OH215341   5.502   1.429   0.003  0.2456 -0.1978  0.0533
 5112TIP3    H115342   5.472   1.342   0.031  0.3071 -0.5819 -1.0487
 5112TIP3    H215343   5.597   1.424   0.006  0.2518 -0.2301 -0.1844
 5113TIP3   OH215344   1.102   4.253   4.438 -0.5091 -0.3254 -0.1164
 5113TIP3    H115345   1.115   4.183   4.502 -2.7783 -0.0855  0.6868
 5113TIP3    H215346   1.149   4.224   4.360 -0.6382 -2.3090  0.4988
 5114TIP3   OH215347   0.522   2.444   4.517 -0.0153  0.0116  0.2631
 5114TIP3    H115348   0.581   2.375   4.486 -0.1218 -0.2633  0.6697
 5114TIP3    H215349   0.437   2.420   4.482  0.1477  0.5258 -0.5069
 5115TIP3   OH215350   5.822   2.082   3.238  0.1303 -0.5059  0.4285
 5115TIP3    H115351   5.774   2.022   3.181 -1.0719 -0.7440  1.6559
 5115TIP3    H215352   5.851   2.029   3.311 -0.4886  0.2703  1.2653
 5116TIP3   OH215353   0.786   3.764   1.953 -0.0904 -0.2704 -0.1833
 5116TIP3    H115354   0.851   3.697   1.970  1.9530  1.4247 -0.8770
 5116TIP3    H215355   0.799   3.788   1.861  0.0442  1.8133  0.3215
 5117TIP3   OH215356   1.469   5.459   0.176  0.3137  1.3039 -0.2256
 5117TIP3    H115357   1.479   5.504   0.092  0.4919 -0.1583 -1.0347
 5117TIP3    H215358   1.544   5.399   0.181 -1.3849 -1.0213 -0.6480
 5118TIP3   OH215359   0.409   2.858   2.781  0.4841 -0.2947 -0.4849
 5118TIP3    H115360   0.317   2.879   2.763 -0.1358 -2.4825 -0.1648
 5118TIP3    H215361   0.450   2.943   2.795 -1.5668  0.7379 -0.2865
 5119TIP3   OH215362   3.502   5.102   3.169  0.3738 -0.3470  0.1757
 5119TIP3    H115363   3.444   5.143   3.105  0.2560  2.5863  1.9618
 5119TIP3    H215364   3.443   5.075   3.240  0.8597 -0.2410  0.6245
 5120TIP3   OH215365   2.352   3.142   4.165  0.0949  0.3760  0.3437
 5120TIP3    H115366   2.355   3.224   4.115 -1.1064 -0.2979 -0.9084
 5120TIP3    H215367   2.259   3.125   4.177  0.3442  0.2758  2.5119
 5121TIP3   OH215368   3.432   1.463   0.201  0.5940 -0.3714  0.3004
 5121TIP3    H115369   3.521   1.494   0.216  0.7917 -0.2542 -0.9600
 5121TIP3    H215370   3.435   1.369   0.220  1.1567 -0.4963 -0.3826
 5122TIP3   OH215371   6.302   4.389   4.905 -0.5497 -0.1517 -0.2208
 5122TIP3    H115372   6.371   4.454   4.896  0.8476 -1.6393 -0.8150
 5122TIP3    H215373   6.298   4.372   5.000  0.6840 -0.8080 -0.2606
 5123TIP3   OH215374   0.618   5.295   0.513 -0.6243 -0.2023  0.6829
 5123TIP3    H115375   0.527   5.319   0.530 -1.3008 -1.7747 -0.4497
 5123TIP3    H215376   0.660   5.376   0.484 -2.3677  0.0536 -1.3852
 5124TIP3   OH215377   0.310   0.361   4.717 -0.1530  0.0527 -0.2430
 5124TIP3    H115378   0.264   0.444   4.702  0.2698  0.5671  1.0747
 5124TIP3    H215379   0.244   0.303   4.754 -0.7854 -0.6798 -2.3831
 5125TIP3   OH215380   1.548   1.419   1.581 -0.1546  0.2546 -0.0751
 5125TIP3    H115381   1.518   1.330   1.559 -0.0940  0.0930  0.4858
 5125TIP3    H215382   1.640   1.420   1.555 -0.8125  1.0771 -2.7789
 5126TIP3   OH215383   3.493   4.118   2.957 -0.0327 -0.2890 -0.0090
 5126TIP3    H115384   3.447   4.112   2.873  1.9971 -0.0076 -1.2095
 5126TIP3    H215385   3.424   4.129   3.022 -1.6065  0.8246 -1.7797
 5127TIP3   OH215386   3.753   1.049   1.652 -0.2517 -0.1785  0.1338
 5127TIP3    H115387   3.773   1.032   1.560 -3.1612  1.0265 -0.8357
 5127TIP3    H215388   3.813   0.992   1.700  2.1365 -0.0529 -2.4189
 5128TIP3   OH215389   2.938   5.128   2.926  0.0593  0.3123  0.2319
 5128TIP3    H115390   2.989   5.205   2.948 -0.0870  0.8992 -1.3528
 5128TIP3    H215391   2.996   5.075   2.872  0.4264 -1.1033  1.9161
 5129TIP3   OH215392   0.346   4.390   3.586  0.0005  0.1963  0.1681
 5129TIP3    H115393   0.317   4.382   3.495 -1.2012  1.3634  0.4205
 5129TIP3    H215394   0.293   4.461   3.622  0.3961 -0.2934  1.8061
 5130TIP3   OH215395   2.895   1.288   1.431  0.3266  0.1308 -0.4495
 5130TIP3    H115396   2.984   1.256   1.445 -0.1235  0.0963  3.2778
 5130TIP3    H215397   2.861   1.233   1.360  2.9501 -0.4102 -1.4011
 5131TIP3   OH215398   2.666   1.239   2.403 -0.1821 -0.0226 -0.4241
 5131TIP3    H115399   2.628   1.327   2.410  0.5287  0.3303 -0.8780
 5131TIP3    H215400   2.736   1.238   2.469 -1.2324 -0.8167  0.7115
 5132TIP3   OH215401   6.228   5.694   2.015  0.4770  0.1546 -0.7247
 5132TIP3    H115402   6.294   5.670   2.080 -0.3883 -1.4536 -0.3905
 5132TIP3    H215403   6.232   5.623   1.950 -1.0336 -0.0893 -0.5913
 5133TIP3   OH215404   0.289   5.122   1.526 -0.3167 -0.0590  0.3637
 5133TIP3    H115405   0.238   5.203   1.525  0.1561  0.2412 -0.4240
 5133TIP3    H215406   0.333   5.121   1.610  0.6395  1.1226 -0.1055
 5134TIP3   OH215407   5.444   4.511   3.295 -0.0605 -0.6995 -0.8022
 5134TIP3    H115408   5.361   4.483   3.333 -2.0858  1.5878 -3.1876
 5134TIP3    H215409   5.499   4.433   3.299 -1.9777 -2.0776  1.6202
 5135TIP3   OH215410   3.254   0.965   4.118  0.4252  0.3681 -0.4799
 5135TIP3    H115411   3.252   0.976   4.023  1.2117  0.6165 -0.4684
 5135TIP3    H215412   3.345   0.944   4.138 -0.3188 -3.1578 -0.1485
 5136TIP3   OH215413   0.721   1.752   1.990  0.1897  0.3802 -0.3769
 5136TIP3    H115414   0.737   1.823   1.927  0.9000  1.6262  1.1343
 5136TIP3    H215415   0.625   1.745   1.994  0.0956  1.4076 -0.4194
 5137TIP3   OH215416   4.105   3.493   0.833 -0.1689 -0.1995  0.7419
 5137TIP3    H115417   4.099   3.514   0.926 -0.3014 -0.5500  0.8123
 5137TIP3    H215418   4.199   3.493   0.814  0.1850 -3.8598  1.7407
 5138TIP3   OH215419   1.928   5.528   3.508 -0.4731 -0.4012 -0.0652
 5138TIP3    H115420   1.951   5.621   3.499  0.9613 -0.6673  0.6332
 5138TIP3    H215421   1.978   5.484   3.439 -2.1086 -0.5499 -1.2198
 5139TIP3   OH215422   1.757   2.640   4.527 -0.4843  0.4101 -0.3723
 5139TIP3    H115423   1.718   2.564   4.569  0.2122  1.2544  1.9308
 5139TIP3    H215424   1.836   2.607   4.485 -0.3463 -0.2030  0.3573
 5140TIP3   OH215425   1.222   1.642   3.128  0.5319  0.3631  0.1139
 5140TIP3    H115426   1.279   1.689   3.066 -2.0328  1.6804 -1.4576
 5140TIP3    H215427   1.197   1.563   3.081 -2.4618  1.9724 -1.3305
 5141TIP3   OH215428   6.318   4.413   2.390  0.0188 -0.4325 -0.3438
 5141TIP3    H115429   6.360   4.402   2.305 -0.2151  0.2090 -0.5504
 5141TIP3    H215430   6.281   4.501   2.387  0.8460 -0.0233  0.7865
 5142TIP3   OH215431   4.676   3.581   4.933  0.0544  0.3144 -0.0789
 5142TIP3    H115432   4.609   3.621   4.879 -0.1808  0.1374  0.0798
 5142TIP3    H215433   4.690   3.494   4.894  0.0073  0.2529  0.0412
 5143TIP3   OH215434   4.447   0.199   3.555 -0.2973 -0.4035  0.1582
 5143TIP3    H115435   4.517   0.151   3.510  1.7227  1.2309  1.3659
 5143TIP3    H215436   4.483   0.218   3.641 -1.8660  1.3421  0.4828
 5144TIP3   OH215437   0.143   4.644   1.823  0.4774 -0.4169 -0.7793
 5144TIP3    H115438   0.177   4.688   1.745  2.7317  0.0083  0.3563
 5144TIP3    H215439   0.111   4.715   1.879  2.4184 -0.2945  0.2651
 5145TIP3   OH215440   0.180   2.721   0.808  0.5162 -0.5376 -0.3840
 5145TIP3    H115441   0.274   2.707   0.799  0.7604  0.8739 -0.1291
 5145TIP3    H215442   0.158   2.784   0.740  0.3983  1.7133  1.5892
 5146TIP3   OH215443   4.497   3.918   2.463 -0.3199  0.0380  0.3031
 5146TIP3    H115444   4.417   3.935   2.413 -3.4227 -3.2325  3.5469
 5146TIP3    H215445   4.544   3.853   2.411  0.4001  1.9565 -1.6174
 5147TIP3   OH215446   4.937   1.385   4.797  0.3576 -0.0136 -0.1923
 5147TIP3    H115447   4.845   1.361   4.803  0.5779 -0.6240  1.0561
 5147TIP3    H215448   4.968   1.385   4.887  2.0747 -1.8723 -0.6957
 5148TIP3   OH215449   4.983   4.599   3.592 -0.3274  0.4169 -0.0594
 5148TIP3    H115450   5.036   4.636   3.663 -0.3353 -0.7905  0.6080
 5148TIP3    H215451   4.898   4.644   3.601 -0.2759  0.4004  0.6042
 5149TIP3   OH215452   0.397   0.298   1.397 -0.5378  0.4541  0.5857
 5149TIP3    H115453   0.342   0.286   1.320 -0.5123  0.4922  0.5608
 5149TIP3    H215454   0.430   0.388   1.388 -0.8407  0.5922  0.8419
 5150TIP3   OH215455   2.360   3.840   3.170  0.6724 -0.2314  0.3289
 5150TIP3    H115456   2.385   3.755   3.132 -0.0359 -0.2227 -0.1841
 5150TIP3    H215457   2.443   3.887   3.180  0.9033 -0.2188 -1.2961
 5151TIP3   OH215458   2.795   1.062   1.661 -0.3302 -0.3227  0.2206
 5151TIP3    H115459   2.877   1.105   1.635 -0.3351 -0.0375  0.6649
 5151TIP3    H215460   2.803   0.973   1.627  1.4142 -1.1967  2.6106
 5152TIP3   OH215461   2.719   5.748   4.255  0.3704  0.6084  0.0434
 5152TIP3    H115462   2.647   5.728   4.196  0.9318  0.6088 -0.6581
 5152TIP3    H215463   2.678   5.763   4.340 -0.3088 -1.1309  0.0672
 5153TIP3   OH215464   2.254   0.892   4.623  0.5001  0.0648 -0.2880
 5153TIP3    H115465   2.179   0.899   4.682  0.1029 -2.0209 -0.4665
 5153TIP3    H215466   2.269   0.981   4.592 -1.5054  0.6385  0.2488
 5154TIP3   OH215467   4.634   1.869   4.039  0.7165  0.1772 -0.3937
 5154TIP3    H115468   4.549   1.829   4.054  1.2257 -1.7323 -2.0050
 5154TIP3    H215469   4.691   1.831   4.106  0.3949  1.2888  0.5468
 5155TIP3   OH215470   1.846   0.168   1.120  0.2749  0.4928  0.0732
 5155TIP3    H115471   1.927   0.201   1.080 -0.3664  0.8817 -0.9717
 5155TIP3    H215472   1.872   0.138   1.207  1.6806 -0.1102 -0.5303
 5156TIP3   OH215473   3.627   1.100   3.058 -0.7877 -0.1789 -0.0607
 5156TIP3    H115474   3.632   1.008   3.035 -0.4454  0.1949 -1.5733
 5156TIP3    H215475   3.697   1.112   3.123 -1.5008 -1.1714  0.9329
 5157TIP3   OH215476   1.716   2.740   3.796  0.2324 -0.5951 -0.3720
 5157TIP3    H115477   1.778   2.759   3.866  0.3848 -2.4174  0.0166
 5157TIP3    H215478   1.716   2.820   3.743 -0.2836  1.0442  1.9418
 5158TIP3   OH215479   0.280   4.585   0.848  0.2172  0.0408 -0.3851
 5158TIP3    H115480   0.224   4.509   0.828  0.1679  0.1669 -0.7483
 5158TIP3    H215481   0.345   4.586   0.778  0.9083 -0.3187  0.2435
 5159TIP3   OH215482   6.208   2.948   1.726  0.2167 -0.0093  0.6583
 5159TIP3    H115483   6.267   2.976   1.655  1.9813 -0.3825  1.9163
 5159TIP3    H215484   6.177   3.030   1.765 -0.4265  0.1937 -0.2457
 5160TIP3   OH215485   5.862   0.861   1.353 -0.1030 -0.4284  0.1383
 5160TIP3    H115486   5.791   0.830   1.410 -1.7971  0.6359 -1.2904
 5160TIP3    H215487   5.890   0.944   1.391 -0.8333 -0.0068 -0.2203
 5161TIP3   OH215488   2.046   5.287   3.358 -0.3294 -0.1390 -0.1975
 5161TIP3    H115489   2.115   5.221   3.352  1.1210  1.3390 -0.7365
 5161TIP3    H215490   2.092   5.370   3.346 -1.8843  1.0841  1.6626
 5162TIP3   OH215491   0.936   4.363   4.189  0.7895  0.1599  0.5816
 5162TIP3    H115492   0.887   4.282   4.172  0.3210  0.0218  2.3361
 5162TIP3    H215493   0.969   4.390   4.104 -1.1275 -0.5360 -0.4448
 5163TIP3   OH215494   4.105   0.868   1.629 -0.4619  0.4148  0.1037
 5163TIP3    H115495   4.060   0.790   1.661 -0.8982  0.9650  0.8712
 5163TIP3    H215496   4.060   0.891   1.548 -0.0671 -0.3618 -0.3425
 5164TIP3   OH215497   1.308   5.782   0.125 -0.3626 -0.1507 -0.1689
 5164TIP3    H115498   1.253   5.860   0.119  2.0375  1.5892 -1.3757
 5164TIP3    H215499   1.320   5.754   0.034  0.4332 -0.7286  0.0995
 5165TIP3   OH215500   4.691   0.492   3.664  0.2234 -0.1295 -0.1423
 5165TIP3    H115501   4.750   0.510   3.590 -1.2065 -0.6328 -1.4628
 5165TIP3    H215502   4.624   0.560   3.658 -2.4273 -2.6403 -2.1380
 5166TIP3   OH215503   0.084   0.416   4.011 -0.3723 -0.1095 -0.0027
 5166TIP3    H115504   0.134   0.435   3.932 -0.1465 -0.8102 -0.0334
 5166TIP3    H215505   0.059   0.502   4.045  0.3498  0.2275 -0.3069
 5167TIP3   OH215506   5.958   1.068   1.479 -0.2233  0.2671 -0.5136
 5167TIP3    H115507   5.880   1.122   1.471  0.5156  1.5227  0.3541
 5167TIP3    H215508   6.018   1.104   1.413  0.5178  0.9984  0.5266
 5168TIP3   OH215509   1.240   4.285   0.588 -0.6343  0.5438  0.0459
 5168TIP3    H115510   1.237   4.313   0.679 -0.7837 -0.7430  0.4614
 5168TIP3    H215511   1.330   4.301   0.561 -0.5462  0.7797  0.4738
 5169TIP3   OH215512   2.152   4.507   3.817  0.2842 -0.3876 -0.1481
 5169TIP3    H115513   2.143   4.522   3.911 -0.0807 -0.6223 -0.1449
 5169TIP3    H215514   2.208   4.430   3.810  1.0416  0.1473 -0.1430
 5170TIP3   OH215515   3.560   2.253   4.759 -0.4634 -0.1140  0.2663
 5170TIP3    H115516   3.535   2.264   4.850 -1.9138  0.0401 -0.1191
 5170TIP3    H215517   3.502   2.312   4.711  1.1919  0.8259 -0.6587
 5171TIP3   OH215518   3.640   4.273   1.883 -0.1644 -0.4746  0.3695
 5171TIP3    H115519   3.681   4.324   1.953  0.1904  0.3382 -0.4012
 5171TIP3    H215520   3.565   4.326   1.855  1.7104  1.0572 -2.2502
 5172TIP3   OH215521   0.154   4.430   2.650 -0.3528  0.3837 -0.0826
 5172TIP3    H115522   0.233   4.384   2.680 -0.9043 -0.8793 -0.5151
 5172TIP3    H215523   0.179   4.523   2.651  1.3516 -0.0236 -0.8249
 5173TIP3   OH215524   3.516   2.915   3.036 -0.1356 -0.3898  0.3155
 5173TIP3    H115525   3.500   2.831   3.080 -0.0066 -1.2532 -1.2142
 5173TIP3    H215526   3.429   2.943   3.007 -0.0832 -0.3837  0.1646
 5174TIP3   OH215527   6.064   0.942   2.053  0.4838 -0.4049 -0.3011
 5174TIP3    H115528   6.068   1.022   2.106 -0.3894 -0.1312 -0.6219
 5174TIP3    H215529   5.994   0.960   1.989 -1.4690 -2.3212  1.1481
 5175TIP3   OH215530   0.361   4.213   4.608  0.1219 -0.1553  0.4310
 5175TIP3    H115531   0.427   4.282   4.612 -0.7809  0.7583 -0.0425
 5175TIP3    H215532   0.298   4.236   4.677 -1.1124  0.5074 -0.8770
 5176TIP3   OH215533   2.029   2.260   4.024 -0.2727  0.1161  0.1625
 5176TIP3    H115534   2.066   2.348   4.032  1.2851 -0.6750  2.6081
 5176TIP3    H215535   1.965   2.255   4.095 -2.3368  0.1001 -1.5938
 5177TIP3   OH215536   6.173   5.662   2.577  0.3212  0.0487 -0.5782
 5177TIP3    H115537   6.101   5.643   2.517  0.8831 -1.4629 -0.8167
 5177TIP3    H215538   6.215   5.577   2.591  0.5704  0.4663  1.4912
 5178TIP3   OH215539   4.190   5.085   4.002  0.0974 -0.5611 -0.1077
 5178TIP3    H115540   4.179   4.991   3.990  1.4282 -0.3820 -4.2642
 5178TIP3    H215541   4.282   5.096   4.028 -0.2430 -0.3662  1.1106
 5179TIP3   OH215542   5.513   4.495   3.664 -0.5431  0.0639 -0.3382
 5179TIP3    H115543   5.489   4.578   3.624 -0.7616 -0.4333 -1.2528
 5179TIP3    H215544   5.567   4.519   3.740  0.2492  1.0088 -1.1743
 5180TIP3   OH215545   3.540   1.102   0.138  0.5075 -0.3156 -0.4276
 5180TIP3    H115546   3.578   1.022   0.174  0.0697 -0.2148  0.2901
 5180TIP3    H215547   3.576   1.109   0.050  2.8245  0.2298  0.5080
 5181TIP3   OH215548   0.489   2.766   3.187  0.2998  0.1010  0.5354
 5181TIP3    H115549   0.558   2.700   3.179 -0.0839 -0.3733  1.0609
 5181TIP3    H215550   0.533   2.842   3.226  0.7797  0.2195 -0.2282
 5182TIP3   OH215551   1.416   4.248   0.189  0.2366  0.2398  0.5451
 5182TIP3    H115552   1.451   4.165   0.156 -0.6229  0.0544  0.0678
 5182TIP3    H215553   1.358   4.222   0.262 -0.7182  0.3259 -0.1609
 5183TIP3   OH215554   4.790   0.881   0.305  0.0147 -0.4137 -0.2850
 5183TIP3    H115555   4.739   0.898   0.384 -0.1004 -0.2622 -0.3929
 5183TIP3    H215556   4.801   0.786   0.304  1.4839 -0.2898  0.8339
 5184TIP3   OH215557   3.371   4.555   1.572  0.0383 -0.0206 -0.2431
 5184TIP3    H115558   3.371   4.470   1.615 -0.9468 -2.3868 -4.3685
 5184TIP3    H215559   3.402   4.537   1.484 -0.7653  3.8272 -1.4978
 5185TIP3   OH215560   0.243   0.725   1.358 -0.0156  0.0289  0.1026
 5185TIP3    H115561   0.174   0.777   1.400 -1.7123 -2.1025  0.1513
 5185TIP3    H215562   0.325   0.769   1.383 -1.2503  1.7623  1.3476
 5186TIP3   OH215563   4.104   2.045   4.855  0.2512 -0.2315 -0.1929
 5186TIP3    H115564   4.009   2.054   4.856  0.2624  1.0009 -2.6888
 5186TIP3    H215565   4.136   2.124   4.899  0.1408 -0.0647 -0.4147
 5187TIP3   OH215566   0.183   5.617   3.250  0.6946 -0.0490  0.0281
 5187TIP3    H115567   0.266   5.633   3.295  0.5576  0.5538  0.0844
 5187TIP3    H215568   0.161   5.526   3.271  0.6574  0.2083  1.1541
 5188TIP3   OH215569   0.554   5.863   2.326 -0.2985 -0.0411 -0.0360
 5188TIP3    H115570   0.488   5.932   2.326  1.2976  1.5227  0.4933
 5188TIP3    H215571   0.575   5.848   2.418  0.5757 -0.0354 -0.2241
 5189TIP3   OH215572   2.361   3.670   3.407  0.4256  0.0481 -0.1175
 5189TIP3    H115573   2.373   3.576   3.392 -0.3591 -0.0374 -0.2804
 5189TIP3    H215574   2.341   3.706   3.321 -2.1268 -0.1253  0.3234
 5190TIP3   OH215575   3.586   2.468   0.522  0.2108 -0.4370  0.5786
 5190TIP3    H115576   3.513   2.448   0.581  0.6933 -1.0666  0.9784
 5190TIP3    H215577   3.635   2.536   0.569  0.3868 -0.6719  0.7399
 5191TIP3   OH215578   6.003   1.471   3.215  0.4154 -0.2082  0.8179
 5191TIP3    H115579   6.084   1.422   3.205  0.3960 -0.0110 -0.5785
 5191TIP3    H215580   5.976   1.456   3.305  1.7766 -0.6187  1.1726
 5192TIP3   OH215581   4.712   5.875   1.183 -0.3490  0.1687  0.1532
 5192TIP3    H115582   4.619   5.899   1.179 -0.6362 -1.0343 -2.2840
 5192TIP3    H215583   4.757   5.946   1.137 -0.4005 -0.4658 -0.9165
 5193TIP3   OH215584   2.671   3.905   0.967  0.3184  0.0089 -0.0651
 5193TIP3    H115585   2.629   3.897   1.052  0.7031  3.7166  0.6424
 5193TIP3    H215586   2.757   3.866   0.979  1.0456  2.0345  1.8987
 5194TIP3   OH215587   2.139   3.289   3.853  0.2731  0.4032 -0.3112
 5194TIP3    H115588   2.161   3.371   3.897  1.1549 -0.1914  0.3988
 5194TIP3    H215589   2.133   3.312   3.761 -1.4977  1.6613  0.0690
 5195TIP3   OH215590   1.290   1.236   3.727  0.2077  0.6192  0.4161
 5195TIP3    H115591   1.272   1.330   3.721 -2.2837  0.1187 -0.8381
 5195TIP3    H215592   1.340   1.215   3.648 -0.5893  0.6228 -0.0929
 5196TIP3   OH215593   3.609   2.699   2.707 -0.4888  0.1683 -0.3157
 5196TIP3    H115594   3.551   2.632   2.670  0.8811 -0.9273 -0.5249
 5196TIP3    H215595   3.651   2.657   2.782  2.6914 -0.3556 -2.2084
 5197TIP3   OH215596   4.156   1.363   2.586 -0.0918  0.0905 -0.2578
 5197TIP3    H115597   4.091   1.407   2.531 -2.4263 -0.1891  2.0636
 5197TIP3    H215598   4.129   1.272   2.586  1.3122 -0.3451 -0.5173
 5198TIP3   OH215599   1.116   5.267   1.133 -0.6158 -0.3450  0.1950
 5198TIP3    H115600   1.108   5.284   1.227 -0.9348  0.0380  0.1043
 5198TIP3    H215601   1.199   5.222   1.123 -1.0433 -1.2967  0.7852
 5199TIP3   OH215602   4.833   2.408   1.052 -0.0012 -0.0825  0.2237
 5199TIP3    H115603   4.928   2.408   1.049  0.0498  0.6309  1.3902
 5199TIP3    H215604   4.807   2.332   1.000  1.2191 -0.7374  0.5484
 5200TIP3   OH215605   3.090   2.905   4.236  0.1940 -0.3837 -0.1807
 5200TIP3    H115606   3.072   2.906   4.330 -0.6630 -3.0266 -0.2233
 5200TIP3    H215607   3.013   2.945   4.196 -0.4577 -1.2334  0.1831
 5201TIP3   OH215608   2.816   5.780   0.772 -0.5631 -0.0665 -0.1577
 5201TIP3    H115609   2.786   5.779   0.863  2.0075  0.1249  0.7886
 5201TIP3    H215610   2.912   5.784   0.779 -0.3358  2.4101 -2.8644
 5202TIP3   OH215611   4.608   5.639   2.909 -0.1926  0.2729 -0.8057
 5202TIP3    H115612   4.545   5.711   2.916 -0.8916 -0.1741 -2.0130
 5202TIP3    H215613   4.693   5.682   2.896 -0.5710  0.8979 -1.2935
 5203TIP3   OH215614   4.558   3.581   1.160  0.3925  0.0848  0.5030
 5203TIP3    H115615   4.608   3.644   1.212  0.1850 -0.5187  1.4524
 5203TIP3    H215616   4.487   3.632   1.121  1.1655  0.7519 -0.0613
 5204TIP3   OH215617   3.984   0.977   3.212 -0.0135 -0.0238 -0.4502
 5204TIP3    H115618   4.064   1.018   3.243  0.0339 -1.5612  1.7249
 5204TIP3    H215619   4.007   0.884   3.200 -1.2983 -0.3738 -0.3829
 5205TIP3   OH215620   3.074   0.545   2.028  0.8365 -0.2209 -0.1768
 5205TIP3    H115621   3.165   0.569   2.044  0.7395  0.7805 -1.0840
 5205TIP3    H215622   3.027   0.573   2.107  0.7904  2.3169 -1.0314
 5206TIP3   OH215623   0.026   4.580   3.870  0.0580 -0.2648  0.6995
 5206TIP3    H115624   0.055   4.563   3.781 -0.7862  0.8180  0.1912
 5206TIP3    H215625  -0.046   4.518   3.885 -0.4165  0.1729  0.2784
 5207TIP3   OH215626   5.647   2.846   3.762  0.0753  0.1950  0.2235
 5207TIP3    H115627   5.735   2.881   3.778  0.0463  0.2490  0.2698
 5207TIP3    H215628   5.659   2.751   3.757 -0.3197 -0.1565  3.6434
 5208TIP3   OH215629   6.052   5.865   1.905  0.4795  0.5586 -0.0977
 5208TIP3    H115630   6.117   5.804   1.939  0.0286  0.2300  0.1772
 5208TIP3    H215631   5.985   5.810   1.865 -0.9192  0.7302  1.8564
 5209TIP3   OH215632   2.581   3.580   3.794 -0.2807 -0.4610 -0.2369
 5209TIP3    H115633   2.567   3.654   3.854  1.1301  1.1291 -1.7403
 5209TIP3    H215634   2.497   3.570   3.749 -1.0689 -1.0698  1.3055
 5210TIP3   OH215635   2.935   4.552   3.089 -0.4978  0.2095  0.0498
 5210TIP3    H115636   2.895   4.600   3.162 -0.7434 -0.9889  0.7148
 5210TIP3    H215637   2.995   4.615   3.050 -1.2192  1.2475  0.5561
 5211TIP3   OH215638   2.584   1.927   1.075  0.1606  0.1249  0.0489
 5211TIP3    H115639   2.592   1.875   1.154 -0.3437  0.3092  0.2249
 5211TIP3    H215640   2.598   1.865   1.004 -0.1406 -0.1921  0.2631
 5212TIP3   OH215641   5.250   2.068   4.176  0.5102  0.0479 -0.2925
 5212TIP3    H115642   5.282   2.142   4.124 -0.2339  0.8952  0.4153
 5212TIP3    H215643   5.261   2.096   4.266 -0.1726 -0.5328 -0.0170
 5213TIP3   OH215644   3.342   1.018   0.441  0.3422  0.2534  0.3601
 5213TIP3    H115645   3.369   0.928   0.457 -0.4200 -0.0548 -0.0654
 5213TIP3    H215646   3.257   1.011   0.398  1.7600  1.0227 -2.9463
 5214TIP3   OH215647   0.749   0.315   4.292 -0.2674  0.3969  0.6283
 5214TIP3    H115648   0.754   0.223   4.266 -1.0210  0.5234  0.0065
 5214TIP3    H215649   0.745   0.312   4.388  2.0346 -0.0899  0.7547
 5215TIP3   OH215650   2.162   0.470   2.718 -0.7810  0.0176  0.6735
 5215TIP3    H115651   2.187   0.510   2.802 -0.0807  0.2039  0.3826
 5215TIP3    H215652   2.073   0.502   2.702 -0.3388  1.2374  0.5840
 5216TIP3   OH215653   5.989   1.628   0.955 -0.2997  0.1796  0.8551
 5216TIP3    H115654   5.954   1.633   1.044 -2.0958 -0.6182  0.2409
 5216TIP3    H215655   5.939   1.693   0.906 -0.2701 -0.3255  0.1424
 5217TIP3   OH215656   4.889   4.439   2.810  0.0791  0.3122 -0.4614
 5217TIP3    H115657   4.889   4.534   2.796 -0.1227  0.3733 -0.0571
 5217TIP3    H215658   4.799   4.412   2.793 -0.3671  0.5001  1.4161
 5218TIP3   OH215659   3.691   5.401   0.911  0.4678  0.5496  0.1913
 5218TIP3    H115660   3.642   5.320   0.900  0.7392  0.1680  1.5484
 5218TIP3    H215661   3.676   5.450   0.831 -0.7225 -0.3055 -0.1293
 5219TIP3   OH215662   2.686   5.387   1.217 -0.2073 -0.0030 -0.0511
 5219TIP3    H115663   2.700   5.292   1.224  0.1860 -0.1313 -2.1560
 5219TIP3    H215664   2.691   5.406   1.124  0.0722  2.1759  0.3551
 5220TIP3   OH215665   4.810   5.340   5.058 -0.8052 -0.0654  0.9673
 5220TIP3    H115666   4.814   5.427   5.098 -2.0537  0.0024  0.9788
 5220TIP3    H215667   4.823   5.279   5.130  0.9138  0.1039  0.8322
 5221TIP3   OH215668   0.333   2.488   4.850 -0.1304 -0.5506 -0.1482
 5221TIP3    H115669   0.263   2.539   4.808  0.7072 -0.7082 -1.8390
 5221TIP3    H215670   0.390   2.554   4.889 -0.2550 -0.3191 -0.3535
 5222TIP3   OH215671   5.477   1.459   0.290 -0.1363  0.3105  0.1494
 5222TIP3    H115672   5.462   1.462   0.195  1.3279  2.2397 -0.0801
 5222TIP3    H215673   5.541   1.388   0.301 -1.4573 -0.9663 -0.0718
 5223TIP3   OH215674   5.278   2.248   3.348 -0.2049  0.4855 -0.4314
 5223TIP3    H115675   5.295   2.331   3.302 -1.6199  0.9382 -0.1943
 5223TIP3    H215676   5.188   2.257   3.380 -0.4778 -1.2610 -0.6252
 5224TIP3   OH215677   3.822   3.326   4.937 -0.8496 -0.4447  0.3449
 5224TIP3    H115678   3.896   3.367   4.982 -0.3414  0.6040 -1.3495
 5224TIP3    H215679   3.814   3.240   4.978  0.1706  0.0939  1.7564
 5225TIP3   OH215680   0.726   0.313   2.948  0.6175  0.0289 -0.2805
 5225TIP3    H115681   0.650   0.371   2.948  0.5182 -0.0755  0.8357
 5225TIP3    H215682   0.699   0.238   2.895  0.5835  0.7676 -1.3528
 5226TIP3   OH215683   4.011   3.423   4.622  0.0788 -0.3171  0.0750
 5226TIP3    H115684   3.918   3.427   4.602 -0.1326 -0.3003  0.9944
 5226TIP3    H215685   4.051   3.490   4.566 -0.6362  0.5401  0.5613
 5227TIP3   OH215686   2.783   0.106   4.804  0.9113  0.4012 -0.1588
 5227TIP3    H115687   2.830   0.084   4.884 -0.1762 -1.2740  0.0512
 5227TIP3    H215688   2.782   0.202   4.802  2.5188  0.4638  0.8742
 5228TIP3   OH215689   3.490   0.565   3.514  0.2630  0.0072 -0.0897
 5228TIP3    H115690   3.471   0.483   3.468 -1.2611 -0.1450  0.7511
 5228TIP3    H215691   3.433   0.629   3.472  0.2771  0.2851  0.3135
 5229TIP3   OH215692   2.811   4.483   2.115 -0.1024  0.3997 -0.8879
 5229TIP3    H115693   2.750   4.554   2.097  0.4153  0.8676 -0.8422
 5229TIP3    H215694   2.819   4.436   2.031 -1.5956 -0.5327 -0.5312
 5230TIP3   OH215695   5.053   4.323   2.322 -0.5361 -1.2036 -0.4736
 5230TIP3    H115696   5.135   4.332   2.272 -2.5259  0.6603 -3.7215
 5230TIP3    H215697   5.081   4.325   2.414  3.3897 -4.7676 -1.2539
 5231TIP3   OH215698   4.101   4.080   3.839  0.2856 -0.4903  0.1911
 5231TIP3    H115699   4.128   4.124   3.920  0.4147 -1.1098  0.4922
 5231TIP3    H215700   4.094   4.151   3.775 -1.7187  0.3055  1.2019
 5232TIP3   OH215701   5.937   5.986   0.745 -0.1763 -0.0132  0.2397
 5232TIP3    H115702   5.857   5.969   0.794  0.9508 -1.9053  1.5859
 5232TIP3    H215703   5.922   5.946   0.659 -0.7217 -0.2711  0.4534
 5233TIP3   OH215704   5.541   0.474   2.674 -0.3418 -0.6084 -0.1313
 5233TIP3    H115705   5.602   0.466   2.748 -0.4730 -1.6563 -0.1237
 5233TIP3    H215706   5.567   0.555   2.630 -0.2459  0.0170  1.0470
 5234TIP3   OH215707   1.884   4.687   1.370  0.6665 -0.8292 -0.0987
 5234TIP3    H115708   1.898   4.769   1.322 -0.8981 -0.3123  0.2535
 5234TIP3    H215709   1.966   4.671   1.416  0.3696  1.6966  1.5197
 5235TIP3   OH215710   2.883   4.961   3.515 -0.3920 -0.4093  0.1601
 5235TIP3    H115711   2.962   4.992   3.470 -0.6855  0.8981  0.5048
 5235TIP3    H215712   2.892   4.866   3.517  0.2121 -0.4216 -1.5912
 5236TIP3   OH215713   5.695   3.769   4.191 -0.6452  0.0983 -0.3610
 5236TIP3    H115714   5.613   3.732   4.223 -0.4524  0.5191  0.6634
 5236TIP3    H215715   5.693   3.755   4.097 -0.9566 -1.7517 -0.1168
 5237TIP3   OH215716   3.685   2.711   0.603 -0.0983  0.1257 -0.0935
 5237TIP3    H115717   3.604   2.740   0.646 -1.5857 -0.1904 -2.4767
 5237TIP3    H215718   3.748   2.780   0.622 -0.7824  0.2303  2.1126
 5238TIP3   OH215719   5.930   5.135   0.790 -0.1537  0.2278  0.2802
 5238TIP3    H115720   5.999   5.083   0.831 -0.0985  1.2179  1.5438
 5238TIP3    H215721   5.977   5.208   0.749 -0.0969 -1.3670 -2.7057
 5239TIP3   OH215722   2.223   3.609   4.277 -0.6126  0.1229 -0.0961
 5239TIP3    H115723   2.259   3.577   4.360 -1.8896  0.6243  0.6749
 5239TIP3    H215724   2.300   3.623   4.222  0.1499 -2.2476  0.2393
 5240TIP3   OH215725   4.022   0.310   2.016 -0.2945 -0.0693  0.1321
 5240TIP3    H115726   4.045   0.401   2.035 -2.0729  0.8172 -1.5687
 5240TIP3    H215727   4.104   0.262   2.026  1.2660  2.1165 -1.2605
 5241TIP3   OH215728   1.107   3.244   2.141 -0.5659 -0.1237  0.1250
 5241TIP3    H115729   1.106   3.148   2.145 -0.2413 -0.0827  1.6029
 5241TIP3    H215730   1.032   3.266   2.085  0.2498 -1.2640 -1.5194
 5242TIP3   OH215731   0.789   4.459   1.652 -0.5450 -0.1908 -0.5057
 5242TIP3    H115732   0.786   4.501   1.738 -0.2057 -3.7253  1.4170
 5242TIP3    H215733   0.854   4.510   1.603  0.1097  1.2772  1.7078
 5243TIP3   OH215734   0.803   2.328   4.419 -0.4925  0.3261  0.3846
 5243TIP3    H115735   0.796   2.320   4.324 -1.5652  2.2947  0.2426
 5243TIP3    H215736   0.896   2.338   4.436 -0.3475  0.5878 -0.5317
 5244TIP3   OH215737   0.409   2.921   3.915  0.0332 -0.3273  0.0734
 5244TIP3    H115738   0.407   2.829   3.940  0.5883 -0.7355 -1.2900
 5244TIP3    H215739   0.346   2.928   3.843  1.6971 -0.1946 -1.4448
 5245TIP3   OH215740   3.720   5.612   1.715  0.0649 -0.3578  0.6002
 5245TIP3    H115741   3.634   5.652   1.725  0.5959  1.7126 -2.2087
 5245TIP3    H215742   3.782   5.683   1.732  1.2311 -1.5185  1.3867
 5246TIP3   OH215743   5.213   4.616   2.217  0.0907  0.1763  0.5021
 5246TIP3    H115744   5.148   4.627   2.287  2.4850  0.0195  2.9250
 5246TIP3    H215745   5.190   4.681   2.152 -3.1568 -0.6727  0.6423
 5247TIP3   OH215746   4.574   2.960   3.646  0.0293  0.2651  0.2742
 5247TIP3    H115747   4.488   2.952   3.604 -0.3388 -1.0312  1.2337
 5247TIP3    H215748   4.624   3.015   3.585 -1.1411  0.1887 -0.8137
 5248TIP3   OH215749   1.317   3.035   1.528  0.1004  0.2636  0.3086
 5248TIP3    H115750   1.333   3.128   1.511 -0.2387  0.3621  0.5192
 5248TIP3    H215751   1.239   3.015   1.477  0.6336 -0.1118 -0.3866
 5249TIP3   OH215752   5.117   0.787   0.202 -0.2758  0.3142  0.1983
 5249TIP3    H115753   5.209   0.799   0.177 -0.9658  0.6044 -2.5208
 5249TIP3    H215754   5.068   0.811   0.124 -2.5952 -1.6814  0.9089
 5250TIP3   OH215755   3.537   0.022   3.401  0.4910 -0.2910 -0.1112
 5250TIP3    H115756   3.602   0.072   3.350 -2.1064  2.9465 -0.5709
 5250TIP3    H215757   3.544   0.057   3.490 -0.0989 -0.4346 -0.0045
 5251TIP3   OH215758   1.755   2.285   1.290  1.2910  0.1396 -0.0948
 5251TIP3    H115759   1.823   2.228   1.326  1.3307  0.6174  0.6046
 5251TIP3    H215760   1.797   2.329   1.216  1.5410 -0.0594 -0.0721
 5252TIP3   OH215761   4.956   0.253   4.733  0.6008  0.1784  0.3022
 5252TIP3    H115762   5.037   0.241   4.781  0.3748 -1.5306  0.2992
 5252TIP3    H215763   4.964   0.196   4.657 -0.9150 -0.6352  0.7100
 5253TIP3   OH215764   0.628   3.283   1.571  0.0346  0.8130 -0.2589
 5253TIP3    H115765   0.640   3.339   1.494 -0.4586 -0.2874 -1.1681
 5253TIP3    H215766   0.679   3.204   1.552 -1.2932 -0.1019 -0.1459
 5254TIP3   OH215767   2.938   0.871   1.061  0.0591  0.2559 -0.5058
 5254TIP3    H115768   2.986   0.796   1.095 -0.9352 -0.2888 -0.2449
 5254TIP3    H215769   2.971   0.946   1.110  1.0276 -0.0156 -0.7325
 5255TIP3   OH215770   1.160   0.516   4.463 -0.6764 -0.5380  0.2087
 5255TIP3    H115771   1.075   0.532   4.422 -0.6112  1.5766  0.7947
 5255TIP3    H215772   1.139   0.467   4.542 -1.0680 -2.1726 -0.8486
 5256TIP3   OH215773   1.376   2.717   0.908 -0.7124  0.0486 -0.3987
 5256TIP3    H115774   1.390   2.628   0.875 -0.8489  0.7173 -2.3993
 5256TIP3    H215775   1.361   2.705   1.002 -0.1313 -1.9678 -0.5022
 5257TIP3   OH215776   4.723   3.452   0.805  0.2611  0.6550 -0.0964
 5257TIP3    H115777   4.655   3.411   0.752 -0.6698  0.5484  1.1342
 5257TIP3    H215778   4.712   3.546   0.790  0.5234  0.5895 -0.7035
 5258TIP3   OH215779   3.037   5.735   4.698 -0.0505 -0.4627  0.1684
 5258TIP3    H115780   3.022   5.715   4.606  0.1805  0.3941 -0.0654
 5258TIP3    H215781   2.980   5.675   4.746 -1.3397  0.1437 -0.5778
 5259TIP3   OH215782   1.452   1.430   0.272  0.0687  0.8557  0.0680
 5259TIP3    H115783   1.454   1.436   0.176 -0.0265  1.1561  0.0836
 5259TIP3    H215784   1.539   1.461   0.300  1.2017 -1.9268 -0.0460
 5260TIP3   OH215785   5.356   1.176   4.613  0.0219 -0.3463 -0.0680
 5260TIP3    H115786   5.351   1.090   4.655  0.7797 -0.6998 -0.6864
 5260TIP3    H215787   5.408   1.229   4.674  0.8854 -0.7812 -0.4084
 5261TIP3   OH215788   0.942   3.891   4.056  0.4412  0.3309 -0.0601
 5261TIP3    H115789   0.950   3.884   3.961  2.0715  1.9325 -0.0928
 5261TIP3    H215790   1.017   3.841   4.090  0.1625  0.1941  0.3618
 5262TIP3   OH215791   0.483   3.625   0.368 -0.0508 -0.2245 -0.2788
 5262TIP3    H115792   0.549   3.601   0.303 -0.6101  2.0077 -1.7855
 5262TIP3    H215793   0.513   3.709   0.403 -0.7671 -0.4533  0.9769
 5263TIP3   OH215794   5.420   2.154   1.020 -0.0777  0.0395  0.5715
 5263TIP3    H115795   5.363   2.089   0.979 -0.0276 -0.0123  0.5843
 5263TIP3    H215796   5.368   2.190   1.092 -0.1308  0.0627  0.5213
 5264TIP3   OH215797   4.684   5.590   1.824 -0.6967  0.3138  0.0886
 5264TIP3    H115798   4.589   5.595   1.822 -0.7272  1.7472  2.0100
 5264TIP3    H215799   4.707   5.608   1.915  1.4520  1.2995 -0.5772
 5265TIP3   OH215800   5.360   1.028   0.393  0.4912  0.9044 -0.3919
 5265TIP3    H115801   5.362   1.109   0.443  0.7943  0.5055  0.2522
 5265TIP3    H215802   5.450   0.995   0.396  0.0997 -0.1263  0.4728
 5266TIP3   OH215803   2.257   4.734   3.624  0.0566 -0.7572  0.1612
 5266TIP3    H115804   2.351   4.744   3.608  0.0605 -0.6881  0.2224
 5266TIP3    H215805   2.252   4.674   3.699  0.0322 -1.2339 -0.2169
 5267TIP3   OH215806   2.839   3.555   2.599 -0.6549  0.5289 -0.0182
 5267TIP3    H115807   2.904   3.588   2.537 -0.1379  0.2411  0.3666
 5267TIP3    H215808   2.870   3.586   2.685 -1.5776  1.2795  0.0739
 5268TIP3   OH215809   5.993   3.562   0.365 -0.1563  0.0504  0.4581
 5268TIP3    H115810   5.934   3.634   0.343  1.0916  0.7836 -0.6540
 5268TIP3    H215811   6.004   3.515   0.282  0.9721  0.0507  0.5986
 5269TIP3   OH215812   0.100   3.392   1.926  0.1149 -0.4851 -0.2844
 5269TIP3    H115813   0.060   3.477   1.947  0.5086  0.1385 -1.9278
 5269TIP3    H215814   0.041   3.328   1.966  0.2567  0.5575  1.6968
 5270TIP3   OH215815   0.906   3.278   0.992 -0.5612  0.4147  0.6065
 5270TIP3    H115816   0.889   3.341   1.062  1.4553 -1.4736  2.9424
 5270TIP3    H215817   0.830   3.219   0.993 -1.0322  1.0069  0.4378
 5271TIP3   OH215818   0.219   3.635   3.405 -0.4695 -0.3930  0.5019
 5271TIP3    H115819   0.172   3.615   3.324  0.2680 -2.6252  0.5480
 5271TIP3    H215820   0.214   3.730   3.413 -2.9237 -0.3345 -0.7060
 5272TIP3   OH215821   3.575   2.054   0.772 -0.0990  0.3959  0.8348
 5272TIP3    H115822   3.610   2.126   0.825  1.4259 -1.6324  2.8118
 5272TIP3    H215823   3.487   2.038   0.807 -0.7253  1.7287 -0.1024
 5273TIP3   OH215824   2.073   2.938   3.382  0.4093  0.1982  0.3857
 5273TIP3    H115825   2.146   2.972   3.433 -1.0851  2.3610  1.2147
 5273TIP3    H215826   2.083   2.979   3.296  0.1533  0.5459  0.5192
 5274TIP3   OH215827   1.918   3.711   3.093 -0.4014  0.2655  0.0371
 5274TIP3    H115828   1.974   3.635   3.075 -2.9284 -1.2758 -2.0588
 5274TIP3    H215829   1.895   3.745   3.007  0.8573  3.7045  0.9252
 5275TIP3   OH215830   1.805   3.217   0.808  0.2458  0.1652 -0.0320
 5275TIP3    H115831   1.814   3.282   0.738  0.2896  0.6059  0.3771
 5275TIP3    H215832   1.723   3.171   0.787  0.2792  0.2656 -0.3957
 5276TIP3   OH215833   3.251   3.338   3.040  0.0856  0.1044  0.7012
 5276TIP3    H115834   3.198   3.315   3.117  0.3256 -0.3511  0.7321
 5276TIP3    H215835   3.222   3.276   2.973 -0.2660  0.6286  0.3594
 5277TIP3   OH215836   4.075   3.984   3.288 -0.2375 -0.2538 -0.0866
 5277TIP3    H115837   4.017   3.974   3.364 -0.0215  0.6302  0.1932
 5277TIP3    H215838   4.040   3.921   3.225 -0.8964 -0.4472  0.4501
 5278TIP3   OH215839   2.242   0.938   0.548  0.0317 -0.0304 -0.4642
 5278TIP3    H115840   2.219   0.854   0.589 -0.6963  1.3098  2.0543
 5278TIP3    H215841   2.159   0.971   0.515 -0.3837  1.2425  1.6897
 5279TIP3   OH215842   4.773   5.093   4.264  0.6472 -0.2404  0.5411
 5279TIP3    H115843   4.736   5.159   4.321 -0.5711 -0.6518  0.2487
 5279TIP3    H215844   4.703   5.029   4.251  1.2928 -0.7890 -0.4288
 5280TIP3   OH215845   3.346   0.693   4.064  0.0661  0.5607  0.3774
 5280TIP3    H115846   3.320   0.740   3.985 -1.3344  0.5921  0.8382
 5280TIP3    H215847   3.442   0.697   4.064  0.0290  3.0271  0.1598
 5281TIP3   OH215848   3.830   3.727   5.002  0.7500 -0.6665 -0.4225
 5281TIP3    H115849   3.742   3.763   5.009 -0.0787 -2.7057  0.1482
 5281TIP3    H215850   3.843   3.713   4.908  1.3208  1.5394 -0.7254
 5282TIP3   OH215851   5.044   3.430   5.001  0.1037 -0.4584  0.1800
 5282TIP3    H115852   5.127   3.465   5.033 -1.2482  2.2192  1.1449
 5282TIP3    H215853   4.981   3.452   5.070 -1.7408 -0.6011 -1.3870
 5283TIP3   OH215854   0.503   4.346   3.164 -0.0437 -0.3595 -0.2981
 5283TIP3    H115855   0.578   4.327   3.108  0.4648  0.8440 -0.0634
 5283TIP3    H215856   0.518   4.294   3.243  0.1302 -0.7345 -0.5743
 5284TIP3   OH215857   4.339   2.869   5.076 -0.0632 -0.3227 -0.1927
 5284TIP3    H115858   4.251   2.905   5.087  0.0947  0.2887 -0.8987
 5284TIP3    H215859   4.372   2.858   5.165  0.6397  3.1276  0.0756
 5285TIP3   OH215860   2.213   5.966   0.880  0.0880 -0.2274 -0.3693
 5285TIP3    H115861   2.303   5.993   0.862  0.5609 -0.5407  1.3453
 5285TIP3    H215862   2.201   5.888   0.826  0.1758  0.8438 -2.0249
 5286TIP3   OH215863   1.884   5.133   2.422  0.2230 -0.0984 -0.4117
 5286TIP3    H115864   1.829   5.127   2.500 -0.7379 -0.7514 -1.1186
 5286TIP3    H215865   1.852   5.212   2.377 -0.1578 -0.4801 -0.8230
 5287TIP3   OH215866   0.908   0.370   1.440  0.2145  0.0981  0.4537
 5287TIP3    H115867   0.815   0.368   1.465 -0.8555 -0.0012 -3.0600
 5287TIP3    H215868   0.909   0.417   1.357  3.7268  2.3701  1.5585
 5288TIP3   OH215869   4.704   4.272   3.388  0.0932 -0.0327 -0.3087
 5288TIP3    H115870   4.738   4.316   3.467  0.1712 -1.4205  0.4658
 5288TIP3    H215871   4.750   4.314   3.316 -0.5501  1.8275  0.2915
 5289TIP3   OH215872   1.842   3.742   4.615  0.0531  0.2220  0.4144
 5289TIP3    H115873   1.856   3.798   4.538  1.9503  0.0617  0.6179
 5289TIP3    H215874   1.844   3.653   4.580  1.4729  0.1237  0.6929
 5290TIP3   OH215875   3.346   3.670   5.159  0.2041  0.7966 -0.0933
 5290TIP3    H115876   3.435   3.671   5.125 -0.2329 -0.3592 -1.3737
 5290TIP3    H215877   3.293   3.706   5.088 -0.7735 -1.9449 -0.8698
 5291TIP3   OH215878   1.408   4.453   4.438 -0.5737 -0.2043 -0.1016
 5291TIP3    H115879   1.376   4.363   4.435  1.1576 -0.8640 -2.9978
 5291TIP3    H215880   1.484   4.450   4.497 -0.1313 -0.8161 -0.6912
 5292TIP3   OH215881   0.659   3.695   1.534  0.2905  0.0376  0.0079
 5292TIP3    H115882   0.739   3.712   1.584 -0.0885 -0.5486  0.8354
 5292TIP3    H215883   0.588   3.718   1.594 -0.1758  0.3418 -0.6420
 5293TIP3   OH215884   5.980   0.180   1.011 -0.6219  0.5421  0.3276
 5293TIP3    H115885   5.991   0.241   1.084  2.1902  2.0401 -1.1983
 5293TIP3    H215886   6.026   0.101   1.038 -1.3894  0.2975  0.9631
 5294TIP3   OH215887   1.938   3.041   4.555  0.1810  0.1892  0.4258
 5294TIP3    H115888   1.998   3.098   4.602 -1.4044 -0.2103  3.2239
 5294TIP3    H215889   1.852   3.081   4.568 -0.7710 -1.9129  1.1071
 5295TIP3   OH215890   4.923   3.681   2.991 -0.0134 -0.3644  0.4163
 5295TIP3    H115891   4.875   3.675   3.074 -0.0992  0.3746  0.4315
 5295TIP3    H215892   4.958   3.770   2.990  1.3713 -0.8848  0.3925
 5296TIP3   OH215893   1.922   3.442   1.956  0.5255  0.2104  0.5162
 5296TIP3    H115894   1.843   3.388   1.961 -0.0838  0.8693 -1.1624
 5296TIP3    H215895   1.953   3.449   2.046 -2.4376  1.5184  1.5509
 5297TIP3   OH215896   0.134   3.460   0.269 -0.3597  0.3810 -0.1699
 5297TIP3    H115897   0.148   3.366   0.258  0.8165  0.4300  0.6357
 5297TIP3    H215898   0.089   3.467   0.354  1.1216  0.6152  0.6273
 5298TIP3   OH215899   5.503   4.747   1.941  0.2069  0.5542  0.0030
 5298TIP3    H115900   5.597   4.734   1.926 -0.0714 -1.7425 -0.1051
 5298TIP3    H215901   5.464   4.661   1.925 -1.6926  0.9826  1.8788
 5299TIP3   OH215902   5.312   2.603   0.192 -0.1144 -0.2119 -0.2684
 5299TIP3    H115903   5.265   2.628   0.112 -0.7857 -2.4535 -0.6553
 5299TIP3    H215904   5.403   2.598   0.165 -0.1687  0.3369 -0.5610
 5300TIP3   OH215905   3.008   4.878   0.943  0.2652 -0.2650  0.0816
 5300TIP3    H115906   3.050   4.948   0.994 -0.3682  0.7736 -0.7679
 5300TIP3    H215907   3.039   4.797   0.983 -1.3706  0.4446  3.1591
 5301TIP3   OH215908   1.692   5.247   3.427  0.0553  0.4489  0.3191
 5301TIP3    H115909   1.774   5.273   3.385 -0.7625 -0.2989 -1.8426
 5301TIP3    H215910   1.712   5.163   3.468 -0.1707 -0.8942 -2.1795
 5302TIP3   OH215911   4.363   5.913   2.639 -0.2283 -0.1175  0.1664
 5302TIP3    H115912   4.433   5.891   2.576  0.3670  0.5523  0.5784
 5302TIP3    H215913   4.396   5.882   2.723 -1.5985 -2.2368 -0.0042
 5303TIP3   OH215914   0.071   2.949   4.701  0.3241  0.9507  0.1425
 5303TIP3    H115915   0.018   2.869   4.696 -0.8262  1.6719  0.3104
 5303TIP3    H215916   0.037   3.003   4.630  1.5634  1.0332 -0.4097
 5304TIP3   OH215917   1.125   4.373   4.001  1.0467  0.0644  0.5194
 5304TIP3    H115918   1.194   4.309   3.982  0.6662  0.0201 -0.8345
 5304TIP3    H215919   1.096   4.403   3.915 -1.0608 -0.3977  0.9991
 5305TIP3   OH215920   2.013   0.947   4.388  0.0878 -0.6584  0.4853
 5305TIP3    H115921   2.094   0.997   4.391 -0.0209 -0.4516 -0.0022
 5305TIP3    H215922   2.037   0.859   4.418 -0.1715  0.2551  3.7438
 5306TIP3   OH215923   5.341  -0.024   1.239 -0.1264 -0.1254 -0.1323
 5306TIP3    H115924   5.373   0.016   1.319  0.8009  0.9092 -0.9984
 5306TIP3    H215925   5.274   0.036   1.207 -0.7931 -0.7474  0.0736
 5307TIP3   OH215926   6.050   4.531   0.386 -0.0704 -0.2306  0.1551
 5307TIP3    H115927   5.960   4.562   0.377  0.3382  1.1201  0.5162
 5307TIP3    H215928   6.051   4.483   0.469 -0.2693  0.4510  0.5536
 5308TIP3   OH215929   4.755   1.020   3.353  0.0280 -0.6493 -0.2173
 5308TIP3    H115930   4.740   0.926   3.346  0.3217 -0.6567 -0.8513
 5308TIP3    H215931   4.846   1.028   3.380  0.3359 -0.5361 -1.2582
 5309TIP3   OH215932   1.584   0.477   0.070  0.2993  0.5763  0.6261
 5309TIP3    H115933   1.588   0.572   0.074  0.5736  0.5736  0.4218
 5309TIP3    H215934   1.530   0.457  -0.006  0.8689  0.5631  0.2210
 5310TIP3   OH215935   4.211   1.732   1.939  0.1137  0.0186 -0.0229
 5310TIP3    H115936   4.218   1.676   1.861  1.2570 -0.5190  0.4391
 5310TIP3    H215937   4.148   1.800   1.914 -1.1077 -1.3021 -0.6973
 5311TIP3   OH215938   5.931   3.490   2.645 -0.1613  0.4316 -0.1543
 5311TIP3    H115939   5.955   3.579   2.673 -1.6107  0.7400  0.1793
 5311TIP3    H215940   6.012   3.440   2.653  0.0815  1.0874  2.2220
 5312TIP3   OH215941   4.673   4.293   1.908  0.2977 -0.2284 -0.0517
 5312TIP3    H115942   4.706   4.268   1.994 -1.8624  0.6065  1.1024
 5312TIP3    H215943   4.660   4.388   1.914  0.0367 -0.1740 -1.2715
 5313TIP3   OH215944   0.935   1.874   0.173 -0.1529  0.4273 -0.2829
 5313TIP3    H115945   0.911   1.865   0.265  1.9051  1.7386  0.4565
 5313TIP3    H215946   0.862   1.923   0.134 -0.9546  0.0457  0.6854
 5314TIP3   OH215947   5.262   5.667   0.243  0.0615 -0.2802 -0.0771
 5314TIP3    H115948   5.281   5.611   0.318 -1.3921 -1.2334 -0.3814
 5314TIP3    H215949   5.215   5.742   0.279  0.3888 -0.1585  0.0994
 5315TIP3   OH215950   4.467   0.707   3.965 -0.3352  0.8936 -0.9930
 5315TIP3    H115951   4.379   0.735   3.990  0.1435  1.4112  0.1956
 5315TIP3    H215952   4.466   0.611   3.974 -1.5589  0.5544 -3.6947
 5316TIP3   OH215953   1.462   0.529   2.589  0.2725  0.1421 -0.2105
 5316TIP3    H115954   1.525   0.552   2.657 -0.9223 -2.8045  2.1115
 5316TIP3    H215955   1.407   0.608   2.580  1.7068  1.3084  0.7290
 5317TIP3   OH215956   3.050   0.279   5.130  0.5013 -0.0725 -0.8398
 5317TIP3    H115957   3.036   0.265   5.224  1.9245 -2.4736 -0.9197
 5317TIP3    H215958   3.124   0.340   5.126  0.0322  0.5427 -0.4282
 5318TIP3   OH215959   1.095   4.496   3.166 -0.7488 -1.1799  0.4250
 5318TIP3    H115960   1.056   4.458   3.245 -0.4030 -1.2340  0.5708
 5318TIP3    H215961   1.057   4.446   3.095 -0.5562 -1.5766  0.5981
 5319TIP3   OH215962   6.191   5.608   4.346 -0.3706  0.7428  0.2559
 5319TIP3    H115963   6.172   5.609   4.440  1.5869 -0.6997  0.7284
 5319TIP3    H215964   6.108   5.585   4.305 -1.2919  1.5054  1.6090
 5320TIP3   OH215965   3.348   2.091   0.194 -0.3742  0.8850  0.3151
 5320TIP3    H115966   3.395   2.170   0.220 -0.1035  1.4049 -1.6310
 5320TIP3    H215967   3.382   2.070   0.107 -2.2440  0.0676 -0.2685
 5321TIP3   OH215968   4.656   4.727   2.193 -0.2282 -0.1357  0.6006
 5321TIP3    H115969   4.587   4.662   2.179 -1.1031  1.2161 -1.8771
 5321TIP3    H215970   4.736   4.674   2.205 -1.5496 -1.7219  3.3935
 5322TIP3   OH215971   4.163   4.639   4.125  0.2428  0.1419 -0.9216
 5322TIP3    H115972   4.194   4.649   4.215 -0.8188  0.2000 -0.5487
 5322TIP3    H215973   4.142   4.546   4.117  3.4242 -0.5927 -2.1741
 5323TIP3   OH215974   0.762   2.130   2.472  0.1662 -0.4040 -0.0266
 5323TIP3    H115975   0.813   2.207   2.448  2.2080 -0.6338  2.9824
 5323TIP3    H215976   0.673   2.163   2.485  0.6039  1.0536 -0.5473
 5324TIP3   OH215977   4.229   5.718   2.279 -0.6222 -0.2777  0.2580
 5324TIP3    H115978   4.139   5.743   2.299 -0.0825  1.9866  0.0821
 5324TIP3    H215979   4.283   5.790   2.311  1.1487 -1.4932  0.2094
 5325TIP3   OH215980   3.421   1.366   1.359  0.3350 -1.2742  0.0796
 5325TIP3    H115981   3.455   1.408   1.280 -2.8076  1.5321 -0.0003
 5325TIP3    H215982   3.483   1.389   1.428  0.0133  1.5300 -0.4702
 5326TIP3   OH215983   2.952   3.158   3.446  0.1266 -0.5441  0.1000
 5326TIP3    H115984   2.984   3.078   3.403 -0.4458 -0.7281  0.0060
 5326TIP3    H215985   2.876   3.183   3.395  1.0938  0.8551 -0.7146
 5327TIP3   OH215986   6.329   1.901   1.162 -0.3800 -0.1124  0.2015
 5327TIP3    H115987   6.339   1.868   1.073 -1.8716  0.3337 -0.1556
 5327TIP3    H215988   6.281   1.983   1.153 -1.1770 -0.4016  1.4598
 5328TIP3   OH215989   5.662   3.605   2.688 -1.2266  0.7495 -0.0469
 5328TIP3    H115990   5.615   3.679   2.651  1.2152  1.4870 -1.9225
 5328TIP3    H215991   5.752   3.616   2.658 -0.1116 -1.3210  2.2009
 5329TIP3   OH215992   3.896   4.066   0.992 -0.4503  0.2692 -0.1192
 5329TIP3    H115993   3.852   3.995   0.946 -1.1431 -0.3673  1.4550
 5329TIP3    H215994   3.963   4.023   1.045 -1.1885  0.6950  1.2135
 5330TIP3   OH215995   1.029   0.518   0.282 -0.0939  0.7912  0.6307
 5330TIP3    H115996   0.943   0.526   0.323  0.1737  0.5583  1.2494
 5330TIP3    H215997   1.026   0.433   0.238 -0.9276  1.7050 -1.1650
 5331TIP3   OH215998   0.990   2.183   2.980  0.4603 -0.1972  0.1877
 5331TIP3    H115999   0.942   2.103   2.960 -0.4381  0.0429  1.2907
 5331TIP3    H216000   0.951   2.215   3.061  0.1864  1.8506 -0.6951
 5332TIP3   OH216001   2.548   1.399   0.899  0.8170  0.1629 -0.2066
 5332TIP3    H116002   2.597   1.423   0.978  1.6576 -1.5088 -0.1606
 5332TIP3    H216003   2.615   1.394   0.830  0.5291 -0.8626 -0.4353
 5333TIP3   OH216004   2.331   5.527   4.921 -0.2573  0.3198  0.0611
 5333TIP3    H116005   2.352   5.619   4.906  1.3131  0.2584  1.6540
 5333TIP3    H216006   2.281   5.526   5.002  0.3541 -0.2835  0.4438
 5334TIP3   OH216007   2.149   1.790   2.690 -0.2383  0.5010  0.0399
 5334TIP3    H116008   2.068   1.776   2.740  0.9693  0.1790  2.0027
 5334TIP3    H216009   2.192   1.864   2.733 -0.4701  2.1581 -2.3670
 5335TIP3   OH216010   4.972   0.878   1.659 -0.5107 -0.4307 -0.4827
 5335TIP3    H116011   4.917   0.950   1.629  0.2196  0.3583  0.0294
 5335TIP3    H216012   4.959   0.809   1.594 -0.2575  0.6187 -1.7002
 5336TIP3   OH216013   2.960   5.729   2.766  0.1594 -0.3993 -0.1596
 5336TIP3    H116014   2.935   5.812   2.807  0.5603  0.3627 -1.4182
 5336TIP3    H216015   3.044   5.747   2.724 -0.2675 -1.1341 -1.3669
 5337TIP3   OH216016   0.221   5.203   0.304 -0.6450  0.0927  0.7311
 5337TIP3    H116017   0.205   5.126   0.250 -0.7586 -0.2606  1.2567
 5337TIP3    H216018   0.222   5.169   0.394 -0.4431  0.6638  0.9471
 5338TIP3   OH216019   6.246   2.447   4.224  0.6882  0.5536 -0.2061
 5338TIP3    H116020   6.195   2.367   4.211 -1.1489  1.8109 -1.2641
 5338TIP3    H216021   6.229   2.471   4.316  1.8334 -0.6035  0.3368
 5339TIP3   OH216022   2.287   3.356   1.103 -0.0135  0.0252  0.0382
 5339TIP3    H116023   2.284   3.446   1.134 -0.4277 -0.6388  2.0287
 5339TIP3    H216024   2.369   3.351   1.054  0.5150  1.2172  0.7506
 5340TIP3   OH216025   5.534   2.248   0.396 -0.0051 -0.1540 -0.4028
 5340TIP3    H116026   5.513   2.186   0.326 -0.6084 -1.1396  0.6222
 5340TIP3    H216027   5.534   2.195   0.476  0.5858  0.9622  0.3640
 5341TIP3   OH216028   2.597   2.998   1.220  0.4276  0.2390 -0.0231
 5341TIP3    H116029   2.554   2.982   1.304  0.6675 -0.2682  0.0128
 5341TIP3    H216030   2.546   3.066   1.178  1.0124  1.3858  1.0678
 5342TIP3   OH216031   4.898   2.334   1.828  1.2223 -0.0160 -0.5549
 5342TIP3    H116032   4.828   2.395   1.803  1.3637  0.0471 -0.7981
 5342TIP3    H216033   4.911   2.349   1.921 -0.0759 -1.0232 -0.1717
 5343TIP3   OH216034   0.218   4.008   3.833  0.0718  0.0344  0.0827
 5343TIP3    H116035   0.230   4.079   3.896  2.7492 -1.3235  1.2117
 5343TIP3    H216036   0.273   4.032   3.759 -0.7202  0.1408 -0.4943
 5344TIP3   OH216037   4.808   4.925   4.519 -0.4790 -0.0893 -0.3875
 5344TIP3    H116038   4.714   4.929   4.501 -0.5238  1.4932  0.0747
 5344TIP3    H216039   4.848   4.973   4.447 -0.0044 -0.7213 -0.5600
 5345TIP3   OH216040   0.203   4.269   3.887 -0.4792  0.2871  0.3684
 5345TIP3    H116041   0.172   4.278   3.977 -0.3528 -1.8584  0.6850
 5345TIP3    H216042   0.270   4.336   3.877 -1.4111  1.4270  1.4200
 5346TIP3   OH216043   5.958   5.850   1.608 -0.3443 -0.3017 -0.0228
 5346TIP3    H116044   5.890   5.849   1.676 -0.2279 -3.1268  0.1896
 5346TIP3    H216045   5.920   5.902   1.537 -1.4002  0.8172  1.2972
 5347TIP3   OH216046   5.971   1.326   1.143  0.3637  0.1925 -0.6676
 5347TIP3    H116047   5.927   1.286   1.218  1.8557  1.4343  0.9780
 5347TIP3    H216048   6.030   1.258   1.110  0.4383 -0.0595 -0.0308
 5348TIP3   OH216049   2.491   5.145   0.272  0.2580  0.3112  0.6109
 5348TIP3    H116050   2.520   5.087   0.343  1.8808 -0.4525 -0.6142
 5348TIP3    H216051   2.442   5.088   0.213  3.7495 -0.5443 -1.7739
 5349TIP3   OH216052   3.585   0.949   4.435 -0.3755 -0.6045  0.3215
 5349TIP3    H116053   3.607   1.042   4.428 -0.4569 -0.6343 -0.3822
 5349TIP3    H216054   3.628   0.920   4.515  1.6589 -0.5164 -0.6759
 5350TIP3   OH216055   3.139   5.080   1.114 -0.4069 -0.0963 -0.3683
 5350TIP3    H116056   3.223   5.113   1.145  0.4913 -2.8379  0.4857
 5350TIP3    H216057   3.075   5.116   1.176  0.9217 -2.4427  2.6675
 5351TIP3   OH216058   1.864   0.209   0.079 -0.8421  0.6253  0.2199
 5351TIP3    H116059   1.781   0.201   0.033 -1.1764 -2.2294  1.1463
 5351TIP3    H216060   1.840   0.220   0.171 -0.1693  1.9013  0.2659
 5352TIP3   OH216061   1.974   2.936   1.214  0.0214  0.5541 -0.3196
 5352TIP3    H116062   2.030   2.888   1.153  0.8575  0.5454  0.4247
 5352TIP3    H216063   1.950   3.016   1.167 -1.2933 -0.4935 -1.5287
 5353TIP3   OH216064   0.152   1.883   0.687 -0.2025  0.5217 -0.3330
 5353TIP3    H116065   0.076   1.827   0.673  1.1499 -1.2717 -0.9184
 5353TIP3    H216066   0.118   1.972   0.679 -2.4998 -0.1591  0.9129
 5354TIP3   OH216067   1.628   5.730   0.776  0.4528  0.0899  0.1115
 5354TIP3    H116068   1.721   5.730   0.800  0.5500 -1.7367 -0.1708
 5354TIP3    H216069   1.623   5.787   0.700  1.9653 -2.3315 -1.9435
 5355TIP3   OH216070   4.195   0.169   3.591  0.6073 -0.7544 -0.2593
 5355TIP3    H116071   4.148   0.213   3.520  0.2880 -0.5225  0.0936
 5355TIP3    H216072   4.288   0.183   3.570  0.5193 -1.0788 -0.8698
 5356TIP3   OH216073   3.016   4.308   0.561 -0.6948  0.5521  0.4486
 5356TIP3    H116074   3.028   4.295   0.655  0.0498  0.1470  0.3121
 5356TIP3    H216075   3.060   4.233   0.521  0.1818  1.4166 -0.2622
 5357TIP3   OH216076   3.146   5.273   4.813  0.6224 -0.1348  0.2465
 5357TIP3    H116077   3.163   5.187   4.852 -1.0054 -0.2647  0.7563
 5357TIP3    H216078   3.123   5.328   4.887  0.2496  0.3570 -0.2277
 5358TIP3   OH216079   2.378   3.378   4.044  0.0878 -0.6856  0.5881
 5358TIP3    H116080   2.466   3.415   4.056  0.7605 -2.0190  0.0016
 5358TIP3    H216081   2.327   3.450   4.006  0.7036  0.3367  1.6358
 5359TIP3   OH216082   4.630   2.285   3.509 -0.0860  0.2083  0.4072
 5359TIP3    H116083   4.590   2.243   3.433 -1.8211 -0.2010  1.4808
 5359TIP3    H216084   4.677   2.214   3.554  0.9426  0.4510 -0.2399
 5360TIP3   OH216085   1.288   1.364   2.453  0.5020 -0.0385  0.1742
 5360TIP3    H116086   1.358   1.333   2.510  1.5751  3.3050  0.9572
 5360TIP3    H216087   1.330   1.378   2.368  0.7082  1.4343  0.4916
 5361TIP3   OH216088   3.584   4.890   2.475 -0.1144  1.1247 -0.0882
 5361TIP3    H116089   3.526   4.939   2.417  1.6860  2.0499 -1.2041
 5361TIP3    H216090   3.611   4.954   2.541  0.9398  1.2257 -0.5862
 5362TIP3   OH216091   2.866   3.784   4.352  0.2600 -0.0238  0.2115
 5362TIP3    H116092   2.865   3.709   4.411 -0.4536  0.6851  1.1264
 5362TIP3    H216093   2.791   3.770   4.294  1.7624 -1.4414 -1.5252
 5363TIP3   OH216094   5.908   5.667   0.311  0.6623  0.5381  0.4632
 5363TIP3    H116095   5.855   5.727   0.365  1.5174  1.7346  0.0247
 5363TIP3    H216096   5.970   5.628   0.372 -0.2505 -0.3432  0.8533
 5364TIP3   OH216097   2.515   2.238   2.397 -0.3949 -0.5301 -0.3080
 5364TIP3    H116098   2.603   2.239   2.434 -0.3162 -0.5646 -0.4919
 5364TIP3    H216099   2.526   2.204   2.308 -0.6651 -1.0236 -0.1564
 5365TIP3   OH216100   0.366   0.075   2.073  0.4771 -1.0411 -0.3276
 5365TIP3    H116101   0.382   0.133   2.147  1.6841  1.2073 -2.2436
 5365TIP3    H216102   0.277   0.097   2.044  1.3443  0.8537 -1.7740
 5366TIP3   OH216103   5.277   0.462   2.568 -0.2544  0.2739  0.1651
 5366TIP3    H116104   5.370   0.466   2.587  0.0254 -0.9800 -0.8356
 5366TIP3    H216105   5.237   0.520   2.633  1.3269  1.8864 -0.2220
 5367TIP3   OH216106   5.139   1.727   2.381  0.3134  0.2487 -0.3663
 5367TIP3    H116107   5.182   1.736   2.466 -0.5807  3.0504 -0.1277
 5367TIP3    H216108   5.211   1.729   2.317  0.7897  1.4104  0.1882
 5368TIP3   OH216109   6.340   0.982   3.375  0.4946 -0.0297  0.1218
 5368TIP3    H116110   6.317   0.898   3.415 -0.2793  0.3585  0.5164
 5368TIP3    H216111   6.275   0.993   3.306  0.1607  0.5624  0.5231
 5369TIP3   OH216112   1.586   3.519   2.395  0.2871  0.1139  0.5673
 5369TIP3    H116113   1.534   3.599   2.399 -0.0762 -0.1455  1.4195
 5369TIP3    H216114   1.669   3.545   2.355  0.6144  1.1635  1.8758
 5370TIP3   OH216115   0.103   1.210   2.961 -0.2237  0.3905 -0.0855
 5370TIP3    H116116   0.170   1.274   2.985  0.6515 -0.7690  0.7105
 5370TIP3    H216117   0.140   1.164   2.885 -0.5441  0.3853 -0.2402
 5371TIP3   OH216118   2.783   5.396   5.032  0.4322 -0.0397 -0.1490
 5371TIP3    H116119   2.776   5.440   4.947 -1.1352 -0.1148 -0.0838
 5371TIP3    H216120   2.709   5.429   5.082  0.1137 -1.5886  0.4422
 5372TIP3   OH216121   5.030   1.061   2.703  0.1490 -0.0078 -0.2009
 5372TIP3    H116122   4.950   1.080   2.654 -0.8503  0.9976  1.7045
 5372TIP3    H216123   5.060   1.147   2.734 -0.2653 -0.6798  2.3497
 5373TIP3   OH216124   0.683   4.865   4.385  0.3988  0.4182  0.0684
 5373TIP3    H116125   0.759   4.915   4.415 -0.2196  1.1336  0.4359
 5373TIP3    H216126   0.674   4.794   4.449  1.6126 -0.5411 -0.7570
 5374TIP3   OH216127   1.200   3.773   2.302  0.1329  0.3436  0.2629
 5374TIP3    H116128   1.129   3.727   2.346  1.0833 -0.0994  1.3731
 5374TIP3    H216129   1.217   3.720   2.223 -1.8959  1.4116 -0.9682
 5375TIP3   OH216130   6.050   2.857   3.334 -0.0029 -0.0462  0.3323
 5375TIP3    H116131   6.022   2.801   3.261 -0.8548  1.0669 -0.2274
 5375TIP3    H216132   6.104   2.924   3.293  0.4229 -0.0453  0.8929
 5376TIP3   OH216133   1.795   0.662   0.616  0.7797 -0.1732 -0.0893
 5376TIP3    H116134   1.826   0.687   0.529  1.5568 -0.7621  0.0083
 5376TIP3    H216135   1.726   0.725   0.636 -1.5373 -1.7945 -2.3823
 5377TIP3   OH216136   6.178   5.916   2.714 -0.0110 -0.0204  0.1772
 5377TIP3    H116137   6.176   5.836   2.662  0.6895 -0.1364  0.3156
 5377TIP3    H216138   6.086   5.940   2.725 -0.2047 -0.5233 -0.2957
 5378TIP3   OH216139   5.598   3.067   2.282  0.4675  0.0579 -0.4525
 5378TIP3    H116140   5.586   2.977   2.311 -0.3105  0.3822  0.2622
 5378TIP3    H216141   5.602   3.062   2.186  2.5288 -0.9655 -0.3662
 5379TIP3   OH216142   2.755   1.703   1.520  0.8163 -0.1296  0.1957
 5379TIP3    H116143   2.726   1.631   1.464 -1.9155  0.3921  0.7981
 5379TIP3    H216144   2.740   1.672   1.609 -0.3639  1.1082  0.4660
 5380TIP3   OH216145   2.824   5.451   2.093 -0.1287  0.0383  0.1466
 5380TIP3    H116146   2.769   5.448   2.015 -1.4741  1.8562  0.9446
 5380TIP3    H216147   2.829   5.360   2.122 -0.8677 -0.4666 -1.2032
 5381TIP3   OH216148   3.361   3.994   1.434  0.2702 -0.3728  0.0595
 5381TIP3    H116149   3.353   3.918   1.491  2.2099 -1.9718 -1.6104
 5381TIP3    H216150   3.451   4.023   1.445 -0.5673  2.0741  1.0296
 5382TIP3   OH216151   0.907   0.831   0.549  0.2373  0.2812 -0.2986
 5382TIP3    H116152   0.894   0.922   0.526  1.7884  0.6710  0.2187
 5382TIP3    H216153   0.982   0.803   0.497 -0.8902 -1.0455 -1.2803
 5383TIP3   OH216154   2.875   5.325   0.195  0.2552  0.8158  0.6776
 5383TIP3    H116155   2.923   5.327   0.112 -0.7657 -0.2155  0.0252
 5383TIP3    H216156   2.922   5.385   0.252 -0.8638  4.2141 -1.6634
 5384TIP3   OH216157   3.035   4.222   2.445 -0.3029  0.1367  0.1535
 5384TIP3    H116158   3.109   4.263   2.490  0.7112  0.4060 -1.6988
 5384TIP3    H216159   3.028   4.268   2.362 -2.8112  0.3677  0.3995
 5385TIP3   OH216160   5.284   3.110   2.953  0.3122 -0.5977  0.2257
 5385TIP3    H116161   5.282   3.206   2.955  1.5593 -0.5393 -0.5313
 5385TIP3    H216162   5.341   3.085   3.025  2.3040 -0.6109 -1.2548
 5386TIP3   OH216163   0.705   3.656   0.802 -0.2216 -0.0662 -0.0287
 5386TIP3    H116164   0.725   3.750   0.809 -0.8233  0.0358  0.3763
 5386TIP3    H216165   0.784   3.618   0.763 -0.8874  0.9510 -2.5689
 5387TIP3   OH216166   4.301   4.430   2.086 -0.0579  1.0302 -0.2802
 5387TIP3    H116167   4.368   4.414   2.153 -1.6439 -0.2575  1.0721
 5387TIP3    H216168   4.233   4.366   2.104 -2.1061  2.8797 -1.0440
 5388TIP3   OH216169   4.097   4.267   2.187  0.2617  0.6301 -0.1452
 5388TIP3    H116170   4.058   4.184   2.215  0.6006  0.8151  0.9278
 5388TIP3    H216171   4.039   4.299   2.119  0.2669 -0.6131 -0.7635
 5389TIP3   OH216172   3.662   3.859   2.353  0.0480 -0.4920 -0.3201
 5389TIP3    H116173   3.622   3.917   2.288  1.4891 -1.1094 -1.8168
 5389TIP3    H216174   3.695   3.918   2.421  2.7763  0.7218 -2.4888
 5390TIP3   OH216175   2.047   1.701   3.472  0.6765  0.4718 -0.0288
 5390TIP3    H116176   2.028   1.608   3.464 -1.8561  0.9455 -0.3065
 5390TIP3    H216177   1.974   1.744   3.427  0.3782  2.6525  2.3385
 5391TIP3   OH216178   0.902   3.422   3.892 -0.1588 -0.4774  0.1671
 5391TIP3    H116179   0.930   3.487   3.957  0.0941 -0.7371  0.3186
 5391TIP3    H216180   0.827   3.463   3.849  0.4636  0.2566 -0.2672
 5392TIP3   OH216181   6.013   1.617   4.631  0.4419  0.8841  0.6055
 5392TIP3    H116182   6.016   1.523   4.615 -0.9263  0.8722  0.3094
 5392TIP3    H216183   5.999   1.656   4.545  1.3467  1.3954  0.6785
 5393TIP3   OH216184   0.808   5.488   0.442  0.3437 -0.1655 -0.0236
 5393TIP3    H116185   0.885   5.529   0.481  0.0983 -0.1932  0.4901
 5393TIP3    H216186   0.786   5.544   0.368 -0.1587  0.7951  0.8351
 5394TIP3   OH216187   5.393   4.695   2.546  0.3987 -0.2758  0.0542
 5394TIP3    H116188   5.320   4.676   2.605 -0.9267 -0.1348 -1.4411
 5394TIP3    H216189   5.453   4.749   2.598 -0.0757 -1.1934  1.6229
 5395TIP3   OH216190   6.108   3.852   4.304  0.1099  0.1888 -0.1518
 5395TIP3    H116191   6.195   3.889   4.289 -0.1014  0.2831 -1.2326
 5395TIP3    H216192   6.059   3.874   4.225 -0.1282 -2.1269 -0.7107
 5396TIP3   OH216193   1.441   0.964   4.958 -0.5730 -0.1309 -0.5313
 5396TIP3    H116194   1.360   1.008   4.933  0.1400  1.1232 -0.7488
 5396TIP3    H216195   1.461   0.996   5.046  1.3257  2.1571 -1.6802
 5397TIP3   OH216196   0.918   4.244   4.814  0.3343 -0.0274  0.0611
 5397TIP3    H116197   0.822   4.245   4.815  0.1952 -2.4489  2.5120
 5397TIP3    H216198   0.942   4.325   4.769 -2.8473  1.7186  1.1281
 5398TIP3   OH216199   0.480   0.142   4.304 -0.1021  0.0210 -0.0978
 5398TIP3    H116200   0.483   0.225   4.255  2.0134  1.5047  2.2693
 5398TIP3    H216201   0.402   0.150   4.359  0.2422  0.5915  0.3202
 5399TIP3   OH216202   4.871   1.695   2.364  0.3762  0.4469 -0.1119
 5399TIP3    H116203   4.966   1.682   2.370  0.3683  0.8185  1.1445
 5399TIP3    H216204   4.852   1.694   2.270  1.3940 -1.2674 -0.3437
 5400TIP3   OH216205   0.937   0.186   3.320 -0.6241  0.1937  0.5571
 5400TIP3    H116206   0.944   0.105   3.371 -1.3286  0.2867  0.8121
 5400TIP3    H216207   1.014   0.237   3.344 -0.0409 -0.5113  0.1999
 5401TIP3   OH216208   1.018   1.400   0.633 -0.5272  0.2320  0.1284
 5401TIP3    H116209   0.926   1.378   0.615 -0.2959 -1.3407  0.7710
 5401TIP3    H216210   1.061   1.390   0.548 -1.0878  1.9311 -0.4018
 5402TIP3   OH216211   4.621   2.169   4.086 -0.2602 -0.0891  0.5684
 5402TIP3    H116212   4.585   2.257   4.097 -1.8236 -0.5410 -0.6085
 5402TIP3    H216213   4.677   2.175   4.008 -0.8254 -0.2658  0.1474
 5403TIP3   OH216214   1.475   3.654   2.783  0.3190 -0.3061  0.2752
 5403TIP3    H116215   1.469   3.637   2.689  1.0120  0.2341  0.1188
 5403TIP3    H216216   1.408   3.720   2.800 -0.7713 -1.4113  0.4439
 5404TIP3   OH216217   3.228   1.235   2.876  0.3086  0.0622 -0.0625
 5404TIP3    H116218   3.153   1.258   2.930  0.4553  0.4386 -0.0178
 5404TIP3    H216219   3.303   1.276   2.919  0.5170 -0.1570 -0.2081
 5405TIP3   OH216220   4.344   2.536   2.665 -0.1171 -0.0158 -0.2887
 5405TIP3    H116221   4.288   2.564   2.592 -0.5327  1.1921  0.4653
 5405TIP3    H216222   4.432   2.565   2.640  0.4979 -2.9234 -2.0147
 5406TIP3   OH216223   2.026   4.560   1.823 -0.2161 -0.1660 -0.0056
 5406TIP3    H116224   1.999   4.649   1.845 -2.6684 -0.7965 -0.1691
 5406TIP3    H216225   1.973   4.538   1.746  1.1979 -1.3787 -0.6718
 5407TIP3   OH216226   2.001   4.057   4.970 -0.0877 -0.4384  0.4263
 5407TIP3    H116227   1.971   4.148   4.963 -0.2733 -0.5655 -0.6306
 5407TIP3    H216228   1.920   4.005   4.968  0.0694 -0.6722 -0.1825
 5408TIP3   OH216229   4.855   5.341   1.330 -0.2262 -0.2756  0.1002
 5408TIP3    H116230   4.821   5.311   1.246 -0.7108  0.5055  0.0054
 5408TIP3    H216231   4.782   5.390   1.369  0.3156  0.1956  0.5412
 5409TIP3   OH216232   2.411   4.163   3.120  0.0443  0.0288 -0.4430
 5409TIP3    H116233   2.318   4.141   3.114  0.1348 -1.8151  2.5749
 5409TIP3    H216234   2.452   4.118   3.046 -1.1646 -1.6164 -0.1747
 5410TIP3   OH216235   4.731   5.158   0.701  0.1100  0.0369  0.0224
 5410TIP3    H116236   4.651   5.207   0.718 -1.0594 -1.4811 -0.8105
 5410TIP3    H216237   4.756   5.122   0.786  1.1926  2.2514  0.7231
 5411TIP3   OH216238   5.571   5.346   3.585  0.3989  0.5867 -0.9007
 5411TIP3    H116239   5.560   5.308   3.673  0.2186  1.1857 -0.6592
 5411TIP3    H216240   5.656   5.314   3.556  1.2945  1.8315  0.2400
 5412TIP3   OH216241   2.384   1.143   1.236  0.4451 -0.1663 -0.3075
 5412TIP3    H116242   2.336   1.164   1.155  1.4614  1.4725 -0.5472
 5412TIP3    H216243   2.336   1.189   1.305  1.2653  0.9446 -0.4534
 5413TIP3   OH216244   0.331   1.929   0.105 -0.4231 -0.1977  0.6238
 5413TIP3    H116245   0.245   1.917   0.147 -0.1402 -1.3028  0.9123
 5413TIP3    H216246   0.383   1.974   0.171 -0.6345  0.0376  0.6322
 5414TIP3   OH216247   1.485   2.579   0.578  0.3421  0.5383  0.0641
 5414TIP3    H116248   1.393   2.567   0.553 -0.0687  1.1897  1.1791
 5414TIP3    H216249   1.506   2.502   0.630  0.3175  0.5596  0.1056
 5415TIP3   OH216250   3.429   2.813   1.737 -0.0723  0.3559  0.0289
 5415TIP3    H116251   3.386   2.861   1.666 -0.6690 -1.4101 -0.8527
 5415TIP3    H216252   3.510   2.780   1.699 -0.6814 -1.1180 -0.0758
 5416TIP3   OH216253   4.540   2.836   2.464  0.0048 -0.2680 -0.4156
 5416TIP3    H116254   4.543   2.751   2.420 -2.0251  0.1622 -1.5115
 5416TIP3    H216255   4.604   2.890   2.416  1.6007 -1.2293  0.5398
 5417TIP3   OH216256   3.214   3.657   4.885 -0.0047 -0.0848 -0.0322
 5417TIP3    H116257   3.240   3.565   4.892 -0.7096 -0.3801 -1.0887
 5417TIP3    H216258   3.272   3.693   4.817  1.7999  0.8637  1.8918
 5418TIP3   OH216259   4.834   5.517   3.452  0.8431  0.5978 -0.2095
 5418TIP3    H116260   4.820   5.441   3.508  1.9475  0.6300  0.1285
 5418TIP3    H216261   4.791   5.589   3.498 -0.2840  0.1848 -0.5747
 5419TIP3   OH216262   2.453   0.366   0.316 -0.0080  0.0798 -0.2662
 5419TIP3    H116263   2.524   0.426   0.292 -0.8860  0.5641 -1.7605
 5419TIP3    H216264   2.373   0.418   0.307 -0.7053 -1.0091 -0.5559
 5420TIP3   OH216265   1.501   0.333   2.359  0.6681  0.0124  0.0130
 5420TIP3    H116266   1.501   0.410   2.417 -0.4423  1.8983 -2.3166
 5420TIP3    H216267   1.593   0.310   2.351  1.0766  1.3455  0.5085
 5421TIP3   OH216268   2.815   0.202   0.387  0.1548 -0.5137  0.4920
 5421TIP3    H116269   2.855   0.139   0.328  0.1271 -0.2654  0.2066
 5421TIP3    H216270   2.787   0.274   0.331  0.6742 -0.0017  0.8775
 5422TIP3   OH216271   1.872   5.893   1.732 -0.3026 -0.0540 -0.1580
 5422TIP3    H116272   1.846   5.983   1.754 -0.2626 -0.2804  0.8384
 5422TIP3    H216273   1.840   5.840   1.804 -1.2408 -1.0036 -1.2372
 5423TIP3   OH216274   3.504   3.568   4.508  0.1880 -0.1365 -0.3860
 5423TIP3    H116275   3.476   3.497   4.566 -1.9679  0.0386 -1.1450
 5423TIP3    H216276   3.497   3.647   4.562  0.2969 -0.2093 -0.2618
 5424TIP3   OH216277   0.048   4.078   2.867  0.0310  0.1452 -0.3536
 5424TIP3    H116278   0.084   4.014   2.805  3.1219  1.1273  0.2751
 5424TIP3    H216279   0.056   4.162   2.822  0.8683  0.6790  0.7609
 5425TIP3   OH216280   3.930   0.590   1.316 -0.3245  0.7864  0.1747
 5425TIP3    H116281   3.847   0.625   1.285 -0.8620 -0.1326  0.5453
 5425TIP3    H216282   3.950   0.518   1.257  0.1797  0.9659  0.1239
 5426TIP3   OH216283   1.235   4.110   4.208  0.2869 -0.0493 -0.2182
 5426TIP3    H116284   1.190   4.026   4.222  1.0442 -0.3751  0.3478
 5426TIP3    H216285   1.262   4.108   4.116 -1.1087  0.2893 -0.6565
 5427TIP3   OH216286   2.810   6.008   0.581 -0.9343  0.7711 -0.1698
 5427TIP3    H116287   2.819   5.944   0.510  0.3022  0.0474  0.5961
 5427TIP3    H216288   2.818   5.955   0.661 -1.6197  1.6621  0.4978
 5428TIP3   OH216289   3.793   4.122   4.060 -0.0033 -0.5697  0.5253
 5428TIP3    H116290   3.821   4.117   4.152 -0.0580 -2.3735  0.4701
 5428TIP3    H216291   3.744   4.042   4.045  0.8159 -0.7762 -1.3502
 5429TIP3   OH216292   3.689   1.953   1.053  0.2806  0.2780 -0.0170
 5429TIP3    H116293   3.744   1.899   0.996 -0.8624  0.2993 -1.2028
 5429TIP3    H216294   3.664   1.894   1.124  0.3421 -0.2799 -0.4481
 5430TIP3   OH216295   1.115   1.922   1.446 -0.2858 -0.1015  0.5034
 5430TIP3    H116296   1.122   1.877   1.363 -0.1745  0.3468  0.2645
 5430TIP3    H216297   1.062   1.864   1.501  1.4067 -1.4107  0.8269
 5431TIP3   OH216298   4.633   1.996   2.343  0.7492 -0.3618 -0.0386
 5431TIP3    H116299   4.686   1.980   2.421  0.5558  1.1535  0.4395
 5431TIP3    H216300   4.695   1.990   2.270  1.4930  0.8499  0.4655
 5432TIP3   OH216301   4.012   3.095   0.328 -0.3129 -0.1340  0.0460
 5432TIP3    H116302   3.961   3.058   0.400  0.3678  0.6763  0.9812
 5432TIP3    H216303   4.051   3.174   0.365 -0.5971  0.7544 -1.4584
 5433TIP3   OH216304   1.608   3.088   1.115 -0.0261 -0.0166 -0.5808
 5433TIP3    H116305   1.520   3.058   1.139  0.3365 -0.3695  0.3775
 5433TIP3    H216306   1.607   3.090   1.019 -1.5029  1.2997 -0.5898
 5434TIP3   OH216307   3.877   2.681   3.603  0.0163  0.6824  0.8903
 5434TIP3    H116308   3.834   2.682   3.517  0.1888  0.1733  0.7940
 5434TIP3    H216309   3.836   2.753   3.651  0.0167  1.0626  0.3338
 5435TIP3   OH216310   3.916   2.428   4.019 -0.1576  0.1016 -0.4717
 5435TIP3    H116311   3.897   2.343   4.059 -0.1170  0.4392  0.2784
 5435TIP3    H216312   3.833   2.453   3.977  0.4354 -1.3072 -2.6254
 5436TIP3   OH216313   1.061   2.726   1.121  0.5847  0.1129  0.0095
 5436TIP3    H116314   0.984   2.721   1.063  0.5364  2.0824 -0.1925
 5436TIP3    H216315   1.036   2.790   1.188  2.4736  1.8228 -0.8124
 5437TIP3   OH216316   4.632   3.037   0.626 -0.0705  0.2433  0.5721
 5437TIP3    H116317   4.693   2.973   0.591  2.5651  1.8307  1.9400
 5437TIP3    H216318   4.584   2.990   0.694 -0.7243 -1.1378 -0.7875
 5438TIP3   OH216319   3.532   2.713   4.574 -0.0556  0.2001  0.0195
 5438TIP3    H116320   3.606   2.759   4.534 -0.6676  1.2139  0.0176
 5438TIP3    H216321   3.518   2.637   4.517 -1.4366  2.0405 -2.2950
 5439TIP3   OH216322   0.907   0.493   2.012 -0.0457 -0.3236  0.1994
 5439TIP3    H116323   0.822   0.523   2.044  1.8761  2.1528  3.5572
 5439TIP3    H216324   0.938   0.563   1.954  0.5053 -0.2469  0.5733
 5440TIP3   OH216325   6.254   2.209   1.528 -0.1275 -0.4410  0.2084
 5440TIP3    H116326   6.201   2.287   1.545 -0.8293 -0.7090 -0.6342
 5440TIP3    H216327   6.344   2.239   1.528 -0.4772  0.8429 -2.3495
 5441TIP3   OH216328   3.673   4.724   5.067 -0.0207 -0.2060  0.4944
 5441TIP3    H116329   3.756   4.680   5.086  0.3918 -0.1149 -0.9452
 5441TIP3    H216330   3.609   4.653   5.064  0.2987 -0.4799  0.0491
 5442TIP3   OH216331   4.604   0.685   5.086  0.2156 -0.2162  0.0101
 5442TIP3    H116332   4.513   0.656   5.092 -0.2213  0.9901 -0.5039
 5442TIP3    H216333   4.628   0.708   5.175  0.0931 -0.7275  0.1801
 5443TIP3   OH216334   0.363   2.628   1.672  0.6599 -0.1975 -0.6283
 5443TIP3    H116335   0.309   2.689   1.623  1.6731  2.1083  0.9408
 5443TIP3    H216336   0.401   2.681   1.742  0.1172 -3.0268  2.0396
 5444TIP3   OH216337   4.957   1.631   3.778 -0.5467  0.2667  0.6675
 5444TIP3    H116338   4.996   1.712   3.745 -0.2320  0.4322  1.4305
 5444TIP3    H216339   5.003   1.562   3.730  1.0153  0.4377  1.8262
 5445TIP3   OH216340   2.021   3.703   0.889 -0.0281  0.2286 -0.9465
 5445TIP3    H116341   1.968   3.744   0.821  0.3300 -0.6842 -1.8029
 5445TIP3    H216342   2.040   3.616   0.855 -0.5165 -0.5449  0.6875
 5446TIP3   OH216343   4.080   0.443   5.071 -0.5064 -0.4235 -0.2350
 5446TIP3    H116344   4.140   0.412   5.004 -0.9688 -0.8923 -0.4315
 5446TIP3    H216345   4.021   0.503   5.026 -1.4206 -1.4685 -0.4598
 5447TIP3   OH216346   3.532   2.988   5.183  0.2034 -0.2257  0.1566
 5447TIP3    H116347   3.452   3.025   5.147 -0.9378 -1.5336  1.2072
 5447TIP3    H216348   3.524   2.894   5.168  1.0927 -0.4868  1.1411
 5448TIP3   OH216349   4.744   2.018   3.625  0.2662  0.1008 -0.6186
 5448TIP3    H116350   4.770   1.957   3.555  1.6804 -0.4643  0.3533
 5448TIP3    H216351   4.728   1.963   3.701  1.9287  0.9211  0.3823
 5449TIP3   OH216352   3.509   3.336   4.621  0.5526  0.2235  0.1686
 5449TIP3    H116353   3.555   3.270   4.673 -0.6741 -1.1426 -0.4339
 5449TIP3    H216354   3.417   3.327   4.647  0.2293  0.9810 -0.6925
 5450TIP3   OH216355   2.478   3.584   3.091  0.1573  0.0039  0.4838
 5450TIP3    H116356   2.548   3.561   3.152  0.9828 -1.3617 -0.8825
 5450TIP3    H216357   2.438   3.499   3.068  0.3465  0.3865 -1.3780
 5451TIP3   OH216358   2.700   4.693   1.946  0.5728 -0.3293  0.1902
 5451TIP3    H116359   2.649   4.755   1.894  0.5452 -0.9809 -0.5701
 5451TIP3    H216360   2.746   4.639   1.882  0.6644 -1.0495  0.8423
 5452TIP3   OH216361   4.828   5.737   0.696  1.2200 -0.3215  0.6701
 5452TIP3    H116362   4.911   5.700   0.726  2.4840  0.1995 -1.9470
 5452TIP3    H216363   4.763   5.671   0.720  2.7461 -1.9950  0.4458
 5453TIP3   OH216364   4.180   4.502   2.385 -0.3117  0.0273 -0.4382
 5453TIP3    H116365   4.172   4.443   2.310  2.0061  0.2991 -0.9780
 5453TIP3    H216366   4.135   4.583   2.357 -1.9870 -0.8191 -0.3467
 5454TIP3   OH216367   4.007   2.898   3.791  0.3588  0.3890 -0.2166
 5454TIP3    H116368   4.078   2.834   3.791  1.8996  2.0438 -0.9342
 5454TIP3    H216369   4.013   2.942   3.707 -1.5544  0.5776 -0.3070
 5455TIP3   OH216370   2.185   5.528   3.331  0.0507  0.5824  0.1593
 5455TIP3    H116371   2.261   5.564   3.377  0.5545  1.7197 -1.4705
 5455TIP3    H216372   2.177   5.582   3.253 -1.6663 -0.3502 -0.3520
 5456TIP3   OH216373   3.169   4.010   1.250  0.0758  0.0704 -0.2145
 5456TIP3    H116374   3.172   3.915   1.241  0.7526  0.0698  0.0050
 5456TIP3    H216375   3.244   4.032   1.304  0.6637  0.8540 -1.3023
 5457TIP3   OH216376   0.358   3.300   2.560  0.7649 -0.6673 -0.4555
 5457TIP3    H116377   0.274   3.321   2.598  0.7448 -1.3635 -0.0953
 5457TIP3    H216378   0.377   3.211   2.590  1.9851 -0.2431  0.1033
 5458TIP3   OH216379   1.263   4.734   3.851 -0.3092 -0.5406  0.0319
 5458TIP3    H116380   1.330   4.787   3.894  0.3608 -1.3960  0.0661
 5458TIP3    H216381   1.215   4.796   3.796  1.6321 -0.1854 -1.3515
 5459TIP3   OH216382   4.537   2.940   1.031 -0.2788  0.1440 -0.0008
 5459TIP3    H116383   4.513   2.905   0.945 -1.3305 -1.2283  0.8125
 5459TIP3    H216384   4.633   2.943   1.029 -0.2791 -0.0075 -1.1563
 5460TIP3   OH216385   0.243   1.249   1.708  0.1269 -0.4108  0.6463
 5460TIP3    H116386   0.151   1.255   1.686  0.5327 -0.8590 -1.3085
 5460TIP3    H216387   0.251   1.168   1.758 -0.5324 -0.3483  0.8554
 5461TIP3   OH216388   1.119   4.919   3.691  0.4979 -0.5146 -0.3826
 5461TIP3    H116389   1.065   4.990   3.726 -0.9525 -1.6690 -0.1944
 5461TIP3    H216390   1.140   4.947   3.602 -2.7857 -1.2105 -1.4963
 5462TIP3   OH216391   6.100   1.151   2.235  0.2387  0.6474 -0.6219
 5462TIP3    H116392   6.009   1.170   2.212 -0.6499  0.0431  2.1024
 5462TIP3    H216393   6.138   1.237   2.255  0.4768  0.9585 -2.2467
 5463TIP3   OH216394   5.388   5.917   0.720 -0.3339 -0.4429  0.0804
 5463TIP3    H116395   5.312   5.859   0.712 -1.0882  0.3038  1.4478
 5463TIP3    H216396   5.379   5.978   0.647 -0.3116 -1.1569 -0.5322
 5464TIP3   OH216397   2.052   5.004   0.458  0.2507 -0.0212 -0.0335
 5464TIP3    H116398   2.076   5.002   0.551 -0.9388  1.0633  0.3116
 5464TIP3    H216399   1.997   4.927   0.446 -1.6811  1.1495  0.7931
 5465TIP3   OH216400   3.260   2.597   2.616 -0.1750 -0.5791  0.0088
 5465TIP3    H116401   3.301   2.662   2.559 -1.5155  0.2278 -0.0796
 5465TIP3    H216402   3.296   2.513   2.586  0.4563 -0.0129 -0.8643
 5466TIP3   OH216403   5.225   2.847   0.714 -0.1681 -0.3881 -0.0700
 5466TIP3    H116404   5.223   2.775   0.651  0.8624 -0.7058  0.2399
 5466TIP3    H216405   5.208   2.926   0.661 -1.7416 -0.8856 -0.3389
 5467TIP3   OH216406   5.184   5.166   3.458  0.1271 -0.3783 -0.4655
 5467TIP3    H116407   5.161   5.251   3.495  2.4842  0.4480 -0.7425
 5467TIP3    H216408   5.229   5.120   3.529  1.2913 -0.2810 -1.1180
 5468TIP3   OH216409   5.178   2.747   3.236  0.0354 -0.5275  0.0819
 5468TIP3    H116410   5.157   2.777   3.324 -1.2464 -2.3963  0.4559
 5468TIP3    H216411   5.115   2.791   3.179  0.1469 -0.1818  0.2240
 5469TIP3   OH216412   6.287   2.223   3.877 -0.2440  0.0169  0.2020
 5469TIP3    H116413   6.252   2.235   3.965  0.9499 -0.7504  0.8152
 5469TIP3    H216414   6.363   2.166   3.890 -0.2682 -0.3991 -1.3759
 5470TIP3   OH216415   6.036   3.236   0.291  0.5128 -0.1465  0.4251
 5470TIP3    H116416   6.085   3.208   0.367 -0.6806  3.0062  2.5730
 5470TIP3    H216417   6.098   3.288   0.239  1.1772 -1.8490 -0.5542
 5471TIP3   OH216418   2.631   1.562   1.742  0.3693  0.0700  0.1491
 5471TIP3    H116419   2.677   1.480   1.724 -2.1475 -1.9217  1.9736
 5471TIP3    H216420   2.647   1.578   1.835  1.8925  2.4565 -0.4547
 5472TIP3   OH216421   2.073   5.478   1.411 -0.6153 -0.1595  0.4930
 5472TIP3    H116422   2.163   5.510   1.408 -0.5870 -0.2948 -0.0621
 5472TIP3    H216423   2.034   5.505   1.328 -0.8910 -0.6792  0.4479
 5473TIP3   OH216424   1.464   4.269   3.274  0.1644  0.7083 -0.3258
 5473TIP3    H116425   1.499   4.304   3.192 -0.0592 -0.1972 -0.8215
 5473TIP3    H216426   1.539   4.225   3.315  0.0553  0.3421 -0.5109
 5474TIP3   OH216427   5.641   0.418   1.427 -0.1659  0.0874  0.1691
 5474TIP3    H116428   5.580   0.347   1.444 -0.7448 -0.1780 -2.5845
 5474TIP3    H216429   5.668   0.406   1.336  2.4692  1.3670  0.6728
 5475TIP3   OH216430   0.298   2.950   1.110 -0.1007 -0.2104  0.1984
 5475TIP3    H116431   0.299   2.979   1.019  0.8991 -0.7492  0.0258
 5475TIP3    H216432   0.222   2.892   1.115  0.1258 -0.5756 -0.4250
 5476TIP3   OH216433   1.098   2.794   3.454 -0.0669 -0.5188 -0.3495
 5476TIP3    H116434   1.181   2.834   3.479  0.1565  2.3533 -4.5783
 5476TIP3    H216435   1.032   2.858   3.479 -0.6578 -1.2189 -0.0855
 5477TIP3   OH216436   2.429   5.544   3.473 -0.3459  0.0667  0.2085
 5477TIP3    H116437   2.494   5.531   3.542 -0.7671 -2.2307  0.2774
 5477TIP3    H216438   2.459   5.621   3.425  1.2778  0.2826  1.4787
 5478TIP3   OH216439   0.271   0.040   0.024  0.4342 -0.2841 -0.0047
 5478TIP3    H116440   0.353   0.077   0.056  1.3303  0.6758 -3.0295
 5478TIP3    H216441   0.242   0.102  -0.043 -1.9134 -1.4347 -0.1304
 5479TIP3   OH216442   0.744   4.586   0.730 -0.1343  0.5907 -0.0732
 5479TIP3    H116443   0.735   4.587   0.826 -0.2129 -0.6874 -0.0524
 5479TIP3    H216444   0.719   4.675   0.703 -2.9165  0.2005  0.8704
 5480TIP3   OH216445   5.839   5.282   1.702 -0.1817 -0.1306 -0.2253
 5480TIP3    H116446   5.800   5.327   1.777  1.3175 -1.9216  1.7728
 5480TIP3    H216447   5.806   5.192   1.709  1.3228 -0.7447 -0.6766
 5481TIP3   OH216448   6.096   4.556   3.146 -0.4124  0.3596 -0.3339
 5481TIP3    H116449   6.019   4.503   3.163 -1.6114  2.4861  1.4419
 5481TIP3    H216450   6.164   4.520   3.204 -0.6909 -0.2153 -0.3587
 5482TIP3   OH216451   2.545   1.666   4.633  0.1659  0.1905 -0.4960
 5482TIP3    H116452   2.621   1.691   4.686  0.5520  1.5838 -1.6256
 5482TIP3    H216453   2.572   1.683   4.543 -1.0241 -0.5926 -1.0304
 5483TIP3   OH216454   0.995   4.249   0.202 -0.3152 -0.9469 -0.1226
 5483TIP3    H116455   0.901   4.267   0.205  0.2690  2.5287  0.5630
 5483TIP3    H216456   1.022   4.279   0.116  0.9064  3.4427  1.5129
 5484TIP3   OH216457   5.142   0.634   3.832  0.3884 -0.0303 -0.2656
 5484TIP3    H116458   5.156   0.728   3.817 -0.1255  0.2640  1.0027
 5484TIP3    H216459   5.229   0.596   3.826  0.7739  0.7148  0.4471
 5485TIP3   OH216460   2.024   0.505   4.025  0.7435 -0.7951 -0.9747
 5485TIP3    H116461   2.007   0.580   3.968 -0.3553 -1.1077 -1.0935
 5485TIP3    H216462   2.078   0.540   4.096 -0.5258  0.3610 -0.5249
 5486TIP3   OH216463   2.472   1.597   1.242  0.0636 -0.4563 -0.2997
 5486TIP3    H116464   2.522   1.669   1.281 -0.0131 -2.5514  4.3838
 5486TIP3    H216465   2.532   1.523   1.243 -1.5295 -1.7946  0.5395
 5487TIP3   OH216466   5.296   4.514   0.504  0.4641  0.1976 -0.2539
 5487TIP3    H116467   5.204   4.539   0.512  0.4017 -0.3329  0.8311
 5487TIP3    H216468   5.344   4.588   0.541  0.3297 -0.6545  1.7767
 5488TIP3   OH216469   0.038   3.793   0.936  0.2570  0.0065  0.0278
 5488TIP3    H116470  -0.007   3.867   0.894  0.0103 -0.1398  0.0347
 5488TIP3    H216471   0.053   3.823   1.026 -1.5657 -0.6693  0.5991
 5489TIP3   OH216472   2.573   4.315   0.015 -0.1850  0.4864 -0.6304
 5489TIP3    H116473   2.623   4.382   0.062  1.6732 -1.4240  0.2677
 5489TIP3    H216474   2.495   4.301   0.069 -2.2985  4.0042 -2.4120
 5490TIP3   OH216475   0.025   4.297   3.591  0.3351 -0.4176  0.1979
 5490TIP3    H116476  -0.029   4.340   3.658 -0.2972 -0.7968 -0.0534
 5490TIP3    H216477   0.115   4.312   3.619  0.0987  0.1450  0.6862
 5491TIP3   OH216478   1.171   5.435   5.018 -0.2930 -0.0460  0.2661
 5491TIP3    H116479   1.136   5.368   4.958 -3.4931  0.8266  0.9302
 5491TIP3    H216480   1.118   5.513   4.999 -0.6151  0.6128  3.3453
 5492TIP3   OH216481   2.203   3.150   0.849 -0.5552 -0.3883  0.1018
 5492TIP3    H116482   2.168   3.077   0.798 -0.8164  0.0336 -0.3316
 5492TIP3    H216483   2.288   3.169   0.810 -0.6704 -0.1912 -0.0544
 5493TIP3   OH216484   4.878   3.757   3.449 -0.0394 -0.0306  0.4018
 5493TIP3    H116485   4.934   3.685   3.479 -0.2345 -0.7874 -0.9913
 5493TIP3    H216486   4.805   3.758   3.511  0.2786 -0.6313  0.7932
 5494TIP3   OH216487   4.570   5.831   0.344 -0.1743 -0.4097 -0.5006
 5494TIP3    H116488   4.584   5.741   0.314 -0.3474 -0.7097  0.2990
 5494TIP3    H216489   4.563   5.824   0.439  2.4210  0.7706 -0.1454
 5495TIP3   OH216490   0.146   2.241   3.538  0.3924 -0.0454  0.2487
 5495TIP3    H116491   0.075   2.300   3.565 -0.0076 -0.5326  0.2692
 5495TIP3    H216492   0.130   2.160   3.586 -1.7215 -1.8212 -3.0685
 5496TIP3   OH216493   5.324   3.470   4.840 -0.1195 -0.1083  0.3929
 5496TIP3    H116494   5.301   3.538   4.903  1.3033  0.4672  0.3266
 5496TIP3    H216495   5.393   3.419   4.884 -1.6452 -2.0060  0.7428
 5497TIP3   OH216496   3.405   2.992   0.460  0.5508  0.3337  0.4163
 5497TIP3    H116497   3.389   3.071   0.410  0.6498  1.6368  2.3491
 5497TIP3    H216498   3.394   3.018   0.552 -2.1444 -2.4707  1.0908
 5498TIP3   OH216499   1.476   0.949   2.293 -0.4418 -0.3847  0.3301
 5498TIP3    H116500   1.565   0.977   2.276 -0.8029  1.3985  1.1581
 5498TIP3    H216501   1.483   0.855   2.311  1.2310 -0.2913  0.3083
 5499TIP3   OH216502   3.321   4.090   2.740 -0.1480  0.0061 -0.1189
 5499TIP3    H116503   3.316   4.180   2.708 -1.5960 -0.2758 -0.7998
 5499TIP3    H216504   3.316   4.036   2.660 -2.2473 -0.6895  0.4162
 5500TIP3   OH216505   0.110   5.239   4.098 -0.7296  0.7282 -0.8782
 5500TIP3    H116506   0.019   5.212   4.086 -0.8535  0.2822  0.7755
 5500TIP3    H216507   0.105   5.318   4.152 -0.1454  0.6074 -0.6332
 5501TIP3   OH216508   2.565   1.689   5.034 -0.2999 -0.3617 -0.7360
 5501TIP3    H116509   2.650   1.734   5.034 -0.5858  0.2910 -2.4836
 5501TIP3    H216510   2.577   1.614   5.091  1.8544 -0.9777 -1.8835
 5502TIP3   OH216511   0.242   4.827   3.078 -0.3892 -0.3878 -0.0813
 5502TIP3    H116512   0.167   4.824   3.019 -1.5488 -0.8749  1.3441
 5502TIP3    H216513   0.296   4.752   3.052 -1.5686 -1.4199  0.2925
 5503TIP3   OH216514   0.883   1.883   0.848  0.5133 -0.1083 -0.0605
 5503TIP3    H116515   0.870   1.813   0.912 -0.8971 -0.1517 -0.3467
 5503TIP3    H216516   0.811   1.944   0.865  1.1564  0.7757 -0.4535
 5504TIP3   OH216517   4.440   5.535   0.486 -0.2769 -0.1787 -0.5155
 5504TIP3    H116518   4.402   5.462   0.536  1.8245 -0.2117  1.2014
 5504TIP3    H216519   4.461   5.600   0.553 -0.4378  1.2434 -1.8158
 5505TIP3   OH216520   4.251   1.981   1.070 -0.1181  0.6521 -0.6590
 5505TIP3    H116521   4.342   1.978   1.039 -0.4219  0.6392 -1.5760
 5505TIP3    H216522   4.248   1.915   1.140  0.7709  1.2131 -0.0670
 5506TIP3   OH216523   0.278   4.118   2.328 -0.3934 -0.5395  0.0079
 5506TIP3    H116524   0.373   4.107   2.321 -0.1739  0.9122  0.2461
 5506TIP3    H216525   0.246   4.099   2.240  0.2418 -0.1234 -0.3240
 5507TIP3   OH216526   5.419   0.609   5.004 -0.0366  0.1855  0.0078
 5507TIP3    H116527   5.491   0.547   5.002 -0.3422 -0.1509 -1.3457
 5507TIP3    H216528   5.375   0.598   4.920 -1.8145  0.2078  0.8839
 5508TIP3   OH216529   2.682   4.248   4.755  0.3036  0.1392  0.0644
 5508TIP3    H116530   2.730   4.203   4.824  0.6308 -1.3464 -1.0815
 5508TIP3    H216531   2.656   4.179   4.695 -2.7532  0.9652  0.2859
 5509TIP3   OH216532   4.558   3.309   1.616  0.1993  0.3189 -0.4865
 5509TIP3    H116533   4.587   3.369   1.684 -1.1121  1.1482 -0.6240
 5509TIP3    H216534   4.586   3.350   1.534 -1.2724  1.1029 -0.6167
 5510TIP3   OH216535   3.778   1.226   2.474  0.2304  0.8037  0.1191
 5510TIP3    H116536   3.686   1.225   2.502 -0.5701  1.2719 -2.2626
 5510TIP3    H216537   3.782   1.294   2.406  2.8033  2.1531  1.4828
 5511TIP3   OH216538   0.145   3.636   4.306  0.0297 -0.5488 -0.2167
 5511TIP3    H116539   0.086   3.647   4.231 -0.5721  1.6325  0.4996
 5511TIP3    H216540   0.232   3.638   4.268 -0.2829 -3.0445 -1.2089
 5512TIP3   OH216541   6.127   2.150   0.440 -0.2008 -0.2554 -0.3193
 5512TIP3    H116542   6.186   2.079   0.465  0.7662  0.4915 -0.3814
 5512TIP3    H216543   6.163   2.227   0.485  0.0863  0.6193 -1.9633
 5513TIP3   OH216544   6.227   5.747   1.570 -0.1157  0.3337 -0.4493
 5513TIP3    H116545   6.234   5.679   1.637  0.5441  1.1274  0.3245
 5513TIP3    H216546   6.133   5.769   1.568 -0.3381 -0.5961 -0.7302
 5514TIP3   OH216547   4.032   2.592   2.965 -0.1296  1.1073  0.5053
 5514TIP3    H116548   4.058   2.501   2.951  0.9381  1.5600 -0.6099
 5514TIP3    H216549   4.046   2.607   3.058 -0.6632  0.0393  0.7808
 5515TIP3   OH216550   5.434   0.245   1.257  0.1350  0.2927  0.9396
 5515TIP3    H116551   5.367   0.313   1.261 -0.6225 -0.4932  1.9806
 5515TIP3    H216552   5.457   0.227   1.348 -1.2380 -2.3235  0.8604
 5516TIP3   OH216553   5.618   3.500   4.646 -0.1923  0.4604  0.0954
 5516TIP3    H116554   5.654   3.435   4.586 -1.5465 -0.2196  0.0002
 5516TIP3    H216555   5.625   3.459   4.732 -1.6031 -0.0857 -0.0335
 5517TIP3   OH216556   5.932   2.805   1.664 -0.4726 -0.1651 -0.3111
 5517TIP3    H116557   5.923   2.710   1.654 -0.4676 -0.3196  0.9588
 5517TIP3    H216558   6.024   2.818   1.687 -0.9114 -0.0924  1.5892
 5518TIP3   OH216559   3.974   5.932   3.720  0.4079 -0.2191  0.5364
 5518TIP3    H116560   4.006   6.016   3.688 -0.5686  0.0674  0.2712
 5518TIP3    H216561   4.005   5.868   3.657 -1.4636  0.3289 -1.0565
 5519TIP3   OH216562   2.573   2.855   0.581 -0.2632 -0.4834 -0.3556
 5519TIP3    H116563   2.594   2.946   0.602 -1.3222  0.1396 -1.8452
 5519TIP3    H216564   2.478   2.853   0.573 -0.2695 -1.7832 -0.1193
 5520TIP3   OH216565   3.353   0.086   3.070 -0.0619  0.7131  0.0804
 5520TIP3    H116566   3.433   0.039   3.046  0.4437  0.5218  1.9788
 5520TIP3    H216567   3.296   0.019   3.106  0.1127  1.3025  1.5084
 5521TIP3   OH216568   0.313   5.073   2.939 -0.1892 -0.2264  0.4910
 5521TIP3    H116569   0.402   5.100   2.959 -0.4117  0.6106  0.3580
 5521TIP3    H216570   0.297   4.998   2.998  0.2747  0.2005  1.1698
 5522TIP3   OH216571   0.176   5.645   1.215  0.0279  0.5646 -0.1752
 5522TIP3    H116572   0.189   5.557   1.179  3.0765  0.4888  0.8716
 5522TIP3    H216573   0.214   5.641   1.302  0.6832  3.0542 -0.2878
 5523TIP3   OH216574   2.163   4.293   0.851 -0.7493  0.3510 -0.4833
 5523TIP3    H116575   2.149   4.372   0.903  0.6555  0.4065 -0.1515
 5523TIP3    H216576   2.113   4.225   0.896  0.6520  0.3344  1.1305
 5524TIP3   OH216577   4.099   0.142   0.665  0.3699 -0.4146  0.1636
 5524TIP3    H116578   4.023   0.144   0.607 -0.3818  1.6317  1.1106
 5524TIP3    H216579   4.081   0.071   0.726  0.3344 -1.4308 -1.0081
 5525TIP3   OH216580   3.142   1.210   2.599  0.1380  0.0558  0.5333
 5525TIP3    H116581   3.159   1.227   2.692  5.0447  1.0919 -0.2852
 5525TIP3    H216582   3.137   1.297   2.559 -1.7598 -0.3795 -0.2787
 5526TIP3   OH216583   5.214   0.674   3.531 -0.1079  0.1887 -0.1617
 5526TIP3    H116584   5.308   0.683   3.515 -0.2492  0.0353 -1.0869
 5526TIP3    H216585   5.200   0.580   3.540  0.0467  0.2817  1.4518
 5527TIP3   OH216586   2.881   2.006   3.776 -0.8078 -0.0398 -0.3579
 5527TIP3    H116587   2.925   2.003   3.861  0.0313 -0.9557 -0.8152
 5527TIP3    H216588   2.888   2.098   3.749  2.2538 -0.3931 -1.1333
 5528TIP3   OH216589   5.225   5.888   3.540 -0.3089 -0.4095 -0.3984
 5528TIP3    H116590   5.165   5.817   3.516  0.4210 -0.9469 -0.6748
 5528TIP3    H216591   5.308   5.863   3.499 -0.3936  1.3255 -1.7347
 5529TIP3   OH216592   0.310   0.285   2.473  0.1001 -0.2667 -0.2215
 5529TIP3    H116593   0.250   0.244   2.410 -0.5848  0.7156 -0.2382
 5529TIP3    H216594   0.266   0.275   2.557 -0.1816  0.6040 -0.2557
 5530TIP3   OH216595   4.969   4.442   4.596 -0.2754  0.1652  0.2992
 5530TIP3    H116596   4.938   4.526   4.629 -0.8268  0.7480 -1.5892
 5530TIP3    H216597   5.049   4.463   4.547 -0.5262 -0.3690 -0.3618
 5531TIP3   OH216598   5.992   3.582   1.323  0.2014  0.0354  0.2022
 5531TIP3    H116599   6.025   3.494   1.340  2.7732  0.4304 -2.0131
 5531TIP3    H216600   5.897   3.572   1.321  0.3728 -2.4147  1.1843
 5532TIP3   OH216601   2.595   1.600   2.210  0.3168  0.4508  0.0580
 5532TIP3    H116602   2.688   1.612   2.231  1.0094  0.4177 -2.6048
 5532TIP3    H216603   2.593   1.519   2.158 -1.0693  0.9099 -0.6402
 5533TIP3   OH216604   0.705   3.789   3.676 -0.4765  0.2622  0.4078
 5533TIP3    H116605   0.684   3.696   3.671  1.8325 -0.3569  0.8191
 5533TIP3    H216606   0.636   3.832   3.626 -1.0804 -1.7568 -0.6078
 5534TIP3   OH216607   0.627   4.015   0.977 -0.2243  0.1131  0.5711
 5534TIP3    H116608   0.697   3.953   0.998  0.5393  0.6493 -0.2950
 5534TIP3    H216609   0.652   4.096   1.022  1.0324  1.0416 -1.6296
 5535TIP3   OH216610   3.478   3.118   1.553 -0.1334 -0.7047  0.8116
 5535TIP3    H116611   3.487   3.058   1.480 -1.9200  1.0117 -0.9216
 5535TIP3    H216612   3.384   3.131   1.563  0.1593  1.1516  1.6460
 5536TIP3   OH216613   1.969   2.026   4.694  0.6871  0.8225 -0.1730
 5536TIP3    H116614   2.032   2.028   4.622  0.8013  1.3647 -0.0581
 5536TIP3    H216615   1.991   2.102   4.748 -0.5701  1.4716 -0.5495
 5537TIP3   OH216616   2.352   1.031   3.097  0.0133 -0.0936 -0.4935
 5537TIP3    H116617   2.393   1.115   3.115 -1.1835  0.2385  0.9611
 5537TIP3    H216618   2.416   0.966   3.126 -0.8387  0.4107  3.0891
 5538TIP3   OH216619   6.269   4.490   1.479  0.1804 -0.2758 -0.1521
 5538TIP3    H116620   6.283   4.410   1.529  0.4599  0.4798  1.0214
 5538TIP3    H216621   6.235   4.552   1.544 -1.0319  0.2545 -1.2586
 5539TIP3   OH216622   5.321   1.516   3.119 -0.5865  0.2745 -0.0859
 5539TIP3    H116623   5.348   1.607   3.128  0.9837 -0.1225 -0.4693
 5539TIP3    H216624   5.226   1.518   3.128 -0.4702  1.7844  1.1764
 5540TIP3   OH216625   0.616   0.948   5.081  0.6179  0.0878  0.0988
 5540TIP3    H116626   0.529   0.952   5.041  0.2388 -3.0023  0.3032
 5540TIP3    H216627   0.666   0.890   5.023  1.1755 -1.5663  2.0997
 5541TIP3   OH216628   6.050   4.575   0.864 -0.3295 -0.7889  0.0499
 5541TIP3    H116629   6.058   4.499   0.922 -1.5789  0.2167  1.5961
 5541TIP3    H216630   6.111   4.639   0.900 -2.6967  0.6604  1.6762
 5542TIP3   OH216631   5.138   5.596   5.142 -0.4299 -0.2757  0.0247
 5542TIP3    H116632   5.173   5.537   5.208  1.6381 -1.1084 -1.6749
 5542TIP3    H216633   5.178   5.681   5.162 -0.5566 -0.3005  0.3861
 5543TIP3   OH216634   1.065   0.299   2.717 -0.0892 -0.1676 -0.6799
 5543TIP3    H116635   1.151   0.260   2.699 -0.0161  0.1004 -0.9068
 5543TIP3    H216636   1.003   0.227   2.701  0.2445 -1.1198  1.8635
 5544TIP3   OH216637   2.981   2.974   4.771 -0.2101 -0.6066 -0.4035
 5544TIP3    H116638   2.918   2.904   4.786  1.8563 -2.6691 -0.8141
 5544TIP3    H216639   2.963   3.037   4.841 -1.3181 -2.1457  0.7759
 5545TIP3   OH216640   0.173   2.996   2.796 -0.5480  0.3397  0.4745
 5545TIP3    H116641   0.129   3.008   2.712  2.9973 -2.1956 -2.0402
 5545TIP3    H216642   0.230   3.073   2.804  0.0613 -0.0436 -0.1315
 5546TIP3   OH216643   0.471   4.017   1.931  0.4860  0.3133 -0.6099
 5546TIP3    H116644   0.492   3.950   1.996  0.8297 -0.7565 -1.7889
 5546TIP3    H216645   0.489   4.100   1.975  0.1640 -0.3559  0.8437
 5547TIP3   OH216646   3.261   5.606   2.680 -0.2555  0.6323  0.1425
 5547TIP3    H116647   3.302   5.660   2.612  2.7726 -1.7758 -0.1773
 5547TIP3    H216648   3.296   5.641   2.762 -1.4713  1.5830  0.2874
 5548TIP3   OH216649   1.677   2.073   3.341  0.4410  0.2986  0.6193
 5548TIP3    H116650   1.747   2.107   3.285 -0.1316 -0.3182 -0.5110
 5548TIP3    H216651   1.631   2.151   3.372  0.5984  0.6552 -0.0106
 5549TIP3   OH216652   2.285   2.811   3.782  0.2713 -0.2419  0.2142
 5549TIP3    H116653   2.322   2.899   3.789 -2.9639  1.1443  2.0202
 5549TIP3    H216654   2.267   2.786   3.872 -1.2869 -1.6024 -0.4298
 5550TIP3   OH216655   5.383   1.978   1.667 -0.3724 -0.3740 -0.0900
 5550TIP3    H116656   5.309   2.013   1.717 -0.2226 -1.3268  0.8302
 5550TIP3    H216657   5.378   2.023   1.582 -1.1848  0.5827  0.4421
 5551TIP3   OH216658   3.720   2.024   2.687 -0.0826 -0.3632  0.6059
 5551TIP3    H116659   3.690   2.087   2.754  1.1607  0.8528  0.0636
 5551TIP3    H216660   3.790   2.070   2.640 -1.4902 -0.8114 -2.1506
 5552TIP3   OH216661   5.802   4.683   0.771 -0.4156 -0.0629 -0.6089
 5552TIP3    H116662   5.854   4.625   0.826 -0.2259  1.0270  0.3858
 5552TIP3    H216663   5.866   4.741   0.730 -0.6892  0.1430 -0.7509
 5553TIP3   OH216664   4.651   4.739   0.459  0.7923 -0.3592  0.0043
 5553TIP3    H116665   4.660   4.667   0.521 -0.3709  2.3602  3.7230
 5553TIP3    H216666   4.740   4.776   0.452  0.7783 -0.1562  0.8147
 5554TIP3   OH216667   5.472   1.827   1.266 -0.4899  0.1636 -0.0810
 5554TIP3    H116668   5.535   1.758   1.289 -1.3790 -1.6427 -2.5351
 5554TIP3    H216669   5.525   1.891   1.217 -0.4498 -1.4791 -2.3744
 5555TIP3   OH216670   3.486   4.527   5.043 -0.9200  0.2368  0.0897
 5555TIP3    H116671   3.515   4.448   5.088 -0.0339  1.9784  2.8337
 5555TIP3    H216672   3.427   4.570   5.105 -2.1368  1.3226 -1.7016
 5556TIP3   OH216673   2.490   5.668   1.786 -0.1742 -0.4081 -0.7467
 5556TIP3    H116674   2.529   5.663   1.873 -1.4946 -0.0232 -0.1158
 5556TIP3    H216675   2.451   5.755   1.782 -0.3303 -0.5062 -1.6472
 5557TIP3   OH216676   5.755   3.048   3.252  0.3614 -0.5304  0.1304
 5557TIP3    H116677   5.728   3.120   3.308  0.5117 -0.7926  0.5446
 5557TIP3    H216678   5.850   3.041   3.267  0.8546  0.9347 -1.9302
 5558TIP3   OH216679   1.079   3.451   3.157  0.4150 -0.3557  0.0238
 5558TIP3    H116680   1.163   3.426   3.119  0.9519 -0.3150  1.1457
 5558TIP3    H216681   1.083   3.546   3.167  0.5490 -0.4408  0.8004
 5559TIP3   OH216682   3.033   1.275   3.317 -0.1876  0.3912  0.1646
 5559TIP3    H116683   2.938   1.286   3.322 -0.1825  0.5187  0.0037
 5559TIP3    H216684   3.069   1.356   3.354 -0.1549  1.4074 -1.9151
 5560TIP3   OH216685   3.817   1.527   0.517  0.1668 -0.7655  0.2119
 5560TIP3    H116686   3.819   1.509   0.423 -0.5056 -0.0444  0.0398
 5560TIP3    H216687   3.904   1.503   0.549  0.8016  0.0757 -0.8144
 5561TIP3   OH216688   4.102   3.465   2.548  0.0141 -0.0856 -0.2053
 5561TIP3    H116689   4.085   3.372   2.559 -1.4235 -0.0630 -1.9249
 5561TIP3    H216690   4.182   3.469   2.496  1.3217 -0.2675  1.6599
 5562TIP3   OH216691   0.011   3.329   2.296  0.3209  0.0447 -0.0394
 5562TIP3    H116692  -0.041   3.385   2.238 -1.2298 -1.4296 -0.1502
 5562TIP3    H216693   0.086   3.302   2.242 -0.2135  0.0356 -0.7910
 5563TIP3   OH216694   2.452   5.715   4.163  0.5032 -0.1691 -0.2568
 5563TIP3    H116695   2.426   5.657   4.091 -1.8485 -0.2816  0.6190
 5563TIP3    H216696   2.377   5.715   4.223  2.7805 -0.9851  2.8288
 5564TIP3   OH216697   1.414   3.892   1.649  0.3459  0.0630 -0.6696
 5564TIP3    H116698   1.439   3.975   1.689  0.5532 -0.0417 -0.5812
 5564TIP3    H216699   1.477   3.828   1.683 -1.4782 -0.7227  1.4800
 5565TIP3   OH216700   1.617   2.866   2.407 -0.5579 -0.1809  0.0416
 5565TIP3    H116701   1.587   2.914   2.330 -1.3329 -0.4193  0.1794
 5565TIP3    H216702   1.712   2.873   2.405 -0.6657  1.7382  0.3211
 5566TIP3   OH216703   1.830   4.318   2.890  0.4250  0.2273  0.0932
 5566TIP3    H116704   1.910   4.325   2.836  0.2351 -2.6001 -0.7388
 5566TIP3    H216705   1.858   4.271   2.968 -0.3374 -0.4420 -0.0250
 5567TIP3   OH216706   2.884   3.080   1.203 -0.5897 -0.0084 -0.1376
 5567TIP3    H116707   2.822   3.112   1.269  0.1200 -1.5002  1.3585
 5567TIP3    H216708   2.967   3.121   1.226 -0.7578  1.1095 -1.4403
 5568TIP3   OH216709   1.207   5.907   4.155  0.2055 -0.5374  0.2063
 5568TIP3    H116710   1.135   5.855   4.120 -0.1351  0.2551 -0.2840
 5568TIP3    H216711   1.279   5.845   4.163  0.1066 -0.8805 -1.3036
 5569TIP3   OH216712   0.671   2.991   1.983 -0.2552  0.1467  0.0366
 5569TIP3    H116713   0.639   3.070   1.940  2.0768  0.1671 -1.9049
 5569TIP3    H216714   0.753   2.971   1.938  1.3828 -1.0341  3.2094
 5570TIP3   OH216715   3.051   1.545   1.050  0.1343 -0.1736 -0.5514
 5570TIP3    H116716   3.118   1.614   1.042 -0.6359  0.6018 -0.5049
 5570TIP3    H216717   3.099   1.469   1.083  0.8151  0.6661  0.4879
 5571TIP3   OH216718   1.639   3.959   0.702 -0.1632 -0.0931 -0.4907
 5571TIP3    H116719   1.567   3.901   0.679 -0.2082  0.1333 -0.9306
 5571TIP3    H216720   1.657   4.008   0.622  1.1758 -0.8833 -0.6973
 5572TIP3   OH216721   1.414   4.533   3.638 -0.6890 -0.4902 -0.2962
 5572TIP3    H116722   1.342   4.589   3.668 -0.1273 -0.3351  0.8020
 5572TIP3    H216723   1.406   4.454   3.690  1.3598  0.4765  1.6472
 5573TIP3   OH216724   5.893   5.286   4.327  0.2901 -0.0042 -0.4650
 5573TIP3    H116725   5.914   5.334   4.407  0.4185  0.1748 -0.6045
 5573TIP3    H216726   5.851   5.206   4.358 -1.1152  0.7825 -0.2705
 5574TIP3   OH216727   5.680   0.186   4.314  0.3601 -0.3417  0.1074
 5574TIP3    H116728   5.736   0.226   4.381 -1.7863  2.0081  0.6325
 5574TIP3    H216729   5.712   0.223   4.231  1.1377 -0.9703  0.1126
 5575TIP3   OH216730   3.620   2.997   3.340 -0.2336 -0.3818 -0.0549
 5575TIP3    H116731   3.543   2.981   3.285 -0.0710 -0.9087 -0.1289
 5575TIP3    H216732   3.596   2.962   3.426  0.5805 -2.1842 -0.5325
 5576TIP3   OH216733   2.161   0.380   4.392  0.4016  0.1592 -0.4908
 5576TIP3    H116734   2.089   0.332   4.430  0.3737 -1.5039 -2.4738
 5576TIP3    H216735   2.146   0.471   4.419 -0.5780 -0.6045  1.7971
 5577TIP3   OH216736  -0.012   1.300   4.377  0.0439  0.4949 -0.6864
 5577TIP3    H116737  -0.017   1.252   4.459 -0.1102  1.2056 -0.2676
 5577TIP3    H216738   0.078   1.287   4.347  2.0447  4.6151  2.3922
 5578TIP3   OH216739   4.888   1.280   3.255  0.0041  0.7620 -0.7733
 5578TIP3    H116740   4.952   1.209   3.259 -0.0205  0.6559 -1.8742
 5578TIP3    H216741   4.813   1.248   3.305 -0.3707 -0.3899 -2.0282
 5579TIP3   OH216742   4.216   3.429   4.194  0.0206  0.5364 -0.5195
 5579TIP3    H116743   4.221   3.348   4.244 -0.3990  0.5947 -0.3771
 5579TIP3    H216744   4.148   3.412   4.129  0.4191  0.5319 -0.9369
 5580TIP3   OH216745   1.129   2.938   2.143  0.3508  0.2963  0.1996
 5580TIP3    H116746   1.170   2.885   2.075 -1.3806 -1.0113  0.1103
 5580TIP3    H216747   1.081   2.876   2.197 -0.0311  1.5535  1.3738
 5581TIP3   OH216748   5.424   4.378   2.449 -1.1345 -0.6340  0.4519
 5581TIP3    H116749   5.441   4.324   2.527 -2.1865 -0.8216  0.5714
 5581TIP3    H216750   5.404   4.465   2.483  0.6150 -0.1234  0.2549
 5582TIP3   OH216751   4.887   3.946   4.137  0.0535  0.1251 -0.2362
 5582TIP3    H116752   4.874   3.851   4.135  2.8042 -0.3488  0.0260
 5582TIP3    H216753   4.859   3.972   4.224 -1.9347 -0.1782 -0.7367
 5583TIP3   OH216754   2.352   1.499   0.745 -0.0912  0.3802 -0.6454
 5583TIP3    H116755   2.374   1.591   0.760  0.5104  0.2884 -0.9677
 5583TIP3    H216756   2.420   1.450   0.792  0.3476  0.0981 -1.5640
 5584TIP3   OH216757   4.589   5.503   2.493 -0.4448  0.5457 -0.3526
 5584TIP3    H116758   4.603   5.597   2.505  0.5067  0.7721 -2.7339
 5584TIP3    H216759   4.673   5.463   2.516 -0.5673  0.3647 -0.2179
 5585TIP3   OH216760   1.057   3.759   4.431  0.0775  0.5896 -0.2730
 5585TIP3    H116761   1.038   3.682   4.484 -0.8526  0.4233 -0.8186
 5585TIP3    H216762   0.980   3.814   4.441 -1.9860 -1.0942 -4.3390
 5586TIP3   OH216763   6.137   2.776   2.137  0.4624 -0.1713 -0.3718
 5586TIP3    H116764   6.209   2.766   2.075  1.0878 -0.4882  0.3862
 5586TIP3    H216765   6.068   2.719   2.102  0.5301  0.2227 -1.1647
 5587TIP3   OH216766   1.308   0.097   3.344 -0.1373 -0.3617 -0.3701
 5587TIP3    H116767   1.265   0.166   3.394 -0.5796 -3.1931  3.6110
 5587TIP3    H216768   1.390   0.080   3.391  0.3544 -1.9659 -1.6995
 5588TIP3   OH216769   0.824   2.366   2.334 -0.0076  0.8204  0.5544
 5588TIP3    H116770   0.755   2.389   2.272  0.1273  0.6809  0.3537
 5588TIP3    H216771   0.797   2.408   2.416 -0.2839  0.8419  0.4530
 5589TIP3   OH216772   6.174   2.138   1.149 -0.8636 -0.3005 -0.0930
 5589TIP3    H116773   6.105   2.174   1.204  0.1086  1.0370  0.3155
 5589TIP3    H216774   6.253   2.186   1.175 -0.2769  0.1017 -2.3286
 5590TIP3   OH216775   0.177   0.979   3.119 -0.7788  0.0596 -0.1411
 5590TIP3    H116776   0.175   0.999   3.025  1.4471  0.2033 -0.2125
 5590TIP3    H216777   0.085   0.984   3.146 -1.9532 -3.0359 -2.8769
 5591TIP3   OH216778   5.088   1.981   0.633 -0.0768 -0.0229  0.1274
 5591TIP3    H116779   5.076   2.026   0.716  0.3312  1.7550 -0.7319
 5591TIP3    H216780   5.019   1.915   0.631 -1.0893  0.9635  1.1755
 5592TIP3   OH216781   1.232   4.104   3.245 -0.2237 -0.1336 -0.1914
 5592TIP3    H116782   1.273   4.188   3.267  0.6650 -0.5055 -0.3484
 5592TIP3    H216783   1.305   4.050   3.215 -0.8489 -0.8329 -0.4782
 5593TIP3   OH216784   1.586   3.778   3.041  0.1369  0.4280 -0.1524
 5593TIP3    H116785   1.598   3.757   2.949  1.2634 -2.6089  0.5452
 5593TIP3    H216786   1.632   3.708   3.088 -1.2434  1.2714  2.7300
 5594TIP3   OH216787   3.667   2.034   0.304 -0.2952  0.3044 -0.1440
 5594TIP3    H116788   3.730   2.044   0.375 -0.3217  1.7476 -0.2964
 5594TIP3    H216789   3.608   2.109   0.314 -1.3125 -0.3942 -0.6896
 5595TIP3   OH216790   5.753   3.782   1.688  0.0618  0.0859 -0.6155
 5595TIP3    H116791   5.658   3.783   1.693  0.0759 -0.4895 -0.0555
 5595TIP3    H216792   5.782   3.847   1.752  0.0663 -0.7638  0.2618
 5596TIP3   OH216793   1.321   1.504   3.829 -0.0849  0.1225  0.4176
 5596TIP3    H116794   1.352   1.592   3.811  0.1694 -0.1358 -0.4187
 5596TIP3    H216795   1.377   1.472   3.900  2.2807 -0.7109 -1.7182
 5597TIP3   OH216796   5.810   5.896   4.803 -0.1080  0.2992 -0.3770
 5597TIP3    H116797   5.853   5.895   4.889 -0.8866 -0.7805  0.0212
 5597TIP3    H216798   5.882   5.904   4.741  0.4634  1.1496  0.3707
 5598TIP3   OH216799   3.637   0.727   1.308  0.5612  0.9607  0.7826
 5598TIP3    H116800   3.645   0.779   1.227 -0.7638 -0.0314 -0.0333
 5598TIP3    H216801   3.543   0.714   1.318  0.7732  0.2469  1.9661
 5599TIP3   OH216802   1.182   2.684   3.740  0.0344 -0.1559 -0.4836
 5599TIP3    H116803   1.268   2.722   3.757 -0.0139  0.3455 -1.3372
 5599TIP3    H216804   1.121   2.741   3.788  0.0759  0.1365 -0.7762
 5600TIP3   OH216805   4.755   0.082   0.082  0.4472 -0.3829  0.1943
 5600TIP3    H116806   4.720   0.170   0.064  0.2853 -0.3510  0.6608
 5600TIP3    H216807   4.707   0.025   0.023  2.7743  0.2059 -2.5291
 5601TIP3   OH216808   4.657   0.215   4.552  0.1830 -0.2451  0.2474
 5601TIP3    H116809   4.660   0.214   4.456  0.2714 -1.1603  0.2492
 5601TIP3    H216810   4.742   0.181   4.579  0.1209 -0.0784  0.6459
 5602TIP3   OH216811   2.491   1.046   0.481 -0.7975 -0.7075  0.3909
 5602TIP3    H116812   2.477   1.136   0.453  0.8037 -0.3075  0.7711
 5602TIP3    H216813   2.403   1.010   0.494 -1.6654 -0.3449 -3.2411
 5603TIP3   OH216814   4.031   4.325   4.864  0.2459 -0.6573  1.0411
 5603TIP3    H116815   3.943   4.329   4.901  0.0190  1.3719  0.3575
 5603TIP3    H216816   4.017   4.304   4.771  0.4505  0.1141  0.8341
 5604TIP3   OH216817   4.884   2.343   1.333 -0.0392  0.4461  0.3119
 5604TIP3    H116818   4.856   2.381   1.250  1.3621 -1.3274 -1.0420
 5604TIP3    H216819   4.858   2.252   1.328  1.8941 -0.1857  0.9040
 5605TIP3   OH216820   4.783   0.425   4.840 -0.5432 -0.1992 -0.0761
 5605TIP3    H116821   4.768   0.404   4.932  1.2486 -0.8557  0.0998
 5605TIP3    H216822   4.837   0.353   4.807 -1.0103  0.1128 -1.6012
 5606TIP3   OH216823   3.432   0.319   3.361 -0.3195  0.6621  0.3805
 5606TIP3    H116824   3.369   0.247   3.366  0.8820 -0.7054 -2.1521
 5606TIP3    H216825   3.442   0.336   3.267  1.4503  2.3241  0.8030
 5607TIP3   OH216826   1.560   4.355   3.038 -0.1664 -0.0196 -0.1202
 5607TIP3    H116827   1.639   4.346   2.985  0.5231  0.3117  0.8125
 5607TIP3    H216828   1.542   4.449   3.039 -0.2332 -0.0338  0.1375
 5608TIP3   OH216829   2.448   4.313   2.083  0.1195  0.2988  0.3069
 5608TIP3    H116830   2.488   4.380   2.138 -1.6872  0.8801  0.9676
 5608TIP3    H216831   2.388   4.361   2.026  0.2907 -0.5543 -0.6291
 5609TIP3   OH216832   6.186   5.105   4.892 -0.2521  0.2328  0.2195
 5609TIP3    H116833   6.214   5.074   4.805 -0.9402 -1.1999  0.4697
 5609TIP3    H216834   6.109   5.052   4.912 -0.2069  0.6715  1.6376
 5610TIP3   OH216835   0.355   0.933   2.313 -0.0067  0.2937 -0.5387
 5610TIP3    H116836   0.401   0.942   2.396 -1.3454  1.7503  0.1178
 5610TIP3    H216837   0.276   0.987   2.324 -0.9164 -0.6001 -2.2585
 5611TIP3   OH216838   5.421   4.186   4.862  0.0137 -0.7907 -0.0789
 5611TIP3    H116839   5.446   4.110   4.810  0.7189 -1.0689  0.6390
 5611TIP3    H216840   5.377   4.150   4.939  1.3097 -0.5766  0.8032
 5612TIP3   OH216841   4.330   0.245   0.550 -0.4437  0.8861  0.7960
 5612TIP3    H116842   4.297   0.255   0.461  1.2129 -0.4780 -0.0199
 5612TIP3    H216843   4.266   0.189   0.594 -0.7322  0.7012  0.1499
 5613TIP3   OH216844   2.767   3.328   4.649 -0.1149  0.4742  0.2176
 5613TIP3    H116845   2.836   3.365   4.703 -0.5642  0.6779  0.6552
 5613TIP3    H216846   2.814   3.281   4.579  0.4581  0.8069  0.3737
 5614TIP3   OH216847   1.150   1.515   2.634 -0.3395 -0.5959 -0.4085
 5614TIP3    H116848   1.210   1.537   2.706 -1.1277 -1.4096  0.5180
 5614TIP3    H216849   1.201   1.458   2.576  0.3919  0.2905 -0.6656
 5615TIP3   OH216850   3.887   5.712   1.971  0.8215 -0.0495 -0.0381
 5615TIP3    H116851   3.960   5.662   1.936  0.9371  0.0887  0.0058
 5615TIP3    H216852   3.874   5.784   1.909 -0.2202 -0.8940 -0.8289
 5616TIP3   OH216853   5.158   1.273   5.049  0.0281  0.4156 -0.1397
 5616TIP3    H116854   5.233   1.314   5.092  1.4531 -0.2469 -1.8356
 5616TIP3    H216855   5.083   1.328   5.072  0.9668  0.9172  1.8665
 5617TIP3   OH216856   2.452   2.148   4.875  0.5421 -0.2843  0.3123
 5617TIP3    H116857   2.403   2.183   4.801 -1.3341 -0.8203  1.2403
 5617TIP3    H216858   2.457   2.054   4.859 -0.5062 -0.5136  1.1534
 5618TIP3   OH216859   3.017   0.553   4.759  0.0488 -0.2847  0.3002
 5618TIP3    H116860   3.039   0.540   4.666 -2.8588 -1.3416 -0.3569
 5618TIP3    H216861   3.080   0.498   4.806  0.3293 -1.3320 -1.1967
 5619TIP3   OH216862   3.029   0.405   0.440  0.0245  0.7174  0.0913
 5619TIP3    H116863   3.083   0.427   0.364  1.0867 -2.4812 -0.2231
 5619TIP3    H216864   2.957   0.353   0.403  0.2337 -0.3804  1.1784
 5620TIP3   OH216865   0.863   3.493   1.160  0.6717 -0.1677  0.2307
 5620TIP3    H116866   0.792   3.522   1.217  0.5215  1.6162 -0.7775
 5620TIP3    H216867   0.893   3.573   1.117  0.6343 -1.4420 -2.3592
 5621TIP3   OH216868   2.096   4.014   1.605  0.3712  0.4955 -0.0397
 5621TIP3    H116869   2.081   4.044   1.694 -0.7848 -0.1538  0.0002
 5621TIP3    H216870   2.011   4.021   1.562  0.5756 -0.5742 -0.6684
 5622TIP3   OH216871   5.422   3.603   3.387 -0.0379 -0.1149  0.2563
 5622TIP3    H116872   5.332   3.636   3.389  0.0193  0.2492 -1.7110
 5622TIP3    H216873   5.476   3.681   3.397  0.0857 -0.2968  1.1031
 5623TIP3   OH216874   5.343   0.510   1.550 -0.0801 -0.4077 -0.0775
 5623TIP3    H116875   5.438   0.510   1.562 -0.0019 -0.3815 -0.6889
 5623TIP3    H216876   5.310   0.461   1.625  0.4817 -1.2503 -0.3712
 5624TIP3   OH216877   2.692   0.832   2.881  0.3193 -0.0023  0.6290
 5624TIP3    H116878   2.726   0.744   2.897  0.6948  0.3323  1.7581
 5624TIP3    H216879   2.757   0.874   2.824 -1.1425 -1.2802 -2.2131
 5625TIP3   OH216880   0.920   1.054   2.098 -0.1340 -0.3269  0.0554
 5625TIP3    H116881   0.883   0.969   2.072  0.2957 -0.1971 -1.0296
 5625TIP3    H216882   1.007   1.055   2.059 -0.2896  0.7857 -0.3008
 5626TIP3   OH216883   2.473   0.123   0.437  0.4573 -0.5092 -0.4899
 5626TIP3    H116884   2.469   0.206   0.390 -0.8396  0.2692  0.8824
 5626TIP3    H216885   2.466   0.148   0.529  3.1284 -1.9503  0.1881
 5627TIP3   OH216886   4.489   1.950   1.348  0.3595  0.3442 -0.1877
 5627TIP3    H116887   4.443   2.002   1.414 -0.4016  0.8307 -1.0884
 5627TIP3    H216888   4.533   2.015   1.293  1.3688 -0.0787  0.0938
 5628TIP3   OH216889   4.618   5.573   3.171 -0.0457 -0.1918 -0.2376
 5628TIP3    H116890   4.710   5.547   3.168 -0.6482 -2.6297  0.3037
 5628TIP3    H216891   4.590   5.575   3.079  0.4005  0.0508 -0.3699
 5629TIP3   OH216892   5.553   3.090   0.412  0.3573 -0.1866 -0.5558
 5629TIP3    H116893   5.531   3.061   0.324 -2.0457  0.5172 -0.2839
 5629TIP3    H216894   5.538   3.013   0.467 -2.7858  0.5025 -0.2520
 5630TIP3   OH216895   4.909   2.252   4.906  0.0686 -0.4810  0.6223
 5630TIP3    H116896   4.905   2.156   4.906  1.9016 -0.5948  1.0353
 5630TIP3    H216897   4.930   2.275   4.997 -1.8725  0.4372  0.8915
 5631TIP3   OH216898   5.491   0.997   2.292  0.0854 -0.3213  0.4802
 5631TIP3    H116899   5.402   1.024   2.268 -0.4657 -0.9092  1.7530
 5631TIP3    H216900   5.508   0.921   2.236 -0.6168 -0.8042  0.8997
 5632TIP3   OH216901   2.032   5.364   4.395 -0.2921 -0.0593  0.1426
 5632TIP3    H116902   2.090   5.366   4.472 -0.1725  0.9326  0.0412
 5632TIP3    H216903   1.948   5.334   4.429  0.4090 -2.1430  0.1867
 5633TIP3   OH216904   3.419   4.704   4.565  0.3316 -0.3825  0.0877
 5633TIP3    H116905   3.409   4.794   4.598 -3.3381  0.0435 -1.6750
 5633TIP3    H216906   3.458   4.657   4.638  3.2967  2.7264  0.7818
 5634TIP3   OH216907   2.729   0.942   3.874 -0.1131 -0.6154 -0.5933
 5634TIP3    H116908   2.805   0.938   3.816 -1.0135 -1.1524 -1.8005
 5634TIP3    H216909   2.733   0.861   3.924 -0.5580 -1.2770 -1.5854
 5635TIP3   OH216910   5.514   5.324   5.131 -0.4019 -0.2934  0.0726
 5635TIP3    H116911   5.572   5.374   5.188 -0.9284  0.2111  0.1729
 5635TIP3    H216912   5.430   5.369   5.137 -0.6298 -0.6191 -0.5964
 5636TIP3   OH216913   5.477   3.092   3.167 -0.0220 -0.0764 -0.1983
 5636TIP3    H116914   5.551   3.069   3.222 -1.2861 -0.3874  1.4346
 5636TIP3    H216915   5.498   3.180   3.133  0.8250  0.0770  0.6996
 5637TIP3   OH216916   3.285   2.941   4.512  0.1116  0.1831  0.2704
 5637TIP3    H116917   3.355   2.882   4.541  1.3106  0.6173 -1.5357
 5637TIP3    H216918   3.329   3.003   4.454 -1.7670  0.4560 -0.9540
 5638TIP3   OH216919   5.106   4.903   1.865 -0.0292  0.0866 -0.0674
 5638TIP3    H116920   5.137   4.820   1.828  2.2092  0.8145  0.0858
 5638TIP3    H216921   5.019   4.914   1.827  0.6546 -1.0562 -2.1371
 5639TIP3   OH216922   6.314   5.780   2.353  0.1408 -0.0973  0.1953
 5639TIP3    H116923   6.254   5.752   2.423  0.2466  1.4232  0.9477
 5639TIP3    H216924   6.270   5.855   2.313  1.5408  1.0857  0.7958
 5640TIP3   OH216925   3.011   1.311   4.068  0.0799  0.1182 -0.6114
 5640TIP3    H116926   2.991   1.341   4.156  2.1981  0.5543 -0.2265
 5640TIP3    H216927   2.981   1.381   4.011 -0.8146  0.0770 -0.1983
 5641TIP3   OH216928   1.636   0.166   4.123 -0.0389 -0.8382 -0.7243
 5641TIP3    H116929   1.616   0.074   4.138  1.3459 -1.3602 -1.9836
 5641TIP3    H216930   1.730   0.173   4.135 -0.2407  0.6539  0.3866
 5642TIP3   OH216931   1.095   0.108   0.513 -0.5328 -0.6294  0.3565
 5642TIP3    H116932   1.177   0.154   0.528 -0.5394  0.3637 -2.1077
 5642TIP3    H216933   1.027   0.170   0.541 -0.5207  0.8519 -2.4581
 5643TIP3   OH216934   5.792   2.376   3.306  0.3259 -0.1219  0.3660
 5643TIP3    H116935   5.804   2.296   3.255 -0.5799  0.7455 -1.3091
 5643TIP3    H216936   5.836   2.444   3.254  0.0636  0.6695  1.1470
 5644TIP3   OH216937   4.738   4.340   0.378 -0.1971  0.4252 -0.2337
 5644TIP3    H116938   4.763   4.288   0.301  0.5220  0.2541  0.1117
 5644TIP3    H216939   4.683   4.282   0.430  0.7312 -0.0636  0.2277
 5645TIP3   OH216940   5.072   4.723   2.450  0.5423  0.4763  0.0735
 5645TIP3    H116941   5.121   4.690   2.525  0.9987 -0.4998 -0.6345
 5645TIP3    H216942   5.019   4.794   2.486  2.3408  1.4752  0.9176
 5646TIP3   OH216943   3.211   4.251   1.426 -0.3149 -0.2147 -0.8265
 5646TIP3    H116944   3.245   4.292   1.346 -0.0805  0.9139 -0.1723
 5646TIP3    H216945   3.246   4.162   1.424  2.5210  0.7678 -0.3550
 5647TIP3   OH216946   0.218   5.821   4.628  0.1573  0.2285 -0.3200
 5647TIP3    H116947   0.238   5.773   4.547 -1.9077 -1.1139 -0.1099
 5647TIP3    H216948   0.143   5.875   4.606 -0.5267 -0.2662  0.7244
 5648TIP3   OH216949   2.029   3.460   2.199  0.2906  0.0195  0.3138
 5648TIP3    H116950   2.047   3.437   2.290  1.6119  1.2099  0.3887
 5648TIP3    H216951   2.053   3.553   2.192  0.4127 -0.0981 -1.2858
 5649TIP3   OH216952   0.258   3.316   1.295 -0.3296  0.4496 -0.1435
 5649TIP3    H116953   0.263   3.326   1.200  0.7344  0.9341 -0.0485
 5649TIP3    H216954   0.216   3.396   1.326  0.3221  0.7991 -0.1291
 5650TIP3   OH216955   5.720   2.722   2.353  0.2359  0.5852  0.1586
 5650TIP3    H116956   5.713   2.707   2.447  0.0422 -0.7570 -0.0434
 5650TIP3    H216957   5.630   2.733   2.323  0.3466  1.7870  0.2289
 5651TIP3   OH216958   5.996   5.327   2.341 -0.2443  0.3468 -0.2052
 5651TIP3    H116959   5.980   5.317   2.248 -1.0917  0.3397 -0.0614
 5651TIP3    H216960   5.987   5.421   2.357 -2.2893  0.1117  0.2495
 5652TIP3   OH216961   4.022   2.158   2.113  0.1701  0.1623 -0.8379
 5652TIP3    H116962   4.072   2.203   2.045 -0.2855 -1.3683 -2.2297
 5652TIP3    H216963   3.931   2.160   2.082 -0.4417  1.4612  0.8667
 5653TIP3   OH216964   4.497   3.256   3.688 -0.3129 -0.2854 -0.0284
 5653TIP3    H116965   4.410   3.231   3.657 -1.5290  1.1709  1.9384
 5653TIP3    H216966   4.523   3.184   3.746 -0.9065 -0.0442  0.5524
 5654TIP3   OH216967   2.159   4.301   1.517 -0.4900  0.2381  0.4901
 5654TIP3    H116968   2.068   4.318   1.541 -0.6538 -2.3729  2.0642
 5654TIP3    H216969   2.185   4.227   1.572  2.0243 -0.2472 -1.1943
 5655TIP3   OH216970   4.053   3.203   3.142  0.5768 -0.6133 -0.2554
 5655TIP3    H116971   4.077   3.111   3.150  1.3607 -0.3250  1.0250
 5655TIP3    H216972   3.978   3.203   3.083 -0.4700 -2.2547  0.9700
 5656TIP3   OH216973   2.387   5.693   2.248 -0.5020  0.0949 -0.2745
 5656TIP3    H116974   2.482   5.702   2.244 -0.5930  1.0093 -0.7131
 5656TIP3    H216975   2.371   5.599   2.236  0.2906  0.1022 -1.5866
 5657TIP3   OH216976   0.067   1.518   3.117  0.1403  0.4389 -0.9659
 5657TIP3    H116977   0.142   1.511   3.057  0.1718  0.3746 -0.9199
 5657TIP3    H216978   0.020   1.596   3.088  0.2880  0.5439 -0.9246
 5658TIP3   OH216979   3.768   4.678   1.541 -0.3087  0.2957 -0.4686
 5658TIP3    H116980   3.859   4.700   1.557 -0.0078 -1.6784  0.8978
 5658TIP3    H216981   3.726   4.761   1.520  1.3898  1.5459  0.8627
 5659TIP3   OH216982   1.557   1.709   0.268  0.0933 -0.1296  0.6887
 5659TIP3    H116983   1.645   1.746   0.260  0.1243 -0.5478 -1.4182
 5659TIP3    H216984   1.506   1.778   0.312  1.8946 -0.7418  4.1069
 5660TIP3   OH216985   5.757   1.336   3.073 -0.2102  0.4863  0.3348
 5660TIP3    H116986   5.665   1.339   3.047 -0.4393  0.0395  1.0717
 5660TIP3    H216987   5.758   1.376   3.160 -0.0563 -1.3988  1.2455
 5661TIP3   OH216988   0.826   4.841   1.695 -0.1322  0.1206 -0.1686
 5661TIP3    H116989   0.755   4.885   1.648 -1.1901 -1.6101 -0.2784
 5661TIP3    H216990   0.782   4.772   1.746  1.4670 -1.0427 -0.2768
 5662TIP3   OH216991   5.456   5.507   0.500 -0.1156 -0.1404  0.1408
 5662TIP3    H116992   5.401   5.571   0.545 -0.2651  1.1903 -1.8134
 5662TIP3    H216993   5.544   5.523   0.532 -0.0123  1.6984 -0.9553
 5663TIP3   OH216994   4.174   2.262   2.494  0.0365 -0.1025  0.0536
 5663TIP3    H116995   4.228   2.335   2.523  0.0819  0.3193 -1.0498
 5663TIP3    H216996   4.092   2.303   2.465 -0.0348 -0.5147 -0.3394
 5664TIP3   OH216997   1.994   2.545   1.659 -0.0016 -0.1710 -0.5508
 5664TIP3    H116998   1.903   2.545   1.690  0.2557 -0.9510  0.2069
 5664TIP3    H216999   1.987   2.574   1.568 -0.7112  2.7478  0.3174
 5665TIP3   OH217000   3.921   2.933   2.695  0.0844  0.1044  0.0152
 5665TIP3    H117001   3.832   2.948   2.725 -0.2392  0.3198 -1.0170
 5665TIP3    H217002   3.944   3.013   2.648  1.4613  0.7752  1.7165
 5666TIP3   OH217003   4.536   4.069   0.798  0.4928  0.0220  0.6256
 5666TIP3    H117004   4.492   4.089   0.880 -0.0821  1.4645  0.0161
 5666TIP3    H217005   4.498   3.986   0.770 -0.7639  0.4810  0.8753
 5667TIP3   OH217006   6.071   1.342   1.813  0.3394 -0.2448  0.0322
 5667TIP3    H117007   6.079   1.393   1.894 -2.2036  0.2483  0.0836
 5667TIP3    H217008   6.045   1.407   1.748  0.7350 -0.9062 -0.7923
 5668TIP3   OH217009   0.659   1.979   0.928  0.2255 -0.2184  0.2337
 5668TIP3    H117010   0.652   2.022   1.013 -0.7681  0.2110 -0.0491
 5668TIP3    H217011   0.569   1.958   0.904  0.5974 -1.4589 -0.1554
 5669TIP3   OH217012   6.100   3.372   3.461 -0.7057 -0.3688  0.6306
 5669TIP3    H117013   6.012   3.334   3.454 -0.5903 -0.5731  0.2858
 5669TIP3    H217014   6.086   3.466   3.452 -1.1002 -0.2251  2.3454
 5670TIP3   OH217015   2.835   2.597   1.879  0.6631  0.1495  0.2830
 5670TIP3    H117016   2.815   2.505   1.858  0.3093  0.2271  0.2719
 5670TIP3    H217017   2.931   2.602   1.876  0.7855 -0.6085  1.9521
 5671TIP3   OH217018   6.363   4.230   0.545  0.0728 -0.2778  0.5899
 5671TIP3    H117019   6.272   4.260   0.542  0.2260  0.1585  0.2352
 5671TIP3    H217020   6.372   4.176   0.466  0.2343  0.0010  0.4183
 5672TIP3   OH217021   3.115   1.743   2.424 -0.3008  0.2402  0.0707
 5672TIP3    H117022   3.187   1.765   2.482  0.2248 -0.2804 -0.3742
 5672TIP3    H217023   3.037   1.771   2.471  0.0239 -1.2203  1.5521
 5673TIP3   OH217024   4.364   0.062   4.133 -0.4093 -0.3571  0.5304
 5673TIP3    H117025   4.301   0.131   4.153 -1.5015 -1.4887  1.1583
 5673TIP3    H217026   4.393   0.081   4.043 -0.6888  0.8857  0.6857
 5674TIP3   OH217027   4.553   5.764   1.558  0.6835  0.2189  0.4017
 5674TIP3    H117028   4.643   5.758   1.525  0.8629 -1.3583  1.0891
 5674TIP3    H217029   4.521   5.847   1.523  1.8498  0.0425 -1.2274
 5675TIP3   OH217030   0.787   2.630   4.372 -0.2116  0.4708  0.5105
 5675TIP3    H117031   0.813   2.547   4.413  1.7828  1.0489  0.5428
 5675TIP3    H217032   0.759   2.685   4.445  2.0744  1.0501  1.0339
 5676TIP3   OH217033   2.056   5.632   2.325  0.1875  0.3414  0.2457
 5676TIP3    H117034   2.140   5.668   2.356  1.0542 -0.3509 -1.1809
 5676TIP3    H217035   2.067   5.626   2.230 -0.6074 -1.9038  0.2410
 5677TIP3   OH217036   3.505   0.388   2.870 -0.6229 -0.2190  0.0664
 5677TIP3    H117037   3.528   0.301   2.835 -2.8132 -1.1963  0.8820
 5677TIP3    H217038   3.570   0.447   2.832  2.2994 -2.4854  1.1638
 5678TIP3   OH217039   3.761   4.765   4.651  0.5094 -0.0344  0.1056
 5678TIP3    H117040   3.689   4.709   4.680  0.8026 -0.0473  0.8512
 5678TIP3    H217041   3.726   4.854   4.654  0.5249 -0.0374  0.5006
 5679TIP3   OH217042   3.574   2.265   3.776  0.3063  0.3377 -0.1355
 5679TIP3    H117043   3.535   2.238   3.693  1.2590  0.5102 -0.6567
 5679TIP3    H217044   3.553   2.194   3.836 -0.7967  0.4276 -0.3852
 5680TIP3   OH217045   5.854   4.935   2.087 -0.3331 -0.2452 -0.3647
 5680TIP3    H117046   5.792   4.989   2.039  1.3864  0.9368 -1.3478
 5680TIP3    H217047   5.815   4.924   2.174 -2.4037 -0.4851 -1.2753
 5681TIP3   OH217048   4.970   2.162   3.984 -0.5412 -0.0203 -0.0338
 5681TIP3    H117049   4.946   2.072   4.009  0.0101 -0.1346  0.0991
 5681TIP3    H217050   5.036   2.151   3.915 -0.7107  0.2871 -0.2491
 5682TIP3   OH217051   3.323   3.798   1.626 -0.6330 -0.1010  0.1288
 5682TIP3    H117052   3.344   3.792   1.719 -0.8539 -2.6600  0.0899
 5682TIP3    H217053   3.344   3.712   1.591 -1.6063  0.4452 -1.9778
 5683TIP3   OH217054   3.672   3.314   0.474  0.7458 -0.5426  0.5880
 5683TIP3    H117055   3.580   3.290   0.472 -0.2510  2.7143 -1.5729
 5683TIP3    H217056   3.675   3.396   0.524  2.1184  0.2844 -0.7325
 5684TIP3   OH217057   0.170   5.699   0.403 -0.2559 -0.1388 -0.6720
 5684TIP3    H117058   0.241   5.738   0.455 -0.3757 -0.8492  0.0393
 5684TIP3    H217059   0.198   5.609   0.389 -0.6866 -0.2212 -0.9994
 5685TIP3   OH217060   1.883   3.528   0.367  0.9756 -0.3312  0.2626
 5685TIP3    H117061   1.829   3.606   0.382 -0.2067 -1.2378  0.8473
 5685TIP3    H217062   1.919   3.541   0.279  0.7079  0.8201  0.3027
 5686TIP3   OH217063   3.842   5.314   2.659  0.0355 -0.1342  0.1987
 5686TIP3    H117064   3.858   5.323   2.565 -0.3090  1.7368  0.2895
 5686TIP3    H217065   3.929   5.298   2.697  0.4921  1.1923 -0.2374
 5687TIP3   OH217066   4.328   4.248   4.351  0.2497 -0.0381 -0.0594
 5687TIP3    H117067   4.398   4.185   4.368  0.0972 -0.0612  0.4926
 5687TIP3    H217068   4.287   4.217   4.270  2.0738  1.0320 -1.4931
 5688TIP3   OH217069   5.781   2.951   1.266 -0.0866 -0.0462  0.2279
 5688TIP3    H117070   5.734   2.977   1.186 -0.3945  3.9783  1.4878
 5688TIP3    H217071   5.714   2.914   1.323 -0.6195  0.4790 -0.0469
 5689TIP3   OH217072   6.129   3.311   0.913 -0.0424 -0.2088 -0.3310
 5689TIP3    H117073   6.116   3.387   0.856 -3.0386 -0.5135 -0.2507
 5689TIP3    H217074   6.183   3.345   0.985  0.1799  1.3547 -1.1827
 5690TIP3   OH217075   4.072   4.776   1.659 -0.0007 -0.1380  0.1554
 5690TIP3    H117076   4.132   4.703   1.674 -0.3961 -0.6176 -0.5363
 5690TIP3    H217077   4.112   4.826   1.588 -0.7587 -0.8618 -0.8047
 5691TIP3   OH217078   0.630   5.561   2.722  0.4719  0.5488  0.0974
 5691TIP3    H117079   0.618   5.468   2.745  0.1184  0.5562 -0.0526
 5691TIP3    H217080   0.621   5.607   2.806  1.3457  0.3950  0.2916
 5692TIP3   OH217081   5.578   1.872   3.403  0.1322 -0.1728 -0.3398
 5692TIP3    H117082   5.537   1.874   3.490 -0.4564  0.9974 -0.6221
 5692TIP3    H217083   5.671   1.883   3.420  0.1584 -1.0494  0.1983
 5693TIP3   OH217084   1.909   3.728   2.823  0.2496 -0.1575  0.0320
 5693TIP3    H117085   1.893   3.655   2.763  1.7314  0.9824 -1.8363
 5693TIP3    H217086   1.833   3.785   2.810  1.0512  0.5995 -1.6348
 5694TIP3   OH217087   0.993   2.773   4.199 -0.0098  0.4973 -0.2801
 5694TIP3    H117088   0.929   2.710   4.231  1.1249 -1.0799 -0.9983
 5694TIP3    H217089   1.014   2.744   4.110  2.0267  0.6463  0.0960
 5695TIP3   OH217090   6.094   0.896   3.548  0.4299 -0.0383  0.2849
 5695TIP3    H117091   6.110   0.986   3.574 -0.2066  0.1361  0.0965
 5695TIP3    H217092   6.173   0.849   3.573  0.1539  0.2703  1.8437
 5696TIP3   OH217093   4.068   5.089   1.497  0.0182 -0.2073  0.5900
 5696TIP3    H117094   4.140   5.034   1.467  0.4088  0.8947 -0.5528
 5696TIP3    H217095   3.990   5.035   1.487  0.2599 -0.2176 -1.5212
 5697TIP3   OH217096   3.636   3.971   0.390 -0.1789 -0.4575 -0.1702
 5697TIP3    H117097   3.579   4.035   0.347 -0.3666 -1.5810 -1.7045
 5697TIP3    H217098   3.620   3.982   0.483 -1.2457  0.7644 -0.4754
 5698TIP3   OH217099   4.123   0.464   0.212 -0.3886  0.3663 -0.2262
 5698TIP3    H117100   4.145   0.556   0.197 -0.9486  0.9011  1.9931
 5698TIP3    H217101   4.091   0.434   0.126  0.8722  1.8863 -1.2970
 5699TIP3   OH217102   3.887   1.343   4.565  0.4708  0.8913 -0.1836
 5699TIP3    H117103   3.935   1.260   4.565 -1.4154 -0.3082  1.6545
 5699TIP3    H217104   3.901   1.379   4.653  0.0624  1.7751 -0.4714
 5700TIP3   OH217105   1.145   2.684   0.601  0.2953  0.2472 -0.1114
 5700TIP3    H117106   1.113   2.646   0.683 -0.7331 -0.5851 -0.8616
 5700TIP3    H217107   1.071   2.734   0.568  0.2608 -0.4470 -1.1304
 5701TIP3   OH217108   3.069   4.391   1.948  0.3021 -0.4959 -0.1546
 5701TIP3    H117109   3.041   4.469   1.899 -0.6934 -0.2734  0.7360
 5701TIP3    H217110   3.067   4.320   1.884 -0.6794 -0.1521 -0.5210
 5702TIP3   OH217111   2.577   4.090   5.133 -0.4009  0.5252 -0.4594
 5702TIP3    H117112   2.666   4.125   5.138  0.0052 -0.4654 -0.5262
 5702TIP3    H217113   2.520   4.165   5.152  0.5344  0.4314  3.5803
 5703TIP3   OH217114   2.134   0.248   1.578  0.7973  0.2494  0.0188
 5703TIP3    H117115   2.192   0.209   1.643  1.3864  0.4545 -0.3806
 5703TIP3    H217116   2.048   0.251   1.621  1.0690 -0.1036  0.5896
 5704TIP3   OH217117   0.260   3.317   4.840 -0.2416 -0.5438 -0.2606
 5704TIP3    H117118   0.356   3.316   4.833 -0.2978  1.0435 -2.0992
 5704TIP3    H217119   0.233   3.393   4.788 -2.4136  0.2035  1.7727
 5705TIP3   OH217120   4.437   3.560   2.015  0.2777  0.6732 -0.4885
 5705TIP3    H117121   4.477   3.646   2.030  2.0204  0.1886 -1.9675
 5705TIP3    H217122   4.487   3.523   1.943 -2.3402 -0.3798 -1.9009
 5706TIP3   OH217123   3.083   5.480   2.519 -0.5446  0.0264  0.2067
 5706TIP3    H117124   2.999   5.484   2.565 -0.0331 -0.6840  1.2581
 5706TIP3    H217125   3.143   5.527   2.577  0.0304 -0.5250  0.0652
 5707TIP3   OH217126   5.533   1.440   4.530 -0.2440  0.1525  0.3614
 5707TIP3    H117127   5.523   1.426   4.436 -2.4013 -0.7427  0.6600
 5707TIP3    H217128   5.481   1.518   4.549  2.8159  2.3302  0.3996
 5708TIP3   OH217129   3.307   2.098   5.140  0.1026 -0.5293 -0.2951
 5708TIP3    H117130   3.368   2.064   5.206 -0.8199  2.3320  2.3008
 5708TIP3    H217131   3.364   2.133   5.072  1.1505 -2.3175 -0.3963
 5709TIP3   OH217132   5.718   0.698   1.512 -0.5601  0.0519  0.6152
 5709TIP3    H117133   5.724   0.682   1.607 -1.5748 -1.5162  0.4491
 5709TIP3    H217134   5.708   0.611   1.474 -0.8448  0.7184 -0.8809
 5710TIP3   OH217135   0.818   1.588   3.803 -0.5112 -0.2326 -0.1204
 5710TIP3    H117136   0.853   1.500   3.818  0.4176  0.0933 -0.2862
 5710TIP3    H217137   0.840   1.636   3.882  2.1680  0.8003 -1.3526
 5711TIP3   OH217138   3.023   0.733   3.201 -0.0018  0.3018 -0.1915
 5711TIP3    H117139   3.003   0.657   3.146  1.7856  0.9591 -1.8378
 5711TIP3    H217140   3.110   0.715   3.237 -0.8817  0.1493  2.0724
 5712TIP3   OH217141   3.324   0.922   0.943 -0.3620 -0.5579 -0.1346
 5712TIP3    H117142   3.261   0.851   0.939  0.1894 -1.0021 -1.9487
 5712TIP3    H217143   3.272   1.001   0.946 -1.0215 -0.9122 -1.7361
 5713TIP3   OH217144   2.281   4.508   5.173 -0.0461  0.3346 -0.1141
 5713TIP3    H117145   2.235   4.583   5.134 -2.9731 -1.8307 -1.2023
 5713TIP3    H217146   2.230   4.432   5.145  2.0960 -2.0074  1.8927
 5714TIP3   OH217147   6.073   1.683   4.324 -0.6006 -0.5370 -0.5000
 5714TIP3    H117148   6.163   1.649   4.318 -0.1388  0.8464 -2.0979
 5714TIP3    H217149   6.078   1.752   4.389 -0.7895 -1.2551  0.2881
 5715TIP3   OH217150   2.456   4.741   3.939  0.1322 -0.3849 -0.6982
 5715TIP3    H117151   2.460   4.676   4.010 -0.3959 -0.6378 -0.8925
 5715TIP3    H217152   2.362   4.755   3.925  0.2383  0.0120 -1.0373
 5716TIP3   OH217153   3.427   4.603   3.276  0.3038  0.1276  0.0482
 5716TIP3    H117154   3.506   4.549   3.273  0.5714  0.5045  0.2455
 5716TIP3    H217155   3.355   4.540   3.288  0.6101 -0.1869  0.2495
 5717TIP3   OH217156   1.984   3.658   1.806  0.5532 -0.6267 -0.1358
 5717TIP3    H117157   1.920   3.612   1.860  0.9180  0.6729  1.4909
 5717TIP3    H217158   1.933   3.695   1.734 -0.1455 -1.3913 -0.0412
 5718TIP3   OH217159   2.445   2.654   1.317 -0.4088  0.1245  0.4078
 5718TIP3    H117160   2.504   2.700   1.257 -0.5260 -2.1985 -1.6513
 5718TIP3    H217161   2.360   2.697   1.304 -0.1160  0.6017  0.0416
 5719TIP3   OH217162   2.207   3.565   3.949 -0.0220  0.6728  0.0163
 5719TIP3    H117163   2.126   3.617   3.941  0.3891  1.1991 -0.9325
 5719TIP3    H217164   2.241   3.560   3.859  0.5786 -0.2365  0.2809
 5720TIP3   OH217165   3.980   1.405   0.887 -0.0715 -0.0138 -0.0740
 5720TIP3    H117166   3.956   1.468   0.954 -2.4339 -2.3386  1.4883
 5720TIP3    H217167   4.034   1.340   0.933  2.1844  0.6566 -1.5929
 5721TIP3   OH217168   1.837   2.783   0.725 -0.3708  0.1702  0.0323
 5721TIP3    H117169   1.875   2.744   0.646  0.5838  1.5576 -0.2304
 5721TIP3    H217170   1.744   2.793   0.704  0.0977  1.8327 -1.5282
 5722TIP3   OH217171   5.256   4.825   0.236 -0.2896  0.0037  0.0535
 5722TIP3    H117172   5.275   4.804   0.328  0.9625  1.5352  0.1835
 5722TIP3    H217173   5.165   4.796   0.224  0.0338 -1.7229  1.2813
 5723TIP3   OH217174   3.436   5.988   3.808 -0.4758 -0.2372 -0.1142
 5723TIP3    H117175   3.428   5.907   3.857 -0.2281 -0.1724  0.0348
 5723TIP3    H217176   3.529   5.993   3.785 -1.0542 -1.9525 -3.4601
 5724TIP3   OH217177   4.444   5.562   0.035 -0.0622 -0.0598 -0.0632
 5724TIP3    H117178   4.454   5.636  -0.025  2.3266  0.0204  0.3318
 5724TIP3    H217179   4.368   5.514   0.002 -0.4851  1.4980 -1.4835
 5725TIP3   OH217180   6.095   3.778   0.122 -0.0589 -0.0809  0.4783
 5725TIP3    H117181   6.067   3.701   0.073  0.3740  0.1220 -0.0921
 5725TIP3    H217182   6.027   3.843   0.105 -0.0190 -0.0792  0.3313
 5726TIP3   OH217183   5.871   1.457   3.502 -0.0784 -0.1176 -0.5770
 5726TIP3    H117184   5.946   1.415   3.544  0.1186 -0.7745 -1.5419
 5726TIP3    H217185   5.852   1.533   3.557 -0.0699 -1.1376  0.8923
 5727TIP3   OH217186   5.973   0.978   3.100  0.2824  0.5388  1.1813
 5727TIP3    H117187   5.949   1.053   3.047 -0.6173 -0.5747 -0.0559
 5727TIP3    H217188   6.065   0.993   3.123  0.4635  1.4365 -0.0467
 5728TIP3   OH217189   3.601   2.803  -0.013 -0.4223  0.1076 -0.2545
 5728TIP3    H117190   3.672   2.746  -0.042 -2.2948 -2.6039  0.0762
 5728TIP3    H217191   3.613   2.810   0.081 -0.2679  0.1948 -0.2790
 5729TIP3   OH217192   3.022   0.942   1.461  0.2442 -0.1616 -0.5267
 5729TIP3    H117193   2.945   0.887   1.472 -0.9118  1.2776 -1.0811
 5729TIP3    H217194   3.095   0.880   1.451 -0.6099 -1.5412  1.3111
 5730TIP3   OH217195   5.267   4.729   4.244 -0.2458 -0.1698 -0.3905
 5730TIP3    H117196   5.261   4.811   4.293 -0.2270  0.3215 -1.1998
 5730TIP3    H217197   5.185   4.683   4.264 -2.1159  1.7667 -2.9508
 5731TIP3   OH217198   6.289   4.296   1.655 -0.1186  0.2829  0.1185
 5731TIP3    H117199   6.312   4.209   1.623 -0.0705  0.1555  0.4971
 5731TIP3    H217200   6.363   4.322   1.709 -0.3529  0.3575  0.4029
 5732TIP3   OH217201   6.056   0.114   4.225  0.4050  0.2783 -0.3533
 5732TIP3    H117202   5.969   0.080   4.207  0.3781  0.2441 -0.1688
 5732TIP3    H217203   6.063   0.193   4.172  0.8029 -0.4883 -1.4746
 5733TIP3   OH217204   1.441   4.870   2.601  0.1451 -0.3479  0.0631
 5733TIP3    H117205   1.449   4.800   2.535 -0.3347  1.3559 -1.9038
 5733TIP3    H217206   1.522   4.864   2.652  1.5357 -0.4057 -2.0513
 5734TIP3   OH217207   5.488   3.777   2.581  0.9931 -0.0089  0.4586
 5734TIP3    H117208   5.488   3.872   2.576  2.0364  0.0345  1.0768
 5734TIP3    H217209   5.452   3.749   2.497 -1.1243  0.9369  0.9955
 5735TIP3   OH217210   4.235   2.744   1.475 -0.5957  0.1626  0.1901
 5735TIP3    H117211   4.194   2.719   1.557 -0.9748 -0.4379 -0.1755
 5735TIP3    H217212   4.225   2.667   1.418  0.8472  0.0683  0.0216
 5736TIP3   OH217213   3.450   4.390   0.448 -0.0922 -0.1493  0.3143
 5736TIP3    H117214   3.504   4.426   0.378  1.0168 -0.4723  0.9814
 5736TIP3    H217215   3.395   4.463   0.477 -0.3962  0.0454 -0.7126
 5737TIP3   OH217216   4.313   0.914   3.091  0.1309 -0.2552  0.6975
 5737TIP3    H117217   4.336   1.006   3.100 -1.2259  0.1052  0.7016
 5737TIP3    H217218   4.258   0.911   3.013  0.4281 -1.1114  0.5153
 5738TIP3   OH217219   4.393   4.962   2.795 -0.4335 -0.0257  0.4928
 5738TIP3    H117220   4.351   4.913   2.725  1.3131 -0.8771 -0.0164
 5738TIP3    H217221   4.410   5.048   2.757  1.2929 -0.7505 -0.5045
 5739TIP3   OH217222   1.208   1.056   4.823  0.1589  0.0646 -0.4304
 5739TIP3    H117223   1.122   1.077   4.859  0.2229  1.0421 -0.8363
 5739TIP3    H217224   1.202   1.080   4.730  1.1755  1.0857 -0.2482
 5740TIP3   OH217225   5.254   0.920   3.121  0.1998 -0.2195 -0.0083
 5740TIP3    H117226   5.179   0.955   3.074  0.9586  1.4343 -0.0434
 5740TIP3    H217227   5.312   0.887   3.052  0.5709  0.6947 -0.1408
 5741TIP3   OH217228   2.520   1.816   0.370  0.1604  0.0001 -0.6190
 5741TIP3    H117229   2.492   1.833   0.280  2.6690 -1.3307 -1.7557
 5741TIP3    H217230   2.537   1.903   0.407 -0.8667  0.5593 -1.4117
 5742TIP3   OH217231   2.795   2.156   4.069 -0.0386  0.1263 -0.5333
 5742TIP3    H117232   2.731   2.178   4.136  0.3532  0.4637 -0.2689
 5742TIP3    H217233   2.786   2.061   4.059 -0.7658  0.2081 -0.6951
 5743TIP3   OH217234   6.301   1.472   0.660 -0.9188 -0.0350  0.2074
 5743TIP3    H117235   6.269   1.415   0.590 -1.7618 -0.0387  0.5756
 5743TIP3    H217236   6.257   1.440   0.739 -1.4696  1.1613  0.4109
 5744TIP3   OH217237   4.566   3.526   3.415 -0.3285  0.1283  0.0285
 5744TIP3    H117238   4.620   3.535   3.494 -0.2003 -1.0519  0.0859
 5744TIP3    H217239   4.479   3.557   3.442 -0.9043 -2.3673  1.3519
 5745TIP3   OH217240  -0.006   4.787   2.214 -0.1627 -0.1260 -0.2457
 5745TIP3    H117241  -0.064   4.727   2.259 -0.6919  1.7497  1.7082
 5745TIP3    H217242   0.082   4.749   2.225 -0.0989  0.7931  3.5010
 5746TIP3   OH217243   1.303   5.069   1.810  0.1158  0.3623 -0.0663
 5746TIP3    H117244   1.380   5.106   1.767 -0.2061 -1.8267 -2.7862
 5746TIP3    H217245   1.228   5.115   1.770 -0.1401 -0.8510 -1.0308
 5747TIP3   OH217246   1.626   1.710   2.028  0.0019  0.2268  0.3587
 5747TIP3    H117247   1.574   1.666   1.961 -0.4796  0.5613  0.5012
 5747TIP3    H217248   1.674   1.640   2.072  1.0671  0.0934 -0.9492
 5748TIP3   OH217249   0.563   3.137   4.601 -0.1086  0.2914 -0.6305
 5748TIP3    H117250   0.641   3.090   4.572 -0.3393 -0.1371 -0.5654
 5748TIP3    H217251   0.499   3.123   4.530 -0.1159  0.6702 -0.7015
 5749TIP3   OH217252   3.430   3.746   3.633 -0.8225 -0.5618 -0.4285
 5749TIP3    H117253   3.444   3.668   3.687 -2.4312 -0.3444  0.3518
 5749TIP3    H217254   3.395   3.811   3.694  1.8011  1.3185 -0.7246
 5750TIP3   OH217255   4.186   2.456   0.210  0.3489 -0.1445  0.5480
 5750TIP3    H117256   4.238   2.476   0.133 -0.5339 -0.3012 -0.1086
 5750TIP3    H217257   4.097   2.481   0.186  0.0463 -0.2724  1.4898
 5751TIP3   OH217258   2.106   3.228   3.586  0.3598 -0.0305  0.2718
 5751TIP3    H117259   2.168   3.155   3.576 -0.2719 -0.6134  0.5072
 5751TIP3    H217260   2.102   3.268   3.499  1.3830  0.2897  0.3546
 5752TIP3   OH217261   3.317   4.659   0.545  0.5587  0.3042 -0.1060
 5752TIP3    H117262   3.295   4.739   0.592  0.0181  0.6626 -0.9500
 5752TIP3    H217263   3.407   4.673   0.515  0.5377  0.5034 -0.0763
 5753TIP3   OH217264   0.845   2.095   1.142 -0.2362 -0.2422 -0.3491
 5753TIP3    H117265   0.916   2.110   1.205 -1.5670  1.6988  0.7903
 5753TIP3    H217266   0.882   2.119   1.057  0.1216  2.0263  0.4009
 5754TIP3   OH217267   4.027   2.117   4.362  0.0148  0.6386 -0.8545
 5754TIP3    H117268   4.007   2.098   4.453 -0.4231  1.6344 -0.7258
 5754TIP3    H217269   4.121   2.108   4.355  0.1411  1.2350 -0.1178
 5755TIP3   OH217270   4.265   1.575   4.635 -0.4818  0.0306 -0.5804
 5755TIP3    H117271   4.343   1.575   4.692 -0.2419  1.9557 -0.8502
 5755TIP3    H217272   4.213   1.649   4.666 -2.5209 -1.5358 -0.0665
 5756TIP3   OH217273   5.231   3.402   1.996  0.2548 -0.0956  0.1284
 5756TIP3    H117274   5.160   3.377   2.055 -2.4296  5.3506 -0.2166
 5756TIP3    H217275   5.306   3.417   2.054 -0.7413  0.0001  1.4279
 5757TIP3   OH217276   1.785   3.869   3.733 -0.0366 -0.5335  0.0956
 5757TIP3    H117277   1.791   3.820   3.650  0.4491 -0.0534 -0.1621
 5757TIP3    H217278   1.843   3.821   3.793  0.3858 -0.3182 -0.1361
 5758TIP3   OH217279   0.529   0.549   3.918 -0.1107 -0.6843  0.3994
 5758TIP3    H117280   0.476   0.522   3.844 -2.8901 -0.7566  2.2632
 5758TIP3    H217281   0.508   0.642   3.931  0.0572 -0.7584  1.2921
 5759TIP3   OH217282   4.871   2.758   3.275 -0.9033  0.0375  0.4696
 5759TIP3    H117283   4.880   2.747   3.370 -0.6721  0.9507  0.5627
 5759TIP3    H217284   4.802   2.697   3.250 -2.2403  1.0628  1.5044
 5760TIP3   OH217285   6.217   2.845   3.821 -0.5498 -0.0673  0.3932
 5760TIP3    H117286   6.282   2.913   3.837 -2.3313  1.4786  1.5658
 5760TIP3    H217287   6.244   2.772   3.877 -0.0317  0.6920  1.1627
 5761TIP3   OH217288   3.297   0.906   3.149 -0.3666  0.0867  0.3611
 5761TIP3    H117289   3.269   0.824   3.190 -1.0971  0.1118 -0.0698
 5761TIP3    H217290   3.333   0.958   3.221 -0.2395 -0.4618  0.7002
 5762TIP3   OH217291   3.592   2.183   2.858  0.4960 -0.2780 -0.2069
 5762TIP3    H117292   3.512   2.235   2.848  0.3630 -0.7981 -2.4123
 5762TIP3    H217293   3.640   2.226   2.929 -1.1706  0.7833  0.3267
 5763TIP3   OH217294   4.014   3.225   2.292 -0.2696  0.0180  0.2174
 5763TIP3    H117295   4.016   3.130   2.284 -2.7102  0.0397 -2.1809
 5763TIP3    H217296   4.088   3.255   2.239  0.3651 -0.5305  0.7854
 5764TIP3   OH217297   2.833   2.093   1.687 -0.1144  0.2120  0.0885
 5764TIP3    H117298   2.810   2.058   1.601  0.0713 -0.4123  0.2820
 5764TIP3    H217299   2.748   2.108   1.730 -0.3284  2.9272 -1.0817
 5765TIP3   OH217300   2.348   0.780   2.489 -0.0892  0.0792  0.0287
 5765TIP3    H117301   2.403   0.838   2.436 -1.5738  0.2245 -1.4573
 5765TIP3    H217302   2.313   0.836   2.558 -1.1460  0.8789 -1.1219
 5766TIP3   OH217303   3.906   1.382   4.849 -0.0410 -0.2248 -0.3129
 5766TIP3    H117304   3.910   1.471   4.885  1.3727 -0.2707 -0.3039
 5766TIP3    H217305   3.814   1.358   4.856 -0.1046  0.3624  1.8428
 5767TIP3   OH217306   3.093   5.790   0.749 -0.7267 -0.2564 -0.1037
 5767TIP3    H117307   3.144   5.841   0.812 -2.5633 -1.4076  2.5350
 5767TIP3    H217308   3.150   5.782   0.673  2.4149 -0.2042  2.0402
 5768TIP3   OH217309   4.418   2.268   3.663  0.2159  0.2531  0.2599
 5768TIP3    H117310   4.508   2.280   3.633 -0.7231  1.2025 -2.4866
 5768TIP3    H217311   4.406   2.334   3.731  2.0411 -1.0704  2.0156
 5769TIP3   OH217312   4.121   1.908   3.713  0.1398 -0.3570 -0.1205
 5769TIP3    H117313   4.202   1.897   3.662  0.2092  0.1075 -0.1099
 5769TIP3    H217314   4.151   1.922   3.803  0.1937  2.5031 -0.4895
 5770TIP3   OH217315   0.216   5.331   2.297  0.0272  0.7975  0.4045
 5770TIP3    H117316   0.255   5.304   2.380  2.1691  1.5701 -0.2785
 5770TIP3    H217317   0.122   5.327   2.312  0.3261 -1.3749  2.0930
 5771TIP3   OH217318   4.943   3.055   3.271 -0.0339 -0.5116  0.0522
 5771TIP3    H117319   4.948   2.978   3.327  0.5205 -0.3721  0.2048
 5771TIP3    H217320   5.032   3.090   3.272  0.2683 -1.1309 -1.7914
 5772TIP3   OH217321   0.649   4.905   2.200 -0.9660 -0.2695 -0.2598
 5772TIP3    H117322   0.740   4.919   2.174  0.0932 -1.7412  2.3012
 5772TIP3    H217323   0.643   4.811   2.219 -2.8515 -0.1033  0.2514
 5773TIP3   OH217324   4.122   0.647   2.288  0.0892  0.1325  0.3555
 5773TIP3    H117325   4.056   0.657   2.219 -0.4197 -0.3102  0.7719
 5773TIP3    H217326   4.080   0.683   2.366  1.5543  2.9911 -0.0359
 5774TIP3   OH217327   0.751   4.962   4.134  0.7610 -0.0100  0.2633
 5774TIP3    H117328   0.824   4.902   4.117  0.4575 -0.9929  2.1699
 5774TIP3    H217329   0.717   4.935   4.219 -0.9163  1.3727  0.0855
 5775TIP3   OH217330   6.029   3.148   1.459 -0.4222 -0.0525 -0.5907
 5775TIP3    H117331   5.961   3.101   1.507 -0.5091 -0.7908 -1.4220
 5775TIP3    H217332   6.011   3.241   1.476 -2.1929 -0.1831 -1.5115
 5776TIP3   OH217333   1.894   4.581   2.124 -0.2046  0.4485 -0.0732
 5776TIP3    H117334   1.889   4.554   2.032  0.2697  2.0176 -0.5798
 5776TIP3    H217335   1.919   4.501   2.171 -0.6238 -0.4125 -1.2734
 5777TIP3   OH217336   0.579   4.379   1.330 -0.0496  0.2051  0.0929
 5777TIP3    H117337   0.579   4.447   1.397 -0.7619 -1.3403  1.7675
 5777TIP3    H217338   0.568   4.298   1.379  2.3761 -1.3239 -1.6538
 5778TIP3   OH217339   6.112   5.649   1.302 -0.0849  0.2792  0.4271
 5778TIP3    H117340   6.133   5.654   1.395 -0.1559 -0.6168  0.5059
 5778TIP3    H217341   6.115   5.555   1.282 -0.2224  0.4492 -0.4367
 5779TIP3   OH217342   0.032   5.185   3.120 -0.4013  0.0267 -0.1413
 5779TIP3    H117343   0.083   5.159   3.043  0.6077  1.9286 -0.1700
 5779TIP3    H217344  -0.043   5.233   3.084  0.6827  1.9429  0.0370
 5780TIP3   OH217345   3.792   0.077   2.513 -0.1933  0.0608  0.5203
 5780TIP3    H117346   3.733   0.028   2.570 -1.8885  0.8857 -0.4116
 5780TIP3    H217347   3.817   0.016   2.444  0.6980 -0.5181  1.3392
 5781TIP3   OH217348   4.668   0.276   1.926  0.1008  0.1653 -0.0647
 5781TIP3    H117349   4.725   0.202   1.943 -0.0226  0.3137  1.0438
 5781TIP3    H217350   4.700   0.345   1.983  0.2415  0.9986 -1.1134
 5782TIP3   OH217351   2.504   1.470   2.461  0.0837  0.0958 -0.3019
 5782TIP3    H117352   2.448   1.493   2.535  0.1273 -1.4335  0.2396
 5782TIP3    H217353   2.507   1.549   2.408 -1.4934  0.6391  0.3493
 5783TIP3   OH217354   3.375   5.627   4.665  0.2513 -0.4430 -0.3008
 5783TIP3    H117355   3.344   5.702   4.615 -0.5599 -1.2934 -1.1315
 5783TIP3    H217356   3.309   5.559   4.649  1.5220 -1.6789 -0.4855
 5784TIP3   OH217357   1.250   4.563   2.956 -0.4748  0.4931  0.3033
 5784TIP3    H117358   1.221   4.512   3.031 -1.0195 -3.3345 -2.2332
 5784TIP3    H217359   1.201   4.646   2.963 -2.3866 -0.7081  2.7942
 5785TIP3   OH217360   2.830   3.182   1.995  0.0372 -0.2443 -0.1068
 5785TIP3    H117361   2.903   3.243   2.003 -0.3790  0.4006 -1.0458
 5785TIP3    H217362   2.768   3.210   2.063 -0.8361  1.4165 -1.4800
 5786TIP3   OH217363   2.090   1.389   1.784  0.1355  0.2053 -0.5264
 5786TIP3    H117364   2.100   1.333   1.707  0.2729 -0.0995 -0.2863
 5786TIP3    H217365   2.046   1.467   1.750  2.3381  1.1415 -1.4222
 5787TIP3   OH217366   4.719   0.384   1.313  0.3813 -0.7535  0.6152
 5787TIP3    H117367   4.771   0.396   1.234 -4.0408  0.6647 -2.4987
 5787TIP3    H217368   4.704   0.473   1.345 -1.0423 -0.9642  0.6193
 5788TIP3   OH217369   4.630   1.990   4.306 -0.2151  0.3232  0.0870
 5788TIP3    H117370   4.638   2.065   4.246  0.3951 -0.0243 -0.2720
 5788TIP3    H217371   4.546   1.950   4.283 -0.6286  0.9809  0.3918
 5789TIP3   OH217372   3.305   4.469   0.791 -0.0680 -0.2589  0.4103
 5789TIP3    H117373   3.332   4.513   0.710  1.9129 -0.2375  1.0087
 5789TIP3    H217374   3.252   4.395   0.762 -1.5048  1.1609 -0.7376
 5790TIP3   OH217375   5.387   0.711   0.858 -0.1755  0.0311  0.0491
 5790TIP3    H117376   5.420   0.635   0.906 -0.6561 -0.8726 -0.9998
 5790TIP3    H217377   5.313   0.741   0.909  0.4583  0.2557  0.8583
 5791TIP3   OH217378   0.435   4.997   1.029  0.0314  0.3195 -0.1150
 5791TIP3    H117379   0.415   4.964   1.116 -1.7740  0.5039 -0.4253
 5791TIP3    H217380   0.437   4.919   0.973 -0.9996  0.3969 -0.2765
 5792TIP3   OH217381   1.457   3.312   2.257 -0.4405 -0.4944 -0.5344
 5792TIP3    H117382   1.523   3.368   2.299  0.5984 -2.2066  0.2297
 5792TIP3    H217383   1.374   3.342   2.295  0.2831 -0.6974  1.3563
 5793TIP3   OH217384   3.951   1.061   2.932 -0.2134  0.4027 -0.2383
 5793TIP3    H117385   3.881   0.998   2.912 -1.3304  1.6909 -0.5386
 5793TIP3    H217386   3.995   1.025   3.008 -0.6391 -0.8879 -0.5783
 5794TIP3   OH217387   2.484   1.863   2.316 -0.2823 -0.3202  0.4116
 5794TIP3    H117388   2.494   1.771   2.291 -1.1193 -0.5364  0.8437
 5794TIP3    H217389   2.390   1.878   2.318 -0.1606  1.0221 -1.3430
 5795TIP3   OH217390   5.023   1.192   1.748  0.6705 -0.0012  0.5058
 5795TIP3    H117391   5.056   1.113   1.704  1.9417  0.7258  0.1142
 5795TIP3    H217392   4.929   1.191   1.730  0.8863 -0.6705 -0.7350
 5796TIP3   OH217393   2.247   5.104   3.287 -0.0454 -0.0928  0.1489
 5796TIP3    H117394   2.217   5.023   3.246 -0.0354 -1.3800  2.4899
 5796TIP3    H217395   2.244   5.169   3.217 -1.2988 -1.8053 -1.4932
 5797TIP3   OH217396   6.289   2.774   1.907 -0.3060  0.0238 -0.6192
 5797TIP3    H117397   6.246   2.844   1.859 -1.4867  0.8309  1.5089
 5797TIP3    H217398   6.381   2.800   1.909 -0.4098  0.5072 -1.4600
 5798TIP3   OH217399   2.399   2.889   4.801 -0.0195  0.1136 -0.3727
 5798TIP3    H117400   2.452   2.966   4.820  1.5183 -1.0586  0.2833
 5798TIP3    H217401   2.319   2.924   4.763  0.2716  2.0865  0.6983
 5799TIP3   OH217402   2.305   5.533   0.384  0.0750 -0.1924 -0.0391
 5799TIP3    H117403   2.216   5.562   0.365 -0.2524  0.7030  2.4156
 5799TIP3    H217404   2.299   5.438   0.385 -1.1952 -0.1413  1.2533
 5800TIP3   OH217405   6.164   3.888   1.527 -0.2461  0.2955 -0.1534
 5800TIP3    H117406   6.097   3.948   1.558 -1.2635 -0.1964 -1.3148
 5800TIP3    H217407   6.166   3.900   1.432 -0.4954 -1.4719 -0.4286
 5801TIP3   OH217408   0.934   5.242   5.083  0.2362 -0.3679 -0.5744
 5801TIP3    H117409   0.913   5.280   4.997 -1.1339  0.5228  0.1262
 5801TIP3    H217410   1.020   5.201   5.070 -0.1149 -0.6100 -2.4767
 5802TIP3   OH217411   3.795   2.833   4.499 -0.4301 -0.6273 -0.3731
 5802TIP3    H117412   3.793   2.785   4.416 -1.1096 -0.6431 -0.3503
 5802TIP3    H217413   3.784   2.924   4.473  0.0327 -0.5599 -0.3481
 5803TIP3   OH217414   5.963   0.573   0.618 -0.3915  0.6206  0.5167
 5803TIP3    H117415   5.909   0.531   0.685 -0.8858  1.2430  0.5202
 5803TIP3    H217416   5.937   0.665   0.620 -0.7182  0.5846 -0.8079
 5804TIP3   OH217417   2.455   2.457   2.562 -0.3991  0.6710  0.4061
 5804TIP3    H117418   2.376   2.422   2.603 -1.2210  0.2962 -1.4002
 5804TIP3    H217419   2.469   2.402   2.485  1.2896  1.1115  0.3618
 5805TIP3   OH217420   0.911   2.154   2.020 -0.2321 -0.0064 -0.2677
 5805TIP3    H117421   0.944   2.244   2.015 -0.8908  0.1512 -2.6580
 5805TIP3    H217422   0.823   2.162   2.057 -0.5984  0.4490 -1.2066
 5806TIP3   OH217423   4.897   4.086   2.412 -0.0295 -0.1342  0.5179
 5806TIP3    H117424   4.825   4.063   2.353 -0.6758 -1.6871  1.8361
 5806TIP3    H217425   4.948   4.151   2.364 -0.7009 -1.1079 -1.6145
 5807TIP3   OH217426   6.155   2.764   4.129  0.6038  0.4177  0.3447
 5807TIP3    H117427   6.144   2.684   4.078  0.6450  0.0575  0.8875
 5807TIP3    H217428   6.094   2.754   4.202 -0.8716  1.7729 -0.6273
 5808TIP3   OH217429   6.140   0.742   2.214 -0.2470  0.0066  0.2373
 5808TIP3    H117430   6.107   0.808   2.153  1.0337 -2.1288 -3.0491
 5808TIP3    H217431   6.107   0.659   2.180  2.4044 -1.5205  1.1050
 5809TIP3   OH217432   5.517   5.010   0.388 -0.2513 -0.5553  0.3020
 5809TIP3    H117433   5.535   5.015   0.294  0.2270  2.4100  0.4623
 5809TIP3    H217434   5.430   5.048   0.399 -0.2205 -0.6808  1.1030
 5810TIP3   OH217435   5.451   4.065   3.892  0.2481  0.4116  0.1674
 5810TIP3    H117436   5.359   4.054   3.868  0.0964  2.7110 -0.4962
 5810TIP3    H217437   5.455   4.040   3.984 -1.3820  1.7685  0.6624
 5811TIP3   OH217438   3.446   2.043   3.932  0.2790  0.5772 -0.4428
 5811TIP3    H117439   3.357   2.075   3.948  0.6451  0.5827  1.8698
 5811TIP3    H217440   3.436   1.949   3.921 -0.0160  0.5705 -0.1336
 5812TIP3   OH217441   0.681   0.123   1.134 -0.1822  0.3759 -0.3086
 5812TIP3    H117442   0.644   0.210   1.120 -0.6652  0.2244  0.0142
 5812TIP3    H217443   0.659   0.074   1.055 -0.6562  0.2920 -0.1246
 5813TIP3   OH217444   3.341   5.022   3.365 -0.0697  0.2142 -0.2422
 5813TIP3    H117445   3.247   5.008   3.381  0.1901 -1.0989  0.2365
 5813TIP3    H217446   3.379   5.032   3.453  0.1742  1.2704 -0.4574
 5814TIP3   OH217447   4.800   2.077   1.548 -0.1650  0.4376  0.3385
 5814TIP3    H117448   4.760   2.148   1.598  1.5518  0.8331  1.2430
 5814TIP3    H217449   4.893   2.099   1.546  0.1562 -0.8725 -0.9232
 5815TIP3   OH217450   0.762   4.431   3.666  0.7418 -0.3879  0.2968
 5815TIP3    H117451   0.713   4.394   3.740  0.5315 -1.3834 -0.3303
 5815TIP3    H217452   0.772   4.358   3.605 -0.1539  0.7145 -1.2185
 5816TIP3   OH217453   1.030   5.552   1.996 -0.4449  0.4899 -0.2042
 5816TIP3    H117454   1.055   5.498   1.921  0.2332  0.6686 -0.1127
 5816TIP3    H217455   1.063   5.639   1.975  0.7205  0.3077  0.7756
 5817TIP3   OH217456   4.049   4.663   3.233 -0.3419 -0.2651 -0.4736
 5817TIP3    H117457   3.984   4.704   3.290 -0.3796  0.1333 -0.8021
 5817TIP3    H217458   4.128   4.714   3.245  0.0368 -0.9935  0.2286
 5818TIP3   OH217459   0.998   2.215   0.904  0.4166  0.3475  0.1263
 5818TIP3    H117460   1.067   2.185   0.962 -0.9504 -1.7594  0.7615
 5818TIP3    H217461   1.022   2.180   0.818 -0.7739 -2.1244  0.7178
 5819TIP3   OH217462   5.648   1.391   3.339  0.0943 -0.3369  0.1452
 5819TIP3    H117463   5.640   1.297   3.357  3.6444 -1.2696 -2.1390
 5819TIP3    H217464   5.727   1.417   3.388  0.4764  0.8623 -1.0695
 5820TIP3   OH217465   5.751   0.508   2.080  0.0412 -0.0545 -0.3380
 5820TIP3    H117466   5.709   0.434   2.124 -0.0213 -0.8689 -1.7304
 5820TIP3    H217467   5.719   0.585   2.127  0.3267 -0.9037  1.3142
 5821TIP3   OH217468   2.833   4.748   5.075  0.3610 -0.6262  0.1584
 5821TIP3    H117469   2.862   4.751   4.984 -0.6283  1.4112 -0.1516
 5821TIP3    H217470   2.740   4.725   5.070  0.4597 -1.1686  0.7007
 5822TIP3   OH217471   5.279   4.654   1.159  0.0992  0.4780  0.1016
 5822TIP3    H117472   5.345   4.621   1.220  2.5076  1.7371 -1.6471
 5822TIP3    H217473   5.228   4.576   1.135 -0.5072 -0.1601  3.0743
 5823TIP3   OH217474   5.399   4.178   5.122 -0.0272 -0.3620  0.3087
 5823TIP3    H117475   5.343   4.120   5.174  1.8682 -1.0211  1.7801
 5823TIP3    H217476   5.439   4.237   5.186  1.1665 -0.1219 -0.6078
 5824TIP3   OH217477   1.456   3.846   0.393  0.6072 -0.0796 -0.0668
 5824TIP3    H117478   1.424   3.765   0.434 -0.4575 -0.3384 -1.3448
 5824TIP3    H217479   1.402   3.915   0.431  1.2361  0.0040  0.7118
 5825TIP3   OH217480   1.203   0.034   0.246 -0.4105  0.1497 -0.4526
 5825TIP3    H117481   1.298   0.030   0.256 -0.1976  1.3755 -1.6951
 5825TIP3    H217482   1.170   0.031   0.336  0.9571  2.5252  0.2190
 5826TIP3   OH217483   4.023   3.244   0.757  0.0612 -0.0878  0.6513
 5826TIP3    H117484   4.100   3.216   0.707 -0.9850  0.9678 -1.7266
 5826TIP3    H217485   4.052   3.322   0.804  0.2302  0.9886 -1.1290
 5827TIP3   OH217486   5.301   2.570   2.008 -0.4613 -0.2752  0.0654
 5827TIP3    H117487   5.363   2.506   1.973  0.2007 -0.3102  1.2639
 5827TIP3    H217488   5.262   2.527   2.083  0.0924  0.7453  0.9745
 5828TIP3   OH217489   5.756   0.773   2.203 -0.2585  0.0391  0.1773
 5828TIP3    H117490   5.713   0.825   2.272 -0.1541  0.2423  0.0914
 5828TIP3    H217491   5.849   0.793   2.213 -0.4204  2.1871 -1.7012
 5829TIP3   OH217492   3.431   3.421   1.862  0.3943  0.2497 -0.1951
 5829TIP3    H117493   3.494   3.361   1.821  0.5220 -1.1783  1.9293
 5829TIP3    H217494   3.417   3.385   1.950 -0.9219  2.3650  0.5432
 5830TIP3   OH217495   2.702   4.109   4.064 -0.6695 -0.6022 -0.4273
 5830TIP3    H117496   2.715   4.178   4.129 -2.3740  1.7678 -2.4308
 5830TIP3    H217497   2.631   4.055   4.101  0.5454 -1.2612  1.0691
 5831TIP3   OH217498   1.606   5.675   4.354  0.0969  0.1127 -0.2615
 5831TIP3    H117499   1.612   5.625   4.273 -0.0961 -2.2374  1.0730
 5831TIP3    H217500   1.694   5.668   4.393 -0.0490  0.4694  0.1442
 5832TIP3   OH217501   3.169   0.562   3.669  1.1659  0.0719  0.4182
 5832TIP3    H117502   3.104   0.619   3.628  2.2608 -0.1700 -1.7740
 5832TIP3    H217503   3.141   0.556   3.761 -2.1404 -0.4385 -0.5244
 5833TIP3   OH217504   2.689   4.378   1.877 -0.0580  0.6760 -0.5406
 5833TIP3    H117505   2.744   4.352   1.803 -1.6843 -1.7321 -1.0203
 5833TIP3    H217506   2.617   4.426   1.837 -2.1221 -2.5183 -0.9411
 5834TIP3   OH217507   4.839   3.180   1.418 -0.4332  0.5829  0.3571
 5834TIP3    H117508   4.906   3.146   1.478  0.8077 -0.5490 -1.5640
 5834TIP3    H217509   4.761   3.128   1.438  0.1822 -0.3192  0.5016
 5835TIP3   OH217510   3.907   2.534   0.274  0.3598  0.1967 -0.1531
 5835TIP3    H117511   3.821   2.572   0.289  0.9258  1.3525  0.2626
 5835TIP3    H217512   3.895   2.441   0.293 -0.1535  0.7709  2.7035
 5836TIP3   OH217513   5.790   3.536   2.229  0.2800 -0.3178  0.4085
 5836TIP3    H117514   5.866   3.502   2.276 -0.5800 -2.0826  0.5667
 5836TIP3    H217515   5.719   3.476   2.250 -1.0198  0.9235 -0.2639
 5837TIP3   OH217516   1.415   4.844   1.669  0.2499 -0.0624  0.2050
 5837TIP3    H117517   1.383   4.917   1.723  0.2129 -0.0277  0.1362
 5837TIP3    H217518   1.509   4.844   1.683  0.1710 -0.4646  0.7824
 5838TIP3   OH217519   2.767   1.416   0.594 -0.1746 -0.0366 -0.0731
 5838TIP3    H117520   2.850   1.436   0.551  0.5330  0.1119  1.3001
 5838TIP3    H217521   2.790   1.352   0.661 -0.9620  0.8879  1.1060
 5839TIP3   OH217522   0.728   1.685   2.244  0.7871  0.3286 -0.7484
 5839TIP3    H117523   0.638   1.711   2.265  1.1739  1.5080 -0.4854
 5839TIP3    H217524   0.738   1.705   2.151  0.1238 -1.8183 -1.3408
 5840TIP3   OH217525   3.412   5.296   4.031 -0.4709  0.4268  0.2205
 5840TIP3    H117526   3.492   5.245   4.016 -1.1108 -1.1499  1.7830
 5840TIP3    H217527   3.437   5.386   4.010  1.2728 -0.2174 -0.7457
 5841TIP3   OH217528   0.433   3.880   3.690 -0.5683  0.1549  0.0407
 5841TIP3    H117529   0.448   3.974   3.682  1.4994 -0.1989 -0.7116
 5841TIP3    H217530   0.428   3.849   3.599 -1.0333 -0.5086  0.2847
 5842TIP3   OH217531   2.119   3.477   2.736  0.5471  0.1520 -0.2489
 5842TIP3    H117532   2.132   3.382   2.729  2.4620  0.3516  0.1396
 5842TIP3    H217533   2.087   3.490   2.826 -1.5403 -0.2501 -0.8734
 5843TIP3   OH217534   1.566   1.814   4.020 -0.1621 -0.3164  0.1545
 5843TIP3    H117535   1.543   1.722   4.005 -1.7384  0.3259 -1.7838
 5843TIP3    H217536   1.507   1.843   4.089  0.6654 -0.8423  1.1149
 5844TIP3   OH217537   3.975   4.706   4.798  0.5388  0.1948  0.0124
 5844TIP3    H117538   3.903   4.711   4.735 -0.5947  0.0713  1.2311
 5844TIP3    H217539   3.979   4.793   4.838  0.8569  0.1133  0.1612
 5845TIP3   OH217540   3.136   2.336   2.087  0.1720 -0.1065 -0.1745
 5845TIP3    H117541   3.172   2.414   2.044  1.0133 -0.0208  0.6510
 5845TIP3    H217542   3.097   2.285   2.016  0.0655  0.8162 -0.7997
 5846TIP3   OH217543   1.954   1.948   0.763 -0.4363 -0.1317 -0.2182
 5846TIP3    H117544   2.036   1.977   0.723  1.2648 -0.3942  2.8091
 5846TIP3    H217545   1.965   1.853   0.773 -1.3217 -0.2377 -0.1761
 5847TIP3   OH217546   3.630   3.303   3.777 -0.2567  0.5166  0.5918
 5847TIP3    H117547   3.587   3.287   3.861 -0.3785  0.7732  0.5814
 5847TIP3    H217548   3.686   3.227   3.763 -1.6194 -0.4285  0.0267
 5848TIP3   OH217549   3.838   1.678   3.283 -0.1177  0.2101  0.3340
 5848TIP3    H117550   3.929   1.666   3.311 -0.5270 -1.3087  1.1186
 5848TIP3    H217551   3.823   1.607   3.221 -0.7727  0.4680  0.1939
 5849TIP3   OH217552   4.033   3.149   4.619 -0.2468  0.3935  0.0295
 5849TIP3    H117553   4.088   3.139   4.697 -0.9064  1.2160  0.6231
 5849TIP3    H217554   4.014   3.243   4.615 -1.2053  0.1922 -0.4348
 5850TIP3   OH217555   5.668   5.107   2.670  0.1468  0.3654  0.5264
 5850TIP3    H117556   5.714   5.189   2.650 -0.7589  0.8255  0.3025
 5850TIP3    H217557   5.588   5.110   2.618 -0.0918 -0.4787  0.8260
 5851TIP3   OH217558   1.026   1.880   3.444  0.0060  0.2145  0.0323
 5851TIP3    H117559   1.005   1.883   3.537 -0.9850  3.2462 -0.1680
 5851TIP3    H217560   1.118   1.855   3.441 -0.6577 -2.9108  1.5630
 5852TIP3   OH217561   4.993   1.938   4.190  0.7998  0.2288 -0.4773
 5852TIP3    H117562   5.077   1.983   4.203 -0.8019  2.9216  1.7274
 5852TIP3    H217563   4.945   1.954   4.271 -1.1734 -2.9230 -0.8779
 5853TIP3   OH217564   5.735   1.404   1.017  0.0380  0.4842  0.6557
 5853TIP3    H117565   5.700   1.360   1.094  0.6630 -0.5773  0.3632
 5853TIP3    H217566   5.824   1.430   1.042  1.4066 -2.5328 -0.5778
 5854TIP3   OH217567   5.642   4.669   3.842  0.3101 -0.1369 -0.1050
 5854TIP3    H117568   5.566   4.658   3.898  1.2012 -0.6891  1.0403
 5854TIP3    H217569   5.708   4.711   3.898  1.4248 -1.2626 -0.5201
 5855TIP3   OH217570   1.606   2.730   3.505  0.1859  0.1591  0.3843
 5855TIP3    H117571   1.594   2.635   3.501 -0.5789  0.2481  0.3808
 5855TIP3    H217572   1.701   2.743   3.496  0.2454 -0.5729 -0.1228
 5856TIP3   OH217573   5.216   4.678   0.807  0.2084  0.2131 -0.3648
 5856TIP3    H117574   5.205   4.746   0.873  1.0325 -1.4481  1.5783
 5856TIP3    H217575   5.134   4.680   0.757 -1.3553  0.2321  2.0093
 5857TIP3   OH217576   5.805   0.902   3.547 -0.3828 -0.0945  0.1042
 5857TIP3    H117577   5.812   0.838   3.617  0.4630  0.2982  0.3955
 5857TIP3    H217578   5.892   0.942   3.543 -0.5970  0.2973 -0.7734
 5858TIP3   OH217579   6.345   0.710   0.189  0.3861  0.0650  0.6886
 5858TIP3    H117580   6.288   0.734   0.262 -0.2447  0.3279  0.1175
 5858TIP3    H217581   6.333   0.615   0.179  1.3217 -0.1745  1.6262
 5859TIP3   OH217582   2.682   1.467   1.395 -0.9867 -0.4361 -0.3645
 5859TIP3    H117583   2.651   1.390   1.443 -0.3996 -0.9762 -0.8317
 5859TIP3    H217584   2.769   1.442   1.364 -1.6307 -0.4147 -2.3634
 5860TIP3   OH217585   3.649   0.261   1.696 -0.0677 -0.2668  0.3695
 5860TIP3    H117586   3.620   0.270   1.787  0.0358  0.7311  0.3104
 5860TIP3    H217587   3.603   0.331   1.649 -1.1982 -1.6119 -0.6308
 5861TIP3   OH217588   0.491   3.600   3.252  0.4174  0.6494 -0.0140
 5861TIP3    H117589   0.586   3.602   3.267  0.1156 -2.0164  3.4415
 5861TIP3    H217590   0.453   3.622   3.337 -2.0972  1.0163 -1.1646
 5862TIP3   OH217591   2.421   1.868   4.860 -0.4913  0.4583  0.2069
 5862TIP3    H117592   2.355   1.821   4.911  0.5056  0.0057  1.1319
 5862TIP3    H217593   2.502   1.819   4.875 -0.1766  0.2488 -1.9199
 5863TIP3   OH217594   3.924   3.490   3.195  0.4119  0.1214 -1.2055
 5863TIP3    H117595   3.879   3.405   3.192  2.4135 -1.0583 -0.1499
 5863TIP3    H217596   3.870   3.544   3.252 -0.3128 -0.8323 -0.9633
 5864TIP3   OH217597   3.299   0.048   0.072 -0.1156  0.2634  0.7197
 5864TIP3    H117598   3.304   0.097  -0.010  1.3894 -0.6661  0.2048
 5864TIP3    H217599   3.322   0.111   0.140  0.6583  0.5608  0.1910
 5865TIP3   OH217600   2.250   3.396   0.026 -0.2261  0.3185 -0.3627
 5865TIP3    H117601   2.303   3.464  -0.015 -1.2247  1.2862 -0.0932
 5865TIP3    H217602   2.288   3.314  -0.004  1.0239  0.9949 -0.6690
 5866TIP3   OH217603   1.744   1.849   2.596 -0.3289 -0.0940  0.3877
 5866TIP3    H117604   1.800   1.919   2.629  1.1180 -0.4633 -1.1533
 5866TIP3    H217605   1.682   1.894   2.538 -2.0340  0.3768  2.4413
 5867TIP3   OH217606   5.122   5.957   0.961 -0.4595 -0.1817 -1.0819
 5867TIP3    H117607   5.128   5.940   1.055  0.7999  0.8109 -0.9630
 5867TIP3    H217608   5.114   5.870   0.922  0.0826 -0.6829 -0.1221
 5868TIP3   OH217609   2.784   3.692   0.365 -0.7368 -0.2602  0.3465
 5868TIP3    H117610   2.727   3.753   0.411 -0.8906 -0.3443  0.2691
 5868TIP3    H217611   2.729   3.614   0.351 -0.3922 -0.5984  0.8699
 5869TIP3   OH217612   4.865   2.024   1.821  0.4602  0.1592  0.2044
 5869TIP3    H117613   4.815   1.955   1.777 -0.2165  0.0621  1.1016
 5869TIP3    H217614   4.852   2.101   1.766  0.3441 -0.1578 -0.2253
 5870TIP3   OH217615   4.325   3.204   2.309  0.1869  0.3369  0.5438
 5870TIP3    H117616   4.393   3.139   2.327  1.1762  1.0600 -0.4506
 5870TIP3    H217617   4.265   3.197   2.383 -0.0191 -2.0326  0.2447
 5871TIP3   OH217618   4.245   4.742   0.830  0.2056  0.3487  0.4508
 5871TIP3    H117619   4.253   4.740   0.925  0.7952  0.8979  0.4186
 5871TIP3    H217620   4.305   4.811   0.802 -1.8983  2.0712 -0.1019
 5872TIP3   OH217621   2.956   2.247   3.298 -0.2418 -0.4649 -0.5062
 5872TIP3    H117622   2.921   2.167   3.259 -0.1718 -0.8067  0.1234
 5872TIP3    H217623   2.960   2.309   3.226 -2.1585 -0.4143 -0.6187
 5873TIP3   OH217624   2.365   5.039   2.027 -0.3721 -0.0208 -0.4648
 5873TIP3    H117625   2.284   5.009   2.069 -0.3203  1.2781  0.6475
 5873TIP3    H217626   2.346   5.129   2.000  1.3343  1.1558  1.8519
 5874TIP3   OH217627   2.318   2.675   4.592  0.0311  0.2203 -0.3318
 5874TIP3    H117628   2.374   2.746   4.621  0.1802 -0.1843  0.4016
 5874TIP3    H217629   2.323   2.610   4.662 -0.5232 -0.2789 -0.7394
 5875TIP3   OH217630   1.738   3.842   1.903  0.4800  0.2265  0.1040
 5875TIP3    H117631   1.707   3.931   1.921  0.1353 -0.0612  0.9987
 5875TIP3    H217632   1.663   3.797   1.864 -0.0662 -0.2788  1.6591
 5876TIP3   OH217633   4.908   3.595   4.392  0.2770  0.0207  0.0554
 5876TIP3    H117634   4.818   3.612   4.362 -0.1569 -1.4572  0.4155
 5876TIP3    H217635   4.940   3.528   4.332  0.2028 -1.3182  1.4537
 5877TIP3   OH217636   3.139   1.950   1.668  0.2852 -0.2081  0.0048
 5877TIP3    H117637   3.093   1.898   1.602  0.3982  1.0997 -1.1516
 5877TIP3    H217638   3.129   1.899   1.749  2.4147 -3.2520 -1.4385
 5878TIP3   OH217639   3.470   1.138   3.929 -0.3785  0.3176  0.1267
 5878TIP3    H117640   3.545   1.179   3.885 -1.5364  0.6472 -1.6436
 5878TIP3    H217641   3.504   1.056   3.964  0.8746  0.5781 -0.4279
 5879TIP3   OH217642   3.263   2.043   3.304  0.3468  0.2245 -0.1133
 5879TIP3    H117643   3.236   1.986   3.232 -0.0770  0.2024  0.0593
 5879TIP3    H217644   3.194   2.110   3.308 -1.1489 -1.3028  2.0271
 5880TIP3   OH217645   5.785   5.562   0.095  0.4972 -0.4873  0.1839
 5880TIP3    H117646   5.692   5.570   0.114 -0.0548  0.5060 -2.4462
 5880TIP3    H217647   5.829   5.597   0.172 -1.2916 -0.4989  1.2707
 5881TIP3   OH217648   3.131   2.514   3.376 -0.1181 -0.3056 -0.3466
 5881TIP3    H117649   3.189   2.449   3.336 -0.6469 -0.7776 -0.3554
 5881TIP3    H217650   3.098   2.565   3.302  1.2858  0.8208 -0.2384
 5882TIP3   OH217651   5.261   3.751   0.431  0.2122  0.1093  0.5367
 5882TIP3    H117652   5.316   3.749   0.509  0.9855  0.5649  0.0206
 5882TIP3    H217653   5.269   3.840   0.398 -0.9881  0.2357  0.5405
 5883TIP3   OH217654   1.564   4.303   2.267 -0.8405  0.0053 -0.0163
 5883TIP3    H117655   1.551   4.353   2.187  0.3321 -1.7187 -1.3652
 5883TIP3    H217656   1.629   4.354   2.316 -2.6824  1.8589  0.6280
 5884TIP3   OH217657   0.347   5.938   2.582  0.6970  0.6487  0.4845
 5884TIP3    H117658   0.416   5.875   2.604  2.1184  2.0821  0.3626
 5884TIP3    H217659   0.306   5.958   2.666 -0.1564 -0.8121  0.4502
 5885TIP3   OH217660   6.355   0.428   3.581 -0.2534  0.1953 -0.2819
 5885TIP3    H117661   6.260   0.422   3.569 -0.3254 -0.4256  0.5527
 5885TIP3    H217662   6.391   0.359   3.525 -0.4223 -0.8273  0.8271
 5886TIP3   OH217663   6.108   5.018   0.083  0.2597  0.8320  0.4586
 5886TIP3    H117664   6.029   4.970   0.108  0.1731  1.2879  1.0960
 5886TIP3    H217665   6.155   4.958   0.026 -0.7559  0.7215 -0.2913
 5887TIP3   OH217666   5.453   0.391   3.341  0.1654  0.1103  0.1635
 5887TIP3    H117667   5.430   0.300   3.322  0.4295 -0.1916  1.1999
 5887TIP3    H217668   5.549   0.390   3.346  0.2308  0.6460 -0.7244
 5888TIP3   OH217669   0.953   3.758   3.772  0.4172  0.3038 -0.1793
 5888TIP3    H117670   0.997   3.676   3.749 -0.8397  0.2457 -2.6192
 5888TIP3    H217671   0.868   3.753   3.729 -0.4185  2.1331  1.1402
 5889TIP3   OH217672   6.011   4.930   3.434  0.2788  0.3862 -0.7812
 5889TIP3    H117673   6.074   4.998   3.409  0.2017  1.0231  0.6427
 5889TIP3    H217674   6.021   4.922   3.529 -1.2445 -0.0547 -0.6268
 5890TIP3   OH217675   2.762   5.179   0.421  0.2676 -0.3017 -0.1831
 5890TIP3    H117676   2.777   5.207   0.331  0.2486 -2.2058 -0.8207
 5890TIP3    H217677   2.849   5.165   0.456  0.2725  0.3792  0.1023
 5891TIP3   OH217678   0.793   0.243   2.555 -0.3513  0.2771 -0.3235
 5891TIP3    H117679   0.747   0.181   2.613  0.3871 -0.3180 -0.3496
 5891TIP3    H217680   0.772   0.213   2.467 -0.0341  0.0777 -0.3363
 5892TIP3   OH217681   1.520   1.586   1.824 -0.2785  0.1309 -0.1770
 5892TIP3    H117682   1.512   1.499   1.785 -0.1552 -0.2474  0.6278
 5892TIP3    H217683   1.441   1.633   1.794 -1.9657 -1.2396  1.8362
 5893TIP3   OH217684   1.708   4.578   0.560 -0.1331  0.6765 -0.7311
 5893TIP3    H117685   1.664   4.547   0.481  0.5511  0.4525 -1.0363
 5893TIP3    H217686   1.664   4.532   0.632 -0.4016  0.4676 -1.0252
 5894TIP3   OH217687   2.759   3.633   2.321  0.2324 -0.6813  0.5955
 5894TIP3    H117688   2.846   3.600   2.300  0.1512 -1.9672  2.1343
 5894TIP3    H217689   2.770   3.728   2.321  0.7609 -0.6243 -2.6898
 5895TIP3   OH217690   1.060   4.092   5.030  0.5543 -0.0722  0.4587
 5895TIP3    H117691   1.053   4.134   4.944  0.6693  0.8681  0.8963
 5895TIP3    H217692   1.033   4.002   5.015 -0.1626  0.2775 -0.4154
 5896TIP3   OH217693   0.071   2.480   4.982  0.0520  0.0491  0.5158
 5896TIP3    H117694   0.014   2.414   5.021 -0.0553  1.6247  3.2686
 5896TIP3    H217695   0.154   2.471   5.028  0.7336  0.4653 -0.5809
 5897TIP3   OH217696   2.770   3.036   0.021 -0.4018 -0.4017  0.9222
 5897TIP3    H117697   2.737   3.003   0.105 -2.4864  2.5293  1.4160
 5897TIP3    H217698   2.806   3.122   0.042  1.6665 -0.7596 -0.8080
 5898TIP3   OH217699   3.054   3.819   5.022 -0.3122 -0.6423 -0.1650
 5898TIP3    H117700   2.966   3.828   4.985  0.3847  2.6768 -1.4075
 5898TIP3    H217701   3.096   3.751   4.970 -1.1970 -0.0653 -1.6722
 5899TIP3   OH217702   2.903   1.112   0.735 -0.0484  0.0362  0.2291
 5899TIP3    H117703   2.943   1.179   0.789 -0.1837 -1.1997  1.9499
 5899TIP3    H217704   2.822   1.088   0.781 -0.4726 -0.6508 -0.8264
 5900TIP3   OH217705   3.436   5.622   4.254 -0.0206  0.9689  0.2729
 5900TIP3    H117706   3.378   5.554   4.219  0.5130 -0.3264  1.7510
 5900TIP3    H217707   3.524   5.584   4.247  0.1022  0.5166  3.0595
 5901TIP3   OH217708   5.258   2.237   2.513  0.0465 -0.1122  0.1626
 5901TIP3    H117709   5.252   2.269   2.603  0.1207  2.9519 -0.7719
 5901TIP3    H217710   5.246   2.143   2.519 -1.5562  0.1742  3.1869
 5902TIP3   OH217711   4.768   0.492   2.090  0.5325 -0.1349  0.0195
 5902TIP3    H117712   4.807   0.567   2.045 -1.2610  1.8277  1.5722
 5902TIP3    H217713   4.832   0.469   2.158 -0.0709  1.8330  1.3344
 5903TIP3   OH217714   0.213   4.441   1.401 -0.5703  0.3803  0.7139
 5903TIP3    H117715   0.118   4.433   1.389 -0.6229  0.7874  0.8483
 5903TIP3    H217716   0.245   4.351   1.397 -1.3336 -0.1404  3.8052
 5904TIP3   OH217717   1.655   5.762   2.678  0.4868  0.3589  0.2547
 5904TIP3    H117718   1.629   5.702   2.747  1.2401  0.1596  0.3754
 5904TIP3    H217719   1.739   5.798   2.708 -0.1105  1.7381  0.3575
 5905TIP3   OH217720   1.369   4.963   4.582 -0.4124  0.0862  0.4504
 5905TIP3    H117721   1.305   4.892   4.592 -1.4769  0.9109 -0.2483
 5905TIP3    H217722   1.412   4.968   4.667 -0.0058 -1.6599  0.3943
 5906TIP3   OH217723   5.125   5.718   2.214  0.1075 -0.0170 -0.6983
 5906TIP3    H117724   5.082   5.713   2.129 -2.4227 -0.2302  0.4841
 5906TIP3    H217725   5.145   5.627   2.236  0.2909 -0.0083 -0.8219
 5907TIP3   OH217726   1.197   1.951   3.797  0.4566 -0.3515  0.2609
 5907TIP3    H117727   1.219   2.038   3.829 -0.8111  0.1694 -0.2004
 5907TIP3    H217728   1.281   1.908   3.781  1.1651  1.6630 -1.8509
 5908TIP3   OH217729   1.370   5.737   2.760  0.0620  0.0937  0.0311
 5908TIP3    H117730   1.281   5.755   2.791  0.2102  0.0843  0.4600
 5908TIP3    H217731   1.424   5.736   2.839  0.5756  0.8409 -0.3035
 5909TIP3   OH217732   5.804   4.010   1.216  0.1268 -0.1053  0.0819
 5909TIP3    H117733   5.819   3.953   1.291  1.5837  0.5046  0.2730
 5909TIP3    H217734   5.770   3.951   1.148 -3.8018 -0.2920  1.9066
 5910TIP3   OH217735   2.497   2.473   3.453 -0.2419 -0.2842 -0.0605
 5910TIP3    H117736   2.515   2.521   3.534 -1.1805  0.3991 -0.2290
 5910TIP3    H217737   2.582   2.439   3.425  0.4888  1.3520  0.0466
 5911TIP3   OH217738   5.466   4.673   2.280 -0.7569  0.3813 -0.2188
 5911TIP3    H117739   5.462   4.670   2.375 -0.7862 -0.1067 -0.2328
 5911TIP3    H217740   5.376   4.665   2.251 -0.8849  1.8039 -0.2671
 5912TIP3   OH217741   4.968   2.369   0.130  0.1649  0.2752 -0.4111
 5912TIP3    H117742   4.974   2.418   0.048 -0.4911  0.4319 -0.3724
 5912TIP3    H217743   5.000   2.430   0.196 -1.8338  1.1367 -0.1860
 5913TIP3   OH217744   6.208   5.266   0.051 -0.1393 -0.3433 -0.2445
 5913TIP3    H117745   6.221   5.287   0.144  0.6796 -2.4380  0.1573
 5913TIP3    H217746   6.151   5.190   0.052 -1.5206  0.6209 -1.5667
 5914TIP3   OH217747   5.408   3.674   4.592 -0.2561  0.4831 -0.0206
 5914TIP3    H117748   5.472   3.605   4.610  0.0899  0.8316  0.0988
 5914TIP3    H217749   5.323   3.630   4.599 -0.0263 -0.0378 -0.4219
 5915TIP3   OH217750   5.766   0.415   1.183 -0.3799  0.1032  0.0159
 5915TIP3    H117751   5.728   0.497   1.152 -1.6339 -0.3571  0.2936
 5915TIP3    H217752   5.861   0.430   1.178 -0.5745  1.2778 -0.6834
 5916TIP3   OH217753   4.333   4.981   3.547 -0.0727 -0.6389  0.0872
 5916TIP3    H117754   4.270   4.921   3.588  1.2833 -1.8704  0.4495
 5916TIP3    H217755   4.289   5.011   3.468 -0.8433 -2.0568 -0.0656
 5917TIP3   OH217756   3.053   3.633   2.435 -0.2033 -0.1761  0.3750
 5917TIP3    H117757   3.148   3.628   2.447 -0.0465 -0.2379 -0.7679
 5917TIP3    H217758   3.037   3.725   2.412 -0.1472 -0.5894 -1.4357
 5918TIP3   OH217759   4.156   1.382   3.357 -0.1082 -0.1043  0.0431
 5918TIP3    H117760   4.138   1.303   3.409  0.0304  0.3069  0.7228
 5918TIP3    H217761   4.215   1.434   3.411 -0.4405  0.6118 -0.2728
 5919TIP3   OH217762   5.131   0.393   2.895 -0.5290 -0.7586  0.4238
 5919TIP3    H117763   5.041   0.396   2.861  0.7001 -0.7920 -3.3494
 5919TIP3    H217764   5.168   0.478   2.871  1.5751 -2.2387 -2.1556
 5920TIP3   OH217765   3.884   4.839   3.043  0.6862  0.0827 -0.0556
 5920TIP3    H117766   3.861   4.852   3.135  0.9587 -1.4437  0.2631
 5920TIP3    H217767   3.915   4.925   3.013  0.6993  0.5743  1.3022
 5921TIP3   OH217768   2.904   2.314   0.160  0.2915  0.3427 -0.2726
 5921TIP3    H117769   2.843   2.384   0.183  1.4353  0.9254  1.1504
 5921TIP3    H217770   2.853   2.253   0.107 -0.9676  1.8127 -0.8130
 5922TIP3   OH217771   2.348   3.072   2.235  0.1680  0.3190 -0.0612
 5922TIP3    H117772   2.287   3.046   2.304  1.7718 -0.1814  1.2316
 5922TIP3    H217773   2.311   3.153   2.199 -2.0819 -0.7884 -0.4569
 5923TIP3   OH217774   5.240   3.089   3.628 -0.6541  0.1949  0.1327
 5923TIP3    H117775   5.194   3.008   3.605 -1.7012  0.0092  2.6085
 5923TIP3    H217776   5.330   3.075   3.597 -0.8352 -1.8886  0.4053
 5924TIP3   OH217777   6.078   3.008   4.738  0.4294  0.7467 -0.1059
 5924TIP3    H117778   6.133   3.085   4.727  0.1707  0.9153 -0.2310
 5924TIP3    H217779   6.114   2.944   4.677  1.8154  0.1036  1.3212
 5925TIP3   OH217780   1.698   5.606   5.058  0.0896 -0.0627 -0.2450
 5925TIP3    H117781   1.762   5.658   5.107  0.9493 -1.9198  0.7202
 5925TIP3    H217782   1.747   5.529   5.029 -1.3739 -0.8790 -0.6629
 5926TIP3   OH217783   1.260   1.746   0.814  0.4341  0.3147 -0.4229
 5926TIP3    H117784   1.209   1.708   0.742  0.7636  0.7420 -0.8877
 5926TIP3    H217785   1.207   1.818   0.846  1.1124  1.3183 -1.4826
 5927TIP3   OH217786   0.518   2.838   3.494 -0.1663 -0.2081 -0.3149
 5927TIP3    H117787   0.513   2.889   3.576 -0.3796 -3.0629  1.5861
 5927TIP3    H217788   0.568   2.894   3.435 -0.1816  2.1014  1.6865
 5928TIP3   OH217789   0.146   1.648   3.861  0.0992 -0.4799  0.7354
 5928TIP3    H117790   0.216   1.703   3.895 -0.2935 -0.5971  1.7703
 5928TIP3    H217791   0.182   1.560   3.859  0.2334 -0.4204  0.5226
 5929TIP3   OH217792   4.461   3.989   4.708 -0.1638  0.4723  0.1304
 5929TIP3    H117793   4.415   4.064   4.747 -0.0614  2.3152 -2.9323
 5929TIP3    H217794   4.548   4.023   4.687  0.8592 -1.3987  1.1363
 5930TIP3   OH217795   4.494   3.785   1.557 -0.1530 -0.1074 -0.0692
 5930TIP3    H117796   4.419   3.729   1.577  2.0403 -3.6425 -0.8586
 5930TIP3    H217797   4.541   3.792   1.641 -0.7676  1.2391  0.1882
 5931TIP3   OH217798   0.668   4.629   4.537  0.0979 -0.4147  0.0704
 5931TIP3    H117799   0.598   4.587   4.487 -0.3604  0.1700  0.2102
 5931TIP3    H217800   0.649   4.610   4.628  1.3331 -2.0926  0.0163
 5932TIP3   OH217801   0.159   3.754   3.112 -0.0580 -0.2092 -0.1668
 5932TIP3    H117802   0.105   3.809   3.169 -0.6854 -0.1486 -0.7940
 5932TIP3    H217803   0.096   3.716   3.050  0.5652 -0.5157 -0.6192
 5933TIP3   OH217804   3.194   4.581   5.031  0.4306 -0.0462  0.0658
 5933TIP3    H117805   3.207   4.658   5.086  1.0818 -0.3594  0.3733
 5933TIP3    H217806   3.101   4.562   5.036 -0.0308  1.6341 -1.2713
 5934TIP3   OH217807   5.920   4.569   3.954  0.3768 -0.2546  0.1860
 5934TIP3    H117808   5.874   4.487   3.972  0.9497 -0.2254  2.0035
 5934TIP3    H217809   5.923   4.574   3.859  2.2116 -3.4191 -0.0549
 5935TIP3   OH217810   3.739   3.472   0.177 -0.4322  0.0448 -0.2313
 5935TIP3    H117811   3.659   3.435   0.140 -0.1252 -0.5779 -0.2894
 5935TIP3    H217812   3.709   3.532   0.245 -0.9257 -1.3289  0.8153
 5936TIP3   OH217813   6.091   4.516   4.766  0.7788  0.7395  0.1142
 5936TIP3    H117814   6.038   4.582   4.809 -1.5187 -0.7980 -0.2154
 5936TIP3    H217815   6.148   4.482   4.835 -0.9137  0.2213  1.3102
 5937TIP3   OH217816   6.131   1.758   3.459 -0.1611  0.4679 -0.1925
 5937TIP3    H117817   6.161   1.727   3.545  0.4251  1.0850 -0.1643
 5937TIP3    H217818   6.170   1.696   3.397 -0.1185  0.3510 -0.0510
 5938TIP3   OH217819   4.971   3.380   4.216  0.1727  0.0544 -0.0157
 5938TIP3    H117820   4.997   3.313   4.279 -1.6557 -1.4511 -0.7626
 5938TIP3    H217821   5.053   3.421   4.189  1.1034 -0.0093  2.4575
 5939TIP3   OH217822   3.185   4.488   3.958 -0.5759  0.3319 -0.4193
 5939TIP3    H117823   3.212   4.539   3.882  0.3538 -1.9996 -1.7717
 5939TIP3    H217824   3.266   4.451   3.993 -1.1885 -0.2020  0.5016
 5940TIP3   OH217825   4.059   0.133   2.958 -0.3977  0.4227 -0.1983
 5940TIP3    H117826   4.107   0.167   2.883 -1.1329  3.6720  0.6653
 5940TIP3    H217827   3.967   0.147   2.937 -0.6781  0.0938  0.7401
 5941TIP3   OH217828   2.147   3.732   5.097 -0.1312  0.2275  0.0105
 5941TIP3    H117829   2.120   3.720   5.189  2.1871 -0.7248  0.6462
 5941TIP3    H217830   2.233   3.772   5.103  0.0786  0.1066 -1.7875
 5942TIP3   OH217831   6.347   1.861   2.582  0.2174 -0.1166  0.0232
 5942TIP3    H117832   6.260   1.821   2.590  1.2609 -2.5238  0.1944
 5942TIP3    H217833   6.379   1.866   2.672  0.4740  0.2282 -0.0874
 5943TIP3   OH217834   3.231   3.008   0.120  0.2683  0.2528  0.5518
 5943TIP3    H117835   3.286   3.001   0.042 -0.1898 -1.7718  0.3722
 5943TIP3    H217836   3.268   3.082   0.169  2.0915 -0.0184 -0.3544
 5944TIP3   OH217837   0.063   3.032   2.533  0.3727  0.5448  0.4095
 5944TIP3    H117838  -0.006   2.971   2.506  0.6353  0.4930 -0.1685
 5944TIP3    H217839   0.143   2.996   2.494  0.5051  1.3266 -0.0607
 5945TIP3   OH217840   4.442   1.089   4.418 -0.1499  0.6107  0.2322
 5945TIP3    H117841   4.537   1.090   4.408  0.0100 -0.4577  1.4389
 5945TIP3    H217842   4.423   1.003   4.456 -1.5344  1.0660  0.6119
 5946TIP3   OH217843   4.834   2.194   0.630 -0.1038 -0.0047  1.0598
 5946TIP3    H117844   4.757   2.157   0.588  0.7605 -0.3630 -0.2622
 5946TIP3    H217845   4.877   2.244   0.561  0.5421  0.6725  1.9320
 5947TIP3   OH217846   0.856   1.176   3.308 -0.6438  0.4708  0.1515
 5947TIP3    H117847   0.866   1.263   3.271  2.6813 -0.4326 -1.5533
 5947TIP3    H217848   0.807   1.126   3.243  0.7498  0.1836 -0.7209
 5948TIP3   OH217849   2.591   5.394   0.261 -0.0375  0.7725 -0.0933
 5948TIP3    H117850   2.550   5.309   0.277 -0.5611  0.7878 -1.2835
 5948TIP3    H217851   2.669   5.374   0.210 -1.4711  1.1507 -2.5906
 5949TIP3   OH217852   0.176   5.031   1.845  0.0370  0.5431 -0.1200
 5949TIP3    H117853   0.227   5.081   1.910  0.7692  1.5201 -1.3958
 5949TIP3    H217854   0.134   4.962   1.896  2.9642 -0.5768  0.9706
 5950TIP3   OH217855   2.732   4.732   2.382 -0.1644  0.3244 -0.0938
 5950TIP3    H117856   2.653   4.744   2.434 -0.4595  3.1147 -1.0423
 5950TIP3    H217857   2.709   4.763   2.295  1.1746 -1.5459 -1.1990
 5951TIP3   OH217858   6.365   1.950   3.453 -0.0250 -0.3561  0.6265
 5951TIP3    H117859   6.314   1.878   3.491  0.8743 -0.4975  1.6260
 5951TIP3    H217860   6.311   2.028   3.469  0.2568 -0.4371  2.1046
 5952TIP3   OH217861   1.678   4.391   4.139 -0.3581 -0.1553  0.5654
 5952TIP3    H117862   1.622   4.464   4.165  1.1821  1.4297 -0.3291
 5952TIP3    H217863   1.667   4.385   4.045  2.4302  1.6451 -0.0204
 5953TIP3   OH217864   3.243   4.229   0.059 -0.3255 -0.5559  0.6851
 5953TIP3    H117865   3.149   4.238   0.076 -0.7237  0.1294 -1.5518
 5953TIP3    H217866   3.285   4.289   0.121 -1.5298  0.6432  0.3907
 5954TIP3   OH217867   3.674   5.882   0.581 -0.1276 -0.5724 -0.4621
 5954TIP3    H117868   3.655   5.874   0.674 -1.1132  1.4101 -0.4412
 5954TIP3    H217869   3.698   5.794   0.553 -1.2077 -1.4864  1.3622
 5955TIP3   OH217870   1.787   1.653   0.009  0.4832 -0.4292  0.8046
 5955TIP3    H117871   1.765   1.573   0.056 -0.6912 -0.1205  0.8046
 5955TIP3    H217872   1.863   1.629  -0.044 -0.4545 -1.8528  0.0320
 5956TIP3   OH217873   0.559   4.263   4.355  0.2004  0.2383  0.1215
 5956TIP3    H117874   0.515   4.249   4.271 -1.2201 -1.5884  1.0902
 5956TIP3    H217875   0.523   4.346   4.386  1.3074  1.3338 -1.3544
 5957TIP3   OH217876   2.597   2.434   1.366 -0.6430  0.6210  0.7480
 5957TIP3    H117877   2.656   2.501   1.402  2.3908 -0.8273 -1.1319
 5957TIP3    H217878   2.519   2.483   1.339  1.1012  3.3128  0.2071
 5958TIP3   OH217879   5.244   0.211   4.817 -0.3992  0.2154 -0.0774
 5958TIP3    H117880   5.261   0.167   4.734 -0.5590  0.8433 -0.4566
 5958TIP3    H217881   5.300   0.289   4.815 -0.5109  0.3103  0.3365
 5959TIP3   OH217882   2.596   1.246   1.558 -0.3938 -0.6122 -0.1558
 5959TIP3    H117883   2.554   1.198   1.629  0.5420 -1.2961 -0.0383
 5959TIP3    H217884   2.686   1.214   1.557 -0.4498 -0.8241 -1.8344
 5960TIP3   OH217885   1.627   5.299   2.767 -0.3063 -0.0166 -0.3018
 5960TIP3    H117886   1.699   5.314   2.706 -0.7087  1.8838 -0.3643
 5960TIP3    H217887   1.591   5.386   2.784 -2.9750 -0.9387 -0.7441
 5961TIP3   OH217888   2.404   1.652   2.658 -0.0409 -0.4171  0.3363
 5961TIP3    H117889   2.316   1.688   2.665  0.6750  1.5411 -0.0583
 5961TIP3    H217890   2.444   1.671   2.743  0.7300  0.9017 -0.2851
 5962TIP3   OH217891   0.786   1.973   1.840  0.1836  0.2192 -0.2839
 5962TIP3    H117892   0.820   2.041   1.898 -1.2286  0.5622  0.1848
 5962TIP3    H217893   0.724   2.018   1.784  1.0654 -0.2439 -1.6690
 5963TIP3   OH217894   3.424   1.810   1.754 -0.1336  0.3229 -0.2613
 5963TIP3    H117895   3.380   1.741   1.705  0.6771 -2.1643  2.2446
 5963TIP3    H217896   3.359   1.837   1.820  0.2229  0.5209  0.0140
 5964TIP3   OH217897   6.161   3.922   2.713 -0.0357 -0.4646 -0.5594
 5964TIP3    H117898   6.196   4.010   2.724 -1.3255 -0.0846  1.0809
 5964TIP3    H217899   6.205   3.887   2.636  0.9915  1.3652 -0.8532
 5965TIP3   OH217900   0.244   1.530   3.449 -0.4292 -0.5041 -0.1084
 5965TIP3    H117901   0.269   1.573   3.367 -1.7735 -0.3967 -0.4851
 5965TIP3    H217902   0.304   1.455   3.456 -0.0761 -0.3181 -1.0115
 5966TIP3   OH217903   5.033   5.326   0.961 -0.3911 -0.0421  0.3465
 5966TIP3    H117904   4.940   5.342   0.974 -0.4371 -0.1562  0.1603
 5966TIP3    H217905   5.038   5.236   0.928 -0.2424  0.0908  0.0052
 5967TIP3   OH217906   2.583   2.936   1.489 -0.7573 -0.6552  0.5136
 5967TIP3    H117907   2.602   3.009   1.547  0.2088  0.0399 -0.6267
 5967TIP3    H217908   2.667   2.891   1.479 -0.4302  0.2629 -1.6530
 5968TIP3   OH217909   3.945   3.988   4.781 -0.2420  0.3568  0.2163
 5968TIP3    H117910   3.851   3.977   4.768 -0.5634  2.1184  0.7779
 5968TIP3    H217911   3.976   3.900   4.805 -1.8168 -0.1643  0.4730
 5969TIP3   OH217912   1.454   4.123   1.776  0.2919  0.4890  0.4308
 5969TIP3    H117913   1.403   4.204   1.779  0.6446  0.6691  2.1298
 5969TIP3    H217914   1.511   4.127   1.852 -0.6359 -1.9754  1.3733
 5970TIP3   OH217915   3.818   4.359   5.065 -0.1854  0.5506  0.3690
 5970TIP3    H117916   3.792   4.267   5.062 -0.9570  0.7847 -0.6507
 5970TIP3    H217917   3.815   4.381   5.158 -1.1534 -0.1415  0.5246
 5971TIP3   OH217918   5.079   1.424   2.049  0.4412 -0.0996  0.4927
 5971TIP3    H117919   4.999   1.410   2.100  1.2874 -1.0591  1.6024
 5971TIP3    H217920   5.048   1.437   1.960 -1.3605  4.7449  1.5081
 5972TIP3   OH217921   3.243   2.800   0.303 -0.4389  0.3459 -0.1177
 5972TIP3    H117922   3.320   2.820   0.356  1.3208 -0.9202 -2.0288
 5972TIP3    H217923   3.244   2.865   0.233 -2.1135  1.3426  0.7415
 5973TIP3   OH217924   4.515   2.858   4.876 -0.0856  0.0475  0.4867
 5973TIP3    H117925   4.582   2.793   4.898 -0.5867 -0.7272 -0.1871
 5973TIP3    H217926   4.461   2.864   4.954 -0.3241 -0.7341  0.3946
 5974TIP3   OH217927   4.330   3.039   1.466 -0.1168  0.1700 -0.0165
 5974TIP3    H117928   4.403   3.099   1.458  0.6919 -0.6406  1.0095
 5974TIP3    H217929   4.352   2.966   1.407  0.2149 -0.3684  0.7657
 5975TIP3   OH217930   2.216   1.995   3.698  0.5108 -0.3730  0.0324
 5975TIP3    H117931   2.175   2.001   3.784  0.3126 -1.1728  0.0031
 5975TIP3    H217932   2.144   1.971   3.639 -0.1555  3.5088 -1.0289
 5976TIP3   OH217933   1.805   0.856   4.996 -0.1805 -0.7759 -0.1234
 5976TIP3    H117934   1.782   0.885   4.907 -1.1449 -0.1130  0.3245
 5976TIP3    H217935   1.774   0.926   5.053  0.3979 -1.2110  0.7515
 5977TIP3   OH217936   2.605   5.501   2.272 -0.6168  0.4067  0.0107
 5977TIP3    H117937   2.645   5.558   2.338 -1.6218 -0.1789  1.1838
 5977TIP3    H217938   2.677   5.475   2.215  0.2449  1.1245  0.7470
 5978TIP3   OH217939   1.022   1.290   1.125  0.2120  0.4981  0.0297
 5978TIP3    H117940   0.994   1.208   1.167  0.7998  0.5692  0.5655
 5978TIP3    H217941   1.046   1.263   1.036  1.3456 -0.1030  0.4964
 5979TIP3   OH217942   4.314   5.029   1.031 -0.1370  0.5296 -0.7305
 5979TIP3    H117943   4.256   5.053   0.959  0.8043  0.0523 -1.6611
 5979TIP3    H217944   4.268   4.959   1.077 -0.7053  0.7877 -0.8981
 5980TIP3   OH217945   5.635   2.795   4.101 -0.0706  0.3124 -0.5432
 5980TIP3    H117946   5.552   2.802   4.053 -0.4060 -0.6074 -0.1242
 5980TIP3    H217947   5.685   2.729   4.053 -0.3241 -0.4635  0.2353
 5981TIP3   OH217948   4.596   0.739   2.857 -0.0746 -0.3590  0.3119
 5981TIP3    H117949   4.652   0.754   2.780 -1.5094  0.3250 -0.6383
 5981TIP3    H217950   4.573   0.827   2.887 -0.2417 -0.6309  0.9940
 5982TIP3   OH217951   4.696   4.129   1.558 -0.1918 -0.3656 -0.5723
 5982TIP3    H117952   4.625   4.148   1.619 -0.2762  0.7653 -0.9945
 5982TIP3    H217953   4.710   4.212   1.511  1.3902 -0.5653 -0.5118
 5983TIP3   OH217954   3.943   5.597   0.521 -0.3181 -0.5354  0.0115
 5983TIP3    H117955   3.920   5.507   0.545 -0.5870 -0.8793 -1.4257
 5983TIP3    H217956   3.867   5.629   0.473  0.8336 -0.5305 -1.9277
 5984TIP3   OH217957   1.070   2.746   1.710  0.3156  0.0521  0.0967
 5984TIP3    H117958   0.994   2.752   1.653 -1.3317  1.7627  2.2886
 5984TIP3    H217959   1.120   2.672   1.676 -2.1924 -0.9961 -1.5722
 5985TIP3   OH217960   5.416   0.989   1.559 -0.0027  0.1046  0.1029
 5985TIP3    H117961   5.373   0.915   1.601  0.9803 -0.4342  0.1986
 5985TIP3    H217962   5.486   1.014   1.619  0.2514  0.5045 -0.3496
 5986TIP3   OH217963   0.567   5.823   1.289  0.2416 -0.6459  0.0127
 5986TIP3    H117964   0.543   5.842   1.379  1.6094  0.4794  0.1797
 5986TIP3    H217965   0.495   5.858   1.237 -0.3755 -0.9590  0.6424
 5987TIP3   OH217966   5.884   5.610   1.892 -0.2333 -0.5440  0.2378
 5987TIP3    H117967   5.821   5.632   1.961  0.4569 -0.0739  0.7265
 5987TIP3    H217968   5.829   5.591   1.815 -0.9892 -0.6104  0.7821
 5988TIP3   OH217969   6.209   5.666   3.727 -0.2756  0.1603 -0.2516
 5988TIP3    H117970   6.253   5.603   3.784  0.4106 -0.1768 -1.1309
 5988TIP3    H217971   6.116   5.644   3.735 -0.3657  1.0132  1.7824
 5989TIP3   OH217972   1.781   2.043   1.593  0.1226 -0.0237 -0.4580
 5989TIP3    H117973   1.747   1.969   1.543  1.1607 -1.4286  0.8215
 5989TIP3    H217974   1.724   2.048   1.669 -0.0053  0.5906 -0.5885
 5990TIP3   OH217975   1.154   4.757   4.578  0.3410 -0.2315 -0.4351
 5990TIP3    H117976   1.070   4.794   4.606 -0.2148 -2.6018  1.3159
 5990TIP3    H217977   1.142   4.743   4.484 -0.4852  1.2021 -0.5869
 5991TIP3   OH217978   2.014   4.101   0.263  0.3739 -0.4663 -0.0173
 5991TIP3    H117979   2.082   4.155   0.303  1.3904 -1.3148 -0.5311
 5991TIP3    H217980   2.027   4.113   0.169 -0.7645  0.0414 -0.1186
 5992TIP3   OH217981   4.125   1.936   2.240 -0.3418  0.1446  0.0794
 5992TIP3    H117982   4.086   2.017   2.208 -0.3344 -0.0652 -0.4660
 5992TIP3    H217983   4.220   1.953   2.238 -0.3115 -0.0891 -0.6181
 5993TIP3   OH217984   1.619   3.696   0.211  0.1278 -0.0912 -1.0075
 5993TIP3    H117985   1.576   3.763   0.263  1.0272 -1.3759  1.5209
 5993TIP3    H217986   1.548   3.638   0.183 -0.1002 -1.4482  2.0126
 5994TIP3   OH217987   0.947   1.549   3.557 -0.4590 -0.5880  0.0064
 5994TIP3    H117988   0.905   1.607   3.493  0.3193  1.0939  0.9609
 5994TIP3    H217989   0.908   1.573   3.641  1.6642  0.3795  0.7847
 5995TIP3   OH217990   0.541   1.732   4.625  0.2555 -0.3904  0.2952
 5995TIP3    H117991   0.571   1.770   4.708  0.1541 -2.3801  1.3275
 5995TIP3    H217992   0.510   1.644   4.650 -0.3115 -0.8215 -1.7763
 5996TIP3   OH217993   5.476   3.649   4.318  0.5371  0.2166 -0.1583
 5996TIP3    H117994   5.476   3.554   4.320  0.6417  0.2352  1.0446
 5996TIP3    H217995   5.480   3.676   4.410  3.1980  1.3967 -0.5341
 5997TIP3   OH217996   4.556   3.284   0.671 -0.1726 -0.1016 -0.4347
 5997TIP3    H117997   4.512   3.253   0.750  0.0823  0.7120  0.0412
 5997TIP3    H217998   4.587   3.205   0.628 -1.1802 -0.6228 -0.2372
 5998TIP3   OH217999   0.962   0.311   1.102 -0.4105  0.1134 -0.5605
 5998TIP3    H118000   0.904   0.239   1.081  0.0419 -0.8190  1.1892
 5998TIP3    H218001   0.908   0.372   1.153  0.3996 -1.5343  2.5257
 5999TIP3   OH218002   0.275   0.971   4.925 -0.0662 -0.0957 -0.1044
 5999TIP3    H118003   0.224   0.890   4.926  0.4684 -0.4667  2.1161
 5999TIP3    H218004   0.316   0.972   4.838 -1.6197 -1.1751 -0.9032
 6000TIP3   OH218005   4.907   2.876   0.780  0.6399 -0.2872  0.3965
 6000TIP3    H118006   4.855   2.798   0.799  0.3500  0.0693  1.1464
 6000TIP3    H218007   4.945   2.860   0.694  1.4909 -1.7416  1.0044
 6001TIP3   OH218008   4.969   2.551   4.283  0.3434  0.0911  0.1231
 6001TIP3    H118009   4.962   2.598   4.366  1.7372  0.1440  0.2371
 6001TIP3    H218010   5.016   2.611   4.225 -0.0317 -0.2077 -0.4976
 6002TIP3   OH218011   4.361   2.011   4.142 -0.2175  0.3556  0.2709
 6002TIP3    H118012   4.413   2.081   4.104  1.5802 -1.8767 -1.6819
 6002TIP3    H218013   4.271   2.029   4.113  0.0446  2.2354  0.5242
 6003TIP3   OH218014   5.172   2.471   2.227  0.2227 -0.1810  0.4233
 6003TIP3    H118015   5.118   2.547   2.249  0.4039  0.3154 -0.7815
 6003TIP3    H218016   5.241   2.471   2.293 -0.1535  0.3067  0.8288
 6004TIP3   OH218017   0.267   4.469   4.677 -0.2522  0.0106 -0.6141
 6004TIP3    H118018   0.330   4.462   4.605 -0.4895 -0.3555 -0.7928
 6004TIP3    H218019   0.182   4.465   4.634 -0.4495  2.6743 -0.5960
 6005TIP3   OH218020   3.862   3.442   2.930  0.0480  0.0953 -0.0479
 6005TIP3    H118021   3.865   3.499   3.007 -1.4307  0.5953 -0.3146
 6005TIP3    H218022   3.926   3.480   2.870  0.0426  0.6920  0.3107
 6006TIP3   OH218023   2.257   4.749   1.607 -0.2431  0.0880  0.3083
 6006TIP3    H118024   2.270   4.752   1.512  1.9895 -0.5502  0.5248
 6006TIP3    H218025   2.307   4.824   1.640 -1.0541  0.3390  0.9936
 6007TIP3   OH218026   1.935   5.705   3.234  1.0531  0.0685 -0.1422
 6007TIP3    H118027   1.901   5.760   3.164  1.8984  0.4557 -0.2568
 6007TIP3    H218028   1.944   5.765   3.309  2.9763  0.3777 -0.5606
 6008TIP3   OH218029   6.156   2.446   1.625  0.0755  0.5195  0.6442
 6008TIP3    H118030   6.180   2.471   1.714 -1.3225  0.5167  1.0431
 6008TIP3    H218031   6.060   2.446   1.624  0.0547  0.7078 -0.9169
 6009TIP3   OH218032   2.038   4.893   0.715 -0.2023 -0.2434  0.1152
 6009TIP3    H118033   2.045   4.845   0.633 -0.6511 -2.1221  1.1169
 6009TIP3    H218034   1.947   4.925   0.717 -0.6325 -1.4408  0.5022
 6010TIP3   OH218035   4.237   4.557   1.687  0.4968  0.1107  0.2324
 6010TIP3    H118036   4.177   4.487   1.712  1.3998 -0.1819  1.6456
 6010TIP3    H218037   4.272   4.528   1.602 -2.2725  0.9136 -1.2933
 6011TIP3   OH218038   3.718   5.665   0.392  0.6144  0.3354 -0.5063
 6011TIP3    H118039   3.702   5.717   0.313  0.5542  0.3497 -0.4840
 6011TIP3    H218040   3.640   5.611   0.402  0.7250  0.1586 -0.5937
 6012TIP3   OH218041   3.160   0.436   3.402 -0.0509  0.4852 -0.0111
 6012TIP3    H118042   3.227   0.368   3.401 -0.2319  0.3066 -0.1197
 6012TIP3    H218043   3.148   0.457   3.494 -0.5847 -0.2240  0.0916
 6013TIP3   OH218044   5.681   5.554   1.379  0.1408 -0.1403 -0.1373
 6013TIP3    H118045   5.589   5.557   1.352  0.2738 -0.9718 -0.7190
 6013TIP3    H218046   5.701   5.461   1.386  0.4084  0.0366  1.9289
 6014TIP3   OH218047   4.302   5.557   3.119 -0.2321 -0.4911 -0.3033
 6014TIP3    H118048   4.328   5.645   3.093 -0.6254 -0.4957 -0.7235
 6014TIP3    H218049   4.207   5.563   3.130 -0.3927 -1.1059 -1.3065
 6015TIP3   OH218050   0.551   0.918   2.108 -0.2258 -0.0867 -0.4717
 6015TIP3    H118051   0.627   0.931   2.166  0.0117 -2.3850 -0.1819
 6015TIP3    H218052   0.476   0.917   2.167 -0.4466  1.4119 -0.6782
 6016TIP3   OH218053   4.704   2.233   2.543 -0.0287 -0.2397 -0.2422
 6016TIP3    H118054   4.653   2.226   2.463  1.1368  0.1295 -1.0359
 6016TIP3    H218055   4.668   2.166   2.601 -0.4292 -0.9824 -1.3329
 6017TIP3   OH218056   2.093   0.131   0.229 -0.6238  0.5444 -0.0477
 6017TIP3    H118057   2.010   0.112   0.185 -0.2523 -2.4705  0.3328
 6017TIP3    H218058   2.089   0.080   0.310  0.2565  3.0175  1.6405
 6018TIP3   OH218059   4.354   3.689   1.011  0.5526  0.6217  0.3668
 6018TIP3    H118060   4.333   3.624   0.944  0.6262  1.7956 -0.8145
 6018TIP3    H218061   4.285   3.754   1.005  0.5109  0.7087  1.5000
 6019TIP3   OH218062   3.375   2.903   2.011  0.2266 -0.2860  0.5211
 6019TIP3    H118063   3.391   2.938   1.923 -2.0513  0.2316  0.2556
 6019TIP3    H218064   3.362   2.809   1.998  0.8522 -0.3687  0.4591
 6020TIP3   OH218065   2.075   1.953   1.433 -0.4126  0.0899 -0.1194
 6020TIP3    H118066   2.061   2.036   1.479  0.1918 -0.4954  1.1862
 6020TIP3    H218067   2.143   1.972   1.368  0.3018  0.4377  0.7160
 6021TIP3   OH218068   3.927   2.021   4.620 -0.2713  0.0629 -0.2618
 6021TIP3    H118069   3.831   2.023   4.615 -0.3165 -1.3147 -0.3867
 6021TIP3    H218070   3.950   2.093   4.679 -1.3790  0.4636 -0.3048
 6022TIP3   OH218071   6.038   0.983   3.867  0.1951 -0.2660  0.2451
 6022TIP3    H118072   6.031   0.889   3.847 -0.1927  0.0508 -1.1715
 6022TIP3    H218073   6.101   1.016   3.803  0.4089  0.4290  0.8099
 6023TIP3   OH218074   0.654   4.096   3.081  0.3809 -0.4138  0.5558
 6023TIP3    H118075   0.574   4.046   3.072 -0.1766  0.0773  2.4220
 6023TIP3    H218076   0.702   4.053   3.151  1.7310 -0.6382 -0.4631
 6024TIP3   OH218077   5.851   4.043   2.301 -0.2999 -0.1000 -0.0366
 6024TIP3    H118078   5.882   4.037   2.211 -0.1922  1.6172 -0.1423
 6024TIP3    H218079   5.913   4.103   2.344 -1.6544  0.9188  0.5636
 6025TIP3   OH218080   3.638   4.570   3.818 -0.3511 -0.1483  0.2086
 6025TIP3    H118081   3.619   4.568   3.724 -0.5728 -1.4625  0.2639
 6025TIP3    H218082   3.600   4.653   3.848  0.1411  0.5124 -0.9333
 6026TIP3   OH218083   4.212   1.847   1.562 -0.9600 -0.4456 -0.2465
 6026TIP3    H118084   4.273   1.919   1.576 -1.8054  0.2196  0.1081
 6026TIP3    H218085   4.147   1.883   1.501  0.4352 -1.9926 -2.8326
 6027TIP3   OH218086   4.476   1.788   0.946 -0.4733 -0.2093 -0.0685
 6027TIP3    H118087   4.395   1.738   0.947 -0.3298 -0.5807 -2.4696
 6027TIP3    H218088   4.536   1.736   1.001 -1.8807  0.2791  2.0648
 6028TIP3   OH218089   2.100   5.700   4.517 -0.1499 -0.1679  0.4147
 6028TIP3    H118090   2.157   5.752   4.460 -0.9057  0.3712  0.1398
 6028TIP3    H218091   2.140   5.613   4.518 -0.1444 -0.1901 -0.9657
 6029TIP3   OH218092   2.145   1.689   1.949  0.4962 -0.1408  0.1419
 6029TIP3    H118093   2.160   1.778   1.981 -2.0718  0.7745 -0.9638
 6029TIP3    H218094   2.053   1.671   1.968  0.7285 -2.2340 -0.4504
 6030TIP3   OH218095   1.809   0.891   0.123 -0.0674 -0.0298 -0.3299
 6030TIP3    H118096   1.733   0.844   0.158 -0.4633  0.5494 -0.3953
 6030TIP3    H218097   1.870   0.822   0.097 -0.4833 -0.4982 -0.0822
 6031TIP3   OH218098   5.990   4.964   4.223  0.2175 -0.2542  0.0076
 6031TIP3    H118099   5.985   4.942   4.130  2.1324 -2.3109  0.3256
 6031TIP3    H218100   5.936   4.898   4.267 -0.2703  0.4000  0.4143
 6032TIP3   OH218101   3.305   3.593   2.485 -0.2280 -0.0231  0.3007
 6032TIP3    H118102   3.309   3.544   2.567 -0.5223 -1.3090 -0.4288
 6032TIP3    H218103   3.352   3.538   2.422  0.0625  0.9827 -0.3841
 6033TIP3   OH218104   6.251   1.189   4.121  0.0835 -0.9750 -0.1297
 6033TIP3    H118105   6.290   1.264   4.166 -1.4112 -0.5237  0.4664
 6033TIP3    H218106   6.204   1.228   4.047 -1.7433 -1.1285  0.8844
 6034TIP3   OH218107   5.036   1.953   1.083  0.2072  0.4861 -0.8156
 6034TIP3    H118108   4.960   1.930   1.029 -1.3697 -0.6842  1.7281
 6034TIP3    H218109   5.028   1.898   1.161  3.1440  1.0839  0.0334
 6035TIP3   OH218110   2.820   5.803   2.342  0.7571  0.2794  0.6078
 6035TIP3    H118111   2.909   5.833   2.362  0.4042  0.2248  2.4885
 6035TIP3    H218112   2.780   5.791   2.428 -0.2453 -2.2395 -0.1360
 6036TIP3   OH218113   3.803   0.282   1.407  0.1242  0.4769  0.0273
 6036TIP3    H118114   3.779   0.276   1.500  1.0075 -1.4897  0.1971
 6036TIP3    H218115   3.728   0.243   1.361  0.2031  0.3232  0.0271
 6037TIP3   OH218116   4.397   0.548   2.166 -0.3796 -0.5572 -0.2082
 6037TIP3    H118117   4.423   0.558   2.074 -3.3327 -1.0687 -1.2124
 6037TIP3    H218118   4.447   0.473   2.198  0.3122 -0.6963 -1.5550
 6038TIP3   OH218119   3.245   2.985   1.600 -0.1861  0.5651 -0.0093
 6038TIP3    H118120   3.230   2.960   1.509  1.5471  2.6714 -0.9462
 6038TIP3    H218121   3.164   3.029   1.626 -0.3815  0.6911 -0.8028
 6039TIP3   OH218122   3.771   0.037   3.140 -0.6240 -0.6715 -0.1680
 6039TIP3    H118123   3.755   0.111   3.082  0.8794  0.8839  1.2767
 6039TIP3    H218124   3.837  -0.015   3.096  0.1422  0.2248 -0.1067
 6040TIP3   OH218125   2.532   5.903   0.763 -0.2845 -0.2757  0.3563
 6040TIP3    H118126   2.624   5.881   0.751  0.0351  0.5426  1.2183
 6040TIP3    H218127   2.522   5.918   0.857 -0.6379  2.3640 -0.0101
 6041TIP3   OH218128   5.504   2.871   2.643  0.1478  0.1172 -0.1206
 6041TIP3    H118129   5.553   2.798   2.605  2.5279  1.5173  0.0886
 6041TIP3    H218130   5.439   2.893   2.577  1.3703 -0.2869 -1.5095
 6042TIP3   OH218131   2.948   4.529   0.115  0.1071 -0.1234  0.0896
 6042TIP3    H118132   3.003   4.555   0.041 -0.9145  1.8317 -0.0752
 6042TIP3    H218133   2.920   4.612   0.154  0.6251 -1.0954  2.7231
 6043TIP3   OH218134   1.947   4.030   3.308 -0.2154 -0.5088  0.2693
 6043TIP3    H118135   1.956   3.935   3.313 -0.3391 -0.4501  3.0475
 6043TIP3    H218136   1.866   4.049   3.355 -0.1992  0.9758 -0.2584
 6044TIP3   OH218137   0.260   5.664   4.395 -0.6315  0.4557 -0.1805
 6044TIP3    H118138   0.229   5.576   4.415 -0.4445  0.4765  0.2185
 6044TIP3    H218139   0.203   5.695   4.325  0.3064 -0.5938 -1.4727
 6045TIP3   OH218140   0.050   5.322   0.552  0.5964 -0.0937  0.0933
 6045TIP3    H118141  -0.017   5.321   0.620 -1.5073 -1.2993 -1.8505
 6045TIP3    H218142   0.122   5.373   0.589 -1.5054  1.5577  2.1639
 6046TIP3   OH218143   0.765   4.998   0.023 -0.4132  0.4386  0.0717
 6046TIP3    H118144   0.830   5.066   0.041 -2.1194  2.1379  0.0856
 6046TIP3    H218145   0.733   4.973   0.110  0.5414 -0.7727  0.0990
 6047TIP3   OH218146   0.970   0.241   3.894  0.6409  0.4613  0.5146
 6047TIP3    H118147   1.057   0.275   3.913  0.6384  1.0197 -0.4070
 6047TIP3    H218148   0.977   0.203   3.807 -0.5288  2.5070 -0.5673
 6048TIP3   OH218149   2.004   0.849   4.749 -0.3916 -0.6272  0.0558
 6048TIP3    H118150   1.919   0.882   4.718 -0.1052 -0.4828 -0.5956
 6048TIP3    H218151   1.993   0.754   4.753 -0.6077 -0.6031  0.0579
 6049TIP3   OH218152   0.762   4.640   1.877 -0.0151 -0.5434  0.2307
 6049TIP3    H118153   0.808   4.577   1.933  1.1142 -0.6820 -0.8060
 6049TIP3    H218154   0.674   4.643   1.913  0.0925 -2.1998  0.7352
 6050TIP3   OH218155   3.360   4.966   0.434  0.3075  0.7145 -0.1629
 6050TIP3    H118156   3.291   4.959   0.368  1.1985  1.1007 -1.1683
 6050TIP3    H218157   3.438   4.932   0.390  0.7573  0.2461  0.9708
 6051TIP3   OH218158   0.501   1.503   2.465  0.2161 -0.0838 -0.1291
 6051TIP3    H118159   0.424   1.530   2.416 -1.5610 -1.6477  1.6118
 6051TIP3    H218160   0.558   1.580   2.465 -0.0037  0.2465 -3.8141
 6052TIP3   OH218161   3.016   3.126   1.703 -0.2658  0.2575 -0.4866
 6052TIP3    H118162   3.065   3.197   1.661 -0.7628 -0.2502 -2.0078
 6052TIP3    H218163   2.933   3.124   1.656 -1.1668  0.1435  1.0676
 6053TIP3   OH218164   6.218   0.904   4.066 -0.2419  0.5344 -0.1352
 6053TIP3    H118165   6.156   0.942   4.003  0.0731  0.2965 -0.5968
 6053TIP3    H218166   6.276   0.976   4.089 -1.4800  1.1029  1.3136
 6054TIP3   OH218167   0.461   0.550   1.279 -0.1951 -0.1470 -0.0855
 6054TIP3    H118168   0.482   0.640   1.305 -0.5901 -0.4235  1.2619
 6054TIP3    H218169   0.430   0.558   1.189 -1.7871  1.3177  0.5213
 6055TIP3   OH218170   1.008   4.509   4.739  0.0546 -0.0162 -0.5466
 6055TIP3    H118171   1.031   4.517   4.832  0.7651 -0.2159 -0.6948
 6055TIP3    H218172   1.050   4.584   4.697  1.8433 -1.2370 -1.0625
 6056TIP3   OH218173   5.476   4.878   4.705 -0.0472 -0.3066 -0.0266
 6056TIP3    H118174   5.446   4.928   4.629 -1.2493 -0.1640  0.5214
 6056TIP3    H218175   5.496   4.945   4.771  0.1377 -0.4743  0.0902
 6057TIP3   OH218176   5.924   4.725   4.334  0.5077  0.4470 -0.6234
 6057TIP3    H118177   5.844   4.704   4.382  0.9262  1.7518  0.7236
 6057TIP3    H218178   5.949   4.643   4.292  0.0074 -0.7342  1.2516
 6058TIP3   OH218179   3.520   3.457   3.094 -0.0580 -0.2132  0.3913
 6058TIP3    H118180   3.561   3.497   3.017  0.2136  1.3099  1.2816
 6058TIP3    H218181   3.427   3.454   3.073 -0.0258  0.4781  0.1067
 6059TIP3   OH218182   5.857   4.690   3.358 -0.3537  0.4155 -0.3257
 6059TIP3    H118183   5.899   4.773   3.382  3.3794 -1.1971 -0.6501
 6059TIP3    H218184   5.833   4.650   3.442  0.3668  0.6464  0.0002
 6060TIP3   OH218185   3.362   4.333   3.585 -0.3025  0.1813  0.1695
 6060TIP3    H118186   3.283   4.309   3.535 -0.7010 -1.2611  1.4255
 6060TIP3    H218187   3.329   4.380   3.661 -0.0707 -1.1577  1.1407
 6061TIP3   OH218188   0.758   0.022   3.685  0.7717 -0.7146  0.1137
 6061TIP3    H118189   0.683   0.020   3.626 -0.1123  1.9001  1.0290
 6061TIP3    H218190   0.833   0.002   3.629 -0.4619 -2.9034 -0.9148
 6062TIP3   OH218191   4.922   4.676   1.484 -0.4885  0.4908  0.8722
 6062TIP3    H118192   5.006   4.714   1.457 -0.7874  2.2934  2.2531
 6062TIP3    H218193   4.946   4.608   1.547  0.0468 -1.6443 -1.4784
 6063TIP3   OH218194   6.314   0.878   2.829  0.2260 -0.3955 -0.2004
 6063TIP3    H118195   6.263   0.958   2.818  0.8514 -0.2631 -2.7797
 6063TIP3    H218196   6.368   0.872   2.750  0.0023 -3.5070 -0.2712
 6064TIP3   OH218197   6.133   4.132   3.447  0.5706  0.7415  0.4364
 6064TIP3    H118198   6.076   4.206   3.426 -0.5029 -0.3409 -0.6122
 6064TIP3    H218199   6.176   4.158   3.529 -0.1132  2.3175  0.3394
 6065TIP3   OH218200   5.030   2.873   0.122 -0.1041  0.3595  0.0427
 6065TIP3    H118201   5.090   2.812   0.080  1.4544  2.4192 -0.9403
 6065TIP3    H218202   5.087   2.936   0.166 -1.6268  1.0566  1.1170
 6066TIP3   OH218203   4.185   2.203   4.020 -0.1087 -1.0764  0.0447
 6066TIP3    H118204   4.163   2.233   3.931 -1.2650 -1.9624  0.0128
 6066TIP3    H218205   4.103   2.166   4.053 -0.1740  0.7532  2.1438
 6067TIP3   OH218206   2.669   5.125   3.222  0.3809 -0.3746 -0.3639
 6067TIP3    H118207   2.710   5.201   3.182  1.1237 -1.0971 -0.9976
 6067TIP3    H218208   2.639   5.156   3.308  1.6811  0.3370 -0.1466
 6068TIP3   OH218209   5.348   5.168   4.626 -0.1475 -0.1600 -0.0686
 6068TIP3    H118210   5.288   5.133   4.561  2.1926 -0.6119 -2.1717
 6068TIP3    H218211   5.379   5.250   4.588 -0.5081  0.8272  1.6630
 6069TIP3   OH218212   5.566   0.628   0.054  0.3182  0.6710  0.1945
 6069TIP3    H118213   5.490   0.584   0.017 -0.6488  1.1771  1.5006
 6069TIP3    H218214   5.603   0.564   0.115  1.7094 -0.0416 -1.3515
 6070TIP3   OH218215   1.941   0.938   0.625  0.2750 -0.7078  0.7542
 6070TIP3    H118216   1.975   0.967   0.540 -1.5298  1.2560  0.6223
 6070TIP3    H218217   1.855   0.900   0.605 -0.9458  1.3177  1.7938
 6071TIP3   OH218218   2.129   1.483   0.900  0.1449  0.5952  0.0978
 6071TIP3    H118219   2.190   1.524   0.962  1.7041 -1.1114 -0.2176
 6071TIP3    H218220   2.184   1.452   0.828 -0.9541 -1.6216  0.1066
 6072TIP3   OH218221   5.697   1.458   2.363  0.3981 -0.4275 -0.2915
 6072TIP3    H118222   5.719   1.366   2.356 -0.9894 -0.7246 -1.0905
 6072TIP3    H218223   5.609   1.460   2.401  0.0739  0.5166 -1.0330
 6073TIP3   OH218224   3.910   3.472   2.106  0.0634 -0.1535  0.1005
 6073TIP3    H118225   4.004   3.453   2.103  0.1579  0.0962  0.9764
 6073TIP3    H218226   3.869   3.386   2.115  0.1078 -0.3782 -1.6235
 6074TIP3   OH218227   3.342   1.256   4.177  0.8125 -0.9761 -0.0263
 6074TIP3    H118228   3.418   1.203   4.151 -1.0875 -3.0468 -1.6880
 6074TIP3    H218229   3.275   1.193   4.201 -0.6105  0.7894  0.8886
 6075TIP3   OH218230   2.188   3.989   2.110 -0.3100 -0.2998  0.6330
 6075TIP3    H118231   2.222   3.981   2.021  1.9371  0.6980  1.3373
 6075TIP3    H218232   2.260   4.027   2.160 -0.9120 -2.3028  3.2438
 6076TIP3   OH218233   3.361   1.702   0.404 -0.1338 -0.2158 -0.6052
 6076TIP3    H118234   3.390   1.748   0.483  0.7234 -1.9318  0.1376
 6076TIP3    H218235   3.438   1.701   0.347  0.3636 -1.9802  0.0267
 6077TIP3   OH218236   4.765   4.521   1.057  0.7246  0.4396  0.3665
 6077TIP3    H118237   4.790   4.461   1.127 -1.0565  0.2430  0.8907
 6077TIP3    H218238   4.695   4.575   1.095  2.3945  3.0516  0.0081
 6078TIP3   OH218239   6.328   0.742   3.550 -0.2121  0.0836 -0.3204
 6078TIP3    H118240   6.307   0.653   3.523 -0.6191  0.0376  0.1318
 6078TIP3    H218241   6.334   0.737   3.645  0.0970  0.4726 -0.3157
 6079TIP3   OH218242   1.430   4.457   3.955  0.1582 -0.0300  0.1031
 6079TIP3    H118243   1.427   4.489   4.045  3.3522 -2.8828  1.4557
 6079TIP3    H218244   1.499   4.510   3.914  0.5985 -0.4955  0.2238
 6080TIP3   OH218245   5.669   2.005   2.225  0.4911  0.1518 -0.5193
 6080TIP3    H118246   5.600   2.062   2.258 -0.8841 -1.2528 -0.8242
 6080TIP3    H218247   5.716   2.058   2.160 -0.5370  1.0299 -0.5634
 6081TIP3   OH218248   2.415   3.674   4.086 -0.2732  0.5021  0.3200
 6081TIP3    H118249   2.343   3.639   4.034 -2.8232  2.6648  2.1176
 6081TIP3    H218250   2.466   3.726   4.024  0.9242 -2.4467 -1.3642
 6082TIP3   OH218251   0.118   4.174   2.520  0.7120  0.2707 -0.6049
 6082TIP3    H118252   0.188   4.173   2.454  1.4851 -0.2539  0.2101
 6082TIP3    H218253   0.125   4.090   2.564 -2.5635 -1.2783 -2.6534
 6083TIP3   OH218254   0.912   2.880   1.917 -0.4459 -0.1237 -0.0937
 6083TIP3    H118255   0.939   2.829   1.840 -1.6372 -0.6610 -0.1726
 6083TIP3    H218256   0.995   2.908   1.957  0.2589  1.6377 -2.4976
 6084TIP3   OH218257   0.286   5.786   4.127  0.3584  0.0976 -0.5904
 6084TIP3    H118258   0.339   5.835   4.190  2.0854 -0.9706 -1.1384
 6084TIP3    H218259   0.257   5.851   4.064 -0.3666  0.9745  0.6164
 6085TIP3   OH218260   3.513   5.615   5.036 -0.6259 -0.1047 -1.1516
 6085TIP3    H118261   3.608   5.605   5.025 -0.4803 -3.1078  1.3586
 6085TIP3    H218262   3.498   5.709   5.028  2.6695  0.5828 -0.9149
 6086TIP3   OH218263   4.136   5.523   1.259  0.8000 -0.0316  0.1121
 6086TIP3    H118264   4.126   5.608   1.302  1.2659  0.3348 -0.4891
 6086TIP3    H218265   4.057   5.514   1.205  1.4202  0.6990 -0.9559
 6087TIP3   OH218266   0.477   4.440   0.565  0.4801 -0.3226 -0.3547
 6087TIP3    H118267   0.476   4.409   0.475  0.6733 -0.6383 -0.2514
 6087TIP3    H218268   0.516   4.527   0.560  0.2990 -0.2548 -0.5996
 6088TIP3   OH218269   5.181   4.241   0.204  0.4853  0.7790  0.1665
 6088TIP3    H118270   5.108   4.260   0.144  0.5156  0.1698 -0.0679
 6088TIP3    H218271   5.157   4.286   0.285 -0.5423 -0.0759  0.3542
 6089TIP3   OH218272   0.670   0.544   2.149 -0.1951  0.0354 -0.1552
 6089TIP3    H118273   0.642   0.455   2.174  1.2659 -0.2747  0.4708
 6089TIP3    H218274   0.666   0.594   2.231 -1.3767  0.6689 -0.5801
 6090TIP3   OH218275   3.083   3.509   0.149 -0.0066  0.6455 -0.3364
 6090TIP3    H118276   3.100   3.554   0.232  0.7710 -0.8061  0.3474
 6090TIP3    H218277   3.106   3.573   0.082  0.7594  1.3733  0.5859
 6091TIP3   OH218278   5.929   2.713   1.320 -0.2812  0.0240 -0.4303
 6091TIP3    H118279   6.015   2.747   1.348 -0.1384 -0.3823 -0.3623
 6091TIP3    H218280   5.883   2.789   1.286  0.6975 -0.0199 -1.9542
 6092TIP3   OH218281   1.654   1.340   3.700 -0.1082 -0.2154  0.4753
 6092TIP3    H118282   1.650   1.255   3.656  0.9634 -0.4034  0.7065
 6092TIP3    H218283   1.630   1.403   3.632 -0.7918 -0.6910  0.2703
 6093TIP3   OH218284   2.828   0.388   3.450  0.1582 -0.6751 -0.0534
 6093TIP3    H118285   2.869   0.473   3.435  1.6334 -1.5468 -1.2712
 6093TIP3    H218286   2.756   0.385   3.386 -0.6211  0.0854  0.7661
 6094TIP3   OH218287   3.758   3.478   4.519 -0.3198 -0.0988 -0.9349
 6094TIP3    H118288   3.734   3.536   4.447  0.7819  1.3621 -0.1796
 6094TIP3    H218289   3.674   3.445   4.551 -0.9893  1.0506 -1.4288
 6095TIP3   OH218290   1.826   2.444   0.748  0.1275 -0.5941  0.2834
 6095TIP3    H118291   1.805   2.458   0.656  0.9363  0.6862  0.2744
 6095TIP3    H218292   1.773   2.509   0.795  0.9762 -0.0983  0.5728
 6096TIP3   OH218293   0.523   2.188   0.648  0.4854 -0.0034  0.0721
 6096TIP3    H118294   0.462   2.242   0.599  0.6748 -0.7524 -1.0378
 6096TIP3    H218295   0.590   2.164   0.584  2.6613  1.7910  1.5115
 6097TIP3   OH218296   2.418   0.211   4.978  0.6157 -0.0969  0.0797
 6097TIP3    H118297   2.449   0.301   4.981 -2.5364  1.2229 -2.2633
 6097TIP3    H218298   2.413   0.190   4.885 -2.2921 -1.2800  0.3972
 6098TIP3   OH218299   3.570   0.281   1.955  0.0074 -0.2864 -0.6391
 6098TIP3    H118300   3.642   0.260   2.014  0.3000  0.7081 -0.6177
 6098TIP3    H218301   3.500   0.220   1.980  0.6205 -0.8459 -0.2470
 6099TIP3   OH218302   4.181   1.205   3.162 -0.2538 -0.2300  0.0513
 6099TIP3    H118303   4.235   1.244   3.093  0.4313 -0.6627  0.3243
 6099TIP3    H218304   4.150   1.279   3.213 -0.0076  0.0354 -0.1802
 6100TIP3   OH218305   3.903   1.580   1.335  0.1850  0.2971 -0.1977
 6100TIP3    H118306   3.965   1.651   1.354  0.6599  0.1858 -1.2988
 6100TIP3    H218307   3.885   1.587   1.241 -1.8627  0.6272  0.1651
 6101TIP3   OH218308   3.189   1.776   3.212 -0.3270  0.1114  0.1090
 6101TIP3    H118309   3.149   1.749   3.129 -0.3184  0.5996 -0.0591
 6101TIP3    H218310   3.283   1.761   3.199 -0.3146  0.2920 -0.0087
 6102TIP3   OH218311   4.539   0.760   3.670 -0.0500 -0.0987  0.2854
 6102TIP3    H118312   4.532   0.758   3.766  0.6812  0.4638  0.3687
 6102TIP3    H218313   4.620   0.810   3.654 -0.3276  0.0694 -0.6303
 6103TIP3   OH218314   0.315   3.239   2.259 -0.1951  0.6201  0.3306
 6103TIP3    H118315   0.342   3.311   2.202  2.1091 -0.6712 -0.3378
 6103TIP3    H218316   0.334   3.270   2.348 -1.7320  1.8032  0.2821
 6104TIP3   OH218317   3.072   1.055   3.504 -0.4604 -0.5075 -0.3331
 6104TIP3    H118318   3.111   1.116   3.567  0.0102  0.7646 -1.7729
 6104TIP3    H218319   3.037   1.112   3.435 -3.5517 -1.6861  0.1330
 6105TIP3   OH218320   1.298   0.690   3.962 -0.4860  0.0691 -0.5661
 6105TIP3    H118321   1.376   0.729   3.923 -0.8483 -0.1190 -1.4973
 6105TIP3    H218322   1.310   0.701   4.057  0.4927  0.3624 -0.7194
 6106TIP3   OH218323   3.973   3.305   1.105  0.4599  0.4557 -0.2597
 6106TIP3    H118324   4.008   3.223   1.141 -0.1294 -0.1100 -0.9400
 6106TIP3    H218325   4.034   3.372   1.136  0.8476 -0.2063  0.4736
 6107TIP3   OH218326   4.957   1.440   3.549  0.5349 -0.3278 -0.2650
 6107TIP3    H118327   4.994   1.515   3.501  0.0050 -0.4330 -0.8456
 6107TIP3    H218328   5.019   1.369   3.534  0.0669 -0.5325 -1.3224
 6108TIP3   OH218329   2.242   0.492   1.496 -0.1501  0.1544  0.4410
 6108TIP3    H118330   2.194   0.416   1.530  0.9595 -0.9648 -0.3851
 6108TIP3    H218331   2.312   0.454   1.443 -0.2815  1.7993 -0.9848
 6109TIP3   OH218332   6.337   0.181   1.039 -0.6679  0.0256 -0.0655
 6109TIP3    H118333   6.376   0.220   0.960 -2.1606  0.9620 -0.3784
 6109TIP3    H218334   6.288   0.106   1.006  0.1904 -0.6916  0.2352
 6110TIP3   OH218335   2.410   5.926   3.129 -0.0377  0.0676  0.4822
 6110TIP3    H118336   2.504   5.917   3.118 -0.3408 -1.0608 -1.7681
 6110TIP3    H218337   2.392   6.018   3.107  0.3688 -0.1426 -0.8039
 6111TIP3   OH218338   1.219   0.993   2.320  0.2744 -0.0228 -0.4561
 6111TIP3    H118339   1.204   0.914   2.268 -0.9079  0.0135 -0.2064
 6111TIP3    H218340   1.314   1.008   2.316  0.3117 -0.5345 -1.8275
 6112TIP3   OH218341   3.839   2.589   2.046  0.0078 -0.8255  0.0518
 6112TIP3    H118342   3.788   2.534   2.106  0.4403  1.1783  2.3826
 6112TIP3    H218343   3.928   2.556   2.053 -0.0640 -1.0429 -0.0480
 6113TIP3   OH218344   4.289   5.362   4.383  0.4899 -0.2530 -0.1488
 6113TIP3    H118345   4.362   5.349   4.322 -0.5159 -0.5187 -1.3461
 6113TIP3    H218346   4.309   5.445   4.427  2.2890 -1.0906  0.7316
 6114TIP3   OH218347   5.274   5.731   1.808 -0.0781  0.5030  0.1170
 6114TIP3    H118348   5.271   5.686   1.724  0.7637  0.3801  0.1417
 6114TIP3    H218349   5.266   5.661   1.873 -0.2530  0.5499  0.1479
 6115TIP3   OH218350   4.442   5.201   2.575 -0.2250  0.0049  0.1277
 6115TIP3    H118351   4.415   5.262   2.643 -3.2677 -1.4559  0.4483
 6115TIP3    H218352   4.412   5.241   2.493 -3.7732 -1.4993  0.4627
 6116TIP3   OH218353   1.368   5.422   1.516  0.1776  0.1166 -0.1425
 6116TIP3    H118354   1.444   5.477   1.499  0.1039  0.8827  1.7138
 6116TIP3    H218355   1.293   5.482   1.508 -0.1707 -0.4027 -0.9626
 6117TIP3   OH218356   1.088   4.999   2.496  0.3283  0.2272  0.4618
 6117TIP3    H118357   1.065   5.053   2.421  1.5117 -0.4355 -0.4040
 6117TIP3    H218358   1.009   5.000   2.551 -2.0032 -2.0734 -2.4451
 6118TIP3   OH218359   0.340   1.468   1.273  0.4524  0.2280  0.0778
 6118TIP3    H118360   0.365   1.559   1.262 -0.5463  0.6275  0.9760
 6118TIP3    H218361   0.354   1.450   1.366  2.3062 -1.0681 -0.4012
 6119TIP3   OH218362   0.186   1.588   0.472 -0.1340  0.1780 -0.4784
 6119TIP3    H118363   0.186   1.518   0.538 -0.1026  0.0609 -0.6039
 6119TIP3    H218364   0.124   1.653   0.507  1.7426  1.3388  0.9637
 6120TIP3   OH218365   5.960   1.557   1.343 -0.3031  0.1150 -0.7353
 6120TIP3    H118366   6.000   1.483   1.297 -1.6324 -1.5937  0.7193
 6120TIP3    H218367   6.026   1.625   1.341  0.8744 -1.0081 -2.3712
 6121TIP3   OH218368   5.988   1.376   4.176 -0.5852  0.7847  0.1203
 6121TIP3    H118369   6.041   1.372   4.097  0.5953 -0.3740  0.9156
 6121TIP3    H218370   5.953   1.465   4.178 -0.3489  0.9331 -1.4969
 6122TIP3   OH218371   2.158   4.282   5.081 -0.0941  0.6396  0.3542
 6122TIP3    H118372   2.143   4.294   4.988 -0.8148  0.8599  0.4918
 6122TIP3    H218373   2.169   4.187   5.092  1.0256  0.7049 -0.0904
 6123TIP3   OH218374   0.030   1.875   2.249  0.3461 -0.1551  0.9976
 6123TIP3    H118375   0.090   1.859   2.321  0.5242  0.5279  1.0088
 6123TIP3    H218376   0.084   1.866   2.170  0.2531 -0.4572  0.9680
 6124TIP3   OH218377   1.165   0.424   3.960 -0.2786  0.5939  0.0534
 6124TIP3    H118378   1.195   0.482   3.891 -0.5852  1.3748  0.5698
 6124TIP3    H218379   1.080   0.458   3.985  0.1788  0.8240  1.3831
 6125TIP3   OH218380   4.022   3.253   3.460  0.2532 -0.6312 -0.1599
 6125TIP3    H118381   4.014   3.336   3.507 -0.8105  0.1076 -1.5894
 6125TIP3    H218382   3.980   3.269   3.376  1.8174 -2.0170 -1.2563
 6126TIP3   OH218383   4.635   0.544   3.411  0.0204 -0.0681  0.3703
 6126TIP3    H118384   4.541   0.531   3.414 -0.0129  0.2218  0.6366
 6126TIP3    H218385   4.646   0.634   3.382  0.2012  0.0969  0.9262
 6127TIP3   OH218386   1.854   4.854   2.145 -0.1497 -0.2309 -0.5591
 6127TIP3    H118387   1.852   4.759   2.135 -0.3752 -0.6451  2.5368
 6127TIP3    H218388   1.775   4.875   2.195  0.6943  1.3489  0.1987
 6128TIP3   OH218389   0.905   4.287   2.947 -0.0406 -0.5777  0.2697
 6128TIP3    H118390   0.842   4.260   2.881 -0.5443  1.1264 -0.0007
 6128TIP3    H218391   0.969   4.216   2.951 -0.3514 -0.9919 -1.5796
 6129TIP3   OH218392   0.543   5.179   0.230  0.3416  0.0729 -0.0557
 6129TIP3    H118393   0.521   5.219   0.314  0.5673  0.4831 -0.1903
 6129TIP3    H218394   0.606   5.111   0.251 -1.2266 -1.3219  0.3795
 6130TIP3   OH218395   0.665   3.123   0.742  0.0830  0.2552  0.9607
 6130TIP3    H118396   0.670   3.165   0.828  0.2772  2.7011 -0.1311
 6130TIP3    H218397   0.581   3.151   0.706  0.0630 -0.6076  0.2907
 6131TIP3   OH218398   2.030   0.742   3.843 -0.8181 -0.6361  0.0155
 6131TIP3    H118399   2.099   0.780   3.788  0.4493 -1.3526  1.0593
 6131TIP3    H218400   2.059   0.759   3.933 -2.1202 -0.7738  0.4793
 6132TIP3   OH218401   0.683   0.726   2.770 -0.4794  0.1546 -0.0579
 6132TIP3    H118402   0.667   0.820   2.758 -1.0009 -0.0516 -1.1206
 6132TIP3    H218403   0.745   0.704   2.700 -1.0705 -0.4657 -0.4006
 6133TIP3   OH218404   2.693   1.123   3.629 -0.0769  0.0120  0.1677
 6133TIP3    H118405   2.680   1.062   3.701  2.4959 -2.3608 -1.1638
 6133TIP3    H218406   2.713   1.067   3.554 -0.4768  2.4460 -1.9077
 6134TIP3   OH218407   2.286   0.199   1.183  0.0623  0.2205  0.5903
 6134TIP3    H118408   2.332   0.159   1.110  0.9064 -1.0061  1.7443
 6134TIP3    H218409   2.199   0.220   1.148 -1.0955 -4.1008  0.2216
 6135TIP3   OH218410   5.748   4.440   3.488 -0.3702  0.5941 -0.1188
 6135TIP3    H118411   5.664   4.441   3.535 -1.0731 -0.0563 -1.2985
 6135TIP3    H218412   5.739   4.367   3.426  1.0226  0.6118 -0.3602
 6136TIP3   OH218413   5.348   3.499   0.272 -0.3331 -0.8409  0.5979
 6136TIP3    H118414   5.327   3.587   0.304 -0.0074 -0.0565 -1.2269
 6136TIP3    H218415   5.442   3.502   0.256 -0.7253 -0.5382 -2.1220
 6137TIP3   OH218416   3.610   2.899   2.193 -0.6732  0.1099  0.5084
 6137TIP3    H118417   3.543   2.849   2.148  0.1682  0.1223 -0.8030
 6137TIP3    H218418   3.566   2.980   2.221 -0.8528  0.8603 -1.7558
 6138TIP3   OH218419   1.490   1.165   1.542  0.0842  0.8475  0.3428
 6138TIP3    H118420   1.410   1.175   1.594 -0.6958 -0.8550 -0.4382
 6138TIP3    H218421   1.539   1.096   1.588 -0.6312 -0.7032 -1.1127
 6139TIP3   OH218422   6.016   4.431   1.391 -0.6439 -0.8033  0.1962
 6139TIP3    H118423   6.105   4.456   1.414 -1.1388 -0.3401  1.6816
 6139TIP3    H218424   5.982   4.506   1.342 -0.8619 -0.1284  1.3539
 6140TIP3   OH218425   5.708   1.305   2.668  0.5478 -0.2315 -0.3748
 6140TIP3    H118426   5.665   1.224   2.694 -0.8005 -0.0711 -1.9509
 6140TIP3    H218427   5.684   1.367   2.737  0.0938 -0.7191 -0.0812
 6141TIP3   OH218428   2.329   1.014   0.822  0.2637  0.3614 -0.0562
 6141TIP3    H118429   2.332   1.101   0.861 -1.5936  0.3931  0.1137
 6141TIP3    H218430   2.277   1.025   0.742 -0.1697 -0.6061  0.0747
 6142TIP3   OH218431   2.345   5.018   0.726  0.4310 -0.5723 -0.3106
 6142TIP3    H118432   2.295   5.099   0.722  0.0899 -0.7001  0.8884
 6142TIP3    H218433   2.408   5.024   0.655 -2.1194 -0.9844 -2.7536
 6143TIP3   OH218434   3.220   3.141   3.980 -0.0685 -0.4205 -0.0113
 6143TIP3    H118435   3.129   3.161   4.001  0.5830  1.8248  1.0815
 6143TIP3    H218436   3.253   3.096   4.058  0.1243  0.1537  0.2480
 6144TIP3   OH218437   5.545   5.053   5.106 -0.5321  0.0944  0.1373
 6144TIP3    H118438   5.539   5.148   5.119 -1.5984 -0.0603  0.9478
 6144TIP3    H218439   5.501   5.037   5.023 -1.8475  0.1545  0.7967
 6145TIP3   OH218440   3.587   4.200   3.397 -0.2436 -0.1508  0.0936
 6145TIP3    H118441   3.630   4.120   3.427  2.3642  1.2193  0.3132
 6145TIP3    H218442   3.575   4.251   3.477 -0.6643  0.2288 -0.2098
 6146TIP3   OH218443   1.653   5.516   3.449 -0.6594 -0.2141  0.3383
 6146TIP3    H118444   1.728   5.531   3.506 -0.5711  0.9302 -0.0428
 6146TIP3    H218445   1.638   5.422   3.453 -0.2067 -0.2536  1.6676
 6147TIP3   OH218446   4.246   1.651   1.000  0.3548 -0.2806  0.0308
 6147TIP3    H118447   4.250   1.642   1.095  0.1137 -1.6457 -0.0620
 6147TIP3    H218448   4.155   1.675   0.982  0.2831 -0.4923  0.1109
 6148TIP3   OH218449   2.360   5.207   1.143  0.1513 -0.6725 -0.0066
 6148TIP3    H118450   2.432   5.161   1.100  0.9542 -0.0241  0.6083
 6148TIP3    H218451   2.296   5.223   1.074  1.1553 -0.1587 -0.8315
 6149TIP3   OH218452   6.121   0.189   1.746  0.6334  0.7782 -0.1610
 6149TIP3    H118453   6.194   0.176   1.807  0.4332  1.8655  0.3332
 6149TIP3    H218454   6.043   0.163   1.796  0.7280 -1.4210 -1.0335
 6150TIP3   OH218455   0.156   5.590   2.230 -0.1892  0.2723  0.3489
 6150TIP3    H118456   0.087   5.637   2.276  0.7357 -0.4852  2.6765
 6150TIP3    H218457   0.156   5.503   2.270  1.8768  0.1664  0.2257
 6151TIP3   OH218458   2.030   0.066   2.275 -0.0732 -0.7712  0.1343
 6151TIP3    H118459   1.980   0.113   2.208 -0.0666 -1.1333 -0.1226
 6151TIP3    H218460   2.097   0.129   2.302  0.3035 -0.8328 -0.6317
 6152TIP3   OH218461   1.047   0.131   4.307  0.0865  0.3784  0.0686
 6152TIP3    H118462   1.068   0.087   4.389  0.2214 -0.7871 -0.5691
 6152TIP3    H218463   0.956   0.106   4.288  0.7777 -1.3072 -1.2920
 6153TIP3   OH218464   4.310   1.949   5.046  0.0862  0.2473 -0.1096
 6153TIP3    H118465   4.267   1.883   5.100  0.1755  0.2162 -0.0746
 6153TIP3    H218466   4.239   1.997   5.004  0.0319 -0.3979 -0.7748
 6154TIP3   OH218467   0.748   3.113   3.017 -0.4286  0.0682 -0.7629
 6154TIP3    H118468   0.672   3.127   3.072 -0.3596  1.2197 -0.9476
 6154TIP3    H218469   0.808   3.185   3.038  0.9739 -1.2400 -0.0350
 6155TIP3   OH218470   0.726   5.305   4.457  0.3069  0.7410  0.1286
 6155TIP3    H118471   0.656   5.341   4.403  1.2136 -0.8784 -2.2697
 6155TIP3    H218472   0.681   5.243   4.515 -0.3733  0.4987 -0.6425
 6156TIP3   OH218473   6.344   1.167   4.913  0.2298  0.2175 -0.9155
 6156TIP3    H118474   6.412   1.100   4.917  0.7245  0.6858 -1.2935
 6156TIP3    H218475   6.265   1.120   4.884  0.9041  0.0254 -2.5905
 6157TIP3   OH218476   0.068   2.254   1.234  0.1152  0.2650  0.7271
 6157TIP3    H118477   0.060   2.266   1.328  5.0206 -0.1322  1.4388
 6157TIP3    H218478   0.082   2.342   1.199  1.1065  0.1646  0.8389
 6158TIP3   OH218479   5.906   5.503   5.093 -0.0725  0.0412 -0.2512
 6158TIP3    H118480   5.924   5.547   5.010 -0.7589 -1.4013 -1.2078
 6158TIP3    H218481   5.992   5.496   5.135  0.5432 -0.5810 -1.5548
 6159TIP3   OH218482   4.549   5.160   1.140 -0.0397  0.0122 -0.1936
 6159TIP3    H118483   4.578   5.235   1.090  1.4633  0.0787  0.7056
 6159TIP3    H218484   4.459   5.145   1.112 -1.2960  3.6343  1.2949
 6160TIP3   OH218485   2.148   5.842   1.534  0.2410 -0.5172  0.2363
 6160TIP3    H118486   2.083   5.811   1.597 -0.9320  1.0994 -0.0934
 6160TIP3    H218487   2.227   5.791   1.552 -0.0505 -0.1099  2.9905
 6161TIP3   OH218488   1.437   2.745   3.757  0.0384 -0.6441  0.1895
 6161TIP3    H118489   1.453   2.791   3.674  1.7603  1.6665  1.6617
 6161TIP3    H218490   1.523   2.709   3.781 -0.3033 -0.8150  1.2054
 6162TIP3   OH218491   3.279   5.832   4.429 -0.5115 -0.1818  0.3567
 6162TIP3    H118492   3.334   5.777   4.373  0.9441 -0.1119  1.6467
 6162TIP3    H218493   3.216   5.873   4.369  1.8227  0.9741 -1.4809
 6163TIP3   OH218494   4.260   2.707   0.376 -0.1503 -0.1324 -0.0166
 6163TIP3    H118495   4.354   2.688   0.377 -0.2414 -0.6586 -0.5654
 6163TIP3    H218496   4.226   2.656   0.302 -1.0586 -0.8255  0.8540
 6164TIP3   OH218497   3.093   2.224   4.863 -0.1176  0.4235  0.2477
 6164TIP3    H118498   3.083   2.262   4.951  0.8209 -0.0533  0.5802
 6164TIP3    H218499   3.030   2.153   4.860 -0.5072  0.7598  0.3462
 6165TIP3   OH218500   1.768   0.244   3.253 -0.3058 -0.2760  0.7034
 6165TIP3    H118501   1.833   0.208   3.313  0.0237 -0.6533  0.1375
 6165TIP3    H218502   1.722   0.167   3.220 -1.5529  0.0258  1.6474
 6166TIP3   OH218503   3.800   4.363   0.688  0.5582 -0.5221  0.0273
 6166TIP3    H118504   3.884   4.360   0.734 -0.3111 -0.8055  1.6966
 6166TIP3    H218505   3.822   4.381   0.597  2.3002  1.7646  0.7980
 6167TIP3   OH218506   3.784   1.168   3.267 -0.0786 -0.2594 -0.0484
 6167TIP3    H118507   3.851   1.103   3.245 -0.8007 -1.0233 -0.0434
 6167TIP3    H218508   3.776   1.163   3.362  1.4076  1.4152  0.2193
 6168TIP3   OH218509   4.774   2.162   4.482 -0.4394  0.7580  0.0808
 6168TIP3    H118510   4.822   2.179   4.401  1.0479 -0.9780  0.5294
 6168TIP3    H218511   4.703   2.104   4.456 -0.3970  0.7864 -0.1011
 6169TIP3   OH218512   1.633   1.968   0.053 -0.0699 -0.4376  0.2309
 6169TIP3    H118513   1.663   2.037  -0.006 -0.7979  1.2335  1.7131
 6169TIP3    H218514   1.613   1.894  -0.004 -0.2021  0.8932 -1.5268
 6170TIP3   OH218515   3.032   5.378   2.931  0.0761 -0.2954  0.2140
 6170TIP3    H118516   2.939   5.382   2.910  0.0366 -0.5803  0.3297
 6170TIP3    H218517   3.052   5.464   2.969 -0.2284 -0.3738  0.5582
 6171TIP3   OH218518   5.321   0.516   0.002  0.0618 -0.5945  0.7526
 6171TIP3    H118519   5.269   0.454  -0.049  0.1309  0.4192 -0.6046
 6171TIP3    H218520   5.284   0.512   0.090 -0.4295 -1.9865  0.5024
 6172TIP3   OH218521   3.862   5.694   5.171 -0.1740  0.0126 -0.5440
 6172TIP3    H118522   3.842   5.616   5.118  0.9642 -0.5848 -0.1273
 6172TIP3    H218523   3.796   5.692   5.241 -0.1957 -0.5408 -0.5718
 6173TIP3   OH218524   4.068   5.033   2.287  0.6894 -0.3007  0.1494
 6173TIP3    H118525   4.074   5.078   2.372 -0.9623 -0.9508  0.6438
 6173TIP3    H218526   4.158   5.029   2.256  1.3550 -0.1321  1.9357
 6174TIP3   OH218527   2.561   4.151   3.533  0.0937  0.3078  0.0738
 6174TIP3    H118528   2.569   4.199   3.616 -1.3234  1.0032 -0.1680
 6174TIP3    H218529   2.641   4.098   3.529 -0.4450 -0.8343  2.5573
 6175TIP3   OH218530   1.471   2.906   5.038 -0.3175  0.5375  0.4267
 6175TIP3    H118531   1.488   2.866   4.952 -0.6393 -0.3769  0.7728
 6175TIP3    H218532   1.379   2.932   5.035 -0.2885  0.6410  0.4410
 6176TIP3   OH218533   3.303   2.200   3.586  0.2009 -0.1984  0.3637
 6176TIP3    H118534   3.226   2.209   3.641  0.8182  0.5208  1.1291
 6176TIP3    H218535   3.321   2.106   3.586 -2.2747 -0.8185 -2.1147
 6177TIP3   OH218536   2.714   1.062   3.056 -0.3151  0.1044 -0.0275
 6177TIP3    H118537   2.790   1.045   3.112 -1.6374  1.8550  2.4920
 6177TIP3    H218538   2.702   0.981   3.007  0.9202 -1.5717  2.2759
 6178TIP3   OH218539   1.850   1.912   2.065  0.3724 -0.4526  0.6673
 6178TIP3    H118540   1.773   1.863   2.036 -0.3571  2.2089 -2.5132
 6178TIP3    H218541   1.815   1.978   2.125  0.2047  0.3294 -0.2589
 6179TIP3   OH218542   2.891   5.170   2.613  0.1042 -0.3134  0.4575
 6179TIP3    H118543   2.832   5.126   2.673 -0.2751 -1.0176 -0.4161
 6179TIP3    H218544   2.979   5.147   2.644  0.0632  2.0811  2.7896
 6180TIP3   OH218545   1.511   3.994   2.626 -0.0116  0.6078  0.1528
 6180TIP3    H118546   1.426   3.981   2.667  0.7771 -1.4585  1.3360
 6180TIP3    H218547   1.491   4.018   2.536 -1.8838 -1.3120 -0.0259
 6181TIP3   OH218548   3.673   1.319   4.153 -0.5505  0.3236  0.3462
 6181TIP3    H118549   3.694   1.318   4.060 -0.4162  0.4039  0.3752
 6181TIP3    H218550   3.577   1.323   4.156 -0.5238  1.3041  0.2107
 6182TIP3   OH218551   2.086   4.923   3.175  0.4357  0.3127 -0.5935
 6182TIP3    H118552   2.017   4.988   3.163 -0.2887 -0.4383 -0.5614
 6182TIP3    H218553   2.074   4.891   3.264  0.1208 -0.6170 -0.9604
 6183TIP3   OH218554   3.662   5.920   0.242 -0.0047 -0.4702 -0.4506
 6183TIP3    H118555   3.638   5.948   0.331 -0.6589 -1.7207 -0.2077
 6183TIP3    H218556   3.705   5.996   0.204  0.3895  0.0622  0.9788
 6184TIP3   OH218557   2.320   1.655   1.023 -0.1215 -0.0927 -0.4766
 6184TIP3    H118558   2.391   1.642   1.086  1.1292 -1.0665 -2.0089
 6184TIP3    H218559   2.290   1.745   1.039 -0.5673 -0.6397  2.1496
 6185TIP3   OH218560   5.210   3.800   2.446  0.5698 -0.4500  0.0647
 6185TIP3    H118561   5.178   3.826   2.532 -0.8389 -1.0450 -0.2520
 6185TIP3    H218562   5.237   3.882   2.404  0.2075 -0.0320  0.6501
 6186TIP3   OH218563   0.442   1.251   4.610 -0.2176 -0.3060 -0.2565
 6186TIP3    H118564   0.532   1.279   4.590  0.1871 -0.4327  1.2935
 6186TIP3    H218565   0.396   1.333   4.628  0.7078 -0.4026  3.2314
 6187TIP3   OH218566   4.111   5.297   4.180  0.1048 -0.0410  0.2554
 6187TIP3    H118567   4.168   5.234   4.136  0.6025  0.2422  0.4827
 6187TIP3    H218568   4.162   5.326   4.256 -0.9082 -0.8162  1.2559
 6188TIP3   OH218569   1.789   0.397   1.389 -0.1364  0.2783 -0.0160
 6188TIP3    H118570   1.846   0.438   1.324 -0.8522 -1.3573 -1.7845
 6188TIP3    H218571   1.710   0.451   1.390  0.7989  1.7223  1.3867
 6189TIP3   OH218572   2.131   0.952   1.472  0.9570 -0.5980  0.1569
 6189TIP3    H118573   2.139   0.975   1.379  0.6186  0.5371  0.3941
 6189TIP3    H218574   2.173   0.866   1.479  1.0739 -0.6551 -1.0257
 6190TIP3   OH218575   6.056   2.625   4.736  0.0665  0.0817 -0.0866
 6190TIP3    H118576   6.079   2.565   4.808  0.8853  0.6002  0.0879
 6190TIP3    H218577   5.974   2.665   4.765 -0.1012 -0.4079  0.1317
 6191TIP3   OH218578   5.167   2.965   4.397 -0.4309 -0.5741  0.9285
 6191TIP3    H118579   5.126   2.880   4.385  0.6323 -0.8786 -0.9150
 6191TIP3    H218580   5.254   2.956   4.359 -0.6794  1.6263 -0.3486
 6192TIP3   OH218581   3.832   4.274   1.165 -0.5092  0.2684  0.3362
 6192TIP3    H118582   3.738   4.278   1.185 -0.7947  1.7883 -1.1313
 6192TIP3    H218583   3.840   4.201   1.104 -0.8702  0.6318 -0.1540
 6193TIP3   OH218584   4.298   0.736   1.896  0.5601  0.3168  0.3188
 6193TIP3    H118585   4.390   0.710   1.895  0.3413 -0.4958  0.4659
 6193TIP3    H218586   4.252   0.659   1.862 -0.0651  0.7073  0.2826
 6194TIP3   OH218587   4.637   2.751   2.709  0.7075 -0.1834  0.5233
 6194TIP3    H118588   4.613   2.759   2.616  1.7747  0.5277  0.2778
 6194TIP3    H218589   4.722   2.795   2.714  0.9037 -0.6872  1.7446
 6195TIP3   OH218590   5.814   5.242   0.024 -0.5321 -0.2917  0.2819
 6195TIP3    H118591   5.899   5.203   0.044 -0.9988 -0.6126  1.7604
 6195TIP3    H218592   5.812   5.323   0.075  0.4197  1.7967 -2.7451
 6196TIP3   OH218593   3.318   3.040   2.813  0.5590  0.2975 -0.2434
 6196TIP3    H118594   3.256   3.102   2.776  0.2615  1.0605  1.4504
 6196TIP3    H218595   3.266   2.961   2.831  0.2878  0.5848  0.2538
 6197TIP3   OH218596   0.144   4.435   4.388 -0.3072 -0.0722 -0.1666
 6197TIP3    H118597   0.084   4.400   4.454 -1.6817  2.2613 -0.0818
 6197TIP3    H218598   0.094   4.502   4.343  1.7001  0.7346 -1.3226
 6198TIP3   OH218599   2.001   3.041   3.878  0.5381 -0.1835 -0.4329
 6198TIP3    H118600   1.923   3.025   3.826 -0.5585 -1.2758  1.4074
 6198TIP3    H218601   2.023   3.133   3.864  0.1591 -0.3870 -2.5589
 6199TIP3   OH218602   2.454   4.982   4.588 -0.1090 -0.1087  0.2831
 6199TIP3    H118603   2.446   5.025   4.673  0.8644  1.3220 -0.3033
 6199TIP3    H218604   2.377   5.012   4.539 -2.2685 -3.1564  1.4709
 6200TIP3   OH218605   1.676   4.932   1.737 -0.2767 -0.1868 -0.4808
 6200TIP3    H118606   1.659   4.990   1.812 -1.4860 -0.3587 -0.5927
 6200TIP3    H218607   1.743   4.977   1.686 -0.3261  0.5232  0.0655
 6201TIP3   OH218608   1.927   5.635   0.757  0.3622 -0.0228  0.0125
 6201TIP3    H118609   1.897   5.582   0.832 -0.1845  1.6894  1.0574
 6201TIP3    H218610   1.885   5.594   0.681 -1.5451 -0.0192  1.0050
 6202TIP3   OH218611   4.870   4.691   4.641  0.2448 -0.1814 -0.1004
 6202TIP3    H118612   4.795   4.644   4.677  0.4679 -0.1709  0.3782
 6202TIP3    H218613   4.836   4.778   4.620  0.3688  0.1710  1.0998
 6203TIP3   OH218614   2.499   4.193   2.484 -0.6429  0.1330 -0.1102
 6203TIP3    H118615   2.500   4.164   2.575 -2.3375 -0.5236 -0.2727
 6203TIP3    H218616   2.570   4.258   2.479  0.2639 -0.6945  1.3583
 6204TIP3   OH218617   5.810   3.122   0.163  0.2798 -0.1147 -0.1661
 6204TIP3    H118618   5.797   3.029   0.183 -0.6400 -0.2633 -1.3740
 6204TIP3    H218619   5.898   3.141   0.197  0.9214 -1.7016 -0.8106
 6205TIP3   OH218620   3.822   2.188   3.049 -0.1382 -0.0289  0.2169
 6205TIP3    H118621   3.879   2.246   3.100 -0.7166  0.4081  0.3827
 6205TIP3    H218622   3.859   2.101   3.061  0.6130  0.2733  0.1559
 6206TIP3   OH218623   1.765   5.667   1.030  0.0694  0.2539 -0.3255
 6206TIP3    H118624   1.692   5.727   1.045  0.5836  0.8792 -0.2474
 6206TIP3    H218625   1.725   5.589   0.992 -0.4994  1.0612 -1.4448
 6207TIP3   OH218626   6.303   5.322   3.553 -0.0162 -0.0997  0.0413
 6207TIP3    H118627   6.344   5.341   3.637 -1.2082  0.0055  0.6154
 6207TIP3    H218628   6.209   5.329   3.570 -0.2670  0.0050 -1.3211
 6208TIP3   OH218629   4.078   0.031   5.157 -0.0177  0.3770 -0.1923
 6208TIP3    H118630   4.157   0.058   5.110  0.7600  2.7876  2.2509
 6208TIP3    H218631   4.006   0.073   5.110  0.2414 -0.6115 -1.5492
 6209TIP3   OH218632   3.816   2.386   4.891 -0.1080  0.1278  0.1000
 6209TIP3    H118633   3.763   2.446   4.942  1.7219  0.7119  1.4007
 6209TIP3    H218634   3.809   2.418   4.801 -1.7090  0.3216  0.2668
 6210TIP3   OH218635   2.538   5.637   3.042 -0.1259  0.2960 -0.5772
 6210TIP3    H118636   2.499   5.682   2.966 -1.6672  0.4289  0.2464
 6210TIP3    H218637   2.471   5.644   3.110  1.6339  1.0931  1.1527
 6211TIP3   OH218638   2.768   4.834   1.525  0.1969  0.0746  0.3331
 6211TIP3    H118639   2.756   4.929   1.518  0.7719  0.0199 -2.6938
 6211TIP3    H218640   2.816   4.810   1.446  0.5310 -2.7033  1.2721
 6212TIP3   OH218641   0.104   1.579   0.861 -0.7389  0.1849 -0.1762
 6212TIP3    H118642   0.048   1.654   0.883 -0.7426  0.8214 -2.1379
 6212TIP3    H218643   0.083   1.559   0.770  1.4403 -0.2592 -0.6427
 6213TIP3   OH218644   3.435   4.533   1.303 -0.1226 -0.2977 -0.0647
 6213TIP3    H118645   3.464   4.603   1.245  0.4104  1.1922  1.9110
 6213TIP3    H218646   3.477   4.454   1.268  0.5242  0.6104 -1.4160
 6214TIP3   OH218647   3.042   3.919   4.510 -0.3535 -0.0921  0.4081
 6214TIP3    H118648   3.099   3.973   4.455 -1.5149  0.1711 -0.5804
 6214TIP3    H218649   2.983   3.877   4.449 -1.2891 -0.2777  1.4117
 6215TIP3   OH218650   4.959   4.207   4.036 -0.1832  0.1044  0.0464
 6215TIP3    H118651   4.891   4.270   4.010 -1.0728 -0.2945  1.2963
 6215TIP3    H218652   4.914   4.146   4.094  1.2401 -0.2058  0.8724
 6216TIP3   OH218653   0.515   3.119   2.808 -0.3224 -0.7591  0.7754
 6216TIP3    H118654   0.563   3.170   2.744 -1.5794  0.6184  0.8569
 6216TIP3    H218655   0.574   3.112   2.883  0.0926  0.1058  0.5420
 6217TIP3   OH218656   3.651   5.586   0.714 -0.2522  0.1626  0.1166
 6217TIP3    H118657   3.595   5.550   0.645  1.3040  0.2642 -1.2785
 6217TIP3    H218658   3.591   5.612   0.783 -1.7815 -1.0601 -0.6932
 6218TIP3   OH218659   5.623   1.111   3.429 -0.3548 -0.6850  0.7396
 6218TIP3    H118660   5.691   1.045   3.442 -0.2650 -0.6958  0.2387
 6218TIP3    H218661   5.545   1.060   3.405  0.3324 -0.5289 -2.2375
 6219TIP3   OH218662   1.084   3.045   1.374 -0.3383  0.2370 -0.2684
 6219TIP3    H118663   1.039   2.963   1.355  1.0266 -0.4916 -0.4932
 6219TIP3    H218664   1.025   3.113   1.343 -1.8797 -0.6056  0.7025
 6220TIP3   OH218665   4.760   3.403   3.791 -0.2143  0.5105 -0.0056
 6220TIP3    H118666   4.712   3.404   3.874 -2.0910  2.2958 -1.0144
 6220TIP3    H218667   4.727   3.327   3.744  1.6023 -1.1212  1.1950
 6221TIP3   OH218668   3.371   0.069   5.103 -0.5696  0.5162 -0.4070
 6221TIP3    H118669   3.461   0.093   5.124 -0.0752  1.0429 -2.8061
 6221TIP3    H218670   3.348   0.001   5.166  0.8629  1.5953  1.3715
 6222TIP3   OH218671   1.632   5.109   4.001  0.1183  0.1416  0.0562
 6222TIP3    H118672   1.690   5.122   4.076 -0.6512 -0.2963  0.7309
 6222TIP3    H218673   1.688   5.126   3.925  1.6938 -2.2495  0.5924
 6223TIP3   OH218674   6.153   3.338   3.128  0.6465  0.5607 -0.0055
 6223TIP3    H118675   6.235   3.328   3.079  0.5834  1.2240 -0.2610
 6223TIP3    H218676   6.100   3.397   3.074  0.6055  1.3776  0.8859
 6224TIP3   OH218677   6.012   1.455   2.079 -0.4923  0.1579  0.3793
 6224TIP3    H118678   5.954   1.503   2.137 -0.2596 -0.6123  1.2862
 6224TIP3    H218679   6.090   1.509   2.072 -2.0935  2.3757 -2.7476
 6225TIP3   OH218680   0.386   1.179   2.128 -0.6189  0.2652 -0.1151
 6225TIP3    H118681   0.426   1.168   2.215 -0.3069  0.7097 -0.2009
 6225TIP3    H218682   0.461   1.190   2.069 -0.7448 -1.4195 -0.6642
 6226TIP3   OH218683   2.174   3.544   3.025  0.2442 -0.2538  0.0996
 6226TIP3    H118684   2.242   3.610   3.034 -1.3887  1.6033 -0.3487
 6226TIP3    H218685   2.218   3.461   3.042  2.6832  0.7992 -0.5967
 6227TIP3   OH218686   4.303   4.691   4.386  0.1961 -0.6129  0.2408
 6227TIP3    H118687   4.369   4.633   4.423  1.2387  1.5935  2.0977
 6227TIP3    H218688   4.244   4.709   4.459 -0.5111  0.1169 -0.4891
 6228TIP3   OH218689   4.269   4.217   0.330  0.5763  0.2986 -0.2951
 6228TIP3    H118690   4.198   4.279   0.311 -0.9824 -0.4551  2.4517
 6228TIP3    H218691   4.329   4.266   0.386  1.2803  0.3841 -1.1113
 6229TIP3   OH218692   6.277   3.257   4.850 -0.5124  0.2694 -0.5770
 6229TIP3    H118693   6.366   3.228   4.828  0.0556  0.6818  1.0141
 6229TIP3    H218694   6.255   3.319   4.781  0.4634  0.1962 -0.9767
 6230TIP3   OH218695   5.654   4.820   4.090  0.2609 -0.3929  0.2305
 6230TIP3    H118696   5.640   4.897   4.145  0.5399 -0.2608  0.1204
 6230TIP3    H218697   5.644   4.746   4.149 -1.4549 -0.3512  0.0648
 6231TIP3   OH218698   4.401   4.411   2.837  0.1846  0.1090 -0.2007
 6231TIP3    H118699   4.346   4.408   2.916 -0.1518  0.5481 -0.4181
 6231TIP3    H218700   4.365   4.483   2.785  3.2156  2.9936  1.3164
 6232TIP3   OH218701   0.221   2.909   4.195 -0.2653 -0.5060  0.0831
 6232TIP3    H118702   0.204   2.946   4.108 -0.1192 -0.5746  0.0247
 6232TIP3    H218703   0.134   2.901   4.235 -0.1919  1.2334  0.6660
 6233TIP3   OH218704   2.668   0.545   0.439  0.0893 -0.1673  0.5734
 6233TIP3    H118705   2.690   0.637   0.453  1.5219 -0.5029  0.6399
 6233TIP3    H218706   2.579   0.536   0.474  0.5866  0.7943  2.1639
 6234TIP3   OH218707   4.506   4.461   2.265  0.5869  1.1308 -0.6354
 6234TIP3    H118708   4.513   4.368   2.244  0.6360  1.0651 -0.3376
 6234TIP3    H218709   4.576   4.475   2.329 -0.5584  0.9730  0.6925
 6235TIP3   OH218710   4.020   2.672   2.712  0.0447 -0.4198 -0.1409
 6235TIP3    H118711   3.996   2.640   2.799  0.2109  0.1480  0.1218
 6235TIP3    H218712   3.989   2.763   2.711 -2.0867 -1.0718 -1.5363
 6236TIP3   OH218713   3.698   3.583   3.671  0.2156 -0.1517  0.0700
 6236TIP3    H118714   3.655   3.618   3.593  0.5964 -1.5362 -0.7790
 6236TIP3    H218715   3.665   3.494   3.679 -1.0500  0.4404  2.4339
 6237TIP3   OH218716   5.539   4.487   2.035 -0.2990 -0.0613 -0.3111
 6237TIP3    H118717   5.539   4.557   2.100  0.8932 -0.2453 -0.0870
 6237TIP3    H218718   5.582   4.413   2.079 -0.3086 -0.4875 -0.9957
 6238TIP3   OH218719   4.219   3.809   2.164  0.1364  0.3092  0.0305
 6238TIP3    H118720   4.136   3.777   2.129  1.1506 -0.4731 -1.7549
 6238TIP3    H218721   4.203   3.816   2.259 -1.6867 -0.6412 -0.1559
 6239TIP3   OH218722   1.505   1.866   4.746 -0.0264 -0.2215 -0.2626
 6239TIP3    H118723   1.546   1.910   4.820  1.4508 -1.6902 -0.1279
 6239TIP3    H218724   1.413   1.858   4.771  0.1963  0.4322  0.8490
 6240TIP3   OH218725   1.403   3.974   2.358 -0.1647  0.2330 -0.0419
 6240TIP3    H118726   1.333   3.914   2.331  1.1576 -2.8951  2.8456
 6240TIP3    H218727   1.454   3.988   2.278 -1.3677 -1.3368 -1.1473
 6241TIP3   OH218728   3.878   3.604   0.621  0.0558 -0.1987  0.1029
 6241TIP3    H118729   3.902   3.625   0.711  0.0687 -0.3460  0.1339
 6241TIP3    H218730   3.783   3.591   0.623 -0.3468  2.3012 -0.3869
 6242TIP3   OH218731   3.518   2.665   3.769 -0.5364 -0.0525 -0.2181
 6242TIP3    H118732   3.450   2.615   3.724 -1.9528 -0.1137  1.8424
 6242TIP3    H218733   3.544   2.732   3.707 -1.9502 -0.5004 -1.3421
 6243TIP3   OH218734   1.916   2.145   3.221  0.0071  0.0226  0.4100
 6243TIP3    H118735   2.009   2.126   3.229 -0.2021 -1.2829 -0.0446
 6243TIP3    H218736   1.908   2.238   3.242  1.7473  0.7786 -1.9356
 6244TIP3   OH218737   5.778   5.509   3.112  0.5540 -0.1987  0.1067
 6244TIP3    H118738   5.693   5.542   3.080  0.8576  0.5896  0.0785
 6244TIP3    H218739   5.792   5.428   3.063 -0.8388 -1.0995  1.1206
 6245TIP3   OH218740   3.916   2.994   1.614  0.1708 -0.1004 -0.1109
 6245TIP3    H118741   3.849   3.037   1.560 -0.3620  0.9149  1.2641
 6245TIP3    H218742   3.994   3.048   1.603 -0.0901  0.4258  0.5001
 6246TIP3   OH218743   1.355   5.377   3.636  0.1861  0.4312 -0.5647
 6246TIP3    H118744   1.289   5.355   3.702  0.7062  0.8022  0.0884
 6246TIP3    H218745   1.438   5.378   3.684  0.4746  1.4841 -1.0567
 6247TIP3   OH218746   0.078   5.281   2.844 -0.3036 -0.0917 -0.0968
 6247TIP3    H118747   0.162   5.240   2.864 -1.1542 -1.0658  1.6169
 6247TIP3    H218748   0.101   5.352   2.783  1.5734 -1.1640 -0.7401
 6248TIP3   OH218749   4.117   1.545   2.793 -0.3798 -0.0049  0.0383
 6248TIP3    H118750   4.066   1.496   2.857  0.2996 -2.2393 -1.0077
 6248TIP3    H218751   4.121   1.487   2.717  1.5859  1.1478 -0.8146
 6249TIP3   OH218752   5.489   4.337   0.036  0.4731 -0.3057 -0.1811
 6249TIP3    H118753   5.486   4.320  -0.058 -0.6238 -3.4393  0.3018
 6249TIP3    H218754   5.422   4.404   0.050  0.4776  0.0242 -1.5802
 6250TIP3   OH218755   5.230   5.068   3.713  0.1931 -0.2447 -0.5076
 6250TIP3    H118756   5.324   5.052   3.714  0.2409 -0.2442 -2.2069
 6250TIP3    H218757   5.215   5.123   3.789  1.2848 -1.6016  0.7644
 6251TIP3   OH218758   2.443   1.166   1.771  0.3120 -0.3469 -0.1634
 6251TIP3    H118759   2.359   1.197   1.737 -0.0353 -0.6053  0.4426
 6251TIP3    H218760   2.430   1.072   1.784  1.2317 -0.7068 -1.6214
 6252TIP3   OH218761   0.098   0.385   4.417  0.1532  0.0191 -0.1177
 6252TIP3    H118762   0.126   0.426   4.335 -1.0636  0.9857 -0.0759
 6252TIP3    H218763   0.057   0.303   4.390  1.9390 -0.8771 -0.2574
 6253TIP3   OH218764   3.929   4.797   1.096  0.1945  0.1474 -0.0863
 6253TIP3    H118765   3.875   4.820   1.020  0.6052 -0.3942 -0.5555
 6253TIP3    H218766   3.917   4.702   1.106 -1.3359  0.4614  1.6977
 6254TIP3   OH218767   1.484   0.398   4.052  0.0577 -0.0351 -0.0212
 6254TIP3    H118768   1.555   0.461   4.039 -1.0256  1.5424  1.4026
 6254TIP3    H218769   1.528   0.318   4.081  1.3641  0.3768 -0.7760
 6255TIP3   OH218770   1.562   1.132   3.883 -0.7319 -0.5908 -0.7608
 6255TIP3    H118771   1.478   1.135   3.929 -0.8309 -1.1082 -0.9035
 6255TIP3    H218772   1.564   1.213   3.832 -1.0918 -0.5204 -0.6679
 6256TIP3   OH218773   4.189   2.901   4.800  1.1406 -0.2770  0.4755
 6256TIP3    H118774   4.265   2.853   4.833  1.1836 -0.0723  0.6780
 6256TIP3    H218775   4.139   2.836   4.751  0.6468 -0.8097  1.6297
 6257TIP3   OH218776   1.286   0.539   4.214 -0.0424 -0.3419 -0.0459
 6257TIP3    H118777   1.251   0.523   4.302  1.7744  0.5534  0.8982
 6257TIP3    H218778   1.354   0.605   4.227 -0.6379  0.8334 -2.3377
 6258TIP3   OH218779   5.836   2.057   0.019 -0.9950  0.7789  0.1946
 6258TIP3    H118780   5.844   2.139  -0.029 -0.4202  0.3980 -0.3714
 6258TIP3    H218781   5.881   2.074   0.102 -0.7881  1.0012  0.0396
 6259TIP3   OH218782   2.532   4.594   2.136 -0.1061  0.1445  0.8240
 6259TIP3    H118783   2.547   4.574   2.043 -0.8521  0.3182  0.6611
 6259TIP3    H218784   2.540   4.690   2.141 -0.0920  0.1368  0.9304
 6260TIP3   OH218785   4.481   1.758   1.823 -0.0902 -0.2521 -0.2699
 6260TIP3    H118786   4.463   1.852   1.813 -1.3190 -0.5310 -0.7256
 6260TIP3    H218787   4.442   1.735   1.908  1.5832 -0.0459  0.6093
 6261TIP3   OH218788   0.209   1.067   2.769  0.7529 -0.3927  0.1785
 6261TIP3    H118789   0.284   1.111   2.729  0.0624 -0.7650 -1.5876
 6261TIP3    H218790   0.208   0.980   2.730 -0.0247 -0.7368  0.9306
 6262TIP3   OH218791   5.173   2.853   3.519  0.6495 -0.1672  0.4131
 6262TIP3    H118792   5.132   2.787   3.574  0.5642 -0.2173  0.2897
 6262TIP3    H218793   5.267   2.837   3.528  0.5938 -1.3512 -0.8910
 6263TIP3   OH218794   2.301   5.279   1.943 -0.4274  0.0413 -0.8000
 6263TIP3    H118795   2.341   5.347   1.997  0.6547  0.0184 -1.5520
 6263TIP3    H218796   2.275   5.325   1.863 -2.0792  0.0888 -0.2685
 6264TIP3   OH218797   6.223   2.538   1.107 -0.7722 -0.0578 -0.1780
 6264TIP3    H118798   6.154   2.489   1.151  0.0476 -0.0949  1.1366
 6264TIP3    H218799   6.181   2.619   1.078 -1.2866  0.1151  0.9854
 6265TIP3   OH218800   1.668   5.253   0.196 -0.3569 -0.2476 -0.2878
 6265TIP3    H118801   1.735   5.290   0.253 -0.6269 -0.4251  0.1473
 6265TIP3    H218802   1.638   5.175   0.242 -2.2893  0.9041  0.4987
 6266TIP3   OH218803   1.205   2.000   2.810  0.1602 -0.1420 -0.2217
 6266TIP3    H118804   1.239   2.061   2.875 -1.7918  0.6930  0.0812
 6266TIP3    H218805   1.152   2.054   2.751 -0.1747 -1.2735 -1.0013
 6267TIP3   OH218806   0.634   2.711   4.617  0.3924  0.3447 -0.1095
 6267TIP3    H118807   0.561   2.774   4.614  0.4380  0.3993 -3.1433
 6267TIP3    H218808   0.594   2.628   4.593  1.0435  0.0416 -0.1454
 6268TIP3   OH218809   0.437   5.785   1.869 -0.3014  0.3571  0.1080
 6268TIP3    H118810   0.528   5.796   1.897  0.0092  0.4191 -0.8599
 6268TIP3    H218811   0.386   5.790   1.949  0.5224  0.6778  0.6297
 6269TIP3   OH218812   1.807   1.489   1.188 -0.1337 -0.4407  0.2862
 6269TIP3    H118813   1.825   1.541   1.110  1.1435 -1.4247 -0.1216
 6269TIP3    H218814   1.729   1.438   1.165  0.0232 -0.4608 -0.2154
 6270TIP3   OH218815   0.121   4.770   4.828  0.0827  0.0584  0.0293
 6270TIP3    H118816   0.086   4.709   4.763  1.3620 -0.1969 -0.4433
 6270TIP3    H218817   0.103   4.856   4.792  1.1487 -0.0808 -0.8976
 6271TIP3   OH218818   1.280   1.522   2.064  0.0095 -0.5606 -0.7035
 6271TIP3    H118819   1.275   1.617   2.077  0.8285 -0.5855 -0.1163
 6271TIP3    H218820   1.285   1.511   1.969 -0.0042 -0.0057 -0.7731
 6272TIP3   OH218821   2.618   1.235   4.274  0.6294 -0.0972 -0.2681
 6272TIP3    H118822   2.578   1.203   4.355 -1.2721  0.8166 -0.7794
 6272TIP3    H218823   2.658   1.319   4.298 -1.0753  0.8248 -0.4912
 6273TIP3   OH218824   3.163   5.433   3.438 -0.0715 -0.2348  0.1728
 6273TIP3    H118825   3.200   5.378   3.368  1.2228  0.5988  0.1682
 6273TIP3    H218826   3.071   5.406   3.443 -0.0916 -0.6275 -1.5512
 6274TIP3   OH218827   1.441   5.925   3.783 -0.0916 -0.1520 -0.1886
 6274TIP3    H118828   1.414   5.833   3.779 -0.2757 -0.1832  1.2962
 6274TIP3    H218829   1.376   5.971   3.729 -0.9319 -0.7062  0.3249
 6275TIP3   OH218830   3.743   5.964   2.568 -0.3006  0.0260 -0.1568
 6275TIP3    H118831   3.662   5.983   2.520 -1.0579 -0.1629  1.0184
 6275TIP3    H218832   3.758   5.871   2.555 -0.8256 -0.1451  0.4484
 6276TIP3   OH218833   0.282   3.803   0.722  0.1914 -0.7986  0.3684
 6276TIP3    H118834   0.318   3.727   0.768 -1.7128 -2.7799 -1.1985
 6276TIP3    H218835   0.188   3.799   0.740 -0.3305 -0.4782 -1.9842
 6277TIP3   OH218836   4.645   0.301   3.177 -0.3708 -0.5011  0.1215
 6277TIP3    H118837   4.726   0.332   3.217 -0.1248  0.3347 -1.0078
 6277TIP3    H218838   4.578   0.318   3.243  0.0865  0.5157  0.3348
 6278TIP3   OH218839   2.236   0.627   1.184 -0.0656 -0.4975 -0.5353
 6278TIP3    H118840   2.280   0.572   1.248  1.3487  0.2429 -0.8451
 6278TIP3    H218841   2.294   0.702   1.172 -1.3423  0.4540 -1.0658
 6279TIP3   OH218842   4.495   5.613   2.225  0.0771  0.1727  0.4371
 6279TIP3    H118843   4.408   5.653   2.220 -0.5206 -1.0253  0.9776
 6279TIP3    H218844   4.510   5.599   2.319  0.6684 -0.0468  0.3152
 6280TIP3   OH218845   0.823   0.025   4.237 -0.2148  0.0583 -0.0690
 6280TIP3    H118846   0.815  -0.070   4.227 -2.0049  0.0040  1.2863
 6280TIP3    H218847   0.807   0.060   4.150 -0.5781 -0.8527 -0.3851
 6281TIP3   OH218848   0.352   0.343   4.104 -0.1441  0.3948 -0.1831
 6281TIP3    H118849   0.261   0.346   4.075 -0.0835 -1.1955 -0.6730
 6281TIP3    H218850   0.403   0.337   4.023  0.4137  1.4179  0.0827
 6282TIP3   OH218851   4.588   3.458   0.469  0.2699  0.7098 -0.7364
 6282TIP3    H118852   4.564   3.377   0.515 -2.1338  0.6729 -1.9251
 6282TIP3    H218853   4.675   3.479   0.502  0.3462 -1.5524  0.7125
 6283TIP3   OH218854   2.566   4.144   2.834  0.4623 -0.5085  0.0650
 6283TIP3    H118855   2.514   4.074   2.794  0.4842 -0.9104  0.7219
 6283TIP3    H218856   2.512   4.222   2.825  0.9059 -0.3663 -1.6646
 6284TIP3   OH218857   4.277   5.838   0.038  0.0460 -0.2820  0.4782
 6284TIP3    H118858   4.354   5.894   0.046 -1.2364  1.4934  0.9884
 6284TIP3    H218859   4.203   5.897   0.046 -1.4075 -2.0722  1.1773
 6285TIP3   OH218860   4.008   0.640   1.048 -0.4596  0.4005 -0.2469
 6285TIP3    H118861   4.003   0.547   1.073 -1.8444  0.9256  1.7270
 6285TIP3    H218862   3.916   0.667   1.042 -0.0806  1.8513  0.1727
 6286TIP3   OH218863   2.783   4.911   4.118  0.5645 -0.0070 -0.4534
 6286TIP3    H118864   2.828   4.835   4.155  1.6762 -1.1133 -3.7898
 6286TIP3    H218865   2.712   4.929   4.180  1.9351 -1.9906  1.8596
 6287TIP3   OH218866   1.442   5.252   5.130  0.4954 -0.2059  0.2691
 6287TIP3    H118867   1.381   5.184   5.102  0.6258 -0.3773  0.3956
 6287TIP3    H218868   1.460   5.303   5.051 -1.4685  1.1769  0.6450
 6288TIP3   OH218869   2.444   3.869   3.577  0.2729  0.0298 -0.3873
 6288TIP3    H118870   2.409   3.814   3.507  0.2551 -1.1377  0.5067
 6288TIP3    H218871   2.520   3.911   3.538  0.3677 -0.7354 -1.0616
 6289TIP3   OH218872   3.181   1.237   1.430 -0.4654  0.2884  0.1551
 6289TIP3    H118873   3.259   1.287   1.406  0.0764  0.6220  2.3950
 6289TIP3    H218874   3.212   1.175   1.496 -1.9180 -0.2868  0.3255
 6290TIP3   OH218875   2.861   1.577   2.989 -0.3226 -0.1966 -0.0701
 6290TIP3    H118876   2.777   1.618   2.968 -1.0517 -1.3566  0.5216
 6290TIP3    H218877   2.870   1.587   3.084  0.9532  1.2502 -0.2876
 6291TIP3   OH218878   1.969   4.734   3.819 -0.1254  0.0116 -0.2780
 6291TIP3    H118879   1.969   4.662   3.756  3.0631 -0.5381  0.1804
 6291TIP3    H218880   1.955   4.812   3.767 -1.0954 -0.7027 -1.1307
 6292TIP3   OH218881   0.074   4.265   0.070 -0.1884 -0.0497  0.5938
 6292TIP3    H118882   0.012   4.284   0.000 -2.1106  0.1384  2.2556
 6292TIP3    H218883   0.116   4.349   0.088  1.0683 -0.3016 -0.9451
 6293TIP3   OH218884   2.640   0.459   1.141  0.3282  0.6172 -1.0059
 6293TIP3    H118885   2.648   0.410   1.059 -3.0268  1.7735 -2.1684
 6293TIP3    H218886   2.665   0.548   1.118  2.8903  0.3262  0.2337
 6294TIP3   OH218887   5.011   3.035   4.700 -0.1310  0.4616  0.5016
 6294TIP3    H118888   4.922   3.022   4.670 -0.6757  1.6229  1.4971
 6294TIP3    H218889   5.065   3.020   4.623 -1.3161  1.3753 -0.5538
 6295TIP3   OH218890   2.622   3.484   2.057  0.4862 -0.0929 -0.6140
 6295TIP3    H118891   2.660   3.504   2.143  0.5459 -1.5463 -0.2782
 6295TIP3    H218892   2.530   3.508   2.065  0.8255  1.3395 -0.7037
 6296TIP3   OH218893   3.258   3.303   0.056 -0.0740 -0.1233  0.6517
 6296TIP3    H118894   3.222   3.281  -0.030 -0.3865  3.0146 -0.1619
 6296TIP3    H218895   3.190   3.356   0.097  1.4501  1.4385  1.2932
 6297TIP3   OH218896   2.622   0.017   4.603  0.0688  0.1581 -0.0992
 6297TIP3    H118897   2.639  -0.077   4.617  0.8677 -0.0126 -1.9471
 6297TIP3    H218898   2.694   0.061   4.649 -0.1975 -0.1363  0.6099
 6298TIP3   OH218899   4.139   4.604   1.312  0.2240  0.0809 -0.2205
 6298TIP3    H118900   4.079   4.559   1.252 -0.1846 -0.8752  0.8563
 6298TIP3    H218901   4.205   4.538   1.334  0.9776  0.7477 -0.4261
 6299TIP3   OH218902   3.784   3.071   3.739  0.1976  0.1400 -0.6927
 6299TIP3    H118903   3.815   3.012   3.807 -1.9127 -3.0865 -2.2803
 6299TIP3    H218904   3.843   3.055   3.665 -0.6663 -0.3433 -1.2847
 6300TIP3   OH218905   0.834   0.149   0.173 -0.4215  0.2023  0.0262
 6300TIP3    H118906   0.923   0.178   0.195 -1.4075  1.7738  2.4217
 6300TIP3    H218907   0.847   0.077   0.111  2.4995  0.4170  0.2276
 6301TIP3   OH218908   5.513   4.213   3.634  0.6261 -0.3736 -0.0062
 6301TIP3    H118909   5.518   4.302   3.669 -2.1773  0.7428 -2.0991
 6301TIP3    H218910   5.468   4.163   3.702 -0.4850  0.5714 -0.0241
 6302TIP3   OH218911   6.269   0.032   4.045  0.4901 -0.5860  0.4417
 6302TIP3    H118912   6.192   0.062   4.092  1.1250  1.5688  0.2248
 6302TIP3    H218913   6.264   0.076   3.960  1.3140 -1.4080 -0.0561
 6303TIP3   OH218914   3.903   2.742   1.529 -0.0891  0.0964 -0.2871
 6303TIP3    H118915   3.936   2.744   1.439 -0.8291  0.2280 -0.5659
 6303TIP3    H218916   3.916   2.830   1.562 -0.6794  0.3072 -0.5970
 6304TIP3   OH218917   6.286   2.289   0.928 -0.0660 -0.3131  0.2193
 6304TIP3    H118918   6.245   2.251   1.005  0.1947  1.1624  1.1319
 6304TIP3    H218919   6.232   2.366   0.908 -1.1092 -1.5332 -2.0950
 6305TIP3   OH218920   0.826   1.968   2.856 -0.3993 -0.3264  0.7287
 6305TIP3    H118921   0.801   1.938   2.768 -2.6801  1.3807  0.6760
 6305TIP3    H218922   0.808   1.894   2.913  1.2299 -1.5036 -0.2087
 6306TIP3   OH218923   4.416   3.842   3.696 -0.0604  0.0825 -0.6028
 6306TIP3    H118924   4.346   3.847   3.631 -0.8567 -0.2510  0.2158
 6306TIP3    H218925   4.441   3.749   3.697  1.4941  0.4338 -2.0051
 6307TIP3   OH218926   3.405   2.518   0.803  0.2446  0.1271 -0.2264
 6307TIP3    H118927   3.479   2.542   0.858  0.9600  2.6292 -2.1209
 6307TIP3    H218928   3.329   2.555   0.848 -0.0286 -2.6181  1.8270
 6308TIP3   OH218929   3.380   3.875   0.562 -0.1104 -0.0243 -0.2394
 6308TIP3    H118930   3.404   3.867   0.469 -0.4682  0.7779 -0.4167
 6308TIP3    H218931   3.285   3.861   0.563 -0.0994 -0.0762  0.0127
 6309TIP3   OH218932   5.157   5.413   1.826 -0.2311 -0.3130 -0.3510
 6309TIP3    H118933   5.065   5.432   1.843 -1.0998 -2.3715 -2.2621
 6309TIP3    H218934   5.167   5.320   1.849  1.7590  0.1972  1.1183
 6310TIP3   OH218935   2.255   3.663   1.845  0.1329  0.3331 -0.1895
 6310TIP3    H118936   2.161   3.656   1.827  0.1617 -0.5016 -0.0347
 6310TIP3    H218937   2.276   3.754   1.826 -0.0102 -0.2245 -3.5101
 6311TIP3   OH218938   3.580   4.729   0.456  0.3807 -0.5358 -0.0855
 6311TIP3    H118939   3.672   4.751   0.471 -0.1936  0.1940  2.9063
 6311TIP3    H218940   3.582   4.673   0.378  3.6340 -2.4511  1.1446
 6312TIP3   OH218941   3.239   3.573   1.409  0.5190  0.6796  0.5294
 6312TIP3    H118942   3.167   3.515   1.434  0.3656  1.1007  1.0912
 6312TIP3    H218943   3.313   3.545   1.464  1.3128 -0.8655 -1.2286
 6313TIP3   OH218944   4.551   0.762   1.155  0.1824 -0.7056 -0.1980
 6313TIP3    H118945   4.569   0.798   1.068  1.0915 -0.6626 -0.0049
 6313TIP3    H218946   4.456   0.766   1.164  0.0349 -1.2435 -1.4146
 6314TIP3   OH218947   2.493   2.770   2.311  0.0739 -0.0298 -0.1888
 6314TIP3    H118948   2.424   2.803   2.253 -0.1381 -0.2848 -0.0842
 6314TIP3    H218949   2.485   2.823   2.390 -1.3362 -1.3712  0.6344
 6315TIP3   OH218950   4.361   3.516   0.773 -0.2213 -0.0004 -0.2127
 6315TIP3    H118951   4.361   3.420   0.772 -3.9062 -0.1646  1.1260
 6315TIP3    H218952   4.366   3.541   0.680 -1.6882 -1.6175 -0.7826
 6316TIP3   OH218953   5.081   2.290   0.985  0.0185  0.0575 -0.0406
 6316TIP3    H118954   5.029   2.210   0.990 -1.3337  0.8374 -1.0624
 6316TIP3    H218955   5.114   2.291   0.895  1.8230 -0.3949  0.5672
 6317TIP3   OH218956   6.031   4.382   3.388  0.0806  0.2254  0.4207
 6317TIP3    H118957   6.100   4.442   3.417 -0.3365  0.4937  0.8838
 6317TIP3    H218958   5.950   4.431   3.403 -0.2061 -0.0856 -0.1247
 6318TIP3   OH218959   0.721   2.454   1.063  0.2553 -0.2220  0.0794
 6318TIP3    H118960   0.629   2.465   1.089  0.2599  1.4317 -0.4944
 6318TIP3    H218961   0.717   2.404   0.981 -0.2496  1.1757 -0.7667
 6319TIP3   OH218962   4.417   3.916   1.838 -0.3682 -0.7004  0.0250
 6319TIP3    H118963   4.363   3.943   1.913 -0.2292  2.5427 -0.9023
 6319TIP3    H218964   4.462   3.838   1.869 -2.1683 -0.9224  2.4420
 6320TIP3   OH218965   6.256   4.809   5.037  0.1713 -0.0080 -0.3544
 6320TIP3    H118966   6.276   4.797   5.130  0.1720  0.4829 -0.2885
 6320TIP3    H218967   6.342   4.807   4.994  0.0272 -2.7789 -0.6689
 6321TIP3   OH218968   0.956   0.613   0.782  0.0885 -0.1200 -0.0542
 6321TIP3    H118969   1.031   0.667   0.757  0.3750 -0.2117  0.5943
 6321TIP3    H218970   0.880   0.670   0.770  0.4970  0.8845  1.9022
 6322TIP3   OH218971   1.942   3.851  -0.006 -0.1178  0.3402  0.4759
 6322TIP3    H118972   1.975   3.923  -0.060  0.4979 -0.7380 -0.6583
 6322TIP3    H218973   1.997   3.853   0.072  0.7901  0.3095 -0.1381
 6323TIP3   OH218974   1.548   4.925   2.959 -0.4491 -0.3364  0.5773
 6323TIP3    H118975   1.524   4.837   2.930 -1.0576  0.6920 -2.3212
 6323TIP3    H218976   1.469   4.977   2.948  0.5558  1.1151 -0.2814
 6324TIP3   OH218977   3.065   2.472   4.563  0.0079 -0.2467 -0.0739
 6324TIP3    H118978   2.997   2.492   4.628  2.2651  1.6893  1.8668
 6324TIP3    H218979   3.062   2.546   4.502  1.0758  0.4743  0.7078
 6325TIP3   OH218980   5.972   2.113   1.346  0.0678 -0.5000 -0.3147
 6325TIP3    H118981   6.040   2.080   1.403  0.4836  1.6008  0.5084
 6325TIP3    H218982   5.897   2.056   1.361  0.9657 -1.5148  0.3967
 6326TIP3   OH218983   4.464   5.931   4.141 -0.2322 -0.0377  0.2695
 6326TIP3    H118984   4.374   5.938   4.108 -0.2708 -1.6054 -0.0536
 6326TIP3    H218985   4.466   5.848   4.188  1.1717 -0.2968 -0.1792
 6327TIP3   OH218986   5.021   4.951   3.385  0.6117 -0.0226  0.2228
 6327TIP3    H118987   4.952   5.001   3.341  0.3897  0.3019  0.9256
 6327TIP3    H218988   5.075   5.018   3.427 -0.3746 -0.3879  2.2035
 6328TIP3   OH218989   4.905   5.823   0.444 -0.1221 -0.2311 -0.1443
 6328TIP3    H118990   4.894   5.787   0.532  1.8159 -1.9534 -0.5445
 6328TIP3    H218991   4.874   5.754   0.386 -1.1576  0.8010 -0.8620
 6329TIP3   OH218992   1.997   4.221   1.939 -0.2065 -0.0428 -0.4005
 6329TIP3    H118993   2.020   4.129   1.928  0.9949  0.1277  0.4915
 6329TIP3    H218994   1.941   4.222   2.017  0.1132  0.0157 -0.1674
 6330TIP3   OH218995   3.096   0.136   4.048 -0.2351 -0.0794 -0.0728
 6330TIP3    H118996   3.072   0.076   4.118  0.9286  0.4623  0.8198
 6330TIP3    H218997   3.187   0.160   4.066 -0.3609  1.1834 -0.9630
 6331TIP3   OH218998   5.045   2.787   4.121 -0.1512  0.2779  0.0767
 6331TIP3    H118999   5.061   2.879   4.140  1.3211 -0.2654  1.8668
 6331TIP3    H219000   5.115   2.762   4.060 -0.0040  0.1680  0.2853
 6332TIP3   OH219001   1.562   5.147   2.316  0.3983  0.1408 -0.1253
 6332TIP3    H119002   1.597   5.235   2.327 -1.4803  0.9647 -0.2549
 6332TIP3    H219003   1.467   5.159   2.321  0.1235 -2.0669  1.1657
 6333TIP3   OH219004   3.467   0.987   2.030 -0.1299 -0.1213 -0.1413
 6333TIP3    H119005   3.432   1.076   2.030 -1.3237 -0.5696 -0.2224
 6333TIP3    H219006   3.470   0.963   1.938  1.7330  0.3933 -0.2464
 6334TIP3   OH219007   4.526   2.437   1.066 -0.4483 -0.3868  0.6811
 6334TIP3    H119008   4.609   2.427   1.021 -2.2449 -2.4028 -2.5313
 6334TIP3    H219009   4.550   2.470   1.153  3.4202  1.7851 -0.9642
 6335TIP3   OH219010   1.951   2.016   3.583 -0.3891  0.7829 -0.3689
 6335TIP3    H119011   1.875   2.071   3.601 -0.6088  0.6660 -0.9307
 6335TIP3    H219012   1.930   1.933   3.626 -0.2624  0.9814  0.0819
 6336TIP3   OH219013   1.179   0.710   0.670 -0.0524 -0.1935  0.0346
 6336TIP3    H119014   1.181   0.630   0.618  1.9645 -0.3141  0.1855
 6336TIP3    H219015   1.218   0.776   0.613 -0.1265  0.2574  0.5022
 6337TIP3   OH219016   4.391   1.752   2.154 -0.4706 -0.4066 -0.2811
 6337TIP3    H119017   4.403   1.835   2.201 -0.4601 -1.2717  1.3351
 6337TIP3    H219018   4.326   1.771   2.087 -1.6338  0.5486  1.0655
 6338TIP3   OH219019   0.942   3.275   2.804  0.1232 -0.1460 -0.0320
 6338TIP3    H119020   0.956   3.244   2.894 -0.1985  1.5884  0.6621
 6338TIP3    H219021   1.029   3.271   2.764  0.4550 -0.0534  0.6559
 6339TIP3   OH219022   1.798   1.851   4.362 -0.0257  0.2249 -0.4045
 6339TIP3    H119023   1.857   1.779   4.384 -0.8989 -0.6486 -0.8576
 6339TIP3    H219024   1.730   1.849   4.429 -1.4462 -1.0193 -1.7926
 6340TIP3   OH219025   4.739   2.104   2.084  0.0386  0.0986  0.0754
 6340TIP3    H119026   4.764   2.115   1.993  1.7295  2.3563  0.7299
 6340TIP3    H219027   4.710   2.191   2.112 -0.0786 -0.4472  1.7940
 6341TIP3   OH219028   2.002   2.459   2.725  0.1927  0.1622  0.8158
 6341TIP3    H119029   1.941   2.459   2.799  0.0085 -2.8886  0.7656
 6341TIP3    H219030   1.947   2.436   2.650  1.1929 -1.8040  0.6331
 6342TIP3   OH219031   4.962   5.125   3.725 -0.6180  0.0806 -0.1631
 6342TIP3    H119032   4.981   5.036   3.696 -0.6802 -0.7929  2.2353
 6342TIP3    H219033   5.046   5.170   3.722 -0.5659 -0.0613 -1.2881
 6343TIP3   OH219034   3.771   3.674   3.320  0.1384  0.2613  0.1305
 6343TIP3    H119035   3.770   3.686   3.226 -0.9130  1.4930  0.2762
 6343TIP3    H219036   3.688   3.711   3.350  1.0621  1.1554  1.6916
 6344TIP3   OH219037   0.436   5.493   2.914  0.7791  0.2723 -0.1822
 6344TIP3    H119038   0.373   5.557   2.946 -0.1826 -0.6790 -0.1014
 6344TIP3    H219039   0.407   5.472   2.825  1.2828  0.2013 -0.3341
 6345TIP3   OH219040   3.225   4.028   1.814 -0.3171 -0.1956  0.2621
 6345TIP3    H119041   3.303   4.022   1.758  0.2177 -2.0206  1.1305
 6345TIP3    H219042   3.260   4.031   1.903 -1.2301 -1.1155  0.6676
 6346TIP3   OH219043   3.074   5.142   3.275  0.1709  0.4605  0.1428
 6346TIP3    H119044   2.999   5.089   3.250 -1.6694  3.4981 -1.4575
 6346TIP3    H219045   3.138   5.129   3.205  0.3641 -0.7117  0.5304
 6347TIP3   OH219046   0.242   2.203   0.283  0.1149  0.2957 -0.1642
 6347TIP3    H119047   0.208   2.126   0.238  1.4977  0.9644 -2.4788
 6347TIP3    H219048   0.177   2.271   0.268 -0.5665 -0.0701  0.9482
 6348TIP3   OH219049   2.683   3.109   3.090 -0.6303 -0.9290 -0.1413
 6348TIP3    H119050   2.698   3.197   3.056 -0.1144 -0.6230  0.8392
 6348TIP3    H219051   2.684   3.053   3.012  3.0061 -0.5950 -0.5113
 6349TIP3   OH219052   1.066   0.516   2.887  0.1078 -0.0923  0.1802
 6349TIP3    H119053   1.040   0.594   2.839 -0.0486  0.5323  1.2408
 6349TIP3    H219054   1.044   0.443   2.829  0.1201  0.6363 -0.7621
 6350TIP3   OH219055   0.515   1.654   3.754 -0.3765 -0.3786 -0.2299
 6350TIP3    H119056   0.610   1.650   3.771 -0.4869  0.5655  0.7377
 6350TIP3    H219057   0.489   1.562   3.747  0.7266 -0.6427 -1.2692
 6351TIP3   OH219058   1.849   0.926   3.062 -0.1356 -0.1305 -0.6675
 6351TIP3    H119059   1.929   0.947   3.110 -0.8221  0.4089  0.2713
 6351TIP3    H219060   1.876   0.919   2.970  1.0941 -0.5970 -0.2762
 6352TIP3   OH219061   2.206   3.442   4.692  1.0280 -0.2581  0.4848
 6352TIP3    H119062   2.249   3.456   4.608  2.2229  0.9648  1.2416
 6352TIP3    H219063   2.269   3.476   4.756 -0.6414  0.6221  1.7342
 6353TIP3   OH219064   3.717   4.022   3.076  0.1494 -0.5397 -0.1121
 6353TIP3    H119065   3.624   4.040   3.064  0.1840  0.6477  1.0742
 6353TIP3    H219066   3.721   3.934   3.112 -0.3818 -1.2178 -1.6295
 6354TIP3   OH219067   1.385   2.176   1.312  0.3120 -0.5543 -0.0585
 6354TIP3    H119068   1.466   2.139   1.278  0.8225  0.9355 -0.5758
 6354TIP3    H219069   1.390   2.161   1.407  2.1607  1.1367  0.1980
 6355TIP3   OH219070   4.254   4.841   3.201 -0.2099  0.0337  0.3761
 6355TIP3    H119071   4.248   4.901   3.127 -1.0199 -1.1838 -0.5773
 6355TIP3    H219072   4.347   4.842   3.225  0.5950 -1.5072 -2.3678
 6356TIP3   OH219073   4.118   0.923   2.034  0.0762 -0.1298 -0.1236
 6356TIP3    H119074   4.181   0.862   1.996  1.6639  0.0858  2.0023
 6356TIP3    H219075   4.039   0.870   2.049  0.1552 -0.7154 -1.6304
 6357TIP3   OH219076   5.777   0.303   3.846 -1.0683  0.6449 -0.6805
 6357TIP3    H119077   5.724   0.305   3.925  1.8537  1.7847  1.4498
 6357TIP3    H219078   5.723   0.345   3.779 -2.6284  2.3265  1.4842
 6358TIP3   OH219079   2.444   1.550   4.017 -0.3506 -0.4730 -0.0292
 6358TIP3    H119080   2.538   1.529   4.024 -0.1281 -0.0345 -1.3889
 6358TIP3    H219081   2.400   1.476   4.060  0.6422  0.2076  2.3109
 6359TIP3   OH219082   1.933   0.311   2.477  0.1744  0.6506 -0.1412
 6359TIP3    H119083   1.882   0.283   2.553  0.6130 -0.3973 -0.2132
 6359TIP3    H219084   1.911   0.403   2.465 -1.7276  0.2255 -0.1887
 6360TIP3   OH219085   0.031   3.966   1.137 -0.1757 -0.2859 -0.0940
 6360TIP3    H119086   0.068   4.032   1.195  1.8414 -1.1113 -0.3626
 6360TIP3    H219087  -0.056   3.949   1.173  0.2732  0.6239  1.5270
 6361TIP3   OH219088   4.475   2.662   4.624 -0.0205  0.2980  0.3838
 6361TIP3    H119089   4.519   2.593   4.573 -0.3032  0.1668  0.3130
 6361TIP3    H219090   4.545   2.707   4.669  0.2217  0.3194 -0.0108
 6362TIP3   OH219091   4.650   0.265   0.420  0.2746 -0.4431 -0.0842
 6362TIP3    H119092   4.578   0.235   0.364  0.9490  0.1726 -1.3223
 6362TIP3    H219093   4.614   0.341   0.466 -0.0630 -0.5135 -0.2284
 6363TIP3   OH219094   3.474   2.793   4.838  0.5890  0.4319  0.0446
 6363TIP3    H119095   3.382   2.768   4.843  0.7329 -0.3998 -1.1577
 6363TIP3    H219096   3.498   2.780   4.747  2.1588 -0.3051  0.5241
 6364TIP3   OH219097   2.947   3.224   4.474  0.0047  0.1606 -0.2543
 6364TIP3    H119098   2.962   3.251   4.384 -0.3653 -0.0595 -0.3838
 6364TIP3    H219099   3.016   3.268   4.524  1.2827 -1.0661 -0.8738
 6365TIP3   OH219100   5.409   3.846   3.618 -0.1223  0.0550 -0.4436
 6365TIP3    H119101   5.316   3.868   3.616 -0.5571 -1.6667 -2.9789
 6365TIP3    H219102   5.415   3.776   3.683  0.1304  2.5098  2.4157
 6366TIP3   OH219103   6.276   2.827   0.448  0.3379 -0.6158 -0.5020
 6366TIP3    H119104   6.225   2.875   0.381  3.1900 -0.1522 -2.5324
 6366TIP3    H219105   6.284   2.739   0.412 -0.5855 -1.2357  0.7512
 6367TIP3   OH219106   5.845   4.383   1.065  0.7610  0.6266 -0.0345
 6367TIP3    H119107   5.823   4.327   1.140  0.9993  0.9835  0.3115
 6367TIP3    H219108   5.806   4.468   1.086 -1.6588 -0.0034 -1.6617
 6368TIP3   OH219109   5.166   1.187   3.212 -0.4676 -0.3984 -0.2223
 6368TIP3    H119110   5.225   1.116   3.188  1.7491  1.3126 -0.1481
 6368TIP3    H219111   5.182   1.201   3.305 -0.8709  0.1968 -0.2362
 6369TIP3   OH219112   3.921   1.678   4.900 -0.1922  0.1019 -0.0132
 6369TIP3    H119113   3.930   1.664   4.994 -0.0229  0.8005  0.0802
 6369TIP3    H219114   3.835   1.717   4.889  0.4245  1.5185  0.0355
 6370TIP3   OH219115   1.219   1.241   0.160  0.3377  0.5445  0.1172
 6370TIP3    H119116   1.176   1.156   0.167  0.1298  0.7114  0.8361
 6370TIP3    H219117   1.189   1.291   0.235  3.0793  0.0846  1.6467
 6371TIP3   OH219118   4.750   2.675   4.764 -0.5339 -0.0690  0.3473
 6371TIP3    H119119   4.753   2.647   4.855  2.1320 -0.4691  0.2149
 6371TIP3    H219120   4.820   2.625   4.721  1.0533  3.0316 -0.9964
 6372TIP3   OH219121   3.198   3.984   3.476  0.4425 -0.0145 -0.2871
 6372TIP3    H119122   3.171   4.074   3.459  2.7263  1.3048  2.3241
 6372TIP3    H219123   3.284   3.992   3.515  0.9647 -3.4276 -0.4460
 6373TIP3   OH219124   3.512   5.269   3.588  0.1028 -0.1823  0.3759
 6373TIP3    H119125   3.470   5.312   3.513  0.6046 -0.8512 -0.2960
 6373TIP3    H219126   3.485   5.177   3.581 -1.2550  0.0294  1.9998
 6374TIP3   OH219127   3.977   1.071   4.790  0.0197 -0.4796  0.1996
 6374TIP3    H119128   4.070   1.049   4.780  0.2174  0.8227 -1.1127
 6374TIP3    H219129   3.976   1.164   4.811 -0.9290 -0.9573  2.6951
 6375TIP3   OH219130   5.041   0.438   1.550  0.1709  0.0948 -0.0470
 6375TIP3    H119131   5.106   0.415   1.616  0.1564  1.5347  0.5093
 6375TIP3    H219132   4.971   0.373   1.562  0.0226  0.5006  1.5939
 6376TIP3   OH219133   2.956   1.438   0.133 -0.5301 -0.0365  0.0380
 6376TIP3    H119134   2.870   1.478   0.125  0.6643  2.8807  0.5305
 6376TIP3    H219135   2.945   1.370   0.200 -2.0942  1.4975  1.4430
 6377TIP3   OH219136   1.711   1.497   0.434  0.4808 -0.7210 -0.0210
 6377TIP3    H119137   1.786   1.494   0.494  0.9231 -0.6720 -0.5673
 6377TIP3    H219138   1.645   1.548   0.481  0.7202 -0.9068  0.5339
 6378TIP3   OH219139   2.945   1.117   2.793  0.0773 -0.6053  0.3866
 6378TIP3    H119140   3.012   1.059   2.830  1.2368  0.1072 -0.5192
 6378TIP3    H219141   2.918   1.172   2.866  0.5914 -0.8110  0.7401
 6379TIP3   OH219142   4.701   0.935   2.287  0.0982 -0.7624 -0.6368
 6379TIP3    H119143   4.648   0.928   2.207  0.8567  0.0557 -1.2361
 6379TIP3    H219144   4.775   0.877   2.271 -0.2982 -1.4465 -0.0473
 6380TIP3   OH219145   1.139   1.751   1.213 -0.1821  0.1783  0.2767
 6380TIP3    H119146   1.159   1.658   1.214 -0.0975  0.1783  1.8230
 6380TIP3    H219147   1.047   1.755   1.186 -1.3581 -0.7105  3.6397
 6381TIP3   OH219148   2.416   4.086   2.211 -0.3021  0.5856  0.0263
 6381TIP3    H119149   2.417   4.171   2.168 -0.3429  0.6503  0.1504
 6381TIP3    H219150   2.441   4.106   2.302  0.7335  0.3326 -0.1855
 6382TIP3   OH219151   2.515   5.010   1.020  0.0194  0.0559 -0.1393
 6382TIP3    H119152   2.452   4.938   1.020 -0.2696  0.2875 -1.0369
 6382TIP3    H219153   2.532   5.026   0.927  1.9733 -0.4613  0.1048
 6383TIP3   OH219154   5.690   5.642   2.115  0.4036 -0.1482  0.2386
 6383TIP3    H119155   5.614   5.699   2.128 -0.0288 -0.4671 -0.7878
 6383TIP3    H219156   5.677   5.570   2.177  0.5259  0.4414  0.9548
 6384TIP3   OH219157   0.900   3.982   4.774  0.4346 -0.6622  0.0388
 6384TIP3    H119158   0.899   4.077   4.779  0.7518 -0.7119  1.7434
 6384TIP3    H219159   0.989   3.959   4.751  0.7076 -0.5595  0.9390
 6385TIP3   OH219160   5.199   3.731   3.399  0.0284 -0.1043 -0.0324
 6385TIP3    H119161   5.129   3.760   3.341  0.9544  0.8528 -0.7110
 6385TIP3    H219162   5.176   3.768   3.485 -0.8869 -0.7852  0.0284
 6386TIP3   OH219163   0.089   3.051   1.569  0.3927  0.2709 -0.4164
 6386TIP3    H119164   0.079   3.138   1.607 -2.2684  0.6153 -1.7146
 6386TIP3    H219165   0.124   3.067   1.481 -0.3356  0.0576 -0.7492
 6387TIP3   OH219166   5.023   2.753   4.945  0.2837  0.2966  0.0612
 6387TIP3    H119167   5.033   2.713   5.032  0.7016  1.7527  0.7112
 6387TIP3    H219168   4.945   2.807   4.953  0.0819  0.1155 -0.6185
 6388TIP3   OH219169   1.685   5.606   2.900  0.4256 -0.2048 -0.0876
 6388TIP3    H119170   1.649   5.560   2.976  1.3797 -0.4212  0.2394
 6388TIP3    H219171   1.778   5.585   2.900  0.9588  1.9578  0.2449
 6389TIP3   OH219172   0.401   1.579   3.194 -0.8632  0.2670  0.1795
 6389TIP3    H119173   0.492   1.582   3.222 -0.1207 -0.7360 -1.8705
 6389TIP3    H219174   0.366   1.665   3.216  0.3830  0.4457  1.5853
 6390TIP3   OH219175   5.447   2.920   0.870 -0.2375  0.3243  0.5892
 6390TIP3    H119176   5.381   2.874   0.818 -0.9234  1.6105  0.2884
 6390TIP3    H219177   5.441   3.011   0.842  1.1034  0.6187  1.1597
 6391TIP3   OH219178   4.249   4.447   1.102  0.4571  0.2859  0.0256
 6391TIP3    H119179   4.172   4.411   1.060  0.8707 -0.3093 -0.2389
 6391TIP3    H219180   4.234   4.542   1.105 -1.1729  0.0399  1.7619
 6392TIP3   OH219181   0.234   4.823   1.636  0.3322  0.1632 -0.7521
 6392TIP3    H119182   0.248   4.904   1.685  0.8920  0.2789 -1.0884
 6392TIP3    H219183   0.166   4.844   1.572 -0.2543  0.0692 -0.1716
 6393TIP3   OH219184   4.969   3.362   2.120  0.1651  0.3670 -0.0448
 6393TIP3    H119185   4.934   3.294   2.177 -0.7036  1.1683  0.4027
 6393TIP3    H219186   4.975   3.440   2.177 -0.1399  1.0190 -0.8909
 6394TIP3   OH219187   0.128   5.465   4.900 -0.0039 -0.1497  0.0001
 6394TIP3    H119188   0.176   5.547   4.897 -1.2881  0.6188 -1.0838
 6394TIP3    H219189   0.136   5.435   4.991 -0.0689  1.5301  0.5954
 6395TIP3   OH219190   2.079   3.849   4.304 -0.2203 -0.1849  0.7641
 6395TIP3    H119191   2.132   3.770   4.307  1.6695  0.9957  0.2104
 6395TIP3    H219192   2.092   3.892   4.388 -0.5505 -0.0366  0.7447
 6396TIP3   OH219193   2.149   3.189   2.683  0.3148  0.4701 -0.2402
 6396TIP3    H119194   2.081   3.184   2.616  0.7653 -0.5438 -0.6495
 6396TIP3    H219195   2.142   3.105   2.729 -0.0354  1.1850  1.0407
 6397TIP3   OH219196   5.868   1.448   0.432 -0.3139  0.1451 -0.7886
 6397TIP3    H119197   5.929   1.466   0.360  2.9325 -1.8853  1.2284
 6397TIP3    H219198   5.903   1.498   0.506 -2.0439  0.1234  0.0969
 6398TIP3   OH219199   5.394   1.436   1.301 -0.0870 -0.2777 -0.2851
 6398TIP3    H119200   5.338   1.400   1.369 -1.3372 -1.4334 -1.8462
 6398TIP3    H219201   5.475   1.386   1.307  0.5558  0.8559  1.4625
 6399TIP3   OH219202   1.182   0.706   1.154  0.1979 -0.5443 -0.1430
 6399TIP3    H119203   1.185   0.616   1.120  2.0299 -0.6452  0.1890
 6399TIP3    H219204   1.109   0.747   1.107 -0.2400 -2.0061 -0.7891
 6400TIP3   OH219205   0.610   4.341   4.693 -0.4597 -0.2542  0.0633
 6400TIP3    H119206   0.639   4.299   4.774 -1.8575  0.3311  0.9011
 6400TIP3    H219207   0.591   4.431   4.718  0.3907  0.3170 -1.2342
 6401TIP3   OH219208   4.300   5.572   4.726 -0.5018 -0.9141  0.0816
 6401TIP3    H119209   4.378   5.520   4.705 -0.4538 -0.8908  0.2031
 6401TIP3    H219210   4.255   5.522   4.794  1.3973  0.8898  2.8871
 6402TIP3   OH219211   6.167   4.714   1.064  0.7632  0.7050  0.6816
 6402TIP3    H119212   6.094   4.684   1.117 -0.0578 -0.4436 -1.0255
 6402TIP3    H219213   6.241   4.659   1.092  0.4501  0.3997  0.9179
 6403TIP3   OH219214   4.294   2.150   3.145 -0.6010 -0.5514  0.2971
 6403TIP3    H119215   4.291   2.231   3.094 -0.7826  0.0267  1.1899
 6403TIP3    H219216   4.372   2.159   3.199 -1.0377 -0.6042  0.9571
 6404TIP3   OH219217   1.171   2.097   4.171  0.0127  0.1171 -0.2477
 6404TIP3    H119218   1.210   2.118   4.086 -2.7147 -1.5455 -2.1147
 6404TIP3    H219219   1.227   2.028   4.206  2.0993  1.9214  0.1801
 6405TIP3   OH219220   4.163   1.410   1.984 -0.2193 -0.1300  0.0905
 6405TIP3    H119221   4.195   1.468   1.915 -0.6180  1.2607  1.0424
 6405TIP3    H219222   4.090   1.363   1.943  1.1451 -1.2284 -1.1961
 6406TIP3   OH219223   3.124   3.333   3.295 -0.2303  0.0843 -0.8774
 6406TIP3    H119224   3.076   3.295   3.368  1.9385  2.5244  2.0836
 6406TIP3    H219225   3.084   3.420   3.283  0.6430  0.4424 -1.3158
 6407TIP3   OH219226   1.417   0.383   2.914  0.5140 -0.4016 -0.0656
 6407TIP3    H119227   1.388   0.346   2.831  0.5616  0.3399 -0.4207
 6407TIP3    H219228   1.352   0.353   2.978  1.4686 -2.5168  0.0035
 6408TIP3   OH219229   1.556   3.745   4.857 -0.4379 -0.6557 -0.2963
 6408TIP3    H119230   1.557   3.696   4.939  1.3585 -1.6208 -0.8568
 6408TIP3    H219231   1.520   3.683   4.793  1.3686 -1.1191 -0.9030
 6409TIP3   OH219232   2.744   5.567   4.539  0.0325 -0.1656  0.4465
 6409TIP3    H119233   2.736   5.552   4.445  0.1904  0.1943  0.3737
 6409TIP3    H219234   2.787   5.489   4.573  2.2412  0.7271 -0.1358
 6410TIP3   OH219235   3.357   0.548   0.286  0.5276  0.2081 -0.4973
 6410TIP3    H119236   3.277   0.536   0.235  0.4841 -0.9529 -0.2053
 6410TIP3    H219237   3.357   0.474   0.347  1.1546  0.9271  0.4032
 6411TIP3   OH219238   4.522   5.038   0.111 -0.2391  0.1644  0.5846
 6411TIP3    H119239   4.548   4.950   0.137 -1.2388  0.5122  3.1270
 6411TIP3    H219240   4.435   5.050   0.150  0.5640  2.8285  1.8184
 6412TIP3   OH219241   1.799   0.360   2.816  0.3856 -0.1047  0.0776
 6412TIP3    H119242   1.876   0.319   2.855 -0.2436 -0.9848  0.4257
 6412TIP3    H219243   1.768   0.297   2.752 -0.2019  0.1259  0.1308
 6413TIP3   OH219244   1.105   4.066   2.960 -0.5117  0.0737 -0.0713
 6413TIP3    H119245   1.183   4.122   2.964  1.0735 -2.0481  0.9054
 6413TIP3    H219246   1.099   4.027   3.047 -3.5137  1.1245  0.3076
 6414TIP3   OH219247   4.382   5.511   4.064  0.2148 -0.4153  0.2062
 6414TIP3    H119248   4.460   5.456   4.072  1.4391  0.9265 -1.8501
 6414TIP3    H219249   4.402   5.590   4.114  1.3998  1.0993 -2.4345
 6415TIP3   OH219250   4.097   0.618   3.690 -0.1731  0.3399 -0.4420
 6415TIP3    H119251   4.147   0.549   3.732 -0.9218 -1.5867 -2.5236
 6415TIP3    H219252   4.015   0.622   3.739 -0.0399 -0.1035 -0.1794
 6416TIP3   OH219253   0.914   1.370   2.874  0.0804  0.1558  0.4833
 6416TIP3    H119254   0.949   1.334   2.793 -1.9788  0.0266 -0.4024
 6416TIP3    H219255   0.881   1.456   2.851  0.9389  0.8044  1.5818
 6417TIP3   OH219256   2.465   0.052   0.929 -0.0634 -0.6213  0.0869
 6417TIP3    H119257   2.500  -0.011   0.866 -0.0862 -1.8541  1.2685
 6417TIP3    H219258   2.461   0.004   1.012  1.9651  1.5544  1.5581
 6418TIP3   OH219259   2.283   5.059   4.343 -0.6378 -0.0990  0.0263
 6418TIP3    H119260   2.252   5.127   4.284  1.2618 -1.8148 -3.2437
 6418TIP3    H219261   2.213   4.993   4.343 -0.4455 -0.3148 -0.7744
 6419TIP3   OH219262   1.982   4.260   3.110 -0.0717  0.0234  0.1731
 6419TIP3    H119263   1.919   4.316   3.156 -0.8593 -0.9854  0.3594
 6419TIP3    H219264   1.966   4.173   3.145  0.9792 -0.3656 -0.2810
 6420TIP3   OH219265   5.705   0.838   0.062 -0.2561 -0.2650 -0.8509
 6420TIP3    H119266   5.648   0.764   0.042  0.7592 -1.2400 -0.2824
 6420TIP3    H219267   5.792   0.798   0.073 -0.1363  0.5575  2.2107
 6421TIP3   OH219268   3.200   3.280   2.474  0.3801  0.2248 -0.1545
 6421TIP3    H119269   3.197   3.185   2.465  0.1278  0.3230 -1.2338
 6421TIP3    H219270   3.235   3.311   2.391 -0.5060  1.1403 -0.2017
 6422TIP3   OH219271   6.326   2.167   3.113 -0.2637 -0.5635  1.0823
 6422TIP3    H119272   6.335   2.261   3.096  0.7282 -0.8433 -0.1105
 6422TIP3    H219273   6.248   2.159   3.168 -0.5631  0.9202  0.9016
 6423TIP3   OH219274   2.680   4.495   3.929 -0.3066  0.1783  0.2254
 6423TIP3    H119275   2.682   4.588   3.906 -1.5273  0.0344 -0.5318
 6423TIP3    H219276   2.768   4.477   3.963 -0.2044  1.7188  0.8723
 6424TIP3   OH219277   4.344   2.358   0.651 -0.0935  0.3140 -0.5873
 6424TIP3    H119278   4.277   2.402   0.600 -0.2284  0.3700 -0.3646
 6424TIP3    H219279   4.295   2.303   0.713  0.0715 -0.6612 -1.2978
 6425TIP3   OH219280   4.624   4.223   4.620  0.0174  0.4768 -0.3010
 6425TIP3    H119281   4.716   4.197   4.626  0.1586  0.7825 -0.9931
 6425TIP3    H219282   4.622   4.311   4.658  0.1628  0.7792 -0.9681
 6426TIP3   OH219283   2.082   3.700   0.444  0.1144 -0.6288 -0.2357
 6426TIP3    H119284   2.019   3.758   0.487  1.6566  1.2287 -0.3783
 6426TIP3    H219285   2.028   3.631   0.405 -1.6362 -0.2960  1.4363
 6427TIP3   OH219286   0.550   0.950   1.089 -0.1776  0.6484  0.0350
 6427TIP3    H119287   0.469   0.948   1.038 -1.0272  1.8293  1.2585
 6427TIP3    H219288   0.550   1.037   1.130  1.8643  0.7710 -0.1672
 6428TIP3   OH219289   6.021   4.815   2.499  0.4884  0.5220 -0.2309
 6428TIP3    H119290   5.970   4.777   2.571  0.7891  1.3528  0.4259
 6428TIP3    H219291   5.996   4.907   2.497  0.3988  0.4903 -1.2768
 6429TIP3   OH219292   1.615   5.467   1.691 -0.0539  0.6621  0.8150
 6429TIP3    H119293   1.696   5.418   1.705 -0.8429 -0.8112  0.4672
 6429TIP3    H219294   1.621   5.499   1.602  0.2065  0.6768  0.8374
 6430TIP3   OH219295   0.209   0.304   1.693  0.2281 -0.4256 -0.5728
 6430TIP3    H119296   0.150   0.246   1.739 -1.1202  0.1739 -1.4884
 6430TIP3    H219297   0.241   0.252   1.619 -0.1389 -0.3546 -0.7838
 6431TIP3   OH219298   3.135   5.469   1.506  0.2673 -0.2608 -0.0645
 6431TIP3    H119299   3.064   5.486   1.444 -0.1623 -0.9903  0.2071
 6431TIP3    H219300   3.092   5.467   1.591  1.0368  1.9656  0.4351
 6432TIP3   OH219301   0.921   1.058   2.939 -0.3961 -0.4953 -0.3546
 6432TIP3    H119302   0.966   0.975   2.958  0.5690  0.4486  1.7980
 6432TIP3    H219303   0.848   1.059   3.000 -1.0348 -0.2154 -1.1153
 6433TIP3   OH219304   2.953   1.406   2.040  0.0942 -0.5364 -0.1723
 6433TIP3    H119305   2.961   1.415   2.135  0.4327 -0.8817 -0.1660
 6433TIP3    H219306   2.947   1.312   2.026 -4.8288 -0.4751 -0.1166
 6434TIP3   OH219307   5.873   3.733   3.045 -0.9104  0.6757  0.5849
 6434TIP3    H119308   5.810   3.766   3.109 -0.5110  1.1020  0.7577
 6434TIP3    H219309   5.854   3.639   3.041  0.5204  0.1939  3.0193
 6435TIP3   OH219310   1.131   4.652   0.498  0.3036  0.3449  0.1329
 6435TIP3    H119311   1.097   4.625   0.583 -1.2491 -0.7199 -0.7573
 6435TIP3    H219312   1.110   4.578   0.439 -0.0148  1.6463 -1.4676
 6436TIP3   OH219313   3.317   4.898   0.700  0.5457 -0.8153 -0.3078
 6436TIP3    H119314   3.339   4.932   0.613  2.0196  0.6328  0.5653
 6436TIP3    H219315   3.263   4.967   0.739  3.0822  0.4003  1.2799
 6437TIP3   OH219316   3.751   1.025   4.955  0.0533  0.1163 -0.2962
 6437TIP3    H119317   3.827   1.028   4.896 -0.4670 -2.3234 -1.1970
 6437TIP3    H219318   3.677   1.007   4.897 -1.1063  1.4840  0.7029
 6438TIP3   OH219319   5.410   5.206   1.287 -0.2720 -0.0385  0.3001
 6438TIP3    H119320   5.345   5.276   1.283 -0.7946 -0.5514 -0.5248
 6438TIP3    H219321   5.468   5.222   1.213  0.3959  0.2651  0.8804
 6439TIP3   OH219322   3.184   1.257   3.683 -0.3170  0.3597  0.1205
 6439TIP3    H119323   3.168   1.224   3.771 -2.2444 -1.6972 -0.8783
 6439TIP3    H219324   3.271   1.223   3.660  0.0755  0.6750  1.1056
 6440TIP3   OH219325   2.158   1.991   4.412  0.0739  0.3746  0.2479
 6440TIP3    H119326   2.213   1.951   4.479 -0.3892 -0.6657  0.0197
 6440TIP3    H219327   2.175   1.940   4.333 -1.2226  0.0150  0.1793
 6441TIP3   OH219328   3.175   5.934   2.694  0.2806  0.2062 -0.0483
 6441TIP3    H119329   3.246   5.987   2.732  0.3815  0.2507 -0.2982
 6441TIP3    H219330   3.105   5.997   2.677  0.8906  0.5012 -1.5866
 6442TIP3   OH219331   4.440   0.768   0.207  0.3492  0.7659  0.6690
 6442TIP3    H119332   4.438   0.864   0.207 -0.7487  0.7497  0.5535
 6442TIP3    H219333   4.353   0.742   0.178  0.0856 -0.2942  2.3349
 6443TIP3   OH219334   4.316   2.942   2.605  0.3715 -0.5035 -0.2092
 6443TIP3    H119335   4.396   2.922   2.556 -0.5581 -0.9829 -1.6079
 6443TIP3    H219336   4.336   2.919   2.695  2.2637  0.6773 -0.2687
 6444TIP3   OH219337   5.516   5.550   2.996  0.3120  0.0086 -0.5433
 6444TIP3    H119338   5.490   5.534   2.905 -0.9177  0.0086 -0.2168
 6444TIP3    H219339   5.508   5.645   3.006  1.8335  0.1921 -0.8143
 6445TIP3   OH219340   5.924   4.532   5.083  0.3452 -0.2030  0.0388
 6445TIP3    H119341   5.910   4.438   5.071 -0.4711 -0.1888  0.7523
 6445TIP3    H219342   5.989   4.538   5.153  2.3387 -0.2427 -1.7302
 6446TIP3   OH219343   4.135   0.053   2.519  0.1243  0.4561  0.0041
 6446TIP3    H119344   4.052   0.019   2.485  0.5797 -1.9794  1.1153
 6446TIP3    H219345   4.136   0.145   2.491 -1.7252 -0.1059 -2.2650
 6447TIP3   OH219346   5.845   0.691   3.724 -0.1139  0.3743 -0.6640
 6447TIP3    H119347   5.838   0.641   3.643  0.7138 -1.7115  0.4755
 6447TIP3    H219348   5.926   0.660   3.764 -1.4922 -0.1537  1.9093
 6448TIP3   OH219349   1.206   2.764   2.528 -0.3912  0.1779  0.2210
 6448TIP3    H119350   1.121   2.758   2.485 -0.9858  2.5961  0.9433
 6448TIP3    H219351   1.224   2.858   2.533  2.6840 -0.2598 -0.5559
 6449TIP3   OH219352   4.330   5.040   2.179  0.4710  0.1624 -0.4236
 6449TIP3    H119353   4.314   4.994   2.097  0.5161 -0.4761 -0.0775
 6449TIP3    H219354   4.386   5.114   2.154 -1.0858  1.1174 -1.2799
 6450TIP3   OH219355   4.189   0.153   4.423 -0.5255 -0.1696  0.2719
 6450TIP3    H119356   4.112   0.113   4.463  0.4721 -2.2367  0.2726
 6450TIP3    H219357   4.258   0.144   4.489  0.3478 -0.7489 -0.6946
 6451TIP3   OH219358   5.025   3.212   1.224 -0.1542  0.1984  0.0208
 6451TIP3    H119359   4.953   3.229   1.285  1.3345 -0.8576  2.2160
 6451TIP3    H219360   5.002   3.129   1.182  0.0886 -0.5187  1.2657
 6452TIP3   OH219361   4.081   1.909   4.086  0.1248 -0.4003 -0.0782
 6452TIP3    H119362   4.057   1.952   4.003  0.1333 -0.4090 -0.0850
 6452TIP3    H219363   3.999   1.904   4.135  0.2831  0.4201  0.2873
 6453TIP3   OH219364   4.542   4.923   4.531  0.0275  0.3487 -0.0085
 6453TIP3    H119365   4.459   4.955   4.496 -0.5028 -0.3568  0.5679
 6453TIP3    H219366   4.553   4.970   4.613  0.9835  1.5791 -0.8078
 6454TIP3   OH219367   0.455   3.727   3.904 -0.2665  0.1917 -0.1935
 6454TIP3    H119368   0.369   3.687   3.913  0.1969 -0.9451 -0.6373
 6454TIP3    H219369   0.447   3.786   3.829 -0.4134 -0.6047 -0.8149
 6455TIP3   OH219370   4.235   3.028   1.002 -0.3109  0.6119 -0.1426
 6455TIP3    H119371   4.238   3.100   1.065 -2.3212 -0.3411  1.1224
 6455TIP3    H219372   4.327   3.001   0.993  0.1621  1.5185  1.4973
 6456TIP3   OH219373   0.857   0.917   1.434  0.1771 -0.1328 -0.4295
 6456TIP3    H119374   0.943   0.951   1.408 -0.4109  1.6895 -0.1299
 6456TIP3    H219375   0.794   0.973   1.389 -0.8864 -1.4372 -0.6420
 6457TIP3   OH219376   4.108   3.983   1.375  0.0931 -0.6172  0.2520
 6457TIP3    H119377   4.063   4.067   1.385 -1.1401 -1.1560 -0.4620
 6457TIP3    H219378   4.171   3.980   1.447 -2.0121 -0.4292  2.1960
 6458TIP3   OH219379   0.478   1.261   0.250  0.8459  0.4137 -0.1470
 6458TIP3    H119380   0.496   1.317   0.175  1.1418  1.6984  0.8295
 6458TIP3    H219381   0.458   1.323   0.321  0.4099 -0.7569  0.7892
 6459TIP3   OH219382   1.040   1.234   4.313 -0.4043 -0.5466 -0.2660
 6459TIP3    H119383   1.121   1.186   4.297  0.2570  0.5386 -0.2518
 6459TIP3    H219384   1.043   1.307   4.252 -0.4767  0.5661  1.0354
 6460TIP3   OH219385   0.539   4.842   2.737  0.3855  0.3499 -0.3838
 6460TIP3    H119386   0.602   4.819   2.669  0.3253  0.0157 -0.3329
 6460TIP3    H219387   0.566   4.790   2.813 -0.6834 -0.7651 -0.7382
 6461TIP3   OH219388   6.172   4.794   3.195  0.0556  0.5884  0.9310
 6461TIP3    H119389   6.136   4.705   3.190  0.5355  0.4326  0.0998
 6461TIP3    H219390   6.102   4.847   3.232 -1.3096  0.4252 -1.2397
 6462TIP3   OH219391   1.821   3.634   2.398  0.3222 -0.4444 -0.0155
 6462TIP3    H119392   1.902   3.666   2.437  2.3226 -2.4789 -2.1219
 6462TIP3    H219393   1.815   3.679   2.314 -0.4015 -0.7551 -0.1395
 6463TIP3   OH219394   0.805   3.823   5.109  0.3744 -0.1679 -0.2729
 6463TIP3    H119395   0.749   3.886   5.154  0.8720 -0.0958  0.2602
 6463TIP3    H219396   0.749   3.784   5.042 -0.2067  0.1528  0.0210
 6464TIP3   OH219397   3.601   0.570   4.437  0.7158  0.0297 -0.5413
 6464TIP3    H119398   3.695   0.553   4.444  0.7080  0.1215 -0.2290
 6464TIP3    H219399   3.592   0.619   4.355  0.9283 -0.0613 -0.6203
 6465TIP3   OH219400   3.502   3.996   3.837 -0.0768  0.3649  0.5974
 6465TIP3    H119401   3.467   4.023   3.752  1.3605  0.3831 -0.0082
 6465TIP3    H219402   3.498   4.075   3.891 -3.3126 -0.1955  1.4302
 6466TIP3   OH219403   2.030   1.888   0.397 -0.6498 -0.2724 -0.1042
 6466TIP3    H119404   1.975   1.854   0.326 -1.1368  2.0604 -0.9130
 6466TIP3    H219405   2.098   1.822   0.408 -2.3571 -2.2160 -0.5460
 6467TIP3   OH219406   5.979   2.727   4.378 -0.4746  0.3898  0.6929
 6467TIP3    H119407   5.900   2.758   4.422 -1.1983  0.2415 -0.4544
 6467TIP3    H219408   5.946   2.673   4.305  0.6224  1.5097 -0.6856
 6468TIP3   OH219409   4.657   3.742   0.847  0.2648  0.1005 -0.3180
 6468TIP3    H119410   4.623   3.801   0.779  0.0522  0.7798  0.3554
 6468TIP3    H219411   4.579   3.711   0.893  0.4270 -0.0103 -0.1160
 6469TIP3   OH219412   3.015   3.929   2.455  0.1497  0.3223  0.5737
 6469TIP3    H119413   3.034   4.023   2.448  0.0089  0.4374  1.5632
 6469TIP3    H219414   2.940   3.925   2.514  0.4919 -0.4404  0.9703
 6470TIP3   OH219415   1.117   3.702   1.060 -0.1249  0.1727 -0.0419
 6470TIP3    H119416   1.074   3.760   1.123 -1.4018 -0.0121 -0.7137
 6470TIP3    H219417   1.161   3.636   1.114  1.5194  1.8119  0.7540
 6471TIP3   OH219418   0.607   5.296   2.868  0.2913 -0.6106  0.4958
 6471TIP3    H119419   0.547   5.359   2.909  1.7068  0.8285  0.4367
 6471TIP3    H219420   0.596   5.217   2.920 -0.7491 -0.0022  1.2576
 6472TIP3   OH219421   1.167   4.406   0.349 -0.4450  0.4401 -0.2591
 6472TIP3    H119422   1.188   4.363   0.432  2.6473 -0.5207 -1.3834
 6472TIP3    H219423   1.108   4.346   0.304  1.7874 -1.5724 -0.7240
 6473TIP3   OH219424   0.703   5.593   1.801  0.1147  0.0106 -0.0412
 6473TIP3    H119425   0.709   5.632   1.714 -0.2377  3.8614  1.4859
 6473TIP3    H219426   0.609   5.585   1.817  0.1797 -1.0716 -0.1086
 6474TIP3   OH219427   3.561   0.621   0.654  0.3191 -0.1758 -0.1407
 6474TIP3    H119428   3.492   0.674   0.613  1.2820  0.4973 -0.9629
 6474TIP3    H219429   3.613   0.685   0.703  1.0712 -0.4591 -0.5488
 6475TIP3   OH219430   3.280   4.921   3.802  0.5372 -0.0349 -0.4536
 6475TIP3    H119431   3.227   4.945   3.878  2.2005  0.5825  0.5767
 6475TIP3    H219432   3.275   4.825   3.798  1.2142 -0.1686  1.0885
 6476TIP3   OH219433   2.769   1.436   4.394  0.0227  0.3301 -0.4962
 6476TIP3    H119434   2.767   1.412   4.486  1.5926  0.7127 -0.3370
 6476TIP3    H219435   2.793   1.529   4.393  2.3745 -0.1937 -1.2857
 6477TIP3   OH219436   4.569   0.116   5.173  0.1530  0.1194  0.1078
 6477TIP3    H119437   4.619   0.172   5.234 -0.1993 -0.2155  0.7121
 6477TIP3    H219438   4.610   0.132   5.088  1.6411 -0.5450  0.6676
 6478TIP3   OH219439   2.722   5.150   4.017  0.0807 -0.0574 -0.4939
 6478TIP3    H119440   2.630   5.126   4.007  0.1399 -0.1770 -0.7571
 6478TIP3    H219441   2.764   5.070   4.049  0.2672 -0.2869 -1.3110
 6479TIP3   OH219442   1.394   0.545   3.732  0.6687  0.4138  0.0222
 6479TIP3    H119443   1.471   0.491   3.747 -0.2183 -0.6297  0.9315
 6479TIP3    H219444   1.428   0.635   3.734  1.8472 -0.0173  0.4291
 6480TIP3   OH219445   2.555   5.067   0.546 -0.5231  0.1414  0.0758
 6480TIP3    H119446   2.627   5.115   0.507 -2.1264  1.0976 -1.8606
 6480TIP3    H219447   2.593   4.982   0.571  1.5814  1.1732  0.5922
 6481TIP3   OH219448   1.688   2.992   5.155  0.1304 -0.2912 -0.3258
 6481TIP3    H119449   1.652   3.080   5.168 -1.2685 -0.8597 -0.0607
 6481TIP3    H219450   1.614   2.941   5.122  0.7840 -1.4765 -0.0213
 6482TIP3   OH219451   1.552   2.704   1.147  0.8596  0.1927 -0.2014
 6482TIP3    H119452   1.522   2.626   1.194  2.0247  0.4464  1.0264
 6482TIP3    H219453   1.614   2.746   1.207 -0.2833  2.4689 -0.5359
 6483TIP3   OH219454   1.191   1.369   3.320  0.1070  0.2445  0.6579
 6483TIP3    H119455   1.202   1.447   3.265  2.1502  0.4013  1.2216
 6483TIP3    H219456   1.198   1.402   3.409  1.1727 -0.5894  0.9037
 6484TIP3   OH219457   2.714   2.139   0.957  0.1012 -0.0095 -0.4485
 6484TIP3    H119458   2.725   2.206   1.024  2.0807  0.4896 -1.1781
 6484TIP3    H219459   2.659   2.072   0.998  1.1876  0.2926  1.6587
 6485TIP3   OH219460   1.637   4.696   4.519  0.5405 -0.4302  0.2998
 6485TIP3    H119461   1.680   4.612   4.505 -0.3364 -0.9622  0.7753
 6485TIP3    H219462   1.625   4.701   4.614  1.1565  0.5231  0.3465
 6486TIP3   OH219463   2.457   4.524   1.751  0.7736  0.3715  0.0435
 6486TIP3    H119464   2.364   4.536   1.770  0.1958 -1.9964 -0.8902
 6486TIP3    H219465   2.489   4.611   1.728 -0.6511  1.6487  2.5368
 6487TIP3   OH219466   5.480   0.829   2.898  0.0186 -0.0618  0.1723
 6487TIP3    H119467   5.519   0.914   2.919  0.9132 -0.5406  0.4958
 6487TIP3    H219468   5.543   0.788   2.838 -0.1129 -0.7377  0.4886
 6488TIP3   OH219469   4.322   3.557   3.514 -0.5938  0.1660 -0.0037
 6488TIP3    H119470   4.294   3.646   3.495  0.5435  0.5921  0.2199
 6488TIP3    H219471   4.313   3.549   3.609  1.5122  0.8883  0.3210
 6489TIP3   OH219472   0.634   5.120   1.431 -0.5678  0.5898  0.0367
 6489TIP3    H119473   0.664   5.126   1.341  1.2785 -0.9387  0.4809
 6489TIP3    H219474   0.665   5.201   1.473  0.8619  0.1446 -0.1136
 6490TIP3   OH219475   3.598   1.435   2.578 -0.4530 -0.0516 -0.3273
 6490TIP3    H119476   3.540   1.511   2.573  1.1442  1.2211 -0.4972
 6490TIP3    H219477   3.655   1.454   2.653  0.3165 -0.8146 -0.7041
 6491TIP3   OH219478   0.541   5.159   3.514  0.1915  0.3090 -0.8825
 6491TIP3    H119479   0.498   5.241   3.490  0.3146  0.8311  0.6079
 6491TIP3    H219480   0.472   5.093   3.511 -0.6358  1.0269  0.8955
 6492TIP3   OH219481   2.424   4.002   4.821  0.2996  0.0459 -0.4540
 6492TIP3    H119482   2.344   3.956   4.845  0.6049  0.3011  1.2313
 6492TIP3    H219483   2.400   4.094   4.821  0.2614  0.0380 -1.3863
 6493TIP3   OH219484   6.087   0.476   3.545 -0.0505 -0.0768 -0.7780
 6493TIP3    H119485   6.010   0.523   3.512 -0.1124 -0.6781 -1.5143
 6493TIP3    H219486   6.068   0.384   3.528  0.5338 -0.2901 -0.3164
 6494TIP3   OH219487   4.765   4.377   3.998  0.3483 -0.4738  0.1835
 6494TIP3    H119488   4.706   4.355   3.926  2.0348 -0.0701 -1.4043
 6494TIP3    H219489   4.808   4.458   3.970  1.8454 -0.9016  1.1350
 6495TIP3   OH219490   5.031   3.384   4.705 -0.0756 -0.1642  0.2399
 6495TIP3    H119491   5.118   3.344   4.701 -0.3673 -0.7244 -0.7154
 6495TIP3    H219492   5.019   3.405   4.798  1.2345  0.2829  0.3352
 6496TIP3   OH219493   1.001   4.850   0.694  0.1228  0.0387 -0.2515
 6496TIP3    H119494   0.927   4.870   0.751  1.2431  2.8617  0.3581
 6496TIP3    H219495   1.061   4.800   0.749 -0.8022 -1.2843 -0.4099
 6497TIP3   OH219496   1.744   4.474   2.416  0.2943  0.1254 -0.2756
 6497TIP3    H119497   1.775   4.561   2.392  0.2214  0.2642  0.1282
 6497TIP3    H219498   1.823   4.426   2.441  0.2636  0.2672  0.0964
 6498TIP3   OH219499   0.613   4.819   1.251 -0.4554  0.5480  0.1989
 6498TIP3    H119500   0.553   4.776   1.189  0.3088 -2.2365  1.2613
 6498TIP3    H219501   0.557   4.881   1.298 -2.3984 -1.4568  0.6730
 6499TIP3   OH219502   5.392   2.606   2.486 -0.7093 -0.4609  0.2683
 6499TIP3    H119503   5.467   2.557   2.453 -0.3938  0.3739 -0.2916
 6499TIP3    H219504   5.405   2.610   2.580  0.5390  0.6099  0.0753
 6500TIP3   OH219505   1.933   4.658   3.067  0.0544  0.5431  0.5023
 6500TIP3    H119506   1.881   4.626   3.141  0.9985 -0.2541  0.8493
 6500TIP3    H219507   1.936   4.753   3.078  0.5331  0.4009  1.7402
 6501TIP3   OH219508   2.032   3.566   0.109  0.5206  0.2556  0.4060
 6501TIP3    H119509   2.074   3.647   0.080  0.3537 -0.1474 -1.0463
 6501TIP3    H219510   2.084   3.496   0.069 -1.8654 -0.2559 -2.1246
 6502TIP3   OH219511   5.172   1.379   2.524 -0.8366  0.2981 -0.6728
 6502TIP3    H119512   5.180   1.364   2.429 -1.8641  0.0514 -0.7389
 6502TIP3    H219513   5.078   1.380   2.539 -0.6807 -0.4254  0.4686
 6503TIP3   OH219514   4.960   1.466   5.051 -0.2687 -0.2733  0.3579
 6503TIP3    H119515   4.872   1.447   5.085  0.2850  0.2340  2.1462
 6503TIP3    H219516   4.980   1.553   5.083  0.8207 -0.3017 -0.2013
 6504TIP3   OH219517   5.727   3.615   0.748  0.0324 -0.7165 -0.7040
 6504TIP3    H119518   5.801   3.611   0.688 -0.3074 -0.7732 -1.1275
 6504TIP3    H219519   5.766   3.610   0.836  0.5961  0.2450 -0.8896
 6505TIP3   OH219520   1.269   5.765   3.424  0.0580 -0.4569  0.6101
 6505TIP3    H119521   1.343   5.826   3.417 -0.3641  0.1491  1.2340
 6505TIP3    H219522   1.304   5.681   3.394  0.8593 -0.0699  0.4267
 6506TIP3   OH219523   1.177   4.612   4.101 -0.0722  0.1719 -0.1793
 6506TIP3    H119524   1.245   4.633   4.036  1.6724  2.1826  2.1047
 6506TIP3    H219525   1.160   4.519   4.088  2.9356 -0.3751 -1.1221
 6507TIP3   OH219526   6.080   0.940   2.497 -0.3217  0.1854  0.5226
 6507TIP3    H119527   6.086   0.929   2.402 -1.2413 -0.6598  0.5507
 6507TIP3    H219528   6.026   1.017   2.508  1.5141  1.5682  0.3709
 6508TIP3   OH219529   0.486   5.846   0.813 -0.1242  0.1513  0.2706
 6508TIP3    H119530   0.580   5.836   0.823 -0.0175 -0.4438 -1.0463
 6508TIP3    H219531   0.448   5.777   0.867  0.2019  0.2581  0.6352
 6509TIP3   OH219532   2.558   4.775   5.069 -0.1050 -0.7310  0.0131
 6509TIP3    H119533   2.505   4.839   5.117 -0.8434 -1.2390 -0.0932
 6509TIP3    H219534   2.519   4.774   4.981  0.8614 -0.2321 -0.4360
 6510TIP3   OH219535   6.250   4.830   0.502 -0.0231 -0.5002 -0.1299
 6510TIP3    H119536   6.267   4.896   0.569 -1.6869  0.4906 -0.6230
 6510TIP3    H219537   6.317   4.763   0.516  0.6803  0.4858  1.4461
 6511TIP3   OH219538   5.109   1.239   3.877  0.5083 -0.9822 -0.4710
 6511TIP3    H119539   5.070   1.242   3.965 -3.6975 -0.8913 -2.1247
 6511TIP3    H219540   5.157   1.322   3.870 -1.8349  0.5855  0.6975
 6512TIP3   OH219541   4.583   3.320   1.350 -0.1295 -0.1775  0.8034
 6512TIP3    H119542   4.584   3.227   1.327 -2.2273 -0.4225  1.5481
 6512TIP3    H219543   4.567   3.365   1.267 -0.0362 -0.5279  0.5941
 6513TIP3   OH219544   5.379   5.232   0.562 -0.3094  0.2495 -0.0255
 6513TIP3    H119545   5.400   5.321   0.532 -2.1398  0.9836  0.7321
 6513TIP3    H219546   5.325   5.196   0.491  1.1993 -0.6407 -0.7607
 6514TIP3   OH219547   2.769   0.999   0.400 -0.4075  0.0119 -0.3619
 6514TIP3    H119548   2.681   1.028   0.425  1.2602  2.9973  2.8460
 6514TIP3    H219549   2.799   0.946   0.474  0.6135 -0.8449 -1.3520
 6515TIP3   OH219550   5.774   5.595   1.628 -0.3025  0.4100 -0.5537
 6515TIP3    H119551   5.756   5.502   1.618 -1.2332  0.5614 -0.4300
 6515TIP3    H219552   5.757   5.632   1.541  0.5213  0.3946 -0.7202
 6516TIP3   OH219553   4.881   0.072   1.749  0.7760  0.2506  0.1259
 6516TIP3    H119554   4.918   0.116   1.825  0.0409 -0.1999  0.7654
 6516TIP3    H219555   4.881   0.138   1.680 -1.3972  1.6984  1.3883
 6517TIP3   OH219556   4.053   2.455   1.505  0.5809 -0.3416 -0.4081
 6517TIP3    H119557   3.982   2.478   1.445 -0.1306  2.2842  1.2827
 6517TIP3    H219558   4.009   2.411   1.578  1.1377 -1.3447 -0.6517
 6518TIP3   OH219559   1.672   1.844   3.620 -0.6094  0.2401  0.3297
 6518TIP3    H119560   1.711   1.841   3.708 -3.1792 -1.4748  1.5164
 6518TIP3    H219561   1.674   1.937   3.596 -1.8523  1.1005  3.1870
 6519TIP3   OH219562   0.158   2.658   4.673  0.0318  0.2128  0.2659
 6519TIP3    H119563   0.198   2.674   4.587 -0.7739  4.1501  0.4523
 6519TIP3    H219564   0.078   2.609   4.653  0.6799 -0.3765 -1.0136
 6520TIP3   OH219565   0.804   4.335   4.463 -0.1737 -0.2346  0.5107
 6520TIP3    H119566   0.733   4.302   4.408 -0.1568  2.8721 -1.6288
 6520TIP3    H219567   0.763   4.351   4.548 -2.7677  3.0920 -1.0891
 6521TIP3   OH219568   3.544   0.480   0.978  0.7125 -0.1224  0.0420
 6521TIP3    H119569   3.464   0.493   0.927  0.2548  1.7516  1.1068
 6521TIP3    H219570   3.565   0.388   0.967  0.4104  0.0965 -3.1223
 6522TIP3   OH219571   1.310   5.897   0.594  0.3065  0.5677  0.1667
 6522TIP3    H119572   1.254   5.820   0.585 -0.6013  1.0287  1.5328
 6522TIP3    H219573   1.271   5.947   0.665  2.6599  0.7560  1.4279
 6523TIP3   OH219574   5.764   5.770   2.984 -0.3152 -0.5924 -0.4538
 6523TIP3    H119575   5.801   5.684   3.007 -0.3050 -0.1540  1.2715
 6523TIP3    H219576   5.684   5.776   3.035 -1.1172 -0.1813 -1.7204
 6524TIP3   OH219577   3.541   5.925   5.136  0.5019  0.0541 -0.0832
 6524TIP3    H119578   3.491   5.909   5.216  1.3040  1.6658  0.7802
 6524TIP3    H219579   3.522   6.016   5.113  1.5893  0.1272 -0.7881
 6525TIP3   OH219580   4.841   1.923   2.512  0.3341 -0.5293 -0.4422
 6525TIP3    H119581   4.842   1.840   2.463 -1.0591 -2.2246  2.2157
 6525TIP3    H219582   4.871   1.899   2.599 -0.1013  1.8071  0.3929
 6526TIP3   OH219583   3.886   0.775   2.964  0.1700 -0.4173 -0.2053
 6526TIP3    H119584   3.797   0.808   2.979 -0.0661 -0.6769 -1.0268
 6526TIP3    H219585   3.914   0.742   3.050  0.1414  1.2351  0.4961
 6527TIP3   OH219586   5.613   1.979   1.105 -0.1885  0.3611  0.1223
 6527TIP3    H119587   5.554   2.051   1.084 -1.2526 -0.0950  1.3895
 6527TIP3    H219588   5.692   2.022   1.139 -0.9131  0.9607  1.1307
 6528TIP3   OH219589   2.032   2.772   4.644  0.4242 -0.3034 -0.7209
 6528TIP3    H119590   2.014   2.866   4.637  0.3994 -0.3373 -1.1761
 6528TIP3    H219591   2.126   2.765   4.626  0.4112 -0.3743 -0.7603
 6529TIP3   OH219592   3.733   5.251   2.907  0.4252  0.4102  0.0995
 6529TIP3    H119593   3.776   5.196   2.973 -0.4524 -1.9558 -1.2164
 6529TIP3    H219594   3.804   5.275   2.847  0.8928  1.1262  0.9092
 6530TIP3   OH219595   1.076   4.193   3.631  0.0076 -0.2292 -0.0497
 6530TIP3    H119596   1.006   4.136   3.598 -0.2842  1.3849 -2.4664
 6530TIP3    H219597   1.035   4.279   3.639  1.3711  0.4677 -0.2551
 6531TIP3   OH219598   3.107   2.089   0.063  0.2108 -0.0701 -0.1791
 6531TIP3    H119599   3.180   2.095   0.124  1.3718 -0.7847 -1.4541
 6531TIP3    H219600   3.110   1.998   0.031 -1.8258 -0.4048  0.4562
 6532TIP3   OH219601   4.776   1.775   3.437  0.3552  0.4232 -0.5271
 6532TIP3    H119602   4.841   1.705   3.441 -1.8985 -1.7683  0.5283
 6532TIP3    H219603   4.767   1.795   3.344 -0.0332 -1.8637 -1.0301
 6533TIP3   OH219604   3.009   4.519   2.799  0.3245 -0.0317  0.3179
 6533TIP3    H119605   3.034   4.522   2.707  1.5118 -0.8537  0.5833
 6533TIP3    H219606   2.961   4.436   2.808  2.7948 -1.5262  0.9673
 6534TIP3   OH219607   5.447   2.468   1.003 -0.4170 -0.0082 -0.2426
 6534TIP3    H119608   5.524   2.475   1.060 -1.6603 -0.6303  1.6040
 6534TIP3    H219609   5.394   2.399   1.044 -2.0372  0.5187 -1.3800
 6535TIP3   OH219610   5.126   5.351   0.330 -0.3523  0.6492 -0.4081
 6535TIP3    H119611   5.164   5.437   0.349  2.6563 -0.4949 -0.6767
 6535TIP3    H219612   5.056   5.342   0.395  0.1809  2.7118  0.5686
 6536TIP3   OH219613   5.500   1.349   3.017 -0.0113 -0.4736  0.0827
 6536TIP3    H119614   5.448   1.427   3.035  1.6393  1.2440 -1.9356
 6536TIP3    H219615   5.436   1.282   2.994 -1.4489  0.5888  0.8353
 6537TIP3   OH219616   1.023   4.857   4.909  0.4185  0.6644 -0.5361
 6537TIP3    H119617   1.022   4.887   5.000 -0.2293 -1.3984  0.1903
 6537TIP3    H219618   1.108   4.814   4.899  0.1845  0.2142 -0.6467
 6538TIP3   OH219619   2.132   4.701   2.286  0.1688  0.3126  0.1254
 6538TIP3    H119620   2.069   4.699   2.214  0.3485 -1.6099 -0.0326
 6538TIP3    H219621   2.079   4.687   2.365  0.0337  1.9488  0.3696
 6539TIP3   OH219622   3.035   0.309   2.809 -0.5407 -0.0790 -0.0476
 6539TIP3    H119623   2.968   0.346   2.751 -0.6491 -0.8626 -0.4413
 6539TIP3    H219624   3.118   0.339   2.773 -0.6753  1.3837  0.7814
 6540TIP3   OH219625   5.444   5.765   2.109  0.3182  0.1106  0.6421
 6540TIP3    H119626   5.379   5.833   2.122  0.2790  0.1205  0.4041
 6540TIP3    H219627   5.394   5.683   2.109 -0.3777  0.3069 -3.6929
 6541TIP3   OH219628   6.069   3.649   3.410  0.2613 -0.0818  0.1530
 6541TIP3    H119629   5.982   3.664   3.446  0.2401 -0.9726  0.5043
 6541TIP3    H219630   6.077   3.712   3.338 -0.9633 -0.4931 -0.3623
 6542TIP3   OH219631   1.557   0.295   2.000  0.0588 -0.2180  0.7978
 6542TIP3    H119632   1.530   0.215   2.046  0.8414 -0.4082  0.9351
 6542TIP3    H219633   1.516   0.288   1.914  0.0760 -0.7437  0.8267
 6543TIP3   OH219634   1.768   5.870   3.720 -0.2954 -0.1807  0.4000
 6543TIP3    H119635   1.780   5.872   3.625 -1.6575 -0.5564  0.2003
 6543TIP3    H219636   1.673   5.874   3.733 -0.1253  0.2424  1.7634
 6544TIP3   OH219637   1.952   4.199   0.650 -0.0391  0.5959  0.4210
 6544TIP3    H119638   1.996   4.280   0.624 -1.9131  3.0638  4.1962
 6544TIP3    H219639   1.980   4.184   0.740 -0.4357 -2.5763  0.1341
 6545TIP3   OH219640   4.733   4.981   1.248 -0.2854  0.7973  0.4878
 6545TIP3    H119641   4.667   5.043   1.220 -0.9228 -0.0236  0.1251
 6545TIP3    H219642   4.741   4.995   1.343 -1.6837  0.2679  0.7131
 6546TIP3   OH219643   6.151   2.105   4.345  0.1489  0.1206 -0.1829
 6546TIP3    H119644   6.062   2.136   4.361  0.0981  0.1781 -0.5697
 6546TIP3    H219645   6.146   2.010   4.357  0.2635  0.2260  0.8179
 6547TIP3   OH219646   0.554   1.432   2.751 -0.1091 -0.7843 -0.2601
 6547TIP3    H119647   0.566   1.385   2.668 -0.5225  1.7875 -1.8990
 6547TIP3    H219648   0.629   1.490   2.757 -2.2804  2.3924 -1.3267
 6548TIP3   OH219649   5.154   2.093   1.794 -0.4352  0.8087  0.1102
 6548TIP3    H119650   5.101   2.043   1.856  0.2039  0.0742  0.0811
 6548TIP3    H219651   5.126   2.184   1.806 -0.7661  0.5951  1.0249
 6549TIP3   OH219652   2.776   5.370   2.808 -0.1687  0.0599  0.4464
 6549TIP3    H119653   2.808   5.333   2.726  1.8572  0.2468  1.1066
 6549TIP3    H219654   2.697   5.418   2.783  0.8858  0.8710 -1.5741
 6550TIP3   OH219655   2.692   5.685   3.347  0.0917  0.4756 -0.1308
 6550TIP3    H119656   2.736   5.740   3.412 -0.2329 -0.3001  0.7735
 6550TIP3    H219657   2.756   5.616   3.328 -0.7712 -0.7973  1.3732
 6551TIP3   OH219658   1.062   5.425   0.098 -0.1137  0.5142  0.6062
 6551TIP3    H119659   0.978   5.409   0.140  0.9062  0.0958  2.6219
 6551TIP3    H219660   1.127   5.400   0.164  1.6071  0.1944 -1.1146
 6552TIP3   OH219661   5.898   5.268   3.011 -0.3590  0.1896 -0.1389
 6552TIP3    H119662   5.875   5.176   3.008 -1.1805  0.3732  0.2588
 6552TIP3    H219663   5.994   5.269   3.003 -0.3915 -0.6482 -0.7676
 6553TIP3   OH219664   5.813   3.938   1.908  0.1601  0.7076  0.6421
 6553TIP3    H119665   5.874   3.905   1.973  1.0420  2.0200  0.5082
 6553TIP3    H219666   5.730   3.947   1.956  0.5399  0.6915  1.3151
 6554TIP3   OH219667   5.166   0.404   0.198  0.4076  0.3440  0.4183
 6554TIP3    H119668   5.092   0.353   0.230  0.6272 -0.1765  0.1160
 6554TIP3    H219669   5.199   0.450   0.275  0.8953 -0.8442  0.9520
 6555TIP3   OH219670   4.479   1.207   0.506  0.0053  0.1727 -0.5137
 6555TIP3    H119671   4.430   1.260   0.444  0.1559  1.4675  0.4283
 6555TIP3    H219672   4.412   1.160   0.556 -0.2494  1.1873  0.1187
 6556TIP3   OH219673   4.640   4.334   4.227  0.4887  0.1105  0.2927
 6556TIP3    H119674   4.694   4.337   4.149  0.7448 -0.5094  0.4434
 6556TIP3    H219675   4.697   4.295   4.294  0.2339  0.5182  0.7530
 6557TIP3   OH219676   2.730   4.605   3.295  0.4899  0.3020 -0.1072
 6557TIP3    H119677   2.659   4.547   3.270  0.5273 -0.3922  1.3287
 6557TIP3    H219678   2.711   4.687   3.250 -0.7767 -0.1235 -0.3815
 6558TIP3   OH219679   2.895   3.236   0.321  0.0274 -0.3047 -0.1111
 6558TIP3    H119680   2.809   3.240   0.362  0.5837 -0.4673  1.1098
 6558TIP3    H219681   2.885   3.286   0.240 -1.1491 -0.1330  0.1219
 6559TIP3   OH219682   1.232   3.872   4.913  0.0307  0.4410  0.4346
 6559TIP3    H119683   1.249   3.837   4.825  1.4594  1.1558  0.4006
 6559TIP3    H219684   1.210   3.796   4.966 -0.6297 -0.0297 -0.4820
 6560TIP3   OH219685   5.469   4.778   4.980  0.4110 -0.0874 -0.1326
 6560TIP3    H119686   5.452   4.848   4.916 -0.0226 -0.7473 -0.7529
 6560TIP3    H219687   5.514   4.710   4.930 -0.6156 -0.9397  0.0729
 6561TIP3   OH219688   4.891   0.960   4.184 -0.9271  0.0842 -0.2307
 6561TIP3    H119689   4.851   0.900   4.246  0.1857 -0.5732 -0.1248
 6561TIP3    H219690   4.877   0.919   4.098 -0.1538 -0.3516 -0.1570
 6562TIP3   OH219691   3.432   4.719   1.070  0.0803  0.1808 -0.1853
 6562TIP3    H119692   3.379   4.756   1.000  0.4221  0.1374 -0.4669
 6562TIP3    H219693   3.491   4.657   1.027  0.9151  0.8172  0.0132
 6563TIP3   OH219694   1.424   1.918   2.024  0.4400 -0.3709  0.0205
 6563TIP3    H119695   1.506   1.872   2.041  0.4985  0.0128  0.8228
 6563TIP3    H219696   1.359   1.871   2.077  0.1324 -0.6979 -0.6411
 6564TIP3   OH219697   4.186   3.639   1.887 -0.0143 -0.4790 -0.1692
 6564TIP3    H119698   4.197   3.675   1.800 -0.5176 -0.0360 -0.0518
 6564TIP3    H219699   4.270   3.654   1.930  0.0299 -0.1371 -0.3713
 6565TIP3   OH219700   2.493   3.808   2.180  0.1410  0.6694 -0.2795
 6565TIP3    H119701   2.534   3.806   2.094 -2.0338 -0.4961 -1.3617
 6565TIP3    H219702   2.468   3.900   2.193  0.7765  0.9092 -0.7195
 6566TIP3   OH219703   4.083   5.545   1.853  0.6515  0.2687 -0.3138
 6566TIP3    H119704   4.094   5.454   1.880 -1.0398  0.4068  1.0039
 6566TIP3    H219705   4.173   5.578   1.844  1.3869 -0.5533  2.7843
 6567TIP3   OH219706   2.464   5.065   3.951  0.7610 -0.1068 -0.5121
 6567TIP3    H119707   2.380   5.108   3.943  0.8251 -0.0633 -0.9439
 6567TIP3    H219708   2.442   4.973   3.968  0.6278 -0.1024 -0.6618
 6568TIP3   OH219709   6.196   5.951   3.195 -0.0633  0.1293 -0.2988
 6568TIP3    H119710   6.213   5.998   3.276 -2.2160  1.6267 -0.6392
 6568TIP3    H219711   6.101   5.941   3.192  0.0953 -1.4777 -1.8052
 6569TIP3   OH219712   0.646   0.875   4.586 -0.3376 -0.1931 -0.1916
 6569TIP3    H119713   0.606   0.818   4.521 -1.2425  0.3025 -0.0909
 6569TIP3    H219714   0.700   0.936   4.536 -1.0856  0.2328 -0.5123
 6570TIP3   OH219715   3.073   2.388   1.482  0.1455 -0.1044  0.3462
 6570TIP3    H119716   3.060   2.294   1.491 -0.8538  0.1031  1.4294
 6570TIP3    H219717   3.134   2.398   1.409 -0.6967 -1.5254 -0.5918
 6571TIP3   OH219718   5.482   1.809   4.418  0.2194  0.2372  0.4654
 6571TIP3    H119719   5.388   1.798   4.405  0.1633  0.6847  0.4795
 6571TIP3    H219720   5.489   1.870   4.492  0.5291 -1.1443  1.6271
 6572TIP3   OH219721   1.365   0.219   0.803  0.5815  0.2575  0.4064
 6572TIP3    H119722   1.339   0.191   0.890  1.4072  1.3682  1.0339
 6572TIP3    H219723   1.451   0.260   0.815  0.9869 -0.0873 -1.0210
 6573TIP3   OH219724   1.121   5.847   2.813  0.2304  0.1182 -0.0402
 6573TIP3    H119725   1.078   5.833   2.728  2.0256 -0.9213 -0.8491
 6573TIP3    H219726   1.118   5.941   2.826  0.7219  0.4164 -1.7540
 6574TIP3   OH219727   1.249   2.224   1.028  0.5713  0.1829  0.8614
 6574TIP3    H119728   1.339   2.243   1.052  0.4195  0.6042  1.1127
 6574TIP3    H219729   1.201   2.304   1.049 -0.0824 -0.4431  1.8992
 6575TIP3   OH219730   5.885   3.997   3.640  0.4953  0.1950  0.6028
 6575TIP3    H119731   5.869   3.998   3.546  0.0025 -0.3091  0.6776
 6575TIP3    H219732   5.899   4.089   3.663  1.1496  0.2722 -0.0445
 6576TIP3   OH219733   6.162   3.993   0.783 -0.0399 -0.2900  0.0445
 6576TIP3    H119734   6.120   3.996   0.697 -0.0042  0.3525  0.0506
 6576TIP3    H219735   6.090   3.991   0.846 -0.1296 -2.8490 -0.0253
 6577TIP3   OH219736   3.870   3.195   1.408  0.2816 -0.1378  0.2591
 6577TIP3    H119737   3.892   3.128   1.344 -2.5126 -0.5560 -0.3514
 6577TIP3    H219738   3.912   3.275   1.375  1.2262 -0.9477 -0.5451
 6578TIP3   OH219739   6.273   0.129   2.563  0.0454 -0.3152  0.2050
 6578TIP3    H119740   6.317   0.060   2.614  3.1753  1.0221 -0.4742
 6578TIP3    H219741   6.246   0.085   2.482 -0.4507 -1.3055  0.8793
 6579TIP3   OH219742   2.890   3.716   2.804  0.5935 -0.2593 -0.6991
 6579TIP3    H119743   2.904   3.708   2.898  2.1436  0.8713 -0.7975
 6579TIP3    H219744   2.962   3.772   2.773 -0.7464  0.6742 -2.3088
 6580TIP3   OH219745   4.859   4.337   3.607  0.1214  0.6612 -0.6397
 6580TIP3    H119746   4.775   4.370   3.640  0.6252  1.8474 -0.5225
 6580TIP3    H219747   4.910   4.415   3.586  0.9928 -0.0503 -1.2597
 6581TIP3   OH219748   1.467   1.487   4.080 -0.2183 -0.1023  0.4487
 6581TIP3    H119749   1.451   1.532   4.163  0.5313  1.7652 -0.3787
 6581TIP3    H219750   1.476   1.395   4.105 -0.5857  0.3300  2.3637
 6582TIP3   OH219751   4.327   5.052   4.383 -0.2037 -0.1066 -0.4051
 6582TIP3    H119752   4.252   5.010   4.341 -1.6147  2.5474 -0.7057
 6582TIP3    H219753   4.391   5.063   4.313  0.6108 -2.4281 -0.1374
 6583TIP3   OH219754   0.570   5.368   1.609  0.5511  0.1693  0.2071
 6583TIP3    H119755   0.516   5.427   1.663 -1.7824 -1.3431 -0.3106
 6583TIP3    H219756   0.543   5.387   1.519 -0.0371 -1.4018  0.0158
 6584TIP3   OH219757   5.354   1.409   5.168  0.0528  0.1716 -0.2770
 6584TIP3    H119758   5.329   1.501   5.171 -0.0223  0.1481 -0.1605
 6584TIP3    H219759   5.450   1.410   5.172  0.0951  0.2774 -1.1253
 6585TIP3   OH219760   4.065   5.742   4.129 -0.1586  0.5359  0.2844
 6585TIP3    H119761   4.106   5.679   4.069  2.5168  1.0007  1.4501
 6585TIP3    H219762   4.084   5.827   4.089 -1.4882  0.7236  0.0271
 6586TIP3   OH219763   5.166   0.469   4.472 -0.2305  0.0659  0.6282
 6586TIP3    H119764   5.096   0.507   4.525 -0.8750  0.0568 -0.1886
 6586TIP3    H219765   5.146   0.498   4.383  1.1005  0.5005  0.4451
 6587TIP3   OH219766   6.312   3.396   1.106  0.4309  0.0736  0.1659
 6587TIP3    H119767   6.394   3.351   1.083 -0.0463 -1.1920  0.8657
 6587TIP3    H219768   6.296   3.373   1.197 -1.7356 -1.3714 -0.5139
 6588TIP3   OH219769   2.061   4.649   4.627  0.4961 -0.4613 -0.6878
 6588TIP3    H119770   2.155   4.641   4.609  0.8836  1.1252  0.4052
 6588TIP3    H219771   2.054   4.727   4.683 -1.3533 -1.1784  0.1562
 6589TIP3   OH219772   4.417   5.775   5.091 -0.1817 -0.0997 -0.2944
 6589TIP3    H119773   4.350   5.836   5.059  0.8923  1.4169  0.2330
 6589TIP3    H219774   4.405   5.775   5.186  0.1675 -0.3142 -0.2501
 6590TIP3   OH219775   3.963   2.415   3.513 -0.0315  0.5756 -0.3048
 6590TIP3    H119776   4.044   2.380   3.476  0.4882  0.1406  1.1663
 6590TIP3    H219777   3.978   2.509   3.519  0.0187  0.6032 -0.8570
 6591TIP3   OH219778   0.167   4.736   0.580  1.1258 -0.0796  0.4779
 6591TIP3    H119779   0.255   4.772   0.588  1.1422  0.8838 -2.6935
 6591TIP3    H219780   0.179   4.653   0.533  0.2891  0.8246 -1.4231
 6592TIP3   OH219781   5.836   5.062   0.275 -0.3875  0.2062  0.0824
 6592TIP3    H119782   5.854   4.992   0.338  2.4537  0.4529 -0.3038
 6592TIP3    H219783   5.913   5.119   0.281 -2.0029  2.5743 -0.5874
 6593TIP3   OH219784   3.588   0.111   4.010 -0.2104 -0.6019  0.2998
 6593TIP3    H119785   3.576   0.066   4.093 -2.4987 -0.3807  0.1464
 6593TIP3    H219786   3.570   0.045   3.943  1.1566 -0.6591 -0.0392
 6594TIP3   OH219787   6.252   4.156   4.712  0.6773  0.2912  0.3952
 6594TIP3    H119788   6.223   4.197   4.794 -0.8695 -2.4084  1.3131
 6594TIP3    H219789   6.320   4.094   4.739 -1.2915 -2.1581  0.0791
 6595TIP3   OH219790   2.803   4.488   0.530  0.7091  0.4044 -0.2808
 6595TIP3    H119791   2.833   4.568   0.574 -0.0241  1.5510 -1.7408
 6595TIP3    H219792   2.877   4.428   0.536  0.8944  0.7705  1.8043
 6596TIP3   OH219793   1.152   4.605   1.961  0.3921 -0.3506  0.3974
 6596TIP3    H119794   1.210   4.618   2.036  0.6306  0.5945  0.0650
 6596TIP3    H219795   1.101   4.686   1.956  0.0797 -0.5829 -0.1978
 6597TIP3   OH219796   3.588   3.535   0.644 -0.1884  0.1019 -0.4709
 6597TIP3    H119797   3.571   3.618   0.689  1.1544 -0.3030  0.8558
 6597TIP3    H219798   3.518   3.477   0.673  0.9240 -0.3043  1.5891
 6598TIP3   OH219799   6.318   1.234   1.666  0.0182  0.2368 -0.4143
 6598TIP3    H119800   6.300   1.152   1.712  1.9052  0.8428  1.5924
 6598TIP3    H219801   6.249   1.294   1.697  0.2293  0.1434  0.2494
 6599TIP3   OH219802   1.359   3.248   1.962 -0.1179 -0.2821  0.3017
 6599TIP3    H119803   1.334   3.174   1.906 -1.3596  0.4852 -0.1759
 6599TIP3    H219804   1.303   3.240   2.039 -2.7181  1.9770 -1.1837
 6600TIP3   OH219805   4.987   0.705   5.149 -0.1042  0.4032  0.3182
 6600TIP3    H119806   4.978   0.774   5.083 -1.0997  0.4380  0.4835
 6600TIP3    H219807   4.943   0.629   5.111 -2.8664  1.0981  1.9002
 6601TIP3   OH219808   4.806   2.053   1.264 -0.3046 -0.3097  0.2750
 6601TIP3    H119809   4.796   2.062   1.359  0.2334 -0.8753  0.3949
 6601TIP3    H219810   4.885   2.001   1.254 -0.8637 -1.0469 -0.4592
 6602TIP3   OH219811   4.605   0.342   0.063 -0.3276 -0.3650 -0.1365
 6602TIP3    H119812   4.590   0.402   0.136 -1.5203 -0.2631 -0.4545
 6602TIP3    H219813   4.536   0.361   0.000  1.3657  0.3749 -1.8704
 6603TIP3   OH219814   0.754   4.787   3.393 -0.4213  0.5657  0.1568
 6603TIP3    H119815   0.775   4.858   3.332  0.2468 -0.0717 -0.3916
 6603TIP3    H219816   0.810   4.803   3.469  0.0828  0.3818 -0.1641
 6604TIP3   OH219817   5.559   1.145   0.666 -0.6809  0.1056  0.9862
 6604TIP3    H119818   5.571   1.234   0.633 -0.8039 -0.1976  0.1003
 6604TIP3    H219819   5.578   1.088   0.591  2.7124 -0.7952  2.3420
 6605TIP3   OH219820   3.419   3.761   4.349  0.0828 -0.1439 -0.3021
 6605TIP3    H119821   3.449   3.839   4.394 -0.1880 -0.2255  0.0254
 6605TIP3    H219822   3.454   3.688   4.400  0.8261 -0.2435 -0.9361
 6606TIP3   OH219823   4.889   1.560   4.498 -0.4280 -0.4909  0.5766
 6606TIP3    H119824   4.915   1.651   4.486 -0.6552 -0.6892 -1.9684
 6606TIP3    H219825   4.968   1.516   4.530  0.5833  0.0692 -1.0385
 6607TIP3   OH219826   0.672   3.477   1.380 -0.2597  0.2761  0.0167
 6607TIP3    H119827   0.690   3.538   1.451 -0.5529 -1.3135  1.5324
 6607TIP3    H219828   0.587   3.504   1.346 -1.1844 -0.2561  1.7839
 6608TIP3   OH219829   5.042   5.900   1.445  0.6824 -0.0410 -0.4938
 6608TIP3    H119830   5.037   5.982   1.397 -0.6981  1.7931  2.4737
 6608TIP3    H219831   5.110   5.915   1.510  2.7186 -2.5383 -1.8549
 6609TIP3   OH219832   5.757   4.520   1.451  0.4582 -0.7224 -0.7198
 6609TIP3    H119833   5.848   4.493   1.440  1.0389  1.0983 -0.7408
 6609TIP3    H219834   5.710   4.473   1.383  2.2771  2.2505 -4.4474
 6610TIP3   OH219835   4.364   4.996   4.920  0.3746 -0.3419  0.1549
 6610TIP3    H119836   4.428   5.066   4.908 -0.5652  0.4515 -0.3530
 6610TIP3    H219837   4.336   4.973   4.831 -1.8591  1.0782  0.3989
 6611TIP3   OH219838   4.412   1.608   0.656 -0.6158 -0.0291 -0.7866
 6611TIP3    H119839   4.373   1.546   0.718 -0.5480  0.5770 -0.1256
 6611TIP3    H219840   4.492   1.564   0.627 -0.1745  0.0408  0.2490
 6612TIP3   OH219841   4.661   3.645   3.662 -0.3413  0.0305  0.5042
 6612TIP3    H119842   4.713   3.696   3.724 -1.5985  0.7305  1.0087
 6612TIP3    H219843   4.652   3.559   3.703  0.6142 -0.1758  0.2942
 6613TIP3   OH219844   3.229   3.835   3.813 -0.1694 -0.4561 -0.1483
 6613TIP3    H119845   3.148   3.785   3.803 -0.1247 -0.7450  0.8070
 6613TIP3    H219846   3.224   3.872   3.901  0.3463  0.2385 -0.4027
 6614TIP3   OH219847   4.458   5.170   4.117 -0.3279  0.1207  0.3390
 6614TIP3    H119848   4.512   5.238   4.077 -0.6503  1.3093  1.8299
 6614TIP3    H219849   4.515   5.093   4.120  0.7538  0.9021  0.4887
 6615TIP3   OH219850   3.091   3.532   0.704  0.3712  1.1722  0.1229
 6615TIP3    H119851   3.161   3.484   0.747 -0.2102 -0.1705 -0.3817
 6615TIP3    H219852   3.132   3.615   0.677  2.2572 -0.2588 -1.6933
 6616TIP3   OH219853   6.122   1.074   4.326  0.3728  0.9017  0.2395
 6616TIP3    H119854   6.182   1.118   4.267  0.0171 -0.1015 -0.9148
 6616TIP3    H219855   6.035   1.090   4.289  0.1872 -0.1845  0.1454
 6617TIP3   OH219856   3.337   1.407   4.621 -0.2804  0.1723 -0.0196
 6617TIP3    H119857   3.378   1.405   4.534  0.3817  0.8959  0.2668
 6617TIP3    H219858   3.343   1.498   4.648  0.0375 -0.1590  1.0406
 6618TIP3   OH219859   4.390   2.047   1.896 -0.1757  0.1627  0.4834
 6618TIP3    H119860   4.419   2.041   1.987 -0.9619  1.1001  0.8137
 6618TIP3    H219861   4.294   2.044   1.901 -0.2236  0.1772 -0.3158
 6619TIP3   OH219862   1.559   1.604   0.824 -0.1071  0.6009 -0.3616
 6619TIP3    H119863   1.628   1.636   0.766  0.3349  2.3218  1.0377
 6619TIP3    H219864   1.593   1.521   0.859  0.3154  0.3767 -1.2851
 6620TIP3   OH219865   1.860   1.955   1.237  0.2236 -0.0078  0.2677
 6620TIP3    H119866   1.917   1.959   1.314 -0.2006 -0.7558  0.6308
 6620TIP3    H219867   1.917   1.923   1.167  0.8311  1.4827  0.0324
 6621TIP3   OH219868   6.083   4.261   1.873  0.2082 -0.2008  0.4270
 6621TIP3    H119869   6.037   4.201   1.813  0.7292  0.0244 -0.2060
 6621TIP3    H219870   6.150   4.302   1.819  0.0106  0.7931  0.9107
 6622TIP3   OH219871   3.463   1.488   1.102  0.8414  0.2441  0.2683
 6622TIP3    H119872   3.403   1.562   1.111  2.5159  1.6832  0.2396
 6622TIP3    H219873   3.536   1.522   1.050  1.5669 -1.5094  0.0430
 6623TIP3   OH219874   4.895   3.097   0.358 -0.0336  0.0113 -0.2379
 6623TIP3    H119875   4.876   3.032   0.426  0.8903  1.3710  1.4071
 6623TIP3    H219876   4.825   3.085   0.294 -0.3544 -2.0359  0.3940
 6624TIP3   OH219877   0.176   3.403   5.077 -0.1715 -0.6193  0.2989
 6624TIP3    H119878   0.097   3.360   5.110 -0.5937  0.6989  1.1233
 6624TIP3    H219879   0.202   3.352   5.000 -0.8923 -2.0264  0.9593
 6625TIP3   OH219880   3.067   2.655   2.247  0.3835  0.4059 -0.1915
 6625TIP3    H119881   2.976   2.679   2.267  0.4576  0.0601  0.6244
 6625TIP3    H219882   3.079   2.679   2.155 -1.0083 -0.9713 -0.7712
 6626TIP3   OH219883   3.837   0.450   4.591 -0.5342  0.0465  0.3270
 6626TIP3    H119884   3.860   0.535   4.630 -0.9271 -0.6189  2.1098
 6626TIP3    H219885   3.896   0.388   4.634  1.3619 -0.3860 -2.5897
 6627TIP3   OH219886   0.064   2.763   4.934  0.9242 -0.2121  0.0154
 6627TIP3    H119887   0.128   2.759   4.863  0.4743  0.2537 -0.4265
 6627TIP3    H219888   0.041   2.672   4.951  0.2299 -0.2873 -1.1843
 6628TIP3   OH219889   3.871   0.722   4.400  0.3404  0.1316  0.1419
 6628TIP3    H119890   3.809   0.708   4.329  0.6343 -4.2573  0.4762
 6628TIP3    H219891   3.956   0.700   4.362  0.9045  0.5529  1.1134
 6629TIP3   OH219892   5.827   0.624   3.166 -1.0608  0.8261  0.3616
 6629TIP3    H119893   5.847   0.534   3.139  3.0074  1.1046  1.8621
 6629TIP3    H219894   5.860   0.678   3.095  0.1214  1.2162  1.1867
 6630TIP3   OH219895   2.929   0.493   1.165 -0.2847  0.0345 -0.5251
 6630TIP3    H119896   2.946   0.424   1.101 -0.0210 -0.5196  0.1211
 6630TIP3    H219897   2.892   0.446   1.240  1.3248  0.3543  0.5313
 6631TIP3   OH219898   4.809   1.182   2.602 -0.1669 -0.4793  0.0004
 6631TIP3    H119899   4.715   1.168   2.590 -0.2417 -1.4216  1.4407
 6631TIP3    H219900   4.823   1.273   2.576 -1.2442 -0.6729 -1.3985
 6632TIP3   OH219901   1.713   4.157   3.385 -0.0791  0.2133 -0.3136
 6632TIP3    H119902   1.755   4.243   3.386  0.5921 -0.1109  0.1057
 6632TIP3    H219903   1.679   4.146   3.474  0.3087 -0.1838 -0.2139
 6633TIP3   OH219904   4.385   3.595   2.994 -0.8634 -0.1094 -0.4327
 6633TIP3    H119905   4.400   3.522   2.933 -1.8309 -0.2299 -0.5458
 6633TIP3    H219906   4.319   3.562   3.055 -1.1232  0.5843 -0.3310
 6634TIP3   OH219907   0.489   4.034   4.787  0.7630 -0.2665  0.0265
 6634TIP3    H119908   0.538   4.066   4.711  0.7930 -1.0760 -0.3154
 6634TIP3    H219909   0.459   3.947   4.760  0.6300 -0.4927  0.8856
 6635TIP3   OH219910   3.574   5.397   2.654 -0.0566 -0.6311  0.5896
 6635TIP3    H119911   3.661   5.360   2.641  1.3697  1.5622  2.8118
 6635TIP3    H219912   3.534   5.397   2.567  3.4674  1.1948 -1.2588
 6636TIP3   OH219913   1.506   1.995   0.636  0.0822  0.5182  0.7205
 6636TIP3    H119914   1.572   2.056   0.669 -0.3762  0.7491  1.2174
 6636TIP3    H219915   1.424   2.024   0.675 -0.2982  0.1483  0.2153
 6637TIP3   OH219916   3.272   2.603   2.889 -0.5335  0.1792 -0.1212
 6637TIP3    H119917   3.192   2.634   2.931 -1.9127 -1.4836 -1.3377
 6637TIP3    H219918   3.249   2.599   2.796  1.8576  2.1683 -0.8806
 6638TIP3   OH219919   1.049   5.123   0.513  0.3413  0.3670  0.1838
 6638TIP3    H119920   0.998   5.057   0.560 -1.8210  1.1981 -0.8567
 6638TIP3    H219921   1.130   5.078   0.489 -1.2577 -2.1684 -0.9623
 6639TIP3   OH219922   0.717   3.259   2.636  0.2415  0.0559 -0.0374
 6639TIP3    H119923   0.806   3.271   2.670 -0.6635  1.6413  1.9990
 6639TIP3    H219924   0.709   3.325   2.568 -0.1402  1.7279  1.5441
 6640TIP3   OH219925   4.848   1.989   4.965 -0.1003 -0.4907 -0.0075
 6640TIP3    H119926   4.904   1.982   5.042  0.2782  0.2971 -0.2064
 6640TIP3    H219927   4.761   2.009   5.000 -0.1515 -1.1502  0.2645
 6641TIP3   OH219928   0.418   4.680   4.227  0.1132 -0.1562 -0.1231
 6641TIP3    H119929   0.388   4.708   4.141 -0.2962  1.8463  0.6138
 6641TIP3    H219930   0.514   4.685   4.222  0.0604  1.3105 -0.0757
 6642TIP3   OH219931   1.934   4.298   2.550 -0.0134 -0.5656 -0.2501
 6642TIP3    H119932   1.980   4.345   2.620 -0.2068 -0.7885  0.0287
 6642TIP3    H219933   1.921   4.210   2.585  0.7945 -0.9839 -0.9652
 6643TIP3   OH219934   5.938   0.279   4.428  0.3839 -0.0813 -0.0166
 6643TIP3    H119935   5.986   0.232   4.360  0.5417 -0.4323  0.3344
 6643TIP3    H219936   6.005   0.309   4.489  0.1477 -0.6815  0.5439
 6644TIP3   OH219937   0.112   0.235   2.260 -0.3757 -0.2479  0.1831
 6644TIP3    H119938   0.050   0.212   2.191 -1.4006 -3.3700  1.9819
 6644TIP3    H219939   0.126   0.329   2.249 -1.1663 -0.4226 -3.6438
 6645TIP3   OH219940   1.475   0.813   1.416 -0.2317  0.3063 -0.3997
 6645TIP3    H119941   1.441   0.818   1.506  2.0952  0.7363  0.5332
 6645TIP3    H219942   1.459   0.722   1.390 -3.1431  0.7533 -0.5755
   6.34071   5.97808   5.17717   0.00000   0.00000  -2.11357   0.00000  -2.11357  -2.98904
