Title
29212
    1ASP      N    1   3.737   3.056   2.949 -0.2370  0.4447  0.0786
    1ASP    HT1    2   3.674   3.140   2.946  2.6466  2.8932  2.0670
    1ASP    HT2    3   3.689   2.985   3.007  0.3086 -0.1139 -0.1498
    1ASP    HT3    4   3.753   3.023   2.852 -0.3142  1.9172 -0.4674
    1ASP     CA    5   3.868   3.097   3.007  0.3008 -0.3538  0.9385
    1ASP     HA    6   3.943   3.020   3.004  1.6720  0.9445 -1.8275
    1ASP     CB    7   3.921   3.212   2.920 -0.0205  0.1920 -0.1807
    1ASP    HB1    8   4.021   3.243   2.959  0.6275 -0.4926 -1.2545
    1ASP    HB2    9   3.853   3.300   2.918  0.2412  0.4089  0.1949
    1ASP     CG   10   3.949   3.169   2.782 -0.4853  0.2866  0.3864
    1ASP    OD1   11   3.926   3.050   2.744  0.0733  0.5904 -0.2836
    1ASP    OD2   12   3.985   3.255   2.700 -0.5898  0.2407  0.1555
    1ASP      C   13   3.862   3.160   3.151 -0.5437 -0.6476  0.4151
    1ASP      O   14   3.757   3.164   3.208 -0.3176  0.0859  0.1114
    2GLY      N   15   3.976   3.211   3.210  0.3123  0.5912 -0.0202
    2GLY     HN   16   4.055   3.231   3.152  0.0183  2.3751  0.1416
    2GLY     CA   17   3.978   3.276   3.344 -0.0493 -0.1918  0.1473
    2GLY    HA1   18   4.081   3.307   3.350  0.2080 -0.8815 -0.5207
    2GLY    HA2   19   3.946   3.204   3.418 -1.1111 -0.0014 -0.1019
    2GLY      C   20   3.891   3.401   3.357  0.1184 -0.0931 -0.6077
    2GLY      O   21   3.835   3.458   3.258 -0.0001  0.1155 -0.0007
    3ASP      N   22   3.874   3.443   3.487  0.5798  0.3688 -0.3281
    3ASP     HN   23   3.924   3.392   3.558  2.8560 -0.2550 -2.2480
    3ASP     CA   24   3.798   3.563   3.515  0.5642 -0.1553 -0.3760
    3ASP     HA   25   3.821   3.634   3.437  1.0533  0.0925 -0.0146
    3ASP     CB   26   3.646   3.532   3.506  0.1223 -0.3326  0.2244
    3ASP    HB1   27   3.612   3.468   3.590  2.9030 -0.7952  1.1114
    3ASP    HB2   28   3.625   3.462   3.422 -2.4124  1.4131 -0.6818
    3ASP     CG   29   3.554   3.648   3.491 -0.2147 -0.2061  0.3258
    3ASP    OD1   30   3.439   3.625   3.446 -0.3527  0.2967 -0.3477
    3ASP    OD2   31   3.603   3.764   3.503 -0.0150 -0.2681  0.4402
    3ASP      C   32   3.843   3.624   3.658  0.3041 -0.6346  0.4736
    3ASP      O   33   3.912   3.554   3.732  0.0438 -0.6425 -0.3033
    4GLY      N   34   3.814   3.750   3.687 -0.7085 -0.2564 -0.3756
    4GLY     HN   35   3.747   3.794   3.627  1.4159  0.7818 -2.1326
    4GLY     CA   36   3.851   3.820   3.808 -0.2839 -0.6042 -0.4759
    4GLY    HA1   37   3.816   3.922   3.798 -0.8790 -1.0218 -3.3288
    4GLY    HA2   38   3.958   3.829   3.822 -0.3536 -1.9001  1.1881
    4GLY      C   39   3.810   3.758   3.939 -0.2353 -0.3080 -0.4551
    4GLY      O   40   3.734   3.666   3.937  0.4380  0.1959  0.3500
    5PRO      N   41   3.854   3.812   4.063  0.5104 -0.0733  0.3879
    5PRO     CD   42   3.934   3.941   4.070 -0.4087 -0.0307 -0.3481
    5PRO    HD1   43   3.861   4.017   4.035 -1.1314  0.4349  2.0096
    5PRO    HD2   44   4.026   3.948   4.008 -0.9302 -2.3417 -1.5136
    5PRO     CA   45   3.796   3.770   4.190 -0.2138  0.2033  0.2666
    5PRO     HA   46   3.851   3.681   4.217  1.9981  2.2002  2.9503
    5PRO     CB   47   3.819   3.892   4.278 -0.3631 -0.4682 -0.7942
    5PRO    HB1   48   3.840   3.871   4.385  0.7989 -0.3317 -0.9803
    5PRO    HB2   49   3.735   3.964   4.268 -0.4101 -0.3383  0.3414
    5PRO     CG   50   3.944   3.964   4.226 -0.2077  0.2833  0.7455
    5PRO    HG1   51   3.936   4.075   4.234 -1.8055  0.1091  2.1636
    5PRO    HG2   52   4.041   3.925   4.264 -0.5784 -0.4860  0.9149
    5PRO      C   53   3.652   3.723   4.205  0.0480  0.2443  0.6232
    5PRO      O   54   3.559   3.773   4.141  0.2793  0.6385 -0.6869
    6GLY      N   55   3.621   3.628   4.293  0.4213 -0.2611 -0.1710
    6GLY     HN   56   3.692   3.595   4.355  0.3346  0.9481  0.5977
    6GLY     CA   57   3.489   3.577   4.325  0.1659  0.1350 -0.7109
    6GLY    HA1   58   3.424   3.662   4.317  1.4582  1.2766  0.2523
    6GLY    HA2   59   3.491   3.525   4.420  0.2380  1.8060  0.2469
    6GLY      C   60   3.437   3.469   4.231  0.3758 -1.2307  0.1524
    6GLY      O   61   3.511   3.377   4.201 -0.2296 -0.5198  0.4171
    7ASP      N   62   3.316   3.485   4.182 -0.6831 -0.4202  0.1433
    7ASP     HN   63   3.263   3.569   4.187 -0.6616 -0.3648 -0.4252
    7ASP     CA   64   3.266   3.385   4.087  0.3057  0.2979  0.2650
    7ASP     HA   65   3.319   3.292   4.102 -0.0815 -0.2023 -1.3510
    7ASP     CB   66   3.112   3.359   4.095 -0.3885  0.1563 -0.0131
    7ASP    HB1   67   3.070   3.300   4.011  1.9438  0.5205 -1.5203
    7ASP    HB2   68   3.057   3.455   4.094 -2.0506 -0.7473  0.6022
    7ASP     CG   69   3.085   3.273   4.220  0.2040 -0.1574  0.6259
    7ASP    OD1   70   3.180   3.218   4.279 -0.3283  0.1952  0.1955
    7ASP    OD2   71   2.968   3.257   4.260  0.5675  0.2889 -0.0094
    7ASP      C   72   3.295   3.416   3.937 -0.1897 -0.0670  0.2430
    7ASP      O   73   3.309   3.535   3.905  0.1484  0.1632 -0.1044
    8PRO      N   74   3.320   3.323   3.843 -0.0513  0.7962 -0.3944
    8PRO     CD   75   3.358   3.179   3.873  0.1316 -0.1345 -0.2408
    8PRO    HD1   76   3.272   3.126   3.921 -1.0247  0.2248 -1.8332
    8PRO    HD2   77   3.438   3.171   3.950  0.7961 -2.4247 -1.0826
    8PRO     CA   78   3.290   3.339   3.702 -0.1837  0.0131 -0.7258
    8PRO     HA   79   3.364   3.402   3.655 -1.4659  1.0607 -1.4341
    8PRO     CB   80   3.288   3.191   3.656  0.6804 -0.2809  0.8195
    8PRO    HB1   81   3.318   3.191   3.549 -2.2753  2.4785 -0.1954
    8PRO    HB2   82   3.189   3.141   3.664  0.1284  0.0426 -2.6584
    8PRO     CG   83   3.389   3.118   3.741  0.3050 -0.1020 -0.5497
    8PRO    HG1   84   3.371   3.008   3.740 -1.0695  0.0094  2.3556
    8PRO    HG2   85   3.489   3.143   3.699  0.5368 -1.5321 -0.9298
    8PRO      C   86   3.168   3.422   3.667 -0.0248 -0.9398 -0.1550
    8PRO      O   87   3.076   3.425   3.743  0.4548  0.3149  0.7648
    9GLY      N   88   3.159   3.492   3.548 -0.9947  0.2535 -0.2382
    9GLY     HN   89   3.239   3.497   3.488 -0.4586 -0.9461  0.3543
    9GLY     CA   90   3.034   3.552   3.502 -0.8885  0.3976  1.0427
    9GLY    HA1   91   3.058   3.578   3.399  2.0165  1.5710  1.8981
    9GLY    HA2   92   3.027   3.646   3.555 -1.6142  0.8816  0.1318
    9GLY      C   93   2.906   3.476   3.507 -1.0417  0.4116  0.7771
    9GLY      O   94   2.899   3.361   3.471  0.1005  0.0469 -0.7213
   10ASP      N   95   2.790   3.541   3.537 -0.3366  0.2196  0.3114
   10ASP     HN   96   2.798   3.632   3.577  2.1795  0.1050  0.2321
   10ASP     CA   97   2.653   3.502   3.512 -0.1377 -0.1281 -0.4948
   10ASP     HA   98   2.644   3.406   3.560  1.0365  0.3342  0.6964
   10ASP     CB   99   2.558   3.604   3.581 -0.3106 -0.1838  0.6480
   10ASP    HB1  100   2.562   3.702   3.527 -0.7568  0.2090  1.3111
   10ASP    HB2  101   2.598   3.622   3.682 -1.9688 -2.2419  1.7376
   10ASP     CG  102   2.413   3.559   3.589 -0.0557 -0.7913  0.2761
   10ASP    OD1  103   2.391   3.440   3.622 -0.6771 -0.1356 -0.3732
   10ASP    OD2  104   2.321   3.640   3.579 -0.0243 -0.9718 -0.1069
   10ASP      C  105   2.621   3.486   3.358 -0.0291  0.3211  0.2267
   10ASP      O  106   2.658   3.563   3.277  0.3618 -0.5187  0.5533
   11GLY      N  107   2.555   3.377   3.320 -0.2988  0.0724  0.6116
   11GLY     HN  108   2.514   3.315   3.387 -1.4329  0.1925  0.0427
   11GLY     CA  109   2.542   3.327   3.182  0.8318  1.0985  0.5277
   11GLY    HA1  110   2.478   3.395   3.128  0.0203  1.8971  2.4082
   11GLY    HA2  111   2.503   3.226   3.185 -1.6968  2.0047  0.3973
   11GLY      C  112   2.668   3.318   3.095 -0.2281 -0.6297 -0.1424
   11GLY    OT1  113   2.665   3.374   2.981  0.4016 -0.0665 -0.5002
   11GLY    OT2  114   2.763   3.252   3.136  0.0460  0.3633  0.2162
   12SOD    SOD  115   6.608   0.211   4.858  0.1075  0.1395 -0.1710
   13SOD    SOD  116   4.903   4.817   1.279  0.1778 -0.0801 -0.1572
   14SOD    SOD  117   5.570   0.700   1.688  0.5596  0.7241  0.7849
   15SOD    SOD  118   5.566   1.386   4.665 -0.4550 -0.4353  0.2647
   16SOD    SOD  119   4.670   2.428   3.912  0.5366 -0.0992 -0.0654
   17SOD    SOD  120   5.000   6.693   4.978 -0.3197 -0.0963  0.6394
   18SOD    SOD  121   3.549   1.070   2.107 -0.2993  0.2158  0.2014
   19SOD    SOD  122   5.154   6.534   3.032  0.2504 -0.0827 -0.2161
   20SOD    SOD  123   3.899   5.737   2.365 -0.2365 -0.6617 -0.5381
   21SOD    SOD  124   4.147   1.482   5.773  0.2253 -0.1417  0.1927
   22SOD    SOD  125   1.353   0.970   4.079  0.1131 -0.2412  0.3103
   23SOD    SOD  126   3.139   3.248   2.897  0.0832  0.1034 -0.1866
   24SOD    SOD  127   0.766   4.216   2.522  0.1588 -0.1532  0.0375
   25SOD    SOD  128   2.125   5.451   2.880  0.0028 -0.6271  0.0619
   26SOD    SOD  129   2.711   2.823   4.771 -0.0479 -0.6418 -0.4049
   27SOD    SOD  130   2.191   4.113   2.073 -0.2200 -0.5993 -0.3949
   28SOD    SOD  131   4.778   4.903   1.959  0.3085  0.3693  0.0230
   29SOD    SOD  132   1.335   0.868   3.508  0.2129 -0.4706  0.2588
   30SOD    SOD  133   2.763   3.212   4.635 -0.2861 -0.1574 -0.0924
   31SOD    SOD  134   4.742   0.412   3.135 -0.8094  0.2129 -0.2509
   32SOD    SOD  135   2.059   2.486   1.891  0.2206 -0.3279 -0.1124
   33SOD    SOD  136   4.398   0.894   0.455 -0.0589 -0.2677  0.4216
   34SOD    SOD  137   1.075   2.798   5.517 -0.6113  0.4468 -0.2536
   35SOD    SOD  138   3.182   4.077   1.371 -0.3037 -0.3523 -0.6693
   36SOD    SOD  139   6.000   1.913   0.359  0.3614  0.1898 -0.6688
   37SOD    SOD  140   2.204   2.382   5.404 -0.0803 -0.1156 -0.5044
   38SOD    SOD  141   6.619   3.118   5.221  0.3275 -0.3028  0.0500
   39SOD    SOD  142   4.031   4.790   2.818  0.4412 -0.1403 -0.3128
   40SOD    SOD  143   4.456   3.705   4.860 -0.1958  0.1085 -0.0238
   41SOD    SOD  144   6.212   1.845   2.790  0.1217  0.8700 -0.2676
   42SOD    SOD  145   0.721   0.491   5.321  0.8696 -0.6181  0.2336
   43CLA    CLA  146   0.224   3.770   2.867 -0.0366  0.0669 -0.2508
   44CLA    CLA  147   5.882   1.091   4.937  0.2944  0.0905  0.0091
   45CLA    CLA  148   3.663   6.120   3.538  0.0462 -0.3429 -0.0294
   46CLA    CLA  149   0.610   0.872   3.450 -0.3771  0.5211 -0.0259
   47CLA    CLA  150   3.880   1.211   0.207 -0.0473  0.4009  0.3737
   48CLA    CLA  151   1.988   1.271   5.826  0.0038  0.0506  0.0151
   49CLA    CLA  152   4.351   0.010   4.355  0.2754 -0.3401 -0.0323
   50CLA    CLA  153   1.277   6.009   2.528 -0.4357  0.2956  0.0156
   51CLA    CLA  154   2.559   6.295   3.604  0.2802  0.1907  0.4752
   52CLA    CLA  155   3.602   3.305   2.149 -0.0328  0.1445  0.0870
   53CLA    CLA  156   1.252   4.440   1.812 -0.3415 -0.2576  0.0048
   54CLA    CLA  157   2.646   5.913   0.394 -0.1726  0.5725 -0.3963
   55CLA    CLA  158   0.958   1.490   0.235 -0.2205  0.2757 -0.0116
   56CLA    CLA  159   0.141   4.467   5.267 -0.1074 -0.1871 -0.1656
   57CLA    CLA  160   2.959   3.380   5.129 -0.0670  0.7238 -0.0906
   58CLA    CLA  161   5.517   2.236   2.508  0.0002 -0.2580  0.5847
   59CLA    CLA  162   4.150   4.330   1.679  0.0525  0.2743 -0.0369
   60CLA    CLA  163   4.765   5.186   0.309  0.2007  0.2415  0.1382
   61CLA    CLA  164   7.144   4.428   4.556  0.1031  0.1552 -0.2514
   62CLA    CLA  165   1.959   2.980   5.259  0.0650  0.1387  0.1673
   63CLA    CLA  166   4.128   1.820   2.832  0.2851  0.0186 -0.2198
   64CLA    CLA  167   0.685   1.901   4.524  0.1449  0.2783 -0.1349
   65CLA    CLA  168   3.462   1.469   1.752 -0.0442  0.2332  0.0504
   66CLA    CLA  169   4.538   6.793   2.130  0.1468 -0.3369  0.0083
   67CLA    CLA  170   4.607   4.586   1.368 -0.0426  0.1576  0.3412
   68CLA    CLA  171   0.113   5.306   4.246  0.1958 -0.4022 -0.0608
   69CLA    CLA  172   5.010   0.897   1.110  0.2187 -0.0599  0.0212
   70TIP3   OH2  173   6.204   6.348   5.659 -0.3158  0.5546  0.5105
   70TIP3    H1  174   6.263   6.419   5.634  0.4667 -0.7894 -1.7309
   70TIP3    H2  175   6.262   6.275   5.680 -1.1339 -0.4650 -0.6531
   71TIP3   OH2  176   4.890   3.891   2.979 -0.2807  0.5170  0.2214
   71TIP3    H1  177   4.901   3.985   2.962  0.6180  0.3216 -0.3659
   71TIP3    H2  178   4.798   3.874   2.962 -0.0816  0.9474 -1.5073
   72TIP3   OH2  179   6.261   1.719   2.569  0.0414 -0.0668 -0.1331
   72TIP3    H1  180   6.219   1.646   2.524 -0.6090  0.3786 -0.2645
   72TIP3    H2  181   6.332   1.746   2.511 -0.0092 -0.2961 -0.3007
   73TIP3   OH2  182   7.094   0.380   3.970 -0.2155 -0.0728 -0.0345
   73TIP3    H1  183   7.041   0.429   3.908 -0.3692  0.6504  0.6455
   73TIP3    H2  184   7.113   0.298   3.926 -0.3898  0.3911 -0.9953
   74TIP3   OH2  185   5.826   4.703   4.157 -0.0625 -0.0834 -0.5643
   74TIP3    H1  186   5.839   4.624   4.210 -0.2641  0.1090 -0.2238
   74TIP3    H2  187   5.742   4.690   4.114  0.4180 -0.5407 -1.3735
   75TIP3   OH2  188   6.897   6.076   0.846  0.4667 -0.2739 -0.1856
   75TIP3    H1  189   6.802   6.078   0.836  0.5587 -0.4754 -1.2166
   75TIP3    H2  190   6.924   6.167   0.832  0.4760 -0.3208 -0.4764
   76TIP3   OH2  191   6.543   4.140   4.506  0.1667  0.5129 -0.0166
   76TIP3    H1  192   6.589   4.088   4.440  0.2236  2.2723 -1.4584
   76TIP3    H2  193   6.451   4.119   4.494  0.2250  0.4127 -0.3029
   77TIP3   OH2  194   3.021   3.076   2.767  0.2660  0.3107 -0.7135
   77TIP3    H1  195   2.959   3.132   2.721  2.2651  2.0067 -1.4828
   77TIP3    H2  196   3.066   3.027   2.698 -0.6233 -1.4581 -0.1229
   78TIP3   OH2  197   6.703   2.455   3.053  0.0361 -0.3178 -0.1738
   78TIP3    H1  198   6.714   2.412   3.137  0.6462 -0.2964 -0.2428
   78TIP3    H2  199   6.758   2.533   3.058  0.2620 -0.4448 -0.6837
   79TIP3   OH2  200   2.585   0.131   4.125  0.7620  0.2487  0.0617
   79TIP3    H1  201   2.614   0.051   4.168 -0.1639 -0.3234 -0.3670
   79TIP3    H2  202   2.667   0.176   4.101  1.2823 -0.6677  0.0914
   80TIP3   OH2  203   1.236   5.312   4.727  0.0273  0.2263  0.2299
   80TIP3    H1  204   1.182   5.339   4.802 -0.4268  0.9152 -0.3452
   80TIP3    H2  205   1.177   5.259   4.673  0.1419  0.3530 -0.0202
   81TIP3   OH2  206   3.919   3.360   0.556 -0.2773  0.1656 -0.4510
   81TIP3    H1  207   3.951   3.432   0.502 -1.2913  1.4790  0.6089
   81TIP3    H2  208   3.993   3.300   0.564  0.6503  1.1799 -1.2188
   82TIP3   OH2  209   4.489   4.419   4.869 -0.3900  0.2843  0.3967
   82TIP3    H1  210   4.453   4.331   4.859  0.7499 -0.0489 -1.4259
   82TIP3    H2  211   4.456   4.466   4.792  0.2941  0.9575  0.5128
   83TIP3   OH2  212   6.565   2.014   0.986  0.5520  0.0368 -0.1817
   83TIP3    H1  213   6.551   2.092   0.931  0.8756 -0.0046 -0.3281
   83TIP3    H2  214   6.575   1.942   0.923 -2.0209 -0.5425 -0.0179
   84TIP3   OH2  215   4.228   1.463   4.679  0.2227  0.3536 -0.1286
   84TIP3    H1  216   4.158   1.418   4.726  0.0923 -0.0772 -0.7235
   84TIP3    H2  217   4.265   1.396   4.622 -0.0050  1.0114 -1.0646
   85TIP3   OH2  218   6.081   5.782   2.546  0.0202 -0.9053 -0.0492
   85TIP3    H1  219   6.152   5.795   2.609  0.3029 -1.0387 -0.3356
   85TIP3    H2  220   6.114   5.716   2.485 -1.0669 -2.3682  0.8688
   86TIP3   OH2  221   6.737   4.958   1.849  0.1819 -0.0693  0.0649
   86TIP3    H1  222   6.649   4.979   1.882  0.1286  0.4793 -0.4090
   86TIP3    H2  223   6.794   5.021   1.892  0.2287  0.0933 -0.2295
   87TIP3   OH2  224   0.804   4.257   1.879  0.8525  0.0203  0.1303
   87TIP3    H1  225   0.741   4.306   1.932  1.6874 -0.0592  1.2328
   87TIP3    H2  226   0.841   4.322   1.819 -0.7457 -0.0699 -1.0356
   88TIP3   OH2  227   5.179   2.558   0.833  0.5174  0.4409  0.2164
   88TIP3    H1  228   5.196   2.463   0.831  0.4555  0.4295  0.2222
   88TIP3    H2  229   5.131   2.571   0.915  2.6390  0.8397  1.4661
   89TIP3   OH2  230   5.621   3.668   5.467  0.0388  0.2543 -0.2798
   89TIP3    H1  231   5.637   3.608   5.394 -1.3828 -1.1175  0.4872
   89TIP3    H2  232   5.708   3.703   5.488  1.7295 -4.3110  1.5913
   90TIP3   OH2  233   5.003   2.886   0.432  0.2095 -0.1777 -0.2381
   90TIP3    H1  234   5.005   2.869   0.338 -2.8387 -1.7062 -0.1437
   90TIP3    H2  235   5.013   2.799   0.472  2.7158  0.5744  0.9853
   91TIP3   OH2  236   0.417   5.096   1.561 -0.1307  0.7938 -0.0785
   91TIP3    H1  237   0.355   5.038   1.606  2.3888 -2.1857 -0.0712
   91TIP3    H2  238   0.463   5.142   1.631 -1.1122  1.6885 -0.0078
   92TIP3   OH2  239   2.907   2.724   4.097  0.1695  0.0168  0.3539
   92TIP3    H1  240   2.834   2.696   4.042 -0.0140 -0.3332  0.7741
   92TIP3    H2  241   2.892   2.818   4.111 -1.0202 -0.3421  1.6569
   93TIP3   OH2  242   5.957   2.224   4.906 -0.4063 -0.0727  0.0404
   93TIP3    H1  243   6.046   2.202   4.932 -0.1122  1.7898  0.7153
   93TIP3    H2  244   5.956   2.211   4.811 -0.0450 -2.0783  0.2736
   94TIP3   OH2  245   5.719   0.012   4.973  0.3003 -0.0569 -0.0620
   94TIP3    H1  246   5.661   0.073   4.927  0.0748 -0.0190  0.2743
   94TIP3    H2  247   5.661  -0.039   5.029  0.5980 -0.0036  0.2929
   95TIP3   OH2  248   0.274   5.335   3.695  0.4670  0.3206  0.3374
   95TIP3    H1  249   0.263   5.424   3.729  0.4848  0.3331  0.3115
   95TIP3    H2  250   0.213   5.330   3.621 -1.1804 -0.4271  1.6901
   96TIP3   OH2  251   5.353   5.547   4.842  0.0370  0.1830  0.8437
   96TIP3    H1  252   5.344   5.628   4.793  0.8563 -0.1563  0.1030
   96TIP3    H2  253   5.447   5.540   4.860 -0.0153 -0.6274  0.8512
   97TIP3   OH2  254   3.915   2.056   5.287  0.0700  1.4340  0.4288
   97TIP3    H1  255   3.941   1.976   5.333 -1.6983 -0.0325 -0.9076
   97TIP3    H2  256   3.996   2.105   5.274  0.9941  0.6093  2.6183
   98TIP3   OH2  257   2.461   2.987   1.080 -0.0187 -0.7428  0.0759
   98TIP3    H1  258   2.381   2.935   1.066 -1.6459  1.0472  2.1038
   98TIP3    H2  259   2.521   2.957   1.011 -1.7584 -3.4387 -0.4141
   99TIP3   OH2  260   2.895   3.096   0.477  0.4999 -0.1616 -0.6007
   99TIP3    H1  261   2.859   3.071   0.392 -2.5692  1.7249  0.0110
   99TIP3    H2  262   2.821   3.093   0.537  1.6125  2.6420  1.0970
  100TIP3   OH2  263   3.351   4.321   2.704  0.3536  0.6784 -0.1810
  100TIP3    H1  264   3.392   4.263   2.768 -0.7485  0.5861  0.4707
  100TIP3    H2  265   3.419   4.336   2.638 -0.1177 -3.6584 -1.9803
  101TIP3   OH2  266   6.861   5.025   0.048  0.0768  0.3632  0.3906
  101TIP3    H1  267   6.776   5.001   0.011  1.8418 -3.1038 -1.9456
  101TIP3    H2  268   6.899   5.086  -0.016  0.4201 -0.2510  0.0053
  102TIP3   OH2  269   3.756   0.653   5.894  0.4120  0.3450  0.5152
  102TIP3    H1  270   3.708   0.590   5.840 -0.0812  1.0212  0.1430
  102TIP3    H2  271   3.847   0.647   5.864  0.4839 -0.5902  0.8804
  103TIP3   OH2  272   5.686   6.497   2.147 -0.0124 -0.1442 -0.7588
  103TIP3    H1  273   5.611   6.437   2.150 -0.5352  0.5125 -0.5551
  103TIP3    H2  274   5.755   6.451   2.196 -1.5268  0.9294  2.6545
  104TIP3   OH2  275   4.842   5.559   3.773  0.6338  0.6761  0.4991
  104TIP3    H1  276   4.861   5.627   3.837  0.6577  0.9255  0.2277
  104TIP3    H2  277   4.774   5.505   3.814  1.4169  0.1847  1.1921
  105TIP3   OH2  278   5.940   1.768   4.131  0.4309  0.3385  0.2201
  105TIP3    H1  279   6.026   1.745   4.165  1.4887  1.8594 -1.2486
  105TIP3    H2  280   5.940   1.735   4.041 -1.7489 -2.3454  1.0582
  106TIP3   OH2  281   0.782   5.258   2.548 -0.3826 -0.9296  0.0773
  106TIP3    H1  282   0.752   5.318   2.480 -1.5431 -1.1876  0.3311
  106TIP3    H2  283   0.714   5.191   2.552 -0.3607 -0.8956  1.5100
  107TIP3   OH2  284   0.928   4.713   2.964  0.0137  0.6767 -0.0792
  107TIP3    H1  285   0.925   4.648   2.893 -1.3341  0.4040  0.2042
  107TIP3    H2  286   0.955   4.794   2.921  0.0179  0.3268 -0.7561
  108TIP3   OH2  287   4.721   2.666   5.141 -0.3067 -0.0312 -0.8376
  108TIP3    H1  288   4.812   2.682   5.164 -0.0664 -0.5801 -1.3822
  108TIP3    H2  289   4.672   2.733   5.189  0.1024 -1.5236  1.8757
  109TIP3   OH2  290   3.521   4.757   2.794 -0.5959 -0.4244 -0.4718
  109TIP3    H1  291   3.483   4.794   2.714 -4.0572  0.2027  1.2512
  109TIP3    H2  292   3.454   4.697   2.827  2.0483 -3.1529  0.3932
  110TIP3   OH2  293   4.311   6.258   5.373 -0.2076  0.6580  0.0122
  110TIP3    H1  294   4.277   6.347   5.385 -2.4257 -0.3057  1.8134
  110TIP3    H2  295   4.365   6.243   5.451  0.0926  0.4102 -0.2448
  111TIP3   OH2  296   6.039   1.585   3.914  0.3442  0.0480 -0.1527
  111TIP3    H1  297   6.124   1.617   3.942 -0.0711  0.9634  0.0914
  111TIP3    H2  298   6.057   1.497   3.879  1.2127 -0.1871  0.8436
  112TIP3   OH2  299   3.040   3.191   3.103 -0.0919 -0.1512 -0.0676
  112TIP3    H1  300   2.948   3.197   3.130  0.1408 -0.5833  0.8701
  112TIP3    H2  301   3.088   3.172   3.184  0.5901 -1.9961 -0.8416
  113TIP3   OH2  302   1.362   4.007   4.323  0.3044 -0.0491 -0.0554
  113TIP3    H1  303   1.380   4.055   4.242  1.9316 -0.3736  0.0829
  113TIP3    H2  304   1.388   3.917   4.305 -0.6616 -0.4346  0.3921
  114TIP3   OH2  305   3.866   2.784   2.967 -0.3995  0.2869 -0.0011
  114TIP3    H1  306   3.881   2.701   3.013 -0.2289 -0.5946 -1.5426
  114TIP3    H2  307   3.771   2.797   2.973 -0.3790  0.1865  0.5805
  115TIP3   OH2  308   1.626   6.160   0.020  0.1369  0.1809 -0.5836
  115TIP3    H1  309   1.585   6.171   0.106  1.2173 -1.2767  0.1801
  115TIP3    H2  310   1.555   6.132  -0.037 -0.4440  0.3524  0.0337
  116TIP3   OH2  311   0.221   0.453   0.984  0.4100  0.5428  0.2956
  116TIP3    H1  312   0.127   0.450   1.002  0.5413 -2.5324  0.9743
  116TIP3    H2  313   0.260   0.478   1.068  0.2891 -0.0758  0.5405
  117TIP3   OH2  314   3.384   6.181   4.245 -0.4945 -0.0331  0.1799
  117TIP3    H1  315   3.361   6.273   4.238 -0.1518 -0.0687 -2.9113
  117TIP3    H2  316   3.309   6.135   4.207 -0.2304 -0.9604  0.7519
  118TIP3   OH2  317   2.919   3.091   5.326  0.7482 -0.0143 -0.5461
  118TIP3    H1  318   2.926   3.173   5.278  0.6478  0.4434  0.2026
  118TIP3    H2  319   2.993   3.092   5.387 -0.0856  0.2217  0.4959
  119TIP3   OH2  320   6.122   0.523   4.198 -0.1756  0.2485  0.3019
  119TIP3    H1  321   6.088   0.533   4.287 -0.3812  1.2598  0.1255
  119TIP3    H2  322   6.200   0.469   4.208 -0.7693 -0.5080  0.9614
  120TIP3   OH2  323   4.233   1.823   2.022 -0.0525 -0.4953 -0.4556
  120TIP3    H1  324   4.198   1.879   2.092 -0.7457 -0.9282 -0.4439
  120TIP3    H2  325   4.182   1.846   1.945  2.2680  1.6750 -1.4707
  121TIP3   OH2  326   2.654   4.593   1.432  0.2546  0.2656 -0.2874
  121TIP3    H1  327   2.567   4.566   1.463  0.6598 -1.6455 -0.6697
  121TIP3    H2  328   2.641   4.610   1.338  0.5149 -1.3192 -0.6423
  122TIP3   OH2  329   5.984   5.321   5.228 -0.2005 -0.4507 -0.3922
  122TIP3    H1  330   5.980   5.417   5.226  1.0034 -0.3889 -0.4078
  122TIP3    H2  331   6.070   5.300   5.193  0.1348 -1.4717  0.9741
  123TIP3   OH2  332   4.973   0.889   2.879  0.0041 -0.5020 -0.0310
  123TIP3    H1  333   5.031   0.916   2.808 -0.0958 -0.6711 -0.1764
  123TIP3    H2  334   4.894   0.857   2.836  0.1703 -1.1475  0.1272
  124TIP3   OH2  335   1.674   1.211   5.090  0.0845 -0.2626  0.1216
  124TIP3    H1  336   1.648   1.196   5.181  0.6188 -1.1565  0.1469
  124TIP3    H2  337   1.767   1.187   5.088  0.6679  1.8452 -0.1835
  125TIP3   OH2  338   4.887   6.010   3.345  0.2167 -0.3430  0.1007
  125TIP3    H1  339   4.831   5.956   3.401 -0.6873 -0.4545 -0.8662
  125TIP3    H2  340   4.828   6.041   3.276  1.5277 -1.2847 -1.5292
  126TIP3   OH2  341   3.271   5.418   3.357 -0.0560  0.6134  0.6787
  126TIP3    H1  342   3.178   5.411   3.377 -0.2094 -0.0829 -0.2338
  126TIP3    H2  343   3.295   5.507   3.385 -0.7850  0.5041  1.7076
  127TIP3   OH2  344   1.192   3.488   3.947  0.0825 -0.1907 -0.0586
  127TIP3    H1  345   1.131   3.560   3.961  0.1405 -0.3454  1.0922
  127TIP3    H2  346   1.137   3.412   3.928 -0.0988 -0.2891  0.7965
  128TIP3   OH2  347   0.885   1.068   2.442  0.2055  0.8800 -0.1470
  128TIP3    H1  348   0.926   0.983   2.455 -0.9427  0.4870  1.1884
  128TIP3    H2  349   0.793   1.048   2.426 -0.0062  1.8552 -0.2368
  129TIP3   OH2  350   7.038   0.508   1.477 -0.4038  0.2526 -0.1640
  129TIP3    H1  351   6.949   0.481   1.455 -0.9745  2.6040 -1.0269
  129TIP3    H2  352   7.094   0.442   1.435 -1.7055 -0.6240 -0.5850
  130TIP3   OH2  353   1.684   2.433   1.043  0.0430  0.0379 -0.6500
  130TIP3    H1  354   1.616   2.368   1.060 -0.7673  1.1563  0.6093
  130TIP3    H2  355   1.655   2.477   0.963 -1.0416  0.8707  0.1709
  131TIP3   OH2  356   0.868   1.229   2.226 -0.7026 -0.2993  0.5398
  131TIP3    H1  357   0.883   1.171   2.300  0.0818  0.0185  0.6327
  131TIP3    H2  358   0.773   1.243   2.226 -0.6534  0.1664  1.8415
  132TIP3   OH2  359   2.477   0.179   5.255 -0.2162  0.3546 -0.5062
  132TIP3    H1  360   2.506   0.118   5.323  1.2583 -0.1236 -1.5107
  132TIP3    H2  361   2.484   0.265   5.296 -0.1905  0.0217  0.2204
  133TIP3   OH2  362   2.704   1.685   1.524 -0.0174  0.1112 -0.7390
  133TIP3    H1  363   2.747   1.677   1.609 -0.0897  1.2605 -0.5817
  133TIP3    H2  364   2.757   1.633   1.465  0.1231 -0.5697 -0.0222
  134TIP3   OH2  365   2.338   6.268   0.433  0.1657 -0.0700  0.1229
  134TIP3    H1  366   2.264   6.245   0.490  0.0091 -2.0921 -0.8085
  134TIP3    H2  367   2.353   6.361   0.450 -2.6690  0.4566  0.2661
  135TIP3   OH2  368   6.622   3.674   4.981  0.0092  0.0921 -0.1328
  135TIP3    H1  369   6.528   3.660   4.969  0.2114 -1.0828 -0.5035
  135TIP3    H2  370   6.653   3.704   4.895  0.0701 -0.0897 -0.1741
  136TIP3   OH2  371   0.258   5.784   0.598  0.6288 -0.3660 -0.5589
  136TIP3    H1  372   0.296   5.748   0.678 -0.3692 -2.9511 -1.1439
  136TIP3    H2  373   0.218   5.709   0.554 -1.1980  1.4219 -2.1797
  137TIP3   OH2  374   4.730   0.767   1.575 -0.3759  0.3438 -0.4771
  137TIP3    H1  375   4.779   0.841   1.611 -1.7767  0.4618  1.3912
  137TIP3    H2  376   4.796   0.701   1.557  0.7923  1.6435 -1.1945
  138TIP3   OH2  377   2.806   4.662   2.449  0.1852  0.9618 -0.3751
  138TIP3    H1  378   2.725   4.616   2.427  0.8590 -0.3926 -0.1455
  138TIP3    H2  379   2.868   4.592   2.469  1.7650  1.8930 -1.7370
  139TIP3   OH2  380   4.367   0.127   2.723  0.0542  0.6253 -0.3355
  139TIP3    H1  381   4.293   0.158   2.776 -1.2388 -0.0315 -1.6726
  139TIP3    H2  382   4.376   0.192   2.654  0.9432  0.8480 -0.0241
  140TIP3   OH2  383   1.617   3.584   1.281 -0.0083  0.5863 -0.5048
  140TIP3    H1  384   1.593   3.666   1.238 -0.9430  0.6495  0.1128
  140TIP3    H2  385   1.585   3.516   1.222  1.1085  0.6441 -1.2071
  141TIP3   OH2  386   5.729   2.276   2.733 -0.0539  0.2375  0.3247
  141TIP3    H1  387   5.780   2.355   2.745 -0.0799  0.0470  2.0131
  141TIP3    H2  388   5.664   2.299   2.667  0.1720  1.5126  0.5185
  142TIP3   OH2  389   4.670   5.018   3.061  0.2448 -0.0895 -0.1348
  142TIP3    H1  390   4.676   5.102   3.016 -1.6016  0.0606 -0.1631
  142TIP3    H2  391   4.577   4.999   3.063  0.6451 -2.3256 -0.4482
  143TIP3   OH2  392   1.393   2.252   0.145 -0.3197  0.1288  0.2496
  143TIP3    H1  393   1.356   2.164   0.138  1.4185 -0.4858 -1.8683
  143TIP3    H2  394   1.418   2.275   0.056  0.9136  2.0452  1.0366
  144TIP3   OH2  395   2.578   0.960   2.513 -0.1336 -0.1234 -0.3572
  144TIP3    H1  396   2.491   0.998   2.495  0.7717  1.5291 -1.5146
  144TIP3    H2  397   2.637   1.035   2.515  1.3407 -1.2468  0.1370
  145TIP3   OH2  398   6.967   0.677   5.483  0.1261  0.2518  0.1260
  145TIP3    H1  399   6.919   0.629   5.551  1.5317 -0.2050  0.8542
  145TIP3    H2  400   6.995   0.609   5.421 -0.0288  0.4898 -0.2052
  146TIP3   OH2  401   6.009   5.515   0.412 -0.3899  0.1573  0.4765
  146TIP3    H1  402   6.071   5.573   0.367 -1.7779  0.5703 -0.9759
  146TIP3    H2  403   5.984   5.563   0.491  3.1811 -1.1791  2.6781
  147TIP3   OH2  404   1.978   1.516   0.443  0.3249  0.7324 -0.1684
  147TIP3    H1  405   1.884   1.525   0.429  0.2201  2.1565  1.1428
  147TIP3    H2  406   1.989   1.430   0.483 -0.1940 -0.1258 -1.7597
  148TIP3   OH2  407   5.091   3.487   0.658  1.0447 -0.2054  0.7504
  148TIP3    H1  408   5.126   3.429   0.725  0.3074 -0.9865  0.4766
  148TIP3    H2  409   4.996   3.487   0.672  1.0417  1.0645  0.8390
  149TIP3   OH2  410   3.808   2.483   3.500 -0.4999 -0.2926  0.5668
  149TIP3    H1  411   3.820   2.565   3.453 -0.0678 -1.0967 -0.7907
  149TIP3    H2  412   3.755   2.506   3.576 -1.1248  1.0760 -0.2512
  150TIP3   OH2  413   6.853  -0.004   3.200  0.4125 -0.2613 -0.6205
  150TIP3    H1  414   6.858   0.086   3.168 -0.1851 -0.6090 -1.7204
  150TIP3    H2  415   6.925  -0.011   3.263  0.6258  0.9031 -0.7212
  151TIP3   OH2  416   3.671   1.413   4.244  0.0535 -0.0919 -0.1731
  151TIP3    H1  417   3.736   1.425   4.175 -0.5937  1.6558 -0.5415
  151TIP3    H2  418   3.720   1.381   4.319  0.9007 -1.2559 -1.1829
  152TIP3   OH2  419   5.491   3.947   2.793  0.4414 -0.6427  0.1647
  152TIP3    H1  420   5.546   3.900   2.731  0.9835 -0.2605  0.3541
  152TIP3    H2  421   5.531   3.929   2.879  0.1835 -0.4881  0.3188
  153TIP3   OH2  422   1.434   4.682   5.128 -0.1385  0.0378  0.0400
  153TIP3    H1  423   1.509   4.733   5.098 -0.1781 -0.6125 -1.1921
  153TIP3    H2  424   1.472   4.610   5.177 -0.0587  0.8295  1.1961
  154TIP3   OH2  425   1.036   3.028   2.541 -0.1675 -0.1446  0.2464
  154TIP3    H1  426   0.981   3.005   2.467  0.7067 -0.3385 -0.3590
  154TIP3    H2  427   1.119   2.982   2.525 -0.3074 -1.0292  1.8660
  155TIP3   OH2  428   1.139   2.613   2.501  0.0514  0.3428  0.0731
  155TIP3    H1  429   1.086   2.534   2.507 -1.3468  1.2495  0.2922
  155TIP3    H2  430   1.153   2.640   2.592  1.7610 -0.4025  0.0690
  156TIP3   OH2  431   0.503   5.873   5.012 -0.9976 -0.8215  0.0840
  156TIP3    H1  432   0.528   5.931   5.083 -1.3734  1.5035 -1.5654
  156TIP3    H2  433   0.407   5.875   5.012 -1.0088  0.4843 -1.3977
  157TIP3   OH2  434   6.127   2.592   0.964  0.3056 -0.0493  0.5578
  157TIP3    H1  435   6.221   2.609   0.972  0.2818 -0.5266  2.2128
  157TIP3    H2  436   6.085   2.676   0.980  0.4649  0.7042 -2.4987
  158TIP3   OH2  437   3.610   4.704   1.980  0.1471  0.2281 -0.4665
  158TIP3    H1  438   3.705   4.716   1.988  0.4865 -1.0254 -2.1238
  158TIP3    H2  439   3.584   4.662   2.062  1.3235 -0.9328 -0.6604
  159TIP3   OH2  440   3.064   5.255   5.465  0.2891  0.5504  0.2046
  159TIP3    H1  441   3.135   5.315   5.440 -0.1368  0.9069 -0.1705
  159TIP3    H2  442   3.086   5.172   5.423  0.4761  0.6673  0.0709
  160TIP3   OH2  443   4.147   6.209   4.624 -0.0911 -0.1787  0.0930
  160TIP3    H1  444   4.204   6.141   4.588 -0.7299 -0.9275  0.4641
  160TIP3    H2  445   4.152   6.196   4.719 -1.1324 -0.4800  0.1217
  161TIP3   OH2  446   5.177   4.190   2.179  0.2082 -0.2446 -0.6932
  161TIP3    H1  447   5.244   4.157   2.119  2.1688  0.1153  1.1637
  161TIP3    H2  448   5.166   4.282   2.156  0.2049 -0.3573 -1.1363
  162TIP3   OH2  449   4.922   3.781   0.830 -0.2487  0.3857  0.0533
  162TIP3    H1  450   4.953   3.827   0.908 -0.4655  0.5306  0.0549
  162TIP3    H2  451   4.871   3.847   0.782 -0.0502  0.3196 -0.2482
  163TIP3   OH2  452   1.315   4.573   4.773 -0.0471  0.1838  0.1565
  163TIP3    H1  453   1.247   4.640   4.778  1.7677  2.1007  0.7937
  163TIP3    H2  454   1.282   4.501   4.827 -1.4104  1.1716  0.7019
  164TIP3   OH2  455   1.713   3.493   1.511  0.3008  0.4939  0.8413
  164TIP3    H1  456   1.672   3.556   1.570  1.4155  4.1021 -1.9092
  164TIP3    H2  457   1.690   3.523   1.424  3.6799 -0.9568 -0.7169
  165TIP3   OH2  458   6.027   0.586   1.176 -0.1376 -0.0234 -0.7264
  165TIP3    H1  459   6.120   0.606   1.165 -0.0233  0.9282  1.5267
  165TIP3    H2  460   5.983   0.670   1.160 -0.3324  0.2255  0.9380
  166TIP3   OH2  461   2.501   4.844   0.564 -0.6728  0.2828 -0.7185
  166TIP3    H1  462   2.494   4.845   0.469 -2.1125 -0.0099 -0.6359
  166TIP3    H2  463   2.418   4.809   0.595 -0.1035  0.0360  0.6498
  167TIP3   OH2  464   4.264   1.694   5.724 -0.3043 -0.4156  0.2742
  167TIP3    H1  465   4.333   1.756   5.750 -0.9815  0.1675  0.6995
  167TIP3    H2  466   4.250   1.713   5.631  1.5870 -1.9917 -0.3999
  168TIP3   OH2  467   3.329   5.434   2.936  0.4254  0.7919  0.3183
  168TIP3    H1  468   3.274   5.428   2.858  1.5534 -1.4438 -0.3994
  168TIP3    H2  469   3.291   5.371   2.997  0.7336  1.0436  0.7797
  169TIP3   OH2  470   6.510   6.362   3.754 -0.3760  0.4120  0.3549
  169TIP3    H1  471   6.494   6.268   3.753  0.6770  0.1682 -2.5272
  169TIP3    H2  472   6.423   6.401   3.759 -0.8362 -0.7017  1.3932
  170TIP3   OH2  473   5.184   4.631   3.912 -0.2258  0.7175  0.0755
  170TIP3    H1  474   5.135   4.581   3.847  0.6995 -1.1559  0.7522
  170TIP3    H2  475   5.272   4.592   3.911  0.1662  1.4896  1.5427
  171TIP3   OH2  476   0.907   3.350   3.613 -0.2583  0.2237 -0.1260
  171TIP3    H1  477   0.882   3.342   3.705 -0.1835  1.4425  0.0224
  171TIP3    H2  478   0.869   3.433   3.586 -0.3188 -0.1523 -1.2160
  172TIP3   OH2  479   1.041   0.049   5.436 -0.2769 -0.0683 -0.5548
  172TIP3    H1  480   1.050   0.136   5.474  2.1281 -0.4552 -0.0593
  172TIP3    H2  481   1.050   0.062   5.342 -0.6758  0.2908 -0.5454
  173TIP3   OH2  482   6.277   1.600   0.280 -0.4944 -0.0214 -0.1243
  173TIP3    H1  483   6.331   1.521   0.290 -0.4738  0.0208  0.1081
  173TIP3    H2  484   6.261   1.606   0.186 -2.0177 -1.3456 -0.0106
  174TIP3   OH2  485   0.853   0.897   1.623  0.1683 -0.3998  0.0167
  174TIP3    H1  486   0.932   0.879   1.572  0.8535 -0.9421  1.2162
  174TIP3    H2  487   0.791   0.830   1.596  0.0298  0.1462 -1.0771
  175TIP3   OH2  488   2.241   0.746   0.694 -0.2612  0.2624  1.2274
  175TIP3    H1  489   2.235   0.841   0.702  2.0087  0.4896  0.9335
  175TIP3    H2  490   2.256   0.731   0.600 -1.3776 -0.4722  1.1457
  176TIP3   OH2  491   7.011   2.504   1.981  0.0234 -0.1803 -0.0551
  176TIP3    H1  492   6.955   2.427   1.993  0.9104 -0.8825 -0.2908
  176TIP3    H2  493   7.093   2.481   2.025 -0.0837  1.0994  0.8681
  177TIP3   OH2  494   0.412   1.708   2.117  0.4462 -0.0331  0.5001
  177TIP3    H1  495   0.449   1.672   2.198  0.7540  1.1553  0.9107
  177TIP3    H2  496   0.326   1.668   2.110  0.0720  0.4512  1.8730
  178TIP3   OH2  497   4.959   4.579   4.087  0.3393 -0.2823 -0.3027
  178TIP3    H1  498   5.007   4.520   4.144  1.9127  2.1857  1.0970
  178TIP3    H2  499   5.026   4.622   4.034 -0.5336  1.3961 -0.1236
  179TIP3   OH2  500   5.724   6.248   3.690  0.5462  0.0128  0.4726
  179TIP3    H1  501   5.794   6.202   3.737  1.1819  1.2702  0.7926
  179TIP3    H2  502   5.768   6.286   3.614 -0.1554 -0.6410 -0.2830
  180TIP3   OH2  503   2.700   5.031   5.375 -0.2957  0.1599  0.5965
  180TIP3    H1  504   2.744   5.068   5.298 -0.8914  0.6423  0.4825
  180TIP3    H2  505   2.645   5.102   5.407 -0.1104 -0.0608  1.4305
  181TIP3   OH2  506   1.785   5.170   5.795 -0.1501  0.4280  0.4764
  181TIP3    H1  507   1.835   5.120   5.730 -3.3153  0.8414 -2.5568
  181TIP3    H2  508   1.851   5.200   5.858  3.0063 -0.9690 -1.8942
  182TIP3   OH2  509   5.099   0.592   3.352 -0.0795 -0.5960 -0.2609
  182TIP3    H1  510   5.040   0.662   3.323  0.6705  0.0063 -0.3713
  182TIP3    H2  511   5.120   0.614   3.443 -0.5654 -1.1869 -0.0023
  183TIP3   OH2  512   3.537   5.263   3.996 -0.1943 -0.2084  0.3493
  183TIP3    H1  513   3.537   5.173   3.963  0.4846 -0.3129  0.6365
  183TIP3    H2  514   3.550   5.254   4.090 -0.1675  0.1930  0.3831
  184TIP3   OH2  515   6.229   4.858   1.060 -0.1544  0.0743 -0.6062
  184TIP3    H1  516   6.321   4.850   1.035 -0.2829  2.5943 -2.1941
  184TIP3    H2  517   6.226   4.830   1.151  1.7377 -2.2024 -1.1511
  185TIP3   OH2  518   6.633   6.008   5.603 -0.2714 -0.0355  0.3157
  185TIP3    H1  519   6.559   6.048   5.557 -1.0099 -1.2033  0.4420
  185TIP3    H2  520   6.653   6.068   5.675 -2.1861 -0.4759  1.2721
  186TIP3   OH2  521   6.259   5.833   1.859  0.2439 -0.5409 -0.3642
  186TIP3    H1  522   6.308   5.913   1.837 -2.0279  1.2175  0.4852
  186TIP3    H2  523   6.193   5.827   1.790 -0.0130 -1.3469 -0.0515
  187TIP3   OH2  524   2.059   2.443   4.241  0.5602 -0.1426 -0.1144
  187TIP3    H1  525   2.135   2.497   4.218  0.7834 -0.0609  0.7673
  187TIP3    H2  526   1.984   2.501   4.227  0.7018 -0.0314 -0.4217
  188TIP3   OH2  527   4.521   0.684   0.498 -0.3023 -0.5183  0.2526
  188TIP3    H1  528   4.526   0.661   0.406  0.7455  1.0658 -0.1198
  188TIP3    H2  529   4.488   0.605   0.541 -0.1944 -1.4843 -1.3781
  189TIP3   OH2  530   2.562   4.667   5.055 -0.0010  0.6659 -0.4147
  189TIP3    H1  531   2.594   4.617   5.130 -0.1111 -0.1561 -0.9042
  189TIP3    H2  532   2.537   4.601   4.991  1.4563  1.3453 -1.7736
  190TIP3   OH2  533   1.684   6.416   3.863  0.4064  0.3203 -0.6374
  190TIP3    H1  534   1.723   6.336   3.901 -0.2169  0.4000  0.1937
  190TIP3    H2  535   1.744   6.486   3.889  1.7474 -0.0107 -2.5734
  191TIP3   OH2  536   3.506   3.303   4.615  0.1046 -0.1338 -0.0413
  191TIP3    H1  537   3.415   3.328   4.601 -0.0432 -0.2080  0.7688
  191TIP3    H2  538   3.507   3.262   4.701  1.0655  0.6347  0.3318
  192TIP3   OH2  539   3.856   0.204   4.327  0.1838  0.1115  0.4711
  192TIP3    H1  540   3.845   0.110   4.344 -0.2005 -0.3072 -1.7682
  192TIP3    H2  541   3.923   0.232   4.389 -0.1649 -1.4872  1.6360
  193TIP3   OH2  542   5.560   4.956   5.580 -0.4259 -0.5508 -0.1750
  193TIP3    H1  543   5.624   4.926   5.516  0.4015 -2.0206  1.2794
  193TIP3    H2  544   5.601   5.033   5.620 -0.3685 -0.4095 -0.5054
  194TIP3   OH2  545   0.655   5.638   4.019  0.4746 -0.0893  0.0807
  194TIP3    H1  546   0.583   5.683   4.065 -0.8000 -0.7332 -1.2063
  194TIP3    H2  547   0.676   5.564   4.076  0.5295  0.4179  0.7422
  195TIP3   OH2  548   0.920   3.800   0.444  0.6849  0.4939  0.0807
  195TIP3    H1  549   0.936   3.763   0.530 -1.4539  1.2540  0.8701
  195TIP3    H2  550   0.918   3.895   0.458 -1.7897  0.5788 -0.3146
  196TIP3   OH2  551   2.169   2.077   1.008 -0.4284  0.2807 -0.5162
  196TIP3    H1  552   2.260   2.088   0.982  0.2904 -2.3798  0.5318
  196TIP3    H2  553   2.173   2.034   1.093 -2.6849  0.2898 -0.3298
  197TIP3   OH2  554   0.582   3.286   0.391  0.0791 -0.1249 -0.2361
  197TIP3    H1  555   0.515   3.291   0.459  0.6790  0.0356  0.3559
  197TIP3    H2  556   0.534   3.266   0.311 -0.5010 -1.8725  0.4914
  198TIP3   OH2  557   1.202   3.989  -0.008 -0.8526 -0.2223  0.1196
  198TIP3    H1  558   1.231   3.917  -0.064 -3.9117 -0.3360 -1.5629
  198TIP3    H2  559   1.212   3.957   0.081 -0.0039 -1.8168 -0.5198
  199TIP3   OH2  560   2.423   0.228   4.647 -0.4032 -0.3770  0.9057
  199TIP3    H1  561   2.348   0.244   4.590  1.6227  0.1579 -1.8246
  199TIP3    H2  562   2.394   0.158   4.706 -2.0836 -2.4174 -2.0666
  200TIP3   OH2  563   5.528   3.607   2.874 -0.0973 -0.1069 -0.1274
  200TIP3    H1  564   5.445   3.655   2.864 -0.4013 -0.4012  0.9030
  200TIP3    H2  565   5.545   3.572   2.786  0.2080  1.9770 -0.9495
  201TIP3   OH2  566   2.170   0.506   3.797  0.4240 -0.5781  0.1193
  201TIP3    H1  567   2.231   0.474   3.730 -0.2503 -0.8922 -0.3586
  201TIP3    H2  568   2.187   0.451   3.873  1.4298 -0.0002  0.3315
  202TIP3   OH2  569   0.479   5.710   4.237 -0.2420 -0.4059  0.6009
  202TIP3    H1  570   0.428   5.769   4.293 -0.2555 -0.2399  0.4167
  202TIP3    H2  571   0.447   5.622   4.258 -0.8206 -0.2799  0.2669
  203TIP3   OH2  572   5.207   1.699   2.923 -0.0186 -0.1491  0.3295
  203TIP3    H1  573   5.227   1.646   2.846  1.0426 -0.4488  0.7887
  203TIP3    H2  574   5.254   1.655   2.995 -1.4359 -0.2074  1.2551
  204TIP3   OH2  575   6.284   2.672   1.874 -0.5852 -0.1554  0.4774
  204TIP3    H1  576   6.199   2.706   1.846 -0.2006  0.3022 -0.1757
  204TIP3    H2  577   6.263   2.600   1.934 -1.4569 -0.8685 -0.6390
  205TIP3   OH2  578   5.691   2.228   4.230  0.1991 -0.5665 -0.4344
  205TIP3    H1  579   5.686   2.249   4.324 -1.4133  2.1499 -1.0295
  205TIP3    H2  580   5.687   2.132   4.227 -1.7148 -0.6826  2.2068
  206TIP3   OH2  581   1.159   6.787   5.342 -0.2227  0.2528 -0.3680
  206TIP3    H1  582   1.159   6.711   5.284 -1.9290  0.1996 -0.3589
  206TIP3    H2  583   1.099   6.763   5.413  0.5277  0.9606  0.5351
  207TIP3   OH2  584   0.350   4.846   5.877  0.6755 -0.5374  0.1968
  207TIP3    H1  585   0.338   4.851   5.783  0.1137  0.2065  0.3049
  207TIP3    H2  586   0.308   4.924   5.912  0.2440 -1.1549  1.1258
  208TIP3   OH2  587   3.701   6.691   4.918  0.1288  0.9841  0.1657
  208TIP3    H1  588   3.653   6.661   4.996  0.5365  0.6791  0.3031
  208TIP3    H2  589   3.635   6.694   4.849  0.1920 -0.9526 -0.0398
  209TIP3   OH2  590   6.258   3.170   0.457 -0.3826  0.1534 -0.1685
  209TIP3    H1  591   6.348   3.139   0.455 -1.1727 -2.6196  1.0768
  209TIP3    H2  592   6.229   3.154   0.547 -1.9942  1.3386 -0.4305
  210TIP3   OH2  593   0.599   0.017   3.373 -0.4396 -0.6897 -0.0567
  210TIP3    H1  594   0.528  -0.026   3.422  0.0922 -2.3380 -0.6628
  210TIP3    H2  595   0.558   0.096   3.337 -1.2386 -0.2002  1.7743
  211TIP3   OH2  596   3.749   5.086   3.496 -0.1086 -0.3213  0.4870
  211TIP3    H1  597   3.714   5.134   3.421 -1.1867 -2.1397 -0.2480
  211TIP3    H2  598   3.823   5.138   3.526  0.3284  0.4796 -1.8156
  212TIP3   OH2  599   4.863   1.571   5.104 -0.1232  0.0884 -0.0954
  212TIP3    H1  600   4.955   1.553   5.123 -0.5320 -3.2638 -0.6670
  212TIP3    H2  601   4.818   1.490   5.128 -2.6368  0.9312 -1.6459
  213TIP3   OH2  602   3.095   4.657   5.627 -0.4062 -0.0428 -0.2385
  213TIP3    H1  603   3.054   4.635   5.711 -0.3940  0.2006 -0.1654
  213TIP3    H2  604   3.160   4.588   5.613 -0.7582 -0.3603 -0.2979
  214TIP3   OH2  605   0.680   0.693   2.795 -0.0077  0.6069  0.3371
  214TIP3    H1  606   0.754   0.749   2.774 -0.7802  2.1754  1.5201
  214TIP3    H2  607   0.607   0.754   2.810 -1.0665 -0.7606  1.0366
  215TIP3   OH2  608   0.474   3.158   2.711  0.5464  0.7176  0.1711
  215TIP3    H1  609   0.561   3.192   2.692  0.7846 -0.6356 -1.3857
  215TIP3    H2  610   0.414   3.226   2.681  1.0245  0.2727 -1.9164
  216TIP3   OH2  611   2.410   1.785   3.809  0.1447 -0.2935 -0.3202
  216TIP3    H1  612   2.438   1.756   3.895  1.1067 -0.9582 -0.8392
  216TIP3    H2  613   2.358   1.712   3.775  0.3448 -0.3193 -0.5750
  217TIP3   OH2  614   0.296   1.032   4.185 -0.4907 -0.5002  0.1608
  217TIP3    H1  615   0.304   1.016   4.279 -2.5172  0.4425  0.5549
  217TIP3    H2  616   0.350   0.965   4.144 -0.1947 -1.4232  1.9737
  218TIP3   OH2  617   5.146   6.178   4.676 -0.4541  0.1427  0.0585
  218TIP3    H1  618   5.089   6.219   4.611 -0.3481  0.0814 -0.0735
  218TIP3    H2  619   5.180   6.100   4.632 -1.3067 -0.5516  0.5977
  219TIP3   OH2  620   6.489   1.633   3.560 -0.0854 -0.7532  0.4005
  219TIP3    H1  621   6.442   1.678   3.631 -0.6466  0.6786 -0.8325
  219TIP3    H2  622   6.428   1.564   3.532 -3.0412  2.7710 -3.0694
  220TIP3   OH2  623   6.042   0.859   0.193 -0.2048  0.3511 -0.2570
  220TIP3    H1  624   5.977   0.798   0.159  1.2203  0.1583 -2.9076
  220TIP3    H2  625   6.032   0.937   0.139 -0.1209  1.4170  1.2233
  221TIP3   OH2  626   5.006   2.725   3.919 -0.1028 -0.1839 -0.3372
  221TIP3    H1  627   5.093   2.687   3.905 -0.7267 -2.0078  0.4813
  221TIP3    H2  628   4.981   2.760   3.834  1.0943 -0.3575 -0.7793
  222TIP3   OH2  629   0.366   0.122   5.668 -0.1310 -0.2934 -0.1265
  222TIP3    H1  630   0.281   0.166   5.662 -0.5380 -1.0925 -0.4390
  222TIP3    H2  631   0.416   0.174   5.731 -0.2731  1.1075 -1.1293
  223TIP3   OH2  632   2.614   2.630   3.952  0.0212  0.7314 -0.4751
  223TIP3    H1  633   2.554   2.680   3.897 -1.0216  0.6287  0.5520
  223TIP3    H2  634   2.607   2.540   3.918  0.2801  0.8750 -0.9248
  224TIP3   OH2  635   4.924   1.102   3.126  0.2781  0.4490 -0.1395
  224TIP3    H1  636   4.851   1.065   3.076  0.4239  1.9063 -1.5159
  224TIP3    H2  637   4.923   1.054   3.209 -1.9185  0.0759 -0.3165
  225TIP3   OH2  638   7.057   6.336   4.629  0.4721  0.4878 -0.1513
  225TIP3    H1  639   7.082   6.429   4.627 -1.9991  1.2211  0.1900
  225TIP3    H2  640   6.976   6.334   4.679  0.6304 -1.9434  0.1181
  226TIP3   OH2  641   2.720   4.839   0.131  0.5745 -0.0252 -0.2758
  226TIP3    H1  642   2.744   4.853   0.040  0.8365  1.3746 -0.0137
  226TIP3    H2  643   2.765   4.758   0.156  1.0560 -0.0435 -1.1831
  227TIP3   OH2  644   7.152   6.483   1.416  0.0004 -0.7170  0.0641
  227TIP3    H1  645   7.194   6.401   1.392 -0.3348 -0.2968 -2.1286
  227TIP3    H2  646   7.203   6.550   1.371  1.0613  0.4900  2.8145
  228TIP3   OH2  647   0.680   5.001   5.369  0.5023 -0.0438  0.7421
  228TIP3    H1  648   0.618   4.936   5.336  1.9707 -0.5306 -1.3144
  228TIP3    H2  649   0.742   4.950   5.422 -0.7468  0.4306  2.7479
  229TIP3   OH2  650   3.267   0.215   3.641  0.3010 -0.2020 -0.4794
  229TIP3    H1  651   3.261   0.181   3.730  0.7399  0.4053 -0.2086
  229TIP3    H2  652   3.339   0.165   3.601 -1.3910 -2.1497 -1.2892
  230TIP3   OH2  653   6.931   3.215   1.368 -0.1170  0.3491  0.3262
  230TIP3    H1  654   6.847   3.171   1.358 -0.4708  0.7072  1.5464
  230TIP3    H2  655   6.916   3.280   1.436  0.6220  1.8096 -0.8456
  231TIP3   OH2  656   3.756   2.716   5.887  0.1691 -0.2866 -0.0991
  231TIP3    H1  657   3.785   2.753   5.804 -0.4882 -0.6119 -0.4788
  231TIP3    H2  658   3.663   2.697   5.874  0.1060 -0.5127  0.6478
  232TIP3   OH2  659   5.008   6.064   4.310 -0.4563  0.6618 -0.7095
  232TIP3    H1  660   4.976   6.143   4.353  2.3932  2.0394 -0.8823
  232TIP3    H2  661   4.998   6.082   4.216  1.1384  1.3325 -0.7841
  233TIP3   OH2  662   6.079   1.357   5.016  0.0898  0.1691 -0.0854
  233TIP3    H1  663   6.064   1.262   5.016 -0.0005  0.0025  4.0227
  233TIP3    H2  664   5.992   1.394   4.998 -0.2756 -0.5571  0.1130
  234TIP3   OH2  665   5.456   6.008   2.841 -0.2074 -0.6976  0.0061
  234TIP3    H1  666   5.443   6.097   2.871 -1.0600 -1.7992  3.3668
  234TIP3    H2  667   5.477   6.016   2.748 -2.4842  2.8032 -0.3595
  235TIP3   OH2  668   2.483   2.273   2.219 -0.0567  0.2174 -0.0171
  235TIP3    H1  669   2.393   2.265   2.189 -0.3810 -0.6041  1.1213
  235TIP3    H2  670   2.476   2.288   2.313  0.9424  2.0883 -0.1881
  236TIP3   OH2  671   0.053   1.423   5.802 -0.0443 -0.3705 -0.0614
  236TIP3    H1  672   0.022   1.494   5.858 -1.4231 -1.4916  0.6654
  236TIP3    H2  673  -0.002   1.348   5.825  1.2992 -1.6656 -0.8647
  237TIP3   OH2  674   6.657   5.414   2.293  0.2483 -0.3241  0.2789
  237TIP3    H1  675   6.584   5.383   2.347 -0.7658  0.6896 -0.4405
  237TIP3    H2  676   6.673   5.503   2.325  0.5178 -0.1953 -0.2133
  238TIP3   OH2  677   6.944   2.357   0.448 -0.1306  0.1809  0.0864
  238TIP3    H1  678   6.972   2.436   0.494 -1.5061  1.2483 -0.8148
  238TIP3    H2  679   6.937   2.290   0.516 -0.2573  1.1986  1.1022
  239TIP3   OH2  680   6.633   4.955   3.755 -0.0641 -0.1513 -0.0814
  239TIP3    H1  681   6.634   5.045   3.724  2.9198 -0.1945 -0.3286
  239TIP3    H2  682   6.614   4.903   3.676  1.6386  0.0950 -0.6912
  240TIP3   OH2  683   6.803   1.102   3.156  0.1443  0.1216 -0.3386
  240TIP3    H1  684   6.888   1.138   3.180  0.3903 -0.9767  0.5689
  240TIP3    H2  685   6.801   1.016   3.200 -0.8081 -0.5164 -1.5680
  241TIP3   OH2  686   3.831   1.778   3.848 -0.4364 -0.4688  0.0000
  241TIP3    H1  687   3.885   1.707   3.814  1.4982 -0.2412  2.2585
  241TIP3    H2  688   3.834   1.766   3.943 -0.7484  2.1092  0.4063
  242TIP3   OH2  689   1.368   3.816   5.824 -0.0546 -0.2376 -0.0075
  242TIP3    H1  690   1.331   3.838   5.909 -1.1947  0.8148 -0.7389
  242TIP3    H2  691   1.446   3.871   5.817 -0.9533  1.0285 -0.3639
  243TIP3   OH2  692   1.500   0.177   5.569  0.3349 -0.4858  0.8225
  243TIP3    H1  693   1.549   0.187   5.651  0.2978 -0.5875  0.8574
  243TIP3    H2  694   1.462   0.089   5.575  1.5120 -1.0692  0.0516
  244TIP3   OH2  695   5.783   5.952   3.035  0.0308  0.5375 -0.0398
  244TIP3    H1  696   5.737   5.890   2.978 -0.2642  0.7038  0.0166
  244TIP3    H2  697   5.875   5.928   3.027 -0.1315 -0.2782  0.4163
  245TIP3   OH2  698   0.338   1.154   3.688  0.1191  0.4430  0.0668
  245TIP3    H1  699   0.409   1.179   3.629 -1.2445  1.9858 -1.0034
  245TIP3    H2  700   0.363   1.192   3.772  0.5980  0.9033 -0.2725
  246TIP3   OH2  701   5.899   0.782   4.818 -0.3315 -0.5736  0.4390
  246TIP3    H1  702   5.970   0.846   4.806 -0.5967 -0.6970 -2.3465
  246TIP3    H2  703   5.934   0.719   4.881  1.6127 -0.0342 -0.0375
  247TIP3   OH2  704   2.465   2.923   5.132  0.0624  0.5075 -0.3685
  247TIP3    H1  705   2.458   2.828   5.139  0.7438  0.1480 -3.4286
  247TIP3    H2  706   2.495   2.951   5.219  1.6680 -2.2690  0.0782
  248TIP3   OH2  707   2.522   5.229   2.868 -0.4003  0.3357 -0.0370
  248TIP3    H1  708   2.578   5.241   2.945 -2.4957 -0.0333  1.6263
  248TIP3    H2  709   2.514   5.134   2.859  0.0280  0.3689 -0.9012
  249TIP3   OH2  710   5.397   0.824   3.662 -0.0775  0.2170  0.4439
  249TIP3    H1  711   5.418   0.906   3.617  0.5948 -0.0974  0.1754
  249TIP3    H2  712   5.434   0.756   3.606 -2.7275 -0.4616 -0.6359
  250TIP3   OH2  713   7.116   4.918   4.891  0.4167 -0.1618 -0.5467
  250TIP3    H1  714   7.033   4.874   4.873  0.7523 -1.9476  1.7671
  250TIP3    H2  715   7.098   5.011   4.878 -2.0776 -0.4585  0.2537
  251TIP3   OH2  716   6.290   6.700   0.562  0.4231 -0.5566  0.4286
  251TIP3    H1  717   6.274   6.792   0.585  0.2861 -0.2686 -0.7444
  251TIP3    H2  718   6.203   6.661   0.559  0.5441 -1.0518  2.0871
  252TIP3   OH2  719   4.727   1.876   4.601 -0.1087  0.4255 -0.4724
  252TIP3    H1  720   4.692   1.897   4.514 -0.0218  0.1939 -0.5637
  252TIP3    H2  721   4.807   1.825   4.583  0.1028  0.6792 -0.2622
  253TIP3   OH2  722   7.196   5.510   2.288 -0.3060  0.2163 -0.0013
  253TIP3    H1  723   7.169   5.522   2.197  1.3100  0.9212 -0.4191
  253TIP3    H2  724   7.113   5.510   2.337 -1.2593 -0.7786 -1.4895
  254TIP3   OH2  725   1.985   0.645   5.106 -0.1720 -0.0311  0.1132
  254TIP3    H1  726   1.976   0.631   5.012 -1.6145 -1.7124  0.4481
  254TIP3    H2  727   2.075   0.674   5.118  0.4909 -1.2179 -1.6372
  255TIP3   OH2  728   6.986   0.167   0.808 -0.0087  0.6998 -0.2628
  255TIP3    H1  729   6.962   0.236   0.745 -1.4549  0.4974  0.0227
  255TIP3    H2  730   6.916   0.169   0.873  0.9119  0.1886  0.7754
  256TIP3   OH2  731   3.854   3.473   0.855  0.0837 -0.1722  0.5547
  256TIP3    H1  732   3.816   3.555   0.887  0.0043  0.1219 -0.2653
  256TIP3    H2  733   3.916   3.500   0.787  0.8629 -0.7320  1.0348
  257TIP3   OH2  734   6.151   4.128   2.872  0.1323  0.2932 -0.1962
  257TIP3    H1  735   6.197   4.191   2.816  3.3034 -3.5872 -2.4721
  257TIP3    H2  736   6.205   4.121   2.950 -0.4783  0.6552  0.2729
  258TIP3   OH2  737   5.197   5.559   4.039  0.3683 -0.0112  0.2321
  258TIP3    H1  738   5.186   5.654   4.033  0.2107 -0.1040 -1.6273
  258TIP3    H2  739   5.281   5.542   3.996  1.0007 -0.6195  1.6602
  259TIP3   OH2  740   2.940   1.512   2.670  0.4146 -0.3083  0.3911
  259TIP3    H1  741   3.013   1.526   2.730  2.5731  0.2527 -2.1576
  259TIP3    H2  742   2.957   1.425   2.633 -0.4215 -0.3281  0.0471
  260TIP3   OH2  743   5.355   3.798   0.424  0.2365  0.2219 -0.6198
  260TIP3    H1  744   5.289   3.776   0.358 -1.9874 -0.3573  1.6561
  260TIP3    H2  745   5.309   3.791   0.508  3.3246 -0.7284  1.1650
  261TIP3   OH2  746   6.300   3.267   2.528  0.0038 -0.2268  0.1691
  261TIP3    H1  747   6.240   3.329   2.486 -1.2043 -0.6296  1.2555
  261TIP3    H2  748   6.296   3.188   2.473  1.2581  0.4824 -1.0014
  262TIP3   OH2  749   5.869   5.974   2.567 -0.3568 -0.5542  0.0150
  262TIP3    H1  750   5.892   6.007   2.653  0.2154 -1.1935  0.1198
  262TIP3    H2  751   5.943   5.917   2.543 -0.8696 -0.9941 -0.5541
  263TIP3   OH2  752   2.171   2.225   5.219  0.4276 -0.3773 -0.2253
  263TIP3    H1  753   2.128   2.146   5.253  0.2303 -1.1697 -2.2217
  263TIP3    H2  754   2.190   2.205   5.128  0.2800  1.9335 -0.8288
  264TIP3   OH2  755   4.625   1.767   2.667 -0.4000  0.2697  0.4769
  264TIP3    H1  756   4.547   1.819   2.649  0.1016  1.2342  1.0259
  264TIP3    H2  757   4.692   1.803   2.609 -0.0609  0.1810  0.8101
  265TIP3   OH2  758   4.796   2.389   5.187  0.1388  0.1277 -0.1207
  265TIP3    H1  759   4.890   2.406   5.183  0.1942 -0.0685  0.2894
  265TIP3    H2  760   4.755   2.472   5.161  0.4261  0.0630 -0.7916
  266TIP3   OH2  761   5.152   5.783   0.683 -0.2734 -0.2546  0.2218
  266TIP3    H1  762   5.082   5.842   0.654 -2.4728 -2.4158  0.8072
  266TIP3    H2  763   5.168   5.726   0.607  1.2030  0.4907 -0.0510
  267TIP3   OH2  764   6.912   4.937   2.163  0.4802  0.3709  0.1952
  267TIP3    H1  765   6.956   4.884   2.097 -0.1565 -0.4538  0.4046
  267TIP3    H2  766   6.898   5.022   2.122 -0.8287 -0.4403 -1.1291
  268TIP3   OH2  767   4.003   2.904   5.822  0.7683  0.3003 -0.0593
  268TIP3    H1  768   4.036   2.857   5.899 -0.5329 -0.8418 -0.1661
  268TIP3    H2  769   4.074   2.964   5.799  2.5341 -1.5878  0.1009
  269TIP3   OH2  770   2.317   0.057   1.565 -0.2114  0.5788  0.3314
  269TIP3    H1  771   2.344   0.122   1.500  2.7742 -1.3666 -0.5937
  269TIP3    H2  772   2.251   0.004   1.519 -0.2211  0.9559 -0.0947
  270TIP3   OH2  773   0.817   5.685   3.041 -0.1841 -0.2238 -0.4927
  270TIP3    H1  774   0.815   5.762   2.984  0.6465 -0.7349 -1.2519
  270TIP3    H2  775   0.875   5.624   2.996 -1.0357 -1.4054 -0.0442
  271TIP3   OH2  776   0.259   1.080   5.765 -0.1565  0.6364  0.8549
  271TIP3    H1  777   0.275   1.165   5.723  1.7257 -0.4102 -0.7371
  271TIP3    H2  778   0.342   1.060   5.810 -0.3572 -0.6332  0.6873
  272TIP3   OH2  779   3.258   2.376   4.603 -0.2539  0.5102  0.2534
  272TIP3    H1  780   3.353   2.377   4.587 -0.3391 -1.6478 -0.8106
  272TIP3    H2  781   3.250   2.354   4.696  0.3450 -1.1034 -0.0361
  273TIP3   OH2  782   1.478   0.443   0.570  0.2757 -0.1680  0.0519
  273TIP3    H1  783   1.550   0.485   0.618  0.7999 -2.2671  1.2472
  273TIP3    H2  784   1.500   0.455   0.478  0.7208  1.5512  0.3545
  274TIP3   OH2  785   7.193   1.953   1.379 -0.2187  0.3916 -0.0620
  274TIP3    H1  786   7.180   1.917   1.467 -0.6846  2.8152  0.9416
  274TIP3    H2  787   7.240   1.884   1.332 -3.6394 -2.8210  0.7038
  275TIP3   OH2  788   4.705   2.369   5.851  0.4290  0.2048 -0.0941
  275TIP3    H1  789   4.779   2.407   5.898 -0.3643  2.8037 -0.8067
  275TIP3    H2  790   4.627   2.402   5.895 -0.3719 -1.7400  0.0737
  276TIP3   OH2  791   1.056   4.410   4.541  0.1581 -0.0157  0.7231
  276TIP3    H1  792   0.969   4.370   4.535 -0.1783  0.7756  0.1331
  276TIP3    H2  793   1.044   4.487   4.596  0.5510 -0.0512  0.8673
  277TIP3   OH2  794   3.923   3.009   5.219  0.6863 -0.4441  0.0233
  277TIP3    H1  795   3.888   2.952   5.150  2.1622 -0.7139 -0.5326
  277TIP3    H2  796   3.985   3.066   5.173  0.9010  0.0919  0.9630
  278TIP3   OH2  797   3.421   6.321   1.087 -0.0035 -0.2542  0.0061
  278TIP3    H1  798   3.350   6.378   1.116 -1.1987 -1.8420  0.3696
  278TIP3    H2  799   3.414   6.244   1.143  0.7338 -1.3151 -1.2918
  279TIP3   OH2  800   1.725   3.836   4.560  0.4271  0.5813  0.0718
  279TIP3    H1  801   1.695   3.858   4.472 -0.4184  0.2641  0.2700
  279TIP3    H2  802   1.698   3.911   4.614 -1.2035 -0.2518  0.4859
  280TIP3   OH2  803   1.274   4.593   3.272 -0.7346 -0.0819 -0.3080
  280TIP3    H1  804   1.244   4.504   3.250 -2.4245  0.0596  1.1900
  280TIP3    H2  805   1.364   4.581   3.303 -1.2855 -1.4629  0.8754
  281TIP3   OH2  806   0.662   3.411   2.173 -0.1068  0.5395 -0.8325
  281TIP3    H1  807   0.741   3.391   2.123  0.2347  1.2387 -0.5894
  281TIP3    H2  808   0.681   3.496   2.214 -0.2945 -0.0970  0.6346
  282TIP3   OH2  809   2.298   2.495   1.815 -0.0504  1.2360 -0.4745
  282TIP3    H1  810   2.371   2.484   1.876 -0.9881 -0.2718  0.4464
  282TIP3    H2  811   2.339   2.526   1.734  1.8667 -1.0509 -0.5090
  283TIP3   OH2  812   1.274   4.374   0.014  0.1245 -0.4458  0.0270
  283TIP3    H1  813   1.346   4.433  -0.009  0.8559 -1.5726 -0.7008
  283TIP3    H2  814   1.317   4.290   0.031 -0.9444 -0.9161  0.4636
  284TIP3   OH2  815   6.070   2.945   0.442 -0.1918 -0.0043  0.4274
  284TIP3    H1  816   6.006   2.981   0.381 -1.1946  1.1358  2.0713
  284TIP3    H2  817   6.136   3.013   0.451  0.6439 -0.6788 -0.2980
  285TIP3   OH2  818   3.381   4.773   2.276 -0.1011 -0.6178  0.2020
  285TIP3    H1  819   3.364   4.859   2.237 -3.0739 -0.3456  1.8102
  285TIP3    H2  820   3.320   4.714   2.233  0.4643 -1.4963  0.5673
  286TIP3   OH2  821   4.675   3.541   3.806  0.0309  0.3055 -0.1082
  286TIP3    H1  822   4.707   3.606   3.868 -0.4844 -0.7546  1.3141
  286TIP3    H2  823   4.733   3.465   3.818 -0.0737  0.0805 -0.9329
  287TIP3   OH2  824   7.067   4.426   3.454  0.0622 -0.6403 -0.4840
  287TIP3    H1  825   7.076   4.359   3.521  1.1776 -0.7678 -0.7390
  287TIP3    H2  826   6.978   4.459   3.464 -0.2659 -1.6649  0.1056
  288TIP3   OH2  827   4.792   2.362   3.736 -0.6960 -0.4555  0.1814
  288TIP3    H1  828   4.885   2.364   3.757 -1.2620 -1.2571  3.2449
  288TIP3    H2  829   4.789   2.350   3.641  2.2683  0.8186 -0.1751
  289TIP3   OH2  830   3.289   1.108   3.013 -0.0305  1.1711 -0.0067
  289TIP3    H1  831   3.308   1.033   3.068 -1.0898  1.9657  1.5011
  289TIP3    H2  832   3.335   1.181   3.056  0.3712  1.5420 -1.0308
  290TIP3   OH2  833   2.168   2.554   2.094  0.0038 -0.4323  0.6043
  290TIP3    H1  834   2.245   2.608   2.079 -1.7206  1.8674 -0.7299
  290TIP3    H2  835   2.128   2.590   2.173 -1.1673  0.3607 -0.3025
  291TIP3   OH2  836   4.271   0.753   1.226 -0.2534 -0.0249 -0.5155
  291TIP3    H1  837   4.353   0.704   1.224 -0.2429 -0.0217 -0.2581
  291TIP3    H2  838   4.207   0.689   1.259 -0.7758 -0.6288 -2.5709
  292TIP3   OH2  839   5.110   4.425   3.579  0.0896  0.1692  0.7159
  292TIP3    H1  840   5.023   4.455   3.555  0.5496  0.8779 -0.0970
  292TIP3    H2  841   5.100   4.391   3.668 -1.5091 -1.8817 -0.1582
  293TIP3   OH2  842   2.494   5.960   2.917 -0.5949 -0.2841 -0.5011
  293TIP3    H1  843   2.525   5.869   2.914 -1.4999 -0.6636  0.8385
  293TIP3    H2  844   2.424   5.962   2.851 -2.1046 -1.2075  0.9973
  294TIP3   OH2  845   6.488   0.855   4.005  0.3209 -0.3713  0.0867
  294TIP3    H1  846   6.505   0.861   3.911  1.0019 -1.6384  0.0984
  294TIP3    H2  847   6.396   0.829   4.011 -0.2569  1.5195 -0.1488
  295TIP3   OH2  848   3.958   0.227   2.163  0.2241  0.1827 -0.2454
  295TIP3    H1  849   3.945   0.136   2.135  0.3024  0.2673 -0.5633
  295TIP3    H2  850   3.874   0.253   2.201  0.6935 -0.5517  1.3713
  296TIP3   OH2  851   1.340   5.293   1.053  0.3072  0.4516 -0.0394
  296TIP3    H1  852   1.308   5.383   1.063 -1.4455  0.0486 -1.5944
  296TIP3    H2  853   1.314   5.268   0.965  1.0602 -1.4971  0.2499
  297TIP3   OH2  854   5.532   0.541   3.228  0.0749 -0.0212 -0.0180
  297TIP3    H1  855   5.455   0.570   3.178 -0.1018 -1.2584 -0.4857
  297TIP3    H2  856   5.598   0.608   3.209  0.2363 -0.7935 -2.5109
  298TIP3   OH2  857   6.634   5.209   5.357 -0.1234  0.5499 -0.3408
  298TIP3    H1  858   6.579   5.131   5.353  1.1284 -0.4882  1.1509
  298TIP3    H2  859   6.653   5.230   5.266 -1.7639  0.0794 -0.8268
  299TIP3   OH2  860   7.243   3.695   0.126 -0.1040  0.0793  0.1421
  299TIP3    H1  861   7.204   3.779   0.101 -0.1981 -0.1051 -0.3384
  299TIP3    H2  862   7.176   3.630   0.103  0.3274 -0.2056 -0.3216
  300TIP3   OH2  863   3.915   4.604   3.530 -0.6409  0.0061 -0.1304
  300TIP3    H1  864   4.004   4.568   3.529  0.3889  2.3602 -0.4046
  300TIP3    H2  865   3.891   4.607   3.623 -0.0212  0.2470  0.0264
  301TIP3   OH2  866   4.586   3.667   2.689 -0.4893 -0.3169  0.2927
  301TIP3    H1  867   4.567   3.755   2.657 -0.8752 -0.3840  0.3307
  301TIP3    H2  868   4.524   3.610   2.643  0.6431 -0.7575 -0.7358
  302TIP3   OH2  869   5.130   5.719   4.666 -0.1023  0.0188 -0.0437
  302TIP3    H1  870   5.159   5.668   4.591 -0.4981  1.5593 -1.2975
  302TIP3    H2  871   5.210   5.745   4.711  0.0780 -2.3291  1.0918
  303TIP3   OH2  872   2.941   3.422   5.804  0.5195 -0.4776 -0.0032
  303TIP3    H1  873   2.851   3.390   5.803 -0.5770  2.3218  0.2643
  303TIP3    H2  874   2.974   3.400   5.891 -0.1758 -0.8044  0.1790
  304TIP3   OH2  875   0.235   1.873   3.459 -0.0440  0.2370  0.4789
  304TIP3    H1  876   0.158   1.929   3.451 -0.4187 -0.4990 -1.8326
  304TIP3    H2  877   0.281   1.906   3.537 -1.9961  1.5094  1.1710
  305TIP3   OH2  878   2.193   3.330   3.375 -0.3131  0.1309  0.8450
  305TIP3    H1  879   2.253   3.301   3.443  0.5857 -1.0120 -0.3789
  305TIP3    H2  880   2.209   3.425   3.367  1.1786 -0.1043  0.7097
  306TIP3   OH2  881   3.989   1.412   3.255  0.2071  0.0956  0.2649
  306TIP3    H1  882   4.047   1.344   3.221  0.8347 -0.5460  2.4432
  306TIP3    H2  883   4.004   1.487   3.198 -1.9864 -2.0020 -3.5443
  307TIP3   OH2  884   3.087   2.851   1.480  0.5076  0.1228 -0.6793
  307TIP3    H1  885   3.110   2.797   1.405 -0.3548 -1.1261 -0.0671
  307TIP3    H2  886   3.014   2.805   1.522 -0.2545  1.7508 -0.1281
  308TIP3   OH2  887   5.679   5.359   2.529 -0.6142 -0.2583 -0.2178
  308TIP3    H1  888   5.662   5.270   2.497 -0.2567  0.0839 -1.3675
  308TIP3    H2  889   5.753   5.390   2.478  1.3710 -0.4316  2.3275
  309TIP3   OH2  890   6.198   4.735   5.060 -0.0791  0.5278 -0.1829
  309TIP3    H1  891   6.142   4.784   5.120 -0.6729  0.3324 -0.5684
  309TIP3    H2  892   6.222   4.656   5.109 -2.4345 -0.7887 -0.9276
  310TIP3   OH2  893   6.634   2.303   1.012  0.5579  0.4494 -0.3592
  310TIP3    H1  894   6.609   2.275   0.924  1.5564 -0.5815 -0.3329
  310TIP3    H2  895   6.701   2.369   0.999  0.1748  0.8405 -0.3746
  311TIP3   OH2  896   4.736   6.384   0.324  0.2979  0.6750  0.2014
  311TIP3    H1  897   4.665   6.375   0.260 -1.8907 -0.4925  2.5890
  311TIP3    H2  898   4.760   6.476   0.322 -0.3143  0.8277 -1.6335
  312TIP3   OH2  899   5.400   3.345   0.240 -0.5471 -0.3016 -0.1680
  312TIP3    H1  900   5.476   3.403   0.241 -0.8046  0.0595 -0.7581
  312TIP3    H2  901   5.354   3.363   0.322  1.1031 -2.0415  1.2209
  313TIP3   OH2  902   2.197   6.788   5.279 -0.7486 -0.0756  0.3121
  313TIP3    H1  903   2.213   6.694   5.282 -0.7934 -0.2739 -2.7406
  313TIP3    H2  904   2.270   6.827   5.328  0.3496 -1.6326 -0.0230
  314TIP3   OH2  905   6.331   5.049   3.829 -0.0260  0.1821  0.4549
  314TIP3    H1  906   6.344   5.123   3.888  1.7798  0.0450  0.2783
  314TIP3    H2  907   6.404   5.054   3.767 -0.3235 -1.2803 -0.0570
  315TIP3   OH2  908   0.229   2.632   0.614 -0.8983 -0.0810  0.1850
  315TIP3    H1  909   0.226   2.716   0.660 -2.4843  0.6274 -1.1427
  315TIP3    H2  910   0.302   2.586   0.655  1.1740  2.6124 -0.1804
  316TIP3   OH2  911   3.560   3.477   3.154  0.2936 -0.5929 -0.0049
  316TIP3    H1  912   3.653   3.468   3.173  0.4929 -0.1103 -0.6777
  316TIP3    H2  913   3.551   3.568   3.124 -0.1067 -1.0720 -1.4304
  317TIP3   OH2  914   4.085   1.243   1.499  0.3522  0.0046 -0.4323
  317TIP3    H1  915   4.091   1.199   1.415  0.3007  0.5522 -0.7309
  317TIP3    H2  916   4.059   1.333   1.477  0.9344  0.3126  0.1208
  318TIP3   OH2  917   2.028   0.075   5.471  0.0928 -0.3047 -0.4592
  318TIP3    H1  918   2.043   0.066   5.377 -0.9909  1.8774 -0.9224
  318TIP3    H2  919   2.069   0.159   5.494 -0.1960 -0.5064  0.8850
  319TIP3   OH2  920   5.346   4.423   0.541 -0.2086  0.1820  0.5383
  319TIP3    H1  921   5.363   4.511   0.572 -0.7634 -0.1413  1.8316
  319TIP3    H2  922   5.301   4.435   0.457 -0.3874  1.1267  0.7622
  320TIP3   OH2  923   3.612   0.930   0.587 -0.4277  0.4514  0.2099
  320TIP3    H1  924   3.546   0.869   0.620 -0.9515  0.7135 -0.3397
  320TIP3    H2  925   3.665   0.877   0.527 -1.0747  0.5954 -0.5078
  321TIP3   OH2  926   4.698   1.211   5.663  0.1990  0.5348  0.0027
  321TIP3    H1  927   4.756   1.190   5.589  1.0488  2.3582  0.1045
  321TIP3    H2  928   4.666   1.299   5.644 -0.3929  0.6212  1.3043
  322TIP3   OH2  929   3.142   2.624   2.166 -0.0494  0.3055 -0.0345
  322TIP3    H1  930   3.067   2.595   2.115  0.1251 -0.5659  0.1840
  322TIP3    H2  931   3.160   2.712   2.133 -1.6403  0.8476  0.4621
  323TIP3   OH2  932   2.863   5.565   2.613 -0.3975  0.2614  0.2650
  323TIP3    H1  933   2.767   5.565   2.622 -0.3953  0.9775  0.3656
  323TIP3    H2  934   2.894   5.604   2.694 -0.0136  0.0002  0.2445
  324TIP3   OH2  935   6.698   4.712   4.756 -0.5755 -0.7817  0.0576
  324TIP3    H1  936   6.706   4.627   4.800 -1.1068 -0.6628  0.3866
  324TIP3    H2  937   6.768   4.712   4.690  0.0859 -1.0549  0.7506
  325TIP3   OH2  938   4.219   3.366   0.541 -0.8376  0.1352  0.1101
  325TIP3    H1  939   4.272   3.420   0.482 -0.1198 -0.3086  0.3408
  325TIP3    H2  940   4.278   3.298   0.572 -1.8112 -1.0100 -0.4492
  326TIP3   OH2  941   6.815   3.960   3.065 -0.0348 -0.2388 -0.0793
  326TIP3    H1  942   6.887   3.987   3.122 -0.4528 -1.9665  1.3462
  326TIP3    H2  943   6.832   3.867   3.048 -1.9768 -0.7022  0.3602
  327TIP3   OH2  944   6.182   0.382   5.879  0.3325  0.2306  0.0573
  327TIP3    H1  945   6.248   0.401   5.946  1.9291  0.0211 -1.3966
  327TIP3    H2  946   6.221   0.415   5.798 -1.4909  0.3389 -0.8105
  328TIP3   OH2  947   4.306   5.389   5.635  0.2351  0.1097  0.2221
  328TIP3    H1  948   4.351   5.467   5.667 -1.4554  0.4411  2.0341
  328TIP3    H2  949   4.352   5.316   5.676  0.8652  0.2310 -0.2477
  329TIP3   OH2  950   2.762   2.282   1.325  0.0536 -0.2512 -0.0480
  329TIP3    H1  951   2.676   2.253   1.292  0.8469 -0.5527 -1.9987
  329TIP3    H2  952   2.807   2.200   1.346  0.5924 -0.2052 -1.0045
  330TIP3   OH2  953   2.781   1.977   0.089  0.5451 -0.3175 -0.2127
  330TIP3    H1  954   2.742   1.991   0.003  1.8832  3.9047 -0.3668
  330TIP3    H2  955   2.743   2.046   0.144  1.9798 -0.9947  1.7418
  331TIP3   OH2  956   6.847   4.601   5.261  0.3457 -0.2173  0.0643
  331TIP3    H1  957   6.847   4.506   5.259  0.7381 -0.2569  1.0742
  331TIP3    H2  958   6.886   4.627   5.177 -1.1688 -0.8939 -0.8800
  332TIP3   OH2  959   0.756   0.143   4.763 -0.0964 -0.7842  0.3985
  332TIP3    H1  960   0.811   0.220   4.775 -1.4320  0.3765 -0.5091
  332TIP3    H2  961   0.797   0.094   4.692 -0.6261  0.5270 -0.8868
  333TIP3   OH2  962   3.998   4.727   4.799  0.9690  0.3244 -0.4818
  333TIP3    H1  963   3.947   4.795   4.843  0.6868  0.6693 -1.3207
  333TIP3    H2  964   4.043   4.773   4.727  2.5293  0.0420  0.2742
  334TIP3   OH2  965   6.725   0.101   2.368  0.0250 -0.1455  0.0289
  334TIP3    H1  966   6.686   0.018   2.396 -1.0530 -0.4560 -2.1603
  334TIP3    H2  967   6.798   0.075   2.312  0.2594  0.3999  0.0832
  335TIP3   OH2  968   0.502   6.349   1.327  0.0514 -0.1984 -0.0622
  335TIP3    H1  969   0.582   6.322   1.372 -0.2390  1.3927  1.5410
  335TIP3    H2  970   0.528   6.358   1.236  1.5891 -0.2025  0.3419
  336TIP3   OH2  971   0.358   5.225   2.025  0.2592  0.2599 -0.8016
  336TIP3    H1  972   0.267   5.255   2.024  0.0640 -0.3082 -1.4259
  336TIP3    H2  973   0.376   5.203   2.116  0.9168  3.6873  0.0350
  337TIP3   OH2  974   0.871   2.205   1.045 -0.0721 -0.1021  0.8320
  337TIP3    H1  975   0.776   2.199   1.041 -0.0822  0.0638  0.7771
  337TIP3    H2  976   0.892   2.212   1.138  0.0521 -2.4595  1.0374
  338TIP3   OH2  977   5.325   4.953   4.585  0.1079 -0.9221  0.2866
  338TIP3    H1  978   5.380   4.879   4.557  0.5081 -0.4326 -0.2529
  338TIP3    H2  979   5.369   4.987   4.662 -0.5770 -1.8018  1.0878
  339TIP3   OH2  980   4.404   6.503   3.345 -0.0998 -0.0121 -0.2017
  339TIP3    H1  981   4.368   6.558   3.275 -0.6059  1.1233  0.8988
  339TIP3    H2  982   4.482   6.551   3.375  0.0653 -0.4381  0.0601
  340TIP3   OH2  983   3.489   4.323   5.471  0.1343  0.4982 -0.1389
  340TIP3    H1  984   3.430   4.266   5.521  1.0987 -1.3460 -0.9974
  340TIP3    H2  985   3.555   4.352   5.534 -1.2571  2.0374  0.6717
  341TIP3   OH2  986   1.394   2.984   1.659 -0.5414 -0.3472  0.4429
  341TIP3    H1  987   1.340   2.905   1.657 -0.4055 -0.4377  0.2955
  341TIP3    H2  988   1.332   3.056   1.646 -0.4450 -0.5456 -1.3086
  342TIP3   OH2  989   5.434   1.238   3.271  0.0656 -0.1183  0.2294
  342TIP3    H1  990   5.472   1.263   3.187 -0.1633 -0.6541 -0.0403
  342TIP3    H2  991   5.463   1.306   3.332  1.7399 -0.6950  0.1179
  343TIP3   OH2  992   1.198   5.941   1.322  0.0386 -0.0847  0.2106
  343TIP3    H1  993   1.279   5.924   1.370  0.5222  1.4691 -0.0121
  343TIP3    H2  994   1.129   5.905   1.377  0.7645 -0.2524  1.0264
  344TIP3   OH2  995   0.983   3.967   0.794 -0.2334  0.0223 -0.4758
  344TIP3    H1  996   0.892   3.996   0.803 -0.1366  0.5118 -1.0732
  344TIP3    H2  997   1.025   3.993   0.876  0.0755  2.4214 -1.3382
  345TIP3   OH2  998   6.439   0.355   2.425 -0.1121 -0.1517  0.4691
  345TIP3    H1  999   6.514   0.356   2.366 -0.9035  0.7409 -0.5829
  345TIP3    H2 1000   6.376   0.296   2.384 -0.5632  0.2564  0.5569
  346TIP3   OH2 1001   5.906   5.276   4.580  0.0277  0.1396 -0.2229
  346TIP3    H1 1002   5.906   5.271   4.676  0.1343 -0.2689 -0.2413
  346TIP3    H2 1003   5.895   5.185   4.551 -0.0740  0.2688 -0.5982
  347TIP3   OH2 1004   0.215   4.268   4.059  0.3505  0.1163  0.1592
  347TIP3    H1 1005   0.224   4.176   4.084  2.0916 -0.2145 -1.4560
  347TIP3    H2 1006   0.128   4.293   4.090 -0.5597 -2.3393 -0.1924
  348TIP3   OH2 1007   2.838   1.354   4.879 -0.4327 -0.2552 -0.5582
  348TIP3    H1 1008   2.865   1.324   4.792  0.5035  2.0989 -1.1531
  348TIP3    H2 1009   2.836   1.450   4.872 -0.1394  0.0138  2.0664
  349TIP3   OH2 1010   0.607   3.030   0.955  0.2240 -0.4722  0.1975
  349TIP3    H1 1011   0.688   3.034   1.006  0.0231  0.1615  0.4741
  349TIP3    H2 1012   0.538   3.034   1.021 -0.0468  1.1349 -0.1550
  350TIP3   OH2 1013   4.915   3.030   2.475 -0.0541  0.4627  0.0069
  350TIP3    H1 1014   4.953   2.954   2.431 -0.4236  0.0831  0.3274
  350TIP3    H2 1015   4.924   3.010   2.568 -2.9903 -0.7123  0.1559
  351TIP3   OH2 1016   2.746   0.437   4.113  0.1698 -0.3391  0.2540
  351TIP3    H1 1017   2.790   0.516   4.145 -0.4750 -0.2673  0.9854
  351TIP3    H2 1018   2.771   0.432   4.020 -0.5471  1.2693 -0.0546
  352TIP3   OH2 1019   1.793   2.875   5.509  0.1773  0.2203 -0.0349
  352TIP3    H1 1020   1.853   2.890   5.436 -0.6061 -0.5337 -0.8392
  352TIP3    H2 1021   1.713   2.841   5.469  0.0369 -1.0483  1.2330
  353TIP3   OH2 1022   3.417   1.492   2.095 -0.0768  0.0051  0.1009
  353TIP3    H1 1023   3.433   1.455   2.008 -3.1555  0.4031 -0.7508
  353TIP3    H2 1024   3.503   1.523   2.124  0.9811  0.2564 -2.9610
  354TIP3   OH2 1025   0.600   3.467   3.551 -0.6531  0.1226 -0.2618
  354TIP3    H1 1026   0.554   3.508   3.625  1.4646 -1.5654  2.1752
  354TIP3    H2 1027   0.692   3.494   3.562 -0.2815 -0.1195 -2.3578
  355TIP3   OH2 1028   0.321   3.747   3.553  0.3259 -0.9882  0.5661
  355TIP3    H1 1029   0.308   3.836   3.520  1.2663 -1.2576 -0.5935
  355TIP3    H2 1030   0.414   3.743   3.575 -0.0252 -1.2166  2.1158
  356TIP3   OH2 1031   0.990   6.806   0.100 -0.1909 -0.1854  0.0359
  356TIP3    H1 1032   0.911   6.752   0.093  1.1001 -2.1264 -0.4515
  356TIP3    H2 1033   1.035   6.792   0.017  0.8920  0.5174  0.4899
  357TIP3   OH2 1034   6.468   3.989   1.278 -0.0782 -0.1110  0.1663
  357TIP3    H1 1035   6.562   3.992   1.263  0.2865 -2.1359  1.7296
  357TIP3    H2 1036   6.449   4.067   1.331  0.8869 -0.2466  0.7192
  358TIP3   OH2 1037   3.545   1.172   1.894  0.0344 -0.2552  0.1465
  358TIP3    H1 1038   3.530   1.265   1.880  1.9432  0.0134 -0.2918
  358TIP3    H2 1039   3.480   1.129   1.839  0.6101  0.8231 -1.4501
  359TIP3   OH2 1040   5.226   4.483   5.544 -0.2342  0.1656 -0.0652
  359TIP3    H1 1041   5.166   4.489   5.618 -0.5589 -1.0611 -0.2188
  359TIP3    H2 1042   5.289   4.553   5.560 -0.0901 -0.2811  1.5604
  360TIP3   OH2 1043   3.277   2.545   2.979  0.3006  0.0837 -0.6545
  360TIP3    H1 1044   3.366   2.511   2.967  0.4522  0.4483 -0.5945
  360TIP3    H2 1045   3.232   2.523   2.897 -0.7506 -3.5609  0.7304
  361TIP3   OH2 1046   4.990   3.585   3.285  0.1060 -0.5723 -0.5068
  361TIP3    H1 1047   5.082   3.604   3.307  0.1935  0.0320 -1.3504
  361TIP3    H2 1048   4.942   3.606   3.365  0.5937  0.0500 -0.3634
  362TIP3   OH2 1049   0.054   4.522   3.284 -0.2200 -0.2355 -0.1290
  362TIP3    H1 1050   0.136   4.485   3.316 -0.6690 -0.7085  0.5205
  362TIP3    H2 1051  -0.014   4.475   3.333 -0.8292  1.2271  0.4845
  363TIP3   OH2 1052   4.104   2.527   0.649  0.0263  0.3541 -0.1369
  363TIP3    H1 1053   4.073   2.538   0.560 -0.1353  0.5216 -0.0614
  363TIP3    H2 1054   4.200   2.525   0.641  0.0072  0.2479 -0.3255
  364TIP3   OH2 1055   0.994   4.264   1.454  0.1032  0.0358 -0.0293
  364TIP3    H1 1056   0.942   4.184   1.444 -1.8238  1.1109  0.9717
  364TIP3    H2 1057   1.082   4.231   1.475 -1.1267 -1.9084  2.8255
  365TIP3   OH2 1058   5.065   1.366   3.724  0.0313  0.2716 -0.0665
  365TIP3    H1 1059   5.066   1.385   3.630 -1.3841 -0.6300 -0.3077
  365TIP3    H2 1060   5.067   1.270   3.729  2.8985  0.2848  0.9532
  366TIP3   OH2 1061   4.189   3.561   3.699  0.4301 -0.4366  0.5831
  366TIP3    H1 1062   4.208   3.525   3.613  0.5802 -0.2968  0.5576
  366TIP3    H2 1063   4.102   3.527   3.721 -0.8615  1.7437 -0.8342
  367TIP3   OH2 1064   0.206   3.475   2.935  0.2058 -0.7305 -0.0549
  367TIP3    H1 1065   0.223   3.445   2.845  0.6994 -1.5088  0.2913
  367TIP3    H2 1066   0.197   3.570   2.927  4.4894 -0.1334 -0.3580
  368TIP3   OH2 1067   4.451   5.717   4.182  0.2382 -0.0050 -0.0510
  368TIP3    H1 1068   4.367   5.751   4.212 -0.4321 -1.3691 -0.3188
  368TIP3    H2 1069   4.461   5.633   4.227  1.0352 -0.2750 -0.6943
  369TIP3   OH2 1070   4.841   4.979   3.289 -0.2020 -0.1702 -0.4294
  369TIP3    H1 1071   4.781   4.999   3.218  2.3254  0.0359 -2.6559
  369TIP3    H2 1072   4.878   5.064   3.314 -2.2880  0.0587  2.5222
  370TIP3   OH2 1073   4.826   3.905   5.479 -0.0768 -0.4807 -0.3588
  370TIP3    H1 1074   4.735   3.931   5.493 -0.0652 -1.0344  0.8831
  370TIP3    H2 1075   4.875   3.953   5.546  0.6164  0.0951 -1.2442
  371TIP3   OH2 1076   3.133   3.566   0.580  0.3663 -0.1025  0.1323
  371TIP3    H1 1077   3.199   3.502   0.555 -0.3850 -0.6084 -0.6250
  371TIP3    H2 1078   3.049   3.521   0.566 -0.1461  0.5644  0.9358
  372TIP3   OH2 1079   0.105   3.979   3.064  0.2223  0.4700  0.1553
  372TIP3    H1 1080   0.175   4.012   3.119  0.9845 -0.6049 -0.1443
  372TIP3    H2 1081   0.149   3.924   2.999 -1.0773 -2.7321  1.7461
  373TIP3   OH2 1082   5.550   3.016   4.210  0.2116 -0.1269 -0.5396
  373TIP3    H1 1083   5.473   3.048   4.257  0.4174  0.4810 -0.6112
  373TIP3    H2 1084   5.566   2.929   4.247 -0.5196 -0.2738 -0.5421
  374TIP3   OH2 1085   2.501   5.002   1.805 -0.1744 -0.0877  0.2047
  374TIP3    H1 1086   2.413   5.006   1.844 -0.2879 -0.5606  0.0068
  374TIP3    H2 1087   2.555   4.960   1.873 -0.1329  0.0726  0.2708
  375TIP3   OH2 1088   6.479   1.751   0.434 -0.1899  0.4731 -0.3214
  375TIP3    H1 1089   6.491   1.723   0.525  0.6056 -2.1559 -1.1511
  375TIP3    H2 1090   6.393   1.717   0.410  0.6548 -1.1469 -1.2541
  376TIP3   OH2 1091   3.848   4.801   4.032  0.0530  0.3027 -0.3722
  376TIP3    H1 1092   3.754   4.816   4.029  0.1447  0.7737 -1.0457
  376TIP3    H2 1093   3.859   4.731   4.096 -0.6704  0.8625  0.3818
  377TIP3   OH2 1094   0.293   4.389   0.211  0.3724  0.1443  0.0682
  377TIP3    H1 1095   0.342   4.308   0.226  0.8295  0.5217  0.6119
  377TIP3    H2 1096   0.231   4.393   0.283  1.0408  0.7987  0.6136
  378TIP3   OH2 1097   6.763   2.577   3.997 -0.3245 -0.2173 -0.1657
  378TIP3    H1 1098   6.783   2.496   4.044 -0.8540 -0.1203  0.2402
  378TIP3    H2 1099   6.671   2.594   4.017  0.0486  1.0490  0.6260
  379TIP3   OH2 1100   1.527   3.985   5.476  0.1275 -0.2862  0.2587
  379TIP3    H1 1101   1.579   3.986   5.395 -1.0315 -2.5367 -0.6181
  379TIP3    H2 1102   1.576   4.040   5.537  0.7675  2.0104 -2.1156
  380TIP3   OH2 1103   5.253   3.524   4.661 -0.1376  0.8249  0.3810
  380TIP3    H1 1104   5.244   3.431   4.679 -0.8615  0.7887 -0.1400
  380TIP3    H2 1105   5.249   3.531   4.566  1.0974  1.2744  0.3431
  381TIP3   OH2 1106   1.953   4.989   2.432  0.1634 -0.1580  0.2958
  381TIP3    H1 1107   1.966   5.066   2.486 -0.8762 -0.0460  0.3989
  381TIP3    H2 1108   2.036   4.978   2.385  0.9893 -0.1252  1.7145
  382TIP3   OH2 1109   3.121   2.485   4.984  0.5674 -0.6463  0.5470
  382TIP3    H1 1110   3.201   2.464   4.935  1.5295  1.8718  0.8516
  382TIP3    H2 1111   3.121   2.581   4.989 -3.1407 -0.4590 -0.4771
  383TIP3   OH2 1112   3.532   3.083   2.682 -0.3886 -0.6100 -0.5257
  383TIP3    H1 1113   3.497   3.144   2.617 -1.7242 -1.1770 -0.3714
  383TIP3    H2 1114   3.578   3.017   2.630 -1.3631 -1.0021 -0.9240
  384TIP3   OH2 1115   6.486   5.424   5.520  0.8329 -0.1854 -0.0827
  384TIP3    H1 1116   6.518   5.486   5.455 -0.6891  0.2173 -0.4990
  384TIP3    H2 1117   6.546   5.350   5.514  1.7050  0.5546 -0.7470
  385TIP3   OH2 1118   0.830   5.946   3.248  0.1925 -0.1629  0.8404
  385TIP3    H1 1119   0.922   5.964   3.230 -0.6321  1.0280 -3.0913
  385TIP3    H2 1120   0.821   5.852   3.231  0.6273 -0.2873  1.2461
  386TIP3   OH2 1121   1.521   5.764   3.652  0.0594 -0.1515  0.8998
  386TIP3    H1 1122   1.585   5.716   3.705 -1.2514 -0.9808  1.8134
  386TIP3    H2 1123   1.438   5.750   3.697 -1.0761 -0.6034 -1.2054
  387TIP3   OH2 1124   2.859   4.426   0.713  0.1019  0.0849 -0.0790
  387TIP3    H1 1125   2.776   4.405   0.671  0.0342 -0.3296  0.2582
  387TIP3    H2 1126   2.837   4.437   0.805  0.1117  1.7561 -0.2430
  388TIP3   OH2 1127   2.963   3.300   4.653 -0.0268 -0.9877 -0.4588
  388TIP3    H1 1128   3.048   3.275   4.615  1.0531 -0.3166  1.3529
  388TIP3    H2 1129   2.981   3.384   4.697 -1.6234 -0.8685  0.0297
  389TIP3   OH2 1130   6.124   4.593   0.591  0.2147  0.2127 -0.1022
  389TIP3    H1 1131   6.096   4.679   0.621  0.8546  0.6689 -0.7886
  389TIP3    H2 1132   6.056   4.533   0.624  1.4633  0.4653  3.3127
  390TIP3   OH2 1133   5.570   0.276   3.672 -0.8325  0.3169  0.2036
  390TIP3    H1 1134   5.603   0.312   3.754 -0.2716 -0.2340  0.2291
  390TIP3    H2 1135   5.552   0.184   3.691 -0.2747  0.0713 -0.4067
  391TIP3   OH2 1136   3.589   5.679   4.435 -0.2239  0.5048  0.8371
  391TIP3    H1 1137   3.570   5.681   4.528 -0.2243  1.4563  0.8244
  391TIP3    H2 1138   3.618   5.768   4.414  0.1605  0.1994  0.0116
  392TIP3   OH2 1139   1.771   3.716   5.749 -0.3621  0.0302 -0.1226
  392TIP3    H1 1140   1.705   3.665   5.797  1.2460 -1.3141  0.7696
  392TIP3    H2 1141   1.843   3.727   5.812  0.6094  0.7494 -1.3194
  393TIP3   OH2 1142   3.450   2.731   4.933 -0.4642 -0.1878  0.5392
  393TIP3    H1 1143   3.470   2.813   4.978  0.9915 -0.7638  1.0074
  393TIP3    H2 1144   3.462   2.751   4.840  1.3252 -0.1953  0.7299
  394TIP3   OH2 1145   3.399   4.140   1.010  0.1568 -0.0940  0.2706
  394TIP3    H1 1146   3.464   4.070   1.020  0.9396  0.5259 -0.3608
  394TIP3    H2 1147   3.417   4.201   1.082 -0.2868 -0.3384  0.5988
  395TIP3   OH2 1148   6.537   4.080   3.990  0.5932 -0.5309  0.0854
  395TIP3    H1 1149   6.536   4.131   4.071 -1.0945 -1.2383  0.5474
  395TIP3    H2 1150   6.505   4.140   3.923  2.2279  0.1323 -0.1503
  396TIP3   OH2 1151   6.966   3.305   0.449 -0.1895  0.3824 -0.2536
  396TIP3    H1 1152   7.036   3.309   0.514 -0.2053 -1.3876 -0.0737
  396TIP3    H2 1153   6.979   3.383   0.394  0.6580  1.1665  1.0099
  397TIP3   OH2 1154   1.517   1.881   3.140 -0.1519  0.5948 -0.5790
  397TIP3    H1 1155   1.425   1.857   3.138 -0.4087  0.8751  2.6909
  397TIP3    H2 1156   1.521   1.960   3.194  2.0412  0.3757 -0.2988
  398TIP3   OH2 1157   1.778   1.106   2.665  0.5977 -0.1207 -0.1611
  398TIP3    H1 1158   1.830   1.185   2.653  2.2445 -1.0460  0.6766
  398TIP3    H2 1159   1.689   1.138   2.682  0.7165  1.4724 -2.1131
  399TIP3   OH2 1160   1.152   3.252   4.611 -0.1975  0.0193  0.1147
  399TIP3    H1 1161   1.225   3.259   4.549  0.6378  0.8461  1.1684
  399TIP3    H2 1162   1.134   3.342   4.638 -2.1143 -0.0778 -0.6514
  400TIP3   OH2 1163   5.200   0.054   2.538  0.3954 -0.5776 -0.5648
  400TIP3    H1 1164   5.231  -0.010   2.602  1.0728 -0.0891 -0.3947
  400TIP3    H2 1165   5.129   0.100   2.583  0.8441 -0.2595 -0.1647
  401TIP3   OH2 1166   5.269   0.086   1.677  0.1214  0.2779 -0.1150
  401TIP3    H1 1167   5.303   0.175   1.670 -0.3316  0.4147 -0.5668
  401TIP3    H2 1168   5.345   0.030   1.661  1.8149  0.4133  5.2541
  402TIP3   OH2 1169   6.601   2.081   4.109 -0.3588 -0.3559 -0.0749
  402TIP3    H1 1170   6.593   2.175   4.123 -0.3681 -0.4122  0.2946
  402TIP3    H2 1171   6.623   2.072   4.016 -1.8310 -0.0537 -0.4773
  403TIP3   OH2 1172   0.375   2.495   5.289  0.1578 -0.1223 -0.3829
  403TIP3    H1 1173   0.290   2.510   5.332  0.4388  1.1346 -0.2283
  403TIP3    H2 1174   0.353   2.481   5.197 -0.3401 -1.5343 -0.0848
  404TIP3   OH2 1175   2.825   0.708   3.855 -0.4852 -0.1158  0.1406
  404TIP3    H1 1176   2.828   0.751   3.770 -0.3310 -0.0414  0.1832
  404TIP3    H2 1177   2.807   0.616   3.835  0.6635 -0.3166 -0.0477
  405TIP3   OH2 1178   7.008   0.881   5.122 -0.0982  0.2642  0.2846
  405TIP3    H1 1179   7.007   0.958   5.065 -0.4039 -0.8513 -1.2819
  405TIP3    H2 1180   6.979   0.914   5.207 -1.0573  1.7247 -0.5617
  406TIP3   OH2 1181   0.793   3.633   4.255 -0.7522 -0.2391 -0.0498
  406TIP3    H1 1182   0.741   3.709   4.229  2.4226  1.9977 -0.4594
  406TIP3    H2 1183   0.806   3.644   4.349 -1.5246 -1.1963  0.1913
  407TIP3   OH2 1184   1.830   1.405   2.769  0.4609  0.0238  0.2216
  407TIP3    H1 1185   1.880   1.325   2.783  0.7188  0.5100  2.3573
  407TIP3    H2 1186   1.892   1.476   2.788 -0.3335  0.6919  0.3786
  408TIP3   OH2 1187   5.923   5.896   5.579  0.1682 -0.4735 -0.7808
  408TIP3    H1 1188   5.991   5.828   5.580 -0.8413 -1.5116 -1.0698
  408TIP3    H2 1189   5.842   5.850   5.600 -0.6647  0.4948 -1.7294
  409TIP3   OH2 1190   0.662   1.641   5.181 -0.2881 -0.0089  0.2436
  409TIP3    H1 1191   0.727   1.600   5.124  0.8882  0.2465  1.3399
  409TIP3    H2 1192   0.595   1.574   5.194  0.6798 -0.9511  0.5311
  410TIP3   OH2 1193   0.025   2.432   5.013 -0.1903  0.0594 -0.1591
  410TIP3    H1 1194   0.042   2.481   5.094  1.0470 -2.4385  1.2280
  410TIP3    H2 1195  -0.060   2.464   4.982 -2.5700 -1.3223  4.1530
  411TIP3   OH2 1196   1.850   5.166   0.862 -0.6598  0.3311 -0.5472
  411TIP3    H1 1197   1.835   5.075   0.888  0.0138  0.6910  1.2281
  411TIP3    H2 1198   1.762   5.204   0.858 -1.0588 -0.6841 -2.6002
  412TIP3   OH2 1199   3.205   4.261   0.867 -0.4334  0.7491 -0.2223
  412TIP3    H1 1200   3.138   4.245   0.933 -0.3587  2.2070  0.2624
  412TIP3    H2 1201   3.283   4.216   0.900 -0.8023  0.2005 -0.0908
  413TIP3   OH2 1202   1.881   3.492   4.556  0.4331 -0.3555  0.0238
  413TIP3    H1 1203   1.938   3.509   4.631  0.9564 -1.8051  0.0011
  413TIP3    H2 1204   1.914   3.550   4.487 -0.4861  1.4791  1.0875
  414TIP3   OH2 1205   1.993   5.965   5.126 -0.2450 -0.1757 -0.3926
  414TIP3    H1 1206   2.024   5.877   5.106 -0.3640 -0.3501  0.1872
  414TIP3    H2 1207   1.907   5.970   5.083 -0.9784 -0.9236  0.9339
  415TIP3   OH2 1208   4.278   4.223   0.087  0.0916  0.1270  0.1678
  415TIP3    H1 1209   4.355   4.279   0.096  1.3997 -1.4783 -0.6150
  415TIP3    H2 1210   4.271   4.206  -0.007 -0.9908 -0.0917  0.2731
  416TIP3   OH2 1211   0.752   1.098   3.256 -0.3301  0.0016 -0.2101
  416TIP3    H1 1212   0.706   1.019   3.284  0.3801 -0.3412  0.0294
  416TIP3    H2 1213   0.683   1.161   3.235 -0.9070  0.0506  1.6983
  417TIP3   OH2 1214   0.427   1.243   2.492 -0.0109 -1.0200 -0.2647
  417TIP3    H1 1215   0.350   1.300   2.484 -1.3495 -2.5454  1.2175
  417TIP3    H2 1216   0.392   1.154   2.486  1.6606 -1.7465  0.2852
  418TIP3   OH2 1217   1.458   5.671   4.422 -0.1180  0.5074  0.4730
  418TIP3    H1 1218   1.366   5.687   4.442 -0.3597 -1.5428  1.2621
  418TIP3    H2 1219   1.462   5.577   4.404  1.7998  0.5835  0.3335
  419TIP3   OH2 1220   1.138   3.553   4.623  0.1632 -0.2111 -0.4392
  419TIP3    H1 1221   1.146   3.585   4.713  0.1047 -1.0815 -0.1164
  419TIP3    H2 1222   1.196   3.610   4.572 -0.6681  1.0254 -0.0509
  420TIP3   OH2 1223   1.620   1.691   1.103 -0.0282  0.5242 -0.2626
  420TIP3    H1 1224   1.586   1.630   1.037 -0.7301  1.0925 -0.4399
  420TIP3    H2 1225   1.677   1.750   1.054  0.6637  0.0006 -0.0883
  421TIP3   OH2 1226   1.811   1.228   0.585  0.2065 -0.0880 -0.1509
  421TIP3    H1 1227   1.748   1.219   0.514 -1.3087  2.6132  0.7197
  421TIP3    H2 1228   1.896   1.239   0.541 -0.7505  1.9674 -1.6155
  422TIP3   OH2 1229   3.472   2.039   1.701  0.4054 -0.2348  0.2762
  422TIP3    H1 1230   3.397   2.010   1.650  0.9042 -0.0334 -0.5860
  422TIP3    H2 1231   3.434   2.072   1.783 -0.6907  1.9421 -1.0043
  423TIP3   OH2 1232   5.403   5.805   0.176  0.2462 -0.6538 -0.1495
  423TIP3    H1 1233   5.421   5.879   0.119 -0.3653  0.2132  0.7679
  423TIP3    H2 1234   5.318   5.772   0.147  0.1914 -0.5601 -0.0938
  424TIP3   OH2 1235   3.375   5.670   0.996 -1.1231 -0.2924  0.0862
  424TIP3    H1 1236   3.327   5.752   0.986 -0.0687  0.0669 -2.7964
  424TIP3    H2 1237   3.376   5.632   0.909  1.0049 -1.9020  0.7401
  425TIP3   OH2 1238   5.525   0.841   2.064 -0.2576  0.1288 -0.0965
  425TIP3    H1 1239   5.495   0.766   2.115 -0.7623  0.9738  0.8660
  425TIP3    H2 1240   5.486   0.917   2.106  1.8110  1.1318  0.1506
  426TIP3   OH2 1241   0.734   5.221   2.192 -0.5381 -0.1496 -0.4942
  426TIP3    H1 1242   0.787   5.288   2.148 -0.6770  0.0299 -0.3924
  426TIP3    H2 1243   0.702   5.166   2.121 -0.7933  0.1634 -0.6250
  427TIP3   OH2 1244   0.936   3.864   5.055  0.2011 -0.4587 -0.4022
  427TIP3    H1 1245   0.949   3.878   5.149  0.7828 -0.9140 -0.4103
  427TIP3    H2 1246   0.857   3.810   5.050  0.5722 -1.0390 -0.1289
  428TIP3   OH2 1247   4.851   5.772   4.676 -0.4727  0.0848  0.2901
  428TIP3    H1 1248   4.941   5.741   4.665  0.0216  0.9577  1.5858
  428TIP3    H2 1249   4.856   5.834   4.749 -1.6866  2.0148 -1.1747
  429TIP3   OH2 1250   6.781   4.639   3.030 -0.0017 -0.7704  0.2152
  429TIP3    H1 1251   6.765   4.671   3.118 -0.9451 -2.4558  0.7048
  429TIP3    H2 1252   6.876   4.635   3.022  0.1111  0.5597  0.6901
  430TIP3   OH2 1253   3.276   4.018   0.088 -0.5467 -1.1072  0.5974
  430TIP3    H1 1254   3.336   3.966   0.141  1.8357  1.6135  0.7930
  430TIP3    H2 1255   3.319   4.025   0.002 -0.8008  0.4339  0.5592
  431TIP3   OH2 1256   4.096   4.117   3.765  0.6381 -0.1801 -0.1765
  431TIP3    H1 1257   4.093   4.031   3.723 -1.6079  0.3429 -1.2274
  431TIP3    H2 1258   4.034   4.171   3.715 -0.7986  1.0131  2.6472
  432TIP3   OH2 1259   0.410   1.513   5.609  0.5557  0.0456 -0.0371
  432TIP3    H1 1260   0.438   1.558   5.689  1.3725  0.5539 -0.6010
  432TIP3    H2 1261   0.396   1.582   5.545  0.5014 -0.4005 -0.5195
  433TIP3   OH2 1262   1.919   0.681   2.259  0.0342 -0.3030  0.2690
  433TIP3    H1 1263   1.938   0.732   2.338 -1.0862 -0.3328  0.5657
  433TIP3    H2 1264   2.005   0.653   2.228  0.4391 -1.5511  2.3203
  434TIP3   OH2 1265   2.979   3.675   5.601 -0.0743  0.1635 -0.1883
  434TIP3    H1 1266   2.984   3.592   5.648  0.9477  0.4608  0.2653
  434TIP3    H2 1267   2.889   3.704   5.613 -0.2402 -0.5234  0.2731
  435TIP3   OH2 1268   3.676   6.368   1.172  0.2439  0.4760  0.0634
  435TIP3    H1 1269   3.586   6.367   1.139  0.5966  2.5354 -1.1471
  435TIP3    H2 1270   3.667   6.386   1.265 -0.6046  2.3727 -0.3373
  436TIP3   OH2 1271   5.788   4.772   1.744  0.2802  0.1309  0.5242
  436TIP3    H1 1272   5.818   4.701   1.801 -0.5512  0.5615  1.5501
  436TIP3    H2 1273   5.701   4.744   1.715 -0.0532  0.7067  0.9360
  437TIP3   OH2 1274   3.485   6.290   0.620  0.1997 -0.1136 -0.1800
  437TIP3    H1 1275   3.535   6.211   0.597  0.5888  0.3462 -0.9629
  437TIP3    H2 1276   3.522   6.318   0.703 -0.3489 -1.0911  0.4118
  438TIP3   OH2 1277   1.688   5.836   2.499 -0.2538 -0.2986 -0.7909
  438TIP3    H1 1278   1.639   5.896   2.555  1.4890 -0.0521  0.5669
  438TIP3    H2 1279   1.674   5.750   2.539  1.9767  0.0236  0.9135
  439TIP3   OH2 1280   3.973   3.302   4.874  0.5014 -0.2601 -0.3028
  439TIP3    H1 1281   3.909   3.235   4.852  0.8338 -0.2702 -1.2831
  439TIP3    H2 1282   4.011   3.328   4.790  1.9081 -0.3735  0.2778
  440TIP3   OH2 1283   0.309   2.987   3.580 -0.3231  0.1186  0.1097
  440TIP3    H1 1284   0.395   3.024   3.559  0.1223 -2.0098 -2.3050
  440TIP3    H2 1285   0.251   3.019   3.511 -1.0652  0.1761  0.7474
  441TIP3   OH2 1286   2.530   2.050   5.581  0.0538 -0.1381 -0.4079
  441TIP3    H1 1287   2.442   2.072   5.611  0.7588 -0.0767  1.8320
  441TIP3    H2 1288   2.557   1.978   5.638  1.3938 -0.2831 -1.1894
  442TIP3   OH2 1289   1.123   0.148   4.506 -0.3926 -0.0846 -0.1691
  442TIP3    H1 1290   1.117   0.125   4.414 -1.3598 -3.3618  0.5613
  442TIP3    H2 1291   1.217   0.155   4.523  0.0562 -3.0383 -0.7858
  443TIP3   OH2 1292   2.721   4.572   3.242  0.0533 -0.3772 -0.2735
  443TIP3    H1 1293   2.761   4.516   3.175 -0.6648 -2.0432  0.6513
  443TIP3    H2 1294   2.714   4.517   3.319  0.6749  1.4576  1.1690
  444TIP3   OH2 1295   3.526   3.854   1.496 -0.4423  0.4802 -0.0283
  444TIP3    H1 1296   3.607   3.846   1.547  0.2582  0.2421 -1.1485
  444TIP3    H2 1297   3.485   3.768   1.503 -0.6521  0.6263  0.6140
  445TIP3   OH2 1298   4.304   3.648   0.264 -0.4164  0.0530 -0.4224
  445TIP3    H1 1299   4.320   3.742   0.266  0.3178  0.1055 -3.4358
  445TIP3    H2 1300   4.209   3.639   0.275 -0.3299  0.9885  1.3605
  446TIP3   OH2 1301   0.283   5.674   1.094  0.0118  0.0223 -0.0995
  446TIP3    H1 1302   0.233   5.746   1.057 -0.6784 -1.2530 -1.7531
  446TIP3    H2 1303   0.373   5.706   1.096 -0.0956  0.5295 -1.9327
  447TIP3   OH2 1304   1.120   2.032   1.156 -0.3427 -0.1586 -0.2971
  447TIP3    H1 1305   1.154   1.993   1.237  0.6273 -0.0014 -0.6193
  447TIP3    H2 1306   1.163   1.984   1.086  1.5969  2.0052 -0.7086
  448TIP3   OH2 1307   4.059   2.006   4.361  0.3369  0.1539 -0.3768
  448TIP3    H1 1308   4.127   1.945   4.391  0.3001 -0.3978 -1.3438
  448TIP3    H2 1309   4.107   2.071   4.310  0.3457  0.8139  0.4571
  449TIP3   OH2 1310   1.270   4.943   1.909  0.3152  0.6183 -0.7321
  449TIP3    H1 1311   1.206   4.954   1.979  1.5515 -2.7838  1.1839
  449TIP3    H2 1312   1.224   4.971   1.830 -1.6627  3.1750  1.1615
  450TIP3   OH2 1313   1.048   0.888   4.761  0.0427  0.3638  1.1216
  450TIP3    H1 1314   1.053   0.978   4.793 -0.7645  0.2188  1.6676
  450TIP3    H2 1315   1.140   0.861   4.751  0.2874  1.1870  1.1152
  451TIP3   OH2 1316   4.499   2.542   4.425 -0.0423 -0.0700 -0.2390
  451TIP3    H1 1317   4.452   2.467   4.389 -0.9449  0.2958  0.1386
  451TIP3    H2 1318   4.550   2.575   4.351  1.2116 -1.6734 -0.1389
  452TIP3   OH2 1319   4.134   2.651   3.101  0.4487 -0.2377 -0.3421
  452TIP3    H1 1320   4.165   2.657   3.011 -2.1998  0.9578 -1.2559
  452TIP3    H2 1321   4.126   2.742   3.130 -0.5954 -0.5446  0.3912
  453TIP3   OH2 1322   3.376   1.243   3.837  0.4370 -0.2535 -0.1526
  453TIP3    H1 1323   3.433   1.275   3.907  2.0468 -1.8197 -0.6651
  453TIP3    H2 1324   3.334   1.321   3.803  1.9599  0.9347  0.5486
  454TIP3   OH2 1325   5.102   6.082   3.522  0.6018 -0.0301  0.0386
  454TIP3    H1 1326   5.033   6.066   3.458  1.1728  1.1153 -0.9167
  454TIP3    H2 1327   5.153   6.001   3.523  0.6524 -0.0240 -1.0642
  455TIP3   OH2 1328   5.020   2.876   1.325 -0.0178 -0.3458 -0.0362
  455TIP3    H1 1329   4.976   2.802   1.282 -1.4688 -0.2605  1.2160
  455TIP3    H2 1330   4.970   2.891   1.405  2.3001 -0.2127  1.5068
  456TIP3   OH2 1331   4.889   0.332   3.574 -0.1166  0.1394  0.4573
  456TIP3    H1 1332   4.795   0.331   3.593  0.1115  0.0613  1.7147
  456TIP3    H2 1333   4.925   0.264   3.631  0.6506 -0.1485 -0.3577
  457TIP3   OH2 1334   6.942   6.724   1.412  0.0979 -0.1774 -0.2819
  457TIP3    H1 1335   6.862   6.775   1.397  0.0380 -0.0391  0.4683
  457TIP3    H2 1336   6.962   6.685   1.327 -0.2120  0.5827 -0.7130
  458TIP3   OH2 1337   0.182   1.373   2.406  0.4989 -0.0536 -0.3858
  458TIP3    H1 1338   0.176   1.469   2.413  2.6667  0.1421 -0.4439
  458TIP3    H2 1339   0.124   1.341   2.474 -0.0516  1.3099 -0.1695
  459TIP3   OH2 1340   0.660   0.501   5.650 -0.0961  0.0260  0.3387
  459TIP3    H1 1341   0.567   0.518   5.634  0.0516  0.8159  0.2945
  459TIP3    H2 1342   0.702   0.586   5.643  0.5777 -0.2582  0.7782
  460TIP3   OH2 1343   6.513   2.630   5.368 -0.1321  0.2823 -0.4301
  460TIP3    H1 1344   6.548   2.667   5.287 -1.9545  1.5694 -0.6915
  460TIP3    H2 1345   6.503   2.705   5.427  1.4671 -0.6720  1.1574
  461TIP3   OH2 1346   1.774   6.230   4.852  0.2503  0.1761  0.4211
  461TIP3    H1 1347   1.724   6.259   4.928  2.2567  3.9067  0.5284
  461TIP3    H2 1348   1.724   6.262   4.777  0.4503  0.2981  0.3410
  462TIP3   OH2 1349   0.410   6.611   1.825 -0.1516 -0.0165 -0.1293
  462TIP3    H1 1350   0.464   6.690   1.833 -1.2001  0.6852  0.1757
  462TIP3    H2 1351   0.403   6.578   1.915  1.1870 -1.1072 -0.3832
  463TIP3   OH2 1352   0.680   1.381   1.694 -0.5745  0.4415  0.3035
  463TIP3    H1 1353   0.676   1.367   1.788 -0.4699  0.5192  0.3198
  463TIP3    H2 1354   0.700   1.295   1.658 -0.8855  0.3559  0.3302
  464TIP3   OH2 1355   6.833   6.237   2.067 -0.1443  0.1204  0.1467
  464TIP3    H1 1356   6.842   6.158   2.119 -1.0985 -0.1524 -0.0968
  464TIP3    H2 1357   6.901   6.229   2.000  1.2261  0.5634  1.4115
  465TIP3   OH2 1358   4.053   0.058   3.133  0.2472 -0.2046 -0.7108
  465TIP3    H1 1359   4.068  -0.037   3.140 -1.2248 -0.3960  0.1209
  465TIP3    H2 1360   3.973   0.066   3.081  0.0840  0.5755 -0.3441
  466TIP3   OH2 1361   2.764   6.432   3.385 -0.1182  0.8691  0.5207
  466TIP3    H1 1362   2.842   6.451   3.438 -0.0506  1.6941  0.1474
  466TIP3    H2 1363   2.701   6.396   3.447  0.2121  1.1552  1.0303
  467TIP3   OH2 1364   4.349   6.645   5.275  0.4839 -0.2866  0.4381
  467TIP3    H1 1365   4.398   6.685   5.202 -0.6592  1.1363  0.4147
  467TIP3    H2 1366   4.330   6.556   5.245 -0.4899  0.4562 -1.3101
  468TIP3   OH2 1367   3.998   2.689   0.429  0.1742 -0.5238  0.0730
  468TIP3    H1 1368   3.908   2.663   0.451  0.0318  0.8802  1.2757
  468TIP3    H2 1369   4.012   2.652   0.341 -2.0891  0.4228 -0.7815
  469TIP3   OH2 1370   0.423   0.164   4.075 -0.1075  0.0458 -0.2223
  469TIP3    H1 1371   0.462   0.119   4.150 -1.3891  2.4300  2.0890
  469TIP3    H2 1372   0.494   0.218   4.040 -0.1671  1.1941  1.2964
  470TIP3   OH2 1373   4.232   2.957   4.277  0.5199 -0.2377 -0.3332
  470TIP3    H1 1374   4.278   2.886   4.232 -1.7152 -2.9871  1.4137
  470TIP3    H2 1375   4.177   2.996   4.210 -0.2596 -2.0267 -0.7883
  471TIP3   OH2 1376   4.965   6.303   2.459  0.1706  0.7643 -0.1731
  471TIP3    H1 1377   4.934   6.392   2.439 -0.9222  0.3977 -0.1781
  471TIP3    H2 1378   4.950   6.254   2.378 -0.6588  0.2106  0.3046
  472TIP3   OH2 1379   3.199   4.272   4.632 -0.1375 -0.4365  0.0189
  472TIP3    H1 1380   3.225   4.185   4.659 -0.7942 -0.4225  0.7606
  472TIP3    H2 1381   3.239   4.330   4.697  0.8389 -0.1157 -0.8436
  473TIP3   OH2 1382   2.963   0.700   3.285  0.0580  0.4135 -0.7265
  473TIP3    H1 1383   3.028   0.765   3.259  0.7717 -0.0873 -0.2437
  473TIP3    H2 1384   3.012   0.637   3.338 -0.8435  0.0797 -0.2606
  474TIP3   OH2 1385   5.848   1.448   2.088  0.3577  0.2612  0.3039
  474TIP3    H1 1386   5.936   1.475   2.062  0.5921 -0.4056  0.4032
  474TIP3    H2 1387   5.848   1.457   2.183  0.2768  0.3697  0.2943
  475TIP3   OH2 1388   5.233   1.996   3.806  0.3055 -0.5370 -0.0075
  475TIP3    H1 1389   5.256   2.068   3.747 -0.4201  0.9094  1.3961
  475TIP3    H2 1390   5.189   1.933   3.749 -0.3676  0.7896 -1.0403
  476TIP3   OH2 1391   0.341   4.867   4.984 -0.3610  0.0749 -0.4639
  476TIP3    H1 1392   0.292   4.897   5.061  0.3620  2.6536 -0.9090
  476TIP3    H2 1393   0.279   4.811   4.937 -1.1766 -0.7119  1.4160
  477TIP3   OH2 1394   2.235   3.152   1.772 -0.3311 -0.4223  0.4328
  477TIP3    H1 1395   2.270   3.240   1.780 -2.6576  0.6765 -0.5268
  477TIP3    H2 1396   2.140   3.163   1.777 -0.6874 -2.9330  0.6761
  478TIP3   OH2 1397   5.188   6.106   4.955 -0.2267 -0.7638  0.9267
  478TIP3    H1 1398   5.165   6.188   4.999 -3.6610 -1.1602  0.1527
  478TIP3    H2 1399   5.178   6.125   4.862 -0.1781 -1.8439  0.6886
  479TIP3   OH2 1400   0.207   2.740   4.269  0.2558 -0.0036 -0.0748
  479TIP3    H1 1401   0.219   2.783   4.353  1.6124  0.6578 -0.5870
  479TIP3    H2 1402   0.119   2.765   4.241 -0.9705 -1.7048  1.9465
  480TIP3   OH2 1403   4.327   6.067   1.898 -0.4601 -0.0184  0.1313
  480TIP3    H1 1404   4.333   5.975   1.872  0.5870  0.5931 -2.1149
  480TIP3    H2 1405   4.382   6.073   1.976  1.2031 -0.9489 -0.8960
  481TIP3   OH2 1406   7.045   4.622   3.131  0.2652  0.2636  0.0017
  481TIP3    H1 1407   7.131   4.611   3.171 -0.5449 -0.1756  1.7430
  481TIP3    H2 1408   6.989   4.559   3.177 -1.3155  1.5768 -0.0183
  482TIP3   OH2 1409   5.522   3.203   0.748 -0.5911 -0.1665 -0.6444
  482TIP3    H1 1410   5.490   3.120   0.713  0.5906 -0.5423 -0.8658
  482TIP3    H2 1411   5.556   3.181   0.835  1.4874 -0.3229 -1.4554
  483TIP3   OH2 1412   7.004   2.601   4.379 -0.2879  0.9088 -0.7891
  483TIP3    H1 1413   6.994   2.572   4.470  0.7099 -1.1331 -1.2565
  483TIP3    H2 1414   6.936   2.667   4.367 -1.3835  0.1920  1.0245
  484TIP3   OH2 1415   5.746   3.545   3.796 -0.0532 -0.0158  0.1458
  484TIP3    H1 1416   5.751   3.451   3.778 -0.6057  0.3191 -1.8928
  484TIP3    H2 1417   5.669   3.575   3.748  0.5895  1.6350  0.0982
  485TIP3   OH2 1418   4.961   3.221   2.269  0.5394  0.5082  0.4883
  485TIP3    H1 1419   4.945   3.162   2.342 -0.5252  0.6843  0.4066
  485TIP3    H2 1420   5.034   3.181   2.221  0.3625 -0.3019  0.8890
  486TIP3   OH2 1421   0.884   0.765   4.944 -0.1583 -0.0663  0.2667
  486TIP3    H1 1422   0.939   0.783   4.868  1.1605  0.2828  1.2544
  486TIP3    H2 1423   0.854   0.851   4.973 -0.5670 -0.1860  0.2017
  487TIP3   OH2 1424   4.420   1.375   4.489 -0.2840 -0.1103  0.3790
  487TIP3    H1 1425   4.441   1.464   4.516 -1.7751  0.6658 -0.8800
  487TIP3    H2 1426   4.471   1.361   4.409  1.1833 -1.0267  1.4059
  488TIP3   OH2 1427   1.382   6.355   5.487 -0.3197  0.1010 -0.1080
  488TIP3    H1 1428   1.332   6.355   5.569 -0.8099  0.4956 -0.4036
  488TIP3    H2 1429   1.318   6.337   5.419 -0.1171  0.9137 -0.5267
  489TIP3   OH2 1430   3.202   0.503   1.529  0.1025 -0.1441 -0.3822
  489TIP3    H1 1431   3.182   0.538   1.442 -1.7150  0.5441  0.2632
  489TIP3    H2 1432   3.293   0.529   1.545 -0.4261  2.2702 -0.9219
  490TIP3   OH2 1433   4.155   4.431   2.106 -0.6208 -0.2692  0.1329
  490TIP3    H1 1434   4.223   4.451   2.041  2.7534 -1.7242  2.8694
  490TIP3    H2 1435   4.131   4.517   2.142  0.6649  0.2417 -0.1530
  491TIP3   OH2 1436   3.139   0.573   4.713 -0.1756 -0.0874  0.3952
  491TIP3    H1 1437   3.199   0.626   4.661 -2.1361 -0.6499 -2.7208
  491TIP3    H2 1438   3.177   0.485   4.712  0.1002  0.0289  0.4835
  492TIP3   OH2 1439   1.261   1.263   1.440  0.1587 -0.5603  0.1663
  492TIP3    H1 1440   1.305   1.179   1.454  0.9404 -0.3422 -0.8334
  492TIP3    H2 1441   1.170   1.239   1.424  0.7789 -1.5061 -2.5570
  493TIP3   OH2 1442   3.059   2.361   4.156 -0.1286 -0.0668  0.0789
  493TIP3    H1 1443   3.053   2.415   4.077 -0.0730  0.9420  0.7421
  493TIP3    H2 1444   2.981   2.305   4.153 -1.0314  1.1442  0.1388
  494TIP3   OH2 1445   2.332   1.324   1.298 -0.1254  0.2496 -0.2670
  494TIP3    H1 1446   2.294   1.248   1.342 -1.9006  3.0542  3.6237
  494TIP3    H2 1447   2.262   1.357   1.243 -0.5597  0.8580  0.6237
  495TIP3   OH2 1448   6.759   5.760   5.629  0.0720 -0.2195  0.1475
  495TIP3    H1 1449   6.851   5.782   5.614  0.0607  0.0713  0.4678
  495TIP3    H2 1450   6.710   5.833   5.590 -0.1119 -1.3545 -1.8137
  496TIP3   OH2 1451   5.029   0.182   2.022 -0.4390  0.1196  0.2703
  496TIP3    H1 1452   5.119   0.212   2.009 -0.4643 -0.0997 -0.4673
  496TIP3    H2 1453   5.037   0.110   2.084  0.2918 -1.9007 -2.0245
  497TIP3   OH2 1454   1.726   1.799   0.461 -0.0178  0.2849 -0.4495
  497TIP3    H1 1455   1.715   1.710   0.427 -0.5012  0.3706 -0.5175
  497TIP3    H2 1456   1.816   1.801   0.493 -0.1147 -0.3411 -0.1274
  498TIP3   OH2 1457   6.190   0.492   3.014 -0.5703 -0.2300 -0.3371
  498TIP3    H1 1458   6.240   0.555   2.962 -2.1674  0.7088 -0.8226
  498TIP3    H2 1459   6.121   0.462   2.955  0.4403 -2.8923 -0.2956
  499TIP3   OH2 1460   2.732   0.658   0.468  0.0797  0.2683 -0.4092
  499TIP3    H1 1461   2.749   0.567   0.494 -1.6557  0.0184  0.0047
  499TIP3    H2 1462   2.812   0.705   0.490  1.4868 -1.3686 -1.7892
  500TIP3   OH2 1463   6.522   4.988   3.506  0.6706  0.3371 -0.3038
  500TIP3    H1 1464   6.458   4.917   3.503 -0.1534  0.8621  2.2075
  500TIP3    H2 1465   6.484   5.056   3.451 -0.1028  0.0191 -0.1839
  501TIP3   OH2 1466   1.056   3.103   3.540  0.1275 -0.1547  0.1443
  501TIP3    H1 1467   1.138   3.106   3.589 -0.5314 -1.3842  1.4034
  501TIP3    H2 1468   1.037   3.195   3.520  1.5225  0.1962  0.2877
  502TIP3   OH2 1469   0.416   0.599   5.643  0.8493 -0.7012  0.0733
  502TIP3    H1 1470   0.326   0.565   5.643  0.7258 -0.4432 -1.1084
  502TIP3    H2 1471   0.419   0.657   5.719 -0.0387 -0.5941  0.0474
  503TIP3   OH2 1472   4.733   1.802   2.042 -0.0445  0.3669 -0.0912
  503TIP3    H1 1473   4.672   1.811   2.114 -1.1452  2.6222 -1.2053
  503TIP3    H2 1474   4.820   1.801   2.083 -0.5360  3.3100  1.2396
  504TIP3   OH2 1475   1.419   5.933   1.731  0.2251  0.1862  0.0361
  504TIP3    H1 1476   1.410   5.877   1.654  0.9364 -0.2180  0.2361
  504TIP3    H2 1477   1.448   5.873   1.801  1.7810  0.9091  0.0614
  505TIP3   OH2 1478   6.409   2.717   0.229  0.5562  0.4308  0.3249
  505TIP3    H1 1479   6.380   2.802   0.197  2.7108  1.6672  1.4230
  505TIP3    H2 1480   6.376   2.712   0.318 -0.6913 -0.5182 -0.1653
  506TIP3   OH2 1481   6.345   6.295   2.486  0.0907 -0.1649 -0.0764
  506TIP3    H1 1482   6.309   6.227   2.428  1.4945 -0.9658 -0.0481
  506TIP3    H2 1483   6.387   6.247   2.557  2.4000  0.6116 -0.7972
  507TIP3   OH2 1484   4.703   3.579   2.962 -0.3638  0.1742  0.1841
  507TIP3    H1 1485   4.705   3.671   2.936  0.2469 -0.1613 -1.0569
  507TIP3    H2 1486   4.667   3.534   2.886  1.1528 -0.8250  0.0292
  508TIP3   OH2 1487   5.795   0.825   4.105  0.4577 -0.2109 -0.3409
  508TIP3    H1 1488   5.862   0.890   4.086  1.3163 -0.6104  1.1119
  508TIP3    H2 1489   5.833   0.742   4.077  0.6837 -0.4670  0.6800
  509TIP3   OH2 1490   4.848   2.654   1.290 -0.0223  0.0931 -0.1076
  509TIP3    H1 1491   4.834   2.583   1.352 -0.9035  0.2670 -0.0946
  509TIP3    H2 1492   4.760   2.676   1.258  0.4179 -0.0945 -1.5376
  510TIP3   OH2 1493   1.718   6.791   1.770 -1.3225  0.2640  0.2778
  510TIP3    H1 1494   1.738   6.760   1.682 -0.4872  0.8356  0.2527
  510TIP3    H2 1495   1.659   6.725   1.806  0.1593 -1.1951  0.1194
  511TIP3   OH2 1496   3.289   5.901   2.477  0.0498 -0.1951 -0.3779
  511TIP3    H1 1497   3.303   5.993   2.499 -0.2098  0.0798 -1.2997
  511TIP3    H2 1498   3.197   5.895   2.452  0.5742 -0.1985 -2.5346
  512TIP3   OH2 1499   1.195   6.579   5.144 -1.0755 -0.2677  0.0013
  512TIP3    H1 1500   1.107   6.558   5.176 -2.0482  2.8553 -0.2566
  512TIP3    H2 1501   1.186   6.578   5.048 -0.2173 -2.0228 -0.0879
  513TIP3   OH2 1502   2.640   3.666   2.655 -0.1188 -0.3277  0.0064
  513TIP3    H1 1503   2.577   3.736   2.670 -0.3547 -0.2964 -1.0414
  513TIP3    H2 1504   2.642   3.617   2.738 -0.8161  0.2229  0.3593
  514TIP3   OH2 1505   1.948   6.257   5.246 -0.3769  0.1719 -0.2538
  514TIP3    H1 1506   1.962   6.166   5.219  0.8612  0.3326 -0.2299
  514TIP3    H2 1507   1.863   6.256   5.291 -0.1241 -1.0998  0.2503
  515TIP3   OH2 1508   1.683   4.497   5.545 -0.7264 -0.0922 -0.0949
  515TIP3    H1 1509   1.702   4.532   5.633 -0.7452  0.5495 -0.3376
  515TIP3    H2 1510   1.748   4.429   5.531 -1.5381 -1.1363  0.9546
  516TIP3   OH2 1511   5.526   6.505   4.367  0.1802 -0.4568  0.3101
  516TIP3    H1 1512   5.490   6.481   4.281  0.1345  1.8377 -0.3606
  516TIP3    H2 1513   5.450   6.536   4.416  0.4239 -0.5430  0.7439
  517TIP3   OH2 1514   3.281   0.904   3.704 -0.1423  0.2525 -0.1842
  517TIP3    H1 1515   3.215   0.836   3.691 -2.3131  2.3756 -1.0071
  517TIP3    H2 1516   3.319   0.918   3.618  1.6873 -1.1377  0.3308
  518TIP3   OH2 1517   0.986   4.910   2.777 -0.0099  0.1198 -0.7579
  518TIP3    H1 1518   0.973   4.994   2.821  0.0272  0.4952 -1.4488
  518TIP3    H2 1519   0.898   4.879   2.757 -0.0516 -0.3056  0.0261
  519TIP3   OH2 1520   6.322   6.068   3.521 -0.0853 -0.2240  0.2044
  519TIP3    H1 1521   6.331   6.092   3.614 -0.5329 -0.7948  0.4046
  519TIP3    H2 1522   6.411   6.070   3.487  0.0980 -0.1165  0.6786
  520TIP3   OH2 1523   6.219   4.439   5.839  0.2101 -0.3462  0.1533
  520TIP3    H1 1524   6.244   4.480   5.922  1.3205 -0.4111 -0.1289
  520TIP3    H2 1525   6.303   4.420   5.796 -0.2708 -2.3687  0.0083
  521TIP3   OH2 1526   1.851   0.197   3.225 -0.0745  0.0285 -0.8413
  521TIP3    H1 1527   1.918   0.219   3.291 -0.9130  0.5670 -0.1442
  521TIP3    H2 1528   1.783   0.151   3.275 -0.0709 -0.8332 -1.6065
  522TIP3   OH2 1529   4.270   1.837   1.585 -0.4357  0.3225  0.1788
  522TIP3    H1 1530   4.365   1.844   1.594 -0.2927 -1.7945  0.7546
  522TIP3    H2 1531   4.234   1.870   1.667 -0.2448  1.6212 -0.2461
  523TIP3   OH2 1532   5.532   2.881   3.911 -0.7536 -0.0928  0.2259
  523TIP3    H1 1533   5.627   2.881   3.897 -0.7630  0.7726  0.1208
  523TIP3    H2 1534   5.522   2.868   4.005 -0.4745  1.2831  0.4688
  524TIP3   OH2 1535   5.087   0.849   0.504  0.0862  0.7260  0.3635
  524TIP3    H1 1536   5.172   0.863   0.546 -0.5926  2.1916  1.3728
  524TIP3    H2 1537   5.061   0.761   0.530  0.7201  0.7574  1.1313
  525TIP3   OH2 1538   3.629   3.391   3.928 -0.2785 -0.3052  0.4729
  525TIP3    H1 1539   3.584   3.380   4.012 -1.0143  0.2868  0.1709
  525TIP3    H2 1540   3.660   3.482   3.930  1.9396 -1.0260  1.1517
  526TIP3   OH2 1541   1.718   0.625   4.871 -0.5624 -0.4098  0.1371
  526TIP3    H1 1542   1.789   0.561   4.870 -0.8973 -0.7999  0.6926
  526TIP3    H2 1543   1.745   0.692   4.807  1.0361  0.2546  1.4407
  527TIP3   OH2 1544   6.247   6.447   1.425  0.4190 -0.1391 -0.2665
  527TIP3    H1 1545   6.210   6.362   1.400  0.8889 -0.6377  0.6617
  527TIP3    H2 1546   6.196   6.511   1.377  0.1349 -0.9587 -1.0841
  528TIP3   OH2 1547   5.036   5.685   2.622 -0.3569  0.6201  0.8045
  528TIP3    H1 1548   4.988   5.768   2.613 -0.4553  0.6739  1.7728
  528TIP3    H2 1549   5.066   5.684   2.713  2.3129  1.0244  0.0231
  529TIP3   OH2 1550   4.783   1.830   0.616 -0.1989 -0.7097 -0.5989
  529TIP3    H1 1551   4.701   1.874   0.640  1.4776  2.3253  0.1719
  529TIP3    H2 1552   4.759   1.770   0.546 -2.9458  0.6876 -0.9980
  530TIP3   OH2 1553   4.600   5.306   4.518  0.3502 -0.4291 -0.1628
  530TIP3    H1 1554   4.578   5.250   4.593 -0.2550  1.4198  1.1098
  530TIP3    H2 1555   4.690   5.334   4.535  0.1408  0.1557 -0.0018
  531TIP3   OH2 1556   1.985   0.237   1.631  0.1441  1.0791  0.0631
  531TIP3    H1 1557   2.005   0.254   1.539  0.8523  0.5016  0.1005
  531TIP3    H2 1558   1.889   0.236   1.635  0.1001  2.0352 -0.4861
  532TIP3   OH2 1559   3.041   2.011   0.827  0.1112  0.6320 -0.2561
  532TIP3    H1 1560   2.972   2.004   0.893  1.3469  1.0711  1.1048
  532TIP3    H2 1561   3.044   2.104   0.804  2.8433  1.3997  2.6238
  533TIP3   OH2 1562   1.664   3.347   4.222 -0.7041 -0.1457 -0.5000
  533TIP3    H1 1563   1.642   3.375   4.311 -1.2340 -0.0695 -0.6550
  533TIP3    H2 1564   1.582   3.352   4.174 -0.9617 -2.5037 -0.4159
  534TIP3   OH2 1565   1.958   6.538   5.722  0.3288 -0.3674  0.1034
  534TIP3    H1 1566   1.883   6.556   5.666 -0.2466 -0.9025  0.6900
  534TIP3    H2 1567   2.010   6.474   5.673  0.4201  0.0311 -0.3177
  535TIP3   OH2 1568   6.502   0.117   5.599  0.3431 -0.2557  0.2899
  535TIP3    H1 1569   6.548   0.180   5.544  2.9639 -3.8668 -2.0954
  535TIP3    H2 1570   6.424   0.094   5.549  0.3626 -0.2442  0.2546
  536TIP3   OH2 1571   4.217   2.900   2.585 -0.1332  0.4875  0.0687
  536TIP3    H1 1572   4.265   2.837   2.532 -0.3621  0.6520 -0.3425
  536TIP3    H2 1573   4.174   2.848   2.652  0.5313  0.3265  0.3784
  537TIP3   OH2 1574   4.070   3.340   5.740  0.1250 -0.2228  0.0361
  537TIP3    H1 1575   4.124   3.263   5.752 -0.3353 -0.8092 -1.4277
  537TIP3    H2 1576   4.002   3.312   5.679 -0.8161  0.9775  0.5004
  538TIP3   OH2 1577   1.330   4.598   1.056 -0.3418  0.1887 -0.6200
  538TIP3    H1 1578   1.275   4.565   0.985 -2.0613 -0.7883  1.0624
  538TIP3    H2 1579   1.281   4.672   1.092 -0.1021 -0.0895  0.3016
  539TIP3   OH2 1580   1.800   6.292   3.554 -0.0282 -0.4183 -0.3676
  539TIP3    H1 1581   1.788   6.217   3.612  1.2278 -1.0638 -0.9044
  539TIP3    H2 1582   1.806   6.254   3.466 -0.3683  0.4075 -0.7652
  540TIP3   OH2 1583   4.285   4.148   5.191 -0.2683 -0.0361  0.0660
  540TIP3    H1 1584   4.277   4.133   5.097  0.6755 -0.6331  0.0653
  540TIP3    H2 1585   4.232   4.226   5.207 -0.4099  0.0982 -0.9655
  541TIP3   OH2 1586   3.045   3.130   1.342 -0.4225  0.2548  0.5986
  541TIP3    H1 1587   2.949   3.130   1.342 -0.4956 -0.8613 -1.7836
  541TIP3    H2 1588   3.069   3.038   1.348  0.3734  0.2572 -1.6955
  542TIP3   OH2 1589   6.906   5.129   0.453  0.2871  0.0980 -0.1358
  542TIP3    H1 1590   6.931   5.038   0.438  0.3022  0.2974 -1.4780
  542TIP3    H2 1591   6.985   5.179   0.430 -0.3849  0.5567 -1.5626
  543TIP3   OH2 1592   4.492   2.658   2.236  0.2037 -0.6257  0.3949
  543TIP3    H1 1593   4.525   2.568   2.245  1.9782  0.0801  1.2146
  543TIP3    H2 1594   4.420   2.663   2.299 -0.7738 -1.8263 -0.5632
  544TIP3   OH2 1595   0.072   2.376   0.662 -0.1754  0.2621  0.0646
  544TIP3    H1 1596   0.070   2.396   0.756 -0.1514  0.8901 -0.0594
  544TIP3    H2 1597   0.067   2.462   0.620  0.1668  0.0076 -0.5054
  545TIP3   OH2 1598   2.280   5.513   5.276 -0.3399  0.0364 -0.2458
  545TIP3    H1 1599   2.231   5.592   5.297  1.2729  0.7023  1.1748
  545TIP3    H2 1600   2.287   5.466   5.359  1.6595  0.1243 -0.3245
  546TIP3   OH2 1601   6.628   2.083   0.115 -0.5031  0.3711 -0.1363
  546TIP3    H1 1602   6.690   2.083   0.042 -0.1203  0.8940  0.1783
  546TIP3    H2 1603   6.624   1.992   0.143  0.5711  0.4111  0.1943
  547TIP3   OH2 1604   3.895   5.088   3.180  0.4956 -0.1734 -0.4930
  547TIP3    H1 1605   3.977   5.064   3.223 -0.7895 -0.7129  1.8064
  547TIP3    H2 1606   3.905   5.055   3.090  2.9580  0.2425 -0.4510
  548TIP3   OH2 1607   1.250   3.716   5.283  0.1927  0.1096  0.2399
  548TIP3    H1 1608   1.234   3.809   5.263  1.4866  0.2406 -0.2509
  548TIP3    H2 1609   1.316   3.717   5.352 -0.1593 -0.4494  0.5902
  549TIP3   OH2 1610   6.727   5.261   4.592 -0.0784  0.1458 -0.5694
  549TIP3    H1 1611   6.646   5.217   4.566  0.6419 -2.0942  0.6654
  549TIP3    H2 1612   6.794   5.226   4.533  0.3393  0.4330 -0.2730
  550TIP3   OH2 1613   3.117   4.548   0.832  0.3815  0.3174 -0.5515
  550TIP3    H1 1614   3.084   4.458   0.822  0.5857 -0.0098  1.2803
  550TIP3    H2 1615   3.179   4.542   0.905  0.0261  2.0355 -0.0748
  551TIP3   OH2 1616   1.820   4.246   2.723 -0.6020  0.0023 -0.3157
  551TIP3    H1 1617   1.867   4.325   2.751  0.6260 -0.2044 -1.6779
  551TIP3    H2 1618   1.767   4.275   2.649 -1.3481 -0.1377  0.1531
  552TIP3   OH2 1619   3.088   5.473   4.311 -0.1753  0.3446  0.6192
  552TIP3    H1 1620   3.119   5.451   4.399  0.3375  0.7555  0.5445
  552TIP3    H2 1621   3.099   5.568   4.305 -2.0032  0.6018  0.8090
  553TIP3   OH2 1622   0.377   2.084   1.648  0.4462  0.6818  0.8891
  553TIP3    H1 1623   0.466   2.114   1.632  1.2014 -0.5993  2.4036
  553TIP3    H2 1624   0.387   1.997   1.685 -1.4475  0.4551  0.9812
  554TIP3   OH2 1625   1.096   0.124   1.195  0.1628 -0.0466 -0.3771
  554TIP3    H1 1626   1.121   0.038   1.161  0.3558  0.4706 -1.6075
  554TIP3    H2 1627   1.107   0.183   1.120  0.5802  1.1495  0.6008
  555TIP3   OH2 1628   1.265   1.691   4.294 -0.4158  0.2229 -0.0783
  555TIP3    H1 1629   1.309   1.775   4.293  0.7206 -0.2868  1.9737
  555TIP3    H2 1630   1.210   1.693   4.372  0.0122 -1.1167  0.2854
  556TIP3   OH2 1631   1.654   2.405   1.388  0.5148  0.1394 -0.3111
  556TIP3    H1 1632   1.683   2.434   1.474 -0.1049  1.8131 -0.6137
  556TIP3    H2 1633   1.735   2.389   1.339  0.8680 -0.7840  0.5553
  557TIP3   OH2 1634   3.788   2.869   1.880  0.1987  0.3127  0.0867
  557TIP3    H1 1635   3.803   2.962   1.898  1.3292 -0.2005  2.1323
  557TIP3    H2 1636   3.871   2.837   1.847  0.2827 -0.2628  0.8221
  558TIP3   OH2 1637   1.122   6.004   2.931 -0.1897 -0.2074  0.6626
  558TIP3    H1 1638   1.038   6.048   2.919 -0.3368 -0.4797  0.6872
  558TIP3    H2 1639   1.170   6.021   2.850 -0.1215  0.2664  0.8007
  559TIP3   OH2 1640   6.429   1.636   4.865  0.1055  0.1051 -0.2811
  559TIP3    H1 1641   6.412   1.604   4.777  0.6160  0.3801 -0.4829
  559TIP3    H2 1642   6.453   1.557   4.915  0.7092  0.0645 -0.6152
  560TIP3   OH2 1643   4.612   3.739   4.678 -0.4378  0.1425 -0.3791
  560TIP3    H1 1644   4.699   3.707   4.703 -1.2744 -1.5199  0.5313
  560TIP3    H2 1645   4.595   3.696   4.594 -1.3526 -1.4751  0.6012
  561TIP3   OH2 1646   3.574   6.750   3.743  0.3365 -0.0695 -0.1730
  561TIP3    H1 1647   3.508   6.708   3.687  0.6373 -0.1917 -0.4390
  561TIP3    H2 1648   3.545   6.732   3.832  0.3157 -0.6041 -0.2857
  562TIP3   OH2 1649   0.399   3.333   5.587 -0.4131  0.5630  0.3499
  562TIP3    H1 1650   0.321   3.312   5.639  0.4058 -2.0381  0.6789
  562TIP3    H2 1651   0.378   3.301   5.499  0.6196 -1.1844  0.6914
  563TIP3   OH2 1652   3.936   4.797   1.104  0.2229 -0.7579 -0.7892
  563TIP3    H1 1653   3.907   4.797   1.195  1.4652  2.0486 -0.2786
  563TIP3    H2 1654   4.026   4.762   1.107  0.2474 -0.7092 -0.9513
  564TIP3   OH2 1655   2.031   5.847   0.293  0.0724  0.0767  0.0262
  564TIP3    H1 1656   2.104   5.825   0.236 -0.4202  0.5773 -0.8105
  564TIP3    H2 1657   1.966   5.887   0.236 -0.2763  0.9495  0.9960
  565TIP3   OH2 1658   4.051   3.721   5.250  0.0026  0.1925  0.2653
  565TIP3    H1 1659   4.032   3.635   5.286  1.0339 -0.6474 -1.1050
  565TIP3    H2 1660   3.977   3.740   5.192  0.5416 -0.5386 -0.6966
  566TIP3   OH2 1661   2.237   0.445   3.498 -0.0525 -0.2802 -0.0298
  566TIP3    H1 1662   2.312   0.459   3.556  0.5220 -0.2560 -0.7523
  566TIP3    H2 1663   2.183   0.523   3.509  1.4308  1.0624 -1.5172
  567TIP3   OH2 1664   0.386   5.292   2.872 -0.6670 -0.5800 -0.4700
  567TIP3    H1 1665   0.364   5.206   2.910 -1.5862  0.7266  2.2236
  567TIP3    H2 1666   0.482   5.294   2.873 -0.6463 -1.2032  0.4369
  568TIP3   OH2 1667   2.714   2.169   2.990 -0.2304  0.1921  0.1209
  568TIP3    H1 1668   2.701   2.240   3.053 -0.2019  0.3561 -0.0584
  568TIP3    H2 1669   2.743   2.212   2.910  0.0858 -0.0483  0.1015
  569TIP3   OH2 1670   2.270   1.371   5.713 -0.0417  0.0029  0.2519
  569TIP3    H1 1671   2.310   1.368   5.800 -0.5768 -0.5229  0.4860
  569TIP3    H2 1672   2.176   1.364   5.729 -0.1689  0.2148 -0.3544
  570TIP3   OH2 1673   5.126   4.918   5.839 -0.1986  0.4772  0.1683
  570TIP3    H1 1674   5.190   4.864   5.793 -1.1631  0.1708 -0.8455
  570TIP3    H2 1675   5.093   4.862   5.909 -0.5271  0.0837 -0.3053
  571TIP3   OH2 1676   4.412   3.625   1.802 -0.6762  0.3317 -0.1248
  571TIP3    H1 1677   4.433   3.660   1.716 -0.7932  1.5956  0.3291
  571TIP3    H2 1678   4.477   3.664   1.861 -1.2336  0.3290  0.5133
  572TIP3   OH2 1679   6.009   0.710   1.902  0.4149 -0.6886 -0.3053
  572TIP3    H1 1680   6.080   0.646   1.906 -0.3759 -1.5399  0.4269
  572TIP3    H2 1681   5.994   0.724   1.808  0.2706 -1.9448 -0.4789
  573TIP3   OH2 1682   5.734   0.414   4.106  0.5475  0.7232 -0.0308
  573TIP3    H1 1683   5.823   0.401   4.072  0.3921 -1.8872  0.3003
  573TIP3    H2 1684   5.681   0.354   4.053 -0.5432  0.2794  1.5213
  574TIP3   OH2 1685   2.767   5.367   1.043 -0.5743 -0.3202  0.3480
  574TIP3    H1 1686   2.810   5.449   1.022  0.2112 -0.8432 -0.1163
  574TIP3    H2 1687   2.695   5.361   0.980  0.3221 -0.7313 -0.6663
  575TIP3   OH2 1688   5.659   5.111   2.380 -0.3703 -0.2598  0.2699
  575TIP3    H1 1689   5.636   5.071   2.296 -0.0983 -0.8953  0.4928
  575TIP3    H2 1690   5.749   5.081   2.396 -0.6584 -0.7041  1.1131
  576TIP3   OH2 1691   1.139   2.250   4.017  0.0412 -0.6562  0.0592
  576TIP3    H1 1692   1.107   2.317   4.077 -0.5165  0.5662 -1.5284
  576TIP3    H2 1693   1.207   2.204   4.066 -0.7371 -0.0625  1.7861
  577TIP3   OH2 1694   6.832   0.593   0.253 -0.1988 -0.4193 -0.1991
  577TIP3    H1 1695   6.817   0.661   0.319  1.3255  1.5187 -1.7089
  577TIP3    H2 1696   6.788   0.515   0.287  0.1170  0.6217  2.8404
  578TIP3   OH2 1697   5.656   6.047   5.733 -0.0724  0.3427  0.2744
  578TIP3    H1 1698   5.613   6.017   5.653  1.3015 -0.0150 -0.3582
  578TIP3    H2 1699   5.627   6.138   5.742 -1.4110 -0.0602  0.2037
  579TIP3   OH2 1700   5.208   2.464   5.400  0.2891  0.0540 -0.2107
  579TIP3    H1 1701   5.251   2.464   5.486 -1.1714  0.1499  0.5522
  579TIP3    H2 1702   5.172   2.376   5.392  0.3867  0.0609 -0.7212
  580TIP3   OH2 1703   6.600   1.987   3.848 -0.7278  0.5353  0.0969
  580TIP3    H1 1704   6.537   1.926   3.886  0.9685 -0.7131  1.0317
  580TIP3    H2 1705   6.563   2.009   3.762 -2.1694 -0.5494  0.4040
  581TIP3   OH2 1706   0.121   0.575   0.350 -0.2310 -0.2487  0.2880
  581TIP3    H1 1707   0.063   0.639   0.307 -0.2323 -0.6718 -0.3440
  581TIP3    H2 1708   0.111   0.495   0.299 -0.1384 -0.7276  1.0100
  582TIP3   OH2 1709   4.276   2.899   2.920 -0.0109  0.0483  0.1038
  582TIP3    H1 1710   4.207   2.899   2.854  0.7453  1.6073 -0.7569
  582TIP3    H2 1711   4.229   2.900   3.003 -0.9779 -2.0286 -0.3616
  583TIP3   OH2 1712   1.423   5.530   3.550  0.3655 -0.1096  0.9195
  583TIP3    H1 1713   1.461   5.618   3.542 -0.5733  0.3018  0.7818
  583TIP3    H2 1714   1.360   5.525   3.478  0.2600 -0.8234  1.0574
  584TIP3   OH2 1715   6.254   4.264   4.288  0.2765  0.1361 -0.1037
  584TIP3    H1 1716   6.271   4.345   4.335  1.5919 -0.1112 -0.1077
  584TIP3    H2 1717   6.227   4.292   4.201 -2.3569  0.6044  0.7650
  585TIP3   OH2 1718   1.271   5.509   0.529 -0.0443  0.3197 -0.0449
  585TIP3    H1 1719   1.309   5.421   0.532  2.5953  1.3464 -0.5084
  585TIP3    H2 1720   1.190   5.498   0.478  0.0650 -1.8648  0.1348
  586TIP3   OH2 1721   1.345   0.954   4.598  0.1653 -0.1632 -0.1625
  586TIP3    H1 1722   1.296   1.017   4.545  2.8711  3.1373  0.9156
  586TIP3    H2 1723   1.415   0.924   4.540 -0.1170 -0.8802 -0.1361
  587TIP3   OH2 1724   0.307   2.329   1.927 -0.4374  0.4366  0.0920
  587TIP3    H1 1725   0.393   2.365   1.947  0.3147 -2.0840  1.9051
  587TIP3    H2 1726   0.290   2.266   1.997 -4.4962  1.8920  0.6810
  588TIP3   OH2 1727   6.913   0.936   0.316  0.2565 -0.4963 -0.1697
  588TIP3    H1 1728   6.983   0.951   0.253 -0.5889  0.2631 -0.9631
  588TIP3    H2 1729   6.872   1.021   0.328 -0.9430 -1.0371 -0.2398
  589TIP3   OH2 1730   0.192   0.505   3.583  0.0658  0.2124  0.1203
  589TIP3    H1 1731   0.282   0.537   3.588  1.3082 -3.0723  1.1457
  589TIP3    H2 1732   0.195   0.432   3.521 -1.8977 -0.0213  0.2175
  590TIP3   OH2 1733   2.874   6.537   0.553  0.1079  0.0572  0.4899
  590TIP3    H1 1734   2.850   6.446   0.570 -1.9658  0.6883  1.2981
  590TIP3    H2 1735   2.874   6.578   0.640  1.7069  0.7125  0.2185
  591TIP3   OH2 1736   1.159   0.158   5.710 -0.1935 -0.1597  0.0308
  591TIP3    H1 1737   1.170   0.188   5.800  1.9297  1.5286 -0.7300
  591TIP3    H2 1738   1.137   0.237   5.661 -0.7776 -0.9663 -1.0426
  592TIP3   OH2 1739   4.622   3.887   4.319 -0.4660  0.1870  0.3092
  592TIP3    H1 1740   4.540   3.920   4.355 -0.1628  0.6117  0.6169
  592TIP3    H2 1741   4.679   3.964   4.313 -0.1494 -0.0670 -0.0743
  593TIP3   OH2 1742   5.159   3.496   1.484 -0.2758  0.3449 -0.7567
  593TIP3    H1 1743   5.106   3.419   1.503 -0.9873  1.1213  0.5117
  593TIP3    H2 1744   5.212   3.509   1.563  0.5511  0.5887 -1.3393
  594TIP3   OH2 1745   4.428   5.512   0.482  0.7104  0.9625 -0.2514
  594TIP3    H1 1746   4.335   5.512   0.505  0.5275 -0.4332 -0.8638
  594TIP3    H2 1747   4.429   5.491   0.388  1.6444  0.8403 -0.2212
  595TIP3   OH2 1748   0.636   3.967   2.054  0.5545  0.3790 -0.1684
  595TIP3    H1 1749   0.637   4.056   2.020  0.7558  0.0842 -0.9523
  595TIP3    H2 1750   0.549   3.956   2.093  0.3285  0.7278 -0.5746
  596TIP3   OH2 1751   2.550   2.809   3.717 -0.8922  0.0352 -0.1939
  596TIP3    H1 1752   2.618   2.876   3.724 -1.1006  0.1142  1.4429
  596TIP3    H2 1753   2.468   2.857   3.719 -1.0200 -0.1311 -1.1613
  597TIP3   OH2 1754   1.795   0.579   4.230 -0.0232  0.1779 -0.4065
  597TIP3    H1 1755   1.862   0.594   4.163  1.2313 -0.5866  0.6277
  597TIP3    H2 1756   1.778   0.485   4.226 -0.9463  0.3434 -0.5539
  598TIP3   OH2 1757   5.527   5.631   0.900  0.3152  0.1680  0.0878
  598TIP3    H1 1758   5.559   5.721   0.891 -1.3451  0.8434  0.4988
  598TIP3    H2 1759   5.454   5.626   0.838  0.7586 -1.1034 -0.3546
  599TIP3   OH2 1760   1.232   6.271   3.899  0.3600 -0.5472  0.2648
  599TIP3    H1 1761   1.136   6.263   3.903  0.4496 -2.5578 -0.2864
  599TIP3    H2 1762   1.249   6.363   3.916 -1.7715  0.1747 -1.1398
  600TIP3   OH2 1763   0.290   4.834   0.041 -0.6119 -0.1056  0.0431
  600TIP3    H1 1764   0.228   4.855  -0.028  0.9690  1.1799 -1.0586
  600TIP3    H2 1765   0.363   4.791  -0.004  0.6751  1.2145  0.7905
  601TIP3   OH2 1766   4.141   2.690   2.046  0.8149  0.3627 -0.0494
  601TIP3    H1 1767   4.088   2.757   2.087  1.6699  0.9080  0.1935
  601TIP3    H2 1768   4.105   2.681   1.958 -0.0703  0.2653  0.3153
  602TIP3   OH2 1769   1.260   3.967   0.274  0.0478  0.3420 -0.1728
  602TIP3    H1 1770   1.182   3.915   0.290 -0.2757  0.6177 -0.8069
  602TIP3    H2 1771   1.289   3.995   0.361 -0.3142 -0.1130  0.0981
  603TIP3   OH2 1772   4.478   1.004   0.634  0.0723  0.1208  0.1907
  603TIP3    H1 1773   4.542   1.074   0.643  0.1087  0.0533  0.4471
  603TIP3    H2 1774   4.500   0.941   0.703 -2.0117  1.4360  2.1902
  604TIP3   OH2 1775   4.770   1.517   4.614 -0.2387  0.4534  0.1428
  604TIP3    H1 1776   4.842   1.538   4.675 -0.2053  1.7776 -0.3282
  604TIP3    H2 1777   4.702   1.479   4.670  1.0355 -1.4261  0.5123
  605TIP3   OH2 1778   2.202   4.332   1.414  0.4029 -0.6114 -0.4474
  605TIP3    H1 1779   2.109   4.315   1.426 -0.1800  2.6284  0.4961
  605TIP3    H2 1780   2.205   4.418   1.372  2.9846 -0.6232 -0.4341
  606TIP3   OH2 1781   6.944   3.428   2.853 -0.0457  0.4111  0.3217
  606TIP3    H1 1782   6.937   3.417   2.948 -1.0803 -0.4079  0.1755
  606TIP3    H2 1783   6.853   3.442   2.824  0.1950  0.1505 -0.5905
  607TIP3   OH2 1784   6.137   4.090   2.491  0.0228  0.3223  0.1116
  607TIP3    H1 1785   6.061   4.063   2.440  1.2711  0.2807 -1.8225
  607TIP3    H2 1786   6.142   4.026   2.563 -0.4328 -1.1115 -1.0727
  608TIP3   OH2 1787   2.476   1.586   0.744  0.2547 -0.3810  0.4271
  608TIP3    H1 1788   2.461   1.619   0.833 -0.3785 -1.6969  0.8190
  608TIP3    H2 1789   2.527   1.506   0.756  1.0597 -0.0240 -0.4706
  609TIP3   OH2 1790   5.696   0.658   3.883  0.6641  0.3188  0.2085
  609TIP3    H1 1791   5.722   0.638   3.793  1.5964  1.4349  0.2023
  609TIP3    H2 1792   5.767   0.621   3.936  0.7425  0.7200  0.3911
  610TIP3   OH2 1793   3.102   2.089   5.608 -0.3723 -0.4080 -0.0017
  610TIP3    H1 1794   3.194   2.104   5.631 -0.1270 -1.2074 -0.4300
  610TIP3    H2 1795   3.091   1.994   5.613 -1.0985 -0.3425 -0.2406
  611TIP3   OH2 1796   4.578   2.849   4.828  0.8711  0.2350 -0.4299
  611TIP3    H1 1797   4.588   2.940   4.800 -0.9636  0.3319 -0.9021
  611TIP3    H2 1798   4.517   2.853   4.902  1.6243 -0.5280  0.2608
  612TIP3   OH2 1799   4.851   3.651   2.102  0.4031  0.3831 -0.6377
  612TIP3    H1 1800   4.832   3.571   2.151  0.3944  0.2880 -0.7923
  612TIP3    H2 1801   4.946   3.661   2.107  0.2799  1.1563  0.5958
  613TIP3   OH2 1802   5.513   4.174   2.644 -0.0316  0.5119  0.1310
  613TIP3    H1 1803   5.582   4.239   2.656  1.0296 -0.4955 -0.3258
  613TIP3    H2 1804   5.532   4.107   2.709 -1.1145  0.6270  0.5942
  614TIP3   OH2 1805   0.951   3.346   3.123 -0.1093  1.0474 -0.3595
  614TIP3    H1 1806   0.872   3.326   3.173  0.9555  1.7603  1.7526
  614TIP3    H2 1807   1.007   3.269   3.134  0.2079  1.2860 -0.2849
  615TIP3   OH2 1808   5.582   6.308   5.744  0.0211  0.2634 -0.7019
  615TIP3    H1 1809   5.498   6.339   5.779  0.5976  2.1226 -0.8485
  615TIP3    H2 1810   5.609   6.377   5.683  1.7330 -0.2393 -0.5448
  616TIP3   OH2 1811   3.887   6.096   1.864 -0.0880  0.6476 -0.1306
  616TIP3    H1 1812   3.850   6.068   1.780  0.8033  0.2695 -0.4032
  616TIP3    H2 1813   3.970   6.137   1.841  1.2497 -1.4138  0.7032
  617TIP3   OH2 1814   5.527   5.726   5.463 -0.3544 -0.0427 -0.1854
  617TIP3    H1 1815   5.473   5.753   5.389  0.7145 -0.7153 -1.2318
  617TIP3    H2 1816   5.609   5.773   5.453  0.1447 -0.8449  0.0549
  618TIP3   OH2 1817   2.558   2.444   0.898  0.1892 -0.0729 -0.4225
  618TIP3    H1 1818   2.550   2.539   0.902  2.4443  0.1237  2.0674
  618TIP3    H2 1819   2.509   2.419   0.819 -0.9905  3.0404 -0.8090
  619TIP3   OH2 1820   3.171   2.180   3.971 -0.2536 -0.2669 -0.1010
  619TIP3    H1 1821   3.230   2.245   4.008 -0.4462  0.1912 -0.5748
  619TIP3    H2 1822   3.134   2.135   4.046 -2.3816  2.1526  0.4487
  620TIP3   OH2 1823   5.857   5.233   3.449 -0.1020  0.5767  0.0765
  620TIP3    H1 1824   5.945   5.251   3.417 -0.0011  1.0416  0.5959
  620TIP3    H2 1825   5.858   5.259   3.541 -0.5142 -0.3208  0.3488
  621TIP3   OH2 1826   0.060   1.747   2.668 -0.0688 -0.1180  0.0941
  621TIP3    H1 1827  -0.016   1.786   2.712 -0.1541  0.3423 -0.4461
  621TIP3    H2 1828   0.136   1.783   2.714 -0.0967  1.7250 -1.1610
  622TIP3   OH2 1829   5.075   6.329   3.841  0.5556  0.2837 -0.4293
  622TIP3    H1 1830   5.075   6.425   3.837 -0.5019  0.3378  0.5094
  622TIP3    H2 1831   5.029   6.302   3.762 -0.7358  0.6199  0.1914
  623TIP3   OH2 1832   6.527   6.174   3.255  0.6753  0.1355 -0.5467
  623TIP3    H1 1833   6.582   6.104   3.288  0.7645  0.2078 -0.5419
  623TIP3    H2 1834   6.586   6.249   3.246  0.1214  0.9128  1.6911
  624TIP3   OH2 1835   3.015   1.655   0.983 -0.5280  0.4763  0.1453
  624TIP3    H1 1836   3.059   1.577   0.948 -0.4177  0.4936  0.2448
  624TIP3    H2 1837   2.924   1.645   0.957 -0.7158 -0.1777  0.9954
  625TIP3   OH2 1838   1.752   1.146   3.921  0.1751  0.0821 -0.0409
  625TIP3    H1 1839   1.765   1.060   3.960 -0.1202  0.4454  0.8860
  625TIP3    H2 1840   1.719   1.200   3.992 -0.1121  0.8423 -0.7295
  626TIP3   OH2 1841   1.272   6.198   4.928  0.2922 -0.1347  0.5316
  626TIP3    H1 1842   1.191   6.207   4.878  0.9021 -0.1161 -0.4692
  626TIP3    H2 1843   1.303   6.288   4.941  0.9543 -0.2083 -0.4442
  627TIP3   OH2 1844   4.148   4.535   2.499  0.1273 -0.1624  0.3331
  627TIP3    H1 1845   4.176   4.590   2.572 -0.4924 -2.0130  2.0535
  627TIP3    H2 1846   4.102   4.595   2.440  0.9511  1.4492  1.2656
  628TIP3   OH2 1847   0.177   1.704   5.572 -0.1551  0.1866 -0.1320
  628TIP3    H1 1848   0.121   1.693   5.649 -0.6501  1.4347 -0.2914
  628TIP3    H2 1849   0.229   1.782   5.591  1.2847 -0.7207 -0.1639
  629TIP3   OH2 1850   0.110   4.183   1.713  0.4256 -0.1928 -0.9572
  629TIP3    H1 1851   0.014   4.178   1.715  0.4549 -0.6573 -0.4959
  629TIP3    H2 1852   0.133   4.168   1.622  0.1335 -1.7536 -0.8066
  630TIP3   OH2 1853   2.194   1.435   1.095  0.8527 -0.4291  0.1094
  630TIP3    H1 1854   2.143   1.410   1.019  0.1223 -1.7958  1.0088
  630TIP3    H2 1855   2.184   1.530   1.101  0.3542 -0.3959 -1.0809
  631TIP3   OH2 1856   6.073   2.648   3.880  0.1766  0.2214 -0.0613
  631TIP3    H1 1857   6.054   2.739   3.858  2.0413  0.8571  0.7786
  631TIP3    H2 1858   6.121   2.614   3.805 -0.3615 -0.0305 -0.2978
  632TIP3   OH2 1859   0.643   5.934   1.472 -0.0974 -0.2072  0.0560
  632TIP3    H1 1860   0.668   5.850   1.434  0.1691  0.5969 -1.6096
  632TIP3    H2 1861   0.558   5.954   1.434  0.5260  0.9844 -0.7629
  633TIP3   OH2 1862   2.478   3.279   5.756 -0.0077 -0.1147  0.1383
  633TIP3    H1 1863   2.494   3.186   5.769 -1.7987 -0.3352  1.0549
  633TIP3    H2 1864   2.517   3.299   5.671  0.3600 -1.7061 -0.0821
  634TIP3   OH2 1865   3.912   3.787   4.644  0.0654 -0.2493 -0.3244
  634TIP3    H1 1866   3.846   3.852   4.667  1.2425  0.3091  1.8261
  634TIP3    H2 1867   3.936   3.748   4.728  2.3360 -0.5178 -1.0323
  635TIP3   OH2 1868   2.532   1.321   0.072  0.6008  0.2911 -0.0186
  635TIP3    H1 1869   2.496   1.405   0.103  0.6726  0.0685  0.6964
  635TIP3    H2 1870   2.570   1.282   0.151  1.3659 -0.0077 -0.5328
  636TIP3   OH2 1871   3.085   6.486   1.639 -0.2603  0.3484  0.0184
  636TIP3    H1 1872   3.090   6.405   1.588 -0.8060 -0.3341  0.9987
  636TIP3    H2 1873   3.006   6.475   1.693 -0.9149  1.9801 -0.5471
  637TIP3   OH2 1874   4.467   5.615   1.321  0.3562  0.1779  0.0231
  637TIP3    H1 1875   4.551   5.585   1.358  0.7134 -0.9337 -1.5829
  637TIP3    H2 1876   4.445   5.692   1.373  1.6566 -0.3299  1.4246
  638TIP3   OH2 1877   3.423   4.350   3.588  0.1103 -0.8795  0.4502
  638TIP3    H1 1878   3.491   4.401   3.631  0.0753 -0.2882 -0.1742
  638TIP3    H2 1879   3.354   4.341   3.654 -0.9055  1.8662 -0.0911
  639TIP3   OH2 1880   3.899   5.306   5.346 -0.1346  0.4206  0.4924
  639TIP3    H1 1881   3.804   5.317   5.357 -0.6061 -1.7601 -0.7308
  639TIP3    H2 1882   3.937   5.362   5.413 -2.3202  0.3930  1.8780
  640TIP3   OH2 1883   5.293   4.923   5.541  0.2022 -0.0002 -0.4533
  640TIP3    H1 1884   5.387   4.933   5.529  0.0579 -0.0390 -1.8883
  640TIP3    H2 1885   5.273   4.838   5.500 -0.4931  0.1730 -0.4846
  641TIP3   OH2 1886   2.401   6.383   2.856 -0.4445 -0.4429  0.0370
  641TIP3    H1 1887   2.331   6.422   2.907 -0.1967  0.1306 -0.0540
  641TIP3    H2 1888   2.449   6.329   2.919 -0.6553 -0.4265  0.2121
  642TIP3   OH2 1889   4.651   1.123   4.959  0.1910  0.0374 -0.4049
  642TIP3    H1 1890   4.564   1.084   4.949 -0.4866  0.8449  1.9052
  642TIP3    H2 1891   4.698   1.062   5.015  0.8466  0.0634 -0.9061
  643TIP3   OH2 1892   4.979   2.627   3.238  0.0031 -0.5064  0.4826
  643TIP3    H1 1893   5.044   2.566   3.204  0.3302 -1.0448  1.9837
  643TIP3    H2 1894   5.029   2.692   3.287 -0.4621  0.1153  0.1478
  644TIP3   OH2 1895   2.919   2.647   1.197  0.3019  0.5342  0.0459
  644TIP3    H1 1896   2.860   2.575   1.173  0.4873  0.4970 -0.3015
  644TIP3    H2 1897   2.876   2.725   1.164  0.2647  0.5474  0.1252
  645TIP3   OH2 1898   2.411   5.207   4.770 -0.7329 -0.1378 -0.1589
  645TIP3    H1 1899   2.366   5.123   4.759 -0.6931 -0.0088 -1.4727
  645TIP3    H2 1900   2.351   5.272   4.731  0.7520 -0.0338 -2.4891
  646TIP3   OH2 1901   3.707   2.666   1.633 -0.3040 -0.3701 -0.6703
  646TIP3    H1 1902   3.777   2.731   1.622 -0.0706 -0.6347 -0.7485
  646TIP3    H2 1903   3.631   2.718   1.662  0.0117 -0.1243 -0.2682
  647TIP3   OH2 1904   3.253   0.962   1.264  0.0769 -0.2859 -0.0466
  647TIP3    H1 1905   3.319   0.905   1.304 -0.9002 -0.9592  0.6568
  647TIP3    H2 1906   3.279   1.050   1.292  0.8447 -0.5031 -0.0349
  648TIP3   OH2 1907   3.966   1.785   2.064 -0.0080  0.6304 -0.2770
  648TIP3    H1 1908   4.057   1.762   2.044 -0.1428  0.1366 -0.3406
  648TIP3    H2 1909   3.914   1.725   2.010 -0.3745  1.4690 -0.8726
  649TIP3   OH2 1910   3.473   5.604   3.513  0.0292  0.3424  0.7054
  649TIP3    H1 1911   3.502   5.680   3.463  2.2182 -0.5281  0.5369
  649TIP3    H2 1912   3.442   5.641   3.596  2.2715  1.4029  1.1575
  650TIP3   OH2 1913   2.941   1.710   5.844 -0.1156  0.5243  0.3908
  650TIP3    H1 1914   2.865   1.652   5.848 -0.5298  1.0823  0.6403
  650TIP3    H2 1915   2.995   1.682   5.918 -0.4456  0.6343  0.6772
  651TIP3   OH2 1916   1.967   2.403   3.296 -0.1400 -0.8541 -0.1935
  651TIP3    H1 1917   2.013   2.332   3.341  0.2840 -0.5363 -0.1208
  651TIP3    H2 1918   2.024   2.426   3.223 -0.1497 -0.4046 -0.0590
  652TIP3   OH2 1919   2.842   4.112   0.008  0.1847 -0.6623  0.7418
  652TIP3    H1 1920   2.931   4.097   0.040 -0.3280 -0.6242  2.2772
  652TIP3    H2 1921   2.786   4.067   0.072 -0.9453  0.2497  0.4184
  653TIP3   OH2 1922   0.756   2.963   3.058 -0.2335  0.6248  0.3449
  653TIP3    H1 1923   0.740   2.883   3.008 -0.3756 -0.2387  1.7244
  653TIP3    H2 1924   0.807   2.934   3.134  0.2707  1.9517  0.5343
  654TIP3   OH2 1925   5.988   2.265   1.736  0.2248  0.2204 -0.2099
  654TIP3    H1 1926   6.047   2.326   1.691  0.4028 -0.1023 -0.4114
  654TIP3    H2 1927   6.011   2.179   1.701  1.2906 -0.2216  1.4543
  655TIP3   OH2 1928   0.450   2.089   4.416 -0.0728  0.0414  0.1172
  655TIP3    H1 1929   0.494   2.100   4.332  0.1375 -2.7656 -0.2344
  655TIP3    H2 1930   0.496   2.015   4.457 -1.6401 -0.1177  1.6796
  656TIP3   OH2 1931   0.228   1.000   2.778 -1.0235 -0.2943  0.2482
  656TIP3    H1 1932   0.298   0.955   2.825 -0.5259 -0.1102 -0.3107
  656TIP3    H2 1933   0.148   0.959   2.810 -0.5429 -3.4647 -2.0704
  657TIP3   OH2 1934   2.528   1.430   0.503 -0.1072 -0.3510  0.2622
  657TIP3    H1 1935   2.507   1.523   0.499  0.8242 -0.1489  0.0095
  657TIP3    H2 1936   2.615   1.422   0.464 -0.2947 -1.3660  0.0039
  658TIP3   OH2 1937   3.516   5.235   1.082 -0.0400 -0.2294 -0.4291
  658TIP3    H1 1938   3.504   5.240   0.987  4.3137  0.2657 -1.1689
  658TIP3    H2 1939   3.534   5.143   1.099  0.8096 -0.0787 -0.4323
  659TIP3   OH2 1940   0.706   5.788   0.660 -0.3328  0.1850  0.0568
  659TIP3    H1 1941   0.671   5.700   0.647  0.0677  0.1479 -0.8365
  659TIP3    H2 1942   0.761   5.780   0.737 -1.8514  0.1262  1.1869
  660TIP3   OH2 1943   6.327   5.707   1.170  0.1058  0.1263 -0.0164
  660TIP3    H1 1944   6.392   5.636   1.174 -0.2057 -0.4509 -3.1169
  660TIP3    H2 1945   6.244   5.662   1.153 -0.6312  1.0954  0.8595
  661TIP3   OH2 1946   3.052   3.067   0.713 -0.6907  0.2452 -0.2908
  661TIP3    H1 1947   2.988   3.013   0.759 -1.3185  0.7678 -0.5464
  661TIP3    H2 1948   3.012   3.084   0.628 -0.1224  0.4131 -0.5266
  662TIP3   OH2 1949   2.244   3.390   2.532  0.0774 -0.2675 -0.0693
  662TIP3    H1 1950   2.321   3.358   2.485 -0.1023 -0.5867 -0.1502
  662TIP3    H2 1951   2.216   3.315   2.585  0.5658  0.2371  0.9269
  663TIP3   OH2 1952   2.853   5.293   0.185 -0.1538 -0.3745  0.1147
  663TIP3    H1 1953   2.944   5.322   0.185  0.2024 -1.3753  1.4589
  663TIP3    H2 1954   2.846   5.235   0.260 -1.7314 -0.9019 -0.3839
  664TIP3   OH2 1955   0.162   1.940   5.004  0.1502 -0.1808 -0.0435
  664TIP3    H1 1956   0.157   2.018   4.949 -0.9014  0.4327  0.8732
  664TIP3    H2 1957   0.140   1.868   4.945 -0.6064  0.4201 -0.5298
  665TIP3   OH2 1958   4.838   2.213   1.131  0.3323  0.4209 -0.4256
  665TIP3    H1 1959   4.832   2.151   1.057 -2.6464 -0.8782  0.7393
  665TIP3    H2 1960   4.812   2.297   1.093 -2.1496 -0.4097 -0.8134
  666TIP3   OH2 1961   2.803   4.472   5.129 -0.2798  0.0496  0.2385
  666TIP3    H1 1962   2.838   4.477   5.218  1.4795 -2.4425 -0.1973
  666TIP3    H2 1963   2.837   4.390   5.094  0.6198  1.7646 -3.4218
  667TIP3   OH2 1964   2.214   2.340   2.262  0.0515  0.1054  0.0452
  667TIP3    H1 1965   2.141   2.286   2.293 -0.0899 -0.2216 -0.8230
  667TIP3    H2 1966   2.178   2.391   2.190  0.9129 -0.7949 -1.0650
  668TIP3   OH2 1967   5.565   3.963   0.452  0.4519 -0.3969  0.1443
  668TIP3    H1 1968   5.567   4.013   0.533 -0.8899  3.0478 -1.7089
  668TIP3    H2 1969   5.477   3.925   0.449  1.4837 -3.1760  1.5703
  669TIP3   OH2 1970   1.134   0.747   4.495 -0.9690  0.4536 -0.6666
  669TIP3    H1 1971   1.189   0.717   4.568  0.8021 -1.3576 -2.5993
  669TIP3    H2 1972   1.099   0.666   4.457 -3.7302  1.4787 -0.5371
  670TIP3   OH2 1973   6.238   1.374   2.838 -0.0687  0.4509 -0.2049
  670TIP3    H1 1974   6.152   1.413   2.822 -0.4198  0.7139  2.0247
  670TIP3    H2 1975   6.271   1.420   2.915  0.7167 -1.7373  0.8413
  671TIP3   OH2 1976   1.489   2.392   2.462 -0.0763  0.3117 -0.4284
  671TIP3    H1 1977   1.478   2.413   2.555 -0.4050  1.2196 -0.6630
  671TIP3    H2 1978   1.518   2.301   2.461  1.6132  0.7926  0.6503
  672TIP3   OH2 1979   6.742   1.282   4.261  0.3574 -0.2108  0.0429
  672TIP3    H1 1980   6.782   1.315   4.341  0.5022  0.1350 -0.1653
  672TIP3    H2 1981   6.740   1.187   4.272 -0.4585 -0.1110  0.8372
  673TIP3   OH2 1982   0.412   1.951   2.420 -0.0027 -0.4921 -0.3013
  673TIP3    H1 1983   0.456   1.868   2.402  1.4930  0.2341 -0.1816
  673TIP3    H2 1984   0.429   1.967   2.513 -1.0359 -0.4748 -0.1104
  674TIP3   OH2 1985   5.922   4.795   3.269 -0.6850 -0.2723 -0.7175
  674TIP3    H1 1986   5.971   4.748   3.202 -0.6528 -2.0592  0.4908
  674TIP3    H2 1987   5.985   4.810   3.339 -0.8494  1.1013 -0.8305
  675TIP3   OH2 1988   2.393   3.038   3.735 -0.6041  0.1092 -0.7700
  675TIP3    H1 1989   2.423   3.069   3.821 -0.2300  1.0993 -1.2407
  675TIP3    H2 1990   2.314   2.989   3.753 -0.5198  0.2957  0.1502
  676TIP3   OH2 1991   7.084   2.732   2.370  0.0089  0.2826  0.2248
  676TIP3    H1 1992   7.115   2.791   2.302  2.2183 -1.0576 -0.0332
  676TIP3    H2 1993   7.130   2.760   2.449  0.5588 -0.6550  0.2472
  677TIP3   OH2 1994   4.743   5.691   0.426 -0.2766 -0.0641 -0.5280
  677TIP3    H1 1995   4.805   5.631   0.468 -0.1791  1.6571  1.9887
  677TIP3    H2 1996   4.693   5.635   0.366 -0.6330 -2.8363  2.1104
  678TIP3   OH2 1997   4.680   5.448   2.352 -0.2550 -0.0193 -0.4891
  678TIP3    H1 1998   4.711   5.430   2.441  2.3658 -1.9654 -1.6775
  678TIP3    H2 1999   4.584   5.440   2.359 -0.1027 -0.5473  2.0535
  679TIP3   OH2 2000   3.370   2.389   3.999 -0.7825 -0.5807 -0.0873
  679TIP3    H1 2001   3.435   2.320   3.984  1.6571  1.6820 -0.6871
  679TIP3    H2 2002   3.326   2.399   3.914 -1.8395 -1.9808  0.2633
  680TIP3   OH2 2003   6.721   1.093   1.260 -0.3689  0.5015  0.2781
  680TIP3    H1 2004   6.695   1.092   1.352 -0.3986 -1.1786  0.2741
  680TIP3    H2 2005   6.761   1.179   1.247 -1.1204  1.0798  1.6328
  681TIP3   OH2 2006   5.332   4.710   4.161  0.0080  0.4034 -0.3537
  681TIP3    H1 2007   5.348   4.633   4.216 -1.3922  1.6945  2.0636
  681TIP3    H2 2008   5.299   4.674   4.079  1.1215 -1.6139 -0.0033
  682TIP3   OH2 2009   1.547   1.109   0.988 -0.3528  0.0332 -0.2486
  682TIP3    H1 2010   1.456   1.105   0.956  0.0525  0.1145 -1.4792
  682TIP3    H2 2011   1.559   1.026   1.034 -0.5439 -0.7777 -1.5814
  683TIP3   OH2 2012   4.731   4.432   2.940 -0.4477  0.2088 -0.0433
  683TIP3    H1 2013   4.694   4.513   2.975 -0.5326  0.2097 -0.1327
  683TIP3    H2 2014   4.805   4.462   2.886 -0.2465  0.1990  0.2270
  684TIP3   OH2 2015   0.684   1.997   3.255  0.2225 -0.2286  0.1495
  684TIP3    H1 2016   0.639   2.073   3.217 -0.8913 -0.7670  0.3551
  684TIP3    H2 2017   0.756   1.980   3.194 -0.5840 -0.0980 -0.8719
  685TIP3   OH2 2018   5.707   5.928   3.725  0.4327  0.0353  0.2196
  685TIP3    H1 2019   5.675   5.870   3.656 -0.7833  1.1059 -0.1676
  685TIP3    H2 2020   5.770   5.985   3.680  0.0368  0.3856  0.1000
  686TIP3   OH2 2021   0.082   6.335   2.308  0.5556 -0.9477  0.7124
  686TIP3    H1 2022   0.153   6.398   2.294 -0.3763  0.1786  0.8835
  686TIP3    H2 2023   0.034   6.334   2.225  0.5833 -1.4712  0.7009
  687TIP3   OH2 2024   5.677   1.107   1.000  0.1032  0.1302  0.7014
  687TIP3    H1 2025   5.607   1.056   0.959  0.9799  0.3688 -1.1962
  687TIP3    H2 2026   5.640   1.194   1.012 -0.2824 -0.0397  0.7559
  688TIP3   OH2 2027   5.231   3.414   5.046 -0.2528 -0.8052 -0.2008
  688TIP3    H1 2028   5.252   3.497   5.089  0.6233 -2.4679  2.7977
  688TIP3    H2 2029   5.304   3.400   4.985  2.4393 -1.7536  2.9920
  689TIP3   OH2 2030   1.636   2.392   0.582  0.2041  0.3404 -0.2366
  689TIP3    H1 2031   1.567   2.379   0.518  0.2510  1.1444 -0.4656
  689TIP3    H2 2032   1.711   2.342   0.548  0.8876  2.3635 -1.9083
  690TIP3   OH2 2033   1.363   5.051   4.540 -0.1635 -0.3239 -0.7365
  690TIP3    H1 2034   1.330   4.989   4.605 -1.7927  2.0671  0.8877
  690TIP3    H2 2035   1.455   5.062   4.561 -0.4479 -0.3291  0.5747
  691TIP3   OH2 2036   6.113   0.993   3.111  0.1266  0.0955 -0.5599
  691TIP3    H1 2037   6.033   0.971   3.065  0.3415 -0.9277 -0.4591
  691TIP3    H2 2038   6.102   1.085   3.135 -1.5874 -0.3621  0.6096
  692TIP3   OH2 2039   1.713   3.388   2.186  0.1106 -0.0943 -0.1393
  692TIP3    H1 2040   1.663   3.316   2.226 -0.9281 -0.0687 -1.3277
  692TIP3    H2 2041   1.760   3.348   2.113  0.1330  0.2867 -0.3387
  693TIP3   OH2 2042   1.235   2.245   3.077  0.4059 -0.4596 -0.3367
  693TIP3    H1 2043   1.254   2.305   3.150 -0.5849  0.0625 -0.4971
  693TIP3    H2 2044   1.306   2.259   3.015  0.1887  0.5439 -0.3651
  694TIP3   OH2 2045   0.349   5.702   3.467 -0.2586 -0.8426 -0.7776
  694TIP3    H1 2046   0.400   5.708   3.548 -1.1623  0.7373 -0.2617
  694TIP3    H2 2047   0.331   5.794   3.444 -2.5097 -1.3090 -1.1087
  695TIP3   OH2 2048   3.906   0.166   1.657 -0.0479  0.1260 -0.6364
  695TIP3    H1 2049   3.866   0.141   1.740  0.0085 -0.6724 -0.8469
  695TIP3    H2 2050   3.916   0.084   1.608 -0.8797  0.6799 -1.7909
  696TIP3   OH2 2051   4.142   3.801   3.396  0.1858  0.0490 -0.3707
  696TIP3    H1 2052   4.066   3.757   3.358 -0.2321  0.2059  0.2700
  696TIP3    H2 2053   4.169   3.864   3.329 -0.1989 -0.0619 -0.6339
  697TIP3   OH2 2054   5.815   2.000   2.783  0.2446 -0.2654  0.3292
  697TIP3    H1 2055   5.743   1.943   2.756 -0.2557 -0.1737  1.4034
  697TIP3    H2 2056   5.786   2.088   2.760  0.3205 -0.2994  0.1089
  698TIP3   OH2 2057   6.340   4.270   1.652 -0.0416 -0.4464 -0.1262
  698TIP3    H1 2058   6.391   4.228   1.721  0.2249 -1.7857 -1.1018
  698TIP3    H2 2059   6.254   4.229   1.658 -0.5179  0.5881  0.4144
  699TIP3   OH2 2060   1.203   6.567   3.084 -0.8714  0.1683 -0.4706
  699TIP3    H1 2061   1.190   6.497   3.020 -1.2630  0.0605 -0.2740
  699TIP3    H2 2062   1.277   6.539   3.137 -1.2815 -0.2895 -0.1329
  700TIP3   OH2 2063   6.857   5.165   1.988 -0.8724  0.4018  0.2003
  700TIP3    H1 2064   6.848   5.227   2.059  0.8331  0.8894  0.0207
  700TIP3    H2 2065   6.947   5.176   1.956 -1.1918 -0.6764 -1.2066
  701TIP3   OH2 2066   4.428   6.259   0.959  0.1858  0.1819  0.4189
  701TIP3    H1 2067   4.363   6.203   0.917  0.3577 -1.2666  1.9810
  701TIP3    H2 2068   4.493   6.276   0.891 -0.4846 -0.5375 -0.4229
  702TIP3   OH2 2069   0.124   4.261   2.001 -0.3804  0.4310  0.3043
  702TIP3    H1 2070   0.056   4.229   1.943  1.9032 -1.5097 -1.4893
  702TIP3    H2 2071   0.141   4.350   1.971  0.6600 -0.4932 -2.0183
  703TIP3   OH2 2072   6.708   3.348   4.681  0.3058 -0.0048  0.8853
  703TIP3    H1 2073   6.672   3.266   4.646  0.3630  0.4671 -0.3473
  703TIP3    H2 2074   6.787   3.321   4.727 -0.1236 -0.7330  1.2168
  704TIP3   OH2 2075   5.869   3.667   2.175 -0.6166  0.0758 -0.1280
  704TIP3    H1 2076   5.851   3.736   2.111  0.7419  0.0402 -0.5831
  704TIP3    H2 2077   5.804   3.599   2.155 -1.5298  0.9240 -0.1073
  705TIP3   OH2 2078   0.462   1.820   3.272 -0.2379  0.0906 -0.2577
  705TIP3    H1 2079   0.515   1.899   3.274  0.3328 -0.3019  0.2734
  705TIP3    H2 2080   0.396   1.833   3.339 -0.6769  0.4742 -0.7531
  706TIP3   OH2 2081   3.671   2.200   0.819 -0.0424  0.1996 -0.3105
  706TIP3    H1 2082   3.677   2.291   0.846 -0.9688  0.0901  0.2832
  706TIP3    H2 2083   3.601   2.198   0.754  0.4156  0.0157 -0.8094
  707TIP3   OH2 2084   4.853   4.602   0.877 -0.5828  0.3181 -0.4580
  707TIP3    H1 2085   4.929   4.565   0.831 -1.0645 -0.2697 -0.7947
  707TIP3    H2 2086   4.780   4.546   0.851 -1.1574  0.9499 -0.2284
  708TIP3   OH2 2087   2.325   0.822   1.615  0.3383 -0.3057  0.7998
  708TIP3    H1 2088   2.399   0.774   1.577 -1.0538 -0.4597 -1.9944
  708TIP3    H2 2089   2.247   0.776   1.582 -1.0387  0.9401  2.1503
  709TIP3   OH2 2090   3.254   5.670   4.051  0.2835  0.4289 -0.0149
  709TIP3    H1 2091   3.258   5.679   4.146 -0.1244 -0.3725  0.0884
  709TIP3    H2 2092   3.319   5.603   4.030  0.9212  1.1482 -0.3925
  710TIP3   OH2 2093   6.420   2.031   0.445  0.4770  0.3381 -0.4016
  710TIP3    H1 2094   6.376   2.000   0.366 -0.5827  1.9038 -0.4771
  710TIP3    H2 2095   6.439   1.952   0.495 -0.1837 -0.5655 -1.5300
  711TIP3   OH2 2096   7.091   0.707   0.157 -0.1196 -0.5394 -0.2748
  711TIP3    H1 2097   7.000   0.690   0.182 -0.2290  0.9233  0.4245
  711TIP3    H2 2098   7.106   0.649   0.082 -1.3958 -1.3160  0.0274
  712TIP3   OH2 2099   1.531   2.701   4.899  0.0234 -0.5487  0.4342
  712TIP3    H1 2100   1.618   2.700   4.937 -0.6439  1.3812  2.1762
  712TIP3    H2 2101   1.530   2.779   4.843  0.0121 -1.6726 -1.2079
  713TIP3   OH2 2102   1.215   0.672   1.750  0.0900  0.4657  0.2591
  713TIP3    H1 2103   1.172   0.603   1.700 -0.8346  0.7321  0.6753
  713TIP3    H2 2104   1.214   0.748   1.692 -1.2085  0.8460  0.7529
  714TIP3   OH2 2105   1.345   0.707   0.219  0.7981  0.3784 -0.0164
  714TIP3    H1 2106   1.407   0.743   0.283 -0.7627 -0.9051  2.3474
  714TIP3    H2 2107   1.261   0.744   0.244 -0.0792 -1.2681 -0.3998
  715TIP3   OH2 2108   5.127   3.008   0.689  0.7203  0.1428 -0.1055
  715TIP3    H1 2109   5.178   2.999   0.770 -0.2306 -0.2948  0.4692
  715TIP3    H2 2110   5.163   2.940   0.631 -0.2174 -1.2607  0.8696
  716TIP3   OH2 2111   3.959   4.623   2.949 -0.2046  1.0610 -0.0308
  716TIP3    H1 2112   3.865   4.626   2.970  0.0818  1.6201  1.2341
  716TIP3    H2 2113   3.999   4.582   3.025  0.7301  1.9838 -0.0100
  717TIP3   OH2 2114   1.724   2.861   1.269  0.4093  0.0632  0.4695
  717TIP3    H1 2115   1.698   2.891   1.356  1.5314 -0.9135  1.1777
  717TIP3    H2 2116   1.673   2.782   1.255  0.2416  0.2114  0.2475
  718TIP3   OH2 2117   1.928   5.782   3.116  0.4020 -0.0287  0.6127
  718TIP3    H1 2118   1.901   5.783   3.024  0.3581  0.9531  0.6214
  718TIP3    H2 2119   1.846   5.780   3.165  0.3710  0.9697  0.6269
  719TIP3   OH2 2120   5.450   1.541   0.370  0.4367  0.3439 -0.6463
  719TIP3    H1 2121   5.436   1.484   0.294 -2.2802 -1.4941  1.0399
  719TIP3    H2 2122   5.363   1.577   0.388  1.5339  2.7650  0.1290
  720TIP3   OH2 2123   3.827   5.651   2.586  0.7742  0.2358 -0.5447
  720TIP3    H1 2124   3.741   5.679   2.615  0.6312 -0.8917  0.1767
  720TIP3    H2 2125   3.820   5.556   2.579  1.7637  0.1948 -1.1317
  721TIP3   OH2 2126   3.120   0.190   2.534  0.1036  0.0466 -0.5022
  721TIP3    H1 2127   3.037   0.237   2.546 -0.1446 -0.4415 -0.2940
  721TIP3    H2 2128   3.113   0.115   2.593  0.9269  0.3075 -0.0633
  722TIP3   OH2 2129   4.158   2.913   3.185  0.0685 -0.4872  0.0425
  722TIP3    H1 2130   4.108   2.925   3.266  0.2238  2.2195 -0.1677
  722TIP3    H2 2131   4.248   2.936   3.209  0.8543 -3.1234 -0.1250
  723TIP3   OH2 2132   1.930   5.967   1.713 -0.1845  0.0030 -0.1503
  723TIP3    H1 2133   1.968   5.886   1.746  2.4140  1.5219  0.9417
  723TIP3    H2 2134   1.839   5.964   1.741  0.6740 -1.0719  2.8794
  724TIP3   OH2 2135   1.647   5.433   4.965  0.0410  0.3301  0.3384
  724TIP3    H1 2136   1.665   5.524   4.988 -0.8332  0.7774 -0.6294
  724TIP3    H2 2137   1.586   5.439   4.891  2.0879 -1.0205 -1.5648
  725TIP3   OH2 2138   3.016   2.761   2.869  0.6910 -0.1674  0.3105
  725TIP3    H1 2139   2.984   2.851   2.877  2.0601  0.4187 -0.4720
  725TIP3    H2 2140   2.996   2.736   2.779 -1.3278 -1.3458  1.0345
  726TIP3   OH2 2141   2.581   5.347   5.021  0.1256  0.6456  0.3947
  726TIP3    H1 2142   2.531   5.417   5.062  0.4857  1.4543 -0.5013
  726TIP3    H2 2143   2.533   5.326   4.941  0.2904  0.2193  0.4054
  727TIP3   OH2 2144   3.204   2.240   1.885 -0.0951 -0.4438  0.1535
  727TIP3    H1 2145   3.159   2.155   1.880 -0.5068 -0.1322 -2.3002
  727TIP3    H2 2146   3.133   2.304   1.893  0.0800 -0.1714 -0.4397
  728TIP3   OH2 2147   4.359   2.849   0.734 -0.2610  0.2337  0.5723
  728TIP3    H1 2148   4.347   2.755   0.723 -0.3089  0.2825  0.1621
  728TIP3    H2 2149   4.324   2.868   0.821  1.8141 -0.4686  1.6149
  729TIP3   OH2 2150   1.415   6.519   4.875 -0.2356 -0.2839 -0.5801
  729TIP3    H1 2151   1.457   6.605   4.870  0.7435 -0.7596 -0.7188
  729TIP3    H2 2152   1.321   6.538   4.867 -0.1268  0.8755  0.6168
  730TIP3   OH2 2153   5.090   5.510   1.961  0.3159  0.1441  0.0238
  730TIP3    H1 2154   5.036   5.579   1.999  1.1686  0.5486  0.5219
  730TIP3    H2 2155   5.179   5.529   1.992  1.5098  1.7362 -3.8066
  731TIP3   OH2 2156   2.754   4.256   1.876  0.5983  0.1191  0.0414
  731TIP3    H1 2157   2.835   4.298   1.847  0.4521  0.5549  0.2602
  731TIP3    H2 2158   2.767   4.238   1.969  0.3730  0.3483  0.1161
  732TIP3   OH2 2159   3.501   6.385   1.966 -0.4551  0.2081 -0.2947
  732TIP3    H1 2160   3.444   6.417   1.896  0.0559  1.4003 -0.1772
  732TIP3    H2 2161   3.588   6.383   1.927 -0.4254 -0.8230 -0.2165
  733TIP3   OH2 2162   5.466   4.616   3.231  0.1066 -0.2993 -0.2537
  733TIP3    H1 2163   5.532   4.671   3.273 -0.9714 -0.0632  1.1822
  733TIP3    H2 2164   5.486   4.622   3.137  2.5495 -0.7898  0.1635
  734TIP3   OH2 2165   5.746   3.721   0.812 -1.0408  0.9168  0.4847
  734TIP3    H1 2166   5.748   3.759   0.724 -1.1926 -1.3319 -0.5628
  734TIP3    H2 2167   5.838   3.701   0.832 -1.2673 -1.7798 -0.7397
  735TIP3   OH2 2168   3.894   1.640   5.294  0.3398 -0.9284  0.4564
  735TIP3    H1 2169   3.943   1.708   5.340  0.8909 -1.8535  1.2761
  735TIP3    H2 2170   3.902   1.663   5.201  1.0991 -0.2734  0.6747
  736TIP3   OH2 2171   4.825   1.990   3.097  0.1786 -0.2374  0.4834
  736TIP3    H1 2172   4.915   1.986   3.065 -0.3910 -0.4930 -1.2155
  736TIP3    H2 2173   4.784   1.911   3.062 -1.8138  1.9257 -2.6172
  737TIP3   OH2 2174   2.850   5.705   1.434  0.5434  0.0320 -0.6649
  737TIP3    H1 2175   2.790   5.664   1.373 -0.3355  0.9426 -0.4361
  737TIP3    H2 2176   2.800   5.714   1.515  1.0539  0.5871 -0.4023
  738TIP3   OH2 2177   4.333   2.177   0.120 -0.0301 -0.0199 -0.3143
  738TIP3    H1 2178   4.261   2.229   0.084 -1.4998 -0.7805  1.3432
  738TIP3    H2 2179   4.357   2.221   0.201 -0.0864 -0.9092  0.2037
  739TIP3   OH2 2180   3.389   4.378   1.524  0.6804  0.2340 -0.4515
  739TIP3    H1 2181   3.422   4.440   1.589  1.0027  0.3566 -0.7280
  739TIP3    H2 2182   3.377   4.431   1.445 -1.7247  0.5551  0.0545
  740TIP3   OH2 2183   5.737   3.248   5.381  0.2160  0.0252  0.1040
  740TIP3    H1 2184   5.809   3.305   5.356 -0.4555  0.8747  0.0489
  740TIP3    H2 2185   5.664   3.275   5.325 -0.3988 -0.2096  0.7687
  741TIP3   OH2 2186   0.283   1.473   3.443 -0.2133  0.4186 -0.0723
  741TIP3    H1 2187   0.222   1.545   3.426 -0.5922  0.2498  0.5512
  741TIP3    H2 2188   0.370   1.510   3.422 -0.4622  0.8543 -0.3622
  742TIP3   OH2 2189   6.914   0.129   1.231 -0.5789  0.7642  0.0906
  742TIP3    H1 2190   6.893   0.191   1.301 -0.5015  0.2366  0.5891
  742TIP3    H2 2191   6.964   0.059   1.275 -1.8392 -0.3507 -0.1802
  743TIP3   OH2 2192   2.520   6.577   2.695  0.0690 -0.0518 -0.3431
  743TIP3    H1 2193   2.489   6.516   2.763  1.2258 -1.2261 -0.8424
  743TIP3    H2 2194   2.440   6.622   2.666 -0.6302 -0.4373  0.8848
  744TIP3   OH2 2195   6.522   6.457   1.430  0.0948  0.4270  0.3316
  744TIP3    H1 2196   6.428   6.441   1.432 -0.3841  2.9175 -0.0700
  744TIP3    H2 2197   6.546   6.470   1.522 -0.0637  0.4674  0.3674
  745TIP3   OH2 2198   5.291   0.449   0.715 -0.2013 -0.4374  0.0571
  745TIP3    H1 2199   5.307   0.499   0.635  1.7158 -1.3322 -0.1836
  745TIP3    H2 2200   5.235   0.377   0.687 -0.3120 -0.2204 -0.2916
  746TIP3   OH2 2201   3.503   0.713   1.059  0.4172 -0.3078  0.1529
  746TIP3    H1 2202   3.542   0.762   1.131  0.8661  0.0683 -0.3429
  746TIP3    H2 2203   3.578   0.674   1.014  0.0772 -1.4621  0.5329
  747TIP3   OH2 2204   4.413   0.264   2.477 -0.0896  0.1127  0.2450
  747TIP3    H1 2205   4.405   0.342   2.422  0.1517  1.4760  2.0420
  747TIP3    H2 2206   4.331   0.216   2.463 -0.0233  0.4002 -1.2704
  748TIP3   OH2 2207   2.188   4.924   2.275  0.3080  0.5711 -0.4424
  748TIP3    H1 2208   2.221   4.856   2.333 -1.7459  1.9880  2.6613
  748TIP3    H2 2209   2.248   4.998   2.290 -0.5898  1.1436  0.4391
  749TIP3   OH2 2210   3.024   2.622   5.904 -0.2845 -0.1780  0.8661
  749TIP3    H1 2211   2.983   2.672   5.833  2.5414  0.8131 -0.2264
  749TIP3    H2 2212   3.090   2.568   5.860 -1.8258 -3.4689  2.2603
  750TIP3   OH2 2213   5.163   5.336   4.754  0.2315 -0.1654 -0.6740
  750TIP3    H1 2214   5.085   5.391   4.757  1.2595  1.3235 -0.4389
  750TIP3    H2 2215   5.231   5.388   4.796  0.9265 -2.2083  0.9217
  751TIP3   OH2 2216   0.397   4.165   5.421 -0.1613  0.0355 -0.0236
  751TIP3    H1 2217   0.312   4.210   5.425  0.2742  0.8821 -0.0750
  751TIP3    H2 2218   0.433   4.175   5.509 -0.3929 -0.9140  0.1960
  752TIP3   OH2 2219   0.010   0.507   2.653 -0.5505  0.1278  0.0553
  752TIP3    H1 2220  -0.006   0.416   2.676  1.4831 -0.0116  1.1054
  752TIP3    H2 2221   0.096   0.507   2.611 -0.9897  1.4313 -0.9301
  753TIP3   OH2 2222   6.828   4.591   3.416 -0.4113  0.0396 -0.1171
  753TIP3    H1 2223   6.846   4.645   3.493  0.1841  0.2062 -0.3648
  753TIP3    H2 2224   6.775   4.646   3.359  0.8559  0.6621 -0.7169
  754TIP3   OH2 2225   1.460   0.030   2.479 -0.7361  0.3168 -0.0484
  754TIP3    H1 2226   1.413  -0.051   2.458 -0.0682 -0.1886  0.3487
  754TIP3    H2 2227   1.538   0.027   2.424  1.1932 -1.1681  2.5229
  755TIP3   OH2 2228   0.480   4.637   1.255 -0.1881 -0.2516 -0.9200
  755TIP3    H1 2229   0.534   4.703   1.212 -0.0305  0.3246  0.1242
  755TIP3    H2 2230   0.460   4.674   1.340  0.7767 -1.9823  0.1269
  756TIP3   OH2 2231   1.947   1.814   0.051 -0.3294 -0.4796 -0.7401
  756TIP3    H1 2232   1.907   1.751  -0.010 -0.3884  0.3273 -1.5577
  756TIP3    H2 2233   2.041   1.805   0.036 -0.2002 -1.7918  0.5983
  757TIP3   OH2 2234   2.027   0.333   0.241 -0.2042 -0.3071 -0.6291
  757TIP3    H1 2235   2.091   0.402   0.231  0.6409 -0.9620  0.0833
  757TIP3    H2 2236   1.951   0.376   0.282  0.3838  0.1666 -0.0130
  758TIP3   OH2 2237   6.283   5.291   3.955 -0.0005 -0.0826 -0.0983
  758TIP3    H1 2238   6.349   5.354   3.981  0.7817 -0.9026 -0.0413
  758TIP3    H2 2239   6.239   5.331   3.879  1.2025  0.0588 -0.7359
  759TIP3   OH2 2240   3.657   4.714   1.325 -0.6114 -0.1806  0.4922
  759TIP3    H1 2241   3.752   4.699   1.323 -0.3436  1.4625 -0.1157
  759TIP3    H2 2242   3.640   4.745   1.414 -0.4378  0.3402  0.3465
  760TIP3   OH2 2243   4.963   6.648   2.945  0.3827  0.6701 -0.2051
  760TIP3    H1 2244   4.952   6.741   2.967  0.5400  0.7892 -0.6330
  760TIP3    H2 2245   4.888   6.628   2.890  1.0074  0.8681 -1.1462
  761TIP3   OH2 2246   2.962   2.236   5.785  0.6118 -0.5284 -0.1519
  761TIP3    H1 2247   2.959   2.179   5.862 -2.2472 -1.5107 -0.8698
  761TIP3    H2 2248   2.993   2.180   5.714 -1.0438 -0.9200 -0.6035
  762TIP3   OH2 2249   1.888   1.078   1.104  0.1252  0.5064  0.1055
  762TIP3    H1 2250   1.842   1.155   1.137 -2.1942 -1.1311  0.9353
  762TIP3    H2 2251   1.831   1.043   1.036  0.6607 -0.9976  0.3952
  763TIP3   OH2 2252   5.861   5.252   2.989 -0.2281  0.1672  0.2032
  763TIP3    H1 2253   5.859   5.205   3.073 -0.7103  0.0080  0.1041
  763TIP3    H2 2254   5.845   5.184   2.924  1.2752  0.0853 -0.1156
  764TIP3   OH2 2255   1.696   3.195   3.678 -0.0104  0.5011 -0.1856
  764TIP3    H1 2256   1.656   3.268   3.629 -1.0504 -0.1425 -0.3274
  764TIP3    H2 2257   1.722   3.233   3.761  2.8936  1.9301 -1.5977
  765TIP3   OH2 2258   6.437   5.116   3.245 -0.1496 -0.0357  0.6334
  765TIP3    H1 2259   6.428   5.191   3.186 -1.6216  0.7710  1.7841
  765TIP3    H2 2260   6.446   5.040   3.188  1.1423  0.9826 -0.5634
  766TIP3   OH2 2261   0.089   5.119   4.715  0.5982  0.3559  0.1785
  766TIP3    H1 2262   0.127   5.123   4.803  0.9102 -0.5164  0.0981
  766TIP3    H2 2263   0.009   5.171   4.721  0.6976  0.4388  0.9372
  767TIP3   OH2 2264   0.569   3.931   1.383 -0.0540 -0.7040  0.5779
  767TIP3    H1 2265   0.562   3.837   1.399 -2.3289 -0.6763 -0.0006
  767TIP3    H2 2266   0.543   3.942   1.292  0.2817  0.5002  0.6144
  768TIP3   OH2 2267   4.659   4.201   0.552  0.6491  0.2272 -0.5933
  768TIP3    H1 2268   4.656   4.274   0.490  1.7513  2.1765  1.4773
  768TIP3    H2 2269   4.567   4.182   0.571  0.2053  3.4554  1.3025
  769TIP3   OH2 2270   2.875   0.796   0.749 -0.4233 -0.4464 -0.2789
  769TIP3    H1 2271   2.803   0.808   0.810  1.1008  0.7650  1.4073
  769TIP3    H2 2272   2.914   0.883   0.741  0.4235 -0.9273 -1.6950
  770TIP3   OH2 2273   6.663   3.036   3.436 -0.1389 -0.5194 -0.1987
  770TIP3    H1 2274   6.621   2.955   3.409  0.4348  0.1544 -3.6501
  770TIP3    H2 2275   6.618   3.061   3.517 -1.2231 -3.5202  0.2529
  771TIP3   OH2 2276   0.494   1.674   5.812  0.7018 -0.0764 -0.1182
  771TIP3    H1 2277   0.542   1.694   5.892  1.1174 -0.4071 -0.2799
  771TIP3    H2 2278   0.422   1.737   5.810  1.1298  0.4194  0.1280
  772TIP3   OH2 2279   5.157   4.453   0.333  0.2085  0.4093  0.2562
  772TIP3    H1 2280   5.189   4.543   0.323 -1.2674  0.9598  0.2233
  772TIP3    H2 2281   5.199   4.405   0.262  1.7690  0.8324  0.8464
  773TIP3   OH2 2282   2.958   6.395   2.753  0.0265 -0.4676 -0.3426
  773TIP3    H1 2283   2.999   6.454   2.816 -1.0339  1.9843 -1.8144
  773TIP3    H2 2284   2.929   6.321   2.806  0.2194  0.9293  1.8565
  774TIP3   OH2 2285   2.095   2.187   4.205 -0.1664  0.1314  0.7143
  774TIP3    H1 2286   2.021   2.160   4.259  0.3889  1.6872  2.3386
  774TIP3    H2 2287   2.109   2.279   4.227  1.7677  0.0771 -0.1007
  775TIP3   OH2 2288   4.759   3.565   4.153 -0.0999  0.2738  0.3452
  775TIP3    H1 2289   4.849   3.581   4.183  0.6326 -1.9122 -0.4833
  775TIP3    H2 2290   4.736   3.481   4.192 -1.5980  0.5157  0.0434
  776TIP3   OH2 2291   5.375   5.567   1.154  0.1091 -0.1073  0.4397
  776TIP3    H1 2292   5.348   5.475   1.154  0.7686 -0.3131 -0.2047
  776TIP3    H2 2293   5.362   5.596   1.064  1.5427 -0.0829  0.2174
  777TIP3   OH2 2294   3.269   5.499   1.549  0.0211 -0.0889  0.7275
  777TIP3    H1 2295   3.325   5.562   1.503  0.6125 -2.2669 -1.7840
  777TIP3    H2 2296   3.326   5.423   1.565 -1.0777 -0.6539  2.1832
  778TIP3   OH2 2297   2.722   2.144   3.693 -0.0147 -0.3808  0.5987
  778TIP3    H1 2298   2.772   2.205   3.746 -0.4571 -0.6940  1.3873
  778TIP3    H2 2299   2.663   2.101   3.754 -0.1716 -1.1276 -0.0556
  779TIP3   OH2 2300   6.685   5.926   4.234  0.1053 -0.2702 -0.2212
  779TIP3    H1 2301   6.775   5.947   4.210  0.1295 -0.9679 -0.8147
  779TIP3    H2 2302   6.649   6.006   4.271  1.1774 -0.1815  0.6544
  780TIP3   OH2 2303   1.965   4.131   4.933 -0.3843  0.5274 -0.2330
  780TIP3    H1 2304   1.989   4.181   4.854 -0.7756  0.1535 -0.5941
  780TIP3    H2 2305   1.945   4.043   4.900  1.5484 -0.2490  0.5360
  781TIP3   OH2 2306   6.927   4.115   5.408  0.3678 -0.6611  0.0548
  781TIP3    H1 2307   6.866   4.178   5.369  0.6128 -1.3308 -1.4937
  781TIP3    H2 2308   6.913   4.123   5.502  0.5511  1.8333 -0.0754
  782TIP3   OH2 2309   4.125   0.296   1.102  0.0467  0.1108  0.0199
  782TIP3    H1 2310   4.125   0.203   1.081 -0.3638 -0.0343  0.6296
  782TIP3    H2 2311   4.147   0.299   1.195  0.2488  0.6383 -0.0432
  783TIP3   OH2 2312   6.012   3.835   5.092 -0.6688  0.4005 -0.4926
  783TIP3    H1 2313   5.917   3.824   5.094 -0.5628 -2.4715 -3.3534
  783TIP3    H2 2314   6.042   3.801   5.176 -2.0973  1.2323  0.4074
  784TIP3   OH2 2315   4.175   3.836   3.674  0.0858  0.0624  0.3416
  784TIP3    H1 2316   4.153   3.807   3.585 -0.7413 -0.1975  0.6261
  784TIP3    H2 2317   4.214   3.758   3.714  1.5940  0.5278 -0.1682
  785TIP3   OH2 2318   3.726   0.514   1.637 -0.3224  0.1586 -0.0751
  785TIP3    H1 2319   3.778   0.457   1.580  2.1298  1.7035  0.4849
  785TIP3    H2 2320   3.757   0.602   1.618 -1.2639  0.9652  1.8337
  786TIP3   OH2 2321   0.398   0.690   2.718 -0.1893 -0.2848 -0.0212
  786TIP3    H1 2322   0.433   0.766   2.764 -0.1358 -0.1870 -0.2227
  786TIP3    H2 2323   0.333   0.727   2.657 -0.3178 -0.4206  0.0333
  787TIP3   OH2 2324   1.310   2.671   0.693 -0.7695 -0.0232 -0.4638
  787TIP3    H1 2325   1.261   2.644   0.770 -0.0511 -0.5045 -0.1636
  787TIP3    H2 2326   1.269   2.623   0.620 -0.0020 -1.3844 -0.0457
  788TIP3   OH2 2327   3.770   6.166   2.513  0.2319  0.4437 -0.2520
  788TIP3    H1 2328   3.729   6.117   2.584  0.4371 -0.6556 -0.8619
  788TIP3    H2 2329   3.703   6.173   2.446 -0.9526  4.0349  1.1066
  789TIP3   OH2 2330   0.671   1.926   5.088 -0.5452  0.3314  0.3587
  789TIP3    H1 2331   0.619   1.913   5.009 -0.0771  0.7146 -0.0202
  789TIP3    H2 2332   0.666   1.842   5.134  1.0425 -0.6921 -1.1995
  790TIP3   OH2 2333   1.714   5.825   4.100  0.3044  0.0842  0.3718
  790TIP3    H1 2334   1.646   5.892   4.100 -0.9672 -1.1691  0.3665
  790TIP3    H2 2335   1.730   5.806   4.192  2.5264  2.1508  0.5111
  791TIP3   OH2 2336   1.460   6.412   3.690 -0.1890 -0.5526  0.7814
  791TIP3    H1 2337   1.417   6.335   3.728 -0.3936 -0.1629  1.3707
  791TIP3    H2 2338   1.528   6.435   3.754 -1.2982  0.8147  1.5549
  792TIP3   OH2 2339   5.614   0.645   1.064 -0.5572  0.0304  0.2884
  792TIP3    H1 2340   5.617   0.553   1.090 -0.1623 -0.2644 -0.7407
  792TIP3    H2 2341   5.657   0.647   0.978 -0.5046  1.1850  0.3272
  793TIP3   OH2 2342   5.269   3.776   0.004  0.0199  0.3643 -0.4443
  793TIP3    H1 2343   5.280   3.718   0.079  1.1441  0.2094 -0.7105
  793TIP3    H2 2344   5.176   3.771  -0.017  0.3832 -3.3911 -2.0567
  794TIP3   OH2 2345   5.111   1.288   3.237  0.4671 -0.6308 -0.1068
  794TIP3    H1 2346   5.143   1.208   3.278 -2.6754 -0.9495  2.0839
  794TIP3    H2 2347   5.029   1.262   3.195  0.9641  0.8683 -2.1927
  795TIP3   OH2 2348   6.286   3.926   0.706  0.0742 -0.0687 -0.0941
  795TIP3    H1 2349   6.318   4.015   0.697 -1.5893  0.3550 -2.6780
  795TIP3    H2 2350   6.252   3.921   0.796 -1.2509  2.4218 -0.3847
  796TIP3   OH2 2351   6.942   5.656   3.518  0.0805 -0.5986  0.5095
  796TIP3    H1 2352   6.921   5.605   3.596 -1.9208 -1.1035 -0.3105
  796TIP3    H2 2353   6.862   5.657   3.467  1.0393  0.6020 -1.0776
  797TIP3   OH2 2354   4.730   3.091   4.706 -0.0726  0.2540  0.3772
  797TIP3    H1 2355   4.708   3.038   4.630  3.0842  1.8751 -1.9424
  797TIP3    H2 2356   4.821   3.068   4.725 -0.1079  1.4642  2.2727
  798TIP3   OH2 2357   7.099   0.846   0.516 -0.0634 -0.1769  0.1463
  798TIP3    H1 2358   7.037   0.854   0.444  0.1899 -0.9372 -0.1554
  798TIP3    H2 2359   7.124   0.937   0.535 -0.6020  0.0728 -0.3015
  799TIP3   OH2 2360   0.460   2.759   3.025 -0.7019 -0.1226 -0.4741
  799TIP3    H1 2361   0.470   2.833   2.965  1.5643 -0.7016 -0.8699
  799TIP3    H2 2362   0.457   2.799   3.112  1.3743  0.4456 -0.6150
  800TIP3   OH2 2363   3.577   1.024   3.726 -0.2117  0.2007  0.2735
  800TIP3    H1 2364   3.559   1.104   3.675  0.5356  0.6725  0.7348
  800TIP3    H2 2365   3.591   0.956   3.660  1.2179  0.9028 -0.1862
  801TIP3   OH2 2366   2.888   2.310   3.527  0.5021 -0.1838  0.1027
  801TIP3    H1 2367   2.822   2.246   3.552  0.1076 -0.2571 -1.0612
  801TIP3    H2 2368   2.970   2.262   3.530  0.3783 -0.3759  0.5316
  802TIP3   OH2 2369   2.429   2.558   2.414 -1.2381  0.1723 -0.6120
  802TIP3    H1 2370   2.445   2.612   2.492  0.5856 -3.0973  1.5208
  802TIP3    H2 2371   2.334   2.551   2.410 -1.3936  0.3157  1.4653
  803TIP3   OH2 2372   1.496   0.844   2.081 -0.0129 -0.7461 -0.2557
  803TIP3    H1 2373   1.481   0.856   2.175 -1.9697 -2.7953 -0.2025
  803TIP3    H2 2374   1.520   0.931   2.049  1.5615 -0.1691  2.2461
  804TIP3   OH2 2375   5.559   2.912   5.401  0.3282  0.0885 -0.5340
  804TIP3    H1 2376   5.479   2.932   5.352  1.1641 -0.2131 -2.0866
  804TIP3    H2 2377   5.585   2.825   5.370 -0.6250 -1.4604  2.5695
  805TIP3   OH2 2378   0.961   6.508   2.936  0.2717 -0.0251 -0.0116
  805TIP3    H1 2379   1.042   6.457   2.938  0.0872 -0.3292 -0.1139
  805TIP3    H2 2380   0.923   6.489   2.850  0.9832  1.5365 -0.6918
  806TIP3   OH2 2381   5.779   4.521   3.866  0.1831  0.0898  0.0125
  806TIP3    H1 2382   5.750   4.611   3.849  1.0815  0.5529  0.8630
  806TIP3    H2 2383   5.874   4.525   3.859  0.2746 -0.6406  0.7687
  807TIP3   OH2 2384   2.743   3.975   1.479  0.2033 -0.1458  0.4756
  807TIP3    H1 2385   2.763   3.894   1.434  1.0367  0.3557 -0.0803
  807TIP3    H2 2386   2.828   4.016   1.494 -0.2675  1.2113 -0.3765
  808TIP3   OH2 2387   3.311   1.272   4.747  0.0705 -0.2389 -0.1221
  808TIP3    H1 2388   3.242   1.316   4.797 -0.0609 -0.1276 -0.4027
  808TIP3    H2 2389   3.387   1.273   4.805 -0.0411  0.0229  0.0181
  809TIP3   OH2 2390   3.474   1.315   0.831  0.0415 -0.5662 -0.0871
  809TIP3    H1 2391   3.490   1.406   0.807 -2.1194 -0.8751 -3.4322
  809TIP3    H2 2392   3.544   1.266   0.786 -1.5869 -0.8155 -2.5363
  810TIP3   OH2 2393   4.310   5.099   4.950  0.4274 -0.1682 -0.1058
  810TIP3    H1 2394   4.228   5.062   4.919 -0.0861  1.7987 -1.2531
  810TIP3    H2 2395   4.287   5.140   5.034  0.4772 -0.4510  0.0484
  811TIP3   OH2 2396   3.136   4.727   4.427  0.1368  0.1660 -0.0855
  811TIP3    H1 2397   3.170   4.643   4.393  0.5030  0.2663  0.0225
  811TIP3    H2 2398   3.154   4.723   4.521 -1.7537 -0.5282  0.2799
  812TIP3   OH2 2399   0.657   1.083   2.687  0.8319 -0.1793 -1.1938
  812TIP3    H1 2400   0.737   1.031   2.692  1.4701  0.8479 -0.3132
  812TIP3    H2 2401   0.635   1.083   2.593  2.2844  0.1316 -1.5620
  813TIP3   OH2 2402   0.780   3.431   5.694  0.5838 -0.0482  0.0637
  813TIP3    H1 2403   0.758   3.342   5.669  0.1440  0.3483 -1.0005
  813TIP3    H2 2404   0.695   3.476   5.700  0.8031  0.3106  0.5606
  814TIP3   OH2 2405   0.526   1.434   0.752  0.0922 -0.3066  0.2590
  814TIP3    H1 2406   0.481   1.470   0.828 -0.2700  0.2751 -0.2195
  814TIP3    H2 2407   0.545   1.343   0.776 -1.0972 -0.4871  0.5780
  815TIP3   OH2 2408   4.061   2.932   1.390  0.6802 -0.5330 -0.6085
  815TIP3    H1 2409   4.087   2.894   1.474  0.9704  0.9210 -0.0131
  815TIP3    H2 2410   4.063   2.858   1.329  0.9618 -1.5159  0.5474
  816TIP3   OH2 2411   5.389   1.358   0.740  0.5883  0.3008 -1.1696
  816TIP3    H1 2412   5.450   1.286   0.721  0.1012 -0.9125  1.4206
  816TIP3    H2 2413   5.313   1.340   0.684  1.1987 -0.1409 -1.8884
  817TIP3   OH2 2414   6.678   0.572   1.363  0.0065  0.1391 -0.8160
  817TIP3    H1 2415   6.734   0.634   1.316  0.7514 -1.4825 -2.1547
  817TIP3    H2 2416   6.594   0.617   1.369  0.1521  0.8127 -2.8869
  818TIP3   OH2 2417   2.496   3.545   0.788 -0.0781  0.2388  0.1184
  818TIP3    H1 2418   2.556   3.619   0.779  0.0823  0.1284  0.2729
  818TIP3    H2 2419   2.535   3.476   0.734  0.9006 -0.4349  1.6179
  819TIP3   OH2 2420   0.036   2.461   4.467  0.2254  0.0126 -0.1979
  819TIP3    H1 2421  -0.025   2.521   4.426  0.5603  0.6726  0.2452
  819TIP3    H2 2422   0.104   2.446   4.401  0.3441  0.4335 -0.1709
  820TIP3   OH2 2423   0.390   4.578   5.749  0.3371 -0.1082  0.3279
  820TIP3    H1 2424   0.408   4.657   5.800 -0.8688 -0.3255  1.1248
  820TIP3    H2 2425   0.311   4.600   5.699  1.3645  0.0173 -1.2926
  821TIP3   OH2 2426   6.781   3.422   1.532 -0.2723  0.3545  0.1246
  821TIP3    H1 2427   6.694   3.384   1.522  0.3296 -1.0929  0.1834
  821TIP3    H2 2428   6.793   3.432   1.626 -1.1369  2.4588  0.0542
  822TIP3   OH2 2429   4.722   6.057   4.654  0.7560  0.1271 -0.1715
  822TIP3    H1 2430   4.772   6.114   4.713  1.5769 -0.4245 -0.3093
  822TIP3    H2 2431   4.729   5.970   4.693 -0.4584  0.0982  0.0199
  823TIP3   OH2 2432   4.235   1.944   0.770 -0.3322 -0.3563 -0.1431
  823TIP3    H1 2433   4.252   1.909   0.682 -0.5275 -2.2720  0.5365
  823TIP3    H2 2434   4.151   1.905   0.795  0.1796 -0.6158  1.2564
  824TIP3   OH2 2435   6.385   6.797   1.444 -0.4915  0.1487 -0.0119
  824TIP3    H1 2436   6.354   6.710   1.419 -0.6124 -0.2847  1.5552
  824TIP3    H2 2437   6.308   6.840   1.480 -0.2829  0.6987 -0.2150
  825TIP3   OH2 2438   6.065   2.857   5.095  0.1856 -0.1107 -0.0466
  825TIP3    H1 2439   6.044   2.901   5.177  1.7717 -1.8000  1.3463
  825TIP3    H2 2440   6.019   2.908   5.028 -0.7936  1.5847  1.8137
  826TIP3   OH2 2441   4.265   5.481   1.196 -0.2827  0.1372  0.3719
  826TIP3    H1 2442   4.345   5.506   1.243 -0.9136  1.5263  0.7395
  826TIP3    H2 2443   4.243   5.558   1.144 -0.5959 -0.7463 -0.8672
  827TIP3   OH2 2444   6.399   5.860   5.233  1.0573  0.4132  0.0707
  827TIP3    H1 2445   6.440   5.860   5.146  1.6243 -1.2769  0.2862
  827TIP3    H2 2446   6.473   5.859   5.294  0.8096 -2.2427  0.4770
  828TIP3   OH2 2447   5.086   3.357   0.242  0.1874  0.2789 -0.3781
  828TIP3    H1 2448   5.147   3.323   0.309 -0.3745  1.2126  0.6326
  828TIP3    H2 2449   5.134   3.348   0.160  1.2751 -0.0111  0.2666
  829TIP3   OH2 2450   2.439   1.806   4.770 -0.3789 -0.1348 -0.1375
  829TIP3    H1 2451   2.384   1.880   4.743 -0.5832  1.3674  3.7348
  829TIP3    H2 2452   2.377   1.744   4.809  0.1761 -0.6766 -0.1190
  830TIP3   OH2 2453   2.436   6.110   2.362  0.3856 -0.1074 -0.5816
  830TIP3    H1 2454   2.530   6.116   2.344  0.9005 -1.6515  1.2503
  830TIP3    H2 2455   2.418   6.184   2.420  0.4955  0.0817 -0.7858
  831TIP3   OH2 2456   4.407   0.918   4.596  0.5052 -0.6313 -0.1312
  831TIP3    H1 2457   4.452   0.996   4.630 -0.8370 -0.2399  0.8096
  831TIP3    H2 2458   4.454   0.844   4.635  0.3066 -0.2322  0.8983
  832TIP3   OH2 2459   0.740   1.023   0.052  0.3514  0.0789  0.4398
  832TIP3    H1 2460   0.764   1.034  -0.040 -1.3496  1.6179  0.1194
  832TIP3    H2 2461   0.708   0.933   0.058  0.5323 -0.0582 -0.4664
  833TIP3   OH2 2462   2.981   5.537   1.993 -0.1253 -0.2859 -0.2094
  833TIP3    H1 2463   2.909   5.474   1.998  0.0625 -0.5227 -0.4272
  833TIP3    H2 2464   3.017   5.525   1.905 -0.3955  0.4678 -0.4362
  834TIP3   OH2 2465   5.958   0.736   4.328 -0.5725  0.1158  0.0176
  834TIP3    H1 2466   5.902   0.790   4.273  0.4144  0.6965 -0.4437
  834TIP3    H2 2467   6.046   0.771   4.315 -0.1808 -0.3500  1.2270
  835TIP3   OH2 2468   0.073   3.056   1.405 -0.2680 -0.5233  0.6311
  835TIP3    H1 2469   0.043   3.129   1.460  2.6748  1.3284  0.0211
  835TIP3    H2 2470   0.044   3.079   1.317 -0.1106 -0.5412  0.5740
  836TIP3   OH2 2471   4.774   1.888   1.461 -0.3868 -0.0774 -0.4367
  836TIP3    H1 2472   4.857   1.925   1.433 -0.4024  0.8029  0.6468
  836TIP3    H2 2473   4.783   1.875   1.555 -1.2027 -0.7044 -0.4329
  837TIP3   OH2 2474   5.730   2.972   2.910 -0.5840  0.6209  0.3240
  837TIP3    H1 2475   5.669   2.967   2.837 -0.5067 -0.4131  0.3119
  837TIP3    H2 2476   5.817   2.976   2.869 -0.3681 -2.2170  0.2847
  838TIP3   OH2 2477   6.254   2.557   3.695  0.3374 -0.2244 -0.2508
  838TIP3    H1 2478   6.253   2.581   3.602  1.8109 -0.8669 -0.4637
  838TIP3    H2 2479   6.277   2.464   3.695 -1.2254 -0.6363  0.7090
  839TIP3   OH2 2480   4.090   3.685   3.014 -0.5792  0.1041 -0.1957
  839TIP3    H1 2481   4.141   3.609   3.041 -0.7531  0.5439  1.4997
  839TIP3    H2 2482   4.085   3.679   2.919  2.8002  0.1707 -0.4716
  840TIP3   OH2 2483   6.116   2.850   3.551 -0.4674  0.0675  0.2303
  840TIP3    H1 2484   6.073   2.765   3.560 -1.3717  0.4021 -0.7507
  840TIP3    H2 2485   6.118   2.886   3.640 -1.6592 -0.2292  0.3860
  841TIP3   OH2 2486   2.099   1.376   4.868  0.3217  0.4873 -0.2586
  841TIP3    H1 2487   2.069   1.412   4.951 -0.8905 -0.7210 -0.1312
  841TIP3    H2 2488   2.019   1.367   4.816  0.7805 -0.6452 -0.8002
  842TIP3   OH2 2489   3.002   5.699   3.225 -0.1059 -0.2344 -0.1276
  842TIP3    H1 2490   2.934   5.667   3.284 -0.2677 -0.3421 -0.3695
  842TIP3    H2 2491   3.081   5.701   3.279 -0.1453 -0.8143 -0.0384
  843TIP3   OH2 2492   1.735   1.172   3.264 -0.2939 -0.2574  0.2595
  843TIP3    H1 2493   1.826   1.185   3.288 -0.0678  1.6733 -1.3998
  843TIP3    H2 2494   1.686   1.186   3.346  0.8409 -1.0826  1.1058
  844TIP3   OH2 2495   4.721   5.887   3.706  0.5510  0.8145 -0.1448
  844TIP3    H1 2496   4.652   5.875   3.771  0.5802  1.8268  0.0961
  844TIP3    H2 2497   4.687   5.846   3.627  0.5878 -0.5935  0.5305
  845TIP3   OH2 2498   0.930   4.835   1.967 -0.6143  0.1023  0.8718
  845TIP3    H1 2499   0.885   4.800   2.044  0.8702 -1.8012  0.9329
  845TIP3    H2 2500   0.923   4.766   1.902 -1.2536  1.4172 -0.5211
  846TIP3   OH2 2501   2.193   2.753   0.420 -0.3038  0.0878  0.2741
  846TIP3    H1 2502   2.110   2.760   0.371  0.1715  1.9232 -0.3688
  846TIP3    H2 2503   2.190   2.826   0.482 -0.0925 -1.1439  1.7926
  847TIP3   OH2 2504   6.619   0.945   0.584 -0.5791  0.0985 -0.3441
  847TIP3    H1 2505   6.665   1.020   0.545  0.4279 -0.0662  0.4514
  847TIP3    H2 2506   6.530   0.977   0.601 -0.4411  0.7986 -0.9112
  848TIP3   OH2 2507   3.171   6.274   0.201 -0.0024 -0.0414 -0.0952
  848TIP3    H1 2508   3.104   6.309   0.261 -0.3147  0.7918 -0.9054
  848TIP3    H2 2509   3.123   6.215   0.143 -0.2559  1.2427 -1.2599
  849TIP3   OH2 2510   5.782   1.684   1.472 -0.2398 -0.5969  0.0105
  849TIP3    H1 2511   5.771   1.613   1.535  0.0274 -2.7548 -2.2030
  849TIP3    H2 2512   5.814   1.640   1.392  1.0857  2.1836 -1.1210
  850TIP3   OH2 2513   6.635   1.425   3.877  0.4347  0.0915  0.2313
  850TIP3    H1 2514   6.666   1.363   3.811  2.4863 -0.7698  1.8753
  850TIP3    H2 2515   6.688   1.503   3.863  1.9005 -0.5838  1.6285
  851TIP3   OH2 2516   3.357   5.108   0.130  0.8233  0.1138 -0.3919
  851TIP3    H1 2517   3.374   5.166   0.056  0.7042  0.3002 -0.2717
  851TIP3    H2 2518   3.361   5.020   0.092 -1.1894  0.2551 -1.0206
  852TIP3   OH2 2519   2.336   2.562   4.713 -0.5493 -0.1041  0.5186
  852TIP3    H1 2520   2.266   2.521   4.663 -0.5436  1.0684 -0.4776
  852TIP3    H2 2521   2.309   2.653   4.722  0.0345 -0.0232  1.6249
  853TIP3   OH2 2522   1.095   5.393   0.354  0.9984 -0.2647  0.0249
  853TIP3    H1 2523   1.137   5.315   0.317 -0.7513 -0.8403 -0.8782
  853TIP3    H2 2524   1.054   5.436   0.279 -1.8364 -0.9376  1.0760
  854TIP3   OH2 2525   5.307   5.381   5.505 -0.1285  0.4992  0.0336
  854TIP3    H1 2526   5.282   5.306   5.450 -1.8503  0.4738  0.7779
  854TIP3    H2 2527   5.400   5.395   5.486 -0.5087  0.1051 -2.3861
  855TIP3   OH2 2528   3.619   5.787   2.740  0.1729 -0.5299  0.1680
  855TIP3    H1 2529   3.586   5.849   2.805  0.5022 -1.8690  1.6936
  855TIP3    H2 2530   3.602   5.701   2.779  0.3615 -1.3818 -1.5529
  856TIP3   OH2 2531   4.982   1.427   0.905 -0.7816  0.5353 -0.4420
  856TIP3    H1 2532   5.023   1.345   0.932  0.0468  1.0640 -0.0660
  856TIP3    H2 2533   4.921   1.448   0.976  0.5128  1.2972  0.4789
  857TIP3   OH2 2534   4.292   4.538   3.059 -0.0464  0.4965 -0.1274
  857TIP3    H1 2535   4.222   4.593   3.093  1.3384  1.3586  1.4520
  857TIP3    H2 2536   4.372   4.570   3.102  1.1256 -1.3419 -0.7969
  858TIP3   OH2 2537   1.183   0.769   2.738  0.4649  0.5206  0.0673
  858TIP3    H1 2538   1.143   0.758   2.825 -0.4220  2.4919 -0.0461
  858TIP3    H2 2539   1.221   0.683   2.719  1.8515  0.3530  2.9566
  859TIP3   OH2 2540   5.334   5.029   0.489 -0.0693  0.5307  0.3395
  859TIP3    H1 2541   5.323   5.123   0.503  0.2074  0.9563 -1.9394
  859TIP3    H2 2542   5.262   4.989   0.536 -0.6752  1.9543  0.6562
  860TIP3   OH2 2543   5.779   2.453   1.835 -0.4336 -0.2131 -0.3950
  860TIP3    H1 2544   5.815   2.375   1.793  0.6501  0.2266 -0.3346
  860TIP3    H2 2545   5.771   2.430   1.927  0.2372 -0.1374 -0.3153
  861TIP3   OH2 2546   6.745   1.744   3.566 -0.3462 -0.2669 -0.1232
  861TIP3    H1 2547   6.774   1.692   3.641  1.1254  1.4926  0.5943
  861TIP3    H2 2548   6.653   1.718   3.554 -0.2545 -1.5244  1.4550
  862TIP3   OH2 2549   0.977   2.614   4.483 -0.1363 -0.0377  0.0146
  862TIP3    H1 2550   0.998   2.529   4.446  2.1426 -0.0987  1.2519
  862TIP3    H2 2551   0.921   2.595   4.558  0.2307 -0.4403  0.1884
  863TIP3   OH2 2552   7.132   1.019   4.209  0.1590 -0.0326  0.2791
  863TIP3    H1 2553   7.185   0.951   4.249 -0.0863 -0.7928 -0.6525
  863TIP3    H2 2554   7.098   0.979   4.129 -0.3604  1.0325 -0.0514
  864TIP3   OH2 2555   1.339   0.668   3.650 -0.8036 -0.2670 -0.3480
  864TIP3    H1 2556   1.385   0.588   3.676  0.3983  0.7824  0.8999
  864TIP3    H2 2557   1.259   0.668   3.703  0.1886  0.3568  1.2013
  865TIP3   OH2 2558   1.158   0.447   1.628 -0.1000  0.4704 -0.1524
  865TIP3    H1 2559   1.168   0.366   1.577 -2.4838 -0.3620  0.5998
  865TIP3    H2 2560   1.212   0.433   1.706  0.4006  0.1110 -0.5490
  866TIP3   OH2 2561   2.824   2.087   2.520  0.6823  0.0170 -0.2034
  866TIP3    H1 2562   2.898   2.147   2.512  1.1708 -0.6026 -0.4217
  866TIP3    H2 2563   2.830   2.052   2.608  2.4652 -2.3103 -1.1445
  867TIP3   OH2 2564   6.335   2.623   3.295 -0.0125 -0.3754  0.0494
  867TIP3    H1 2565   6.258   2.680   3.290 -0.2994 -0.5611  1.8115
  867TIP3    H2 2566   6.312   2.547   3.242 -0.5651  0.1001 -0.4052
  868TIP3   OH2 2567   1.416   3.316   1.905 -0.2512 -0.0615 -0.1796
  868TIP3    H1 2568   1.484   3.334   1.840 -0.5170 -2.8269 -1.3304
  868TIP3    H2 2569   1.388   3.403   1.934  3.0687  1.2090 -0.3297
  869TIP3   OH2 2570   6.811   5.025   1.492  0.0256 -0.2446 -0.2510
  869TIP3    H1 2571   6.750   5.081   1.445  0.3519  1.3250  1.1202
  869TIP3    H2 2572   6.864   4.985   1.423 -0.4729  0.8113 -1.2899
  870TIP3   OH2 2573   0.544   4.809   5.186  0.0591 -0.5045 -0.1962
  870TIP3    H1 2574   0.559   4.723   5.147  0.4172 -0.2653 -0.5996
  870TIP3    H2 2575   0.489   4.855   5.123 -0.4011 -0.5442  0.1699
  871TIP3   OH2 2576   5.450   5.976   3.362 -0.1984 -0.4168 -0.3306
  871TIP3    H1 2577   5.410   5.915   3.423  1.0195 -1.8052 -0.8556
  871TIP3    H2 2578   5.444   5.933   3.277 -0.2726  0.6855 -0.9020
  872TIP3   OH2 2579   0.705   5.864   2.230 -0.2836  0.0673  0.5944
  872TIP3    H1 2580   0.776   5.806   2.258 -0.5100  0.1361  1.3167
  872TIP3    H2 2581   0.736   5.952   2.251 -0.2174  0.1663  0.0993
  873TIP3   OH2 2582   4.161   2.725   1.557 -0.0097 -0.2349  0.1738
  873TIP3    H1 2583   4.236   2.674   1.587  0.1293 -0.6767 -0.8821
  873TIP3    H2 2584   4.111   2.664   1.503  0.4808  0.8764 -1.6329
  874TIP3   OH2 2585   5.554   5.709   5.121 -0.0832  0.0514 -0.0284
  874TIP3    H1 2586   5.503   5.783   5.088 -2.6940 -0.0432  3.3446
  874TIP3    H2 2587   5.624   5.750   5.173 -0.8531  0.1823  0.9178
  875TIP3   OH2 2588   0.181   3.224   4.861  0.3035 -0.2734  0.0333
  875TIP3    H1 2589   0.132   3.287   4.914  0.8915  2.3517 -2.2692
  875TIP3    H2 2590   0.267   3.221   4.902 -0.3048 -1.2010  1.3184
  876TIP3   OH2 2591   6.753   2.242   1.375  0.3637  0.3774 -1.0120
  876TIP3    H1 2592   6.691   2.285   1.433  3.2406  2.4032  0.8128
  876TIP3    H2 2593   6.780   2.310   1.313  2.0989  0.1465 -0.5655
  877TIP3   OH2 2594   0.612   2.256   3.736 -0.1214 -0.4922  0.2756
  877TIP3    H1 2595   0.669   2.211   3.674  2.9532  1.8625  1.1108
  877TIP3    H2 2596   0.527   2.258   3.693  1.5208 -0.1219 -3.3307
  878TIP3   OH2 2597   6.602   4.518   2.530  0.5789 -0.2364 -0.0662
  878TIP3    H1 2598   6.611   4.474   2.614 -3.4332 -1.2004  0.1042
  878TIP3    H2 2599   6.646   4.461   2.468  0.2635 -1.5962  0.9166
  879TIP3   OH2 2600   7.220   5.862   2.450 -0.3213  0.6710 -0.6278
  879TIP3    H1 2601   7.196   5.778   2.489  2.7188  0.3183  0.7441
  879TIP3    H2 2602   7.209   5.849   2.355  2.0330 -2.0908 -0.6562
  880TIP3   OH2 2603   0.226   4.680   2.414  0.8661  0.7701 -0.5660
  880TIP3    H1 2604   0.286   4.687   2.488 -0.3476  1.1489  0.3988
  880TIP3    H2 2605   0.234   4.764   2.369 -0.5787  1.7435  0.8754
  881TIP3   OH2 2606   3.426   2.189   0.672  0.7149 -0.5810 -0.2915
  881TIP3    H1 2607   3.380   2.121   0.622 -1.0779  0.0398  0.4475
  881TIP3    H2 2608   3.401   2.271   0.631 -0.8964 -0.0393  1.6034
  882TIP3   OH2 2609   1.465   0.735   0.470  0.2724  0.1032  0.1527
  882TIP3    H1 2610   1.427   0.767   0.552 -1.1822  1.5603 -1.0166
  882TIP3    H2 2611   1.512   0.655   0.495  0.4322  0.8424  2.4924
  883TIP3   OH2 2612   4.711   4.037   1.190 -0.8575  0.3299  0.0122
  883TIP3    H1 2613   4.800   4.062   1.216 -0.8466 -1.0752  1.4952
  883TIP3    H2 2614   4.681   4.108   1.134  0.4226  1.8651  1.1915
  884TIP3   OH2 2615   0.436   5.321   3.922  0.2263  0.1132 -0.3982
  884TIP3    H1 2616   0.511   5.273   3.886  0.3171  0.9888 -1.4176
  884TIP3    H2 2617   0.375   5.327   3.849 -0.5161  0.0652  0.2164
  885TIP3   OH2 2618   4.476   4.335   1.774  0.7813 -0.1745 -0.1624
  885TIP3    H1 2619   4.391   4.314   1.736  0.1242  0.5104  0.8734
  885TIP3    H2 2620   4.480   4.282   1.854  1.4365 -0.3766 -0.3211
  886TIP3   OH2 2621   4.187   0.474   2.523  0.1973  0.3727 -0.2820
  886TIP3    H1 2622   4.223   0.527   2.593 -0.7949 -1.4047  1.6809
  886TIP3    H2 2623   4.159   0.393   2.566 -1.8572 -0.1832 -2.4640
  887TIP3   OH2 2624   3.843   2.246   3.356  0.2192  0.1291  0.5427
  887TIP3    H1 2625   3.809   2.332   3.380 -0.2043  0.2301 -0.3319
  887TIP3    H2 2626   3.853   2.199   3.439 -2.8657 -0.1835  0.8885
  888TIP3   OH2 2627   0.912   1.227   4.045 -0.0113  0.4720  0.0872
  888TIP3    H1 2628   0.828   1.267   4.067 -0.0145  0.7062 -0.3420
  888TIP3    H2 2629   0.976   1.277   4.096 -0.1371  0.2422  0.4767
  889TIP3   OH2 2630   4.453   4.657   2.169  0.0993  0.9694 -0.5041
  889TIP3    H1 2631   4.517   4.596   2.134 -0.5291 -1.8695  2.7773
  889TIP3    H2 2632   4.498   4.700   2.242 -0.4336  2.2697 -0.9044
  890TIP3   OH2 2633   5.074   4.016   0.662  0.2281  0.1560  0.1265
  890TIP3    H1 2634   5.100   3.989   0.750  0.7729 -2.0630 -0.6658
  890TIP3    H2 2635   5.156   4.024   0.614 -0.1785 -1.0333 -0.8030
  891TIP3   OH2 2636   4.522   1.903   1.730  0.1320  0.4924 -0.0963
  891TIP3    H1 2637   4.514   1.977   1.791 -0.7038 -0.5505  1.1075
  891TIP3    H2 2638   4.615   1.879   1.734  0.9045  2.7457 -2.1128
  892TIP3   OH2 2639   5.098   2.556   3.581 -0.3043 -0.5552 -0.6010
  892TIP3    H1 2640   5.186   2.594   3.576 -0.0127 -1.1525 -0.2250
  892TIP3    H2 2641   5.039   2.631   3.576  0.2634  0.2072  2.1113
  893TIP3   OH2 2642   1.070   3.950   5.574  0.1512 -0.3840  0.6127
  893TIP3    H1 2643   1.149   4.001   5.554 -0.1366 -0.6695 -1.4063
  893TIP3    H2 2644   1.011   4.013   5.616  1.1343  0.0171  1.4459
  894TIP3   OH2 2645   6.315   5.904   5.705  0.7125  0.1223 -0.1549
  894TIP3    H1 2646   6.364   5.822   5.701 -1.5646 -1.3606  0.4914
  894TIP3    H2 2647   6.264   5.905   5.624  1.0803  1.1671 -0.3828
  895TIP3   OH2 2648   1.036   0.029   1.861  0.4064  0.4122  0.1363
  895TIP3    H1 2649   1.029  -0.067   1.859  1.1381  0.3594  0.0242
  895TIP3    H2 2650   1.049   0.050   1.954 -0.2674  0.4491  0.2307
  896TIP3   OH2 2651   1.490   4.415   5.302 -0.3074 -0.2302  0.4528
  896TIP3    H1 2652   1.533   4.394   5.385 -1.7596  2.3509  1.9788
  896TIP3    H2 2653   1.396   4.404   5.320 -0.7201  1.4325 -0.4771
  897TIP3   OH2 2654   5.057   6.656   3.862  0.5926 -0.0053 -0.2428
  897TIP3    H1 2655   5.099   6.724   3.810 -1.6267  2.0213  0.4070
  897TIP3    H2 2656   5.109   6.650   3.942  0.0173  2.1264  0.3612
  898TIP3   OH2 2657   6.108   0.657   3.744  0.3297 -0.0709  0.3915
  898TIP3    H1 2658   6.185   0.611   3.710 -1.0146 -1.4533 -0.9454
  898TIP3    H2 2659   6.089   0.725   3.679  0.3361  0.2004  0.6652
  899TIP3   OH2 2660   4.650   4.768   5.149  0.8624 -0.5810  0.7672
  899TIP3    H1 2661   4.587   4.697   5.163 -0.6509 -0.5427 -4.1198
  899TIP3    H2 2662   4.597   4.848   5.150  1.8514  0.0909  2.0946
  900TIP3   OH2 2663   2.677   3.259   2.280  0.1993  0.4181 -0.2560
  900TIP3    H1 2664   2.741   3.328   2.263 -0.5278  0.9744 -0.8150
  900TIP3    H2 2665   2.720   3.178   2.252  0.7714  0.7402 -0.3172
  901TIP3   OH2 2666   4.915   2.017   0.419  0.3492 -0.3988 -0.3436
  901TIP3    H1 2667   4.864   1.958   0.475 -0.5435  0.6019 -0.0510
  901TIP3    H2 2668   4.870   2.101   0.427  1.8396  0.4375 -0.3996
  902TIP3   OH2 2669   7.060   2.512   3.602  0.2415 -0.2878  0.0417
  902TIP3    H1 2670   7.043   2.586   3.543  1.8764  0.3040  0.2540
  902TIP3    H2 2671   7.112   2.550   3.674 -1.9710 -0.9082  2.0855
  903TIP3   OH2 2672   5.750   5.157   0.215 -0.0691  0.0688 -0.3860
  903TIP3    H1 2673   5.828   5.137   0.268  0.0082  1.2403 -0.0168
  903TIP3    H2 2674   5.677   5.130   0.269  0.0404  0.4607 -0.0322
  904TIP3   OH2 2675   1.795   5.455   1.584  0.3552  0.1023 -0.0523
  904TIP3    H1 2676   1.752   5.528   1.629 -1.5046 -1.3853  0.7059
  904TIP3    H2 2677   1.732   5.427   1.518 -0.0169 -2.2322  1.1815
  905TIP3   OH2 2678   6.779   4.658   2.177  0.0811 -0.0185 -0.5885
  905TIP3    H1 2679   6.836   4.730   2.202 -0.3346  0.0586  0.1606
  905TIP3    H2 2680   6.710   4.658   2.243 -0.3952 -0.5602 -1.0729
  906TIP3   OH2 2681   3.053   1.802   3.465  0.0329 -0.0379  0.9177
  906TIP3    H1 2682   2.982   1.836   3.520 -2.0250 -0.7608 -1.1229
  906TIP3    H2 2683   3.045   1.707   3.473  0.6661 -0.1250  0.5304
  907TIP3   OH2 2684   6.281   0.578   1.578 -0.3030 -0.7798 -0.3842
  907TIP3    H1 2685   6.370   0.579   1.614 -0.4166  1.2043 -0.0406
  907TIP3    H2 2686   6.240   0.501   1.618 -0.0012  0.5407  2.7468
  908TIP3   OH2 2687   2.369   1.618   1.991 -0.5859 -0.2736 -0.3593
  908TIP3    H1 2688   2.321   1.678   2.048  0.9324 -0.0460  0.7401
  908TIP3    H2 2689   2.427   1.675   1.940  1.8753 -0.7717  1.6643
  909TIP3   OH2 2690   1.831   1.229   4.810  0.3254  0.0955  0.1218
  909TIP3    H1 2691   1.740   1.204   4.799  0.4743 -0.1507 -0.6225
  909TIP3    H2 2692   1.863   1.174   4.882 -0.3343  0.7983  0.9769
  910TIP3   OH2 2693   0.317   3.698   3.170 -0.0705 -0.7487  0.6981
  910TIP3    H1 2694   0.285   3.732   3.087 -1.2338 -1.0188  1.0198
  910TIP3    H2 2695   0.404   3.738   3.181 -0.8978  1.2094  0.5138
  911TIP3   OH2 2696   2.460   6.081   0.241 -0.1677  0.6438  0.0665
  911TIP3    H1 2697   2.452   6.157   0.298 -1.0161 -0.0088  0.8413
  911TIP3    H2 2698   2.534   6.032   0.276  0.4865  1.1867 -0.5361
  912TIP3   OH2 2699   6.667   3.527   3.502  0.3725  0.0171  0.0120
  912TIP3    H1 2700   6.663   3.600   3.441  0.4637 -0.9740 -1.2426
  912TIP3    H2 2701   6.706   3.456   3.450  1.6667 -0.4962  1.6104
  913TIP3   OH2 2702   1.831   3.735   2.004  0.7469  0.2682  0.0048
  913TIP3    H1 2703   1.750   3.697   2.037  0.2153  0.6625 -0.8033
  913TIP3    H2 2704   1.898   3.705   2.064 -0.1823  1.0033  1.4609
  914TIP3   OH2 2705   1.656   0.116   5.799  0.0386 -0.4207  0.4547
  914TIP3    H1 2706   1.744   0.084   5.779  0.5972  0.5943  1.1534
  914TIP3    H2 2707   1.633   0.073   5.881 -0.3961 -1.1802 -0.0577
  915TIP3   OH2 2708   6.029   2.672   1.714  0.4656  0.1333 -0.2321
  915TIP3    H1 2709   6.064   2.599   1.662  0.4689  0.2916 -0.4534
  915TIP3    H2 2710   6.039   2.643   1.805  1.1572  0.1625 -0.2913
  916TIP3   OH2 2711   3.560   3.149   3.411 -0.0037 -0.5724 -0.2443
  916TIP3    H1 2712   3.630   3.182   3.355 -0.9364  0.6759 -0.7158
  916TIP3    H2 2713   3.492   3.216   3.407 -0.9230 -1.4000  0.8021
  917TIP3   OH2 2714   4.901   2.210   4.998  0.0831 -0.3536  0.4292
  917TIP3    H1 2715   4.830   2.245   5.052  0.1516 -0.6410  0.7123
  917TIP3    H2 2716   4.929   2.284   4.945 -0.7206 -0.3468 -0.0044
  918TIP3   OH2 2717   6.330   0.992   2.509 -0.1212 -0.0343  0.3756
  918TIP3    H1 2718   6.411   0.997   2.459 -0.8078  2.4020 -0.6299
  918TIP3    H2 2719   6.343   0.918   2.568  2.3855 -0.3802 -0.4913
  919TIP3   OH2 2720   3.941   2.290   0.044 -0.2432  0.6582  0.3150
  919TIP3    H1 2721   3.949   2.197   0.065  0.4509  0.2787 -1.3933
  919TIP3    H2 2722   3.847   2.308   0.046 -0.4467 -0.3016 -0.1099
  920TIP3   OH2 2723   2.757   0.648   3.106  0.0761 -0.8253 -0.4343
  920TIP3    H1 2724   2.770   0.553   3.104  2.0157 -0.6007 -0.5533
  920TIP3    H2 2725   2.832   0.681   3.156 -0.5004  0.6674 -0.5157
  921TIP3   OH2 2726   1.418   4.860   3.854  0.2668 -0.2171  0.5186
  921TIP3    H1 2727   1.497   4.835   3.806 -0.0514  1.1254 -0.7751
  921TIP3    H2 2728   1.408   4.953   3.837 -0.9100 -0.0864  1.7138
  922TIP3   OH2 2729   2.839   3.199   0.101 -0.1099 -0.0128  0.1769
  922TIP3    H1 2730   2.794   3.131   0.151  0.4994 -0.6666 -0.1563
  922TIP3    H2 2731   2.769   3.259   0.074 -0.8274 -1.1453 -0.5437
  923TIP3   OH2 2732   0.698   0.449   2.909  0.2468 -0.2000 -0.5204
  923TIP3    H1 2733   0.705   0.539   2.876  1.0957 -0.3482 -0.7661
  923TIP3    H2 2734   0.780   0.408   2.884 -0.1255 -1.0462 -0.3845
  924TIP3   OH2 2735   0.910   5.461   1.354 -0.0631 -0.1935  0.6540
  924TIP3    H1 2736   0.852   5.531   1.324 -0.1585 -0.1243  0.9958
  924TIP3    H2 2737   0.976   5.453   1.285 -0.3909 -0.1683  0.3361
  925TIP3   OH2 2738   2.357   5.406   3.830 -0.7610 -0.0960 -0.4555
  925TIP3    H1 2739   2.315   5.409   3.744 -0.0886 -0.0656 -0.7890
  925TIP3    H2 2740   2.284   5.411   3.893 -1.3388 -1.0478 -1.0113
  926TIP3   OH2 2741   4.862   1.168   5.465 -0.0850 -0.1656  0.2383
  926TIP3    H1 2742   4.953   1.172   5.493 -0.1120 -0.2558  0.3387
  926TIP3    H2 2743   4.866   1.162   5.369  0.0404 -1.1005  0.2939
  927TIP3   OH2 2744   3.314   6.001   1.751  0.4569 -0.4148 -0.4844
  927TIP3    H1 2745   3.399   5.972   1.784  0.4646 -1.6428 -1.5217
  927TIP3    H2 2746   3.253   5.932   1.778  0.2582 -0.8376 -1.9696
  928TIP3   OH2 2747   5.194   0.172   4.464  0.2666 -0.0554 -0.5226
  928TIP3    H1 2748   5.160   0.222   4.538  0.5730  0.4891 -0.7457
  928TIP3    H2 2749   5.208   0.237   4.395  1.2292 -0.3471 -0.6204
  929TIP3   OH2 2750   6.491   5.546   3.517 -0.2707 -0.2670 -0.8436
  929TIP3    H1 2751   6.520   5.468   3.469  0.5525 -2.0091  2.2023
  929TIP3    H2 2752   6.553   5.554   3.589 -1.3527  2.2522 -0.0826
  930TIP3   OH2 2753   4.033   0.692   5.574  0.0809  0.1683  0.3113
  930TIP3    H1 2754   3.987   0.623   5.525 -1.4967  0.4922  1.2606
  930TIP3    H2 2755   3.987   0.772   5.550  1.7171  0.8803 -0.5508
  931TIP3   OH2 2756   3.958   6.613   4.905  0.3005  0.0128 -0.0207
  931TIP3    H1 2757   3.871   6.644   4.928  0.8912  0.0805  2.3175
  931TIP3    H2 2758   3.963   6.626   4.810 -1.8788  0.8579 -0.0768
  932TIP3   OH2 2759   6.779   0.281   5.031  0.8404 -0.3145 -0.0688
  932TIP3    H1 2760   6.875   0.284   5.029  0.8093  1.5899 -0.5320
  932TIP3    H2 2761   6.753   0.367   5.065 -0.7400  1.0748 -4.1457
  933TIP3   OH2 2762   3.464   5.385   4.508  0.0977 -0.0248  0.5305
  933TIP3    H1 2763   3.520   5.309   4.527  0.1477 -0.0780  0.1637
  933TIP3    H2 2764   3.510   5.459   4.548 -0.2235 -0.2659  1.3746
  934TIP3   OH2 2765   2.131   0.129   0.911  0.3967  0.3552 -0.2478
  934TIP3    H1 2766   2.035   0.131   0.914  0.3105  0.2784 -1.7945
  934TIP3    H2 2767   2.156   0.219   0.890  0.7847  0.7245  1.6163
  935TIP3   OH2 2768   6.635   2.609   0.122  0.0323 -0.8429 -0.1745
  935TIP3    H1 2769   6.643   2.538   0.185  0.2366  0.1485  0.9524
  935TIP3    H2 2770   6.561   2.661   0.155 -0.0615 -0.4859 -0.9342
  936TIP3   OH2 2771   5.183   4.710   5.378  0.3407 -0.6424  0.2486
  936TIP3    H1 2772   5.266   4.662   5.372  0.3053 -0.5434 -1.4579
  936TIP3    H2 2773   5.116   4.645   5.358  0.0369 -0.5713  0.9907
  937TIP3   OH2 2774   1.291   0.357   4.703  0.9106 -0.2289  0.4043
  937TIP3    H1 2775   1.371   0.392   4.743  0.9140 -2.3975  2.4765
  937TIP3    H2 2776   1.321   0.312   4.624  1.5714  0.0218  0.5093
  938TIP3   OH2 2777   0.447   5.468   3.373  0.1766 -0.1150 -0.0471
  938TIP3    H1 2778   0.498   5.425   3.442 -1.4764 -0.5966  0.9466
  938TIP3    H2 2779   0.409   5.545   3.416  0.2646  0.3837 -0.8365
  939TIP3   OH2 2780   5.100   1.431   3.463 -0.3562  0.1338 -0.0862
  939TIP3    H1 2781   5.133   1.386   3.385 -0.7391  0.9627 -0.7409
  939TIP3    H2 2782   5.033   1.490   3.429 -2.2405 -1.1926  1.1448
  940TIP3   OH2 2783   6.257   6.390   5.147 -0.0484  0.3227  0.7701
  940TIP3    H1 2784   6.294   6.308   5.179 -0.6406 -0.1928  0.1535
  940TIP3    H2 2785   6.253   6.446   5.225  0.9158 -0.0088  1.0802
  941TIP3   OH2 2786   3.368   4.137   5.177  0.2670  0.4749 -0.0689
  941TIP3    H1 2787   3.386   4.140   5.083  3.6162 -0.8816  0.3927
  941TIP3    H2 2788   3.421   4.208   5.214  0.9385 -0.5311  0.9757
  942TIP3   OH2 2789   3.800   1.140   2.599 -0.1218 -0.1269  0.3325
  942TIP3    H1 2790   3.743   1.086   2.654 -2.1740 -0.0375 -1.5475
  942TIP3    H2 2791   3.789   1.229   2.632 -0.8247 -0.1630  0.2140
  943TIP3   OH2 2792   6.645   6.448   1.681  0.2139 -0.5130 -0.1356
  943TIP3    H1 2793   6.655   6.492   1.765  0.1878 -1.6480  0.4767
  943TIP3    H2 2794   6.723   6.474   1.631  0.4731 -0.2211  0.4091
  944TIP3   OH2 2795   4.072   5.864   0.052 -0.4435  0.7674 -0.5401
  944TIP3    H1 2796   4.105   5.915  -0.021 -0.8018  1.0249 -0.5272
  944TIP3    H2 2797   3.977   5.860   0.037 -0.5013  0.7032 -0.1652
  945TIP3   OH2 2798   5.492   4.907   1.447 -0.2729  0.5256 -0.3578
  945TIP3    H1 2799   5.575   4.946   1.473 -1.5110  2.7979  0.5016
  945TIP3    H2 2800   5.454   4.874   1.528  0.0030 -1.0274 -0.8315
  946TIP3   OH2 2801   6.252   3.989   0.302 -0.0518  0.3728 -0.1531
  946TIP3    H1 2802   6.231   4.046   0.375  1.5393 -0.8735  1.3724
  946TIP3    H2 2803   6.267   4.048   0.229 -1.9070  1.6427  0.4088
  947TIP3   OH2 2804   2.093   4.810   1.270 -0.3062  0.1158 -0.3117
  947TIP3    H1 2805   2.091   4.829   1.364 -2.2243  1.9079 -0.6478
  947TIP3    H2 2806   2.133   4.888   1.231 -1.6569  0.4157 -1.1564
  948TIP3   OH2 2807   7.206   2.226   0.383  0.3332 -0.7148 -0.1309
  948TIP3    H1 2808   7.244   2.191   0.464  0.9895 -0.4578 -0.3199
  948TIP3    H2 2809   7.120   2.257   0.408  1.3397  1.3916  0.9756
  949TIP3   OH2 2810   4.475   5.150   4.263  0.0011 -0.0985  0.4028
  949TIP3    H1 2811   4.537   5.201   4.316  1.5932 -0.9419 -0.5900
  949TIP3    H2 2812   4.503   5.165   4.173 -1.3375 -0.4089 -0.0794
  950TIP3   OH2 2813   6.062   2.421   0.482 -0.2987 -0.0744  0.0251
  950TIP3    H1 2814   5.991   2.357   0.485 -0.6657  0.3026 -0.3695
  950TIP3    H2 2815   6.116   2.393   0.408 -0.0066 -0.3855  0.3514
  951TIP3   OH2 2816   1.984   0.724   1.814  0.2821  0.0212 -0.3628
  951TIP3    H1 2817   1.905   0.743   1.864  0.0134  1.2327 -1.1879
  951TIP3    H2 2818   2.037   0.669   1.872 -0.8447 -0.2213  0.4750
  952TIP3   OH2 2819   3.942   0.665   2.927  0.1743 -0.3366  0.0570
  952TIP3    H1 2820   3.969   0.739   2.874  0.7530 -2.0495 -2.1966
  952TIP3    H2 2821   4.019   0.643   2.980 -0.2910  1.1470  1.4389
  953TIP3   OH2 2822   2.390   4.833   5.573  0.3562 -0.5111 -0.6016
  953TIP3    H1 2823   2.387   4.859   5.481  0.8057 -0.6957 -0.6691
  953TIP3    H2 2824   2.467   4.877   5.609 -1.7334  2.4957  0.6100
  954TIP3   OH2 2825   1.883   0.952   1.686 -0.0475  0.4889  0.2696
  954TIP3    H1 2826   1.899   0.931   1.594 -0.1150 -0.7183  0.5076
  954TIP3    H2 2827   1.923   0.879   1.733 -1.2201  0.3877  1.1324
  955TIP3   OH2 2828   2.246   1.243   1.807 -0.3501 -0.2878 -0.1670
  955TIP3    H1 2829   2.152   1.258   1.811 -0.6091 -1.5537 -0.9282
  955TIP3    H2 2830   2.278   1.306   1.743 -1.0711 -1.4773 -1.7439
  956TIP3   OH2 2831   3.178   2.562   0.310  0.3311 -0.3772 -0.4769
  956TIP3    H1 2832   3.090   2.592   0.331  1.2512  1.4979  0.9944
  956TIP3    H2 2833   3.166   2.504   0.234 -2.4371 -2.2567  1.1951
  957TIP3   OH2 2834   4.802   4.419   0.075  0.0148  0.1012 -0.7019
  957TIP3    H1 2835   4.757   4.430  -0.009 -1.1709  0.1491 -0.0779
  957TIP3    H2 2836   4.837   4.330   0.072 -2.0923 -0.8006 -0.3228
  958TIP3   OH2 2837   1.862   1.410   4.260 -0.3612 -0.1111 -0.1876
  958TIP3    H1 2838   1.832   1.498   4.285 -0.3182 -0.0875 -0.2198
  958TIP3    H2 2839   1.946   1.401   4.303  1.1060  1.0450 -2.5967
  959TIP3   OH2 2840   4.980   1.609   0.124 -0.0104  0.3163  0.3254
  959TIP3    H1 2841   4.911   1.597   0.059 -0.2423 -1.3062  0.8204
  959TIP3    H2 2842   4.955   1.688   0.171  0.0073  1.3668 -1.3252
  960TIP3   OH2 2843   3.643   2.396   0.168  0.2412 -0.2990  0.0757
  960TIP3    H1 2844   3.662   2.308   0.136 -0.4665 -0.3209 -0.3143
  960TIP3    H2 2845   3.574   2.428   0.110  1.9103  1.3273 -1.1474
  961TIP3   OH2 2846   5.799   0.596   5.533 -0.5097 -0.2386  0.5292
  961TIP3    H1 2847   5.747   0.598   5.452  0.5697 -0.8464 -0.2099
  961TIP3    H2 2848   5.856   0.673   5.525  0.9717 -1.3722 -0.2659
  962TIP3   OH2 2849   0.459   4.002   4.965 -0.6190  0.4596 -0.3194
  962TIP3    H1 2850   0.394   4.040   5.023 -0.8837 -0.0077 -0.2996
  962TIP3    H2 2851   0.408   3.962   4.895 -0.3281  0.5368 -0.5779
  963TIP3   OH2 2852   6.958   4.904   0.292 -0.2207  0.2835  0.2624
  963TIP3    H1 2853   6.903   4.932   0.219  1.3332 -0.1058 -1.1159
  963TIP3    H2 2854   7.043   4.944   0.275 -0.3490  1.9856  3.0609
  964TIP3   OH2 2855   5.738   1.227   4.692  0.8429  0.7380  0.8632
  964TIP3    H1 2856   5.779   1.205   4.776 -1.1996 -1.7259  1.3187
  964TIP3    H2 2857   5.803   1.202   4.626  1.4211  0.1856  1.6304
  965TIP3   OH2 2858   4.661   4.928   5.778  0.6609 -0.3993 -0.9674
  965TIP3    H1 2859   4.741   4.971   5.747  1.1632 -0.9881 -0.5149
  965TIP3    H2 2860   4.677   4.835   5.765  0.8244 -0.6717  0.8264
  966TIP3   OH2 2861   1.329   6.749   4.372  0.7610 -0.1624  0.4286
  966TIP3    H1 2862   1.382   6.714   4.444  0.0901 -0.5270  0.7502
  966TIP3    H2 2863   1.326   6.677   4.309  0.4288 -0.2353  0.5284
  967TIP3   OH2 2864   5.316   1.258   2.166 -0.0196 -0.0502 -0.2267
  967TIP3    H1 2865   5.412   1.258   2.173  0.1053 -2.7266 -0.8072
  967TIP3    H2 2866   5.299   1.265   2.072 -0.5812  2.9494 -0.0245
  968TIP3   OH2 2867   6.428   4.564   5.569  0.1196 -0.5873  0.2102
  968TIP3    H1 2868   6.381   4.625   5.627  2.2104 -0.9992  2.4671
  968TIP3    H2 2869   6.510   4.608   5.550  0.4156 -1.4601 -0.5924
  969TIP3   OH2 2870   5.391   5.856   2.288  0.1768 -0.0554  0.3016
  969TIP3    H1 2871   5.321   5.920   2.304  1.3533  1.1781  0.7615
  969TIP3    H2 2872   5.430   5.841   2.375 -0.4832 -1.9311  0.3180
  970TIP3   OH2 2873   0.146   6.347   0.030 -0.1360 -0.0189 -0.0551
  970TIP3    H1 2874   0.204   6.371   0.103  0.1895  0.3104 -0.4131
  970TIP3    H2 2875   0.071   6.406   0.039  0.1423  0.3760 -0.2786
  971TIP3   OH2 2876   6.725   6.343   2.905  0.2582 -0.7235  0.7690
  971TIP3    H1 2877   6.685   6.419   2.861  0.6090 -1.9266 -1.8463
  971TIP3    H2 2878   6.689   6.345   2.993 -2.6274  0.4078 -0.3146
  972TIP3   OH2 2879   1.672   2.040   0.246  0.0576  0.1106 -0.4524
  972TIP3    H1 2880   1.619   2.053   0.324 -0.2953  1.5398 -0.9046
  972TIP3    H2 2881   1.644   1.955   0.212 -1.8423  0.7564 -0.5921
  973TIP3   OH2 2882   0.794   6.149   2.152 -0.4968  0.3713  0.6467
  973TIP3    H1 2883   0.744   6.228   2.173 -0.5212  0.3343  0.7309
  973TIP3    H2 2884   0.751   6.113   2.074  0.6892  1.4819 -0.5643
  974TIP3   OH2 2885   1.160   5.852   0.209  0.1634  0.4721  0.9670
  974TIP3    H1 2886   1.124   5.787   0.270 -2.0616  1.5619  0.9121
  974TIP3    H2 2887   1.223   5.902   0.262  2.0953 -1.7404  0.9593
  975TIP3   OH2 2888   1.567   5.608   3.911 -0.0222  0.2041  0.4438
  975TIP3    H1 2889   1.503   5.549   3.952  2.1578 -2.2745  0.5652
  975TIP3    H2 2890   1.616   5.645   3.985 -0.4771  1.1303  0.2976
  976TIP3   OH2 2891   2.964   6.421   2.006  0.3351 -0.0317  0.4421
  976TIP3    H1 2892   2.955   6.389   2.096 -0.9177 -2.3315 -0.4280
  976TIP3    H2 2893   3.040   6.375   1.972  0.5418  0.5060  0.1615
  977TIP3   OH2 2894   3.872   4.040   1.074  0.4281  0.3645 -0.1498
  977TIP3    H1 2895   3.941   3.980   1.099  0.7841  0.6720 -0.3869
  977TIP3    H2 2896   3.878   4.111   1.138 -1.2771 -0.7901  1.3715
  978TIP3   OH2 2897   3.536   2.518   3.369 -0.0900 -0.2855 -0.3918
  978TIP3    H1 2898   3.564   2.507   3.460  0.2817 -0.5194 -0.5345
  978TIP3    H2 2899   3.510   2.610   3.363 -2.0145 -0.7257  0.4686
  979TIP3   OH2 2900   3.142   0.918   5.311 -0.2042  0.0811  0.0970
  979TIP3    H1 2901   3.063   0.882   5.272  0.4097  0.7766 -1.9418
  979TIP3    H2 2902   3.193   0.842   5.337 -1.2862 -0.3785  0.9497
  980TIP3   OH2 2903   2.538   2.692   4.852  0.1052  0.2002  0.5698
  980TIP3    H1 2904   2.582   2.615   4.889 -1.1343 -0.1241  1.4131
  980TIP3    H2 2905   2.457   2.657   4.814 -1.6242  1.3408  2.9756
  981TIP3   OH2 2906   6.903   6.543   1.618 -0.6781 -0.4659 -0.1686
  981TIP3    H1 2907   6.954   6.573   1.543 -0.7350 -0.7484 -0.3230
  981TIP3    H2 2908   6.854   6.621   1.647 -0.2599 -0.2265 -0.0951
  982TIP3   OH2 2909   1.494   2.591   5.510  0.0263  0.0866  0.4281
  982TIP3    H1 2910   1.406   2.628   5.520 -0.4103  0.0743 -2.5345
  982TIP3    H2 2911   1.490   2.544   5.427  1.9208 -2.7180  1.7809
  983TIP3   OH2 2912   2.796   5.120   1.590  0.1585 -0.2265 -0.0221
  983TIP3    H1 2913   2.757   5.207   1.588 -1.2804 -0.7744  1.5678
  983TIP3    H2 2914   2.791   5.089   1.499 -0.3344  0.8959 -0.3916
  984TIP3   OH2 2915   4.379   2.062   1.930  0.2224  0.1173 -0.1441
  984TIP3    H1 2916   4.402   2.012   2.008 -0.1909 -0.7843 -0.5882
  984TIP3    H2 2917   4.298   2.107   1.954 -0.5933 -1.1404 -0.4470
  985TIP3   OH2 2918   6.137   4.584   4.832 -0.6874 -0.4319 -0.1605
  985TIP3    H1 2919   6.200   4.619   4.769  0.2192 -0.1014  0.9043
  985TIP3    H2 2920   6.151   4.635   4.911 -3.4682  0.8198 -0.3603
  986TIP3   OH2 2921   6.587   0.317   5.339  0.0807  0.1246  0.2631
  986TIP3    H1 2922   6.631   0.398   5.313 -0.5935 -0.5028 -3.2746
  986TIP3    H2 2923   6.493   0.339   5.335 -0.0783 -0.3421  1.1716
  987TIP3   OH2 2924   6.046   6.634   4.598  0.4004  0.2722  0.3247
  987TIP3    H1 2925   6.001   6.691   4.661  0.3665 -0.2804  0.8120
  987TIP3    H2 2926   5.975   6.591   4.550  0.3232 -1.6630  2.0448
  988TIP3   OH2 2927   3.246   4.045   0.498 -0.5667 -0.5505 -0.5078
  988TIP3    H1 2928   3.199   4.045   0.582 -0.2572 -0.4189 -0.3333
  988TIP3    H2 2929   3.297   3.964   0.499 -0.1879 -0.3137 -0.3546
  989TIP3   OH2 2930   2.814   0.972   4.315 -0.1708  0.0710 -0.4202
  989TIP3    H1 2931   2.859   0.901   4.362 -0.4632  0.7702  0.9465
  989TIP3    H2 2932   2.883   1.012   4.262  0.4853  0.1272  0.4495
  990TIP3   OH2 2933   6.317   5.199   5.496  0.4681  0.7464 -0.2628
  990TIP3    H1 2934   6.372   5.277   5.489  1.5243 -0.0849 -2.0670
  990TIP3    H2 2935   6.280   5.188   5.409 -0.6895 -0.0724  0.3025
  991TIP3   OH2 2936   3.390   0.947   3.942 -0.5417 -0.0242 -0.3323
  991TIP3    H1 2937   3.364   1.038   3.930  0.8917  0.4611  0.0259
  991TIP3    H2 2938   3.386   0.908   3.855  1.4930  1.1515 -1.0272
  992TIP3   OH2 2939   0.280   3.774   2.394  0.1066 -0.7997 -0.1426
  992TIP3    H1 2940   0.215   3.709   2.423  0.4781 -0.8899  0.5071
  992TIP3    H2 2941   0.292   3.831   2.470  1.3789 -1.2675  0.0286
  993TIP3   OH2 2942   0.478   3.115   5.790 -0.3498  0.0666  0.5610
  993TIP3    H1 2943   0.493   3.020   5.793  0.2036  0.1704  2.5136
  993TIP3    H2 2944   0.561   3.151   5.760 -0.9674 -0.0937 -1.5035
  994TIP3   OH2 2945   3.591   0.788   4.595  0.1705 -0.8620 -0.7862
  994TIP3    H1 2946   3.501   0.801   4.625  0.9664  0.3524  1.3370
  994TIP3    H2 2947   3.591   0.820   4.505 -1.6282 -1.3984 -1.0096
  995TIP3   OH2 2948   1.235   2.823   3.270  0.1236  0.3568 -0.0997
  995TIP3    H1 2949   1.250   2.909   3.230 -1.8343  0.4887 -0.6767
  995TIP3    H2 2950   1.315   2.804   3.319  1.4059  1.5661 -1.6468
  996TIP3   OH2 2951   5.228   1.018   3.013 -0.1012  0.2782 -0.0628
  996TIP3    H1 2952   5.274   0.982   3.088  0.5217 -0.3123 -0.7171
  996TIP3    H2 2953   5.142   0.975   3.014  0.4523 -0.8755 -0.5466
  997TIP3   OH2 2954   4.277   5.423   0.255 -0.0912 -0.2780  0.0842
  997TIP3    H1 2955   4.208   5.371   0.296 -1.4005  1.0054 -0.4191
  997TIP3    H2 2956   4.336   5.358   0.216 -1.2407 -1.4059  0.1624
  998TIP3   OH2 2957   4.657   2.795   1.828  0.2963 -1.0434  0.0481
  998TIP3    H1 2958   4.599   2.726   1.797 -0.2990 -0.2187 -0.7483
  998TIP3    H2 2959   4.650   2.792   1.924 -1.5563 -0.5880 -0.0327
  999TIP3   OH2 2960   0.508   5.366   5.473  0.7092  0.5048  0.1802
  999TIP3    H1 2961   0.535   5.304   5.541 -0.0091  1.3657  1.2788
  999TIP3    H2 2962   0.516   5.316   5.391  1.6333 -0.5394  0.8751
 1000TIP3   OH2 2963   1.406   6.394   0.116  0.0259 -0.1190  0.4528
 1000TIP3    H1 2964   1.446   6.341   0.185  0.1902 -0.5790  0.0151
 1000TIP3    H2 2965   1.461   6.377   0.039 -0.7470 -0.4109 -0.0437
 1001TIP3   OH2 2966   2.149   5.468   0.773 -0.2884  0.0050  0.4163
 1001TIP3    H1 2967   2.210   5.424   0.715  0.2304 -0.2203  1.1208
 1001TIP3    H2 2968   2.126   5.549   0.726 -0.5223 -0.5526 -0.4574
 1002TIP3   OH2 2969   2.030   6.795   0.022  0.0713 -0.2405 -0.0597
 1002TIP3    H1 2970   2.109   6.770   0.071  0.1062  0.3319  0.1779
 1002TIP3    H2 2971   1.958   6.778   0.083 -0.0688 -1.4344 -0.5170
 1003TIP3   OH2 2972   2.137   3.217   5.314  0.0495 -0.1901  0.0377
 1003TIP3    H1 2973   2.062   3.269   5.289 -0.3480 -0.5012  0.5619
 1003TIP3    H2 2974   2.109   3.126   5.302 -0.1824 -0.3587  1.6153
 1004TIP3   OH2 2975   3.739   3.240   4.437 -0.2714 -0.2426  0.0649
 1004TIP3    H1 2976   3.781   3.324   4.420 -1.4235  0.5384  0.9296
 1004TIP3    H2 2977   3.665   3.261   4.493 -0.4595 -1.8740  0.4782
 1005TIP3   OH2 2978   1.693   5.694   4.967  0.1187 -0.1081 -0.0829
 1005TIP3    H1 2979   1.755   5.767   4.960 -0.6477  0.4230 -2.4940
 1005TIP3    H2 2980   1.627   5.726   5.028  0.9032  0.3311  0.5645
 1006TIP3   OH2 2981   1.194   0.519   4.311 -0.1978  0.5291  0.0042
 1006TIP3    H1 2982   1.198   0.540   4.217 -2.0307 -1.6836 -0.6376
 1006TIP3    H2 2983   1.134   0.446   4.317  1.5811 -0.8828  2.6934
 1007TIP3   OH2 2984   3.560   5.891   2.472  0.7755  0.2727  0.4613
 1007TIP3    H1 2985   3.590   5.866   2.559 -1.5445 -2.0760  0.7102
 1007TIP3    H2 2986   3.467   5.908   2.482  0.4588 -0.0298 -1.5502
 1008TIP3   OH2 2987   5.319   0.139   2.177 -0.3200 -0.8639  0.4229
 1008TIP3    H1 2988   5.231   0.103   2.189 -0.6631 -1.5197 -3.0299
 1008TIP3    H2 2989   5.367   0.069   2.132  2.2178 -0.7133  2.6191
 1009TIP3   OH2 2990   2.348   1.210   4.084  0.5045  0.2032 -0.2362
 1009TIP3    H1 2991   2.351   1.236   4.176  2.8727  2.1352 -0.7448
 1009TIP3    H2 2992   2.421   1.149   4.075 -0.5055 -0.9774 -0.6053
 1010TIP3   OH2 2993   4.596   1.512   2.770  0.6287  0.5945  0.3847
 1010TIP3    H1 2994   4.605   1.599   2.732 -0.9842  1.3096  1.5062
 1010TIP3    H2 2995   4.574   1.528   2.862  0.8889 -1.0099  0.7500
 1011TIP3   OH2 2996   6.613   4.480   3.508 -0.3185  0.1037 -0.2622
 1011TIP3    H1 2997   6.625   4.500   3.601 -1.4131 -0.3427 -0.0146
 1011TIP3    H2 2998   6.699   4.497   3.469 -0.3165  2.1042  0.4978
 1012TIP3   OH2 2999   5.378   1.108   1.354 -0.7974  0.1708 -0.3834
 1012TIP3    H1 3000   5.316   1.076   1.418  0.5965 -0.4356  0.7207
 1012TIP3    H2 3001   5.369   1.049   1.279 -1.4771  0.0386 -0.1990
 1013TIP3   OH2 3002   3.627   2.912   3.256  0.1900 -0.6916 -0.7208
 1013TIP3    H1 3003   3.548   2.864   3.231 -0.1163  0.0384 -1.1799
 1013TIP3    H2 3004   3.595   2.999   3.281  0.7336 -0.7214  0.1338
 1014TIP3   OH2 3005  -0.001   6.509   1.065  0.0426 -0.2755 -0.2516
 1014TIP3    H1 3006   0.027   6.572   0.998  1.8954 -0.9067 -0.1569
 1014TIP3    H2 3007   0.032   6.545   1.147 -0.1712 -0.6419 -0.0027
 1015TIP3   OH2 3008   1.860   6.733   0.289  0.1178  0.5285  0.4207
 1015TIP3    H1 3009   1.954   6.733   0.310  0.4924 -0.3893 -1.0974
 1015TIP3    H2 3010   1.820   6.681   0.359  1.0603 -0.8469 -0.0105
 1016TIP3   OH2 3011   1.759   0.434   1.755  0.2996 -0.7612  0.8976
 1016TIP3    H1 3012   1.843   0.391   1.737 -0.2548 -2.2258  1.6978
 1016TIP3    H2 3013   1.693   0.366   1.740 -0.7048  0.1619  0.9989
 1017TIP3   OH2 3014   2.301   6.483   1.906  0.6881  0.4814 -0.6176
 1017TIP3    H1 3015   2.206   6.468   1.900  0.6398  1.1351 -1.9372
 1017TIP3    H2 3016   2.312   6.531   1.988 -0.0925  0.2018 -0.3323
 1018TIP3   OH2 3017   4.261   1.980   3.612 -0.4063  0.4688  0.2970
 1018TIP3    H1 3018   4.267   1.999   3.706 -0.1091 -1.0862  0.6340
 1018TIP3    H2 3019   4.170   1.953   3.599  0.0516 -1.4145  0.6290
 1019TIP3   OH2 3020   6.566   5.870   0.672 -0.1456 -0.1375  0.1140
 1019TIP3    H1 3021   6.661   5.872   0.659 -0.3713  0.1659 -1.6809
 1019TIP3    H2 3022   6.531   5.828   0.594 -1.5923  1.0844  0.0431
 1020TIP3   OH2 3023   5.481   3.369   1.354  0.0039 -0.7098  0.2063
 1020TIP3    H1 3024   5.468   3.408   1.268 -0.3263  0.7407  0.8940
 1020TIP3    H2 3025   5.556   3.311   1.343  0.1492 -0.3230 -0.9820
 1021TIP3   OH2 3026   3.545   1.547   2.611 -0.4988 -0.0103 -0.1712
 1021TIP3    H1 3027   3.517   1.487   2.680 -0.9553  0.2760 -0.1024
 1021TIP3    H2 3028   3.604   1.495   2.556  0.5347  0.0099  0.9103
 1022TIP3   OH2 3029   1.419   5.504   4.822 -0.7862  0.0974 -1.0736
 1022TIP3    H1 3030   1.362   5.569   4.864 -1.1523 -2.1011  2.1872
 1022TIP3    H2 3031   1.359   5.445   4.777 -0.6883  0.2222 -1.3749
 1023TIP3   OH2 3032   4.345   3.247   2.409 -0.2146  0.2860 -0.1154
 1023TIP3    H1 3033   4.266   3.292   2.380 -1.5971 -1.4877  0.7172
 1023TIP3    H2 3034   4.349   3.262   2.503 -0.2224 -0.5818  0.0353
 1024TIP3   OH2 3035   3.981   3.464   3.981  0.1107 -0.3151 -0.2077
 1024TIP3    H1 3036   3.949   3.496   3.896  4.9637  2.7283 -1.2622
 1024TIP3    H2 3037   3.945   3.526   4.045  0.0266  0.1131 -0.6621
 1025TIP3   OH2 3038   6.054   3.115   1.692 -0.1553 -0.0254  0.6940
 1025TIP3    H1 3039   6.137   3.147   1.727 -0.1379  0.2411  0.4140
 1025TIP3    H2 3040   6.079   3.042   1.635 -0.2817 -1.3434  2.2382
 1026TIP3   OH2 3041   0.912   3.568   2.565 -0.5726  0.2051 -0.3996
 1026TIP3    H1 3042   0.876   3.603   2.483  1.0576 -0.7181 -1.5598
 1026TIP3    H2 3043   0.925   3.475   2.548 -1.1952 -0.2399  1.3047
 1027TIP3   OH2 3044   4.975   0.585   3.638  0.3944 -0.5214  0.2281
 1027TIP3    H1 3045   4.950   0.578   3.731  0.1228  0.4605  0.2426
 1027TIP3    H2 3046   4.943   0.505   3.599 -3.4587  0.8402  0.1142
 1028TIP3   OH2 3047   2.947   5.030   3.120 -0.1494 -0.0514  0.8350
 1028TIP3    H1 3048   3.009   5.038   3.192  0.3347 -0.2046  0.4432
 1028TIP3    H2 3049   2.966   4.944   3.082 -0.7026 -0.1600  0.8040
 1029TIP3   OH2 3050   1.573   6.459   1.589 -0.4854 -0.1734  0.4825
 1029TIP3    H1 3051   1.571   6.385   1.529  1.4484  0.0375  0.1024
 1029TIP3    H2 3052   1.503   6.441   1.652 -0.6909 -1.8222 -0.1861
 1030TIP3   OH2 3053   1.258   1.243   2.068  0.0876 -0.0258 -0.1657
 1030TIP3    H1 3054   1.337   1.289   2.098 -0.2663 -0.5352  1.6798
 1030TIP3    H2 3055   1.282   1.207   1.983  0.3623  3.6055 -1.8396
 1031TIP3   OH2 3056   3.580   1.889   3.780 -0.6026  0.3411 -0.4003
 1031TIP3    H1 3057   3.654   1.832   3.799 -0.6666  0.9118  1.8559
 1031TIP3    H2 3058   3.618   1.977   3.775 -1.2362  0.9422  2.8218
 1032TIP3   OH2 3059   2.971   6.308   0.385 -0.6423  0.2391  0.1926
 1032TIP3    H1 3060   3.005   6.397   0.377 -1.9098  0.7676  0.4438
 1032TIP3    H2 3061   2.941   6.302   0.476  1.9015 -1.3812  1.0182
 1033TIP3   OH2 3062   5.578   1.638   0.962  0.2627  0.2202  0.2367
 1033TIP3    H1 3063   5.510   1.640   0.896  1.1651  0.5132 -0.7096
 1033TIP3    H2 3064   5.579   1.726   0.999 -0.6605 -0.1155  1.0988
 1034TIP3   OH2 3065   3.141   3.743   2.012 -0.0621  0.1780  0.5370
 1034TIP3    H1 3066   3.096   3.737   1.927  1.2023 -0.6752 -0.1012
 1034TIP3    H2 3067   3.095   3.813   2.058 -3.0236 -1.6168  0.5527
 1035TIP3   OH2 3068   4.660   2.167   5.640  0.3091  0.3191 -0.2270
 1035TIP3    H1 3069   4.662   2.259   5.667  0.5429  0.5923 -1.1482
 1035TIP3    H2 3070   4.616   2.168   5.555  0.7015 -0.3705 -0.4444
 1036TIP3   OH2 3071   4.172   2.464   3.293 -0.0622  0.1422  0.3732
 1036TIP3    H1 3072   4.124   2.390   3.257  0.9024 -0.4990  0.3659
 1036TIP3    H2 3073   4.165   2.532   3.225  0.7045 -0.6337 -0.5178
 1037TIP3   OH2 3074   1.236   5.451   3.357  0.2531  0.0959  0.1540
 1037TIP3    H1 3075   1.193   5.520   3.305  1.0002  0.2738 -0.2427
 1037TIP3    H2 3076   1.251   5.380   3.294 -2.8371 -1.5727  1.0689
 1038TIP3   OH2 3077   4.549   4.863   2.462 -0.2113  0.7329 -0.0806
 1038TIP3    H1 3078   4.588   4.781   2.431 -1.6617  0.3983 -1.1232
 1038TIP3    H2 3079   4.604   4.889   2.536 -0.2447 -1.6378  0.8578
 1039TIP3   OH2 3080   4.544   0.797   0.851  0.8548 -0.0352  0.3851
 1039TIP3    H1 3081   4.551   0.705   0.826  1.2111  0.2851 -0.7792
 1039TIP3    H2 3082   4.617   0.812   0.911 -1.4045 -1.4329  3.7957
 1040TIP3   OH2 3083   1.044   2.228   4.783 -0.4492  0.2875  0.5039
 1040TIP3    H1 3084   1.117   2.239   4.722  0.2951  3.4284  1.8114
 1040TIP3    H2 3085   0.967   2.225   4.727  0.4584 -0.9347 -0.7638
 1041TIP3   OH2 3086   2.212   1.098   5.100 -0.6342  0.3894 -0.2750
 1041TIP3    H1 3087   2.300   1.073   5.127 -0.8262  0.8867  0.8695
 1041TIP3    H2 3088   2.223   1.138   5.014  0.4685  1.7636  0.4583
 1042TIP3   OH2 3089   6.576   2.580   1.944 -0.4041 -0.5196 -0.0669
 1042TIP3    H1 3090   6.593   2.597   1.851 -0.8751  1.2252  0.1298
 1042TIP3    H2 3091   6.662   2.576   1.984 -0.2065 -1.0593 -0.5249
 1043TIP3   OH2 3092   1.868   6.028   2.379  0.1681  0.6296 -0.1292
 1043TIP3    H1 3093   1.802   6.090   2.350 -1.4758 -0.9194  0.1460
 1043TIP3    H2 3094   1.819   5.955   2.417  2.0614  0.8081  3.1120
 1044TIP3   OH2 3095   5.467   5.471   0.604 -0.1327  0.8158  0.1305
 1044TIP3    H1 3096   5.535   5.533   0.578  0.0581  0.5830  0.0661
 1044TIP3    H2 3097   5.515   5.393   0.632 -0.3897 -0.1545 -1.9426
 1045TIP3   OH2 3098   0.876   0.992   4.559 -0.0005 -0.3645  0.1029
 1045TIP3    H1 3099   0.921   0.929   4.615  2.7713 -2.2108 -3.7671
 1045TIP3    H2 3100   0.803   0.944   4.521  0.8993 -0.7092 -1.2841
 1046TIP3   OH2 3101   6.334   2.316   2.696 -0.0002 -0.3326  0.2792
 1046TIP3    H1 3102   6.413   2.262   2.693  0.9350  0.9735  0.5497
 1046TIP3    H2 3103   6.361   2.396   2.739 -1.2350  0.5470 -0.5031
 1047TIP3   OH2 3104   1.967   5.739   3.441 -0.1339  0.3140 -0.0870
 1047TIP3    H1 3105   1.917   5.684   3.502  1.2760 -0.9370  0.0052
 1047TIP3    H2 3106   1.914   5.739   3.361 -1.5665  1.2452  0.8160
 1048TIP3   OH2 3107   0.648   5.030   3.393 -0.3493 -0.0420  0.0831
 1048TIP3    H1 3108   0.707   5.069   3.328 -0.7742  1.2912  0.4564
 1048TIP3    H2 3109   0.688   5.052   3.478  1.3620 -3.5519  0.3874
 1049TIP3   OH2 3110   2.035   0.505   0.714  0.2503 -0.2159  0.3336
 1049TIP3    H1 3111   1.978   0.574   0.747 -0.5179 -0.6007 -0.1552
 1049TIP3    H2 3112   2.108   0.551   0.672 -0.2882  0.2971 -0.0450
 1050TIP3   OH2 3113   1.460   1.451   5.079  0.0792 -0.0099  0.7747
 1050TIP3    H1 3114   1.489   1.396   5.007  1.8422 -0.2386  1.6143
 1050TIP3    H2 3115   1.411   1.392   5.136  2.9647 -1.1501  2.2884
 1051TIP3   OH2 3116   3.681   6.421   5.698  0.6523 -0.6567 -0.3346
 1051TIP3    H1 3117   3.699   6.374   5.617  0.5910  0.5384 -1.0596
 1051TIP3    H2 3118   3.602   6.378   5.733  0.3119 -0.7906 -1.2267
 1052TIP3   OH2 3119   0.588   2.285   2.577  0.5561  0.0289  0.1395
 1052TIP3    H1 3120   0.528   2.306   2.649 -0.8297 -0.6696 -0.7708
 1052TIP3    H2 3121   0.672   2.268   2.620  0.2191  1.3978  1.4114
 1053TIP3   OH2 3122   2.568   5.259   4.545  0.1528  0.0791 -0.2190
 1053TIP3    H1 3123   2.584   5.182   4.491  0.4796 -0.2098  0.2824
 1053TIP3    H2 3124   2.539   5.223   4.629  0.5343  0.4911  0.0924
 1054TIP3   OH2 3125   2.854   3.074   2.216  0.7836 -0.0138  0.1909
 1054TIP3    H1 3126   2.923   3.130   2.180  1.0177 -1.3538 -1.6261
 1054TIP3    H2 3127   2.898   3.019   2.280  1.1196  0.1212  0.0770
 1055TIP3   OH2 3128   2.902   6.552   2.353 -0.1653  0.3285 -0.1054
 1055TIP3    H1 3129   2.812   6.548   2.385 -0.7360  0.9725 -1.5208
 1055TIP3    H2 3130   2.900   6.618   2.284  1.4307  0.4495 -0.0860
 1056TIP3   OH2 3131   1.081   1.315   4.668 -0.0411  0.3717  0.1114
 1056TIP3    H1 3132   1.091   1.403   4.705  2.0600  0.4056 -0.3720
 1056TIP3    H2 3133   1.123   1.258   4.733  2.7082  0.3064 -1.5742
 1057TIP3   OH2 3134   6.411   6.466   3.327  0.0047  0.4418 -0.1285
 1057TIP3    H1 3135   6.408   6.501   3.238  0.1113  0.3103 -0.1849
 1057TIP3    H2 3136   6.361   6.384   3.322 -0.3647  0.6571  0.0362
 1058TIP3   OH2 3137   2.833   4.387   1.403  0.2333  0.0896 -0.0675
 1058TIP3    H1 3138   2.766   4.455   1.408  0.1427 -0.0811  1.7848
 1058TIP3    H2 3139   2.915   4.434   1.422  0.1660 -0.2715  1.2457
 1059TIP3   OH2 3140   6.620   5.659   3.116 -1.0187 -0.1297 -0.1103
 1059TIP3    H1 3141   6.652   5.717   3.046  0.9845 -1.5027 -0.4062
 1059TIP3    H2 3142   6.573   5.590   3.069 -3.3793  1.1482  0.2409
 1060TIP3   OH2 3143   1.319   6.010   0.960  1.0486  0.1177 -0.3995
 1060TIP3    H1 3144   1.277   6.095   0.944  0.4994  0.2833  1.5448
 1060TIP3    H2 3145   1.375   6.026   1.036  0.6301 -1.3364  0.2470
 1061TIP3   OH2 3146   0.837   5.049   0.741  0.6317 -0.4389  0.0750
 1061TIP3    H1 3147   0.745   5.036   0.767 -0.5019  5.0027  0.1070
 1061TIP3    H2 3148   0.885   5.046   0.823 -0.3961  1.1280  0.8027
 1062TIP3   OH2 3149   2.341   1.278   0.395 -0.5578 -0.1483 -0.2834
 1062TIP3    H1 3150   2.415   1.329   0.428 -0.7986  0.4859 -0.7000
 1062TIP3    H2 3151   2.298   1.336   0.331  0.5664 -1.7197 -2.6156
 1063TIP3   OH2 3152   6.936   1.515   5.285 -0.2986  0.3428 -0.5887
 1063TIP3    H1 3153   6.962   1.433   5.243  2.1368  1.4523 -1.4160
 1063TIP3    H2 3154   6.929   1.578   5.213 -1.9663  0.9546  0.0447
 1064TIP3   OH2 3155   2.401   5.072   2.061  0.3070  0.3544  0.0661
 1064TIP3    H1 3156   2.425   5.078   2.154 -0.2497  1.8369  0.1478
 1064TIP3    H2 3157   2.309   5.100   2.059 -0.0305 -0.7618 -0.8086
 1065TIP3   OH2 3158   5.471   3.577   1.552  0.0480  0.2852  0.7413
 1065TIP3    H1 3159   5.414   3.528   1.611  0.8252 -0.0619  1.2257
 1065TIP3    H2 3160   5.512   3.510   1.497  1.0939  0.3718  1.3840
 1066TIP3   OH2 3161   1.689   4.368   4.182 -0.7654  0.3560 -0.0139
 1066TIP3    H1 3162   1.735   4.317   4.248 -1.8203 -1.1892 -0.4301
 1066TIP3    H2 3163   1.597   4.346   4.194 -0.8873 -1.6314 -3.2601
 1067TIP3   OH2 3164   2.140   0.265   4.575  0.2667 -1.0487  0.5356
 1067TIP3    H1 3165   2.135   0.169   4.582  2.1320 -1.5125 -2.5339
 1067TIP3    H2 3166   2.050   0.292   4.555 -0.3785 -2.0683  1.9353
 1068TIP3   OH2 3167   7.137   3.168   5.435  0.6584 -0.2517  0.4169
 1068TIP3    H1 3168   7.177   3.215   5.508  0.1046 -1.6925  1.6932
 1068TIP3    H2 3169   7.054   3.136   5.469  0.7108 -1.5531 -0.6086
 1069TIP3   OH2 3170   4.434   5.793   0.532 -0.0184  0.4196  0.5851
 1069TIP3    H1 3171   4.378   5.783   0.455 -0.7900  0.3569  1.1438
 1069TIP3    H2 3172   4.450   5.704   0.562  1.9767  0.2826 -0.6527
 1070TIP3   OH2 3173   4.473   3.851   0.370  0.2268 -0.2299 -0.2639
 1070TIP3    H1 3174   4.513   3.892   0.447  0.6593 -0.1337 -0.5369
 1070TIP3    H2 3175   4.540   3.791   0.338  0.9764  1.3922 -1.9202
 1071TIP3   OH2 3176   3.645   4.760   3.167  0.9261 -0.1259 -0.4861
 1071TIP3    H1 3177   3.609   4.811   3.095  1.9983 -0.7789 -1.5342
 1071TIP3    H2 3178   3.615   4.805   3.247 -0.8300  0.2398 -1.3023
 1072TIP3   OH2 3179   0.314   3.899   0.860 -0.6008  0.0094 -0.1130
 1072TIP3    H1 3180   0.278   3.833   0.920  1.2730 -1.1428 -0.1817
 1072TIP3    H2 3181   0.305   3.858   0.773 -1.3847  0.7888 -0.4163
 1073TIP3   OH2 3182   4.461   5.484   1.948  0.7257 -0.6662 -0.0705
 1073TIP3    H1 3183   4.483   5.561   2.000 -0.4971 -1.0278  1.0122
 1073TIP3    H2 3184   4.531   5.421   1.967  1.1054 -0.2542 -0.0713
 1074TIP3   OH2 3185   4.550   3.114   4.969  0.2581  0.3060  0.7863
 1074TIP3    H1 3186   4.642   3.109   4.997  0.9656  2.5987 -0.8215
 1074TIP3    H2 3187   4.527   3.206   4.980 -1.0903  0.2373 -1.0728
 1075TIP3   OH2 3188   5.544   1.158   0.645 -0.0478  0.0206  0.2454
 1075TIP3    H1 3189   5.487   1.098   0.693 -0.7801  0.3364 -0.2134
 1075TIP3    H2 3190   5.599   1.101   0.591 -1.0678 -0.2319 -0.5508
 1076TIP3   OH2 3191   6.336   6.522   1.969  0.0811  0.6292  0.1067
 1076TIP3    H1 3192   6.299   6.496   1.884  1.9951 -0.8998 -0.3129
 1076TIP3    H2 3193   6.299   6.460   2.031  0.5716  0.2148 -0.0158
 1077TIP3   OH2 3194   2.277   6.078   2.166 -0.2815  0.0554  0.0682
 1077TIP3    H1 3195   2.346   6.095   2.230 -0.8414  1.3721  0.3581
 1077TIP3    H2 3196   2.317   6.018   2.103 -0.0568 -2.2421  2.2299
 1078TIP3   OH2 3197   2.554   0.679   5.784 -0.6762  0.1158  0.1051
 1078TIP3    H1 3198   2.486   0.668   5.717 -0.6215  0.8545 -0.0745
 1078TIP3    H2 3199   2.565   0.591   5.820 -0.2452 -0.4438 -1.3000
 1079TIP3   OH2 3200   3.293   0.200   1.461 -0.4785 -0.5408 -0.2197
 1079TIP3    H1 3201   3.358   0.246   1.409 -0.4640 -0.2858  0.0201
 1079TIP3    H2 3202   3.295   0.110   1.428 -0.9035 -0.2463 -1.0662
 1080TIP3   OH2 3203   3.010   5.023   0.754  0.0603  0.2381  0.4274
 1080TIP3    H1 3204   3.001   4.929   0.738 -0.4157  0.6300 -2.0243
 1080TIP3    H2 3205   2.923   5.058   0.740  0.1604  1.0303  1.6628
 1081TIP3   OH2 3206   3.516   1.418   3.985  0.1107  0.3210 -0.1761
 1081TIP3    H1 3207   3.563   1.496   3.954  2.3798 -0.0083  2.1051
 1081TIP3    H2 3208   3.512   1.429   4.080 -1.9197 -1.1135 -0.0369
 1082TIP3   OH2 3209   3.150   0.625   0.762 -0.2150  0.4390  0.0142
 1082TIP3    H1 3210   3.060   0.635   0.793  0.3923  1.2611  1.7060
 1082TIP3    H2 3211   3.189   0.712   0.776  0.3001  0.7041 -2.6714
 1083TIP3   OH2 3212   6.486   4.127   5.315  0.1773 -0.4218  0.1560
 1083TIP3    H1 3213   6.394   4.148   5.328  0.2823  0.0259  0.1976
 1083TIP3    H2 3214   6.498   4.126   5.220  0.7748  2.5309  0.0980
 1084TIP3   OH2 3215   0.561   6.352   1.060 -0.3909  0.4827  0.7611
 1084TIP3    H1 3216   0.644   6.311   1.036 -0.4541  0.9782 -0.3805
 1084TIP3    H2 3217   0.548   6.419   0.993 -1.2975  0.9770  1.4198
 1085TIP3   OH2 3218   3.538   1.123   0.226  0.3722 -0.1336 -0.2774
 1085TIP3    H1 3219   3.594   1.059   0.183 -0.1125  0.4479 -1.8605
 1085TIP3    H2 3220   3.596   1.172   0.284  1.0707 -0.8775 -0.3376
 1086TIP3   OH2 3221   6.973   1.877   3.448 -0.1186 -0.0480  0.1382
 1086TIP3    H1 3222   7.004   1.947   3.506 -2.3272  0.7633  0.4704
 1086TIP3    H2 3223   6.893   1.846   3.491  0.7329 -2.7307 -0.0749
 1087TIP3   OH2 3224   1.375   1.498   1.566 -0.3679  0.3116  0.5913
 1087TIP3    H1 3225   1.405   1.467   1.651 -2.3559 -1.0003  0.8807
 1087TIP3    H2 3226   1.335   1.421   1.526  0.0271  1.0466 -1.3235
 1088TIP3   OH2 3227   3.393   6.101   1.250 -0.6649 -0.4662  0.1911
 1088TIP3    H1 3228   3.315   6.098   1.305  0.4735 -1.4436  1.8218
 1088TIP3    H2 3229   3.436   6.016   1.263 -0.5683 -0.9402 -2.5912
 1089TIP3   OH2 3230   6.288   0.748   4.325 -0.5600  0.3758  0.1989
 1089TIP3    H1 3231   6.339   0.692   4.266  0.8526  0.5584  1.1874
 1089TIP3    H2 3232   6.255   0.689   4.392  0.7161  0.6568  1.1000
 1090TIP3   OH2 3233   4.963   5.972   2.615  0.3204  0.7997  0.2927
 1090TIP3    H1 3234   5.057   5.972   2.633  0.1312 -0.3659  1.4073
 1090TIP3    H2 3235   4.926   6.028   2.683  0.1438  0.7009  0.2789
 1091TIP3   OH2 3236   4.250   5.000   4.201  0.3108  0.8132  0.7575
 1091TIP3    H1 3237   4.338   5.035   4.210  1.3384 -1.3539 -0.0101
 1091TIP3    H2 3238   4.263   4.908   4.175 -2.1473  0.0004  2.0262
 1092TIP3   OH2 3239   3.663   1.187   3.399 -0.1817  0.0496 -0.8210
 1092TIP3    H1 3240   3.582   1.218   3.439 -0.6115 -0.4039 -1.3182
 1092TIP3    H2 3241   3.694   1.260   3.347  0.4470  0.6913  0.3981
 1093TIP3   OH2 3242   4.033   1.665   4.775 -0.5609  0.2983  0.7582
 1093TIP3    H1 3243   4.060   1.589   4.725  1.2742  0.6804  1.1046
 1093TIP3    H2 3244   3.960   1.702   4.725  0.1019 -0.2906 -0.7047
 1094TIP3   OH2 3245   2.394   1.665   4.040  0.0912  0.9740 -0.3252
 1094TIP3    H1 3246   2.453   1.591   4.057 -0.0062  0.5117 -1.8906
 1094TIP3    H2 3247   2.345   1.675   4.121 -0.1728 -0.9431 -0.2015
 1095TIP3   OH2 3248   4.465   6.134   4.394 -0.4675 -0.3851  0.6904
 1095TIP3    H1 3249   4.539   6.084   4.429 -0.1306  0.4244  1.1432
 1095TIP3    H2 3250   4.394   6.120   4.457 -0.6651 -1.0129  0.3483
 1096TIP3   OH2 3251   6.295   0.027   5.479 -0.0754  0.4284 -0.4087
 1096TIP3    H1 3252   6.259  -0.061   5.482  0.4357  0.1195 -2.0268
 1096TIP3    H2 3253   6.224   0.084   5.507 -0.7415 -0.4250 -0.3482
 1097TIP3   OH2 3254   1.794   1.809   5.430  0.0515  0.0872  0.3176
 1097TIP3    H1 3255   1.725   1.773   5.487 -0.2067 -0.2407 -0.1961
 1097TIP3    H2 3256   1.858   1.739   5.423  1.3267  0.9676  2.1857
 1098TIP3   OH2 3257   2.432   0.233   3.179  0.2435  0.3911 -0.1387
 1098TIP3    H1 3258   2.356   0.209   3.232 -0.0809  1.9265  0.1423
 1098TIP3    H2 3259   2.402   0.227   3.089  0.0967  0.0037 -0.0637
 1099TIP3   OH2 3260   3.569   5.794   4.013  0.6914  0.8031 -0.2819
 1099TIP3    H1 3261   3.663   5.796   3.994  0.5313  0.2418 -1.1799
 1099TIP3    H2 3262   3.549   5.701   4.023  0.0695  0.8613 -0.9480
 1100TIP3   OH2 3263   6.633   3.452   0.713 -0.4797  0.4532  0.4038
 1100TIP3    H1 3264   6.566   3.508   0.674 -1.6762 -1.5437 -0.6140
 1100TIP3    H2 3265   6.660   3.394   0.642  1.5917  0.5106  1.0830
 1101TIP3   OH2 3266   4.844   2.253   1.400  0.3566 -0.1999 -0.3873
 1101TIP3    H1 3267   4.829   2.245   1.306  1.1836  2.9306 -0.8887
 1101TIP3    H2 3268   4.939   2.258   1.409  0.2248  2.2996  0.2471
 1102TIP3   OH2 3269   0.974   2.710   2.268 -0.2835 -0.3643  0.2183
 1102TIP3    H1 3270   1.022   2.684   2.347 -2.6405 -0.9478  1.5582
 1102TIP3    H2 3271   1.043   2.730   2.204  1.7167 -1.5733  1.8378
 1103TIP3   OH2 3272   3.786   6.540   2.055 -0.3583  0.1474 -0.0998
 1103TIP3    H1 3273   3.717   6.604   2.035  0.6134  1.3939  0.4122
 1103TIP3    H2 3274   3.803   6.552   2.149  0.6884 -0.0019 -0.2618
 1104TIP3   OH2 3275   4.075   1.848   1.784  0.4306  0.1073  0.4990
 1104TIP3    H1 3276   4.040   1.933   1.758  0.0784 -0.0645  0.4022
 1104TIP3    H2 3277   4.002   1.787   1.769  1.0565 -0.3975 -0.5422
 1105TIP3   OH2 3278   7.123   4.107   4.441 -0.3383  0.8107  0.0427
 1105TIP3    H1 3279   7.183   4.068   4.505  0.8429  0.7510 -1.0669
 1105TIP3    H2 3280   7.103   4.194   4.476 -1.3451  0.0516  1.4897
 1106TIP3   OH2 3281   4.952   0.987   4.457 -0.5061 -0.3538  0.7164
 1106TIP3    H1 3282   4.887   1.055   4.479 -1.5928 -1.0536 -0.2172
 1106TIP3    H2 3283   4.979   1.007   4.368  1.2081  0.3893  1.3578
 1107TIP3   OH2 3284   1.319   0.670   5.024 -0.2974 -0.5287 -0.6367
 1107TIP3    H1 3285   1.327   0.700   4.934 -1.9184 -0.6631 -0.8520
 1107TIP3    H2 3286   1.296   0.748   5.073  2.6598  0.0157  0.0982
 1108TIP3   OH2 3287   0.277   6.569   3.335  0.0357  0.0797  0.5839
 1108TIP3    H1 3288   0.216   6.638   3.360 -0.6840  0.2542 -1.4016
 1108TIP3    H2 3289   0.326   6.549   3.414  0.5090  3.1042  1.1643
 1109TIP3   OH2 3290   2.916   4.045   0.610 -0.5815 -0.0768  0.2172
 1109TIP3    H1 3291   2.829   4.065   0.643 -1.7999 -1.4821 -1.9309
 1109TIP3    H2 3292   2.944   3.969   0.660 -1.4997 -0.8909 -0.4739
 1110TIP3   OH2 3293   0.836   1.291   3.467 -0.0948  0.2982 -0.2044
 1110TIP3    H1 3294   0.917   1.279   3.517  0.0165 -2.1570 -0.8148
 1110TIP3    H2 3295   0.839   1.222   3.401 -1.6509  1.5820 -1.6859
 1111TIP3   OH2 3296   1.599   6.429   3.435 -0.1031 -0.3452 -1.0940
 1111TIP3    H1 3297   1.688   6.397   3.449  0.1504 -0.0368 -1.9191
 1111TIP3    H2 3298   1.555   6.419   3.519  0.4149 -1.4496 -0.9467
 1112TIP3   OH2 3299   1.083   1.111   2.803 -0.0689  0.0259 -0.2421
 1112TIP3    H1 3300   1.108   1.201   2.825 -1.2838  0.0986  0.9654
 1112TIP3    H2 3301   1.022   1.086   2.872  2.1739 -2.6369  0.9949
 1113TIP3   OH2 3302   2.553   2.375   4.359 -1.4155  0.3445  0.2248
 1113TIP3    H1 3303   2.490   2.304   4.354 -0.7794 -0.2180  0.1423
 1113TIP3    H2 3304   2.525   2.438   4.292 -1.0125 -0.6156 -0.8709
 1114TIP3   OH2 3305   0.865   0.126   2.997 -0.3178  0.0405 -0.4085
 1114TIP3    H1 3306   0.943   0.110   3.049 -1.6626 -1.0084  1.3899
 1114TIP3    H2 3307   0.884   0.085   2.912  1.0760 -0.1693 -0.0128
 1115TIP3   OH2 3308   2.989   6.462   5.133 -0.1258 -0.1796 -0.4487
 1115TIP3    H1 3309   2.915   6.475   5.074 -1.2407 -2.0319  0.4462
 1115TIP3    H2 3310   2.974   6.525   5.204 -0.4631 -0.0965 -0.5918
 1116TIP3   OH2 3311   1.657   0.705   1.659  0.0106  0.1001 -0.3396
 1116TIP3    H1 3312   1.703   0.626   1.629  0.2113 -0.2596  0.8646
 1116TIP3    H2 3313   1.636   0.687   1.750  1.1972  1.9546  0.3440
 1117TIP3   OH2 3314   0.367   6.518   3.785  0.4164 -0.1004  0.5569
 1117TIP3    H1 3315   0.424   6.463   3.838 -0.4590 -3.1167 -1.3616
 1117TIP3    H2 3316   0.289   6.530   3.839  1.1378  0.3845  1.5110
 1118TIP3   OH2 3317   6.456   3.689   0.657  0.2611  0.0815 -0.2549
 1118TIP3    H1 3318   6.389   3.747   0.620 -0.3046 -1.1684 -1.2619
 1118TIP3    H2 3319   6.445   3.607   0.610  1.0630 -0.8462  1.1069
 1119TIP3   OH2 3320   1.228   2.614   3.573 -0.7159  0.0668 -0.0406
 1119TIP3    H1 3321   1.293   2.654   3.514  1.0143  0.1126  1.7721
 1119TIP3    H2 3322   1.172   2.687   3.598 -0.1762  0.4887 -0.0202
 1120TIP3   OH2 3323   4.937   6.640   1.975  0.0850  0.0146  0.3964
 1120TIP3    H1 3324   4.912   6.606   1.889  0.6496  1.7702 -0.5059
 1120TIP3    H2 3325   5.004   6.705   1.956  0.9467 -0.2750  2.2679
 1121TIP3   OH2 3326   3.776   2.642   0.150  0.6924  0.1937  0.1194
 1121TIP3    H1 3327   3.778   2.548   0.169 -0.6301  0.2143  0.4445
 1121TIP3    H2 3328   3.709   2.677   0.209  1.1952  1.3537  0.0301
 1122TIP3   OH2 3329   7.121   3.756   2.811  0.2589 -0.2416  0.2914
 1122TIP3    H1 3330   7.084   3.844   2.823 -1.4663 -0.8259 -0.4579
 1122TIP3    H2 3331   7.132   3.722   2.900  0.0165  0.3589  0.5560
 1123TIP3   OH2 3332   4.348   6.010   4.631  0.1453 -0.2539 -0.7531
 1123TIP3    H1 3333   4.285   5.951   4.672  1.2566 -0.0291  1.4145
 1123TIP3    H2 3334   4.428   5.958   4.623  0.9210  0.7058  0.4979
 1124TIP3   OH2 3335   5.397   2.197   5.569 -0.2294 -0.1506  0.3373
 1124TIP3    H1 3336   5.415   2.135   5.640  0.5738  0.0919  0.3528
 1124TIP3    H2 3337   5.387   2.281   5.612 -0.2941 -0.0957  0.2158
 1125TIP3   OH2 3338   4.377   6.473   4.528 -0.3871  0.1850  0.5901
 1125TIP3    H1 3339   4.439   6.534   4.568  1.3162 -1.3286  0.4061
 1125TIP3    H2 3340   4.383   6.394   4.582 -3.0801  0.3436  1.2573
 1126TIP3   OH2 3341   5.177   2.348   0.202  0.0486 -0.0560  0.7811
 1126TIP3    H1 3342   5.116   2.299   0.146 -0.2257  0.6584  0.4473
 1126TIP3    H2 3343   5.181   2.297   0.283  0.9380 -1.4515 -0.0956
 1127TIP3   OH2 3344   5.067   6.335   5.743 -0.1143 -0.5081  0.4410
 1127TIP3    H1 3345   5.159   6.344   5.765  0.3779 -1.1340 -1.2016
 1127TIP3    H2 3346   5.053   6.398   5.672 -0.8841 -0.5864  0.5147
 1128TIP3   OH2 3347   0.135   6.001   4.922  0.3035 -0.1610  0.5750
 1128TIP3    H1 3348   0.184   5.930   4.964  0.9812  0.3626  0.6830
 1128TIP3    H2 3349   0.109   5.964   4.837 -0.2074 -0.8726  1.0245
 1129TIP3   OH2 3350   4.035   3.501   5.039  0.0380  0.5577 -0.0047
 1129TIP3    H1 3351   4.001   3.484   5.127  0.6388  0.5768  0.2356
 1129TIP3    H2 3352   4.016   3.421   4.990 -0.1694  0.4901  0.1853
 1130TIP3   OH2 3353   4.635   2.343   0.133 -0.1819 -0.6079  0.3175
 1130TIP3    H1 3354   4.704   2.401   0.100  0.1487 -0.7362  0.7774
 1130TIP3    H2 3355   4.555   2.395   0.126  0.3447  0.5828  2.3319
 1131TIP3   OH2 3356   5.609   0.168   4.656  0.1146 -0.4316 -0.4158
 1131TIP3    H1 3357   5.702   0.166   4.633 -0.4138 -1.0013 -2.7675
 1131TIP3    H2 3358   5.564   0.176   4.572 -1.9468  1.3343  0.7702
 1132TIP3   OH2 3359   6.064   0.156   0.396  0.0610 -0.2455 -0.0968
 1132TIP3    H1 3360   6.015   0.226   0.438 -0.8762 -0.8509 -0.1587
 1132TIP3    H2 3361   6.001   0.084   0.387  0.8043 -0.8429 -0.6830
 1133TIP3   OH2 3362   1.339   4.844   5.472 -0.2703 -0.3445 -0.2041
 1133TIP3    H1 3363   1.283   4.908   5.516 -0.5493  0.9105 -2.2287
 1133TIP3    H2 3364   1.428   4.872   5.490 -0.3903  1.0297 -1.5249
 1134TIP3   OH2 3365   4.573   4.064   5.518 -0.3813 -0.1597 -0.2869
 1134TIP3    H1 3366   4.570   4.127   5.590 -1.7720 -1.2238  0.6641
 1134TIP3    H2 3367   4.537   4.111   5.443  1.6901  1.1725 -0.5124
 1135TIP3   OH2 3368   3.489   3.263   1.599 -0.0410  0.1319  0.0774
 1135TIP3    H1 3369   3.407   3.215   1.614  0.0285 -0.2461 -0.6918
 1135TIP3    H2 3370   3.490   3.279   1.505  0.2989  1.0085  0.2235
 1136TIP3   OH2 3371   4.786   5.528   4.263 -0.5085 -0.3644 -0.9120
 1136TIP3    H1 3372   4.801   5.506   4.355  0.2933 -1.2544 -1.2388
 1136TIP3    H2 3373   4.820   5.617   4.254 -1.8199  0.2459 -0.0560
 1137TIP3   OH2 3374   1.576   1.478   1.337  0.7220 -0.3075  0.4269
 1137TIP3    H1 3375   1.552   1.526   1.416 -3.2319 -0.7180 -0.2841
 1137TIP3    H2 3376   1.606   1.546   1.276  0.4814  0.5165  1.2069
 1138TIP3   OH2 3377   4.940   0.493   1.940  0.7908 -0.7737  0.5232
 1138TIP3    H1 3378   4.975   0.413   1.900  2.5378 -0.9306  2.2614
 1138TIP3    H2 3379   4.989   0.504   2.021 -0.3690  1.3328  1.0258
 1139TIP3   OH2 3380   4.850   4.941   2.416 -0.1106  0.1585  0.3237
 1139TIP3    H1 3381   4.892   4.873   2.469  1.0455  0.2715 -0.4322
 1139TIP3    H2 3382   4.841   5.015   2.476  1.7355  0.4930  0.2330
 1140TIP3   OH2 3383   2.876   2.456   5.676  0.0954  0.2702  0.2360
 1140TIP3    H1 3384   2.913   2.385   5.728  1.8277  0.5383 -0.5769
 1140TIP3    H2 3385   2.891   2.431   5.585  0.8650  1.7263 -0.0665
 1141TIP3   OH2 3386   1.211   4.265   0.515 -0.4913 -0.5294  0.0427
 1141TIP3    H1 3387   1.220   4.175   0.548 -0.4194  0.2911  2.4559
 1141TIP3    H2 3388   1.288   4.278   0.461  1.1944 -0.9611  2.1907
 1142TIP3   OH2 3389   4.491   3.715   0.029 -0.3337 -0.1527 -0.1416
 1142TIP3    H1 3390   4.414   3.659   0.031 -0.0833 -0.4753  0.9160
 1142TIP3    H2 3391   4.456   3.803   0.014 -0.9707 -0.1994  0.9741
 1143TIP3   OH2 3392   0.889   2.002   0.379 -0.5999 -0.0605 -0.1346
 1143TIP3    H1 3393   0.860   1.912   0.368 -1.9036  0.4496 -1.2263
 1143TIP3    H2 3394   0.910   2.010   0.472  0.8676 -1.8402 -0.2550
 1144TIP3   OH2 3395   4.310   6.046   0.327 -0.4405  0.4151  0.1034
 1144TIP3    H1 3396   4.295   5.962   0.284 -0.2543  0.8282 -0.7882
 1144TIP3    H2 3397   4.297   6.111   0.258  0.3782  1.0678  0.5470
 1145TIP3   OH2 3398   2.019   2.848   0.017  0.4845 -0.1343 -0.1434
 1145TIP3    H1 3399   1.966   2.837   0.096  0.1231 -1.2962 -0.5298
 1145TIP3    H2 3400   2.030   2.943   0.009 -1.2975  0.1306  0.1286
 1146TIP3   OH2 3401   2.386   6.156   1.391  0.2040  0.3546  0.3753
 1146TIP3    H1 3402   2.343   6.092   1.448  0.1574  0.0643  0.0168
 1146TIP3    H2 3403   2.478   6.154   1.420  0.4703 -0.8200 -0.4700
 1147TIP3   OH2 3404   1.536   1.734   2.736 -0.3830  0.4345  0.7662
 1147TIP3    H1 3405   1.612   1.731   2.794 -0.1215 -1.0214  0.4110
 1147TIP3    H2 3406   1.511   1.826   2.733  1.9374  1.1134  0.1731
 1148TIP3   OH2 3407   4.573   0.958   1.337 -0.0904 -0.3438 -0.5004
 1148TIP3    H1 3408   4.575   0.862   1.332  0.1758 -0.3431 -0.4299
 1148TIP3    H2 3409   4.484   0.979   1.367 -0.1273 -0.5718 -0.4485
 1149TIP3   OH2 3410   0.324   4.369   3.829 -0.1270  0.1603 -0.2321
 1149TIP3    H1 3411   0.298   4.328   3.911 -1.6669  1.6145  0.0723
 1149TIP3    H2 3412   0.315   4.463   3.845  0.3002  0.5086 -1.8176
 1150TIP3   OH2 3413   0.140   2.418   1.707 -0.4525  0.5500  0.1056
 1150TIP3    H1 3414   0.201   2.476   1.661 -0.3967  0.2516 -0.1958
 1150TIP3    H2 3415   0.193   2.378   1.776 -0.3515  0.4371 -0.0355
 1151TIP3   OH2 3416   3.160   3.809   4.785 -0.0353 -0.3200  0.0081
 1151TIP3    H1 3417   3.088   3.807   4.722 -0.3374  0.8643  0.2905
 1151TIP3    H2 3418   3.207   3.727   4.770 -1.8945 -1.5203  0.3764
 1152TIP3   OH2 3419   4.646   2.840   0.333 -0.2418 -0.0834 -0.1882
 1152TIP3    H1 3420   4.651   2.907   0.401  0.9270  1.2015 -1.4866
 1152TIP3    H2 3421   4.717   2.861   0.273 -0.5190 -1.8719 -1.2135
 1153TIP3   OH2 3422   0.833   5.250   3.553 -0.0886 -0.0291 -0.1718
 1153TIP3    H1 3423   0.927   5.250   3.535 -0.1268  0.1169 -0.3784
 1153TIP3    H2 3424   0.823   5.200   3.633  0.0605 -0.9249 -0.6992
 1154TIP3   OH2 3425   5.985   5.498   5.641  0.5304 -0.2101  0.3850
 1154TIP3    H1 3426   5.901   5.485   5.597  0.1842  1.1653  0.6033
 1154TIP3    H2 3427   6.029   5.413   5.635 -1.2077 -1.1994  0.9801
 1155TIP3   OH2 3428   6.734   3.758   2.002 -0.4339 -0.4340 -0.4146
 1155TIP3    H1 3429   6.794   3.692   2.037 -1.5266 -1.0430  0.3782
 1155TIP3    H2 3430   6.726   3.822   2.073 -0.0986  0.0706 -0.8278
 1156TIP3   OH2 3431   1.570   6.348   5.018  0.4779  0.1045 -0.1574
 1156TIP3    H1 3432   1.536   6.415   4.959  0.2189 -0.3019 -0.4746
 1156TIP3    H2 3433   1.618   6.397   5.085  1.2189  0.5426 -0.9889
 1157TIP3   OH2 3434   4.483   4.756   2.803  0.3455  0.0057  0.2091
 1157TIP3    H1 3435   4.557   4.817   2.801 -0.7398  1.4056  0.8187
 1157TIP3    H2 3436   4.520   4.672   2.776  1.9617  0.8618 -0.3694
 1158TIP3   OH2 3437   6.808   5.355   0.174 -0.3513 -0.0498 -0.0203
 1158TIP3    H1 3438   6.801   5.264   0.144 -1.2506  0.6936 -2.2758
 1158TIP3    H2 3439   6.727   5.396   0.145 -0.9663  1.0153  2.8965
 1159TIP3   OH2 3440   1.272   6.043   3.390  0.0616  0.0589  0.4218
 1159TIP3    H1 3441   1.247   6.081   3.473  1.0539  0.2591  0.6362
 1159TIP3    H2 3442   1.367   6.054   3.385  0.1390 -0.7588 -0.3221
 1160TIP3   OH2 3443   5.461   2.410   4.175  0.1418 -0.1742  0.0156
 1160TIP3    H1 3444   5.534   2.348   4.180  2.1064  1.8392 -1.5175
 1160TIP3    H2 3445   5.474   2.468   4.250  0.3359  0.3734 -0.4324
 1161TIP3   OH2 3446   0.711   2.712   2.949 -0.4143  0.2258  0.1821
 1161TIP3    H1 3447   0.615   2.717   2.941 -0.4407  0.0750  0.4108
 1161TIP3    H2 3448   0.742   2.710   2.859 -0.7526 -2.4882  0.0607
 1162TIP3   OH2 3449   1.583   6.255   4.426 -0.5119 -0.4819 -0.0817
 1162TIP3    H1 3450   1.581   6.301   4.343 -1.2459  0.5697  0.4879
 1162TIP3    H2 3451   1.516   6.187   4.418 -0.6067 -0.3580 -0.3251
 1163TIP3   OH2 3452   7.159   5.614   1.528  0.0147 -0.4211  0.4696
 1163TIP3    H1 3453   7.089   5.632   1.465  0.2587 -0.3082  0.2241
 1163TIP3    H2 3454   7.233   5.585   1.474  1.0148  1.9497  0.4417
 1164TIP3   OH2 3455   3.520   3.685   4.649  0.4667 -1.1835 -0.1538
 1164TIP3    H1 3456   3.474   3.625   4.708  3.0390 -0.6124  2.6728
 1164TIP3    H2 3457   3.605   3.644   4.635  1.1435  0.3412 -0.6925
 1165TIP3   OH2 3458   3.751   0.639   4.736  0.0953 -0.8317  0.0965
 1165TIP3    H1 3459   3.717   0.550   4.729 -0.7894 -0.4108 -1.6063
 1165TIP3    H2 3460   3.693   0.691   4.679  2.0497  0.3855 -0.8889
 1166TIP3   OH2 3461   5.940   5.596   3.964  0.3445 -0.2166  0.6993
 1166TIP3    H1 3462   6.026   5.622   3.997 -0.1522 -0.1675  2.0467
 1166TIP3    H2 3463   5.958   5.544   3.886  1.5442  0.6068  0.4126
 1167TIP3   OH2 3464   1.483   4.360   3.162 -0.0588  0.0609 -0.4699
 1167TIP3    H1 3465   1.513   4.389   3.249  1.6042  0.3738 -1.1113
 1167TIP3    H2 3466   1.396   4.323   3.178  1.1649 -2.1532  1.7647
 1168TIP3   OH2 3467   1.694   6.484   5.213 -0.2110 -0.3167 -0.3442
 1168TIP3    H1 3468   1.716   6.445   5.298  0.3123  0.8303  0.0640
 1168TIP3    H2 3469   1.625   6.547   5.233 -0.0703 -0.0231 -0.7679
 1169TIP3   OH2 3470   0.476   2.011   2.958 -0.1774  0.9562 -0.5167
 1169TIP3    H1 3471   0.547   2.067   2.991 -0.6650  0.4884  1.4779
 1169TIP3    H2 3472   0.430   1.982   3.037 -2.0894  0.5580 -1.7032
 1170TIP3   OH2 3473   2.546   0.673   0.228 -0.5015 -0.1287 -0.3952
 1170TIP3    H1 3474   2.551   0.593   0.176  0.2522  0.1069 -0.6971
 1170TIP3    H2 3475   2.621   0.667   0.288 -0.3184  0.4500 -0.5630
 1171TIP3   OH2 3476   6.215   3.486   2.869 -0.2475  0.1473  0.1797
 1171TIP3    H1 3477   6.203   3.462   2.961 -3.1537  1.7164  0.3291
 1171TIP3    H2 3478   6.205   3.581   2.867  0.8628  0.2833 -1.6515
 1172TIP3   OH2 3479   1.033   0.789   1.460  0.0379 -0.3301 -0.3667
 1172TIP3    H1 3480   1.023   0.802   1.366  0.0613  1.6617 -0.1284
 1172TIP3    H2 3481   1.011   0.696   1.474  0.8284 -0.8655 -2.4130
 1173TIP3   OH2 3482   4.071   3.536   0.357 -0.1775 -0.5042  0.0376
 1173TIP3    H1 3483   4.076   3.548   0.452 -2.3383 -0.8972  0.2342
 1173TIP3    H2 3484   3.997   3.589   0.330  1.2633  0.7180 -1.6733
 1174TIP3   OH2 3485   2.664   6.479   3.126 -0.0131 -0.0385  0.0381
 1174TIP3    H1 3486   2.707   6.451   3.207 -0.3711  1.5888  0.8267
 1174TIP3    H2 3487   2.678   6.406   3.065 -0.1027 -1.4948  1.6796
 1175TIP3   OH2 3488   7.146   0.864   2.424 -0.4030 -0.3297  0.6607
 1175TIP3    H1 3489   7.145   0.790   2.363 -1.6726  0.2921 -0.1119
 1175TIP3    H2 3490   7.082   0.840   2.491  0.9633 -0.9969  1.8070
 1176TIP3   OH2 3491   7.068   5.256   3.241 -0.2046 -0.4008 -0.3951
 1176TIP3    H1 3492   7.041   5.348   3.239  0.2061 -0.2575  0.2655
 1176TIP3    H2 3493   7.112   5.246   3.326  1.3864 -0.7317 -1.2129
 1177TIP3   OH2 3494   6.087   0.205   5.497  0.2264 -0.1108 -0.6336
 1177TIP3    H1 3495   6.017   0.186   5.434 -0.3752  0.0692 -0.0375
 1177TIP3    H2 3496   6.040   0.232   5.577  0.9672 -0.5236 -0.0488
 1178TIP3   OH2 3497   1.731   3.900   2.660  0.3057 -0.2772 -0.2125
 1178TIP3    H1 3498   1.778   3.824   2.625  2.1430  1.2190 -1.1846
 1178TIP3    H2 3499   1.780   3.976   2.628 -1.7162  1.3675  0.3157
 1179TIP3   OH2 3500   2.983   6.342   5.680 -0.1721 -0.6044 -0.0843
 1179TIP3    H1 3501   2.894   6.372   5.664 -0.0355  0.3611  0.8368
 1179TIP3    H2 3502   2.974   6.276   5.749 -0.4043 -2.2637 -1.6564
 1180TIP3   OH2 3503   5.937   2.472   2.645 -0.8737 -0.3516  0.3582
 1180TIP3    H1 3504   5.897   2.478   2.558 -0.1909 -0.3903  0.0295
 1180TIP3    H2 3505   5.968   2.561   2.663 -0.5144 -0.4636  0.3099
 1181TIP3   OH2 3506   0.439   0.254   2.628 -0.5448 -0.4515 -0.3602
 1181TIP3    H1 3507   0.464   0.272   2.719  1.4851 -1.0725 -0.7388
 1181TIP3    H2 3508   0.387   0.330   2.602 -1.3396 -0.3592  1.3680
 1182TIP3   OH2 3509   4.137   0.542   0.912  0.2508  0.6599 -0.1979
 1182TIP3    H1 3510   4.230   0.558   0.894 -0.1764  0.1418 -3.5137
 1182TIP3    H2 3511   4.135   0.462   0.964  1.6666  1.2526  0.8238
 1183TIP3   OH2 3512   7.175   3.372   1.961 -0.3936 -0.0019  0.3007
 1183TIP3    H1 3513   7.153   3.456   1.920 -1.8692  0.5607  2.0899
 1183TIP3    H2 3514   7.230   3.396   2.036  0.5928 -0.8207 -0.1344
 1184TIP3   OH2 3515   5.800   5.739   2.381  0.1250 -1.0022  0.6078
 1184TIP3    H1 3516   5.712   5.713   2.409  0.1218 -1.0151  0.5871
 1184TIP3    H2 3517   5.812   5.827   2.417 -0.3057 -0.5789 -0.2542
 1185TIP3   OH2 3518   2.536   3.310   2.743 -0.0477 -0.1160 -0.2821
 1185TIP3    H1 3519   2.576   3.334   2.827 -0.7357 -0.0325  0.0299
 1185TIP3    H2 3520   2.584   3.362   2.678 -0.2998  0.7322  0.1918
 1186TIP3   OH2 3521   6.187   0.163   4.236 -0.1037  0.1731  0.9300
 1186TIP3    H1 3522   6.255   0.101   4.209 -0.2125 -0.4294  2.0087
 1186TIP3    H2 3523   6.235   0.241   4.263 -0.0026  0.9695 -1.3450
 1187TIP3   OH2 3524   1.946   2.808   1.095  0.0775 -0.4352 -0.3913
 1187TIP3    H1 3525   1.977   2.718   1.106  1.0199 -0.0966 -0.1601
 1187TIP3    H2 3526   1.895   2.826   1.174 -0.4583 -0.8942 -0.6259
 1188TIP3   OH2 3527   5.419   0.607   0.525  0.1759  0.4638 -0.1465
 1188TIP3    H1 3528   5.508   0.592   0.557 -0.3720  0.7115  1.5423
 1188TIP3    H2 3529   5.412   0.702   0.518 -0.2563  0.4941  0.6290
 1189TIP3   OH2 3530   4.703   5.308   3.877 -0.1726 -0.1867  0.0859
 1189TIP3    H1 3531   4.711   5.314   3.972  1.9937 -0.6418 -0.0032
 1189TIP3    H2 3532   4.630   5.248   3.863 -0.1116 -0.6295  1.4900
 1190TIP3   OH2 3533   0.864   2.148   2.690  0.4129  0.1099 -0.5055
 1190TIP3    H1 3534   0.935   2.208   2.711 -0.5145  0.6153  1.3796
 1190TIP3    H2 3535   0.902   2.061   2.700  1.5152  0.3193 -2.3754
 1191TIP3   OH2 3536   0.885   4.125   3.916  0.2541  0.4958 -0.1765
 1191TIP3    H1 3537   0.803   4.082   3.937  1.1893 -0.2779  2.2670
 1191TIP3    H2 3538   0.901   4.184   3.990  1.5039  1.2458 -0.9974
 1192TIP3   OH2 3539   1.049   5.991   2.317  0.7113  0.0961  0.6000
 1192TIP3    H1 3540   1.127   6.009   2.369  0.6137  2.5610  0.0298
 1192TIP3    H2 3541   0.982   6.050   2.353  0.3606  1.1383 -1.6040
 1193TIP3   OH2 3542   5.488   4.212   4.143 -0.1987 -0.3014  0.0783
 1193TIP3    H1 3543   5.461   4.243   4.056  0.8571 -0.3809 -0.2888
 1193TIP3    H2 3544   5.550   4.278   4.174  0.2467 -0.8199  0.3088
 1194TIP3   OH2 3545   0.283   3.375   4.663  0.0522  0.1197 -0.0542
 1194TIP3    H1 3546   0.251   3.324   4.737  1.6031 -1.2990 -0.3217
 1194TIP3    H2 3547   0.376   3.387   4.680  0.7525 -1.4292 -2.4130
 1195TIP3   OH2 3548   6.398   4.853   3.114 -0.5763 -0.5069 -0.1642
 1195TIP3    H1 3549   6.318   4.866   3.063 -1.1899  0.0333  0.9016
 1195TIP3    H2 3550   6.375   4.786   3.178 -0.7426  0.8919  1.2859
 1196TIP3   OH2 3551   6.162   2.389   5.114 -0.8192  0.2119  0.0422
 1196TIP3    H1 3552   6.088   2.330   5.103 -1.5598  0.9430  0.9376
 1196TIP3    H2 3553   6.147   2.431   5.198  1.5006 -0.8622  1.0905
 1197TIP3   OH2 3554   5.529   4.074   4.646  0.8623 -0.2783 -0.1550
 1197TIP3    H1 3555   5.435   4.055   4.641  0.5561  1.0633  0.2382
 1197TIP3    H2 3556   5.540   4.119   4.729  2.0886 -1.5509  0.4097
 1198TIP3   OH2 3557   1.130   6.726   1.957  0.2793 -0.7561 -0.2667
 1198TIP3    H1 3558   1.081   6.721   1.875 -1.3468 -1.9567  0.6995
 1198TIP3    H2 3559   1.105   6.809   1.996  1.1501 -0.1261 -1.0006
 1199TIP3   OH2 3560   3.244   1.840   2.894  0.2542 -0.7873 -0.1914
 1199TIP3    H1 3561   3.169   1.863   2.949  0.5351 -0.6882  0.1533
 1199TIP3    H2 3562   3.211   1.849   2.804  0.3706  1.0531 -0.0750
 1200TIP3   OH2 3563   4.195   0.283   1.393  0.3536  0.6714 -0.5029
 1200TIP3    H1 3564   4.244   0.201   1.394  1.7743  1.4274 -2.0749
 1200TIP3    H2 3565   4.237   0.338   1.458 -0.6822  0.1475  0.6451
 1201TIP3   OH2 3566   6.560   6.034   1.840  0.1739 -0.3442 -0.0165
 1201TIP3    H1 3567   6.473   6.064   1.817  0.1093  0.0799  0.7466
 1201TIP3    H2 3568   6.565   5.945   1.805 -0.1854  0.0053 -0.9628
 1202TIP3   OH2 3569   4.736   4.938   3.543 -0.2269  0.1029  0.0339
 1202TIP3    H1 3570   4.763   4.926   3.452  1.8006 -0.2012  0.6418
 1202TIP3    H2 3571   4.816   4.929   3.594 -1.1039  1.5013  1.7832
 1203TIP3   OH2 3572   2.039   2.825   3.928 -0.4849 -0.0801 -0.2925
 1203TIP3    H1 3573   2.000   2.771   3.860  1.1830  0.3235 -1.6435
 1203TIP3    H2 3574   2.028   2.915   3.897 -1.2876  0.2431  0.8621
 1204TIP3   OH2 3575   1.884   3.472   2.391  0.0326  0.3616  0.9543
 1204TIP3    H1 3576   1.806   3.452   2.340  0.5597 -2.3770  1.0959
 1204TIP3    H2 3577   1.955   3.471   2.327  0.5444 -2.0091  1.4598
 1205TIP3   OH2 3578   4.499   3.508   0.426  0.0437  0.4082 -0.1250
 1205TIP3    H1 3579   4.561   3.564   0.380 -0.4265  1.0895  0.0464
 1205TIP3    H2 3580   4.413   3.539   0.397 -0.2443 -1.9467 -2.0550
 1206TIP3   OH2 3581   7.059   2.030   4.268  0.5883  0.1417  0.4092
 1206TIP3    H1 3582   7.083   2.017   4.360  0.7470 -1.9569  0.1292
 1206TIP3    H2 3583   7.118   2.098   4.237  1.7337 -0.3376  1.4378
 1207TIP3   OH2 3584   3.035   0.552   2.505 -0.6270  0.0949  0.5419
 1207TIP3    H1 3585   2.975   0.497   2.555 -2.2549  0.7606 -0.5920
 1207TIP3    H2 3586   2.978   0.609   2.453  0.9835  2.2252  0.9715
 1208TIP3   OH2 3587   1.913   0.035   5.749 -0.0982 -0.2469  0.4941
 1208TIP3    H1 3588   1.965   0.017   5.671  1.5265 -0.3937  1.5583
 1208TIP3    H2 3589   1.977   0.036   5.820 -1.6449 -1.0125  1.9562
 1209TIP3   OH2 3590   3.101   2.302   1.001 -0.5409 -0.0711 -0.2253
 1209TIP3    H1 3591   3.193   2.274   1.001 -0.7086 -0.6697 -1.3623
 1209TIP3    H2 3592   3.079   2.311   0.908 -1.7330 -0.2607  0.0285
 1210TIP3   OH2 3593   4.162   6.679   0.311  0.0787  0.1525  0.1679
 1210TIP3    H1 3594   4.178   6.688   0.217 -2.2473  0.8612 -0.2421
 1210TIP3    H2 3595   4.158   6.769   0.343 -0.4597 -0.0368  0.6560
 1211TIP3   OH2 3596   0.588   4.300   3.738  0.3468  0.0943 -0.2338
 1211TIP3    H1 3597   0.632   4.334   3.816  0.0581  2.3422 -0.9851
 1211TIP3    H2 3598   0.502   4.271   3.770 -0.0608  1.6817  0.2139
 1212TIP3   OH2 3599   2.288   5.159   5.646  0.3402 -0.2229  0.3715
 1212TIP3    H1 3600   2.299   5.248   5.681  1.6161 -0.1725 -0.1125
 1212TIP3    H2 3601   2.286   5.171   5.551 -2.0266 -0.4727  0.3429
 1213TIP3   OH2 3602   2.530   0.908   3.878 -0.4397 -0.5840 -0.2211
 1213TIP3    H1 3603   2.533   0.897   3.783 -1.9607  0.1929 -0.3835
 1213TIP3    H2 3604   2.552   1.000   3.892 -0.9813 -0.5039  0.1223
 1214TIP3   OH2 3605   6.692   0.359   0.375  0.3747 -0.6442 -0.0390
 1214TIP3    H1 3606   6.700   0.265   0.393  0.9744 -0.7637 -0.8288
 1214TIP3    H2 3607   6.618   0.387   0.427 -0.1995 -1.6932 -0.2543
 1215TIP3   OH2 3608   6.564   6.233   0.212 -0.1897  0.4482 -0.0404
 1215TIP3    H1 3609   6.588   6.204   0.300 -3.1235  1.8484  1.3880
 1215TIP3    H2 3610   6.576   6.156   0.157  1.8308 -0.4399  1.5147
 1216TIP3   OH2 3611   4.314   0.436   2.265  0.2306  0.0588 -0.0294
 1216TIP3    H1 3612   4.263   0.430   2.346  0.0522 -0.3688 -0.1717
 1216TIP3    H2 3613   4.248   0.437   2.196  0.3177  1.6685 -0.1335
 1217TIP3   OH2 3614   2.362   4.344   5.561 -0.1951 -0.0705 -0.0937
 1217TIP3    H1 3615   2.443   4.370   5.603  0.0710 -0.9626 -0.0278
 1217TIP3    H2 3616   2.293   4.370   5.622  0.1549 -0.8854  0.6686
 1218TIP3   OH2 3617   6.438   2.014   2.415 -0.1586  0.0155 -0.4421
 1218TIP3    H1 3618   6.461   1.924   2.393  1.8333  0.4185 -0.1819
 1218TIP3    H2 3619   6.521   2.061   2.413 -0.7280  1.2926  2.0229
 1219TIP3   OH2 3620   1.946   3.282   4.095  0.5676 -0.4952 -0.0341
 1219TIP3    H1 3621   2.016   3.344   4.074  2.4026 -1.7333  1.9568
 1219TIP3    H2 3622   1.927   3.298   4.187 -0.3064 -1.5808 -0.0119
 1220TIP3   OH2 3623   2.996   3.990   2.568 -0.6125 -0.0259  0.2754
 1220TIP3    H1 3624   3.032   3.946   2.645  0.3086 -0.8038 -0.5791
 1220TIP3    H2 3625   2.998   4.083   2.590  1.1992 -0.0972  0.5736
 1221TIP3   OH2 3626   5.411   4.956   0.753  0.0149 -0.6086 -0.0119
 1221TIP3    H1 3627   5.350   4.946   0.680 -0.5710  2.0018  0.0238
 1221TIP3    H2 3628   5.386   4.887   0.814 -0.0670 -2.2823 -1.8594
 1222TIP3   OH2 3629   3.770   5.190   4.893  0.5756 -0.9753  0.0337
 1222TIP3    H1 3630   3.758   5.242   4.972 -0.8152 -1.2037 -0.0132
 1222TIP3    H2 3631   3.715   5.113   4.906 -1.3891 -0.0451 -2.0163
 1223TIP3   OH2 3632   4.692   4.642   2.349 -0.3481  0.0892  0.1828
 1223TIP3    H1 3633   4.776   4.677   2.319  0.4915 -2.3209 -0.6082
 1223TIP3    H2 3634   4.713   4.553   2.379 -2.4239 -0.1141  1.2058
 1224TIP3   OH2 3635   3.808   5.176   5.846 -0.9666  0.5233 -0.0146
 1224TIP3    H1 3636   3.839   5.224   5.769 -1.6574  1.6461  0.3786
 1224TIP3    H2 3637   3.779   5.092   5.811 -1.2508  1.0043 -0.9968
 1225TIP3   OH2 3638   2.522   3.632   5.230 -0.1001 -0.3210  0.0587
 1225TIP3    H1 3639   2.617   3.636   5.238 -0.1465 -1.5903  1.8693
 1225TIP3    H2 3640   2.489   3.666   5.314 -1.2567  0.1921 -0.5736
 1226TIP3   OH2 3641   3.570   3.598   2.056  0.2355 -0.1240 -0.5406
 1226TIP3    H1 3642   3.657   3.636   2.040 -0.1221 -0.1103 -2.6188
 1226TIP3    H2 3643   3.584   3.504   2.052  0.6986 -0.2859  2.4022
 1227TIP3   OH2 3644   1.199   0.106   0.047  0.5604  0.2904 -0.2526
 1227TIP3    H1 3645   1.200   0.092  -0.048  0.4615  0.6234 -0.3051
 1227TIP3    H2 3646   1.161   0.026   0.083  0.9928 -0.0142 -0.4607
 1228TIP3   OH2 3647   2.009   2.183   1.305  0.6300 -0.2034 -0.6128
 1228TIP3    H1 3648   1.962   2.207   1.226 -0.0254  1.9868  0.3774
 1228TIP3    H2 3649   2.078   2.249   1.313  1.2713 -0.9425  0.1730
 1229TIP3   OH2 3650   1.053   5.285   2.608  0.2865 -0.0736  0.0640
 1229TIP3    H1 3651   1.095   5.203   2.633  1.4572 -0.1719 -1.9608
 1229TIP3    H2 3652   0.964   5.259   2.582  0.4138 -0.5943  0.1346
 1230TIP3   OH2 3653   5.982   0.253   1.828  0.2182  0.0496 -0.1464
 1230TIP3    H1 3654   5.982   0.349   1.831  0.7908  0.0451  3.3119
 1230TIP3    H2 3655   5.891   0.229   1.844  0.2638  0.0106  0.0534
 1231TIP3   OH2 3656   1.650   3.987   0.918  0.3132 -0.0361  0.7532
 1231TIP3    H1 3657   1.658   4.033   0.834 -1.1494 -0.8066  0.1586
 1231TIP3    H2 3658   1.740   3.971   0.945  0.8767 -1.3700 -1.5924
 1232TIP3   OH2 3659   5.012   1.091   5.162 -0.7227  0.0511  0.2842
 1232TIP3    H1 3660   5.077   1.030   5.198 -0.5431 -0.7304 -1.2788
 1232TIP3    H2 3661   4.945   1.034   5.124  0.1569  0.7542 -2.5050
 1233TIP3   OH2 3662   4.779   4.960   1.740  0.2270  0.1361  0.2791
 1233TIP3    H1 3663   4.840   5.032   1.720 -1.7971  1.8026 -0.2892
 1233TIP3    H2 3664   4.735   4.943   1.657  0.3277 -1.4776  0.5310
 1234TIP3   OH2 3665   6.113   5.519   0.973  0.5809 -0.2725  0.2402
 1234TIP3    H1 3666   6.168   5.590   0.940 -0.4395  1.8210  2.7012
 1234TIP3    H2 3667   6.037   5.519   0.915 -0.7169  2.6644  1.7198
 1235TIP3   OH2 3668   2.231   3.718   1.177  0.0259  0.3623  0.8664
 1235TIP3    H1 3669   2.198   3.805   1.157 -0.6027  0.2800  1.5253
 1235TIP3    H2 3670   2.240   3.676   1.091  1.6938  1.5303  0.4128
 1236TIP3   OH2 3671   6.579   1.490   4.149 -0.1212  0.0581  0.6189
 1236TIP3    H1 3672   6.630   1.423   4.195 -0.4823 -0.3760  0.4012
 1236TIP3    H2 3673   6.609   1.485   4.058 -0.9960 -0.6552  0.3525
 1237TIP3   OH2 3674   2.148   3.454   3.989  0.0025  0.1582 -0.5694
 1237TIP3    H1 3675   2.230   3.418   4.025  0.6114  2.1608  0.1511
 1237TIP3    H2 3676   2.169   3.473   3.898  0.1559  0.1636 -0.5337
 1238TIP3   OH2 3677   2.638   5.447   0.319 -0.0850 -0.2554 -0.1693
 1238TIP3    H1 3678   2.704   5.407   0.262 -0.0596 -0.4727  0.0153
 1238TIP3    H2 3679   2.612   5.527   0.272  0.4065 -0.0965 -0.1805
 1239TIP3   OH2 3680   3.948   0.776   2.546  0.0484 -0.7433  0.0784
 1239TIP3    H1 3681   3.942   0.859   2.593 -1.1003 -0.3945 -0.6492
 1239TIP3    H2 3682   4.004   0.794   2.471  0.8523 -0.9786  0.6028
 1240TIP3   OH2 3683   5.757   2.083   0.030  0.2444 -0.4479  0.0590
 1240TIP3    H1 3684   5.663   2.078   0.046  0.2776  0.2344  0.5384
 1240TIP3    H2 3685   5.765   2.109  -0.062  0.0006 -1.8050 -0.3757
 1241TIP3   OH2 3686   3.890   3.817   1.340 -0.2587 -0.1127  0.6308
 1241TIP3    H1 3687   3.891   3.732   1.386 -3.1300  0.0034  1.0728
 1241TIP3    H2 3688   3.893   3.881   1.411  0.6099  0.1605  0.3541
 1242TIP3   OH2 3689   5.818   4.647   5.232  0.0671  0.1497  0.8412
 1242TIP3    H1 3690   5.841   4.560   5.263 -0.3361  0.2182  1.3363
 1242TIP3    H2 3691   5.901   4.695   5.232  0.2177 -0.1113  0.9639
 1243TIP3   OH2 3692   1.386   4.220   4.132  0.0378 -0.0146  0.5435
 1243TIP3    H1 3693   1.306   4.238   4.181 -0.8400  0.0422 -0.8461
 1243TIP3    H2 3694   1.391   4.292   4.068 -0.2500 -1.3863 -1.1065
 1244TIP3   OH2 3695   3.910   3.715   3.235 -1.1323  0.7714 -0.6799
 1244TIP3    H1 3696   3.943   3.742   3.149  3.1207 -0.4548  0.3765
 1244TIP3    H2 3697   3.890   3.622   3.226  1.3435  0.1101  0.0757
 1245TIP3   OH2 3698   1.436   5.510   0.761  0.6311  0.8795 -0.2315
 1245TIP3    H1 3699   1.383   5.530   0.683  0.5275 -1.0760 -0.7088
 1245TIP3    H2 3700   1.442   5.593   0.807 -0.0034  1.9159 -1.9081
 1246TIP3   OH2 3701   0.700   3.987   0.216 -0.3252  0.2615  0.0526
 1246TIP3    H1 3702   0.689   3.899   0.251  0.7405 -0.1431 -0.5909
 1246TIP3    H2 3703   0.755   3.975   0.138 -0.8049  1.3983 -0.4823
 1247TIP3   OH2 3704   5.341   4.612   4.727  0.1233  0.3173 -0.0209
 1247TIP3    H1 3705   5.267   4.626   4.668  1.0205  0.3605 -1.1777
 1247TIP3    H2 3706   5.416   4.647   4.679  0.9010  0.2507  1.1181
 1248TIP3   OH2 3707   0.435   4.731   3.172 -0.5869 -0.1772  0.3252
 1248TIP3    H1 3708   0.493   4.665   3.135  1.7267  1.6086  0.5208
 1248TIP3    H2 3709   0.392   4.771   3.097 -0.9880 -1.0053  0.1094
 1249TIP3   OH2 3710   5.203   4.621   4.471  0.0203  0.5245  0.6744
 1249TIP3    H1 3711   5.111   4.596   4.465  0.0862  0.6903 -1.8641
 1249TIP3    H2 3712   5.208   4.706   4.428  1.3881  0.4084  0.5642
 1250TIP3   OH2 3713   6.854   5.788   1.456  0.1429  0.0179  0.5198
 1250TIP3    H1 3714   6.858   5.851   1.528  1.7879 -0.0219  0.5039
 1250TIP3    H2 3715   6.830   5.841   1.380 -1.1812  0.1291  0.9809
 1251TIP3   OH2 3716   2.291   5.131   2.449  0.1523  0.0255 -0.0566
 1251TIP3    H1 3717   2.201   5.158   2.468  0.5959  0.2731  1.9316
 1251TIP3    H2 3718   2.345   5.196   2.494  1.3939  0.6663 -2.3300
 1252TIP3   OH2 3719   1.319   3.038   1.316 -0.6084  0.0552  0.1455
 1252TIP3    H1 3720   1.403   3.051   1.361  0.0832 -1.1151 -0.7465
 1252TIP3    H2 3721   1.329   3.085   1.233 -0.7048 -0.3704 -0.1087
 1253TIP3   OH2 3722   5.058   3.064   3.483 -0.2234 -0.0446 -0.2500
 1253TIP3    H1 3723   5.045   3.108   3.399 -2.0845  1.0310  0.5663
 1253TIP3    H2 3724   5.020   3.122   3.548 -0.5923 -1.7476  1.1404
 1254TIP3   OH2 3725   6.326   2.210   1.828  0.1117 -0.5631  0.3874
 1254TIP3    H1 3726   6.343   2.273   1.897 -0.2638 -1.8825  1.7381
 1254TIP3    H2 3727   6.405   2.211   1.775 -0.0600  1.3317  0.1008
 1255TIP3   OH2 3728   3.074   1.813   2.610  0.7926  0.3771 -0.7208
 1255TIP3    H1 3729   2.991   1.769   2.589  1.0576  0.0453 -1.0785
 1255TIP3    H2 3730   3.128   1.800   2.533  1.4942 -0.1673 -0.1412
 1256TIP3   OH2 3731   4.279   2.996   5.376 -0.6262 -0.1577 -0.5072
 1256TIP3    H1 3732   4.285   3.023   5.284  1.4384  0.1993 -0.3212
 1256TIP3    H2 3733   4.261   3.077   5.423 -0.2460 -0.0838 -0.4826
 1257TIP3   OH2 3734   3.581   2.821   2.223 -0.8031 -0.4089  0.3430
 1257TIP3    H1 3735   3.602   2.750   2.284 -1.7187 -0.1974  0.9220
 1257TIP3    H2 3736   3.622   2.898   2.263 -1.1011 -0.3349  0.5053
 1258TIP3   OH2 3737   5.572   4.117   3.222 -0.1463 -0.4574  0.3569
 1258TIP3    H1 3738   5.565   4.212   3.227  0.7652 -0.4141  1.0817
 1258TIP3    H2 3739   5.616   4.092   3.303 -0.0914 -1.4687  0.0299
 1259TIP3   OH2 3740   6.493   5.563   0.218 -0.0285 -0.2228  0.1730
 1259TIP3    H1 3741   6.468   5.565   0.311 -0.9344 -1.3523 -0.0302
 1259TIP3    H2 3742   6.586   5.584   0.218 -0.6181  2.8280  1.0678
 1260TIP3   OH2 3743   5.104   4.340   0.696  0.2106 -0.1053 -0.6143
 1260TIP3    H1 3744   5.066   4.312   0.613  0.6627 -0.5506 -0.6739
 1260TIP3    H2 3745   5.046   4.302   0.763  0.6120 -0.8788 -0.7026
 1261TIP3   OH2 3746   5.902   4.102   3.988  0.1752 -0.2303  0.0567
 1261TIP3    H1 3747   5.982   4.054   3.966  1.0884  1.4085 -0.3867
 1261TIP3    H2 3748   5.913   4.125   4.081  0.1357 -0.1558  0.0427
 1262TIP3   OH2 3749   6.722   5.031   2.814  0.5825 -0.2813 -0.6773
 1262TIP3    H1 3750   6.687   4.942   2.825  0.9580 -0.3813 -0.2575
 1262TIP3    H2 3751   6.674   5.066   2.739 -1.4862  0.0938  0.7334
 1263TIP3   OH2 3752   5.251   6.626   2.728  0.4447  0.5188  0.1800
 1263TIP3    H1 3753   5.319   6.559   2.717  1.3213  1.1123  1.6112
 1263TIP3    H2 3754   5.289   6.688   2.791 -2.6868 -0.9184  3.8524
 1264TIP3   OH2 3755   5.513   3.451   0.608  0.8719  0.0220 -0.1062
 1264TIP3    H1 3756   5.599   3.474   0.571  1.4488  0.0373  1.1962
 1264TIP3    H2 3757   5.520   3.359   0.630 -0.1054 -0.4711 -1.6858
 1265TIP3   OH2 3758   7.138   6.319   5.186  0.0663 -0.1186 -0.1057
 1265TIP3    H1 3759   7.137   6.357   5.099 -0.8101 -0.4986 -0.2740
 1265TIP3    H2 3760   7.145   6.225   5.171 -1.8551 -0.3308  0.1538
 1266TIP3   OH2 3761   6.337   5.100   2.252  0.4864  0.2562 -0.3190
 1266TIP3    H1 3762   6.428   5.093   2.221  0.6507  0.2873  0.1532
 1266TIP3    H2 3763   6.342   5.156   2.329 -0.1147  1.3834 -1.0635
 1267TIP3   OH2 3764   0.779   4.235   1.001  0.3367  0.3256 -0.0407
 1267TIP3    H1 3765   0.749   4.163   0.945  2.1339  1.6754 -2.9702
 1267TIP3    H2 3766   0.699   4.285   1.020 -0.5588 -1.0585 -0.0181
 1268TIP3   OH2 3767   1.858   2.240   4.408 -0.2896  0.2391 -0.3644
 1268TIP3    H1 3768   1.936   2.228   4.462 -0.5869 -0.5775 -0.1084
 1268TIP3    H2 3769   1.789   2.191   4.453 -0.7890  0.3815 -0.9516
 1269TIP3   OH2 3770   4.848   6.618   0.613  0.4147  0.6906 -0.1439
 1269TIP3    H1 3771   4.850   6.697   0.667 -2.9989  0.7348  0.1332
 1269TIP3    H2 3772   4.822   6.548   0.673  1.9417 -0.4088 -0.6858
 1270TIP3   OH2 3773   3.386   3.756   2.953  0.4231  0.2883  0.1419
 1270TIP3    H1 3774   3.450   3.792   3.014  0.2790 -0.5233  0.7777
 1270TIP3    H2 3775   3.320   3.825   2.943 -0.8348 -0.4322  2.7759
 1271TIP3   OH2 3776   4.575   0.886   2.658 -0.0551  0.1529 -0.7103
 1271TIP3    H1 3777   4.504   0.834   2.619 -0.2522  0.2814 -0.5263
 1271TIP3    H2 3778   4.612   0.828   2.724  0.6259 -0.2634 -1.4399
 1272TIP3   OH2 3779   3.155   1.571   2.825  0.6687  0.5516  0.2214
 1272TIP3    H1 3780   3.215   1.643   2.807  0.0905  0.7779 -0.9235
 1272TIP3    H2 3781   3.156   1.562   2.920  2.0845  0.9075  0.2708
 1273TIP3   OH2 3782   2.550   6.562   4.026 -0.0040  0.5292 -0.0936
 1273TIP3    H1 3783   2.604   6.501   3.977 -1.5070 -2.1391  1.3694
 1273TIP3    H2 3784   2.605   6.588   4.100  0.6833  1.1004 -0.7826
 1274TIP3   OH2 3785   2.491   1.816   2.979  0.2148 -0.1636 -0.1235
 1274TIP3    H1 3786   2.573   1.841   2.937  0.3098  2.5130  1.4474
 1274TIP3    H2 3787   2.426   1.877   2.944 -0.3629  0.0221  1.2215
 1275TIP3   OH2 3788   3.642   4.495   0.371 -0.2954  0.2700 -0.3641
 1275TIP3    H1 3789   3.655   4.438   0.447  0.9285  1.4541  0.3646
 1275TIP3    H2 3790   3.563   4.546   0.392  1.3792  2.3585  1.3510
 1276TIP3   OH2 3791   0.960   2.776   1.718  0.1833 -0.1905  0.0179
 1276TIP3    H1 3792   1.031   2.762   1.655  2.1431 -0.1273  2.0475
 1276TIP3    H2 3793   0.989   2.728   1.797 -0.6937  2.0543  1.8176
 1277TIP3   OH2 3794   1.506   3.738   4.280 -0.4830  0.3929  0.2745
 1277TIP3    H1 3795   1.586   3.786   4.258 -1.5083  1.4868 -1.3302
 1277TIP3    H2 3796   1.493   3.678   4.206 -1.0562  0.1195  0.5913
 1278TIP3   OH2 3797   2.610   6.192   4.108 -0.5425 -0.3365 -0.1982
 1278TIP3    H1 3798   2.591   6.098   4.113 -4.1700  0.3204  1.3459
 1278TIP3    H2 3799   2.530   6.231   4.073  0.0864  2.3736  1.1128
 1279TIP3   OH2 3800   2.802   0.287   0.379  0.2043  0.0477 -0.0400
 1279TIP3    H1 3801   2.780   0.202   0.417 -0.6915  0.9758  1.6613
 1279TIP3    H2 3802   2.887   0.309   0.416  1.1843 -0.7496 -1.7025
 1280TIP3   OH2 3803   5.112   5.108   4.859  0.2626 -0.3191 -0.7654
 1280TIP3    H1 3804   5.045   5.127   4.926  0.5385  0.3349 -0.6633
 1280TIP3    H2 3805   5.104   5.180   4.797  0.8518 -0.2538 -0.7699
 1281TIP3   OH2 3806   0.095   2.496   3.035 -0.8474 -0.0729  0.0854
 1281TIP3    H1 3807   0.053   2.516   3.119 -0.6484  0.7926 -0.0092
 1281TIP3    H2 3808   0.099   2.401   3.032 -0.7092 -0.1136  1.1392
 1282TIP3   OH2 3809   0.058   2.850   2.156 -0.6897 -0.2082 -0.2291
 1282TIP3    H1 3810   0.118   2.925   2.155 -0.7705 -0.1434 -0.7240
 1282TIP3    H2 3811   0.094   2.791   2.090  0.2270 -1.2977  1.1898
 1283TIP3   OH2 3812   3.322   3.382   3.045  0.5428 -0.3074  0.0804
 1283TIP3    H1 3813   3.254   3.429   3.095  0.6073 -1.2124  1.0633
 1283TIP3    H2 3814   3.403   3.429   3.065  0.4076 -0.0247 -0.0267
 1284TIP3   OH2 3815   4.842   0.775   4.819  0.4378 -0.3126  0.0863
 1284TIP3    H1 3816   4.817   0.857   4.776  0.4810 -0.3213  0.0443
 1284TIP3    H2 3817   4.911   0.738   4.763  1.2182  0.1722  0.7018
 1285TIP3   OH2 3818   5.672   0.782   0.651  0.3281 -0.3741 -0.2445
 1285TIP3    H1 3819   5.692   0.770   0.743 -0.8984 -0.5692  0.0131
 1285TIP3    H2 3820   5.704   0.702   0.609  1.5776  0.0400 -0.1256
 1286TIP3   OH2 3821   0.525   5.395   1.299 -0.0264  0.0043 -0.4153
 1286TIP3    H1 3822   0.446   5.359   1.258 -0.6842  2.3998 -1.4211
 1286TIP3    H2 3823   0.552   5.328   1.362 -1.8350 -1.6475 -1.2965
 1287TIP3   OH2 3824   2.795   4.626   5.607 -0.1711 -0.6219  0.0731
 1287TIP3    H1 3825   2.795   4.665   5.694  1.9842  0.6313 -0.4151
 1287TIP3    H2 3826   2.887   4.627   5.580 -1.0145  1.4644 -3.2575
 1288TIP3   OH2 3827   0.737   6.531   0.266  0.1478 -0.1904 -0.0848
 1288TIP3    H1 3828   0.718   6.618   0.301 -1.8333  0.4711 -2.4688
 1288TIP3    H2 3829   0.740   6.474   0.343  0.4559  1.7921  1.4486
 1289TIP3   OH2 3830   1.429   4.374   0.340 -0.4502  0.4203  0.2597
 1289TIP3    H1 3831   1.404   4.452   0.292  0.6370  0.5228 -0.1566
 1289TIP3    H2 3832   1.491   4.404   0.406  1.9688 -0.3621 -1.4982
 1290TIP3   OH2 3833   5.029   0.752   4.587  0.1290 -0.0292 -0.4470
 1290TIP3    H1 3834   5.101   0.730   4.528  0.3670 -1.0528  0.1875
 1290TIP3    H2 3835   5.005   0.842   4.564  1.1820  0.1021 -1.1026
 1291TIP3   OH2 3836   2.398   6.403   2.395  0.6844 -0.1696 -0.5683
 1291TIP3    H1 3837   2.378   6.492   2.422  3.5235  0.4210 -0.0855
 1291TIP3    H2 3838   2.404   6.354   2.477 -0.0496 -0.6416 -0.7842
 1292TIP3   OH2 3839   6.821   6.315   4.872  0.1989 -0.2929 -0.3944
 1292TIP3    H1 3840   6.795   6.344   4.959  1.4624  1.9093 -0.6800
 1292TIP3    H2 3841   6.844   6.223   4.883 -1.2332 -0.5140  1.2154
 1293TIP3   OH2 3842   1.359   3.645   4.480  0.2516  0.8551 -0.0477
 1293TIP3    H1 3843   1.400   3.627   4.564  1.6059 -2.6035 -1.2817
 1293TIP3    H2 3844   1.430   3.677   4.424  0.4811 -1.1809 -1.0313
 1294TIP3   OH2 3845   7.051   5.693   2.574  0.1770 -0.3678 -0.0821
 1294TIP3    H1 3846   7.061   5.607   2.533 -0.8375 -0.4048 -0.2632
 1294TIP3    H2 3847   7.036   5.674   2.667  1.5947 -0.3124  0.1842
 1295TIP3   OH2 3848   2.534   5.796   1.512  0.1055  0.2142  0.0933
 1295TIP3    H1 3849   2.487   5.747   1.445  0.8300  2.0043 -1.8596
 1295TIP3    H2 3850   2.565   5.875   1.466  3.4774 -0.0112  1.6837
 1296TIP3   OH2 3851   0.512   5.379   4.430 -0.0965  0.0680  0.4100
 1296TIP3    H1 3852   0.502   5.443   4.500  0.1923  1.3304 -0.6629
 1296TIP3    H2 3853   0.459   5.304   4.458 -1.0686  1.0718  1.3305
 1297TIP3   OH2 3854   4.610   5.729   4.588  0.0710 -0.5254  0.4552
 1297TIP3    H1 3855   4.702   5.733   4.614 -0.1125 -0.4101  1.0820
 1297TIP3    H2 3856   4.574   5.656   4.639 -0.0888 -0.8520 -0.1071
 1298TIP3   OH2 3857   4.364   6.554   1.178  0.4964 -0.2297 -0.3693
 1298TIP3    H1 3858   4.333   6.626   1.124 -0.0521 -0.5217 -0.4451
 1298TIP3    H2 3859   4.459   6.552   1.163  1.1367  2.6850  2.2393
 1299TIP3   OH2 3860   3.216   4.716   2.750  0.2793  0.1306 -0.1218
 1299TIP3    H1 3861   3.220   4.797   2.801 -1.0187  0.0131  0.2256
 1299TIP3    H2 3862   3.241   4.648   2.811  3.5857  0.4156 -0.9960
 1300TIP3   OH2 3863   5.445   1.600   3.224 -0.1331 -0.1961  0.0111
 1300TIP3    H1 3864   5.497   1.547   3.285 -1.2221 -1.1042  0.1866
 1300TIP3    H2 3865   5.404   1.537   3.166 -0.8278  0.5149 -0.2962
 1301TIP3   OH2 3866   3.356   4.604   1.370  0.1831  0.3768 -0.3205
 1301TIP3    H1 3867   3.306   4.682   1.394  1.3616  1.1535 -0.3256
 1301TIP3    H2 3868   3.435   4.638   1.329 -0.0533 -0.8581 -1.8935
 1302TIP3   OH2 3869   2.157   1.098   1.137 -0.4986 -0.6648  0.3072
 1302TIP3    H1 3870   2.074   1.068   1.100 -1.1566 -0.8193  1.8618
 1302TIP3    H2 3871   2.172   1.183   1.096 -1.6486 -0.4262  0.3549
 1303TIP3   OH2 3872   0.663   4.095   3.578 -0.5856  0.3585  0.1213
 1303TIP3    H1 3873   0.652   4.172   3.633 -0.4705 -0.8367  1.8832
 1303TIP3    H2 3874   0.719   4.036   3.629  1.1551 -0.0484 -2.0626
 1304TIP3   OH2 3875   5.100   2.807   4.824 -0.6359 -0.3876  0.0096
 1304TIP3    H1 3876   5.051   2.844   4.898 -0.4625  0.2566 -0.1916
 1304TIP3    H2 3877   5.036   2.751   4.780 -1.1617  0.3037 -0.1468
 1305TIP3   OH2 3878   6.645   2.968   4.041 -0.1998  0.2622  0.0121
 1305TIP3    H1 3879   6.681   2.935   3.959 -0.6633  0.7999 -0.4176
 1305TIP3    H2 3880   6.552   2.982   4.022 -0.2974  0.4399  0.6119
 1306TIP3   OH2 3881   3.066   0.173   1.647 -0.0704  0.6194 -0.1056
 1306TIP3    H1 3882   2.982   0.130   1.636 -0.4829  0.5275  2.6450
 1306TIP3    H2 3883   3.112   0.158   1.564 -2.8577  1.0313 -1.8567
 1307TIP3   OH2 3884   2.209   0.776   2.463 -0.1698 -0.1188  0.0264
 1307TIP3    H1 3885   2.292   0.728   2.460  0.6178  1.2076 -0.2879
 1307TIP3    H2 3886   2.146   0.713   2.499  0.9058 -1.2328  0.0317
 1308TIP3   OH2 3887   5.915   5.686   0.598  0.2211  0.3724 -0.7244
 1308TIP3    H1 3888   5.977   5.757   0.612  1.0581 -0.2604 -1.0919
 1308TIP3    H2 3889   5.907   5.644   0.684 -1.5936  1.9022 -0.0808
 1309TIP3   OH2 3890   5.439   2.171   5.301  0.4885 -0.3794  0.1273
 1309TIP3    H1 3891   5.460   2.078   5.308 -0.3114 -0.5446  0.3896
 1309TIP3    H2 3892   5.436   2.202   5.391  0.9492 -0.0410  0.0354
 1310TIP3   OH2 3893   3.900   2.845   2.152 -0.4217 -0.4538  0.2416
 1310TIP3    H1 3894   3.890   2.940   2.146 -0.0185 -0.4414 -0.2466
 1310TIP3    H2 3895   3.825   2.810   2.103 -0.0411 -0.3795 -0.4024
 1311TIP3   OH2 3896   6.785   4.434   0.097  0.0057 -0.8821  0.5279
 1311TIP3    H1 3897   6.840   4.511   0.110 -0.0748 -0.6529 -0.3783
 1311TIP3    H2 3898   6.733   4.426   0.177 -1.4945  1.2377 -0.1574
 1312TIP3   OH2 3899   2.394   5.763   3.624 -0.2177  0.5126  0.2229
 1312TIP3    H1 3900   2.396   5.794   3.714  1.8040  0.5630  0.2157
 1312TIP3    H2 3901   2.306   5.729   3.612 -1.4925  3.1334  1.2828
 1313TIP3   OH2 3902   6.400   2.680   1.155 -0.6223  0.2252 -0.1482
 1313TIP3    H1 3903   6.430   2.765   1.121  2.4004 -1.0868 -1.0393
 1313TIP3    H2 3904   6.411   2.619   1.082  0.6779 -1.6023  1.4897
 1314TIP3   OH2 3905   6.422   5.243   2.476 -0.1095 -0.3548 -0.4587
 1314TIP3    H1 3906   6.405   5.290   2.557  0.9357 -0.6609 -0.0364
 1314TIP3    H2 3907   6.488   5.178   2.500  0.7238 -0.0085 -1.6970
 1315TIP3   OH2 3908   1.577   6.197   1.538 -0.0258  0.7486 -0.1387
 1315TIP3    H1 3909   1.520   6.137   1.587  1.1731 -1.9076 -1.7812
 1315TIP3    H2 3910   1.660   6.195   1.586 -0.5061  2.7877  0.9205
 1316TIP3   OH2 3911   3.008   0.752   5.743 -0.1451  0.0416 -0.4629
 1316TIP3    H1 3912   2.981   0.763   5.834  0.4113  1.4566 -0.4389
 1316TIP3    H2 3913   2.961   0.821   5.696  0.7269  0.2918 -0.9829
 1317TIP3   OH2 3914   3.875   5.471   4.076 -0.1029  0.0169 -0.2817
 1317TIP3    H1 3915   3.816   5.409   4.032 -0.3320 -1.0394  1.4316
 1317TIP3    H2 3916   3.837   5.483   4.163  1.5276  0.2804  0.4287
 1318TIP3   OH2 3917   3.938   5.895   3.112  0.1941  0.0519 -0.3803
 1318TIP3    H1 3918   4.013   5.882   3.170 -0.1662 -0.6450 -0.0587
 1318TIP3    H2 3919   3.962   5.970   3.058  1.3565 -0.5040 -0.6555
 1319TIP3   OH2 3920   2.512   0.229   1.400  0.3459 -0.3350 -0.1346
 1319TIP3    H1 3921   2.551   0.204   1.316 -0.3838  1.7215 -1.1460
 1319TIP3    H2 3922   2.578   0.284   1.442  0.3567 -0.6388  0.2551
 1320TIP3   OH2 3923   2.518   3.921   2.705  0.2079 -0.0554  0.3418
 1320TIP3    H1 3924   2.430   3.885   2.717  0.0371  0.7676  1.7288
 1320TIP3    H2 3925   2.504   4.006   2.663  0.1933  0.7510  1.9029
 1321TIP3   OH2 3926   3.669   3.383   0.673 -0.1145 -0.2843 -0.4528
 1321TIP3    H1 3927   3.740   3.375   0.609 -0.0418 -1.1568 -0.2826
 1321TIP3    H2 3928   3.713   3.379   0.758 -0.3105 -0.2464 -0.3496
 1322TIP3   OH2 3929   6.489   6.778   3.327 -0.4647  0.1730  0.4523
 1322TIP3    H1 3930   6.402   6.763   3.291 -0.2602  1.9061 -0.8935
 1322TIP3    H2 3931   6.488   6.735   3.413 -2.4324 -0.3354  0.2068
 1323TIP3   OH2 3932   1.029   3.042   1.839 -0.5617  0.3281  0.3474
 1323TIP3    H1 3933   1.008   2.967   1.783  2.9563  0.2959 -1.1489
 1323TIP3    H2 3934   1.004   3.118   1.787  0.0742  0.2566 -0.0634
 1324TIP3   OH2 3935   5.576   2.251   2.096  0.6933 -0.1323  0.2397
 1324TIP3    H1 3936   5.648   2.192   2.116  0.3703  0.1112  2.3582
 1324TIP3    H2 3937   5.505   2.194   2.068  0.5708 -0.7413  1.6988
 1325TIP3   OH2 3938   3.590   4.361   2.087  0.0533  0.0445 -0.5279
 1325TIP3    H1 3939   3.560   4.361   1.997 -2.2898 -1.7832  0.1426
 1325TIP3    H2 3940   3.620   4.271   2.102  1.7691  0.6749  0.1670
 1326TIP3   OH2 3941   2.079   0.928   3.011  0.0725 -0.1532  0.3962
 1326TIP3    H1 3942   1.990   0.957   3.033 -0.3564  1.4819 -2.8428
 1326TIP3    H2 3943   2.134   1.004   3.028  0.9816 -1.1868  2.4727
 1327TIP3   OH2 3944   0.036   4.791   1.756  0.1245  0.3069  0.6681
 1327TIP3    H1 3945   0.055   4.880   1.726 -0.6423 -0.0715 -1.0969
 1327TIP3    H2 3946  -0.060   4.787   1.755  0.1079 -0.1272  2.0988
 1328TIP3   OH2 3947   3.836   5.599   5.731 -0.2304 -0.1240  0.3138
 1328TIP3    H1 3948   3.760   5.596   5.672  0.8667 -2.8664 -1.1165
 1328TIP3    H2 3949   3.862   5.508   5.743  1.7144  0.5867  2.3390
 1329TIP3   OH2 3950   6.365   2.421   1.983  0.1957 -0.8514 -0.2140
 1329TIP3    H1 3951   6.435   2.482   1.962 -2.1624  1.7723 -0.9872
 1329TIP3    H2 3952   6.359   2.424   2.079  1.0831 -1.0647 -0.1456
 1330TIP3   OH2 3953   2.063   1.588   5.482 -0.0451  0.3975  0.2876
 1330TIP3    H1 3954   2.149   1.626   5.462 -0.3939  0.7722 -0.5523
 1330TIP3    H2 3955   2.067   1.567   5.575  1.5038 -1.0281 -0.0601
 1331TIP3   OH2 3956   2.734   3.294   0.959  0.5840  0.0933 -0.0809
 1331TIP3    H1 3957   2.780   3.358   1.014 -0.5786  1.5300 -0.7085
 1331TIP3    H2 3958   2.794   3.277   0.887  1.7641 -1.1554  1.1434
 1332TIP3   OH2 3959   4.473   5.075   5.642  0.3928  0.0736 -0.1451
 1332TIP3    H1 3960   4.525   5.153   5.623  0.5644  0.3115  1.2383
 1332TIP3    H2 3961   4.533   5.015   5.685  0.3791 -1.0406 -1.5890
 1333TIP3   OH2 3962   1.632   3.622   0.916 -0.1397  0.2874 -0.1462
 1333TIP3    H1 3963   1.643   3.671   0.835 -2.5713  2.1678  0.5375
 1333TIP3    H2 3964   1.615   3.689   0.982  1.2692 -1.2088  1.8794
 1334TIP3   OH2 3965   3.973   3.286   4.193 -0.5836  0.4667  0.4726
 1334TIP3    H1 3966   4.006   3.197   4.180  1.5194  1.4626 -1.7545
 1334TIP3    H2 3967   3.982   3.327   4.107 -0.5551  3.1416  1.6772
 1335TIP3   OH2 3968   1.829   6.592   1.568  0.0044 -0.0677  0.3051
 1335TIP3    H1 3969   1.756   6.531   1.579  0.2024 -0.4407 -0.3692
 1335TIP3    H2 3970   1.906   6.544   1.599  0.2688 -0.4379 -0.8564
 1336TIP3   OH2 3971   3.603   4.501   3.742 -0.3253 -0.9227 -0.3595
 1336TIP3    H1 3972   3.572   4.486   3.831 -1.7258  1.2937 -0.3843
 1336TIP3    H2 3973   3.697   4.518   3.752 -0.3332 -1.3680  0.5987
 1337TIP3   OH2 3974   1.666   2.386   5.327 -0.1341  0.3059 -0.5124
 1337TIP3    H1 3975   1.610   2.332   5.383 -1.6008  1.4952 -0.7870
 1337TIP3    H2 3976   1.721   2.323   5.280 -0.4127 -0.8264  0.6277
 1338TIP3   OH2 3977   1.473   4.298   2.651  0.8256  0.2231 -0.3932
 1338TIP3    H1 3978   1.512   4.326   2.733  0.8435  0.9559 -0.6444
 1338TIP3    H2 3979   1.547   4.290   2.591  0.6427  1.3341 -0.7914
 1339TIP3   OH2 3980   5.333   6.578   3.752  0.1576  0.1486 -0.2212
 1339TIP3    H1 3981   5.335   6.510   3.684 -0.7718 -0.8435  0.7008
 1339TIP3    H2 3982   5.395   6.645   3.722  0.0578 -0.4558 -1.8345
 1340TIP3   OH2 3983   4.916   6.646   1.110 -0.1275 -0.3631 -0.1316
 1340TIP3    H1 3984   4.935   6.674   1.200  1.5316 -0.5680 -0.3964
 1340TIP3    H2 3985   4.850   6.708   1.079  0.2333  0.5084  0.7801
 1341TIP3   OH2 3986   6.056   4.867   2.689 -0.1085  0.3132  0.3622
 1341TIP3    H1 3987   6.025   4.779   2.668 -1.0259  0.7117 -0.0198
 1341TIP3    H2 3988   6.124   4.885   2.624  0.0251 -0.0857  0.3916
 1342TIP3   OH2 3989   2.536   3.400   1.802 -0.5255  0.2452 -0.2246
 1342TIP3    H1 3990   2.629   3.408   1.779 -0.5988 -0.9786 -1.0770
 1342TIP3    H2 3991   2.490   3.418   1.720 -0.9301 -1.2103 -0.3466
 1343TIP3   OH2 3992   1.297   2.931   0.905  0.8068  0.1428 -0.2486
 1343TIP3    H1 3993   1.363   2.882   0.955  0.4133 -0.2457 -0.0960
 1343TIP3    H2 3994   1.219   2.928   0.961  0.8219  1.0990 -0.1613
 1344TIP3   OH2 3995   5.797   0.583   3.142 -0.1141 -0.0302 -0.3518
 1344TIP3    H1 3996   5.809   0.542   3.228  1.5755  0.1645 -0.4566
 1344TIP3    H2 3997   5.820   0.514   3.079  0.3618  0.3322 -0.5868
 1345TIP3   OH2 3998   5.862   3.923   0.080  0.0542 -0.0066 -0.4629
 1345TIP3    H1 3999   5.822   3.897  -0.003 -1.1985 -0.2998  0.2070
 1345TIP3    H2 4000   5.843   4.016   0.087  0.7749  0.1695 -0.8344
 1346TIP3   OH2 4001   4.214   5.563   0.774 -0.0226 -0.2069  0.0678
 1346TIP3    H1 4002   4.137   5.594   0.821 -0.7217 -1.7842  0.0372
 1346TIP3    H2 4003   4.198   5.469   0.761  1.9834 -0.6188  0.2192
 1347TIP3   OH2 4004   2.085   6.699   3.556  0.2301  1.0815 -0.1735
 1347TIP3    H1 4005   2.133   6.729   3.632 -1.5307  0.6956  1.1515
 1347TIP3    H2 4006   2.024   6.634   3.590  1.2778 -1.1959 -2.3555
 1348TIP3   OH2 4007   5.587   3.145   5.018  0.0121  0.0397 -1.0239
 1348TIP3    H1 4008   5.536   3.065   5.030 -1.1685  1.0350  1.0773
 1348TIP3    H2 4009   5.657   3.138   5.084 -2.3113  2.3314  1.9557
 1349TIP3   OH2 4010   5.237   3.675   2.218  0.0838 -0.2755 -0.4355
 1349TIP3    H1 4011   5.179   3.750   2.207  0.7085  0.5198  1.3993
 1349TIP3    H2 4012   5.184   3.610   2.263 -0.2575 -0.7240 -1.4469
 1350TIP3   OH2 4013   5.334   0.294   0.020 -0.0991 -1.5469  0.5515
 1350TIP3    H1 4014   5.375   0.235   0.084  1.7863 -1.0541 -0.1446
 1350TIP3    H2 4015   5.340   0.247  -0.063  0.3230 -0.8898  0.2040
 1351TIP3   OH2 4016   1.386   5.880   5.602  0.2283  0.1110 -0.3824
 1351TIP3    H1 4017   1.408   5.787   5.596  1.1530  0.3437 -0.7828
 1351TIP3    H2 4018   1.454   5.917   5.658 -0.9342  0.3158  0.9618
 1352TIP3   OH2 4019   2.818   1.903   2.304  0.1177  0.5045  0.1299
 1352TIP3    H1 4020   2.844   1.950   2.383 -0.9997  0.9162  0.2698
 1352TIP3    H2 4021   2.833   1.811   2.324  0.1726  0.6341  0.6956
 1353TIP3   OH2 4022   3.747   3.157   1.026 -0.1801 -0.6404  0.0702
 1353TIP3    H1 4023   3.718   3.126   1.111 -0.5894 -0.5169 -0.0235
 1353TIP3    H2 4024   3.720   3.249   1.023  0.4387 -0.4541  0.0800
 1354TIP3   OH2 4025   0.132   1.591   0.547 -0.1987  0.3156  0.1205
 1354TIP3    H1 4026   0.198   1.657   0.526  0.1766 -0.5237 -1.4014
 1354TIP3    H2 4027   0.166   1.548   0.626  0.5070  0.6261 -0.0037
 1355TIP3   OH2 4028   3.709   6.506   3.926  0.4730  0.0538 -0.0599
 1355TIP3    H1 4029   3.770   6.578   3.940 -0.9151  1.3556 -0.5259
 1355TIP3    H2 4030   3.626   6.536   3.963 -0.1052 -1.3550 -0.1380
 1356TIP3   OH2 4031   4.331   5.000   0.896 -0.5529  0.2071 -0.8210
 1356TIP3    H1 4032   4.251   4.972   0.940 -0.5550  0.2436 -0.8018
 1356TIP3    H2 4033   4.399   4.943   0.933 -0.5026  0.4400 -0.5487
 1357TIP3   OH2 4034   1.465   3.595   3.101 -0.5503  0.5698  0.0079
 1357TIP3    H1 4035   1.396   3.660   3.111 -0.8356  0.4198 -0.9039
 1357TIP3    H2 4036   1.543   3.636   3.138 -1.0783  0.8146  0.8642
 1358TIP3   OH2 4037   1.953   1.906   2.353 -0.1372  0.2934  0.2152
 1358TIP3    H1 4038   1.894   1.837   2.323  1.2265 -1.2357  0.8705
 1358TIP3    H2 4039   1.940   1.910   2.448 -0.1443  0.9056  0.1975
 1359TIP3   OH2 4040   0.540   1.385   3.232 -0.6520  0.6024 -0.3677
 1359TIP3    H1 4041   0.518   1.440   3.307 -2.5074 -0.4777 -0.0585
 1359TIP3    H2 4042   0.461   1.334   3.215  0.7732 -1.5889 -0.9673
 1360TIP3   OH2 4043   4.915   0.104   4.392 -0.0022  0.3052  0.4210
 1360TIP3    H1 4044   4.862   0.182   4.372 -0.6586 -0.2845 -0.1812
 1360TIP3    H2 4045   4.980   0.136   4.455 -0.8342  1.1416  0.9020
 1361TIP3   OH2 4046   5.535   0.836   1.279 -0.7325 -0.0252 -0.7047
 1361TIP3    H1 4047   5.619   0.881   1.284 -0.4405 -0.6790  0.8471
 1361TIP3    H2 4048   5.542   0.779   1.203 -0.7720  1.8237 -2.1750
 1362TIP3   OH2 4049   6.652   5.639   0.853 -0.3238 -0.5044 -0.0721
 1362TIP3    H1 4050   6.746   5.656   0.856 -0.3896 -0.1325 -0.1590
 1362TIP3    H2 4051   6.616   5.707   0.796 -0.5983 -0.8560 -0.3271
 1363TIP3   OH2 4052   1.507   5.628   5.562 -0.4333  0.0913 -0.0416
 1363TIP3    H1 4053   1.594   5.618   5.601 -1.4222 -1.3003  2.0017
 1363TIP3    H2 4054   1.520   5.613   5.469  1.7483  1.5731 -0.0489
 1364TIP3   OH2 4055   5.171   0.090   4.898  0.2091 -0.4441 -0.1617
 1364TIP3    H1 4056   5.131   0.064   4.981 -1.3955  1.4098 -0.2649
 1364TIP3    H2 4057   5.263   0.106   4.919 -0.1321 -0.1621  1.2165
 1365TIP3   OH2 4058   3.877   0.041   4.921  0.8790 -0.3802  0.3663
 1365TIP3    H1 4059   3.940   0.051   4.992 -0.6820  0.0503  1.7385
 1365TIP3    H2 4060   3.877   0.126   4.877 -1.6839  1.1089  2.9453
 1366TIP3   OH2 4061   2.617   0.208   2.580 -0.3180 -0.2320 -0.3297
 1366TIP3    H1 4062   2.566   0.152   2.522 -0.7309  0.5524 -0.7454
 1366TIP3    H2 4063   2.561   0.285   2.594  0.5163  0.3933 -0.3489
 1367TIP3   OH2 4064   3.028   4.456   3.870 -0.3360  0.0602  0.3841
 1367TIP3    H1 4065   2.973   4.395   3.920 -0.8413  0.3607  0.1956
 1367TIP3    H2 4066   2.967   4.516   3.828 -0.1166 -1.5528 -2.5098
 1368TIP3   OH2 4067   3.310   4.956   5.814  0.1138  0.1445 -0.1078
 1368TIP3    H1 4068   3.260   5.037   5.823  3.4115  2.6701 -2.3314
 1368TIP3    H2 4069   3.314   4.921   5.903 -1.6332  2.2731  0.9037
 1369TIP3   OH2 4070   3.192   2.890   2.042  0.1351  0.4510  0.4590
 1369TIP3    H1 4071   3.100   2.903   2.022  0.6645  2.5913 -0.8627
 1369TIP3    H2 4072   3.230   2.857   1.961  0.4344 -1.2067  1.2255
 1370TIP3   OH2 4073   4.633   4.233   5.723 -0.1355 -0.1417  0.3957
 1370TIP3    H1 4074   4.693   4.266   5.657  0.0364 -1.2291 -0.0106
 1370TIP3    H2 4075   4.672   4.260   5.806 -1.1718  2.6114  0.0702
 1371TIP3   OH2 4076   3.027   4.290   2.547  0.0758 -0.2879  0.0509
 1371TIP3    H1 4077   3.027   4.351   2.472  0.6972  0.1594  0.4035
 1371TIP3    H2 4078   2.945   4.309   2.593  0.1649  0.1365  0.0383
 1372TIP3   OH2 4079   2.664   0.133   4.575 -0.2572  0.3550 -0.0276
 1372TIP3    H1 4080   2.581   0.181   4.576 -1.0466 -0.9465 -0.6836
 1372TIP3    H2 4081   2.652   0.062   4.638 -0.4952 -1.1609 -1.6850
 1373TIP3   OH2 4082   6.711   5.660   2.675 -0.0605  0.0407  0.0473
 1373TIP3    H1 4083   6.694   5.685   2.766 -3.0743  1.8430 -0.8567
 1373TIP3    H2 4084   6.627   5.625   2.644  0.7479 -0.0719 -2.1803
 1374TIP3   OH2 4085   4.360   3.390   1.282 -0.5615 -0.0564  0.2631
 1374TIP3    H1 4086   4.294   3.365   1.217 -0.6508 -0.8074  0.6327
 1374TIP3    H2 4087   4.359   3.318   1.346  0.8848 -0.2745  0.0675
 1375TIP3   OH2 4088   1.199   3.366   4.953  0.0399 -0.0372  0.2283
 1375TIP3    H1 4089   1.222   3.341   5.042  0.5153 -1.5660 -0.2932
 1375TIP3    H2 4090   1.282   3.376   4.907 -0.1944  0.8346 -0.0437
 1376TIP3   OH2 4091   3.170   1.261   2.142  0.5837 -0.4990  0.5203
 1376TIP3    H1 4092   3.074   1.269   2.138  0.6410  2.0085  2.0497
 1376TIP3    H2 4093   3.199   1.281   2.053 -0.3089 -2.9140 -0.3999
 1377TIP3   OH2 4094   2.638   2.614   0.234  0.0578 -0.1360  0.1845
 1377TIP3    H1 4095   2.709   2.555   0.209  0.1702 -0.1440  0.5260
 1377TIP3    H2 4096   2.647   2.625   0.328  0.2646  0.7166  0.0762
 1378TIP3   OH2 4097   3.370   0.923   2.039 -0.2277 -0.7649  0.0580
 1378TIP3    H1 4098   3.281   0.923   2.005 -0.3477  0.0526  0.3404
 1378TIP3    H2 4099   3.424   0.898   1.964 -0.0698  4.5625 -2.0658
 1379TIP3   OH2 4100   5.134   0.508   2.176  0.5637  0.2281 -0.0884
 1379TIP3    H1 4101   5.116   0.591   2.219  2.6977  0.5382  0.3459
 1379TIP3    H2 4102   5.115   0.441   2.242 -1.7857  0.2622 -0.6468
 1380TIP3   OH2 4103   2.167   4.684   5.651 -0.4940  0.0034  0.0387
 1380TIP3    H1 4104   2.242   4.744   5.653 -0.0026 -0.6049  0.5362
 1380TIP3    H2 4105   2.196   4.608   5.703 -0.7370 -1.0939 -1.3536
 1381TIP3   OH2 4106   1.853   5.772   3.880 -0.4718 -0.8710  0.1187
 1381TIP3    H1 4107   1.866   5.861   3.845  0.3399 -0.7710  0.6749
 1381TIP3    H2 4108   1.805   5.786   3.962  0.1559 -0.9027  0.4941
 1382TIP3   OH2 4109   5.161   5.235   2.052 -0.3591  0.2960 -0.3541
 1382TIP3    H1 4110   5.128   5.323   2.037  0.2083  0.4830 -0.5181
 1382TIP3    H2 4111   5.147   5.219   2.145 -0.4663  0.5589 -0.3273
 1383TIP3   OH2 4112   6.004   2.166   4.124  0.1253  0.3380 -0.4255
 1383TIP3    H1 4113   6.080   2.128   4.079  1.0701  0.4831  0.9584
 1383TIP3    H2 4114   5.939   2.096   4.126  1.1545 -0.6367  0.4864
 1384TIP3   OH2 4115   1.165   3.450   5.750 -0.3610  0.0806 -0.1048
 1384TIP3    H1 4116   1.140   3.538   5.721  0.2333  1.1929  2.4156
 1384TIP3    H2 4117   1.219   3.416   5.679 -2.1198  0.9529 -1.9733
 1385TIP3   OH2 4118   2.775   1.841   5.432 -0.0593 -0.2239 -0.0227
 1385TIP3    H1 4119   2.839   1.772   5.416 -1.7616 -1.6283 -1.2284
 1385TIP3    H2 4120   2.705   1.824   5.368 -1.2959  1.6600  0.7345
 1386TIP3   OH2 4121   5.869   2.648   3.240  0.0176 -0.0184  0.6209
 1386TIP3    H1 4122   5.871   2.555   3.261 -0.8098 -0.1133  0.3373
 1386TIP3    H2 4123   5.863   2.651   3.145 -0.5725  0.3096  0.6655
 1387TIP3   OH2 4124   5.344   0.690   5.298  0.5863 -0.0025 -0.4478
 1387TIP3    H1 4125   5.384   0.642   5.226 -0.3249 -2.4666  0.5746
 1387TIP3    H2 4126   5.415   0.705   5.360  0.8941  0.0634 -0.8106
 1388TIP3   OH2 4127   3.729   2.515   0.944 -0.0728  0.0543  0.2971
 1388TIP3    H1 4128   3.816   2.479   0.929 -0.1638 -0.4294  0.8627
 1388TIP3    H2 4129   3.723   2.524   1.040 -1.3143 -1.6841  0.4462
 1389TIP3   OH2 4130   5.178   3.905   3.782 -0.2781 -0.1913  0.0485
 1389TIP3    H1 4131   5.216   3.817   3.793 -0.6700 -0.1750  1.8704
 1389TIP3    H2 4132   5.122   3.897   3.705 -0.5558 -1.6472  0.3587
 1390TIP3   OH2 4133   4.419   3.432   0.124 -0.1028  0.2971  0.2420
 1390TIP3    H1 4134   4.365   3.487   0.181 -1.4459 -1.3085  0.5749
 1390TIP3    H2 4135   4.400   3.343   0.151  1.0250 -0.4123 -1.1710
 1391TIP3   OH2 4136   5.096   0.542   1.687  0.1809 -0.0641  0.3349
 1391TIP3    H1 4137   5.039   0.539   1.764  1.0975 -1.1228  0.9866
 1391TIP3    H2 4138   5.073   0.464   1.637 -0.1727  0.4439 -0.3090
 1392TIP3   OH2 4139   0.055   2.486   2.584 -0.3287  0.2467 -0.1115
 1392TIP3    H1 4140  -0.040   2.494   2.579 -0.4746 -0.9131  0.3140
 1392TIP3    H2 4141   0.079   2.531   2.664 -0.5371  0.4517 -0.1636
 1393TIP3   OH2 4142   6.924   0.938   3.744  0.0499  0.2421  0.0855
 1393TIP3    H1 4143   6.846   0.994   3.748  0.8917  1.4308  0.1095
 1393TIP3    H2 4144   6.978   0.976   3.675  1.1477  0.1374  0.8590
 1394TIP3   OH2 4145   3.737   5.808   1.454 -0.6319  0.4096  0.2584
 1394TIP3    H1 4146   3.752   5.718   1.482 -0.6145  0.0214 -0.9405
 1394TIP3    H2 4147   3.764   5.809   1.362 -0.7726  1.6016  0.2212
 1395TIP3   OH2 4148   4.994   6.400   4.096 -0.0816 -0.5526  0.5708
 1395TIP3    H1 4149   5.001   6.308   4.071 -0.3314 -0.1605 -1.1059
 1395TIP3    H2 4150   4.905   6.409   4.130 -0.1213 -0.8944  0.5568
 1396TIP3   OH2 4151   4.668   5.317   0.856  0.2605  0.4637  0.0901
 1396TIP3    H1 4152   4.647   5.376   0.928  0.3488  0.2074  0.3287
 1396TIP3    H2 4153   4.757   5.339   0.831  1.5887 -1.7195  2.3578
 1397TIP3   OH2 4154   2.256   1.572   3.790 -0.9001 -0.6802  0.0293
 1397TIP3    H1 4155   2.275   1.533   3.875 -0.7495  1.3368  0.9645
 1397TIP3    H2 4156   2.165   1.547   3.772 -1.3882 -0.0174  1.4502
 1398TIP3   OH2 4157   2.545   1.398   4.405 -0.4786 -0.2675 -0.1324
 1398TIP3    H1 4158   2.621   1.431   4.453 -1.4148  0.7693  0.7037
 1398TIP3    H2 4159   2.470   1.437   4.450 -1.5193 -1.4128 -0.8154
 1399TIP3   OH2 4160   4.159   4.627   4.988  0.7110  0.3882  0.1445
 1399TIP3    H1 4161   4.208   4.692   5.039  1.0071 -0.0439  0.4231
 1399TIP3    H2 4162   4.128   4.675   4.911  0.7163  0.9167  0.4656
 1400TIP3   OH2 4163   5.163   1.516   2.155 -0.1389 -1.0773  0.2295
 1400TIP3    H1 4164   5.253   1.513   2.122 -0.4500 -0.1483 -0.7765
 1400TIP3    H2 4165   5.108   1.514   2.076 -0.9150  0.8609  0.6477
 1401TIP3   OH2 4166   3.201   6.170   0.960 -0.2920 -0.3628 -0.1185
 1401TIP3    H1 4167   3.238   6.242   0.910 -0.0919  0.7744  1.6022
 1401TIP3    H2 4168   3.190   6.204   1.049 -0.8275 -2.2338  0.5966
 1402TIP3   OH2 4169   0.852   4.526   1.323  0.1880  0.4552 -0.1074
 1402TIP3    H1 4170   0.882   4.586   1.391  0.8789  1.1202 -0.9790
 1402TIP3    H2 4171   0.847   4.441   1.366  1.0443  0.7855  0.6569
 1403TIP3   OH2 4172   0.236   5.432   2.391 -0.1861  0.6218  0.0540
 1403TIP3    H1 4173   0.179   5.503   2.362  0.4305  1.4990  0.9578
 1403TIP3    H2 4174   0.323   5.457   2.361  0.2974  1.0448  1.7191
 1404TIP3   OH2 4175   5.107   2.663   0.102  0.1209 -0.4190  0.0615
 1404TIP3    H1 4176   5.062   2.616   0.172  0.7454  0.4411  1.0695
 1404TIP3    H2 4177   5.135   2.594   0.042 -0.9201 -1.1186  0.3537
 1405TIP3   OH2 4178   0.167   2.258   2.470  0.4390  0.2947 -0.1362
 1405TIP3    H1 4179   0.238   2.306   2.428  1.5649  0.4376  1.7961
 1405TIP3    H2 4180   0.112   2.326   2.509  0.6087  0.1149  0.4270
 1406TIP3   OH2 4181   4.422   1.611   3.801 -0.0095  0.6262  0.0724
 1406TIP3    H1 4182   4.387   1.587   3.715  0.1619 -0.3662  0.2672
 1406TIP3    H2 4183   4.481   1.685   3.783 -1.6847  1.9166 -0.3298
 1407TIP3   OH2 4184   5.429   2.995   3.689 -0.6538  0.3422 -0.1235
 1407TIP3    H1 4185   5.503   3.022   3.635  0.1338  1.9595  1.6317
 1407TIP3    H2 4186   5.468   2.949   3.764 -1.8102 -3.3232 -1.5526
 1408TIP3   OH2 4187   1.695   1.641   1.750 -0.3729 -0.5076 -0.4925
 1408TIP3    H1 4188   1.670   1.640   1.843 -0.1660  3.0428 -0.2480
 1408TIP3    H2 4189   1.786   1.613   1.750 -0.3368 -0.4296  0.4219
 1409TIP3   OH2 4190   5.083   6.401   3.512 -0.2594  0.3167 -0.1063
 1409TIP3    H1 4191   5.065   6.315   3.550 -0.8005  1.3301  2.1209
 1409TIP3    H2 4192   5.013   6.457   3.547 -1.7019  1.1215 -3.8216
 1410TIP3   OH2 4193   6.354   3.754   0.969 -0.1487  0.5222  0.5678
 1410TIP3    H1 4194   6.316   3.699   0.901  0.3675  1.1899 -0.2876
 1410TIP3    H2 4195   6.378   3.693   1.039  0.0838 -0.2987 -0.2070
 1411TIP3   OH2 4196   6.983   2.831   5.370  0.7552  0.4055  0.2811
 1411TIP3    H1 4197   6.991   2.875   5.286 -0.9503 -1.3050 -0.8466
 1411TIP3    H2 4198   7.067   2.848   5.413  1.1213  2.5325 -1.1245
 1412TIP3   OH2 4199   4.390   5.873   4.944  0.0518  0.0378  0.3442
 1412TIP3    H1 4200   4.368   5.877   5.038  0.3040 -1.8977  0.5267
 1412TIP3    H2 4201   4.473   5.827   4.941  0.4108  0.7398 -0.8100
 1413TIP3   OH2 4202   3.773   2.593   1.877 -0.4514  0.1802 -0.5553
 1413TIP3    H1 4203   3.774   2.601   1.782  1.0339 -2.7335 -0.8909
 1413TIP3    H2 4204   3.786   2.683   1.909 -1.3380  1.2751 -3.0488
 1414TIP3   OH2 4205   2.826   5.587   5.231  0.1301  0.7566 -0.1016
 1414TIP3    H1 4206   2.830   5.501   5.273  0.2290  0.7129 -0.1986
 1414TIP3    H2 4207   2.738   5.593   5.196 -1.2627  2.2803  3.2644
 1415TIP3   OH2 4208   4.737   1.370   1.214 -0.2302 -0.3182  0.4871
 1415TIP3    H1 4209   4.762   1.281   1.240  2.0647 -0.0674 -0.6179
 1415TIP3    H2 4210   4.779   1.427   1.279 -2.0307  0.0202  1.4398
 1416TIP3   OH2 4211   7.202   2.439   1.453  0.1585 -0.2705  0.7655
 1416TIP3    H1 4212   7.252   2.379   1.507  0.9545 -0.3608 -0.0305
 1416TIP3    H2 4213   7.129   2.467   1.507  0.8955 -0.4028  1.8510
 1417TIP3   OH2 4214   2.616   4.348   4.333 -0.0157 -0.1575  0.2224
 1417TIP3    H1 4215   2.697   4.389   4.302  0.0453  0.5945  1.3101
 1417TIP3    H2 4216   2.595   4.283   4.266  1.3202 -0.1549 -0.2343
 1418TIP3   OH2 4217   2.437   3.429   5.079  0.3429  0.1663  0.2271
 1418TIP3    H1 4218   2.459   3.514   5.117  1.0539  0.3379 -0.5470
 1418TIP3    H2 4219   2.514   3.374   5.097 -0.1630 -0.3651  0.8409
 1419TIP3   OH2 4220   3.519   5.855   3.438 -1.2296  0.0525 -0.2573
 1419TIP3    H1 4221   3.515   5.946   3.467  2.0338  0.1717  0.1748
 1419TIP3    H2 4222   3.568   5.857   3.356  1.1781 -1.4395  1.0202
 1420TIP3   OH2 4223   6.181   1.439   5.480  0.2634 -0.3352  0.2295
 1420TIP3    H1 4224   6.117   1.452   5.550 -0.8179 -2.5314 -0.2499
 1420TIP3    H2 4225   6.219   1.353   5.499  0.4096 -0.6847 -1.5211
 1421TIP3   OH2 4226   6.012   2.452   4.162 -0.4716  0.4509  0.0691
 1421TIP3    H1 4227   5.992   2.364   4.130 -0.8251  0.9218 -1.0769
 1421TIP3    H2 4228   6.106   2.451   4.178 -0.4145 -0.0371 -0.2716
 1422TIP3   OH2 4229   2.577   2.694   0.892  0.2345  0.3994  0.0685
 1422TIP3    H1 4230   2.619   2.748   0.958 -0.4170 -1.0099  1.7177
 1422TIP3    H2 4231   2.535   2.756   0.832 -0.1400  1.7286  1.6575
 1423TIP3   OH2 4232   4.473   3.285   4.288  0.1316 -0.2216  0.7649
 1423TIP3    H1 4233   4.560   3.275   4.325 -0.1294 -1.1380  1.1558
 1423TIP3    H2 4234   4.457   3.203   4.241 -0.9697 -0.5759  1.6956
 1424TIP3   OH2 4235   2.589   1.518   1.162  0.1489 -0.0546  0.1624
 1424TIP3    H1 4236   2.659   1.486   1.219  1.0872  1.8265  0.1139
 1424TIP3    H2 4237   2.509   1.480   1.200  1.0046 -0.9347  1.1673
 1425TIP3   OH2 4238   1.067   3.410   1.929  0.3360  0.1013 -0.0369
 1425TIP3    H1 4239   1.034   3.453   2.009  1.0000  0.7987 -0.1189
 1425TIP3    H2 4240   1.040   3.468   1.858  0.6659  0.0409 -0.2147
 1426TIP3   OH2 4241   1.714   5.178   4.155  0.1530 -0.0127 -0.1551
 1426TIP3    H1 4242   1.728   5.269   4.179 -0.2036 -0.1029  0.4111
 1426TIP3    H2 4243   1.630   5.155   4.196  0.8404 -0.9648  0.7570
 1427TIP3   OH2 4244   3.236   3.359   2.701  0.3204 -0.3798 -0.4871
 1427TIP3    H1 4245   3.328   3.369   2.677  0.5077 -1.1028 -0.0871
 1427TIP3    H2 4246   3.196   3.315   2.626  0.3322 -0.1923 -0.6024
 1428TIP3   OH2 4247   3.436   1.214   3.556  0.5321  0.3275 -0.0666
 1428TIP3    H1 4248   3.418   1.303   3.526 -0.0721  1.1826  2.5564
 1428TIP3    H2 4249   3.411   1.215   3.648 -1.5582 -3.1628 -0.4188
 1429TIP3   OH2 4250   4.329   1.062   0.323 -0.0496  0.1426  0.7081
 1429TIP3    H1 4251   4.347   1.156   0.333 -0.7848  0.3637  0.1101
 1429TIP3    H2 4252   4.322   1.049   0.228  0.6984 -0.6546  0.7497
 1430TIP3   OH2 4253   2.704   6.202   2.313 -0.5117 -0.0563  0.2384
 1430TIP3    H1 4254   2.756   6.229   2.237 -1.4704  3.3926  0.6054
 1430TIP3    H2 4255   2.767   6.188   2.382  0.1756  0.8065 -0.1857
 1431TIP3   OH2 4256   1.384   6.187   0.695 -0.2240 -1.0659  0.6630
 1431TIP3    H1 4257   1.417   6.111   0.743 -0.6743 -1.0564  0.9869
 1431TIP3    H2 4258   1.294   6.165   0.675 -0.1781 -0.8645  0.2375
 1432TIP3   OH2 4259   4.066   2.427   0.288 -0.1102 -0.2530 -0.8341
 1432TIP3    H1 4260   4.047   2.393   0.201  0.3827 -0.6512 -0.7929
 1432TIP3    H2 4261   3.980   2.441   0.328 -0.3663  0.8267 -1.7161
 1433TIP3   OH2 4262   6.551   6.112   2.108 -0.1175  0.1591 -0.0620
 1433TIP3    H1 4263   6.645   6.110   2.126  0.1032  1.5435 -0.8913
 1433TIP3    H2 4264   6.542   6.065   2.024 -0.0239  0.8137 -0.4481
 1434TIP3   OH2 4265   6.164   5.498   2.731 -0.0264 -0.4117  0.7158
 1434TIP3    H1 4266   6.143   5.419   2.681 -0.2485  0.0863  0.0220
 1434TIP3    H2 4267   6.093   5.505   2.795 -0.1114 -0.6585  0.6509
 1435TIP3   OH2 4268   5.879   6.679   0.345 -0.4567  0.4722 -0.2523
 1435TIP3    H1 4269   5.895   6.710   0.434 -0.7322  0.9005 -0.3497
 1435TIP3    H2 4270   5.791   6.642   0.348 -0.0240 -0.5598 -0.0698
 1436TIP3   OH2 4271   2.060   1.450   2.400  0.3136 -0.2247 -0.3611
 1436TIP3    H1 4272   2.114   1.457   2.479  0.7009 -1.2678 -0.5246
 1436TIP3    H2 4273   2.063   1.358   2.376 -2.0349 -0.4278 -0.0641
 1437TIP3   OH2 4274   2.769   6.531   5.005 -0.5527 -0.3341 -0.3596
 1437TIP3    H1 4275   2.712   6.454   5.018 -1.0478 -0.3022 -2.1183
 1437TIP3    H2 4276   2.738   6.570   4.923  0.2496  1.2759  0.0667
 1438TIP3   OH2 4277   3.133   6.335   4.913 -0.7670  0.0177 -0.0310
 1438TIP3    H1 4278   3.068   6.376   4.969  0.3046 -0.0804  1.3258
 1438TIP3    H2 4279   3.199   6.301   4.973 -0.7328 -2.1765 -1.1998
 1439TIP3   OH2 4280   0.773   1.432   4.921 -0.4247 -0.1329  0.2453
 1439TIP3    H1 4281   0.754   1.487   4.844  0.7633 -3.6246 -2.8723
 1439TIP3    H2 4282   0.691   1.431   4.970 -1.2355  2.3254 -0.8737
 1440TIP3   OH2 4283   7.001   6.347   0.854  0.0362  0.5053 -0.6100
 1440TIP3    H1 4284   7.073   6.299   0.895 -0.4330  0.1875 -0.1491
 1440TIP3    H2 4285   7.030   6.360   0.763  0.5701  0.1716 -0.4937
 1441TIP3   OH2 4286   4.829   2.898   0.657  0.2197  0.3679 -0.0971
 1441TIP3    H1 4287   4.768   2.939   0.596 -0.1354 -2.3177 -1.7402
 1441TIP3    H2 4288   4.915   2.931   0.631 -0.2153  1.6846  0.0855
 1442TIP3   OH2 4289   4.547   5.170   1.108  0.2470 -0.4240 -0.2529
 1442TIP3    H1 4290   4.575   5.261   1.097 -1.0818 -0.0200 -0.5158
 1442TIP3    H2 4291   4.597   5.122   1.042  0.6784  0.1767 -0.3760
 1443TIP3   OH2 4292   0.790   0.224   1.395  0.2152 -0.1044 -0.4334
 1443TIP3    H1 4293   0.761   0.143   1.352 -2.3192  0.6977 -0.4364
 1443TIP3    H2 4294   0.826   0.196   1.478  0.5539 -1.3320 -0.9726
 1444TIP3   OH2 4295   4.943   1.713   2.249  0.3037  0.2330 -0.6543
 1444TIP3    H1 4296   5.028   1.694   2.209  0.5564 -0.6150  0.2395
 1444TIP3    H2 4297   4.964   1.770   2.323  0.0545  0.3212 -0.6513
 1445TIP3   OH2 4298   0.419   5.866   1.836  0.4364 -0.6681  0.0448
 1445TIP3    H1 4299   0.332   5.883   1.802  0.4506  0.9606  0.7436
 1445TIP3    H2 4300   0.455   5.798   1.778 -0.3735  0.3999 -1.7740
 1446TIP3   OH2 4301   6.275   4.096   4.506  0.3270 -0.6249 -0.5094
 1446TIP3    H1 4302   6.256   4.115   4.414  1.7963  0.9797 -0.5284
 1446TIP3    H2 4303   6.260   4.179   4.551  1.1682 -0.9738  0.4496
 1447TIP3   OH2 4304   6.543   0.059   3.774 -0.3156  0.0187  0.3961
 1447TIP3    H1 4305   6.505   0.123   3.714 -0.5196 -1.5779 -1.2654
 1447TIP3    H2 4306   6.599   0.004   3.719  2.9644  1.0318  2.3912
 1448TIP3   OH2 4307   0.869   2.094   4.316  0.3089 -0.5033 -0.0888
 1448TIP3    H1 4308   0.857   2.188   4.329  0.4513 -0.1598 -2.1389
 1448TIP3    H2 4309   0.815   2.054   4.384 -0.7298  1.0596  0.0804
 1449TIP3   OH2 4310   6.784   4.177   3.304  0.5114 -0.2728 -0.0331
 1449TIP3    H1 4311   6.793   4.183   3.399 -0.2104  0.4570  0.0055
 1449TIP3    H2 4312   6.773   4.084   3.286  3.7857 -0.8406  0.2747
 1450TIP3   OH2 4313   4.440   4.214   2.014 -0.0613  0.1639  0.1646
 1450TIP3    H1 4314   4.465   4.125   2.040 -0.0649 -0.4993 -1.9326
 1450TIP3    H2 4315   4.355   4.229   2.056 -0.3085 -1.0262  0.1103
 1451TIP3   OH2 4316   2.305   3.161   2.695 -0.3250  0.4377  0.7942
 1451TIP3    H1 4317   2.293   3.141   2.788  2.2405  0.5391  1.2237
 1451TIP3    H2 4318   2.380   3.221   2.693 -0.8144  1.0665 -1.3032
 1452TIP3   OH2 4319   2.667   4.945   4.439 -0.2661 -0.3000 -0.3161
 1452TIP3    H1 4320   2.679   4.941   4.344 -2.3496 -0.0849 -0.6413
 1452TIP3    H2 4321   2.598   4.882   4.457  1.1542 -1.4695  1.3120
 1453TIP3   OH2 4322   4.473   2.954   5.760 -0.8115 -0.3541  0.5742
 1453TIP3    H1 4323   4.474   2.899   5.682 -0.5401 -0.3458  0.5715
 1453TIP3    H2 4324   4.539   3.021   5.743 -0.3698 -0.6618  1.0340
 1454TIP3   OH2 4325   6.369   6.785   4.358  0.4665  0.6267 -0.4377
 1454TIP3    H1 4326   6.442   6.812   4.415 -0.3730  1.2089  0.3801
 1454TIP3    H2 4327   6.330   6.711   4.404  0.6500  0.1957 -0.9708
 1455TIP3   OH2 4328   0.649   0.113   2.337 -0.1729 -0.2063  0.1382
 1455TIP3    H1 4329   0.710   0.175   2.296 -1.5544  0.3971 -1.0655
 1455TIP3    H2 4330   0.566   0.128   2.293 -0.3740 -3.5828 -0.8724
 1456TIP3   OH2 4331   1.604   5.399   3.274  0.0056  0.8775 -0.3538
 1456TIP3    H1 4332   1.524   5.404   3.327 -0.2810  5.4332 -0.7515
 1456TIP3    H2 4333   1.599   5.315   3.229 -1.7823 -1.4265  3.6372
 1457TIP3   OH2 4334   0.573   2.511   3.593 -0.1464 -0.0790 -0.0818
 1457TIP3    H1 4335   0.532   2.425   3.587 -0.5376  0.0283  0.9291
 1457TIP3    H2 4336   0.521   2.567   3.535 -0.0870 -0.4417 -0.4917
 1458TIP3   OH2 4337   4.305   3.432   4.065 -0.4041 -0.5131 -0.1727
 1458TIP3    H1 4338   4.367   3.420   4.138 -0.1446 -1.6307 -0.5547
 1458TIP3    H2 4339   4.235   3.485   4.102  0.9214  1.0629  0.1838
 1459TIP3   OH2 4340   6.810   3.259   1.069  0.3985 -0.0455  0.4175
 1459TIP3    H1 4341   6.837   3.348   1.092 -1.5311  0.6738  0.1509
 1459TIP3    H2 4342   6.744   3.272   1.001 -0.8123 -1.6128  1.2329
 1460TIP3   OH2 4343   6.105   2.188   0.051 -0.3330  0.3457  0.4731
 1460TIP3    H1 4344   6.175   2.173  -0.013  0.1808 -1.1269  1.3328
 1460TIP3    H2 4345   6.033   2.225  -0.001 -0.4412 -2.1003 -1.2780
 1461TIP3   OH2 4346   5.799   3.203   3.132  0.0373 -0.2984  0.3619
 1461TIP3    H1 4347   5.776   3.217   3.040  1.8592  2.5365  0.2237
 1461TIP3    H2 4348   5.719   3.224   3.180 -0.2881  0.4802 -0.4926
 1462TIP3   OH2 4349   0.156   6.665   4.432 -0.6372 -0.1828 -0.5499
 1462TIP3    H1 4350   0.190   6.728   4.368  1.4024 -0.8805 -0.1994
 1462TIP3    H2 4351   0.234   6.626   4.471 -1.8610 -1.1628  1.0002
 1463TIP3   OH2 4352   2.988   3.644   1.531  0.4659 -0.0055  0.3200
 1463TIP3    H1 4353   2.972   3.674   1.442  0.4374 -0.2771  0.2340
 1463TIP3    H2 4354   3.013   3.552   1.522  1.6924  0.2974  0.4839
 1464TIP3   OH2 4355   6.641   5.489   3.773 -0.0188  0.2017 -0.2152
 1464TIP3    H1 4356   6.650   5.564   3.831 -0.4958 -0.0983  0.2571
 1464TIP3    H2 4357   6.731   5.470   3.744  0.4395 -0.5307  1.5525
 1465TIP3   OH2 4358   3.005   1.008   1.405  0.7443  0.0031  0.0457
 1465TIP3    H1 4359   3.063   1.002   1.482  0.6652  1.1358  0.2074
 1465TIP3    H2 4360   3.065   1.007   1.330  0.7351 -3.3414 -0.0639
 1466TIP3   OH2 4361   2.002   1.119   4.160 -0.2454 -0.5792  0.4781
 1466TIP3    H1 4362   1.951   1.167   4.225  1.3475  1.6230  0.2270
 1466TIP3    H2 4363   1.993   1.171   4.080  1.4117 -0.7475  0.1460
 1467TIP3   OH2 4364   1.980   1.274   1.909 -0.0940 -0.0197 -0.2063
 1467TIP3    H1 4365   1.905   1.235   1.863  1.0884 -1.3183 -1.1257
 1467TIP3    H2 4366   2.017   1.201   1.960 -0.8042  1.1637  2.1509
 1468TIP3   OH2 4367   5.822   4.008   2.674 -0.2797  0.0211 -0.2529
 1468TIP3    H1 4368   5.771   3.927   2.676 -0.2997  0.0363  1.8890
 1468TIP3    H2 4369   5.846   4.018   2.582 -1.5659 -1.5904 -0.8274
 1469TIP3   OH2 4370   0.608   4.174   2.684  0.6782  0.5472  0.4076
 1469TIP3    H1 4371   0.609   4.252   2.740 -1.4642 -0.4552  2.0007
 1469TIP3    H2 4372   0.589   4.102   2.744 -2.2450 -0.5478 -1.6139
 1470TIP3   OH2 4373   3.804   0.994   1.255  0.1926 -0.2770 -0.1413
 1470TIP3    H1 4374   3.898   1.010   1.257  0.1798 -0.2143 -0.0319
 1470TIP3    H2 4375   3.764   1.080   1.266  0.1089 -0.0809 -1.7745
 1471TIP3   OH2 4376   4.029   6.143   0.439 -0.1616 -0.3811  0.0932
 1471TIP3    H1 4377   4.094   6.076   0.462 -0.4486 -0.4473  0.7301
 1471TIP3    H2 4378   4.081   6.217   0.406  0.3951  0.2735  2.2995
 1472TIP3   OH2 4379   0.035   0.214   2.341  0.8276 -0.2734 -0.0876
 1472TIP3    H1 4380  -0.006   0.132   2.313 -0.6971  0.9924 -1.7269
 1472TIP3    H2 4381   0.117   0.186   2.382 -0.7548 -2.7954  1.7080
 1473TIP3   OH2 4382   5.519   6.657   0.198 -0.3483  0.3746  0.3225
 1473TIP3    H1 4383   5.500   6.748   0.174  0.6059  0.6573  0.5881
 1473TIP3    H2 4384   5.502   6.654   0.292 -1.9545 -0.1581  0.0359
 1474TIP3   OH2 4385   6.003   0.867   2.764  0.1046  0.1984  0.5961
 1474TIP3    H1 4386   6.012   0.774   2.748  1.5278  0.4042  0.0255
 1474TIP3    H2 4387   5.931   0.874   2.827 -1.5581 -1.0875 -1.0626
 1475TIP3   OH2 4388   3.413   0.695   4.074 -0.0120  0.7217 -0.1508
 1475TIP3    H1 4389   3.318   0.703   4.081 -0.8733 -3.0624 -3.6772
 1475TIP3    H2 4390   3.436   0.752   4.000  0.1016  0.0226 -0.6563
 1476TIP3   OH2 4391   3.957   4.506   5.851 -0.1871 -0.3781  0.1880
 1476TIP3    H1 4392   3.871   4.548   5.854  0.3087  0.9523 -1.9977
 1476TIP3    H2 4393   3.949   4.436   5.787  0.3883 -0.1151 -0.1874
 1477TIP3   OH2 4394   0.889   0.925   3.587  0.2908 -0.4372 -0.1182
 1477TIP3    H1 4395   0.820   0.911   3.522  0.8794 -1.2045 -0.5893
 1477TIP3    H2 4396   0.855   0.886   3.667 -0.9368  1.5239  0.3969
 1478TIP3   OH2 4397   1.312   5.591   0.147  0.1000  0.1620 -0.3691
 1478TIP3    H1 4398   1.316   5.675   0.100 -0.6933 -0.8698 -2.3978
 1478TIP3    H2 4399   1.220   5.582   0.173  0.4551  0.5378  1.1237
 1479TIP3   OH2 4400   4.468   4.956   0.066 -0.6676  0.7455 -0.3605
 1479TIP3    H1 4401   4.536   4.939   0.131 -2.9713  0.1020  2.0712
 1479TIP3    H2 4402   4.443   4.870   0.034 -2.3772  0.6400  1.0988
 1480TIP3   OH2 4403   4.863   0.410   4.647  0.3569 -0.8401  0.0450
 1480TIP3    H1 4404   4.827   0.455   4.722  0.1821  1.2952 -1.2468
 1480TIP3    H2 4405   4.919   0.341   4.684  0.7082  0.4848  2.0968
 1481TIP3   OH2 4406   6.581   2.338   3.879 -0.2657  0.0251 -0.3953
 1481TIP3    H1 4407   6.672   2.322   3.854  0.0651 -1.4151  1.4503
 1481TIP3    H2 4408   6.586   2.362   3.971 -1.4344  4.6004 -1.2671
 1482TIP3   OH2 4409   4.220   4.716   2.711 -0.5677 -0.3923 -0.0058
 1482TIP3    H1 4410   4.239   4.768   2.633 -0.7028 -1.3413 -0.6866
 1482TIP3    H2 4411   4.300   4.720   2.763 -0.5661  0.4644 -0.0562
 1483TIP3   OH2 4412   3.074   3.231   2.204  0.0178 -0.1793  0.1069
 1483TIP3    H1 4413   3.063   3.326   2.198  0.6948 -0.0644  0.6130
 1483TIP3    H2 4414   3.165   3.216   2.181  0.1447 -0.6190  0.8585
 1484TIP3   OH2 4415   1.110   5.702   2.535  0.7674 -0.2821 -0.3406
 1484TIP3    H1 4416   1.111   5.780   2.478  0.3105  3.2594  3.9869
 1484TIP3    H2 4417   1.190   5.710   2.587  0.2472 -2.2799  0.8555
 1485TIP3   OH2 4418   6.360   6.798   1.851 -0.6260 -0.3832  0.1109
 1485TIP3    H1 4419   6.357   6.724   1.913 -1.1023  0.9029  1.6928
 1485TIP3    H2 4420   6.275   6.796   1.808 -0.6022 -0.8113  0.0758
 1486TIP3   OH2 4421   6.242   5.894   2.914 -0.2855  0.3571 -0.3569
 1486TIP3    H1 4422   6.160   5.880   2.963 -0.2561 -0.1914 -0.4545
 1486TIP3    H2 4423   6.281   5.971   2.955 -0.3113 -0.0334  0.4220
 1487TIP3   OH2 4424   4.642   6.144   3.064 -0.3052  1.1156 -0.9684
 1487TIP3    H1 4425   4.561   6.129   3.016  0.3270  2.2547 -2.4264
 1487TIP3    H2 4426   4.694   6.202   3.009  0.0365  3.4123  1.5273
 1488TIP3   OH2 4427   4.956   2.575   0.320  0.8346 -0.4782  0.1284
 1488TIP3    H1 4428   4.873   2.571   0.367  0.9200 -3.0486  0.1849
 1488TIP3    H2 4429   5.022   2.585   0.388  0.7239 -0.9014  0.3027
 1489TIP3   OH2 4430   4.880   5.912   0.822 -0.0759 -0.0220 -0.1272
 1489TIP3    H1 4431   4.959   5.899   0.875 -0.5177 -1.5145  0.2329
 1489TIP3    H2 4432   4.912   5.943   0.738  0.8797 -0.3286  0.1069
 1490TIP3   OH2 4433   1.631   4.544   3.961 -0.4119 -0.1994  0.2866
 1490TIP3    H1 4434   1.660   4.454   3.978 -0.8639 -0.5354 -0.6758
 1490TIP3    H2 4435   1.709   4.588   3.927 -0.5922 -0.6503 -0.7221
 1491TIP3   OH2 4436   6.307   6.328   0.970 -0.5430  0.3908  0.2440
 1491TIP3    H1 4437   6.378   6.390   0.988  0.1063 -0.1005 -0.5641
 1491TIP3    H2 4438   6.351   6.243   0.961 -1.2626  0.0435 -0.0351
 1492TIP3   OH2 4439   4.114   2.724   4.757 -0.2116  0.2006 -0.2349
 1492TIP3    H1 4440   4.167   2.716   4.677 -1.4952  0.1586 -1.1218
 1492TIP3    H2 4441   4.052   2.651   4.750 -2.0580  1.7504 -0.5596
 1493TIP3   OH2 4442   2.290   1.572   2.980 -0.1467 -0.0700  0.2491
 1493TIP3    H1 4443   2.351   1.645   2.966  0.3968 -0.6761 -0.5932
 1493TIP3    H2 4444   2.278   1.569   3.075  0.4126  0.6408  0.3518
 1494TIP3   OH2 4445   3.360   2.554   5.568  0.0690 -0.8081  0.7146
 1494TIP3    H1 4446   3.335   2.645   5.583 -2.2955 -1.7286  3.2389
 1494TIP3    H2 4447   3.443   2.544   5.615  0.5449  0.0839  0.1009
 1495TIP3   OH2 4448   6.682   4.871   0.828 -0.4231 -0.2848 -0.5369
 1495TIP3    H1 4449   6.741   4.944   0.814  1.9335 -2.0657 -0.4955
 1495TIP3    H2 4450   6.629   4.866   0.748 -0.4770  1.2852 -0.6191
 1496TIP3   OH2 4451   3.938   3.946   2.867 -0.2658  0.4265  0.5636
 1496TIP3    H1 4452   4.027   3.911   2.863 -0.8619 -1.5593  2.5141
 1496TIP3    H2 4453   3.927   3.973   2.959 -2.1338 -0.7615  0.7339
 1497TIP3   OH2 4454   5.445   0.652   1.458 -0.1109 -0.0939 -0.5697
 1497TIP3    H1 4455   5.356   0.685   1.448  0.5172  1.8780 -0.1212
 1497TIP3    H2 4456   5.496   0.699   1.391  0.8692 -0.0008  0.2152
 1498TIP3   OH2 4457   2.390   5.742   5.449 -0.0009  0.1098 -0.1743
 1498TIP3    H1 4458   2.310   5.722   5.498 -1.8540  0.6310 -2.7742
 1498TIP3    H2 4459   2.434   5.658   5.442 -0.1812 -0.1636  1.4579
 1499TIP3   OH2 4460   2.752   1.405   1.316  0.4550  0.3861 -0.7154
 1499TIP3    H1 4461   2.744   1.312   1.335  0.6101  0.3383 -0.8945
 1499TIP3    H2 4462   2.844   1.418   1.293  0.8570  0.8925  1.0238
 1500TIP3   OH2 4463   4.129   2.958   0.180 -0.4565  0.3280 -0.2173
 1500TIP3    H1 4464   4.215   2.998   0.194 -0.1015 -0.1637 -0.9235
 1500TIP3    H2 4465   4.085   2.964   0.265  0.4956  0.0697  0.3024
 1501TIP3   OH2 4466   3.797   3.097   4.814  0.5256  0.1356  0.1240
 1501TIP3    H1 4467   3.791   3.064   4.724  0.0347 -0.1586  0.2622
 1501TIP3    H2 4468   3.834   3.024   4.864  0.0170  0.0033  0.3137
 1502TIP3   OH2 4469   4.953   5.785   1.735  0.2612  0.6307 -0.1732
 1502TIP3    H1 4470   5.037   5.743   1.755  0.1538  0.5342  0.0898
 1502TIP3    H2 4471   4.897   5.761   1.809 -0.3393 -0.2634 -0.8870
 1503TIP3   OH2 4472   3.519   4.955   3.344  0.1265  0.9267 -0.2547
 1503TIP3    H1 4473   3.592   5.002   3.384  1.1579 -0.4011 -0.4763
 1503TIP3    H2 4474   3.460   4.935   3.416  0.5736  0.9903  0.1316
 1504TIP3   OH2 4475   5.701   1.019   3.779  0.3972 -0.0480 -0.4102
 1504TIP3    H1 4476   5.662   0.959   3.716  0.6473 -0.7165  0.0538
 1504TIP3    H2 4477   5.791   1.030   3.750  1.1981 -2.1708  1.0556
 1505TIP3   OH2 4478   2.490   6.693   1.977  0.1183  0.2326 -0.0967
 1505TIP3    H1 4479   2.498   6.659   2.066 -0.9601  2.1316  0.7995
 1505TIP3    H2 4480   2.580   6.697   1.945  0.4106 -1.7060  0.3796
 1506TIP3   OH2 4481   4.691   1.388   0.230 -0.1639 -0.0370  0.7147
 1506TIP3    H1 4482   4.683   1.296   0.203  0.5153 -0.1648  0.9165
 1506TIP3    H2 4483   4.605   1.426   0.214 -0.1575 -0.4523 -0.3567
 1507TIP3   OH2 4484   0.586   0.999   0.965 -0.3825 -0.0587  0.2358
 1507TIP3    H1 4485   0.555   0.908   0.960  0.1816 -0.2600  0.2852
 1507TIP3    H2 4486   0.617   1.019   0.877 -0.3316  0.0244  0.2725
 1508TIP3   OH2 4487   4.870   5.295   2.215  0.2256 -0.1517 -0.3469
 1508TIP3    H1 4488   4.809   5.342   2.270  1.5239  3.1533 -1.4879
 1508TIP3    H2 4489   4.956   5.313   2.253  0.7809 -2.4404 -0.3338
 1509TIP3   OH2 4490   2.970   3.302   1.150  0.0560  0.1193 -0.0284
 1509TIP3    H1 4491   3.005   3.235   1.209  1.5703  1.3002  0.4605
 1509TIP3    H2 4492   3.011   3.283   1.066  1.4652  1.1180  0.3956
 1510TIP3   OH2 4493   5.874   1.318   1.475 -0.6797  0.3488 -0.2184
 1510TIP3    H1 4494   5.870   1.224   1.493 -0.5317  0.4308  0.2713
 1510TIP3    H2 4495   5.851   1.326   1.383 -0.2023 -0.2195 -0.3945
 1511TIP3   OH2 4496   0.451   5.283   1.004 -0.1533 -0.1195  0.0554
 1511TIP3    H1 4497   0.392   5.208   1.010 -0.3362 -0.0827 -1.0366
 1511TIP3    H2 4498   0.451   5.306   0.911 -0.3040  1.4042  0.4116
 1512TIP3   OH2 4499   3.124   5.312   0.523 -0.2658  0.5093  0.5398
 1512TIP3    H1 4500   3.057   5.369   0.560  1.5523  2.8484  0.4324
 1512TIP3    H2 4501   3.202   5.367   0.516  1.1786 -1.5696 -1.0574
 1513TIP3   OH2 4502   2.225   2.702   1.570 -0.4922  0.4097 -0.3356
 1513TIP3    H1 4503   2.318   2.704   1.589 -0.1955  0.0723 -1.6546
 1513TIP3    H2 4504   2.217   2.741   1.483 -1.6499  0.9587 -0.0093
 1514TIP3   OH2 4505   5.942   2.393   3.178 -0.7017  0.2328 -0.0827
 1514TIP3    H1 4506   5.992   2.429   3.105 -2.2713  1.6100 -0.5234
 1514TIP3    H2 4507   5.973   2.303   3.185  0.3893  0.4386 -1.6124
 1515TIP3   OH2 4508   5.179   5.647   1.724  0.5998 -0.2209  0.0132
 1515TIP3    H1 4509   5.226   5.596   1.791  1.4467  0.8266  0.2369
 1515TIP3    H2 4510   5.186   5.594   1.645  1.0843 -0.6654  0.3424
 1516TIP3   OH2 4511   2.560   6.089   1.100 -0.3497 -0.0614  0.6889
 1516TIP3    H1 4512   2.615   6.155   1.059 -1.3045  0.7864  0.7164
 1516TIP3    H2 4513   2.542   6.026   1.031  1.3816 -0.8462  0.9232
 1517TIP3   OH2 4514   1.131   2.276   2.660  0.2243  0.3298 -0.2314
 1517TIP3    H1 4515   1.161   2.215   2.593 -1.2267 -0.6654 -0.0361
 1517TIP3    H2 4516   1.210   2.317   2.693  1.3430 -1.9177  0.0614
 1518TIP3   OH2 4517   4.848   6.375   0.004  0.1855  0.0924  0.0932
 1518TIP3    H1 4518   4.908   6.421   0.062  0.0988 -0.6530  0.7937
 1518TIP3    H2 4519   4.830   6.292   0.049  2.8533 -2.1470 -2.5103
 1519TIP3   OH2 4520   7.112   4.383   3.956 -0.3580 -0.1424 -0.2655
 1519TIP3    H1 4521   7.152   4.355   4.039 -0.1617 -2.0800 -0.9710
 1519TIP3    H2 4522   7.118   4.479   3.958  4.0016 -0.2115 -0.1421
 1520TIP3   OH2 4523   4.616   6.707   3.425  0.4028 -0.0204 -0.1362
 1520TIP3    H1 4524   4.652   6.665   3.503  0.6056 -1.0520 -0.7731
 1520TIP3    H2 4525   4.692   6.731   3.373  0.3388  1.9149  0.5749
 1521TIP3   OH2 4526   6.900   5.602   0.468 -0.0347 -0.1834  0.7639
 1521TIP3    H1 4527   6.822   5.649   0.439  1.1893  0.5093 -1.7015
 1521TIP3    H2 4528   6.886   5.512   0.438 -0.2162 -0.2494  1.0409
 1522TIP3   OH2 4529   6.130   5.869   0.578 -0.5442 -0.0852 -0.7264
 1522TIP3    H1 4530   6.079   5.924   0.518  0.1863  0.7727 -0.5929
 1522TIP3    H2 4531   6.211   5.918   0.591 -0.2254 -0.8089  0.0746
 1523TIP3   OH2 4532   0.319   1.699   3.749  0.1275  0.1730  0.8905
 1523TIP3    H1 4533   0.290   1.787   3.726 -0.0026 -0.3635 -1.2203
 1523TIP3    H2 4534   0.239   1.649   3.762  0.2019  0.4178  2.4256
 1524TIP3   OH2 4535   0.668   6.714   4.469  0.8735  0.2144  0.5106
 1524TIP3    H1 4536   0.715   6.635   4.496  1.7022  0.4256 -0.2465
 1524TIP3    H2 4537   0.682   6.776   4.540 -0.3566 -0.5217  1.4287
 1525TIP3   OH2 4538   5.446   0.915   0.421 -0.1986 -0.0594  0.5881
 1525TIP3    H1 4539   5.411   0.942   0.505  1.3840  4.5028  0.0402
 1525TIP3    H2 4540   5.541   0.931   0.428  0.0536 -0.1110 -1.8464
 1526TIP3   OH2 4541   5.014   3.219   3.222  0.0159 -0.3178  0.4946
 1526TIP3    H1 4542   4.936   3.275   3.222  0.3577  0.1784 -0.3551
 1526TIP3    H2 4543   5.032   3.203   3.129  0.2780 -1.3578  0.7079
 1527TIP3   OH2 4544   7.176   3.763   0.789  0.2289  0.4474 -0.1368
 1527TIP3    H1 4545   7.163   3.703   0.715 -0.6078 -0.4649  0.7279
 1527TIP3    H2 4546   7.137   3.846   0.759 -1.8928 -0.4598 -0.0183
 1528TIP3   OH2 4547   5.159   6.091   1.961  0.2390 -0.4219  0.1202
 1528TIP3    H1 4548   5.105   6.085   2.040  0.9797  1.7410  0.8728
 1528TIP3    H2 4549   5.098   6.116   1.891 -0.3694 -2.0386  0.0467
 1529TIP3   OH2 4550   5.601   2.408   5.490 -0.6896 -0.1782 -0.3360
 1529TIP3    H1 4551   5.515   2.413   5.531  0.0496  1.3087  1.1570
 1529TIP3    H2 4552   5.658   2.460   5.547  1.5831 -2.4268 -0.3730
 1530TIP3   OH2 4553   3.339   6.445   1.771 -0.2408 -0.4180 -0.4867
 1530TIP3    H1 4554   3.261   6.471   1.721 -1.2989 -1.1653  0.7062
 1530TIP3    H2 4555   3.412   6.487   1.726 -1.4353  1.0758 -1.1075
 1531TIP3   OH2 4556   6.703   6.150   4.607 -0.5594  0.0112 -0.2926
 1531TIP3    H1 4557   6.776   6.211   4.611 -0.9109  0.3799  1.1745
 1531TIP3    H2 4558   6.665   6.164   4.520  0.6475  0.3448 -0.7822
 1532TIP3   OH2 4559   6.430   4.887   5.038 -0.2750 -0.1740 -0.0196
 1532TIP3    H1 4560   6.501   4.829   5.063 -0.8267 -0.3518  1.2170
 1532TIP3    H2 4561   6.351   4.845   5.073 -0.5811  1.7665  1.8352
 1533TIP3   OH2 4562   4.110   2.280   4.232  0.2428  0.1514 -0.0453
 1533TIP3    H1 4563   4.059   2.304   4.154  0.3244  0.0815 -0.1199
 1533TIP3    H2 4564   4.048   2.286   4.304 -0.4867 -2.1654 -0.4082
 1534TIP3   OH2 4565   6.529   0.240   1.528 -0.0177  0.0880 -0.1565
 1534TIP3    H1 4566   6.439   0.274   1.529  0.4302  1.3622  2.1161
 1534TIP3    H2 4567   6.536   0.189   1.608  0.2071 -3.3285 -2.1410
 1535TIP3   OH2 4568   4.593   1.276   3.474 -0.1490 -0.4539 -0.4701
 1535TIP3    H1 4569   4.500   1.273   3.493 -0.8059  0.7031 -3.1169
 1535TIP3    H2 4570   4.613   1.370   3.468  0.5401 -0.6904 -2.5715
 1536TIP3   OH2 4571   5.169   4.375   4.687  0.0678  0.2299 -0.0120
 1536TIP3    H1 4572   5.232   4.446   4.702  0.9766 -0.2387 -1.4710
 1536TIP3    H2 4573   5.118   4.404   4.611 -0.7817  0.1107  0.4937
 1537TIP3   OH2 4574   1.745   2.125   3.937  0.1635  0.1295 -0.1181
 1537TIP3    H1 4575   1.780   2.213   3.950 -0.6565  0.4717 -0.1538
 1537TIP3    H2 4576   1.811   2.067   3.974  0.5107  0.7840  0.3082
 1538TIP3   OH2 4577   6.822   3.088   0.340 -0.0529  0.2140 -0.2801
 1538TIP3    H1 4578   6.894   3.027   0.325  2.0419  2.6475 -0.8849
 1538TIP3    H2 4579   6.863   3.163   0.384 -2.4201  1.2842  0.2440
 1539TIP3   OH2 4580   1.428   2.128   3.730  0.4143  0.1776  0.2012
 1539TIP3    H1 4581   1.464   2.104   3.815  1.7156 -0.6985 -0.5771
 1539TIP3    H2 4582   1.379   2.209   3.747 -0.3073 -0.5986  1.9879
 1540TIP3   OH2 4583   1.428   4.689   1.888  0.2524  0.1580  0.3619
 1540TIP3    H1 4584   1.350   4.744   1.878  1.1678  1.3523 -0.7099
 1540TIP3    H2 4585   1.405   4.607   1.844 -0.9161 -0.1195  1.4201
 1541TIP3   OH2 4586   0.193   0.215   1.507 -0.6171 -0.6578 -0.6410
 1541TIP3    H1 4587   0.173   0.215   1.601 -0.3659 -0.8647 -0.5861
 1541TIP3    H2 4588   0.121   0.263   1.467 -0.6472 -0.4316 -0.3222
 1542TIP3   OH2 4589   3.385   2.466   2.167 -0.2159  0.0652  0.0147
 1542TIP3    H1 4590   3.311   2.524   2.151  1.2581  2.2164  0.6088
 1542TIP3    H2 4591   3.346   2.384   2.196 -2.3414  1.1562  0.3841
 1543TIP3   OH2 4592   3.576   1.893   1.955 -0.1134 -0.5788  0.3825
 1543TIP3    H1 4593   3.534   1.968   1.998  0.0902 -0.1691 -0.1302
 1543TIP3    H2 4594   3.571   1.913   1.862  0.2093 -1.0667  0.2586
 1544TIP3   OH2 4595   0.655   4.741   0.382 -0.3210 -0.1825  0.0958
 1544TIP3    H1 4596   0.724   4.719   0.320 -0.7919 -1.2753 -0.0573
 1544TIP3    H2 4597   0.673   4.687   0.459 -1.2570 -0.8243 -0.1203
 1545TIP3   OH2 4598   2.222   5.854   0.774 -0.2777  0.6326 -0.5698
 1545TIP3    H1 4599   2.153   5.789   0.761 -1.6569  2.3107 -2.2498
 1545TIP3    H2 4600   2.291   5.828   0.713 -0.9368  0.8544 -1.4328
 1546TIP3   OH2 4601   5.464   4.451   2.118  0.2073 -0.0570 -0.6272
 1546TIP3    H1 4602   5.370   4.447   2.136  0.6166  0.0549  1.9457
 1546TIP3    H2 4603   5.498   4.368   2.151  1.2550  0.7350  0.3202
 1547TIP3   OH2 4604   3.126   2.289   0.720 -0.2841 -0.0521  0.0646
 1547TIP3    H1 4605   3.080   2.296   0.637 -0.3112 -0.1230  0.0739
 1547TIP3    H2 4606   3.196   2.355   0.714 -1.6917  1.5989  0.9014
 1548TIP3   OH2 4607   2.564   4.263   4.590  0.4648 -0.4510 -0.1341
 1548TIP3    H1 4608   2.632   4.199   4.571  0.6066 -1.1644  2.4476
 1548TIP3    H2 4609   2.572   4.328   4.520  1.8940 -1.9848 -1.4722
 1549TIP3   OH2 4610   4.047   5.684   1.461  0.4681  0.2649  0.1257
 1549TIP3    H1 4611   4.018   5.695   1.371  2.7607  0.4325 -0.6581
 1549TIP3    H2 4612   4.098   5.604   1.460  0.4083  0.1967  1.3223
 1550TIP3   OH2 4613   2.697   0.737   0.954 -0.0730  0.3635 -0.6633
 1550TIP3    H1 4614   2.636   0.690   0.898  1.7698 -0.7207 -1.8619
 1550TIP3    H2 4615   2.692   0.692   1.038 -1.2828  0.6318 -0.5749
 1551TIP3   OH2 4616   2.460   6.117   4.923  0.4855  0.3949  0.5379
 1551TIP3    H1 4617   2.375   6.160   4.932  0.3083 -0.1397  1.5367
 1551TIP3    H2 4618   2.501   6.161   4.848 -0.3203  1.2265  0.5646
 1552TIP3   OH2 4619   3.720   6.163   0.004 -0.0439 -0.3428 -0.4085
 1552TIP3    H1 4620   3.770   6.243  -0.013 -0.0360 -0.3284 -0.3223
 1552TIP3    H2 4621   3.650   6.191   0.063  0.6007 -0.6005  0.5073
 1553TIP3   OH2 4622   5.274   3.697   2.864 -0.4428  0.3484 -0.7649
 1553TIP3    H1 4623   5.239   3.703   2.775 -1.4777 -0.8173 -0.4511
 1553TIP3    H2 4624   5.197   3.690   2.920  0.1824  1.3291  0.2778
 1554TIP3   OH2 4625   2.332   0.294   5.775 -0.0612  0.5326 -0.7746
 1554TIP3    H1 4626   2.341   0.214   5.827 -1.1980  1.0607  0.2757
 1554TIP3    H2 4627   2.251   0.334   5.805 -0.5760  1.0765 -2.7041
 1555TIP3   OH2 4628   6.547   4.167   2.563 -0.5925  0.4596  0.5089
 1555TIP3    H1 4629   6.499   4.106   2.507 -0.1556  1.3554 -0.9112
 1555TIP3    H2 4630   6.635   4.132   2.568 -0.9601 -0.3339  1.7882
 1556TIP3   OH2 4631   1.879   3.928   1.052 -0.2091 -0.4974 -0.0311
 1556TIP3    H1 4632   1.873   3.873   1.130 -1.9013  1.6773  1.5051
 1556TIP3    H2 4633   1.947   3.992   1.072 -1.3888  0.7407  0.2005
 1557TIP3   OH2 4634   5.159   1.110   0.789 -0.5256  0.0237 -0.7016
 1557TIP3    H1 4635   5.148   1.150   0.875  0.8791  2.5623 -1.6010
 1557TIP3    H2 4636   5.085   1.049   0.782 -0.3062 -0.8110  2.5195
 1558TIP3   OH2 4637   2.511   2.617   3.496  0.0129 -0.4283 -0.4290
 1558TIP3    H1 4638   2.581   2.643   3.436  2.4514 -0.4976  2.1790
 1558TIP3    H2 4639   2.509   2.685   3.563 -0.7699 -1.6295  0.8352
 1559TIP3   OH2 4640   5.318   6.427   5.760 -0.1467  0.3999 -0.5301
 1559TIP3    H1 4641   5.324   6.469   5.674  0.9246 -0.2136 -0.7783
 1559TIP3    H2 4642   5.326   6.498   5.823  0.9871  0.6645 -0.9452
 1560TIP3   OH2 4643   2.279   1.508   4.439 -0.4201  0.0211  0.3881
 1560TIP3    H1 4644   2.280   1.507   4.535  1.1503 -2.6589  0.4546
 1560TIP3    H2 4645   2.213   1.443   4.415  2.1350 -2.6233 -0.1269
 1561TIP3   OH2 4646   4.108   0.889   4.020 -0.2993 -0.0995  0.4601
 1561TIP3    H1 4647   4.071   0.968   3.980  0.1367 -0.9036 -1.6561
 1561TIP3    H2 4648   4.032   0.838   4.047 -0.6343  0.1955  0.0886
 1562TIP3   OH2 4649   4.858   2.699   5.898 -0.3559 -0.1169  0.1015
 1562TIP3    H1 4650   4.907   2.780   5.884 -1.2320  0.4224  0.0316
 1562TIP3    H2 4651   4.823   2.676   5.812 -2.6675  1.1638  0.6015
 1563TIP3   OH2 4652   5.352   4.354   0.844  0.4304  0.5171 -0.2590
 1563TIP3    H1 4653   5.309   4.335   0.762  0.0522 -0.5442  0.1787
 1563TIP3    H2 4654   5.293   4.416   0.889 -0.3244 -0.4091  0.0487
 1564TIP3   OH2 4655   4.340   2.536   4.874 -0.6415 -0.1654  0.0073
 1564TIP3    H1 4656   4.370   2.446   4.859  0.4757 -0.1359  1.7001
 1564TIP3    H2 4657   4.249   2.537   4.845 -0.0712 -1.2563 -1.9937
 1565TIP3   OH2 4658   6.633   6.795   3.626 -0.0308  0.1114 -0.0264
 1565TIP3    H1 4659   6.724   6.766   3.618 -0.2742 -0.4645 -0.7634
 1565TIP3    H2 4660   6.581   6.716   3.614 -0.6277  0.4097  0.5602
 1566TIP3   OH2 4661   2.591   3.350   0.324  0.1615  0.4402  0.5797
 1566TIP3    H1 4662   2.518   3.303   0.284  1.2268 -0.1925 -0.6870
 1566TIP3    H2 4663   2.661   3.347   0.258  2.1649 -1.0380  2.6065
 1567TIP3   OH2 4664   1.191   4.326   3.306 -0.0434  0.4717 -0.1564
 1567TIP3    H1 4665   1.223   4.247   3.261 -1.3025  0.1666 -0.5457
 1567TIP3    H2 4666   1.097   4.312   3.315 -0.3446  2.1021 -0.5471
 1568TIP3   OH2 4667   1.388   5.385   5.678  0.3059 -0.6051 -0.0510
 1568TIP3    H1 4668   1.447   5.312   5.661  1.0765 -0.1578  0.6589
 1568TIP3    H2 4669   1.425   5.458   5.629 -1.9833 -1.2759 -3.1349
 1569TIP3   OH2 4670   3.686   4.310   4.216 -0.4815 -0.2244 -0.3165
 1569TIP3    H1 4671   3.618   4.375   4.200 -0.0803  0.1833 -0.3912
 1569TIP3    H2 4672   3.639   4.233   4.250 -1.4026 -1.1438 -3.3625
 1570TIP3   OH2 4673   0.141   0.179   1.105  0.4475  0.2556  0.0869
 1570TIP3    H1 4674   0.133   0.262   1.057  0.6711  0.4149  0.3229
 1570TIP3    H2 4675   0.227   0.146   1.081  0.1022 -0.2373 -0.5170
 1571TIP3   OH2 4676   3.373   3.786   0.224  0.2199  0.2799 -0.5653
 1571TIP3    H1 4677   3.310   3.729   0.179 -1.5353  2.1081 -0.5588
 1571TIP3    H2 4678   3.361   3.766   0.316 -1.2003  1.3603 -0.4796
 1572TIP3   OH2 4679   4.471   0.255   2.081 -0.5678  0.0919  0.0757
 1572TIP3    H1 4680   4.423   0.280   2.161  0.4878 -1.2458  1.1760
 1572TIP3    H2 4681   4.413   0.191   2.038 -0.5070 -0.2886  0.5486
 1573TIP3   OH2 4682   3.848   0.095   3.400 -0.0596 -0.0827 -0.9797
 1573TIP3    H1 4683   3.937   0.091   3.363  0.7471 -0.2162  0.8811
 1573TIP3    H2 4684   3.805   0.017   3.366  1.2257 -1.1426 -0.2508
 1574TIP3   OH2 4685   5.355   1.505   4.652 -0.2535  0.1558 -0.2424
 1574TIP3    H1 4686   5.289   1.477   4.589 -0.5230  0.7064 -0.2104
 1574TIP3    H2 4687   5.373   1.597   4.629  1.1679 -0.2405 -0.8438
 1575TIP3   OH2 4688   0.875   2.601   1.454 -0.0196 -0.3302 -0.0452
 1575TIP3    H1 4689   0.921   2.567   1.531  2.0409  1.1199 -0.5254
 1575TIP3    H2 4690   0.905   2.692   1.447 -2.7793  0.6269 -0.6493
 1576TIP3   OH2 4691   0.410   3.999   4.463 -0.1977 -0.0541 -0.7018
 1576TIP3    H1 4692   0.495   3.955   4.464 -0.3347 -0.3074  0.4075
 1576TIP3    H2 4693   0.429   4.086   4.428  0.5595 -0.0276 -0.2412
 1577TIP3   OH2 4694   5.578   2.959   2.688 -0.0306  0.5688  0.3046
 1577TIP3    H1 4695   5.509   2.965   2.623 -0.8781 -0.9045  1.0074
 1577TIP3    H2 4696   5.622   2.876   2.669  2.4944  2.0783 -0.9681
 1578TIP3   OH2 4697   1.002   5.121   1.904  0.2271  0.2082  0.3134
 1578TIP3    H1 4698   0.957   5.199   1.937 -1.3127 -0.6115  0.2687
 1578TIP3    H2 4699   0.937   5.051   1.914  1.0124 -0.7549 -1.1012
 1579TIP3   OH2 4700   6.989   0.566   1.953 -0.1987  0.3482 -0.2543
 1579TIP3    H1 4701   6.992   0.486   2.007 -0.6671  0.0331 -0.6927
 1579TIP3    H2 4702   7.045   0.546   1.878 -1.5669 -0.1678 -1.1634
 1580TIP3   OH2 4703   1.057   1.158   0.230  0.2496 -0.0990 -0.1215
 1580TIP3    H1 4704   1.130   1.211   0.261 -1.0749  0.4194  2.4132
 1580TIP3    H2 4705   0.999   1.220   0.186 -0.8280  0.5031  1.9878
 1581TIP3   OH2 4706   1.274   2.109   2.071 -0.4440 -0.0379 -0.2167
 1581TIP3    H1 4707   1.313   2.177   2.016 -1.7004  0.7474 -0.1832
 1581TIP3    H2 4708   1.224   2.157   2.137  0.8812 -0.9533  1.5601
 1582TIP3   OH2 4709   2.206   4.681   4.593  0.0045  0.1019 -0.1162
 1582TIP3    H1 4710   2.276   4.652   4.534 -2.3419 -0.9621 -2.5914
 1582TIP3    H2 4711   2.184   4.769   4.563 -0.5438 -0.0660 -0.2250
 1583TIP3   OH2 4712   5.388   5.913   3.091 -0.7173 -0.1215  0.3898
 1583TIP3    H1 4713   5.438   5.957   3.022  1.4466 -2.4380  0.3485
 1583TIP3    H2 4714   5.409   5.821   3.081 -4.3439 -1.1475  1.0705
 1584TIP3   OH2 4715   4.762   0.257   0.828 -0.0651  0.0103  0.3838
 1584TIP3    H1 4716   4.821   0.330   0.845 -0.0084  0.1645 -0.4424
 1584TIP3    H2 4717   4.788   0.224   0.742 -1.2234  0.1290 -0.0361
 1585TIP3   OH2 4718   1.822   1.683   2.191 -0.1833  0.3354  0.4234
 1585TIP3    H1 4719   1.908   1.671   2.151  0.2254 -4.0086  2.0673
 1585TIP3    H2 4720   1.765   1.706   2.118  2.1199  2.4078 -0.8731
 1586TIP3   OH2 4721   4.065   6.471   1.795 -0.5260 -0.4983 -0.1453
 1586TIP3    H1 4722   4.039   6.488   1.704  0.2030 -1.4050 -0.5417
 1586TIP3    H2 4723   4.104   6.383   1.793 -0.6427 -0.6009  1.0793
 1587TIP3   OH2 4724   2.971   3.784   1.306  0.0686 -0.4031  0.3672
 1587TIP3    H1 4725   3.022   3.738   1.239 -1.9489 -0.5792 -1.1548
 1587TIP3    H2 4726   2.925   3.853   1.257 -0.0487  0.6550  1.9186
 1588TIP3   OH2 4727   3.864   3.619   2.467 -0.3796  0.2164 -0.5725
 1588TIP3    H1 4728   3.812   3.663   2.400  0.7015  1.6178 -0.5334
 1588TIP3    H2 4729   3.849   3.670   2.546  0.9992  0.6302 -0.5531
 1589TIP3   OH2 4730   2.985   3.523   4.832  0.4190  0.2873 -0.2265
 1589TIP3    H1 4731   2.893   3.542   4.816  0.6209  0.3295 -1.3750
 1589TIP3    H2 4732   2.985   3.471   4.913 -0.5023  1.2502  0.4137
 1590TIP3   OH2 4733   0.821   6.523   1.419 -0.4686 -0.0867  0.4003
 1590TIP3    H1 4734   0.753   6.545   1.355 -0.4531  0.7017  0.6493
 1590TIP3    H2 4735   0.886   6.473   1.369 -0.6870  0.1204 -0.0933
 1591TIP3   OH2 4736   6.492   4.612   1.969  0.2301 -0.0155 -0.2712
 1591TIP3    H1 4737   6.580   4.613   1.931 -0.2208 -2.4211 -1.5793
 1591TIP3    H2 4738   6.503   4.573   2.056  0.3066 -1.6518 -0.9929
 1592TIP3   OH2 4739   2.329   0.705   0.427 -0.4589  0.4374  0.3351
 1592TIP3    H1 4740   2.242   0.684   0.394 -0.6636  0.9977  0.5157
 1592TIP3    H2 4741   2.389   0.663   0.365 -0.8292  1.6454 -0.8861
 1593TIP3   OH2 4742   2.880   4.484   0.993 -0.3001 -0.3919 -0.2862
 1593TIP3    H1 4743   2.818   4.556   0.981 -0.1919 -0.5226 -1.9137
 1593TIP3    H2 4744   2.953   4.523   1.041 -0.4243  0.4982 -0.7900
 1594TIP3   OH2 4745   1.823   2.501   1.942  0.0609  0.3867 -0.1768
 1594TIP3    H1 4746   1.761   2.433   1.969  1.0324 -0.4618 -0.0108
 1594TIP3    H2 4747   1.773   2.558   1.884 -0.8497 -0.3249 -0.1129
 1595TIP3   OH2 4748   0.545   2.439   2.068  0.1315  0.1608  0.1695
 1595TIP3    H1 4749   0.539   2.422   2.162  2.0167  0.9349  0.4872
 1595TIP3    H2 4750   0.568   2.531   2.061 -0.9095  0.3635 -1.1219
 1596TIP3   OH2 4751   0.136   5.843   3.756  0.0567  0.0169 -0.1551
 1596TIP3    H1 4752   0.145   5.870   3.848 -0.8726  0.8433 -0.2872
 1596TIP3    H2 4753   0.165   5.918   3.706 -0.3437 -0.0742 -0.5346
 1597TIP3   OH2 4754   0.656   3.226   5.583 -0.1564 -0.3656 -0.2150
 1597TIP3    H1 4755   0.648   3.137   5.546  1.3090  0.0278 -1.5923
 1597TIP3    H2 4756   0.566   3.253   5.597 -0.6529 -1.9719 -0.0264
 1598TIP3   OH2 4757   1.821   5.797   4.719 -0.2685  0.0495  0.0572
 1598TIP3    H1 4758   1.772   5.722   4.751  1.9183 -1.7671 -0.5732
 1598TIP3    H2 4759   1.768   5.831   4.647 -1.6829 -0.3580  0.8591
 1599TIP3   OH2 4760   3.534   1.593   4.389  0.2637 -0.0651 -0.7276
 1599TIP3    H1 4761   3.512   1.543   4.467 -0.9064  1.5085 -0.0062
 1599TIP3    H2 4762   3.609   1.547   4.351 -1.1623 -2.7165 -0.4965
 1600TIP3   OH2 4763   4.328   0.176   0.920 -1.0610  0.3176  0.2439
 1600TIP3    H1 4764   4.319   0.083   0.898 -0.8049  0.3186  0.1271
 1600TIP3    H2 4765   4.269   0.221   0.860 -1.5381  0.1943  0.6148
 1601TIP3   OH2 4766   2.300   5.584   4.205  0.0379  0.0321 -0.3924
 1601TIP3    H1 4767   2.331   5.655   4.261 -0.8937  0.1406 -0.0016
 1601TIP3    H2 4768   2.217   5.616   4.169  0.2467 -0.3463 -1.2241
 1602TIP3   OH2 4769   3.500   4.483   0.765 -0.6086 -0.5708  0.7882
 1602TIP3    H1 4770   3.552   4.437   0.700 -0.2848  0.3782  0.3537
 1602TIP3    H2 4771   3.458   4.414   0.816 -0.9210 -1.3176 -0.4606
 1603TIP3   OH2 4772   4.514   1.612   0.200 -0.1686  0.0462  0.9702
 1603TIP3    H1 4773   4.520   1.626   0.106 -1.3923 -0.0372  0.8699
 1603TIP3    H2 4774   4.421   1.618   0.220  0.0151 -0.4962  2.0887
 1604TIP3   OH2 4775   0.442   4.580   4.672 -0.0501  0.3923 -0.4082
 1604TIP3    H1 4776   0.380   4.644   4.638 -0.4988 -0.2739 -0.8739
 1604TIP3    H2 4777   0.388   4.506   4.699  0.5613 -0.3388 -1.1480
 1605TIP3   OH2 4778   1.528   2.099   4.989 -0.3255  0.1099 -0.6185
 1605TIP3    H1 4779   1.459   2.165   4.979 -0.6019  0.0838  0.8418
 1605TIP3    H2 4780   1.514   2.064   5.077  0.4706 -1.1572 -0.9720
 1606TIP3   OH2 4781   4.903   3.720   3.940  0.0113 -0.3523  0.1885
 1606TIP3    H1 4782   4.891   3.730   4.034  0.2426  2.3213  0.0269
 1606TIP3    H2 4783   4.976   3.659   3.931  0.4026 -0.1611  1.7577
 1607TIP3   OH2 4784   1.495   0.834   5.677  0.1607  0.2616  0.1117
 1607TIP3    H1 4785   1.504   0.856   5.769  0.4691  1.5218 -0.1987
 1607TIP3    H2 4786   1.548   0.899   5.631  1.0033 -1.0721 -0.8969
 1608TIP3   OH2 4787   0.154   6.225   5.417 -0.4953 -0.1871 -0.2463
 1608TIP3    H1 4788   0.095   6.300   5.421  0.1857  0.3268  1.8060
 1608TIP3    H2 4789   0.219   6.243   5.485 -0.6233 -2.8912  0.7048
 1609TIP3   OH2 4790   1.252   1.951   0.157 -0.0046 -0.1705 -1.1093
 1609TIP3    H1 4791   1.195   1.879   0.184 -0.2081 -0.1553 -1.4810
 1609TIP3    H2 4792   1.310   1.912   0.092  0.1931 -0.1084 -0.9696
 1610TIP3   OH2 4793   4.629   2.666   3.862 -0.5970  0.2069 -0.4952
 1610TIP3    H1 4794   4.575   2.742   3.884  0.9232  1.8641 -2.1658
 1610TIP3    H2 4795   4.682   2.694   3.787  1.1548 -1.9899 -0.2063
 1611TIP3   OH2 4796   5.168   1.907   1.999 -0.4019  0.1344 -0.3833
 1611TIP3    H1 4797   5.155   1.896   2.093 -1.7334  0.6061 -0.4824
 1611TIP3    H2 4798   5.232   1.840   1.975 -1.7704 -1.5661  0.4754
 1612TIP3   OH2 4799   4.217   3.711   1.385 -0.1808 -0.2989  0.2348
 1612TIP3    H1 4800   4.218   3.695   1.291 -3.2542  0.3594 -0.0003
 1612TIP3    H2 4801   4.168   3.638   1.422  0.2335 -0.0965  1.2327
 1613TIP3   OH2 4802   6.163   2.911   1.524  0.0825  0.4060 -0.7303
 1613TIP3    H1 4803   6.239   2.883   1.575 -1.3028 -0.3124  1.0355
 1613TIP3    H2 4804   6.120   2.830   1.497 -1.1287  0.7607  0.0218
 1614TIP3   OH2 4805   2.716   6.031   5.784  0.1135 -0.3372  0.7568
 1614TIP3    H1 4806   2.681   5.942   5.778 -0.9942  0.1698 -1.6399
 1614TIP3    H2 4807   2.766   6.042   5.703  1.4853  0.7574  1.7073
 1615TIP3   OH2 4808   4.828   2.453   0.978  0.5480  0.3563 -0.0503
 1615TIP3    H1 4809   4.746   2.499   0.993  0.6506  0.8359 -0.9030
 1615TIP3    H2 4810   4.894   2.522   0.970  0.7592  0.0624 -0.9771
 1616TIP3   OH2 4811   2.301   3.126   2.961  0.2774 -0.3134  0.2971
 1616TIP3    H1 4812   2.232   3.074   3.002  0.3411 -2.1572 -1.7568
 1616TIP3    H2 4813   2.381   3.077   2.977  0.4987 -0.3256 -0.7752
 1617TIP3   OH2 4814   1.325   5.179   4.052  0.4490 -0.3271 -0.0963
 1617TIP3    H1 4815   1.415   5.148   4.064  0.2582 -1.0708 -0.5112
 1617TIP3    H2 4816   1.277   5.142   4.127  0.5711  0.4323  0.3641
 1618TIP3   OH2 4817   1.830   4.257   3.320  0.1895  0.1908 -0.0245
 1618TIP3    H1 4818   1.878   4.177   3.298  1.0389  0.9078 -0.8329
 1618TIP3    H2 4819   1.739   4.228   3.329  0.0465 -0.4742 -2.7761
 1619TIP3   OH2 4820   1.113   0.674   0.678 -0.3302  0.2265 -0.1562
 1619TIP3    H1 4821   1.033   0.651   0.631 -1.4856  2.0229  0.8076
 1619TIP3    H2 4822   1.151   0.590   0.703 -1.8395 -0.6798 -0.7440
 1620TIP3   OH2 4823   5.261   0.528   3.154  0.2065  0.1107  0.5017
 1620TIP3    H1 4824   5.254   0.435   3.134  1.7318 -0.0376  0.5309
 1620TIP3    H2 4825   5.188   0.545   3.215 -0.2827 -0.9743  0.2386
 1621TIP3   OH2 4826   0.772   0.334   0.816  0.0371  0.2208 -0.2171
 1621TIP3    H1 4827   0.800   0.274   0.885 -1.0766 -1.3541 -1.0682
 1621TIP3    H2 4828   0.694   0.293   0.779 -1.8757  3.1149  0.3314
 1622TIP3   OH2 4829   6.119   5.720   5.555  0.1056  0.2175 -0.3459
 1622TIP3    H1 4830   6.077   5.642   5.592  0.9020  0.4892  1.2376
 1622TIP3    H2 4831   6.097   5.718   5.462 -1.3995 -0.9107  0.0048
 1623TIP3   OH2 4832   0.406   5.584   2.878  0.8043  0.1728  0.3642
 1623TIP3    H1 4833   0.443   5.627   2.801 -0.7588  0.5969 -0.1836
 1623TIP3    H2 4834   0.407   5.491   2.855 -0.5801  0.3696 -0.6302
 1624TIP3   OH2 4835   2.025   6.444   1.846  0.1179  0.6169  0.1045
 1624TIP3    H1 4836   2.036   6.372   1.909 -0.3671  1.3105  1.0073
 1624TIP3    H2 4837   1.931   6.462   1.847  0.0821  0.5450 -0.9439
 1625TIP3   OH2 4838   2.999   4.025   1.627 -0.2955 -0.0225 -0.5590
 1625TIP3    H1 4839   3.014   4.106   1.675 -0.4474 -1.2763  1.7423
 1625TIP3    H2 4840   3.087   3.996   1.601 -0.0922  0.0632  0.0308
 1626TIP3   OH2 4841   3.970   5.353   5.709  0.1385  0.1922  0.1661
 1626TIP3    H1 4842   4.056   5.337   5.748 -0.1404  1.1859  1.2463
 1626TIP3    H2 4843   3.989   5.372   5.617  0.7548 -2.8431 -0.4541
 1627TIP3   OH2 4844   6.719   1.862   0.351 -0.3275  0.7835 -0.2604
 1627TIP3    H1 4845   6.637   1.820   0.376  0.4315 -0.9077 -0.4621
 1627TIP3    H2 4846   6.779   1.789   0.334  0.8887  1.9635 -1.2259
 1628TIP3   OH2 4847   6.038   1.182   4.666  0.1066 -0.0963 -0.0349
 1628TIP3    H1 4848   6.021   1.161   4.758  1.6803 -1.6427 -0.0222
 1628TIP3    H2 4849   6.025   1.099   4.620 -0.6886  0.6652 -1.2274
 1629TIP3   OH2 4850   4.682   6.715   0.918  0.3940  0.2951 -0.4042
 1629TIP3    H1 4851   4.642   6.674   0.841 -1.4438  0.7630  0.2505
 1629TIP3    H2 4852   4.685   6.808   0.897  0.0513  0.4023 -0.0085
 1630TIP3   OH2 4853   6.662   1.300   3.604 -0.3606  0.0489 -0.3546
 1630TIP3    H1 4854   6.578   1.304   3.559 -0.4390  1.4989 -0.1521
 1630TIP3    H2 4855   6.717   1.363   3.556  0.0754  0.3580  0.5271
 1631TIP3   OH2 4856   5.135   4.954   2.624  0.5313 -0.2402 -0.4854
 1631TIP3    H1 4857   5.198   4.991   2.562  0.4498 -0.2016 -0.5473
 1631TIP3    H2 4858   5.163   4.986   2.710 -0.3845  1.2072 -0.6823
 1632TIP3   OH2 4859   5.450   2.212   0.974  0.3668  0.1482  0.1665
 1632TIP3    H1 4860   5.466   2.135   0.920  2.6084 -0.2420  1.2832
 1632TIP3    H2 4861   5.432   2.177   1.061  0.3664  0.8658  0.4649
 1633TIP3   OH2 4862   5.219   4.000   2.799  0.0302  0.0093 -0.2543
 1633TIP3    H1 4863   5.307   4.005   2.762  1.1973  0.5210  2.3495
 1633TIP3    H2 4864   5.219   3.918   2.849 -1.5194 -0.7131 -1.3259
 1634TIP3   OH2 4865   0.595   4.862   1.159 -0.5742  0.2235 -0.3466
 1634TIP3    H1 4866   0.562   4.927   1.221  1.6709 -1.1139  2.5010
 1634TIP3    H2 4867   0.689   4.878   1.155 -0.1561 -1.9731 -0.6168
 1635TIP3   OH2 4868   5.359   2.070   4.255  0.0523  0.1806  0.0617
 1635TIP3    H1 4869   5.418   2.011   4.302  1.0996  1.5822  0.5953
 1635TIP3    H2 4870   5.379   2.055   4.162 -0.2836 -0.8654  0.1458
 1636TIP3   OH2 4871   3.907   1.370   1.296  0.1642 -0.2771  0.0613
 1636TIP3    H1 4872   3.889   1.455   1.255  0.2198 -0.0350  0.5297
 1636TIP3    H2 4873   3.944   1.317   1.226  0.4072  0.1805 -0.1620
 1637TIP3   OH2 4874   1.410   4.671   2.738  0.0319  0.2447 -0.3298
 1637TIP3    H1 4875   1.437   4.733   2.671 -0.4242  0.5928 -0.1924
 1637TIP3    H2 4876   1.428   4.716   2.821  0.1412  0.0051 -0.2215
 1638TIP3   OH2 4877   0.254   5.535   4.442 -0.1520  0.1283 -0.5453
 1638TIP3    H1 4878   0.234   5.499   4.529  0.4263 -1.2913 -0.9652
 1638TIP3    H2 4879   0.203   5.480   4.382 -0.3062  0.9004 -1.1381
 1639TIP3   OH2 4880   6.711   1.973   4.596  0.3456 -0.7053 -0.0662
 1639TIP3    H1 4881   6.705   2.005   4.506 -0.6109  0.3642  0.3498
 1639TIP3    H2 4882   6.791   1.921   4.598  0.4496 -0.6405 -1.4993
 1640TIP3   OH2 4883   3.589   4.239   1.202  0.2364  0.0168  0.3451
 1640TIP3    H1 4884   3.569   4.331   1.184  0.9473  0.1092  0.0202
 1640TIP3    H2 4885   3.683   4.237   1.217  0.1124 -0.5414  1.1084
 1641TIP3   OH2 4886   2.609   3.790   1.917  0.1864 -0.1288  0.0310
 1641TIP3    H1 4887   2.624   3.859   1.852  1.9549 -0.1804  0.3305
 1641TIP3    H2 4888   2.680   3.727   1.902  0.7198 -0.0818  2.0665
 1642TIP3   OH2 4889   4.897   0.865   3.599  0.3629 -0.0839  0.8195
 1642TIP3    H1 4890   4.921   0.773   3.608  0.6528 -0.0193  0.7044
 1642TIP3    H2 4891   4.875   0.893   3.688  1.7878  0.1559  1.1145
 1643TIP3   OH2 4892   1.610   5.087   2.487  0.4618  0.4230 -0.0930
 1643TIP3    H1 4893   1.641   5.102   2.397  0.9003  0.3169  0.0341
 1643TIP3    H2 4894   1.515   5.099   2.482  0.0607 -2.3485 -1.1919
 1644TIP3   OH2 4895   0.856   4.784   5.535 -0.5941  0.1153  0.2617
 1644TIP3    H1 4896   0.812   4.699   5.533  2.1344 -1.3885  0.4854
 1644TIP3    H2 4897   0.933   4.773   5.480 -0.4784  2.6743 -0.1972
 1645TIP3   OH2 4898   5.022   0.741   3.107 -0.0155 -0.0077 -0.0301
 1645TIP3    H1 4899   5.021   0.800   3.031  3.3335  0.0725 -0.1538
 1645TIP3    H2 4900   4.983   0.793   3.178 -1.8631  0.4358 -1.2903
 1646TIP3   OH2 4901   6.141   1.754   0.460 -0.4161 -0.2358 -0.0406
 1646TIP3    H1 4902   6.129   1.693   0.533  1.6672 -0.3554  0.2764
 1646TIP3    H2 4903   6.184   1.702   0.393 -0.5835  0.3558 -0.6138
 1647TIP3   OH2 4904   2.930   2.906   2.445  0.2209 -0.2749  0.1851
 1647TIP3    H1 4905   3.010   2.923   2.495  0.0064 -0.9707  0.7981
 1647TIP3    H2 4906   2.881   2.844   2.500  0.0023 -1.1163 -0.9140
 1648TIP3   OH2 4907   0.482   4.977   0.215  0.1354 -0.1528  0.0180
 1648TIP3    H1 4908   0.524   4.903   0.259  1.7381  0.2542 -0.7418
 1648TIP3    H2 4909   0.407   4.938   0.169  1.2902 -1.4578 -0.8723
 1649TIP3   OH2 4910   3.133   4.965   3.326 -0.2681 -0.3876 -0.1016
 1649TIP3    H1 4911   3.179   5.025   3.386  0.3509  1.4227 -2.2161
 1649TIP3    H2 4912   3.073   4.916   3.381  0.5313  0.9035  2.0277
 1650TIP3   OH2 4913   2.636   0.960   5.536 -0.0053  0.1619  0.7166
 1650TIP3    H1 4914   2.544   0.974   5.513  0.6625  1.4286 -1.5177
 1650TIP3    H2 4915   2.658   1.036   5.591  0.1093  0.7696 -0.1463
 1651TIP3   OH2 4916   1.151   2.619   0.908  0.1985 -0.0503  0.4052
 1651TIP3    H1 4917   1.072   2.598   0.858  1.3123 -0.9720 -1.0795
 1651TIP3    H2 4918   1.139   2.575   0.992 -1.2096  0.5290  0.5364
 1652TIP3   OH2 4919   7.191   1.179   1.249  0.5137  0.6249 -0.5168
 1652TIP3    H1 4920   7.114   1.135   1.285  0.0153  0.2562 -1.9315
 1652TIP3    H2 4921   7.263   1.118   1.265  0.2912  0.4366 -0.2271
 1653TIP3   OH2 4922   4.919   5.546   0.541  0.2717 -0.4755  0.4624
 1653TIP3    H1 4923   5.011   5.573   0.551  1.1368 -1.5179 -3.1221
 1653TIP3    H2 4924   4.922   5.450   0.546 -0.1218 -0.6850 -1.8131
 1654TIP3   OH2 4925   0.742   5.068   1.754  0.2129 -0.0239 -0.3401
 1654TIP3    H1 4926   0.719   4.976   1.739  1.5067 -0.5679  0.7599
 1654TIP3    H2 4927   0.802   5.090   1.683 -0.3514  0.0866 -0.7911
 1655TIP3   OH2 4928   2.193   5.172   4.532 -0.4001  0.2040 -0.3313
 1655TIP3    H1 4929   2.108   5.196   4.569 -0.7027  0.2344 -1.0286
 1655TIP3    H2 4930   2.239   5.255   4.522 -0.0630  0.1346  0.5724
 1656TIP3   OH2 4931   3.604   2.801   2.976 -0.3370 -0.5960  0.2756
 1656TIP3    H1 4932   3.592   2.716   2.932  0.3620 -1.0138  0.8644
 1656TIP3    H2 4933   3.558   2.791   3.059  1.4390 -1.1533  1.2471
 1657TIP3   OH2 4934   0.196   4.679   0.268  0.1468 -0.2977  0.3018
 1657TIP3    H1 4935   0.276   4.680   0.215  0.7589  0.9323  1.1784
 1657TIP3    H2 4936   0.126   4.701   0.207  0.7973  0.7875 -0.0892
 1658TIP3   OH2 4937   6.290   3.168   3.440 -0.0557 -0.4242 -0.5079
 1658TIP3    H1 4938   6.263   3.201   3.526 -1.1941 -1.6583 -0.3721
 1658TIP3    H2 4939   6.299   3.074   3.451  2.0022 -0.3673 -1.2017
 1659TIP3   OH2 4940   4.535   5.984   5.438  0.4067  0.0533  0.5179
 1659TIP3    H1 4941   4.504   6.003   5.527  0.1730  1.4150  0.1740
 1659TIP3    H2 4942   4.613   6.038   5.429  0.8363 -0.6269  0.1355
 1660TIP3   OH2 4943   7.166   2.081   2.365 -0.0287  0.5553 -0.3376
 1660TIP3    H1 4944   7.241   2.124   2.406 -0.5477  0.7778  0.4054
 1660TIP3    H2 4945   7.186   2.082   2.271  0.1717  2.0212 -0.3029
 1661TIP3   OH2 4946   1.253   3.935   3.679 -0.0936 -0.2289 -0.2872
 1661TIP3    H1 4947   1.295   4.018   3.655  1.7857 -0.7874  0.7823
 1661TIP3    H2 4948   1.191   3.959   3.748  1.4414  0.1786  1.0249
 1662TIP3   OH2 4949   3.376   4.938   0.377  0.0215  0.2985 -0.2256
 1662TIP3    H1 4950   3.354   5.031   0.375  0.3261  0.5274  2.6668
 1662TIP3    H2 4951   3.326   4.903   0.451  1.2382 -1.4595 -0.1680
 1663TIP3   OH2 4952   1.190   6.096   3.659 -0.0717  0.4852  0.2770
 1663TIP3    H1 4953   1.098   6.069   3.651 -0.7554  2.3785  1.1202
 1663TIP3    H2 4954   1.212   6.076   3.750  0.6558 -0.7687 -0.1562
 1664TIP3   OH2 4955   1.648   4.251   3.867 -0.6081 -0.3770  0.0635
 1664TIP3    H1 4956   1.681   4.178   3.918 -1.9746 -0.2799  1.1381
 1664TIP3    H2 4957   1.560   4.225   3.841 -0.8732  0.6258 -0.0970
 1665TIP3   OH2 4958   0.692   1.602   1.030 -0.4641  0.3450 -0.0046
 1665TIP3    H1 4959   0.645   1.677   1.066  0.8478  0.6961  1.0636
 1665TIP3    H2 4960   0.775   1.639   1.000 -0.3103 -0.4761 -0.6225
 1666TIP3   OH2 4961   5.213   6.023   2.721  0.4539  0.0300  0.2873
 1666TIP3    H1 4962   5.213   6.117   2.706 -1.3406  0.0737  0.2825
 1666TIP3    H2 4963   5.285   6.008   2.782  1.9783  1.1151 -1.1612
 1667TIP3   OH2 4964   3.396   4.603   0.430 -0.0898 -0.0632 -0.1224
 1667TIP3    H1 4965   3.351   4.631   0.509 -2.3626 -0.4163 -1.2265
 1667TIP3    H2 4966   3.329   4.558   0.378  1.4390 -0.2566 -2.0523
 1668TIP3   OH2 4967   4.705   2.295   2.039 -0.3113  0.3492 -0.0054
 1668TIP3    H1 4968   4.797   2.319   2.045  0.6590 -2.9163  0.1821
 1668TIP3    H2 4969   4.690   2.239   2.115 -1.4064 -2.0364 -1.8581
 1669TIP3   OH2 4970   0.675   1.326   3.004 -0.3069 -0.4460  0.1569
 1669TIP3    H1 4971   0.598   1.314   2.948 -0.3020 -0.5620  0.1744
 1669TIP3    H2 4972   0.639   1.354   3.089 -0.3099 -0.2088  0.0769
 1670TIP3   OH2 4973   0.271   6.068   1.548 -0.5365 -0.2189  0.0351
 1670TIP3    H1 4974   0.197   6.015   1.577 -0.0606 -0.2435  1.2827
 1670TIP3    H2 4975   0.258   6.152   1.592 -0.2095  0.0190 -0.3149
 1671TIP3   OH2 4976   3.129   0.518   2.050 -0.5568 -0.0837 -0.3080
 1671TIP3    H1 4977   3.201   0.465   2.016 -0.2956 -0.1892  0.4032
 1671TIP3    H2 4978   3.054   0.492   1.996 -0.2424 -0.5424 -0.5376
 1672TIP3   OH2 4979   5.685   0.538   1.579 -0.0749 -0.1802  0.1135
 1672TIP3    H1 4980   5.770   0.580   1.569  0.1331 -0.8073 -0.9601
 1672TIP3    H2 4981   5.686   0.467   1.515 -1.4443 -0.1393  0.0116
 1673TIP3   OH2 4982   2.318   6.474   0.196 -0.0132 -0.5130  0.1697
 1673TIP3    H1 4983   2.271   6.398   0.162 -0.0667 -0.6842  0.6124
 1673TIP3    H2 4984   2.276   6.491   0.281  0.1307 -0.1123  0.1595
 1674TIP3   OH2 4985   0.626   1.995   0.937  0.0065 -0.1651 -0.0022
 1674TIP3    H1 4986   0.604   2.063   1.001  0.4537  1.0364 -1.0750
 1674TIP3    H2 4987   0.570   1.921   0.961 -1.1331  0.8748  0.6989
 1675TIP3   OH2 4988   5.527   6.022   1.294 -0.3570  0.0748 -0.2089
 1675TIP3    H1 4989   5.491   6.050   1.378  0.5456 -0.6112  0.4268
 1675TIP3    H2 4990   5.612   6.065   1.288 -0.8011  0.8512 -1.2155
 1676TIP3   OH2 4991   4.803   3.975   0.657 -0.5155 -0.3178 -0.4599
 1676TIP3    H1 4992   4.892   3.969   0.621 -0.5110 -1.1986 -0.3219
 1676TIP3    H2 4993   4.760   4.042   0.603 -0.6185 -1.8463 -2.3706
 1677TIP3   OH2 4994   2.011  -0.031   1.742  0.2614  0.1392 -0.3554
 1677TIP3    H1 4995   1.933  -0.003   1.791  0.3664 -0.6966  0.3009
 1677TIP3    H2 4996   2.031   0.043   1.685 -0.5990  0.6408 -0.0208
 1678TIP3   OH2 4997   2.608   3.742   1.567  0.9593 -0.5678  0.0997
 1678TIP3    H1 4998   2.652   3.824   1.545  0.2682 -0.3090 -0.3319
 1678TIP3    H2 4999   2.527   3.768   1.610  1.4292 -1.0540  1.3243
 1679TIP3   OH2 5000   3.052   4.805   0.022  0.0798 -0.2518 -0.2820
 1679TIP3    H1 5001   3.109   4.751   0.076  0.1672 -1.0218 -1.1116
 1679TIP3    H2 5002   3.046   4.888   0.068  1.0117 -0.5255  0.3509
 1680TIP3   OH2 5003   5.312   1.035   4.080 -0.2121 -0.3608  0.1318
 1680TIP3    H1 5004   5.407   1.039   4.065 -0.0398  1.3872  1.3538
 1680TIP3    H2 5005   5.274   1.030   3.993  0.9628  0.7406 -0.4721
 1681TIP3   OH2 5006   5.374   2.741   0.156 -0.0095  0.1266  0.3162
 1681TIP3    H1 5007   5.285   2.725   0.127  0.5785  0.3605 -1.8015
 1681TIP3    H2 5008   5.401   2.660   0.200 -0.9224 -0.3061  0.0846
 1682TIP3   OH2 5009   0.610   4.797   4.803 -0.2419 -0.4127  0.3574
 1682TIP3    H1 5010   0.523   4.827   4.830 -1.2925 -1.7752 -1.3180
 1682TIP3    H2 5011   0.599   4.704   4.784  1.0730 -0.2135 -1.7840
 1683TIP3   OH2 5012   4.101   2.419   4.658  0.2268 -0.1007 -0.1345
 1683TIP3    H1 5013   4.086   2.456   4.571 -2.0658 -1.4498 -0.3956
 1683TIP3    H2 5014   4.151   2.339   4.642  0.2006 -0.1126 -0.1569
 1684TIP3   OH2 5015   2.682   3.849   0.875 -0.2761  0.2797  0.1525
 1684TIP3    H1 5016   2.698   3.897   0.793  2.7428  2.1865  1.6943
 1684TIP3    H2 5017   2.664   3.917   0.939  0.4647 -0.9234  1.6964
 1685TIP3   OH2 5018   2.815   2.290   2.770 -0.7292 -0.3683  0.1553
 1685TIP3    H1 5019   2.839   2.329   2.686  0.3735 -1.5222 -0.0992
 1685TIP3    H2 5020   2.859   2.205   2.770 -0.7545 -0.4135  1.8788
 1686TIP3   OH2 5021   6.030   6.071   4.486 -0.1104 -0.1358 -0.5916
 1686TIP3    H1 5022   6.015   6.154   4.531  0.7175  0.4739 -1.4032
 1686TIP3    H2 5023   5.992   6.005   4.544  0.0844  0.7146  0.5321
 1687TIP3   OH2 5024   3.257   2.035   1.507 -0.4451 -0.4477  0.0043
 1687TIP3    H1 5025   3.262   2.123   1.469  1.3713 -0.2896  0.5069
 1687TIP3    H2 5026   3.284   1.977   1.437  1.1717 -0.3108  0.4661
 1688TIP3   OH2 5027   0.129   4.487   1.250 -0.0846 -0.0800  0.1764
 1688TIP3    H1 5028   0.044   4.453   1.221 -0.9305  1.0238  1.2640
 1688TIP3    H2 5029   0.180   4.408   1.271 -1.0602 -0.7414  0.1217
 1689TIP3   OH2 5030   7.105   1.899   1.706  0.1697  0.0928 -0.0499
 1689TIP3    H1 5031   7.173   1.848   1.750  0.4454  0.1592 -0.3880
 1689TIP3    H2 5032   7.141   1.988   1.703  0.1700  0.0820 -0.4364
 1690TIP3   OH2 5033   7.129   4.872   5.187 -0.4311  0.3362 -0.3203
 1690TIP3    H1 5034   7.211   4.920   5.198 -0.5763  0.2926  1.0659
 1690TIP3    H2 5035   7.117   4.868   5.092 -0.0680  2.4287 -0.4940
 1691TIP3   OH2 5036   7.068   3.892   2.120 -0.1836 -0.1505 -0.3882
 1691TIP3    H1 5037   7.098   3.977   2.151 -1.3067  0.1935 -0.1879
 1691TIP3    H2 5038   7.080   3.833   2.195  0.5539 -0.1652 -0.5140
 1692TIP3   OH2 5039   4.168   3.798   5.530  0.2968 -0.0756  0.3578
 1692TIP3    H1 5040   4.119   3.790   5.448  2.9269 -1.1034 -1.2431
 1692TIP3    H2 5041   4.201   3.888   5.530 -2.8025  1.2131  2.3085
 1693TIP3   OH2 5042   3.368   4.528   2.887 -0.0226 -0.1358 -0.2056
 1693TIP3    H1 5043   3.413   4.499   2.966 -1.2205  0.9202  0.9145
 1693TIP3    H2 5044   3.382   4.458   2.824  4.2755  0.6766 -0.4054
 1694TIP3   OH2 5045   2.554   5.267   5.300 -0.2710  0.2160  0.2926
 1694TIP3    H1 5046   2.552   5.329   5.373  0.0256  1.1191 -0.4522
 1694TIP3    H2 5047   2.607   5.310   5.233  0.3348 -1.0510 -0.0686
 1695TIP3   OH2 5048   6.888   3.699   3.027  0.6556 -0.2277  0.0890
 1695TIP3    H1 5049   6.893   3.614   3.071  2.8790 -0.3657 -0.3181
 1695TIP3    H2 5050   6.822   3.687   2.959  1.5049 -1.9195 -0.4934
 1696TIP3   OH2 5051   6.324   0.843   3.430 -0.2717  0.3127 -0.0604
 1696TIP3    H1 5052   6.364   0.789   3.363  2.0142 -1.1202  2.2785
 1696TIP3    H2 5053   6.369   0.927   3.424  1.0474 -0.3268  0.6425
 1697TIP3   OH2 5054   2.529   4.985   2.370 -0.3107 -0.8527 -0.0633
 1697TIP3    H1 5055   2.547   4.931   2.447  0.8253  1.2924  1.2773
 1697TIP3    H2 5056   2.448   5.031   2.392  0.0433 -0.1948 -0.1298
 1698TIP3   OH2 5057   4.900   1.258   0.647  0.3929  0.0461  0.1119
 1698TIP3    H1 5058   4.988   1.295   0.641 -0.3403  1.6498 -1.8874
 1698TIP3    H2 5059   4.845   1.332   0.672 -0.3158 -1.1628  2.3940
 1699TIP3   OH2 5060   7.062   0.159   5.819  0.7170 -0.4077  0.5888
 1699TIP3    H1 5061   7.045   0.224   5.887  1.9780  0.8195 -0.2249
 1699TIP3    H2 5062   7.089   0.080   5.868  0.4132  0.0608  1.5426
 1700TIP3   OH2 5063   2.487   6.740   0.860  0.1735  0.1996  0.5327
 1700TIP3    H1 5064   2.462   6.817   0.910  0.3615  0.6777 -0.0962
 1700TIP3    H2 5065   2.405   6.692   0.848 -0.6325  1.9698 -1.8816
 1701TIP3   OH2 5066   7.147   3.310   4.045 -0.2360 -0.1718  0.1174
 1701TIP3    H1 5067   7.242   3.313   4.048 -0.1762 -0.9102 -0.5642
 1701TIP3    H2 5068   7.123   3.366   3.971 -0.3130 -0.2377  0.0921
 1702TIP3   OH2 5069   4.792   3.391   3.236 -0.1766 -0.0824  0.2937
 1702TIP3    H1 5070   4.837   3.473   3.257 -0.1925 -0.6409  2.8114
 1702TIP3    H2 5071   4.719   3.417   3.181  0.3071  1.4931  0.3435
 1703TIP3   OH2 5072   2.686   5.611   4.798 -0.1242 -0.1069  0.1931
 1703TIP3    H1 5073   2.631   5.540   4.829 -0.2059 -0.9179 -1.6700
 1703TIP3    H2 5074   2.625   5.679   4.770 -0.1322 -0.2344 -0.1076
 1704TIP3   OH2 5075   6.683   1.415   2.625  0.0170  0.2873 -0.0569
 1704TIP3    H1 5076   6.745   1.447   2.560 -0.4273 -1.1886 -1.2632
 1704TIP3    H2 5077   6.716   1.329   2.650 -0.2392  0.5117  1.1179
 1705TIP3   OH2 5078   3.299   4.835   5.567 -0.5781 -0.1640 -0.2060
 1705TIP3    H1 5079   3.278   4.902   5.631 -1.3158 -0.8403  0.2768
 1705TIP3    H2 5080   3.228   4.771   5.574  1.5441 -2.5361  1.4446
 1706TIP3   OH2 5081   1.002   4.746   0.395 -0.4155 -0.6807 -0.5668
 1706TIP3    H1 5082   1.012   4.665   0.444  0.2579 -0.1296  0.2559
 1706TIP3    H2 5083   1.044   4.729   0.311  0.4528 -0.9437 -0.0982
 1707TIP3   OH2 5084   6.071   0.894   0.867 -0.1389  0.0098 -0.0174
 1707TIP3    H1 5085   6.079   0.989   0.855  1.4745 -0.1463 -0.5075
 1707TIP3    H2 5086   5.981   0.874   0.844  0.0522  1.1644 -2.0092
 1708TIP3   OH2 5087   6.925   5.567   2.909 -0.5648 -0.3700 -0.9684
 1708TIP3    H1 5088   6.998   5.505   2.921  0.0080 -0.0758 -2.6923
 1708TIP3    H2 5089   6.950   5.644   2.960 -0.0664 -0.5820 -0.8872
 1709TIP3   OH2 5090   1.411   1.466   3.078 -0.1886 -0.6344 -0.5438
 1709TIP3    H1 5091   1.371   1.543   3.038  1.0582 -0.0957 -0.7862
 1709TIP3    H2 5092   1.475   1.436   3.013  1.2092 -0.3003  0.6390
 1710TIP3   OH2 5093   1.524   3.276   1.473 -0.2953  0.1372 -0.1188
 1710TIP3    H1 5094   1.468   3.296   1.548 -0.8344  0.8040 -0.6920
 1710TIP3    H2 5095   1.588   3.347   1.472 -0.4074  0.2336 -0.4085
 1711TIP3   OH2 5096   0.339   2.769   2.227 -0.1835 -0.6371 -0.0931
 1711TIP3    H1 5097   0.411   2.725   2.270  0.3546  0.7401  0.4626
 1711TIP3    H2 5098   0.334   2.728   2.140  2.2425  0.2109 -0.7124
 1712TIP3   OH2 5099   1.183   2.446   5.120 -0.7275  0.5203  0.2333
 1712TIP3    H1 5100   1.237   2.522   5.144 -1.7245  0.4245  3.1844
 1712TIP3    H2 5101   1.246   2.383   5.085  0.6231  1.5466  0.6972
 1713TIP3   OH2 5102   2.786   4.369   2.666  0.1358  0.1093 -0.2963
 1713TIP3    H1 5103   2.738   4.347   2.746 -0.2677  1.4461 -0.1497
 1713TIP3    H2 5104   2.753   4.308   2.600  1.0042 -1.5080  0.7094
 1714TIP3   OH2 5105   0.622   6.099   2.778  0.6767  0.5081 -0.3174
 1714TIP3    H1 5106   0.553   6.038   2.755  0.4311  0.3511  0.8034
 1714TIP3    H2 5107   0.578   6.168   2.829  1.4541 -0.0247  1.1289
 1715TIP3   OH2 5108   5.574   4.881   5.831 -0.0782 -0.3627  0.4208
 1715TIP3    H1 5109   5.667   4.901   5.841 -0.3252  0.7764  0.5509
 1715TIP3    H2 5110   5.557   4.896   5.738 -0.1701 -0.3910  0.4338
 1716TIP3   OH2 5111   5.646   5.349   0.369 -0.1203  0.2567  0.0361
 1716TIP3    H1 5112   5.718   5.318   0.313  0.3379 -2.8113  2.0775
 1716TIP3    H2 5113   5.682   5.347   0.458 -1.8570  1.6234  0.8266
 1717TIP3   OH2 5114   3.653   2.378   4.275  0.4123 -0.2176 -0.7678
 1717TIP3    H1 5115   3.590   2.439   4.238 -1.1002 -1.4402 -0.3070
 1717TIP3    H2 5116   3.601   2.320   4.330  1.7490 -2.0791 -1.3755
 1718TIP3   OH2 5117   5.946   3.638   3.104  0.2769  0.4522  0.7432
 1718TIP3    H1 5118   5.983   3.558   3.142 -0.0370 -0.0682 -0.0077
 1718TIP3    H2 5119   5.856   3.615   3.082  0.2721  0.9164  0.2492
 1719TIP3   OH2 5120   2.197   5.147   3.539 -0.3351 -0.1073  0.1166
 1719TIP3    H1 5121   2.226   5.128   3.450  0.5025  1.7056 -0.0488
 1719TIP3    H2 5122   2.241   5.083   3.593  0.4750 -0.1762 -0.6054
 1720TIP3   OH2 5123   1.908   6.446   5.051 -0.0102  0.0541 -0.5124
 1720TIP3    H1 5124   1.826   6.452   5.101  1.0679  0.3504  1.3130
 1720TIP3    H2 5125   1.951   6.367   5.083  1.5855  1.2603  0.4942
 1721TIP3   OH2 5126   6.246   1.835   3.036  0.3807  0.2005 -0.4022
 1721TIP3    H1 5127   6.321   1.870   3.084 -0.0729  1.0592 -0.3064
 1721TIP3    H2 5128   6.170   1.861   3.089  0.0843 -2.1911  0.4770
 1722TIP3   OH2 5129   1.987   2.335   4.826  0.1015 -0.7545 -0.2878
 1722TIP3    H1 5130   2.023   2.418   4.857 -0.6142  0.2688 -2.1016
 1722TIP3    H2 5131   1.894   2.338   4.849 -0.0178 -0.8723 -0.7592
 1723TIP3   OH2 5132   3.655   0.344   3.091 -0.0893 -0.4157  0.2543
 1723TIP3    H1 5133   3.671   0.383   3.005 -0.7742  0.2020  0.3982
 1723TIP3    H2 5134   3.571   0.300   3.083 -0.6445  0.4886  0.8766
 1724TIP3   OH2 5135   0.974   6.050   0.236  0.1966 -0.2477 -0.4201
 1724TIP3    H1 5136   1.057   6.006   0.215  2.3762  3.2954 -0.0199
 1724TIP3    H2 5137   0.961   6.033   0.329 -0.8689 -2.6760 -0.9272
 1725TIP3   OH2 5138   1.347   2.396   4.265  0.4605  0.3551 -0.3309
 1725TIP3    H1 5139   1.409   2.442   4.208 -0.5812  1.3753 -0.6852
 1725TIP3    H2 5140   1.269   2.452   4.265 -0.3944 -0.7950  0.2512
 1726TIP3   OH2 5141   1.718   5.694   3.230  0.1695 -0.5334  0.4859
 1726TIP3    H1 5142   1.719   5.631   3.302 -1.4550  0.2802  1.2843
 1726TIP3    H2 5143   1.629   5.728   3.229  0.3239 -0.0606 -1.5354
 1727TIP3   OH2 5144   2.042   0.124   0.080 -0.2706 -0.0711  0.0578
 1727TIP3    H1 5145   2.047   0.200   0.138 -0.2802 -0.4112  0.5170
 1727TIP3    H2 5146   1.953   0.091   0.092  0.3013 -1.2672  1.3342
 1728TIP3   OH2 5147   2.365   1.852   0.593  0.6100 -0.0862 -0.0771
 1728TIP3    H1 5148   2.458   1.854   0.567  1.0632  1.7260  1.4450
 1728TIP3    H2 5149   2.360   1.784   0.660  0.6345 -0.8076 -0.7947
 1729TIP3   OH2 5150   4.076   5.495   5.494  0.5256 -0.1269  0.4603
 1729TIP3    H1 5151   4.165   5.477   5.522  1.0766 -1.2990 -1.8418
 1729TIP3    H2 5152   4.083   5.575   5.442  0.0289  0.3331  1.0727
 1730TIP3   OH2 5153   6.171   0.162   2.030  0.3576 -0.1939  0.7576
 1730TIP3    H1 5154   6.215   0.097   1.974  1.9104  1.8060 -0.4801
 1730TIP3    H2 5155   6.098   0.194   1.977  0.9287  0.6334  0.4596
 1731TIP3   OH2 5156   0.985   3.712   0.703 -0.2979 -0.5960  0.5543
 1731TIP3    H1 5157   0.970   3.801   0.733 -0.5087  0.5466 -2.5528
 1731TIP3    H2 5158   0.976   3.658   0.782 -1.2435  1.9806  2.3468
 1732TIP3   OH2 5159   1.728   0.161   2.023  1.0130  0.4515  0.2239
 1732TIP3    H1 5160   1.649   0.142   1.974  1.9129  0.5044 -1.3014
 1732TIP3    H2 5161   1.717   0.251   2.053  0.9987  0.8745 -1.0123
 1733TIP3   OH2 5162   1.474   6.744   2.044  0.5126 -0.7240  0.0676
 1733TIP3    H1 5163   1.424   6.806   1.989  1.8359  0.1462 -0.2045
 1733TIP3    H2 5164   1.409   6.680   2.072 -0.5648 -0.1884 -1.0735
 1734TIP3   OH2 5165   2.960   3.388   2.857  0.0148 -0.0668 -0.4121
 1734TIP3    H1 5166   2.942   3.453   2.790 -0.3706 -0.6633 -0.9032
 1734TIP3    H2 5167   2.882   3.388   2.913 -0.6559 -1.1772 -1.3148
 1735TIP3   OH2 5168   1.194   5.625   0.939 -0.5026  0.1776  0.0582
 1735TIP3    H1 5169   1.228   5.673   0.863  2.0496 -1.2065  0.2331
 1735TIP3    H2 5170   1.135   5.560   0.902  1.1693 -0.8731 -0.8455
 1736TIP3   OH2 5171   4.185   2.169   0.544  0.5689 -0.1734  0.0377
 1736TIP3    H1 5172   4.146   2.129   0.466  1.9658 -2.8494  0.5667
 1736TIP3    H2 5173   4.217   2.254   0.515  1.5051 -1.2989 -2.4977
 1737TIP3   OH2 5174   6.985   1.013   4.753  0.4143  0.5241  0.4278
 1737TIP3    H1 5175   7.007   1.046   4.839 -1.2435  0.3954  0.9312
 1737TIP3    H2 5176   7.064   1.028   4.700  1.0618  1.6016  1.6600
 1738TIP3   OH2 5177   5.712   0.560   4.811  0.5117 -0.3437  0.4150
 1738TIP3    H1 5178   5.717   0.523   4.722 -0.3078  0.4811  0.0150
 1738TIP3    H2 5179   5.758   0.643   4.804 -2.1159  1.1773 -0.0472
 1739TIP3   OH2 5180   6.384   1.319   4.482  0.1418  0.2613  0.2878
 1739TIP3    H1 5181   6.429   1.345   4.563 -0.2651  0.7414  0.3618
 1739TIP3    H2 5182   6.450   1.268   4.434  0.4691  0.1860  0.8045
 1740TIP3   OH2 5183   4.600   0.669   1.320 -0.1087  0.2922 -0.1792
 1740TIP3    H1 5184   4.656   0.641   1.393  0.0201 -0.2787 -0.4886
 1740TIP3    H2 5185   4.525   0.609   1.323 -1.5260  2.0050  1.1891
 1741TIP3   OH2 5186   0.435   0.095   0.192 -0.1222 -0.2200  0.0644
 1741TIP3    H1 5187   0.471   0.145   0.118 -0.9496  0.5063  0.1387
 1741TIP3    H2 5188   0.364   0.043   0.154  0.9005 -1.5824 -0.0622
 1742TIP3   OH2 5189   7.156   0.180   4.490 -0.0962 -0.6176  0.0457
 1742TIP3    H1 5190   7.163   0.275   4.487  0.8101 -0.6918 -0.3286
 1742TIP3    H2 5191   7.095   0.158   4.419  0.2901 -0.3716 -0.3633
 1743TIP3   OH2 5192   1.563   3.821   1.121 -0.0848 -0.0714 -0.7092
 1743TIP3    H1 5193   1.608   3.884   1.065 -0.6753  0.5256 -0.5273
 1743TIP3    H2 5194   1.478   3.861   1.138 -0.1149 -0.4873  0.1775
 1744TIP3   OH2 5195   4.779   0.898   5.753 -0.8071 -0.3150 -0.7352
 1744TIP3    H1 5196   4.701   0.892   5.808 -0.8140 -0.6210 -0.7756
 1744TIP3    H2 5197   4.824   0.977   5.783 -0.6458 -0.6494 -0.0746
 1745TIP3   OH2 5198   4.636   0.288   1.845  0.3430  0.9243 -0.3070
 1745TIP3    H1 5199   4.555   0.312   1.800 -1.0647  1.8287  2.4551
 1745TIP3    H2 5200   4.620   0.199   1.877 -0.0300  1.4915  1.1435
 1746TIP3   OH2 5201   3.967   6.564   2.747 -0.1418  0.3828  0.5765
 1746TIP3    H1 5202   4.029   6.508   2.793  2.2239  1.2401 -1.3429
 1746TIP3    H2 5203   3.959   6.525   2.660 -0.9440  1.2752  0.2284
 1747TIP3   OH2 5204   4.894   3.185   0.695  0.0225 -0.2802  0.2008
 1747TIP3    H1 5205   4.888   3.192   0.599 -0.8272 -0.2994  0.2447
 1747TIP3    H2 5206   4.966   3.123   0.710 -0.1615 -0.6618 -0.4427
 1748TIP3   OH2 5207   3.840   5.110   2.477  0.1139  0.1137 -0.5155
 1748TIP3    H1 5208   3.869   5.085   2.565 -0.4074  1.0029 -0.0735
 1748TIP3    H2 5209   3.774   5.044   2.454 -0.8752  0.7329  0.4257
 1749TIP3   OH2 5210   4.179   0.692   2.716  0.3370  0.1130 -0.0448
 1749TIP3    H1 5211   4.096   0.704   2.670  1.4965  1.3071 -1.9931
 1749TIP3    H2 5212   4.221   0.778   2.711  2.2738 -0.8022 -0.3782
 1750TIP3   OH2 5213   1.438   1.368   4.017 -0.2646 -0.4398  0.1568
 1750TIP3    H1 5214   1.411   1.460   4.026  1.8358  0.5095 -1.8958
 1750TIP3    H2 5215   1.511   1.358   4.078  1.0080  0.0238 -1.2190
 1751TIP3   OH2 5216   0.717   5.512   1.731  0.1067 -0.0918  0.0907
 1751TIP3    H1 5217   0.760   5.598   1.740  1.5678 -0.6125 -1.4102
 1751TIP3    H2 5218   0.625   5.533   1.715  0.7883  1.3561 -2.4773
 1752TIP3   OH2 5219   3.939   0.303   0.372  0.9703  0.1428 -0.4375
 1752TIP3    H1 5220   3.874   0.238   0.346  0.2835 -0.2553  2.0170
 1752TIP3    H2 5221   4.019   0.253   0.388  0.3202 -0.2550  1.8915
 1753TIP3   OH2 5222   5.008   0.460   2.737 -0.8383 -0.1492  0.3808
 1753TIP3    H1 5223   5.087   0.509   2.713 -0.7498  1.6921  3.8050
 1753TIP3    H2 5224   4.943   0.486   2.673 -0.1168  2.7015  0.6568
 1754TIP3   OH2 5225   5.502   3.669   4.791 -0.4444  0.1326  0.2993
 1754TIP3    H1 5226   5.552   3.723   4.729 -0.3053 -0.2748  0.0520
 1754TIP3    H2 5227   5.435   3.627   4.737  0.9722 -1.8730  0.0154
 1755TIP3   OH2 5228   3.310   3.949   0.806  0.1590  0.0276 -0.4181
 1755TIP3    H1 5229   3.385   3.987   0.760 -0.9044  0.0977 -2.1914
 1755TIP3    H2 5230   3.295   4.007   0.880  2.8526 -0.9045  0.9877
 1756TIP3   OH2 5231   2.683   3.164   1.572  0.2007  0.1182 -0.0626
 1756TIP3    H1 5232   2.715   3.254   1.564  1.2808 -0.3030 -0.6735
 1756TIP3    H2 5233   2.588   3.171   1.560  0.1971  1.2485  0.5419
 1757TIP3   OH2 5234   1.369   4.522   3.934 -0.4903  0.2159  0.3490
 1757TIP3    H1 5235   1.464   4.529   3.947 -0.4563 -2.2214  2.1615
 1757TIP3    H2 5236   1.332   4.554   4.016 -1.3495  1.8018 -0.5992
 1758TIP3   OH2 5237   4.691   2.888   4.471 -0.0160 -0.3769 -0.0814
 1758TIP3    H1 5238   4.733   2.803   4.454 -1.4938 -0.8161 -1.9440
 1758TIP3    H2 5239   4.615   2.867   4.525 -1.5179 -0.6240 -2.1536
 1759TIP3   OH2 5240   2.296   5.334   0.578  0.2736 -0.2159 -0.6239
 1759TIP3    H1 5241   2.332   5.251   0.546  0.1681  0.2557 -2.0518
 1759TIP3    H2 5242   2.218   5.349   0.524 -0.3030  0.3023  0.3293
 1760TIP3   OH2 5243   7.143   5.911   1.789 -0.5361  0.4379  0.0348
 1760TIP3    H1 5244   7.129   5.817   1.779 -0.7908  0.6630 -2.4113
 1760TIP3    H2 5245   7.237   5.920   1.806 -0.8308 -0.3201  2.3297
 1761TIP3   OH2 5246   5.842   6.254   0.148 -0.1432 -0.1632 -0.0814
 1761TIP3    H1 5247   5.757   6.221   0.175 -0.4724 -1.1224 -2.0830
 1761TIP3    H2 5248   5.877   6.186   0.090  1.4698  0.7269 -0.2169
 1762TIP3   OH2 5249   7.126   0.079   5.581 -0.5832  0.3325  0.2043
 1762TIP3    H1 5250   7.060   0.114   5.642 -0.6656  0.2705  0.1501
 1762TIP3    H2 5251   7.185   0.029   5.637 -2.1900 -2.0679 -0.0891
 1763TIP3   OH2 5252   5.467   1.454   1.456  0.2833  0.1319 -0.4422
 1763TIP3    H1 5253   5.553   1.476   1.490 -0.2398 -0.8356  1.6968
 1763TIP3    H2 5254   5.468   1.359   1.447 -0.8966 -0.0272  0.7321
 1764TIP3   OH2 5255   4.056   2.922   1.037  1.0941 -0.4371 -0.1438
 1764TIP3    H1 5256   4.137   2.872   1.053  0.8658 -0.8784 -0.3529
 1764TIP3    H2 5257   4.037   2.907   0.944  1.1664  0.2597 -0.2781
 1765TIP3   OH2 5258   0.063   0.703   4.720  0.3187  0.4183 -0.0293
 1765TIP3    H1 5259  -0.002   0.769   4.699 -1.3656 -0.9072  0.8106
 1765TIP3    H2 5260   0.057   0.640   4.648 -0.5258 -0.5481  0.8648
 1766TIP3   OH2 5261   0.987   6.573   0.506  0.3937  0.1884 -0.7046
 1766TIP3    H1 5262   0.946   6.515   0.442  0.9800 -0.8431 -0.1758
 1766TIP3    H2 5263   1.067   6.527   0.532  0.7274  1.1097 -0.0610
 1767TIP3   OH2 5264   6.953   3.136   0.709 -0.5372 -0.1590 -0.7848
 1767TIP3    H1 5265   7.012   3.070   0.671 -1.0284 -0.8523 -0.3670
 1767TIP3    H2 5266   6.968   3.130   0.803 -0.3133  0.5974 -0.7694
 1768TIP3   OH2 5267   2.004   6.653   2.860  0.9523  0.5971 -0.3625
 1768TIP3    H1 5268   2.003   6.741   2.821  1.1773  0.6695 -0.2071
 1768TIP3    H2 5269   2.049   6.599   2.796 -0.0085  0.3931 -0.8801
 1769TIP3   OH2 5270   0.887   4.633   1.790 -0.2767 -0.4831  0.3506
 1769TIP3    H1 5271   0.916   4.566   1.728 -0.1766  0.1113 -0.2591
 1769TIP3    H2 5272   0.864   4.584   1.869  0.2169 -1.1919  0.0715
 1770TIP3   OH2 5273   7.114   1.018   2.791 -0.5326 -0.4307 -0.6319
 1770TIP3    H1 5274   7.153   1.020   2.704 -1.3611 -2.7309 -1.1300
 1770TIP3    H2 5275   7.045   1.083   2.788  1.1347  1.4173 -0.7727
 1771TIP3   OH2 5276   5.767   3.288   1.876 -0.5652 -0.3503 -0.2967
 1771TIP3    H1 5277   5.706   3.222   1.909  0.0982 -0.1817  1.4006
 1771TIP3    H2 5278   5.711   3.362   1.850 -1.2269 -1.1277 -1.1266
 1772TIP3   OH2 5279   6.148   6.399   0.067 -0.5725 -0.0411 -0.0004
 1772TIP3    H1 5280   6.165   6.330   0.004  3.6040  0.7738 -0.0129
 1772TIP3    H2 5281   6.137   6.353   0.150  0.6235 -0.8358 -0.2545
 1773TIP3   OH2 5282   3.934   6.672   3.863  0.3634 -0.2939 -0.1992
 1773TIP3    H1 5283   3.998   6.725   3.816  0.8433  1.0611  1.8525
 1773TIP3    H2 5284   3.971   6.583   3.862  0.2592 -0.3648 -2.4402
 1774TIP3   OH2 5285   0.236   4.004   5.157  0.4511  0.3593  0.3784
 1774TIP3    H1 5286   0.177   3.932   5.180  0.0241  1.0260  1.4303
 1774TIP3    H2 5287   0.179   4.080   5.149  0.9648  0.6893 -0.2362
 1775TIP3   OH2 5288   6.501   1.615   3.265 -0.2861  0.0199 -0.6111
 1775TIP3    H1 5289   6.460   1.625   3.351 -0.8711 -0.3522 -0.8420
 1775TIP3    H2 5290   6.499   1.702   3.227  2.1343  0.7422  0.6816
 1776TIP3   OH2 5291   1.323   5.596   1.764 -0.6605  0.2415 -0.2748
 1776TIP3    H1 5292   1.357   5.518   1.720 -1.1573  0.4198 -1.0035
 1776TIP3    H2 5293   1.263   5.563   1.830 -0.9657 -0.0004 -0.6654
 1777TIP3   OH2 5294   2.196   3.038   5.044  0.4865 -0.2423 -0.3516
 1777TIP3    H1 5295   2.275   3.003   5.085  0.2579 -0.6374 -0.2441
 1777TIP3    H2 5296   2.126   3.022   5.108  0.4545  0.8394 -0.1004
 1778TIP3   OH2 5297   4.414   4.407   2.827  0.3813 -0.2889 -0.6905
 1778TIP3    H1 5298   4.372   4.438   2.907  0.3244  0.9521 -1.1747
 1778TIP3    H2 5299   4.341   4.392   2.766  0.4529 -0.8555 -0.6455
 1779TIP3   OH2 5300   7.178   1.473   5.531 -0.1614  0.3273 -0.3691
 1779TIP3    H1 5301   7.206   1.468   5.623  0.0634 -1.2113 -0.5069
 1779TIP3    H2 5302   7.085   1.453   5.533  0.3567 -2.4408 -0.7172
 1780TIP3   OH2 5303   5.736   6.495   2.778 -0.5526  0.1725  0.6692
 1780TIP3    H1 5304   5.781   6.579   2.790  1.1277 -0.3535 -1.3425
 1780TIP3    H2 5305   5.790   6.448   2.714 -2.9851 -1.3075 -0.4175
 1781TIP3   OH2 5306   0.826   3.297   5.363 -0.0115 -0.2068  0.2335
 1781TIP3    H1 5307   0.782   3.277   5.446  0.3715 -0.8694  0.2771
 1781TIP3    H2 5308   0.767   3.265   5.296 -0.6148  0.8828  0.2136
 1782TIP3   OH2 5309   7.067   2.482   2.840 -0.8534  0.9036  0.0556
 1782TIP3    H1 5310   7.094   2.563   2.884 -0.5398  1.6279 -1.3890
 1782TIP3    H2 5311   7.010   2.512   2.769 -0.3980 -0.1046 -0.7557
 1783TIP3   OH2 5312   1.648   1.262   4.160  0.1384  0.4843 -0.2528
 1783TIP3    H1 5313   1.731   1.300   4.188 -0.0828  1.7367 -1.1765
 1783TIP3    H2 5314   1.590   1.274   4.235  0.7489 -0.2820  0.3482
 1784TIP3   OH2 5315   6.247   6.764   3.770  0.1219 -0.4252 -0.3247
 1784TIP3    H1 5316   6.314   6.716   3.819 -0.7664 -0.2260  1.1446
 1784TIP3    H2 5317   6.175   6.702   3.762 -0.0807 -0.1534 -0.6224
 1785TIP3   OH2 5318   2.060   5.588   1.141 -0.4413 -0.1767 -0.1230
 1785TIP3    H1 5319   2.061   5.571   1.235  3.8674  0.0086  0.0949
 1785TIP3    H2 5320   2.104   5.511   1.103 -2.1478 -0.2777 -2.0338
 1786TIP3   OH2 5321   2.023   1.543   4.613  0.6993  0.2279 -0.2616
 1786TIP3    H1 5322   2.038   1.596   4.691 -0.4277 -0.8622  0.7488
 1786TIP3    H2 5323   1.990   1.604   4.547 -0.6711  0.7862  0.8980
 1787TIP3   OH2 5324   3.192   3.853   1.480 -0.4969  0.1270 -0.5409
 1787TIP3    H1 5325   3.242   3.785   1.526 -2.1893 -0.5739  0.3519
 1787TIP3    H2 5326   3.110   3.810   1.457 -1.1937  1.5961 -0.8690
 1788TIP3   OH2 5327   5.441   0.091   0.178 -0.3201 -0.2091 -0.2267
 1788TIP3    H1 5328   5.500   0.073   0.252 -1.3188 -0.4241  0.5374
 1788TIP3    H2 5329   5.381   0.017   0.176 -0.2870 -0.2260 -1.2987
 1789TIP3   OH2 5330   5.641   3.978   4.243  0.0137 -0.1039  0.2122
 1789TIP3    H1 5331   5.598   3.893   4.252  1.7176 -1.2033 -1.3156
 1789TIP3    H2 5332   5.582   4.029   4.187 -0.8888 -0.3505  0.9158
 1790TIP3   OH2 5333   6.219   0.157   4.573 -0.4072 -0.6393 -0.5332
 1790TIP3    H1 5334   6.159   0.231   4.570 -0.3323 -0.5662 -0.2615
 1790TIP3    H2 5335   6.165   0.083   4.601 -0.1164 -0.3030  1.0096
 1791TIP3   OH2 5336   1.798   2.354   2.228  0.0212 -0.2505  0.3399
 1791TIP3    H1 5337   1.796   2.446   2.255 -1.8323  0.2280 -1.2148
 1791TIP3    H2 5338   1.724   2.345   2.169  0.5855 -2.6038 -0.0998
 1792TIP3   OH2 5339   5.081   3.584   1.247 -0.5335  0.2121 -0.0446
 1792TIP3    H1 5340   5.089   3.544   1.334  0.1711  1.3346  0.4201
 1792TIP3    H2 5341   5.022   3.525   1.199  1.3983 -2.0636  0.2081
 1793TIP3   OH2 5342   3.282   5.747   2.068 -0.2668  0.3683 -0.1803
 1793TIP3    H1 5343   3.325   5.693   2.134 -0.1771 -0.2872 -0.7670
 1793TIP3    H2 5344   3.348   5.811   2.042 -0.5875  1.2133  0.9994
 1794TIP3   OH2 5345   2.397   0.617   0.932  0.3817  0.1338 -0.4858
 1794TIP3    H1 5346   2.362   0.640   0.846  0.8886  1.1737 -0.4217
 1794TIP3    H2 5347   2.404   0.700   0.979  0.6085 -0.3576  0.3795
 1795TIP3   OH2 5348   0.723   4.168   4.666 -0.2170 -0.7492  0.1459
 1795TIP3    H1 5349   0.812   4.135   4.682  0.3919  0.1208 -1.3446
 1795TIP3    H2 5350   0.702   4.218   4.745  2.4682  2.9219 -1.1681
 1796TIP3   OH2 5351   2.279   0.127   1.170 -0.0144 -0.0839 -0.2496
 1796TIP3    H1 5352   2.255   0.133   1.077 -1.0191  1.9238  0.0905
 1796TIP3    H2 5353   2.354   0.186   1.179  0.2549 -0.4864  0.1633
 1797TIP3   OH2 5354   3.953   2.111   3.573  0.3858 -0.0166  0.2350
 1797TIP3    H1 5355   4.031   2.165   3.560  0.0032  0.3618 -0.5694
 1797TIP3    H2 5356   3.984   2.021   3.558  1.1022 -0.0948  1.9155
 1798TIP3   OH2 5357   3.774   1.463   4.950  0.3529 -0.1333  0.6608
 1798TIP3    H1 5358   3.734   1.549   4.962  1.2810  0.5063 -0.5595
 1798TIP3    H2 5359   3.767   1.421   5.036 -0.2253  1.1105  1.2450
 1799TIP3   OH2 5360   1.605   1.228   0.384  0.8088 -0.3040 -0.1864
 1799TIP3    H1 5361   1.663   1.221   0.308 -0.2155 -0.9728 -0.9358
 1799TIP3    H2 5362   1.550   1.149   0.379  0.1285  0.0946  0.7487
 1800TIP3   OH2 5363   0.731   0.014   3.734 -0.2175 -0.3988  0.7816
 1800TIP3    H1 5364   0.658   0.052   3.781  0.4438 -0.8896  2.2473
 1800TIP3    H2 5365   0.796   0.085   3.730  0.0718 -0.6234  1.4011
 1801TIP3   OH2 5366   6.156   3.085   1.046  0.2926  0.0900  1.0727
 1801TIP3    H1 5367   6.095   3.048   1.110 -1.3428 -2.1522 -1.5774
 1801TIP3    H2 5368   6.100   3.120   0.977  1.9897  0.5798 -0.1078
 1802TIP3   OH2 5369   6.914   4.601   2.728  0.4402 -0.1017  0.3515
 1802TIP3    H1 5370   6.846   4.540   2.701  1.5498 -0.6850 -1.2594
 1802TIP3    H2 5371   6.937   4.574   2.817 -1.1979 -0.0548  0.8294
 1803TIP3   OH2 5372   2.197   5.434   5.540 -0.4605  0.0934 -0.3311
 1803TIP3    H1 5373   2.188   5.517   5.587  2.7411  1.0469 -1.1537
 1803TIP3    H2 5374   2.112   5.391   5.551 -1.9907  3.1042  0.7816
 1804TIP3   OH2 5375   4.421   4.246   1.217  0.1658 -0.6987 -0.1844
 1804TIP3    H1 5376   4.512   4.275   1.214 -0.4248  1.4630  0.6999
 1804TIP3    H2 5377   4.384   4.291   1.293 -1.4634 -2.1112 -0.0874
 1805TIP3   OH2 5378   4.897   4.158   2.941  0.3513  0.1782 -0.1792
 1805TIP3    H1 5379   4.820   4.212   2.958  1.1641  1.4302 -0.3464
 1805TIP3    H2 5380   4.946   4.206   2.874  0.6582 -1.2325 -1.0271
 1806TIP3   OH2 5381   2.680   6.600   1.002  0.0449  0.5764  0.2391
 1806TIP3    H1 5382   2.610   6.639   0.950 -0.3218  0.1753  0.4262
 1806TIP3    H2 5383   2.635   6.557   1.074  0.5039  0.5141  0.4900
 1807TIP3   OH2 5384   5.925   2.200   1.298 -0.5386 -0.0847  0.2002
 1807TIP3    H1 5385   5.926   2.120   1.352  0.7820  0.4586  1.0268
 1807TIP3    H2 5386   5.944   2.169   1.210 -0.3893 -0.7273  0.4485
 1808TIP3   OH2 5387   2.676   6.795   2.225 -0.7077  0.0444 -0.1825
 1808TIP3    H1 5388   2.661   6.707   2.190 -3.2418  0.2339  0.2215
 1808TIP3    H2 5389   2.680   6.783   2.320 -1.6673  0.4007 -0.0836
 1809TIP3   OH2 5390   6.030   6.443   1.098 -0.1579  0.1701 -0.4278
 1809TIP3    H1 5391   5.964   6.377   1.081  0.1184  0.0282 -0.9720
 1809TIP3    H2 5392   6.111   6.406   1.063  0.6059 -0.4444  1.8286
 1810TIP3   OH2 5393   1.562   2.557   3.649 -0.2842 -0.0037  0.0920
 1810TIP3    H1 5394   1.599   2.478   3.609 -0.5983  0.5748 -1.3817
 1810TIP3    H2 5395   1.566   2.539   3.743  1.2570 -1.0465 -0.1326
 1811TIP3   OH2 5396   0.402   3.740   3.869 -0.2256  0.3656 -0.0071
 1811TIP3    H1 5397   0.429   3.826   3.838  1.0747  0.2489  0.7236
 1811TIP3    H2 5398   0.376   3.754   3.960  0.3845 -0.0837  0.2399
 1812TIP3   OH2 5399   0.401   4.495   1.851  0.0458  0.4899 -0.4828
 1812TIP3    H1 5400   0.325   4.530   1.899 -0.4081  0.2748 -1.0369
 1812TIP3    H2 5401   0.374   4.408   1.824  1.0909 -0.2351  0.6873
 1813TIP3   OH2 5402   4.626   1.511   2.451  0.1699 -0.8493  0.5171
 1813TIP3    H1 5403   4.679   1.513   2.372  0.6001  3.4660  0.6551
 1813TIP3    H2 5404   4.686   1.480   2.520  0.4915 -2.3130 -0.3880
 1814TIP3   OH2 5405   2.565   1.827   2.134  0.1440 -0.0631 -0.0460
 1814TIP3    H1 5406   2.658   1.839   2.150  0.1930  0.1456 -0.4608
 1814TIP3    H2 5407   2.554   1.851   2.042 -0.1298 -1.1060 -0.2988
 1815TIP3   OH2 5408   3.283   5.257   1.259  0.0597 -0.4987 -0.1168
 1815TIP3    H1 5409   3.325   5.262   1.345 -1.4714  1.8100  0.6225
 1815TIP3    H2 5410   3.355   5.251   1.197  1.2462 -1.2795  1.2769
 1816TIP3   OH2 5411   7.161   1.196   3.882 -0.6538 -0.8794 -0.3365
 1816TIP3    H1 5412   7.079   1.194   3.931 -2.3712 -2.2114 -2.9704
 1816TIP3    H2 5413   7.230   1.191   3.948 -2.7134 -1.0758  1.9227
 1817TIP3   OH2 5414   1.303   1.956   1.334  0.3908  0.1011 -0.1255
 1817TIP3    H1 5415   1.335   2.045   1.347 -0.4583  0.6430 -1.5416
 1817TIP3    H2 5416   1.336   1.931   1.248  0.0429 -0.7007 -0.0362
 1818TIP3   OH2 5417   2.813   2.117   5.151  0.0690 -0.2157 -0.2547
 1818TIP3    H1 5418   2.767   2.135   5.233  0.7639 -1.4418  0.4295
 1818TIP3    H2 5419   2.755   2.059   5.103 -0.2621  0.3665 -0.5709
 1819TIP3   OH2 5420   4.276   3.903   0.164 -0.4525 -0.4248 -0.0349
 1819TIP3    H1 5421   4.235   3.989   0.154 -0.5092 -0.3919  0.4519
 1819TIP3    H2 5422   4.358   3.920   0.209 -0.7038 -0.6781  0.5341
 1820TIP3   OH2 5423   5.242   1.708   0.546 -0.0662  0.5086  0.1861
 1820TIP3    H1 5424   5.149   1.695   0.566  0.1501 -0.1040  0.8206
 1820TIP3    H2 5425   5.242   1.753   0.462 -0.9312  0.0372 -0.0817
 1821TIP3   OH2 5426   0.610   6.505   3.222  0.0294  0.3064 -0.1735
 1821TIP3    H1 5427   0.622   6.600   3.232  0.5071  0.2872 -0.5375
 1821TIP3    H2 5428   0.515   6.493   3.227 -0.1879  1.0163 -1.9132
 1822TIP3   OH2 5429   5.196   5.256   0.429  0.1758  0.3227 -0.1923
 1822TIP3    H1 5430   5.157   5.219   0.350 -2.6205  0.0695  1.1995
 1822TIP3    H2 5431   5.250   5.329   0.397  1.6994 -1.6850 -2.5361
 1823TIP3   OH2 5432   5.098   1.884   3.272  0.0331 -0.4849 -0.3071
 1823TIP3    H1 5433   5.083   1.921   3.184  1.5960 -0.9546 -0.7967
 1823TIP3    H2 5434   5.124   1.960   3.325  2.0447 -0.6229 -1.0170
 1824TIP3   OH2 5435   2.631   0.591   1.183 -0.3373 -0.3178 -0.7014
 1824TIP3    H1 5436   2.542   0.594   1.218 -0.8415 -0.0232 -1.9476
 1824TIP3    H2 5437   2.684   0.558   1.255 -1.5136 -0.8626 -0.0546
 1825TIP3   OH2 5438   6.736   4.940   2.366  0.1282  0.0549 -0.3693
 1825TIP3    H1 5439   6.815   4.900   2.329  0.1141 -1.4960  1.1576
 1825TIP3    H2 5440   6.666   4.915   2.306  0.4885 -0.2760 -0.6621
 1826TIP3   OH2 5441   0.883   2.094   2.390  0.0548 -0.3756  0.5213
 1826TIP3    H1 5442   0.819   2.034   2.352  1.0117 -1.1615  0.1256
 1826TIP3    H2 5443   0.879   2.078   2.484  0.8870 -1.6870  0.3621
 1827TIP3   OH2 5444   4.678   0.418   5.839 -0.5020 -0.4006  0.4775
 1827TIP3    H1 5445   4.730   0.484   5.793  0.2731  1.2994  3.5066
 1827TIP3    H2 5446   4.669   0.346   5.776  0.0113  1.8771 -2.4196
 1828TIP3   OH2 5447   7.033   3.134   0.974 -0.1612  0.0971  0.2703
 1828TIP3    H1 5448   7.090   3.165   1.045  0.9264  0.2575 -0.6489
 1828TIP3    H2 5449   6.950   3.179   0.990 -0.2164 -0.4891  1.8984
 1829TIP3   OH2 5450   2.940   2.870   1.927  0.1043 -0.5613  0.0660
 1829TIP3    H1 5451   2.868   2.905   1.980  1.8852  0.1919  2.1859
 1829TIP3    H2 5452   2.942   2.926   1.849 -1.3742 -0.3821  0.1417
 1830TIP3   OH2 5453   6.455   5.232   0.359 -0.1125  0.5287  0.2134
 1830TIP3    H1 5454   6.469   5.257   0.450 -0.2888  1.8428 -0.0911
 1830TIP3    H2 5455   6.381   5.286   0.330 -0.5344 -0.3989 -0.5074
 1831TIP3   OH2 5456   0.093   4.356   3.044 -0.7197  0.1254  0.1863
 1831TIP3    H1 5457   0.103   4.447   3.016  0.2815  0.0311  0.1944
 1831TIP3    H2 5458   0.035   4.361   3.120  0.4690  0.9429  1.0786
 1832TIP3   OH2 5459   5.817   3.855   0.355  0.2954 -0.2010  0.1074
 1832TIP3    H1 5460   5.728   3.885   0.374  0.4326  0.0373  0.3846
 1832TIP3    H2 5461   5.832   3.879   0.264  1.1015  2.3646  0.8376
 1833TIP3   OH2 5462   7.155   1.765   0.366  0.2622 -0.1486 -0.4178
 1833TIP3    H1 5463   7.210   1.689   0.387  1.2966  1.4637  3.8914
 1833TIP3    H2 5464   7.215   1.827   0.324 -0.2285 -1.0366 -2.5611
 1834TIP3   OH2 5465   5.618   4.060   1.537 -0.3360 -0.3711 -0.0527
 1834TIP3    H1 5466   5.531   4.102   1.533  0.6199  1.7382 -0.1527
 1834TIP3    H2 5467   5.602   3.969   1.512 -2.4095  0.1477 -0.8269
 1835TIP3   OH2 5468   6.360   0.633   2.850  0.5440 -0.0542  0.9979
 1835TIP3    H1 5469   6.417   0.556   2.856  1.0881  0.4150  2.5047
 1835TIP3    H2 5470   6.399   0.686   2.780  0.0715 -1.2018 -0.1543
 1836TIP3   OH2 5471   3.833   3.853   0.016 -0.0062 -0.1852 -0.0304
 1836TIP3    H1 5472   3.857   3.939   0.050  1.0377 -0.8367  0.9703
 1836TIP3    H2 5473   3.881   3.845  -0.066 -1.5738  0.9101 -1.0958
 1837TIP3   OH2 5474   3.229   4.411   5.675  0.2009 -0.0565  0.6509
 1837TIP3    H1 5475   3.164   4.392   5.607 -1.0054  1.6805  1.2418
 1837TIP3    H2 5476   3.283   4.332   5.679 -2.3172 -1.9209  0.6384
 1838TIP3   OH2 5477   2.381   3.258   1.128  0.2578 -0.0441 -0.2966
 1838TIP3    H1 5478   2.439   3.333   1.136 -0.7918  0.5800  3.4592
 1838TIP3    H2 5479   2.436   3.182   1.148  0.1236  0.4586  2.3351
 1839TIP3   OH2 5480   6.881   2.653   1.483 -0.5882  0.3292  0.1033
 1839TIP3    H1 5481   6.811   2.689   1.428 -0.1047  1.6235  0.2945
 1839TIP3    H2 5482   6.952   2.717   1.476  0.3068 -0.5934  0.5038
 1840TIP3   OH2 5483   4.642   5.532   0.234 -0.6465  0.1445 -0.2353
 1840TIP3    H1 5484   4.656   5.439   0.254 -0.5486  0.2773  0.3153
 1840TIP3    H2 5485   4.622   5.533   0.140 -2.4066 -0.6069  0.0919
 1841TIP3   OH2 5486   3.637   2.892   0.937  1.1537  0.3089 -0.3460
 1841TIP3    H1 5487   3.672   2.848   1.015  0.2031 -0.1717 -0.1667
 1841TIP3    H2 5488   3.678   2.978   0.937  0.8180  0.4938  0.9627
 1842TIP3   OH2 5489   6.475   6.202   5.483  0.3721 -0.0988 -0.3909
 1842TIP3    H1 5490   6.381   6.196   5.469  0.0923  1.3247  0.6639
 1842TIP3    H2 5491   6.493   6.296   5.490  1.7952 -0.3602 -0.1309
 1843TIP3   OH2 5492   4.246   3.378   4.389 -0.8186  0.5258 -0.0747
 1843TIP3    H1 5493   4.330   3.340   4.363 -0.7559  0.2689  0.4965
 1843TIP3    H2 5494   4.180   3.318   4.353 -0.7478  0.4545 -0.0851
 1844TIP3   OH2 5495   5.160   2.956   0.951  0.5441 -0.4716 -0.2751
 1844TIP3    H1 5496   5.077   2.931   0.991 -1.2275  2.1744 -1.9568
 1844TIP3    H2 5497   5.188   3.033   1.000  1.5243 -0.7781 -0.3348
 1845TIP3   OH2 5498   1.828   1.935   4.276  0.3059 -0.5116  0.1377
 1845TIP3    H1 5499   1.865   1.912   4.191  0.9634 -0.6402  0.4481
 1845TIP3    H2 5500   1.764   2.004   4.257  1.3335  0.3471 -0.3196
 1846TIP3   OH2 5501   4.697   2.383   3.429  0.2566  0.2060 -0.2155
 1846TIP3    H1 5502   4.716   2.299   3.387  1.3139 -0.2760  1.1701
 1846TIP3    H2 5503   4.723   2.448   3.364 -0.6657 -0.5039 -1.3475
 1847TIP3   OH2 5504   1.687   2.931   3.838 -0.0355 -0.8037  0.1106
 1847TIP3    H1 5505   1.625   2.896   3.775  0.9164 -1.3241 -0.5657
 1847TIP3    H2 5506   1.773   2.920   3.796  0.4769  0.4114  0.7715
 1848TIP3   OH2 5507   3.515   6.466   4.278 -0.5512  0.1775  0.1221
 1848TIP3    H1 5508   3.528   6.482   4.372 -0.4662  1.4387 -0.0869
 1848TIP3    H2 5509   3.439   6.520   4.255 -2.6181 -2.4977  0.0804
 1849TIP3   OH2 5510   0.895   4.213   2.910  0.2652 -0.4812  0.0180
 1849TIP3    H1 5511   0.935   4.129   2.885  0.7745  0.6861 -3.8231
 1849TIP3    H2 5512   0.804   4.190   2.932  0.2401 -2.0321 -1.4818
 1850TIP3   OH2 5513   2.703   5.364   3.216 -0.2296  0.0358  0.0325
 1850TIP3    H1 5514   2.702   5.323   3.303  1.0845 -0.9947 -0.4133
 1850TIP3    H2 5515   2.703   5.291   3.155  0.4386  0.7132 -0.8037
 1851TIP3   OH2 5516   4.110   2.231   1.983 -0.3510 -0.3694  0.9863
 1851TIP3    H1 5517   4.123   2.294   2.054  0.1020 -0.3505  0.8926
 1851TIP3    H2 5518   4.103   2.285   1.904  1.9794 -0.4672  0.6216
 1852TIP3   OH2 5519   6.907   5.128   2.472  0.1569 -0.5377  0.1637
 1852TIP3    H1 5520   6.852   5.055   2.444  0.4298 -0.5461 -0.3766
 1852TIP3    H2 5521   6.942   5.101   2.556 -1.4513 -0.1132  1.0219
 1853TIP3   OH2 5522   5.112   3.535   3.879 -0.0273  0.3851  0.2571
 1853TIP3    H1 5523   5.141   3.445   3.891 -0.9229  0.1404  0.6952
 1853TIP3    H2 5524   5.186   3.589   3.906  0.0266 -0.2186  1.3639
 1854TIP3   OH2 5525   2.682   4.728   1.193 -1.2468 -0.4244  0.2825
 1854TIP3    H1 5526   2.670   4.726   1.098 -1.0205  3.6783 -0.0377
 1854TIP3    H2 5527   2.770   4.765   1.205 -0.5320 -2.5375  2.1690
 1855TIP3   OH2 5528   4.659   2.136   3.283 -0.0342  0.1492 -0.6563
 1855TIP3    H1 5529   4.578   2.147   3.232  1.1913  3.1287 -2.1996
 1855TIP3    H2 5530   4.711   2.075   3.232 -0.8311 -0.9652 -0.1902
 1856TIP3   OH2 5531   0.640   4.608   5.592  0.7819  0.2164  0.0268
 1856TIP3    H1 5532   0.601   4.601   5.679  0.9443  2.8740  0.4015
 1856TIP3    H2 5533   0.574   4.573   5.533  1.4256 -3.5032  1.2478
 1857TIP3   OH2 5534   2.505   6.295   4.703 -0.3743  0.3962  0.1033
 1857TIP3    H1 5535   2.495   6.387   4.728 -0.4196  0.6217 -0.7101
 1857TIP3    H2 5536   2.447   6.284   4.628 -1.4115 -0.6597  1.0319
 1858TIP3   OH2 5537   1.556   2.824   0.614  0.1133  0.1581 -0.5471
 1858TIP3    H1 5538   1.502   2.898   0.586 -0.9074 -0.0319  0.8087
 1858TIP3    H2 5539   1.497   2.749   0.610  0.2465 -0.0499  1.0173
 1859TIP3   OH2 5540   5.411   1.238   4.786  0.0438 -0.2848  0.8145
 1859TIP3    H1 5541   5.368   1.154   4.803 -0.7154 -0.3557 -1.2614
 1859TIP3    H2 5542   5.339   1.300   4.774  0.5740  0.2921  0.5840
 1860TIP3   OH2 5543   5.641   6.643   0.858  0.1857  0.0318  0.9192
 1860TIP3    H1 5544   5.649   6.579   0.928 -0.6883 -0.3841  0.6551
 1860TIP3    H2 5545   5.548   6.665   0.856  0.3374  0.6723  0.4446
 1861TIP3   OH2 5546   1.580   5.109   1.552  0.0788  0.0767 -0.8180
 1861TIP3    H1 5547   1.525   5.155   1.488  0.6493  2.4125  0.2774
 1861TIP3    H2 5548   1.535   5.120   1.635 -0.7648 -3.1068 -0.6996
 1862TIP3   OH2 5549   1.701   3.042   0.167 -0.3792  0.1576  0.2180
 1862TIP3    H1 5550   1.638   3.087   0.110 -0.7359 -0.4934  0.0738
 1862TIP3    H2 5551   1.646   2.996   0.231 -0.0887 -0.8529 -0.2374
 1863TIP3   OH2 5552   6.089   3.176   3.644 -0.0997 -0.1704 -0.0814
 1863TIP3    H1 5553   6.087   3.083   3.669 -0.3398  0.2998  1.7441
 1863TIP3    H2 5554   6.122   3.221   3.721  0.8234  1.2033 -1.2331
 1864TIP3   OH2 5555   0.174   5.026   0.660  0.3196 -0.2988  0.0099
 1864TIP3    H1 5556   0.172   4.956   0.594 -0.4273  0.0532 -0.3563
 1864TIP3    H2 5557   0.156   4.981   0.743 -2.0871 -0.3472 -0.4476
 1865TIP3   OH2 5558   4.969   6.466   5.296 -0.2989 -0.3333  0.1155
 1865TIP3    H1 5559   4.988   6.407   5.223  0.0618  0.7641 -0.7066
 1865TIP3    H2 5560   4.989   6.554   5.262  1.1525  0.1040  1.9453
 1866TIP3   OH2 5561   6.000   6.636   0.115  0.3052 -0.2048 -0.2373
 1866TIP3    H1 5562   5.961   6.645   0.202  1.4509  0.0571  0.2780
 1866TIP3    H2 5563   6.028   6.544   0.111 -0.6899 -0.4979 -0.7617
 1867TIP3   OH2 5564   2.239   5.409   1.389 -0.2454  0.1817  0.4649
 1867TIP3    H1 5565   2.245   5.335   1.449 -0.4325 -1.0263 -0.9607
 1867TIP3    H2 5566   2.153   5.448   1.409  0.1956  0.5412  1.7724
 1868TIP3   OH2 5567   1.127   2.855   2.052  0.4078 -0.7727  0.3287
 1868TIP3    H1 5568   1.069   2.902   1.992  0.1297  0.0991  1.2412
 1868TIP3    H2 5569   1.210   2.901   2.045  0.1416 -0.1358  1.2098
 1869TIP3   OH2 5570   5.114   1.321   2.370 -0.7958  0.2918  0.1348
 1869TIP3    H1 5571   5.204   1.311   2.339 -1.0453 -0.9777 -0.2558
 1869TIP3    H2 5572   5.083   1.403   2.331  0.0544  0.5188 -0.0676
 1870TIP3   OH2 5573   2.665   6.817   1.288 -0.1372 -0.6252 -0.0418
 1870TIP3    H1 5574   2.704   6.731   1.270 -1.6880 -1.0850 -1.3936
 1870TIP3    H2 5575   2.650   6.817   1.383 -0.3415 -1.9407 -0.0618
 1871TIP3   OH2 5576   1.797   0.024   5.014 -0.0319  0.3209  0.2018
 1871TIP3    H1 5577   1.750  -0.044   5.063  0.3142  0.5295  0.8339
 1871TIP3    H2 5578   1.830   0.084   5.081  0.3195  0.6989 -0.2986
 1872TIP3   OH2 5579   1.227   6.801   2.855 -0.1098  0.2997 -0.0122
 1872TIP3    H1 5580   1.237   6.769   2.765 -0.1763 -0.6865  0.3176
 1872TIP3    H2 5581   1.197   6.725   2.904  1.9527  0.2550  1.2700
 1873TIP3   OH2 5582   5.001   0.211   2.640  0.0876 -0.1604 -0.0851
 1873TIP3    H1 5583   4.986   0.246   2.728 -2.8384  0.9193 -0.8863
 1873TIP3    H2 5584   4.914   0.209   2.600  1.3865  0.0548 -3.2112
 1874TIP3   OH2 5585   7.009   6.022   1.595  0.4336  0.3837 -0.5236
 1874TIP3    H1 5586   7.065   6.005   1.671  1.3511  0.2101 -1.2182
 1874TIP3    H2 5587   6.928   6.058   1.632  0.9520  0.5197  0.5167
 1875TIP3   OH2 5588   2.506   0.170   0.892  0.2691  0.7700 -0.3424
 1875TIP3    H1 5589   2.446   0.238   0.922 -0.4754  0.8201 -1.7959
 1875TIP3    H2 5590   2.513   0.185   0.797  0.9400 -0.5051 -0.5183
 1876TIP3   OH2 5591   3.921   4.301   4.981 -0.1701 -0.0508 -0.4040
 1876TIP3    H1 5592   3.917   4.363   5.054  1.8660 -0.6593  0.2999
 1876TIP3    H2 5593   3.943   4.355   4.905  0.7453  0.2295  0.0419
 1877TIP3   OH2 5594   2.508   6.624   0.598 -0.2661  0.1306  0.3305
 1877TIP3    H1 5595   2.517   6.676   0.678 -4.3581  1.8026 -0.0499
 1877TIP3    H2 5596   2.512   6.688   0.527 -0.3865 -0.8031 -0.5391
 1878TIP3   OH2 5597   0.907   4.211   4.185 -0.3235  0.3115  0.6684
 1878TIP3    H1 5598   1.001   4.207   4.202 -0.2021  1.6198  0.3817
 1878TIP3    H2 5599   0.871   4.255   4.262 -0.6981 -0.0424  0.7021
 1879TIP3   OH2 5600   1.342   5.842   3.017 -0.2181  0.0420  1.1968
 1879TIP3    H1 5601   1.267   5.900   3.005 -0.4899 -0.6876 -1.0529
 1879TIP3    H2 5602   1.418   5.895   2.993 -0.4106 -0.2822 -0.2480
 1880TIP3   OH2 5603   1.600   1.187   5.338  0.1908 -0.0097 -0.3045
 1880TIP3    H1 5604   1.668   1.253   5.356  0.7759 -0.8328  0.5658
 1880TIP3    H2 5605   1.614   1.119   5.404 -0.4554 -0.9773 -1.1418
 1881TIP3   OH2 5606   3.057   3.637   2.436  0.6124 -0.4069  0.2948
 1881TIP3    H1 5607   3.053   3.565   2.373 -0.3278  1.0156 -1.3470
 1881TIP3    H2 5608   3.150   3.661   2.439  0.6111 -0.1033 -1.0854
 1882TIP3   OH2 5609   2.448   3.409   2.341  0.7221 -0.1674  0.3346
 1882TIP3    H1 5610   2.421   3.487   2.293 -2.4292 -1.2483  0.1617
 1882TIP3    H2 5611   2.495   3.356   2.276  0.6047  0.4316 -0.2523
 1883TIP3   OH2 5612   2.363   0.998   1.828 -0.4562 -0.1833  0.0873
 1883TIP3    H1 5613   2.324   1.085   1.818 -0.4543 -0.3411 -1.4639
 1883TIP3    H2 5614   2.352   0.956   1.743  0.2045 -1.4366  0.5889
 1884TIP3   OH2 5615   0.251   2.902   2.840 -0.2198  0.0127  0.5794
 1884TIP3    H1 5616   0.317   2.941   2.782 -0.9774 -0.3280 -0.5678
 1884TIP3    H2 5617   0.208   2.976   2.881 -1.3256  0.4242 -1.2154
 1885TIP3   OH2 5618   3.571   4.817   4.172  0.3845 -0.8181 -0.0966
 1885TIP3    H1 5619   3.522   4.764   4.108  0.5181 -0.7667 -0.2411
 1885TIP3    H2 5620   3.507   4.881   4.203  0.4148 -0.6148 -0.4427
 1886TIP3   OH2 5621   4.004   5.063   1.378 -0.7637  0.1514 -0.1147
 1886TIP3    H1 5622   4.038   5.051   1.289 -1.7856  1.2860 -0.6837
 1886TIP3    H2 5623   4.054   5.001   1.431  0.4613  0.0520 -1.3278
 1887TIP3   OH2 5624   7.178   1.013   2.015  0.2837 -0.6489  0.0674
 1887TIP3    H1 5625   7.208   1.001   1.925 -2.5215  0.0336 -1.0514
 1887TIP3    H2 5626   7.117   0.941   2.030  0.4292 -0.5329  1.3070
 1888TIP3   OH2 5627   6.522   3.647   3.067  0.3811  0.4500  0.3586
 1888TIP3    H1 5628   6.579   3.654   3.143  0.7009 -1.4925  0.3574
 1888TIP3    H2 5629   6.448   3.704   3.086  0.3988 -0.1025  2.1654
 1889TIP3   OH2 5630   6.903   2.964   3.572  0.8641 -0.1098 -0.7856
 1889TIP3    H1 5631   6.971   3.026   3.599  1.6690 -1.3137  0.0521
 1889TIP3    H2 5632   6.834   3.019   3.534  0.0326  1.6536  2.8912
 1890TIP3   OH2 5633   2.052   6.461   1.259 -0.2533 -0.7252 -0.2155
 1890TIP3    H1 5634   2.033   6.393   1.196  0.8400 -0.6537 -0.6480
 1890TIP3    H2 5635   2.004   6.436   1.338 -0.3657 -1.6482 -0.5718
 1891TIP3   OH2 5636   0.533   0.925   5.575 -0.8408  0.3184 -0.0774
 1891TIP3    H1 5637   0.446   0.960   5.591 -0.7341  0.8108 -0.5505
 1891TIP3    H2 5638   0.557   0.957   5.488  1.4431  3.6104  1.5497
 1892TIP3   OH2 5639   0.599   2.059   2.236 -0.2350  0.1028  0.1914
 1892TIP3    H1 5640   0.509   2.049   2.269 -0.5510 -0.5802 -0.8252
 1892TIP3    H2 5641   0.637   1.972   2.246  0.0918  0.2219 -0.0135
 1893TIP3   OH2 5642   0.047   0.868   1.014 -0.1032  0.0321  0.0066
 1893TIP3    H1 5643   0.115   0.931   1.037 -0.4110  0.4939 -0.3236
 1893TIP3    H2 5644   0.022   0.827   1.097  1.4737 -1.0791 -0.0213
 1894TIP3   OH2 5645   6.847   6.160   5.209  0.1380 -0.0452 -0.3365
 1894TIP3    H1 5646   6.820   6.243   5.172 -0.2340  0.1912  0.4373
 1894TIP3    H2 5647   6.871   6.181   5.300 -0.9058 -0.9295  0.1757
 1895TIP3   OH2 5648   4.672   6.367   4.616  0.0057 -0.3721 -0.2695
 1895TIP3    H1 5649   4.644   6.389   4.527 -2.0180  1.3047  0.7228
 1895TIP3    H2 5650   4.595   6.328   4.657  0.3670  0.4669  1.2673
 1896TIP3   OH2 5651   5.319   2.435   0.510  0.1630 -0.5068 -0.0423
 1896TIP3    H1 5652   5.229   2.419   0.537  0.3382 -0.2536  0.7370
 1896TIP3    H2 5653   5.372   2.380   0.568  0.4751 -1.3561 -1.1017
 1897TIP3   OH2 5654   2.710   5.178   5.728 -0.4646  0.0163  0.1461
 1897TIP3    H1 5655   2.661   5.124   5.667 -1.1206 -0.1730  0.8324
 1897TIP3    H2 5656   2.802   5.162   5.705 -0.6958  0.8032 -1.5202
 1898TIP3   OH2 5657   3.529   5.538   5.881  0.2827 -0.2758 -0.2474
 1898TIP3    H1 5658   3.578   5.548   5.799  0.5384 -3.4644 -0.6249
 1898TIP3    H2 5659   3.578   5.471   5.929 -1.0748 -0.0272  1.5734
 1899TIP3   OH2 5660   1.602   6.520   2.345  0.4601 -0.2130  0.2201
 1899TIP3    H1 5661   1.566   6.469   2.417 -1.9277 -0.4795 -1.0622
 1899TIP3    H2 5662   1.525   6.549   2.296  1.8811  2.1136 -0.7902
 1900TIP3   OH2 5663   3.652   6.802   2.343 -0.2615 -0.3282 -0.2233
 1900TIP3    H1 5664   3.605   6.738   2.397 -1.4803  1.7570  1.3496
 1900TIP3    H2 5665   3.583   6.845   2.292  0.4137  0.2661 -0.6436
 1901TIP3   OH2 5666   2.421   4.684   3.368  0.1289  0.2645 -1.0075
 1901TIP3    H1 5667   2.471   4.650   3.294 -0.2153  0.9943 -1.5848
 1901TIP3    H2 5668   2.388   4.769   3.338  1.4717  1.4144  0.6036
 1902TIP3   OH2 5669   2.696   1.560   5.845  0.0915 -0.2960  0.2205
 1902TIP3    H1 5670   2.624   1.503   5.817  0.7913 -0.6637 -0.8728
 1902TIP3    H2 5671   2.731   1.518   5.923  0.0610 -0.9112 -0.0947
 1903TIP3   OH2 5672   4.666   3.392   2.767 -0.5689  0.0365  0.0908
 1903TIP3    H1 5673   4.624   3.319   2.812  0.4958  0.4282  1.8390
 1903TIP3    H2 5674   4.718   3.352   2.697  1.3634 -1.1230  2.0715
 1904TIP3   OH2 5675   0.424   5.267   4.971 -0.0968  0.0498 -0.3592
 1904TIP3    H1 5676   0.426   5.341   5.033 -1.7620  0.3704 -0.6505
 1904TIP3    H2 5677   0.490   5.290   4.905 -0.2884  1.0844 -0.2143
 1905TIP3   OH2 5678   6.885   2.797   2.745  0.0044  0.3203 -0.0884
 1905TIP3    H1 5679   6.947   2.731   2.713  2.3496  2.0097  0.7026
 1905TIP3    H2 5680   6.939   2.873   2.764 -2.1681  1.4691  1.9678
 1906TIP3   OH2 5681   4.364   4.383   2.415  0.4986  0.6363  0.5531
 1906TIP3    H1 5682   4.277   4.421   2.430  0.2740 -0.4067  2.1833
 1906TIP3    H2 5683   4.348   4.304   2.364  0.6309  1.0602 -0.1559
 1907TIP3   OH2 5684   5.241   3.757   0.705  0.3445  0.3033 -0.3564
 1907TIP3    H1 5685   5.274   3.680   0.752 -1.6185  0.4624  1.4035
 1907TIP3    H2 5686   5.250   3.829   0.768  0.2771  1.1158 -1.2558
 1908TIP3   OH2 5687   0.619   6.698   2.631 -0.2571 -0.1398 -0.0207
 1908TIP3    H1 5688   0.617   6.658   2.718  1.2824 -0.9966 -0.3405
 1908TIP3    H2 5689   0.682   6.645   2.582 -1.6072 -0.1213 -1.8958
 1909TIP3   OH2 5690   1.541   6.745   2.575  0.1224 -0.2304 -0.1705
 1909TIP3    H1 5691   1.483   6.719   2.503 -0.7145  1.8781 -0.3295
 1909TIP3    H2 5692   1.504   6.827   2.607  1.6647 -0.0699  1.3307
 1910TIP3   OH2 5693   1.562   1.007   4.170 -0.2031 -0.3886  0.3801
 1910TIP3    H1 5694   1.626   0.977   4.234 -0.0525 -0.7973  0.0444
 1910TIP3    H2 5695   1.591   1.095   4.147  0.7074 -0.8614 -0.3567
 1911TIP3   OH2 5696   3.224   6.093   0.625  0.5353 -0.1354  0.7845
 1911TIP3    H1 5697   3.248   6.111   0.534  1.5051 -1.1167  0.8244
 1911TIP3    H2 5698   3.129   6.096   0.626  0.4947 -0.6016 -0.3862
 1912TIP3   OH2 5699   3.874   3.487   2.189  0.5693 -0.2260  0.4674
 1912TIP3    H1 5700   3.805   3.423   2.174 -0.6871  1.5688 -2.2854
 1912TIP3    H2 5701   3.850   3.530   2.271 -0.3692 -1.1015  0.6623
 1913TIP3   OH2 5702   1.467   1.588   3.310  0.4517  0.2915 -0.1038
 1913TIP3    H1 5703   1.547   1.594   3.362  0.6864  1.3965 -0.5496
 1913TIP3    H2 5704   1.497   1.570   3.221  0.3227  1.7200 -0.4756
 1914TIP3   OH2 5705   7.100   6.717   3.237 -0.3524  0.5812 -0.5315
 1914TIP3    H1 5706   7.028   6.763   3.194 -0.9869 -0.3015 -0.4491
 1914TIP3    H2 5707   7.120   6.644   3.179 -1.4028 -0.7858  0.7496
 1915TIP3   OH2 5708   5.481   3.485   4.150 -0.1473 -0.1714  0.1703
 1915TIP3    H1 5709   5.461   3.470   4.057 -0.1523 -1.2604  0.3314
 1915TIP3    H2 5710   5.559   3.432   4.166 -0.6495 -0.6788  0.9874
 1916TIP3   OH2 5711   1.502   1.368   2.079 -0.2986 -0.0609  0.1792
 1916TIP3    H1 5712   1.445   1.429   2.127  1.2451  2.3369 -0.8326
 1916TIP3    H2 5713   1.575   1.352   2.138  0.8904  1.7484 -0.7062
 1917TIP3   OH2 5714   0.784   6.192   0.984 -0.1733  0.2203  0.5703
 1917TIP3    H1 5715   0.875   6.164   0.970 -0.5116 -1.5081  1.5188
 1917TIP3    H2 5716   0.733   6.140   0.923 -0.4967  1.8818 -0.6561
 1918TIP3   OH2 5717   5.137   2.851   3.319  0.4954 -0.2000 -0.4727
 1918TIP3    H1 5718   5.106   2.914   3.384  1.1572 -0.3047 -0.0393
 1918TIP3    H2 5719   5.218   2.890   3.286  1.3271 -1.1755  0.3645
 1919TIP3   OH2 5720   5.648   2.652   1.677 -0.1569  0.1523  0.0571
 1919TIP3    H1 5721   5.693   2.669   1.594  0.2153  0.3847  0.3044
 1919TIP3    H2 5722   5.700   2.583   1.718 -1.2527 -1.1211 -0.6193
 1920TIP3   OH2 5723   2.860   2.810   5.219  0.6829 -0.3344  0.6347
 1920TIP3    H1 5724   2.854   2.904   5.233  0.1814 -0.0729 -1.1628
 1920TIP3    H2 5725   2.898   2.776   5.300 -1.1310  1.1255  2.1869
 1921TIP3   OH2 5726   5.420   3.277   4.359  0.8628 -0.3009 -0.0948
 1921TIP3    H1 5727   5.460   3.233   4.435  0.1293 -0.5053  0.1833
 1921TIP3    H2 5728   5.492   3.327   4.320  1.1661  0.1501  0.9844
 1922TIP3   OH2 5729   5.198   5.649   0.926 -0.6449  0.1052  0.0773
 1922TIP3    H1 5730   5.145   5.569   0.936 -1.2258  0.5651  0.8805
 1922TIP3    H2 5731   5.187   5.674   0.835 -0.8092 -0.4960 -0.0736
 1923TIP3   OH2 5732   6.463   4.178   0.619 -0.1231  0.2828 -0.8294
 1923TIP3    H1 5733   6.485   4.191   0.712 -1.2684  0.3433 -0.5424
 1923TIP3    H2 5734   6.415   4.258   0.595  1.4116  0.9186 -1.9051
 1924TIP3   OH2 5735   4.056   1.550   3.478  0.2436 -0.3000  0.4941
 1924TIP3    H1 5736   4.055   1.502   3.396  0.9275 -0.3593  0.5135
 1924TIP3    H2 5737   4.149   1.565   3.496  0.0586  0.8773  0.5797
 1925TIP3   OH2 5738   4.943   2.243   5.799 -0.1397 -0.1659  0.5579
 1925TIP3    H1 5739   4.978   2.255   5.887  0.0938  1.9856  0.2073
 1925TIP3    H2 5740   4.849   2.262   5.808  0.3213  2.8327 -0.1010
 1926TIP3   OH2 5741   0.469   2.832   3.285  0.9193 -0.0452  0.3549
 1926TIP3    H1 5742   0.429   2.763   3.337  1.7862 -0.6316  0.2549
 1926TIP3    H2 5743   0.552   2.851   3.329  0.4351  1.3504  0.7239
 1927TIP3   OH2 5744   5.112   0.394   0.120 -0.3543 -0.6049 -0.2457
 1927TIP3    H1 5745   5.201   0.366   0.101 -0.8665 -0.9376 -2.3241
 1927TIP3    H2 5746   5.098   0.368   0.211  2.3458  1.2915  0.8489
 1928TIP3   OH2 5747   3.102   3.616   4.608  0.0300 -0.0153  0.1566
 1928TIP3    H1 5748   3.056   3.580   4.532  1.8179  0.5182 -1.2459
 1928TIP3    H2 5749   3.061   3.573   4.683 -0.6340 -1.9209 -1.2075
 1929TIP3   OH2 5750   1.888   3.315   1.966 -0.3209 -0.5390  0.5223
 1929TIP3    H1 5751   1.891   3.391   1.907 -2.8743 -0.1188  0.8401
 1929TIP3    H2 5752   1.913   3.241   1.910 -0.9736  0.0985 -0.6519
 1930TIP3   OH2 5753   2.394   1.293   3.415  0.7093 -0.3694  0.2056
 1930TIP3    H1 5754   2.362   1.383   3.418 -0.0856 -0.6631  2.4414
 1930TIP3    H2 5755   2.479   1.297   3.459  0.4305 -0.7643  0.8011
 1931TIP3   OH2 5756   4.871   2.503   4.023 -0.1519  0.3097  0.0439
 1931TIP3    H1 5757   4.903   2.591   4.005 -0.7366  0.4287 -0.4424
 1931TIP3    H2 5758   4.936   2.465   4.083  1.5986  0.1187 -1.8592
 1932TIP3   OH2 5759   3.765   1.575   3.524 -0.2777 -0.4443 -0.0704
 1932TIP3    H1 5760   3.781   1.581   3.618 -1.6349 -0.5605  0.1951
 1932TIP3    H2 5761   3.850   1.556   3.486 -0.0253 -2.4333  1.3370
 1933TIP3   OH2 5762   4.911   6.564   2.430  0.2145  0.3084  0.0710
 1933TIP3    H1 5763   4.865   6.602   2.354 -0.9888 -0.1342  0.5451
 1933TIP3    H2 5764   4.990   6.617   2.440 -0.3849  1.3545 -0.5495
 1934TIP3   OH2 5765   5.660   1.292   4.156 -0.4281  0.0581 -0.4977
 1934TIP3    H1 5766   5.731   1.300   4.221 -1.5026  2.6171  0.4986
 1934TIP3    H2 5767   5.660   1.200   4.132  0.8221 -0.7866  2.2752
 1935TIP3   OH2 5768   0.747   5.377   3.868  0.4725 -0.1584 -0.3865
 1935TIP3    H1 5769   0.695   5.300   3.888  1.2474 -0.5942  0.0212
 1935TIP3    H2 5770   0.696   5.450   3.904  0.5471 -0.6633  0.7957
 1936TIP3   OH2 5771   0.855   5.220   4.737 -0.6754  0.3863  0.2144
 1936TIP3    H1 5772   0.778   5.249   4.786 -0.9396 -1.0777  0.7050
 1936TIP3    H2 5773   0.832   5.133   4.705  0.2628  0.4931 -0.8130
 1937TIP3   OH2 5774   0.298   6.541   2.095 -1.0028 -0.1729  0.0472
 1937TIP3    H1 5775   0.216   6.590   2.085 -2.6183 -2.1457  2.3418
 1937TIP3    H2 5776   0.335   6.571   2.178  2.1263  2.5437 -2.1140
 1938TIP3   OH2 5777   0.516   2.310   5.791 -0.1557 -0.2544  0.0496
 1938TIP3    H1 5778   0.598   2.273   5.824  0.7877  0.0008 -1.9100
 1938TIP3    H2 5779   0.512   2.397   5.831 -0.0813 -0.6935  1.0605
 1939TIP3   OH2 5780   6.118   1.082   5.371  0.4546 -0.5951 -0.6916
 1939TIP3    H1 5781   6.121   1.032   5.290 -0.6223 -0.6129 -0.7305
 1939TIP3    H2 5782   6.037   1.133   5.365  1.5606  1.2622 -0.7150
 1940TIP3   OH2 5783   4.976   4.011   1.308  0.5900 -0.7090  0.2425
 1940TIP3    H1 5784   5.043   4.080   1.307 -0.0584 -0.0526  0.5516
 1940TIP3    H2 5785   4.964   3.990   1.400 -1.7374  1.3524  0.5409
 1941TIP3   OH2 5786   6.279   1.265   2.513 -0.5474  0.2528  0.0492
 1941TIP3    H1 5787   6.294   1.283   2.605 -2.1534  0.7876  0.2338
 1941TIP3    H2 5788   6.298   1.171   2.504 -1.2762 -0.0179  1.1319
 1942TIP3   OH2 5789   4.444   1.643   4.610 -0.0739 -0.3195 -0.0133
 1942TIP3    H1 5790   4.515   1.651   4.675  0.8027  0.4037 -1.0277
 1942TIP3    H2 5791   4.370   1.607   4.660  0.8997 -0.7879  1.1455
 1943TIP3   OH2 5792   4.786   3.360   1.381  0.1081 -0.0066  0.3763
 1943TIP3    H1 5793   4.840   3.353   1.303 -0.3288 -0.1715  0.0830
 1943TIP3    H2 5794   4.713   3.417   1.355  0.2950  0.4618  0.8548
 1944TIP3   OH2 5795   5.328   6.711   2.094 -0.0132  0.4646 -0.0219
 1944TIP3    H1 5796   5.401   6.766   2.063 -0.0029  1.5513  1.7688
 1944TIP3    H2 5797   5.261   6.774   2.121 -0.0543 -0.3686  1.9837
 1945TIP3   OH2 5798   3.018   5.439   1.419  0.6363 -0.3177 -0.4574
 1945TIP3    H1 5799   3.097   5.458   1.470  0.4385  0.4290 -0.4270
 1945TIP3    H2 5800   2.955   5.505   1.447 -0.0125 -0.9122 -0.4723
 1946TIP3   OH2 5801   2.432   3.939   5.821  0.5288  0.7588 -0.0683
 1946TIP3    H1 5802   2.492   3.876   5.859  0.0011 -0.6447 -1.4310
 1946TIP3    H2 5803   2.487   3.998   5.770  0.8907  0.4657 -0.0136
 1947TIP3   OH2 5804   4.009   0.772   1.017  0.1586 -0.5278 -0.1834
 1947TIP3    H1 5805   4.057   0.837   1.070 -0.0009 -1.6026  1.3491
 1947TIP3    H2 5806   4.074   0.703   1.001 -0.6150 -1.6567  1.2989
 1948TIP3   OH2 5807   6.803   3.160   3.813 -0.0007  0.4677 -0.6497
 1948TIP3    H1 5808   6.805   3.073   3.772 -1.6690 -0.6137  1.3711
 1948TIP3    H2 5809   6.868   3.154   3.883  0.8165  1.3474 -1.2981
 1949TIP3   OH2 5810   4.734   2.628   4.870  0.3962  0.3344  0.0631
 1949TIP3    H1 5811   4.679   2.706   4.862  0.1331  0.1756  0.3059
 1949TIP3    H2 5812   4.717   2.596   4.958 -0.1256 -0.4689 -0.3138
 1950TIP3   OH2 5813   5.381   4.872   0.116 -0.0386 -0.0793  0.0268
 1950TIP3    H1 5814   5.404   4.916   0.197 -0.8440 -0.9723  0.7583
 1950TIP3    H2 5815   5.465   4.859   0.071  0.4322  0.2081  0.8194
 1951TIP3   OH2 5816   3.214   1.373   1.897  0.2289  0.2250  0.0267
 1951TIP3    H1 5817   3.295   1.387   1.848  0.9534  1.4138  1.4775
 1951TIP3    H2 5818   3.152   1.436   1.859 -0.5732 -1.6738 -2.0825
 1952TIP3   OH2 5819   0.102   4.731   4.900 -0.3556  0.3548 -0.2086
 1952TIP3    H1 5820   0.063   4.798   4.844 -1.3897 -1.3513 -1.6475
 1952TIP3    H2 5821   0.036   4.662   4.904  1.7910 -1.9269 -1.3575
 1953TIP3   OH2 5822   1.087   0.504   0.992  0.1107 -0.3727  0.0122
 1953TIP3    H1 5823   1.020   0.566   0.962  1.3736  0.5572 -1.0336
 1953TIP3    H2 5824   1.063   0.421   0.951 -0.6175 -0.1526 -0.0181
 1954TIP3   OH2 5825   4.179   3.627   1.117 -0.9333 -0.1564  0.1034
 1954TIP3    H1 5826   4.131   3.709   1.108 -0.6632 -0.0577 -0.5274
 1954TIP3    H2 5827   4.112   3.559   1.109 -1.0498 -0.0110 -0.1586
 1955TIP3   OH2 5828   2.820   2.392   4.828 -0.0832  0.1334  0.1244
 1955TIP3    H1 5829   2.884   2.337   4.873 -0.7454 -0.9761 -0.2434
 1955TIP3    H2 5830   2.871   2.461   4.788  0.8602 -0.6088  0.0148
 1956TIP3   OH2 5831   5.153   6.243   1.156  0.6030  0.3866  0.2549
 1956TIP3    H1 5832   5.189   6.155   1.169 -1.1359 -0.4726 -0.4194
 1956TIP3    H2 5833   5.194   6.274   1.075  2.2960  0.8211  1.2308
 1957TIP3   OH2 5834   0.806   6.739   3.442  0.1749  0.5306  0.0508
 1957TIP3    H1 5835   0.865   6.680   3.395 -0.7664 -0.5300  0.1799
 1957TIP3    H2 5836   0.802   6.817   3.387  0.5551  0.0448 -0.6853
 1958TIP3   OH2 5837   2.236   5.001   5.893  0.7188 -0.0578  0.1956
 1958TIP3    H1 5838   2.291   4.923   5.891  1.5326  0.3732  2.4861
 1958TIP3    H2 5839   2.273   5.060   5.827  1.7927 -0.5437  0.3574
 1959TIP3   OH2 5840   4.454   2.437   3.231  0.4262  0.0714 -0.3546
 1959TIP3    H1 5841   4.371   2.466   3.267  1.8095  0.8709  2.4983
 1959TIP3    H2 5842   4.451   2.342   3.235 -0.2641  0.1036 -0.0712
 1960TIP3   OH2 5843   2.682   2.920   2.079 -0.2985 -0.0390 -0.0885
 1960TIP3    H1 5844   2.727   2.986   2.133 -1.7285  1.7608 -0.9875
 1960TIP3    H2 5845   2.647   2.970   2.005 -0.4190 -2.0525 -1.4471
 1961TIP3   OH2 5846   1.155   5.437   5.562  0.1064 -0.6901 -0.5104
 1961TIP3    H1 5847   1.240   5.432   5.607  0.8835  2.2116 -1.4403
 1961TIP3    H2 5848   1.174   5.407   5.472  0.6659  1.6732 -1.2385
 1962TIP3   OH2 5849   6.707   2.068   2.439 -0.4726  0.5293  0.0094
 1962TIP3    H1 5850   6.774   2.132   2.414  0.0541  0.2914  0.7969
 1962TIP3    H2 5851   6.754   2.003   2.491 -1.1764 -0.0329 -0.0481
 1963TIP3   OH2 5852   3.321   2.497   4.239 -0.1006 -0.2058 -0.2870
 1963TIP3    H1 5853   3.227   2.493   4.252 -0.5286  0.8512 -2.6717
 1963TIP3    H2 5854   3.336   2.454   4.155  1.7700 -1.6345  0.6842
 1964TIP3   OH2 5855   5.488   1.463   5.595 -0.4217 -0.5142 -0.1116
 1964TIP3    H1 5856   5.413   1.413   5.628 -0.1974 -2.5206 -2.3925
 1964TIP3    H2 5857   5.559   1.400   5.590  0.4710  0.5243 -1.1789
 1965TIP3   OH2 5858   2.848   6.649   0.795 -0.2064 -0.1297  0.0318
 1965TIP3    H1 5859   2.805   6.727   0.761 -1.1028  0.7484  2.9142
 1965TIP3    H2 5860   2.798   6.625   0.873 -0.6122 -4.2731 -1.2332
 1966TIP3   OH2 5861   7.150   6.067   5.868  0.5854 -0.3099  0.8151
 1966TIP3    H1 5862   7.157   6.084   5.774  0.1689 -0.0029  0.8353
 1966TIP3    H2 5863   7.211   5.996   5.884  1.1786  0.0981  0.4328
 1967TIP3   OH2 5864   2.311   0.266   3.778  0.0740  0.4816  0.4273
 1967TIP3    H1 5865   2.405   0.267   3.760  0.2682  2.9339  1.2061
 1967TIP3    H2 5866   2.305   0.257   3.873 -0.5802 -1.1270  0.2703
 1968TIP3   OH2 5867   2.404   0.785   1.984 -0.3763 -0.3478 -0.0839
 1968TIP3    H1 5868   2.370   0.826   2.063 -1.2339 -1.2760  0.0433
 1968TIP3    H2 5869   2.387   0.849   1.915  1.9729  1.2567  0.6871
 1969TIP3   OH2 5870   4.171   0.257   5.266 -0.3880  0.2183  0.0430
 1969TIP3    H1 5871   4.246   0.214   5.307 -0.6117 -0.5672 -0.3565
 1969TIP3    H2 5872   4.186   0.351   5.282  0.8376  0.1078 -0.2896
 1970TIP3   OH2 5873   2.937   1.142   0.236 -0.1317 -0.0426  0.8718
 1970TIP3    H1 5874   3.026   1.175   0.252 -0.7249  1.9074  0.4344
 1970TIP3    H2 5875   2.951   1.058   0.192  1.4879 -0.0938  1.4017
 1971TIP3   OH2 5876   7.030   4.514   4.274 -0.1900 -0.5784  0.0161
 1971TIP3    H1 5877   7.096   4.567   4.229  0.5391 -1.0506  0.4965
 1971TIP3    H2 5878   7.063   4.506   4.363  0.2987 -2.6935 -0.2866
 1972TIP3   OH2 5879   6.368   4.137   5.637  0.0432 -0.5621 -0.2357
 1972TIP3    H1 5880   6.350   4.211   5.579 -1.1835 -2.0000 -1.8275
 1972TIP3    H2 5881   6.443   4.093   5.597 -1.0391 -1.7745 -1.0295
 1973TIP3   OH2 5882   0.832   5.336   3.044 -0.3450 -0.2579  0.3601
 1973TIP3    H1 5883   0.902   5.401   3.040 -0.6927  0.1845  1.1666
 1973TIP3    H2 5884   0.755   5.385   3.072 -0.4020 -1.1707  1.9235
 1974TIP3   OH2 5885   7.154   2.503  -0.020 -0.2252  0.0111  0.1127
 1974TIP3    H1 5886   7.090   2.568   0.007  0.4044  0.9569 -0.6060
 1974TIP3    H2 5887   7.206   2.487   0.059  0.9978  2.0382 -0.2208
 1975TIP3   OH2 5888   4.496   1.966   4.789  0.2838  0.1070 -0.0503
 1975TIP3    H1 5889   4.557   1.903   4.751  1.7645  1.5184 -0.1353
 1975TIP3    H2 5890   4.507   1.956   4.883 -1.9889 -2.0543  0.0937
 1976TIP3   OH2 5891   3.612   3.580   5.639  0.1754 -0.4905 -0.2988
 1976TIP3    H1 5892   3.540   3.642   5.628  0.2498 -0.6415 -1.9748
 1976TIP3    H2 5893   3.675   3.605   5.571  0.0692 -2.5783 -1.2258
 1977TIP3   OH2 5894   2.192   2.536   5.589  0.6471  0.2440 -0.5281
 1977TIP3    H1 5895   2.156   2.612   5.543  0.8289  1.5354  1.3457
 1977TIP3    H2 5896   2.259   2.572   5.647  0.0585 -1.1928  1.1603
 1978TIP3   OH2 5897   6.345   3.783   3.570  0.1601  0.7131 -0.0182
 1978TIP3    H1 5898   6.370   3.696   3.600  1.6289  1.2528  0.4168
 1978TIP3    H2 5899   6.280   3.768   3.501  0.2338 -0.7023  0.2038
 1979TIP3   OH2 5900   6.173   4.925   4.496 -0.2055  0.6078  0.3664
 1979TIP3    H1 5901   6.158   4.915   4.402  0.7074 -1.9518  0.4009
 1979TIP3    H2 5902   6.085   4.934   4.533 -0.5584  2.0218 -0.7307
 1980TIP3   OH2 5903   1.213   1.957   3.667  0.3653  0.0617 -0.3308
 1980TIP3    H1 5904   1.275   2.010   3.716  0.3805 -1.7435  1.7401
 1980TIP3    H2 5905   1.263   1.923   3.593  1.6159 -0.6395  0.8004
 1981TIP3   OH2 5906   5.036   4.351   1.385  0.0883 -0.1747 -0.0087
 1981TIP3    H1 5907   5.099   4.297   1.338  0.6464 -0.3335  0.9129
 1981TIP3    H2 5908   5.076   4.367   1.470 -1.1084 -0.2840  0.5991
 1982TIP3   OH2 5909   7.080   6.094   2.034 -0.4579  0.0842  0.4442
 1982TIP3    H1 5910   7.128   6.062   1.959 -0.4237 -0.7307  0.8052
 1982TIP3    H2 5911   7.116   6.181   2.051  2.2247 -1.1816  1.8148
 1983TIP3   OH2 5912   2.782   3.095   3.364 -0.3477  0.4907 -0.0724
 1983TIP3    H1 5913   2.815   3.138   3.443  1.4878 -0.9064 -0.0119
 1983TIP3    H2 5914   2.784   3.164   3.297  0.3703  1.0926  0.5496
 1984TIP3   OH2 5915   2.220   3.738   0.382  0.6711 -0.1316 -0.0671
 1984TIP3    H1 5916   2.133   3.723   0.419  0.9138 -0.6474  0.3119
 1984TIP3    H2 5917   2.273   3.665   0.415  1.2766  0.2422 -0.1890
 1985TIP3   OH2 5918   0.765   2.200   4.682  0.1494  0.1723  0.4511
 1985TIP3    H1 5919   0.722   2.212   4.767 -1.7340 -0.6770 -0.3269
 1985TIP3    H2 5920   0.734   2.115   4.652  0.0928  0.8342 -1.4684
 1986TIP3   OH2 5921   3.940   2.538   4.875 -0.5199  0.0277  0.4010
 1986TIP3    H1 5922   3.846   2.533   4.857 -0.4624  0.6148 -0.0681
 1986TIP3    H2 5923   3.978   2.467   4.823 -0.4879  0.9928 -0.9373
 1987TIP3   OH2 5924   2.368   2.916   2.537 -0.8532  0.6117  0.7090
 1987TIP3    H1 5925   2.304   2.847   2.553  0.8736 -0.8509  1.7684
 1987TIP3    H2 5926   2.337   2.991   2.588 -2.0736  0.1792  0.6221
 1988TIP3   OH2 5927   6.294   0.176   3.163 -0.2749 -0.0017  0.5892
 1988TIP3    H1 5928   6.236   0.182   3.239 -1.4971  0.1668 -0.3157
 1988TIP3    H2 5929   6.309   0.267   3.137 -0.9613 -0.0909 -0.1555
 1989TIP3   OH2 5930   3.075   6.753   4.794 -0.1713 -0.0117  0.3224
 1989TIP3    H1 5931   3.106   6.835   4.754 -0.9485  0.3976  0.5352
 1989TIP3    H2 5932   3.045   6.779   4.881 -2.5700 -0.0680 -0.4271
 1990TIP3   OH2 5933   0.678   6.222   5.810  0.1026  0.0924  0.1582
 1990TIP3    H1 5934   0.636   6.205   5.895 -2.1288 -1.0195 -1.0733
 1990TIP3    H2 5935   0.672   6.316   5.799 -0.9856  0.0919  0.5881
 1991TIP3   OH2 5936   6.744   4.364   2.338  0.3936 -0.6200 -0.6033
 1991TIP3    H1 5937   6.783   4.285   2.300  1.0574 -1.3593  1.4639
 1991TIP3    H2 5938   6.818   4.412   2.374 -0.0415  0.8484 -1.5605
 1992TIP3   OH2 5939   0.031   2.491   3.951  0.0968 -0.1048 -0.3931
 1992TIP3    H1 5940   0.080   2.518   3.873  1.8890  0.9615  1.0284
 1992TIP3    H2 5941  -0.021   2.567   3.976  0.9460  0.2154  0.4732
 1993TIP3   OH2 5942   3.375   5.410   0.447  0.1012 -0.5911  0.0363
 1993TIP3    H1 5943   3.439   5.479   0.460  0.0440 -0.5479  0.0861
 1993TIP3    H2 5944   3.419   5.347   0.389 -0.5014  0.3840 -1.5652
 1994TIP3   OH2 5945   3.356   4.881   3.557 -0.2413  0.4331 -0.0756
 1994TIP3    H1 5946   3.263   4.871   3.576 -0.0585  1.1525  1.2464
 1994TIP3    H2 5947   3.395   4.913   3.638  1.3073 -0.6326 -0.3508
 1995TIP3   OH2 5948   1.636   5.094   4.592 -0.1131  0.3254 -0.3863
 1995TIP3    H1 5949   1.700   5.164   4.602  0.1966  0.1544 -1.1825
 1995TIP3    H2 5950   1.661   5.048   4.512  0.8614 -1.9153  1.0981
 1996TIP3   OH2 5951   1.508   4.959   4.793  0.0391 -0.6013 -0.1993
 1996TIP3    H1 5952   1.525   4.870   4.760 -2.3362 -0.7653 -1.1684
 1996TIP3    H2 5953   1.546   5.016   4.726 -0.4122 -0.9176 -0.7401
 1997TIP3   OH2 5954   3.020   0.720   1.101  0.0028 -0.6944 -0.2472
 1997TIP3    H1 5955   2.950   0.780   1.129 -0.6696 -0.6276 -1.9731
 1997TIP3    H2 5956   3.097   0.777   1.093 -0.7135  0.0791 -2.2251
 1998TIP3   OH2 5957   1.131   4.265   2.147  0.1324  0.1502  0.0107
 1998TIP3    H1 5958   1.097   4.353   2.134  0.6064  0.3343  0.0364
 1998TIP3    H2 5959   1.225   4.273   2.136  0.2012 -0.3087  0.2491
 1999TIP3   OH2 5960   5.669   4.488   4.471  0.0002 -0.2225  0.5441
 1999TIP3    H1 5961   5.674   4.400   4.434 -0.9224 -0.0911  0.0875
 1999TIP3    H2 5962   5.689   4.475   4.564  0.2923 -0.8490  0.4027
 2000TIP3   OH2 5963   3.528   2.676   4.143 -0.0866  0.2559 -0.1672
 2000TIP3    H1 5964   3.478   2.757   4.133  1.3769  1.1505 -0.5605
 2000TIP3    H2 5965   3.467   2.614   4.182 -1.5159  1.2647 -0.7320
 2001TIP3   OH2 5966   0.124   6.291   4.921  0.1865 -0.5378  0.2039
 2001TIP3    H1 5967   0.109   6.198   4.910 -0.5727 -0.2680 -1.3135
 2001TIP3    H2 5968   0.145   6.323   4.833 -1.4822  1.0364  0.3220
 2002TIP3   OH2 5969   1.931   3.438   5.316 -0.3187  0.2805 -0.2292
 2002TIP3    H1 5970   1.884   3.519   5.300  1.0945  1.1966  0.0802
 2002TIP3    H2 5971   1.920   3.422   5.410 -0.0087  0.5012 -0.1547
 2003TIP3   OH2 5972   3.742   6.052   5.208  0.5207 -0.2658 -0.4431
 2003TIP3    H1 5973   3.680   6.125   5.216 -0.2781 -0.9750  0.1888
 2003TIP3    H2 5974   3.785   6.048   5.294 -1.3131 -2.0997  0.4971
 2004TIP3   OH2 5975   4.377   6.582   4.943 -0.3784 -0.0394  0.0705
 2004TIP3    H1 5976   4.335   6.655   4.897  0.2788 -0.1803 -0.7800
 2004TIP3    H2 5977   4.325   6.505   4.920 -0.0347 -0.1140 -0.4787
 2005TIP3   OH2 5978   0.804   4.378   2.170  0.1024  0.0873 -0.5152
 2005TIP3    H1 5979   0.852   4.314   2.223  1.0067  2.5743  1.8726
 2005TIP3    H2 5980   0.873   4.430   2.127 -0.4374  1.8315  0.6260
 2006TIP3   OH2 5981   0.150   4.327   4.828 -0.6395  0.5576 -0.2202
 2006TIP3    H1 5982   0.213   4.291   4.765  0.5550  4.7289 -1.7660
 2006TIP3    H2 5983   0.077   4.358   4.773 -1.1846  1.1948  0.8361
 2007TIP3   OH2 5984   3.878   2.709   5.203 -0.6881 -0.4992 -0.0527
 2007TIP3    H1 5985   3.796   2.707   5.153 -0.1860 -1.8689 -0.8863
 2007TIP3    H2 5986   3.852   2.687   5.292 -1.3819  0.3224 -0.0363
 2008TIP3   OH2 5987   2.416   3.503   1.582  0.1117  0.0263  0.2736
 2008TIP3    H1 5988   2.472   3.578   1.565  2.6654 -2.2608 -2.2975
 2008TIP3    H2 5989   2.364   3.493   1.502  0.1775 -1.2227  0.3700
 2009TIP3   OH2 5990   1.638   4.802   5.762  0.6199  0.0033 -0.1179
 2009TIP3    H1 5991   1.733   4.794   5.746  0.6600  0.8140 -0.3272
 2009TIP3    H2 5992   1.615   4.721   5.808  1.6850  0.4005  1.1813
 2010TIP3   OH2 5993   3.586   2.481   3.677 -0.2651  0.3677 -0.0440
 2010TIP3    H1 5994   3.492   2.479   3.694 -0.1016 -1.3445  0.8284
 2010TIP3    H2 5995   3.621   2.405   3.723  1.7573  1.7359  0.8383
 2011TIP3   OH2 5996   2.553   0.718   2.810  0.1856  0.0973  0.1013
 2011TIP3    H1 5997   2.528   0.810   2.797 -1.1903 -0.1690  0.7375
 2011TIP3    H2 5998   2.534   0.701   2.902 -1.5083 -1.3991 -0.4881
 2012TIP3   OH2 5999   4.751   6.749   1.651 -0.1053  0.1803 -0.1596
 2012TIP3    H1 6000   4.762   6.659   1.680  1.2945  0.0995 -0.8452
 2012TIP3    H2 6001   4.727   6.742   1.559  2.2610  0.4871 -0.8645
 2013TIP3   OH2 6002   6.827   2.692   1.950 -0.4572  0.0500  0.5871
 2013TIP3    H1 6003   6.905   2.638   1.959  0.7052  1.6007  0.3676
 2013TIP3    H2 6004   6.861   2.779   1.927 -2.3744  0.0489 -3.0203
 2014TIP3   OH2 6005   0.260   5.721   1.545  0.6133 -0.5405 -0.5232
 2014TIP3    H1 6006   0.201   5.796   1.539 -0.2568 -0.6705  3.3914
 2014TIP3    H2 6007   0.225   5.657   1.484 -1.0622  0.7859 -1.0159
 2015TIP3   OH2 6008   6.062   4.846   3.526  0.0609  0.3836 -0.1641
 2015TIP3    H1 6009   6.125   4.918   3.522 -0.2717  0.6493 -0.7431
 2015TIP3    H2 6010   5.982   4.886   3.562  0.5048 -0.1684  1.5181
 2016TIP3   OH2 6011   1.859   5.874   2.863 -0.1657  0.1527 -0.3369
 2016TIP3    H1 6012   1.904   5.892   2.780  1.8846 -1.1039  0.4306
 2016TIP3    H2 6013   1.867   5.956   2.912  0.8317  0.1400 -0.4497
 2017TIP3   OH2 6014   6.989   4.034   3.603  0.2412  0.0633  0.6124
 2017TIP3    H1 6015   7.056   4.012   3.537  0.4144 -0.0182  0.8137
 2017TIP3    H2 6016   6.938   3.953   3.612 -0.7865  0.5516 -0.5834
 2018TIP3   OH2 6017   4.357   1.919   0.093  0.5319  0.2168  0.1144
 2018TIP3    H1 6018   4.276   1.919   0.040  2.2855  0.6815 -2.8038
 2018TIP3    H2 6019   4.365   2.010   0.124  0.0803  0.2305  0.1991
 2019TIP3   OH2 6020   4.034   3.630   0.621  0.8150  0.0843  0.4802
 2019TIP3    H1 6021   4.120   3.670   0.624 -0.1567  2.2737  1.5747
 2019TIP3    H2 6022   3.977   3.691   0.669 -0.9098 -2.3870  1.8135
 2020TIP3   OH2 6023   1.186   3.503   1.526  0.0491 -0.0849  0.6262
 2020TIP3    H1 6024   1.115   3.529   1.585  0.2552  2.8304 -0.2498
 2020TIP3    H2 6025   1.263   3.548   1.561  0.7860 -0.6522 -0.2390
 2021TIP3   OH2 6026   3.222   2.260   2.202 -0.0355 -0.1742  0.7915
 2021TIP3    H1 6027   3.188   2.171   2.213  0.5093 -0.2789  1.7314
 2021TIP3    H2 6028   3.143   2.315   2.195 -0.3878 -0.8628 -1.2367
 2022TIP3   OH2 6029   5.932   2.756   5.582 -0.5253 -0.3247 -0.2508
 2022TIP3    H1 6030   5.979   2.718   5.507  0.6130 -1.2093  0.8684
 2022TIP3    H2 6031   5.861   2.695   5.600  0.9666 -1.7263  1.1942
 2023TIP3   OH2 6032   6.499   4.904   4.780  0.2610  0.1196 -0.3063
 2023TIP3    H1 6033   6.489   4.886   4.874  2.4399  2.2294  0.4262
 2023TIP3    H2 6034   6.574   4.850   4.754 -0.4174 -0.5558 -0.9076
 2024TIP3   OH2 6035   6.997   5.975   3.640  0.3726  0.0969 -0.1487
 2024TIP3    H1 6036   7.039   5.891   3.619 -0.6756 -0.2564 -0.8906
 2024TIP3    H2 6037   6.995   6.022   3.557 -2.1126 -0.5437 -0.5255
 2025TIP3   OH2 6038   3.965   1.387   5.335 -0.3013 -0.5730 -0.2277
 2025TIP3    H1 6039   3.916   1.467   5.356  0.6044 -0.3561  1.1230
 2025TIP3    H2 6040   4.029   1.414   5.270  0.3768 -0.0694  0.6456
 2026TIP3   OH2 6041   2.481   2.860   0.722 -0.8629 -0.2758 -0.4597
 2026TIP3    H1 6042   2.470   2.933   0.660 -0.1292 -0.2425 -0.5564
 2026TIP3    H2 6043   2.422   2.792   0.689 -0.7996 -0.0980 -0.9483
 2027TIP3   OH2 6044   6.026   6.125   2.038 -0.1436 -0.2772 -0.0730
 2027TIP3    H1 6045   6.029   6.106   1.944 -1.9184 -0.3474 -0.1568
 2027TIP3    H2 6046   5.944   6.085   2.067 -0.5209  1.2744  1.1390
 2028TIP3   OH2 6047   1.658   2.151   4.243  0.3057  0.1231  0.5767
 2028TIP3    H1 6048   1.721   2.209   4.286  0.2031  2.7209 -2.3705
 2028TIP3    H2 6049   1.579   2.204   4.234  0.2985 -0.2440 -2.5406
 2029TIP3   OH2 6050   6.265   6.015   5.027  0.8580  0.2975 -0.3490
 2029TIP3    H1 6051   6.209   6.060   4.964  2.5094  1.4978 -1.0345
 2029TIP3    H2 6052   6.331   5.972   4.973  1.0302 -0.4996  0.4757
 2030TIP3   OH2 6053   6.715   4.371   0.373  0.3521  0.2336 -0.6521
 2030TIP3    H1 6054   6.796   4.333   0.408  0.2815  0.3987 -0.3015
 2030TIP3    H2 6055   6.675   4.414   0.448  0.2772  0.7338 -0.9763
 2031TIP3   OH2 6056   0.038   5.865   0.260 -0.4916 -0.0657  0.2278
 2031TIP3    H1 6057  -0.014   5.945   0.262 -0.9012 -0.2650 -1.3030
 2031TIP3    H2 6058  -0.017   5.799   0.302 -0.7685  0.1174  0.1550
 2032TIP3   OH2 6059   3.985   4.403   0.942 -0.2045 -0.5010 -1.1618
 2032TIP3    H1 6060   4.074   4.387   0.972 -0.2633  0.6662 -0.2748
 2032TIP3    H2 6061   3.993   4.475   0.879 -0.6777  0.7875  0.1979
 2033TIP3   OH2 6062   4.409   3.353   3.320 -0.1944 -0.3498 -0.3404
 2033TIP3    H1 6063   4.479   3.378   3.260  0.7619 -0.2825  0.7581
 2033TIP3    H2 6064   4.378   3.436   3.356 -0.8958 -0.3764 -0.8707
 2034TIP3   OH2 6065   6.373   5.356   1.318  0.0997  0.0429  0.4988
 2034TIP3    H1 6066   6.422   5.432   1.287 -2.3702  2.5219  2.1503
 2034TIP3    H2 6067   6.305   5.342   1.253 -0.5553  0.4456  1.0846
 2035TIP3   OH2 6068   3.264   4.055   4.780  0.0222  0.1789 -0.4078
 2035TIP3    H1 6069   3.246   3.963   4.798 -0.7829  0.2383 -0.8545
 2035TIP3    H2 6070   3.221   4.102   4.852 -1.9802  0.3381 -1.6429
 2036TIP3   OH2 6071   6.734   4.944   5.581 -0.7146  0.1190  0.0578
 2036TIP3    H1 6072   6.804   4.951   5.516 -1.1681 -0.0567 -0.4590
 2036TIP3    H2 6073   6.777   4.957   5.665  0.4972 -2.9397  0.0353
 2037TIP3   OH2 6074   6.863   6.597   2.689 -0.4039 -0.8004  0.2364
 2037TIP3    H1 6075   6.769   6.609   2.705 -0.6567 -2.9342  0.6795
 2037TIP3    H2 6076   6.897   6.568   2.774  0.9391  1.1708  0.4265
 2038TIP3   OH2 6077   4.337   2.760   4.094  0.2105 -0.0492 -0.3037
 2038TIP3    H1 6078   4.245   2.748   4.069  0.4956  1.3555 -2.2440
 2038TIP3    H2 6079   4.382   2.775   4.011  1.6331  2.7157  0.8429
 2039TIP3   OH2 6080   2.463   0.461   2.688 -0.0873 -0.7808  0.6923
 2039TIP3    H1 6081   2.383   0.421   2.722  0.2237 -1.1646  0.9872
 2039TIP3    H2 6082   2.505   0.500   2.765  0.2479 -1.0047  0.6255
 2040TIP3   OH2 6083   2.719   2.489   3.684  0.1894 -0.2865  0.4135
 2040TIP3    H1 6084   2.715   2.419   3.750  2.5741 -0.4979  0.4324
 2040TIP3    H2 6085   2.774   2.452   3.615  0.8791  1.3054  0.0844
 2041TIP3   OH2 6086   5.072   5.164   0.174  0.0699 -0.3617 -0.1772
 2041TIP3    H1 6087   5.093   5.083   0.127  0.2730 -1.4250  1.6368
 2041TIP3    H2 6088   4.982   5.152   0.203  0.8196 -1.0732  2.1210
 2042TIP3   OH2 6089   0.106   1.664   2.148 -0.0033  0.2259 -0.1210
 2042TIP3    H1 6090   0.027   1.717   2.139  0.4543  0.6085 -2.4543
 2042TIP3    H2 6091   0.138   1.683   2.237 -1.3483  1.7252  0.0732
 2043TIP3   OH2 6092   4.921   1.431   0.393  0.2366 -0.0656 -0.0356
 2043TIP3    H1 6093   4.883   1.473   0.315  0.9753  1.6715  0.4793
 2043TIP3    H2 6094   4.847   1.421   0.453 -0.0888 -0.1354 -0.4439
 2044TIP3   OH2 6095   6.259   2.757   0.730 -0.6671 -0.6980 -0.9936
 2044TIP3    H1 6096   6.218   2.675   0.756 -0.6190 -0.0727  1.2961
 2044TIP3    H2 6097   6.351   2.747   0.754 -0.8913  0.4246  0.5425
 2045TIP3   OH2 6098   7.112   4.271   3.690  0.3246  0.2012 -0.0984
 2045TIP3    H1 6099   7.097   4.181   3.716  0.8974  0.0821 -0.1654
 2045TIP3    H2 6100   7.087   4.323   3.768 -1.5228  0.1185 -0.5800
 2046TIP3   OH2 6101   4.018   1.601   3.037  0.0518  1.3481 -0.3187
 2046TIP3    H1 6102   3.937   1.599   2.985 -0.8007  0.7871  0.9774
 2046TIP3    H2 6103   4.082   1.643   2.979 -1.0246  1.3596 -1.5660
 2047TIP3   OH2 6104   0.138   0.363   5.322  0.0761 -0.2299 -0.0340
 2047TIP3    H1 6105   0.221   0.363   5.275  0.3988 -0.5476  0.5312
 2047TIP3    H2 6106   0.116   0.270   5.332  1.3852 -0.3395  2.8274
 2048TIP3   OH2 6107   2.589   1.463   4.737  0.3489  0.3280 -0.0709
 2048TIP3    H1 6108   2.500   1.448   4.706  0.0724  0.7713  0.4987
 2048TIP3    H2 6109   2.644   1.447   4.660 -0.4379  3.2624 -1.3795
 2049TIP3   OH2 6110   5.062   2.399   3.789 -0.1172 -0.2447  0.4270
 2049TIP3    H1 6111   5.147   2.394   3.832  0.5663  0.9603 -0.7283
 2049TIP3    H2 6112   5.075   2.458   3.715 -2.0841  0.3872  0.5120
 2050TIP3   OH2 6113   5.679   3.428   2.258 -0.2371 -0.2893 -0.5305
 2050TIP3    H1 6114   5.660   3.388   2.173 -1.2432  0.5259 -0.7145
 2050TIP3    H2 6115   5.596   3.423   2.306 -0.7794  2.5170 -0.9875
 2051TIP3   OH2 6116   3.544   4.208   1.853 -0.2759 -0.3317 -0.0968
 2051TIP3    H1 6117   3.452   4.183   1.848 -0.6942  1.3317 -1.2785
 2051TIP3    H2 6118   3.591   4.124   1.846 -1.6579 -1.2131  0.6006
 2052TIP3   OH2 6119   6.164   6.321   0.359  0.3987 -0.9640  0.5398
 2052TIP3    H1 6120   6.078   6.332   0.398  1.4841 -1.9767  3.5276
 2052TIP3    H2 6121   6.224   6.366   0.419  2.2590 -3.1218  0.4641
 2053TIP3   OH2 6122   0.188   1.589   2.843  0.4362  0.7054  0.4365
 2053TIP3    H1 6123   0.194   1.496   2.824 -1.2392  0.1560  2.3291
 2053TIP3    H2 6124   0.119   1.621   2.785  1.2723  0.8837 -0.4872
 2054TIP3   OH2 6125   2.435   4.920   5.323  0.3497 -0.1746 -0.2426
 2054TIP3    H1 6126   2.422   4.914   5.228 -0.5376 -0.5014 -0.1050
 2054TIP3    H2 6127   2.527   4.946   5.332  0.1612  0.9371 -1.2169
 2055TIP3   OH2 6128   0.593   2.584   2.629  0.0517  0.4945 -0.1265
 2055TIP3    H1 6129   0.575   2.512   2.690  1.1984  2.6597  3.0300
 2055TIP3    H2 6130   0.689   2.585   2.622  0.2073  2.7692  1.4297
 2056TIP3   OH2 6131   0.932   5.468   4.550  0.5564  0.0505 -0.4428
 2056TIP3    H1 6132   0.880   5.409   4.605  1.2982 -0.8773 -0.7130
 2056TIP3    H2 6133   0.988   5.516   4.611 -0.7122  1.2049 -0.1259
 2057TIP3   OH2 6134   2.664   2.991   0.913 -0.7055  0.3021 -0.8745
 2057TIP3    H1 6135   2.681   3.083   0.932 -0.7979  0.3035 -0.8014
 2057TIP3    H2 6136   2.634   2.990   0.822 -1.2065  0.3977 -0.7075
 2058TIP3   OH2 6137   0.319   4.900   5.601  0.7114  0.5457 -0.0415
 2058TIP3    H1 6138   0.299   4.983   5.558 -0.0329 -0.2178 -1.2269
 2058TIP3    H2 6139   0.311   4.834   5.532 -0.7604 -0.7589  1.2821
 2059TIP3   OH2 6140   2.934   4.757   3.292  0.1454 -0.0918 -0.0524
 2059TIP3    H1 6141   3.009   4.706   3.325 -0.8225 -1.2297  0.4642
 2059TIP3    H2 6142   2.862   4.694   3.288 -0.8494  1.0273 -0.3549
 2060TIP3   OH2 6143   0.875   0.925   2.091 -0.0831  0.5591  0.4239
 2060TIP3    H1 6144   0.783   0.922   2.065  0.0282  0.6852  0.0093
 2060TIP3    H2 6145   0.877   0.885   2.178 -0.4038 -0.2174  0.0776
 2061TIP3   OH2 6146   2.827   2.739   4.958 -0.2198  0.3565  0.3797
 2061TIP3    H1 6147   2.816   2.773   5.046  0.8844 -0.1804  0.7510
 2061TIP3    H2 6148   2.922   2.746   4.941 -0.5541  1.6660 -1.2647
 2062TIP3   OH2 6149   4.274   6.414   4.058  0.4535 -0.3257  0.3419
 2062TIP3    H1 6150   4.228   6.469   4.122  3.1404  2.4502  0.1140
 2062TIP3    H2 6151   4.327   6.354   4.112 -1.4891 -1.9375  0.5860
 2063TIP3   OH2 6152   6.412   1.819   3.913 -0.2422 -0.8031 -0.2931
 2063TIP3    H1 6153   6.353   1.828   3.838 -2.6168  0.1293  1.5781
 2063TIP3    H2 6154   6.421   1.725   3.925 -2.7067 -1.0134  0.3234
 2064TIP3   OH2 6155   2.642   3.192   3.781  0.0982 -0.6747 -0.4676
 2064TIP3    H1 6156   2.715   3.177   3.721  0.7160 -0.9723  0.3404
 2064TIP3    H2 6157   2.658   3.132   3.854 -0.9485 -0.7290 -0.2684
 2065TIP3   OH2 6158   5.836   5.357   2.182 -0.1793  0.3061  0.3706
 2065TIP3    H1 6159   5.834   5.417   2.256 -1.0337 -1.2700  1.7105
 2065TIP3    H2 6160   5.899   5.290   2.207  0.3443  0.3320 -0.8300
 2066TIP3   OH2 6161   5.821   2.036   0.832  0.2457  0.4537 -0.2311
 2066TIP3    H1 6162   5.787   1.984   0.905  0.3035 -0.1373 -0.6170
 2066TIP3    H2 6163   5.762   2.017   0.760 -0.6465  2.1189  0.0095
 2067TIP3   OH2 6164   5.026   2.627   2.918 -0.2605 -0.3203 -0.4890
 2067TIP3    H1 6165   4.933   2.635   2.896  0.3490  0.8885 -3.0658
 2067TIP3    H2 6166   5.038   2.682   2.995 -1.1858  1.9141 -1.8631
 2068TIP3   OH2 6167   5.620   6.414   0.312  0.2059 -0.2647  0.1948
 2068TIP3    H1 6168   5.621   6.346   0.245  2.4163  0.7577 -0.9220
 2068TIP3    H2 6169   5.573   6.487   0.272 -0.8119 -0.5578  0.8125
 2069TIP3   OH2 6170   4.899   2.204   4.141 -0.5286  0.2164 -0.1474
 2069TIP3    H1 6171   4.941   2.281   4.180  1.0785 -1.2446  1.2019
 2069TIP3    H2 6172   4.945   2.192   4.058  0.2628 -0.1291  0.3317
 2070TIP3   OH2 6173   4.581   1.642   5.330 -0.0348 -0.3433 -0.3535
 2070TIP3    H1 6174   4.651   1.582   5.354 -0.5532  0.1380  2.8947
 2070TIP3    H2 6175   4.501   1.592   5.342 -0.3857 -0.5259 -2.8854
 2071TIP3   OH2 6176   1.416   3.526   0.658 -0.2760  0.1451 -0.2024
 2071TIP3    H1 6177   1.424   3.431   0.648 -0.5730 -0.1227  1.6330
 2071TIP3    H2 6178   1.436   3.542   0.750 -0.4769  1.8417 -0.4175
 2072TIP3   OH2 6179   1.273   4.222   2.804 -0.1245  0.3740 -0.5651
 2072TIP3    H1 6180   1.296   4.276   2.880 -0.6860  1.0239 -0.8538
 2072TIP3    H2 6181   1.333   4.250   2.735 -1.3985  1.7131 -1.1666
 2073TIP3   OH2 6182   1.165   1.702   0.163 -0.5151 -0.4534  0.3558
 2073TIP3    H1 6183   1.189   1.678   0.073  1.2721 -1.1221  0.9720
 2073TIP3    H2 6184   1.104   1.633   0.190 -0.9196 -0.3510 -0.2671
 2074TIP3   OH2 6185   3.078   5.025   1.025  0.4193 -0.7118  0.2496
 2074TIP3    H1 6186   3.099   5.118   1.016 -0.2634 -0.4511  1.2317
 2074TIP3    H2 6187   3.065   4.995   0.935 -1.1747  0.5850  0.0005
 2075TIP3   OH2 6188   3.455   2.833   1.645  0.0513  0.0327 -0.3398
 2075TIP3    H1 6189   3.383   2.778   1.678  1.3854 -0.1141  2.5612
 2075TIP3    H2 6190   3.448   2.914   1.694  1.9034 -0.0348  0.1144
 2076TIP3   OH2 6191   4.344   5.044   0.381 -0.1167 -0.0985 -0.4012
 2076TIP3    H1 6192   4.400   5.090   0.443 -1.9753  0.8219  0.6699
 2076TIP3    H2 6193   4.362   4.951   0.396 -1.8002 -0.0222  2.9209
 2077TIP3   OH2 6194   4.461   0.240   1.162  0.1465  0.3229  0.0573
 2077TIP3    H1 6195   4.483   0.150   1.183 -0.7717  0.1154  0.1946
 2077TIP3    H2 6196   4.422   0.235   1.074  2.0600  0.8935 -0.8763
 2078TIP3   OH2 6197   1.707   3.576   5.521 -0.3841  0.3908  0.1093
 2078TIP3    H1 6198   1.776   3.612   5.465 -0.0638 -1.4177 -0.7137
 2078TIP3    H2 6199   1.739   3.589   5.610  1.4157 -1.0975 -0.2625
 2079TIP3   OH2 6200   2.144   4.658   4.951  0.4049 -0.0062 -0.5053
 2079TIP3    H1 6201   2.234   4.676   4.925  0.0755  1.8359 -0.5175
 2079TIP3    H2 6202   2.091   4.699   4.882 -0.4347  1.1811  0.7777
 2080TIP3   OH2 6203   2.252   0.347   5.073  0.0009 -0.1463  0.2741
 2080TIP3    H1 6204   2.207   0.346   4.988  0.3526 -0.8726  0.0903
 2080TIP3    H2 6205   2.343   0.327   5.052  0.1575  0.0068  0.7929
 2081TIP3   OH2 6206   1.674   0.038   2.821 -0.2224  0.2010 -0.3077
 2081TIP3    H1 6207   1.590   0.084   2.820  0.6937  1.9596 -0.6624
 2081TIP3    H2 6208   1.737   0.105   2.847  1.1633 -0.9095 -0.7064
 2082TIP3   OH2 6209   0.125   3.609   1.737 -0.4625 -0.4048  0.1804
 2082TIP3    H1 6210   0.081   3.529   1.706  1.0323 -1.0314 -0.4181
 2082TIP3    H2 6211   0.095   3.677   1.677 -1.1076 -0.6680  0.1872
 2083TIP3   OH2 6212   6.638   5.884   5.348 -0.3681 -0.3906 -0.1513
 2083TIP3    H1 6213   6.620   5.930   5.431 -0.2579 -1.5718  0.5509
 2083TIP3    H2 6214   6.684   5.949   5.295  2.5023 -0.5186  1.9175
 2084TIP3   OH2 6215   4.897   6.047   1.793 -0.0091 -0.2767  0.1569
 2084TIP3    H1 6216   4.927   5.958   1.776  2.4400  0.4111  0.5001
 2084TIP3    H2 6217   4.884   6.085   1.706  2.6788  0.1393 -0.1459
 2085TIP3   OH2 6218   6.093   6.622   1.293 -0.4034 -0.5551 -0.3278
 2085TIP3    H1 6219   6.062   6.565   1.223 -0.0231 -1.7451  0.4499
 2085TIP3    H2 6220   6.150   6.685   1.248 -0.0203 -1.4096 -1.0787
 2086TIP3   OH2 6221   7.013   6.347   1.805  0.6664 -0.0916 -0.2840
 2086TIP3    H1 6222   6.941   6.283   1.801 -0.1910  0.7653  0.8318
 2086TIP3    H2 6223   6.979   6.423   1.756  0.5815  0.5105  0.6824
 2087TIP3   OH2 6224   1.772   2.908   2.082  0.3927 -0.3579  0.0864
 2087TIP3    H1 6225   1.859   2.891   2.046  0.4960  1.6032 -0.7199
 2087TIP3    H2 6226   1.712   2.886   2.012  0.4690  1.3575 -0.5705
 2088TIP3   OH2 6227   1.426   6.400   3.251 -0.3613  0.0741  0.2254
 2088TIP3    H1 6228   1.353   6.345   3.279 -0.0712 -0.1701  0.5176
 2088TIP3    H2 6229   1.484   6.403   3.327  0.2397 -0.2572 -0.2018
 2089TIP3   OH2 6230   1.643   1.887   3.729  0.3019  0.1245  0.0061
 2089TIP3    H1 6231   1.691   1.924   3.655 -1.2562  0.6958 -0.7637
 2089TIP3    H2 6232   1.585   1.957   3.758  1.8950  0.4432  2.7886
 2090TIP3   OH2 6233   6.766   1.309   5.179 -0.6451  0.2412 -0.0903
 2090TIP3    H1 6234   6.718   1.227   5.194  0.1871 -0.2715 -0.1241
 2090TIP3    H2 6235   6.745   1.363   5.255 -2.0697  0.4368 -0.5942
 2091TIP3   OH2 6236   3.457   4.536   1.754  0.0323  0.0348 -0.0002
 2091TIP3    H1 6237   3.457   4.630   1.736  2.0020  0.1869  0.6166
 2091TIP3    H2 6238   3.441   4.530   1.848 -1.4197 -0.3488 -0.2424
 2092TIP3   OH2 6239   1.370   0.289   1.353  0.4711 -0.4878  0.1251
 2092TIP3    H1 6240   1.377   0.286   1.449 -1.5562  2.1283  0.4654
 2092TIP3    H2 6241   1.282   0.255   1.335  0.8460 -0.9930 -0.8582
 2093TIP3   OH2 6242   7.116   1.541   4.152  0.9185 -0.2555  0.1769
 2093TIP3    H1 6243   7.052   1.472   4.138  1.4760 -1.2882  2.3162
 2093TIP3    H2 6244   7.067   1.622   4.141 -0.0647 -0.9895 -1.0152
 2094TIP3   OH2 6245   6.681   1.367   0.675 -0.1207  0.4198  0.0117
 2094TIP3    H1 6246   6.655   1.396   0.587  0.9505  0.5808 -0.2578
 2094TIP3    H2 6247   6.761   1.318   0.662  1.3559  2.3841  1.1318
 2095TIP3   OH2 6248   1.630   3.559   3.854  0.3143  0.4552 -0.2807
 2095TIP3    H1 6249   1.606   3.483   3.802  0.3452  0.4512 -0.2893
 2095TIP3    H2 6250   1.702   3.600   3.806  2.3962 -1.2088  1.2403
 2096TIP3   OH2 6251   3.839   0.887   3.669  0.1480  0.5708  0.0552
 2096TIP3    H1 6252   3.794   0.857   3.590  0.2582 -0.6968  0.4614
 2096TIP3    H2 6253   3.857   0.807   3.719  0.0769  1.3487  1.3730
 2097TIP3   OH2 6254   1.617   2.076   0.817 -0.3819  0.0841  0.0648
 2097TIP3    H1 6255   1.593   2.129   0.893  1.3705 -0.5486  1.0996
 2097TIP3    H2 6256   1.575   1.991   0.832  2.0092 -0.8969  1.6836
 2098TIP3   OH2 6257   0.629   2.343   2.323  0.0290  0.4988  0.1736
 2098TIP3    H1 6258   0.612   2.324   2.415 -1.0252 -0.5835 -0.2202
 2098TIP3    H2 6259   0.623   2.258   2.279  2.0579  0.7275 -0.7042
 2099TIP3   OH2 6260   4.905   4.736   3.166  0.3539  0.3782  0.2629
 2099TIP3    H1 6261   4.863   4.810   3.211 -0.5256 -0.4993  0.9225
 2099TIP3    H2 6262   4.966   4.700   3.229 -0.4961 -0.5278  0.5968
 2100TIP3   OH2 6263   5.452   0.797   3.928 -0.5629 -0.5356  0.1697
 2100TIP3    H1 6264   5.444   0.793   3.833  1.9929 -0.8736 -0.0945
 2100TIP3    H2 6265   5.525   0.739   3.949 -1.3431 -0.8168  2.4150
 2101TIP3   OH2 6266   5.015   0.544   1.194 -0.1629 -0.8222  0.5047
 2101TIP3    H1 6267   4.931   0.502   1.216  0.2181 -1.3853  0.9252
 2101TIP3    H2 6268   4.992   0.633   1.170 -1.0949 -1.4927 -1.2362
 2102TIP3   OH2 6269   5.275   0.274   5.421  0.2138  0.5560  0.7652
 2102TIP3    H1 6270   5.312   0.198   5.466 -0.8392 -0.4892 -0.0559
 2102TIP3    H2 6271   5.340   0.296   5.354 -0.5262 -1.2508 -0.6552
 2103TIP3   OH2 6272   4.339   1.121   1.263 -0.0789 -0.4535  0.3288
 2103TIP3    H1 6273   4.386   1.197   1.298 -0.7200 -0.1764  0.6071
 2103TIP3    H2 6274   4.394   1.090   1.192  0.0387  0.4762 -0.0056
 2104TIP3   OH2 6275   6.818   3.678   4.332 -0.5982 -0.5808  0.1580
 2104TIP3    H1 6276   6.794   3.631   4.412 -1.5646  0.7064  0.6541
 2104TIP3    H2 6277   6.882   3.742   4.361 -0.6581 -0.3691 -0.1769
 2105TIP3   OH2 6278   3.495   3.267   5.733 -0.7743  0.0325  0.2881
 2105TIP3    H1 6279   3.528   3.343   5.687 -1.9326  0.0788 -0.5003
 2105TIP3    H2 6280   3.563   3.247   5.798  0.3190  0.7006 -0.6120
 2106TIP3   OH2 6281   6.009   5.890   3.769  0.0830 -0.2205 -0.3235
 2106TIP3    H1 6282   5.970   5.903   3.683 -0.4178 -0.9812 -0.2150
 2106TIP3    H2 6283   5.971   5.959   3.823 -0.6375 -0.5654 -0.3768
 2107TIP3   OH2 6284   3.484   4.116   3.473  0.2161  0.0439  0.6223
 2107TIP3    H1 6285   3.474   4.208   3.496 -0.9414  0.5549 -1.6259
 2107TIP3    H2 6286   3.445   4.068   3.546 -2.5126  1.5079  0.2788
 2108TIP3   OH2 6287   6.858   3.006   2.249 -0.5315  0.3190 -0.3321
 2108TIP3    H1 6288   6.797   2.935   2.269  0.4908 -1.2031 -2.2288
 2108TIP3    H2 6289   6.919   3.008   2.323 -0.9420 -0.3715  0.0240
 2109TIP3   OH2 6290   0.901   0.961   3.973 -0.0783  0.6029 -0.2245
 2109TIP3    H1 6291   0.913   1.052   4.000 -1.8071  0.7257  0.2537
 2109TIP3    H2 6292   0.817   0.960   3.927 -0.6492 -0.9297  0.7571
 2110TIP3   OH2 6293   6.016   6.430   3.154  0.3569  0.0825 -0.1270
 2110TIP3    H1 6294   5.945   6.382   3.195  0.8238  1.4170  2.4426
 2110TIP3    H2 6295   6.092   6.372   3.162  0.3343  0.1332  0.4624
 2111TIP3   OH2 6296   3.691   5.822   4.877  0.0228  0.0791  0.1262
 2111TIP3    H1 6297   3.647   5.797   4.958 -1.6937  0.5967 -0.6059
 2111TIP3    H2 6298   3.670   5.915   4.865 -0.0740 -0.0791 -1.1069
 2112TIP3   OH2 6299   5.752   3.412   4.803  0.1141 -0.2370  0.0875
 2112TIP3    H1 6300   5.799   3.472   4.746  0.9820  0.3662  1.3805
 2112TIP3    H2 6301   5.805   3.332   4.803  1.0859  0.3687  1.3747
 2113TIP3   OH2 6302   0.003   3.216   1.601 -0.0103  0.5905  0.1566
 2113TIP3    H1 6303  -0.052   3.287   1.632  0.7763  1.9260 -1.3192
 2113TIP3    H2 6304   0.092   3.241   1.626  0.3077  0.2636 -0.5846
 2114TIP3   OH2 6305   4.187   6.552   4.266 -0.3376  0.0432 -0.3656
 2114TIP3    H1 6306   4.120   6.509   4.319  1.0103 -2.1756 -0.3200
 2114TIP3    H2 6307   4.256   6.574   4.328 -0.3363  0.8560 -0.6454
 2115TIP3   OH2 6308   0.414   5.564   0.372  0.2468  0.3872 -0.4707
 2115TIP3    H1 6309   0.466   5.631   0.328 -0.5240  2.9980  2.2918
 2115TIP3    H2 6310   0.474   5.524   0.435  0.4424 -0.9771 -1.4603
 2116TIP3   OH2 6311   1.569   3.832   1.898  0.7339 -0.0720 -0.1610
 2116TIP3    H1 6312   1.558   3.750   1.947 -0.3798 -1.0049 -1.8813
 2116TIP3    H2 6313   1.572   3.900   1.966 -1.6003 -1.2054  1.2148
 2117TIP3   OH2 6314   3.144   1.852   1.094  0.2223 -0.0895  0.6184
 2117TIP3    H1 6315   3.076   1.918   1.102 -0.0934 -0.3629  0.2268
 2117TIP3    H2 6316   3.100   1.776   1.056  0.0472 -1.3278  3.0707
 2118TIP3   OH2 6317   3.475   1.628   0.950  0.0071 -0.3536  0.0645
 2118TIP3    H1 6318   3.416   1.654   0.878  1.3520 -0.1816 -1.0103
 2118TIP3    H2 6319   3.417   1.620   1.026 -1.3715  0.0341 -0.8990
 2119TIP3   OH2 6320   6.197   3.141   1.362  0.6809  0.7449  0.4586
 2119TIP3    H1 6321   6.233   3.078   1.426  3.3258  0.5666 -1.0404
 2119TIP3    H2 6322   6.138   3.089   1.308  1.7466 -0.1771  0.1326
 2120TIP3   OH2 6323   5.549   0.271   3.296  0.1438 -0.0484  0.2159
 2120TIP3    H1 6324   5.540   0.358   3.258  2.2074 -0.6332 -1.8741
 2120TIP3    H2 6325   5.636   0.270   3.334 -0.9895 -0.2926  3.0165
 2121TIP3   OH2 6326   4.022   0.250   2.660  0.6802 -0.0638  0.2016
 2121TIP3    H1 6327   4.049   0.218   2.745 -1.6620 -0.7311  0.7715
 2121TIP3    H2 6328   3.931   0.278   2.673  1.3546  3.2428 -1.2066
 2122TIP3   OH2 6329   0.174   6.026   1.843 -0.0471  0.0967  0.3641
 2122TIP3    H1 6330   0.190   6.016   1.937  1.2115 -0.1289  0.1382
 2122TIP3    H2 6331   0.207   6.113   1.822  0.4182 -0.1723 -0.0209
 2123TIP3   OH2 6332   6.249   4.963   0.213  0.4876 -0.0072 -0.1511
 2123TIP3    H1 6333   6.250   4.914   0.131 -1.4976  0.3109 -0.4303
 2123TIP3    H2 6334   6.245   5.055   0.185  0.8684  0.1558  0.3205
 2124TIP3   OH2 6335   0.164   3.206   3.371 -0.6182 -0.2833 -0.3723
 2124TIP3    H1 6336   0.124   3.284   3.334 -0.2699  0.3751  0.6039
 2124TIP3    H2 6337   0.172   3.146   3.297 -0.3321  0.8278 -1.2749
 2125TIP3   OH2 6338   2.127   3.596   5.022  0.5285  0.1417  0.5092
 2125TIP3    H1 6339   2.070   3.619   5.095  0.2449 -1.2131  0.7474
 2125TIP3    H2 6340   2.131   3.500   5.024  1.6677  0.1458 -0.3812
 2126TIP3   OH2 6341   6.174   1.357   0.988 -0.0221 -0.3159  0.4612
 2126TIP3    H1 6342   6.256   1.315   1.014  1.0312  1.3618 -0.0365
 2126TIP3    H2 6343   6.194   1.450   0.986 -1.8929  0.1127  0.1096
 2127TIP3   OH2 6344   6.929   2.398   1.589 -0.3674  0.3439  0.6503
 2127TIP3    H1 6345   6.870   2.325   1.571  1.3537 -0.8263 -0.5817
 2127TIP3    H2 6346   6.879   2.476   1.567 -0.7004 -0.7078 -2.9066
 2128TIP3   OH2 6347   6.718   0.162   2.876  0.0700 -0.5083  0.2150
 2128TIP3    H1 6348   6.643   0.117   2.836  0.0232 -0.3509  0.1281
 2128TIP3    H2 6349   6.769   0.195   2.802 -0.4231  0.4595  0.2891
 2129TIP3   OH2 6350   1.427   1.158   4.899 -0.1644 -0.4950 -0.2939
 2129TIP3    H1 6351   1.467   1.115   4.823 -0.1799  0.5449 -0.9000
 2129TIP3    H2 6352   1.490   1.145   4.970  1.4897  1.4350 -1.3165
 2130TIP3   OH2 6353   4.609   3.339   5.233  0.6623 -0.2326 -0.0738
 2130TIP3    H1 6354   4.693   3.369   5.199  1.6705 -1.0174  1.6027
 2130TIP3    H2 6355   4.572   3.415   5.277  1.6723 -0.4997  1.3016
 2131TIP3   OH2 6356   2.894   5.950   3.997 -0.4420  0.3814 -0.6449
 2131TIP3    H1 6357   2.921   6.035   4.033 -0.1492  0.0988 -0.1797
 2131TIP3    H2 6358   2.801   5.961   3.977 -0.5108  0.6812 -0.1907
 2132TIP3   OH2 6359   0.359   2.910   4.470  0.2891 -0.8485  0.3893
 2132TIP3    H1 6360   0.391   2.973   4.535 -0.8329 -0.2644  0.4045
 2132TIP3    H2 6361   0.387   2.946   4.386  1.5329 -1.4795  0.5102
 2133TIP3   OH2 6362   0.055   5.225   5.432  0.2770 -0.0341  0.1600
 2133TIP3    H1 6363  -0.006   5.158   5.463  0.1890  0.7197  1.7116
 2133TIP3    H2 6364   0.035   5.233   5.339 -1.4557 -0.3875  0.4527
 2134TIP3   OH2 6365   3.439   3.891   1.776  0.0265  0.1140 -0.4764
 2134TIP3    H1 6366   3.456   3.949   1.702  0.5834 -1.1441 -1.3695
 2134TIP3    H2 6367   3.516   3.899   1.832  1.1059 -1.3497 -1.6875
 2135TIP3   OH2 6368   4.955   5.231   4.348  0.0719  0.3293  0.5239
 2135TIP3    H1 6369   5.041   5.190   4.349 -0.1705 -0.2007  1.8426
 2135TIP3    H2 6370   4.894   5.159   4.363 -0.6569  0.6373 -0.7514
 2136TIP3   OH2 6371   1.707   0.664   1.147 -0.7391 -0.9000 -0.0147
 2136TIP3    H1 6372   1.802   0.660   1.160  0.0615  1.8607 -3.4734
 2136TIP3    H2 6373   1.674   0.708   1.225  1.1405  0.1017  0.2743
 2137TIP3   OH2 6374   2.254   6.600   4.294 -0.4206 -0.4740 -0.9069
 2137TIP3    H1 6375   2.162   6.628   4.294 -0.5960 -1.0420 -0.9632
 2137TIP3    H2 6376   2.282   6.611   4.385 -0.3976  0.1586 -0.9833
 2138TIP3   OH2 6377   6.080   0.399   3.641 -0.1810 -0.3248  0.1569
 2138TIP3    H1 6378   6.053   0.474   3.695  1.2638 -0.0272  0.5004
 2138TIP3    H2 6379   6.019   0.329   3.665 -1.5450  0.7211 -0.1592
 2139TIP3   OH2 6380   4.755   4.754   4.117 -0.1244  0.3299 -0.2249
 2139TIP3    H1 6381   4.777   4.752   4.024  0.9381 -1.2561  0.0191
 2139TIP3    H2 6382   4.789   4.671   4.151 -1.4363  0.4013  1.3722
 2140TIP3   OH2 6383   1.771   2.618   5.045 -0.6232  0.0572  0.0177
 2140TIP3    H1 6384   1.852   2.619   5.096  0.1107 -0.3054 -1.1180
 2140TIP3    H2 6385   1.762   2.528   5.015 -0.3049  0.5352 -1.6184
 2141TIP3   OH2 6386   2.212   2.681   3.556  0.3901  0.1600 -0.3060
 2141TIP3    H1 6387   2.151   2.749   3.525  0.6697  0.4209 -0.2814
 2141TIP3    H2 6388   2.288   2.689   3.498 -0.2634 -1.2550 -1.4194
 2142TIP3   OH2 6389   0.670   6.756   3.119 -0.0680 -0.1147  0.4736
 2142TIP3    H1 6390   0.668   6.839   3.168 -0.1188  0.2572 -0.1415
 2142TIP3    H2 6391   0.762   6.745   3.095 -0.2273  0.3681 -0.4267
 2143TIP3   OH2 6392   1.670   1.141   4.473 -0.0965 -0.0715 -0.5197
 2143TIP3    H1 6393   1.605   1.205   4.443  0.2163  0.6489  0.3079
 2143TIP3    H2 6394   1.748   1.193   4.491 -0.3613 -0.3913  1.8922
 2144TIP3   OH2 6395   1.571   3.086   3.320 -0.9075 -0.5000 -0.1977
 2144TIP3    H1 6396   1.564   3.182   3.320 -1.0825 -0.5122 -0.1593
 2144TIP3    H2 6397   1.510   3.057   3.388 -1.4920 -0.6765 -0.7830
 2145TIP3   OH2 6398   7.131   4.931   5.843  0.0155  0.2181  0.3792
 2145TIP3    H1 6399   7.074   4.999   5.806 -0.3374 -0.0958  0.3438
 2145TIP3    H2 6400   7.079   4.851   5.838  0.9154 -0.3282 -0.8171
 2146TIP3   OH2 6401   3.354   1.795   3.201  0.3653 -0.0349  0.0933
 2146TIP3    H1 6402   3.295   1.867   3.224  0.1137  0.1199 -1.0100
 2146TIP3    H2 6403   3.395   1.772   3.284 -0.7825  0.2708  0.7807
 2147TIP3   OH2 6404   0.859   1.102   2.922 -0.8038 -0.7628 -0.3422
 2147TIP3    H1 6405   0.790   1.169   2.923 -0.4868 -0.4233 -0.9741
 2147TIP3    H2 6406   0.815   1.023   2.953 -1.5775 -0.6403 -1.0947
 2148TIP3   OH2 6407   3.084   4.609   1.161 -0.0786 -0.2070  0.4034
 2148TIP3    H1 6408   3.174   4.631   1.137 -0.6430  0.4053 -1.2982
 2148TIP3    H2 6409   3.044   4.693   1.183 -1.1103  0.0359 -2.0961
 2149TIP3   OH2 6410   6.185   2.328   3.448  0.0808  0.0613  0.0730
 2149TIP3    H1 6411   6.202   2.361   3.360 -0.9774  1.0600  0.2105
 2149TIP3    H2 6412   6.109   2.271   3.438  0.7670 -0.8863  0.1415
 2150TIP3   OH2 6413   6.938   0.293   1.690  0.0174 -0.0139 -0.0822
 2150TIP3    H1 6414   6.889   0.323   1.767 -0.1203  1.5862 -0.7563
 2150TIP3    H2 6415   6.886   0.323   1.615  0.6817 -0.6216 -0.7986
 2151TIP3   OH2 6416   3.608   0.541   2.094  0.1829  0.2254 -0.0177
 2151TIP3    H1 6417   3.608   0.623   2.044 -0.1732 -0.6096 -1.4559
 2151TIP3    H2 6418   3.599   0.473   2.027  0.6327 -1.0024  1.1328
 2152TIP3   OH2 6419   0.677   1.173   4.348  0.8761 -0.0434  0.4255
 2152TIP3    H1 6420   0.698   1.223   4.427 -0.0006  1.5943 -0.3134
 2152TIP3    H2 6421   0.674   1.239   4.279 -0.6543 -1.0845 -0.5553
 2153TIP3   OH2 6422   6.863   6.623   0.989  0.1009 -0.7112  0.4181
 2153TIP3    H1 6423   6.933   6.583   0.937  0.7680  1.8560 -0.8521
 2153TIP3    H2 6424   6.885   6.716   0.989 -1.7117 -0.2193  2.5933
 2154TIP3   OH2 6425   3.846   1.367   4.538 -0.0102 -0.3074  0.1158
 2154TIP3    H1 6426   3.758   1.393   4.563  0.5125  1.4267  0.2775
 2154TIP3    H2 6427   3.875   1.309   4.609 -0.5757  0.0777  0.6733
 2155TIP3   OH2 6428   4.210   3.048   3.923  0.6335  0.4718  0.4131
 2155TIP3    H1 6429   4.197   2.993   3.846 -2.0784  0.3773  0.8221
 2155TIP3    H2 6430   4.268   3.119   3.894  1.3415 -0.6833 -1.0844
 2156TIP3   OH2 6431   1.744   6.583   4.437  0.2901 -1.0639  0.7973
 2156TIP3    H1 6432   1.821   6.633   4.408 -0.2859 -0.4636  0.2838
 2156TIP3    H2 6433   1.777   6.529   4.509  1.1418 -0.6409  0.7407
 2157TIP3   OH2 6434   1.597   4.127   2.309  0.2205  0.0894 -0.1369
 2157TIP3    H1 6435   1.512   4.161   2.335 -1.1598 -2.3181 -1.1247
 2157TIP3    H2 6436   1.627   4.187   2.240 -0.9007  0.6964 -0.1129
 2158TIP3   OH2 6437   6.060   2.939   3.815 -0.4675  0.1273  0.0621
 2158TIP3    H1 6438   6.050   2.956   3.909 -1.2123  1.6137 -0.2516
 2158TIP3    H2 6439   5.971   2.928   3.783 -0.5779  3.2598 -1.0390
 2159TIP3   OH2 6440   4.970   3.191   4.465 -0.2121 -0.0339 -0.3968
 2159TIP3    H1 6441   4.993   3.105   4.501 -0.1302  0.6807  1.3975
 2159TIP3    H2 6442   4.874   3.193   4.467 -0.2381 -0.3248 -1.0902
 2160TIP3   OH2 6443   4.709   3.293   4.507 -0.0926 -0.0958 -0.4715
 2160TIP3    H1 6444   4.724   3.368   4.565 -0.0912 -0.5221  0.0922
 2160TIP3    H2 6445   4.631   3.251   4.542 -0.1000 -0.3498 -0.7902
 2161TIP3   OH2 6446   6.665   1.061   5.254 -0.8099  0.3190  0.0635
 2161TIP3    H1 6447   6.733   1.006   5.293 -0.2399 -0.3868 -1.8125
 2161TIP3    H2 6448   6.585   1.035   5.299 -0.5615 -2.1217 -0.7476
 2162TIP3   OH2 6449   4.906   5.240   3.189  0.1393 -0.1210  0.4320
 2162TIP3    H1 6450   4.875   5.325   3.220 -0.9990 -0.0409 -0.8247
 2162TIP3    H2 6451   4.878   5.236   3.098  1.7558 -1.0995 -0.0737
 2163TIP3   OH2 6452   6.528   6.143   1.057  0.8725 -0.4741  0.0483
 2163TIP3    H1 6453   6.586   6.111   0.988  2.1714  2.3833 -0.3665
 2163TIP3    H2 6454   6.588   6.171   1.126  0.0359  1.8472 -0.0643
 2164TIP3   OH2 6455   4.468   6.392   4.290 -0.1948  0.1459  0.6487
 2164TIP3    H1 6456   4.438   6.441   4.366 -0.0529 -0.4654  1.1062
 2164TIP3    H2 6457   4.464   6.301   4.317  0.2059 -0.0577  0.0434
 2165TIP3   OH2 6458   3.337   1.889   1.277  0.1652  0.2279 -0.2427
 2165TIP3    H1 6459   3.395   1.813   1.273 -0.2290 -0.0842 -0.0380
 2165TIP3    H2 6460   3.273   1.874   1.206 -0.3282  0.0244  0.2387
 2166TIP3   OH2 6461   6.832   2.285   2.049 -0.4248  0.2191 -0.2163
 2166TIP3    H1 6462   6.737   2.273   2.056 -0.3282 -0.6005 -0.1234
 2166TIP3    H2 6463   6.865   2.273   2.138 -0.1982  0.1163 -0.3123
 2167TIP3   OH2 6464   4.482   5.351   3.059 -0.3604  0.3550 -0.2308
 2167TIP3    H1 6465   4.502   5.388   3.145 -1.2167 -0.0696  0.1710
 2167TIP3    H2 6466   4.562   5.305   3.033  0.1590  1.1206 -0.0096
 2168TIP3   OH2 6467   5.640   0.278   1.427  0.0220 -0.4866 -0.2359
 2168TIP3    H1 6468   5.572   0.233   1.477 -0.7669  0.1583 -0.7081
 2168TIP3    H2 6469   5.688   0.208   1.383 -0.7091 -0.9081 -0.3708
 2169TIP3   OH2 6470   2.754   0.279   1.521  0.2083 -0.1975  0.1599
 2169TIP3    H1 6471   2.724   0.292   1.611 -0.0782  1.3033 -0.1090
 2169TIP3    H2 6472   2.783   0.188   1.517 -1.9580 -1.0070  1.1308
 2170TIP3   OH2 6473   0.366   2.542   1.596 -0.1667  0.9809 -0.0782
 2170TIP3    H1 6474   0.397   2.470   1.541 -0.5616  1.9237 -1.5877
 2170TIP3    H2 6475   0.415   2.532   1.678  2.1501  0.8636 -1.4001
 2171TIP3   OH2 6476   2.432   0.533   3.671 -0.0413  0.8562 -0.1289
 2171TIP3    H1 6477   2.487   0.585   3.612  0.4309  0.4311 -0.0635
 2171TIP3    H2 6478   2.445   0.573   3.757 -0.0084  0.8904 -0.1499
 2172TIP3   OH2 6479   0.486   2.570   3.848  0.3185  0.3338 -0.4857
 2172TIP3    H1 6480   0.535   2.652   3.855 -0.8116  1.0311 -0.6013
 2172TIP3    H2 6481   0.513   2.533   3.764  1.9822 -0.1990  0.2353
 2173TIP3   OH2 6482   6.582   6.164   5.830 -0.1818 -0.3845 -0.1149
 2173TIP3    H1 6483   6.504   6.109   5.827 -1.1637  0.8031  1.6850
 2173TIP3    H2 6484   6.557   6.238   5.885  1.8225  0.7041 -0.5613
 2174TIP3   OH2 6485   2.803   4.949   3.417  0.4173 -0.1602 -0.4290
 2174TIP3    H1 6486   2.847   4.895   3.352  0.2716 -0.0838 -0.5933
 2174TIP3    H2 6487   2.743   4.889   3.462 -0.0107 -0.0600 -0.8595
 2175TIP3   OH2 6488   3.979   3.135   0.789 -0.1943  0.2726 -0.3751
 2175TIP3    H1 6489   3.912   3.137   0.858 -1.8997 -0.0925 -1.9277
 2175TIP3    H2 6490   3.940   3.081   0.720  2.0373 -0.5442 -1.0722
 2176TIP3   OH2 6491   0.359   5.918   4.624 -0.1569 -0.1440  0.0940
 2176TIP3    H1 6492   0.302   5.889   4.695 -1.1178  0.9152 -0.2364
 2176TIP3    H2 6493   0.416   5.984   4.664  0.1825 -0.4774  0.1756
 2177TIP3   OH2 6494   1.882   0.336   1.151  0.2458 -0.1347 -0.8536
 2177TIP3    H1 6495   1.791   0.364   1.163  0.1361 -1.4280  2.5326
 2177TIP3    H2 6496   1.875   0.245   1.123  0.3401 -1.0234  1.7304
 2178TIP3   OH2 6497   6.690   0.549   5.148  0.2619  0.1308  0.1455
 2178TIP3    H1 6498   6.766   0.606   5.142  0.9327 -0.5422  1.7622
 2178TIP3    H2 6499   6.629   0.597   5.205 -1.3147  1.4353 -2.4445
 2179TIP3   OH2 6500   1.948   0.784   5.716  0.2697 -0.1856  0.3316
 2179TIP3    H1 6501   1.964   0.706   5.769  0.2482  0.1994  0.9141
 2179TIP3    H2 6502   2.001   0.771   5.638  2.3533  0.3899  1.5635
 2180TIP3   OH2 6503   2.752   3.430   1.598 -0.4453 -0.1073  0.3580
 2180TIP3    H1 6504   2.718   3.493   1.535  0.0393  0.9545  1.1307
 2180TIP3    H2 6505   2.825   3.475   1.641 -0.3201 -1.0583  1.1949
 2181TIP3   OH2 6506   1.879   2.560   3.494  0.1445 -0.1262 -0.0287
 2181TIP3    H1 6507   1.811   2.492   3.504 -1.1566  0.9508 -1.0670
 2181TIP3    H2 6508   1.939   2.524   3.428  0.5792 -1.0813  0.8709
 2182TIP3   OH2 6509   4.735   6.371   3.888  0.1858 -0.0050  0.2068
 2182TIP3    H1 6510   4.815   6.321   3.867  0.8267  1.6626 -1.6540
 2182TIP3    H2 6511   4.668   6.304   3.899  1.0483 -1.3475 -1.9702
 2183TIP3   OH2 6512   1.399   6.280   2.338 -0.4982 -0.2681  0.7567
 2183TIP3    H1 6513   1.369   6.297   2.249  1.9097 -1.8527 -0.4903
 2183TIP3    H2 6514   1.350   6.202   2.366 -0.0060 -0.8356  0.0735
 2184TIP3   OH2 6515   2.550   2.491   2.982  0.6127  0.1283 -0.7174
 2184TIP3    H1 6516   2.463   2.530   2.971  0.6547  0.1158 -1.1070
 2184TIP3    H2 6517   2.611   2.562   2.964  0.6883 -0.0668 -1.2305
 2185TIP3   OH2 6518   5.340   0.096   3.967 -0.0569 -0.7301  0.3683
 2185TIP3    H1 6519   5.260   0.137   4.000  0.8761  0.5500  1.1396
 2185TIP3    H2 6520   5.310   0.037   3.899 -1.6186  0.1306  0.2559
 2186TIP3   OH2 6521   1.635   4.168   5.646  0.0292  0.4436  0.7712
 2186TIP3    H1 6522   1.729   4.155   5.637  0.4422  2.7702  0.9997
 2186TIP3    H2 6523   1.622   4.183   5.739 -0.5322  0.3527  0.7105
 2187TIP3   OH2 6524   0.933   0.728   0.905 -0.0925 -0.8176  0.1747
 2187TIP3    H1 6525   0.999   0.760   0.845 -1.9758  1.7593 -0.7241
 2187TIP3    H2 6526   0.857   0.708   0.850 -0.9470 -1.1358  1.4047
 2188TIP3   OH2 6527   2.293   2.842   4.766  0.5241  0.4616 -0.2373
 2188TIP3    H1 6528   2.217   2.900   4.768  0.0852 -0.0651  2.4501
 2188TIP3    H2 6529   2.365   2.896   4.799  0.5911  0.0991  0.2263
 2189TIP3   OH2 6530   1.921   0.255   0.679  0.3749 -0.4073  0.1235
 2189TIP3    H1 6531   1.895   0.269   0.588  0.0678 -1.3775  0.0467
 2189TIP3    H2 6532   1.969   0.334   0.703 -0.3371  0.2589 -0.5890
 2190TIP3   OH2 6533   2.322   3.821   4.538  0.1430  0.5840 -0.2083
 2190TIP3    H1 6534   2.352   3.894   4.485 -2.5605  0.6387 -1.8808
 2190TIP3    H2 6535   2.301   3.752   4.475 -1.3047 -0.0873  0.9262
 2191TIP3   OH2 6536   6.065   1.037   2.045  0.0085  0.6292 -0.2171
 2191TIP3    H1 6537   6.103   0.950   2.036 -1.2669 -0.0202  0.4679
 2191TIP3    H2 6538   6.107   1.075   2.122 -1.0429 -0.2830  0.8431
 2192TIP3   OH2 6539   4.813   4.746   4.487 -0.4508 -0.6178  0.2028
 2192TIP3    H1 6540   4.893   4.798   4.483 -0.4538 -0.6360 -0.0879
 2192TIP3    H2 6541   4.787   4.736   4.396 -0.5429 -0.9842  0.2704
 2193TIP3   OH2 6542   6.944   1.980   5.060  0.4162 -0.0628 -0.4997
 2193TIP3    H1 6543   6.894   2.029   5.126 -0.7438 -1.4345 -0.3165
 2193TIP3    H2 6544   7.025   1.957   5.105  0.4966  0.7175 -0.2213
 2194TIP3   OH2 6545   0.011   5.201   2.842  0.1508 -0.2737 -0.2124
 2194TIP3    H1 6546   0.075   5.224   2.910 -1.6190 -2.5741  2.4462
 2194TIP3    H2 6547  -0.041   5.281   2.830  1.4493  0.6336 -0.0437
 2195TIP3   OH2 6548   4.836   5.686   3.225 -0.0602 -0.5224  0.1219
 2195TIP3    H1 6549   4.808   5.654   3.311 -0.6240 -1.4458 -0.3854
 2195TIP3    H2 6550   4.775   5.756   3.204 -0.3265 -0.7299  0.1993
 2196TIP3   OH2 6551   7.244   5.913   1.517 -0.0680 -0.0482  0.2756
 2196TIP3    H1 6552   7.198   5.829   1.512  1.0055 -0.6373  0.0925
 2196TIP3    H2 6553   7.177   5.975   1.544 -0.8039 -1.0270  0.7481
 2197TIP3   OH2 6554   4.941   1.734   4.491 -0.7095  0.2416  0.1932
 2197TIP3    H1 6555   4.926   1.646   4.457  0.4212 -0.5847  1.7412
 2197TIP3    H2 6556   4.920   1.792   4.417 -2.1089 -1.2603 -0.6592
 2198TIP3   OH2 6557   3.511   2.339   2.671 -0.3784 -0.2052  0.4126
 2198TIP3    H1 6558   3.556   2.266   2.629 -0.7379 -0.6987  0.8679
 2198TIP3    H2 6559   3.469   2.387   2.599  1.2103  0.5254 -0.0751
 2199TIP3   OH2 6560   5.343   5.874   5.020 -0.2545  0.2670 -0.1850
 2199TIP3    H1 6561   5.278   5.941   4.998 -0.4708 -0.1309 -0.7749
 2199TIP3    H2 6562   5.418   5.893   4.964 -0.4711 -0.2284 -0.6389
 2200TIP3   OH2 6563   1.696   2.367   0.124 -0.8858  0.3555 -0.4332
 2200TIP3    H1 6564   1.605   2.360   0.154  0.0037  0.4977  2.6660
 2200TIP3    H2 6565   1.722   2.277   0.105 -2.0673  0.4620 -3.0166
 2201TIP3   OH2 6566   6.975   0.627   3.729 -0.3285  0.4983 -0.3552
 2201TIP3    H1 6567   6.964   0.590   3.642  3.2368 -2.9553  0.3284
 2201TIP3    H2 6568   7.065   0.659   3.730 -0.0699 -0.0676  2.1152
 2202TIP3   OH2 6569   6.525   5.414   4.326  0.0762  0.3746 -0.2336
 2202TIP3    H1 6570   6.459   5.367   4.377  0.9298  0.9444  1.4726
 2202TIP3    H2 6571   6.478   5.443   4.247 -1.6267  0.4784  0.7603
 2203TIP3   OH2 6572   5.791   3.252   0.587  0.0497  0.2822  0.4308
 2203TIP3    H1 6573   5.795   3.232   0.680 -0.2139 -2.3997 -0.0607
 2203TIP3    H2 6574   5.814   3.170   0.543  2.2408  1.9583 -1.9139
 2204TIP3   OH2 6575   3.527   2.121   3.057 -0.4030 -0.9757 -0.3715
 2204TIP3    H1 6576   3.570   2.206   3.050 -0.0306 -1.2821 -3.2715
 2204TIP3    H2 6577   3.586   2.067   3.109  0.3634 -0.0228 -0.2456
 2205TIP3   OH2 6578   4.183   0.703   2.388  0.4613  0.0366  0.1567
 2205TIP3    H1 6579   4.270   0.731   2.362  0.7887 -0.8406  0.2606
 2205TIP3    H2 6580   4.198   0.623   2.438 -0.2632  0.8074  1.6814
 2206TIP3   OH2 6581   4.122   6.807   2.768 -0.1560 -0.4254  0.1549
 2206TIP3    H1 6582   4.058   6.836   2.703 -0.0086 -1.5397 -0.5035
 2206TIP3    H2 6583   4.117   6.711   2.767  2.3965 -0.6369 -0.8403
 2207TIP3   OH2 6584   2.186   1.572   0.722  0.6194  0.4828 -0.3672
 2207TIP3    H1 6585   2.275   1.551   0.694  0.2122  0.6346 -1.9168
 2207TIP3    H2 6586   2.162   1.502   0.783  1.3490 -0.2810 -0.9361
 2208TIP3   OH2 6587   3.883   4.481   4.718 -0.3240 -0.1643  0.0676
 2208TIP3    H1 6588   3.919   4.557   4.762  0.8975  0.0105 -1.1421
 2208TIP3    H2 6589   3.809   4.514   4.667 -0.2525  0.0763  0.1225
 2209TIP3   OH2 6590   1.182   2.956   5.666 -0.2124  0.0726 -0.5336
 2209TIP3    H1 6591   1.277   2.970   5.657 -0.5819  2.6725 -1.1201
 2209TIP3    H2 6592   1.150   3.036   5.707 -2.1548 -0.8734 -0.0936
 2210TIP3   OH2 6593   5.766   4.259   4.978  0.5130  0.2066 -0.1571
 2210TIP3    H1 6594   5.675   4.235   4.960  0.5955  0.9642 -1.7880
 2210TIP3    H2 6595   5.816   4.184   4.946  0.5039  0.1807 -0.1108
 2211TIP3   OH2 6596   4.335   0.462   5.770  0.7149 -0.2553  0.7069
 2211TIP3    H1 6597   4.284   0.417   5.837  1.6099 -1.3130  0.7006
 2211TIP3    H2 6598   4.384   0.528   5.818 -2.5602  2.7157  0.4259
 2212TIP3   OH2 6599   2.683   0.686   5.486 -0.0188  0.3200  0.0987
 2212TIP3    H1 6600   2.765   0.653   5.523 -0.2239 -0.3787 -0.0658
 2212TIP3    H2 6601   2.667   0.767   5.534  0.2826 -0.0206  0.7849
 2213TIP3   OH2 6602   1.550   0.222   2.631 -0.5242  0.0431  0.7963
 2213TIP3    H1 6603   1.578   0.262   2.549 -1.9079  0.3346  0.4318
 2213TIP3    H2 6604   1.505   0.142   2.603  0.2401 -0.6110  1.3796
 2214TIP3   OH2 6605   0.887   4.239   0.196  0.2908 -0.1687  0.1751
 2214TIP3    H1 6606   0.958   4.210   0.253  1.4867  0.8268 -0.7848
 2214TIP3    H2 6607   0.818   4.174   0.211  2.0611 -2.2566 -0.2643
 2215TIP3   OH2 6608   0.774   1.156   1.597 -0.0424 -0.2626 -0.0812
 2215TIP3    H1 6609   0.849   1.155   1.537 -1.5639  2.0102 -2.2057
 2215TIP3    H2 6610   0.784   1.076   1.648  2.1466 -1.6371 -2.3890
 2216TIP3   OH2 6611   1.456   2.279   0.411 -0.3429 -0.2946 -0.1246
 2216TIP3    H1 6612   1.466   2.261   0.318  0.5071  0.2362 -0.1462
 2216TIP3    H2 6613   1.483   2.199   0.455  0.1791 -0.2209 -0.3104
 2217TIP3   OH2 6614   2.035   5.683   5.134  0.2177 -0.0251  0.0388
 2217TIP3    H1 6615   2.098   5.678   5.062  0.3484  2.0432 -0.0333
 2217TIP3    H2 6616   2.014   5.591   5.154  1.2563 -0.6733 -1.6693
 2218TIP3   OH2 6617   4.088   0.116   0.134  0.1251  0.9608  0.2797
 2218TIP3    H1 6618   4.014   0.082   0.083  0.9744  0.5678 -0.7451
 2218TIP3    H2 6619   4.117   0.042   0.186  0.8444  0.6153 -0.5940
 2219TIP3   OH2 6620   4.919   6.224   0.976 -0.5103 -0.2203  0.5238
 2219TIP3    H1 6621   5.013   6.234   0.991 -0.5470 -0.4840  0.9488
 2219TIP3    H2 6622   4.909   6.134   0.945 -0.4668  0.2250 -0.8870
 2220TIP3   OH2 6623   5.727   0.829   4.626  0.2921  0.5923  0.0503
 2220TIP3    H1 6624   5.802   0.786   4.667 -0.7989 -0.6214  0.8355
 2220TIP3    H2 6625   5.681   0.871   4.699 -0.5475  0.1267 -0.1951
 2221TIP3   OH2 6626   4.044   2.157   0.965 -0.5556 -0.3291  0.3162
 2221TIP3    H1 6627   3.983   2.147   1.038 -1.3043  0.6131 -0.1435
 2221TIP3    H2 6628   3.999   2.114   0.891 -1.0371  1.0064 -0.2046
 2222TIP3   OH2 6629   4.854   6.195   5.652  0.6645  0.2833 -0.0780
 2222TIP3    H1 6630   4.842   6.185   5.746 -0.2986  1.5574 -0.0450
 2222TIP3    H2 6631   4.941   6.235   5.643 -0.0272  1.9530  0.4035
 2223TIP3   OH2 6632   0.126   2.590   5.781 -0.2712  0.2930  0.4742
 2223TIP3    H1 6633   0.207   2.597   5.832 -0.3307  0.2998  0.5687
 2223TIP3    H2 6634   0.069   2.657   5.818 -0.6224 -0.2630  0.9676
 2224TIP3   OH2 6635   6.852   2.290   2.849 -1.0427  0.1296 -0.2807
 2224TIP3    H1 6636   6.925   2.235   2.819 -1.0103  0.1568 -0.2526
 2224TIP3    H2 6637   6.894   2.358   2.903 -1.1510 -0.2292  0.2688
 2225TIP3   OH2 6638   1.370   0.819   4.268  0.0893  0.2078  0.1251
 2225TIP3    H1 6639   1.295   0.841   4.324 -1.0539 -0.6890 -0.9971
 2225TIP3    H2 6640   1.441   0.802   4.330 -0.9144  0.0377  1.2887
 2226TIP3   OH2 6641   3.286   2.219   2.782 -0.3774 -0.5120 -0.1981
 2226TIP3    H1 6642   3.339   2.141   2.793 -0.0452 -0.2374  0.1861
 2226TIP3    H2 6643   3.343   2.281   2.737  0.1339  0.2714  1.4339
 2227TIP3   OH2 6644   1.677   4.660   5.319 -0.9678 -0.0040 -0.2363
 2227TIP3    H1 6645   1.683   4.753   5.341 -0.7044 -0.2484  0.7949
 2227TIP3    H2 6646   1.686   4.615   5.403  1.6740 -1.0509 -0.9804
 2228TIP3   OH2 6647   5.123   3.963   2.533 -0.0579 -0.2227 -0.8200
 2228TIP3    H1 6648   5.029   3.978   2.529 -0.0191 -0.0736 -1.2389
 2228TIP3    H2 6649   5.160   4.047   2.561 -0.0398 -0.2386 -0.7963
 2229TIP3   OH2 6650   0.980   0.664   0.225 -0.4295  0.1033  0.6813
 2229TIP3    H1 6651   1.027   0.685   0.144 -1.0891 -0.9298  0.0076
 2229TIP3    H2 6652   0.997   0.571   0.239 -3.1145 -0.6053 -0.2011
 2230TIP3   OH2 6653   0.796   1.699   3.128  0.0421  0.0740 -0.0341
 2230TIP3    H1 6654   0.819   1.690   3.220 -1.5507  2.0745  0.6400
 2230TIP3    H2 6655   0.701   1.711   3.128  0.1417  1.2591 -1.8109
 2231TIP3   OH2 6656   3.244   1.117   5.451 -0.2328 -0.2088  0.1653
 2231TIP3    H1 6657   3.337   1.101   5.469  0.1397  1.1463 -0.4331
 2231TIP3    H2 6658   3.223   1.059   5.378  0.0742 -0.7205  0.4836
 2232TIP3   OH2 6659   0.905   3.758   1.368  0.6995 -0.5807 -0.1969
 2232TIP3    H1 6660   0.832   3.816   1.346  2.0894  0.8576 -1.2902
 2232TIP3    H2 6661   0.914   3.764   1.463 -0.3061 -0.4229 -0.1044
 2233TIP3   OH2 6662   2.917   5.868   3.000 -0.0525 -0.1739 -0.7128
 2233TIP3    H1 6663   2.970   5.834   3.072  1.3508 -2.0085 -2.4990
 2233TIP3    H2 6664   2.827   5.857   3.031  0.5010 -0.8621  0.7835
 2234TIP3   OH2 6665   2.484   5.954   4.195 -0.1883 -0.2926  0.0674
 2234TIP3    H1 6666   2.403   5.955   4.144 -0.9797 -2.0960  1.1529
 2234TIP3    H2 6667   2.521   5.867   4.178  1.0042  0.1552  0.3322
 2235TIP3   OH2 6668   6.120   0.647   3.304 -0.4503 -0.4285 -0.0259
 2235TIP3    H1 6669   6.122   0.604   3.219 -0.5502  0.7885 -0.6708
 2235TIP3    H2 6670   6.171   0.728   3.291  0.6393 -0.8429  1.4291
 2236TIP3   OH2 6671   1.887   2.318   0.502 -0.3510  0.1356  0.3686
 2236TIP3    H1 6672   1.928   2.275   0.577 -0.9382 -1.4378 -0.1842
 2236TIP3    H2 6673   1.948   2.304   0.429 -1.3817 -1.4567 -0.2492
 2237TIP3   OH2 6674   6.562   6.416   4.490  0.2443  0.4721  0.3006
 2237TIP3    H1 6675   6.564   6.472   4.567  0.0917  1.3105 -0.2944
 2237TIP3    H2 6676   6.475   6.376   4.491 -0.0434  1.0953  0.1324
 2238TIP3   OH2 6677   3.238   3.628   0.903 -0.1274 -0.3374  0.0304
 2238TIP3    H1 6678   3.255   3.722   0.911 -3.1193  0.8467 -3.9915
 2238TIP3    H2 6679   3.302   3.597   0.839 -0.2437 -0.6065  0.0426
 2239TIP3   OH2 6680   6.275   1.643   0.965 -0.1474 -0.5283  0.4316
 2239TIP3    H1 6681   6.234   1.669   0.882  0.0133 -1.1077  0.1692
 2239TIP3    H2 6682   6.202   1.641   1.028 -0.1410  0.7099  0.5033
 2240TIP3   OH2 6683   3.219   3.064   1.582  0.0539 -0.5025  0.1998
 2240TIP3    H1 6684   3.184   3.069   1.671 -2.2718 -0.5069 -0.6490
 2240TIP3    H2 6685   3.178   2.986   1.544  1.1412 -0.6018 -0.8390
 2241TIP3   OH2 6686   6.803   5.954   2.172 -0.5654 -0.0459  0.3564
 2241TIP3    H1 6687   6.744   5.881   2.156  0.5141 -1.0801  0.9669
 2241TIP3    H2 6688   6.848   5.932   2.254  0.7748  0.6156 -0.1619
 2242TIP3   OH2 6689   6.962   2.151   3.912 -0.1470 -0.2991  0.5730
 2242TIP3    H1 6690   6.913   2.225   3.876  0.0995 -0.9265 -1.1400
 2242TIP3    H2 6691   7.031   2.191   3.964 -0.3479  0.6791  0.1154
 2243TIP3   OH2 6692   2.486   2.831   0.294  0.0624 -0.5800 -0.2013
 2243TIP3    H1 6693   2.520   2.751   0.253 -0.3005 -0.0094 -1.6695
 2243TIP3    H2 6694   2.397   2.840   0.259  0.3802  0.8960 -0.7176
 2244TIP3   OH2 6695   4.453   0.998   5.259  0.4916  0.0571  0.2379
 2244TIP3    H1 6696   4.529   0.940   5.261 -1.4014 -2.6239 -1.0851
 2244TIP3    H2 6697   4.396   0.966   5.329  0.3855  1.8772  1.0513
 2245TIP3   OH2 6698   3.588   1.543   5.319 -0.1673  0.0982 -0.1304
 2245TIP3    H1 6699   3.569   1.480   5.250  0.5367  1.7922 -1.9886
 2245TIP3    H2 6700   3.503   1.581   5.341 -0.3024  0.1292 -0.6833
 2246TIP3   OH2 6701   1.088   5.091   5.517 -0.7480  0.3914  0.0151
 2246TIP3    H1 6702   1.136   5.145   5.580 -0.6619  0.7583 -0.3556
 2246TIP3    H2 6703   1.051   5.020   5.569  0.6278 -0.1951  0.2360
 2247TIP3   OH2 6704   3.903   6.116   4.070 -0.4803 -0.0040 -0.1754
 2247TIP3    H1 6705   3.853   6.180   4.120 -0.5283  0.0094 -0.2401
 2247TIP3    H2 6706   3.868   6.123   3.981 -1.0386 -0.6779 -0.0164
 2248TIP3   OH2 6707   3.993   4.044   5.273 -0.4451  0.1109 -0.1613
 2248TIP3    H1 6708   4.025   4.053   5.183  0.0616 -2.1686 -0.2507
 2248TIP3    H2 6709   3.919   3.984   5.267 -1.0787  0.7594  0.8364
 2249TIP3   OH2 6710   1.390   3.524   2.828 -0.3783 -0.6587 -0.3559
 2249TIP3    H1 6711   1.343   3.608   2.824  0.6834 -0.1205 -3.2384
 2249TIP3    H2 6712   1.454   3.537   2.898 -0.4334  0.8171 -0.5405
 2250TIP3   OH2 6713   4.846   4.949   4.870  0.2890  0.6556 -0.2736
 2250TIP3    H1 6714   4.935   4.934   4.838 -0.2771 -0.9224 -1.2338
 2250TIP3    H2 6715   4.846   4.913   4.958  0.2829 -0.5851 -0.7563
 2251TIP3   OH2 6716   5.846   2.367   3.592 -0.0598 -0.1879 -0.0207
 2251TIP3    H1 6717   5.763   2.363   3.545 -0.9498  0.6183  1.3911
 2251TIP3    H2 6718   5.872   2.459   3.589 -0.2882 -0.0526  1.2481
 2252TIP3   OH2 6719   4.980   3.296   1.554 -0.1227 -0.1976 -0.2979
 2252TIP3    H1 6720   4.913   3.333   1.497  0.5346  1.8657  0.2092
 2252TIP3    H2 6721   4.943   3.303   1.642  0.2022 -0.3225 -0.1501
 2253TIP3   OH2 6722   0.367   0.625   2.335 -0.2096 -0.0797  0.3917
 2253TIP3    H1 6723   0.287   0.657   2.293 -0.2721  2.2856  2.0802
 2253TIP3    H2 6724   0.411   0.574   2.268 -1.7608  0.9564 -1.5168
 2254TIP3   OH2 6725   1.069   3.048   1.436  0.4359  0.3031 -0.7442
 2254TIP3    H1 6726   1.154   3.050   1.392 -0.8749  1.1837 -3.4762
 2254TIP3    H2 6727   1.030   2.964   1.409 -0.0448  0.4560 -0.5330
 2255TIP3   OH2 6728   6.987   3.739   1.200 -0.1136  0.2923  0.0246
 2255TIP3    H1 6729   6.977   3.658   1.150 -0.5852  0.7008 -0.5621
 2255TIP3    H2 6730   7.020   3.711   1.285  0.1088 -0.4749 -0.3059
 2256TIP3   OH2 6731   5.048   3.872   3.537 -0.3808  0.3066  0.1020
 2256TIP3    H1 6732   4.956   3.847   3.526  0.0683 -1.2352 -0.4912
 2256TIP3    H2 6733   5.065   3.935   3.467 -1.0124  0.7134  0.3054
 2257TIP3   OH2 6734   5.759   1.628   2.554  0.0092  0.3591 -0.5116
 2257TIP3    H1 6735   5.678   1.679   2.558 -0.2827 -0.0378 -1.1943
 2257TIP3    H2 6736   5.822   1.688   2.516 -0.8176 -0.3423 -3.1730
 2258TIP3   OH2 6737   2.173   5.644   3.741  0.4726 -0.5298 -0.1655
 2258TIP3    H1 6738   2.141   5.586   3.809 -0.9053 -0.8540 -1.0459
 2258TIP3    H2 6739   2.188   5.728   3.785 -0.8606 -0.5983  0.4549
 2259TIP3   OH2 6740   2.745   5.000   3.838 -0.2787  0.2624  0.1193
 2259TIP3    H1 6741   2.693   5.080   3.830 -2.6998 -1.2084  0.1288
 2259TIP3    H2 6742   2.681   4.930   3.838  1.7343 -1.6907  0.5843
 2260TIP3   OH2 6743   1.703   4.269   0.414  0.2470 -0.3220 -0.6734
 2260TIP3    H1 6744   1.683   4.360   0.391 -0.2602 -0.5438 -1.1152
 2260TIP3    H2 6745   1.792   4.255   0.381  0.2551 -0.0457 -0.7732
 2261TIP3   OH2 6746   6.743   2.389   0.731 -0.3516 -0.3394  0.5115
 2261TIP3    H1 6747   6.733   2.378   0.636 -2.9477  1.4635  0.4892
 2261TIP3    H2 6748   6.688   2.464   0.753  1.9095  0.7077  3.1679
 2262TIP3   OH2 6749   2.323   0.543   3.266  0.3512  0.0410 -0.6985
 2262TIP3    H1 6750   2.288   0.489   3.337  2.4637 -0.6378 -0.0868
 2262TIP3    H2 6751   2.274   0.515   3.189  0.3227 -1.7171 -0.1064
 2263TIP3   OH2 6752   6.458   5.348   3.109 -0.2402 -0.2075  0.0917
 2263TIP3    H1 6753   6.367   5.373   3.125 -0.5866 -0.7010 -1.0052
 2263TIP3    H2 6754   6.481   5.392   3.028  0.0930 -1.0518 -0.2902
 2264TIP3   OH2 6755   6.211   5.766   2.139 -0.2784  0.5681 -0.5374
 2264TIP3    H1 6756   6.217   5.792   2.047 -2.3870  2.1996 -0.3065
 2264TIP3    H2 6757   6.124   5.726   2.146  0.9443 -2.1872  0.2123
 2265TIP3   OH2 6758   2.183   1.801   2.699 -0.0282  0.4207  0.5105
 2265TIP3    H1 6759   2.211   1.837   2.616  1.3341 -0.0686  0.7362
 2265TIP3    H2 6760   2.212   1.864   2.764 -0.1118  0.2667  0.7004
 2266TIP3   OH2 6761   0.151   3.467   3.211 -0.0273 -0.0775  0.2032
 2266TIP3    H1 6762   0.127   3.453   3.119 -1.8475  1.1220  0.4270
 2266TIP3    H2 6763   0.219   3.534   3.208 -0.8140  0.7236 -0.2483
 2267TIP3   OH2 6764   1.726   2.320   3.562  0.2229  0.7496 -0.2721
 2267TIP3    H1 6765   1.770   2.300   3.480  3.0404 -1.0018  1.5035
 2267TIP3    H2 6766   1.737   2.241   3.615 -0.7397  2.0927  2.1005
 2268TIP3   OH2 6767   0.807   5.218   1.161 -0.1754 -0.2562 -0.0722
 2268TIP3    H1 6768   0.882   5.193   1.106 -0.3032  0.3227 -0.5221
 2268TIP3    H2 6769   0.764   5.288   1.112 -0.2229  0.3566  0.8198
 2269TIP3   OH2 6770   0.474   2.796   0.866 -1.1063  0.6874  0.3551
 2269TIP3    H1 6771   0.530   2.867   0.896 -1.3998  1.3014 -0.5130
 2269TIP3    H2 6772   0.522   2.755   0.794  0.0102 -1.3612  2.1569
 2270TIP3   OH2 6773   3.235   0.246   1.930 -0.3098 -0.1019  0.0840
 2270TIP3    H1 6774   3.161   0.267   1.874 -0.0130  0.7828  0.0014
 2270TIP3    H2 6775   3.308   0.230   1.870 -0.4006 -0.8773  0.1671
 2271TIP3   OH2 6776   4.307   5.076   5.421  0.4191  0.4739  0.0533
 2271TIP3    H1 6777   4.318   4.981   5.422 -1.2793  0.2296 -0.2932
 2271TIP3    H2 6778   4.341   5.105   5.505 -0.3366 -0.6420  0.7810
 2272TIP3   OH2 6779   0.411   4.070   3.788 -0.4982  0.1577  0.4799
 2272TIP3    H1 6780   0.412   4.057   3.694  1.2419  1.2511  0.3030
 2272TIP3    H2 6781   0.326   4.037   3.816 -1.4295  0.6641 -1.5839
 2273TIP3   OH2 6782   1.496   0.467   4.847  0.3878  0.3344 -0.0379
 2273TIP3    H1 6783   1.573   0.524   4.859 -0.2227  0.8594  1.7191
 2273TIP3    H2 6784   1.469   0.446   4.936 -0.4474 -1.3297 -0.6501
 2274TIP3   OH2 6785   6.947   1.710   5.449  0.0073  0.1743  0.0642
 2274TIP3    H1 6786   7.042   1.704   5.448  0.0704  1.0514 -1.1604
 2274TIP3    H2 6787   6.918   1.646   5.383 -0.2132  0.2968  0.0392
 2275TIP3   OH2 6788   2.221   1.849   2.364 -0.6155 -0.0285  0.2481
 2275TIP3    H1 6789   2.132   1.874   2.339  0.4295  0.4244 -3.6204
 2275TIP3    H2 6790   2.224   1.754   2.351 -0.1119  0.1890 -1.5122
 2276TIP3   OH2 6791   4.150   3.630   2.036 -0.1520 -0.2822 -0.1439
 2276TIP3    H1 6792   4.185   3.610   1.949 -0.4265  1.7701 -0.7724
 2276TIP3    H2 6793   4.228   3.644   2.090  0.0160 -0.7064 -0.2727
 2277TIP3   OH2 6794   1.910   0.908   0.685 -0.0452  0.0431  0.3565
 2277TIP3    H1 6795   1.856   0.890   0.762 -0.0332 -0.8039  0.1787
 2277TIP3    H2 6796   1.934   1.000   0.694  0.2149 -0.1117  1.5323
 2278TIP3   OH2 6797   0.916   1.961   3.661 -0.2585 -0.0817  0.0385
 2278TIP3    H1 6798   0.900   2.008   3.743 -0.1497  1.9406 -1.0670
 2278TIP3    H2 6799   1.009   1.975   3.643 -0.6447  0.9352 -1.2792
 2279TIP3   OH2 6800   5.170   4.618   5.014 -0.1227  0.3166  0.1805
 2279TIP3    H1 6801   5.154   4.640   5.106 -0.5657 -2.0623  0.7511
 2279TIP3    H2 6802   5.116   4.541   4.998  0.8718 -0.0570 -1.7315
 2280TIP3   OH2 6803   5.857   0.558   4.557  0.5177  0.1854  0.0782
 2280TIP3    H1 6804   5.808   0.489   4.513  2.5671 -0.6656 -0.9642
 2280TIP3    H2 6805   5.851   0.634   4.499  0.9147 -0.0929 -0.3254
 2281TIP3   OH2 6806   4.250   5.647   0.012 -0.5053  0.1382 -0.3667
 2281TIP3    H1 6807   4.285   5.688  -0.067 -0.2035  0.3740 -0.1118
 2281TIP3    H2 6808   4.305   5.681   0.083 -1.7086  1.1124  0.1376
 2282TIP3   OH2 6809   2.280   3.668   1.907 -0.7579  0.5672 -0.0682
 2282TIP3    H1 6810   2.370   3.699   1.892 -0.5643  0.1477  0.1981
 2282TIP3    H2 6811   2.227   3.714   1.842 -0.6237  2.1289  0.8862
 2283TIP3   OH2 6812   6.344   3.150   4.553  0.0811  0.4697  0.2106
 2283TIP3    H1 6813   6.304   3.080   4.503 -0.7451  0.4437  0.8918
 2283TIP3    H2 6814   6.418   3.178   4.500  0.5208 -1.0127  0.0031
 2284TIP3   OH2 6815   1.194   5.050   4.277  0.3229 -0.2161  0.0551
 2284TIP3    H1 6816   1.217   5.049   4.370  0.7846 -2.3352 -0.0226
 2284TIP3    H2 6817   1.239   4.973   4.241 -1.9698 -0.9729 -1.3774
 2285TIP3   OH2 6818   1.447   3.444   4.823  0.2778  0.1049 -0.1381
 2285TIP3    H1 6819   1.484   3.356   4.833  0.5120  0.2104 -0.0605
 2285TIP3    H2 6820   1.523   3.501   4.814  0.1962  0.4832  1.2688
 2286TIP3   OH2 6821   4.508   0.743   2.973 -0.1376 -0.2914 -0.5673
 2286TIP3    H1 6822   4.562   0.746   3.052 -0.8254 -0.0659 -0.0960
 2286TIP3    H2 6823   4.441   0.809   2.988  0.5670  0.8165 -1.9707
 2287TIP3   OH2 6824   1.134   2.423   3.381 -0.0760  0.1475  0.1382
 2287TIP3    H1 6825   1.166   2.483   3.450  0.1939 -0.7113  0.7778
 2287TIP3    H2 6826   1.039   2.428   3.388 -0.0543  0.3052  0.3598
 2288TIP3   OH2 6827   6.171   3.781   2.980 -0.3628 -0.1439  0.4617
 2288TIP3    H1 6828   6.226   3.806   3.055 -2.1429 -0.2452  1.8467
 2288TIP3    H2 6829   6.093   3.743   3.019 -1.8708  0.8721 -1.4093
 2289TIP3   OH2 6830   6.578   1.381   1.212  0.1978 -0.6289 -0.1319
 2289TIP3    H1 6831   6.668   1.393   1.181 -0.0825  0.8497 -0.4542
 2289TIP3    H2 6832   6.540   1.469   1.210 -0.6507 -0.8869  1.9152
 2290TIP3   OH2 6833   2.844   5.651   5.598  0.6588 -0.2310  0.1492
 2290TIP3    H1 6834   2.936   5.664   5.621  0.6400  0.4587 -0.1578
 2290TIP3    H2 6835   2.795   5.687   5.673  0.5972  2.0317 -0.8882
 2291TIP3   OH2 6836   4.272   3.539   5.623 -0.3926 -0.1301 -0.6706
 2291TIP3    H1 6837   4.252   3.619   5.575 -0.8259  0.5956  0.6785
 2291TIP3    H2 6838   4.187   3.498   5.639 -0.3844  0.2576  0.4857
 2292TIP3   OH2 6839   6.136   3.932   2.098 -0.4570  0.1245  0.0821
 2292TIP3    H1 6840   6.144   4.025   2.078 -4.4366  1.6645  3.9972
 2292TIP3    H2 6841   6.062   3.902   2.044 -0.4916 -0.1977  0.3049
 2293TIP3   OH2 6842   1.505   2.167   1.354  0.2031 -0.2159 -0.0616
 2293TIP3    H1 6843   1.587   2.122   1.373  0.7163  0.7396  0.0308
 2293TIP3    H2 6844   1.515   2.254   1.393  0.3791  1.0065 -2.6165
 2294TIP3   OH2 6845   5.568   1.968   3.782  0.0621 -0.0542  0.4185
 2294TIP3    H1 6846   5.551   1.878   3.809  0.8295 -0.7346 -1.2304
 2294TIP3    H2 6847   5.542   1.971   3.690  1.9008  0.8153 -0.1307
 2295TIP3   OH2 6848   5.885   3.166   5.100 -0.8225  0.1117  0.0235
 2295TIP3    H1 6849   5.915   3.253   5.076 -0.4306  0.0281  0.2203
 2295TIP3    H2 6850   5.918   3.109   5.030 -1.3203  0.1585 -0.2593
 2296TIP3   OH2 6851   5.316   5.318   4.199  0.7803 -0.1319 -0.0114
 2296TIP3    H1 6852   5.222   5.332   4.203  1.0167  1.3500  1.5750
 2296TIP3    H2 6853   5.327   5.240   4.145 -1.4518 -1.4602  1.3339
 2297TIP3   OH2 6854   6.696   5.943   5.083  0.2026  0.1232  0.1456
 2297TIP3    H1 6855   6.625   5.927   5.021 -1.4143  0.2826  1.8623
 2297TIP3    H2 6856   6.685   6.034   5.110 -0.0659 -0.3661  1.7708
 2298TIP3   OH2 6857   6.356   0.360   4.307 -0.2372 -0.4091 -0.0809
 2298TIP3    H1 6858   6.384   0.363   4.398 -1.1608 -0.1591  0.2041
 2298TIP3    H2 6859   6.397   0.437   4.267 -0.5836  0.0102  0.3536
 2299TIP3   OH2 6860   1.452   4.049   1.243 -0.0033  0.1237  0.3476
 2299TIP3    H1 6861   1.430   4.130   1.197 -1.4090 -0.6696 -0.4899
 2299TIP3    H2 6862   1.368   4.018   1.277  0.5181 -0.9543  0.6898
 2300TIP3   OH2 6863   5.200   0.999   3.841  0.0129 -0.2703  0.3573
 2300TIP3    H1 6864   5.263   0.948   3.791  1.7293  1.4771  0.6010
 2300TIP3    H2 6865   5.159   1.057   3.776 -0.6680 -0.7544  0.3510
 2301TIP3   OH2 6866   4.976   5.520   5.319 -0.4232  0.2106  0.1936
 2301TIP3    H1 6867   5.051   5.461   5.321  0.2601  1.0704  0.6958
 2301TIP3    H2 6868   4.985   5.573   5.398 -2.0278 -0.2308  0.6902
 2302TIP3   OH2 6869   2.720   2.999   0.268 -0.6348  0.1548  0.2165
 2302TIP3    H1 6870   2.758   2.911   0.268 -1.4238 -0.1991 -0.4471
 2302TIP3    H2 6871   2.626   2.984   0.280 -0.7940  0.8972 -0.0868
 2303TIP3   OH2 6872   0.124   0.016   1.337 -0.0835 -0.0999 -0.1235
 2303TIP3    H1 6873   0.145   0.078   1.407  0.1470 -0.4488  0.1208
 2303TIP3    H2 6874   0.103   0.071   1.262 -0.5038  0.2804  0.2663
 2304TIP3   OH2 6875   5.460   0.041   0.864  0.7792 -0.1009  0.2228
 2304TIP3    H1 6876   5.383  -0.008   0.836  1.3778 -1.0421  0.1750
 2304TIP3    H2 6877   5.534  -0.011   0.834  1.4375  0.4714  0.8040
 2305TIP3   OH2 6878   5.835   0.131   1.285 -0.1696 -0.2446  0.6571
 2305TIP3    H1 6879   5.861   0.158   1.197 -0.6328  0.4087  0.7152
 2305TIP3    H2 6880   5.909   0.156   1.340  0.9506 -2.2952  0.2377
 2306TIP3   OH2 6881   4.134   6.120   4.896  0.4527  0.1184  0.0075
 2306TIP3    H1 6882   4.043   6.103   4.920  0.4244  0.2919  0.0269
 2306TIP3    H2 6883   4.185   6.057   4.947  0.4709  1.1498  1.3027
 2307TIP3   OH2 6884   6.727   0.602  -0.028 -0.7376 -0.2486 -0.1262
 2307TIP3    H1 6885   6.712   0.650   0.053 -1.0178  0.5897 -0.6597
 2307TIP3    H2 6886   6.753   0.515  -0.000 -3.5340 -0.8474  0.8790
 2308TIP3   OH2 6887   1.289   2.531   1.189 -0.0295 -0.2112  0.2514
 2308TIP3    H1 6888   1.195   2.541   1.203  0.1470  0.0899  1.3484
 2308TIP3    H2 6889   1.329   2.588   1.255  0.9258 -0.9373  0.3235
 2309TIP3   OH2 6890   6.975   1.789   4.159  0.4861 -0.3416  0.7910
 2309TIP3    H1 6891   7.041   1.856   4.174  1.4177 -0.6195 -1.6098
 2309TIP3    H2 6892   6.916   1.827   4.094 -3.4138  0.9047  4.5604
 2310TIP3   OH2 6893   3.731   5.052   2.107  0.1006  0.1416  0.1074
 2310TIP3    H1 6894   3.757   5.007   2.026  0.2663  0.5055 -0.0457
 2310TIP3    H2 6895   3.729   5.145   2.083 -0.6222  0.1825  0.3187
 2311TIP3   OH2 6896   6.792   2.684   5.526  0.3219  0.1022 -0.2630
 2311TIP3    H1 6897   6.713   2.735   5.511  1.4185  3.0692  2.7119
 2311TIP3    H2 6898   6.858   2.725   5.471  0.5114 -0.2582 -0.3083
 2312TIP3   OH2 6899   0.072   2.307   3.276 -0.3993 -0.1421  0.0100
 2312TIP3    H1 6900   0.017   2.277   3.203  0.5304 -0.7055 -0.4814
 2312TIP3    H2 6901   0.010   2.340   3.341 -1.2622  0.1494 -0.9358
 2313TIP3   OH2 6902   1.390   0.943   2.718  0.2449 -0.2700 -0.1834
 2313TIP3    H1 6903   1.354   0.855   2.733 -1.4223  0.3955 -0.0462
 2313TIP3    H2 6904   1.319   0.991   2.675  0.5582  1.4386  1.0789
 2314TIP3   OH2 6905   3.050   5.962   5.475 -0.9021  0.0445  0.1947
 2314TIP3    H1 6906   2.962   5.988   5.500 -1.0663 -0.8638  0.6001
 2314TIP3    H2 6907   3.065   5.879   5.521  0.2876  0.3496  0.4002
 2315TIP3   OH2 6908   5.755   3.366   2.907  0.2300  0.1578 -0.4201
 2315TIP3    H1 6909   5.836   3.377   2.858  0.3642  1.6637  0.0942
 2315TIP3    H2 6910   5.687   3.404   2.851 -0.0228 -0.4181 -0.5198
 2316TIP3   OH2 6911   6.513   1.117   0.825  0.1212  0.4937 -0.2129
 2316TIP3    H1 6912   6.432   1.148   0.784  0.2748 -0.8507 -1.6294
 2316TIP3    H2 6913   6.576   1.188   0.812 -0.7276  1.4302  0.6502
 2317TIP3   OH2 6914   5.241   3.265   2.113 -0.3178  0.0369  0.3021
 2317TIP3    H1 6915   5.324   3.313   2.108  0.9747 -1.3331  4.3769
 2317TIP3    H2 6916   5.260   3.180   2.073  0.3608 -0.3258  1.3534
 2318TIP3   OH2 6917   6.697   2.868   1.711  0.3488 -0.0963  0.1930
 2318TIP3    H1 6918   6.715   2.911   1.795  0.0983 -0.1526  0.2754
 2318TIP3    H2 6919   6.749   2.917   1.648 -0.1127  0.4743  0.2458
 2319TIP3   OH2 6920   6.620   5.228   3.711 -0.1882  0.2833  0.3153
 2319TIP3    H1 6921   6.623   5.316   3.749 -1.0283  1.2995 -1.8566
 2319TIP3    H2 6922   6.613   5.242   3.617 -0.6980 -2.1247 -0.0675
 2320TIP3   OH2 6923   5.974   1.501   5.307 -0.1421 -0.3459  0.0114
 2320TIP3    H1 6924   5.996   1.574   5.248  0.3402 -0.2133  0.3504
 2320TIP3    H2 6925   6.056   1.483   5.354 -0.6437 -0.1227  0.9950
 2321TIP3   OH2 6926   4.627   4.684   3.055  0.3272  0.0938  0.1473
 2321TIP3    H1 6927   4.718   4.681   3.085  0.3259  1.2319  0.3154
 2321TIP3    H2 6928   4.575   4.668   3.134  0.3632 -2.6151 -0.2888
 2322TIP3   OH2 6929   3.652   2.354   0.424  0.0957  0.2560  0.0926
 2322TIP3    H1 6930   3.639   2.384   0.333  1.0229 -0.2577 -0.2196
 2322TIP3    H2 6931   3.564   2.328   0.453 -0.4727  1.8091 -0.1427
 2323TIP3   OH2 6932   5.986   0.203   4.852 -0.6957 -0.3051  0.0117
 2323TIP3    H1 6933   5.986   0.199   4.948  2.4788 -1.3718  0.0812
 2323TIP3    H2 6934   5.932   0.129   4.825 -1.9464  0.2314  0.9275
 2324TIP3   OH2 6935   4.653   4.419   0.783  0.1654 -0.0901  0.0507
 2324TIP3    H1 6936   4.627   4.447   0.695 -0.8282  0.0272  0.3616
 2324TIP3    H2 6937   4.705   4.340   0.770 -1.5942 -1.1947 -0.5542
 2325TIP3   OH2 6938   5.241   5.998   4.483 -0.1938  0.2966 -0.1272
 2325TIP3    H1 6939   5.157   5.973   4.443 -0.2836  1.2794 -0.5618
 2325TIP3    H2 6940   5.284   5.914   4.501 -0.6533 -0.1936 -1.2153
 2326TIP3   OH2 6941   1.413   5.053   0.934  0.2087  0.3512  0.0466
 2326TIP3    H1 6942   1.361   5.036   1.012 -2.7715  0.2496 -1.7968
 2326TIP3    H2 6943   1.356   5.026   0.861  2.3994  1.4257 -2.2110
 2327TIP3   OH2 6944   6.747   5.806   2.930 -0.7658 -0.4378  0.1222
 2327TIP3    H1 6945   6.841   5.792   2.919 -0.3702  0.1017  2.4040
 2327TIP3    H2 6946   6.729   5.885   2.879  0.0695 -0.3726 -0.0897
 2328TIP3   OH2 6947   6.211   6.401   3.794 -0.2227  0.0119  0.7496
 2328TIP3    H1 6948   6.150   6.474   3.796 -0.4371 -0.1726  1.4880
 2328TIP3    H2 6949   6.181   6.346   3.722 -0.2128  0.5160  0.3546
 2329TIP3   OH2 6950   1.858   1.850   1.606 -0.1395  0.2030 -0.0843
 2329TIP3    H1 6951   1.849   1.754   1.611  0.9272  0.0124 -1.2597
 2329TIP3    H2 6952   1.909   1.874   1.683  0.2686 -0.2745 -0.2033
 2330TIP3   OH2 6953   4.768   4.411   3.861 -0.2116 -0.0467 -0.0934
 2330TIP3    H1 6954   4.753   4.326   3.821  1.5908 -0.8427  0.8158
 2330TIP3    H2 6955   4.807   4.464   3.791  3.5468 -1.6293  0.5678
 2331TIP3   OH2 6956   2.444   6.186   3.068 -1.1895 -0.6535  0.2360
 2331TIP3    H1 6957   2.477   6.112   3.018  0.2379  1.1523 -1.7012
 2331TIP3    H2 6958   2.455   6.161   3.160  0.8294 -2.1527 -0.3547
 2332TIP3   OH2 6959   3.082   5.091   1.589  0.1559  0.3425  0.5895
 2332TIP3    H1 6960   3.086   5.071   1.495 -2.4561 -0.8747  0.6457
 2332TIP3    H2 6961   2.992   5.119   1.604  0.8091  1.6553  2.5877
 2333TIP3   OH2 6962   0.728   1.630   3.971  0.0249 -0.0079  0.1183
 2333TIP3    H1 6963   0.671   1.635   3.894  1.4361  2.1169 -0.8786
 2333TIP3    H2 6964   0.754   1.721   3.988  0.5812 -0.5312  2.5151
 2334TIP3   OH2 6965   0.685   1.727   2.624  0.4809  1.0511 -0.2650
 2334TIP3    H1 6966   0.721   1.639   2.640 -0.6011  0.5360 -0.5960
 2334TIP3    H2 6967   0.603   1.728   2.673  0.2396  1.7042 -0.6740
 2335TIP3   OH2 6968   7.004   6.191   0.449  0.8534  0.0061  0.2555
 2335TIP3    H1 6969   7.025   6.283   0.462  2.1106 -0.3048  0.5126
 2335TIP3    H2 6970   7.086   6.144   0.464  0.0894 -1.2271  0.8023
 2336TIP3   OH2 6971   0.664   4.276   5.513  0.0741  0.0303  0.1571
 2336TIP3    H1 6972   0.604   4.233   5.574 -0.9684  1.4950  0.1971
 2336TIP3    H2 6973   0.608   4.333   5.461  1.2221  0.2025 -0.9159
 2337TIP3   OH2 6974   6.252   6.563   3.010  0.1445 -0.0174 -0.1364
 2337TIP3    H1 6975   6.177   6.508   3.035  1.0126 -0.8909  0.6449
 2337TIP3    H2 6976   6.240   6.580   2.917 -1.9900  1.3957  0.3257
 2338TIP3   OH2 6977   4.472   6.128   2.826 -0.3239 -0.3428 -0.4466
 2338TIP3    H1 6978   4.519   6.092   2.751 -1.7748 -2.1660 -0.5665
 2338TIP3    H2 6979   4.384   6.147   2.793 -0.9765 -1.1344  0.7348
 2339TIP3   OH2 6980   3.261   0.544   1.007  1.1535 -0.1186 -0.2315
 2339TIP3    H1 6981   3.225   0.575   0.924  1.9621 -0.8309 -0.8657
 2339TIP3    H2 6982   3.347   0.585   1.012  2.1512 -2.0106 -0.9789
 2340TIP3   OH2 6983   0.558   3.649   4.841  0.7880  0.4723  0.4465
 2340TIP3    H1 6984   0.592   3.640   4.752  0.8944 -0.4478  0.5732
 2340TIP3    H2 6985   0.636   3.648   4.897  0.6954  0.6799  0.5843
 2341TIP3   OH2 6986   6.731   1.525   3.168  0.4118 -0.3937 -0.3954
 2341TIP3    H1 6987   6.642   1.555   3.187 -0.0742 -2.2793  0.5146
 2341TIP3    H2 6988   6.773   1.519   3.254  1.4504  0.4879 -0.8188
 2342TIP3   OH2 6989   3.179   6.792   2.049 -0.2521  0.2739  0.2376
 2342TIP3    H1 6990   3.087   6.780   2.029 -0.0011  0.0822 -0.8799
 2342TIP3    H2 6991   3.216   6.704   2.049 -0.1250  0.3181  1.0260
 2343TIP3   OH2 6992   4.286   1.633   2.461  0.4116 -0.2037 -0.2059
 2343TIP3    H1 6993   4.276   1.633   2.366  2.5342  0.4144 -0.4702
 2343TIP3    H2 6994   4.315   1.545   2.482  0.4950 -0.1719 -0.1896
 2344TIP3   OH2 6995   2.303   5.411   4.503 -0.0429  0.6628  0.4471
 2344TIP3    H1 6996   2.397   5.400   4.492 -0.2597 -2.1110  0.6995
 2344TIP3    H2 6997   2.277   5.466   4.429  1.4762 -0.4584 -1.0001
 2345TIP3   OH2 6998   4.306   1.493   2.814 -0.1641  0.4397 -0.3462
 2345TIP3    H1 6999   4.396   1.510   2.785  0.4664  0.0831  1.2741
 2345TIP3    H2 7000   4.277   1.577   2.850 -0.5360  0.5819 -0.9597
 2346TIP3   OH2 7001   1.114   0.885   0.355 -0.2116  0.2657  0.0224
 2346TIP3    H1 7002   1.054   0.824   0.311 -2.5916  2.2181  0.3611
 2346TIP3    H2 7003   1.088   0.971   0.325  3.1836  1.2279 -0.5835
 2347TIP3   OH2 7004   4.456   3.827   5.435 -0.2267  0.0292  0.0170
 2347TIP3    H1 7005   4.398   3.843   5.361  0.9880  0.8998 -0.7771
 2347TIP3    H2 7006   4.493   3.913   5.456 -0.6798 -0.1724  1.7580
 2348TIP3   OH2 7007   6.865   3.082   1.641  0.1771 -0.0030  0.4111
 2348TIP3    H1 7008   6.947   3.033   1.635 -0.1767 -0.7484  1.4688
 2348TIP3    H2 7009   6.840   3.098   1.550  2.5164  2.0193  0.0123
 2349TIP3   OH2 7010   0.499   6.620   5.703  0.3995  0.4765  0.0033
 2349TIP3    H1 7011   0.561   6.691   5.684 -0.1777  1.2764  0.9892
 2349TIP3    H2 7012   0.461   6.644   5.788 -0.0034 -0.8868  0.2278
 2350TIP3   OH2 7013   5.301   6.747   1.325  0.2238  0.0088 -0.3944
 2350TIP3    H1 7014   5.223   6.698   1.353  0.2987  0.6859  1.0992
 2350TIP3    H2 7015   5.266   6.819   1.272 -0.1843  0.2257  0.1489
 2351TIP3   OH2 7016   4.462   3.630   3.669 -0.3479 -0.1737 -0.1445
 2351TIP3    H1 7017   4.535   3.598   3.724 -0.7785 -0.1707  0.4403
 2351TIP3    H2 7018   4.400   3.667   3.732  0.8077  3.3255 -0.8514
 2352TIP3   OH2 7019   3.984   1.803   0.802 -0.5761 -0.4316 -0.0216
 2352TIP3    H1 7020   3.964   1.888   0.764 -0.1511 -0.2114  0.2345
 2352TIP3    H2 7021   3.918   1.790   0.869 -0.4572 -0.1587  0.1503
 2353TIP3   OH2 7022   5.941   1.177   0.497 -0.0128  0.1995  0.2482
 2353TIP3    H1 7023   5.888   1.193   0.419  0.8963  0.9490 -0.2336
 2353TIP3    H2 7024   5.965   1.084   0.491 -1.6910 -0.3080  0.7670
 2354TIP3   OH2 7025   6.108   4.640   5.404 -0.3906 -0.2304 -0.9407
 2354TIP3    H1 7026   6.083   4.631   5.496  0.1035  0.2242 -0.7585
 2354TIP3    H2 7027   6.071   4.724   5.377  0.0446 -0.0370 -0.9561
 2355TIP3   OH2 7028   6.750   3.182   4.195 -0.2918  0.5605 -0.1658
 2355TIP3    H1 7029   6.671   3.205   4.244  0.0968  3.0577 -0.5981
 2355TIP3    H2 7030   6.720   3.119   4.129 -1.7086  0.6775  0.3413
 2356TIP3   OH2 7031   3.652   4.823   1.573 -0.0792 -0.2397 -0.2233
 2356TIP3    H1 7032   3.614   4.843   1.659  0.0872  0.3298 -0.2818
 2356TIP3    H2 7033   3.745   4.809   1.591  0.2352  1.2962 -0.5050
 2357TIP3   OH2 7034   2.482   2.253   1.713 -0.2667 -0.0746 -0.2952
 2357TIP3    H1 7035   2.419   2.235   1.782 -1.4473  0.7991 -1.1158
 2357TIP3    H2 7036   2.444   2.326   1.664  1.9830  1.3791 -0.0334
 2358TIP3   OH2 7037   5.997   6.611   3.761  0.0783  0.3700  0.4218
 2358TIP3    H1 7038   5.940   6.645   3.693  1.3241  0.1555 -0.7784
 2358TIP3    H2 7039   5.951   6.629   3.843 -0.3616  2.8370 -0.2948
 2359TIP3   OH2 7040   3.778   0.238   0.641  0.7955 -0.4356 -0.7483
 2359TIP3    H1 7041   3.751   0.249   0.732 -2.4033 -0.5235 -1.5601
 2359TIP3    H2 7042   3.796   0.327   0.611  2.1262 -0.4301  0.0025
 2360TIP3   OH2 7043   0.101   1.203   4.149 -0.7063  0.1183  0.3848
 2360TIP3    H1 7044   0.024   1.159   4.185 -0.3993 -0.2569  0.5910
 2360TIP3    H2 7045   0.173   1.143   4.166 -0.3690  0.4602  0.1797
 2361TIP3   OH2 7046   3.448   2.628   4.605  0.2572  0.3386 -0.0292
 2361TIP3    H1 7047   3.420   2.627   4.514  0.6643 -1.1673 -0.1658
 2361TIP3    H2 7048   3.506   2.551   4.613 -0.6527 -0.2122  1.7613
 2362TIP3   OH2 7049   3.351   6.409   5.384 -0.4652  0.2193  0.0028
 2362TIP3    H1 7050   3.423   6.346   5.390  0.5878  1.3968  0.0689
 2362TIP3    H2 7051   3.292   6.386   5.456  0.0961 -0.4487  0.2527
 2363TIP3   OH2 7052   6.735   0.735   3.809  0.1039 -0.8095  0.2031
 2363TIP3    H1 7053   6.821   0.769   3.786  0.2885 -1.9419 -0.9107
 2363TIP3    H2 7054   6.745   0.640   3.805 -1.2618 -0.9621 -0.2649
 2364TIP3   OH2 7055   0.753   2.911   2.717 -0.0476  0.1020 -0.5371
 2364TIP3    H1 7056   0.678   2.896   2.660  1.3767 -1.3311 -2.1713
 2364TIP3    H2 7057   0.811   2.968   2.665  1.2374 -1.1450 -0.5238
 2365TIP3   OH2 7058   5.132   1.136   5.593 -0.2784 -0.0203  0.2737
 2365TIP3    H1 7059   5.227   1.126   5.600 -0.2438  0.3794  0.3740
 2365TIP3    H2 7060   5.098   1.107   5.677 -0.2175  0.1691  0.3645
 2366TIP3   OH2 7061   3.051   2.538   3.638 -0.8533 -0.0834  0.2087
 2366TIP3    H1 7062   3.067   2.598   3.566  2.5251  0.2439  1.0633
 2366TIP3    H2 7063   2.993   2.471   3.602 -1.9229  1.7938 -1.7649
 2367TIP3   OH2 7064   0.941   1.007   5.069  0.5244  0.4245 -0.5349
 2367TIP3    H1 7065   1.005   1.069   5.106 -0.1029  0.2617  0.9157
 2367TIP3    H2 7066   0.898   0.969   5.146  0.0982 -0.9806 -1.4304
 2368TIP3   OH2 7067   1.887   0.654   3.775 -0.1789  0.2126  0.3623
 2368TIP3    H1 7068   1.821   0.701   3.725  0.1675  1.4041  0.9758
 2368TIP3    H2 7069   1.956   0.634   3.712  0.7586  2.6423  0.4790
 2369TIP3   OH2 7070   3.996   2.948   0.429 -0.6335 -0.1996 -0.1094
 2369TIP3    H1 7071   3.937   2.960   0.504 -0.1136  0.3285  0.2236
 2369TIP3    H2 7072   3.995   2.854   0.412 -0.8648 -0.3039  0.4688
 2370TIP3   OH2 7073   5.551   5.300   5.398  1.0563  0.5129  1.0154
 2370TIP3    H1 7074   5.537   5.231   5.334  0.3340 -2.2714  3.9694
 2370TIP3    H2 7075   5.638   5.335   5.376  1.0634 -0.6464 -1.0856
 2371TIP3   OH2 7076   3.891   2.618   3.795 -0.0786  0.2278 -0.5623
 2371TIP3    H1 7077   3.829   2.580   3.857 -1.1614  0.2759 -1.5957
 2371TIP3    H2 7078   3.853   2.602   3.709  1.3016  0.3364 -1.2269
 2372TIP3   OH2 7079   0.115   4.620   4.155  0.0668 -0.0433 -0.1078
 2372TIP3    H1 7080   0.193   4.613   4.099  0.7636  1.4042  0.6036
 2372TIP3    H2 7081   0.147   4.598   4.242 -0.3671  0.3754  0.1607
 2373TIP3   OH2 7082   4.893   5.822   5.761  0.3599  0.2128  0.2096
 2373TIP3    H1 7083   4.940   5.744   5.789 -2.3583 -0.8970  2.1400
 2373TIP3    H2 7084   4.883   5.812   5.667 -0.6882 -2.2930  0.5100
 2374TIP3   OH2 7085   5.481   6.299   2.152 -0.3458  0.3997  0.5643
 2374TIP3    H1 7086   5.467   6.252   2.070 -0.0049 -0.3337  0.9242
 2374TIP3    H2 7087   5.510   6.232   2.214 -0.4461  0.9753  1.2439
 2375TIP3   OH2 7088   0.870   1.889   0.828  0.2579  0.1889  0.1889
 2375TIP3    H1 7089   0.890   1.853   0.914 -2.0366  0.2963  0.8217
 2375TIP3    H2 7090   0.787   1.935   0.840 -1.0894 -1.3327 -2.4689
 2376TIP3   OH2 7091   6.031   2.726   2.738  0.0482  0.6295 -0.1030
 2376TIP3    H1 7092   6.111   2.720   2.790  0.9272  0.1892 -1.4705
 2376TIP3    H2 7093   6.035   2.813   2.699 -0.4977  0.8738  0.3787
 2377TIP3   OH2 7094   5.370   2.980   2.496  0.1364  0.2369  0.0226
 2377TIP3    H1 7095   5.304   2.921   2.531  1.1345 -0.4761  0.7662
 2377TIP3    H2 7096   5.331   3.068   2.504 -0.5410 -0.1271  0.8447
 2378TIP3   OH2 7097   3.198   5.420   4.563 -0.2020 -0.6907  0.2695
 2378TIP3    H1 7098   3.291   5.407   4.551 -0.6155 -4.0266 -0.1034
 2378TIP3    H2 7099   3.192   5.496   4.622  2.6223  0.4289 -0.7258
 2379TIP3   OH2 7100   4.491   0.150   4.086 -0.3806  0.4809  0.0458
 2379TIP3    H1 7101   4.579   0.117   4.102  0.1169  0.0501 -2.9312
 2379TIP3    H2 7102   4.438   0.114   4.156  1.1952 -2.0883  0.0236
 2380TIP3   OH2 7103   4.689   3.646   0.911 -0.4476 -0.0403 -0.1492
 2380TIP3    H1 7104   4.752   3.664   0.841  0.3453  0.7559  0.7505
 2380TIP3    H2 7105   4.633   3.577   0.875  0.3659 -0.1283 -1.3050
 2381TIP3   OH2 7106   4.552   3.400   3.095  0.1413  0.4474  0.3074
 2381TIP3    H1 7107   4.578   3.337   3.027  2.2154  0.4042  1.0732
 2381TIP3    H2 7108   4.490   3.458   3.051 -0.3302 -0.9312 -0.9640
 2382TIP3   OH2 7109   5.662   6.759   2.391 -0.5989  0.1657 -0.1773
 2382TIP3    H1 7110   5.647   6.673   2.351  0.5504  0.9146 -2.4104
 2382TIP3    H2 7111   5.584   6.810   2.367 -0.5944  0.1835 -0.1543
 2383TIP3   OH2 7112   3.909   5.958   2.375 -0.2669  0.4945  0.1326
 2383TIP3    H1 7113   3.866   6.029   2.423  0.9504  1.3493  0.0117
 2383TIP3    H2 7114   4.000   5.961   2.406 -0.3280 -1.4270  0.5778
 2384TIP3   OH2 7115   6.212   2.294   0.297  0.2155  0.0539 -0.0723
 2384TIP3    H1 7116   6.153   2.289   0.222 -2.0301 -2.0830  1.6353
 2384TIP3    H2 7117   6.300   2.288   0.259 -0.6894  1.2879 -2.6109
 2385TIP3   OH2 7118   2.973   1.813   1.977  0.1144  0.0045 -0.4910
 2385TIP3    H1 7119   3.049   1.786   1.925  0.0626 -0.3207 -0.3976
 2385TIP3    H2 7120   2.975   1.757   2.054  0.4290  0.7715  0.0731
 2386TIP3   OH2 7121   1.904   4.540   0.133 -0.2077 -0.7704 -0.2404
 2386TIP3    H1 7122   1.930   4.448   0.128  0.3878 -0.6535  0.5651
 2386TIP3    H2 7123   1.935   4.569   0.218  0.6192  0.4810 -0.9270
 2387TIP3   OH2 7124   6.139   0.016   1.221  0.6927  0.1910 -0.2023
 2387TIP3    H1 7125   6.209   0.035   1.159  0.9857 -0.3924 -0.0580
 2387TIP3    H2 7126   6.097   0.101   1.236  1.3586  0.5482 -0.3017
 2388TIP3   OH2 7127   3.573   4.876   5.464  0.4461  0.5768  0.3340
 2388TIP3    H1 7128   3.510   4.879   5.392  0.7467 -0.2133  0.0213
 2388TIP3    H2 7129   3.519   4.870   5.543 -0.0013 -2.9577 -0.0457
 2389TIP3   OH2 7130   2.431   0.231   3.493 -0.1918  0.2275  0.2595
 2389TIP3    H1 7131   2.389   0.190   3.568 -2.5352  1.4754 -0.2735
 2389TIP3    H2 7132   2.362   0.284   3.453  1.7542  1.9008 -1.0924
 2390TIP3   OH2 7133   0.988   2.438   1.740  0.8813 -0.5429 -0.3427
 2390TIP3    H1 7134   1.071   2.464   1.779  0.5963  1.4041 -0.9388
 2390TIP3    H2 7135   0.923   2.493   1.784  0.2276 -0.2295 -1.6705
 2391TIP3   OH2 7136   2.943   6.813   2.893 -0.9603 -0.0123 -0.0928
 2391TIP3    H1 7137   2.889   6.786   2.967 -0.0193 -3.3858 -0.4565
 2391TIP3    H2 7138   2.897   6.779   2.816 -1.1190  2.0627 -0.9917
 2392TIP3   OH2 7139   3.730   2.634   0.462 -0.1774 -0.5519 -0.5247
 2392TIP3    H1 7140   3.711   2.542   0.480  0.8834 -1.0950 -1.9912
 2392TIP3    H2 7141   3.656   2.681   0.501 -0.8986 -2.0337 -0.0026
 2393TIP3   OH2 7142   6.303   5.598   5.147 -0.0877  0.5737  0.2664
 2393TIP3    H1 7143   6.300   5.682   5.192 -2.1127  2.0511 -2.3043
 2393TIP3    H2 7144   6.390   5.594   5.108 -0.0617  1.6309  0.1943
 2394TIP3   OH2 7145   5.028   0.902   4.143  0.3353 -0.2638  0.1111
 2394TIP3    H1 7146   4.950   0.895   4.088  0.0568 -0.2462  0.5013
 2394TIP3    H2 7147   5.068   0.985   4.118  1.3931 -1.2401 -1.5982
 2395TIP3   OH2 7148   1.579   1.491   0.133 -0.5468  0.4554 -0.0060
 2395TIP3    H1 7149   1.495   1.453   0.106 -0.1619  0.4731 -1.2540
 2395TIP3    H2 7150   1.644   1.448   0.078  0.2433  0.6833  0.7223
 2396TIP3   OH2 7151   2.380   3.739   5.038  0.0035  0.7804  0.1204
 2396TIP3    H1 7152   2.445   3.708   5.100  0.1772  1.0012  0.0516
 2396TIP3    H2 7153   2.304   3.682   5.052  0.0115  0.8778  0.5872
 2397TIP3   OH2 7154   6.721   1.091   3.795  0.0147 -0.0359  0.4035
 2397TIP3    H1 7155   6.711   1.147   3.718 -0.6204 -0.3908  0.2203
 2397TIP3    H2 7156   6.645   1.111   3.850  0.0480 -0.3476  0.5703
 2398TIP3   OH2 7157   3.888   1.701   1.658  0.2549  0.1481  0.9675
 2398TIP3    H1 7158   3.960   1.651   1.619 -0.9216 -1.7055  1.0474
 2398TIP3    H2 7159   3.896   1.789   1.619  1.0962 -0.6972 -0.9023
 2399TIP3   OH2 7160   1.865   1.559   1.208 -0.1546 -0.0561 -0.0202
 2399TIP3    H1 7161   1.948   1.586   1.168 -0.9901  2.4462 -0.2718
 2399TIP3    H2 7162   1.799   1.593   1.148 -1.3773 -0.2276  1.1991
 2400TIP3   OH2 7163   2.691   1.856   5.698  0.2276  0.2809  0.0488
 2400TIP3    H1 7164   2.748   1.849   5.621 -1.6719 -0.8315 -1.3702
 2400TIP3    H2 7165   2.669   1.765   5.720 -1.0508  0.6678  0.4655
 2401TIP3   OH2 7166   2.216   2.124   3.963  0.4151 -0.6620  0.0402
 2401TIP3    H1 7167   2.255   2.210   3.949  1.4501 -1.4466 -2.5658
 2401TIP3    H2 7168   2.178   2.129   4.050  0.8855  2.2478  0.1944
 2402TIP3   OH2 7169   5.747   4.219   0.841  0.1964 -0.0086  0.1640
 2402TIP3    H1 7170   5.825   4.173   0.811  0.3492 -0.5414  1.3100
 2402TIP3    H2 7171   5.761   4.231   0.935 -0.5829  0.9238  0.1744
 2403TIP3   OH2 7172   5.386   3.059   5.722 -0.1898  0.4728 -0.5220
 2403TIP3    H1 7173   5.334   3.023   5.793 -0.1302  2.2298  0.4479
 2403TIP3    H2 7174   5.394   3.152   5.742  3.2475  0.3318 -0.6451
 2404TIP3   OH2 7175   6.740   3.419   5.648 -0.5658 -0.1249  0.1064
 2404TIP3    H1 7176   6.645   3.408   5.656 -0.1167 -4.1846  1.7631
 2404TIP3    H2 7177   6.775   3.392   5.732  2.1239  1.4614 -0.3910
 2405TIP3   OH2 7178   2.125   2.707   2.902  0.0603  0.1547 -0.4526
 2405TIP3    H1 7179   2.215   2.721   2.874 -0.2855  0.2283 -1.5677
 2405TIP3    H2 7180   2.102   2.787   2.950  0.6518  0.0401  0.0324
 2406TIP3   OH2 7181   2.651   4.861   2.577  0.1086  0.4277  0.7693
 2406TIP3    H1 7182   2.713   4.890   2.644  0.0444 -0.2823  1.1435
 2406TIP3    H2 7183   2.690   4.780   2.542 -0.9200 -0.3933  1.4688
 2407TIP3   OH2 7184   0.943   6.419   4.906 -0.3669  0.2003  0.6409
 2407TIP3    H1 7185   0.874   6.467   4.952 -0.8970 -1.4752  1.6629
 2407TIP3    H2 7186   0.907   6.331   4.892  1.5599 -0.7478  1.2629
 2408TIP3   OH2 7187   0.500   0.258   4.801 -0.6956 -0.2337  0.2302
 2408TIP3    H1 7188   0.581   0.228   4.760  0.2236  0.8326  1.2251
 2408TIP3    H2 7189   0.513   0.244   4.895 -2.1545 -1.1526  0.3418
 2409TIP3   OH2 7190   3.859   3.681   1.985 -0.2110 -0.1027 -0.1190
 2409TIP3    H1 7191   3.890   3.644   2.068 -0.6361 -0.2156 -0.0073
 2409TIP3    H2 7192   3.936   3.682   1.929 -0.0332 -0.4830  0.1163
 2410TIP3   OH2 7193   1.503   6.185   0.264 -0.6464  0.3061 -0.5239
 2410TIP3    H1 7194   1.449   6.175   0.342  0.1069 -1.3142 -0.1660
 2410TIP3    H2 7195   1.582   6.228   0.295 -0.6021  0.2148 -0.5095
 2411TIP3   OH2 7196   0.108   6.467   5.675 -0.4287  0.2746 -0.8758
 2411TIP3    H1 7197   0.194   6.435   5.647 -0.1519  0.3177 -0.1146
 2411TIP3    H2 7198   0.047   6.428   5.613 -0.1437 -2.0785  0.1920
 2412TIP3   OH2 7199   2.162   2.778   2.627  0.2708 -0.2206  0.6303
 2412TIP3    H1 7200   2.095   2.756   2.563  1.0478  0.8258 -0.5803
 2412TIP3    H2 7201   2.119   2.766   2.712 -1.0878 -0.6301 -0.0891
 2413TIP3   OH2 7202   0.230   3.282   5.824  0.0463 -0.1945  0.5588
 2413TIP3    H1 7203   0.315   3.239   5.822 -0.1552 -0.6166  0.9773
 2413TIP3    H2 7204   0.178   3.231   5.886  0.3374  1.6036  2.4172
 2414TIP3   OH2 7205   3.394   5.199   4.743 -0.4249  0.0572  0.3937
 2414TIP3    H1 7206   3.373   5.155   4.825  1.3009  0.2334  0.9701
 2414TIP3    H2 7207   3.319   5.182   4.687 -1.8297  0.2379  2.1136
 2415TIP3   OH2 7208   1.351   6.757   1.745 -0.4059 -0.2588 -0.2490
 2415TIP3    H1 7209   1.286   6.757   1.816 -1.1572  0.6150 -0.9091
 2415TIP3    H2 7210   1.332   6.678   1.695 -0.4164 -0.4431  0.0463
 2416TIP3   OH2 7211   2.728   4.715   0.607 -0.1143 -0.5842  0.7456
 2416TIP3    H1 7212   2.779   4.749   0.534 -0.0992 -0.5881  0.7542
 2416TIP3    H2 7213   2.650   4.770   0.609 -0.9487 -1.6789 -0.3410
 2417TIP3   OH2 7214   0.981   4.190   2.619  0.1966 -0.4981 -0.7668
 2417TIP3    H1 7215   1.075   4.200   2.603  0.2953 -1.8608 -1.1071
 2417TIP3    H2 7216   0.971   4.204   2.713  0.5844  0.6135 -0.8731
 2418TIP3   OH2 7217   1.527   0.410   2.822 -0.3645  0.0772 -0.3976
 2418TIP3    H1 7218   1.614   0.451   2.829 -0.8934  1.0527  0.6968
 2418TIP3    H2 7219   1.537   0.348   2.750  1.3367 -0.0714 -0.0967
 2419TIP3   OH2 7220   0.656   0.763   0.066  0.5570 -0.1607  0.2974
 2419TIP3    H1 7221   0.679   0.670   0.066  0.3616 -0.2409 -1.4499
 2419TIP3    H2 7222   0.572   0.767   0.113  1.4912 -0.5617  2.1044
 2420TIP3   OH2 7223   2.115   3.009   3.714  0.3049  0.5922  0.2045
 2420TIP3    H1 7224   2.094   3.101   3.696 -1.0402  0.3921  0.6871
 2420TIP3    H2 7225   2.064   2.960   3.649  1.0221  0.1716 -0.0554
 2421TIP3   OH2 7226   2.905   4.492   2.923 -0.3972 -0.0057 -0.7111
 2421TIP3    H1 7227   2.919   4.404   2.888  0.5368  0.2188 -0.9329
 2421TIP3    H2 7228   2.985   4.512   2.972 -0.4999  0.8035 -0.8470
 2422TIP3   OH2 7229   1.246   0.636   4.753 -0.3232 -0.4200 -0.1098
 2422TIP3    H1 7230   1.202   0.562   4.795  0.3615 -1.2243 -0.7484
 2422TIP3    H2 7231   1.339   0.618   4.767 -0.1081 -0.3216 -1.2940
 2423TIP3   OH2 7232   3.071   0.374   4.125  0.2309  0.0840  0.5894
 2423TIP3    H1 7233   3.059   0.423   4.043  0.3561  0.8160  1.0044
 2423TIP3    H2 7234   3.056   0.438   4.194  1.9649 -0.0828  1.1524
 2424TIP3   OH2 7235   3.252   4.583   3.665 -0.4528 -0.1223 -0.4540
 2424TIP3    H1 7236   3.286   4.598   3.576 -0.3452 -1.0482 -0.5849
 2424TIP3    H2 7237   3.186   4.514   3.653  0.3842 -1.0929  0.3379
 2425TIP3   OH2 7238   1.553   6.029   2.979 -0.2116 -0.7300  0.5307
 2425TIP3    H1 7239   1.565   6.113   3.023  0.0011  0.2326 -1.2389
 2425TIP3    H2 7240   1.642   6.004   2.952 -0.4269 -0.7986 -0.1493
 2426TIP3   OH2 7241   3.300   4.839   5.022 -0.3546  0.0750  0.5288
 2426TIP3    H1 7242   3.349   4.781   4.964 -1.0656 -0.8256  0.7840
 2426TIP3    H2 7243   3.239   4.780   5.067 -0.2784  0.8444  1.6916
 2427TIP3   OH2 7244   4.434   2.151   3.151 -0.1056 -0.0070 -0.1504
 2427TIP3    H1 7245   4.396   2.114   3.071 -0.1448 -0.4521  0.0742
 2427TIP3    H2 7246   4.376   2.122   3.221  0.9654 -1.1943  0.2770
 2428TIP3   OH2 7247   4.606   1.973   2.851  0.0199  0.1761  0.1140
 2428TIP3    H1 7248   4.617   1.885   2.814  2.5652  0.7706 -0.7735
 2428TIP3    H2 7249   4.655   2.030   2.791  1.4368  1.6887  2.5563
 2429TIP3   OH2 7250   5.614   1.981   5.038  0.4810 -0.4250 -0.3068
 2429TIP3    H1 7251   5.656   1.898   5.015  0.9348 -0.3734  0.3090
 2429TIP3    H2 7252   5.567   2.008   4.959  0.2426 -1.3219 -0.4766
 2430TIP3   OH2 7253   7.068   4.102   1.253  0.1191  0.4742 -0.4817
 2430TIP3    H1 7254   7.002   4.123   1.319  0.1147  0.4494 -0.4779
 2430TIP3    H2 7255   7.019   4.095   1.171  0.0005 -0.2768 -0.3555
 2431TIP3   OH2 7256   5.386   6.762   5.247  0.0179  0.1212  0.7700
 2431TIP3    H1 7257   5.364   6.672   5.270 -1.7034  0.3390  0.1023
 2431TIP3    H2 7258   5.446   6.790   5.316  0.6490 -1.5404  0.9523
 2432TIP3   OH2 7259   2.552   2.030   4.533  0.2420 -0.3265  0.0123
 2432TIP3    H1 7260   2.550   2.035   4.437 -0.0356  0.1435  0.0394
 2432TIP3    H2 7261   2.644   2.039   4.555  0.2318  0.3035 -0.1798
 2433TIP3   OH2 7262   3.453   2.937   4.173 -0.3865 -0.5740 -0.0520
 2433TIP3    H1 7263   3.539   2.975   4.159 -0.5156  0.3592  1.5021
 2433TIP3    H2 7264   3.433   2.955   4.264 -2.1767 -0.8991 -0.3362
 2434TIP3   OH2 7265   6.941   2.326   5.023  0.2620 -0.3691  0.1263
 2434TIP3    H1 7266   6.984   2.240   5.033 -1.1491 -1.1652 -0.4288
 2434TIP3    H2 7267   6.923   2.354   5.113  2.4439  0.2835  0.4156
 2435TIP3   OH2 7268   6.565   5.004   5.867  0.5008 -0.4485  0.0557
 2435TIP3    H1 7269   6.542   4.919   5.906 -1.8219  0.0916 -0.0027
 2435TIP3    H2 7270   6.523   5.004   5.782 -2.3254  1.9120  1.2777
 2436TIP3   OH2 7271   0.743   0.683   5.180  0.0053 -0.0400  0.5351
 2436TIP3    H1 7272   0.765   0.744   5.250 -1.0532  1.8528 -0.6965
 2436TIP3    H2 7273   0.782   0.721   5.101 -1.0092 -0.7372 -0.3416
 2437TIP3   OH2 7274   0.119   3.220   3.683  0.3402 -0.1755 -0.7023
 2437TIP3    H1 7275   0.148   3.306   3.713 -1.0961  0.3228 -0.6674
 2437TIP3    H2 7276   0.146   3.217   3.591  2.5897 -0.7318 -0.0993
 2438TIP3   OH2 7277   3.014   5.359   4.910  0.1121 -0.1082  0.1034
 2438TIP3    H1 7278   3.054   5.310   4.982  1.1768  0.4392 -0.0978
 2438TIP3    H2 7279   2.999   5.447   4.946 -1.0866 -0.3501  0.2278
 2439TIP3   OH2 7280   0.167   5.303   0.821 -0.6654  0.5392 -0.0519
 2439TIP3    H1 7281   0.191   5.225   0.770  1.4389  1.4211 -0.5262
 2439TIP3    H2 7282   0.125   5.361   0.758 -0.1173  0.7170 -0.2579
 2440TIP3   OH2 7283   2.934   5.778   1.841 -0.6008  0.2337 -0.1950
 2440TIP3    H1 7284   2.977   5.701   1.879  0.8337  0.7093 -0.7740
 2440TIP3    H2 7285   2.860   5.743   1.792 -0.3480 -0.7097  0.0764
 2441TIP3   OH2 7286   1.399   0.210   4.449 -0.5782  0.1983  0.2406
 2441TIP3    H1 7287   1.428   0.299   4.432  0.2810 -0.2354 -0.5820
 2441TIP3    H2 7288   1.467   0.154   4.413 -2.3312 -0.8535 -1.6781
 2442TIP3   OH2 7289   2.236   3.572   0.718  0.0251  0.0714  0.8290
 2442TIP3    H1 7290   2.323   3.545   0.750  1.1990  2.5571 -0.0085
 2442TIP3    H2 7291   2.242   3.561   0.623 -0.2871  0.9578  0.6995
 2443TIP3   OH2 7292   2.890   4.678   4.314  0.1751 -0.2010 -0.4996
 2443TIP3    H1 7293   2.976   4.703   4.348  0.2539  0.6635 -1.2932
 2443TIP3    H2 7294   2.849   4.761   4.289 -1.5069 -0.4444  1.1984
 2444TIP3   OH2 7295   1.326   5.939   5.337 -0.9607  0.0411  0.1826
 2444TIP3    H1 7296   1.303   5.956   5.429  0.2150  2.5937  0.0960
 2444TIP3    H2 7297   1.398   5.999   5.319  0.7778 -2.4134 -1.6555
 2445TIP3   OH2 7298   5.188   5.291   5.202 -0.0304  1.1219  0.4002
 2445TIP3    H1 7299   5.197   5.201   5.173 -0.4247  1.2602 -0.1766
 2445TIP3    H2 7300   5.273   5.331   5.183 -0.2636  1.1950 -0.5389
 2446TIP3   OH2 7301   1.151   2.708   1.563  0.2707 -0.2307  0.3659
 2446TIP3    H1 7302   1.192   2.756   1.491  0.2581  1.7752  1.6195
 2446TIP3    H2 7303   1.210   2.635   1.580  0.3379 -0.6753 -1.5582
 2447TIP3   OH2 7304   6.403   2.826   3.696 -0.5717  0.3498  0.3674
 2447TIP3    H1 7305   6.341   2.755   3.708  0.4296 -0.7241 -0.5671
 2447TIP3    H2 7306   6.383   2.887   3.767 -1.2783 -0.9809  1.3681
 2448TIP3   OH2 7307   5.826   2.673   1.320  0.3583  0.1887 -0.0202
 2448TIP3    H1 7308   5.825   2.749   1.377 -0.0397 -0.3807  0.7319
 2448TIP3    H2 7309   5.850   2.600   1.377 -2.0602 -0.7542 -0.1126
 2449TIP3   OH2 7310   4.274   3.785   0.586  0.6004  0.1237  0.1370
 2449TIP3    H1 7311   4.321   3.807   0.666  0.5384 -0.2222  0.2724
 2449TIP3    H2 7312   4.333   3.812   0.515  1.0088 -0.3124  0.3041
 2450TIP3   OH2 7313   2.680   3.914   3.987 -0.6786 -0.0288  0.7182
 2450TIP3    H1 7314   2.729   3.835   3.964 -0.7909  0.0567  0.1538
 2450TIP3    H2 7315   2.669   3.960   3.903 -1.1961  0.2518  0.9376
 2451TIP3   OH2 7316   0.410   2.239   5.550 -0.0408  0.4591 -0.1687
 2451TIP3    H1 7317   0.473   2.246   5.621  0.6521  0.9663 -0.8160
 2451TIP3    H2 7318   0.339   2.299   5.575  0.5131  1.1489 -0.2073
 2452TIP3   OH2 7319   2.567   6.170   0.561 -0.2253 -0.2697 -0.7469
 2452TIP3    H1 7320   2.496   6.165   0.497 -0.1457  1.2932 -1.0025
 2452TIP3    H2 7321   2.623   6.096   0.541 -1.0033 -0.6745 -1.5038
 2453TIP3   OH2 7322   1.900   3.572   1.292  0.6975  0.1609  0.4165
 2453TIP3    H1 7323   1.948   3.552   1.212  0.2925  0.2862  0.1427
 2453TIP3    H2 7324   1.814   3.603   1.263  0.2857 -0.4747  0.9072
 2454TIP3   OH2 7325   0.067   1.140   0.344  0.2716 -0.1391  0.1445
 2454TIP3    H1 7326   0.048   1.121   0.435  2.3032  0.5343  0.7739
 2454TIP3    H2 7327   0.161   1.121   0.335 -0.2207 -1.8332 -2.2527
 2455TIP3   OH2 7328   3.467   1.554   4.887  0.0483  0.3683 -0.3728
 2455TIP3    H1 7329   3.381   1.560   4.927 -0.1040 -0.5486 -0.5387
 2455TIP3    H2 7330   3.496   1.464   4.905  1.3376  0.9034  0.4196
 2456TIP3   OH2 7331   0.607   4.668   4.104  0.2317  0.3386  0.5572
 2456TIP3    H1 7332   0.584   4.746   4.053 -0.6311 -0.7100 -0.7028
 2456TIP3    H2 7333   0.665   4.618   4.047  1.5707  0.4765  1.7376
 2457TIP3   OH2 7334   0.088   5.813   5.878  0.0126  0.4910 -0.1493
 2457TIP3    H1 7335   0.120   5.761   5.952  0.0132 -0.0945 -0.5555
 2457TIP3    H2 7336   0.124   5.770   5.800 -0.3107  0.8690 -0.5167
 2458TIP3   OH2 7337   1.817   6.215   0.552  0.1408  0.1278 -0.6310
 2458TIP3    H1 7338   1.868   6.134   0.539  0.9733  0.8894 -2.5211
 2458TIP3    H2 7339   1.838   6.268   0.476 -2.7420  0.9282 -0.9561
 2459TIP3   OH2 7340   6.562   2.055   5.812 -0.2260  0.4019  0.2689
 2459TIP3    H1 7341   6.575   1.974   5.762 -0.9538 -0.4420  1.4040
 2459TIP3    H2 7342   6.634   2.112   5.784 -2.2927  1.2975 -4.2075
 2460TIP3   OH2 7343   6.607   0.308   4.133  0.3656 -0.6817 -0.5886
 2460TIP3    H1 7344   6.515   0.310   4.105  0.7989 -0.4881 -2.1042
 2460TIP3    H2 7345   6.604   0.273   4.222 -1.0687 -1.9973 -1.0964
 2461TIP3   OH2 7346   6.315   4.386   1.947  0.2608 -0.1258  0.6001
 2461TIP3    H1 7347   6.345   4.364   2.035 -0.0662  0.9373  0.9884
 2461TIP3    H2 7348   6.358   4.469   1.927  0.0176 -0.1617 -0.0897
 2462TIP3   OH2 7349   1.603   5.126   3.926 -0.0583 -0.4031  0.4741
 2462TIP3    H1 7350   1.650   5.174   3.994 -0.8873  0.9713  0.1188
 2462TIP3    H2 7351   1.600   5.186   3.852  0.7737 -1.8514 -0.7832
 2463TIP3   OH2 7352   3.949   2.749   0.801  0.1174 -0.1511  0.3252
 2463TIP3    H1 7353   3.988   2.695   0.731 -0.4864 -0.0908 -0.0675
 2463TIP3    H2 7354   3.897   2.687   0.851  0.5272 -0.1876  0.7124
 2464TIP3   OH2 7355   0.840   3.662   3.879 -0.1011  0.0031  0.0816
 2464TIP3    H1 7356   0.921   3.675   3.930  1.4334 -0.0341 -2.2018
 2464TIP3    H2 7357   0.774   3.642   3.945  1.4374  1.2970  2.1799
 2465TIP3   OH2 7358   1.072   2.829   3.591  0.1850  0.3082  0.1313
 2465TIP3    H1 7359   1.089   2.920   3.567 -1.5790  0.4109 -0.8932
 2465TIP3    H2 7360   0.990   2.833   3.640  0.4519 -0.6690  0.6746
 2466TIP3   OH2 7361   6.752   4.048   0.612  0.3875 -0.0385  0.2031
 2466TIP3    H1 7362   6.677   4.051   0.553 -0.8802 -1.7823  1.5818
 2466TIP3    H2 7363   6.807   4.122   0.586 -1.1767  0.5524 -1.6729
 2467TIP3   OH2 7364   1.500   0.180   0.614  0.1869 -0.1634  0.1972
 2467TIP3    H1 7365   1.542   0.262   0.586 -1.6697  0.7046 -0.2114
 2467TIP3    H2 7366   1.504   0.183   0.709 -0.7840  0.9838  0.2432
 2468TIP3   OH2 7367   6.384   2.909   0.997 -0.0974 -0.2631 -0.1833
 2468TIP3    H1 7368   6.425   2.936   0.915 -0.6462 -0.0147 -0.3780
 2468TIP3    H2 7369   6.310   2.969   1.008  0.0663 -0.1911  0.5759
 2469TIP3   OH2 7370   5.250   0.575   3.721 -0.2210 -0.1852  0.5310
 2469TIP3    H1 7371   5.315   0.643   3.707 -0.9379  0.0685 -2.0328
 2469TIP3    H2 7372   5.166   0.618   3.704 -0.7497 -1.4575 -0.2194
 2470TIP3   OH2 7373   3.432   3.270   5.199  0.0987  0.5449 -0.4098
 2470TIP3    H1 7374   3.396   3.255   5.286 -1.3384 -1.4893 -1.2629
 2470TIP3    H2 7375   3.517   3.226   5.200  0.1101  0.5740 -0.0193
 2471TIP3   OH2 7376   6.070   0.039   0.870 -0.4870 -0.4249 -0.4380
 2471TIP3    H1 7377   6.037  -0.006   0.948 -0.2771 -0.6299 -0.4682
 2471TIP3    H2 7378   6.164   0.045   0.884 -0.7003  1.7987  0.5233
 2472TIP3   OH2 7379   4.993   6.623   4.325 -0.6525 -0.5734  0.3756
 2472TIP3    H1 7380   4.959   6.647   4.238  0.1940  0.9536  0.4259
 2472TIP3    H2 7381   4.962   6.694   4.382  1.0129 -0.1401  0.7769
 2473TIP3   OH2 7382   4.681   2.708   5.657  0.1610  0.7811 -0.1456
 2473TIP3    H1 7383   4.660   2.797   5.629  0.3898  1.0867  0.6307
 2473TIP3    H2 7384   4.621   2.652   5.608 -2.3031  1.5919  1.7143
 2474TIP3   OH2 7385   2.623   0.706   3.519  0.3432 -0.0073  0.0742
 2474TIP3    H1 7386   2.709   0.728   3.553  0.1933  0.6374  0.0444
 2474TIP3    H2 7387   2.640   0.643   3.448  0.8630  0.8389 -0.5753
 2475TIP3   OH2 7388   6.508   0.928   1.559  0.1925 -0.2024  0.4353
 2475TIP3    H1 7389   6.544   1.012   1.589  0.6875 -0.4574  0.5568
 2475TIP3    H2 7390   6.431   0.953   1.507  0.0791  0.3042  0.8380
 2476TIP3   OH2 7391   4.009   1.071   5.281 -0.1089  0.3767 -0.3649
 2476TIP3    H1 7392   3.993   1.117   5.198  0.5172  1.2823  0.0004
 2476TIP3    H2 7393   4.085   1.115   5.318 -0.7366  0.3710  0.9833
 2477TIP3   OH2 7394   3.954   2.338   5.436  0.4839 -1.2061 -0.1348
 2477TIP3    H1 7395   3.884   2.279   5.462 -1.3956  0.9312 -0.1033
 2477TIP3    H2 7396   3.929   2.368   5.348  0.1773  1.1592  0.6733
 2478TIP3   OH2 7397   7.116   4.829   3.409  0.0506  0.1414 -0.0182
 2478TIP3    H1 7398   7.087   4.740   3.386 -0.4279 -0.0389  1.2237
 2478TIP3    H2 7399   7.158   4.861   3.329  0.9798 -1.5125 -0.2476
 2479TIP3   OH2 7400   1.422   2.542   2.047 -0.4424 -0.5399 -0.5109
 2479TIP3    H1 7401   1.492   2.561   2.110  1.0627 -0.6001 -2.0768
 2479TIP3    H2 7402   1.341   2.559   2.095  0.6329 -0.5427  1.4065
 2480TIP3   OH2 7403   0.690   6.046   5.150  0.0789 -0.1154 -0.6554
 2480TIP3    H1 7404   0.777   6.084   5.141  0.8978 -1.8360 -0.3947
 2480TIP3    H2 7405   0.696   5.990   5.228 -1.0780 -0.6985 -0.9550
 2481TIP3   OH2 7406   1.090   0.201   4.812  0.2309  0.5584 -0.0535
 2481TIP3    H1 7407   1.061   0.168   4.727 -2.0648  2.2520 -0.0199
 2481TIP3    H2 7408   1.155   0.268   4.790  1.7921 -0.9703 -0.2900
 2482TIP3   OH2 7409   6.212   1.756   4.197  0.3688 -0.1841  0.3103
 2482TIP3    H1 7410   6.269   1.696   4.245 -0.6816 -0.1907  1.5961
 2482TIP3    H2 7411   6.256   1.841   4.203 -0.0880 -0.0432  1.9068
 2483TIP3   OH2 7412   0.969   2.860   3.263  0.1279 -0.2944 -0.5793
 2483TIP3    H1 7413   1.050   2.811   3.276 -0.0346 -0.3196  0.4296
 2483TIP3    H2 7414   0.925   2.857   3.348  0.1940  1.7344 -0.4229
 2484TIP3   OH2 7415   2.263   2.429   3.990  0.4702  0.8530 -0.3948
 2484TIP3    H1 7416   2.254   2.518   4.025 -0.8649  1.0848 -1.2640
 2484TIP3    H2 7417   2.260   2.441   3.895  0.9696 -0.0648 -0.5346
 2485TIP3   OH2 7418   0.785   5.118   0.036  0.4006 -0.2603  0.1854
 2485TIP3    H1 7419   0.813   5.206   0.063  0.4463 -0.8230  2.1585
 2485TIP3    H2 7420   0.690   5.120   0.042  0.4500 -0.7839  1.9775
 2486TIP3   OH2 7421   1.033   5.533   4.303  0.3697  0.1356  0.2630
 2486TIP3    H1 7422   1.017   5.471   4.231  2.2928  0.5173 -0.5414
 2486TIP3    H2 7423   0.945   5.553   4.336 -0.4602 -1.2728 -0.9316
 2487TIP3   OH2 7424   2.959   6.020   0.593 -0.0260  0.5142  0.3140
 2487TIP3    H1 7425   2.962   5.978   0.679 -0.0582  2.0281  1.0880
 2487TIP3    H2 7426   2.878   6.071   0.594  0.2798  1.0344 -0.3898
 2488TIP3   OH2 7427   2.010   0.293   4.198  0.6719  0.1564  0.1327
 2488TIP3    H1 7428   1.933   0.247   4.166  0.7035 -0.4865  0.9419
 2488TIP3    H2 7429   2.072   0.223   4.220  1.4614  0.6598 -0.4413
 2489TIP3   OH2 7430   2.900   5.132   4.481 -0.7620  0.6129  0.2996
 2489TIP3    H1 7431   2.834   5.066   4.461 -1.1035  1.1532 -0.4152
 2489TIP3    H2 7432   2.860   5.187   4.549  0.3111 -1.0908  2.4095
 2490TIP3   OH2 7433   1.127   1.259   2.375 -0.1133  0.0704  0.4951
 2490TIP3    H1 7434   1.094   1.207   2.302 -0.4900  1.1801 -0.1486
 2490TIP3    H2 7435   1.152   1.195   2.442 -0.0862 -0.9402 -0.4711
 2491TIP3   OH2 7436  -0.016   3.042   3.001  0.3188  0.6397  0.4108
 2491TIP3    H1 7437  -0.050   3.073   3.085  1.0446  0.4250  0.7943
 2491TIP3    H2 7438   0.072   3.079   2.995  0.5449  0.0654  0.0787
 2492TIP3   OH2 7439   6.208   0.704   1.016 -0.0932 -0.1308 -0.0451
 2492TIP3    H1 7440   6.178   0.788   0.980  0.8001 -0.1051 -0.7710
 2492TIP3    H2 7441   6.144   0.640   0.985 -1.2200  0.3778  1.1602
 2493TIP3   OH2 7442   5.980   4.603   3.648  0.3335 -0.3370 -0.2240
 2493TIP3    H1 7443   6.011   4.690   3.623 -0.6831  0.2090  0.3366
 2493TIP3    H2 7444   5.891   4.599   3.613 -0.8610  0.1580  2.4565
 2494TIP3   OH2 7445   3.070   5.476   1.742 -0.3585  0.6090 -0.4291
 2494TIP3    H1 7446   3.149   5.513   1.702  0.0856  0.6662  0.4858
 2494TIP3    H2 7447   3.093   5.385   1.762  0.3661  1.2668  2.0836
 2495TIP3   OH2 7448   2.018   1.813   5.769  0.3143  0.1844 -0.2215
 2495TIP3    H1 7449   1.953   1.743   5.761  2.4024 -1.7220 -1.8312
 2495TIP3    H2 7450   2.067   1.791   5.849  0.1655  0.5390 -0.0325
 2496TIP3   OH2 7451   2.941   1.090   2.099 -0.2863  0.0526  0.2343
 2496TIP3    H1 7452   2.882   1.015   2.091 -1.2845  0.8902 -0.5774
 2496TIP3    H2 7453   3.013   1.058   2.153 -1.1616 -1.1993  0.7183
 2497TIP3   OH2 7454   5.043   2.294   1.742 -0.1221  0.1608  0.2221
 2497TIP3    H1 7455   4.968   2.237   1.724 -1.0064  1.3910 -0.1024
 2497TIP3    H2 7456   5.116   2.233   1.756 -1.0603 -1.0518  0.0524
 2498TIP3   OH2 7457   1.937   5.081   3.594  0.9893 -0.4805 -0.6865
 2498TIP3    H1 7458   1.935   5.012   3.661  0.0495 -0.0427 -0.2379
 2498TIP3    H2 7459   2.029   5.089   3.570  1.3160 -0.7768  0.4132
 2499TIP3   OH2 7460   1.716   0.825   2.894  0.6052  0.4875 -0.2220
 2499TIP3    H1 7461   1.633   0.779   2.903  1.0982 -0.2239  0.8885
 2499TIP3    H2 7462   1.694   0.918   2.908  0.3117  0.0889  2.4538
 2500TIP3   OH2 7463   2.777   0.941   3.066  0.3491  0.2342  0.0747
 2500TIP3    H1 7464   2.711   0.909   3.127  0.7071 -0.5772  0.0415
 2500TIP3    H2 7465   2.803   0.864   3.015 -2.0027  1.3160 -3.1102
 2501TIP3   OH2 7466   6.908   3.234   2.092  0.5255 -0.5205 -0.6028
 2501TIP3    H1 7467   7.002   3.238   2.074  0.5473 -1.7363 -0.8436
 2501TIP3    H2 7468   6.896   3.151   2.138 -0.3800 -0.1862 -0.2164
 2502TIP3   OH2 7469   3.011   2.048   0.448  0.0854 -0.5465  0.4365
 2502TIP3    H1 7470   2.926   2.026   0.487 -0.3639 -1.7081 -1.0997
 2502TIP3    H2 7471   3.002   2.139   0.419 -0.4123 -0.4645  0.8412
 2503TIP3   OH2 7472   6.863   0.017   3.753  0.0315  0.2186  0.2865
 2503TIP3    H1 7473   6.845   0.068   3.831 -1.9926 -0.2546  0.1699
 2503TIP3    H2 7474   6.871   0.081   3.682  1.4317  0.6107  0.7674
 2504TIP3   OH2 7475   5.141   0.604   5.488  0.4681  0.4039 -0.3493
 2504TIP3    H1 7476   5.210   0.623   5.424 -0.6097  0.6532 -1.4740
 2504TIP3    H2 7477   5.116   0.513   5.470  1.3585 -0.1199  0.9131
 2505TIP3   OH2 7478   4.183   4.579   1.382 -0.1587 -0.1102 -0.2343
 2505TIP3    H1 7479   4.199   4.485   1.389  0.2133 -0.0339  0.0000
 2505TIP3    H2 7480   4.223   4.616   1.461 -0.2799  0.2465 -0.3374
 2506TIP3   OH2 7481   2.415   3.983   0.466 -0.4957  0.2404  0.0200
 2506TIP3    H1 7482   2.346   3.945   0.520 -1.1945  2.3088  0.7018
 2506TIP3    H2 7483   2.381   3.976   0.376 -0.8355 -0.2603  0.1830
 2507TIP3   OH2 7484   3.733   2.241   2.898  0.0200  0.0120  0.3054
 2507TIP3    H1 7485   3.811   2.288   2.867  0.6901  0.1019  2.0473
 2507TIP3    H2 7486   3.685   2.220   2.818  1.3246  0.8376 -0.7393
 2508TIP3   OH2 7487   1.017   4.590   3.984 -0.1856  0.7441  0.3120
 2508TIP3    H1 7488   1.073   4.592   4.061 -0.4868  0.3278  0.5541
 2508TIP3    H2 7489   1.034   4.504   3.944 -1.2898  0.2232  0.8962
 2509TIP3   OH2 7490   4.106   4.473   5.600 -0.0188  0.1657  0.1977
 2509TIP3    H1 7491   4.164   4.547   5.621 -1.3008  1.2315  0.1226
 2509TIP3    H2 7492   4.149   4.397   5.639  1.3589  0.9314  0.2507
 2510TIP3   OH2 7493   6.376   0.099   2.562 -0.5318 -0.1638 -0.2620
 2510TIP3    H1 7494   6.435   0.070   2.492  0.3294 -0.0360  0.3975
 2510TIP3    H2 7495   6.345   0.185   2.532 -0.3132 -0.1890 -0.5686
 2511TIP3   OH2 7496   4.285   0.430   3.613 -0.7481  0.7151 -0.1349
 2511TIP3    H1 7497   4.219   0.361   3.604 -1.0425  0.8606  0.8017
 2511TIP3    H2 7498   4.321   0.440   3.525  0.8115 -2.1469  0.0310
 2512TIP3   OH2 7499   2.005   1.025   1.357  0.5743 -0.4553  0.0724
 2512TIP3    H1 7500   2.092   1.040   1.322  0.2197  0.0512 -0.6120
 2512TIP3    H2 7501   1.946   1.055   1.288 -0.1598  1.4321  1.4355
 2513TIP3   OH2 7502   4.798   6.443   3.184  0.2089  0.4742 -0.3284
 2513TIP3    H1 7503   4.768   6.402   3.265 -1.2433  1.7730 -0.1634
 2513TIP3    H2 7504   4.889   6.414   3.175 -0.2284 -1.3560  0.6565
 2514TIP3   OH2 7505   3.756   0.117   0.217  0.0480  0.0632 -0.5655
 2514TIP3    H1 7506   3.731   0.034   0.177  0.8103 -0.7832  0.6354
 2514TIP3    H2 7507   3.716   0.184   0.161 -0.6767 -1.1041 -1.4939
 2515TIP3   OH2 7508   6.299   4.564   1.658  0.3702  0.3514 -0.3318
 2515TIP3    H1 7509   6.332   4.474   1.667 -0.0625  0.3335  1.6670
 2515TIP3    H2 7510   6.334   4.594   1.574  0.8748 -1.5310 -0.8541
 2516TIP3   OH2 7511   0.424   3.581   1.234 -0.1737  0.6746 -0.3049
 2516TIP3    H1 7512   0.349   3.636   1.258 -0.0807  1.0057 -0.7641
 2516TIP3    H2 7513   0.483   3.587   1.309  0.6316  2.6034 -1.0327
 2517TIP3   OH2 7514   4.601   3.524   1.264  0.0786 -0.4618  1.2584
 2517TIP3    H1 7515   4.514   3.484   1.255 -0.2106  0.1694  1.2324
 2517TIP3    H2 7516   4.584   3.610   1.301  0.5625  0.2405 -0.0909
 2518TIP3   OH2 7517   0.304   2.329   4.442 -0.1835  0.1698  0.3301
 2518TIP3    H1 7518   0.349   2.246   4.428  0.2052  0.0983  1.8729
 2518TIP3    H2 7519   0.266   2.350   4.356 -0.3093 -1.5955 -0.0901
 2519TIP3   OH2 7520   2.823   5.936   1.117  0.2456 -0.8547 -0.0754
 2519TIP3    H1 7521   2.758   5.925   1.186  0.5206 -0.0618  0.3272
 2519TIP3    H2 7522   2.787   5.888   1.043  0.9124 -3.5395  1.1987
 2520TIP3   OH2 7523   3.815   1.544   0.491  0.0044 -0.1148 -0.6839
 2520TIP3    H1 7524   3.783   1.590   0.569 -0.8804 -0.5364 -0.7917
 2520TIP3    H2 7525   3.900   1.510   0.518  0.4995  1.2135 -0.4688
 2521TIP3   OH2 7526   3.710   5.298   0.662  0.0959 -0.3310 -0.3202
 2521TIP3    H1 7527   3.652   5.241   0.713  0.8991 -0.3600  0.5950
 2521TIP3    H2 7528   3.774   5.330   0.726  0.9384 -0.1019 -1.2543
 2522TIP3   OH2 7529   5.640   6.608   3.042  0.3159  0.1507 -0.4648
 2522TIP3    H1 7530   5.678   6.681   3.093 -0.4876  0.2879 -0.0486
 2522TIP3    H2 7531   5.692   6.606   2.962  0.1456  1.4046 -0.6327
 2523TIP3   OH2 7532   1.689   2.691   2.438 -0.1997  0.0448 -0.0037
 2523TIP3    H1 7533   1.624   2.755   2.468  0.9109  1.0844  0.2323
 2523TIP3    H2 7534   1.702   2.633   2.513  0.5549  0.9987  0.6233
 2524TIP3   OH2 7535   6.641   4.760   1.676  0.2306 -0.0886 -0.1506
 2524TIP3    H1 7536   6.610   4.846   1.707 -0.5599 -0.0498 -1.0071
 2524TIP3    H2 7537   6.693   4.726   1.749 -0.0370  0.8098  0.4821
 2525TIP3   OH2 7538   6.203   4.051   4.028 -0.2679 -0.1071  0.0562
 2525TIP3    H1 7539   6.245   4.136   4.045  0.2956 -0.2217 -0.7104
 2525TIP3    H2 7540   6.241   4.022   3.945  0.5439 -1.7432  0.9440
 2526TIP3   OH2 7541   7.143   1.872   2.048 -0.1000 -0.0642 -0.0432
 2526TIP3    H1 7542   7.048   1.879   2.044 -0.2879 -1.5352  0.9496
 2526TIP3    H2 7543   7.173   1.961   2.067 -1.3515  0.2348  0.6216
 2527TIP3   OH2 7544   1.305   5.220   0.552 -0.0242  0.0923 -0.3524
 2527TIP3    H1 7545   1.241   5.154   0.527 -0.6219  0.5912 -0.1813
 2527TIP3    H2 7546   1.386   5.172   0.566 -0.2293 -0.4790 -1.0829
 2528TIP3   OH2 7547   4.369   3.153   1.483  0.0909 -0.2659 -0.2396
 2528TIP3    H1 7548   4.354   3.121   1.572  1.1744  0.1642  0.1103
 2528TIP3    H2 7549   4.464   3.149   1.472 -0.0519 -0.6430 -1.5057
 2529TIP3   OH2 7550   0.442   3.976   2.849 -0.0398 -0.8213  0.2000
 2529TIP3    H1 7551   0.362   3.928   2.870 -0.2479 -0.4495  0.2714
 2529TIP3    H2 7552   0.501   3.910   2.814 -0.4885 -1.0477 -0.1410
 2530TIP3   OH2 7553   4.518   1.174   4.021  0.1118  0.4636  0.4554
 2530TIP3    H1 7554   4.452   1.114   4.055 -1.4856  1.7303 -0.2329
 2530TIP3    H2 7555   4.526   1.151   3.929 -0.6150  1.3268  0.1535
 2531TIP3   OH2 7556   6.374   1.349   3.676  0.2366 -0.0672  0.6076
 2531TIP3    H1 7557   6.400   1.257   3.691 -2.2797 -0.7945  0.9431
 2531TIP3    H2 7558   6.368   1.357   3.581  0.6706 -0.1816  0.5670
 2532TIP3   OH2 7559   1.548   4.306   1.754  0.0199 -0.4864  0.0561
 2532TIP3    H1 7560   1.459   4.339   1.761  0.5652  1.2596 -0.7368
 2532TIP3    H2 7561   1.550   4.261   1.669  0.6869  2.3065 -1.5214
 2533TIP3   OH2 7562   7.023   1.816   2.413 -0.3809  0.1674  0.1847
 2533TIP3    H1 7563   7.072   1.734   2.417  0.6428  0.5933 -1.9700
 2533TIP3    H2 7564   7.090   1.884   2.410 -1.0905  0.8502 -1.4604
 2534TIP3   OH2 7565   3.445   5.327   1.841  0.8198  0.8534  0.2162
 2534TIP3    H1 7566   3.424   5.420   1.853 -1.2768  0.4284  0.3404
 2534TIP3    H2 7567   3.416   5.308   1.752  0.9371  0.2575  0.3044
 2535TIP3   OH2 7568   3.068   6.520   3.256 -0.3566  0.1980 -0.2011
 2535TIP3    H1 7569   3.120   6.449   3.292 -0.4761 -0.1496 -0.7099
 2535TIP3    H2 7570   3.082   6.593   3.317 -2.2082 -0.9608  1.7681
 2536TIP3   OH2 7571   5.598   1.960   5.715  1.0258  0.0811 -0.8802
 2536TIP3    H1 7572   5.621   2.011   5.637 -1.7955  0.5883 -1.4898
 2536TIP3    H2 7573   5.556   1.881   5.681 -1.7523  1.0629  0.0035
 2537TIP3   OH2 7574   4.293   6.354   2.488 -0.1569 -0.0543  0.3451
 2537TIP3    H1 7575   4.301   6.269   2.444  1.1692  0.2932 -0.1133
 2537TIP3    H2 7576   4.364   6.406   2.453 -0.7286  1.1388  0.9102
 2538TIP3   OH2 7577   2.148   2.811   4.338 -0.1502  0.1190 -0.3645
 2538TIP3    H1 7578   2.226   2.807   4.394  0.2848 -1.1067 -1.0037
 2538TIP3    H2 7579   2.076   2.788   4.397  0.0932  0.3236  0.0233
 2539TIP3   OH2 7580   6.300   4.149   3.103  0.5573  0.2144  0.4629
 2539TIP3    H1 7581   6.378   4.101   3.075  0.0810  0.3898 -1.3216
 2539TIP3    H2 7582   6.285   4.121   3.193  2.1879 -0.4487  0.5687
 2540TIP3   OH2 7583   2.145   1.477   5.119  0.6307  0.0367  0.1674
 2540TIP3    H1 7584   2.217   1.458   5.179 -0.1779 -0.2529  1.0843
 2540TIP3    H2 7585   2.082   1.526   5.173 -0.2081 -0.4148 -0.3812
 2541TIP3   OH2 7586   1.437   0.839   3.003 -0.4585 -0.0837 -0.1523
 2541TIP3    H1 7587   1.341   0.847   3.000 -0.5244 -0.6354  0.3829
 2541TIP3    H2 7588   1.468   0.928   2.988 -1.0936  0.4056  1.2649
 2542TIP3   OH2 7589   2.290   5.357   5.049  0.2899 -0.3921 -0.3086
 2542TIP3    H1 7590   2.284   5.398   4.963 -0.1134 -0.9714 -0.5665
 2542TIP3    H2 7591   2.295   5.430   5.111 -0.9628  0.0618 -0.7178
 2543TIP3   OH2 7592   1.439   3.662   4.024  0.0883 -0.4479  0.7346
 2543TIP3    H1 7593   1.503   3.621   3.966 -0.7062  0.2206 -0.6668
 2543TIP3    H2 7594   1.360   3.609   4.013 -0.3333  0.2218  0.4813
 2544TIP3   OH2 7595   1.971   0.634   4.550  0.1300 -0.2478 -0.0240
 2544TIP3    H1 7596   2.012   0.716   4.522  0.4294 -0.2553  0.3737
 2544TIP3    H2 7597   1.930   0.599   4.471 -0.2073  0.4067 -0.1485
 2545TIP3   OH2 7598   6.965   0.233   4.310  0.5529 -0.0857 -0.4184
 2545TIP3    H1 7599   6.909   0.302   4.276 -1.8014 -1.1551  1.0159
 2545TIP3    H2 7600   6.951   0.159   4.251 -0.1751 -0.5896  0.3594
 2546TIP3   OH2 7601   2.478   2.662   0.022  0.0308 -0.7293 -0.1427
 2546TIP3    H1 7602   2.460   2.589  -0.036 -2.7280 -2.0239  2.0656
 2546TIP3    H2 7603   2.545   2.629   0.082  0.0305 -0.8505 -0.2091
 2547TIP3   OH2 7604   4.221   3.101   5.796 -0.2367 -0.1816 -0.9169
 2547TIP3    H1 7605   4.297   3.046   5.777 -0.7874 -1.3013  0.0237
 2547TIP3    H2 7606   4.226   3.117   5.890 -0.5105  0.7552 -1.0534
 2548TIP3   OH2 7607   3.248   1.106   0.316 -0.4850  0.1446 -0.1904
 2548TIP3    H1 7608   3.242   1.091   0.410 -0.8162  1.9645  0.1196
 2548TIP3    H2 7609   3.337   1.137   0.302  0.8953 -3.7268 -1.1234
 2549TIP3   OH2 7610   1.225   4.388   5.458 -0.6156 -0.4900 -0.4915
 2549TIP3    H1 7611   1.131   4.369   5.452 -0.3931 -2.1734  0.7237
 2549TIP3    H2 7612   1.231   4.458   5.523 -0.9747 -1.0831  0.1934
 2550TIP3   OH2 7613   1.889   3.205   4.597  0.2454  0.5407  0.0096
 2550TIP3    H1 7614   1.934   3.257   4.532  0.0967  1.0938  0.3460
 2550TIP3    H2 7615   1.924   3.235   4.681 -0.8634  1.1090  0.2860
 2551TIP3   OH2 7616   1.148   2.988   3.972 -0.4703 -0.0743 -0.0904
 2551TIP3    H1 7617   1.088   3.027   4.036  0.5469  1.3479  0.0431
 2551TIP3    H2 7618   1.195   2.921   4.022 -0.2322  0.4878  0.4499
 2552TIP3   OH2 7619   4.854   1.506   1.461 -0.0629  0.4865 -0.1643
 2552TIP3    H1 7620   4.918   1.525   1.530 -1.6438  2.4105  0.9129
 2552TIP3    H2 7621   4.770   1.527   1.502 -1.0934  1.3991 -2.5865
 2553TIP3   OH2 7622   1.252   3.724   1.725  0.0211  0.3066  0.0796
 2553TIP3    H1 7623   1.295   3.783   1.663  1.2167  0.4641  1.0021
 2553TIP3    H2 7624   1.192   3.780   1.775 -0.1143  0.3999 -0.1898
 2554TIP3   OH2 7625   4.628   0.336   2.942 -0.2227  0.6897 -0.4886
 2554TIP3    H1 7626   4.621   0.241   2.937 -1.7456  0.7943 -0.9512
 2554TIP3    H2 7627   4.634   0.364   2.851  2.1119  0.9632 -0.3022
 2555TIP3   OH2 7628   2.289   3.774   3.810 -0.3033  0.1614 -0.1189
 2555TIP3    H1 7629   2.306   3.742   3.722 -0.9778  1.9657 -0.9487
 2555TIP3    H2 7630   2.204   3.738   3.833  0.4931 -1.4824  0.4182
 2556TIP3   OH2 7631   4.260   5.805   2.264  0.1595 -0.0314  0.3688
 2556TIP3    H1 7632   4.280   5.892   2.297 -0.0403  0.1184  0.1030
 2556TIP3    H2 7633   4.204   5.766   2.331 -0.3072  0.2995  0.1823
 2557TIP3   OH2 7634   3.148   2.008   4.241 -0.1691 -0.6021  0.0605
 2557TIP3    H1 7635   3.169   2.084   4.296 -1.0546  0.2091 -0.6871
 2557TIP3    H2 7636   3.099   1.949   4.299  0.6951 -0.7130  0.7036
 2558TIP3   OH2 7637   3.961   6.580   5.860 -0.0969  0.0068  0.1952
 2558TIP3    H1 7638   3.916   6.537   5.787  0.3339  1.3700 -0.9105
 2558TIP3    H2 7639   4.020   6.642   5.819 -1.0373  2.0236  1.7239
 2559TIP3   OH2 7640   3.309   6.542   0.151 -0.2766 -0.4805 -0.1020
 2559TIP3    H1 7641   3.268   6.461   0.122 -0.4571 -0.0663 -1.0518
 2559TIP3    H2 7642   3.305   6.539   0.247 -1.5815 -0.9340 -0.1535
 2560TIP3   OH2 7643   6.359   2.125   4.688  0.2998  0.3097  0.1098
 2560TIP3    H1 7644   6.446   2.139   4.725  0.3547  2.3628 -0.6977
 2560TIP3    H2 7645   6.303   2.111   4.765  1.1047  0.2749  0.7065
 2561TIP3   OH2 7646   0.993   4.280   5.285 -0.4121 -0.2194  0.0460
 2561TIP3    H1 7647   1.047   4.247   5.213 -1.0930  0.2746 -0.7065
 2561TIP3    H2 7648   0.910   4.232   5.277 -0.4859 -0.1719  0.5109
 2562TIP3   OH2 7649   3.231   5.282   3.896 -0.4045  0.1935  0.0938
 2562TIP3    H1 7650   3.319   5.275   3.860 -0.4555 -1.7575  0.2231
 2562TIP3    H2 7651   3.188   5.200   3.870 -2.5937  1.5879 -0.9669
 2563TIP3   OH2 7652   1.361   1.396   2.439 -0.2694  0.0419 -0.1828
 2563TIP3    H1 7653   1.375   1.433   2.352 -0.6516  1.8979  0.5079
 2563TIP3    H2 7654   1.283   1.341   2.430 -0.3807  0.3203 -0.9822
 2564TIP3   OH2 7655   6.402   2.321   3.654  0.1617 -0.1189  0.1942
 2564TIP3    H1 7656   6.467   2.354   3.715  0.3746 -0.9125  0.4086
 2564TIP3    H2 7657   6.432   2.351   3.568  1.9927 -2.1994  0.0212
 2565TIP3   OH2 7658   2.782   5.297   2.518  0.2918  0.2696 -0.1430
 2565TIP3    H1 7659   2.854   5.242   2.489  0.8252  1.6600 -1.5976
 2565TIP3    H2 7660   2.825   5.374   2.556 -0.4094  1.0051 -0.8136
 2566TIP3   OH2 7661   4.067   3.310   4.614  0.5062 -0.0050  0.2310
 2566TIP3    H1 7662   4.117   3.347   4.541 -0.7041 -2.2749 -1.8921
 2566TIP3    H2 7663   4.034   3.226   4.581 -0.3357 -1.0480  3.3308
 2567TIP3   OH2 7664   3.769   0.296   2.733  0.3114 -0.1203  0.5839
 2567TIP3    H1 7665   3.680   0.283   2.699  0.5155  0.3459 -0.1500
 2567TIP3    H2 7666   3.762   0.372   2.790  0.8888  2.2375 -2.2411
 2568TIP3   OH2 7667   3.268   2.845   2.992 -0.1155 -0.5641 -0.2251
 2568TIP3    H1 7668   3.174   2.855   2.979 -0.1123 -0.9555 -0.5807
 2568TIP3    H2 7669   3.288   2.758   2.957  0.0642 -1.2932  1.6165
 2569TIP3   OH2 7670   5.862   4.423   1.323 -0.1572  0.4991 -0.1651
 2569TIP3    H1 7671   5.798   4.437   1.393 -1.9992 -1.8408 -1.2412
 2569TIP3    H2 7672   5.870   4.328   1.317  2.8114  0.6783 -0.7187
 2570TIP3   OH2 7673   0.723   5.530   0.070 -0.4466 -0.4017 -0.6212
 2570TIP3    H1 7674   0.757   5.454   0.021 -0.3907 -0.7645 -0.0264
 2570TIP3    H2 7675   0.630   5.533   0.047 -0.5539 -0.9427 -0.2850
 2571TIP3   OH2 7676   6.228   0.214   2.798 -0.8372  0.1427  0.0811
 2571TIP3    H1 7677   6.261   0.274   2.731 -0.1011  0.0531  0.3631
 2571TIP3    H2 7678   6.257   0.251   2.881  0.9714 -1.3787  0.1913
 2572TIP3   OH2 7679   1.344   2.220   1.641  0.5527  0.0381 -0.8897
 2572TIP3    H1 7680   1.419   2.167   1.614 -1.0866 -1.1858 -3.4858
 2572TIP3    H2 7681   1.279   2.157   1.671  0.3130  1.0422  0.8691
 2573TIP3   OH2 7682   3.361   3.640   2.473  0.1589 -0.0224 -0.1719
 2573TIP3    H1 7683   3.367   3.623   2.379  1.5447  0.3166 -0.1605
 2573TIP3    H2 7684   3.414   3.571   2.513  1.2753  1.0327  0.2149
 2574TIP3   OH2 7685   3.857   3.645   0.247 -0.2562  0.1523 -0.0128
 2574TIP3    H1 7686   3.822   3.556   0.243 -0.9511  0.3849  0.6562
 2574TIP3    H2 7687   3.870   3.670   0.156 -0.9958 -0.2745 -0.2387
 2575TIP3   OH2 7688   4.428   2.458   1.455 -0.1283  0.3592  0.3711
 2575TIP3    H1 7689   4.422   2.393   1.525 -0.0091 -0.5704 -0.4568
 2575TIP3    H2 7690   4.472   2.412   1.383 -0.4018  1.2371 -0.3778
 2576TIP3   OH2 7691   0.442   3.353   3.380  0.0011 -0.2532 -0.0072
 2576TIP3    H1 7692   0.355   3.366   3.417  0.4864 -2.0525  1.9633
 2576TIP3    H2 7693   0.502   3.386   3.447  0.8790 -0.1823 -0.8027
 2577TIP3   OH2 7694   7.156   4.998   3.192  0.2366  0.5583  0.6625
 2577TIP3    H1 7695   7.135   5.091   3.196  0.7149  0.6941  0.1871
 2577TIP3    H2 7696   7.100   4.963   3.123  0.7735  0.7018  0.1459
 2578TIP3   OH2 7697   0.652   0.476   0.236  0.0414 -0.2540 -0.3765
 2578TIP3    H1 7698   0.715   0.454   0.305 -0.6564 -1.5049 -0.1120
 2578TIP3    H2 7699   0.687   0.435   0.157  0.3187  0.3170 -0.5524
 2579TIP3   OH2 7700   5.521   2.717   1.900  0.1867 -0.8108  0.6568
 2579TIP3    H1 7701   5.442   2.725   1.846  0.8131  2.4949 -0.0164
 2579TIP3    H2 7702   5.591   2.705   1.836  0.8019  2.0283  0.6602
 2580TIP3   OH2 7703   6.845   1.492   2.418  0.2969  0.2015 -0.0149
 2580TIP3    H1 7704   6.884   1.427   2.359  1.8417 -0.3902  1.5924
 2580TIP3    H2 7705   6.905   1.567   2.413 -0.3003  0.6795 -0.1853
 2581TIP3   OH2 7706   2.820   1.367   3.706  0.5484  0.2510 -0.2476
 2581TIP3    H1 7707   2.877   1.295   3.733  1.8782  1.0718 -0.7839
 2581TIP3    H2 7708   2.837   1.377   3.612 -0.4071  0.5877 -0.3976
 2582TIP3   OH2 7709   5.083   3.947   2.263 -0.0700 -0.4604  0.3169
 2582TIP3    H1 7710   5.084   3.973   2.355 -0.7925 -0.8849  0.4473
 2582TIP3    H2 7711   5.116   4.024   2.217  0.1042 -0.1719  0.9101
 2583TIP3   OH2 7712   4.106   3.899   5.776 -0.5809  0.1890  0.5663
 2583TIP3    H1 7713   4.055   3.969   5.734  1.1194  0.7121 -0.7201
 2583TIP3    H2 7714   4.140   3.847   5.703 -0.4240 -1.0001  1.4491
 2584TIP3   OH2 7715   2.203   1.921   2.083 -0.3414 -0.1613  0.4757
 2584TIP3    H1 7716   2.192   1.897   2.175 -2.9980 -3.2791 -0.4843
 2584TIP3    H2 7717   2.117   1.951   2.055  0.8750  2.7294 -0.6568
 2585TIP3   OH2 7718   5.090   2.202   5.411 -0.0095  0.2658 -0.2833
 2585TIP3    H1 7719   5.109   2.132   5.348  0.0897  1.1991 -1.3328
 2585TIP3    H2 7720   5.090   2.159   5.496 -0.9444 -1.2019 -0.9822
 2586TIP3   OH2 7721   0.503   5.747   3.683 -0.2680 -0.1172  0.2831
 2586TIP3    H1 7722   0.592   5.712   3.674  0.8273  2.4326  0.3333
 2586TIP3    H2 7723   0.481   5.734   3.775  0.2733 -0.2873  0.3898
 2587TIP3   OH2 7724   5.087   3.538   2.024 -0.4824  0.5021 -0.0974
 2587TIP3    H1 7725   5.112   3.476   2.093 -1.2599 -0.1306 -0.3669
 2587TIP3    H2 7726   5.031   3.487   1.965 -2.3679  1.8117  0.4607
 2588TIP3   OH2 7727   5.967   0.036   3.433 -0.0969 -0.0859  0.1906
 2588TIP3    H1 7728   6.006  -0.046   3.402  1.2000 -0.0543  1.6193
 2588TIP3    H2 7729   6.007   0.051   3.519 -1.8402  0.9876  0.8744
 2589TIP3   OH2 7730   6.471   4.702   5.271  0.4110  0.4914 -0.2352
 2589TIP3    H1 7731   6.491   4.712   5.364  0.7973  2.0308 -0.4448
 2589TIP3    H2 7732   6.439   4.613   5.262  2.1736 -0.3299  1.0566
 2590TIP3   OH2 7733   1.583   5.416   5.378 -0.4013  0.1526 -0.3844
 2590TIP3    H1 7734   1.548   5.389   5.293 -0.7082  1.3981 -0.6730
 2590TIP3    H2 7735   1.570   5.340   5.435 -0.0575 -0.7488 -1.4772
 2591TIP3   OH2 7736   4.963   4.579   5.318 -0.2751 -0.4023 -0.1387
 2591TIP3    H1 7737   4.923   4.585   5.231  0.4777 -0.8437 -0.5285
 2591TIP3    H2 7738   4.965   4.485   5.336 -1.0396 -0.2735  0.6548
 2592TIP3   OH2 7739   5.291   6.345   0.132  0.5770  0.4098 -0.3140
 2592TIP3    H1 7740   5.241   6.264   0.143 -0.5286  1.3493  2.4075
 2592TIP3    H2 7741   5.347   6.349   0.209  0.6516  2.1766 -0.4285
 2593TIP3   OH2 7742   2.793   0.746   2.660  0.0938  0.0696  0.3347
 2593TIP3    H1 7743   2.832   0.821   2.704  0.0211  0.1060  0.3358
 2593TIP3    H2 7744   2.732   0.709   2.724  2.5281 -2.0083  1.6912
 2594TIP3   OH2 7745   4.348   0.042   2.332 -0.2174  0.5251  0.0208
 2594TIP3    H1 7746   4.346  -0.019   2.406 -1.5266 -0.4023 -0.7332
 2594TIP3    H2 7747   4.262   0.084   2.333 -0.1750  0.6405 -0.8629
 2595TIP3   OH2 7748   1.230   4.363   3.577  0.7814  0.2076  0.0113
 2595TIP3    H1 7749   1.285   4.441   3.583  0.9141  0.0309  1.3597
 2595TIP3    H2 7750   1.221   4.347   3.483  2.0040  0.9532 -0.2486
 2596TIP3   OH2 7751   2.242   0.030   2.646  0.4949  0.6956 -0.1596
 2596TIP3    H1 7752   2.172   0.029   2.711  0.9941  2.9200  0.4934
 2596TIP3    H2 7753   2.197   0.047   2.563  0.0674  0.0048 -0.0739
 2597TIP3   OH2 7754   3.560   4.532   5.110 -0.4383  0.0944 -0.1967
 2597TIP3    H1 7755   3.584   4.461   5.051  0.2872 -1.0990  1.4587
 2597TIP3    H2 7756   3.598   4.610   5.070  0.0842 -0.6762 -1.2530
 2598TIP3   OH2 7757   4.436   1.893   5.334  0.4003  0.2065 -0.0832
 2598TIP3    H1 7758   4.505   1.826   5.338  2.7888  2.3929 -1.3676
 2598TIP3    H2 7759   4.420   1.906   5.241  0.3487  1.6865  0.0952
 2599TIP3   OH2 7760   1.599   0.794   2.345  0.3285 -0.0486  0.1311
 2599TIP3    H1 7761   1.609   0.771   2.438 -1.3249 -0.1868  0.2950
 2599TIP3    H2 7762   1.684   0.773   2.306  1.6167  1.4981  1.9045
 2600TIP3   OH2 7763   2.567   1.304   0.841  0.6054  0.3010  0.0333
 2600TIP3    H1 7764   2.657   1.277   0.859  0.7134  1.1777  0.8821
 2600TIP3    H2 7765   2.520   1.290   0.924  0.2556  0.9960 -0.0365
 2601TIP3   OH2 7766   4.016   4.525   5.179 -0.5045  0.6136 -0.0761
 2601TIP3    H1 7767   3.943   4.587   5.186 -0.4370  0.7559 -0.5682
 2601TIP3    H2 7768   4.072   4.562   5.110  0.1137  0.5868  0.4024
 2602TIP3   OH2 7769   4.142   6.361   0.328 -0.0066  0.5416  0.6841
 2602TIP3    H1 7770   4.076   6.357   0.258 -0.1194  0.1967  0.8062
 2602TIP3    H2 7771   4.127   6.446   0.370  0.4983  1.0462 -0.1314
 2603TIP3   OH2 7772   2.638   6.654   3.537  0.7618 -0.1689  0.2002
 2603TIP3    H1 7773   2.545   6.653   3.515  0.9568 -0.4311 -0.6313
 2603TIP3    H2 7774   2.666   6.563   3.526  0.9339 -0.2719  1.3032
 2604TIP3   OH2 7775   0.186   4.086   2.358  0.3028  0.5548  0.5441
 2604TIP3    H1 7776   0.161   4.045   2.441  0.6655 -0.5060  0.1361
 2604TIP3    H2 7777   0.274   4.055   2.341  0.0659  0.4019 -0.4684
 2605TIP3   OH2 7778   1.118   5.295   1.484 -0.2331 -0.4877 -0.2049
 2605TIP3    H1 7779   1.065   5.372   1.461  0.0460 -0.4538 -0.7312
 2605TIP3    H2 7780   1.198   5.332   1.521 -0.0830 -0.5254 -0.4936
 2606TIP3   OH2 7781   0.390   6.565   4.490  0.0690 -0.9523  0.3868
 2606TIP3    H1 7782   0.460   6.628   4.474 -1.9577  0.9770 -1.5773
 2606TIP3    H2 7783   0.408   6.493   4.429  0.4599 -0.5871  0.0653
 2607TIP3   OH2 7784   2.007   5.424   5.172 -0.0873 -0.0711  0.0149
 2607TIP3    H1 7785   1.952   5.421   5.250  0.1405  0.6640  0.2164
 2607TIP3    H2 7786   2.057   5.343   5.173  0.1746  0.0953  0.8293
 2608TIP3   OH2 7787   2.646   4.262   1.604  0.7766 -0.5661  0.3561
 2608TIP3    H1 7788   2.719   4.310   1.565 -0.6943  2.5896  1.1753
 2608TIP3    H2 7789   2.638   4.297   1.693 -1.3822 -1.1606  0.4664
 2609TIP3   OH2 7790   5.146   3.784   4.825 -0.2763 -0.4087  0.3074
 2609TIP3    H1 7791   5.156   3.849   4.755 -0.3530  0.5347  1.1360
 2609TIP3    H2 7792   5.178   3.702   4.788  0.0406  0.1621 -0.6997
 2610TIP3   OH2 7793   5.425   5.834   0.738 -0.2829  0.0571 -0.6549
 2610TIP3    H1 7794   5.335   5.865   0.749  0.6005  2.9883 -0.8116
 2610TIP3    H2 7795   5.433   5.813   0.645 -0.2158  2.1547 -1.1783
 2611TIP3   OH2 7796   3.863   1.880   2.980 -0.2742  0.1227  0.9274
 2611TIP3    H1 7797   3.943   1.856   2.933 -1.1369 -2.0936  0.5031
 2611TIP3    H2 7798   3.820   1.943   2.922  0.6968  0.6221  0.7251
 2612TIP3   OH2 7799   3.823   5.749   3.956  0.3170 -0.0053 -0.3075
 2612TIP3    H1 7800   3.848   5.719   4.043  0.5267  0.9902 -0.0081
 2612TIP3    H2 7801   3.885   5.819   3.935 -0.1286  0.2084 -0.9793
 2613TIP3   OH2 7802   6.439   2.540   0.922  0.2658 -0.0740  0.0884
 2613TIP3    H1 7803   6.526   2.575   0.901  0.6678  0.4101  2.2868
 2613TIP3    H2 7804   6.449   2.445   0.912  0.5550  0.0697 -1.2133
 2614TIP3   OH2 7805   4.589   2.464   2.465  0.2256 -0.4863  0.1500
 2614TIP3    H1 7806   4.558   2.450   2.555 -1.2382 -1.2283 -0.4380
 2614TIP3    H2 7807   4.563   2.385   2.418  0.0066  0.3408 -1.1695
 2615TIP3   OH2 7808   0.181   1.914   0.707 -0.8181  0.0176 -0.3993
 2615TIP3    H1 7809   0.211   1.886   0.794 -1.6745  0.3396  0.0062
 2615TIP3    H2 7810   0.130   1.993   0.723  0.0291  0.7911 -1.3408
 2616TIP3   OH2 7811   6.117   5.324   3.350  0.1969 -0.0835  0.0501
 2616TIP3    H1 7812   6.133   5.317   3.255 -1.4976 -1.2122 -0.1950
 2616TIP3    H2 7813   6.120   5.418   3.368  0.6707  0.1391 -1.0955
 2617TIP3   OH2 7814   4.054   0.342   4.083  0.3743 -0.1689  0.7744
 2617TIP3    H1 7815   4.125   0.404   4.097  0.7897 -0.9400  2.2274
 2617TIP3    H2 7816   3.993   0.357   4.155 -0.1394 -0.6059  0.4441
 2618TIP3   OH2 7817   6.064   0.430   0.196 -0.1535 -0.0385  0.0646
 2618TIP3    H1 7818   5.984   0.471   0.228 -0.4616 -0.6409  0.0788
 2618TIP3    H2 7819   6.050   0.337   0.210 -0.3113 -0.3308 -1.8553
 2619TIP3   OH2 7820   5.810   1.094   2.141  0.0950 -0.0603 -0.5617
 2619TIP3    H1 7821   5.776   1.009   2.114  1.6606 -1.3590  1.2681
 2619TIP3    H2 7822   5.901   1.093   2.113  0.3256  0.7004  0.1286
 2620TIP3   OH2 7823   2.631   1.196   0.285  0.6105  0.0909  0.2394
 2620TIP3    H1 7824   2.672   1.115   0.256 -1.1599 -0.6735 -0.3155
 2620TIP3    H2 7825   2.592   1.174   0.370 -0.0650  0.2681 -0.0135
 2621TIP3   OH2 7826   5.461   4.894   2.113 -0.0655  0.5155  0.3042
 2621TIP3    H1 7827   5.524   4.963   2.094 -0.7554  0.8775 -0.7082
 2621TIP3    H2 7828   5.494   4.818   2.066 -0.7097  0.8826 -0.7829
 2622TIP3   OH2 7829   3.212   1.761   1.612 -0.0719  0.0002 -0.1629
 2622TIP3    H1 7830   3.185   1.703   1.541  1.1443  1.3778 -1.8227
 2622TIP3    H2 7831   3.196   1.849   1.580 -0.7055  0.6658  1.8183
 2623TIP3   OH2 7832   2.725   3.117   5.733 -0.2731  0.3168  0.3192
 2623TIP3    H1 7833   2.808   3.108   5.780 -0.2176  0.5575  0.2678
 2623TIP3    H2 7834   2.734   3.198   5.683 -1.3791  1.5939  2.0592
 2624TIP3   OH2 7835   5.555   1.734   2.809  0.6847 -0.2372 -0.8740
 2624TIP3    H1 7836   5.542   1.640   2.798  1.2252 -0.4308  0.1040
 2624TIP3    H2 7837   5.512   1.772   2.732 -1.0057 -1.1692 -0.4545
 2625TIP3   OH2 7838   7.050   2.699   3.957  0.9383  0.2329  0.2225
 2625TIP3    H1 7839   6.957   2.693   3.978  0.5178 -1.3894 -1.7376
 2625TIP3    H2 7840   7.069   2.793   3.953 -0.7860  0.5918 -0.0059
 2626TIP3   OH2 7841   0.434   1.094   1.726  0.3210 -0.6322  0.4443
 2626TIP3    H1 7842   0.433   1.141   1.642  0.3428 -2.0210 -0.3693
 2626TIP3    H2 7843   0.428   1.163   1.792 -1.0826  0.4303 -0.7180
 2627TIP3   OH2 7844   2.735   2.290   1.903  0.2031 -0.4702  0.3881
 2627TIP3    H1 7845   2.649   2.312   1.867  0.7380 -0.8413 -1.1529
 2627TIP3    H2 7846   2.717   2.218   1.964 -0.4978 -1.0153 -0.4341
 2628TIP3   OH2 7847   6.617   1.773   5.772  0.1873 -0.6544  0.3227
 2628TIP3    H1 7848   6.613   1.681   5.748  1.4357 -0.6717  0.1400
 2628TIP3    H2 7849   6.680   1.812   5.711 -0.1240  0.2661  0.5624
 2629TIP3   OH2 7850   7.031   6.188   2.983 -0.0258  0.2300  0.6178
 2629TIP3    H1 7851   6.985   6.126   3.040  0.8044 -1.0795 -0.0941
 2629TIP3    H2 7852   7.010   6.159   2.894 -0.4659  1.6240  0.2508
 2630TIP3   OH2 7853   0.413   6.040   2.214 -0.1690  0.2656 -0.0318
 2630TIP3    H1 7854   0.466   6.107   2.256  0.2337 -0.5480  0.7830
 2630TIP3    H2 7855   0.386   6.079   2.131 -0.7102  1.7871  0.8217
 2631TIP3   OH2 7856   6.183   4.486   1.172 -0.5038  0.5991  0.7372
 2631TIP3    H1 7857   6.101   4.530   1.197 -1.5677 -1.0533  0.3208
 2631TIP3    H2 7858   6.182   4.405   1.222 -0.3213 -0.5588 -1.0533
 2632TIP3   OH2 7859   1.909   4.609   3.864  0.3797 -0.0808 -0.5635
 2632TIP3    H1 7860   1.947   4.527   3.895  0.3145  0.0089 -0.2444
 2632TIP3    H2 7861   1.897   4.662   3.943  0.8368  0.4132 -0.8215
 2633TIP3   OH2 7862   5.712   4.347   2.736  0.5755 -0.4569 -0.0943
 2633TIP3    H1 7863   5.791   4.293   2.726  1.4858  0.9948 -1.1419
 2633TIP3    H2 7864   5.740   4.419   2.792  0.2717  0.5485 -1.2016
 2634TIP3   OH2 7865   0.156   1.570   4.605  0.1395  0.2816 -0.0478
 2634TIP3    H1 7866   0.068   1.538   4.584  0.2969 -0.1931  0.0230
 2634TIP3    H2 7867   0.197   1.499   4.653  0.9792  0.0477 -1.0815
 2635TIP3   OH2 7868   2.093   3.837   5.483  0.4867 -0.0814 -0.6071
 2635TIP3    H1 7869   2.088   3.824   5.388 -1.0017 -0.1019 -0.5506
 2635TIP3    H2 7870   2.005   3.820   5.514  1.0291 -0.3902  0.8394
 2636TIP3   OH2 7871   1.771   1.214   0.108 -0.4591 -0.1437  0.4103
 2636TIP3    H1 7872   1.697   1.174   0.062  0.3420 -1.3571  0.1463
 2636TIP3    H2 7873   1.837   1.145   0.112  0.7381  0.9782  0.4709
 2637TIP3   OH2 7874   1.066   5.605   4.731  0.4023  0.1696  0.3959
 2637TIP3    H1 7875   1.050   5.682   4.786  0.1235  0.5104 -0.1411
 2637TIP3    H2 7876   1.084   5.534   4.792 -1.0808  0.2638  0.9851
 2638TIP3   OH2 7877   1.231   6.586   2.622  0.4555  0.4590 -0.0373
 2638TIP3    H1 7878   1.246   6.597   2.528 -2.3795 -3.0174 -1.1640
 2638TIP3    H2 7879   1.297   6.523   2.649 -0.0320 -0.1706 -0.2778
 2639TIP3   OH2 7880   1.737   3.124   0.779 -0.0065 -0.0399  0.1757
 2639TIP3    H1 7881   1.798   3.190   0.810 -0.6149  0.6820 -0.1360
 2639TIP3    H2 7882   1.710   3.077   0.858 -0.9500  1.2680  0.6556
 2640TIP3   OH2 7883   0.786   5.818   3.812 -0.0736  0.0509  0.0237
 2640TIP3    H1 7884   0.740   5.736   3.829 -1.9458  0.6417 -1.6899
 2640TIP3    H2 7885   0.822   5.807   3.724 -0.8240  1.2288 -0.4562
 2641TIP3   OH2 7886   1.726   1.581   3.431 -0.3909  0.1319  0.1643
 2641TIP3    H1 7887   1.724   1.574   3.527 -1.3365  2.1614  0.3378
 2641TIP3    H2 7888   1.791   1.516   3.404  0.9048  0.4536  2.2685
 2642TIP3   OH2 7889   3.865   4.617   3.797 -0.4222  0.4812 -0.1212
 2642TIP3    H1 7890   3.895   4.676   3.866 -0.9335 -0.6486  1.1076
 2642TIP3    H2 7891   3.929   4.545   3.797 -1.0908 -0.1320  0.0475
 2643TIP3   OH2 7892   3.271   0.633   3.247 -0.1305  0.4141  0.4857
 2643TIP3    H1 7893   3.234   0.551   3.214  0.6766 -0.4093  1.5705
 2643TIP3    H2 7894   3.363   0.612   3.265 -0.4120  0.9363  2.7906
 2644TIP3   OH2 7895   3.649   5.523   3.275 -0.1476 -0.4977 -0.4390
 2644TIP3    H1 7896   3.671   5.430   3.271  2.1185 -0.0380 -0.0409
 2644TIP3    H2 7897   3.572   5.527   3.332  1.8755 -1.8680  2.6637
 2645TIP3   OH2 7898   6.665   1.989   4.929 -0.1871 -0.7391  0.3339
 2645TIP3    H1 7899   6.662   2.055   4.859 -1.1149 -1.2068 -0.0836
 2645TIP3    H2 7900   6.759   1.977   4.946  0.0025  0.5994  0.3397
 2646TIP3   OH2 7901   1.054   6.054   4.479  0.0433 -0.4821 -0.0642
 2646TIP3    H1 7902   1.123   5.999   4.441 -0.7476 -1.0305 -0.7453
 2646TIP3    H2 7903   0.973   6.009   4.457 -0.7507  1.6058 -1.8691
 2647TIP3   OH2 7904   5.610   2.305   0.443 -0.6146  0.0534 -0.4730
 2647TIP3    H1 7905   5.682   2.368   0.440  0.8669 -1.4451  1.0019
 2647TIP3    H2 7906   5.562   2.327   0.523 -1.9970  1.1840 -1.5633
 2648TIP3   OH2 7907   0.559   3.388   4.685  0.0271 -0.0687  0.3635
 2648TIP3    H1 7908   0.650   3.413   4.705  0.4119 -0.4513 -0.8720
 2648TIP3    H2 7909   0.541   3.427   4.600 -0.7941 -0.4464  0.3528
 2649TIP3   OH2 7910   5.447   2.396   4.619 -0.1335  0.5467 -0.1289
 2649TIP3    H1 7911   5.391   2.318   4.617  1.0928 -0.3650 -0.8261
 2649TIP3    H2 7912   5.461   2.413   4.712 -2.1542  1.2653  0.0829
 2650TIP3   OH2 7913   5.911   1.435   5.555  0.1052  0.2922 -0.0916
 2650TIP3    H1 7914   5.922   1.461   5.463  0.2257 -0.8512 -0.4263
 2650TIP3    H2 7915   5.818   1.416   5.563 -0.0974  1.4339  0.3249
 2651TIP3   OH2 7916   5.364   1.502   1.723  0.3301  0.2430 -0.1462
 2651TIP3    H1 7917   5.424   1.445   1.770 -0.8336 -1.2135 -0.3451
 2651TIP3    H2 7918   5.413   1.530   1.645  0.5627 -1.4136 -0.6216
 2652TIP3   OH2 7919   2.181   3.342   5.018 -0.0672  0.0667 -0.3906
 2652TIP3    H1 7920   2.163   3.256   5.056  0.1603 -0.8443 -2.2079
 2652TIP3    H2 7921   2.273   3.359   5.039 -0.0103 -0.3155 -0.3242
 2653TIP3   OH2 7922   3.174   0.813   4.141  0.4182 -0.3567  0.3749
 2653TIP3    H1 7923   3.247   0.875   4.146  0.4648 -0.4567  1.0183
 2653TIP3    H2 7924   3.140   0.809   4.230 -0.9657  0.3892 -0.0938
 2654TIP3   OH2 7925   3.306   3.311   0.414 -0.0940 -0.2144 -0.1556
 2654TIP3    H1 7926   3.368   3.349   0.353  0.4084 -0.3121  0.2892
 2654TIP3    H2 7927   3.360   3.272   0.483 -0.5265 -2.4916 -0.9947
 2655TIP3   OH2 7928   5.377   5.433   0.313 -0.2128 -0.0600  0.1219
 2655TIP3    H1 7929   5.387   5.444   0.219 -1.8212 -1.4666 -0.2621
 2655TIP3    H2 7930   5.463   5.404   0.343 -0.2045 -1.6302 -1.2780
 2656TIP3   OH2 7931   1.551   6.010   3.345 -0.4607  0.3548 -0.1147
 2656TIP3    H1 7932   1.548   5.919   3.313 -0.8061  0.3356 -0.0332
 2656TIP3    H2 7933   1.630   6.013   3.400  0.9135  0.7430 -2.0118
 2657TIP3   OH2 7934   0.877   0.062   4.097  0.1967  0.0451  0.3213
 2657TIP3    H1 7935   0.864   0.095   4.186  2.8397 -1.9763  1.6083
 2657TIP3    H2 7936   0.802   0.005   4.081 -0.2167  0.2876  1.3273
 2658TIP3   OH2 7937   5.098   5.717   3.275  0.4408 -0.3716 -0.4715
 2658TIP3    H1 7938   5.005   5.705   3.256  0.2309  1.2626 -0.6342
 2658TIP3    H2 7939   5.141   5.638   3.240 -0.9381 -1.4901  0.2601
 2659TIP3   OH2 7940   0.465   3.198   3.767  0.8521 -0.4013  0.1049
 2659TIP3    H1 7941   0.459   3.293   3.779 -0.4607 -0.0106 -2.7646
 2659TIP3    H2 7942   0.382   3.164   3.799  0.1311 -0.1636 -1.3948
 2660TIP3   OH2 7943   5.982   3.416   1.946 -0.1453 -0.3761  0.1066
 2660TIP3    H1 7944   5.994   3.408   2.041 -1.1711 -0.9125  0.2160
 2660TIP3    H2 7945   5.895   3.378   1.930 -0.8619  1.5459 -0.7983
 2661TIP3   OH2 7946   5.558   1.495   4.898  0.8378  0.0231  0.0333
 2661TIP3    H1 7947   5.558   1.444   4.979  1.7878 -0.6522 -0.3749
 2661TIP3    H2 7948   5.492   1.564   4.913 -0.4355 -1.2645  0.6263
 2662TIP3   OH2 7949   3.966   5.145   3.844  0.0261  0.2201 -0.5709
 2662TIP3    H1 7950   3.883   5.170   3.886 -0.1767  0.0371 -0.8647
 2662TIP3    H2 7951   3.971   5.201   3.766 -0.7184 -1.0628 -1.5630
 2663TIP3   OH2 7952   0.055   3.984   4.662  0.2330 -0.4016 -0.2195
 2663TIP3    H1 7953   0.004   3.903   4.660 -0.7747  0.1752  0.9169
 2663TIP3    H2 7954   0.127   3.965   4.723 -1.5879  0.3920  2.3224
 2664TIP3   OH2 7955   2.000   0.213   2.605 -0.5047 -0.2900 -0.0030
 2664TIP3    H1 7956   1.958   0.299   2.611 -0.7817 -0.4493  0.3822
 2664TIP3    H2 7957   1.974   0.168   2.685  0.0575 -0.5484  0.0419
 2665TIP3   OH2 7958   0.620   1.107   0.710 -0.0200 -0.5630 -0.0790
 2665TIP3    H1 7959   0.597   1.046   0.639 -0.4202  0.6932 -1.0648
 2665TIP3    H2 7960   0.706   1.141   0.686  0.9406 -1.9054  1.3041
 2666TIP3   OH2 7961   2.823   6.403   1.285 -0.3387 -0.1715 -0.2786
 2666TIP3    H1 7962   2.742   6.409   1.235 -1.2959 -1.6888  0.9995
 2666TIP3    H2 7963   2.850   6.311   1.275  1.0742  0.2379 -0.4369
 2667TIP3   OH2 7964   1.759   4.442   1.848 -0.7992 -0.4045 -0.1167
 2667TIP3    H1 7965   1.681   4.413   1.801 -0.0813 -0.2486 -1.4648
 2667TIP3    H2 7966   1.765   4.536   1.829 -0.2473 -0.4318 -0.1096
 2668TIP3   OH2 7967   1.477   3.141   3.911  0.0136 -0.0486 -0.1201
 2668TIP3    H1 7968   1.496   3.048   3.908  0.2547 -0.1411  2.3270
 2668TIP3    H2 7969   1.558   3.183   3.880  0.1257 -0.6275 -0.6309
 2669TIP3   OH2 7970   0.563   3.246   5.213 -0.5451 -0.0976  0.0298
 2669TIP3    H1 7971   0.535   3.335   5.233  0.2379  0.0020  0.7212
 2669TIP3    H2 7972   0.499   3.190   5.258 -1.5625  0.0865 -1.1304
 2670TIP3   OH2 7973   5.076   3.385   2.601 -0.4826  0.5475 -0.2522
 2670TIP3    H1 7974   4.984   3.361   2.605 -1.1499  2.7959 -0.4827
 2670TIP3    H2 7975   5.091   3.435   2.681  0.8077 -0.5515  0.2278
 2671TIP3   OH2 7976   4.408   5.693   3.568 -0.1675  0.5390  0.3526
 2671TIP3    H1 7977   4.384   5.608   3.606  2.5357 -1.0653 -1.1861
 2671TIP3    H2 7978   4.428   5.749   3.643  2.3746 -1.6626  1.4990
 2672TIP3   OH2 7979   1.987   5.613   2.504  0.1464 -0.2387  0.6727
 2672TIP3    H1 7980   2.017   5.624   2.413 -0.1585  3.2467  0.8380
 2672TIP3    H2 7981   1.896   5.586   2.496  0.5025 -1.3213  0.0115
 2673TIP3   OH2 7982   1.925   5.372   3.544  0.0178 -0.0137 -0.0711
 2673TIP3    H1 7983   1.945   5.295   3.597  1.4596  1.0576  1.0232
 2673TIP3    H2 7984   1.946   5.346   3.454 -1.2216 -1.4374  0.0125
 2674TIP3   OH2 7985   4.215   0.501   3.860 -0.6869  0.1556  0.6703
 2674TIP3    H1 7986   4.183   0.488   3.771  0.2124  1.0386  0.1881
 2674TIP3    H2 7987   4.291   0.443   3.867  0.5768  1.6365  0.0653
 2675TIP3   OH2 7988   1.685   5.195   0.123 -0.0825 -0.0548  0.1085
 2675TIP3    H1 7989   1.753   5.225   0.062  0.3326  0.3939  0.7778
 2675TIP3    H2 7990   1.606   5.187   0.068  0.3702 -0.0309 -0.5619
 2676TIP3   OH2 7991   2.490   0.710   2.502 -0.1507 -1.1490 -0.7401
 2676TIP3    H1 7992   2.501   0.649   2.575 -4.2641  0.0606  1.1751
 2676TIP3    H2 7993   2.544   0.785   2.525  0.8795 -1.9441 -0.4838
 2677TIP3   OH2 7994   6.809   1.109   2.848  0.1687  0.2491  0.5413
 2677TIP3    H1 7995   6.777   1.080   2.933 -1.0848 -2.2616 -0.7194
 2677TIP3    H2 7996   6.741   1.085   2.786  0.7306  2.6548 -1.1612
 2678TIP3   OH2 7997   4.431   2.365   2.709  1.0127 -0.0470 -0.4329
 2678TIP3    H1 7998   4.347   2.396   2.743  0.5791  0.0401 -1.5636
 2678TIP3    H2 7999   4.411   2.281   2.667  2.0272 -1.5624  1.8730
 2679TIP3   OH2 8000   2.668   0.002   2.249  0.6937  0.1463  0.0135
 2679TIP3    H1 8001   2.611   0.079   2.247 -1.1254 -1.1357 -0.7800
 2679TIP3    H2 8002   2.725   0.016   2.325 -0.7744  1.4658  0.9272
 2680TIP3   OH2 8003   1.177   3.354   2.281  0.2353  0.2852  0.4519
 2680TIP3    H1 8004   1.159   3.398   2.197  0.3448 -0.8579 -0.1886
 2680TIP3    H2 8005   1.168   3.423   2.346 -1.5389  0.8431 -0.3285
 2681TIP3   OH2 8006   4.739   5.516   1.425  0.4933  0.1034 -0.4793
 2681TIP3    H1 8007   4.784   5.592   1.462 -0.7382 -0.4415  2.4591
 2681TIP3    H2 8008   4.809   5.457   1.398  1.5668  0.2299  1.8295
 2682TIP3   OH2 8009   3.547   6.477   1.421 -0.1858  0.3923  0.0215
 2682TIP3    H1 8010   3.552   6.486   1.516  0.8736 -0.4360  0.0505
 2682TIP3    H2 8011   3.470   6.529   1.397 -0.8963  0.0285  1.4023
 2683TIP3   OH2 8012   6.750   4.726   3.936 -0.4664 -0.0833 -0.5683
 2683TIP3    H1 8013   6.695   4.668   3.989  0.2860 -0.1521  0.1398
 2683TIP3    H2 8014   6.805   4.772   3.999  0.9489 -0.6963 -1.3248
 2684TIP3   OH2 8015   2.008   1.411   0.910  0.0134  0.3189 -0.0730
 2684TIP3    H1 8016   1.970   1.493   0.878  0.0386  1.1930  1.9870
 2684TIP3    H2 8017   1.938   1.347   0.902  0.1120  0.4180 -2.0652
 2685TIP3   OH2 8018   3.793   4.597   4.225 -0.3296 -0.5401  0.1606
 2685TIP3    H1 8019   3.721   4.659   4.214  0.9756  0.9083 -0.6837
 2685TIP3    H2 8020   3.752   4.511   4.215 -1.6463  0.2691 -2.6664
 2686TIP3   OH2 8021   5.383   3.388   2.995 -0.3944 -0.6734  0.7282
 2686TIP3    H1 8022   5.329   3.433   3.061 -0.0427  1.3974 -0.2962
 2686TIP3    H2 8023   5.413   3.459   2.937  2.5921 -1.8661  0.6482
 2687TIP3   OH2 8024   3.782   0.526   0.431 -0.5532 -0.1065  0.1333
 2687TIP3    H1 8025   3.843   0.453   0.442  1.5727  0.7256 -4.2259
 2687TIP3    H2 8026   3.821   0.597   0.482  2.2673  0.3223 -2.3105
 2688TIP3   OH2 8027   3.106   6.742   1.589  0.4754  0.0082 -0.1354
 2688TIP3    H1 8028   3.187   6.781   1.623 -0.6071  0.8075  1.6787
 2688TIP3    H2 8029   3.116   6.648   1.605  1.3813 -0.0051 -0.7096
 2689TIP3   OH2 8030   3.018   0.988   3.215  0.4471  0.5661  0.3756
 2689TIP3    H1 8031   3.081   1.029   3.157 -0.4261  2.5448  0.7418
 2689TIP3    H2 8032   2.938   0.980   3.162  1.1871 -2.9335 -0.4488
 2690TIP3   OH2 8033   4.828   1.906   3.888 -0.3796 -0.1458 -0.1036
 2690TIP3    H1 8034   4.878   1.862   3.956 -1.1949 -0.7331  0.1359
 2690TIP3    H2 8035   4.861   1.996   3.887  0.1150 -0.3183  0.5880
 2691TIP3   OH2 8036   4.197   5.254   3.918  0.5672  0.0847 -0.4508
 2691TIP3    H1 8037   4.140   5.310   3.970  0.6427  2.4508 -2.7157
 2691TIP3    H2 8038   4.140   5.185   3.884  0.6903 -2.1153  3.2841
 2692TIP3   OH2 8039   3.892   4.195   0.063  0.3428  0.0455  0.2511
 2692TIP3    H1 8040   3.886   4.257   0.136 -2.2326 -0.7382  0.7821
 2692TIP3    H2 8041   3.972   4.144   0.082 -0.4812 -0.4256  2.8070
 2693TIP3   OH2 8042   2.285   0.160   2.960 -0.1394  0.0923  0.0010
 2693TIP3    H1 8043   2.362   0.103   2.951 -0.7245 -0.6410 -0.5127
 2693TIP3    H2 8044   2.219   0.104   3.001 -1.2960 -0.1703 -2.1053
 2694TIP3   OH2 8045   5.584   3.137   2.018  0.1276 -0.0427  0.9450
 2694TIP3    H1 8046   5.511   3.094   1.975  0.9732  0.2460 -0.8705
 2694TIP3    H2 8047   5.596   3.089   2.100 -1.2274 -0.9170  0.6564
 2695TIP3   OH2 8048   4.614   5.466   3.325 -0.1628  0.7775 -0.0713
 2695TIP3    H1 8049   4.555   5.412   3.378 -0.8610  0.5991 -1.0203
 2695TIP3    H2 8050   4.682   5.494   3.387 -0.0018 -0.8429  0.5276
 2696TIP3   OH2 8051   0.562   6.179   4.152 -0.3918  0.2354  0.1047
 2696TIP3    H1 8052   0.656   6.167   4.165 -0.5838 -0.0800  1.3580
 2696TIP3    H2 8053   0.522   6.099   4.187 -1.1124  0.2692 -0.6155
 2697TIP3   OH2 8054   0.448   2.426   4.073  0.1722 -0.4999 -0.1697
 2697TIP3    H1 8055   0.360   2.453   4.100  0.5138  0.1991  0.2691
 2697TIP3    H2 8056   0.467   2.477   3.995  0.9262  0.8031  0.8146
 2698TIP3   OH2 8057   3.789   6.177   1.036 -0.1024  0.3560 -0.3476
 2698TIP3    H1 8058   3.852   6.232   0.989 -0.5292  0.0923 -1.2607
 2698TIP3    H2 8059   3.762   6.230   1.110 -0.3490  1.3065 -1.0896
 2699TIP3   OH2 8060   0.419   0.100   1.105 -0.3181 -0.0058  0.6908
 2699TIP3    H1 8061   0.449   0.189   1.086  0.8087 -0.2568  1.1808
 2699TIP3    H2 8062   0.450   0.049   1.030 -1.7845  0.1483 -0.0593
 2700TIP3   OH2 8063   5.180   1.493   0.287  0.1274 -0.5620 -0.5675
 2700TIP3    H1 8064   5.110   1.509   0.223 -1.1414 -1.5747  0.5002
 2700TIP3    H2 8065   5.137   1.447   0.358  1.4902  0.5600  1.0652
 2701TIP3   OH2 8066   3.027   0.314   3.819 -0.4472 -0.0524  0.5867
 2701TIP3    H1 8067   3.071   0.308   3.734 -0.8930  2.3977  0.1099
 2701TIP3    H2 8068   3.092   0.283   3.882 -0.1634 -2.0611 -0.6287
 2702TIP3   OH2 8069   2.800   2.654   4.669 -0.1890  0.0930 -0.2804
 2702TIP3    H1 8070   2.733   2.587   4.657  0.6195 -0.3843 -2.5096
 2702TIP3    H2 8071   2.883   2.608   4.656  0.3966  1.4189 -1.4742
 2703TIP3   OH2 8072   0.349   0.075   3.728 -0.1629 -0.1987 -0.0292
 2703TIP3    H1 8073   0.386   0.136   3.792  0.3548  0.3729 -0.8556
 2703TIP3    H2 8074   0.275   0.122   3.690 -0.4043 -0.4944  0.0782
 2704TIP3   OH2 8075   4.144   2.431   2.160 -0.0137  0.6276 -0.1417
 2704TIP3    H1 8076   4.148   2.525   2.144 -0.6934  0.8893  1.1068
 2704TIP3    H2 8077   4.188   2.418   2.244 -1.2965  0.0663  0.4866
 2705TIP3   OH2 8078   6.699   5.672   3.384  0.3107  0.0671 -0.6844
 2705TIP3    H1 8079   6.691   5.665   3.289  1.1086  1.3997 -0.8847
 2705TIP3    H2 8080   6.622   5.627   3.418 -0.4808  0.3650 -1.9951
 2706TIP3   OH2 8081   1.432   6.039   4.353 -0.5288  0.7789 -0.1206
 2706TIP3    H1 8082   1.372   6.032   4.278  0.3675 -0.6755 -0.7421
 2706TIP3    H2 8083   1.441   5.949   4.385 -0.3343  1.2826  1.3019
 2707TIP3   OH2 8084   4.418   6.288   5.110 -0.7409  0.1143  0.4509
 2707TIP3    H1 8085   4.468   6.217   5.069  0.9419  0.7236  1.3343
 2707TIP3    H2 8086   4.371   6.246   5.182  1.2211  0.0152  1.7606
 2708TIP3   OH2 8087   6.098   2.994   4.383  0.6258 -0.3568  0.0276
 2708TIP3    H1 8088   6.042   2.919   4.360  0.1816 -0.0771  0.1789
 2708TIP3    H2 8089   6.040   3.070   4.374  1.3774  0.0983 -1.2708
 2709TIP3   OH2 8090   1.458   5.315   5.148 -0.4834  0.2184 -0.1915
 2709TIP3    H1 8091   1.501   5.360   5.075  0.1678  0.3250  0.2532
 2709TIP3    H2 8092   1.417   5.238   5.107  0.7880 -0.3247 -0.5151
 2710TIP3   OH2 8093   4.627   5.592   5.462 -0.0568  0.2600  0.4344
 2710TIP3    H1 8094   4.562   5.611   5.530  1.1099  2.2446  1.0947
 2710TIP3    H2 8095   4.694   5.540   5.507 -0.9172 -1.4399 -0.1456
 2711TIP3   OH2 8096   2.328   6.396   1.622  0.4284 -0.4162 -0.2344
 2711TIP3    H1 8097   2.348   6.450   1.699 -1.3761 -1.1915  0.8230
 2711TIP3    H2 8098   2.309   6.309   1.657 -0.7658 -0.7117 -1.5318
 2712TIP3   OH2 8099   6.399   5.070   4.348 -0.3316  0.0892  0.2878
 2712TIP3    H1 8100   6.312   5.078   4.308 -0.5015  0.1994  0.6708
 2712TIP3    H2 8101   6.414   4.976   4.353 -0.2286  0.0787 -0.2050
 2713TIP3   OH2 8102   3.878   6.692   0.336 -0.3891 -0.0809 -0.4976
 2713TIP3    H1 8103   3.848   6.705   0.246  1.2418 -0.5222 -1.1376
 2713TIP3    H2 8104   3.967   6.660   0.327  0.4404  1.5187  1.3192
 2714TIP3   OH2 8105   2.211   1.851   1.671 -0.1172  0.2726  0.5606
 2714TIP3    H1 8106   2.302   1.853   1.641  0.1573 -1.4500  1.1355
 2714TIP3    H2 8107   2.199   1.761   1.704 -1.9576  0.5378  0.7106
 2715TIP3   OH2 8108   2.419   0.666   3.951  0.1475  0.0509  0.2811
 2715TIP3    H1 8109   2.340   0.691   3.999  0.0769  0.6106 -0.1112
 2715TIP3    H2 8110   2.463   0.749   3.933 -0.0978 -0.0922 -1.0788
 2716TIP3   OH2 8111   5.796   5.968   1.509 -0.0875 -0.5111 -0.8663
 2716TIP3    H1 8112   5.731   5.909   1.471 -0.1896 -0.4073 -0.8557
 2716TIP3    H2 8113   5.754   6.000   1.590  0.4750 -1.4102 -0.1987
 2717TIP3   OH2 8114   2.227   2.459   3.731  0.1021 -0.1244  0.0656
 2717TIP3    H1 8115   2.268   2.394   3.674  1.5417  0.0068  0.8903
 2717TIP3    H2 8116   2.227   2.539   3.680  1.3608 -0.0133  0.2064
 2718TIP3   OH2 8117   1.624   0.460   3.467 -0.2349 -0.0321 -0.4214
 2718TIP3    H1 8118   1.594   0.390   3.409  0.1982 -1.1327  0.6140
 2718TIP3    H2 8119   1.717   0.469   3.448 -0.2199  0.0249 -0.3244
 2719TIP3   OH2 8120   2.336   6.446   1.355 -0.3059  0.1633  0.4831
 2719TIP3    H1 8121   2.246   6.444   1.322  0.0603  1.1435 -0.6558
 2719TIP3    H2 8122   2.333   6.398   1.437 -1.9766  0.5958  0.7069
 2720TIP3   OH2 8123   3.056   0.232   2.123 -0.0821  0.1342  0.4800
 2720TIP3    H1 8124   3.135   0.216   2.071  0.8184  0.0924  1.8250
 2720TIP3    H2 8125   2.998   0.280   2.064  1.4210  1.2273 -0.1653
 2721TIP3   OH2 8126   2.295   2.169   0.600  0.0430  0.2869 -0.0404
 2721TIP3    H1 8127   2.218   2.113   0.615  1.2001 -1.3418  0.0955
 2721TIP3    H2 8128   2.296   2.185   0.506  0.5565 -1.2794 -0.3252
 2722TIP3   OH2 8129   5.921   2.285   4.636  0.1983 -0.0611  0.2419
 2722TIP3    H1 8130   5.957   2.373   4.629 -2.0695  0.9811  0.7540
 2722TIP3    H2 8131   5.945   2.242   4.554 -0.1737  1.6625 -0.8174
 2723TIP3   OH2 8132   3.237   1.023   4.475 -0.0578  0.2858 -0.1070
 2723TIP3    H1 8133   3.332   1.019   4.470 -0.0407  1.1238 -0.7278
 2723TIP3    H2 8134   3.218   1.114   4.495 -0.7177  0.0296  0.4570
 2724TIP3   OH2 8135   2.676   5.713   0.753 -0.1838  0.6858 -0.0150
 2724TIP3    H1 8136   2.625   5.718   0.672 -0.5802 -0.3779  0.1488
 2724TIP3    H2 8137   2.734   5.638   0.741 -1.8979 -1.0092  1.5584
 2725TIP3   OH2 8138   4.653   0.369   4.153  0.5143  0.1779 -0.1987
 2725TIP3    H1 8139   4.568   0.327   4.141  0.1032  0.7954  0.4563
 2725TIP3    H2 8140   4.670   0.362   4.247  1.6660 -0.8181 -0.4555
 2726TIP3   OH2 8141   3.902   5.371   0.861 -0.0197  0.1680 -0.3116
 2726TIP3    H1 8142   3.890   5.277   0.853  0.6574  0.0066  0.5116
 2726TIP3    H2 8143   3.982   5.382   0.912 -0.3896  1.1830  0.0823
 2727TIP3   OH2 8144   6.938   4.049   4.229 -0.2407  0.3021  0.1628
 2727TIP3    H1 8145   6.926   4.143   4.237 -0.0180  0.4894 -1.2991
 2727TIP3    H2 8146   7.000   4.026   4.298  0.3860  1.3880 -0.0118
 2728TIP3   OH2 8147   4.621   2.925   1.237  0.1018 -0.3076 -0.5996
 2728TIP3    H1 8148   4.633   2.946   1.330  0.5443 -1.4061 -0.3926
 2728TIP3    H2 8149   4.578   2.840   1.238  0.0849 -0.3086 -1.4113
 2729TIP3   OH2 8150   6.391   4.015   2.376 -0.5763  0.3623 -0.4380
 2729TIP3    H1 8151   6.439   3.947   2.424  1.0414  0.6115 -1.6031
 2729TIP3    H2 8152   6.309   4.025   2.423 -0.5791 -1.9445  0.1347
 2730TIP3   OH2 8153   2.376   4.789   2.035  0.1098 -0.1863  0.0628
 2730TIP3    H1 8154   2.441   4.729   2.071 -0.1288 -2.0208 -2.3023
 2730TIP3    H2 8155   2.407   4.876   2.060  2.0759 -1.1338  1.1534
 2731TIP3   OH2 8156   3.083   5.557   0.704  0.0456  0.0022  0.2740
 2731TIP3    H1 8157   3.010   5.562   0.643  0.8400  1.6040 -0.6127
 2731TIP3    H2 8158   3.139   5.631   0.680  1.2920 -0.4056  1.7824
 2732TIP3   OH2 8159   1.864   6.710   0.836  0.1417 -0.3787 -0.5685
 2732TIP3    H1 8160   1.924   6.706   0.761 -2.0350 -1.5577 -2.3441
 2732TIP3    H2 8161   1.817   6.627   0.834 -2.0794  0.7848  0.2828
 2733TIP3   OH2 8162   3.873   2.533   3.091 -0.0422  0.1868 -0.5875
 2733TIP3    H1 8163   3.955   2.582   3.100  0.0803 -0.0521 -0.4236
 2733TIP3    H2 8164   3.894   2.445   3.121 -0.6819  0.4397  0.6332
 2734TIP3   OH2 8165   2.066   3.593   4.744  0.1601  0.4256  0.1202
 2734TIP3    H1 8166   2.142   3.577   4.689 -0.1762 -0.2768 -0.1492
 2734TIP3    H2 8167   2.103   3.616   4.830  0.6795  1.4482 -0.3657
 2735TIP3   OH2 8168   4.365   4.635   5.709  0.0748  0.4793 -0.4737
 2735TIP3    H1 8169   4.419   4.572   5.660  1.4749  0.9820  0.3493
 2735TIP3    H2 8170   4.409   4.643   5.793 -0.0169  2.5866 -0.5738
 2736TIP3   OH2 8171   3.164   3.897   5.533 -0.0719 -0.2133 -0.0500
 2736TIP3    H1 8172   3.126   3.811   5.548 -1.1487  0.2945  0.2598
 2736TIP3    H2 8173   3.118   3.954   5.595  1.2685  0.4180  0.3948
 2737TIP3   OH2 8174   5.045   6.445   0.187 -0.8392 -0.1296 -0.0972
 2737TIP3    H1 8175   5.129   6.412   0.154 -0.0761  1.1045  0.5274
 2737TIP3    H2 8176   5.053   6.442   0.282 -1.5857 -0.1696 -0.0277
 2738TIP3   OH2 8177   1.900   2.528   0.220 -0.1229  0.4258 -0.1653
 2738TIP3    H1 8178   1.829   2.472   0.189  0.6502 -0.1867 -0.8824
 2738TIP3    H2 8179   1.967   2.467   0.250  0.5629  0.9673 -0.5614
 2739TIP3   OH2 8180   5.829   1.867   3.055  0.3548 -0.0532 -0.9525
 2739TIP3    H1 8181   5.747   1.824   3.076  0.9247 -1.4687 -1.4594
 2739TIP3    H2 8182   5.817   1.901   2.966 -0.0720  0.7794 -0.5803
 2740TIP3   OH2 8183   6.545   3.342   3.114  0.1901 -0.0367  0.3063
 2740TIP3    H1 8184   6.479   3.286   3.155 -1.4639  1.2137 -0.5006
 2740TIP3    H2 8185   6.494   3.411   3.071  1.9912  0.4409 -1.2058
 2741TIP3   OH2 8186   4.740   0.502   0.587 -0.6572  0.1177 -0.2902
 2741TIP3    H1 8187   4.735   0.598   0.582 -1.5611  0.0517 -0.9844
 2741TIP3    H2 8188   4.657   0.475   0.626 -0.3945 -0.3878 -0.0687
 2742TIP3   OH2 8189   2.582   3.667   0.422 -0.0588 -0.4777 -0.0042
 2742TIP3    H1 8190   2.667   3.623   0.428 -0.1432 -0.8414 -1.2173
 2742TIP3    H2 8191   2.604   3.759   0.403  0.0706 -0.7313 -1.1564
 2743TIP3   OH2 8192   0.126   3.681   1.006  0.1964 -0.0894 -0.7367
 2743TIP3    H1 8193   0.081   3.701   0.924  2.1052  3.1670 -1.1643
 2743TIP3    H2 8194   0.190   3.613   0.982  0.9598  1.0535 -2.0980
 2744TIP3   OH2 8195   6.278   5.740   3.523  0.3198 -0.2542  0.4035
 2744TIP3    H1 8196   6.334   5.678   3.568 -1.5761 -0.3098  2.8975
 2744TIP3    H2 8197   6.253   5.804   3.590 -1.5375  0.4859 -0.8918
 2745TIP3   OH2 8198   3.976   0.330   3.814 -0.8424 -0.0507  0.3687
 2745TIP3    H1 8199   3.963   0.236   3.804 -0.2172 -0.0633 -0.4295
 2745TIP3    H2 8200   4.012   0.340   3.902 -0.5680 -0.5938  0.3222
 2746TIP3   OH2 8201   1.391   2.645   2.381 -0.3003 -0.0557 -0.7228
 2746TIP3    H1 8202   1.434   2.560   2.389 -0.6874 -0.2938 -1.0690
 2746TIP3    H2 8203   1.304   2.631   2.418 -0.2280  0.2985 -0.4203
 2747TIP3   OH2 8204   4.381   4.946   3.013  0.6113  0.0158 -0.1660
 2747TIP3    H1 8205   4.291   4.924   3.039  1.2299 -1.5721  0.8170
 2747TIP3    H2 8206   4.404   4.881   2.947  1.6056 -0.7208  0.8627
 2748TIP3   OH2 8207   4.957   0.101   3.772  0.3617 -0.0286  0.6503
 2748TIP3    H1 8208   4.994   0.045   3.704  0.2387 -0.6948  1.1219
 2748TIP3    H2 8209   4.952   0.045   3.850 -1.0037  0.2425  0.7872
 2749TIP3   OH2 8210   3.258   4.324   3.823  0.3038 -0.2440  0.0519
 2749TIP3    H1 8211   3.187   4.385   3.843  1.2106  0.5068  1.0751
 2749TIP3    H2 8212   3.223   4.238   3.844  0.6617  0.3397  3.5536
 2750TIP3   OH2 8213   3.408   6.651   2.428 -0.4743  0.1885  0.3056
 2750TIP3    H1 8214   3.335   6.593   2.406 -0.0158  0.0619 -0.9497
 2750TIP3    H2 8215   3.464   6.598   2.486  0.8077 -1.3023 -2.1512
 2751TIP3   OH2 8216   5.106   6.546   1.388 -0.1718 -0.2257  0.3768
 2751TIP3    H1 8217   5.063   6.480   1.334  0.1374 -0.8604  0.8878
 2751TIP3    H2 8218   5.044   6.563   1.459 -0.0827 -0.2578  0.4625
 2752TIP3   OH2 8219   3.002   4.427   4.879 -0.5012  0.6139 -0.1577
 2752TIP3    H1 8220   2.981   4.509   4.925  0.7191 -0.5758  2.8509
 2752TIP3    H2 8221   2.918   4.385   4.863 -1.0448  0.2695  2.9007
 2753TIP3   OH2 8222   3.334   3.232   5.447  0.2094 -0.5170  0.4528
 2753TIP3    H1 8223   3.272   3.181   5.498 -1.5190 -0.3683 -1.3836
 2753TIP3    H2 8224   3.324   3.322   5.478 -1.0326 -0.3826 -0.2670
 2754TIP3   OH2 8225   0.118   1.320   1.500  0.0571  0.1917 -0.0569
 2754TIP3    H1 8226   0.110   1.331   1.405  2.0604  2.4602 -0.0729
 2754TIP3    H2 8227   0.058   1.385   1.537 -0.0363 -0.0438  0.2081
 2755TIP3   OH2 8228   2.012   6.826   3.111 -0.0310 -0.4555 -0.0388
 2755TIP3    H1 8229   1.956   6.787   3.178 -1.9347  1.0465 -0.6779
 2755TIP3    H2 8230   1.994   6.775   3.032 -1.9304  1.0945 -0.6809
 2756TIP3   OH2 8231   5.573   6.167   0.212 -0.5512  0.4287  0.2132
 2756TIP3    H1 8232   5.558   6.136   0.301  0.8758  0.4809  0.4860
 2756TIP3    H2 8233   5.519   6.110   0.157 -1.7498  0.6486  1.1236
 2757TIP3   OH2 8234   1.357   3.930   4.048  0.1022 -0.1537 -0.1578
 2757TIP3    H1 8235   1.371   3.835   4.037 -0.0067  0.0134 -2.0671
 2757TIP3    H2 8236   1.430   3.970   4.000  1.3396  0.7911  2.3344
 2758TIP3   OH2 8237   4.007   3.155   2.173 -0.4755 -0.5729  0.1844
 2758TIP3    H1 8238   4.049   3.231   2.133  2.1120 -2.7463 -1.6068
 2758TIP3    H2 8239   4.042   3.151   2.261 -1.6960  0.9944  0.7851
 2759TIP3   OH2 8240   6.512   1.210   3.999 -0.2073  0.0347 -0.2599
 2759TIP3    H1 8241   6.551   1.297   4.000  0.3472 -0.2154  0.2468
 2759TIP3    H2 8242   6.551   1.165   4.073 -1.1828 -0.3471  0.0402
 2760TIP3   OH2 8243   3.593   3.275   2.942 -0.0521 -0.0372  0.1528
 2760TIP3    H1 8244   3.502   3.258   2.918 -0.2598  0.5867  0.4622
 2760TIP3    H2 8245   3.591   3.361   2.985  0.7008  0.0361  0.0636
 2761TIP3   OH2 8246   4.479   3.059   1.047 -0.4941  0.9394  0.5814
 2761TIP3    H1 8247   4.524   3.031   1.126  1.6349 -0.4147 -0.9827
 2761TIP3    H2 8248   4.479   3.155   1.051  0.7293  0.9100  1.6174
 2762TIP3   OH2 8249   0.881   4.438   5.499 -0.4000  0.5148 -0.1784
 2762TIP3    H1 8250   0.897   4.378   5.427 -0.0725  1.5200 -0.9651
 2762TIP3    H2 8251   0.794   4.415   5.531 -0.0446 -0.7492 -0.0752
 2763TIP3   OH2 8252   2.845   3.448   3.860  0.0743  0.2750  0.2336
 2763TIP3    H1 8253   2.935   3.419   3.844  0.2690 -0.0546  1.7334
 2763TIP3    H2 8254   2.794   3.409   3.790  0.7950 -1.2824  0.5207
 2764TIP3   OH2 8255   1.954   2.002   2.025 -0.4281 -0.7831 -0.1484
 2764TIP3    H1 8256   1.913   1.916   2.023 -1.2370 -0.4201  0.2436
 2764TIP3    H2 8257   1.885   2.063   1.997  0.3835 -0.3443 -1.2796
 2765TIP3   OH2 8258   5.825   6.273   1.091  0.0325 -0.5316 -0.4790
 2765TIP3    H1 8259   5.787   6.229   1.015  0.2954 -0.6086 -0.5660
 2765TIP3    H2 8260   5.848   6.201   1.151  2.9996 -0.7574 -1.7545
 2766TIP3   OH2 8261   3.857   6.020   4.681  0.2970 -0.2432 -0.1316
 2766TIP3    H1 8262   3.780   5.978   4.643 -0.7373  2.5532 -1.3769
 2766TIP3    H2 8263   3.863   5.983   4.769 -1.6853 -1.4814 -0.4489
 2767TIP3   OH2 8264   4.366   1.852   2.606 -0.3082 -0.3165 -0.0863
 2767TIP3    H1 8265   4.303   1.834   2.676 -1.6804  1.0897 -0.9076
 2767TIP3    H2 8266   4.346   1.788   2.538 -0.9366  0.1867 -0.3834
 2768TIP3   OH2 8267   5.295   1.437   3.076 -0.3433  0.3467  0.8091
 2768TIP3    H1 8268   5.313   1.375   3.006  3.7293  0.3361  1.6654
 2768TIP3    H2 8269   5.231   1.393   3.131 -0.8593 -1.1815 -0.9052
 2769TIP3   OH2 8270   6.305   3.316   2.222  0.4859  0.4816  0.1952
 2769TIP3    H1 8271   6.245   3.242   2.209 -0.4799  1.5376 -1.8915
 2769TIP3    H2 8272   6.391   3.276   2.230  0.0498 -0.8832 -1.4420
 2770TIP3   OH2 8273   2.483   6.134   0.816  1.1598 -0.3082  0.5640
 2770TIP3    H1 8274   2.458   6.042   0.815  2.0856 -0.5725  0.5120
 2770TIP3    H2 8275   2.499   6.157   0.725  0.9777 -0.1117  0.5806
 2771TIP3   OH2 8276   1.626   2.456   3.211 -0.3173 -0.2995  0.0359
 2771TIP3    H1 8277   1.542   2.501   3.215 -0.3739 -0.5159  2.5500
 2771TIP3    H2 8278   1.608   2.367   3.242  0.9624 -0.0831  1.5201
 2772TIP3   OH2 8279   5.757   4.284   3.535  0.3866 -0.2796 -0.2429
 2772TIP3    H1 8280   5.832   4.228   3.511  0.9319  0.5644 -0.5518
 2772TIP3    H2 8281   5.763   4.358   3.474 -1.0509 -0.4846 -0.6574
 2773TIP3   OH2 8282   6.924   3.764   3.796 -0.6715  0.6660 -0.5150
 2773TIP3    H1 8283   6.952   3.699   3.860 -2.4416 -0.5860 -0.9322
 2773TIP3    H2 8284   6.891   3.837   3.849 -0.5194  0.3832 -0.0232
 2774TIP3   OH2 8285   4.498   4.198   4.440  0.5441 -0.1331 -0.3673
 2774TIP3    H1 8286   4.429   4.264   4.452  0.5637  0.1243 -1.5573
 2774TIP3    H2 8287   4.450   4.116   4.426  0.4432  0.1312 -1.6985
 2775TIP3   OH2 8288   7.200   2.119   0.647 -0.5157 -0.6797 -0.2460
 2775TIP3    H1 8289   7.106   2.105   0.662 -0.2456 -0.9141  1.5557
 2775TIP3    H2 8290   7.213   2.213   0.659  0.0273 -1.0675  3.9443
 2776TIP3   OH2 8291   3.314   3.508   5.519 -0.5357 -0.4121 -0.3816
 2776TIP3    H1 8292   3.376   3.579   5.505  1.1616 -1.8234 -0.2970
 2776TIP3    H2 8293   3.253   3.515   5.445  0.4873  0.2247 -1.1928
 2777TIP3   OH2 8294   3.200   1.378   3.245  0.5939  0.5611 -0.6699
 2777TIP3    H1 8295   3.140   1.344   3.179 -0.3456  2.1117 -0.6542
 2777TIP3    H2 8296   3.288   1.356   3.212  0.1253 -3.5564  0.2672
 2778TIP3   OH2 8297   0.953   5.083   1.364 -0.2395  0.6301 -0.4971
 2778TIP3    H1 8298   1.019   5.150   1.384 -1.9341  1.7253  1.9904
 2778TIP3    H2 8299   0.887   5.130   1.313 -0.3465  0.2385 -0.7167
 2779TIP3   OH2 8300   1.194   4.560   1.464 -0.5970  0.1929  0.0469
 2779TIP3    H1 8301   1.195   4.565   1.559  0.8784 -0.9654  0.1423
 2779TIP3    H2 8302   1.175   4.649   1.435  0.8505  1.0136  1.4338
 2780TIP3   OH2 8303   2.168   5.789   4.562 -0.1436  0.0600  0.5250
 2780TIP3    H1 8304   2.253   5.793   4.518 -0.5801 -1.1923 -0.5062
 2780TIP3    H2 8305   2.107   5.831   4.501 -0.5673 -0.6976  0.4116
 2781TIP3   OH2 8306   4.583   6.495   5.089  0.0502  0.3029 -0.1335
 2781TIP3    H1 8307   4.521   6.428   5.118  0.2888 -0.2171 -0.8036
 2781TIP3    H2 8308   4.536   6.545   5.022 -0.1606  0.8826  0.4322
 2782TIP3   OH2 8309   4.667   5.708   5.844 -0.1890  0.9475 -0.1855
 2782TIP3    H1 8310   4.718   5.776   5.800 -0.8997  1.1321 -0.7286
 2782TIP3    H2 8311   4.602   5.755   5.896 -1.3592  0.6849 -1.3748
 2783TIP3   OH2 8312   2.511   5.371   5.746  0.4889 -0.5812  0.6437
 2783TIP3    H1 8313   2.531   5.409   5.831  1.4773 -1.2185  0.7149
 2783TIP3    H2 8314   2.565   5.292   5.742 -0.8003 -1.4762  0.1229
 2784TIP3   OH2 8315   1.385   0.219   1.625  0.6359 -0.1530 -0.6459
 2784TIP3    H1 8316   1.398   0.277   1.700  1.7096 -0.8403 -0.2869
 2784TIP3    H2 8317   1.346   0.140   1.661 -0.7461  0.2656 -1.1267
 2785TIP3   OH2 8318   2.442   2.345   5.473 -0.1827  0.1348 -0.1809
 2785TIP3    H1 8319   2.469   2.431   5.443 -0.1271 -0.1380 -0.9325
 2785TIP3    H2 8320   2.485   2.335   5.559  0.3723  0.5684 -0.4001
 2786TIP3   OH2 8321   0.949   6.747   4.017 -0.0156 -0.0668 -0.7277
 2786TIP3    H1 8322   0.925   6.750   4.110  0.4541 -0.4466 -0.5912
 2786TIP3    H2 8323   1.028   6.801   4.011  0.3357 -0.5873 -0.7869
 2787TIP3   OH2 8324   3.417   5.557   2.264  0.1296 -0.2896  0.1044
 2787TIP3    H1 8325   3.470   5.477   2.260 -0.3620 -0.5993 -0.1680
 2787TIP3    H2 8326   3.434   5.592   2.352  1.2575 -0.0579 -0.1780
 2788TIP3   OH2 8327   0.750   2.378   2.945 -0.0146  0.5629  0.4721
 2788TIP3    H1 8328   0.820   2.357   3.007  1.4941  0.4519 -1.1825
 2788TIP3    H2 8329   0.745   2.474   2.947 -0.9990  0.5136  1.7886
 2789TIP3   OH2 8330   1.859   0.263   5.153  0.0950 -0.4040 -1.0190
 2789TIP3    H1 8331   1.868   0.313   5.072 -0.6796  0.5612 -0.5251
 2789TIP3    H2 8332   1.799   0.315   5.207  0.9672 -0.7938  0.3619
 2790TIP3   OH2 8333   4.403   0.536   5.135  0.0974  0.0908 -0.4112
 2790TIP3    H1 8334   4.344   0.564   5.065 -0.7985  0.6458  0.5329
 2790TIP3    H2 8335   4.433   0.449   5.108 -0.4834  0.1644 -1.3295
 2791TIP3   OH2 8336   3.641   0.947   2.289 -0.2231 -0.1990 -0.0904
 2791TIP3    H1 8337   3.653   0.873   2.350  1.3667 -0.4511 -0.6664
 2791TIP3    H2 8338   3.725   0.992   2.290 -0.4339  0.2657 -1.4839
 2792TIP3   OH2 8339   6.296   3.551   3.828  0.1255  0.1467  0.5605
 2792TIP3    H1 8340   6.202   3.536   3.835 -0.0522  0.2063 -1.2093
 2792TIP3    H2 8341   6.316   3.613   3.898 -0.9527 -0.6193  1.5875
 2793TIP3   OH2 8342   0.466   1.660   2.443 -0.9831  0.1077  0.4294
 2793TIP3    H1 8343   0.461   1.653   2.539  0.1986 -1.3765  0.4237
 2793TIP3    H2 8344   0.517   1.583   2.417  0.7421  1.7051 -1.1976
 2794TIP3   OH2 8345   0.040   6.329   2.919  0.2591  0.2400 -0.0781
 2794TIP3    H1 8346   0.055   6.318   2.825 -0.4103  0.7750 -0.2530
 2794TIP3    H2 8347  -0.032   6.269   2.939 -0.8374  1.4345 -0.2854
 2795TIP3   OH2 8348   3.569   0.485   5.074  0.8016  0.3094 -0.4097
 2795TIP3    H1 8349   3.512   0.560   5.089  1.2010  0.1003  3.1899
 2795TIP3    H2 8350   3.515   0.422   5.026 -0.9827  1.2913  0.2120
 2796TIP3   OH2 8351   6.007   4.827   2.206  0.0277 -0.7430 -0.5517
 2796TIP3    H1 8352   5.992   4.744   2.162  0.5482 -1.0607 -0.1483
 2796TIP3    H2 8353   6.099   4.847   2.189  0.5739 -1.4400  1.2863
 2797TIP3   OH2 8354   3.126   1.180   3.524 -0.1694  0.0161 -0.0104
 2797TIP3    H1 8355   3.119   1.197   3.618 -0.0575  0.3209 -0.0552
 2797TIP3    H2 8356   3.109   1.265   3.483 -0.0644 -0.0810 -0.2589
 2798TIP3   OH2 8357   2.250   1.588   1.755  0.5983 -0.3076  0.0742
 2798TIP3    H1 8358   2.307   1.532   1.703  0.0369 -2.4386  1.6257
 2798TIP3    H2 8359   2.295   1.599   1.838 -0.8725 -1.4243  1.0557
 2799TIP3   OH2 8360   2.512   2.659   1.584  0.1350 -0.2723 -0.5398
 2799TIP3    H1 8361   2.504   2.745   1.543  1.5277  0.5720  0.8464
 2799TIP3    H2 8362   2.562   2.675   1.664  1.8120 -2.5987 -1.0138
 2800TIP3   OH2 8363   4.893   3.978   3.279 -0.0368  0.3117  0.5921
 2800TIP3    H1 8364   4.855   3.890   3.272 -0.2929  0.5151 -0.8914
 2800TIP3    H2 8365   4.973   3.973   3.226  0.0940  0.9007  0.7357
 2801TIP3   OH2 8366   3.710   0.183   2.023 -0.2951  0.3440 -0.6980
 2801TIP3    H1 8367   3.672   0.205   2.108  0.1607  0.1637 -0.4415
 2801TIP3    H2 8368   3.654   0.227   1.959 -0.9505  0.0481 -0.3343
 2802TIP3   OH2 8369   4.051   3.346   0.134  0.2658  0.6548  0.1290
 2802TIP3    H1 8370   4.122   3.283   0.138 -0.1609  0.1219 -0.5195
 2802TIP3    H2 8371   4.054   3.392   0.218  0.3027 -0.5359  0.7920
 2803TIP3   OH2 8372   2.315   4.227   4.979 -0.1342  0.0532  0.3031
 2803TIP3    H1 8373   2.316   4.173   4.899  0.5072 -0.3837  0.6011
 2803TIP3    H2 8374   2.222   4.244   4.995 -0.2766  0.0346 -0.4620
 2804TIP3   OH2 8375   6.085   2.035   2.843 -0.3781 -0.3042 -0.4689
 2804TIP3    H1 8376   5.999   2.028   2.801  0.2654  0.1666 -1.9445
 2804TIP3    H2 8377   6.131   2.101   2.791  1.1950 -1.2164 -0.2950
 2805TIP3   OH2 8378   5.711   5.748   4.002  0.6864 -0.3084 -0.4366
 2805TIP3    H1 8379   5.800   5.718   3.986  1.3018  1.0014  0.3136
 2805TIP3    H2 8380   5.680   5.779   3.916  1.0127 -0.6137 -0.6664
 2806TIP3   OH2 8381   4.186   6.648   2.502  0.1187 -0.2602 -0.1548
 2806TIP3    H1 8382   4.114   6.587   2.489 -0.6198  0.7535 -0.9452
 2806TIP3    H2 8383   4.251   6.598   2.552  0.0672 -2.0763 -1.8027
 2807TIP3   OH2 8384   0.643   3.836   2.706  0.2729 -0.4601 -0.2219
 2807TIP3    H1 8385   0.702   3.880   2.645 -0.1437 -1.0623 -1.0740
 2807TIP3    H2 8386   0.698   3.813   2.780  0.7621  0.3898 -0.3030
 2808TIP3   OH2 8387   0.517   3.355   4.008  0.1077  0.0689 -0.5300
 2808TIP3    H1 8388   0.442   3.295   4.004 -0.5510  0.8436 -0.2059
 2808TIP3    H2 8389   0.478   3.441   3.991  1.0152  0.4161 -0.8720
 2809TIP3   OH2 8390   3.567   5.617   4.710  0.1343  0.4153 -0.1057
 2809TIP3    H1 8391   3.562   5.531   4.751  2.1673 -0.6417 -1.8644
 2809TIP3    H2 8392   3.562   5.679   4.783 -0.2806 -1.2122  1.3126
 2810TIP3   OH2 8393   6.617   2.198   0.523 -0.3417 -0.1183  0.3340
 2810TIP3    H1 8394   6.688   2.134   0.523 -0.5884 -0.4450 -1.3746
 2810TIP3    H2 8395   6.538   2.146   0.507 -0.7041  0.4754  0.1578
 2811TIP3   OH2 8396   6.358   1.323   1.425 -0.6174 -0.7806  0.4786
 2811TIP3    H1 8397   6.278   1.298   1.380 -1.4743 -0.7747  1.9275
 2811TIP3    H2 8398   6.416   1.354   1.356 -1.0681 -2.7458 -0.8648
 2812TIP3   OH2 8399   2.674   2.519   5.028  0.0552  0.5905  0.4500
 2812TIP3    H1 8400   2.722   2.601   5.038  1.6168 -0.4388  2.0495
 2812TIP3    H2 8401   2.723   2.471   4.961 -0.6657  0.8004 -0.2451
 2813TIP3   OH2 8402   1.460   6.625   0.717  0.3561  0.1213  0.5567
 2813TIP3    H1 8403   1.520   6.551   0.709  0.2281 -0.0954  1.4941
 2813TIP3    H2 8404   1.486   6.685   0.647  0.4561 -0.8059 -0.2158
 2814TIP3   OH2 8405   1.696   0.898   3.213 -0.0556 -0.0065  0.2069
 2814TIP3    H1 8406   1.746   0.980   3.222  0.3553 -0.1087 -0.9174
 2814TIP3    H2 8407   1.761   0.833   3.188 -0.3912 -0.6815  1.0632
 2815TIP3   OH2 8408   4.015   5.612   0.515  0.1766  0.0074 -0.6637
 2815TIP3    H1 8409   3.994   5.652   0.431 -2.0563 -0.3883 -0.3569
 2815TIP3    H2 8410   3.972   5.668   0.580  0.0572 -0.8653  0.0328
 2816TIP3   OH2 8411   1.466   2.082   2.598 -0.1850  0.4059  0.8201
 2816TIP3    H1 8412   1.534   2.042   2.545  0.2679  1.4171  0.6116
 2816TIP3    H2 8413   1.384   2.061   2.553  0.0526 -0.1618  0.6520
 2817TIP3   OH2 8414   4.729   6.198   1.940 -0.0265 -0.2630  0.5163
 2817TIP3    H1 8415   4.665   6.209   1.870 -0.6732 -1.0249  0.9816
 2817TIP3    H2 8416   4.793   6.136   1.904  0.0741 -0.0433  0.3134
 2818TIP3   OH2 8417   2.885   2.717   1.623  0.1299 -0.2454  0.0153
 2818TIP3    H1 8418   2.810   2.698   1.679 -2.0432  0.3022 -2.4862
 2818TIP3    H2 8419   2.897   2.637   1.571  0.6058  0.0271 -0.3069
 2819TIP3   OH2 8420   2.904   1.004   3.463  0.3359  0.1467  0.2124
 2819TIP3    H1 8421   2.933   0.991   3.373  0.5733  0.3166  0.2640
 2819TIP3    H2 8422   2.972   1.057   3.503 -0.1648  0.7641  0.2691
 2820TIP3   OH2 8423   5.782   5.153   5.242  0.2765  0.5675 -0.1328
 2820TIP3    H1 8424   5.853   5.216   5.237  0.4517  1.0125  4.1724
 2820TIP3    H2 8425   5.704   5.203   5.216  1.0869  0.8162 -2.2832
 2821TIP3   OH2 8426   3.815   1.496   2.869 -0.1417  0.5008 -0.1904
 2821TIP3    H1 8427   3.855   1.489   2.782 -2.4113  2.3489 -1.4832
 2821TIP3    H2 8428   3.748   1.563   2.860  0.5987  1.9731  3.4546
 2822TIP3   OH2 8429   4.460   1.312   1.406  0.2179  0.0659 -0.7430
 2822TIP3    H1 8430   4.447   1.390   1.352 -1.2791 -0.4107 -1.1234
 2822TIP3    H2 8431   4.388   1.314   1.469 -0.0065 -1.1332 -0.9327
 2823TIP3   OH2 8432   0.875   3.905   5.347  0.2920 -0.3696 -0.5507
 2823TIP3    H1 8433   0.851   3.822   5.389  0.9232 -0.8420 -1.0956
 2823TIP3    H2 8434   0.961   3.927   5.384 -0.4840  0.8005  0.6571
 2824TIP3   OH2 8435   4.791   3.624   3.497 -0.3330 -0.0230 -0.0369
 2824TIP3    H1 8436   4.787   3.696   3.560 -1.8719 -0.5482  0.5198
 2824TIP3    H2 8437   4.727   3.647   3.430  0.6480  0.0943 -0.9642
 2825TIP3   OH2 8438   6.027   2.126   4.434  0.8299 -0.1302  0.0782
 2825TIP3    H1 8439   6.014   2.032   4.436  0.1321 -0.2077 -2.9644
 2825TIP3    H2 8440   6.027   2.149   4.341  2.2626  2.7214  0.6462
 2826TIP3   OH2 8441   3.317   1.178   5.760 -0.2821 -0.0153  0.0749
 2826TIP3    H1 8442   3.406   1.196   5.791 -0.0084 -0.1931 -0.5928
 2826TIP3    H2 8443   3.320   1.087   5.731 -0.6477  0.0240 -0.0877
 2827TIP3   OH2 8444   0.128   4.638   5.734 -0.1577  0.1715 -0.0469
 2827TIP3    H1 8445   0.112   4.707   5.669 -0.3456  2.3674  2.1771
 2827TIP3    H2 8446   0.105   4.678   5.818 -0.3672 -2.6806  1.3818
 2828TIP3   OH2 8447   1.930   6.511   0.661 -0.6438 -0.5560  0.0313
 2828TIP3    H1 8448   1.870   6.466   0.721  1.5779  0.5396  3.3894
 2828TIP3    H2 8449   2.009   6.457   0.661 -0.6810 -0.6993 -2.3124
 2829TIP3   OH2 8450   5.443   0.667   5.741 -0.4591  0.0830 -0.2646
 2829TIP3    H1 8451   5.532   0.650   5.772 -0.2106  1.0800 -0.4005
 2829TIP3    H2 8452   5.428   0.601   5.673  0.0622 -0.2790 -0.0285
 2830TIP3   OH2 8453   6.760   0.742   4.086  0.2229 -0.0349 -0.2437
 2830TIP3    H1 8454   6.721   0.794   4.156 -1.7232 -0.5646 -0.8936
 2830TIP3    H2 8455   6.711   0.767   4.007  0.7380 -1.2411 -0.9737
 2831TIP3   OH2 8456   0.929   6.362   3.429  0.7985  0.4615 -0.1746
 2831TIP3    H1 8457   0.914   6.345   3.336  1.3022 -1.0897  0.0024
 2831TIP3    H2 8458   1.021   6.341   3.443  0.7291  0.6892  0.6704
 2832TIP3   OH2 8459   2.395   2.783   2.864  0.2483  0.9358  0.5075
 2832TIP3    H1 8460   2.471   2.794   2.807  0.3616  1.3859  0.7430
 2832TIP3    H2 8461   2.401   2.855   2.926  0.0842  0.4923  1.0419
 2833TIP3   OH2 8462   5.132   2.228   0.851 -0.3857 -0.2586 -0.1842
 2833TIP3    H1 8463   5.132   2.239   0.946 -0.4926 -1.3074 -0.0513
 2833TIP3    H2 8464   5.127   2.133   0.838 -4.0419 -0.0775 -1.2099
 2834TIP3   OH2 8465   3.370   1.215   1.324 -0.5332 -0.4645  0.2754
 2834TIP3    H1 8466   3.413   1.167   1.395 -0.6134 -1.0160 -0.0466
 2834TIP3    H2 8467   3.323   1.285   1.369  0.9062  0.3325  0.6233
 2835TIP3   OH2 8468   5.832   0.070   0.734  0.3833  0.3520  0.2921
 2835TIP3    H1 8469   5.913   0.040   0.775 -1.0021 -2.7621  1.0559
 2835TIP3    H2 8470   5.838   0.040   0.643  0.5237  1.1377  0.0295
 2836TIP3   OH2 8471   4.679   4.539   4.324  0.2292  0.2018 -0.1525
 2836TIP3    H1 8472   4.615   4.609   4.314 -0.4970 -0.2813  0.9066
 2836TIP3    H2 8473   4.661   4.479   4.251  0.2901  0.6900 -0.5670
 2837TIP3   OH2 8474   5.379   2.734   5.627 -0.7844 -0.1115 -0.4117
 2837TIP3    H1 8475   5.448   2.801   5.630  0.8284 -1.6193 -1.6422
 2837TIP3    H2 8476   5.300   2.780   5.654  0.9235  1.3598  2.5729
 2838TIP3   OH2 8477   5.381   5.206   4.905 -0.8086 -0.8378 -0.0865
 2838TIP3    H1 8478   5.290   5.201   4.877  0.1278 -0.5421 -3.7711
 2838TIP3    H2 8479   5.423   5.130   4.863  1.0588  0.3841 -0.5417
 2839TIP3   OH2 8480   0.340   1.944   5.251 -0.0745 -0.0579  0.0459
 2839TIP3    H1 8481   0.307   1.955   5.162 -0.8476  1.6150  0.5177
 2839TIP3    H2 8482   0.416   2.002   5.257 -0.8360  0.8958  0.8666
 2840TIP3   OH2 8483   6.098   5.266   1.118 -0.6414  0.1130 -0.0259
 2840TIP3    H1 8484   6.091   5.329   1.047 -1.5891  0.0467 -0.0043
 2840TIP3    H2 8485   6.059   5.186   1.084  1.4895 -0.8274 -0.4201
 2841TIP3   OH2 8486   3.352   3.947   4.170  0.4990  0.1853  0.0836
 2841TIP3    H1 8487   3.430   3.895   4.151  0.2633  0.6079 -2.2484
 2841TIP3    H2 8488   3.296   3.888   4.222  0.4479 -1.7735 -2.0594
 2842TIP3   OH2 8489   2.854   6.453   4.602 -0.5564 -0.3133  0.3672
 2842TIP3    H1 8490   2.841   6.529   4.659  0.9962 -0.4145  0.8885
 2842TIP3    H2 8491   2.876   6.490   4.517  0.8836 -0.1428  0.7861
 2843TIP3   OH2 8492   1.948   4.239   1.504 -0.1775 -0.1918 -0.3396
 2843TIP3    H1 8493   1.985   4.157   1.536  0.2551 -0.0101 -0.3752
 2843TIP3    H2 8494   1.873   4.212   1.451  0.4742 -0.6122 -1.0559
 2844TIP3   OH2 8495   7.026   4.607   5.495 -0.2631 -0.5063 -0.3895
 2844TIP3    H1 8496   7.085   4.533   5.483 -1.8997 -1.6173 -2.1920
 2844TIP3    H2 8497   7.006   4.637   5.406 -2.0024  0.1137  0.1637
 2845TIP3   OH2 8498   5.690   3.582   3.107  0.5298  0.1180 -0.5386
 2845TIP3    H1 8499   5.621   3.621   3.053 -2.3404 -2.6862  0.7738
 2845TIP3    H2 8500   5.719   3.505   3.057  1.1038  0.0371 -0.0952
 2846TIP3   OH2 8501   4.068   4.843   0.840 -0.1420  0.0566 -0.7135
 2846TIP3    H1 8502   4.007   4.831   0.912  1.4185  1.6496  0.9772
 2846TIP3    H2 8503   4.070   4.758   0.796 -0.6212 -1.2237  1.5605
 2847TIP3   OH2 8504   2.136   1.319   3.147  0.0670  0.3626  0.2466
 2847TIP3    H1 8505   2.123   1.413   3.159 -1.6215  0.0856  0.8606
 2847TIP3    H2 8506   2.061   1.278   3.191  1.8624 -1.3826  1.8988
 2848TIP3   OH2 8507   6.027   3.407   3.538  0.7666  0.2103  0.6220
 2848TIP3    H1 8508   6.037   3.402   3.443 -2.5367  0.4582  0.1485
 2848TIP3    H2 8509   6.068   3.327   3.571  2.5900  0.4526 -0.8895
 2849TIP3   OH2 8510   1.361   3.252   0.176  0.1567  0.1698 -0.0487
 2849TIP3    H1 8511   1.418   3.185   0.138  0.9359 -0.0071  1.3609
 2849TIP3    H2 8512   1.395   3.334   0.141 -0.7165 -0.1139 -1.6772
 2850TIP3   OH2 8513   2.836   1.364   3.371 -0.3833  0.4444 -0.2435
 2850TIP3    H1 8514   2.826   1.286   3.317 -1.4286 -0.2316  0.8831
 2850TIP3    H2 8515   2.768   1.424   3.340 -0.9153  0.0962  0.2251
 2851TIP3   OH2 8516   6.502   6.767   3.947  0.6466  0.5658 -0.0838
 2851TIP3    H1 8517   6.563   6.705   3.986  0.0600  1.4540  2.3968
 2851TIP3    H2 8518   6.541   6.853   3.964  0.1934  1.0174 -1.2071
 2852TIP3   OH2 8519   1.778   2.959   0.538  0.7966  0.1299 -0.0852
 2852TIP3    H1 8520   1.782   3.013   0.617  0.3539 -0.9243  0.6829
 2852TIP3    H2 8521   1.708   2.896   0.555  1.5346 -0.9246 -0.7934
 2853TIP3   OH2 8522   1.307   2.695   5.100 -0.2104  0.5358 -0.3667
 2853TIP3    H1 8523   1.385   2.709   5.046  0.4088  0.3334  0.4556
 2853TIP3    H2 8524   1.240   2.668   5.038  1.1937 -2.4459 -0.7800
 2854TIP3   OH2 8525   1.934   2.065   0.161 -0.0709  0.1757  0.1523
 2854TIP3    H1 8526   1.958   1.974   0.148  0.8568  0.2916  1.0155
 2854TIP3    H2 8527   1.842   2.062   0.187 -0.6887 -0.3479 -1.8786
 2855TIP3   OH2 8528   6.550   0.056   0.654  0.2505  0.4780  0.0820
 2855TIP3    H1 8529   6.556   0.078   0.747  0.9453  0.6300  0.0072
 2855TIP3    H2 8530   6.458   0.031   0.641  0.3787 -0.5989  1.0401
 2856TIP3   OH2 8531   6.552   4.597   3.777 -0.4250 -0.3568 -0.3478
 2856TIP3    H1 8532   6.517   4.532   3.838 -1.1258  1.3230  1.1254
 2856TIP3    H2 8533   6.603   4.656   3.832  0.6836  0.0222 -1.7407
 2857TIP3   OH2 8534   1.720   1.715   3.978 -0.3016 -1.0467  0.1263
 2857TIP3    H1 8535   1.763   1.800   3.968 -1.1601 -0.2707  2.3952
 2857TIP3    H2 8536   1.787   1.659   4.015  0.0463 -1.1787 -0.6706
 2858TIP3   OH2 8537   6.295   3.206   1.803  0.1713  0.2522  0.0010
 2858TIP3    H1 8538   6.327   3.296   1.798  1.3213 -0.1401  0.0212
 2858TIP3    H2 8539   6.367   3.153   1.770  0.1295 -0.7998  1.5135
 2859TIP3   OH2 8540   6.971   4.384   2.923 -0.3026 -0.3338  0.1772
 2859TIP3    H1 8541   6.947   4.303   2.878  1.2555 -0.0805 -1.2186
 2859TIP3    H2 8542   6.934   4.375   3.011 -3.6751 -0.7751 -1.1192
 2860TIP3   OH2 8543   1.171   0.967   0.002  0.0473  0.3710  0.1870
 2860TIP3    H1 8544   1.090   1.018   0.001 -1.1408 -1.2529  2.9025
 2860TIP3    H2 8545   1.230   1.018   0.059  0.1432  0.4358  0.0317
 2861TIP3   OH2 8546   1.065   0.604   5.774 -0.0602 -0.4475  0.1165
 2861TIP3    H1 8547   1.124   0.677   5.793  0.7020 -0.3027 -2.4162
 2861TIP3    H2 8548   1.123   0.528   5.763 -0.7126 -1.1287  1.2575
 2862TIP3   OH2 8549   6.312   6.128   5.837  0.1253  0.3396 -0.0383
 2862TIP3    H1 8550   6.251   6.103   5.905  0.5201  0.2008  0.2640
 2862TIP3    H2 8551   6.324   6.049   5.784 -0.3966  0.5237 -0.4353
 2863TIP3   OH2 8552   4.833   0.611   5.685  0.3180 -0.0760  0.1671
 2863TIP3    H1 8553   4.807   0.699   5.714 -0.1357 -0.4167  0.8168
 2863TIP3    H2 8554   4.928   0.609   5.700  0.0919 -0.2854  1.8193
 2864TIP3   OH2 8555   5.019   1.639   3.286  0.2324 -0.5082  0.0433
 2864TIP3    H1 8556   4.997   1.602   3.201  1.4776 -0.4675 -0.3257
 2864TIP3    H2 8557   5.058   1.724   3.266 -1.8369  0.7062  0.8315
 2865TIP3   OH2 8558   1.669   2.732   4.403 -0.1970  0.4657  0.2734
 2865TIP3    H1 8559   1.695   2.640   4.396  0.4832  0.6774 -0.1386
 2865TIP3    H2 8560   1.588   2.730   4.453 -0.5679 -0.4185 -0.3240
 2866TIP3   OH2 8561   4.783   0.055   2.978 -0.1849  0.7125  0.5139
 2866TIP3    H1 8562   4.854   0.118   2.980  1.3882 -0.9738  1.2337
 2866TIP3    H2 8563   4.814  -0.018   3.032 -1.9736 -0.6022 -0.1154
 2867TIP3   OH2 8564   1.792   5.267   2.604  0.0335  0.4653  0.3060
 2867TIP3    H1 8565   1.728   5.201   2.578  0.2971 -0.2222  1.3323
 2867TIP3    H2 8566   1.759   5.349   2.566 -0.3228 -0.2369 -0.9420
 2868TIP3   OH2 8567   1.747   4.530   0.403 -0.3679 -0.1449 -0.5961
 2868TIP3    H1 8568   1.743   4.591   0.330  1.9672 -0.2230 -0.8783
 2868TIP3    H2 8569   1.798   4.575   0.470 -1.6726 -0.4397  0.6547
 2869TIP3   OH2 8570   0.564   5.687   5.605  0.3365 -0.6923  0.3561
 2869TIP3    H1 8571   0.560   5.615   5.542  1.7379 -0.4579 -0.0483
 2869TIP3    H2 8572   0.505   5.753   5.569  0.8384 -0.7092 -0.5300
 2870TIP3   OH2 8573   0.432   5.252   5.874 -0.2178  0.3130 -0.2016
 2870TIP3    H1 8574   0.345   5.288   5.857 -0.1282  0.7572  0.2560
 2870TIP3    H2 8575   0.444   5.185   5.806 -0.9389  0.1987 -0.2273
 2871TIP3   OH2 8576   1.708   1.529   0.379 -0.4138 -0.0744 -0.3684
 2871TIP3    H1 8577   1.647   1.501   0.447  0.1267 -0.5649 -0.0746
 2871TIP3    H2 8578   1.664   1.508   0.297 -1.3057  1.0139 -0.1956
 2872TIP3   OH2 8579   0.672   3.346   0.788  0.5547  0.3947 -0.1142
 2872TIP3    H1 8580   0.713   3.397   0.718  1.1299 -0.3920 -0.3722
 2872TIP3    H2 8581   0.708   3.384   0.868 -0.5394  1.6692 -0.1921
 2873TIP3   OH2 8582   1.862   3.676   2.573  0.5208  0.0745  0.4055
 2873TIP3    H1 8583   1.824   3.635   2.651  0.8318 -0.7439  0.1331
 2873TIP3    H2 8584   1.850   3.611   2.503  1.7491  0.0976  0.1507
 2874TIP3   OH2 8585   0.583   0.225   3.847  0.2649 -0.7795 -0.1368
 2874TIP3    H1 8586   0.567   0.262   3.760 -0.7674 -1.0444 -0.0727
 2874TIP3    H2 8587   0.672   0.254   3.869 -0.1928  0.9806 -0.4318
 2875TIP3   OH2 8588   4.688   4.922   2.760 -0.3484 -0.3612 -0.2683
 2875TIP3    H1 8589   4.683   5.012   2.728 -2.3092 -0.6354 -0.8359
 2875TIP3    H2 8590   4.741   4.928   2.839  0.8026  1.0361 -1.0930
 2876TIP3   OH2 8591   0.816   2.359   4.466 -0.1674 -0.4918 -0.0827
 2876TIP3    H1 8592   0.729   2.365   4.428 -0.8509  0.1163  1.5059
 2876TIP3    H2 8593   0.804   2.312   4.548  1.3459 -2.2239 -0.7638
 2877TIP3   OH2 8594   6.907   1.523   4.789 -0.0116 -0.1602  0.1874
 2877TIP3    H1 8595   6.856   1.511   4.709  0.0872 -0.1993  0.1302
 2877TIP3    H2 8596   6.910   1.618   4.801  0.3320 -0.1374 -0.0879
 2878TIP3   OH2 8597   5.906   1.130   1.123 -0.1424 -0.3579  0.5258
 2878TIP3    H1 8598   5.895   1.222   1.145  0.8100  0.0985 -0.7753
 2878TIP3    H2 8599   5.832   1.109   1.067  1.1953  0.4998 -1.6777
 2879TIP3   OH2 8600   6.348   0.423   2.134 -0.0247 -0.0777 -0.0797
 2879TIP3    H1 8601   6.304   0.370   2.200 -1.6164 -0.8774 -1.7096
 2879TIP3    H2 8602   6.412   0.363   2.094  2.2464  0.8943  1.8319
 2880TIP3   OH2 8603   1.816   2.967   4.728 -0.1073 -0.1092  0.2495
 2880TIP3    H1 8604   1.889   2.937   4.781  0.1290  1.7361  1.0538
 2880TIP3    H2 8605   1.854   3.034   4.670 -0.8444 -0.3120 -0.4999
 2881TIP3   OH2 8606   3.147   5.891   3.909 -0.1667 -0.4229 -0.1387
 2881TIP3    H1 8607   3.196   5.834   3.967  0.6510 -0.3982 -0.7924
 2881TIP3    H2 8608   3.056   5.883   3.939  0.2476 -0.3079  1.2195
 2882TIP3   OH2 8609   0.743   5.310   1.521 -0.0558  0.6863 -0.0946
 2882TIP3    H1 8610   0.722   5.355   1.602 -1.1309 -0.0762  0.0788
 2882TIP3    H2 8611   0.763   5.379   1.458  1.9231  1.2678  1.0735
 2883TIP3   OH2 8612   7.071   3.990   2.549  0.1340 -0.0053  0.2350
 2883TIP3    H1 8613   7.150   3.968   2.598  0.2814 -0.2026 -0.0860
 2883TIP3    H2 8614   7.074   3.933   2.472  0.7285  1.4005 -0.8144
 2884TIP3   OH2 8615   5.819   0.265   3.103  0.3049 -0.7452 -0.0241
 2884TIP3    H1 8616   5.803   0.183   3.056 -1.5331 -2.2968  3.0034
 2884TIP3    H2 8617   5.745   0.321   3.079  0.4155 -0.7767 -0.4459
 2885TIP3   OH2 8618   7.211   6.365   2.040  0.1147 -0.1982  0.1410
 2885TIP3    H1 8619   7.226   6.459   2.037 -0.3113 -0.0965  0.9371
 2885TIP3    H2 8620   7.177   6.343   1.953 -2.2144  0.8239  0.7188
 2886TIP3   OH2 8621   0.961   1.797   2.370  0.0364  0.0831  0.3962
 2886TIP3    H1 8622   0.978   1.850   2.292 -0.8875 -0.4055 -0.1629
 2886TIP3    H2 8623   1.047   1.775   2.404  0.4651  0.0147 -0.6935
 2887TIP3   OH2 8624   6.938   1.780   3.072 -0.9865 -0.2018  0.0688
 2887TIP3    H1 8625   6.844   1.784   3.054 -1.4980 -0.5129  2.3993
 2887TIP3    H2 8626   6.960   1.687   3.065 -0.5046  0.0108 -1.8259
 2888TIP3   OH2 8627   3.454   4.226   2.965 -0.1364 -0.2089  0.7923
 2888TIP3    H1 8628   3.424   4.222   3.056  0.7472 -1.2969  1.0715
 2888TIP3    H2 8629   3.550   4.218   2.971 -0.0793 -0.4711 -0.2292
 2889TIP3   OH2 8630   5.628   5.054   0.623 -0.0090 -0.3552  0.1776
 2889TIP3    H1 8631   5.690   4.983   0.606  0.4009  0.3095 -1.2026
 2889TIP3    H2 8632   5.545   5.009   0.643  0.8935 -1.2508  2.1083
 2890TIP3   OH2 8633   6.789   3.955   5.886  0.3343 -0.2353  0.0757
 2890TIP3    H1 8634   6.755   3.866   5.871 -0.8689  0.2826 -0.4593
 2890TIP3    H2 8635   6.711   4.011   5.881  1.3653  1.1288 -2.0617
 2891TIP3   OH2 8636   6.940   0.625   5.065 -0.8132  0.0578 -0.2829
 2891TIP3    H1 8637   6.972   0.715   5.072  0.5016 -0.2928 -1.3588
 2891TIP3    H2 8638   6.999   0.574   5.121 -1.2238 -0.2188 -0.0958
 2892TIP3   OH2 8639   2.270   3.727   5.687 -0.3815  0.3518 -0.6218
 2892TIP3    H1 8640   2.303   3.801   5.738 -2.5968 -0.9565  3.0738
 2892TIP3    H2 8641   2.212   3.767   5.622  0.0277  1.9297 -0.0543
 2893TIP3   OH2 8642   5.518   5.545   1.787 -0.3612  0.2913  0.0451
 2893TIP3    H1 8643   5.600   5.525   1.831 -0.3794 -0.5653 -0.2987
 2893TIP3    H2 8644   5.543   5.560   1.695 -0.4200  1.3443  0.1857
 2894TIP3   OH2 8645   0.067   1.951   0.955 -0.0531 -0.0768  0.4142
 2894TIP3    H1 8646  -0.011   2.006   0.963  0.9084  1.4624 -0.3192
 2894TIP3    H2 8647   0.035   1.870   0.915 -1.2208  0.6474 -0.1897
 2895TIP3   OH2 8648   3.786   0.630   4.410  0.6185  0.1727 -0.5993
 2895TIP3    H1 8649   3.827   0.717   4.410  1.2511 -0.1075 -1.2834
 2895TIP3    H2 8650   3.776   0.609   4.317  1.6719 -1.0248 -0.4602
 2896TIP3   OH2 8651   1.955   6.758   4.667  0.0911  0.0990  0.0318
 2896TIP3    H1 8652   1.894   6.831   4.656  0.0223 -0.0072 -0.2950
 2896TIP3    H2 8653   1.978   6.732   4.578  0.1427 -0.2557  0.1471
 2897TIP3   OH2 8654   4.229   6.754   0.958  0.3372  0.8263  0.1092
 2897TIP3    H1 8655   4.277   6.837   0.959  0.8826  0.6148 -2.3284
 2897TIP3    H2 8656   4.276   6.700   0.895 -0.9539 -0.7574  0.4462
 2898TIP3   OH2 8657   2.282   2.016   4.600 -0.2761 -0.5089  0.1354
 2898TIP3    H1 8658   2.237   1.955   4.541  1.4455 -3.1557  1.3699
 2898TIP3    H2 8659   2.368   2.027   4.561 -0.1577  0.1550  0.5757
 2899TIP3   OH2 8660   2.791   1.493   5.202 -0.0371  0.0129  0.3376
 2899TIP3    H1 8661   2.777   1.516   5.294 -1.4974 -1.8008  0.6282
 2899TIP3    H2 8662   2.716   1.439   5.179  1.2303 -1.1316 -1.3752
 2900TIP3   OH2 8663   4.106   2.287   5.011  0.5535  0.3665  0.0402
 2900TIP3    H1 8664   4.111   2.230   5.088 -1.6446 -1.8778 -1.3143
 2900TIP3    H2 8665   4.153   2.238   4.943  0.3079  1.1213 -0.6909
 2901TIP3   OH2 8666   6.401   1.061   3.641 -0.5108 -0.0936  0.1121
 2901TIP3    H1 8667   6.353   1.088   3.719 -2.3301 -1.8296 -0.3439
 2901TIP3    H2 8668   6.448   0.982   3.668  0.3725  0.3516 -0.0678
 2902TIP3   OH2 8669   4.615   1.040   3.051 -0.3370  0.2570 -0.3105
 2902TIP3    H1 8670   4.527   1.035   3.013 -0.6640  3.3126 -0.2355
 2902TIP3    H2 8671   4.615   0.972   3.119 -2.6936  0.2212 -0.2399
 2903TIP3   OH2 8672   3.764   5.903   2.031 -0.0883  0.1382 -0.2738
 2903TIP3    H1 8673   3.838   5.846   2.051 -1.8614 -1.4158  2.6820
 2903TIP3    H2 8674   3.804   5.985   2.004  2.7041 -0.8821  0.3504
 2904TIP3   OH2 8675   3.927   4.699   1.383  0.0737 -0.8133  0.5585
 2904TIP3    H1 8676   3.996   4.633   1.390  1.1045  0.1342 -0.1940
 2904TIP3    H2 8677   3.944   4.759   1.456  1.4817  0.6462 -0.8604
 2905TIP3   OH2 8678   2.648   6.285   5.031  0.6074  0.4388  0.3931
 2905TIP3    H1 8679   2.566   6.257   4.990  0.4620 -0.3743  1.2266
 2905TIP3    H2 8680   2.714   6.224   4.999  1.2520  2.0349 -1.5498
 2906TIP3   OH2 8681   0.287   1.753   0.121 -0.3359  0.3480  0.4841
 2906TIP3    H1 8682   0.294   1.833   0.172 -2.3318  0.0979  1.2425
 2906TIP3    H2 8683   0.276   1.783   0.031 -1.7481  0.9893  0.8403
 2907TIP3   OH2 8684   1.972   1.922   4.041  0.2017 -0.2529  0.1607
 2907TIP3    H1 8685   2.023   1.843   4.059  1.0927  0.1992 -0.3032
 2907TIP3    H2 8686   2.009   1.957   3.960 -1.0453 -0.0560 -0.3567
 2908TIP3   OH2 8687   3.804   2.871   3.979 -0.0880  0.7802  0.6290
 2908TIP3    H1 8688   3.772   2.906   3.896 -0.8385  0.7202  0.8839
 2908TIP3    H2 8689   3.771   2.781   3.980 -0.8407  1.0516  1.3798
 2909TIP3   OH2 8690   5.577   0.229   3.946  0.0583  0.0255  0.5215
 2909TIP3    H1 8691   5.629   0.162   3.902  0.4325  0.8228 -0.3049
 2909TIP3    H2 8692   5.505   0.182   3.986 -1.1467 -0.6448 -2.1772
 2910TIP3   OH2 8693   3.368   1.938   4.105  0.3977 -0.0100 -0.6832
 2910TIP3    H1 8694   3.339   1.872   4.042 -0.5212 -0.3458  0.0608
 2910TIP3    H2 8695   3.290   1.957   4.157  0.5582  1.8877 -1.0466
 2911TIP3   OH2 8696   1.097   5.034   1.629 -0.1331 -0.1422 -1.0422
 2911TIP3    H1 8697   1.124   5.113   1.583  2.5462 -0.6247 -0.4532
 2911TIP3    H2 8698   1.070   5.065   1.715  1.7560  0.1255 -0.4978
 2912TIP3   OH2 8699   0.081   0.223   2.697  0.0413 -0.5717  0.4575
 2912TIP3    H1 8700   0.140   0.212   2.623  1.1411 -0.7922  1.3342
 2912TIP3    H2 8701   0.000   0.181   2.670  0.3451 -0.4614 -0.6906
 2913TIP3   OH2 8702   2.820   5.406   5.463  0.0447  0.0051  0.4664
 2913TIP3    H1 8703   2.885   5.356   5.513 -1.4593  0.3502  2.8823
 2913TIP3    H2 8704   2.848   5.497   5.472  1.2145 -0.0648 -1.6234
 2914TIP3   OH2 8705   0.962   3.496   0.027  0.1291  0.0436 -0.0722
 2914TIP3    H1 8706   1.019   3.426  -0.006 -0.7134 -0.9753  0.5769
 2914TIP3    H2 8707   1.001   3.522   0.110 -0.5909 -0.9986  0.6157
 2915TIP3   OH2 8708   3.797   6.376   1.809 -0.1872  0.4757 -0.4671
 2915TIP3    H1 8709   3.864   6.307   1.809 -1.3409 -0.6907  0.5921
 2915TIP3    H2 8710   3.841   6.451   1.850  0.9782  0.3050 -1.3361
 2916TIP3   OH2 8711   3.963   6.427   4.427 -0.6576 -0.1336 -0.2452
 2916TIP3    H1 8712   3.993   6.344   4.466 -0.2422  0.1249 -0.0048
 2916TIP3    H2 8713   3.905   6.400   4.356 -3.3714 -0.5985  2.0162
 2917TIP3   OH2 8714   7.008   1.247   3.313 -1.1656 -0.1747  0.4205
 2917TIP3    H1 8715   7.043   1.335   3.327 -0.3225 -0.6366  1.4350
 2917TIP3    H2 8716   7.086   1.192   3.303 -1.6328 -0.9778  1.0505
 2918TIP3   OH2 8717   5.863   2.217   5.251  0.2134  0.2861 -0.5329
 2918TIP3    H1 8718   5.847   2.310   5.261  0.1094  0.4364 -1.8777
 2918TIP3    H2 8719   5.799   2.188   5.185  0.6776 -0.5869 -0.6224
 2919TIP3   OH2 8720   4.795   2.915   1.034  0.0780  0.3324  0.7997
 2919TIP3    H1 8721   4.753   2.992   0.995 -0.9135 -0.7545 -0.3657
 2919TIP3    H2 8722   4.757   2.909   1.122 -0.3084  0.8136  0.6690
 2920TIP3   OH2 8723   6.720   6.086   2.819  0.6579 -0.2213  0.1619
 2920TIP3    H1 8724   6.734   6.176   2.849 -0.3078  0.0091 -0.0423
 2920TIP3    H2 8725   6.753   6.085   2.729  0.9588 -0.1527  0.2728
 2921TIP3   OH2 8726   3.361   6.700   5.384  0.7272  0.1471  0.5296
 2921TIP3    H1 8727   3.339   6.687   5.477 -1.3523 -0.8429 -0.0235
 2921TIP3    H2 8728   3.339   6.616   5.343  1.9640  0.4498 -0.8193
 2922TIP3   OH2 8729   5.735   4.427   5.630  0.1026 -0.0409  0.0735
 2922TIP3    H1 8730   5.648   4.466   5.636  0.3699  0.3791  1.9001
 2922TIP3    H2 8731   5.795   4.502   5.637  0.6555 -0.1356 -2.7953
 2923TIP3   OH2 8732   4.959   4.304   0.446  0.4324 -0.3250  0.6906
 2923TIP3    H1 8733   4.910   4.286   0.366  1.0657 -1.2542  0.4908
 2923TIP3    H2 8734   5.032   4.359   0.418  1.1477 -1.3551  0.4414
 2924TIP3   OH2 8735   5.345   3.037   1.945 -0.5148 -0.3325  0.2033
 2924TIP3    H1 8736   5.303   3.048   1.860 -1.4453 -0.6055  0.6120
 2924TIP3    H2 8737   5.322   2.948   1.972  1.2423 -0.8972 -0.0273
 2925TIP3   OH2 8738   3.496   1.714   4.638  0.5239  0.4210 -0.1036
 2925TIP3    H1 8739   3.429   1.711   4.706  0.1368  0.6051 -0.4652
 2925TIP3    H2 8740   3.447   1.699   4.557  0.9192  0.5977 -0.3776
 2926TIP3   OH2 8741   0.852   6.607   2.433 -0.6076  0.0885 -0.1877
 2926TIP3    H1 8742   0.887   6.519   2.444  0.8131  0.8703  2.0305
 2926TIP3    H2 8743   0.857   6.623   2.339  0.0053 -1.8117 -0.5200
 2927TIP3   OH2 8744   0.671   3.938   4.502 -0.8190  0.0271 -0.0411
 2927TIP3    H1 8745   0.751   3.950   4.450 -0.1299  0.4516  1.0565
 2927TIP3    H2 8746   0.685   3.995   4.578 -1.1311 -1.6494  1.3203
 2928TIP3   OH2 8747   4.609   1.808   3.750 -0.2541  0.3126  0.3080
 2928TIP3    H1 8748   4.693   1.842   3.782  0.9037 -1.6133 -0.4892
 2928TIP3    H2 8749   4.578   1.874   3.688  0.9069  0.8427  0.2685
 2929TIP3   OH2 8750   3.296   0.497   3.722 -0.7225 -0.4965 -0.0372
 2929TIP3    H1 8751   3.342   0.543   3.652  0.6959 -0.7796  0.6583
 2929TIP3    H2 8752   3.297   0.405   3.695  1.1311 -0.8312  0.9536
 2930TIP3   OH2 8753   1.204   1.778   5.254 -0.3305 -0.1245  0.0445
 2930TIP3    H1 8754   1.187   1.728   5.333 -1.5268  1.0552  0.5724
 2930TIP3    H2 8755   1.140   1.745   5.191 -0.1383 -0.2717 -0.0748
 2931TIP3   OH2 8756   6.791   4.614   1.894 -0.2962  0.4711  0.3102
 2931TIP3    H1 8757   6.842   4.534   1.886  1.5269  1.2874  2.4518
 2931TIP3    H2 8758   6.790   4.632   1.988  0.1205  3.4036 -0.1505
 2932TIP3   OH2 8759   2.203   6.823   1.939  0.1638  0.5063  0.0768
 2932TIP3    H1 8760   2.282   6.770   1.949 -0.1918  0.1094  1.0009
 2932TIP3    H2 8761   2.136   6.773   1.985 -0.4958  1.1066 -0.2194
 2933TIP3   OH2 8762   0.496   2.253   5.259 -0.0740  0.2393  0.0013
 2933TIP3    H1 8763   0.418   2.308   5.262  1.0178  2.0242 -1.6062
 2933TIP3    H2 8764   0.521   2.242   5.351 -1.3720  0.8891  0.4592
 2934TIP3   OH2 8765   4.763   0.783   0.609 -0.4967 -0.0437  0.2378
 2934TIP3    H1 8766   4.669   0.770   0.598 -0.3778  0.1554 -1.1720
 2934TIP3    H2 8767   4.780   0.871   0.575 -0.3397  1.5857  4.0497
 2935TIP3   OH2 8768   3.479   6.073   3.971 -0.3136 -0.0919 -0.3614
 2935TIP3    H1 8769   3.483   5.978   3.981 -1.6502 -0.4343 -2.3863
 2935TIP3    H2 8770   3.422   6.103   4.042  2.2592 -0.3650  1.9965
 2936TIP3   OH2 8771   0.045   6.693   1.284 -0.2614 -0.2039  0.0240
 2936TIP3    H1 8772   0.127   6.738   1.302 -0.6467  0.1771  0.8498
 2936TIP3    H2 8773  -0.017   6.762   1.264 -0.1685 -0.5403 -1.5708
 2937TIP3   OH2 8774   5.150   5.834   4.122 -0.7181  0.6930  0.8563
 2937TIP3    H1 8775   5.238   5.840   4.158 -1.3052  0.5579  2.3783
 2937TIP3    H2 8776   5.095   5.879   4.186 -2.0120 -0.9130  0.9185
 2938TIP3   OH2 8777   2.227   4.915   1.843  0.4017  0.1383  0.4190
 2938TIP3    H1 8778   2.255   4.858   1.915 -0.0445  0.3655  0.7755
 2938TIP3    H2 8779   2.132   4.921   1.852  0.4191  0.7431  0.2372
 2939TIP3   OH2 8780   1.699   1.592   3.702 -0.1495  0.3117 -0.5309
 2939TIP3    H1 8781   1.635   1.524   3.723 -0.6091  0.8807 -0.0353
 2939TIP3    H2 8782   1.661   1.672   3.739 -0.1127  1.0226 -1.9589
 2940TIP3   OH2 8783   6.060   5.712   4.842  0.6314 -0.0579  0.4592
 2940TIP3    H1 8784   6.092   5.745   4.758  0.1938 -1.0466 -0.1156
 2940TIP3    H2 8785   6.090   5.776   4.906  2.9228 -0.4178 -0.1630
 2941TIP3   OH2 8786   3.685   5.520   0.010 -0.1349  0.3142  0.0957
 2941TIP3    H1 8787   3.680   5.556   0.098  0.2056 -0.6616  0.5272
 2941TIP3    H2 8788   3.740   5.442   0.018  1.3028  1.1292 -1.2992
 2942TIP3   OH2 8789   0.053   6.258   1.648  0.1370  0.5665  0.3034
 2942TIP3    H1 8790  -0.042   6.264   1.660  0.0101  0.9474 -0.8499
 2942TIP3    H2 8791   0.086   6.344   1.675  0.0750  0.7011 -0.0532
 2943TIP3   OH2 8792   0.010   1.091   0.609 -0.3903 -0.2384  0.4327
 2943TIP3    H1 8793   0.096   1.128   0.630 -1.0054  1.4891  0.0460
 2943TIP3    H2 8794  -0.039   1.099   0.691 -1.5039  2.7779 -0.4135
 2944TIP3   OH2 8795   5.403   6.721   0.999 -0.2779  0.7579 -0.0088
 2944TIP3    H1 8796   5.467   6.751   1.063 -0.9928  0.6455  0.7796
 2944TIP3    H2 8797   5.375   6.635   1.032 -1.3591  1.1195  0.0643
 2945TIP3   OH2 8798   5.234   4.088   3.440 -0.0601  0.0401 -0.0512
 2945TIP3    H1 8799   5.288   4.111   3.516  1.4542 -2.0919 -0.3893
 2945TIP3    H2 8800   5.294   4.096   3.366 -0.8387 -0.2554 -0.7191
 2946TIP3   OH2 8801   6.544   0.619   2.401 -0.0090  0.3335  0.3527
 2946TIP3    H1 8802   6.497   0.545   2.364  1.6671 -1.8845  2.3492
 2946TIP3    H2 8803   6.621   0.630   2.345 -0.7754  1.2824 -0.5400
 2947TIP3   OH2 8804   4.681   2.072   0.085 -0.4226  0.0900 -0.0443
 2947TIP3    H1 8805   4.667   2.048   0.177  4.1900  0.5887  0.9981
 2947TIP3    H2 8806   4.651   2.162   0.079  0.7034  0.5947  1.4640
 2948TIP3   OH2 8807   1.265   6.470   4.595 -0.2835 -0.4628  0.2913
 2948TIP3    H1 8808   1.283   6.541   4.656  0.7300 -0.4643  0.0086
 2948TIP3    H2 8809   1.211   6.510   4.527  1.3924  0.3947 -0.5717
 2949TIP3   OH2 8810   0.061   4.888   4.060 -0.3625 -0.1937  0.0104
 2949TIP3    H1 8811   0.092   4.803   4.091 -0.0246  0.2327  0.8661
 2949TIP3    H2 8812   0.042   4.874   3.967  1.0521 -0.8382 -0.2135
 2950TIP3   OH2 8813   5.410   5.794   4.420  0.1124 -0.1391 -0.2920
 2950TIP3    H1 8814   5.379   5.711   4.384  0.5640 -1.1370  1.5134
 2950TIP3    H2 8815   5.466   5.831   4.352  1.9472 -2.5332 -0.2139
 2951TIP3   OH2 8816   6.046   1.863   3.506  0.3979 -0.3387  0.2141
 2951TIP3    H1 8817   5.974   1.846   3.445 -0.6174 -0.7565  1.4795
 2951TIP3    H2 8818   6.056   1.959   3.506 -0.9347 -0.1756  0.8433
 2952TIP3   OH2 8819   7.086   5.637   0.235  0.1786 -0.2858  0.1501
 2952TIP3    H1 8820   7.047   5.598   0.157  0.1216  0.7223 -0.3502
 2952TIP3    H2 8821   7.022   5.621   0.305  0.4221 -1.5635  0.1007
 2953TIP3   OH2 8822   6.599   4.567   4.074 -0.3694 -0.2407 -0.5386
 2953TIP3    H1 8823   6.542   4.500   4.037 -4.0122  1.8281  0.7702
 2953TIP3    H2 8824   6.635   4.527   4.153 -0.1354 -1.5584 -1.2945
 2954TIP3   OH2 8825   5.416   1.736   4.970 -0.3915 -0.3516  0.3170
 2954TIP3    H1 8826   5.387   1.771   5.054 -2.9840 -0.7879 -0.3193
 2954TIP3    H2 8827   5.424   1.813   4.913  1.9945  0.0219  1.0513
 2955TIP3   OH2 8828   6.103   3.989   3.622  0.5632  0.3831  0.0573
 2955TIP3    H1 8829   6.012   4.004   3.648 -0.0029 -0.7955 -1.1294
 2955TIP3    H2 8830   6.150   3.980   3.705 -0.6196 -0.2030  0.7033
 2956TIP3   OH2 8831   1.378   3.323   4.447 -0.1845  0.0428 -0.1080
 2956TIP3    H1 8832   1.459   3.348   4.492 -1.8465  3.7378  1.2560
 2956TIP3    H2 8833   1.332   3.406   4.433 -3.3877 -1.7836 -1.5832
 2957TIP3   OH2 8834   6.087   2.111   2.180 -0.3342 -0.3034 -0.4853
 2957TIP3    H1 8835   6.110   2.135   2.270 -1.5673  0.3962 -0.3312
 2957TIP3    H2 8836   6.079   2.195   2.135 -0.5853 -0.6176 -1.0235
 2958TIP3   OH2 8837   7.172   3.207   1.214 -0.5226  0.5290 -0.1098
 2958TIP3    H1 8838   7.088   3.249   1.232 -0.7159  0.0871  0.0231
 2958TIP3    H2 8839   7.236   3.278   1.223 -0.9520  1.0382 -0.9801
 2959TIP3   OH2 8840   0.128   6.018   0.739 -0.1787 -0.2145  0.9709
 2959TIP3    H1 8841   0.198   6.083   0.737 -2.0676  1.9755 -1.8044
 2959TIP3    H2 8842   0.140   5.968   0.658 -1.8276  0.2846  0.3853
 2960TIP3   OH2 8843   2.340   4.697   2.792 -0.4148 -0.3110  0.0032
 2960TIP3    H1 8844   2.329   4.779   2.744  1.2100  1.1097  1.8854
 2960TIP3    H2 8845   2.253   4.678   2.827 -0.6549  1.0192  0.1657
 2961TIP3   OH2 8846   2.194   1.560   1.401 -0.0251  0.0309 -0.2393
 2961TIP3    H1 8847   2.198   1.465   1.401 -0.1908  0.0220 -0.8635
 2961TIP3    H2 8848   2.101   1.581   1.387  0.1365  0.2796 -1.0082
 2962TIP3   OH2 8849   3.280   2.522   0.717  0.4840 -0.2848 -0.4700
 2962TIP3    H1 8850   3.364   2.549   0.753  0.7054  0.5492 -1.5493
 2962TIP3    H2 8851   3.229   2.603   0.711 -0.1071 -0.6568 -0.5693
 2963TIP3   OH2 8852   0.667   3.739   0.781 -0.4552  0.3953  0.1263
 2963TIP3    H1 8853   0.588   3.734   0.836  0.3578  2.3041  1.5959
 2963TIP3    H2 8854   0.738   3.711   0.839  0.0154 -1.0681 -1.1065
 2964TIP3   OH2 8855   7.169   0.475   1.736 -0.4102 -0.3730 -0.1389
 2964TIP3    H1 8856   7.114   0.436   1.668 -1.4114 -0.3348  0.6302
 2964TIP3    H2 8857   7.229   0.531   1.688 -0.1661 -1.4232 -1.1092
 2965TIP3   OH2 8858   3.387   0.442   3.973  0.0932 -0.1764  0.2705
 2965TIP3    H1 8859   3.333   0.481   3.904 -0.3318 -0.5968  0.3612
 2965TIP3    H2 8860   3.404   0.514   4.034 -2.0521 -0.4700  1.2889
 2966TIP3   OH2 8861   1.928   5.555   2.823 -0.0655  0.3596 -0.3632
 2966TIP3    H1 8862   1.960   5.630   2.772 -1.0280  1.7204  0.9406
 2966TIP3    H2 8863   1.838   5.543   2.793  0.1115 -0.3376 -0.6202
 2967TIP3   OH2 8864   6.663   4.052   3.730  0.3463 -0.2141 -0.3411
 2967TIP3    H1 8865   6.646   4.044   3.823  0.5801 -1.9546 -0.4230
 2967TIP3    H2 8866   6.709   4.136   3.721 -2.6677  1.7226  0.6099
 2968TIP3   OH2 8867   2.961   3.485   4.401  0.4389 -0.4078 -0.2756
 2968TIP3    H1 8868   2.961   3.398   4.361  1.5933 -0.0840 -1.0179
 2968TIP3    H2 8869   2.920   3.542   4.336  0.1296 -0.3035  0.0059
 2969TIP3   OH2 8870   6.364   6.677   3.550  0.3193 -0.2272  0.2745
 2969TIP3    H1 8871   6.295   6.640   3.496  1.2962  0.6092 -1.6469
 2969TIP3    H2 8872   6.318   6.719   3.622 -1.3299  1.3222 -1.5567
 2970TIP3   OH2 8873   3.450   5.284   1.530  0.2947 -0.2355  0.1527
 2970TIP3    H1 8874   3.494   5.199   1.532  0.6558 -0.0467  0.3326
 2970TIP3    H2 8875   3.510   5.341   1.482  0.1043 -0.0509  0.1302
 2971TIP3   OH2 8876   2.108   1.908   1.233 -0.2632 -0.5071 -0.2178
 2971TIP3    H1 8877   2.180   1.936   1.290  0.4246 -0.8831 -0.8831
 2971TIP3    H2 8878   2.031   1.952   1.269  0.0846 -0.9926  1.1954
 2972TIP3   OH2 8879   2.134   0.010   3.623  0.2439 -0.9529 -0.0273
 2972TIP3    H1 8880   2.229   0.011   3.638  0.2933 -0.6178 -0.3552
 2972TIP3    H2 8881   2.101   0.077   3.682  0.3954  0.0923 -1.1089
 2973TIP3   OH2 8882   1.379   3.349   3.484  0.2674 -0.6212  0.5315
 2973TIP3    H1 8883   1.347   3.370   3.396  1.7777  0.0238  0.0989
 2973TIP3    H2 8884   1.360   3.256   3.495  1.4132 -1.0867 -1.0974
 2974TIP3   OH2 8885   3.626   3.396   4.912  0.5166  0.0251 -0.0962
 2974TIP3    H1 8886   3.705   3.438   4.876  0.2302 -0.3321 -1.1583
 2974TIP3    H2 8887   3.643   3.302   4.904 -0.1628 -0.0535 -0.6714
 2975TIP3   OH2 8888   2.456   3.953   3.426  0.4292 -0.0028 -0.4086
 2975TIP3    H1 8889   2.531   3.912   3.383  0.0151 -1.3891  0.0986
 2975TIP3    H2 8890   2.494   4.019   3.484  1.4422 -1.6209  0.9045
 2976TIP3   OH2 8891   4.120   4.024   1.992  0.2388  0.2315  0.1916
 2976TIP3    H1 8892   4.131   3.958   2.061 -0.5230 -1.5457 -1.3198
 2976TIP3    H2 8893   4.057   4.086   2.029  0.7479 -0.0059  1.5343
 2977TIP3   OH2 8894   3.672   1.691   0.049  0.0557 -0.1852  0.0461
 2977TIP3    H1 8895   3.745   1.633   0.070  1.1690  0.8647 -0.7953
 2977TIP3    H2 8896   3.656   1.739   0.131 -0.4516 -1.1918  0.5568
 2978TIP3   OH2 8897   1.661   6.030   5.267 -0.3129  0.1996  0.1109
 2978TIP3    H1 8898   1.659   6.099   5.332 -2.1839 -1.2583  1.7314
 2978TIP3    H2 8899   1.585   6.047   5.211 -0.1329  0.0621 -0.1830
 2979TIP3   OH2 8900   3.801   0.979   3.049 -0.2533  0.0858 -0.2442
 2979TIP3    H1 8901   3.796   1.073   3.028  0.3999 -0.0656 -1.1347
 2979TIP3    H2 8902   3.714   0.945   3.027 -0.1176  0.2634 -1.0892
 2980TIP3   OH2 8903   5.835   5.551   3.521 -0.5857  0.1377  0.4672
 2980TIP3    H1 8904   5.901   5.615   3.549  0.1084 -0.6112  0.5558
 2980TIP3    H2 8905   5.830   5.488   3.593 -0.3495 -0.6127 -0.1749
 2981TIP3   OH2 8906   5.012   1.501   5.499 -0.2889 -0.2017  0.4703
 2981TIP3    H1 8907   5.022   1.443   5.424 -0.2836 -1.6039  1.5024
 2981TIP3    H2 8908   5.091   1.555   5.498 -0.0054 -0.6181 -0.2003
 2982TIP3   OH2 8909   1.643   4.690   4.208 -0.5778 -0.1268  0.0498
 2982TIP3    H1 8910   1.626   4.693   4.303  4.0365  0.7012  1.1080
 2982TIP3    H2 8911   1.640   4.597   4.186 -0.3116 -0.4734  1.3748
 2983TIP3   OH2 8912   4.302   2.121   3.381 -0.0984 -0.3203  0.4533
 2983TIP3    H1 8913   4.278   2.053   3.444 -0.8290 -1.0174 -0.5557
 2983TIP3    H2 8914   4.338   2.191   3.435 -0.1869 -1.1211  1.5995
 2984TIP3   OH2 8915   4.297   4.804   3.313  0.4764  0.3272 -0.0327
 2984TIP3    H1 8916   4.382   4.815   3.356 -0.1007  0.1848  1.1820
 2984TIP3    H2 8917   4.251   4.741   3.368  0.0438 -0.5830 -1.3853
 2985TIP3   OH2 8918   4.248   4.387   1.022 -0.2404 -0.3671  0.4169
 2985TIP3    H1 8919   4.289   4.396   0.936  0.2007 -1.2829  0.5225
 2985TIP3    H2 8920   4.285   4.306   1.058 -3.5597 -2.4172 -0.2944
 2986TIP3   OH2 8921   0.368   4.246   1.756 -0.6463 -0.6416  0.0475
 2986TIP3    H1 8922   0.280   4.210   1.746 -0.5999 -0.4456 -1.1957
 2986TIP3    H2 8923   0.412   4.225   1.674  0.3535 -0.3959  0.5017
 2987TIP3   OH2 8924   2.261  -0.005   0.200 -0.0312  0.0432  0.4227
 2987TIP3    H1 8925   2.174  -0.002   0.160 -1.0159  2.3595  2.4790
 2987TIP3    H2 8926   2.301   0.079   0.177  1.4136 -0.6991  0.1008
 2988TIP3   OH2 8927   5.858   5.667   2.660  0.2560  0.0052 -0.2504
 2988TIP3    H1 8928   5.897   5.587   2.695  0.8883  0.1910 -0.5165
 2988TIP3    H2 8929   5.924   5.702   2.601 -0.4760  0.1251 -1.0118
 2989TIP3   OH2 8930   1.922   0.751   1.322  0.1359 -0.0004 -0.0586
 2989TIP3    H1 8931   1.944   0.844   1.320 -0.5849  0.1674 -0.4765
 2989TIP3    H2 8932   1.979   0.715   1.390 -1.6171  1.2857  2.2348
 2990TIP3   OH2 8933   5.010   3.976   3.999  0.4440 -0.2945 -0.5666
 2990TIP3    H1 8934   5.099   3.984   3.964  0.3737  3.0322 -0.2833
 2990TIP3    H2 8935   4.986   3.885   3.981  3.3953 -0.9639 -1.8179
 2991TIP3   OH2 8936   3.162   5.140   4.569  0.3110  0.0868 -0.3394
 2991TIP3    H1 8937   3.137   5.233   4.566 -0.6411 -0.1067  0.6634
 2991TIP3    H2 8938   3.096   5.097   4.515 -0.9099 -0.2880  1.3523
 2992TIP3   OH2 8939   1.897   2.105   3.351  0.0158 -0.0908 -0.1493
 2992TIP3    H1 8940   1.927   2.137   3.436 -1.1087 -0.8094  0.5496
 2992TIP3    H2 8941   1.880   2.012   3.366 -0.9587 -0.0479 -0.9501
 2993TIP3   OH2 8942   5.369   1.729   1.886 -0.3117 -0.0449  0.2602
 2993TIP3    H1 8943   5.336   1.656   1.832 -1.8622  0.1709  0.8781
 2993TIP3    H2 8944   5.461   1.708   1.900 -0.1786 -0.7530 -1.4213
 2994TIP3   OH2 8945   1.256   1.699   1.405  0.2475  0.4057 -0.5898
 2994TIP3    H1 8946   1.291   1.649   1.479 -1.4993  0.1622  0.1351
 2994TIP3    H2 8947   1.276   1.790   1.427 -1.1287  0.4374  0.7613
 2995TIP3   OH2 8948   2.677   0.102   1.197  0.1816 -1.0183  0.3948
 2995TIP3    H1 8949   2.756   0.116   1.250  0.0803  0.5266  0.1713
 2995TIP3    H2 8950   2.703   0.035   1.133  1.4013 -0.3409  0.1500
 2996TIP3   OH2 8951   6.698   1.285   0.130 -0.3300 -0.5003 -0.3030
 2996TIP3    H1 8952   6.718   1.371   0.094 -1.5690  0.3108  0.8337
 2996TIP3    H2 8953   6.776   1.261   0.181 -0.6290  0.7676  0.8026
 2997TIP3   OH2 8954   2.266   3.994   3.225 -0.0526 -0.1148 -0.6624
 2997TIP3    H1 8955   2.323   4.022   3.296  0.2918  0.5331 -1.1887
 2997TIP3    H2 8956   2.247   3.902   3.245  0.3500 -0.0492  0.0560
 2998TIP3   OH2 8957   7.065   1.252   5.870 -0.7165 -0.4228 -0.2697
 2998TIP3    H1 8958   6.983   1.221   5.830  0.0612 -0.7379 -1.6686
 2998TIP3    H2 8959   7.106   1.172   5.903 -0.3295 -0.4410 -0.7950
 2999TIP3   OH2 8960   2.677   3.132   0.667  0.1037  0.2762 -0.4201
 2999TIP3    H1 8961   2.659   3.225   0.677  0.2728  0.3320 -0.6251
 2999TIP3    H2 8962   2.612   3.101   0.604 -1.3119 -0.1879  1.1697
 3000TIP3   OH2 8963   2.409   3.071   4.018  0.2999 -0.1294 -0.3352
 3000TIP3    H1 8964   2.397   3.166   4.021  1.0428 -0.0558  1.3132
 3000TIP3    H2 8965   2.325   3.035   4.045 -0.2133  0.0060 -1.6587
 3001TIP3   OH2 8966   4.998   3.322   1.842  0.7404  0.1466 -0.1528
 3001TIP3    H1 8967   5.039   3.245   1.883 -0.7733 -0.2297  0.7407
 3001TIP3    H2 8968   4.907   3.296   1.829 -0.1047  2.1670  1.2685
 3002TIP3   OH2 8969   4.892   1.998   1.883  0.3699 -0.0862  0.3085
 3002TIP3    H1 8970   4.984   1.979   1.900  0.0488 -2.9880 -0.6558
 3002TIP3    H2 8971   4.856   1.917   1.847 -2.0544  1.6365 -1.5623
 3003TIP3   OH2 8972   1.218   2.906   0.346  0.4993  0.2965 -0.2471
 3003TIP3    H1 8973   1.151   2.839   0.347  0.6327  0.1555 -0.5905
 3003TIP3    H2 8974   1.198   2.960   0.269  0.4674  0.5699 -0.0481
 3004TIP3   OH2 8975   5.810   2.468   4.900 -0.1070  0.1168 -0.4146
 3004TIP3    H1 8976   5.877   2.401   4.891  0.9898  1.2228 -0.7304
 3004TIP3    H2 8977   5.805   2.486   4.993 -0.3164 -0.3027 -0.3423
 3005TIP3   OH2 8978   6.646   6.613   3.178  0.3601  0.3927  0.2621
 3005TIP3    H1 8979   6.598   6.673   3.235 -0.0315  0.5478 -0.2128
 3005TIP3    H2 8980   6.602   6.621   3.093 -0.7878 -1.7989  0.5727
 3006TIP3   OH2 8981   3.733  -0.001   5.615  0.2868  0.1216  0.1029
 3006TIP3    H1 8982   3.702   0.054   5.687  0.3820 -1.4235  1.3924
 3006TIP3    H2 8983   3.653  -0.033   5.573  0.2036 -0.1778  0.4868
 3007TIP3   OH2 8984   5.900   1.277   4.320  0.4443 -0.1407  0.4611
 3007TIP3    H1 8985   5.940   1.285   4.407  0.8672  2.0891  0.1168
 3007TIP3    H2 8986   5.972   1.291   4.259 -0.4777  2.3655 -0.1769
 3008TIP3   OH2 8987   1.233   1.148   4.214  0.1714 -0.3659 -0.0486
 3008TIP3    H1 8988   1.162   1.107   4.265  0.2715 -2.1955 -1.2514
 3008TIP3    H2 8989   1.196   1.231   4.183 -0.8575 -0.5218  0.7118
 3009TIP3   OH2 8990   0.132   4.949   2.782  0.4689  0.4512  0.1092
 3009TIP3    H1 8991   0.074   4.893   2.731  0.4772  0.0166  0.5736
 3009TIP3    H2 8992   0.088   5.034   2.785 -0.6575 -0.1512  1.3471
 3010TIP3   OH2 8993   1.742   0.395   0.175  0.2390  0.2678 -0.2668
 3010TIP3    H1 8994   1.742   0.356   0.088 -0.0052 -0.7644  0.1760
 3010TIP3    H2 8995   1.651   0.420   0.190  0.3506  0.7794 -0.4568
 3011TIP3   OH2 8996   5.854   1.528   0.916  0.1256  0.5608  0.4976
 3011TIP3    H1 8997   5.839   1.484   0.832  0.7694  0.9347  0.1791
 3011TIP3    H2 8998   5.783   1.591   0.923 -0.2798  0.1051  0.5242
 3012TIP3   OH2 8999   6.792   5.460   1.909  0.1678 -0.1112 -0.4681
 3012TIP3    H1 9000   6.849   5.446   1.833 -0.8463 -0.6067 -1.1657
 3012TIP3    H2 9001   6.848   5.500   1.975  1.7003 -1.9131 -0.6043
 3013TIP3   OH2 9002   3.676   1.865   0.265  0.4509  0.1184  0.2129
 3013TIP3    H1 9003   3.596   1.909   0.294  0.2008 -0.0210 -0.2469
 3013TIP3    H2 9004   3.712   1.825   0.344 -0.1052 -0.0875  0.3639
 3014TIP3   OH2 9005   3.210   0.291   1.129  0.3950 -0.0214 -0.4175
 3014TIP3    H1 9006   3.216   0.377   1.088 -0.2790  0.3991  0.3449
 3014TIP3    H2 9007   3.286   0.287   1.187  1.0797 -0.4237 -1.3205
 3015TIP3   OH2 9008   1.519   1.850   4.853 -0.6790 -0.2575  0.4645
 3015TIP3    H1 9009   1.601   1.801   4.858  0.1067  1.0951  1.4656
 3015TIP3    H2 9010   1.539   1.933   4.896 -2.1358  0.7090 -0.6814
 3016TIP3   OH2 9011   1.015   3.873   2.454  0.1500  0.3092  0.1243
 3016TIP3    H1 9012   1.048   3.789   2.421  0.9953  0.5206  0.4209
 3016TIP3    H2 9013   1.088   3.910   2.503 -0.6698  0.5748  1.1808
 3017TIP3   OH2 9014   2.111   5.555   1.928  0.0541  0.1395 -0.1247
 3017TIP3    H1 9015   2.109   5.475   1.874  0.5257 -1.3189  1.8980
 3017TIP3    H2 9016   2.204   5.566   1.950 -0.2404  0.0566  1.2451
 3018TIP3   OH2 9017   5.898   4.083   1.866 -0.3981 -0.4612 -0.5217
 3018TIP3    H1 9018   5.863   4.032   1.939  0.5348 -1.5955 -0.8332
 3018TIP3    H2 9019   5.980   4.120   1.899  0.4333 -1.6287 -1.2073
 3019TIP3   OH2 9020   6.718   2.882   0.514 -0.5755 -0.1880 -0.6496
 3019TIP3    H1 9021   6.654   2.935   0.561  2.8308  0.7475  3.5280
 3019TIP3    H2 9022   6.767   2.944   0.461  0.4225  0.1332  0.6075
 3020TIP3   OH2 9023   2.638   4.787   3.545 -0.2609  0.0550 -0.2870
 3020TIP3    H1 9024   2.582   4.727   3.495 -1.9911  1.1999  0.1919
 3020TIP3    H2 9025   2.580   4.859   3.569  1.3680  1.1477  0.5304
 3021TIP3   OH2 9026   6.664   3.045   0.093  1.0315 -0.0483  0.5918
 3021TIP3    H1 9027   6.685   3.099   0.169 -1.2419  0.5277  0.8828
 3021TIP3    H2 9028   6.684   3.101   0.018 -0.3668  0.9021  0.8793
 3022TIP3   OH2 9029   2.136   1.049   2.011  0.1255  0.3205  0.8162
 3022TIP3    H1 9030   2.185   1.024   2.090  1.5713  1.7406  0.4287
 3022TIP3    H2 9031   2.199   1.039   1.940 -0.9594 -0.2740 -0.0949
 3023TIP3   OH2 9032   5.129   2.107   4.940  0.0144 -0.1845  0.2150
 3023TIP3    H1 9033   5.182   2.072   5.012  0.9877 -0.9138 -0.8387
 3023TIP3    H2 9034   5.060   2.156   4.984 -0.2224 -1.7457  1.7042
 3024TIP3   OH2 9035   1.212   6.337   5.743 -0.2535  0.0878 -0.0288
 3024TIP3    H1 9036   1.253   6.305   5.824  2.2730 -0.1271 -1.2914
 3024TIP3    H2 9037   1.143   6.396   5.773 -0.1227 -0.8199  2.2738
 3025TIP3   OH2 9038   7.187   4.526   1.503 -0.0743  0.2528  0.3063
 3025TIP3    H1 9039   7.122   4.512   1.435 -0.6964 -0.0394  0.9468
 3025TIP3    H2 9040   7.265   4.556   1.456 -0.8043  1.0549 -0.4276
 3026TIP3   OH2 9041   5.915   3.331   1.599 -0.4228  0.3298 -0.5691
 3026TIP3    H1 9042   5.924   3.372   1.685  1.3810  0.5612 -0.8392
 3026TIP3    H2 9043   5.937   3.239   1.614 -2.2472 -0.1199 -0.4014
 3027TIP3   OH2 9044   0.681   2.754   1.665 -0.7127  0.1288 -0.0304
 3027TIP3    H1 9045   0.643   2.818   1.725 -0.7621  2.4126 -2.3657
 3027TIP3    H2 9046   0.775   2.772   1.668 -0.3259 -1.7118  1.4215
 3028TIP3   OH2 9047   1.728   0.491   3.169  0.7828  0.1108  0.2490
 3028TIP3    H1 9048   1.665   0.424   3.143  0.6628  0.4634 -0.3806
 3028TIP3    H2 9049   1.799   0.442   3.209 -0.3510 -0.2303  1.9588
 3029TIP3   OH2 9050   0.152   0.714   3.168 -0.1462  0.0777 -0.3077
 3029TIP3    H1 9051   0.201   0.770   3.228  0.5168 -1.1424  0.3259
 3029TIP3    H2 9052   0.061   0.722   3.196 -0.3056  1.9892 -1.1911
 3030TIP3   OH2 9053   0.786   3.115   1.147 -0.0820 -0.4269 -0.9987
 3030TIP3    H1 9054   0.709   3.122   1.204  0.3824  0.7205 -0.4638
 3030TIP3    H2 9055   0.852   3.171   1.189  1.2126 -1.7468 -1.1918
 3031TIP3   OH2 9056   4.169   4.662   1.124 -0.7698 -0.3939 -0.0930
 3031TIP3    H1 9057   4.180   4.578   1.080 -0.2941 -0.3643 -0.0291
 3031TIP3    H2 9058   4.190   4.644   1.216  0.3673  0.0279 -0.2622
 3032TIP3   OH2 9059   1.051   2.147   3.451 -0.4006 -0.3772 -0.1197
 3032TIP3    H1 9060   1.067   2.231   3.408  0.3103 -1.0605 -1.2309
 3032TIP3    H2 9061   1.086   2.158   3.539 -1.1977  0.7999  0.0771
 3033TIP3   OH2 9062   6.031   1.926   3.240 -0.3613  0.6976  0.3673
 3033TIP3    H1 9063   6.019   2.015   3.274 -1.0088  1.1534 -0.9781
 3033TIP3    H2 9064   5.954   1.911   3.184 -0.0976 -0.5861  0.3218
 3034TIP3   OH2 9065   4.071   5.452   4.318 -0.1583 -0.0225 -0.1832
 3034TIP3    H1 9066   4.015   5.477   4.245 -2.7720 -1.5787  1.1317
 3034TIP3    H2 9067   4.058   5.521   4.383 -1.4532 -0.8974  0.5259
 3035TIP3   OH2 9068   6.207   2.107   5.397 -0.5506  0.5400  0.2769
 3035TIP3    H1 9069   6.191   2.124   5.490 -1.2089  2.2621 -0.1061
 3035TIP3    H2 9070   6.282   2.164   5.376  0.0548 -0.3771 -0.1020
 3036TIP3   OH2 9071   4.428   5.385   4.024  0.1580  0.1715 -0.3551
 3036TIP3    H1 9072   4.341   5.356   3.996  0.8027 -1.2146 -0.9920
 3036TIP3    H2 9073   4.418   5.402   4.118 -0.5778 -0.8717 -0.2298
 3037TIP3   OH2 9074   5.349   3.685   3.919  0.4700  0.1067 -0.0134
 3037TIP3    H1 9075   5.421   3.742   3.946  1.3040 -1.1016  0.4427
 3037TIP3    H2 9076   5.383   3.636   3.844 -0.3189  0.3741 -0.5626
 3038TIP3   OH2 9077   5.081   5.541   4.384 -0.0923 -0.3851 -0.5024
 3038TIP3    H1 9078   5.016   5.480   4.418 -0.1231  0.6050  1.3976
 3038TIP3    H2 9079   5.032   5.601   4.329 -0.5468 -0.5131 -0.2397
 3039TIP3   OH2 9080   0.525   6.106   4.733  0.1576 -0.1659 -0.0622
 3039TIP3    H1 9081   0.544   6.121   4.826 -0.2152  0.9752 -0.1555
 3039TIP3    H2 9082   0.468   6.178   4.708 -0.4292 -0.9224 -0.9809
 3040TIP3   OH2 9083   3.968   6.347   0.928  0.1745 -0.5975  0.4384
 3040TIP3    H1 9084   3.982   6.407   1.001 -0.4461  0.9418 -0.6510
 3040TIP3    H2 9085   4.056   6.313   0.907  0.7162  0.7660  0.4092
 3041TIP3   OH2 9086   1.679   5.083   3.212  0.3830  0.0547  0.2997
 3041TIP3    H1 9087   1.667   5.052   3.122  1.1487 -1.0413  0.5623
 3041TIP3    H2 9088   1.600   5.055   3.258 -0.8940  2.2308 -0.4138
 3042TIP3   OH2 9089   6.136   0.111   5.097  0.2640  0.1097  0.2735
 3042TIP3    H1 9090   6.104   0.070   5.017 -0.4842 -1.1114  1.1628
 3042TIP3    H2 9091   6.199   0.049   5.133  2.5867  1.7834 -0.6299
 3043TIP3   OH2 9092   3.793   3.784   2.709  0.2700  0.3399  0.2678
 3043TIP3    H1 9093   3.826   3.822   2.791  1.6448 -1.4373  0.6216
 3043TIP3    H2 9094   3.718   3.731   2.736  1.3149 -1.0427  0.6115
 3044TIP3   OH2 9095   1.739   4.912   1.467  0.0123  0.2381  0.6596
 3044TIP3    H1 9096   1.685   4.967   1.524 -0.5841  0.6569 -0.2887
 3044TIP3    H2 9097   1.678   4.875   1.404  0.3306 -1.9180  1.5348
 3045TIP3   OH2 9098   0.043   2.187   5.533 -0.2461 -0.9755 -0.9172
 3045TIP3    H1 9099   0.111   2.255   5.534 -1.4038  0.2082 -0.2193
 3045TIP3    H2 9100   0.088   2.110   5.498  1.8478 -0.6215  0.7170
 3046TIP3   OH2 9101   4.664  -0.017   2.721 -0.3401 -0.1432 -0.1539
 3046TIP3    H1 9102   4.685   0.072   2.693 -1.1804 -0.4253 -1.8014
 3046TIP3    H2 9103   4.665  -0.012   2.817 -2.0455  2.0718 -0.1484
 3047TIP3   OH2 9104   4.803   4.320   4.432  0.1182 -0.3374  0.2833
 3047TIP3    H1 9105   4.749   4.299   4.508 -0.2137 -1.4416 -0.2296
 3047TIP3    H2 9106   4.762   4.397   4.394 -0.2001 -0.2654  0.7582
 3048TIP3   OH2 9107   1.422   1.814   2.318  0.6780  0.6453  0.0349
 3048TIP3    H1 9108   1.481   1.886   2.297  2.9914 -0.9528  0.6321
 3048TIP3    H2 9109   1.479   1.746   2.354 -1.8631 -0.0647  3.2000
 3049TIP3   OH2 9110   6.460   4.787   2.269 -0.0481 -0.0324 -0.1852
 3049TIP3    H1 9111   6.395   4.802   2.200 -2.2009 -1.1917  1.4656
 3049TIP3    H2 9112   6.481   4.694   2.262  1.3553  0.2899 -0.5682
 3050TIP3   OH2 9113   1.592   6.344   4.696  0.2349  0.1951 -0.0503
 3050TIP3    H1 9114   1.556   6.331   4.608  0.9159  1.6435 -0.5933
 3050TIP3    H2 9115   1.518   6.378   4.747 -0.1785 -0.7022 -0.0395
 3051TIP3   OH2 9116   7.098   3.528   5.785 -0.7919  0.1213 -0.1335
 3051TIP3    H1 9117   7.080   3.622   5.790 -0.6802  0.2519 -1.6518
 3051TIP3    H2 9118   7.016   3.486   5.810 -0.8619  0.6133  0.4957
 3052TIP3   OH2 9119   5.403   5.574   3.466  0.0712 -0.0272 -0.2553
 3052TIP3    H1 9120   5.345   5.597   3.539  1.6675 -1.4357  1.5510
 3052TIP3    H2 9121   5.355   5.602   3.388 -2.0581  0.8312  1.2623
 3053TIP3   OH2 9122   1.848   6.414   2.898 -0.1499 -0.1669  0.8290
 3053TIP3    H1 9123   1.813   6.429   2.810  1.2865 -1.1473  0.0514
 3053TIP3    H2 9124   1.912   6.483   2.911 -2.1722  1.5741  2.2204
 3054TIP3   OH2 9125   7.021   3.728   3.544 -0.0309  0.0208  0.1802
 3054TIP3    H1 9126   6.960   3.731   3.618 -1.1007  0.2100 -0.6857
 3054TIP3    H2 9127   7.106   3.753   3.582 -0.7587  1.1440  1.1395
 3055TIP3   OH2 9128   5.862   2.725   1.048 -0.6093 -0.1327  0.4311
 3055TIP3    H1 9129   5.854   2.709   1.142 -1.9283  0.3783  0.4254
 3055TIP3    H2 9130   5.857   2.638   1.008 -1.6243 -0.2403  0.7565
 3056TIP3   OH2 9131   6.557   6.603   0.435  0.0690  0.0473  0.3455
 3056TIP3    H1 9132   6.476   6.625   0.482  0.5129 -0.1178  1.2163
 3056TIP3    H2 9133   6.613   6.680   0.448  0.1065  0.1093 -0.1508
 3057TIP3   OH2 9134   3.605   6.421   4.820 -0.4606 -0.6149  0.5182
 3057TIP3    H1 9135   3.581   6.385   4.905 -1.7003  0.2075  0.5386
 3057TIP3    H2 9136   3.694   6.390   4.805 -1.0210 -2.5962  1.0934
 3058TIP3   OH2 9137   7.087   2.269   3.064  0.0171 -0.0087 -0.7057
 3058TIP3    H1 9138   7.008   2.215   3.062 -0.8700  1.2538 -0.2069
 3058TIP3    H2 9139   7.088   2.312   2.979 -0.6692  1.1370 -0.1495
 3059TIP3   OH2 9140   0.986   3.515   2.168 -0.0044  0.0168 -0.1958
 3059TIP3    H1 9141   0.924   3.577   2.207 -0.0313  0.0127 -0.2330
 3059TIP3    H2 9142   1.059   3.570   2.140  0.7024 -0.1366  1.2241
 3060TIP3   OH2 9143   3.157   2.892   2.618  0.0575 -0.7693 -0.8078
 3060TIP3    H1 9144   3.200   2.822   2.667  0.7347 -0.1649 -0.5336
 3060TIP3    H2 9145   3.224   2.923   2.557  0.7967  1.6612  1.0870
 3061TIP3   OH2 9146   6.063   5.248   5.625  0.5468 -0.0997 -0.1706
 3061TIP3    H1 9147   6.155   5.223   5.636  1.0008  1.3237 -0.5344
 3061TIP3    H2 9148   6.015   5.189   5.683  1.6000 -1.4290 -0.6025
 3062TIP3   OH2 9149   1.954   4.258   0.106 -0.2722  0.1211 -0.5685
 3062TIP3    H1 9150   2.005   4.250   0.025  2.3698  1.0191  0.8643
 3062TIP3    H2 9151   1.976   4.180   0.156 -0.0358  0.6521  0.1851
 3063TIP3   OH2 9152   5.362   3.545   5.491  0.0015  0.4275  0.3112
 3063TIP3    H1 9153   5.439   3.601   5.483 -0.7810  1.3571 -0.9152
 3063TIP3    H2 9154   5.376   3.498   5.574  1.4541  1.2104  0.5458
 3064TIP3   OH2 9155   4.744   4.169   2.228  0.3244 -0.7799  0.1940
 3064TIP3    H1 9156   4.695   4.087   2.224  1.0349 -1.2616  0.9218
 3064TIP3    H2 9157   4.719   4.208   2.312 -0.1667 -0.1510 -0.2451
 3065TIP3   OH2 9158   0.781   4.283   4.438  0.6148 -0.1039  0.4681
 3065TIP3    H1 9159   0.707   4.343   4.444 -1.6541 -2.6388 -0.3192
 3065TIP3    H2 9160   0.780   4.236   4.521  1.9443  0.4148  0.8034
 3066TIP3   OH2 9161   6.500   0.829   3.705 -0.7046  0.0867 -0.3018
 3066TIP3    H1 9162   6.589   0.811   3.734 -0.6868  0.4295 -0.1486
 3066TIP3    H2 9163   6.460   0.742   3.699 -1.1662  0.0452  2.1791
 3067TIP3   OH2 9164   4.015   0.603   5.833 -0.1456 -0.0249  0.2374
 3067TIP3    H1 9165   4.045   0.604   5.742 -0.4358 -1.5622  0.0991
 3067TIP3    H2 9166   4.092   0.629   5.883  0.5343 -0.8529 -0.3389
 3068TIP3   OH2 9167   6.002   5.210   0.753 -0.2674  0.2578 -0.0088
 3068TIP3    H1 9168   6.073   5.146   0.764 -0.7227 -0.5275 -1.3813
 3068TIP3    H2 9169   5.938   5.186   0.819 -0.0588 -0.1807  0.0404
 3069TIP3   OH2 9170   4.952   0.111   0.111 -0.0038  0.6882 -0.1165
 3069TIP3    H1 9171   5.026   0.163   0.142  0.5966 -1.0530  1.6072
 3069TIP3    H2 9172   4.987   0.061   0.038 -0.3840  2.0754 -1.3025
 3070TIP3   OH2 9173   5.072   5.916   3.081 -0.3887 -0.5406  0.4307
 3070TIP3    H1 9174   5.159   5.891   3.114  0.0922 -0.6412 -0.8600
 3070TIP3    H2 9175   5.011   5.884   3.147  0.5174 -1.0278  1.0500
 3071TIP3   OH2 9176   1.796   3.778   0.104 -0.0939  0.0252  0.1130
 3071TIP3    H1 9177   1.732   3.836   0.145  0.6698  1.4063 -0.5943
 3071TIP3    H2 9178   1.782   3.693   0.147 -3.1988 -0.0810 -0.8209
 3072TIP3   OH2 9179   5.213   4.204   4.032 -0.0204  0.0139 -0.3641
 3072TIP3    H1 9180   5.281   4.137   4.042  1.1888  1.2264 -0.0312
 3072TIP3    H2 9181   5.139   4.171   4.083  1.3635 -0.0611  1.7571
 3073TIP3   OH2 9182   0.618   0.723   3.173 -0.1490 -0.1829  0.4473
 3073TIP3    H1 9183   0.537   0.673   3.160  0.4763 -1.2657  0.5650
 3073TIP3    H2 9184   0.595   0.789   3.238 -1.9289  1.9891 -2.1856
 3074TIP3   OH2 9185   4.125   5.018   3.344 -0.5163 -0.0896  0.2480
 3074TIP3    H1 9186   4.194   4.956   3.323  0.1517  0.5896  0.3716
 3074TIP3    H2 9187   4.094   4.991   3.430 -0.8822 -0.8079 -0.1050
 3075TIP3   OH2 9188   1.265   6.579   1.270  0.3056  0.3388 -0.4035
 3075TIP3    H1 9189   1.342   6.562   1.216  1.6169  1.5818  0.9876
 3075TIP3    H2 9190   1.242   6.670   1.250 -0.4826  0.1467 -0.4069
 3076TIP3   OH2 9191   1.688   2.020   1.913 -0.2873 -0.2698  0.6632
 3076TIP3    H1 9192   1.620   1.963   1.949 -0.6338  0.2497  0.8365
 3076TIP3    H2 9193   1.656   2.043   1.825 -0.4291  0.1191  0.8129
 3077TIP3   OH2 9194   0.595   0.601   4.797  0.1981  0.0680 -0.2780
 3077TIP3    H1 9195   0.630   0.629   4.712  1.5414 -0.8384 -0.0407
 3077TIP3    H2 9196   0.671   0.597   4.855 -0.7558  1.0188  1.0882
 3078TIP3   OH2 9197   6.902   5.435   3.731  0.1218  0.3109 -0.1522
 3078TIP3    H1 9198   6.913   5.368   3.664 -0.1114 -1.7041  1.6780
 3078TIP3    H2 9199   6.988   5.444   3.771  0.1719  1.1755 -0.4547
 3079TIP3   OH2 9200   4.734   0.524   4.873  0.0147  0.3069 -0.4138
 3079TIP3    H1 9201   4.739   0.615   4.844  1.8577 -0.2221 -2.0078
 3079TIP3    H2 9202   4.784   0.522   4.954 -0.2679  0.7577 -0.2245
 3080TIP3   OH2 9203   2.309   6.564   2.161  0.6009  0.5406  0.7019
 3080TIP3    H1 9204   2.217   6.546   2.181  0.7005 -3.3915 -1.4794
 3080TIP3    H2 9205   2.358   6.526   2.234  0.5178 -2.0342 -0.4580
 3081TIP3   OH2 9206   6.670   1.137   1.972 -0.4624 -0.6107 -0.2391
 3081TIP3    H1 9207   6.761   1.162   1.955 -0.7612  1.0110  0.3884
 3081TIP3    H2 9208   6.677   1.056   2.023  0.5164 -2.5575 -3.1231
 3082TIP3   OH2 9209   3.029   6.501   5.463 -0.0673  0.0051 -0.3431
 3082TIP3    H1 9210   3.075   6.430   5.418  0.7423  0.3551 -0.0853
 3082TIP3    H2 9211   3.013   6.467   5.551  2.9380  1.1353  0.7665
 3083TIP3   OH2 9212   6.342   4.795   3.592  0.6756  0.3932 -0.3360
 3083TIP3    H1 9213   6.262   4.794   3.645  0.3842 -0.7586 -0.7625
 3083TIP3    H2 9214   6.397   4.727   3.630  0.8293  0.1600 -0.9578
 3084TIP3   OH2 9215   2.611   6.327   1.581 -0.0071 -0.2115  0.5159
 3084TIP3    H1 9216   2.547   6.383   1.537 -1.8535 -1.3592  1.6239
 3084TIP3    H2 9217   2.585   6.328   1.673  1.4287 -0.9369  0.9647
 3085TIP3   OH2 9218   5.713   3.234   1.310 -0.1444 -0.1596  0.1996
 3085TIP3    H1 9219   5.754   3.259   1.393 -1.3983  1.4465  0.3730
 3085TIP3    H2 9220   5.756   3.290   1.245  0.4669 -1.0501 -0.1845
 3086TIP3   OH2 9221   4.448   6.525   2.294 -0.1398 -0.2549  0.0162
 3086TIP3    H1 9222   4.476   6.611   2.262 -1.2137  0.6683  1.4191
 3086TIP3    H2 9223   4.434   6.473   2.215  4.1264 -0.4416 -0.8550
 3087TIP3   OH2 9224   6.195   6.520   2.461  0.3960  0.1418 -0.1676
 3087TIP3    H1 9225   6.254   6.445   2.460  0.0922 -0.0992 -0.0755
 3087TIP3    H2 9226   6.142   6.510   2.382 -1.4564 -1.2026  1.1526
 3088TIP3   OH2 9227   4.356   5.442   5.027 -0.3874 -0.3370 -0.9416
 3088TIP3    H1 9228   4.349   5.368   5.087  1.0195 -0.1400 -0.4889
 3088TIP3    H2 9229   4.317   5.411   4.945 -2.6549 -0.5052  0.1335
 3089TIP3   OH2 9230   5.426   6.532  -0.024  0.3805  0.5115 -0.0208
 3089TIP3    H1 9231   5.386   6.446  -0.009  0.4938 -0.0486 -2.5519
 3089TIP3    H2 9232   5.451   6.562   0.064 -0.0801 -1.8115  0.9866
 3090TIP3   OH2 9233   4.652   2.888   1.527 -0.4014  0.3896  0.1758
 3090TIP3    H1 9234   4.744   2.870   1.546  0.2219  0.8206 -2.1465
 3090TIP3    H2 9235   4.644   2.983   1.533 -0.2425  0.5158 -1.3058
 3091TIP3   OH2 9236   3.380   6.160   2.516  0.1188  0.2289  0.1487
 3091TIP3    H1 9237   3.403   6.209   2.594 -0.2427  0.8238 -0.1080
 3091TIP3    H2 9238   3.446   6.184   2.452  0.9842 -1.0009  0.5427
 3092TIP3   OH2 9239   0.699   4.042   0.793 -0.0022  0.1938  0.1618
 3092TIP3    H1 9240   0.637   4.084   0.734  1.1857  0.3971 -0.9938
 3092TIP3    H2 9241   0.680   3.948   0.785  0.2896  0.2027 -0.7290
 3093TIP3   OH2 9242   4.501   2.235   2.336 -0.3544 -0.2021  0.2092
 3093TIP3    H1 9243   4.424   2.214   2.388 -0.5014  0.0603  0.1003
 3093TIP3    H2 9244   4.467   2.256   2.249  0.0079 -2.0524 -0.4212
 3094TIP3   OH2 9245   5.525   4.406   5.231  0.0979  0.2049 -0.5672
 3094TIP3    H1 9246   5.445   4.355   5.216 -0.7188  1.1560  0.4132
 3094TIP3    H2 9247   5.583   4.380   5.159 -0.6235 -1.4038 -0.6281
 3095TIP3   OH2 9248   0.718   2.166   3.953 -0.3187  0.0274  0.0662
 3095TIP3    H1 9249   0.743   2.239   4.010  0.2450  0.5327 -0.7923
 3095TIP3    H2 9250   0.693   2.209   3.870  0.7423 -0.7941 -0.6987
 3096TIP3   OH2 9251   0.570   1.396   4.589 -0.0542  0.3740  0.3590
 3096TIP3    H1 9252   0.663   1.373   4.584 -0.2100 -0.7047  1.7359
 3096TIP3    H2 9253   0.564   1.481   4.545  1.4320  0.0996 -0.4570
 3097TIP3   OH2 9254   5.455   2.165   2.831 -0.1371  0.1498  0.5005
 3097TIP3    H1 9255   5.365   2.147   2.807 -0.3734 -1.7896  2.4874
 3097TIP3    H2 9256   5.505   2.151   2.751 -1.4429  0.0529 -0.3273
 3098TIP3   OH2 9257   0.554   2.674   4.459 -0.1905 -0.0601 -0.7155
 3098TIP3    H1 9258   0.576   2.754   4.411 -0.6397  0.4899 -0.0346
 3098TIP3    H2 9259   0.481   2.700   4.516 -0.0865 -0.8550 -0.2039
 3099TIP3   OH2 9260   3.848   4.320   1.233 -0.1328  0.1249 -0.3752
 3099TIP3    H1 9261   3.934   4.317   1.274 -0.1739  0.9881 -0.2219
 3099TIP3    H2 9262   3.861   4.365   1.150  0.2367 -2.9054 -2.1050
 3100TIP3   OH2 9263   5.551   1.124   5.847  0.4791  0.7778  0.9423
 3100TIP3    H1 9264   5.636   1.100   5.884  0.1703  0.0642  1.2072
 3100TIP3    H2 9265   5.502   1.042   5.844 -0.2363  1.1971  0.8767
 3101TIP3   OH2 9266   0.734   2.149   3.516  0.0325 -0.1536 -0.2178
 3101TIP3    H1 9267   0.694   2.080   3.463  0.5008 -1.3431  0.9151
 3101TIP3    H2 9268   0.827   2.144   3.495  0.0852  0.0452 -0.0334
 3102TIP3   OH2 9269   3.454   4.946   4.507  0.3174  0.7388  0.0143
 3102TIP3    H1 9270   3.440   4.956   4.413  2.0706  0.4213 -0.3146
 3102TIP3    H2 9271   3.368   4.960   4.546 -0.5632  0.2555 -1.6807
 3103TIP3   OH2 9272   6.441   4.471   0.051  0.0502 -0.1200 -0.0348
 3103TIP3    H1 9273   6.534   4.452   0.065  0.3192  0.0848 -1.4001
 3103TIP3    H2 9274   6.395   4.403   0.101  0.9367 -0.5680  0.1947
 3104TIP3   OH2 9275   6.063   0.286   1.158  0.3009  0.1406  0.0556
 3104TIP3    H1 9276   6.111   0.275   1.076  0.8412 -0.4876  0.4480
 3104TIP3    H2 9277   6.036   0.378   1.157  1.9148  0.6474  0.0243
 3105TIP3   OH2 9278   4.351   0.382   0.241 -0.4191 -0.2235 -0.3733
 3105TIP3    H1 9279   4.313   0.359   0.156 -1.8036  0.4813  0.0257
 3105TIP3    H2 9280   4.445   0.368   0.229 -0.7356 -1.6361 -1.5194
 3106TIP3   OH2 9281   5.316   1.664   1.432 -0.4060 -0.5787  0.4082
 3106TIP3    H1 9282   5.260   1.651   1.354 -1.6461  0.1050  1.1450
 3106TIP3    H2 9283   5.354   1.578   1.448 -1.0164 -1.0049 -0.3061
 3107TIP3   OH2 9284   6.821   3.330   3.342 -0.1400  0.1743  0.3358
 3107TIP3    H1 9285   6.762   3.255   3.342  0.3806 -0.2438  0.8059
 3107TIP3    H2 9286   6.894   3.303   3.398  1.6703 -0.2342 -2.0672
 3108TIP3   OH2 9287   2.408   1.418   1.624 -0.0653 -0.3033 -0.3750
 3108TIP3    H1 9288   2.409   1.419   1.528 -0.1095  0.3653 -0.3751
 3108TIP3    H2 9289   2.488   1.371   1.648  0.2979  0.1182 -0.7400
 3109TIP3   OH2 9290   4.276   0.503   5.488 -0.0109 -0.4250  0.1343
 3109TIP3    H1 9291   4.293   0.491   5.582  1.4071  0.3942  0.0080
 3109TIP3    H2 9292   4.361   0.490   5.447 -0.8297 -1.9208 -1.1908
 3110TIP3   OH2 9293   5.825   0.092   2.859  0.3190 -0.0572  0.6417
 3110TIP3    H1 9294   5.863   0.006   2.877  1.8356  0.3886 -0.3118
 3110TIP3    H2 9295   5.762   0.076   2.789 -0.2999 -0.5731  1.2977
 3111TIP3   OH2 9296   0.156   3.046   0.468 -0.5608 -0.4648  0.1149
 3111TIP3    H1 9297   0.116   3.126   0.501 -1.1871 -0.7028 -0.0692
 3111TIP3    H2 9298   0.172   3.063   0.375  0.7633  0.0267  0.4125
 3112TIP3   OH2 9299   5.692   0.443   4.372  0.3571  0.5180  0.0807
 3112TIP3    H1 9300   5.631   0.510   4.341 -0.0984  0.1238  0.1156
 3112TIP3    H2 9301   5.735   0.413   4.292 -0.1691  0.1383 -0.0641
 3113TIP3   OH2 9302   2.750   1.931   2.859  0.0589 -0.4679  0.0475
 3113TIP3    H1 9303   2.843   1.932   2.879  0.5595  0.7543 -2.0459
 3113TIP3    H2 9304   2.716   2.008   2.905  0.4814  0.2042 -0.7372
 3114TIP3   OH2 9305   0.999   3.490   1.315 -0.4617 -0.4461  0.3029
 3114TIP3    H1 9306   1.045   3.493   1.399  1.1102 -0.9167 -0.4978
 3114TIP3    H2 9307   0.965   3.579   1.303  2.1090  0.5887 -0.0354
 3115TIP3   OH2 9308   6.694   3.043   5.003  0.1169 -0.1040 -0.0032
 3115TIP3    H1 9309   6.772   3.071   4.955 -0.4795  0.4818 -0.6423
 3115TIP3    H2 9310   6.631   3.019   4.935 -0.7216  0.6928  0.4681
 3116TIP3   OH2 9311   0.912   2.568   0.779 -0.0542 -0.0752 -0.0714
 3116TIP3    H1 9312   0.830   2.530   0.749 -0.7645  0.0114  1.6662
 3116TIP3    H2 9313   0.904   2.662   0.759 -0.4164 -0.0581  0.1448
 3117TIP3   OH2 9314   4.819   4.145   3.896  0.0900  0.5159  0.2425
 3117TIP3    H1 9315   4.744   4.086   3.888  1.1230 -0.6276 -1.6808
 3117TIP3    H2 9316   4.871   4.106   3.967 -0.8213  1.0284  1.2348
 3118TIP3   OH2 9317   1.971   5.844   1.116 -0.0497  0.3067  0.3583
 3118TIP3    H1 9318   2.026   5.907   1.069 -0.6079  1.5213  1.2833
 3118TIP3    H2 9319   2.018   5.761   1.107  0.5321  0.7544 -1.1861
 3119TIP3   OH2 9320   3.357   5.651   2.529  0.1225  0.1960 -0.3059
 3119TIP3    H1 9321   3.360   5.741   2.559  1.3718  0.0956 -0.1112
 3119TIP3    H2 9322   3.263   5.633   2.519 -0.1291  1.9215 -1.6127
 3120TIP3   OH2 9323   2.392   6.519   3.705 -0.2852  0.1882 -0.5579
 3120TIP3    H1 9324   2.394   6.577   3.629 -1.0522 -1.1280 -1.6275
 3120TIP3    H2 9325   2.453   6.448   3.684  1.8841  1.3269  1.4170
 3121TIP3   OH2 9326   4.640   2.712   0.691  0.2290  0.3365 -0.1081
 3121TIP3    H1 9327   4.625   2.700   0.785 -0.5273  1.5301 -0.0515
 3121TIP3    H2 9328   4.723   2.759   0.686  1.2974 -1.5010 -0.1531
 3122TIP3   OH2 9329   6.518   0.246   0.906 -0.1850 -0.0475  0.2202
 3122TIP3    H1 9330   6.480   0.261   0.993 -2.4327 -2.6869 -0.1556
 3122TIP3    H2 9331   6.608   0.219   0.923  0.2265  1.9065  1.4958
 3123TIP3   OH2 9332   3.480   5.753   1.616  0.1778  0.2969  0.3680
 3123TIP3    H1 9333   3.560   5.772   1.566  0.5507  0.9462  1.1979
 3123TIP3    H2 9334   3.409   5.787   1.561  0.5668  0.7963  0.1664
 3124TIP3   OH2 9335   1.519   0.286   5.087 -0.2705  0.1433  0.0021
 3124TIP3    H1 9336   1.440   0.249   5.127  0.0032 -2.5184 -1.6863
 3124TIP3    H2 9337   1.566   0.325   5.160 -1.5418 -1.2050  1.6297
 3125TIP3   OH2 9338   3.262   5.739   3.357 -0.7632 -0.3510 -0.0231
 3125TIP3    H1 9339   3.315   5.692   3.293 -1.2517  1.1776 -1.6454
 3125TIP3    H2 9340   3.322   5.806   3.392 -0.4471 -1.2905  1.2993
 3126TIP3   OH2 9341   0.062   3.035   0.190 -0.6776  0.5330 -0.0147
 3126TIP3    H1 9342   0.141   2.987   0.164 -0.7046  0.7369 -0.4916
 3126TIP3    H2 9343  -0.009   2.989   0.145 -0.9192 -0.0600  0.9440
 3127TIP3   OH2 9344   3.311   0.258   2.370 -0.1010 -0.3218  0.6442
 3127TIP3    H1 9345   3.245   0.299   2.314  0.5885 -0.8808 -0.6369
 3127TIP3    H2 9346   3.260   0.216   2.440 -0.8648  2.0214  1.5895
 3128TIP3   OH2 9347   3.359   3.748   0.507  0.2741  0.0451 -0.3776
 3128TIP3    H1 9348   3.328   3.723   0.594 -1.1588 -1.4292 -1.2500
 3128TIP3    H2 9349   3.409   3.672   0.477  0.2224  0.2902 -1.0941
 3129TIP3   OH2 9350   4.790   4.854   3.848  0.2954  0.2287 -0.1263
 3129TIP3    H1 9351   4.823   4.942   3.864  0.0398  0.1403  0.9611
 3129TIP3    H2 9352   4.700   4.867   3.819 -0.2590  0.2794  1.5391
 3130TIP3   OH2 9353   6.450   5.582   2.586 -0.1128 -0.0108 -0.0004
 3130TIP3    H1 9354   6.439   5.513   2.653  1.5216  0.3954  0.7373
 3130TIP3    H2 9355   6.368   5.631   2.589 -1.7601 -2.4513 -1.2429
 3131TIP3   OH2 9356   1.305   5.774   2.720  0.2159 -0.3947 -0.1141
 3131TIP3    H1 9357   1.311   5.858   2.675 -1.1722 -0.8557 -1.2590
 3131TIP3    H2 9358   1.306   5.795   2.813  0.5335  0.8215 -0.3840
 3132TIP3   OH2 9359   5.950   4.938   4.177  0.4374 -0.1401 -0.1369
 3132TIP3    H1 9360   5.868   4.973   4.210 -0.3950 -0.7435 -1.4741
 3132TIP3    H2 9361   5.935   4.843   4.172  1.4267 -0.3273  0.1367
 3133TIP3   OH2 9362   4.009   2.887   3.425 -0.9624  0.3996  0.8520
 3133TIP3    H1 9363   3.941   2.950   3.451 -0.7316  0.2163  1.9827
 3133TIP3    H2 9364   4.038   2.849   3.508 -0.8828 -0.9727  0.2166
 3134TIP3   OH2 9365   7.130   5.563   5.597  0.5491  0.0459 -0.4302
 3134TIP3    H1 9366   7.224   5.566   5.616  0.7121  0.7025 -1.2637
 3134TIP3    H2 9367   7.105   5.655   5.585 -0.1970 -0.1234 -0.2181
 3135TIP3   OH2 9368   4.630   0.195   3.223  0.0796  0.2765  0.1610
 3135TIP3    H1 9369   4.585   0.130   3.168 -1.9267  1.0097  0.8212
 3135TIP3    H2 9370   4.715   0.156   3.241  0.6446 -0.2340 -2.9881
 3136TIP3   OH2 9371   6.289   6.583   4.541  0.0106 -0.2186 -0.5388
 3136TIP3    H1 9372   6.288   6.490   4.519  0.0553 -0.5591  0.7887
 3136TIP3    H2 9373   6.198   6.604   4.561  0.4665 -1.0833  3.2269
 3137TIP3   OH2 9374   5.784   4.873   3.636  0.1266 -0.0334  0.8987
 3137TIP3    H1 9375   5.755   4.832   3.717 -0.2673 -1.4662  0.0636
 3137TIP3    H2 9376   5.734   4.955   3.632  1.3247  0.8633  2.8560
 3138TIP3   OH2 9377   7.065   4.843   4.367 -0.0920  0.2344  0.0711
 3138TIP3    H1 9378   7.088   4.827   4.458 -1.1193  0.1587  0.3219
 3138TIP3    H2 9379   7.116   4.920   4.343  1.1529 -0.4819  0.3144
 3139TIP3   OH2 9380   3.697   0.552   5.318 -0.8606  0.8718  0.4290
 3139TIP3    H1 9381   3.638   0.529   5.246 -0.2798 -1.1941  0.5624
 3139TIP3    H2 9382   3.639   0.578   5.389 -1.5579  0.0254  0.1749
 3140TIP3   OH2 9383   3.121   1.441   4.888  0.0895 -0.6685  0.2830
 3140TIP3    H1 9384   3.153   1.467   4.974 -0.1605  1.6072 -0.2504
 3140TIP3    H2 9385   3.035   1.402   4.905  1.1315 -2.7126  1.2618
 3141TIP3   OH2 9386   1.435   4.420   2.335 -0.4441 -0.3726 -0.6302
 3141TIP3    H1 9387   1.412   4.437   2.244  1.7831  0.2375 -1.1366
 3141TIP3    H2 9388   1.502   4.485   2.356  2.8546 -3.5690 -0.2034
 3142TIP3   OH2 9389   5.879   5.024   2.822  0.1578  0.2149  0.1528
 3142TIP3    H1 9390   5.937   4.968   2.771  0.2064  0.1785  0.2479
 3142TIP3    H2 9391   5.797   4.975   2.827  0.2502  0.0808  0.3698
 3143TIP3   OH2 9392   6.087   1.349   3.773  0.1035 -0.3408 -0.1702
 3143TIP3    H1 9393   6.175   1.365   3.740  0.3777 -0.2098  0.6057
 3143TIP3    H2 9394   6.029   1.378   3.702  0.6610  0.9174 -0.1405
 3144TIP3   OH2 9395   6.526   6.104   3.737 -0.1617 -0.0238 -0.7351
 3144TIP3    H1 9396   6.462   6.069   3.799  0.1658  2.0044  0.8795
 3144TIP3    H2 9397   6.604   6.052   3.752 -0.2989 -0.0140  0.1031
 3145TIP3   OH2 9398   5.345   4.107   1.536 -0.0101 -0.4423  0.5469
 3145TIP3    H1 9399   5.332   4.167   1.463  0.4688 -1.4209 -0.3696
 3145TIP3    H2 9400   5.353   4.021   1.496  0.7931 -0.9418  1.6994
 3146TIP3   OH2 9401   3.750   5.522   1.792 -0.3412 -0.2350 -0.6549
 3146TIP3    H1 9402   3.676   5.539   1.850 -0.9433 -0.5764 -1.3079
 3146TIP3    H2 9403   3.723   5.557   1.707  0.7490  0.7473 -0.6242
 3147TIP3   OH2 9404   0.814   2.450   5.725 -0.5360 -0.4321 -0.0496
 3147TIP3    H1 9405   0.843   2.424   5.638  2.1605 -0.6847  0.8275
 3147TIP3    H2 9406   0.787   2.369   5.767 -1.8096 -0.3143 -0.5913
 3148TIP3   OH2 9407   5.017   2.126   3.915 -0.2743  0.5330  0.7830
 3148TIP3    H1 9408   5.096   2.074   3.900  0.0188  0.4893  2.3085
 3148TIP3    H2 9409   5.018   2.192   3.846  1.2612  0.7208  0.9624
 3149TIP3   OH2 9410   5.402   3.506   2.044  0.6832 -0.1042 -0.5508
 3149TIP3    H1 9411   5.483   3.556   2.031  1.1039 -0.7409 -0.4094
 3149TIP3    H2 9412   5.343   3.568   2.089  0.9320  0.5000 -1.0394
 3150TIP3   OH2 9413   3.900   4.854   5.043 -0.2783  0.0964 -0.3285
 3150TIP3    H1 9414   3.958   4.923   5.010  1.0644 -1.2665 -0.9061
 3150TIP3    H2 9415   3.870   4.887   5.128  2.5769  0.2240  0.7211
 3151TIP3   OH2 9416   0.712   6.048   0.278 -0.0849 -0.4335 -0.0281
 3151TIP3    H1 9417   0.800   6.083   0.265  0.1087 -0.5640  0.8263
 3151TIP3    H2 9418   0.701   5.985   0.207  0.2533  0.0628 -0.5306
 3152TIP3   OH2 9419   4.390   2.239   5.191 -0.0782 -0.9658  0.5908
 3152TIP3    H1 9420   4.448   2.233   5.267  0.4234 -0.8365  0.2242
 3152TIP3    H2 9421   4.343   2.321   5.203 -1.6699 -2.0088  1.9173
 3153TIP3   OH2 9422   4.056   4.908   3.911  0.1353 -0.7314 -0.5529
 3153TIP3    H1 9423   3.989   4.884   3.975  0.0136 -0.8358 -0.7161
 3153TIP3    H2 9424   4.025   4.992   3.875  1.2967  0.4569  1.0544
 3154TIP3   OH2 9425   5.593   5.733   3.527 -0.0793  0.2743  0.4146
 3154TIP3    H1 9426   5.647   5.704   3.454 -0.8595  2.6665 -1.2424
 3154TIP3    H2 9427   5.514   5.679   3.523 -0.3799  0.7901 -0.9312
 3155TIP3   OH2 9428   5.023   1.342   4.996 -0.2984 -0.1768  0.3103
 3155TIP3    H1 9429   5.080   1.405   4.953  1.2923  0.2838  2.8706
 3155TIP3    H2 9430   5.029   1.263   4.943  0.3525  0.7673 -1.0811
 3156TIP3   OH2 9431   5.380   4.720   0.883 -0.1141 -0.6685 -0.8331
 3156TIP3    H1 9432   5.323   4.648   0.911 -1.6295  1.1869  1.1076
 3156TIP3    H2 9433   5.424   4.748   0.963  1.9774 -0.6329 -1.9110
 3157TIP3   OH2 9434   5.790   2.109   2.186  0.1859 -0.0415 -0.5488
 3157TIP3    H1 9435   5.878   2.102   2.147 -0.0616 -0.7167 -1.0048
 3157TIP3    H2 9436   5.806   2.140   2.275  1.1197 -2.7033  0.2991
 3158TIP3   OH2 9437   2.981   3.373   5.489  0.5537  0.3214  0.0757
 3158TIP3    H1 9438   3.041   3.410   5.424  0.4981  2.2634  1.0538
 3158TIP3    H2 9439   3.039   3.334   5.555  0.7157  0.8447  0.2509
 3159TIP3   OH2 9440   6.667   4.180   2.045  0.1459 -0.2782 -0.0057
 3159TIP3    H1 9441   6.718   4.198   2.124 -0.4753  1.1544  0.1012
 3159TIP3    H2 9442   6.619   4.100   2.065 -1.7510  1.2365  1.9868
 3160TIP3   OH2 9443   4.706   4.902   2.191 -0.0271 -0.0380  0.7287
 3160TIP3    H1 9444   4.749   4.894   2.276  0.7152  0.2162  0.3889
 3160TIP3    H2 9445   4.616   4.927   2.211  0.2270  0.3304  1.4242
 3161TIP3   OH2 9446   2.880   4.014   5.170 -0.1171  0.2183 -0.6100
 3161TIP3    H1 9447   2.845   4.084   5.115 -0.7387 -0.1053 -0.6370
 3161TIP3    H2 9448   2.952   3.978   5.118  0.5478  1.1634 -0.3716
 3162TIP3   OH2 9449   5.518   0.957   5.089  0.2528 -0.3055  0.0256
 3162TIP3    H1 9450   5.593   0.954   5.148  0.1730  1.0870  0.2246
 3162TIP3    H2 9451   5.555   0.952   5.001  0.6546  0.9754  0.0999
 3163TIP3   OH2 9452   5.329   6.407   0.423  0.0026 -0.0427  0.4984
 3163TIP3    H1 9453   5.366   6.492   0.443  1.3154 -0.8789  1.8468
 3163TIP3    H2 9454   5.238   6.413   0.453 -0.0542  1.0285  0.1253
 3164TIP3   OH2 9455   3.617   5.147   4.479  0.4407 -0.2866 -0.5162
 3164TIP3    H1 9456   3.567   5.073   4.515 -0.0354  0.5232  0.5411
 3164TIP3    H2 9457   3.699   5.108   4.449 -0.3616 -1.4590 -1.2581
 3165TIP3   OH2 9458   2.467   0.910   3.598  0.1748 -0.0082  0.2935
 3165TIP3    H1 9459   2.494   0.829   3.554 -0.2413 -0.8204  1.4780
 3165TIP3    H2 9460   2.484   0.979   3.534  0.0281 -1.0862 -0.9540
 3166TIP3   OH2 9461   0.148   5.173   1.065 -0.0925  0.1432  0.5610
 3166TIP3    H1 9462   0.131   5.233   1.137 -0.2710  0.6787  0.0768
 3166TIP3    H2 9463   0.146   5.227   0.987 -0.8952 -0.5964  0.0522
 3167TIP3   OH2 9464   5.130   6.508   4.949  0.4660 -0.1856 -0.9271
 3167TIP3    H1 9465   5.217   6.481   4.918 -0.1379 -1.4668 -1.5879
 3167TIP3    H2 9466   5.101   6.436   5.006  0.0904  0.5243 -0.1952
 3168TIP3   OH2 9467   6.054   1.250   4.051  0.1717  0.1176  0.1157
 3168TIP3    H1 9468   6.056   1.265   3.956 -1.1741 -0.8521 -0.0969
 3168TIP3    H2 9469   6.108   1.320   4.088 -1.3815  2.1135 -1.1689
 3169TIP3   OH2 9470   2.924   6.181   2.122  0.1688 -0.0397  0.5367
 3169TIP3    H1 9471   3.009   6.160   2.160  0.6150 -2.4494 -1.5524
 3169TIP3    H2 9472   2.932   6.158   2.030 -2.3544  0.9222 -0.0066
 3170TIP3   OH2 9473   3.995   5.533   0.034 -0.1456  0.5061 -0.2985
 3170TIP3    H1 9474   4.082   5.560   0.062 -1.1361  0.3443  3.5044
 3170TIP3    H2 9475   3.962   5.606  -0.018  2.1388  0.5980 -1.7604
 3171TIP3   OH2 9476   5.191   3.630   0.225  0.2311 -0.4012 -0.7065
 3171TIP3    H1 9477   5.118   3.583   0.186 -1.2446 -0.3161  1.7604
 3171TIP3    H2 9478   5.224   3.571   0.292  1.8433 -0.0287 -1.1234
 3172TIP3   OH2 9479   5.113   1.946   0.801 -0.7191  0.0367 -0.4693
 3172TIP3    H1 9480   5.051   1.915   0.867 -0.5680  1.0218  0.1507
 3172TIP3    H2 9481   5.081   1.908   0.719 -0.3339 -2.0461  0.2752
 3173TIP3   OH2 9482   0.565   3.236   2.389  0.1434 -0.1105 -0.3376
 3173TIP3    H1 9483   0.578   3.277   2.474  0.1275  0.5235 -0.6319
 3173TIP3    H2 9484   0.612   3.293   2.328  2.8308 -2.1880 -0.4034
 3174TIP3   OH2 9485   4.951   5.315   0.820 -0.6358 -0.7149 -0.4293
 3174TIP3    H1 9486   4.942   5.255   0.746 -1.0182 -2.3121  0.8504
 3174TIP3    H2 9487   5.042   5.309   0.846 -0.8949 -1.5332  0.3209
 3175TIP3   OH2 9488   3.562   0.767   3.821 -0.1289  0.2359  0.3349
 3175TIP3    H1 9489   3.589   0.858   3.814 -0.7811  0.3429 -1.0426
 3175TIP3    H2 9490   3.541   0.740   3.732  0.1303 -1.2983  0.6980
 3176TIP3   OH2 9491   0.995   5.441   3.778  0.2867 -0.6930  0.1746
 3176TIP3    H1 9492   1.004   5.389   3.698  0.8725 -0.9854  0.4259
 3176TIP3    H2 9493   0.908   5.419   3.811 -0.2026 -0.1268 -0.6819
 3177TIP3   OH2 9494   1.045   3.434   0.870 -0.5928 -0.1435  0.3001
 3177TIP3    H1 9495   1.020   3.423   0.778  1.7498  1.5209 -0.6528
 3177TIP3    H2 9496   1.096   3.355   0.890  0.5444  0.3399 -0.5279
 3178TIP3   OH2 9497   5.988   3.298   4.005  1.5175 -0.4224 -0.5504
 3178TIP3    H1 9498   5.906   3.262   3.971  2.3614 -3.2253  0.1044
 3178TIP3    H2 9499   5.969   3.391   4.020 -1.6669 -1.0197 -0.0483
 3179TIP3   OH2 9500   1.546   0.749   3.448 -0.3723 -0.2146 -0.5077
 3179TIP3    H1 9501   1.546   0.656   3.423  2.0378 -0.2686 -0.5561
 3179TIP3    H2 9502   1.551   0.796   3.365 -1.8500  0.0219 -0.4978
 3180TIP3   OH2 9503   0.494   2.865   4.947  0.1952  0.2206  0.3868
 3180TIP3    H1 9504   0.573   2.851   4.895  0.1373  1.2729 -0.0173
 3180TIP3    H2 9505   0.428   2.809   4.906  0.8591 -1.1327  1.1014
 3181TIP3   OH2 9506   4.411   6.077   0.605 -0.2581  0.2113 -0.2789
 3181TIP3    H1 9507   4.462   5.997   0.619 -1.7294 -0.7109  0.0450
 3181TIP3    H2 9508   4.385   6.072   0.513 -1.0458 -0.1242 -0.0453
 3182TIP3   OH2 9509   0.354   4.987   3.708 -0.1407 -0.4451  0.7042
 3182TIP3    H1 9510   0.327   5.021   3.793 -1.7327 -1.6471  0.7359
 3182TIP3    H2 9511   0.273   4.986   3.656  0.2482 -2.1687  0.0547
 3183TIP3   OH2 9512   0.992   5.881   2.042  0.4138 -0.2644  0.1572
 3183TIP3    H1 9513   0.960   5.963   2.005 -3.2840 -1.0709  1.1203
 3183TIP3    H2 9514   0.970   5.886   2.135  0.2671 -2.2245  0.2838
 3184TIP3   OH2 9515   0.006   3.307   5.654 -0.5200 -0.1518 -0.0796
 3184TIP3    H1 9516   0.079   3.294   5.715 -1.3559 -2.2411  0.5378
 3184TIP3    H2 9517  -0.040   3.384   5.688 -0.4581 -0.7574  1.4586
 3185TIP3   OH2 9518   6.705   0.934   0.875 -0.1260 -0.0070 -0.4220
 3185TIP3    H1 9519   6.706   0.933   0.779 -1.5738  1.3710 -0.4998
 3185TIP3    H2 9520   6.633   0.994   0.897  1.4890  1.3344  1.5299
 3186TIP3   OH2 9521   0.041   3.392   2.580 -0.6426 -0.0346  0.2985
 3186TIP3    H1 9522  -0.041   3.350   2.605 -0.3344 -1.4167 -0.8526
 3186TIP3    H2 9523   0.077   3.335   2.511  0.8123  1.0470  0.1133
 3187TIP3   OH2 9524   0.866   5.684   1.173 -0.0833 -0.6433  0.1586
 3187TIP3    H1 9525   0.942   5.728   1.136 -1.1646  1.1268 -0.1174
 3187TIP3    H2 9526   0.842   5.618   1.107  1.4025 -1.5021  0.4400
 3188TIP3   OH2 9527   4.495  -0.028   0.551  0.4420 -0.2298  0.1268
 3188TIP3    H1 9528   4.522   0.060   0.524 -3.6743  1.5788  1.0977
 3188TIP3    H2 9529   4.503  -0.028   0.646 -1.6210  0.0261  0.3558
 3189TIP3   OH2 9530   5.162   0.385   4.924 -0.1460  0.4910  0.3848
 3189TIP3    H1 9531   5.162   0.290   4.917  0.2253  0.4550  0.8678
 3189TIP3    H2 9532   5.208   0.414   4.845 -0.5994  0.2884  0.0428
 3190TIP3   OH2 9533   4.374   0.947   2.386 -0.4423 -0.0170 -0.3328
 3190TIP3    H1 9534   4.456   0.897   2.379  0.5514  1.2594  1.4763
 3190TIP3    H2 9535   4.399   1.036   2.362 -1.5835  0.1886 -0.8134
 3191TIP3   OH2 9536   0.370   0.225   2.910  0.6155 -0.3062  0.2334
 3191TIP3    H1 9537   0.393   0.313   2.940 -0.1977  0.0365 -0.1337
 3191TIP3    H2 9538   0.276   0.218   2.926  0.9887 -1.8787  2.2102
 3192TIP3   OH2 9539   2.496   3.010   0.487 -0.1104 -0.6617  0.1263
 3192TIP3    H1 9540   2.494   2.932   0.432 -1.4253 -0.2752 -0.4107
 3192TIP3    H2 9541   2.469   3.081   0.429  2.7779  0.5602  0.1230
 3193TIP3   OH2 9542   5.179   1.185   4.267  0.1490  0.9120 -0.5915
 3193TIP3    H1 9543   5.228   1.153   4.191 -0.5164 -1.8520  0.0257
 3193TIP3    H2 9544   5.101   1.226   4.230  0.0031 -0.0835 -1.4277
 3194TIP3   OH2 9545   3.115   1.518   2.369 -0.0873 -0.5752 -0.4255
 3194TIP3    H1 9546   3.200   1.498   2.407 -0.2593 -0.4955  0.0088
 3194TIP3    H2 9547   3.134   1.542   2.278  0.4220  0.0763 -0.1492
 3195TIP3   OH2 9548   3.492   1.763   2.456  0.0305 -0.4290  0.2119
 3195TIP3    H1 9549   3.502   1.692   2.520 -0.4974 -0.6586  0.0440
 3195TIP3    H2 9550   3.581   1.791   2.438  0.1509  1.2684  2.8615
 3196TIP3   OH2 9551   4.713   6.191   2.550  0.2339  0.7884 -0.5389
 3196TIP3    H1 9552   4.664   6.245   2.613  0.1843 -1.0207  1.0676
 3196TIP3    H2 9553   4.804   6.195   2.581  0.1549 -0.3816 -0.0988
 3197TIP3   OH2 9554   5.275   6.466   5.448 -0.0589 -0.0098  0.0878
 3197TIP3    H1 9555   5.281   6.386   5.397  0.9523  0.9670 -1.3912
 3197TIP3    H2 9556   5.365   6.501   5.449 -0.6403  1.5782 -0.1235
 3198TIP3   OH2 9557   3.176   5.726   4.600 -0.0957 -0.4327 -0.2101
 3198TIP3    H1 9558   3.088   5.729   4.562 -0.0254  0.0272 -0.3435
 3198TIP3    H2 9559   3.173   5.651   4.659 -1.0293  0.4263  0.8763
 3199TIP3   OH2 9560   4.106   5.111   1.124  0.0233  0.0566 -0.2054
 3199TIP3    H1 9561   4.180   5.052   1.136  0.7459  1.1322  0.8491
 3199TIP3    H2 9562   4.140   5.179   1.065 -0.0681  0.6448  0.4213
 3200TIP3   OH2 9563   4.675   4.901   0.252  0.1387 -0.8169 -0.3140
 3200TIP3    H1 9564   4.659   4.881   0.344 -1.8608 -1.2413 -0.6842
 3200TIP3    H2 9565   4.704   4.992   0.251  0.8072 -1.0079  0.7741
 3201TIP3   OH2 9566   3.116   2.431   1.546 -0.0199 -0.0518  0.4724
 3201TIP3    H1 9567   3.086   2.412   1.635 -2.5273 -1.4704 -0.5579
 3201TIP3    H2 9568   3.035   2.431   1.494  1.3148  1.2170 -1.7424
 3202TIP3   OH2 9569   1.415   4.300   2.020 -0.0249 -0.1298  0.3646
 3202TIP3    H1 9570   1.496   4.351   2.025  0.0425 -0.1061 -0.7012
 3202TIP3    H2 9571   1.365   4.342   1.950 -0.0740 -1.3851 -0.3757
 3203TIP3   OH2 9572   0.204   1.325   2.809 -0.4911  0.0047 -0.8157
 3203TIP3    H1 9573   0.225   1.231   2.804 -1.5185 -0.2772 -0.2914
 3203TIP3    H2 9574   0.125   1.328   2.864  0.1972  1.2903  0.1387
 3204TIP3   OH2 9575   2.696   6.299   1.005 -0.4131 -0.4069  0.0996
 3204TIP3    H1 9576   2.732   6.383   0.977  0.3002 -0.2967  1.2837
 3204TIP3    H2 9577   2.748   6.234   0.959  0.2492 -0.2190  0.5693
 3205TIP3   OH2 9578   1.247   1.375   5.768  0.8056  0.1759 -0.3422
 3205TIP3    H1 9579   1.163   1.338   5.741  1.2143  0.0297 -1.4773
 3205TIP3    H2 9580   1.282   1.311   5.830 -0.8659  1.2887  1.9173
 3206TIP3   OH2 9581   1.913   0.465   3.397 -0.7860  0.2363 -0.2604
 3206TIP3    H1 9582   1.941   0.391   3.451 -1.0473 -1.1215 -1.8822
 3206TIP3    H2 9583   1.953   0.542   3.438  0.7153 -0.9738  0.6574
 3207TIP3   OH2 9584   4.065   6.428   3.891 -0.0849 -0.4190  0.2691
 3207TIP3    H1 9585   4.069   6.352   3.834  0.5941  0.3961 -0.8215
 3207TIP3    H2 9586   4.140   6.418   3.950  0.6662 -0.0874 -0.5888
 3208TIP3   OH2 9587   6.195   1.291   1.930  0.5624  0.0570 -0.1011
 3208TIP3    H1 9588   6.174   1.352   1.859  2.0794  1.3396  0.4772
 3208TIP3    H2 9589   6.111   1.271   1.971 -0.2135  0.0235 -1.6777
 3209TIP3   OH2 9590   1.843   3.307   5.554 -0.3121 -0.0066 -0.4961
 3209TIP3    H1 9591   1.752   3.330   5.575 -0.2096 -0.2770  0.2812
 3209TIP3    H2 9592   1.856   3.222   5.594  1.1010  1.2140  1.8360
 3210TIP3   OH2 9593   4.316   5.809   1.446  0.3345 -0.2009  0.1687
 3210TIP3    H1 9594   4.236   5.805   1.498  0.7686  2.6417  1.2700
 3210TIP3    H2 9595   4.296   5.873   1.377  1.3079 -0.2879 -0.2120
 3211TIP3   OH2 9596   3.654   1.915   3.156 -0.3969  0.0056  0.5663
 3211TIP3    H1 9597   3.711   1.868   3.095 -0.0356  0.3123  0.6650
 3211TIP3    H2 9598   3.567   1.877   3.142 -0.2471 -0.1770  0.1239
 3212TIP3   OH2 9599   4.167   0.209   0.662 -0.4972  0.2880  0.2641
 3212TIP3    H1 9600   4.208   0.226   0.577  0.4843  0.6361  0.7969
 3212TIP3    H2 9601   4.107   0.136   0.646 -0.2873  0.3203 -0.7126
 3213TIP3   OH2 9602   2.762   0.042   0.621 -0.1507  0.3906  0.1537
 3213TIP3    H1 9603   2.771   0.086   0.706  0.4438  0.5597  0.0025
 3213TIP3    H2 9604   2.673   0.006   0.623  0.1432 -0.3306  1.1873
 3214TIP3   OH2 9605   5.369   6.361   5.079 -0.2403 -0.4866 -0.1130
 3214TIP3    H1 9606   5.432   6.341   5.009 -0.1195 -0.1065 -0.1175
 3214TIP3    H2 9607   5.419   6.413   5.141 -0.4636 -0.4689  0.0530
 3215TIP3   OH2 9608   2.600   5.232   4.204  0.0384 -0.0919 -0.1427
 3215TIP3    H1 9609   2.679   5.183   4.181 -0.7700 -0.9997 -1.0575
 3215TIP3    H2 9610   2.603   5.310   4.148  1.1617  0.8014  1.0925
 3216TIP3   OH2 9611   2.533   6.299   2.119  0.1799 -0.3615  0.0126
 3216TIP3    H1 9612   2.536   6.205   2.100 -0.1676 -0.1236 -1.3463
 3216TIP3    H2 9613   2.504   6.304   2.210  1.8173 -1.6058  0.6732
 3217TIP3   OH2 9614   3.072   0.416   1.758 -0.3076  0.2323  0.4169
 3217TIP3    H1 9615   3.062   0.329   1.719  0.5660  0.2708  0.0791
 3217TIP3    H2 9616   3.124   0.464   1.694  0.8890  0.3974  1.4841
 3218TIP3   OH2 9617   6.452   4.995   5.628 -0.0056 -0.1828 -0.3448
 3218TIP3    H1 9618   6.406   5.047   5.562 -0.5799 -2.4020 -1.8156
 3218TIP3    H2 9619   6.531   4.965   5.585 -0.0148 -1.0638  0.2256
 3219TIP3   OH2 9620   0.596   1.397   1.330  0.0317  0.3229  0.0143
 3219TIP3    H1 9621   0.595   1.492   1.341 -2.1004  0.2431  0.9961
 3219TIP3    H2 9622   0.687   1.376   1.307  0.9625  2.3977  1.4954
 3220TIP3   OH2 9623   4.513   5.693   2.128  0.3083 -0.1929 -0.2629
 3220TIP3    H1 9624   4.581   5.732   2.184  0.6273  0.6362 -1.1900
 3220TIP3    H2 9625   4.440   5.754   2.133 -0.6001 -1.3414  1.1363
 3221TIP3   OH2 9626   0.540   3.772   1.684 -0.2416 -0.1825 -0.0833
 3221TIP3    H1 9627   0.471   3.825   1.644 -0.2759  1.3690  1.8499
 3221TIP3    H2 9628   0.516   3.769   1.777  1.0977 -1.5654  0.2613
 3222TIP3   OH2 9629   3.353   4.436   3.157 -0.2264  0.2024  0.4765
 3222TIP3    H1 9630   3.300   4.490   3.215  0.0524  1.0686 -0.0618
 3222TIP3    H2 9631   3.425   4.405   3.213 -0.2508  0.5933  0.7272
 3223TIP3   OH2 9632   0.019   6.008   5.595  0.2399 -0.5916  0.3537
 3223TIP3    H1 9633   0.085   6.045   5.654 -0.7665  1.3386  0.3211
 3223TIP3    H2 9634   0.053   6.025   5.507  0.1995 -0.5631  0.3440
 3224TIP3   OH2 9635   4.451   0.496   1.953  0.6076 -0.2261  0.1382
 3224TIP3    H1 9636   4.372   0.509   2.006  0.6470 -0.2252  0.1963
 3224TIP3    H2 9637   4.478   0.406   1.973 -0.3269 -0.8393 -1.1409
 3225TIP3   OH2 9638   7.095   2.327   4.651  0.1847  0.2796  0.1279
 3225TIP3    H1 9639   7.051   2.411   4.663 -0.8315 -0.1298 -0.5141
 3225TIP3    H2 9640   7.168   2.346   4.592  0.5245  0.8661  0.7233
 3226TIP3   OH2 9641   2.483   0.228   0.608 -0.3605 -0.0390 -0.1196
 3226TIP3    H1 9642   2.495   0.237   0.514 -0.8013  1.6340 -0.0507
 3226TIP3    H2 9643   2.433   0.147   0.619 -0.7324  0.0090 -1.3578
 3227TIP3   OH2 9644   0.733   5.901   0.977  0.5637 -0.3920  0.2313
 3227TIP3    H1 9645   0.639   5.920   0.983  0.7162  0.4779  0.0212
 3227TIP3    H2 9646   0.743   5.815   1.018 -0.4495 -0.9020 -0.5562
 3228TIP3   OH2 9647   3.037   5.084   3.809  0.4391  0.1132  0.4129
 3228TIP3    H1 9648   2.962   5.111   3.862  0.5712  0.6348  0.3430
 3228TIP3    H2 9649   3.057   4.996   3.838  0.3529  0.3007  1.0547
 3229TIP3   OH2 9650   5.834   4.607   0.407 -0.4827  0.4094  0.0254
 3229TIP3    H1 9651   5.901   4.566   0.462 -0.2286  0.8202  0.0315
 3229TIP3    H2 9652   5.844   4.565   0.321 -1.3452 -0.7362  0.4595
 3230TIP3   OH2 9653   2.752   0.865   5.761  0.2085 -0.0465 -0.3723
 3230TIP3    H1 9654   2.671   0.815   5.768  0.3504 -0.3827 -1.0663
 3230TIP3    H2 9655   2.741   0.918   5.682  0.9040 -0.5361 -0.8084
 3231TIP3   OH2 9656   6.888   5.300   2.231 -0.6172  0.4740 -0.0564
 3231TIP3    H1 9657   6.807   5.340   2.262 -1.4379  0.1443 -1.6741
 3231TIP3    H2 9658   6.914   5.241   2.302 -2.2616 -0.0376  0.1668
 3232TIP3   OH2 9659   5.555   6.212   4.879  0.0873 -0.5365 -0.5815
 3232TIP3    H1 9660   5.643   6.224   4.914  0.5816 -1.7883 -1.2941
 3232TIP3    H2 9661   5.526   6.128   4.915 -1.0322  0.0997  0.0510
 3233TIP3   OH2 9662   1.337   2.525   1.661  0.1689 -0.1201 -0.3901
 3233TIP3    H1 9663   1.335   2.438   1.621  0.6447 -0.5562  0.5061
 3233TIP3    H2 9664   1.429   2.552   1.655  0.0504  0.2566 -0.5249
 3234TIP3   OH2 9665   3.920   0.313   1.435 -0.4507 -0.4590  0.0042
 3234TIP3    H1 9666   3.918   0.280   1.525  0.0113 -1.3827 -0.3172
 3234TIP3    H2 9667   4.010   0.296   1.406  0.0060  1.6567  0.0305
 3235TIP3   OH2 9668   0.971   2.790   5.170  0.0652  0.5102 -0.4712
 3235TIP3    H1 9669   1.008   2.872   5.202 -0.6651  0.6828 -0.0438
 3235TIP3    H2 9670   0.957   2.737   5.248 -1.9503  1.0251 -0.4507
 3236TIP3   OH2 9671   6.899   2.064   3.116  0.4832  0.2734 -0.5940
 3236TIP3    H1 9672   6.928   1.978   3.146  1.3581  1.3105  1.7942
 3236TIP3    H2 9673   6.809   2.050   3.086  0.2976 -1.3274  0.5705
 3237TIP3   OH2 9674   0.042   6.415   3.312 -0.1917 -0.4751  0.1120
 3237TIP3    H1 9675   0.132   6.439   3.337 -0.1200 -1.3456  0.7115
 3237TIP3    H2 9676   0.026   6.465   3.232 -0.5339  2.6839  1.9749
 3238TIP3   OH2 9677   0.949   1.857   2.672 -0.1864  0.0516 -0.3664
 3238TIP3    H1 9678   0.934   1.814   2.588 -1.8510 -0.1683  0.0152
 3238TIP3    H2 9679   0.991   1.791   2.727  3.8462  1.0741 -1.8614
 3239TIP3   OH2 9680   3.327   0.740   1.769  0.2857 -0.1232  0.3511
 3239TIP3    H1 9681   3.255   0.717   1.828 -0.7664 -1.0555 -1.2110
 3239TIP3    H2 9682   3.406   0.731   1.822 -0.7330  1.4955  2.2863
 3240TIP3   OH2 9683   0.903   1.551   4.394 -0.2258  0.4489  0.0815
 3240TIP3    H1 9684   0.916   1.572   4.301  1.3862  1.2379  0.4627
 3240TIP3    H2 9685   0.818   1.590   4.414 -0.9542 -0.3749 -1.2308
 3241TIP3   OH2 9686   3.786   2.006   1.000  0.7322  0.2658  0.2742
 3241TIP3    H1 9687   3.747   2.077   0.950  1.6626  0.5313 -0.1000
 3241TIP3    H2 9688   3.743   2.009   1.085 -0.2454  0.3636 -0.2203
 3242TIP3   OH2 9689   0.854   2.819   0.682 -0.0939 -0.2846 -0.2318
 3242TIP3    H1 9690   0.805   2.896   0.654 -1.2894 -0.3590  1.5207
 3242TIP3    H2 9691   0.924   2.810   0.617 -0.5370  1.6616 -1.0337
 3243TIP3   OH2 9692   2.398   2.237   3.056  0.1621  0.3036 -0.3235
 3243TIP3    H1 9693   2.374   2.272   3.142  1.9812  0.5728  0.1143
 3243TIP3    H2 9694   2.477   2.284   3.032  0.5541 -0.8715 -1.4521
 3244TIP3   OH2 9695   0.337   5.924   2.810  0.0375  0.5503  0.5799
 3244TIP3    H1 9696   0.295   5.840   2.792  0.5766  0.2001  0.9342
 3244TIP3    H2 9697   0.393   5.907   2.885  0.6931  1.0472  0.2170
 3245TIP3   OH2 9698   2.318   5.996   2.689 -0.1624 -0.3369  0.5452
 3245TIP3    H1 9699   2.237   5.952   2.664 -0.5394  0.1249  0.9098
 3245TIP3    H2 9700   2.293   6.088   2.697  0.3465 -0.2226  0.8826
 3246TIP3   OH2 9701   0.038   0.312   0.233  0.2775 -0.1458  0.1566
 3246TIP3    H1 9702  -0.056   0.316   0.253 -0.2062 -0.0506 -1.9387
 3246TIP3    H2 9703   0.068   0.232   0.276 -1.1137 -1.0370 -0.4636
 3247TIP3   OH2 9704   0.036   0.564   4.445  0.6953  0.3254  0.4723
 3247TIP3    H1 9705   0.045   0.657   4.427 -0.1788  0.5932  1.3199
 3247TIP3    H2 9706  -0.028   0.533   4.381 -1.8937  1.1341  2.4881
 3248TIP3   OH2 9707   1.020   5.508   2.967  0.0481 -0.0230  0.0342
 3248TIP3    H1 9708   1.000   5.523   2.874  1.1479  0.2878 -0.1627
 3248TIP3    H2 9709   1.091   5.445   2.967 -0.0047 -0.0901  0.6740
 3249TIP3   OH2 9710   2.481   4.939   5.035  0.1460  0.2991 -1.1151
 3249TIP3    H1 9711   2.510   4.849   5.023  0.6292  0.1652  0.7945
 3249TIP3    H2 9712   2.550   4.993   4.998  0.3449 -0.1019 -1.3231
 3250TIP3   OH2 9713   2.079   2.746   3.239 -0.1038  0.3956  0.8192
 3250TIP3    H1 9714   2.172   2.764   3.236  0.0791 -0.2150  2.1716
 3250TIP3    H2 9715   2.072   2.653   3.219 -0.4692  0.5260  0.3082
 3251TIP3   OH2 9716   4.779   0.886   0.135 -0.0835 -0.1926  0.6450
 3251TIP3    H1 9717   4.775   0.926   0.048 -1.0338 -0.2060  0.6633
 3251TIP3    H2 9718   4.835   0.809   0.124 -0.0773 -0.1085  0.0718
 3252TIP3   OH2 9719   2.588   6.634   4.507 -0.2519 -0.6160  0.1195
 3252TIP3    H1 9720   2.556   6.721   4.484 -0.7586  0.1112  3.1858
 3252TIP3    H2 9721   2.518   6.575   4.479  0.4972 -0.2652 -2.8544
 3253TIP3   OH2 9722   3.397   5.196   2.505  0.4165  0.7539  0.1564
 3253TIP3    H1 9723   3.380   5.185   2.412  0.6437 -0.4823  0.2424
 3253TIP3    H2 9724   3.356   5.279   2.528  0.0513  0.8921 -0.9659
 3254TIP3   OH2 9725   2.643   6.532   2.439  0.1200  0.0094  0.1219
 3254TIP3    H1 9726   2.619   6.569   2.524 -0.1746 -0.9245  0.4529
 3254TIP3    H2 9727   2.572   6.471   2.419  0.8188 -0.7083 -0.2079
 3255TIP3   OH2 9728   6.672   4.600   1.128  0.0264 -0.1576 -0.3820
 3255TIP3    H1 9729   6.641   4.534   1.191 -0.6130  0.5924  0.1073
 3255TIP3    H2 9730   6.763   4.616   1.154 -0.5801  1.0143  1.1381
 3256TIP3   OH2 9731   3.256   6.538   4.756 -0.2986 -0.2644 -0.3894
 3256TIP3    H1 9732   3.280   6.472   4.821  0.1479 -1.0862 -1.3620
 3256TIP3    H2 9733   3.183   6.586   4.796  0.0982 -0.6138  0.7862
 3257TIP3   OH2 9734   0.824   2.449   3.903 -0.1681 -0.6871 -0.1805
 3257TIP3    H1 9735   0.744   2.428   3.854 -0.2725 -0.1563 -0.2413
 3257TIP3    H2 9736   0.888   2.472   3.836 -0.9393  2.2185 -0.0140
 3258TIP3   OH2 9737   6.952   0.585   2.656  0.0602 -0.0236  0.6411
 3258TIP3    H1 9738   6.935   0.679   2.643 -0.5714 -0.1877  0.2297
 3258TIP3    H2 9739   7.047   0.578   2.653  0.1239  0.6365  0.8949
 3259TIP3   OH2 9740   2.025   5.564   4.616  0.8155  0.4531 -0.2397
 3259TIP3    H1 9741   1.985   5.556   4.702  1.0640  0.0671 -0.1573
 3259TIP3    H2 9742   2.065   5.651   4.615  0.6828  0.5161 -0.0239
 3260TIP3   OH2 9743   3.685   5.745   2.275  0.0918 -0.2691 -0.6226
 3260TIP3    H1 9744   3.626   5.803   2.322 -0.2974 -0.8466 -0.3946
 3260TIP3    H2 9745   3.703   5.791   2.192 -0.0488  0.2620 -0.3623
 3261TIP3   OH2 9746   0.446   6.801   1.509  0.1807 -0.1498  0.3338
 3261TIP3    H1 9747   0.461   6.742   1.436  0.4835  0.7785 -0.3816
 3261TIP3    H2 9748   0.357   6.782   1.538 -0.5880  0.6390 -1.4113
 3262TIP3   OH2 9749   1.112   6.738   0.335  0.1133  0.0385  0.0701
 3262TIP3    H1 9750   1.055   6.670   0.370  1.3936 -1.5134 -0.7004
 3262TIP3    H2 9751   1.074   6.761   0.251 -0.6878  0.7883  0.6199
 3263TIP3   OH2 9752   0.529   0.043   1.691 -0.5353 -0.0388 -0.7548
 3263TIP3    H1 9753   0.581   0.033   1.771 -2.8120 -0.6391  0.7465
 3263TIP3    H2 9754   0.511   0.137   1.685 -1.8537 -0.1650  0.5300
 3264TIP3   OH2 9755   6.846   4.138   2.634  0.0695  0.0079  0.6155
 3264TIP3    H1 9756   6.876   4.228   2.641 -1.8101  0.7897 -0.4668
 3264TIP3    H2 9757   6.913   4.094   2.582  0.9369  0.8074  1.0354
 3265TIP3   OH2 9758   3.370   5.736   0.408  0.3175 -0.2504  0.0566
 3265TIP3    H1 9759   3.422   5.815   0.423  0.2663 -0.3113  0.5824
 3265TIP3    H2 9760   3.304   5.738   0.477  2.0493 -2.2252  1.9348
 3266TIP3   OH2 9761   6.244   0.734   5.278 -0.5382 -0.2244 -0.1172
 3266TIP3    H1 9762   6.228   0.807   5.218 -1.0649 -1.0245 -0.9827
 3266TIP3    H2 9763   6.180   0.668   5.253  0.8452 -1.5528 -0.3111
 3267TIP3   OH2 9764   2.534   5.858   0.932 -0.0115  0.0243  0.1927
 3267TIP3    H1 9765   2.456   5.807   0.955  0.2278 -0.3670  0.1366
 3267TIP3    H2 9766   2.588   5.799   0.880  0.9097 -0.1415  1.2787
 3268TIP3   OH2 9767   3.620   4.431   2.600  0.0926  0.0808  0.1198
 3268TIP3    H1 9768   3.683   4.484   2.551  0.3203 -0.4010 -0.1120
 3268TIP3    H2 9769   3.650   4.341   2.590 -2.6058 -0.6722 -3.1127
 3269TIP3   OH2 9770   3.727   4.589   0.950  0.7141  0.1083  0.3705
 3269TIP3    H1 9771   3.769   4.668   0.916  2.7940 -0.8047  0.7072
 3269TIP3    H2 9772   3.673   4.557   0.877 -0.3662  1.9368  0.3134
 3270TIP3   OH2 9773   3.968   1.728   5.042  0.0052 -0.2332 -0.7540
 3270TIP3    H1 9774   4.016   1.693   4.967 -0.7238 -0.8365 -0.9427
 3270TIP3    H2 9775   3.876   1.725   5.016 -0.4426 -2.2382  0.8651
 3271TIP3   OH2 9776   5.073   5.107   3.402  0.1744 -0.3010 -0.3775
 3271TIP3    H1 9777   5.025   5.087   3.482 -1.7772 -0.3873 -1.5115
 3271TIP3    H2 9778   5.036   5.190   3.372  2.0808  0.6284 -0.3385
 3272TIP3   OH2 9779   4.116   1.813   0.525  0.4190  0.5899 -0.4034
 3272TIP3    H1 9780   4.115   1.790   0.432  0.6355  0.9953 -0.5084
 3272TIP3    H2 9781   4.095   1.731   0.570 -0.2096  0.5031 -0.8317
 3273TIP3   OH2 9782   6.969   3.220   0.026 -0.2613  0.4333  0.7730
 3273TIP3    H1 9783   6.900   3.214  -0.039 -0.1059  1.4056  0.4984
 3273TIP3    H2 9784   6.997   3.129   0.041 -0.4278  0.1815 -0.3725
 3274TIP3   OH2 9785   2.844   3.769   1.760 -0.6073 -0.0664  0.1211
 3274TIP3    H1 9786   2.892   3.762   1.677  0.7212  0.1291  0.8352
 3274TIP3    H2 9787   2.842   3.863   1.778  0.7359 -0.2128  1.1867
 3275TIP3   OH2 9788   0.786   4.949   4.695  0.1295  0.5983 -0.6650
 3275TIP3    H1 9789   0.733   4.875   4.725  2.0141 -0.2144  0.8607
 3275TIP3    H2 9790   0.768   4.954   4.601 -0.9613 -1.0211 -0.5891
 3276TIP3   OH2 9791   3.231   4.704   0.208 -0.4683  0.2781 -0.4019
 3276TIP3    H1 9792   3.274   4.749   0.281 -0.1984 -0.5251 -0.0620
 3276TIP3    H2 9793   3.302   4.669   0.155 -0.6811 -0.5002 -0.1848
 3277TIP3   OH2 9794   6.091   5.592   5.867 -0.2188  0.2114  0.1020
 3277TIP3    H1 9795   6.052   5.588   5.779  0.9085  0.1503 -0.4088
 3277TIP3    H2 9796   6.147   5.514   5.872  0.8851  1.0019  0.3043
 3278TIP3   OH2 9797   1.485   5.006   0.615  0.0651 -0.3855  0.4483
 3278TIP3    H1 9798   1.553   5.034   0.675  1.3034 -3.0522  0.4316
 3278TIP3    H2 9799   1.526   4.936   0.564 -1.1276  1.2405 -3.0673
 3279TIP3   OH2 9800   1.158   4.712   1.708  0.1668 -0.5643  0.5995
 3279TIP3    H1 9801   1.069   4.740   1.730 -0.0834 -0.6413 -0.2797
 3279TIP3    H2 9802   1.172   4.634   1.761 -0.9669 -1.5847 -0.5365
 3280TIP3   OH2 9803   7.088   3.252   4.295 -0.1729 -0.4252 -0.1821
 3280TIP3    H1 9804   7.081   3.288   4.207 -0.0687  1.5901  0.5815
 3280TIP3    H2 9805   7.003   3.271   4.336  0.7665  1.3765  1.0650
 3281TIP3   OH2 9806   5.755   3.796   5.100 -0.6200  0.2890 -0.4584
 3281TIP3    H1 9807   5.706   3.730   5.050  1.1505 -0.3051 -1.5191
 3281TIP3    H2 9808   5.689   3.859   5.128 -2.1657 -1.1706 -0.6555
 3282TIP3   OH2 9809   6.187   4.192   0.917  0.2185  0.5638  0.2780
 3282TIP3    H1 9810   6.253   4.260   0.905 -0.0937  0.5493 -1.8373
 3282TIP3    H2 9811   6.233   4.120   0.959  0.6256  1.9212  2.3094
 3283TIP3   OH2 9812   1.953   4.925   5.899 -0.6545  0.0518 -0.2376
 3283TIP3    H1 9813   2.020   4.993   5.888  1.0566 -1.4637  0.2498
 3283TIP3    H2 9814   1.919   4.911   5.811 -0.8386  1.3259 -0.3885
 3284TIP3   OH2 9815   5.939   6.162   3.860  0.2900  0.1171 -0.0925
 3284TIP3    H1 9816   6.020   6.189   3.903  0.2495 -0.3603  0.2909
 3284TIP3    H2 9817   5.875   6.156   3.931  1.0055 -3.9689  0.4520
 3285TIP3   OH2 9818   3.759   6.245   3.105 -0.4960  0.0867 -0.2478
 3285TIP3    H1 9819   3.778   6.176   3.168 -1.4096  1.5931  1.8083
 3285TIP3    H2 9820   3.779   6.326   3.152  0.0783  1.2616 -2.4016
 3286TIP3   OH2 9821   2.207   2.668   4.107  0.6045  0.3062 -0.2354
 3286TIP3    H1 9822   2.189   2.713   4.189  0.5281  0.2095 -0.1997
 3286TIP3    H2 9823   2.163   2.720   4.040 -1.5611 -1.0418  0.0669
 3287TIP3   OH2 9824   6.272   2.164   5.706 -0.6115 -0.0513  0.4810
 3287TIP3    H1 9825   6.330   2.217   5.761 -1.1129 -0.2465  1.2134
 3287TIP3    H2 9826   6.317   2.081   5.696 -0.7573 -0.2054  1.0555
 3288TIP3   OH2 9827   3.323   4.897   1.144 -0.1526  0.0485  0.4542
 3288TIP3    H1 9828   3.246   4.889   1.088 -0.5151 -1.8147  1.1415
 3288TIP3    H2 9829   3.392   4.848   1.097  0.2796  0.6880  0.4118
 3289TIP3   OH2 9830   0.802   3.052   3.641 -0.4073  0.4848 -0.0907
 3289TIP3    H1 9831   0.876   3.059   3.580 -0.5468  1.4137 -0.1591
 3289TIP3    H2 9832   0.738   3.114   3.608 -1.1371 -0.1522  0.1054
 3290TIP3   OH2 9833   0.448   1.699   1.426  0.6694  0.3246  0.1726
 3290TIP3    H1 9834   0.531   1.659   1.452  0.0195  0.7855  3.4215
 3290TIP3    H2 9835   0.422   1.753   1.502 -2.3042  0.6618 -0.9300
 3291TIP3   OH2 9836   0.012   1.715   5.784 -0.0735  0.3863 -0.1127
 3291TIP3    H1 9837   0.089   1.760   5.818 -0.0344  1.3517 -1.4016
 3291TIP3    H2 9838  -0.062   1.772   5.807 -0.0516  1.0334 -1.5173
 3292TIP3   OH2 9839   4.184   2.458   2.790 -0.5820  0.4371  0.2367
 3292TIP3    H1 9840   4.218   2.524   2.850  0.8113 -0.0557  0.0271
 3292TIP3    H2 9841   4.128   2.506   2.729  0.6754  1.4947 -0.1197
 3293TIP3   OH2 9842   0.086   4.223   5.082  0.1995 -0.0567  0.5896
 3293TIP3    H1 9843   0.096   4.246   4.990 -1.9012 -0.0771  0.3033
 3293TIP3    H2 9844   0.101   4.305   5.129 -1.4353  0.6400 -0.0098
 3294TIP3   OH2 9845   1.556   3.341   5.586 -0.1342  0.3638 -0.0326
 3294TIP3    H1 9846   1.608   3.409   5.628 -0.0180  1.1607 -1.4065
 3294TIP3    H2 9847   1.465   3.370   5.597 -0.3643 -1.0545  2.4133
 3295TIP3   OH2 9848   6.643   1.980   1.975  0.0460  0.3567  0.0463
 3295TIP3    H1 9849   6.706   1.969   1.904 -0.5068 -0.2760 -0.3565
 3295TIP3    H2 9850   6.696   1.982   2.054  0.6859  1.2582 -0.3894
 3296TIP3   OH2 9851   1.040   0.787   2.494  0.3070  0.5353 -0.1935
 3296TIP3    H1 9852   1.092   0.734   2.433 -1.1374 -0.9478 -0.1971
 3296TIP3    H2 9853   1.087   0.780   2.577  0.8607  0.3739 -0.5098
 3297TIP3   OH2 9854   6.882   6.544   3.542 -0.5349  0.1869  0.4277
 3297TIP3    H1 9855   6.904   6.636   3.554 -0.6784 -0.0200  2.6853
 3297TIP3    H2 9856   6.788   6.544   3.523 -0.1745  0.5719 -1.6904
 3298TIP3   OH2 9857   0.568   5.332   4.168  0.1086 -0.0496 -0.5929
 3298TIP3    H1 9858   0.542   5.362   4.254  0.6444  1.0936 -0.8159
 3298TIP3    H2 9859   0.513   5.380   4.107  0.3855 -0.1487 -0.9278
 3299TIP3   OH2 9860   0.543   0.640   5.386 -0.1041  0.9173  0.6094
 3299TIP3    H1 9861   0.491   0.670   5.311  0.6624 -0.5685 -0.5895
 3299TIP3    H2 9862   0.489   0.659   5.462 -2.3053 -0.2666 -0.5494
 3300TIP3   OH2 9863   5.389   0.720   3.017 -0.2561 -0.7291 -0.3964
 3300TIP3    H1 9864   5.330   0.662   3.064 -0.4746 -0.9714 -0.9572
 3300TIP3    H2 9865   5.418   0.669   2.941  1.7737 -1.1272  0.5743
 3301TIP3   OH2 9866   4.012   4.566   0.692 -0.3343  0.1128  0.1171
 3301TIP3    H1 9867   4.027   4.614   0.611  1.8625 -0.6645  0.0038
 3301TIP3    H2 9868   4.023   4.474   0.668  1.3946 -0.0716  1.4680
 3302TIP3   OH2 9869   2.676   0.649   1.667 -0.1488 -0.2837 -0.1583
 3302TIP3    H1 9870   2.723   0.684   1.590 -0.4225  1.2897  0.3555
 3302TIP3    H2 9871   2.601   0.603   1.630 -0.1393  0.2430 -0.8522
 3303TIP3   OH2 9872   0.832   1.085   1.064  0.1720 -0.0986 -0.4658
 3303TIP3    H1 9873   0.741   1.058   1.055 -0.0571  0.7541 -0.7941
 3303TIP3    H2 9874   0.836   1.171   1.021  1.1282 -0.1323 -0.4661
 3304TIP3   OH2 9875   6.996   2.540   2.570 -0.3497 -0.6176  0.1934
 3304TIP3    H1 9876   6.941   2.461   2.571 -4.4949  1.9312  2.1409
 3304TIP3    H2 9877   6.950   2.600   2.511  1.1397  1.2417  0.8233
 3305TIP3   OH2 9878   4.579   2.576   0.993  0.6354  0.6716  0.2873
 3305TIP3    H1 9879   4.531   2.570   1.076  0.4330  0.5395  0.1623
 3305TIP3    H2 9880   4.533   2.515   0.935  2.0629 -0.8683  0.7022
 3306TIP3   OH2 9881   4.355   1.639   2.177  0.5065  0.0945 -0.0067
 3306TIP3    H1 9882   4.342   1.715   2.121  0.2462 -0.0131 -0.0921
 3306TIP3    H2 9883   4.370   1.567   2.116 -2.8047 -0.6548 -0.1027
 3307TIP3   OH2 9884   0.004   5.053   4.448 -0.2925  0.0706  0.4128
 3307TIP3    H1 9885   0.037   5.087   4.531  0.6977 -0.5681  0.2970
 3307TIP3    H2 9886   0.064   5.088   4.382 -0.5499 -0.1408  0.0626
 3308TIP3   OH2 9887   1.930   5.733   1.816  0.4847 -0.0320  0.0615
 3308TIP3    H1 9888   1.853   5.683   1.844  0.3212 -1.0269 -1.9932
 3308TIP3    H2 9889   2.004   5.680   1.845  0.4351  0.6921  1.6193
 3309TIP3   OH2 9890   5.325   2.627   1.205 -0.2254  0.2924  0.1684
 3309TIP3    H1 9891   5.334   2.652   1.297  0.6479 -0.6978  0.3710
 3309TIP3    H2 9892   5.378   2.691   1.157 -0.7872  0.8855  0.3382
 3310TIP3   OH2 9893   3.071   0.234   2.829 -0.2722 -0.0885  0.0929
 3310TIP3    H1 9894   3.140   0.168   2.829 -0.1143  0.0733  0.7328
 3310TIP3    H2 9895   2.991   0.183   2.845 -0.3515 -0.3158 -0.9656
 3311TIP3   OH2 9896   6.468   1.463   5.098  0.2573  0.0974  0.3812
 3311TIP3    H1 9897   6.413   1.534   5.132  1.4215  1.4525 -0.4289
 3311TIP3    H2 9898   6.501   1.419   5.176 -0.1724  0.7142  0.9244
 3312TIP3   OH2 9899   6.341   3.431   4.631  0.4869  0.0338 -0.0140
 3312TIP3    H1 9900   6.386   3.439   4.715  1.0391  0.3429 -0.3273
 3312TIP3    H2 9901   6.327   3.337   4.620  0.3043  0.0010  0.4743
 3313TIP3   OH2 9902   3.504   3.393   2.633  0.6409  0.2067  0.3247
 3313TIP3    H1 9903   3.534   3.481   2.652  2.3883 -0.3851  0.5093
 3313TIP3    H2 9904   3.584   3.343   2.616 -0.2421 -1.4854  0.8273
 3314TIP3   OH2 9905   2.046   6.733   1.179 -0.1155 -0.2262  0.1758
 3314TIP3    H1 9906   2.007   6.775   1.255  0.3962  0.7358 -0.0825
 3314TIP3    H2 9907   2.066   6.644   1.209  0.4674  0.2646  1.3116
 3315TIP3   OH2 9908   5.492   0.588   4.189  0.2774 -0.0955 -0.3254
 3315TIP3    H1 9909   5.409   0.630   4.164  1.0751  0.9903 -1.2480
 3315TIP3    H2 9910   5.527   0.554   4.107  0.3554 -1.3126  0.1940
 3316TIP3   OH2 9911   1.631   5.208   2.203 -0.0674 -0.5553 -0.0914
 3316TIP3    H1 9912   1.719   5.231   2.172  1.2197 -0.0956  3.4376
 3316TIP3    H2 9913   1.585   5.292   2.209  0.0261 -0.5187  0.1351
 3317TIP3   OH2 9914   0.291   2.125   5.819 -0.1002  0.7595  0.2421
 3317TIP3    H1 9915   0.214   2.175   5.845 -0.9883  0.8085 -2.2114
 3317TIP3    H2 9916   0.366   2.177   5.850 -0.9990  0.9075  2.3097
 3318TIP3   OH2 9917   5.944   6.141   2.782 -0.2831 -0.5995  0.1056
 3318TIP3    H1 9918   5.888   6.194   2.839 -1.0673 -0.5687 -0.6789
 3318TIP3    H2 9919   6.028   6.138   2.827 -0.1130  1.5931 -0.0017
 3319TIP3   OH2 9920   0.456   1.602   2.736 -0.2628  0.3807 -0.3000
 3319TIP3    H1 9921   0.391   1.593   2.806 -0.7289 -0.6796 -0.8469
 3319TIP3    H2 9922   0.510   1.523   2.743  0.0625  0.5605 -0.7650
 3320TIP3   OH2 9923   6.390   2.679   2.265  0.5165 -0.1829  0.7307
 3320TIP3    H1 9924   6.297   2.681   2.290  0.6990  1.3720  1.4208
 3320TIP3    H2 9925   6.410   2.586   2.257 -0.6438 -0.6394  2.4272
 3321TIP3   OH2 9926   4.019   5.054   4.850 -0.0832 -0.4578 -0.6209
 3321TIP3    H1 9927   4.044   5.090   4.765  2.6394  1.6307  0.9244
 3321TIP3    H2 9928   3.942   5.104   4.876  0.1626  0.1691 -1.0820
 3322TIP3   OH2 9929   0.455   5.934   1.039  0.7903  0.1228  0.2941
 3322TIP3    H1 9930   0.433   5.934   1.132 -0.3255 -1.2618  0.0567
 3322TIP3    H2 9931   0.371   5.946   0.994  1.1207 -0.6310 -0.5539
 3323TIP3   OH2 9932   5.843   2.377   0.285 -0.0145  0.5177  0.5836
 3323TIP3    H1 9933   5.789   2.401   0.210  0.3890 -0.9435 -0.2175
 3323TIP3    H2 9934   5.924   2.427   0.274 -0.3158  0.9987  0.5480
 3324TIP3   OH2 9935   5.265   2.002   5.173  0.2925  0.0484  0.0738
 3324TIP3    H1 9936   5.272   1.936   5.243  0.6686 -0.8726 -0.8041
 3324TIP3    H2 9937   5.325   2.071   5.200 -2.4810  1.7074  2.6947
 3325TIP3   OH2 9938   5.290   3.647   5.165  0.2503 -0.1178 -0.5449
 3325TIP3    H1 9939   5.339   3.708   5.109  1.5967 -0.9760 -0.3424
 3325TIP3    H2 9940   5.252   3.703   5.233  2.2182  0.4285  0.1738
 3326TIP3   OH2 9941   2.466   3.668   2.243  0.2967 -0.2867  0.0993
 3326TIP3    H1 9942   2.551   3.713   2.251  0.2525 -0.0512 -0.6607
 3326TIP3    H2 9943   2.465   3.635   2.153 -1.1884  1.3078 -0.5181
 3327TIP3   OH2 9944   4.426   3.471   2.604 -0.2651  0.0229  0.1081
 3327TIP3    H1 9945   4.509   3.432   2.577 -1.0960 -1.4291 -0.4878
 3327TIP3    H2 9946   4.414   3.444   2.695  0.7872  1.8507  0.8472
 3328TIP3   OH2 9947   0.671   4.500   1.942 -0.2257  0.1504  0.1533
 3328TIP3    H1 9948   0.665   4.471   2.033 -1.4647  1.0629  0.3910
 3328TIP3    H2 9949   0.584   4.483   1.906  0.2109 -0.0554 -0.8186
 3329TIP3   OH2 9950   0.928   0.211   3.740 -0.3645  0.1301 -0.2640
 3329TIP3    H1 9951   1.023   0.201   3.734 -0.0733  1.8068  0.8012
 3329TIP3    H2 9952   0.901   0.239   3.653  0.1789  0.0354 -0.4666
 3330TIP3   OH2 9953   7.140   5.726   0.553  0.2204 -0.1004 -0.4027
 3330TIP3    H1 9954   7.058   5.681   0.532 -0.0834 -0.0442  0.5819
 3330TIP3    H2 9955   7.112   5.815   0.576  0.3422 -0.5041  1.4834
 3331TIP3   OH2 9956   5.740   4.494   3.029 -0.1445  0.1225  0.1838
 3331TIP3    H1 9957   5.736   4.417   3.085 -0.3757  0.2510  0.3441
 3331TIP3    H2 9958   5.832   4.522   3.034 -0.5267  1.2135  1.9760
 3332TIP3   OH2 9959   0.782   2.359   5.452 -0.5065  0.2970  0.1596
 3332TIP3    H1 9960   0.720   2.430   5.436 -1.7462 -1.0850 -1.5806
 3332TIP3    H2 9961   0.837   2.358   5.373 -1.0569 -1.1604 -0.2363
 3333TIP3   OH2 9962   5.837   3.001   2.261 -0.0292 -0.1496 -0.0602
 3333TIP3    H1 9963   5.832   2.911   2.293 -0.7757  0.0742  0.4955
 3333TIP3    H2 9964   5.745   3.029   2.255  0.1346  0.1692 -1.4252
 3334TIP3   OH2 9965   4.310   3.358   1.820  0.2119 -0.6426  0.3143
 3334TIP3    H1 9966   4.378   3.298   1.851 -1.0171 -0.9060  2.7150
 3334TIP3    H2 9967   4.352   3.444   1.820  1.1605 -1.0826 -0.4105
 3335TIP3   OH2 9968   1.102   6.229   2.636  0.0543  0.5275 -0.0342
 3335TIP3    H1 9969   1.149   6.160   2.589  1.8505  0.2267  2.0225
 3335TIP3    H2 9970   1.036   6.182   2.687  0.3191  0.4572  0.2525
 3336TIP3   OH2 9971   0.497   3.783   0.201 -0.2658 -0.3503  0.2264
 3336TIP3    H1 9972   0.425   3.722   0.190 -0.7206 -0.2730  2.3695
 3336TIP3    H2 9973   0.456   3.869   0.207  0.0439 -0.2389  0.8503
 3337TIP3   OH2 9974   4.041   3.129   2.470  0.4374 -0.1427  0.2478
 3337TIP3    H1 9975   4.087   3.052   2.502  2.4257  0.8561 -0.0580
 3337TIP3    H2 9976   4.033   3.186   2.546  2.1021  0.7866 -0.2367
 3338TIP3   OH2 9977   1.791   1.620   0.868  0.1275  0.0594 -0.8116
 3338TIP3    H1 9978   1.817   1.695   0.921 -3.3648  0.4681  0.6123
 3338TIP3    H2 9979   1.715   1.651   0.818  0.8727 -1.5053 -3.0657
 3339TIP3   OH2 9980   6.993   4.010   0.749 -0.2472  0.6068 -0.0873
 3339TIP3    H1 9981   7.001   4.000   0.844 -1.5904 -0.3871 -0.0514
 3339TIP3    H2 9982   6.900   4.000   0.732  0.1598 -0.7945 -1.6849
 3340TIP3   OH2 9983   1.915   4.239   5.616  0.9514  0.1436  0.1469
 3340TIP3    H1 9984   1.950   4.326   5.597  0.3947  0.0792 -1.2731
 3340TIP3    H2 9985   1.962   4.180   5.556 -0.3363 -0.1808 -0.5773
 3341TIP3   OH2 9986   0.097   4.425   2.670  0.0062  0.0302 -0.0031
 3341TIP3    H1 9987   0.079   4.404   2.761 -0.2605  1.8070  0.3931
 3341TIP3    H2 9988   0.193   4.427   2.664  0.0325 -0.6782  0.0702
 3342TIP3   OH2 9989   7.137   6.600   4.592 -0.0492  0.1065  0.3876
 3342TIP3    H1 9990   7.216   6.594   4.538  0.3855  0.2886  0.9904
 3342TIP3    H2 9991   7.135   6.691   4.622 -0.6626  0.1874  0.1295
 3343TIP3   OH2 9992   4.460   5.040   2.283 -0.7467  0.7177 -0.3680
 3343TIP3    H1 9993   4.511   4.985   2.342 -0.7787  0.7856 -0.2768
 3343TIP3    H2 9994   4.400   5.087   2.341 -1.5283 -0.0204 -0.5601
 3344TIP3   OH2 9995   4.741   3.254   4.098 -0.0679 -0.4553 -0.5317
 3344TIP3    H1 9996   4.681   3.182   4.116 -0.8556  0.4344  0.5784
 3344TIP3    H2 9997   4.748   3.256   4.003 -1.8084 -0.6113 -0.7027
 3345TIP3   OH2 9998   2.662   6.535   2.139  0.0322  0.7585  0.1403
 3345TIP3    H1 9999   2.601   6.462   2.132 -0.9794  1.6219 -0.2523
 3345TIP3    H210000   2.722   6.509   2.209 -0.3124 -0.4353  0.0173
 3346TIP3   OH210001   4.137   5.968   2.547  0.4125 -0.8288  0.7800
 3346TIP3    H110002   4.148   6.001   2.636 -0.8543 -0.1896  0.7272
 3346TIP3    H210003   4.216   5.996   2.501  1.2284 -1.4278  1.7575
 3347TIP3   OH210004   1.242   4.955   2.409  0.1119 -0.2447  0.1715
 3347TIP3    H110005   1.291   4.977   2.330 -2.5848  2.5872 -0.9427
 3347TIP3    H210006   1.263   5.025   2.471  0.1244 -0.9359  0.9700
 3348TIP3   OH210007   6.237   2.738   4.728  0.7006 -0.1815 -0.3232
 3348TIP3    H110008   6.186   2.712   4.804  0.0026  1.5491 -0.1492
 3348TIP3    H210009   6.328   2.725   4.753  0.5118  1.0394  1.0972
 3349TIP3   OH210010   2.832   2.731   3.770 -0.4305  0.3655 -0.1289
 3349TIP3    H110011   2.768   2.753   3.702  0.0301  0.2540 -0.6105
 3349TIP3    H210012   2.825   2.636   3.778  0.1479  0.2722 -0.6716
 3350TIP3   OH210013   1.517   0.209   0.904 -0.0066  0.3657 -0.1480
 3350TIP3    H110014   1.451   0.278   0.898  0.4547  0.8112 -0.1912
 3350TIP3    H210015   1.585   0.246   0.961  0.1078 -0.1691  0.0712
 3351TIP3   OH210016   0.079   5.140   3.731  0.0334  0.1139 -0.3488
 3351TIP3    H110017   0.150   5.203   3.720  0.1033 -0.1288 -1.5271
 3351TIP3    H210018   0.034   5.166   3.811  0.6111  1.1128 -0.3409
 3352TIP3   OH210019   3.301   4.017   3.883  0.4163 -0.0906 -0.0361
 3352TIP3    H110020   3.368   4.027   3.816 -0.1327  2.0393 -0.3376
 3352TIP3    H210021   3.346   3.976   3.957  0.9075 -3.0324 -1.7977
 3353TIP3   OH210022   6.819   4.002   5.062  0.1218 -0.3134  0.4813
 3353TIP3    H110023   6.727   4.027   5.054  0.6197  1.4705 -0.0620
 3353TIP3    H210024   6.867   4.085   5.061  1.9279 -1.2932 -1.8583
 3354TIP3   OH210025   0.262   3.914   1.579  0.2317  0.0477 -0.5536
 3354TIP3    H110026   0.264   3.841   1.518  0.2763  0.0629 -0.5708
 3354TIP3    H210027   0.186   3.965   1.553 -2.3007 -2.1178  1.9762
 3355TIP3   OH210028   7.206   6.314   4.273 -0.3625  1.2762  0.1524
 3355TIP3    H110029   7.167   6.400   4.287  1.8211  2.4271 -0.2732
 3355TIP3    H210030   7.252   6.322   4.189 -0.2706 -0.3764  0.0115
 3356TIP3   OH210031   4.474   0.752   3.721  0.2066 -0.1137 -0.1489
 3356TIP3    H110032   4.385   0.717   3.719 -0.6200  1.8043  0.4876
 3356TIP3    H210033   4.530   0.676   3.708 -1.4739 -1.5901  0.7566
 3357TIP3   OH210034   2.106   5.016   0.513 -0.1247 -0.0324 -0.4463
 3357TIP3    H110035   2.067   5.098   0.483  0.7645  0.2283 -0.9303
 3357TIP3    H210036   2.192   5.013   0.470 -0.4038 -1.5448 -0.9795
 3358TIP3   OH210037   4.744   0.028   4.147 -0.0431  0.0609  0.4452
 3358TIP3    H110038   4.818   0.066   4.194  2.1174 -1.1492 -1.6899
 3358TIP3    H210039   4.739  -0.063   4.178  1.5308 -0.8088 -1.5858
 3359TIP3   OH210040   6.267   0.143   1.511  0.3747  0.2317  0.3683
 3359TIP3    H110041   6.261   0.081   1.439 -0.5219  0.7249  0.0072
 3359TIP3    H210042   6.346   0.118   1.558 -0.7976 -2.2398  1.1966
 3360TIP3   OH210043   0.249   2.506   4.661 -0.1526  0.0419  0.4672
 3360TIP3    H110044   0.156   2.503   4.681  0.1136 -0.3367  1.7446
 3360TIP3    H210045   0.258   2.458   4.578 -0.8878 -1.4157  1.1893
 3361TIP3   OH210046   4.587   1.094   4.442 -0.1193 -0.1823 -0.8569
 3361TIP3    H110047   4.561   1.157   4.376 -0.9066 -0.2115 -0.5921
 3361TIP3    H210048   4.532   1.017   4.425  0.0263 -0.3739 -0.4812
 3362TIP3   OH210049   5.276   2.893   1.486  0.1398 -0.3342  0.0044
 3362TIP3    H110050   5.276   2.983   1.521  0.7496 -0.3655  0.0976
 3362TIP3    H210051   5.207   2.893   1.420 -0.6733 -0.1239  0.8265
 3363TIP3   OH210052   0.200   3.888   5.509 -0.1409 -0.1445  0.0608
 3363TIP3    H110053   0.183   3.950   5.579  0.7783 -0.3690  0.5024
 3363TIP3    H210054   0.263   3.932   5.452 -0.6979 -0.0582 -0.4964
 3364TIP3   OH210055   2.965   6.413   0.915  0.2274 -0.0443  0.3748
 3364TIP3    H110056   2.933   6.447   0.998 -0.4553  0.7022 -0.1894
 3364TIP3    H210057   2.972   6.489   0.858 -0.8100 -0.7410 -0.7375
 3365TIP3   OH210058   3.669   3.929   4.667 -0.3104  0.2531 -0.1616
 3365TIP3    H110059   3.674   3.930   4.763  0.4024 -1.8289 -0.1274
 3365TIP3    H210060   3.601   3.865   4.646  1.9381 -2.0649 -0.9840
 3366TIP3   OH210061   4.172   2.462   3.821  0.4451 -0.1481 -0.1998
 3366TIP3    H110062   4.124   2.459   3.739  1.5196  0.4903 -0.8663
 3366TIP3    H210063   4.183   2.555   3.840  0.5275 -0.2877  0.4857
 3367TIP3   OH210064   5.876   3.619   0.189 -0.1870  0.5392  0.0975
 3367TIP3    H110065   5.824   3.679   0.243 -0.6850  0.8508 -0.6990
 3367TIP3    H210066   5.967   3.643   0.207 -0.3727  1.3474  0.0096
 3368TIP3   OH210067   5.357   4.136   0.561 -0.2392 -0.0940  0.2105
 3368TIP3    H110068   5.369   4.231   0.557 -0.2977 -0.0581  0.8197
 3368TIP3    H210069   5.418   4.107   0.628 -0.2581 -0.4865  0.0600
 3369TIP3   OH210070   5.566   1.832   1.254  0.0180  0.4595  0.0801
 3369TIP3    H110071   5.523   1.876   1.328 -1.7950  0.1642 -0.7254
 3369TIP3    H210072   5.501   1.836   1.184  1.7816  0.9343 -1.5840
 3370TIP3   OH210073   0.440   3.190   4.355  0.3867 -0.6107  0.7464
 3370TIP3    H110074   0.440   3.286   4.354 -0.9747 -0.5958 -0.3146
 3370TIP3    H210075   0.522   3.166   4.311 -0.2108  0.0987 -0.8107
 3371TIP3   OH210076   1.264   2.800   4.146 -0.0637  0.1031  0.2037
 3371TIP3    H110077   1.357   2.782   4.133 -0.0553  0.1824  0.1527
 3371TIP3    H210078   1.253   2.803   4.241 -0.0335 -0.0065  0.2107
 3372TIP3   OH210079   3.848   1.197   4.317  0.3182 -0.2237 -0.6283
 3372TIP3    H110080   3.844   1.260   4.388 -0.2441 -0.6867 -0.2478
 3372TIP3    H210081   3.939   1.202   4.287  0.3937  0.4453 -0.3191
 3373TIP3   OH210082   6.183   4.418   3.638 -0.7331  0.2444 -0.0823
 3373TIP3    H110083   6.105   4.473   3.646 -0.3825  0.7291  0.0554
 3373TIP3    H210084   6.199   4.413   3.544 -1.9933 -1.3922 -0.2638
 3374TIP3   OH210085   6.826   3.539   1.032  0.2876  0.4944  0.2461
 3374TIP3    H110086   6.799   3.630   1.045  0.3624  0.3441  1.6873
 3374TIP3    H210087   6.851   3.534   0.940 -1.0998  1.5528 -0.2291
 3375TIP3   OH210088   0.647   1.683   1.955  0.5809 -0.2919  0.4249
 3375TIP3    H110089   0.565   1.708   1.999  0.6179  0.3251  0.1584
 3375TIP3    H210090   0.716   1.716   2.013  0.6762 -1.9298  1.2964
 3376TIP3   OH210091   4.217   2.397   2.428  0.1259  0.0489  0.3155
 3376TIP3    H110092   4.242   2.307   2.449 -0.2376  0.0174  0.6167
 3376TIP3    H210093   4.131   2.408   2.467 -1.1134 -0.3715 -2.1091
 3377TIP3   OH210094   0.523   3.103   0.170 -0.3135  0.1240  0.1458
 3377TIP3    H110095   0.436   3.064   0.185 -0.7900 -0.2345 -2.9273
 3377TIP3    H210096   0.583   3.029   0.173 -0.2968  0.1540  0.7602
 3378TIP3   OH210097   6.362   0.574   3.603  0.0949 -0.0770 -0.0595
 3378TIP3    H110098   6.343   0.658   3.561  1.4718  0.1901 -0.1831
 3378TIP3    H210099   6.313   0.510   3.551 -1.3866  0.6653  0.3433
 3379TIP3   OH210100   3.626   4.993   2.947  0.5142 -0.3660 -0.4730
 3379TIP3    H110101   3.639   5.085   2.970  0.4494 -0.6927  1.0156
 3379TIP3    H210102   3.545   4.991   2.896 -1.1374  0.1202  1.9309
 3380TIP3   OH210103   4.969   5.955   4.863 -0.0871 -0.1403  0.4491
 3380TIP3    H110104   4.956   5.880   4.921 -0.6254 -0.2586  0.1840
 3380TIP3    H210105   5.043   6.002   4.901  0.1776 -0.7367  0.6854
 3381TIP3   OH210106   4.026   5.943   4.483 -0.4808 -0.3800 -0.3754
 3381TIP3    H110107   4.015   5.848   4.482  1.2856 -0.6522  0.5612
 3381TIP3    H210108   3.965   5.973   4.550 -0.1264 -1.0329  0.2635
 3382TIP3   OH210109   1.360   1.156   0.165  0.7782  0.6566  0.2457
 3382TIP3    H110110   1.431   1.114   0.213 -0.4570  0.8091  2.3653
 3382TIP3    H210111   1.345   1.238   0.213 -0.0766  1.1691 -0.8581
 3383TIP3   OH210112   0.264   4.803   0.515 -0.8649  0.4804 -0.8386
 3383TIP3    H110113   0.301   4.730   0.565 -1.2253  1.1735  0.4675
 3383TIP3    H210114   0.243   4.765   0.430 -1.1420 -0.9779 -0.1480
 3384TIP3   OH210115   5.695   4.220   2.180  0.2546 -0.0158  0.0009
 3384TIP3    H110116   5.614   4.220   2.232 -0.3201 -0.9417 -0.8431
 3384TIP3    H210117   5.667   4.248   2.093  0.9782  0.2986 -0.1402
 3385TIP3   OH210118   0.819   5.832   2.602  0.1682  0.2892 -0.1817
 3385TIP3    H110119   0.789   5.745   2.576  1.6697  0.4786 -2.9056
 3385TIP3    H210120   0.823   5.882   2.520  1.2902  2.3150  1.0166
 3386TIP3   OH210121   1.056   0.991   0.611  0.5861 -0.7522  0.0261
 3386TIP3    H110122   1.105   0.964   0.533  1.9787 -0.3044  0.7087
 3386TIP3    H210123   1.116   0.974   0.684 -0.6285 -1.0138  1.0062
 3387TIP3   OH210124   5.667   5.616   1.534  0.1287 -0.4547  0.2150
 3387TIP3    H110125   5.605   5.650   1.469  0.0097 -0.1236  0.5001
 3387TIP3    H210126   5.721   5.554   1.485 -0.6461 -1.0036  0.0357
 3388TIP3   OH210127   4.939   4.939   0.422  0.1054  0.0388 -0.0464
 3388TIP3    H110128   4.905   5.025   0.397  1.3070  1.3229  2.3802
 3388TIP3    H210129   4.868   4.899   0.472  0.7296  1.1365  1.7966
 3389TIP3   OH210130   6.084   2.231   2.645 -0.2124 -0.1144  0.7474
 3389TIP3    H110131   6.170   2.254   2.682  0.7257 -1.5192 -0.4409
 3389TIP3    H210132   6.039   2.315   2.637  1.2051  0.7206  1.0198
 3390TIP3   OH210133   1.823   3.336   5.089  0.2797  1.0336 -0.3034
 3390TIP3    H110134   1.773   3.260   5.117  0.9466  1.1735  1.3588
 3390TIP3    H210135   1.879   3.358   5.163  3.2457  0.5550 -2.2047
 3391TIP3   OH210136   4.322   4.772   4.082  0.3241  0.2388 -0.3018
 3391TIP3    H110137   4.269   4.692   4.083  1.3131 -0.4389  0.4166
 3391TIP3    H210138   4.344   4.786   3.990 -1.2690  0.6739 -0.6444
 3392TIP3   OH210139   3.017   5.283   3.303  0.2096 -0.0335 -0.4242
 3392TIP3    H110140   2.926   5.275   3.274  0.1132  1.6651 -0.6655
 3392TIP3    H210141   3.027   5.215   3.369 -1.0748 -0.5998 -0.7865
 3393TIP3   OH210142   5.483   0.324   1.787 -0.3176 -0.1504  0.3270
 3393TIP3    H110143   5.410   0.346   1.845 -1.0784  0.3181 -0.7620
 3393TIP3    H210144   5.462   0.368   1.704  1.7573  0.9138  0.2964
 3394TIP3   OH210145   6.162   3.718   2.260 -0.0974  0.0592  0.2836
 3394TIP3    H110146   6.103   3.737   2.333 -2.4134  0.1680 -1.5049
 3394TIP3    H210147   6.151   3.792   2.200  2.9629  0.7888  0.4401
 3395TIP3   OH210148   3.696   3.472   1.290  0.8221  0.3844  0.4379
 3395TIP3    H110149   3.632   3.506   1.352  1.9493  2.0670  0.7667
 3395TIP3    H210150   3.762   3.430   1.346  0.2345 -0.9957  0.1289
 3396TIP3   OH210151   1.493   1.422   1.798 -0.6171  0.3545 -0.1507
 3396TIP3    H110152   1.490   1.418   1.894 -0.4893 -0.6058 -0.1790
 3396TIP3    H210153   1.565   1.482   1.779  1.6315 -1.9908  0.3673
 3397TIP3   OH210154   2.160   4.161   3.000  0.4289 -0.1240 -0.0063
 3397TIP3    H110155   2.121   4.119   2.924  1.2771 -0.2546 -0.3813
 3397TIP3    H210156   2.171   4.090   3.064  1.1213 -0.3294 -0.3412
 3398TIP3   OH210157   4.907   6.076   1.483 -0.1530  0.0161 -0.1581
 3398TIP3    H110158   4.993   6.103   1.515 -0.3276 -1.2078  1.4949
 3398TIP3    H210159   4.894   6.126   1.402  1.4095  1.4131  0.4033
 3399TIP3   OH210160   4.957   3.372   4.239 -0.2873 -0.5326 -0.0638
 3399TIP3    H110161   4.880   3.320   4.216 -0.1062 -1.8335  1.9978
 3399TIP3    H210162   5.023   3.307   4.262  1.5303  0.5505 -1.8803
 3400TIP3   OH210163   5.879   2.053   5.789  0.1330 -0.1084 -0.4970
 3400TIP3    H110164   5.911   1.971   5.826 -1.5812 -0.9288 -0.7366
 3400TIP3    H210165   5.829   2.027   5.712 -1.1791  1.0655 -0.0850
 3401TIP3   OH210166   2.192   1.028   0.798 -0.1448  0.2817  0.0825
 3401TIP3    H110167   2.197   1.116   0.759 -1.4802 -0.3786 -1.7289
 3401TIP3    H210168   2.265   1.025   0.860 -1.4709  3.5365  2.1014
 3402TIP3   OH210169   3.460   5.004   2.093  0.0444 -0.0415  0.4237
 3402TIP3    H110170   3.555   5.007   2.100 -0.1001  1.7150  3.3753
 3402TIP3    H210171   3.433   5.095   2.092 -1.6614 -0.5043 -0.4675
 3403TIP3   OH210172   3.639   2.103   2.654  0.0547 -0.1435  0.3546
 3403TIP3    H110173   3.593   2.052   2.721 -0.6217  0.1268  0.0995
 3403TIP3    H210174   3.731   2.074   2.661 -0.1710 -0.7785  0.7802
 3404TIP3   OH210175   3.476   0.588   1.590  0.5907  0.2510 -0.1793
 3404TIP3    H110176   3.562   0.562   1.622 -0.8151 -2.1712  1.9760
 3404TIP3    H210177   3.433   0.628   1.665 -0.2045  1.4838 -1.2422
 3405TIP3   OH210178   6.258   4.783   2.066  0.0314  0.2131  0.4939
 3405TIP3    H110179   6.187   4.730   2.029  0.3572  0.0700  0.0651
 3405TIP3    H210180   6.317   4.799   1.992 -0.6105  2.1305  0.3518
 3406TIP3   OH210181   1.040   3.857   1.845  0.0719  0.1534  0.1274
 3406TIP3    H110182   0.960   3.851   1.793 -0.5440  0.5256  1.0221
 3406TIP3    H210183   1.038   3.945   1.883  1.6498  0.7390 -1.0001
 3407TIP3   OH210184   4.858   5.118   1.991  0.3149 -0.7213 -0.3349
 3407TIP3    H110185   4.878   5.183   1.923 -1.2252  1.4711  1.1744
 3407TIP3    H210186   4.867   5.166   2.073  0.8420 -2.9583  0.9887
 3408TIP3   OH210187   5.878   4.456   0.678 -0.6338  0.0857  0.2410
 3408TIP3    H110188   5.803   4.399   0.660 -0.7520 -0.3281  1.9073
 3408TIP3    H210189   5.853   4.505   0.756  0.8989 -0.2148  0.9557
 3409TIP3   OH210190   3.035   1.804   0.657 -0.4450  0.5543  0.0540
 3409TIP3    H110191   3.043   1.883   0.711  0.7446 -0.1904  1.0169
 3409TIP3    H210192   2.946   1.774   0.672 -0.6420  1.2593  0.3356
 3410TIP3   OH210193   1.787   4.342   4.465  0.2756 -0.5048 -0.2673
 3410TIP3    H110194   1.797   4.254   4.428  0.7056 -0.4447 -0.2976
 3410TIP3    H210195   1.701   4.341   4.506  1.1551 -1.6726  1.6807
 3411TIP3   OH210196   2.564   6.451   1.197  0.1461 -0.2366 -0.0870
 3411TIP3    H110197   2.549   6.381   1.133  0.3283 -0.8345  0.5077
 3411TIP3    H210198   2.477   6.467   1.235 -0.3512  1.5155 -1.8616
 3412TIP3   OH210199   2.210   4.454   5.795 -0.4136  0.0680 -0.3737
 3412TIP3    H110200   2.132   4.407   5.825 -0.3788  0.4678  0.3719
 3412TIP3    H210201   2.273   4.445   5.867 -0.2509  0.8719 -0.3981
 3413TIP3   OH210202   2.580   1.069   4.250  0.2245  0.7202 -0.3228
 3413TIP3    H110203   2.613   1.120   4.177 -0.0121 -0.1153 -1.0250
 3413TIP3    H210204   2.658   1.034   4.292  0.3884  1.6203  0.1550
 3414TIP3   OH210205   5.074   1.103   3.617  0.2884 -0.1485  0.3180
 3414TIP3    H110206   5.105   1.140   3.535 -2.6235  1.1507 -0.3225
 3414TIP3    H210207   5.052   1.012   3.596  1.3472 -0.4057  0.2250
 3415TIP3   OH210208   3.536   0.262   5.307  0.4747  0.1860 -0.0335
 3415TIP3    H110209   3.520   0.170   5.284  2.4468  0.0388 -0.9948
 3415TIP3    H210210   3.557   0.260   5.400 -0.2681 -0.2067  0.1406
 3416TIP3   OH210211   5.868   1.466   2.362 -0.2439  0.4776  0.1541
 3416TIP3    H110212   5.819   1.526   2.418 -0.3751 -0.6022  1.2354
 3416TIP3    H210213   5.888   1.392   2.419  0.6384 -0.1274 -0.9236
 3417TIP3   OH210214   2.608   4.206   2.463 -0.1793  0.2205 -0.0582
 3417TIP3    H110215   2.671   4.135   2.453 -0.7616 -0.2610 -0.3749
 3417TIP3    H210216   2.523   4.161   2.472 -0.4422  0.8411  0.6814
 3418TIP3   OH210217   6.299   0.823   5.525 -0.6208 -0.3171 -0.7098
 3418TIP3    H110218   6.286   0.789   5.436  0.1190 -2.0183 -0.2303
 3418TIP3    H210219   6.237   0.774   5.579  1.7088 -2.4368  0.2876
 3419TIP3   OH210220   4.659   3.165   1.524  0.0319 -0.2399 -0.5814
 3419TIP3    H110221   4.694   3.232   1.465  0.4965  0.6114  0.6427
 3419TIP3    H210222   4.711   3.173   1.604 -1.4915 -0.4614  0.4630
 3420TIP3   OH210223   1.195   5.209   5.793 -0.2416  0.4872  0.0099
 3420TIP3    H110224   1.134   5.267   5.838 -2.5861 -0.7624 -1.3689
 3420TIP3    H210225   1.250   5.268   5.740 -0.3376  1.6223  1.1183
 3421TIP3   OH210226   5.819   1.097   0.213  0.5734 -0.6891  0.2475
 3421TIP3    H110227   5.773   1.175   0.244 -0.0886 -0.8325 -0.3454
 3421TIP3    H210228   5.887   1.130   0.155 -0.6301 -0.5971 -1.1713
 3422TIP3   OH210229   0.920   1.904   5.018  0.7218 -0.5854 -0.0936
 3422TIP3    H110230   0.825   1.911   5.022  0.7478  1.1968 -1.3309
 3422TIP3    H210231   0.940   1.818   5.055 -1.2429 -0.3719  1.6124
 3423TIP3   OH210232   2.196   6.510   0.461  0.5657  0.3670  0.0817
 3423TIP3    H110233   2.166   6.599   0.480 -0.8714  0.2689 -1.4552
 3423TIP3    H210234   2.188   6.463   0.543 -2.0365  0.7900  0.1484
 3424TIP3   OH210235   6.957   0.552   3.468  0.1773 -0.4100 -0.5286
 3424TIP3    H110236   6.975   0.500   3.390 -1.9667 -0.3979 -1.0744
 3424TIP3    H210237   7.000   0.636   3.451 -0.9342 -0.1193 -2.0769
 3425TIP3   OH210238   3.089   2.729   0.748  0.7272  0.2729 -0.1100
 3425TIP3    H110239   3.055   2.676   0.820 -0.4590  1.7206  0.4617
 3425TIP3    H210240   3.025   2.800   0.739  1.2179  0.5123 -2.1492
 3426TIP3   OH210241   0.284   5.195   2.552 -0.5019 -0.2825  0.1724
 3426TIP3    H110242   0.284   5.198   2.648  2.5702  1.3674  0.2650
 3426TIP3    H210243   0.278   5.287   2.526 -0.2765 -0.6350 -1.1744
 3427TIP3   OH210244   2.678   3.718   5.657  0.2692 -0.4137 -0.0234
 3427TIP3    H110245   2.645   3.702   5.745 -0.5511 -0.7476 -0.3777
 3427TIP3    H210246   2.602   3.702   5.600  0.4898  0.8367 -0.7080
 3428TIP3   OH210247   3.719   1.787   5.601 -0.0574  0.0620 -0.1262
 3428TIP3    H110248   3.719   1.691   5.607 -0.2094 -0.3657 -4.1975
 3428TIP3    H210249   3.776   1.806   5.526 -1.1183  3.0858 -0.2808
 3429TIP3   OH210250   0.395   5.885   5.439  0.3373  0.1543 -0.9717
 3429TIP3    H110251   0.340   5.963   5.449 -0.9715 -0.9148  1.0868
 3429TIP3    H210252   0.337   5.820   5.400 -0.3416 -1.2947  2.1285
 3430TIP3   OH210253   2.776   2.909   3.061 -0.5858 -0.5412 -0.0539
 3430TIP3    H110254   2.851   2.918   3.120  0.8234 -1.5922 -1.6142
 3430TIP3    H210255   2.778   2.988   3.007 -0.5364 -0.6258 -0.1751
 3431TIP3   OH210256   5.642   5.085   2.077  0.0746 -0.3543 -0.0284
 3431TIP3    H110257   5.570   5.144   2.053  0.1642 -0.0318  0.4701
 3431TIP3    H210258   5.679   5.057   1.994 -0.6082 -0.5004 -0.2955
 3432TIP3   OH210259   0.870   2.532   0.216 -0.3832  0.2253 -0.6467
 3432TIP3    H110260   0.900   2.442   0.201  0.3785  0.7279 -2.5215
 3432TIP3    H210261   0.781   2.523   0.251  0.0959 -1.2531  0.2555
 3433TIP3   OH210262   4.725   2.253   3.004 -0.6612 -0.1069  0.0836
 3433TIP3    H110263   4.759   2.174   3.047 -0.8578 -1.3348 -1.9028
 3433TIP3    H210264   4.630   2.242   3.006 -0.6766 -0.0720 -0.4992
 3434TIP3   OH210265   5.749   5.035   1.822  0.0362 -0.1352 -0.4313
 3434TIP3    H110266   5.762   4.940   1.816  0.5638 -0.1123  0.2670
 3434TIP3    H210267   5.837   5.071   1.833 -0.2080  0.3830 -0.1321
 3435TIP3   OH210268   1.443   6.446   2.723  0.0048  0.3170  0.2001
 3435TIP3    H110269   1.492   6.396   2.658 -1.1746  0.9944 -1.2686
 3435TIP3    H210270   1.511   6.488   2.777  1.1905  2.4681 -2.6903
 3436TIP3   OH210271   0.303   6.094   4.329 -0.2015 -0.2772 -0.5068
 3436TIP3    H110272   0.220   6.140   4.337 -0.8370 -1.6800  1.5022
 3436TIP3    H210273   0.280   6.001   4.331  1.5085 -0.7313  2.0430
 3437TIP3   OH210274   3.085   4.493   1.531  0.0562  0.1223  0.1939
 3437TIP3    H110275   3.172   4.457   1.515 -0.5380 -0.3517 -2.3825
 3437TIP3    H210276   3.099   4.588   1.534  0.6250  0.0732 -0.6118
 3438TIP3   OH210277   5.146   3.790   1.911  0.1301 -0.1412  0.1057
 3438TIP3    H110278   5.105   3.708   1.939  0.5288 -0.2320  0.4389
 3438TIP3    H210279   5.180   3.771   1.823  0.5013 -0.4410  0.3072
 3439TIP3   OH210280   0.590   4.309   0.006 -0.4884 -0.3252 -0.1762
 3439TIP3    H110281   0.564   4.274   0.092 -2.7614 -0.2437 -0.7653
 3439TIP3    H210282   0.603   4.231  -0.048 -0.5517 -0.3425 -0.1658
 3440TIP3   OH210283   5.858   3.177   2.605  0.2079 -0.2404  0.1813
 3440TIP3    H110284   5.882   3.203   2.694  0.2811  0.1630  0.0478
 3440TIP3    H210285   5.860   3.259   2.555 -0.9118 -0.2851  0.0416
 3441TIP3   OH210286   1.233   3.246   1.664  0.7793  0.0470 -0.1070
 3441TIP3    H110287   1.288   3.307   1.713 -0.0027  0.6056  0.0868
 3441TIP3    H210288   1.144   3.276   1.679  0.4711 -0.2571 -1.2224
 3442TIP3   OH210289   0.048   4.124   2.857  0.2981  0.1755  0.1628
 3442TIP3    H110290   0.066   4.095   2.946  0.7957 -0.9154 -0.2799
 3442TIP3    H210291  -0.044   4.103   2.842  0.1221  0.6724  0.5270
 3443TIP3   OH210292   4.908   5.016   5.713  0.0762  0.5423  0.7262
 3443TIP3    H110293   4.985   4.975   5.751 -0.6776 -0.1422  1.5718
 3443TIP3    H210294   4.887   5.089   5.771 -1.7054 -1.1433  2.3694
 3444TIP3   OH210295   6.240   3.242   3.870  0.0265  0.1533  0.1160
 3444TIP3    H110296   6.167   3.266   3.928 -0.2689 -1.9298  0.6879
 3444TIP3    H210297   6.291   3.323   3.862 -0.1929  0.6898  2.8733
 3445TIP3   OH210298   5.556   5.374   2.924 -0.1348  0.3233  0.0336
 3445TIP3    H110299   5.530   5.359   2.833 -2.2789 -2.9639  1.0130
 3445TIP3    H210300   5.648   5.348   2.927 -0.2863 -0.4031 -1.0540
 3446TIP3   OH210301   3.091   5.847   0.233 -0.0477  0.1616 -0.0757
 3446TIP3    H110302   3.026   5.912   0.259 -1.4031 -0.0531 -2.5328
 3446TIP3    H210303   3.175   5.894   0.234 -0.9040  1.8062 -1.2058
 3447TIP3   OH210304   2.839   3.724   3.863 -0.0605  0.1342 -0.1592
 3447TIP3    H110305   2.932   3.735   3.881 -0.5952  1.1091  2.4008
 3447TIP3    H210306   2.828   3.629   3.849  1.5059  0.1905 -2.2433
 3448TIP3   OH210307   1.538   1.097   1.985 -0.1946  0.1563 -0.1354
 3448TIP3    H110308   1.612   1.123   1.929 -0.2303  0.3353 -0.0974
 3448TIP3    H210309   1.497   1.179   2.011  0.9933  0.2099  1.7558
 3449TIP3   OH210310   5.679   5.735   2.865  0.6240  0.7408 -0.2084
 3449TIP3    H110311   5.735   5.745   2.788  0.1428 -1.3645 -0.9045
 3449TIP3    H210312   5.597   5.700   2.830 -0.6773  2.4291  0.9557
 3450TIP3   OH210313   2.671   2.644   0.507 -0.0238  0.4868  0.3118
 3450TIP3    H110314   2.707   2.586   0.574  0.4414  2.6977  2.1063
 3450TIP3    H210315   2.581   2.659   0.533 -1.3517 -2.1960 -2.1935
 3451TIP3   OH210316   1.110   1.378   4.394 -0.4532  0.4178 -0.3348
 3451TIP3    H110317   1.039   1.439   4.414 -1.5075 -1.1458  0.8623
 3451TIP3    H210318   1.133   1.339   4.478  2.0575  1.0633 -0.6228
 3452TIP3   OH210319   6.648   1.539   5.586 -0.1425  0.2372  0.5108
 3452TIP3    H110320   6.670   1.578   5.501  1.3960 -1.9844 -0.2113
 3452TIP3    H210321   6.731   1.536   5.633 -0.4516 -0.9964  1.0141
 3453TIP3   OH210322   4.951   0.147   4.747  0.6595  0.1229  0.5545
 3453TIP3    H110323   5.032   0.108   4.779  1.0548  0.0630 -0.4887
 3453TIP3    H210324   4.890   0.138   4.820  0.6369 -2.6711  0.2709
 3454TIP3   OH210325   1.247   2.838   4.668  0.4291  0.0989  0.0253
 3454TIP3    H110326   1.161   2.866   4.698 -0.0136  0.1182 -1.2071
 3454TIP3    H210327   1.280   2.782   4.738 -0.8944 -0.5065  0.1985
 3455TIP3   OH210328   6.768   0.192   1.004  0.0754  0.4939 -0.2697
 3455TIP3    H110329   6.784   0.285   1.018  1.0770  0.5045 -1.3502
 3455TIP3    H210330   6.821   0.148   1.071 -1.6317  0.6816  1.3090
 3456TIP3   OH210331   3.784   2.832   1.179 -0.0002 -0.3862  0.4002
 3456TIP3    H110332   3.875   2.851   1.154 -0.4574  1.4097 -0.0700
 3456TIP3    H210333   3.760   2.906   1.236 -1.1741 -0.8289  0.4985
 3457TIP3   OH210334   3.832   5.276   0.364  0.2493  0.1681 -0.3192
 3457TIP3    H110335   3.785   5.299   0.444  1.4530  1.0369  0.1705
 3457TIP3    H210336   3.763   5.258   0.300 -0.7393 -0.5038  0.8854
 3458TIP3   OH210337   5.635   1.124   1.807 -0.2695 -0.4905  0.0075
 3458TIP3    H110338   5.645   1.216   1.831 -0.4873 -1.0555  2.4898
 3458TIP3    H210339   5.720   1.085   1.826  0.0721 -0.6951 -1.7834
 3459TIP3   OH210340   3.095   6.575   2.995 -0.1887 -0.1481  0.2508
 3459TIP3    H110341   3.076   6.552   3.086  0.4140 -1.6720  0.0299
 3459TIP3    H210342   3.041   6.651   2.977 -0.9475 -0.3327  1.6352
 3460TIP3   OH210343   3.318   1.820   0.066  0.8638  0.1338  0.5088
 3460TIP3    H110344   3.374   1.859   0.133 -0.8211 -0.2249  2.2266
 3460TIP3    H210345   3.233   1.862   0.079  0.2117 -0.7551 -0.6914
 3461TIP3   OH210346   3.819   2.049   3.809 -0.5744 -0.1813 -0.2970
 3461TIP3    H110347   3.835   2.051   3.714  0.9593 -0.1982 -0.0728
 3461TIP3    H210348   3.846   1.961   3.836 -0.7509 -0.0876  0.1880
 3462TIP3   OH210349   5.313   1.242   1.911  0.5431 -0.8297  0.4208
 3462TIP3    H110350   5.237   1.278   1.865 -0.4136 -0.1259  2.4640
 3462TIP3    H210351   5.304   1.147   1.902 -1.5717 -0.8428  2.0467
 3463TIP3   OH210352   4.071   3.874   1.151  0.0414 -0.3792 -0.1664
 3463TIP3    H110353   4.012   3.869   1.226 -0.3383  1.3863 -0.3197
 3463TIP3    H210354   4.144   3.928   1.181  0.9699 -1.4691 -0.3954
 3464TIP3   OH210355   5.598   5.943   4.560 -0.4337  0.1472  0.4704
 3464TIP3    H110356   5.638   6.016   4.513 -0.9741  1.0425  1.3591
 3464TIP3    H210357   5.532   5.909   4.499  0.9903 -0.7406 -0.6306
 3465TIP3   OH210358   0.420   2.209   0.371  0.8324 -0.1941  0.2772
 3465TIP3    H110359   0.471   2.269   0.425  1.4311 -1.0407  0.6784
 3465TIP3    H210360   0.486   2.149   0.335  0.0092 -2.1409  1.8478
 3466TIP3   OH210361   4.935   5.354   1.772  0.1096 -0.3357 -0.3167
 3466TIP3    H110362   5.000   5.407   1.819  0.2429 -0.6738 -0.1147
 3466TIP3    H210363   4.867   5.416   1.748 -0.0112 -0.1730  0.4227
 3467TIP3   OH210364   2.048   0.886   4.397  0.4714 -0.1648 -0.2163
 3467TIP3    H110365   1.971   0.938   4.373  0.7704  0.4033  0.0251
 3467TIP3    H210366   2.118   0.918   4.340  0.4081 -1.0612 -0.8194
 3468TIP3   OH210367   0.732   5.992   1.723  0.0181 -0.1081 -0.1191
 3468TIP3    H110368   0.692   5.986   1.637  0.3001  0.8208 -0.3192
 3468TIP3    H210369   0.658   5.995   1.784 -0.1849 -1.6815 -0.2335
 3469TIP3   OH210370   0.305   0.903   3.321 -0.1596  0.6301 -0.2583
 3469TIP3    H110371   0.392   0.878   3.353  0.4562  1.1150 -1.4915
 3469TIP3    H210372   0.273   0.967   3.385  0.1658  0.0705  0.4777
 3470TIP3   OH210373   0.293   2.863   1.237 -0.4900 -0.0189  0.2643
 3470TIP3    H110374   0.356   2.868   1.309 -1.6698  2.4341  1.2463
 3470TIP3    H210375   0.227   2.800   1.266  0.3976 -1.0406  0.1248
 3471TIP3   OH210376   3.200   0.058   4.879 -0.0483  0.7432 -0.3835
 3471TIP3    H110377   3.205   0.062   4.975  2.3617  1.1898 -0.4487
 3471TIP3    H210378   3.122   0.007   4.861 -0.7245  0.8894  1.8182
 3472TIP3   OH210379   5.867   6.793   3.169  0.1410 -0.3058 -0.3313
 3472TIP3    H110380   5.826   6.832   3.247 -0.0995  0.1064 -0.6602
 3472TIP3    H210381   5.927   6.728   3.204  0.4901  0.3035  0.2318
 3473TIP3   OH210382   2.827   3.862   3.620  0.3829  0.2125  0.2777
 3473TIP3    H110383   2.812   3.860   3.714  0.3630 -1.6078  0.2633
 3473TIP3    H210384   2.914   3.902   3.610  0.1654  0.8947  1.0080
 3474TIP3   OH210385   0.384   4.443   2.653  0.2266 -0.0767 -1.0472
 3474TIP3    H110386   0.460   4.417   2.601  0.7847  0.2692 -0.4239
 3474TIP3    H210387   0.373   4.372   2.716  2.1642  1.3912  1.0953
 3475TIP3   OH210388   3.796   1.261   5.507  0.7717 -0.2002  0.5939
 3475TIP3    H110389   3.855   1.269   5.432  0.8346  0.2872  0.6882
 3475TIP3    H210390   3.841   1.202   5.567  0.1981 -1.5118 -0.2431
 3476TIP3   OH210391   1.504   3.822   2.529  0.2490  0.1650 -0.3513
 3476TIP3    H110392   1.554   3.794   2.452  0.4369  1.4514 -0.7283
 3476TIP3    H210393   1.569   3.858   2.589  0.3347 -2.4317  1.2331
 3477TIP3   OH210394   7.006   1.371   1.841 -0.2263  0.3220 -0.3510
 3477TIP3    H110395   7.001   1.276   1.842  0.2582  0.2929 -0.4204
 3477TIP3    H210396   7.042   1.394   1.927  0.3225  0.4001 -0.6000
 3478TIP3   OH210397   1.582   1.773   4.306  0.0882 -0.4556 -0.3840
 3478TIP3    H110398   1.661   1.825   4.288 -0.2110 -0.1128 -0.7089
 3478TIP3    H210399   1.563   1.789   4.399 -0.2127  0.3048 -0.5730
 3479TIP3   OH210400   1.280   4.357   4.958  0.8236 -0.2821 -0.0841
 3479TIP3    H110401   1.372   4.337   4.973  0.7464  0.1410  1.1352
 3479TIP3    H210402   1.269   4.445   4.994  0.3050  0.3532 -1.7373
 3480TIP3   OH210403   0.760   2.193   5.811 -0.1479  1.3813  0.5568
 3480TIP3    H110404   0.772   2.134   5.737 -2.8066  1.2238  0.1789
 3480TIP3    H210405   0.800   2.147   5.885  1.1380  0.8365 -0.4456
 3481TIP3   OH210406   6.823   0.207   5.656  0.0104  0.0748  0.6481
 3481TIP3    H110407   6.802   0.166   5.572 -1.3903  2.3155 -0.1921
 3481TIP3    H210408   6.825   0.134   5.718  1.6242 -1.7147 -1.3721
 3482TIP3   OH210409   6.026   5.689   1.776  0.4018 -0.1831 -0.3127
 3482TIP3    H110410   6.000   5.630   1.846 -1.0280 -0.5702 -1.1302
 3482TIP3    H210411   6.009   5.640   1.696 -1.7568  1.6050 -1.0765
 3483TIP3   OH210412   5.064   5.664   1.277  0.0931  0.5599  0.0196
 3483TIP3    H110413   5.134   5.666   1.212 -0.3542  0.3561 -0.4779
 3483TIP3    H210414   5.097   5.717   1.350  1.1162 -0.2392  0.1635
 3484TIP3   OH210415   0.184   1.576   4.966  0.6247 -0.4118 -0.1668
 3484TIP3    H110416   0.160   1.535   4.882 -0.0934 -0.7196  0.1811
 3484TIP3    H210417   0.100   1.597   5.007  0.9413  1.8897 -0.5499
 3485TIP3   OH210418   4.704   0.427   4.429  0.7670  0.6240  0.1664
 3485TIP3    H110419   4.751   0.422   4.513 -0.8837  0.3822  1.1108
 3485TIP3    H210420   4.637   0.359   4.435  0.0288  1.2298 -0.9826
 3486TIP3   OH210421   5.717   4.771   0.632  0.3608  0.3808  0.3073
 3486TIP3    H110422   5.743   4.731   0.716 -0.1274 -0.0872  0.2390
 3486TIP3    H210423   5.753   4.712   0.566  1.2801  1.0763  0.1620
 3487TIP3   OH210424   6.025   1.649   3.205  0.1948 -0.3313 -0.1509
 3487TIP3    H110425   5.968   1.624   3.277  1.8612 -0.6554  1.1020
 3487TIP3    H210426   6.024   1.745   3.205  0.7926 -0.3109  0.8394
 3488TIP3   OH210427   6.951   6.142   0.026 -0.2919  0.0571 -0.2814
 3488TIP3    H110428   7.042   6.120   0.010 -0.1567  1.2910 -1.3938
 3488TIP3    H210429   6.942   6.232  -0.004 -1.4674  0.5840  1.4596
 3489TIP3   OH210430   2.087   0.667   1.536  0.1912  0.4719 -0.0891
 3489TIP3    H110431   2.148   0.595   1.548 -0.0553  0.2995  0.1460
 3489TIP3    H210432   2.054   0.685   1.624 -0.1721  0.5001 -0.2294
 3490TIP3   OH210433   3.906   2.027   2.682 -0.0872  0.4995 -0.4595
 3490TIP3    H110434   3.964   2.086   2.731  0.3488 -0.7847  0.6437
 3490TIP3    H210435   3.958   1.948   2.668 -1.4130 -0.5602  0.2559
 3491TIP3   OH210436   5.730   4.156   5.715 -0.3057 -0.4807  0.1275
 3491TIP3    H110437   5.752   4.247   5.695  0.0425 -0.2810  1.3536
 3491TIP3    H210438   5.730   4.112   5.629 -0.5088  0.6680 -0.4788
 3492TIP3   OH210439   3.478   1.649   1.510  0.0808 -0.1797  0.0414
 3492TIP3    H110440   3.469   1.589   1.583  1.3247 -0.1588  0.2339
 3492TIP3    H210441   3.431   1.728   1.537 -0.4112 -0.5711  0.3387
 3493TIP3   OH210442   1.055   2.221   0.857  0.2785 -0.0469  0.3017
 3493TIP3    H110443   0.993   2.198   0.926 -0.9052  0.2021 -0.6567
 3493TIP3    H210444   1.134   2.248   0.904 -0.5522  0.2453  1.5585
 3494TIP3   OH210445   2.505   2.122   3.324 -0.4984 -0.0730 -0.6821
 3494TIP3    H110446   2.567   2.054   3.352 -0.1632  1.4105  2.6677
 3494TIP3    H210447   2.558   2.186   3.278 -0.3019 -0.6943 -1.3345
 3495TIP3   OH210448   4.169   4.704   2.203  0.6822  0.2604  0.5203
 3495TIP3    H110449   4.151   4.787   2.158 -1.3788 -0.3932 -0.0100
 3495TIP3    H210450   4.263   4.690   2.192  0.7079  1.4796 -1.2315
 3496TIP3   OH210451   3.155   3.794   5.850 -0.3925  0.2608 -0.1586
 3496TIP3    H110452   3.250   3.799   5.846 -0.2945 -0.9930  0.1760
 3496TIP3    H210453   3.129   3.753   5.767 -0.6670  0.8882 -0.3852
 3497TIP3   OH210454   0.359   6.277   2.065  0.0113  0.2805 -0.7069
 3497TIP3    H110455   0.338   6.235   1.981 -2.3821  0.1730 -0.1227
 3497TIP3    H210456   0.313   6.361   2.063 -1.3611 -0.3475  1.0181
 3498TIP3   OH210457   2.560   0.483   0.056  0.0468  0.2434  0.2323
 3498TIP3    H110458   2.541   0.390   0.041 -0.3523  0.2714  0.5527
 3498TIP3    H210459   2.556   0.522  -0.032  1.3858 -0.2366 -0.0684
 3499TIP3   OH210460   0.171   5.887   0.984 -0.0487 -0.0800  0.1842
 3499TIP3    H110461   0.147   5.918   0.897 -2.3702 -0.1600  0.7074
 3499TIP3    H210462   0.107   5.929   1.042  0.7900 -0.8287  1.7135
 3500TIP3   OH210463   5.932   4.544   4.379 -0.2754  0.3535 -0.5457
 3500TIP3    H110464   5.893   4.560   4.465 -0.3419 -1.9342 -0.0877
 3500TIP3    H210465   6.027   4.549   4.394 -0.2721 -0.6965 -0.1789
 3501TIP3   OH210466   4.227   2.752   3.724 -0.4761  0.2729 -0.1925
 3501TIP3    H110467   4.145   2.799   3.740 -1.8237 -1.6224 -1.1436
 3501TIP3    H210468   4.296   2.816   3.744 -2.1691  1.9698  0.4914
 3502TIP3   OH210469   2.275   2.039   4.869  0.1523  0.1788 -0.0677
 3502TIP3    H110470   2.362   2.066   4.897  0.3580  0.0546 -0.5770
 3502TIP3    H210471   2.277   2.046   4.774  0.1067 -1.2946 -0.1949
 3503TIP3   OH210472   0.895   6.781   4.268  0.3083 -0.3328  0.3489
 3503TIP3    H110473   0.917   6.752   4.356 -0.7356  1.1215  1.1186
 3503TIP3    H210474   0.959   6.849   4.248  1.5487 -1.7283 -0.6972
 3504TIP3   OH210475   0.410   1.293   4.147 -0.4865 -0.4333  0.4307
 3504TIP3    H110476   0.332   1.348   4.152 -0.8601 -0.8248 -0.6950
 3504TIP3    H210477   0.377   1.205   4.128  0.1770 -0.8089  0.9420
 3505TIP3   OH210478   2.616   4.935   0.928 -0.3837 -0.4954  0.0089
 3505TIP3    H110479   2.602   4.983   0.846  1.5781 -2.5074 -1.6184
 3505TIP3    H210480   2.690   4.979   0.969 -0.7069 -0.1232  0.2008
 3506TIP3   OH210481   1.156   4.561   2.304  0.4457  0.0020 -0.5478
 3506TIP3    H110482   1.130   4.609   2.382  2.3411  0.1053  0.0538
 3506TIP3    H210483   1.217   4.618   2.259 -2.3223  0.9928 -3.4595
 3507TIP3   OH210484   1.082   5.686   0.392  0.1299  0.3682 -0.0135
 3507TIP3    H110485   1.053   5.654   0.307 -1.7007  1.3958  0.1776
 3507TIP3    H210486   1.033   5.635   0.456  0.6990  0.3327  0.4052
 3508TIP3   OH210487   2.730   1.537   3.188  0.2526  0.0297 -0.0720
 3508TIP3    H110488   2.809   1.591   3.186  2.1345 -2.4607  1.4454
 3508TIP3    H210489   2.733   1.487   3.106  0.8404 -0.7862  0.4330
 3509TIP3   OH210490   0.007   2.644   4.840 -0.0973  0.3137  0.3690
 3509TIP3    H110491   0.091   2.687   4.856 -0.5682  0.7499  1.7876
 3509TIP3    H210492  -0.053   2.682   4.904 -1.2058 -0.5294 -0.1209
 3510TIP3   OH210493   4.122   2.631   5.605 -0.0514  0.2981 -0.5278
 3510TIP3    H110494   4.103   2.703   5.544  0.2748 -0.0402 -1.0364
 3510TIP3    H210495   4.212   2.605   5.584  0.8642  1.5431  1.4882
 3511TIP3   OH210496   4.576   3.266   0.370 -0.3215  0.4531 -0.1297
 3511TIP3    H110497   4.525   3.343   0.398 -0.6931  0.5783 -1.1090
 3511TIP3    H210498   4.547   3.196   0.428  0.0637  1.0605  0.8181
 3512TIP3   OH210499   2.175   5.224   2.058 -0.1348  0.2284 -0.3177
 3512TIP3    H110500   2.228   5.265   1.990  2.7071  0.1620  1.6607
 3512TIP3    H210501   2.152   5.296   2.117  0.7226 -0.2376  0.6146
 3513TIP3   OH210502   1.025   4.689   3.228  0.1959  0.1227  0.5853
 3513TIP3    H110503   1.106   4.637   3.227  0.0946 -0.0832 -1.3533
 3513TIP3    H210504   1.014   4.716   3.137 -0.7395  2.0424  1.2242
 3514TIP3   OH210505   1.644   5.261   1.149 -0.4411 -0.0917 -0.5110
 3514TIP3    H110506   1.687   5.176   1.156  0.3745  0.3735  0.3041
 3514TIP3    H210507   1.599   5.258   1.064  1.3558 -0.5188 -1.5123
 3515TIP3   OH210508   7.187   0.539   2.953  0.2538  0.0596 -0.3683
 3515TIP3    H110509   7.173   0.531   2.858 -2.3811  1.0646 -0.1521
 3515TIP3    H210510   7.249   0.611   2.962  0.5891 -0.0910 -1.3368
 3516TIP3   OH210511   5.782   3.047   4.572 -0.3226 -0.4195  0.0693
 3516TIP3    H110512   5.842   2.984   4.611  0.7849  0.9436  0.6484
 3516TIP3    H210513   5.831   3.085   4.499 -0.9064 -0.1240 -0.1750
 3517TIP3   OH210514   4.763   5.048   0.780 -0.0043 -0.9834 -0.3391
 3517TIP3    H110515   4.784   5.047   0.686  2.8734  0.8270  0.1445
 3517TIP3    H210516   4.723   5.134   0.794  1.2714 -0.4785  0.3415
 3518TIP3   OH210517   3.505   0.963   2.610 -0.3990  0.0917  0.2833
 3518TIP3    H110518   3.468   0.933   2.527 -2.9057  0.0855  1.3334
 3518TIP3    H210519   3.549   0.886   2.646  0.1840 -0.0665 -0.7265
 3519TIP3   OH210520   4.468   3.263   0.637  0.3381  0.1247  0.2971
 3519TIP3    H110521   4.493   3.326   0.705 -0.6729  0.2340  0.5863
 3519TIP3    H210522   4.473   3.178   0.680  0.8810  0.0860  0.1549
 3520TIP3   OH210523   3.796   3.075   3.532 -0.0135  0.5672 -0.6634
 3520TIP3    H110524   3.785   3.087   3.626  0.4471 -2.0828 -0.1845
 3520TIP3    H210525   3.708   3.089   3.496  0.0758  3.0196 -0.1003
 3521TIP3   OH210526   4.534   3.177   1.894 -0.3690 -0.0915  0.1053
 3521TIP3    H110527   4.491   3.095   1.919  0.5335 -0.3488  0.9114
 3521TIP3    H210528   4.604   3.187   1.959  0.6910  0.3726 -1.0712
 3522TIP3   OH210529   3.391   2.496   5.298 -0.0808  0.3572 -0.2428
 3522TIP3    H110530   3.353   2.577   5.264  0.7963  0.1304 -1.8472
 3522TIP3    H210531   3.387   2.506   5.393 -1.3956  1.6042 -0.3981
 3523TIP3   OH210532   5.084   5.044   3.115  0.1480 -0.4156  0.1550
 3523TIP3    H110533   5.128   5.129   3.115  1.1008 -0.8830  1.2643
 3523TIP3    H210534   5.010   5.054   3.175 -0.5248 -0.0061 -0.7197
 3524TIP3   OH210535   6.587   2.753   5.145 -0.0482  0.1965  0.1502
 3524TIP3    H110536   6.502   2.791   5.121  0.8106  0.9317 -1.9125
 3524TIP3    H210537   6.651   2.806   5.099  1.4564 -1.2677  0.4734
 3525TIP3   OH210538   2.827   2.062   4.572  0.3447  0.0184  0.5277
 3525TIP3    H110539   2.912   2.099   4.597 -0.0699  1.5734 -0.2641
 3525TIP3    H210540   2.847   1.971   4.549  1.7991  0.3567  0.3542
 3526TIP3   OH210541   7.123   3.423   0.122 -0.1428 -0.3272  0.0716
 3526TIP3    H110542   7.214   3.393   0.116  0.2594  0.1748  2.4008
 3526TIP3    H210543   7.071   3.345   0.102  0.7965 -0.8294 -0.5096
 3527TIP3   OH210544   2.104   6.415   2.333 -0.2783  0.1393 -0.1587
 3527TIP3    H110545   2.065   6.426   2.420 -0.7464 -2.6355  0.0678
 3527TIP3    H210546   2.196   6.397   2.349 -0.0638  1.0290 -0.3475
 3528TIP3   OH210547   4.729   3.080   5.710 -0.0737  0.1033 -0.0782
 3528TIP3    H110548   4.760   3.075   5.800 -2.7355  1.2502  0.9768
 3528TIP3    H210549   4.725   3.173   5.691 -1.3222 -0.0686 -0.7188
 3529TIP3   OH210550   1.564   6.134   5.611 -0.4881  0.1631 -0.3728
 3529TIP3    H110551   1.576   6.117   5.704  0.2609  0.5780 -0.3861
 3529TIP3    H210552   1.504   6.209   5.608 -0.0073  0.5628 -0.2013
 3530TIP3   OH210553   5.058   5.058   2.278 -0.1119  0.0927 -0.1018
 3530TIP3    H110554   5.004   5.068   2.200  1.2307  1.0977 -0.9484
 3530TIP3    H210555   4.998   5.023   2.344 -1.0066 -1.9814 -1.8780
 3531TIP3   OH210556   3.382   6.588   0.890  0.1403 -0.5826 -0.4525
 3531TIP3    H110557   3.329   6.579   0.969 -0.4153  1.5899 -0.5252
 3531TIP3    H210558   3.468   6.616   0.922 -0.1760  0.6071 -0.6176
 3532TIP3   OH210559   5.047   0.811   5.675  0.5754  0.1286  0.1220
 3532TIP3    H110560   5.084   0.894   5.703 -1.1530  0.3547  1.9614
 3532TIP3    H210561   5.101   0.784   5.601  0.7331  3.2149 -1.0191
 3533TIP3   OH210562   5.498   2.470   0.940  0.3460  0.0909 -0.3306
 3533TIP3    H110563   5.435   2.526   0.987  0.7639  0.1797  0.1398
 3533TIP3    H210564   5.479   2.382   0.972  0.9551  0.2125  0.3916
 3534TIP3   OH210565   0.383   5.987   3.972 -0.0297 -0.2148  0.1897
 3534TIP3    H110566   0.454   6.049   3.992 -0.4952  0.6435 -0.6782
 3534TIP3    H210567   0.391   5.973   3.877  0.8316 -2.4879  0.5488
 3535TIP3   OH210568   3.638   5.665   5.249  0.4678  0.5367  0.4912
 3535TIP3    H110569   3.603   5.679   5.161 -0.2793  2.5404  1.0449
 3535TIP3    H210570   3.733   5.668   5.237  0.3982 -0.1526 -0.3567
 3536TIP3   OH210571   2.779   1.452   4.533 -0.0542  0.0211  0.0673
 3536TIP3    H110572   2.840   1.517   4.567  1.6277 -1.6379  0.4213
 3536TIP3    H210573   2.827   1.412   4.460 -1.1639 -0.6037 -0.3321
 3537TIP3   OH210574   6.564   3.218   2.237  0.2327  0.2566 -0.0052
 3537TIP3    H110575   6.580   3.171   2.319  1.2296  1.4414  0.5112
 3537TIP3    H210576   6.639   3.195   2.181 -0.0964 -0.0109 -0.3411
 3538TIP3   OH210577   3.622   4.975   5.794  0.2674 -0.5041 -0.2021
 3538TIP3    H110578   3.630   5.043   5.727 -2.1228  3.5489  3.0871
 3538TIP3    H210579   3.530   4.950   5.792  0.3891 -1.0976  0.8054
 3539TIP3   OH210580   4.076   4.005   0.571  0.1421  0.6023  0.1472
 3539TIP3    H110581   4.098   3.912   0.573  0.9913  0.7626 -0.6891
 3539TIP3    H210582   4.102   4.038   0.657  1.3871  0.3834 -0.1311
 3540TIP3   OH210583   3.946   0.628   3.796 -0.2540 -0.0236  0.6321
 3540TIP3    H110584   3.990   0.650   3.878  0.8222  0.1467  0.0325
 3540TIP3    H210585   3.963   0.534   3.785  0.1361  0.0796  0.3109
 3541TIP3   OH210586   3.540   2.149   4.048  0.3554 -0.0388 -0.0337
 3541TIP3    H110587   3.624   2.128   4.088  0.2085  3.6116  2.6402
 3541TIP3    H210588   3.482   2.078   4.077  1.9204 -1.3225  0.1069
 3542TIP3   OH210589   6.999   6.520   5.702 -0.2950  0.6461 -0.1013
 3542TIP3    H110590   6.936   6.486   5.766 -0.5439  1.7301  0.2518
 3542TIP3    H210591   7.082   6.525   5.750  0.0881 -0.7754 -0.5645
 3543TIP3   OH210592   4.837   3.459   0.720 -0.1928 -0.2615 -0.3960
 3543TIP3    H110593   4.821   3.367   0.742 -1.3979 -0.0416 -0.2581
 3543TIP3    H210594   4.753   3.489   0.683 -0.7366  1.4876  2.0235
 3544TIP3   OH210595   0.029   3.795   3.246 -0.0827 -0.5371 -0.4744
 3544TIP3    H110596   0.045   3.856   3.175 -0.7015 -1.5308 -1.5183
 3544TIP3    H210597   0.112   3.748   3.256  1.1543  1.8923  1.8693
 3545TIP3   OH210598   2.904   5.647   4.556 -0.5922  0.0412  0.2589
 3545TIP3    H110599   2.830   5.688   4.600 -1.2245  0.8334 -1.4201
 3545TIP3    H210600   2.871   5.563   4.526 -1.1376  0.7318 -1.2025
 3546TIP3   OH210601   1.450   1.917   1.114 -0.4042 -0.2621 -0.4361
 3546TIP3    H110602   1.383   1.921   1.046  0.2802  0.4859 -1.0761
 3546TIP3    H210603   1.498   1.836   1.097  1.4479  1.1563 -2.5014
 3547TIP3   OH210604   3.941   4.826   0.047 -0.6271  0.4999 -0.2934
 3547TIP3    H110605   4.008   4.866   0.102 -0.7570 -2.4911  2.3390
 3547TIP3    H210606   3.864   4.881   0.060 -0.0483  1.0785  0.8305
 3548TIP3   OH210607   2.361   2.756   3.289  0.5524 -0.0193  0.0471
 3548TIP3    H110608   2.396   2.844   3.274  1.1581 -0.1031  0.8932
 3548TIP3    H210609   2.428   2.712   3.342  1.1091 -1.5866 -1.8306
 3549TIP3   OH210610   6.250   5.315   1.936 -0.0185  0.4127  0.2249
 3549TIP3    H110611   6.236   5.329   1.842 -0.5384  1.6133  0.4591
 3549TIP3    H210612   6.344   5.305   1.945 -0.0138 -0.3436 -0.4921
 3550TIP3   OH210613   1.578   6.267   2.551  0.6669 -0.7322 -0.6144
 3550TIP3    H110614   1.536   6.219   2.479 -0.3396  0.2521 -0.7127
 3550TIP3    H210615   1.663   6.224   2.562 -0.1372 -2.4694 -0.7619
 3551TIP3   OH210616   6.361   3.077   4.812  0.0248 -0.5607 -0.0034
 3551TIP3    H110617   6.320   3.126   4.884 -0.1023 -1.2523  0.4046
 3551TIP3    H210618   6.345   3.130   4.735  1.7418  1.1505  0.7273
 3552TIP3   OH210619   4.889   1.318   4.257  0.1311  0.0908  0.0631
 3552TIP3    H110620   4.823   1.384   4.236 -0.0954 -0.0008  0.4684
 3552TIP3    H210621   4.867   1.290   4.346  0.6952  0.0326  0.1872
 3553TIP3   OH210622   3.197   4.502   4.299  0.8296  0.0693 -0.0358
 3553TIP3    H110623   3.131   4.449   4.253 -0.0507  1.1714 -0.0832
 3553TIP3    H210624   3.274   4.445   4.304 -0.4812 -1.7122  1.0995
 3554TIP3   OH210625   6.039   4.580   5.663 -0.1377 -0.1230  0.2849
 3554TIP3    H110626   5.992   4.657   5.696  0.4178  0.8191 -1.0096
 3554TIP3    H210627   6.095   4.553   5.735  0.5578  1.4530  0.3850
 3555TIP3   OH210628   6.280   1.168   4.963 -0.2984 -0.0382  0.2277
 3555TIP3    H110629   6.225   1.195   4.889  0.0730  0.4964  0.1363
 3555TIP3    H210630   6.275   1.241   5.025  1.5203  0.7651 -0.4641
 3556TIP3   OH210631   3.444   4.747   4.769 -0.3151 -0.1408  0.2416
 3556TIP3    H110632   3.501   4.819   4.794 -0.8921  0.0774  1.0046
 3556TIP3    H210633   3.394   4.780   4.694  1.7594 -0.9611 -1.6115
 3557TIP3   OH210634   0.355   1.012   3.056  0.2131 -0.1446 -0.2378
 3557TIP3    H110635   0.365   0.963   3.138  0.2528  0.8124  0.3406
 3557TIP3    H210636   0.350   1.103   3.083  1.3356  0.2890 -1.3762
 3558TIP3   OH210637   6.660   2.808   2.336 -0.0465  0.7263 -0.1937
 3558TIP3    H110638   6.720   2.733   2.342 -0.3524  0.5298  0.4610
 3558TIP3    H210639   6.579   2.770   2.301 -0.4263  0.6137  0.7865
 3559TIP3   OH210640   2.755   4.351   3.984 -0.1093 -0.6152  0.0861
 3559TIP3    H110641   2.801   4.275   3.949 -2.4863 -1.5042 -1.3064
 3559TIP3    H210642   2.669   4.349   3.941 -1.7878  0.4703  3.1145
 3560TIP3   OH210643   5.771   0.789   2.409  0.1880  0.1923  0.2017
 3560TIP3    H110644   5.852   0.782   2.459  0.0803  1.7740  0.6531
 3560TIP3    H210645   5.796   0.768   2.319  1.2034  1.0565  0.2641
 3561TIP3   OH210646   1.601   2.290   2.051 -0.2916  0.2664 -0.2268
 3561TIP3    H110647   1.607   2.223   1.983  0.5271 -0.8226  0.8620
 3561TIP3    H210648   1.526   2.344   2.025 -1.0176 -1.1039 -1.1284
 3562TIP3   OH210649   2.908   1.666   1.246 -0.2014  0.1684 -0.8308
 3562TIP3    H110650   2.961   1.648   1.169 -1.5930  1.1920 -2.0622
 3562TIP3    H210651   2.968   1.652   1.320  0.6546 -2.7674 -1.9320
 3563TIP3   OH210652   0.629   2.975   1.440 -0.1816 -0.3906  0.3374
 3563TIP3    H110653   0.639   2.937   1.527 -0.3414 -0.1007  0.4825
 3563TIP3    H210654   0.545   3.021   1.443 -1.2884 -2.2358 -0.6604
 3564TIP3   OH210655   7.237   5.354   1.246  0.3553  0.1715  0.2755
 3564TIP3    H110656   7.184   5.318   1.316  0.0404  2.3628  1.2549
 3564TIP3    H210657   7.182   5.422   1.206  1.3793  0.5636 -0.5484
 3565TIP3   OH210658   6.980   4.382   1.880  0.3975  0.1829  0.0161
 3565TIP3    H110659   6.998   4.378   1.974  0.7216  1.6079  0.0390
 3565TIP3    H210660   7.056   4.426   1.842 -0.0994  0.3677 -0.7990
 3566TIP3   OH210661   1.242   0.444   0.699  0.3775  0.3451 -0.2799
 3566TIP3    H110662   1.181   0.381   0.663  1.7868  0.0477 -2.3645
 3566TIP3    H210663   1.316   0.443   0.638  2.4874  0.6471  2.1091
 3567TIP3   OH210664   1.545   2.886   4.694  0.1937  0.3779 -0.2116
 3567TIP3    H110665   1.638   2.904   4.685  0.3991 -0.7728 -0.5442
 3567TIP3    H210666   1.503   2.971   4.685  1.1673  0.8181 -0.7218
 3568TIP3   OH210667   0.146   2.147   2.730 -0.3219  0.6047  0.0879
 3568TIP3    H110668   0.155   2.052   2.728 -0.5630  0.5906 -0.6934
 3568TIP3    H210669   0.157   2.174   2.638 -1.2511  1.2355  0.1501
 3569TIP3   OH210670   5.755   0.487   5.082  0.3463  0.0420  0.2859
 3569TIP3    H110671   5.688   0.418   5.076 -0.2544  0.6785 -0.5193
 3569TIP3    H210672   5.751   0.531   4.998  2.1372 -0.2101  0.0362
 3570TIP3   OH210673   3.892   5.561   2.933  0.3551 -1.1312  0.0507
 3570TIP3    H110674   3.879   5.493   3.000 -2.6586 -0.4832  0.2901
 3570TIP3    H210675   3.938   5.632   2.979  0.2948 -1.5776  0.8201
 3571TIP3   OH210676   1.608   5.831   5.816  0.1997 -0.0535 -0.3044
 3571TIP3    H110677   1.630   5.770   5.887  0.5799  0.3495 -0.0673
 3571TIP3    H210678   1.660   5.801   5.741 -1.8150 -1.7972 -1.0952
 3572TIP3   OH210679   4.846   3.422   5.409 -0.3672  0.6470  0.0333
 3572TIP3    H110680   4.834   3.349   5.348 -0.7969  0.3562  0.4542
 3572TIP3    H210681   4.939   3.442   5.404 -0.3371  0.4133 -0.4758
 3573TIP3   OH210682   7.056   3.914   1.005  0.1254  0.3460  0.2462
 3573TIP3    H110683   7.017   3.866   1.078  1.2317 -0.8827  0.0663
 3573TIP3    H210684   7.125   3.857   0.973  0.7050  1.5612 -0.7635
 3574TIP3   OH210685   4.938   5.248   0.548 -0.0669  0.5477  0.2479
 3574TIP3    H110686   4.872   5.246   0.479  0.0443 -1.0519  0.1418
 3574TIP3    H210687   5.016   5.208   0.508  0.2765  0.4167  1.0280
 3575TIP3   OH210688   4.743   0.958   4.161 -0.2536  0.1559  0.1821
 3575TIP3    H110689   4.707   0.934   4.246  0.7696  1.4943  1.0158
 3575TIP3    H210690   4.698   1.039   4.138 -0.6728 -0.3037 -0.6667
 3576TIP3   OH210691   5.883   5.522   0.825 -0.1345  0.2497  0.2418
 3576TIP3    H110692   5.846   5.456   0.766 -0.6632  0.3588  0.4415
 3576TIP3    H210693   5.826   5.518   0.903  1.2120 -0.6909  1.2248
 3577TIP3   OH210694   5.707   0.756   1.870  0.1164  1.0541 -0.0993
 3577TIP3    H110695   5.657   0.803   1.937  0.4331  0.6715  0.4109
 3577TIP3    H210696   5.798   0.775   1.889  0.1885  1.7902 -1.0627
 3578TIP3   OH210697   1.466   2.669   0.340 -0.7320 -0.1830 -0.0162
 3578TIP3    H110698   1.503   2.613   0.271 -0.7629 -1.7820  1.2106
 3578TIP3    H210699   1.394   2.618   0.376 -1.5975  1.2198  0.3011
 3579TIP3   OH210700   0.744   2.714   5.844  0.0683 -0.0661 -0.4480
 3579TIP3    H110701   0.829   2.726   5.801  0.6578 -0.0065  0.6885
 3579TIP3    H210702   0.738   2.619   5.857  0.5450  0.0359  0.5887
 3580TIP3   OH210703   0.514   4.339   4.131 -0.2117 -0.2728  0.4418
 3580TIP3    H110704   0.419   4.333   4.124 -0.3578  0.1379  1.6563
 3580TIP3    H210705   0.533   4.433   4.121 -0.0426 -0.2289  1.0829
 3581TIP3   OH210706   6.398   4.846   2.699 -0.2547  0.4757  0.1331
 3581TIP3    H110707   6.366   4.765   2.660  0.0780  0.5624 -0.3313
 3581TIP3    H210708   6.456   4.818   2.770 -0.9270  0.3165  0.6173
 3582TIP3   OH210709   2.857   0.373   1.983 -0.6045 -0.2164 -0.1304
 3582TIP3    H110710   2.872   0.412   1.896 -1.2784 -1.5575 -0.8658
 3582TIP3    H210711   2.763   0.361   1.988 -0.6161  0.2451  0.9845
 3583TIP3   OH210712   6.770   2.431   4.854 -0.5045  0.1961 -0.0602
 3583TIP3    H110713   6.700   2.453   4.916  1.4636  1.1530  1.9337
 3583TIP3    H210714   6.837   2.388   4.906  1.5177  1.5852 -1.3449
 3584TIP3   OH210715   4.642   5.952   0.242 -0.0428 -0.0314 -1.0718
 3584TIP3    H110716   4.585   5.934   0.316  0.2470  1.2101 -0.5194
 3584TIP3    H210717   4.643   5.871   0.192  1.6569 -1.7629  1.5378
 3585TIP3   OH210718   4.380   2.587   2.991 -0.1912 -0.0685  0.3309
 3585TIP3    H110719   4.371   2.543   3.075  1.8544 -0.3568  0.4479
 3585TIP3    H210720   4.473   2.577   2.969 -0.4687  0.9458 -1.4377
 3586TIP3   OH210721   6.020   5.492   4.379  0.0076 -0.0496 -0.0670
 3586TIP3    H110722   5.943   5.449   4.416  1.3127 -2.0537  0.4831
 3586TIP3    H210723   6.050   5.432   4.310  1.2883  0.5173 -0.0220
 3587TIP3   OH210724   1.201   4.919   4.716 -0.1364  0.2626  0.0272
 3587TIP3    H110725   1.121   4.940   4.763 -0.7960 -1.2882 -0.3627
 3587TIP3    H210726   1.270   4.923   4.782 -0.7015  0.4041  0.6140
 3588TIP3   OH210727   0.176   3.506   2.100 -0.2592  0.1228  0.1806
 3588TIP3    H110728   0.167   3.599   2.079  0.0780 -0.0265 -0.6962
 3588TIP3    H210729   0.234   3.503   2.176  0.0515  0.6098 -0.0372
 3589TIP3   OH210730   4.640   1.926   4.334 -0.1628  0.4271 -0.2970
 3589TIP3    H110731   4.722   1.942   4.287 -1.5479  1.4942 -2.5558
 3589TIP3    H210732   4.576   1.982   4.289 -1.9887  0.1833  1.8465
 3590TIP3   OH210733   0.751   4.522   4.746  0.3688 -0.3373 -0.3497
 3590TIP3    H110734   0.717   4.481   4.826  0.2707  1.3402  0.5081
 3590TIP3    H210735   0.678   4.519   4.684 -0.3116  0.3496  0.3939
 3591TIP3   OH210736   4.090   1.374   5.575 -0.6923 -0.2106 -0.3649
 3591TIP3    H110737   4.123   1.287   5.554 -0.0141  0.1141 -0.6953
 3591TIP3    H210738   4.049   1.404   5.493 -2.1354 -0.7362  0.1311
 3592TIP3   OH210739   3.784   1.233   0.895  0.9350 -0.4229 -0.0904
 3592TIP3    H110740   3.719   1.183   0.944  0.8808 -0.5935 -0.3401
 3592TIP3    H210741   3.757   1.226   0.804  1.0858 -0.1728 -0.1554
 3593TIP3   OH210742   5.203   3.263   4.649  0.1760  0.0570 -0.3868
 3593TIP3    H110743   5.231   3.181   4.690  1.0566  0.3470 -0.3701
 3593TIP3    H210744   5.185   3.239   4.558 -0.7266 -0.3753 -0.1069
 3594TIP3   OH210745   2.782   3.510   1.264 -0.1205 -0.3223 -0.2923
 3594TIP3    H110746   2.859   3.467   1.226  0.0179  1.0738 -1.7082
 3594TIP3    H210747   2.743   3.558   1.191 -1.1254  0.7229  0.8806
 3595TIP3   OH210748   3.025   2.329   0.438 -0.0732 -0.1727  0.6240
 3595TIP3    H110749   3.045   2.422   0.430  2.6098 -0.6773  0.5973
 3595TIP3    H210750   2.929   2.325   0.438 -0.3431  2.3353 -2.3382
 3596TIP3   OH210751   4.262   5.272   3.302  0.1031 -0.2971 -0.1425
 3596TIP3    H110752   4.227   5.327   3.232 -1.6001 -0.1995  0.7320
 3596TIP3    H210753   4.206   5.194   3.301  0.6006 -0.6710  0.5720
 3597TIP3   OH210754   0.383   2.330   1.423  0.2335 -0.0199  0.2615
 3597TIP3    H110755   0.342   2.246   1.401 -0.2538 -0.3727  2.3336
 3597TIP3    H210756   0.367   2.385   1.346 -2.5916 -0.7162  0.2422
 3598TIP3   OH210757   4.097   2.203   2.801 -0.1589  0.4894  0.2377
 3598TIP3    H110758   4.114   2.294   2.822 -0.4224  0.6101 -0.0672
 3598TIP3    H210759   4.176   2.156   2.830 -0.3117  0.7153  1.0380
 3599TIP3   OH210760   6.828   1.497   3.455  0.0765 -0.4692  0.0776
 3599TIP3    H110761   6.791   1.582   3.478 -2.3564 -0.8756 -1.8557
 3599TIP3    H210762   6.915   1.517   3.422 -0.2319  1.2346  0.1951
 3600TIP3   OH210763   0.232   5.700   0.158  0.1944  0.1065  0.4278
 3600TIP3    H110764   0.321   5.735   0.165 -0.2138  0.8071  3.7100
 3600TIP3    H210765   0.178   5.758   0.212 -2.5570  0.3365 -2.2845
 3601TIP3   OH210766   5.906   2.976   4.895 -0.1877 -0.1072  0.4237
 3601TIP3    H110767   5.937   2.945   4.810  0.3126  0.4743  0.3869
 3601TIP3    H210768   5.833   2.918   4.917  1.0957 -1.7243  0.6574
 3602TIP3   OH210769   1.286   4.901   5.198 -0.4145  0.3342  0.1379
 3602TIP3    H110770   1.328   4.826   5.155 -0.9244 -1.6346  2.8172
 3602TIP3    H210771   1.302   4.887   5.291 -2.5433  2.3257  0.8891
 3603TIP3   OH210772   6.861   4.310   5.856  0.4738 -0.1674  0.9125
 3603TIP3    H110773   6.842   4.394   5.814  1.6767 -0.1033  0.4411
 3603TIP3    H210774   6.933   4.330   5.917 -1.0475 -0.3152  2.8348
 3604TIP3   OH210775   2.869   2.042   1.368  0.1243 -0.6210  0.2230
 3604TIP3    H110776   2.888   2.028   1.461  0.2598 -1.0952  0.1290
 3604TIP3    H210777   2.843   1.956   1.336 -0.0900 -0.4229 -0.1404
 3605TIP3   OH210778   6.036   6.548   0.600  0.1326  0.2109 -0.0950
 3605TIP3    H110779   5.940   6.551   0.603  0.1530  0.5403  1.6189
 3605TIP3    H210780   6.057   6.470   0.549 -1.0343  0.6470 -1.2867
 3606TIP3   OH210781   5.170   1.206   2.628  0.8895  0.0402  0.0478
 3606TIP3    H110782   5.144   1.249   2.546 -2.3235  0.3231  1.0490
 3606TIP3    H210783   5.166   1.112   2.608 -1.7294  0.0340  0.2303
 3607TIP3   OH210784   2.582   2.843   4.140  0.1037 -0.1770 -0.2840
 3607TIP3    H110785   2.653   2.832   4.077  0.7393  1.4108  0.1079
 3607TIP3    H210786   2.532   2.918   4.107 -1.9505 -1.7827 -1.0226
 3608TIP3   OH210787   6.920   1.487   1.597  0.0189  0.2684  0.3215
 3608TIP3    H110788   6.998   1.531   1.564  0.1001  0.4677  0.7727
 3608TIP3    H210789   6.941   1.467   1.688 -0.6959  0.8730  0.6259
 3609TIP3   OH210790   6.290   4.343   5.454 -0.1700  0.2670  0.1524
 3609TIP3    H110791   6.304   4.433   5.480  0.1291  0.7038 -1.4299
 3609TIP3    H210792   6.368   4.319   5.404 -0.8009 -0.4209 -0.5497
 3610TIP3   OH210793   1.116   1.281   3.042  0.1368 -0.5153  0.1814
 3610TIP3    H110794   1.044   1.344   3.051  1.1592  0.6539  0.5705
 3610TIP3    H210795   1.099   1.214   3.108 -0.2197  0.1418  0.7688
 3611TIP3   OH210796   0.227   1.035   1.174 -0.1500 -0.0358  0.2260
 3611TIP3    H110797   0.254   1.083   1.096  0.3644  0.1051  0.4888
 3611TIP3    H210798   0.304   1.036   1.231 -0.9827  1.1750  1.3826
 3612TIP3   OH210799   6.344   0.688   0.585 -0.4164 -0.5896  0.2411
 3612TIP3    H110800   6.431   0.687   0.624  0.7171  0.1219 -2.0691
 3612TIP3    H210801   6.308   0.773   0.609  0.8416  0.4408 -1.3094
 3613TIP3   OH210802   4.945   3.994   5.193  0.2541 -0.7075  0.1793
 3613TIP3    H110803   5.030   3.952   5.205  0.3785  0.0016  2.0670
 3613TIP3    H210804   4.891   3.961   5.265  0.1237  1.6962  1.2701
 3614TIP3   OH210805   5.055   1.971   1.386  0.2235 -0.3146 -0.0789
 3614TIP3    H110806   5.050   1.949   1.293  0.0396 -1.5724  0.2039
 3614TIP3    H210807   5.088   2.061   1.389  0.2246 -0.2661 -1.3518
 3615TIP3   OH210808   1.345   0.835   0.675  0.5307 -0.4592 -0.4728
 3615TIP3    H110809   1.257   0.800   0.687  0.5983 -0.4798 -0.0348
 3615TIP3    H210810   1.350   0.908   0.736  1.6123 -1.8899  1.2344
 3616TIP3   OH210811   5.393   2.924   5.088  0.1565 -0.1615 -0.5686
 3616TIP3    H110812   5.434   2.853   5.039 -0.7334  0.4680 -2.3311
 3616TIP3    H210813   5.344   2.881   5.157 -0.7780 -1.3270 -1.9154
 3617TIP3   OH210814   2.576   4.259   0.046 -0.5662  0.1634  0.1518
 3617TIP3    H110815   2.647   4.254  -0.019 -0.4081 -0.0912  0.3421
 3617TIP3    H210816   2.599   4.193   0.112 -0.7630  0.3715  0.4311
 3618TIP3   OH210817   4.918   5.117   3.911 -0.4347 -1.4388  0.3220
 3618TIP3    H110818   4.867   5.189   3.876 -1.1434 -2.2632 -0.4064
 3618TIP3    H210819   4.972   5.156   3.980 -1.1175 -0.3149  0.2368
 3619TIP3   OH210820   3.579   3.824   0.779 -0.1685 -0.4124  0.5476
 3619TIP3    H110821   3.600   3.863   0.864  0.4585 -1.1483  0.7423
 3619TIP3    H210822   3.586   3.897   0.717 -3.2417  0.8019  1.4105
 3620TIP3   OH210823   6.602   5.458   1.612 -0.2042  0.2310 -0.3648
 3620TIP3    H110824   6.607   5.364   1.628 -0.1388  0.3475  0.3212
 3620TIP3    H210825   6.675   5.475   1.551  0.1303 -0.0698 -0.0539
 3621TIP3   OH210826   2.726   6.668   5.385  0.3723  0.5286 -0.2710
 3621TIP3    H110827   2.794   6.686   5.450 -1.4666  0.8990  1.6782
 3621TIP3    H210828   2.716   6.573   5.386  0.2249  0.5464  0.1505
 3622TIP3   OH210829   3.959   6.495   1.514  0.7380 -0.2448  0.4476
 3622TIP3    H110830   3.906   6.564   1.473  1.4642 -0.6166 -1.2154
 3622TIP3    H210831   4.043   6.500   1.468  0.1551 -3.5999 -1.2904
 3623TIP3   OH210832   1.327   6.654   0.102 -0.2463 -0.2400 -0.2399
 3623TIP3    H110833   1.262   6.650   0.032 -2.2874 -1.0863  1.5633
 3623TIP3    H210834   1.367   6.567   0.103  0.8557  0.2258 -1.2344
 3624TIP3   OH210835   5.722   2.586   2.201 -0.6833 -0.0242 -0.1663
 3624TIP3    H110836   5.635   2.579   2.162 -0.6352 -0.9056 -0.1451
 3624TIP3    H210837   5.773   2.635   2.137 -0.9337 -0.3698 -0.6421
 3625TIP3   OH210838   5.116   6.367   2.882  0.0737  0.8245  0.4661
 3625TIP3    H110839   5.137   6.359   2.789  2.1988  1.8591  0.8048
 3625TIP3    H210840   5.157   6.290   2.922 -1.4938 -0.0393  0.4989
 3626TIP3   OH210841   3.510   4.043   0.605  0.2116 -0.0150  0.1361
 3626TIP3    H110842   3.523   4.131   0.569  0.3669 -0.1164 -0.0585
 3626TIP3    H210843   3.518   3.985   0.529 -0.6905 -0.1389  0.1255
 3627TIP3   OH210844   3.262   0.316   4.799  0.4202  0.5594 -0.1911
 3627TIP3    H110845   3.257   0.239   4.855 -0.5570 -0.3915 -1.5197
 3627TIP3    H210846   3.338   0.301   4.743 -1.7320 -1.2914 -2.9071
 3628TIP3   OH210847   1.368   3.173   5.470  0.3700  0.1821 -0.1453
 3628TIP3    H110848   1.448   3.221   5.491 -0.3650  0.9200  1.0067
 3628TIP3    H210849   1.298   3.238   5.474 -0.6017 -0.8965  1.1051
 3629TIP3   OH210850   0.017   6.670   2.388  0.0596 -0.7046 -0.1941
 3629TIP3    H110851   0.075   6.725   2.337 -0.7662 -0.5809 -1.0268
 3629TIP3    H210852   0.063   6.657   2.471  0.9818 -0.1053 -0.5964
 3630TIP3   OH210853   4.368   3.827   0.856  0.0562 -0.1031  0.0110
 3630TIP3    H110854   4.410   3.851   0.938  1.2053 -0.4417 -0.4645
 3630TIP3    H210855   4.362   3.731   0.859  0.8666 -0.1882 -0.6464
 3631TIP3   OH210856   6.195   2.674   5.782 -0.1975 -0.2390 -0.7149
 3631TIP3    H110857   6.204   2.606   5.850  0.4649  0.0124 -0.5447
 3631TIP3    H210858   6.104   2.701   5.788  0.1276  0.6370  0.9163
 3632TIP3   OH210859   6.857   2.908   0.851  0.0104 -0.5783 -0.1488
 3632TIP3    H110860   6.927   2.911   0.786  0.1491  0.0795  0.0148
 3632TIP3    H210861   6.903   2.903   0.935 -0.0969  0.7345  0.0091
 3633TIP3   OH210862   1.137   3.917   4.867 -0.9623  0.1829 -0.0584
 3633TIP3    H110863   1.070   3.926   4.935  0.4860  1.6125  1.2435
 3633TIP3    H210864   1.167   3.826   4.875 -0.2845  0.5406  1.7703
 3634TIP3   OH210865   5.822   2.437   5.877 -0.5187 -0.0026 -0.0384
 3634TIP3    H110866   5.869   2.381   5.815  0.4899  2.6366 -1.8502
 3634TIP3    H210867   5.887   2.460   5.943 -1.0193 -1.1465  0.8843
 3635TIP3   OH210868   5.403   1.020   2.308 -0.0314  0.6789 -0.8435
 3635TIP3    H110869   5.478   1.050   2.359 -1.9228  1.6069  1.5931
 3635TIP3    H210870   5.368   1.100   2.269 -0.7823  0.5391 -0.4711
 3636TIP3   OH210871   4.380   5.275   0.826  0.5865 -0.3055 -0.1532
 3636TIP3    H110872   4.460   5.309   0.866 -0.1181  0.1486  0.9107
 3636TIP3    H210873   4.394   5.180   0.821  1.2692 -0.2049 -0.1661
 3637TIP3   OH210874   2.022   5.596   5.783 -0.3716 -0.0436  0.3834
 3637TIP3    H110875   2.117   5.602   5.770 -0.6332  2.4493 -1.1928
 3637TIP3    H210876   1.995   5.686   5.803 -2.6393 -0.2045 -1.4967
 3638TIP3   OH210877   2.223   0.398   1.564 -0.4629 -0.0802  0.8946
 3638TIP3    H110878   2.234   0.320   1.618  1.3885 -1.6449 -1.5355
 3638TIP3    H210879   2.150   0.377   1.506  1.0642 -0.8133 -0.8759
 3639TIP3   OH210880   1.849   6.230   2.608  0.6626 -0.5225 -0.0327
 3639TIP3    H110881   1.850   6.185   2.692  2.0289  0.5493  0.5481
 3639TIP3    H210882   1.908   6.179   2.553  2.7455  0.8520  0.8275
 3640TIP3   OH210883   5.921   4.969   4.648  0.5248  0.3013 -0.1302
 3640TIP3    H110884   5.862   4.900   4.680  0.4559 -0.0607 -0.9924
 3640TIP3    H210885   5.940   5.022   4.724  0.0421 -0.2929  0.4158
 3641TIP3   OH210886   3.602   1.439   4.620 -0.2150 -0.0899 -0.1652
 3641TIP3    H110887   3.613   1.529   4.651  0.8581 -0.6067  1.0779
 3641TIP3    H210888   3.517   1.412   4.654 -0.3787  0.3345 -0.2339
 3642TIP3   OH210889   3.184   4.569   3.318 -0.4207  0.2617  0.4124
 3642TIP3    H110890   3.129   4.521   3.381  1.0056 -2.4767 -0.2731
 3642TIP3    H210891   3.267   4.581   3.363 -0.7302  2.1846  0.5498
 3643TIP3   OH210892   0.035   0.197   4.210  0.1169 -0.1726  0.2573
 3643TIP3    H110893  -0.038   0.258   4.206 -0.7259 -1.1976 -0.3927
 3643TIP3    H210894   0.091   0.222   4.137 -0.6565 -0.6909 -0.5326
 3644TIP3   OH210895   2.536   5.353   0.726  0.1426  0.2582 -0.3974
 3644TIP3    H110896   2.512   5.389   0.811 -0.3615 -2.3365  0.6654
 3644TIP3    H210897   2.454   5.324   0.687  0.6396 -1.4935 -0.2649
 3645TIP3   OH210898   5.444   4.558   0.246  0.1840  0.2669 -0.1488
 3645TIP3    H110899   5.489   4.486   0.291 -1.5096 -0.4530  0.4615
 3645TIP3    H210900   5.427   4.524   0.158 -1.7621 -0.6284  0.5286
 3646TIP3   OH210901   2.634   2.735   1.799 -0.2370  0.4497  0.1065
 3646TIP3    H110902   2.646   2.667   1.866  0.5107  0.5138  0.0537
 3646TIP3    H210903   2.576   2.799   1.840  0.4330  0.6278  0.8195
 3647TIP3   OH210904   0.051   2.518   0.251 -0.1639 -0.6278  0.0874
 3647TIP3    H110905  -0.018   2.584   0.241 -1.2671 -1.5083  1.4177
 3647TIP3    H210906   0.006   2.444   0.292  1.1630 -1.9994 -0.8733
 3648TIP3   OH210907   6.742   3.770   4.750  0.0017  0.2052 -0.3177
 3648TIP3    H110908   6.727   3.850   4.701 -2.4094  0.2617  0.3467
 3648TIP3    H210909   6.819   3.788   4.804 -1.2823  2.6420  0.8668
 3649TIP3   OH210910   2.306   0.622   1.291  0.2048 -0.6103  0.2993
 3649TIP3    H110911   2.341   0.698   1.246  0.1293 -0.4597  0.4948
 3649TIP3    H210912   2.217   0.612   1.257  0.3984 -0.9344 -0.1246
 3650TIP3   OH210913   1.316   4.101   3.182  0.6324 -0.1752 -0.1972
 3650TIP3    H110914   1.254   4.033   3.159 -1.4356  1.3323  0.6089
 3650TIP3    H210915   1.396   4.079   3.134 -0.8119 -1.6613 -2.0253
 3651TIP3   OH210916   6.163   3.495   0.645 -0.4219  0.2892 -0.0446
 3651TIP3    H110917   6.230   3.495   0.713  0.2625 -0.9878 -0.6962
 3651TIP3    H210918   6.118   3.579   0.657  0.0970  0.3874  1.5541
 3652TIP3   OH210919   2.948   1.448   5.596 -0.2195 -0.1664  0.0413
 3652TIP3    H110920   3.042   1.448   5.576 -0.0811 -0.2693  0.6758
 3652TIP3    H210921   2.942   1.408   5.683 -0.8798 -0.4439 -0.1275
 3653TIP3   OH210922   4.335   6.270   3.258 -0.4276  0.6948  0.1407
 3653TIP3    H110923   4.364   6.353   3.297 -1.2220  1.5231 -0.9315
 3653TIP3    H210924   4.405   6.208   3.276  1.0512  2.0821 -0.5894
 3654TIP3   OH210925   2.145   2.999   1.057 -0.4573  0.6282 -0.3700
 3654TIP3    H110926   2.079   2.934   1.033 -0.5584  0.6959 -0.2771
 3654TIP3    H210927   2.101   3.056   1.120 -0.7712  1.5305 -1.3740
 3655TIP3   OH210928   2.294   2.821   2.103 -0.5022  0.1496  0.4487
 3655TIP3    H110929   2.362   2.815   2.036  0.4828 -0.1296  1.4471
 3655TIP3    H210930   2.338   2.860   2.179 -1.7931  1.2095  0.6815
 3656TIP3   OH210931   4.079   5.164   2.299  0.4972 -0.6926 -0.2161
 3656TIP3    H110932   4.063   5.238   2.240  2.6260  0.1769  0.1795
 3656TIP3    H210933   3.993   5.126   2.314 -0.6107  1.4056 -0.8313
 3657TIP3   OH210934   6.146   2.635   4.429  0.0403  0.2565  0.0570
 3657TIP3    H110935   6.133   2.615   4.521  0.1872  0.2337  0.0729
 3657TIP3    H210936   6.226   2.687   4.426 -1.2896  2.4042  0.2066
 3658TIP3   OH210937   5.861   3.940   4.409 -0.4463  0.0293  0.0817
 3658TIP3    H110938   5.878   3.846   4.413  1.2905  0.3547  1.4558
 3658TIP3    H210939   5.784   3.948   4.353 -1.2121 -2.2874  0.6805
 3659TIP3   OH210940   2.920   6.099   5.205 -0.4540 -0.3379 -0.1177
 3659TIP3    H110941   2.886   6.124   5.119  2.7207 -2.3664 -2.1458
 3659TIP3    H210942   2.899   6.006   5.213  0.3522 -0.4633  0.7299
 3660TIP3   OH210943   6.040   2.945   1.243 -0.2002 -0.0911 -0.0951
 3660TIP3    H110944   5.956   2.926   1.285  0.2408 -1.1808  0.3283
 3660TIP3    H210945   6.099   2.877   1.276  1.1660  1.3354  0.5310
 3661TIP3   OH210946   0.549   4.896   2.965  0.4363  0.0860  0.2158
 3661TIP3    H110947   0.537   4.883   2.871 -3.2280 -1.4842  0.7077
 3661TIP3    H210948   0.611   4.827   2.991 -0.1652 -0.8812 -0.7983
 3662TIP3   OH210949   1.920   3.851   4.884 -0.3858 -0.2254 -0.3438
 3662TIP3    H110950   1.999   3.876   4.835 -0.1683  0.6598  0.4326
 3662TIP3    H210951   1.904   3.760   4.859  0.0071  0.0548 -1.6633
 3663TIP3   OH210952   2.639   2.505   5.796 -0.3893  0.6403  0.1816
 3663TIP3    H110953   2.710   2.475   5.740 -0.7702 -1.2755  0.6588
 3663TIP3    H210954   2.591   2.425   5.819 -0.3058  1.3333  3.1409
 3664TIP3   OH210955   1.575   1.464   5.535 -0.1333  0.1349 -0.3012
 3664TIP3    H110956   1.662   1.443   5.501 -0.1663 -1.3809  0.4807
 3664TIP3    H210957   1.589   1.542   5.589  0.1454  1.8321 -2.6586
 3665TIP3   OH210958   2.208   4.562   1.244 -0.0652  0.2539  0.0064
 3665TIP3    H110959   2.299   4.554   1.216 -0.1966 -0.6735 -0.1930
 3665TIP3    H210960   2.189   4.655   1.236  0.8531  0.4543  0.0139
 3666TIP3   OH210961   2.070   5.896   2.591 -0.0912  0.2372  0.4954
 3666TIP3    H110962   2.023   5.908   2.509 -0.1306  2.4234  0.7788
 3666TIP3    H210963   2.106   5.807   2.586  0.4642  0.5411 -2.1458
 3667TIP3   OH210964   4.215   3.968   1.468  0.2256 -0.1192 -0.0018
 3667TIP3    H110965   4.228   3.984   1.562 -1.4126 -0.3130  0.2946
 3667TIP3    H210966   4.211   3.873   1.461  1.4655 -0.1628 -0.4732
 3668TIP3   OH210967   0.609   4.598   0.661  0.0703  0.1168 -0.5869
 3668TIP3    H110968   0.682   4.546   0.692  0.0854  0.9558  0.8464
 3668TIP3    H210969   0.545   4.596   0.732 -0.2686  1.3893 -0.8283
 3669TIP3   OH210970   4.493   5.163   2.026  0.3024  0.2326  0.0787
 3669TIP3    H110971   4.484   5.135   2.118  0.0627  0.4863  0.1346
 3669TIP3    H210972   4.571   5.218   2.025  0.2600  0.2945  0.1480
 3670TIP3   OH210973   4.650   3.116   5.441 -0.3862  0.3554  0.2825
 3670TIP3    H110974   4.695   3.102   5.524 -1.2887  1.1040  0.9178
 3670TIP3    H210975   4.720   3.137   5.379  0.4389 -1.4472  0.5282
 3671TIP3   OH210976   2.467   1.573   0.196  0.0578 -0.3306  0.3161
 3671TIP3    H110977   2.467   1.667   0.178  0.9273 -0.1397  1.2260
 3671TIP3    H210978   2.375   1.549   0.203 -0.1664  0.8482  1.9543
 3672TIP3   OH210979   3.688   1.334   0.416  0.8190  0.1875  0.2791
 3672TIP3    H110980   3.735   1.416   0.429 -0.0459  0.8396 -0.5637
 3672TIP3    H210981   3.723   1.299   0.334  1.7602 -0.7168  1.0381
 3673TIP3   OH210982   5.358   2.393   3.026 -0.4477 -0.8075 -0.7070
 3673TIP3    H110983   5.325   2.446   2.953  1.1629  0.6111 -0.4725
 3673TIP3    H210984   5.421   2.334   2.986 -1.2008 -1.6068 -0.7537
 3674TIP3   OH210985   0.849   3.423   4.751 -0.0416 -0.5909 -0.7111
 3674TIP3    H110986   0.844   3.352   4.687  0.3512  0.8455 -2.4103
 3674TIP3    H210987   0.887   3.383   4.829  1.6003 -1.9442 -2.1273
 3675TIP3   OH210988   1.858   3.716   1.733  0.1608 -0.2482 -0.3722
 3675TIP3    H110989   1.769   3.733   1.703 -0.1273 -0.0037  0.5701
 3675TIP3    H210990   1.852   3.724   1.828  1.4711  1.1683 -0.3738
 3676TIP3   OH210991   0.492   0.754   0.906  0.6028 -0.0729 -0.2413
 3676TIP3    H110992   0.495   0.739   0.811  1.1313 -0.5579 -0.1537
 3676TIP3    H210993   0.401   0.736   0.931  0.1503  1.2347 -0.8348
 3677TIP3   OH210994   6.949   2.598   0.883  0.1780 -0.0823 -0.2796
 3677TIP3    H110995   7.025   2.541   0.871 -0.3536 -1.0235  0.7242
 3677TIP3    H210996   6.976   2.663   0.948 -0.1688 -0.9852  0.7807
 3678TIP3   OH210997   0.957   6.347   2.436  0.2650  0.6091  0.2676
 3678TIP3    H110998   1.027   6.328   2.499  0.1728 -0.5470  0.0350
 3678TIP3    H210999   0.893   6.278   2.449 -0.1462  0.8228 -0.5391
 3679TIP3   OH211000   2.023   1.821   0.490  0.0547  0.2156  0.3421
 3679TIP3    H111001   2.087   1.860   0.430  0.0455 -0.5114 -0.1507
 3679TIP3    H211002   2.061   1.737   0.515 -0.9459 -0.4968 -0.4185
 3680TIP3   OH211003   5.496   1.701   3.824  1.5104 -0.1874  0.0064
 3680TIP3    H111004   5.567   1.657   3.871  1.3371 -0.4568  0.0202
 3680TIP3    H211005   5.442   1.629   3.790  1.0706  0.0173  0.2619
 3681TIP3   OH211006   7.029   3.018   2.493  0.0295  0.3369 -0.2028
 3681TIP3    H111007   7.004   3.096   2.542 -0.5850 -0.3797  0.6686
 3681TIP3    H211008   7.094   2.974   2.549 -2.1884 -1.5684  1.0538
 3682TIP3   OH211009   2.331   6.639   2.491  0.3414  0.3813  0.0325
 3682TIP3    H111010   2.311   6.700   2.420  1.3566  2.4752  1.4423
 3682TIP3    H211011   2.280   6.671   2.565  0.8865 -0.5181  0.8195
 3683TIP3   OH211012   0.186   1.461   4.183  0.0907 -0.1255 -0.1022
 3683TIP3    H111013   0.123   1.517   4.137 -1.1086 -2.5480 -1.6117
 3683TIP3    H211014   0.145   1.375   4.186  2.5969 -1.4157  0.4804
 3684TIP3   OH211015   0.442   0.693   1.720 -0.1509  0.0096  0.3276
 3684TIP3    H111016   0.514   0.703   1.657 -1.9126  2.7734 -1.4293
 3684TIP3    H211017   0.453   0.766   1.781 -1.9409  1.0115 -0.5021
 3685TIP3   OH211018   5.542   2.994   2.242  0.5230  0.1904 -0.1482
 3685TIP3    H111019   5.529   2.982   2.337  3.3004 -2.7776  0.0462
 3685TIP3    H211020   5.466   2.950   2.203  0.2979 -0.2420  0.7235
 3686TIP3   OH211021   3.586   3.048   1.272  0.3752 -0.4088  0.3699
 3686TIP3    H111022   3.547   2.964   1.295 -1.6806  0.7005  1.2377
 3686TIP3    H211023   3.515   3.112   1.286  2.6397  1.8579  2.5126
 3687TIP3   OH211024   5.548   4.080   0.734  0.0078  0.6051 -0.5790
 3687TIP3    H111025   5.558   4.004   0.791 -0.5470 -0.0688 -1.3457
 3687TIP3    H211026   5.633   4.124   0.737 -0.2590  1.0380  1.3575
 3688TIP3   OH211027   0.614   6.602   4.215  0.0862  0.6200 -0.1529
 3688TIP3    H111028   0.623   6.670   4.282  0.4138  0.3554  0.0807
 3688TIP3    H211029   0.625   6.520   4.264 -0.0738  0.4077 -0.4690
 3689TIP3   OH211030   3.801   4.914   4.599 -0.1179 -0.7655  0.2808
 3689TIP3    H111031   3.789   4.930   4.506  3.6928 -0.6615 -0.3454
 3689TIP3    H211032   3.822   4.821   4.605 -1.2726 -0.9927  1.2038
 3690TIP3   OH211033   7.124   4.575   5.033 -0.6128 -0.3231 -0.3556
 3690TIP3    H111034   7.187   4.544   5.098  1.3050 -0.0044 -1.9777
 3690TIP3    H211035   7.095   4.660   5.066 -0.0324 -0.3817  0.3236
 3691TIP3   OH211036   5.454   4.534   3.826 -0.8079 -0.4807 -0.1400
 3691TIP3    H111037   5.437   4.572   3.740 -0.5036  0.2850  0.1205
 3691TIP3    H211038   5.512   4.460   3.809 -0.1260  0.1224 -0.5400
 3692TIP3   OH211039   4.908   0.370   5.405 -0.0114 -0.2446 -0.0142
 3692TIP3    H111040   4.935   0.378   5.496 -2.0843 -1.3192  0.7688
 3692TIP3    H211041   4.866   0.454   5.385 -0.3181 -0.3159  0.3180
 3693TIP3   OH211042   4.874   2.710   0.871 -0.3060  0.1848  0.6645
 3693TIP3    H111043   4.821   2.742   0.945 -2.8657 -0.3412 -0.7955
 3693TIP3    H211044   4.891   2.788   0.818  0.2952  0.3440  1.0931
 3694TIP3   OH211045   1.709   6.249   2.297  0.0981 -0.5876  0.1292
 3694TIP3    H111046   1.718   6.297   2.380  0.3251 -0.3981 -0.0030
 3694TIP3    H211047   1.615   6.250   2.279  0.0328 -0.7487  0.4541
 3695TIP3   OH211048   6.576   4.563   5.812  0.6402 -0.0669  0.4808
 3695TIP3    H111049   6.485   4.582   5.790  0.5727  0.3916  1.1313
 3695TIP3    H211050   6.592   4.612   5.893  1.4043 -0.3026  0.4801
 3696TIP3   OH211051   2.079   6.371   4.529 -0.0342  0.4675  0.2168
 3696TIP3    H111052   2.116   6.398   4.612 -0.5680  0.1042  0.5781
 3696TIP3    H211053   1.999   6.325   4.552  0.4793 -0.7998 -0.4058
 3697TIP3   OH211054   6.212   0.681   2.572 -0.0334 -0.0257 -0.1003
 3697TIP3    H111055   6.300   0.711   2.593 -0.4958  1.6909 -0.5286
 3697TIP3    H211056   6.194   0.717   2.485 -0.6897 -1.4352 -0.5850
 3698TIP3   OH211057   1.816   2.732   3.268  0.2484  0.3661  0.0733
 3698TIP3    H111058   1.818   2.643   3.303  0.1485 -0.0328 -0.9011
 3698TIP3    H211059   1.907   2.754   3.253  0.2050 -0.1530 -1.0678
 3699TIP3   OH211060   6.159   5.588   3.249 -0.8686  0.9212  0.1295
 3699TIP3    H111061   6.220   5.636   3.305 -1.6658  0.2192  1.6525
 3699TIP3    H211062   6.192   5.603   3.160  0.8653  1.4734  0.8175
 3700TIP3   OH211063   0.791   3.394   2.873 -0.0801  0.1360 -0.6018
 3700TIP3    H111064   0.835   3.367   2.953 -0.6495  0.2857 -0.2305
 3700TIP3    H211065   0.728   3.461   2.901  0.1343  0.6252 -1.2642
 3701TIP3   OH211066   1.941   5.294   3.997 -0.3821  0.2344 -0.9344
 3701TIP3    H111067   1.920   5.335   3.913 -2.1460 -0.1597 -0.7176
 3701TIP3    H211068   1.890   5.344   4.061  0.5015  0.1628 -0.1491
 3702TIP3   OH211069   2.542   0.256   0.340  0.6092  0.3306  0.2182
 3702TIP3    H111070   2.540   0.216   0.253  0.6456  0.1315  0.3073
 3702TIP3    H211071   2.632   0.285   0.351  0.1351  2.3100 -0.6772
 3703TIP3   OH211072   5.260   4.616   2.874 -0.6511 -0.1349 -0.1014
 3703TIP3    H111073   5.227   4.530   2.849  1.6405 -1.2666  0.5058
 3703TIP3    H211074   5.330   4.598   2.937  0.1919  2.1569 -0.2736
 3704TIP3   OH211075   6.727   0.133   3.965 -0.3029 -0.0238  0.1108
 3704TIP3    H111076   6.655   0.095   3.915  0.1032  1.9477 -2.1380
 3704TIP3    H211077   6.694   0.217   3.995  0.3686 -0.0382  0.9287
 3705TIP3   OH211078   1.408   5.297   2.784 -0.2027 -0.0604 -0.1914
 3705TIP3    H111079   1.419   5.386   2.753 -0.9846 -0.1844 -0.8627
 3705TIP3    H211080   1.497   5.263   2.794  0.1326  1.1339  1.1349
 3706TIP3   OH211081   2.808   4.131   2.153  0.7271  1.0953 -0.0729
 3706TIP3    H111082   2.814   4.225   2.167  0.7563  1.0019  0.5709
 3706TIP3    H211083   2.874   4.093   2.211  1.4354  0.7301 -1.0859
 3707TIP3   OH211084   1.464   0.428   3.689  0.1328  0.3885 -0.0963
 3707TIP3    H111085   1.522   0.351   3.695  2.1905  1.8050 -0.7224
 3707TIP3    H211086   1.461   0.448   3.596  1.9798  2.6775  0.2437
 3708TIP3   OH211087   4.128   0.327   5.007 -0.0447  0.0294 -0.2580
 3708TIP3    H111088   4.143   0.282   5.090 -0.6172  1.1793  0.4896
 3708TIP3    H211089   4.039   0.363   5.015  0.8180  2.3473 -0.2873
 3709TIP3   OH211090   0.618   1.050   2.412 -0.9121  0.1602 -0.3915
 3709TIP3    H111091   0.566   0.982   2.371 -1.2088  0.1929 -0.0672
 3709TIP3    H211092   0.570   1.131   2.394 -0.0460  0.4211 -1.6519
 3710TIP3   OH211093   4.998   4.012   5.700 -0.1565 -0.3493 -0.3159
 3710TIP3    H111094   4.979   4.105   5.713 -0.0870 -0.1056 -1.7752
 3710TIP3    H211095   5.093   4.006   5.706 -0.2754 -0.7196  1.9361
 3711TIP3   OH211096   3.491   4.830   1.778 -0.4470 -0.3918  0.2190
 3711TIP3    H111097   3.513   4.792   1.863  0.1484  1.1238  0.7802
 3711TIP3    H211098   3.429   4.900   1.798  1.0491  1.1711 -0.3269
 3712TIP3   OH211099   7.218   2.946   4.183  0.5533 -0.3135  0.4029
 3712TIP3    H111100   7.272   3.013   4.226 -0.5728  0.0851  1.2643
 3712TIP3    H211101   7.132   2.955   4.225  0.2133 -1.9039  0.1105
 3713TIP3   OH211102   2.628   4.555   1.776  0.3772 -0.3751 -0.0372
 3713TIP3    H111103   2.585   4.632   1.738 -1.2878 -0.7809  0.9244
 3713TIP3    H211104   2.715   4.587   1.801 -0.1620  1.1234  0.0505
 3714TIP3   OH211105   6.592   2.163   5.123  0.5026  0.0621  0.1563
 3714TIP3    H111106   6.610   2.090   5.063  0.9175  0.6096 -0.3917
 3714TIP3    H211107   6.651   2.148   5.197  1.4556  0.4920 -0.5051
 3715TIP3   OH211108   1.147   2.605   1.900  0.0357  0.6406 -0.0715
 3715TIP3    H111109   1.234   2.620   1.862 -0.3162 -0.2478 -1.2773
 3715TIP3    H211110   1.164   2.596   1.994  1.1207  1.4083 -0.1653
 3716TIP3   OH211111   3.297   6.143   4.767  0.2007  0.4577 -0.1580
 3716TIP3    H111112   3.237   6.211   4.798 -2.8889 -1.6961 -0.8281
 3716TIP3    H211113   3.283   6.140   4.672  2.9556  1.1643 -0.6586
 3717TIP3   OH211114   3.033   0.007   0.283  0.6072  0.3724  0.3056
 3717TIP3    H111115   3.050   0.088   0.331  0.4820 -0.0077  1.0074
 3717TIP3    H211116   2.989   0.035   0.203 -2.4694  0.7876  1.9959
 3718TIP3   OH211117   3.633   0.213   5.755  0.1830 -0.3365 -0.3979
 3718TIP3    H111118   3.705   0.270   5.728 -1.4379  2.3920  0.6190
 3718TIP3    H211119   3.557   0.248   5.708 -1.0919 -0.9471  1.1458
 3719TIP3   OH211120   2.485   1.940   4.279 -0.4497  0.1759  0.1297
 3719TIP3    H111121   2.401   1.895   4.290 -0.6195  0.5548  0.4324
 3719TIP3    H211122   2.548   1.869   4.266 -0.7631 -0.1322  0.2462
 3720TIP3   OH211123   4.521   1.259   2.431  0.2608  0.1784  0.2648
 3720TIP3    H111124   4.604   1.276   2.477  0.5627  0.7055 -0.4624
 3720TIP3    H211125   4.458   1.316   2.474  0.8837  1.8722 -0.9744
 3721TIP3   OH211126   1.316   1.154   3.932  0.0115  0.1576 -0.3756
 3721TIP3    H111127   1.362   1.223   3.980 -1.5434 -1.6690  4.3659
 3721TIP3    H211128   1.229   1.189   3.916 -1.1257 -0.7668  2.9637
 3722TIP3   OH211129   3.776   2.400   2.373 -0.4702 -0.6630  0.1325
 3722TIP3    H111130   3.814   2.315   2.393 -0.2401 -0.5282  0.2813
 3722TIP3    H211131   3.816   2.425   2.290  0.7712  0.0539  0.9088
 3723TIP3   OH211132   0.157   1.228   1.946  0.0985  0.7657  0.5929
 3723TIP3    H111133   0.220   1.210   1.877  0.0469  1.0584  0.4660
 3723TIP3    H211134   0.125   1.142   1.974 -1.0181  0.6939 -0.7932
 3724TIP3   OH211135   2.629   2.256   0.082  0.1819 -0.2314  0.1250
 3724TIP3    H111136   2.641   2.227   0.172  2.6520  0.6859  0.1533
 3724TIP3    H211137   2.683   2.334   0.074 -0.6655  0.2183 -1.9344
 3725TIP3   OH211138   2.628   6.035   3.812 -0.1523  0.3810  0.2820
 3725TIP3    H111139   2.680   6.093   3.756 -2.0438 -0.2682 -2.3466
 3725TIP3    H211140   2.541   6.075   3.813 -1.3351 -1.9122 -1.0603
 3726TIP3   OH211141   2.116   2.551   0.033 -0.3352  0.3742 -0.4055
 3726TIP3    H111142   2.115   2.601  -0.048  0.6351 -0.4871 -0.9648
 3726TIP3    H211143   2.032   2.571   0.075  0.0278  2.4616 -0.5974
 3727TIP3   OH211144   3.305   6.156   1.532  0.4338 -0.0031  0.1269
 3727TIP3    H111145   3.317   6.092   1.601  0.4424  0.0940  0.2167
 3727TIP3    H211146   3.393   6.177   1.503  0.3551 -2.0686 -1.8063
 3728TIP3   OH211147   2.073   3.199   2.136  0.0477 -0.3443  0.2558
 3728TIP3    H111148   2.015   3.253   2.082  2.0446  1.7636  0.0297
 3728TIP3    H211149   2.042   3.110   2.124 -0.1697  0.0897 -3.7334
 3729TIP3   OH211150   2.379   5.769   4.396 -0.2442  0.6695  0.6051
 3729TIP3    H111151   2.458   5.719   4.377 -0.2491 -0.0700  2.3590
 3729TIP3    H211152   2.406   5.861   4.389  0.1968  0.4618 -0.9263
 3730TIP3   OH211153   2.004   3.903   4.233 -0.5068 -0.3258  0.0666
 3730TIP3    H111154   2.007   3.903   4.328 -0.3577 -1.4089  0.0856
 3730TIP3    H211155   1.914   3.879   4.211 -1.3410  2.6304 -0.1329
 3731TIP3   OH211156   1.234   6.542   1.662  0.4510 -0.5109  0.0010
 3731TIP3    H111157   1.280   6.487   1.725 -1.4014 -2.6336 -0.4173
 3731TIP3    H211158   1.244   6.497   1.578 -2.2153 -1.0144 -0.1266
 3732TIP3   OH211159   6.429   2.739   4.413  0.1028  0.1408 -0.2414
 3732TIP3    H111160   6.469   2.683   4.479  0.2733 -1.5079 -1.6642
 3732TIP3    H211161   6.491   2.812   4.403  1.1508 -0.7118 -0.1152
 3733TIP3   OH211162   3.458   6.293   2.716  0.1479  1.2054  0.3121
 3733TIP3    H111163   3.517   6.296   2.792 -0.1010  0.5117  0.5478
 3733TIP3    H211164   3.381   6.342   2.744 -0.0396  0.7576  0.6082
 3734TIP3   OH211165   0.165   4.820   2.107 -0.5609 -0.3895 -0.2704
 3734TIP3    H111166   0.241   4.865   2.069 -0.4110 -0.7545 -0.4048
 3734TIP3    H211167   0.093   4.881   2.094 -0.2927 -0.0389 -0.1453
 3735TIP3   OH211168   2.020   3.943   0.067 -0.8034 -0.1849 -0.0342
 3735TIP3    H111169   2.010   3.995   0.148  0.4953 -0.3287  0.2474
 3735TIP3    H211170   1.954   3.875   0.074 -1.7565  0.7236  0.1516
 3736TIP3   OH211171   3.477   2.854   1.947 -0.4389  0.2717  0.0426
 3736TIP3    H111172   3.508   2.866   2.037 -0.7731  0.3250  0.1542
 3736TIP3    H211173   3.555   2.865   1.893 -0.0085 -0.9260  0.3954
 3737TIP3   OH211174   3.899   5.632   5.147  0.1935 -0.5591  0.2869
 3737TIP3    H111175   3.974   5.641   5.205 -0.0456  2.4402  0.2859
 3737TIP3    H211176   3.929   5.666   5.062 -1.1853  1.0637  0.3853
 3738TIP3   OH211177   5.081   0.570   5.836 -0.4959 -1.2035 -0.3301
 3738TIP3    H111178   5.145   0.515   5.791 -0.3974 -0.1418 -1.5345
 3738TIP3    H211179   5.088   0.655   5.794 -1.6047 -0.6307  0.5814
 3739TIP3   OH211180   3.313   6.519   2.820  0.2975  0.1240 -0.5512
 3739TIP3    H111181   3.245   6.547   2.881  2.5648  0.6455  1.9028
 3739TIP3    H211182   3.395   6.532   2.867  2.2185  0.2945 -3.6390
 3740TIP3   OH211183   4.640   5.877   3.427 -0.4666  0.2248  0.1811
 3740TIP3    H111184   4.579   5.810   3.397 -0.3277 -0.4956  1.4492
 3740TIP3    H211185   4.587   5.957   3.429 -0.3416  0.4488 -2.4157
 3741TIP3   OH211186   4.996   1.130   4.761 -0.0955 -0.3186  0.6967
 3741TIP3    H111187   4.911   1.097   4.735  0.3004 -0.5890 -0.2811
 3741TIP3    H211188   5.048   1.131   4.681  0.9752 -0.6194  1.3554
 3742TIP3   OH211189   1.730   6.581   0.470  0.6923  0.5386  0.0027
 3742TIP3    H111190   1.788   6.573   0.546  0.4713 -1.2322  0.0181
 3742TIP3    H211191   1.660   6.518   0.487 -0.0856  1.0942 -1.0497
 3743TIP3   OH211192   2.931   0.750   4.611 -0.0300 -0.1711 -0.2350
 3743TIP3    H111193   3.004   0.713   4.660  0.2186  0.7050  0.0828
 3743TIP3    H211194   2.854   0.707   4.647  0.1911  0.1230  0.6148
 3744TIP3   OH211195   2.385   0.035   3.965  0.0788  0.1418  0.1001
 3744TIP3    H111196   2.438   0.090   4.022 -0.5569  1.4966 -0.5748
 3744TIP3    H211197   2.399   0.069   3.877 -0.1834 -0.9032 -0.3743
 3745TIP3   OH211198   2.136   4.740   3.698  0.0411 -0.1969  0.1432
 3745TIP3    H111199   2.063   4.685   3.669 -1.1297  1.4591 -0.1949
 3745TIP3    H211200   2.097   4.800   3.761  1.5466 -0.5006  1.4168
 3746TIP3   OH211201   1.305   0.140   3.142  0.6038  0.0755 -0.6804
 3746TIP3    H111202   1.214   0.122   3.166 -0.4483  0.8433 -3.6386
 3746TIP3    H211203   1.350   0.057   3.156 -0.7199 -0.5485  0.1120
 3747TIP3   OH211204   0.943   5.702   0.781  0.3887  0.0681 -0.2258
 3747TIP3    H111205   0.926   5.639   0.712 -1.0050 -0.6456  0.7188
 3747TIP3    H211206   1.018   5.753   0.750  0.0196 -0.4562 -2.0744
 3748TIP3   OH211207   2.471   0.703   3.078 -0.2079  0.1872  0.6695
 3748TIP3    H111208   2.454   0.646   3.153  0.5199 -1.2258 -0.1986
 3748TIP3    H211209   2.566   0.717   3.080 -0.0146 -0.7753 -0.5928
 3749TIP3   OH211210   2.758   2.235   0.517 -0.0626  0.1877  0.0359
 3749TIP3    H111211   2.763   2.194   0.604  1.8046  0.6508  0.2008
 3749TIP3    H211212   2.735   2.326   0.534  1.9598  0.7053  0.2427
 3750TIP3   OH211213   1.305   6.365   1.448  0.4137  0.1028 -0.4893
 3750TIP3    H111214   1.369   6.299   1.422  0.1772  0.2893 -1.5802
 3750TIP3    H211215   1.328   6.443   1.399  0.4290  0.7245  0.4734
 3751TIP3   OH211216   0.273   1.848   5.854 -0.0357  0.9853  0.6366
 3751TIP3    H111217   0.314   1.870   5.938  0.9918 -0.1689  0.4624
 3751TIP3    H211218   0.279   1.928   5.803  2.9802  0.6571  0.2660
 3752TIP3   OH211219   2.089   0.460   3.008 -0.6298  0.5369  0.6944
 3752TIP3    H111220   2.024   0.521   2.974 -2.4714 -2.3044 -1.4108
 3752TIP3    H211221   2.153   0.451   2.937  0.1814  0.7659  1.3840
 3753TIP3   OH211222   5.042   0.025   1.545  0.2578 -0.1777  0.8859
 3753TIP3    H111223   5.061  -0.069   1.553  1.5936  0.0376  0.4411
 3753TIP3    H211224   5.122   0.069   1.571 -0.5658  0.8847  1.7158
 3754TIP3   OH211225   5.254   1.621   5.511  0.3214  0.1312  0.0138
 3754TIP3    H111226   5.334   1.573   5.491 -0.0555 -0.2276 -0.6611
 3754TIP3    H211227   5.273   1.711   5.481  0.6788  0.1839  0.3933
 3755TIP3   OH211228   6.524   1.049   4.578 -0.4311  0.2097  0.1707
 3755TIP3    H111229   6.437   1.023   4.607 -0.6641  0.8873  0.1028
 3755TIP3    H211230   6.561   0.970   4.539 -0.6275 -0.3578  1.0906
 3756TIP3   OH211231   7.027   2.006   0.124  0.0786  0.2352 -0.1848
 3756TIP3    H111232   7.109   2.051   0.105  0.0421  0.1404 -0.5871
 3756TIP3    H211233   6.999   2.041   0.208  0.6969  0.0233  0.1090
 3757TIP3   OH211234   6.302   1.577   4.629 -0.7140 -0.1831  0.2295
 3757TIP3    H111235   6.285   1.513   4.560 -2.2786  0.3767  0.0493
 3757TIP3    H211236   6.216   1.616   4.647  0.1425  1.7066  0.4749
 3758TIP3   OH211237   5.798   5.844   4.960 -0.1897  0.4879 -0.3466
 3758TIP3    H111238   5.792   5.749   4.955  0.9169  0.4443 -1.4556
 3758TIP3    H211239   5.872   5.861   5.018 -0.2400  0.6749 -0.3347
 3759TIP3   OH211240   5.627   0.968   4.819  0.4185 -0.0671  0.4825
 3759TIP3    H111241   5.610   1.054   4.782  1.3057 -0.3134 -0.5608
 3759TIP3    H211242   5.719   0.970   4.845  1.0512 -1.2917 -1.4061
 3760TIP3   OH211243   3.135   6.267   1.884 -0.7719  0.0196 -0.3224
 3760TIP3    H111244   3.215   6.271   1.831 -1.0627 -0.0727 -0.7748
 3760TIP3    H211245   3.102   6.178   1.872 -1.4877  0.3555 -0.9650
 3761TIP3   OH211246   5.917   3.342   5.750  0.6390  0.2693 -0.4397
 3761TIP3    H111247   6.006   3.342   5.713 -0.0867  0.5265 -2.2628
 3761TIP3    H211248   5.867   3.283   5.693 -0.3546  0.0309  0.6369
 3762TIP3   OH211249   1.701   4.356   0.952 -0.3400 -0.3076 -0.0528
 3762TIP3    H111250   1.637   4.287   0.967 -0.7549 -0.3487 -1.7247
 3762TIP3    H211251   1.663   4.408   0.881  1.0153  0.2629 -0.3948
 3763TIP3   OH211252   5.556   6.751   1.535  0.3956  0.0186 -0.1908
 3763TIP3    H111253   5.625   6.795   1.585  0.6250  1.5388 -1.7407
 3763TIP3    H211254   5.475   6.783   1.574  0.5166 -1.5329  1.4366
 3764TIP3   OH211255   0.690   2.397   1.299  0.1384  0.1296 -0.1731
 3764TIP3    H111256   0.786   2.389   1.306 -0.0846 -2.3553  1.9867
 3764TIP3    H211257   0.669   2.475   1.349  0.9258 -1.0205  2.1278
 3765TIP3   OH211258   5.327   0.779   2.397 -0.2769 -0.2708  0.0885
 3765TIP3    H111259   5.359   0.866   2.373  0.1272 -0.5488 -0.4113
 3765TIP3    H211260   5.406   0.726   2.407 -0.4919 -0.4086  1.0919
 3766TIP3   OH211261   7.012   4.887   3.000 -0.2373  0.1848  0.6766
 3766TIP3    H111262   6.943   4.882   2.933  1.4906  1.4386 -1.2961
 3766TIP3    H211263   7.026   4.796   3.026 -0.9145 -0.3488 -0.7038
 3767TIP3   OH211264   0.308   3.387   2.684  0.1958  0.4190  0.1462
 3767TIP3    H111265   0.229   3.411   2.635  0.4269 -0.6413 -0.8018
 3767TIP3    H211266   0.357   3.469   2.690 -0.0236  0.6750 -1.0992
 3768TIP3   OH211267   6.788   2.080   5.285 -0.4545  0.2020  0.4846
 3768TIP3    H111268   6.849   2.107   5.355  1.3132 -2.9507  0.3503
 3768TIP3    H211269   6.731   2.016   5.327 -0.6333 -0.2902 -0.5023
 3769TIP3   OH211270   3.888   4.365   0.279 -0.1401  0.3208 -0.0378
 3769TIP3    H111271   3.896   4.294   0.343  0.8883 -0.0802 -0.5962
 3769TIP3    H211272   3.831   4.429   0.322 -1.1634 -0.8574  0.4568
 3770TIP3   OH211273   5.040   6.288   5.108  0.1408  0.2926 -0.1204
 3770TIP3    H111274   5.040   6.220   5.176 -0.0604  0.1173 -0.2936
 3770TIP3    H211275   4.951   6.285   5.072  0.0656  0.8028  0.0205
 3771TIP3   OH211276   5.634   2.274   1.604 -0.6708  0.1728  0.2899
 3771TIP3    H111277   5.579   2.303   1.677  1.8645  0.0492  2.4372
 3771TIP3    H211278   5.647   2.180   1.620 -0.0650  0.1502 -0.2922
 3772TIP3   OH211279   1.866   2.753   3.710  0.0135 -0.5940 -0.6598
 3772TIP3    H111280   1.911   2.773   3.628 -0.7738  0.6895 -0.8044
 3772TIP3    H211281   1.854   2.658   3.708  1.6565 -0.8171 -1.1429
 3773TIP3   OH211282   5.962   1.825   3.788  0.4319  0.1157  0.0105
 3773TIP3    H111283   5.968   1.738   3.828  0.0945 -0.4157 -1.0474
 3773TIP3    H211284   5.985   1.810   3.696 -0.0332  1.0722 -0.2736
 3774TIP3   OH211285   6.327   5.850   2.657  0.0251  0.0410 -0.3317
 3774TIP3    H111286   6.298   5.864   2.747  1.3493  0.5299  0.0489
 3774TIP3    H211287   6.327   5.938   2.618  0.2227 -0.0583 -0.5619
 3775TIP3   OH211288   1.252   5.715   2.148 -0.7652  0.3161 -0.2191
 3775TIP3    H111289   1.319   5.735   2.214  0.6237 -0.2532 -1.3992
 3775TIP3    H211290   1.239   5.797   2.102 -0.2042  0.2206 -0.5593
 3776TIP3   OH211291   1.684   6.302   3.079 -0.1631  0.3102 -0.4424
 3776TIP3    H111292   1.738   6.360   3.026 -0.6012 -0.1698 -1.4437
 3776TIP3    H211293   1.609   6.356   3.104  0.5065  0.8255  0.5273
 3777TIP3   OH211294   2.880   4.631   1.740  1.1950 -0.2903 -0.0052
 3777TIP3    H111295   2.933   4.624   1.661 -1.3120  0.7554 -1.8953
 3777TIP3    H211296   2.872   4.726   1.755  0.4814 -0.4525  0.6774
 3778TIP3   OH211297   6.569   3.220   5.421  0.4423 -0.7988 -0.2616
 3778TIP3    H111298   6.604   3.293   5.472 -0.7872  1.0034 -1.8676
 3778TIP3    H211299   6.482   3.205   5.458 -0.4239  0.4645 -1.6695
 3779TIP3   OH211300   5.401   3.469   5.793 -0.1943  0.2738  0.4113
 3779TIP3    H111301   5.435   3.549   5.835 -0.7334 -0.0456  1.4939
 3779TIP3    H211302   5.440   3.398   5.843 -4.7321 -0.1968  3.9604
 3780TIP3   OH211303   0.585   2.488   1.780 -0.5188 -0.2469  0.0269
 3780TIP3    H111304   0.603   2.473   1.873  0.5217  0.0240 -0.1158
 3780TIP3    H211305   0.631   2.569   1.759  1.2968 -1.5113 -1.2614
 3781TIP3   OH211306   1.583   5.260   0.852 -0.1194 -0.1805 -0.0256
 3781TIP3    H111307   1.517   5.194   0.874  0.9638 -1.5469 -0.6764
 3781TIP3    H211308   1.532   5.339   0.831 -1.4320 -0.6682  1.1792
 3782TIP3   OH211309   1.045   0.045   2.551  0.0966  0.6083 -0.1581
 3782TIP3    H111310   0.975   0.003   2.500 -0.1126  0.5386  0.1814
 3782TIP3    H211311   1.094   0.097   2.486  0.1642  0.0934 -0.5227
 3783TIP3   OH211312   3.893   1.685   1.273 -0.6523  0.3582  0.6103
 3783TIP3    H111313   3.960   1.671   1.341  0.2344  1.6944  0.0681
 3783TIP3    H211314   3.943   1.695   1.192 -1.6793 -0.8537 -0.2031
 3784TIP3   OH211315   5.954   0.587   2.712  0.6514  0.0192 -0.1522
 3784TIP3    H111316   5.963   0.506   2.762 -0.4990 -0.4615 -0.6883
 3784TIP3    H211317   6.015   0.578   2.639 -0.5616 -1.0665 -1.0748
 3785TIP3   OH211318   2.348   5.432   2.943 -0.1193  0.0715 -0.0707
 3785TIP3    H111319   2.358   5.452   3.036 -1.6917 -2.3547  0.7067
 3785TIP3    H211320   2.415   5.366   2.925 -1.0272 -0.8821 -0.1077
 3786TIP3   OH211321   0.614   0.159   5.063 -0.1903  0.0074  0.0165
 3786TIP3    H111322   0.583   0.086   5.116 -0.4348  0.2092  0.1557
 3786TIP3    H211323   0.703   0.135   5.039  0.0590  0.0893  0.8475
 3787TIP3   OH211324   0.625   1.256   5.674 -0.2429 -0.0546 -0.0241
 3787TIP3    H111325   0.533   1.228   5.672 -0.3913  0.3165  1.2155
 3787TIP3    H211326   0.631   1.315   5.749  0.8460  0.5383 -0.5506
 3788TIP3   OH211327   6.619   5.694   1.794  0.1796 -0.2558 -0.1553
 3788TIP3    H111328   6.623   5.607   1.755  0.2411 -0.0243 -0.6702
 3788TIP3    H211329   6.609   5.678   1.888  1.0889 -0.8273 -0.1477
 3789TIP3   OH211330   0.004   5.901   3.240  0.6002 -0.3956 -0.0978
 3789TIP3    H111331   0.069   5.850   3.289  1.3274 -0.0941 -0.7246
 3789TIP3    H211332   0.056   5.962   3.187 -0.1845 -0.2808 -0.7622
 3790TIP3   OH211333   6.794   6.188   1.740  0.2489  0.2210 -0.2066
 3790TIP3    H111334   6.743   6.117   1.779 -0.1475  1.5337  1.8663
 3790TIP3    H211335   6.728   6.249   1.707  0.5791 -0.1339 -1.5563
 3791TIP3   OH211336   6.021   0.333   4.612 -0.4909  0.2400 -0.7315
 3791TIP3    H111337   5.964   0.410   4.616 -0.9714 -0.1588  0.7143
 3791TIP3    H211338   5.998   0.282   4.689  2.7106  0.6902  0.6765
 3792TIP3   OH211339   0.226   5.787   5.121 -0.3823  0.1953  0.3224
 3792TIP3    H111340   0.277   5.717   5.161 -1.0197  0.6740  2.0565
 3792TIP3    H211341   0.185   5.832   5.195 -1.5066  1.2187 -0.8782
 3793TIP3   OH211342   5.426   4.181   2.382  0.4550 -0.0173 -0.2185
 3793TIP3    H111343   5.341   4.141   2.393  0.1081  0.8733  0.4646
 3793TIP3    H211344   5.469   4.171   2.467 -0.6935  3.3664  0.9329
 3794TIP3   OH211345   0.401   0.479   0.776 -0.2866 -0.3084 -0.7565
 3794TIP3    H111346   0.347   0.462   0.853 -0.4727 -0.2217 -0.8679
 3794TIP3    H211347   0.339   0.509   0.709 -0.1394 -0.4778 -0.9694
 3795TIP3   OH211348   2.647   3.067   5.306  0.1116 -0.2946 -0.0369
 3795TIP3    H111349   2.719   3.064   5.369 -0.5334  0.3407  0.7530
 3795TIP3    H211350   2.579   3.119   5.350 -0.4552 -0.0732 -1.1474
 3796TIP3   OH211351   4.763   5.913   1.179  0.7258 -0.4172  0.1846
 3796TIP3    H111352   4.693   5.874   1.126 -0.8953  0.5257  1.5455
 3796TIP3    H211353   4.786   5.844   1.241 -1.8025  0.4866  2.2727
 3797TIP3   OH211354   4.153   6.625   5.598 -0.2391 -0.0180  0.3681
 3797TIP3    H111355   4.102   6.573   5.536 -0.5731 -0.3992  0.9491
 3797TIP3    H211356   4.131   6.716   5.577  0.2116 -0.1081 -0.5405
 3798TIP3   OH211357   1.339   4.703   2.160  0.0968 -0.3300 -0.0956
 3798TIP3    H111358   1.367   4.785   2.201 -1.4804 -0.7469  2.0037
 3798TIP3    H211359   1.345   4.720   2.066 -0.3680  2.2879  0.2712
 3799TIP3   OH211360   3.667   3.762   3.125  0.7573  0.1450  0.5960
 3799TIP3    H111361   3.605   3.820   3.170  0.5000  0.0293  0.3920
 3799TIP3    H211362   3.745   3.763   3.180  0.0855 -0.8115  1.5984
 3800TIP3   OH211363   3.097   0.900   1.941 -0.2612 -0.5170  0.3171
 3800TIP3    H111364   3.050   0.984   1.941  1.6166  0.6392 -1.8139
 3800TIP3    H211365   3.039   0.841   1.893 -0.5883  0.2481 -0.2679
 3801TIP3   OH211366   6.705   6.143   0.426  0.4076 -0.3049 -0.4176
 3801TIP3    H111367   6.774   6.208   0.412  0.1709 -0.1551 -0.8975
 3801TIP3    H211368   6.752   6.060   0.431  1.0418  0.1097  2.9660
 3802TIP3   OH211369   4.474   2.370   0.852  0.1068  0.2788  0.0551
 3802TIP3    H111370   4.538   2.346   0.786 -0.0186  1.0627 -0.3681
 3802TIP3    H211371   4.426   2.289   0.869  0.2183  0.0342 -0.7299
 3803TIP3   OH211372   5.380   5.793   4.706 -0.4126 -0.2058  0.2254
 3803TIP3    H111373   5.431   5.779   4.626 -0.8361 -0.9232  0.0729
 3803TIP3    H211374   5.439   5.843   4.763 -0.0172  0.0910 -0.4361
 3804TIP3   OH211375   6.703   6.723   4.162 -0.4448  0.4345 -0.3257
 3804TIP3    H111376   6.739   6.677   4.238 -0.8040  2.0009  0.8491
 3804TIP3    H211377   6.772   6.719   4.096  1.0993  1.6103  1.1560
 3805TIP3   OH211378   6.540   0.027   5.866 -0.5467  0.2444  0.1643
 3805TIP3    H111379   6.634   0.043   5.879  0.3109 -2.8067 -1.4612
 3805TIP3    H211380   6.521   0.066   5.781 -0.2856 -0.6648 -0.3234
 3806TIP3   OH211381   3.553   2.390   1.604 -0.3727 -0.3739 -0.1358
 3806TIP3    H111382   3.603   2.467   1.576 -0.7279 -0.0517  0.1045
 3806TIP3    H211383   3.559   2.390   1.699 -0.1883 -0.7735 -0.1439
 3807TIP3   OH211384   6.570   3.606   1.365 -0.6054  0.1086 -0.3483
 3807TIP3    H111385   6.514   3.660   1.421  1.5570  0.9201  1.1113
 3807TIP3    H211386   6.595   3.532   1.420 -0.7679 -0.6020 -1.2141
 3808TIP3   OH211387   0.131   1.973   0.339  0.1989  0.1507  0.4199
 3808TIP3    H111388   0.067   2.028   0.384 -0.8413 -0.7089  0.0534
 3808TIP3    H211389   0.212   1.984   0.389  0.0056  1.9241  0.3961
 3809TIP3   OH211390   3.338   0.444   3.008  0.3688 -0.1995 -0.4596
 3809TIP3    H111391   3.251   0.453   2.970  0.4692  1.3474 -0.3648
 3809TIP3    H211392   3.375   0.367   2.964 -1.0886 -0.9962 -0.3669
 3810TIP3   OH211393   1.484   2.915   5.577 -0.4701 -0.0586  0.1819
 3810TIP3    H111394   1.485   3.006   5.548 -1.7026 -0.1856 -0.3031
 3810TIP3    H211395   1.464   2.864   5.499  0.6173 -0.8090  0.3566
 3811TIP3   OH211396   3.184   3.995   1.142 -0.2891 -0.1469  0.4146
 3811TIP3    H111397   3.252   4.041   1.094 -1.7437  0.7083 -0.9259
 3811TIP3    H211398   3.142   3.939   1.077  0.4472 -2.3256  1.6719
 3812TIP3   OH211399   7.049   5.451   0.905 -0.0972  0.5763  0.3173
 3812TIP3    H111400   7.077   5.452   0.814 -1.6712  0.0917 -0.2148
 3812TIP3    H211401   7.023   5.541   0.923 -3.4406  0.0531 -1.0246
 3813TIP3   OH211402   4.791   1.070   2.478 -0.3305 -0.2257 -0.8416
 3813TIP3    H111403   4.821   1.161   2.484  0.6980 -0.3898 -2.7316
 3813TIP3    H211404   4.707   1.069   2.524  0.5099  1.2360  0.8542
 3814TIP3   OH211405   2.405   4.210   2.089 -0.4851 -0.3296  0.4367
 3814TIP3    H111406   2.445   4.292   2.062 -1.1710 -0.7475 -2.0650
 3814TIP3    H211407   2.473   4.144   2.073 -0.8882 -0.5837 -0.2317
 3815TIP3   OH211408   6.995   5.775   3.075  0.0284 -0.0538 -0.6992
 3815TIP3    H111409   6.967   5.862   3.103 -1.2608 -1.0532  1.3505
 3815TIP3    H211410   7.073   5.757   3.127  0.2549 -0.1549 -1.0716
 3816TIP3   OH211411   4.821   5.040   5.307 -0.1740  0.0264 -0.1223
 3816TIP3    H111412   4.830   4.968   5.370 -0.2943  0.6240  0.5931
 3816TIP3    H211413   4.876   5.109   5.342  1.4720 -0.3580 -1.8193
 3817TIP3   OH211414   4.024   4.047   5.010 -0.1495  0.3268  0.4403
 3817TIP3    H111415   3.967   4.124   5.004 -0.4765  0.0181 -0.5947
 3817TIP3    H211416   4.047   4.028   4.919 -0.7569 -1.2958  0.5984
 3818TIP3   OH211417   6.460   3.502   5.345  0.2079  0.2284 -0.2542
 3818TIP3    H111418   6.465   3.597   5.334 -1.0091  0.2652 -0.5623
 3818TIP3    H211419   6.444   3.490   5.439 -1.7373  0.4321 -0.5320
 3819TIP3   OH211420   6.401   4.740   0.004 -0.3054 -0.1222  0.1078
 3819TIP3    H111421   6.347   4.673  -0.037  0.8542 -0.9835 -0.0789
 3819TIP3    H211422   6.454   4.692   0.068 -1.2382  1.0029  1.8039
 3820TIP3   OH211423   0.072   5.478   0.640  0.3632 -0.0206  0.7916
 3820TIP3    H111424   0.029   5.560   0.616  0.2603 -0.4471 -0.5284
 3820TIP3    H211425   0.102   5.441   0.557  0.7906 -1.1151  1.4132
 3821TIP3   OH211426   3.856   4.119   3.566 -0.5640 -0.0831 -0.4525
 3821TIP3    H111427   3.870   4.044   3.507 -0.4928  0.5300 -1.2268
 3821TIP3    H211428   3.858   4.195   3.508 -1.5838  0.4502  0.1972
 3822TIP3   OH211429   1.565   0.848   4.435  0.1418 -0.0875  0.1372
 3822TIP3    H111430   1.642   0.904   4.425  0.5818 -0.2879  1.9350
 3822TIP3    H211431   1.598   0.770   4.479 -0.9021 -0.6807 -0.0991
 3823TIP3   OH211432   6.272   5.771   0.898  0.1970  0.8850  0.8696
 3823TIP3    H111433   6.307   5.754   0.986 -0.9249  1.3908  1.4311
 3823TIP3    H211434   6.189   5.816   0.913 -1.5674 -1.6926 -0.3368
 3824TIP3   OH211435   6.868   1.094   3.502  0.5226 -0.0694  0.1576
 3824TIP3    H111436   6.918   1.155   3.448  1.0422  2.0009  2.7494
 3824TIP3    H211437   6.786   1.140   3.520  0.2960 -0.7755  0.9820
 3825TIP3   OH211438   4.597   4.187   0.069  0.4228  0.7179 -0.4464
 3825TIP3    H111439   4.571   4.273   0.104  0.8296  0.7789 -0.2892
 3825TIP3    H211440   4.617   4.203  -0.023 -0.0950  0.6701 -0.5701
 3826TIP3   OH211441   4.927   0.944   0.821  0.4867 -0.0040 -0.3421
 3826TIP3    H111442   4.938   0.911   0.911  1.3036  0.7723 -0.1470
 3826TIP3    H211443   4.909   0.865   0.769  1.5596 -0.6687  0.2584
 3827TIP3   OH211444   4.776   2.689   2.829  0.1435 -0.2124 -0.0089
 3827TIP3    H111445   4.693   2.737   2.834  0.3037  0.1942 -1.0325
 3827TIP3    H211446   4.750   2.597   2.823 -0.2445 -0.0819 -0.3969
 3828TIP3   OH211447   5.015   2.901   3.055  0.4756 -0.1723  0.0453
 3828TIP3    H111448   4.928   2.928   3.084 -0.0491 -1.5655 -0.1855
 3828TIP3    H211449   5.069   2.908   3.134 -0.2636 -1.0594  0.6568
 3829TIP3   OH211450   4.321   3.713   3.903  1.1746 -0.4525 -0.5337
 3829TIP3    H111451   4.384   3.694   3.972  1.7149  0.2327 -0.8232
 3829TIP3    H211452   4.265   3.635   3.899  1.2583 -0.5741  0.5308
 3830TIP3   OH211453   6.281   4.346   4.600 -0.5580 -0.0506 -0.4965
 3830TIP3    H111454   6.329   4.380   4.524  0.9778 -0.9696  0.0327
 3830TIP3    H211455   6.211   4.410   4.613  0.9960  1.8388 -0.7871
 3831TIP3   OH211456   0.067   0.770   3.990  0.3223 -0.0823 -0.2552
 3831TIP3    H111457  -0.006   0.798   3.934 -0.7926 -0.1093  1.1334
 3831TIP3    H211458   0.087   0.847   4.043 -0.6189 -0.8845  1.3395
 3832TIP3   OH211459   4.203   4.711   3.816 -0.2707  0.1258  0.0796
 3832TIP3    H111460   4.150   4.782   3.852 -0.2604 -0.3951  1.1523
 3832TIP3    H211461   4.172   4.633   3.861  0.0250 -0.4986 -0.7651
 3833TIP3   OH211462   3.709   4.259   3.028 -0.0409 -0.3566 -0.5110
 3833TIP3    H111463   3.761   4.287   2.953 -1.9272 -1.8043 -2.5050
 3833TIP3    H211464   3.699   4.338   3.081  0.9164  0.8714 -2.0607
 3834TIP3   OH211465   6.615   2.364   1.586 -0.0131  0.1605  0.4901
 3834TIP3    H111466   6.525   2.373   1.557  0.1960  1.6002  0.2041
 3834TIP3    H211467   6.630   2.440   1.642  1.4533  0.7684 -0.6458
 3835TIP3   OH211468   1.097   1.850   3.914  0.5586  0.5183 -0.1239
 3835TIP3    H111469   1.123   1.935   3.951  3.1194 -0.2819  0.1064
 3835TIP3    H211470   1.147   1.843   3.832 -0.4146 -0.3410 -0.6645
 3836TIP3   OH211471   6.522   5.281   1.919 -0.5658  0.1190 -0.5941
 3836TIP3    H111472   6.565   5.366   1.921 -0.7043  0.1796 -0.1282
 3836TIP3    H211473   6.567   5.233   1.850 -0.5272  0.5917 -0.9027
 3837TIP3   OH211474   6.347   6.688   4.821 -0.0825  0.5667  0.3901
 3837TIP3    H111475   6.362   6.673   4.727  0.4611  0.0222  0.5594
 3837TIP3    H211476   6.345   6.783   4.830  0.8039  0.6323 -0.0328
 3838TIP3   OH211477   2.049   5.702   4.164  0.1558  0.2841  0.2968
 3838TIP3    H111478   2.080   5.782   4.208 -0.6422  0.5972  0.3002
 3838TIP3    H211479   1.960   5.722   4.137 -0.6888 -1.1830  1.8048
 3839TIP3   OH211480   3.125   3.858   4.494 -0.0370  0.4494 -0.0117
 3839TIP3    H111481   3.080   3.891   4.416  1.2866 -0.0390 -1.0351
 3839TIP3    H211482   3.098   3.766   4.500  2.9509 -0.8044 -2.4602
 3840TIP3   OH211483   3.522   0.400   0.432 -0.4799 -0.0521 -0.0823
 3840TIP3    H111484   3.540   0.352   0.512  1.5022 -0.5581 -0.7781
 3840TIP3    H211485   3.607   0.438   0.407 -1.6297  2.5884 -0.3755
 3841TIP3   OH211486   3.782   6.482   2.332  0.0831 -0.1827  0.0849
 3841TIP3    H111487   3.714   6.542   2.364  0.5636  0.6372 -0.3811
 3841TIP3    H211488   3.746   6.395   2.347 -1.2754  0.2234 -0.5745
 3842TIP3   OH211489   6.525   1.753   2.081 -0.3096  0.2673 -0.4085
 3842TIP3    H111490   6.524   1.711   1.996  0.1284 -1.5745  0.4514
 3842TIP3    H211491   6.551   1.844   2.062 -0.7582  0.0501 -2.2596
 3843TIP3   OH211492   0.115   3.565   4.062 -0.1769  0.4766 -0.2370
 3843TIP3    H111493   0.205   3.571   4.093  0.0226 -2.5097  0.0006
 3843TIP3    H211494   0.063   3.557   4.141 -0.3560 -0.4159 -0.4352
 3844TIP3   OH211495   1.930   4.888   1.786 -0.6251  0.3328  0.4828
 3844TIP3    H111496   1.857   4.927   1.835 -1.5184 -0.1131 -0.4587
 3844TIP3    H211497   1.895   4.875   1.698  0.3191 -0.7024  0.2452
 3845TIP3   OH211498   1.538   5.987   2.696 -0.3149 -0.0484  0.3022
 3845TIP3    H111499   1.464   6.002   2.637 -0.4061  1.5663  0.7752
 3845TIP3    H211500   1.506   6.014   2.782  1.2259  2.1130  0.2772
 3846TIP3   OH211501   0.772   3.378   4.121 -0.4000 -0.0684 -0.0464
 3846TIP3    H111502   0.685   3.362   4.083 -0.1951  1.6219 -1.3338
 3846TIP3    H211503   0.764   3.461   4.167  0.1866 -0.6022  1.0511
 3847TIP3   OH211504   0.517   1.384   0.487  0.3472  0.1268 -0.4855
 3847TIP3    H111505   0.535   1.417   0.575 -0.7824  1.4947 -0.7238
 3847TIP3    H211506   0.602   1.384   0.443  0.8184  0.0364  0.4067
 3848TIP3   OH211507   5.396   2.586   1.497 -0.3225  0.4861 -0.2338
 3848TIP3    H111508   5.353   2.501   1.483  1.2558 -0.2814 -0.6906
 3848TIP3    H211509   5.467   2.566   1.557  0.3277  1.3957 -0.6846
 3849TIP3   OH211510   4.259   6.749   0.075  0.4491 -0.1877 -0.1191
 3849TIP3    H111511   4.295   6.838   0.071 -0.1118  0.0234 -0.7498
 3849TIP3    H211512   4.335   6.692   0.070  0.6783  0.2294 -2.6749
 3850TIP3   OH211513   5.404   6.372   4.133  0.3309  0.1433 -0.5714
 3850TIP3    H111514   5.431   6.294   4.181  1.0998  1.1644  0.7125
 3850TIP3    H211515   5.457   6.371   4.053  4.7924  2.2837  1.9945
 3851TIP3   OH211516   6.759   0.058   4.747  0.5004  0.6958  0.1297
 3851TIP3    H111517   6.738   0.048   4.654  2.8871  0.2769 -0.4274
 3851TIP3    H211518   6.852   0.037   4.753  0.4651  0.9690  2.5934
 3852TIP3   OH211519   2.440   3.583   0.189  0.1767 -0.4774  0.6230
 3852TIP3    H111520   2.521   3.590   0.239 -0.4556 -1.3936  1.8330
 3852TIP3    H211521   2.374   3.560   0.254 -0.6979 -1.5655 -0.5975
 3853TIP3   OH211522   0.432   1.308   1.886 -0.6045  0.6389  0.5566
 3853TIP3    H111523   0.399   1.343   1.969 -0.1151  0.6921  0.7297
 3853TIP3    H211524   0.444   1.386   1.832 -1.1222  0.5877  0.3565
 3854TIP3   OH211525   6.105   1.413   1.713 -0.0301  0.4720  0.0100
 3854TIP3    H111526   6.098   1.368   1.629  1.7572 -0.4730  0.3166
 3854TIP3    H211527   6.100   1.506   1.690  0.8816  0.2493 -1.2234
 3855TIP3   OH211528   4.373   2.571   3.548 -0.0207 -0.9208 -0.9045
 3855TIP3    H111529   4.297   2.604   3.596  1.6552  1.9421 -0.0108
 3855TIP3    H211530   4.415   2.649   3.513  3.3507 -2.1981 -0.0603
 3856TIP3   OH211531   1.362   3.088   4.673 -0.2223 -0.3055 -0.3970
 3856TIP3    H111532   1.318   3.005   4.652 -1.0468 -0.3557  1.3828
 3856TIP3    H211533   1.301   3.156   4.644 -1.1885 -0.3736  1.3466
 3857TIP3   OH211534   0.402   0.131   2.200  0.1301  0.0138 -0.0274
 3857TIP3    H111535   0.326   0.130   2.259  1.0413  1.4583  1.2671
 3857TIP3    H211536   0.380   0.197   2.134  0.9982  1.9748  1.5227
 3858TIP3   OH211537   5.068   2.478   5.164  0.3480  0.4804  0.3300
 3858TIP3    H111538   5.125   2.488   5.088  0.0472  0.0594  0.0481
 3858TIP3    H211539   5.128   2.480   5.239  0.5626  1.8070  0.1502
 3859TIP3   OH211540   1.961   4.397   4.022  0.2987  0.3291  1.1842
 3859TIP3    H111541   1.890   4.383   4.085  0.1976 -1.4929  0.7227
 3859TIP3    H211542   1.992   4.309   4.002 -0.3282  0.7324 -2.0735
 3860TIP3   OH211543   6.015   5.409   0.152  0.1934  0.5130 -0.2976
 3860TIP3    H111544   5.959   5.471   0.106 -0.4955  0.4242  0.4042
 3860TIP3    H211545   6.025   5.445   0.239 -0.8494 -0.7146  0.3641
 3861TIP3   OH211546   2.209   5.684   0.110 -0.4504 -0.0859  0.2278
 3861TIP3    H111547   2.281   5.693   0.048 -0.0849  2.2913  0.9011
 3861TIP3    H211548   2.131   5.675   0.055  0.1049 -0.2591 -0.5479
 3862TIP3   OH211549   4.669   4.369   0.321  0.8258  0.1479  0.6600
 3862TIP3    H111550   4.610   4.444   0.325 -0.2056 -0.6935  1.5585
 3862TIP3    H211551   4.723   4.386   0.244  0.3096  1.5851  0.5854
 3863TIP3   OH211552   2.438   2.722   4.436  0.3155 -0.1157 -0.6508
 3863TIP3    H111553   2.455   2.672   4.356 -1.7845 -0.3866 -0.9840
 3863TIP3    H211554   2.371   2.670   4.483 -1.3042  1.9018 -0.5900
 3864TIP3   OH211555   4.540   4.830   0.963 -0.2461  0.0200 -0.3520
 3864TIP3    H111556   4.631   4.827   0.994 -0.7740  0.0543  1.3242
 3864TIP3    H211557   4.506   4.742   0.980 -1.6502  1.0210  2.9293
 3865TIP3   OH211558   0.540   1.974   0.289 -0.3044  0.0727  0.4018
 3865TIP3    H111559   0.482   1.964   0.365 -1.3625 -0.7707 -0.4738
 3865TIP3    H211560   0.612   1.913   0.305 -0.7081 -0.3652  0.5685
 3866TIP3   OH211561   0.955   1.629   4.139 -0.0498 -0.3052  0.4214
 3866TIP3    H111562   1.030   1.637   4.081 -1.0031 -1.3128 -1.0315
 3866TIP3    H211563   0.883   1.601   4.082 -1.6056  0.8727  1.6971
 3867TIP3   OH211564   6.820   3.465   4.131  1.0269 -0.0367 -0.5800
 3867TIP3    H111565   6.784   3.385   4.169 -1.0099  1.0528 -0.0929
 3867TIP3    H211566   6.826   3.527   4.203  2.8654  0.2255 -0.8883
 3868TIP3   OH211567   0.374   0.524   3.223 -0.3494 -0.1189 -0.0611
 3868TIP3    H111568   0.423   0.509   3.142 -0.3732 -0.0574 -0.0869
 3868TIP3    H211569   0.318   0.599   3.203 -1.1561 -0.7890 -0.3325
 3869TIP3   OH211570   3.601   5.798   5.763 -0.2323  0.3068  0.1207
 3869TIP3    H111571   3.556   5.754   5.835  0.8149 -0.1938  0.4921
 3869TIP3    H211572   3.636   5.878   5.802 -3.8998  2.7273 -1.0106
 3870TIP3   OH211573   7.211   4.742   2.663  0.4583  0.0678 -0.3530
 3870TIP3    H111574   7.124   4.714   2.692  1.0317 -0.7539  0.6579
 3870TIP3    H211575   7.236   4.677   2.596 -0.0011  0.7504 -1.2120
 3871TIP3   OH211576   6.106   2.620   4.948  0.9924  0.4066 -0.2987
 3871TIP3    H111577   6.082   2.688   5.011 -1.1727  0.6105 -1.2373
 3871TIP3    H211578   6.123   2.543   5.001  0.5964  0.9319  0.6246
 3872TIP3   OH211579   3.296   3.779   3.662 -0.3103 -0.1477 -0.3697
 3872TIP3    H111580   3.320   3.714   3.596 -0.0205  0.3225 -0.7250
 3872TIP3    H211581   3.372   3.784   3.720  0.6605  1.6191 -1.7107
 3873TIP3   OH211582   0.401   1.559   3.013  0.2577  0.2298 -0.0006
 3873TIP3    H111583   0.305   1.558   3.016  0.2430 -0.1300 -0.3917
 3873TIP3    H211584   0.428   1.549   3.104 -0.0805 -0.0886  0.0696
 3874TIP3   OH211585   3.437   2.731   3.197  0.2948  0.2502 -0.0449
 3874TIP3    H111586   3.383   2.655   3.220 -0.6130  1.2473  1.2559
 3874TIP3    H211587   3.376   2.791   3.153  0.6300  0.8877  0.3541
 3875TIP3   OH211588   0.503   4.230   4.400 -0.4214  0.0624 -0.1124
 3875TIP3    H111589   0.508   4.286   4.322  0.3358 -0.9461 -0.8164
 3875TIP3    H211590   0.594   4.212   4.422 -0.6246 -2.0021 -0.7527
 3876TIP3   OH211591   1.468   4.664   0.473  0.2411  0.2141  0.3078
 3876TIP3    H111592   1.536   4.731   0.470  0.5534 -0.1397 -0.6306
 3876TIP3    H211593   1.440   4.653   0.382 -0.0018 -0.7294  0.4868
 3877TIP3   OH211594   0.927   1.735   1.054  0.3870  0.1398 -0.3473
 3877TIP3    H111595   0.881   1.760   1.135 -1.8556 -3.6567 -0.2151
 3877TIP3    H211596   1.006   1.690   1.084  0.1395 -0.2560 -0.2807
 3878TIP3   OH211597   1.095   3.053   4.430  0.5968  0.1055 -0.5754
 3878TIP3    H111598   1.177   3.039   4.383  0.1383 -0.0791 -1.3501
 3878TIP3    H211599   1.115   3.118   4.496  1.3719  0.0427 -0.7474
 3879TIP3   OH211600   2.047   0.306   1.369 -0.1446 -0.3555 -0.4968
 3879TIP3    H111601   1.982   0.308   1.300  1.4718  0.2168 -2.0729
 3879TIP3    H211602   2.129   0.332   1.327  1.7210 -3.5849  0.7475
 3880TIP3   OH211603   2.731   6.062   1.626  0.2382 -0.2214 -0.0864
 3880TIP3    H111604   2.735   6.154   1.599  1.9765  0.4071  2.0444
 3880TIP3    H211605   2.735   6.013   1.543  1.3692  1.6034 -1.1819
 3881TIP3   OH211606   2.381   5.532   1.946  0.0179  0.7458  0.0156
 3881TIP3    H111607   2.394   5.448   1.902 -1.0843  1.0473 -0.9217
 3881TIP3    H211608   2.431   5.595   1.894  0.1227  0.8223  0.2057
 3882TIP3   OH211609   2.534   5.597   3.440  0.0841 -0.5069 -0.5778
 3882TIP3    H111610   2.506   5.667   3.499 -0.2949 -0.8946 -0.2881
 3882TIP3    H211611   2.497   5.517   3.479 -1.5350 -0.5953 -2.1714
 3883TIP3   OH211612   7.228   2.666   1.816 -0.0664  0.1435  0.5601
 3883TIP3    H111613   7.137   2.666   1.844 -0.4213 -0.3690 -0.5290
 3883TIP3    H211614   7.241   2.580   1.775 -0.0851  1.3517 -2.2726
 3884TIP3   OH211615   2.184   1.425   4.030  0.0916 -0.3409 -0.6244
 3884TIP3    H111616   2.238   1.345   4.027  1.5640  0.6470 -1.8563
 3884TIP3    H211617   2.100   1.398   3.993 -0.1684 -1.8084  0.9057
 3885TIP3   OH211618   5.618   6.389   1.349 -0.2745  0.5637 -0.2136
 3885TIP3    H111619   5.621   6.436   1.266 -0.8975  1.7049  0.3919
 3885TIP3    H211620   5.530   6.403   1.382 -1.0837 -2.4464 -0.7804
 3886TIP3   OH211621   0.592   4.056   3.997 -0.1604  0.1492  0.3182
 3886TIP3    H111622   0.606   4.149   4.013 -0.1505  0.2207 -0.1105
 3886TIP3    H211623   0.511   4.052   3.947  0.7633  0.0612 -1.2111
 3887TIP3   OH211624   0.858   6.304   4.666  0.6325  0.4798  0.1650
 3887TIP3    H111625   0.947   6.281   4.692  0.3089 -0.4057  0.5407
 3887TIP3    H211626   0.816   6.220   4.649  0.2972  0.9596 -1.4933
 3888TIP3   OH211627   5.171   4.274   2.540  0.3291  0.0765  0.0994
 3888TIP3    H111628   5.090   4.305   2.497 -0.3079 -1.9432 -0.2657
 3888TIP3    H211629   5.241   4.321   2.494 -0.5451  0.6194 -0.7388
 3889TIP3   OH211630   6.864   0.028   4.168  0.0507  0.3265 -0.2253
 3889TIP3    H111631   6.924  -0.034   4.125 -1.4596 -1.9756  0.7582
 3889TIP3    H211632   6.825   0.077   4.096  1.5704  0.4193 -1.0220
 3890TIP3   OH211633   4.902   2.781   4.159 -0.2831 -0.0030 -0.2985
 3890TIP3    H111634   4.931   2.779   4.067  1.7123  1.4934  0.2289
 3890TIP3    H211635   4.808   2.801   4.153  0.0801  1.6010 -2.0309
 3891TIP3   OH211636   0.845   0.732   0.582  0.1478  0.1501  0.4349
 3891TIP3    H111637   0.835   0.705   0.491 -1.3704  1.1980  0.2517
 3891TIP3    H211638   0.903   0.808   0.579  1.0765 -0.5344  0.5029
 3892TIP3   OH211639   3.644   2.141   1.486 -0.3967  0.1865  0.2144
 3892TIP3    H111640   3.630   2.233   1.512  1.5389  0.9706 -1.2994
 3892TIP3    H211641   3.604   2.091   1.557 -1.0750  2.1854  1.3551
 3893TIP3   OH211642   0.501   1.317   2.805 -0.6026 -0.1675 -0.7598
 3893TIP3    H111643   0.533   1.259   2.736 -0.3833 -0.5696 -0.3283
 3893TIP3    H211644   0.406   1.311   2.800 -0.5837 -0.3757 -0.8771
 3894TIP3   OH211645   5.226   2.123   2.416  0.0178 -0.0566  0.6172
 3894TIP3    H111646   5.178   2.197   2.454 -0.3656 -0.8761  1.8068
 3894TIP3    H211647   5.318   2.144   2.431 -0.0838  0.2249  0.8665
 3895TIP3   OH211648   2.784   3.093   1.310 -0.3353 -0.2665  0.0795
 3895TIP3    H111649   2.737   3.156   1.255  1.3100  1.1564  0.2198
 3895TIP3    H211650   2.753   3.111   1.399  0.1649  0.4230  0.1256
 3896TIP3   OH211651   0.890   0.598   5.436 -0.1394 -0.0577  0.2472
 3896TIP3    H111652   0.896   0.642   5.520 -2.5690  1.1756 -0.1517
 3896TIP3    H211653   0.961   0.637   5.384  0.1835  0.5503  1.1137
 3897TIP3   OH211654   2.923   4.172   3.816  0.3083  0.5178 -0.1538
 3897TIP3    H111655   2.835   4.162   3.780  0.0347  2.4874 -0.1067
 3897TIP3    H211656   2.981   4.162   3.740 -0.1119  1.7566 -0.6592
 3898TIP3   OH211657   7.008   4.025   2.829 -0.2876 -0.6219  0.7903
 3898TIP3    H111658   6.963   4.031   2.745 -2.0818 -1.8784  1.6218
 3898TIP3    H211659   6.944   4.054   2.894  0.5297 -1.1813  1.8920
 3899TIP3   OH211660   6.845   4.233   3.908  0.5060 -0.2075  0.6041
 3899TIP3    H111661   6.841   4.315   3.858  2.1111 -0.6124 -0.2684
 3899TIP3    H211662   6.853   4.261   3.999  1.9421  0.6473  0.2428
 3900TIP3   OH211663   7.102   5.313   5.724  0.1608  0.2512  0.1457
 3900TIP3    H111664   7.118   5.381   5.658 -2.6907  1.0480  0.1469
 3900TIP3    H211665   7.076   5.362   5.802 -1.7735 -0.7625  0.1957
 3901TIP3   OH211666   3.357   1.023   4.204 -0.4073 -0.2493 -0.2739
 3901TIP3    H111667   3.433   1.055   4.253 -0.3624 -0.7304 -0.0314
 3901TIP3    H211668   3.391   1.007   4.116 -0.2249 -0.4654 -0.1661
 3902TIP3   OH211669   1.995   3.152   1.255 -0.1265  0.5079  0.1031
 3902TIP3    H111670   2.013   3.175   1.346  0.4936 -0.6201  0.2927
 3902TIP3    H211671   1.939   3.074   1.261  1.7386 -0.9632 -0.4114
 3903TIP3   OH211672   5.789   2.887   3.350  0.4533  0.7442  0.0960
 3903TIP3    H111673   5.797   2.804   3.304 -0.1385  0.1476  1.0530
 3903TIP3    H211674   5.869   2.935   3.327  1.0381 -0.2795 -0.0601
 3904TIP3   OH211675   0.623   2.072   4.201  0.0648 -0.2855  0.2510
 3904TIP3    H111676   0.658   2.105   4.118  0.5840  2.2818  1.3902
 3904TIP3    H211677   0.700   2.050   4.253 -0.1342  0.8333  1.0499
 3905TIP3   OH211678   6.782   2.022   1.171 -0.2971 -0.3727 -0.1605
 3905TIP3    H111679   6.772   2.097   1.230  1.3194  0.1096 -0.4575
 3905TIP3    H211680   6.739   2.049   1.090 -1.2847 -0.4866  0.3065
 3906TIP3   OH211681   0.756   1.766   0.274 -0.4245  0.2243  0.5710
 3906TIP3    H111682   0.814   1.695   0.248 -2.1861 -0.9518 -0.3907
 3906TIP3    H211683   0.727   1.744   0.362 -0.7091 -0.0829  0.4018
 3907TIP3   OH211684   2.991   2.088   2.777 -0.5083  0.1160  0.3342
 3907TIP3    H111685   3.081   2.119   2.784 -1.0375  2.1001 -0.8452
 3907TIP3    H211686   2.996   2.013   2.719  0.2494  1.0939 -0.9118
 3908TIP3   OH211687   2.166   2.361   2.725  0.1145 -0.5187  0.4787
 3908TIP3    H111688   2.115   2.363   2.806  0.3319  3.0853  0.6692
 3908TIP3    H211689   2.257   2.353   2.754  0.2435  1.3383  0.7331
 3909TIP3   OH211690   5.495   4.986   4.797  0.0828  0.4376  0.1623
 3909TIP3    H111691   5.509   4.944   4.882  0.2726  0.7049  0.2656
 3909TIP3    H211692   5.577   4.970   4.749 -0.2020 -0.1167 -0.1446
 3910TIP3   OH211693   2.994   0.686   1.731 -0.4241  0.6999  0.4298
 3910TIP3    H111694   2.900   0.687   1.712 -0.3704  0.7594  0.1678
 3910TIP3    H211695   3.012   0.595   1.754 -0.5393  0.6817  0.4512
 3911TIP3   OH211696   5.280   0.408   5.753  0.3412 -0.4205  0.0492
 3911TIP3    H111697   5.303   0.444   5.667  0.5797 -0.1625  0.2215
 3911TIP3    H211698   5.364   0.383   5.792  0.1602 -1.5099 -0.2164
 3912TIP3   OH211699   0.543   6.653   0.524  1.0371 -0.2332 -0.4404
 3912TIP3    H111700   0.545   6.694   0.438  3.1922  0.5942 -0.0463
 3912TIP3    H211701   0.482   6.708   0.575  1.6195  0.7393 -0.7624
 3913TIP3   OH211702   2.603   1.155   3.965 -0.1514 -0.3803 -0.5470
 3913TIP3    H111703   2.543   1.190   3.898 -1.4686  0.3117  0.9455
 3913TIP3    H211704   2.667   1.225   3.977 -0.3409 -0.1988 -0.5652
 3914TIP3   OH211705   6.203   0.327   0.897  0.5719  0.2713 -0.1980
 3914TIP3    H111706   6.296   0.305   0.895  0.4097 -0.3771 -1.7107
 3914TIP3    H211707   6.165   0.276   0.825 -1.1030 -0.1427  0.9229
 3915TIP3   OH211708   5.210   6.568   4.091  0.6317  0.3982  0.2290
 3915TIP3    H111709   5.134   6.512   4.106  0.3127 -0.2562 -3.0785
 3915TIP3    H211710   5.285   6.510   4.104  0.3443 -0.4206 -1.4257
 3916TIP3   OH211711   2.773   6.011   4.356  0.1630 -0.1140 -0.5575
 3916TIP3    H111712   2.783   6.080   4.421  1.2034 -0.4425 -0.3585
 3916TIP3    H211713   2.678   6.007   4.340  0.1837  2.5279 -1.8662
 3917TIP3   OH211714   5.393   0.437   2.280  0.0024 -0.1470  0.3375
 3917TIP3    H111715   5.307   0.472   2.259 -0.1886 -0.7564  0.0882
 3917TIP3    H211716   5.442   0.513   2.315 -0.0687  0.6046 -1.1257
 3918TIP3   OH211717   5.169   2.980   3.895  0.1283 -0.5293  0.7313
 3918TIP3    H111718   5.249   2.961   3.845 -0.2408  0.2927 -0.1757
 3918TIP3    H211719   5.174   2.920   3.970  1.0021 -1.3274  0.0594
 3919TIP3   OH211720   6.671   1.535   4.651 -0.3289 -0.3289 -0.2331
 3919TIP3    H111721   6.649   1.444   4.674 -2.2798  0.6429  2.1054
 3919TIP3    H211722   6.586   1.579   4.646  0.6216  1.4966 -0.8311
 3920TIP3   OH211723   6.133   6.204   1.384  0.2587 -0.1802  0.6137
 3920TIP3    H111724   6.041   6.226   1.365 -0.5115 -1.8405  2.1549
 3920TIP3    H211725   6.159   6.148   1.311  0.6019  1.5291 -0.6476
 3921TIP3   OH211726   5.294   3.011   3.158  0.0428 -0.4901 -0.0951
 3921TIP3    H111727   5.272   3.082   3.099 -0.7668  0.1697  0.9607
 3921TIP3    H211728   5.384   2.988   3.136 -0.6085 -1.0929 -2.3693
 3922TIP3   OH211729   3.570   2.973   5.531 -0.5551 -0.6231 -0.4969
 3922TIP3    H111730   3.525   2.985   5.615  0.5139 -0.4061  0.0685
 3922TIP3    H211731   3.658   2.942   5.555  0.5195  1.5099 -1.3793
 3923TIP3   OH211732   1.470   1.531   0.910  0.6542 -0.3113 -0.4288
 3923TIP3    H111733   1.519   1.452   0.886  0.1087 -1.1732  1.1118
 3923TIP3    H211734   1.402   1.538   0.843  1.3185 -0.5715 -1.1413
 3924TIP3   OH211735   2.386   1.119   2.418  0.4508 -0.1834 -0.4131
 3924TIP3    H111736   2.413   1.203   2.455 -0.8752  1.0518 -2.0643
 3924TIP3    H211737   2.296   1.106   2.448  0.4905 -0.7872 -0.5324
 3925TIP3   OH211738   3.865   1.075   2.335 -0.0044 -0.0147  0.0833
 3925TIP3    H111739   3.857   1.078   2.430 -0.5796 -2.9779  0.2313
 3925TIP3    H211740   3.957   1.051   2.320  0.5223  2.0076 -0.2467
 3926TIP3   OH211741   2.324   1.272   0.698  0.9689  0.0483 -0.5840
 3926TIP3    H111742   2.352   1.286   0.608  0.8988 -0.1383 -0.6351
 3926TIP3    H211743   2.405   1.282   0.750  0.7988  1.2767 -0.5489
 3927TIP3   OH211744   1.115   0.230   1.459 -0.4101 -0.2349  0.3633
 3927TIP3    H111745   1.061   0.179   1.520  2.4179 -3.3248  0.5816
 3927TIP3    H211746   1.091   0.198   1.372 -0.9397  0.5296  0.2188
 3928TIP3   OH211747   2.225   4.152   1.828 -0.1311  0.0965  0.1807
 3928TIP3    H111748   2.140   4.197   1.822 -0.2339  0.1981  1.9146
 3928TIP3    H211749   2.263   4.161   1.741 -1.7706  0.3186 -0.5445
 3929TIP3   OH211750   4.797   2.885   5.395  0.1805  0.8970  0.2264
 3929TIP3    H111751   4.849   2.854   5.321  0.9454 -0.3619  1.2352
 3929TIP3    H211752   4.861   2.897   5.465 -0.6545  1.0717  0.9792
 3930TIP3   OH211753   3.630   0.280   3.888 -0.5977  0.2660 -1.0330
 3930TIP3    H111754   3.566   0.350   3.899 -0.1928  0.4993  0.0263
 3930TIP3    H211755   3.712   0.326   3.868  0.1974  0.3496  1.8486
 3931TIP3   OH211756   1.139   0.992   3.481  0.2038  0.1598  0.2814
 3931TIP3    H111757   1.162   1.072   3.528 -0.9208  0.0398  1.0919
 3931TIP3    H211758   1.048   0.975   3.506  0.3944 -1.3274  0.0779
 3932TIP3   OH211759   1.258   1.374   0.320 -0.6401  0.3387 -0.3124
 3932TIP3    H111760   1.184   1.407   0.270 -1.6871 -0.4361  0.6547
 3932TIP3    H211761   1.318   1.448   0.327 -1.2906  0.9633 -1.1709
 3933TIP3   OH211762   1.767   0.749   2.016 -0.6344 -0.8237 -0.3928
 3933TIP3    H111763   1.809   0.711   2.093 -0.4614 -2.0350 -1.0435
 3933TIP3    H211764   1.673   0.739   2.032 -0.7501  1.6278  0.9376
 3934TIP3   OH211765   1.986   4.048   0.604 -0.1204 -0.6175  0.5346
 3934TIP3    H111766   1.980   3.953   0.613 -0.7263 -0.4699  1.8597
 3934TIP3    H211767   2.015   4.080   0.689 -1.2445  0.4892  0.5414
 3935TIP3   OH211768   2.295   4.417   4.097 -0.1474 -0.7189  0.1835
 3935TIP3    H111769   2.238   4.447   4.027  2.4409  2.0500 -0.9439
 3935TIP3    H211770   2.325   4.496   4.140  1.0055 -2.1813  2.2686
 3936TIP3   OH211771   3.089   2.996   4.443  0.5061 -0.3734  0.0159
 3936TIP3    H111772   3.061   2.947   4.366 -3.3953  1.1507  0.2298
 3936TIP3    H211773   3.104   3.085   4.411 -0.2282  0.0540  0.8106
 3937TIP3   OH211774   4.646   6.327   5.394 -0.6256 -0.3330 -0.3910
 3937TIP3    H111775   4.569   6.348   5.448  0.6901  1.9245  0.7766
 3937TIP3    H211776   4.674   6.412   5.359  2.0560 -0.8649  0.2468
 3938TIP3   OH211777   3.616   0.056   4.085  0.2741 -0.1462  0.7749
 3938TIP3    H111778   3.676   0.077   4.013 -1.0359 -1.1409 -0.6911
 3938TIP3    H211779   3.669   0.006   4.147  1.0444 -0.7675 -0.3548
 3939TIP3   OH211780   3.491   3.393   1.106 -0.2771  0.0815  0.1852
 3939TIP3    H111781   3.444   3.477   1.103  1.0597  0.9737  2.2017
 3939TIP3    H211782   3.574   3.413   1.149  1.3032 -1.7679 -1.7372
 3940TIP3   OH211783   3.662   3.952   1.920  0.3124 -0.3209  0.4483
 3940TIP3    H111784   3.713   4.004   1.982 -0.5021 -0.2787  1.1112
 3940TIP3    H211785   3.720   3.881   1.894  2.7633  2.6251 -3.1180
 3941TIP3   OH211786   3.173   5.951   5.069  0.1882 -0.0615 -0.5789
 3941TIP3    H111787   3.233   5.917   5.003  0.2685 -0.3474 -0.3650
 3941TIP3    H211788   3.099   5.889   5.068  0.1705 -0.0442 -0.4320
 3942TIP3   OH211789   6.860   3.953   3.982  0.2713 -0.1234 -0.0927
 3942TIP3    H111790   6.883   3.976   4.072  0.7250 -0.4312 -0.1260
 3942TIP3    H211791   6.864   4.036   3.934 -1.4747  0.3190  0.4624
 3943TIP3   OH211792   6.243   2.770   2.916  0.1864  0.5095  0.1561
 3943TIP3    H111793   6.256   2.801   3.006  0.6623  1.3160 -0.1786
 3943TIP3    H211794   6.327   2.730   2.893 -0.0476 -0.0033  0.1847
 3944TIP3   OH211795   3.095   2.123   3.507  0.4749 -0.2199  0.7724
 3944TIP3    H111796   3.172   2.067   3.497 -0.7702 -1.9012  0.1807
 3944TIP3    H211797   3.056   2.125   3.420 -0.4666  0.1184  1.1931
 3945TIP3   OH211798   0.814   6.028   4.687 -0.5512  0.2470 -0.0978
 3945TIP3    H111799   0.836   5.973   4.612 -0.6801 -1.1104  0.8237
 3945TIP3    H211800   0.718   6.026   4.691 -0.5554  0.5175 -0.0323
 3946TIP3   OH211801   5.787   3.550   4.511  0.1036  0.2189  0.1433
 3946TIP3    H111802   5.859   3.612   4.521  0.3368  0.3662 -1.9617
 3946TIP3    H211803   5.709   3.601   4.533  0.4769  0.5553  0.7342
 3947TIP3   OH211804   4.781   6.591   2.713  0.3151 -0.4493 -0.3068
 3947TIP3    H111805   4.743   6.505   2.735  1.6404 -0.7776  0.8443
 3947TIP3    H211806   4.855   6.570   2.656  0.0704  0.0261 -0.8077
 3948TIP3   OH211807   2.741   2.868   4.395  0.5854  0.0585 -0.3197
 3948TIP3    H111808   2.680   2.844   4.324  1.0662 -1.2225 -0.3290
 3948TIP3    H211809   2.719   2.808   4.466  0.2756  1.1736  0.5441
 3949TIP3   OH211810   6.544   5.515   5.036 -0.0979  0.2026  0.0648
 3949TIP3    H111811   6.538   5.448   4.968  0.3573  0.5178 -0.2853
 3949TIP3    H211812   6.608   5.479   5.098  1.1746  0.8954 -0.8018
 3950TIP3   OH211813   3.326   0.775   5.484 -0.4749  0.5274 -0.2116
 3950TIP3    H111814   3.322   0.805   5.575 -1.3296  1.6461 -0.5863
 3950TIP3    H211815   3.410   0.808   5.451 -0.0424 -0.1049  0.2225
 3951TIP3   OH211816   4.893   5.469   4.787  0.1097 -0.5262 -0.0214
 3951TIP3    H111817   4.920   5.480   4.878  0.0418 -2.2782  0.2379
 3951TIP3    H211818   4.807   5.510   4.783 -0.1213 -0.9050  0.8439
 3952TIP3   OH211819   2.841   3.232   2.622 -0.0503 -0.1439 -0.3396
 3952TIP3    H111820   2.778   3.258   2.555  1.4381  0.8496 -1.4125
 3952TIP3    H211821   2.870   3.315   2.661  3.0885 -0.1995 -2.2441
 3953TIP3   OH211822   4.482   2.573   1.925  0.2143  0.5047  0.4600
 3953TIP3    H111823   4.474   2.557   2.019  0.1844 -2.4017  0.0797
 3953TIP3    H211824   4.393   2.565   1.892  0.3917  0.1741  0.0501
 3954TIP3   OH211825   0.968   6.578   1.750  0.6343  0.0539 -0.0716
 3954TIP3    H111826   1.045   6.558   1.696 -0.6698 -2.5538 -1.1450
 3954TIP3    H211827   0.963   6.505   1.812  0.8115  1.8642  2.2052
 3955TIP3   OH211828   2.405   1.043   1.430 -0.4104 -0.8107  0.0233
 3955TIP3    H111829   2.361   0.995   1.500 -0.4602 -0.8358 -0.0260
 3955TIP3    H211830   2.498   1.033   1.450 -0.3655 -2.0560 -0.7347
 3956TIP3   OH211831   5.804   2.492   5.193 -0.1213  0.5999 -0.3333
 3956TIP3    H111832   5.711   2.494   5.218  0.4591  0.6554  2.0826
 3956TIP3    H211833   5.844   2.563   5.243  1.6413 -0.9891  0.6390
 3957TIP3   OH211834   0.187   3.176   4.247  0.1859 -0.1044 -0.0384
 3957TIP3    H111835   0.268   3.171   4.297 -0.3133 -3.2457  0.6530
 3957TIP3    H211836   0.139   3.250   4.285  1.4138 -0.1057  1.5925
 3958TIP3   OH211837   1.582   3.960   5.885 -0.6858  0.6995 -0.4977
 3958TIP3    H111838   1.653   3.925   5.831 -0.8302  1.2020 -1.0268
 3958TIP3    H211839   1.587   4.055   5.873 -2.7315  0.6858 -2.2561
 3959TIP3   OH211840   3.000   1.470   1.775  0.3692  0.2800  0.2988
 3959TIP3    H111841   2.949   1.449   1.853 -2.0967 -0.4384 -1.3779
 3959TIP3    H211842   2.969   1.557   1.749  0.0019 -0.1262 -0.6941
 3960TIP3   OH211843   6.356   1.634   5.413  0.4051 -0.0027 -0.0444
 3960TIP3    H111844   6.291   1.564   5.405  1.5300 -0.9368 -1.3951
 3960TIP3    H211845   6.329   1.700   5.349  0.7010 -0.3303 -0.5112
 3961TIP3   OH211846   0.972   0.796   3.321 -0.3148 -0.1579  0.9344
 3961TIP3    H111847   1.067   0.809   3.327 -0.3213  0.5389 -0.1808
 3961TIP3    H211848   0.951   0.736   3.393  0.8597  0.2487  1.6425
 3962TIP3   OH211849   2.616   5.735   1.975  0.1176 -0.2706 -0.0638
 3962TIP3    H111850   2.669   5.773   2.045 -1.5409 -0.5040  1.3876
 3962TIP3    H211851   2.576   5.810   1.931  2.1094 -0.0503 -1.6250
 3963TIP3   OH211852   0.097   1.171   2.575  0.1356  0.8592  0.1059
 3963TIP3    H111853   0.132   1.104   2.515 -1.8630  1.4325 -1.8170
 3963TIP3    H211854   0.162   1.175   2.645  1.8198 -0.9774 -1.2030
 3964TIP3   OH211855   5.137   0.947   4.894  0.4449 -0.8099 -0.2157
 3964TIP3    H111856   5.077   1.010   4.854  2.1570  0.3198 -1.1002
 3964TIP3    H211857   5.134   0.966   4.987  0.0058 -0.2603 -0.3393
 3965TIP3   OH211858   6.333   0.472   5.663 -0.0879 -0.1030  0.5279
 3965TIP3    H111859   6.424   0.459   5.690  0.3668 -0.8073 -1.1876
 3965TIP3    H211860   6.338   0.480   5.568 -1.9469 -1.5947  0.2475
 3966TIP3   OH211861   3.058   1.125   5.858 -0.0279  0.0131  0.3906
 3966TIP3    H111862   3.129   1.171   5.814  2.8964 -3.0176  1.4836
 3966TIP3    H211863   3.020   1.069   5.790  0.3620 -0.2130  0.3561
 3967TIP3   OH211864   5.988   4.685   1.297  0.0769 -0.5850 -0.7090
 3967TIP3    H111865   5.934   4.608   1.312  0.4018 -0.7012 -0.1042
 3967TIP3    H211866   5.974   4.739   1.375  0.4704 -0.4041 -0.7615
 3968TIP3   OH211867   6.072   5.234   2.697  0.3978  0.2961  0.6987
 3968TIP3    H111868   5.999   5.180   2.727 -0.2543 -0.0004 -1.2579
 3968TIP3    H211869   6.150   5.187   2.725 -0.1614 -1.4242 -0.4773
 3969TIP3   OH211870   2.473   0.927   4.930 -0.2859 -0.0377  0.4254
 3969TIP3    H111871   2.533   0.972   4.989 -0.9623  0.0638  1.0495
 3969TIP3    H211872   2.522   0.916   4.848  0.3726  0.5567  0.7398
 3970TIP3   OH211873   6.890   4.192   1.450 -0.2480  0.3152  0.1156
 3970TIP3    H111874   6.897   4.287   1.438 -0.0442  0.1140 -1.6151
 3970TIP3    H211875   6.803   4.179   1.489  0.0637  1.2561  1.1559
 3971TIP3   OH211876   1.464   4.350   4.709  0.0727  0.5783  0.4805
 3971TIP3    H111877   1.406   4.274   4.717  0.0219  0.5967  0.3035
 3971TIP3    H211878   1.405   4.425   4.714  0.2847  0.6572  2.1479
 3972TIP3   OH211879   2.657   4.048   0.684  0.0721  0.5514 -0.2452
 3972TIP3    H111880   2.620   4.036   0.596 -0.0773 -0.7465 -0.0094
 3972TIP3    H211881   2.581   4.052   0.742  0.2238 -1.9581  0.2191
 3973TIP3   OH211882   5.931   5.739   2.148 -0.0617 -0.3175  0.7630
 3973TIP3    H111883   5.944   5.662   2.092 -0.0208  0.7179 -0.6983
 3973TIP3    H211884   5.871   5.708   2.216 -0.3553 -1.5403 -0.0059
 3974TIP3   OH211885   4.460   0.782   5.648 -0.9009 -0.2715  0.4371
 3974TIP3    H111886   4.511   0.726   5.590 -1.6442  0.9299 -1.4721
 3974TIP3    H211887   4.522   0.807   5.717 -0.4575 -3.0461  1.1429
 3975TIP3   OH211888   5.348   5.567   4.309 -0.2164  0.3328 -0.2891
 3975TIP3    H111889   5.351   5.494   4.247 -1.8468  0.1857 -0.2306
 3975TIP3    H211890   5.256   5.573   4.335  0.2610  1.0390  1.3560
 3976TIP3   OH211891   1.556   3.894   0.205  0.8753 -0.1865  0.3815
 3976TIP3    H111892   1.596   3.881   0.291  1.4722 -0.0425  0.1254
 3976TIP3    H211893   1.484   3.956   0.222  0.7690 -0.4273  0.8331
 3977TIP3   OH211894   6.200   5.035   0.781 -0.4264 -0.3723 -0.3397
 3977TIP3    H111895   6.280   5.038   0.728  0.2501 -0.5595  0.6329
 3977TIP3    H211896   6.223   4.981   0.857 -0.8406  1.1315  0.9336
 3978TIP3   OH211897   1.412   3.054   3.540  0.1836  0.4170 -0.4748
 3978TIP3    H111898   1.424   2.963   3.567  0.4041  0.9426  1.3317
 3978TIP3    H211899   1.378   3.098   3.618  0.9043  2.0616 -1.0383
 3979TIP3   OH211900   1.786   5.972   5.558  0.2354  0.3254 -0.1847
 3979TIP3    H111901   1.777   5.951   5.466 -1.2133 -0.3496  0.0955
 3979TIP3    H211902   1.709   6.024   5.579  0.2821  0.0334  0.7640
 3980TIP3   OH211903   7.169   1.018   3.624 -0.6131 -0.0843  0.1413
 3980TIP3    H111904   7.150   1.089   3.684 -2.8451 -1.2897  0.9787
 3980TIP3    H211905   7.263   1.001   3.636 -0.0639  2.4972  0.0599
 3981TIP3   OH211906   2.182   0.804   3.736  0.2879 -0.0779  0.0839
 3981TIP3    H111907   2.203   0.741   3.804 -0.2120 -1.7807 -1.2755
 3981TIP3    H211908   2.265   0.849   3.718  0.3948  0.5005  1.8622
 3982TIP3   OH211909   4.328   0.027   1.424 -0.2007  0.7330  0.2880
 3982TIP3    H111910   4.408   0.048   1.472  1.0399 -1.1823 -0.7760
 3982TIP3    H211911   4.312  -0.066   1.444 -0.3503  0.2330 -1.9131
 3983TIP3   OH211912   1.560   4.021   3.103 -0.6073 -0.5591  0.1468
 3983TIP3    H111913   1.607   3.981   3.177 -0.0802  1.1641  0.7921
 3983TIP3    H211914   1.552   3.950   3.039  2.0122 -1.2359  0.4159
 3984TIP3   OH211915   2.003   5.810   1.395  0.5302  0.3965  0.7448
 3984TIP3    H111916   1.996   5.799   1.301  0.6102 -0.9267  0.8765
 3984TIP3    H211917   1.987   5.903   1.410 -1.9769  0.2019 -0.3292
 3985TIP3   OH211918   2.092   0.974   0.438 -0.0288  0.2794  0.3631
 3985TIP3    H111919   2.033   0.925   0.381 -0.3456  2.0268 -0.8748
 3985TIP3    H211920   2.070   0.944   0.526  0.1958 -2.1816 -0.3632
 3986TIP3   OH211921   0.388   6.366   4.281 -0.0289  0.0651 -0.3976
 3986TIP3    H111922   0.330   6.302   4.322  1.2026 -1.0948 -0.4028
 3986TIP3    H211923   0.469   6.317   4.262  1.3974  1.8905  0.6488
 3987TIP3   OH211924   4.726   2.292   0.777  0.1374 -0.1207  0.2108
 3987TIP3    H111925   4.758   2.223   0.835  1.9433 -0.2878 -0.9092
 3987TIP3    H211926   4.743   2.374   0.825  0.5044 -0.3211  0.4305
 3988TIP3   OH211927   3.942   4.260   2.096  0.3233 -0.0729  0.5909
 3988TIP3    H111928   3.906   4.283   2.011  0.7881  1.3573  0.7565
 3988TIP3    H211929   4.028   4.301   2.098  0.3982 -0.2472  1.6803
 3989TIP3   OH211930   3.863   3.124   1.937  0.4163  0.5445 -0.1965
 3989TIP3    H111931   3.853   3.212   1.901  0.8950  0.5051 -0.4368
 3989TIP3    H211932   3.908   3.137   2.020 -0.9883  0.6654  0.5718
 3990TIP3   OH211933   7.026   3.294   4.708  0.5425  0.0349  0.1653
 3990TIP3    H111934   7.086   3.255   4.645  2.2355  3.2406 -0.4484
 3990TIP3    H211935   7.078   3.299   4.789  0.3765  0.8812  0.2302
 3991TIP3   OH211936   1.827   1.952   4.804  0.3550  0.0146  0.1529
 3991TIP3    H111937   1.812   1.990   4.890  1.0593 -1.1272  0.8068
 3991TIP3    H211938   1.820   2.026   4.743  0.0473  0.8694  1.1990
 3992TIP3   OH211939   1.000   0.131   0.515  0.3712  0.1771  0.0775
 3992TIP3    H111940   1.090   0.152   0.491  0.2617 -1.1122 -1.5923
 3992TIP3    H211941   0.947   0.193   0.465  0.2686 -0.0289 -0.0670
 3993TIP3   OH211942   5.362   0.415   1.534  0.7605  0.2790  0.1975
 3993TIP3    H111943   5.322   0.374   1.457  2.3703 -0.3252 -0.3490
 3993TIP3    H211944   5.387   0.502   1.505 -1.0687  1.0770  0.8582
 3994TIP3   OH211945   4.010   6.310   3.596 -0.5871 -0.6731 -0.4591
 3994TIP3    H111946   4.070   6.380   3.570  1.3171 -1.9193  0.3463
 3994TIP3    H211947   3.932   6.356   3.627  0.9674  1.1925  0.9579
 3995TIP3   OH211948   1.118   3.963   3.911  0.5121 -0.3256  0.3907
 3995TIP3    H111949   1.052   4.020   3.949  1.3025  0.5987  0.4024
 3995TIP3    H211950   1.182   3.950   3.980  0.3803 -1.1818  0.3637
 3996TIP3   OH211951   5.128   2.237   1.424 -0.2904 -0.2312 -0.1773
 3996TIP3    H111952   5.191   2.280   1.366  1.6999 -0.3129  1.8119
 3996TIP3    H211953   5.162   2.251   1.512 -1.5722 -2.6827  0.8112
 3997TIP3   OH211954   0.418   0.975   1.397  0.3662  0.2735 -0.5979
 3997TIP3    H111955   0.411   1.046   1.461  0.3685  0.6022 -0.9596
 3997TIP3    H211956   0.512   0.957   1.392  0.2241 -1.1010  0.9470
 3998TIP3   OH211957   6.944   5.958   4.223  0.1360 -0.1919 -0.3657
 3998TIP3    H111958   7.023   5.973   4.274  0.7935  0.2584 -1.4617
 3998TIP3    H211959   6.977   5.929   4.137 -0.9324 -1.2666 -0.4378
 3999TIP3   OH211960   0.819   2.272   0.650 -0.1475 -0.0611  0.4993
 3999TIP3    H111961   0.768   2.297   0.728  0.7168 -0.3288  1.1678
 3999TIP3    H211962   0.896   2.227   0.686 -1.6605 -3.9148 -0.5788
 4000TIP3   OH211963   6.580   5.301   4.841 -0.0418  0.2848  0.0710
 4000TIP3    H111964   6.640   5.279   4.770  0.6242  2.8450 -0.2730
 4000TIP3    H211965   6.498   5.323   4.798  0.8725  3.6247 -0.2298
 4001TIP3   OH211966   4.894   1.945   4.271  0.0553  0.0473  0.8791
 4001TIP3    H111967   4.969   1.902   4.230  0.5147  0.7347  0.9820
 4001TIP3    H211968   4.891   2.031   4.231  0.0274  0.4418  1.7117
 4002TIP3   OH211969   7.017   0.901   4.003  0.1413 -0.2053  0.0315
 4002TIP3    H111970   6.983   0.909   3.914  2.1087  0.5869 -0.7144
 4002TIP3    H211971   6.943   0.871   4.055 -1.2145 -0.1022 -1.7581
 4003TIP3   OH211972   0.771   6.612   5.455 -0.5750  0.7569 -0.3358
 4003TIP3    H111973   0.683   6.637   5.426 -0.7529  1.3682  0.6690
 4003TIP3    H211974   0.757   6.534   5.509 -0.2648 -0.2832 -1.7029
 4004TIP3   OH211975   0.644   2.895   4.310 -0.0640 -0.5055 -0.1068
 4004TIP3    H111976   0.723   2.842   4.323 -0.2087 -0.4328  1.2014
 4004TIP3    H211977   0.670   2.983   4.338 -0.0207 -0.0073 -1.6377
 4005TIP3   OH211978   2.680   3.428   2.524 -0.4417  1.1032  0.1136
 4005TIP3    H111979   2.663   3.522   2.528  0.1335  1.2751 -1.0933
 4005TIP3    H211980   2.612   3.392   2.467 -0.5631  0.8011  0.4392
 4006TIP3   OH211981   5.958   3.795   1.909  0.3354  0.3255 -0.0190
 4006TIP3    H111982   6.030   3.742   1.876 -1.1740 -1.5867 -0.4837
 4006TIP3    H211983   5.908   3.819   1.831 -1.3778 -1.3446  0.4830
 4007TIP3   OH211984   5.166   2.642   4.237  0.0311  0.5016 -0.1516
 4007TIP3    H111985   5.097   2.700   4.205  0.5287  0.9357 -0.4415
 4007TIP3    H211986   5.247   2.679   4.203  0.3033 -0.7969 -1.0062
 4008TIP3   OH211987   6.296   2.442   4.164  0.0834 -0.0342 -0.5998
 4008TIP3    H111988   6.356   2.433   4.237 -0.7499 -0.2198  0.0793
 4008TIP3    H211989   6.322   2.373   4.103  1.7320  1.0513 -1.1993
 4009TIP3   OH211990   1.081   1.594   0.531 -0.0319 -0.2932  0.8474
 4009TIP3    H111991   1.041   1.545   0.460  1.5521 -1.3929  0.6799
 4009TIP3    H211992   1.007   1.623   0.584 -1.2270  0.2740 -1.0372
 4010TIP3   OH211993   2.808   5.866   5.271 -0.0062  0.2026  0.2915
 4010TIP3    H111994   2.828   5.773   5.264  0.3180  0.2371  0.7549
 4010TIP3    H211995   2.714   5.869   5.291 -0.6602  0.0532 -2.4044
 4011TIP3   OH211996   5.957   2.977   5.749 -0.4728 -0.2636  0.7206
 4011TIP3    H111997   5.939   2.900   5.695  0.5950 -0.1210  0.1337
 4011TIP3    H211998   5.909   3.048   5.706 -0.0564 -0.2581  0.2581
 4012TIP3   OH211999   3.153   4.614   3.049  0.3952  0.2238  0.7971
 4012TIP3    H112000   3.172   4.637   3.140  1.5719  2.1515  0.1261
 4012TIP3    H212001   3.234   4.574   3.017 -0.5023 -1.8285  0.9655
 4013TIP3   OH212002   6.309   6.582   0.260  0.3109  0.8541 -0.2021
 4013TIP3    H112003   6.288   6.546   0.174  2.9621  1.7547 -1.3384
 4013TIP3    H212004   6.383   6.529   0.291 -1.1308 -0.0182  1.9958
 4014TIP3   OH212005   0.622   5.680   1.390  0.1602  0.2804 -0.2752
 4014TIP3    H112006   0.557   5.610   1.392  0.1453  0.2874 -0.4880
 4014TIP3    H212007   0.622   5.710   1.299  0.0608  0.6564 -0.1547
 4015TIP3   OH212008   0.853   2.402   3.388 -0.3830 -0.2293  0.1664
 4015TIP3    H112009   0.809   2.370   3.466  1.0480  0.7710  1.4536
 4015TIP3    H212010   0.784   2.444   3.336 -1.1472  0.1994  1.4987
 4016TIP3   OH212011  -0.004   2.996   4.817 -0.1390 -0.4542 -0.0176
 4016TIP3    H112012   0.044   2.971   4.896  0.1481  0.8416  0.2349
 4016TIP3    H212013   0.041   3.074   4.784  0.0832 -1.2790 -1.7865
 4017TIP3   OH212014   4.868   2.958   2.752 -0.2777  0.6067  0.7211
 4017TIP3    H112015   4.882   3.013   2.828  0.3362 -0.5298  1.4524
 4017TIP3    H212016   4.847   2.871   2.788  0.6822 -0.1120 -0.3788
 4018TIP3   OH212017   0.303   3.351   1.409 -0.6066  0.3721 -0.0939
 4018TIP3    H112018   0.249   3.349   1.488 -0.8966  0.1092 -0.2922
 4018TIP3    H212019   0.264   3.420   1.355  0.6511  1.7633  0.7130
 4019TIP3   OH212020   4.088   0.570   1.393  0.1508 -0.1986 -0.7480
 4019TIP3    H112021   4.029   0.510   1.347 -0.3863 -0.4938  0.2857
 4019TIP3    H212022   4.157   0.514   1.429 -0.8554 -0.3829  1.0211
 4020TIP3   OH212023   1.834   2.630   0.533 -0.8770  0.2680  0.0261
 4020TIP3    H112024   1.858   2.538   0.543 -0.8171  0.4421  1.8576
 4020TIP3    H212025   1.757   2.629   0.476 -0.8720 -0.9110  0.0177
 4021TIP3   OH212026   5.908   6.365   0.420  0.0786 -0.2530  0.3722
 4021TIP3    H112027   5.815   6.343   0.428  0.2550 -0.8284  0.9880
 4021TIP3    H212028   5.910   6.440   0.361 -0.6589 -1.1285 -0.8247
 4022TIP3   OH212029   7.021   5.827   5.531 -0.4056 -0.3911  0.0704
 4022TIP3    H112030   7.037   5.836   5.437  0.4683  0.5287  0.2822
 4022TIP3    H212031   7.081   5.890   5.571 -0.6964 -0.8407  1.2529
 4023TIP3   OH212032   0.885   0.120   5.177  0.4572 -0.1083  0.3497
 4023TIP3    H112033   0.949   0.107   5.107 -0.5361  1.3880 -0.9307
 4023TIP3    H212034   0.850   0.032   5.194  2.2186 -0.8216  0.5040
 4024TIP3   OH212035   5.771   3.969   2.093 -0.1110 -0.3656 -0.4561
 4024TIP3    H112036   5.677   3.951   2.084  0.1685 -1.4181 -1.6338
 4024TIP3    H212037   5.776   4.051   2.142 -1.6334 -0.4681 -0.0868
 4025TIP3   OH212038   5.310   2.733   3.632 -0.2791 -0.5722  0.5530
 4025TIP3    H112039   5.329   2.825   3.618 -0.7031 -0.6464 -0.5525
 4025TIP3    H212040   5.301   2.725   3.727  0.3918  0.3887  0.7108
 4026TIP3   OH212041   6.676   0.589   3.449  0.6383  0.2103  0.0853
 4026TIP3    H112042   6.762   0.549   3.464 -0.0547 -3.0631 -3.2667
 4026TIP3    H212043   6.621   0.554   3.519  1.6073  1.2380  1.4369
 4027TIP3   OH212044   3.779   3.528   2.975  0.0393 -0.3825  0.7441
 4027TIP3    H112045   3.832   3.572   3.041  0.3223  0.7281 -0.1827
 4027TIP3    H212046   3.838   3.520   2.900 -1.1958  1.2962 -0.4850
 4028TIP3   OH212047   2.938   4.771   2.987  0.3655 -0.2610  0.1655
 4028TIP3    H112048   2.880   4.707   2.945  0.9632 -0.0936 -0.9428
 4028TIP3    H212049   3.007   4.718   3.028  0.3337 -0.3734  0.0729
 4029TIP3   OH212050   1.843   4.966   0.164 -0.3297  0.1058 -0.3323
 4029TIP3    H112051   1.781   4.894   0.153 -1.3320  0.9376 -0.3634
 4029TIP3    H212052   1.787   5.043   0.174  0.7113  0.7957  0.2925
 4030TIP3   OH212053   5.912   6.674   1.030  0.2129  0.3370  0.4404
 4030TIP3    H112054   5.935   6.700   0.941  0.9902 -2.3296 -0.2365
 4030TIP3    H212055   5.965   6.596   1.046 -1.9624 -0.8925  2.2002
 4031TIP3   OH212056   6.959   2.566   4.641  0.5958 -0.0332  0.3333
 4031TIP3    H112057   7.008   2.645   4.663 -1.4411  1.5344 -0.4177
 4031TIP3    H212058   6.874   2.577   4.685  1.0786 -3.0493  2.3308
 4032TIP3   OH212059   0.358   6.657   1.071 -0.2482  0.7030 -0.8515
 4032TIP3    H112060   0.417   6.594   1.029  0.6051 -0.0229  1.2925
 4032TIP3    H212061   0.284   6.664   1.012 -0.7686 -2.9560 -0.8569
 4033TIP3   OH212062   1.229   4.700   3.712 -0.6188  0.2422  0.5992
 4033TIP3    H112063   1.274   4.746   3.784  0.1105  0.0144  0.3011
 4033TIP3    H212064   1.298   4.647   3.671 -0.9774  0.5450 -0.4125
 4034TIP3   OH212065   0.060   0.290   4.844  0.3664 -0.3484 -0.4171
 4034TIP3    H112066   0.096   0.202   4.849  0.8495 -0.1039  0.6355
 4034TIP3    H212067   0.101   0.328   4.766  1.6084 -0.4276  0.1740
 4035TIP3   OH212068   3.071   2.021   2.272  0.1155 -0.3278  0.4772
 4035TIP3    H112069   2.998   1.977   2.229 -0.5778  1.3769 -0.1869
 4035TIP3    H212070   3.118   1.951   2.318 -2.1811 -1.4218  1.3024
 4036TIP3   OH212071   6.121   2.783   3.280  0.3368  0.7497  0.2388
 4036TIP3    H112072   6.112   2.809   3.372 -1.5039  0.4863  0.1693
 4036TIP3    H212073   6.034   2.792   3.244  0.3204 -2.0258 -0.7086
 4037TIP3   OH212074   4.119   4.992   2.712  0.4126  0.4606  0.2489
 4037TIP3    H112075   4.172   4.945   2.648  1.2152 -0.1565  1.3447
 4037TIP3    H212076   4.144   5.084   2.700  0.8006  0.3135 -0.1029
 4038TIP3   OH212077   3.888   4.316   3.374 -0.2364 -0.1069  0.3001
 4038TIP3    H112078   3.978   4.289   3.389  0.5479  2.2533  0.3075
 4038TIP3    H212079   3.893   4.377   3.301 -1.6436  0.8750  0.9632
 4039TIP3   OH212080   4.248   2.860   0.469 -0.4483 -0.3010 -0.3592
 4039TIP3    H112081   4.290   2.888   0.551  0.6412  1.5974 -1.4975
 4039TIP3    H212082   4.154   2.872   0.485 -0.1455  2.3305 -0.1003
 4040TIP3   OH212083   3.464   0.803   1.366 -0.3016  0.0139 -0.3949
 4040TIP3    H112084   3.555   0.777   1.354 -0.2646 -0.1505  0.2312
 4040TIP3    H212085   3.449   0.799   1.460 -1.4339 -1.6147 -0.5908
 4041TIP3   OH212086   5.214   1.564   2.674 -0.1301 -0.2990 -0.0142
 4041TIP3    H112087   5.224   1.596   2.585 -0.0440 -1.2692 -0.3661
 4041TIP3    H212088   5.120   1.548   2.684 -0.3382  1.0591  0.5383
 4042TIP3   OH212089   1.472   1.882   5.202 -0.2151 -0.3122  0.1804
 4042TIP3    H112090   1.377   1.895   5.194 -0.2130  0.1107  0.8128
 4042TIP3    H212091   1.481   1.801   5.252 -0.2251 -1.7197 -1.9567
 4043TIP3   OH212092   6.038   0.985   4.103 -0.8493  0.3024  0.5681
 4043TIP3    H112093   6.037   1.080   4.089 -0.2516  0.4198  1.2755
 4043TIP3    H212094   6.100   0.952   4.039 -1.1981  0.3605  0.1929
 4044TIP3   OH212095   3.645   1.035   5.209 -0.4277  0.6136 -0.1845
 4044TIP3    H112096   3.554   1.010   5.220  0.1389 -0.9458  1.4479
 4044TIP3    H212097   3.687   0.960   5.168  0.1942  1.2044 -0.6700
 4045TIP3   OH212098   0.708   5.320   0.865 -0.2301 -0.0199 -0.0464
 4045TIP3    H112099   0.649   5.248   0.887 -3.8566  3.1501  1.6779
 4045TIP3    H212100   0.703   5.326   0.769  1.5408 -2.9285 -0.4414
 4046TIP3   OH212101   6.621   5.190   1.679  0.6875 -0.2379  0.4145
 4046TIP3    H112102   6.554   5.156   1.619  1.4177 -2.4638  0.7875
 4046TIP3    H212103   6.703   5.153   1.648  1.6458  1.6244  0.5877
 4047TIP3   OH212104   0.755   6.276   0.036 -0.2980  0.5019 -0.3210
 4047TIP3    H112105   0.785   6.298   0.124  0.3491 -1.0786 -0.1252
 4047TIP3    H212106   0.676   6.223   0.051 -1.4070  1.9383 -0.7720
 4048TIP3   OH212107   5.269   2.690   3.903  0.1066 -0.1173 -0.5201
 4048TIP3    H112108   5.281   2.596   3.888 -1.3404 -0.8236  2.1397
 4048TIP3    H212109   5.306   2.705   3.990  0.2998  1.8154 -0.9012
 4049TIP3   OH212110   0.234   5.429   5.516  0.3175  0.0884  0.2907
 4049TIP3    H112111   0.322   5.393   5.509  0.4820  0.5526 -0.0807
 4049TIP3    H212112   0.176   5.358   5.488  0.5747 -0.2044  0.4975
 4050TIP3   OH212113   0.729   1.618   5.650 -0.4852 -0.3255  0.2867
 4050TIP3    H112114   0.658   1.650   5.705 -0.2712  1.2756 -0.3003
 4050TIP3    H212115   0.736   1.683   5.580  2.1186  0.0584  0.7829
 4051TIP3   OH212116   2.746   1.428   2.930  0.1310 -0.3034 -0.1511
 4051TIP3    H112117   2.779   1.344   2.896  0.5721 -0.2236  0.0771
 4051TIP3    H212118   2.741   1.485   2.853 -0.3326 -0.5831 -0.3385
 4052TIP3   OH212119   5.628   6.556   3.458  0.2214  0.2417 -0.1321
 4052TIP3    H112120   5.545   6.511   3.470  0.8350 -0.2951  2.8651
 4052TIP3    H212121   5.618   6.639   3.504  1.3746  0.0961  0.4288
 4053TIP3   OH212122   3.007   3.994   1.964 -0.1352  0.2602  0.6960
 4053TIP3    H112123   3.000   4.039   2.049  0.0470  0.9208  0.3733
 4053TIP3    H212124   2.917   3.979   1.938 -0.2922  2.1386 -0.0457
 4054TIP3   OH212125   0.236   1.572   1.326 -0.1876  0.5524 -0.8237
 4054TIP3    H112126   0.323   1.610   1.342  0.1695 -0.8223  0.7716
 4054TIP3    H212127   0.179   1.614   1.391 -0.1712 -0.3278 -0.2292
 4055TIP3   OH212128   6.115   4.485   5.182 -0.3000 -0.2745  0.2780
 4055TIP3    H112129   6.140   4.535   5.259  0.8383 -1.1827  0.5121
 4055TIP3    H212130   6.034   4.441   5.208  0.5389 -1.2710  1.2815
 4056TIP3   OH212131   2.815   1.811   4.472 -0.2158 -0.3557 -0.8447
 4056TIP3    H112132   2.747   1.788   4.409 -0.2789 -0.1749 -0.8439
 4056TIP3    H212133   2.786   1.772   4.554 -0.1438 -0.5732 -0.9236
 4057TIP3   OH212134   0.617   4.642   2.446  0.2735 -0.4025 -0.0931
 4057TIP3    H112135   0.620   4.725   2.398 -1.7879  0.8265  1.7136
 4057TIP3    H212136   0.557   4.587   2.396 -0.5548  0.2538  0.1589
 4058TIP3   OH212137   1.101   0.254   2.079  0.5920  0.5831 -0.5799
 4058TIP3    H112138   1.120   0.170   2.121  0.2131 -0.4685 -2.4130
 4058TIP3    H212139   1.075   0.311   2.151  0.7617 -0.8868  0.7057
 4059TIP3   OH212140   1.673   0.434   5.283 -0.2690  0.3412  0.0883
 4059TIP3    H112141   1.700   0.470   5.367  3.0087  0.2097 -0.7715
 4059TIP3    H212142   1.668   0.510   5.225 -0.0609  0.1618 -0.1666
 4060TIP3   OH212143  -0.020   5.468   2.904 -0.2698 -0.7244 -0.5651
 4060TIP3    H112144   0.042   5.434   2.969 -1.7138  0.2250  1.3956
 4060TIP3    H212145   0.021   5.550   2.873 -0.4042 -0.2356  0.5196
 4061TIP3   OH212146   5.887   0.505   3.376 -0.3343  0.3802  0.1793
 4061TIP3    H112147   5.907   0.419   3.411 -0.8757  0.0821 -0.2305
 4061TIP3    H212148   5.973   0.545   3.360  0.1101 -1.4865 -3.0740
 4062TIP3   OH212149   1.715   6.433   1.863 -0.0212  0.0629  0.5490
 4062TIP3    H112150   1.716   6.353   1.917  0.7384 -1.5413 -1.6698
 4062TIP3    H212151   1.651   6.414   1.794  1.1851  0.7686 -0.8222
 4063TIP3   OH212152   6.732   5.890   3.681 -0.0727 -0.5022  0.1333
 4063TIP3    H112153   6.738   5.828   3.753  0.1704  0.2683  0.7806
 4063TIP3    H212154   6.823   5.904   3.654 -0.2170 -1.6305 -1.0762
 4064TIP3   OH212155   1.887   0.308   4.437 -0.1540 -0.2463  0.0550
 4064TIP3    H112156   1.953   0.317   4.370  1.3820 -1.4018  1.3334
 4064TIP3    H212157   1.809   0.277   4.391  0.5284  0.0285 -1.3107
 4065TIP3   OH212158   3.594   0.127   1.540 -0.0802  0.0516 -0.3530
 4065TIP3    H112159   3.660   0.092   1.600 -0.8264 -1.6318 -0.4508
 4065TIP3    H212160   3.641   0.139   1.458  0.0707 -1.4489 -0.5161
 4066TIP3   OH212161   0.873   1.651   0.697  0.6288 -0.0315 -0.0664
 4066TIP3    H112162   0.883   1.733   0.746  1.3375  0.0085 -0.2617
 4066TIP3    H212163   0.780   1.648   0.673  0.1283 -0.3425  1.7672
 4067TIP3   OH212164   3.700   6.580   3.411 -0.3157 -0.5486 -0.6077
 4067TIP3    H112165   3.738   6.530   3.482 -0.9072 -0.0692  0.0602
 4067TIP3    H212166   3.755   6.559   3.335  0.4965 -0.8448  0.0420
 4068TIP3   OH212167   1.604   1.577   2.313  0.0037 -0.2106 -0.0103
 4068TIP3    H112168   1.681   1.614   2.271 -0.3445  0.7712  0.1787
 4068TIP3    H212169   1.637   1.537   2.394  0.2578  0.6255  0.3114
 4069TIP3   OH212170   5.222   6.162   3.027 -0.1583  0.5634 -0.8347
 4069TIP3    H112171   5.262   6.183   3.111  0.4719  3.4505 -1.7376
 4069TIP3    H212172   5.177   6.078   3.041  1.9527 -0.2769  1.6441
 4070TIP3   OH212173   2.906   5.144   4.200  0.4612 -0.1042  0.0056
 4070TIP3    H112174   2.982   5.106   4.245 -1.0490 -0.2336  2.6758
 4070TIP3    H212175   2.892   5.228   4.243 -0.9766 -0.1438 -0.3248
 4071TIP3   OH212176   2.160   6.359   0.685 -0.6006 -0.4841 -0.1298
 4071TIP3    H112177   2.151   6.266   0.664  0.5231 -0.4603 -0.7818
 4071TIP3    H212178   2.201   6.360   0.772 -2.9209 -0.5683  1.0580
 4072TIP3   OH212179   5.674   1.381   1.900  0.0679  0.4262  0.0892
 4072TIP3    H112180   5.600   1.373   1.961  0.7326  0.8996  0.9947
 4072TIP3    H212181   5.750   1.394   1.957  0.5702  1.9540 -0.8691
 4073TIP3   OH212182   3.788   5.233   0.025  0.1303  0.1096  0.3303
 4073TIP3    H112183   3.765   5.141   0.041  0.2368 -0.1182 -0.7497
 4073TIP3    H212184   3.856   5.252   0.090  1.0960 -0.9964 -0.3223
 4074TIP3   OH212185   0.088   3.302   0.540  0.3970 -0.5395 -0.1470
 4074TIP3    H112186   0.041   3.338   0.615 -0.8931 -1.3963 -0.4973
 4074TIP3    H212187   0.164   3.359   0.529 -0.5443  0.9025  0.4691
 4075TIP3   OH212188   6.618   2.549   4.577 -0.3262 -0.5281  0.0882
 4075TIP3    H112189   6.608   2.540   4.672  2.0295  1.3148  0.6120
 4075TIP3    H212190   6.672   2.474   4.552 -0.3630 -0.6333  0.3183
 4076TIP3   OH212191   6.335   4.596   2.623 -0.0246  0.2827  0.5899
 4076TIP3    H112192   6.274   4.557   2.561  1.1094  0.1619 -0.4695
 4076TIP3    H212193   6.421   4.582   2.585  0.5339  2.5043  0.9168
 4077TIP3   OH212194   2.569   4.495   5.733 -0.0371 -0.1667 -0.0024
 4077TIP3    H112195   2.639   4.554   5.707  0.3295 -0.5721  0.0609
 4077TIP3    H212196   2.515   4.546   5.793 -0.1534  0.3500 -0.5388
 4078TIP3   OH212197   4.329   6.068   2.350  0.6910 -0.1154  0.0184
 4078TIP3    H112198   4.262   6.103   2.291 -0.7554 -1.6686  0.6644
 4078TIP3    H212199   4.405   6.124   2.335 -0.5236  1.3074 -1.2301
 4079TIP3   OH212200   5.392   3.670   2.524 -0.4115 -0.1579  0.1627
 4079TIP3    H112201   5.393   3.586   2.477 -1.4582 -0.2744  0.3119
 4079TIP3    H212202   5.299   3.688   2.537 -0.1755  0.7673  0.6072
 4080TIP3   OH212203   3.259   3.467   1.308  0.0949  0.2010  0.2725
 4080TIP3    H112204   3.199   3.454   1.381  0.7397  1.0217  0.9678
 4080TIP3    H212205   3.279   3.378   1.277  0.5866 -0.2372  1.7402
 4081TIP3   OH212206   4.594   3.860   2.935  0.2129  0.4927 -0.0356
 4081TIP3    H112207   4.532   3.833   2.868  0.0703 -0.2291  0.3785
 4081TIP3    H212208   4.560   3.944   2.967  0.6864  1.2153 -1.3658
 4082TIP3   OH212209   6.833   1.037   4.392  0.1848 -0.2884 -0.3041
 4082TIP3    H112210   6.921   1.030   4.357 -0.0389 -0.9936 -0.7457
 4082TIP3    H212211   6.816   0.951   4.432 -0.3460 -0.2039 -0.3413
 4083TIP3   OH212212   6.800   2.309   3.277  0.3833 -0.0437 -0.0850
 4083TIP3    H112213   6.889   2.273   3.278 -0.6025 -2.7319  0.9967
 4083TIP3    H212214   6.801   2.378   3.344  1.3905 -0.8276  0.7511
 4084TIP3   OH212215   5.550   1.687   3.542 -0.0239 -0.1299  0.4378
 4084TIP3    H112216   5.603   1.763   3.518 -0.2787 -0.3643 -0.9170
 4084TIP3    H212217   5.532   1.699   3.636  0.1957  1.3211  0.3142
 4085TIP3   OH212218   5.246   4.893   2.926  0.1144 -0.7826 -0.5035
 4085TIP3    H112219   5.209   4.928   3.007  2.0984 -0.7524  0.4460
 4085TIP3    H212220   5.218   4.801   2.925  1.5817 -1.3108  1.2348
 4086TIP3   OH212221   4.111   5.703   2.477  0.2653  0.6080  0.6040
 4086TIP3    H112222   4.142   5.645   2.547  0.2959  0.2229  0.2699
 4086TIP3    H212223   4.109   5.790   2.518 -0.9918  0.1990  1.4899
 4087TIP3   OH212224   4.066   2.415   3.557 -0.2204 -0.2954 -0.3471
 4087TIP3    H112225   4.123   2.443   3.485  0.1024 -1.3755 -0.5374
 4087TIP3    H212226   3.978   2.438   3.528 -0.1470 -1.1581 -1.3391
 4088TIP3   OH212227   2.235   6.211   1.162 -0.3202 -0.0939  0.0899
 4088TIP3    H112228   2.299   6.238   1.228  0.6669 -1.5730 -0.1986
 4088TIP3    H212229   2.247   6.274   1.091  3.9164 -2.5287 -1.7732
 4089TIP3   OH212230   5.395   2.688   4.679 -0.1755  0.0309  0.0440
 4089TIP3    H112231   5.471   2.701   4.621 -0.9967 -1.3296 -1.4114
 4089TIP3    H212232   5.327   2.654   4.622 -1.9814  1.3902  1.2980
 4090TIP3   OH212233   1.689   5.114   0.399 -0.3863 -0.4642 -0.4452
 4090TIP3    H112234   1.712   5.156   0.316  0.4597 -1.2532 -0.6295
 4090TIP3    H212235   1.723   5.173   0.466 -1.2038  0.2488 -0.6504
 4091TIP3   OH212236   5.368   6.463   1.156  0.3895  0.7645 -0.4300
 4091TIP3    H112237   5.360   6.368   1.162  1.7018  0.4579 -2.3302
 4091TIP3    H212238   5.297   6.497   1.210  0.8999 -1.2543  1.6653
 4092TIP3   OH212239   0.587   6.092   3.355 -0.2201  0.4761 -0.0220
 4092TIP3    H112240   0.669   6.063   3.315 -0.0183  1.3167 -0.2368
 4092TIP3    H212241   0.518   6.049   3.304  0.0634  0.5259 -0.4499
 4093TIP3   OH212242   7.164   6.772   4.828  0.4298  0.1994 -0.1284
 4093TIP3    H112243   7.116   6.705   4.878  2.9211 -0.2267  1.9159
 4093TIP3    H212244   7.252   6.771   4.865  1.6157  2.0512 -2.5975
 4094TIP3   OH212245   5.188   3.092   1.732  0.4410 -0.2221  0.2549
 4094TIP3    H112246   5.108   3.054   1.695 -0.1277  1.6722 -0.5952
 4094TIP3    H212247   5.225   3.144   1.660  0.1598  2.2903  1.7890
 4095TIP3   OH212248   0.259   1.312   5.627  0.2351 -0.1759 -0.1707
 4095TIP3    H112249   0.325   1.379   5.609  0.7005 -0.1012  1.6318
 4095TIP3    H212250   0.199   1.354   5.689 -1.0905 -0.5031 -1.1848
 4096TIP3   OH212251   5.006   4.662   1.761  0.0607 -0.1308 -0.2267
 4096TIP3    H112252   5.009   4.696   1.851  1.4913 -0.2653 -0.2134
 4096TIP3    H212253   4.918   4.624   1.754  0.8370 -2.7225  2.0899
 4097TIP3   OH212254   1.263   3.309   2.611  0.1789 -0.1090 -0.0841
 4097TIP3    H112255   1.212   3.260   2.547  0.4004 -0.0913 -0.2779
 4097TIP3    H212256   1.210   3.307   2.691  0.2994 -0.8876 -0.0104
 4098TIP3   OH212257   4.539   2.382   4.677  0.0334 -0.1026 -0.5985
 4098TIP3    H112258   4.517   2.475   4.671 -0.8569 -0.3002 -0.4425
 4098TIP3    H212259   4.634   2.380   4.666 -0.0124  0.7576 -1.2913
 4099TIP3   OH212260   1.715   4.127   1.201  0.2766  0.3398 -0.0105
 4099TIP3    H112261   1.765   4.058   1.245 -1.1547 -0.1834  0.8636
 4099TIP3    H212262   1.623   4.099   1.208 -0.2567  1.8471 -0.5028
 4100TIP3   OH212263   2.860   4.690   4.956 -0.2875  0.2847 -0.1148
 4100TIP3    H112264   2.834   4.632   5.027 -0.9480  1.3341  0.5290
 4100TIP3    H212265   2.783   4.693   4.899 -0.5424  1.1066  0.2584
 4101TIP3   OH212266   4.510   5.285   4.821 -0.0391  0.3240 -0.5929
 4101TIP3    H112267   4.580   5.256   4.881  0.3830 -1.2555 -1.7919
 4101TIP3    H212268   4.439   5.223   4.836  0.4919 -0.8263 -2.4703
 4102TIP3   OH212269   6.732   0.884   4.785  0.3241  0.1925  0.4380
 4102TIP3    H112270   6.811   0.936   4.773 -0.3095  0.6904 -2.0229
 4102TIP3    H212271   6.664   0.949   4.805 -0.8228  0.7944 -4.2174
 4103TIP3   OH212272   2.333   0.306   1.885  0.4483 -0.2348  0.2893
 4103TIP3    H112273   2.359   0.397   1.871  1.6363 -0.2228  2.2068
 4103TIP3    H212274   2.250   0.313   1.932 -0.4046 -0.2074 -1.1575
 4104TIP3   OH212275   4.927   3.710   1.569  0.5665  0.1908 -0.2098
 4104TIP3    H112276   4.994   3.657   1.525 -1.2070 -0.9200 -1.7090
 4104TIP3    H212277   4.960   3.800   1.562  2.9769 -0.4754  1.1716
 4105TIP3   OH212278   5.092   3.979   1.624 -0.0900 -0.2039 -0.0281
 4105TIP3    H112279   5.183   4.010   1.623 -0.4624  0.9822 -1.7611
 4105TIP3    H212280   5.046   4.042   1.679 -0.1486  0.1707 -0.4953
 4106TIP3   OH212281   3.741   3.555   4.608 -0.2935  0.0086  0.5927
 4106TIP3    H112282   3.816   3.610   4.629 -1.2530  1.3051  0.7368
 4106TIP3    H212283   3.769   3.505   4.531  1.1164 -0.4033  1.3384
 4107TIP3   OH212284   3.673   1.229   1.259  0.1280 -0.3320  0.0746
 4107TIP3    H112285   3.741   1.296   1.269 -0.8068  0.9337 -1.4049
 4107TIP3    H212286   3.616   1.241   1.335  0.3955  0.0377  0.2199
 4108TIP3   OH212287   6.689   0.807   1.982 -0.4812  1.2618  0.8168
 4108TIP3    H112288   6.757   0.820   1.917  1.9393 -3.3892  2.0008
 4108TIP3    H212289   6.623   0.753   1.938  0.9056 -1.4455  1.8523
 4109TIP3   OH212290   6.762   5.454   1.049  0.0402  0.0050 -0.3975
 4109TIP3    H112291   6.792   5.363   1.052  0.2778  0.0995  0.2804
 4109TIP3    H212292   6.749   5.472   0.956  1.7466 -0.1622 -0.7028
 4110TIP3   OH212293   0.534   0.383   3.576  0.7550 -0.1653 -0.5331
 4110TIP3    H112294   0.515   0.469   3.540  0.4153 -0.5763 -1.3810
 4110TIP3    H212295   0.473   0.324   3.530  1.1408 -0.8871 -0.1450
 4111TIP3   OH212296   1.919   2.790   0.294  0.0674 -0.0610  0.0199
 4111TIP3    H112297   1.903   2.700   0.264  1.9756 -0.2330 -0.6352
 4111TIP3    H212298   1.893   2.789   0.386  0.4721 -1.4332  0.1485
 4112TIP3   OH212299   6.465   5.693   5.627  0.1730 -0.2284 -0.4397
 4112TIP3    H112300   6.526   5.719   5.558  2.6497 -2.5958  0.6677
 4112TIP3    H212301   6.431   5.608   5.598  1.7165 -1.5612  1.3627
 4113TIP3   OH212302   5.580   4.667   2.001  0.3910 -0.7696 -0.3026
 4113TIP3    H112303   5.515   4.610   2.043 -0.0363 -3.0699 -3.6502
 4113TIP3    H212304   5.660   4.614   1.999  0.4019 -0.7546 -2.1633
 4114TIP3   OH212305   5.900   0.497   1.398  0.0625 -0.4730  0.7769
 4114TIP3    H112306   5.956   0.516   1.323 -0.6482  0.6905  0.5129
 4114TIP3    H212307   5.950   0.434   1.450  1.5209  0.3613  0.4434
 4115TIP3   OH212308   1.292   1.801   1.806  0.7282  0.0385 -0.3521
 4115TIP3    H112309   1.220   1.740   1.790  0.1251  0.5125  0.4857
 4115TIP3    H212310   1.347   1.795   1.727 -0.0606 -0.5495 -0.8686
 4116TIP3   OH212311   5.057   4.374   3.256 -0.4617  0.3393 -0.2456
 4116TIP3    H112312   5.056   4.346   3.348  1.9010  1.7995  0.3085
 4116TIP3    H212313   4.979   4.429   3.247 -2.6606 -2.5442 -0.1535
 4117TIP3   OH212314   6.495   5.316   0.601 -0.5549 -0.1419 -0.8163
 4117TIP3    H112315   6.464   5.306   0.691  0.1059 -1.1783 -0.6937
 4117TIP3    H212316   6.591   5.310   0.608 -0.3496  1.7389 -1.3485
 4118TIP3   OH212317   3.570   0.942   5.471 -0.0230  0.2210 -0.0839
 4118TIP3    H112318   3.539   1.030   5.451 -2.2392 -0.6183 -0.5671
 4118TIP3    H212319   3.658   0.939   5.433  1.3589  3.1065  2.4300
 4119TIP3   OH212320   2.879   4.908   2.313  0.0233  0.0222 -0.3493
 4119TIP3    H112321   2.922   4.952   2.387  0.6328 -1.0813 -0.0260
 4119TIP3    H212322   2.828   4.838   2.353 -1.4888  0.8285 -0.8047
 4120TIP3   OH212323   4.712   5.304   4.145  0.1034  0.1014 -0.0463
 4120TIP3    H112324   4.714   5.381   4.201  1.2837 -0.0239  0.1136
 4120TIP3    H212325   4.778   5.245   4.182  1.0151  0.0691 -1.6146
 4121TIP3   OH212326   0.878   4.841   3.932  0.8895  0.5318  0.8935
 4121TIP3    H112327   0.900   4.748   3.939  1.3480  0.6309  0.8286
 4121TIP3    H212328   0.839   4.863   4.016  0.2911  0.1571  0.7236
 4122TIP3   OH212329   0.979   6.142   4.902 -0.1746 -0.2213  0.2282
 4122TIP3    H112330   0.966   6.107   4.813  2.2479 -3.5454  1.0089
 4122TIP3    H212331   1.000   6.065   4.955 -0.2680  1.8304  3.4647
 4123TIP3   OH212332   5.974   3.760   4.117 -0.1718  0.0957 -0.0698
 4123TIP3    H112333   6.014   3.804   4.191  0.0159  1.4105 -0.9246
 4123TIP3    H212334   5.947   3.830   4.058  0.3804 -0.9255 -1.6135
 4124TIP3   OH212335   5.689   1.302   0.300  0.4799 -0.6270 -0.6406
 4124TIP3    H112336   5.687   1.349   0.217  0.2322 -0.6350 -0.6382
 4124TIP3    H212337   5.628   1.349   0.356  0.3532 -0.8561 -0.5862
 4125TIP3   OH212338   2.635   4.901   5.641  0.7134  0.4870  0.2159
 4125TIP3    H112339   2.694   4.872   5.710  1.1765  0.4727 -0.1831
 4125TIP3    H212340   2.687   4.895   5.561  0.1532  0.4235 -0.1445
 4126TIP3   OH212341   1.260   3.721   3.229  0.0277 -0.5836 -0.1744
 4126TIP3    H112342   1.189   3.657   3.237  0.7430 -1.4641 -0.6605
 4126TIP3    H212343   1.218   3.801   3.198 -0.6085 -1.4014 -1.5112
 4127TIP3   OH212344   6.020   5.744   4.276  0.5736  0.2585 -0.8103
 4127TIP3    H112345   5.927   5.754   4.254  0.1723 -0.3136  0.5326
 4127TIP3    H212346   6.024   5.663   4.328  1.7755  0.4508 -0.5743
 4128TIP3   OH212347   5.857   4.130   5.460 -0.0154 -0.3003  0.1678
 4128TIP3    H112348   5.881   4.149   5.369 -0.9346  1.1120  0.1898
 4128TIP3    H212349   5.918   4.182   5.512 -2.2496  2.4997  0.2362
 4129TIP3   OH212350   5.609   3.151   1.009 -0.3098 -0.1853  0.2839
 4129TIP3    H112351   5.532   3.147   1.065 -0.4971  0.4560  0.0844
 4129TIP3    H212352   5.667   3.082   1.041 -1.3329 -1.2500 -0.1141
 4130TIP3   OH212353   4.628   4.306   2.439  0.7379 -0.1393  0.3880
 4130TIP3    H112354   4.548   4.341   2.398  0.7450 -0.3290  0.2112
 4130TIP3    H212355   4.596   4.244   2.505  0.7513 -0.6491 -0.0809
 4131TIP3   OH212356   0.653   0.698   1.529  0.4681 -0.1994  0.1379
 4131TIP3    H112357   0.675   0.761   1.461  0.8918 -1.2154 -0.7109
 4131TIP3    H212358   0.711   0.623   1.512 -0.1153 -0.8765  1.0051
 4132TIP3   OH212359   1.599   5.324   3.738 -0.1957 -0.6066  0.2227
 4132TIP3    H112360   1.680   5.353   3.782 -0.4647 -0.8916  0.9217
 4132TIP3    H212361   1.564   5.404   3.698 -0.9224  0.0856  2.1174
 4133TIP3   OH212362   6.201   0.179   3.845 -0.0607  0.3464  0.1463
 4133TIP3    H112363   6.238   0.208   3.762  0.1915  2.4735  0.9217
 4133TIP3    H212364   6.230   0.089   3.855  1.0670  0.4982 -1.4102
 4134TIP3   OH212365   1.108   3.721   3.564  0.0480 -0.6263  0.3078
 4134TIP3    H112366   1.155   3.787   3.614 -1.3179 -1.2392  2.5137
 4134TIP3    H212367   1.149   3.638   3.589 -0.8738 -0.9745  0.7032
 4135TIP3   OH212368   5.953   1.505   0.330  0.8028  0.2273 -0.3306
 4135TIP3    H112369   5.881   1.519   0.392  0.0944  0.4183 -1.1765
 4135TIP3    H212370   5.909   1.491   0.246  1.7696  0.8164 -0.9481
 4136TIP3   OH212371   5.347   5.593   1.997  0.2316 -0.7113  0.5156
 4136TIP3    H112372   5.401   5.553   1.928 -0.8885 -0.9808 -0.2369
 4136TIP3    H212373   5.409   5.645   2.048  0.7827  1.5611 -2.2002
 4137TIP3   OH212374   2.097   4.115   2.310  0.0467 -0.1235 -0.0884
 4137TIP3    H112375   2.002   4.121   2.303  0.0772  1.4719  0.3554
 4137TIP3    H212376   2.113   4.034   2.358 -1.0719 -0.4789 -0.2764
 4138TIP3   OH212377   7.055   2.684   0.187  0.0351  0.0709 -0.3714
 4138TIP3    H112378   7.083   2.751   0.249 -2.1238  0.1818  0.5854
 4138TIP3    H212379   6.985   2.726   0.137  0.7185 -0.5207 -1.8737
 4139TIP3   OH212380   1.875   5.785   5.343 -0.1902  0.7884 -0.0226
 4139TIP3    H112381   1.914   5.698   5.356 -3.2887 -0.7902 -0.1733
 4139TIP3    H212382   1.939   5.833   5.292  0.9785 -2.0313 -1.4290
 4140TIP3   OH212383   3.630   6.489   0.157 -0.8085  0.0904 -0.1070
 4140TIP3    H112384   3.613   6.562   0.097 -0.0381  0.1939 -0.2066
 4140TIP3    H212385   3.633   6.530   0.244 -1.3451  0.0250 -0.0517
 4141TIP3   OH212386   2.574   2.122   0.318 -0.1581 -0.2040  0.2972
 4141TIP3    H112387   2.536   2.038   0.345  0.3853 -0.6438 -0.2685
 4141TIP3    H212388   2.643   2.140   0.382  0.3118 -0.6313 -0.0863
 4142TIP3   OH212389   2.246   3.409   1.764  0.3452 -0.6477 -0.3923
 4142TIP3    H112390   2.267   3.442   1.677  0.2202  0.3584 -0.0615
 4142TIP3    H212391   2.251   3.487   1.820  0.7969 -1.3451  0.5597
 4143TIP3   OH212392   5.638   4.761   3.834  0.2287 -0.0258 -0.2069
 4143TIP3    H112393   5.550   4.730   3.853 -0.6306  1.1457 -2.0031
 4143TIP3    H212394   5.642   4.848   3.874  0.6151 -0.1245 -0.0264
 4144TIP3   OH212395   3.894   5.681   4.719  0.2633  0.0123  0.2638
 4144TIP3    H112396   3.857   5.594   4.709  1.7185 -0.5856 -0.1905
 4144TIP3    H212397   3.820   5.736   4.747 -1.0568 -1.0004 -1.0629
 4145TIP3   OH212398   5.341   4.776   1.212  0.1984  0.1149 -0.2842
 4145TIP3    H112399   5.404   4.804   1.278  0.2580  0.6159 -0.5488
 4145TIP3    H212400   5.329   4.682   1.228  1.0687  0.0013 -0.2815
 4146TIP3   OH212401   6.271   1.844   5.237  0.6655 -0.4459 -0.1281
 4146TIP3    H112402   6.213   1.920   5.234  1.2960  0.0424 -0.0291
 4146TIP3    H212403   6.333   1.858   5.166  1.3556 -0.4076  0.4745
 4147TIP3   OH212404   5.302   4.029   4.921  0.1205 -0.1585  0.2406
 4147TIP3    H112405   5.264   3.941   4.923 -0.9417  0.2889  0.2205
 4147TIP3    H212406   5.247   4.078   4.860  0.5208  0.6108  0.4794
 4148TIP3   OH212407   5.182   4.444   4.190 -0.1823  0.3073  0.1142
 4148TIP3    H112408   5.226   4.388   4.127 -1.5196 -1.4908  0.6627
 4148TIP3    H212409   5.231   4.433   4.271  0.7136  1.5208 -0.2430
 4149TIP3   OH212410   2.083   5.142   3.138 -0.0021  0.1887  0.4481
 4149TIP3    H112411   2.163   5.156   3.188  0.6523  0.4276 -0.6443
 4149TIP3    H212412   2.024   5.098   3.200  1.3769 -1.0919  0.9253
 4150TIP3   OH212413   3.120   5.383   0.162 -0.2812 -0.1856 -0.4505
 4150TIP3    H112414   3.210   5.407   0.140 -0.5324 -0.8282 -2.3644
 4150TIP3    H212415   3.092   5.450   0.225  2.0071 -0.8786  1.4645
 4151TIP3   OH212416   2.485   4.809   0.266 -0.5409 -0.3648  0.1694
 4151TIP3    H112417   2.486   4.714   0.258  3.7510 -0.5121  0.0819
 4151TIP3    H212418   2.557   4.839   0.210  0.0346  2.6687  2.2644
 4152TIP3   OH212419   1.439   0.975   3.319  0.9542 -0.1003 -0.0309
 4152TIP3    H112420   1.533   0.975   3.303  0.9458  1.3862 -0.1516
 4152TIP3    H212421   1.404   1.041   3.260 -0.1792 -0.6303  0.0129
 4153TIP3   OH212422   1.056   4.847   3.474 -0.0838  0.1538 -0.5671
 4153TIP3    H112423   1.058   4.804   3.389  2.3774  0.9869 -1.0133
 4153TIP3    H212424   1.056   4.776   3.538 -0.9632 -0.4699 -1.2426
 4154TIP3   OH212425   0.893   2.967   2.323 -0.2769 -0.0179 -0.0767
 4154TIP3    H112426   0.909   2.878   2.293 -0.5333  0.0694 -0.4868
 4154TIP3    H212427   0.941   3.022   2.260 -2.2536  0.2625 -1.4396
 4155TIP3   OH212428   4.352   3.992   3.887 -0.0924 -0.2554 -0.0331
 4155TIP3    H112429   4.297   4.025   3.815 -0.7793  1.1312  1.0610
 4155TIP3    H212430   4.329   3.900   3.895 -1.4294  0.0257 -0.3717
 4156TIP3   OH212431   7.075   4.457   1.137  0.2116 -0.2429 -1.3671
 4156TIP3    H112432   7.034   4.535   1.175 -0.8788 -1.4287 -0.0010
 4156TIP3    H212433   7.001   4.403   1.107  0.8898 -1.2204 -1.3164
 4157TIP3   OH212434   4.619   2.752   2.536 -0.4702  0.0133 -0.4468
 4157TIP3    H112435   4.620   2.664   2.498  0.0652 -0.1188 -0.1438
 4157TIP3    H212436   4.572   2.805   2.472 -1.3711 -0.6229 -0.3241
 4158TIP3   OH212437   0.836   0.323   4.471  0.3789  0.4896  0.0085
 4158TIP3    H112438   0.898   0.357   4.407  1.2460  0.8118  0.9951
 4158TIP3    H212439   0.809   0.238   4.436 -1.4713  1.9149 -2.2608
 4159TIP3   OH212440   0.319   3.266   5.336  0.0281  0.3093  0.1695
 4159TIP3    H112441   0.322   3.348   5.286  1.2137 -0.6737 -1.4757
 4159TIP3    H212442   0.262   3.209   5.284  2.5497 -1.2729 -1.0733
 4160TIP3   OH212443   2.280   4.955   4.351 -0.4385  1.0941  0.3317
 4160TIP3    H112444   2.287   5.035   4.298  0.3483  1.7277  1.3676
 4160TIP3    H212445   2.254   4.985   4.438 -0.9161  0.1314  0.5393
 4161TIP3   OH212446   2.271   6.758   0.178  0.0592  0.0170  0.2240
 4161TIP3    H112447   2.355   6.786   0.141  0.8832  0.9141  2.5382
 4161TIP3    H212448   2.270   6.663   0.166 -1.1034  0.4206 -4.5192
 4162TIP3   OH212449   1.720   5.006   2.909  0.0786 -0.1532 -0.0528
 4162TIP3    H112450   1.686   4.919   2.929 -2.1562  0.0708 -2.3152
 4162TIP3    H212451   1.775   4.994   2.832  0.0581  0.3816 -0.1575
 4163TIP3   OH212452   0.228   4.319   0.705  0.6045  0.0324  0.2779
 4163TIP3    H112453   0.148   4.278   0.737  1.3964 -0.1455  2.1432
 4163TIP3    H212454   0.201   4.365   0.625 -0.8527 -1.8988 -0.4107
 4164TIP3   OH212455   4.471   0.800   4.261  0.0827 -0.5024  0.1439
 4164TIP3    H112456   4.419   0.738   4.211  1.1173 -0.9326 -0.4360
 4164TIP3    H212457   4.526   0.746   4.317 -1.3670 -0.0188  2.1323
 4165TIP3   OH212458   4.943   5.773   4.301  0.4932  0.0670 -0.8928
 4165TIP3    H112459   4.924   5.845   4.361 -0.5559  0.2289 -1.3854
 4165TIP3    H212460   4.890   5.792   4.224 -0.9353 -1.9492 -0.4936
 4166TIP3   OH212461   2.641   1.131   4.578  0.2319  0.0637  0.2995
 4166TIP3    H112462   2.627   1.225   4.575 -2.1195 -0.1734  1.3477
 4166TIP3    H212463   2.657   1.106   4.487  1.1055  1.4700  0.0377
 4167TIP3   OH212464   5.258   0.216   1.324 -0.6926 -0.4292  0.4587
 4167TIP3    H112465   5.319   0.186   1.257 -1.4723 -0.6106 -0.1912
 4167TIP3    H212466   5.178   0.166   1.307 -1.6448  1.1693  0.0966
 4168TIP3   OH212467   1.737   0.407   4.669  0.1524  0.1912  0.2237
 4168TIP3    H112468   1.789   0.402   4.589 -0.7258 -1.0461 -0.2997
 4168TIP3    H212469   1.791   0.364   4.736 -0.2144 -1.1962 -0.3426
 4169TIP3   OH212470   4.874   4.185   0.873 -0.1292 -0.2178  0.0679
 4169TIP3    H112471   4.786   4.172   0.907 -0.7280  1.9404 -0.5106
 4169TIP3    H212472   4.886   4.115   0.810 -0.8802 -1.3601  1.1507
 4170TIP3   OH212473   3.901   0.181   5.503 -0.0612  0.4355 -0.6289
 4170TIP3    H112474   3.968   0.203   5.568 -0.5300 -0.7626  0.2838
 4170TIP3    H212475   3.856   0.105   5.539 -0.6040 -0.0166 -2.1699
 4171TIP3   OH212476   3.804   4.209   0.846 -0.1448 -0.0465 -0.3503
 4171TIP3    H112477   3.804   4.137   0.909  1.8380 -0.8264 -1.1442
 4171TIP3    H212478   3.873   4.267   0.876 -0.9366  0.9312 -0.3869
 4172TIP3   OH212479   4.689   1.471   0.666  0.1372  0.1603  0.3526
 4172TIP3    H112480   4.698   1.505   0.754 -1.1515  1.0266  0.1818
 4172TIP3    H212481   4.675   1.549   0.611  1.3506 -0.3209 -0.6932
 4173TIP3   OH212482   1.305   2.922   2.551 -0.1142 -0.0674 -0.2398
 4173TIP3    H112483   1.270   2.834   2.558  0.5228 -0.3061 -0.0031
 4173TIP3    H212484   1.340   2.941   2.639 -2.6122  1.4408  0.5149
 4174TIP3   OH212485   3.831   0.716   1.966  0.3027 -0.0651 -0.4182
 4174TIP3    H112486   3.915   0.714   1.920  0.8760 -2.2519  0.6079
 4174TIP3    H212487   3.847   0.669   2.047 -1.8731 -0.3183 -0.0846
 4175TIP3   OH212488   6.674   5.418   2.937 -0.4899 -0.2683 -0.1909
 4175TIP3    H112489   6.716   5.375   3.012 -1.3725  0.4233  0.7135
 4175TIP3    H212490   6.743   5.473   2.900  0.0406 -0.8462 -0.0975
 4176TIP3   OH212491   4.082   2.119   2.455 -0.1998  0.0736 -0.3667
 4176TIP3    H112492   4.034   2.133   2.373  1.2712  0.5017 -1.1978
 4176TIP3    H212493   4.019   2.140   2.524 -1.7178 -1.0656 -1.3486
 4177TIP3   OH212494   5.351   3.854   3.187 -0.6392  0.2102 -0.1884
 4177TIP3    H112495   5.274   3.899   3.151 -0.2503  0.7189 -0.3839
 4177TIP3    H212496   5.413   3.850   3.115  0.2609  1.4818  0.4799
 4178TIP3   OH212497   2.128   5.487   3.962 -0.0372 -0.3203 -0.0370
 4178TIP3    H112498   2.083   5.408   3.991  0.4711 -0.2068  1.1106
 4178TIP3    H212499   2.096   5.556   4.020 -0.0812  0.2226 -0.6847
 4179TIP3   OH212500   1.116   4.703   5.414  0.0490 -0.0527  0.3373
 4179TIP3    H112501   1.203   4.742   5.410  1.1442 -2.3362  0.1912
 4179TIP3    H212502   1.086   4.700   5.323 -1.0698  2.4245  0.5425
 4180TIP3   OH212503   0.047   4.230   1.040 -0.0020  0.6071 -0.1348
 4180TIP3    H112504   0.000   4.208   0.960  0.3051 -0.2533 -0.0853
 4180TIP3    H212505  -0.022   4.250   1.104 -0.3680 -1.4457  0.1716
 4181TIP3   OH212506   5.296   0.331   1.978 -0.5292  0.1242  0.3801
 4181TIP3    H112507   5.326   0.414   2.014 -0.3126  0.4921 -0.6171
 4181TIP3    H212508   5.325   0.266   2.041  1.5341  0.5601 -0.0443
 4182TIP3   OH212509   2.459   3.634   5.509  0.3627  0.4856 -0.2434
 4182TIP3    H112510   2.419   3.559   5.464 -1.8477  1.3384  0.1826
 4182TIP3    H212511   2.388   3.672   5.560  0.4493  4.7138 -2.7661
 4183TIP3   OH212512   5.259   5.503   3.192  0.1475 -0.4249 -0.1854
 4183TIP3    H112513   5.301   5.428   3.236  0.0417  0.5404  1.6569
 4183TIP3    H212514   5.227   5.467   3.109 -0.9322 -2.7404  1.1250
 4184TIP3   OH212515   0.831   6.583   4.650 -0.9446 -0.1820  0.2823
 4184TIP3    H112516   0.854   6.491   4.664 -0.4047 -0.0697  0.1827
 4184TIP3    H212517   0.776   6.605   4.725 -1.3052 -0.6604  0.1629
 4185TIP3   OH212518   5.477   4.661   5.639 -0.2169  0.1184 -0.1185
 4185TIP3    H112519   5.561   4.708   5.635  0.1414 -0.4949  0.0803
 4185TIP3    H212520   5.433   4.697   5.716 -0.1302  0.4296 -0.2133
 4186TIP3   OH212521   6.849   1.162   5.718  0.4427  0.0403  0.2094
 4186TIP3    H112522   6.788   1.178   5.646  1.7058  0.5481 -0.7940
 4186TIP3    H212523   6.796   1.171   5.797 -0.7956  0.3590 -0.6268
 4187TIP3   OH212524   1.812   4.885   0.884 -0.4276 -0.3406 -0.9376
 4187TIP3    H112525   1.882   4.833   0.923  0.6589  1.1661 -0.7728
 4187TIP3    H212526   1.731   4.842   0.913  0.4036 -1.5684 -0.3402
 4188TIP3   OH212527   6.813   3.414   3.078 -0.2619  0.1465 -0.1825
 4188TIP3    H112528   6.719   3.423   3.092 -0.0837  2.9251 -0.3523
 4188TIP3    H212529   6.848   3.389   3.164 -0.9132  1.3593  0.4527
 4189TIP3   OH212530   5.830   0.286   2.402  0.3231 -0.1868  0.0819
 4189TIP3    H112531   5.878   0.244   2.474 -0.0147 -0.0322  0.4018
 4189TIP3    H212532   5.738   0.265   2.420  0.2336 -0.1077 -0.2830
 4190TIP3   OH212533   6.472   5.340   2.753 -0.0072 -0.0067 -0.0237
 4190TIP3    H112534   6.529   5.340   2.830  1.7759  0.0948 -1.2877
 4190TIP3    H212535   6.418   5.261   2.763 -1.2210  1.0328  2.2689
 4191TIP3   OH212536   4.132   3.432   2.347 -0.3864  0.7778 -0.7426
 4191TIP3    H112537   4.053   3.421   2.401  0.8925  1.0579  1.2791
 4191TIP3    H212538   4.099   3.435   2.257 -2.7152  1.3021  0.0607
 4192TIP3   OH212539   6.622   5.117   4.150 -0.6993  0.3939 -0.0913
 4192TIP3    H112540   6.674   5.194   4.174  1.8450 -0.9099 -1.1075
 4192TIP3    H212541   6.559   5.108   4.222 -1.0324  3.3324  0.0943
 4193TIP3   OH212542   5.530   5.736   1.339  0.2133  0.0791  0.0642
 4193TIP3    H112543   5.512   5.830   1.330  1.4073  0.3839  0.6310
 4193TIP3    H212544   5.469   5.694   1.278 -1.6172  1.0807  1.1051
 4194TIP3   OH212545   5.813   0.852   5.128 -0.4431  0.9747  0.0994
 4194TIP3    H112546   5.842   0.928   5.077 -0.4480  1.1497  0.3552
 4194TIP3    H212547   5.868   0.780   5.097 -0.5165  1.0565 -0.2249
 4195TIP3   OH212548   3.519   4.514   4.150 -0.7102  0.0225 -0.1274
 4195TIP3    H112549   3.437   4.556   4.176 -1.7611 -0.1289 -2.8675
 4195TIP3    H212550   3.492   4.444   4.090  1.3924 -0.6606 -0.3622
 4196TIP3   OH212551   6.520   1.666   1.109 -0.4488 -0.3552  0.3948
 4196TIP3    H112552   6.459   1.644   1.039 -0.4290 -0.7771  0.5078
 4196TIP3    H212553   6.603   1.627   1.082 -0.1051  0.6108  0.0172
 4197TIP3   OH212554   7.056   2.071   3.662  0.4258  0.0476 -0.5015
 4197TIP3    H112555   7.150   2.086   3.654  0.1771  1.1870 -1.6749
 4197TIP3    H212556   7.034   2.104   3.749  1.3364 -1.6440  0.4026
 4198TIP3   OH212557   0.172   3.972   0.199 -0.0589  0.3829 -0.1512
 4198TIP3    H112558   0.244   3.938   0.252 -0.8650  1.0472  1.4702
 4198TIP3    H212559   0.203   3.966   0.109  1.8962  0.3813  0.4693
 4199TIP3   OH212560   4.874   1.852   0.999 -0.2437 -0.1538  0.2000
 4199TIP3    H112561   4.916   1.808   1.073 -0.3839  0.1606  0.4669
 4199TIP3    H212562   4.839   1.781   0.945 -0.9404 -0.3520  0.9010
 4200TIP3   OH212563   1.079   0.445   3.186 -0.1212  0.0603  0.9880
 4200TIP3    H112564   1.003   0.466   3.240 -0.6232 -1.1253  0.7879
 4200TIP3    H212565   1.148   0.421   3.249  0.6684  2.7356  1.2484
 4201TIP3   OH212566   1.651   0.604   0.862  0.3240  0.1019  0.2626
 4201TIP3    H112567   1.665   0.587   0.955  0.2807  0.2268  0.2936
 4201TIP3    H212568   1.556   0.602   0.851  0.3738 -1.0928 -0.0159
 4202TIP3   OH212569   6.820   1.616   3.808 -0.4605  0.7615  0.4797
 4202TIP3    H112570   6.844   1.682   3.873  0.5977  0.8272  0.0452
 4202TIP3    H212571   6.892   1.554   3.810  0.3690  1.5621 -1.6750
 4203TIP3   OH212572   2.857   2.506   1.433 -0.2223  0.5210 -0.0767
 4203TIP3    H112573   2.836   2.423   1.390 -1.4015  1.4902 -1.4679
 4203TIP3    H212574   2.890   2.561   1.362 -1.4068  1.9037  0.4062
 4204TIP3   OH212575   3.612   2.661   5.147 -0.6416  0.3401  0.8444
 4204TIP3    H112576   3.563   2.695   5.073 -1.2387 -2.3849 -0.1467
 4204TIP3    H212577   3.546   2.626   5.206 -0.1381 -3.3713 -0.5044
 4205TIP3   OH212578   6.973   4.971   1.242  0.3655 -0.1103  0.5491
 4205TIP3    H112579   7.066   4.962   1.222  0.5555 -0.7530  1.6485
 4205TIP3    H212580   6.944   5.045   1.189  1.1695 -0.7953 -0.9036
 4206TIP3   OH212581   0.118   5.250   2.242  0.7640  0.1001 -1.0525
 4206TIP3    H112582   0.068   5.332   2.237  0.3825 -0.1909 -2.6180
 4206TIP3    H212583   0.168   5.258   2.323  0.3734  1.6748 -0.9194
 4207TIP3   OH212584   3.065   0.615   0.422  0.2218 -0.3456 -0.4508
 4207TIP3    H112585   3.142   0.598   0.366  1.7205 -0.7748  1.6106
 4207TIP3    H212586   3.101   0.622   0.510 -1.7873  2.3721  0.2746
 4208TIP3   OH212587   5.628   5.609   3.767 -0.2671  0.5202 -0.5827
 4208TIP3    H112588   5.615   5.667   3.692 -0.0632 -2.1652 -2.8655
 4208TIP3    H212589   5.560   5.542   3.757 -0.0819 -0.0442  1.5498
 4209TIP3   OH212590   4.977   2.187   0.147 -0.0234  0.4872 -0.3461
 4209TIP3    H112591   4.990   2.121   0.215 -1.3085  1.2012  0.6409
 4209TIP3    H212592   4.897   2.159   0.101 -1.4906  2.0900  1.0825
 4210TIP3   OH212593   0.115   1.082   4.890 -0.0576  0.2132 -0.0777
 4210TIP3    H112594   0.035   1.097   4.941  0.6862  1.6372  0.7424
 4210TIP3    H212595   0.186   1.104   4.950  0.9209 -0.0580 -1.1035
 4211TIP3   OH212596   0.044   1.402   3.592  0.0120 -0.5644 -0.0791
 4211TIP3    H112597   0.043   1.314   3.630  0.7967 -0.5051  0.0859
 4211TIP3    H212598   0.128   1.408   3.547 -0.7871 -0.5249 -1.6178
 4212TIP3   OH212599   1.519   6.734   4.591 -0.6443  0.5406 -0.0880
 4212TIP3    H112600   1.590   6.786   4.631 -0.7301  0.0020  0.8068
 4212TIP3    H212601   1.565   6.662   4.547 -0.5687  0.9337 -0.6603
 4213TIP3   OH212602   0.306   6.213   0.702 -0.2356  0.4092 -0.5744
 4213TIP3    H112603   0.331   6.298   0.664  1.0706  0.4783  0.3614
 4213TIP3    H212604   0.387   6.161   0.698 -0.4380 -0.0452  0.8227
 4214TIP3   OH212605   0.166   5.560   1.358  0.8742 -0.1141 -0.0339
 4214TIP3    H112606   0.210   5.596   1.281  2.0543 -0.4455  0.4752
 4214TIP3    H212607   0.148   5.468   1.334  3.1099 -0.8265  0.8193
 4215TIP3   OH212608   3.515   3.571   0.398  0.2095 -0.4740 -0.2344
 4215TIP3    H112609   3.512   3.505   0.330  1.5102 -0.1155 -0.6699
 4215TIP3    H212610   3.602   3.561   0.438  0.1555  0.4813  0.1666
 4216TIP3   OH212611   3.769   1.753   4.636 -0.5677  0.2158 -0.0123
 4216TIP3    H112612   3.760   1.797   4.720 -2.3901 -0.2408  0.0532
 4216TIP3    H212613   3.680   1.733   4.609 -0.0533  0.6352 -2.2181
 4217TIP3   OH212614   3.996   5.764   2.143  0.4194 -0.5770  0.1269
 4217TIP3    H112615   4.089   5.783   2.157 -0.0362  1.9947  0.2714
 4217TIP3    H212616   3.994   5.709   2.065  2.0316  0.5803 -0.8051
 4218TIP3   OH212617   3.900   2.220   4.771  0.4494  0.1395  0.1172
 4218TIP3    H112618   3.899   2.166   4.692 -3.4027  2.0354 -1.3788
 4218TIP3    H212619   3.973   2.280   4.758  0.9933 -0.7413 -1.1140
 4219TIP3   OH212620   4.760   1.715   3.014 -0.0188  0.2566  0.1345
 4219TIP3    H112621   4.813   1.637   3.030  0.4576  0.6194  0.3519
 4219TIP3    H212622   4.675   1.694   3.052 -0.2784 -0.6243 -0.8946
 4220TIP3   OH212623   3.102   2.748   4.871 -0.1493 -0.2673 -0.3837
 4220TIP3    H112624   3.126   2.819   4.811  2.1387  0.2935  1.0901
 4220TIP3    H212625   3.088   2.672   4.814 -1.0389  0.9428 -1.8459
 4221TIP3   OH212626   1.857   3.342   0.882 -0.1299  0.1247 -0.1575
 4221TIP3    H112627   1.849   3.426   0.837  0.8326 -0.0509 -0.6778
 4221TIP3    H212628   1.924   3.357   0.949  0.3911 -0.3590 -0.5665
 4222TIP3   OH212629   0.955   4.050   0.493  0.0899 -0.6159 -0.1368
 4222TIP3    H112630   0.997   4.034   0.577 -1.8788 -0.7451  0.8842
 4222TIP3    H212631   0.890   4.118   0.511  1.4424  1.3709 -2.1870
 4223TIP3   OH212632   5.808   4.478   2.264  0.4665 -0.3867  0.0931
 4223TIP3    H112633   5.729   4.426   2.278  1.0095 -0.9386  1.2590
 4223TIP3    H212634   5.775   4.564   2.238 -0.6277  0.0332  2.5774
 4224TIP3   OH212635   0.601   2.500   0.190  0.5525 -0.1670  0.2427
 4224TIP3    H112636   0.578   2.421   0.140  2.4196 -1.8030  1.7808
 4224TIP3    H212637   0.533   2.506   0.257  0.3923 -0.4764  0.1112
 4225TIP3   OH212638   4.198   3.181   3.564 -0.2229  0.1097 -0.3197
 4225TIP3    H112639   4.222   3.230   3.643 -0.0403  0.6707 -0.7196
 4225TIP3    H212640   4.103   3.172   3.570  0.0799 -3.2310  1.9224
 4226TIP3   OH212641   3.711   3.743   2.264  0.0517  0.8973  0.1935
 4226TIP3    H112642   3.636   3.684   2.259  0.7440 -0.1875  1.6787
 4226TIP3    H212643   3.696   3.808   2.196 -1.9830  0.4306  0.1506
 4227TIP3   OH212644   4.399   5.870   2.590 -0.2746 -0.2208 -0.0325
 4227TIP3    H112645   4.327   5.900   2.646 -0.4049  1.6282 -1.1177
 4227TIP3    H212646   4.478   5.892   2.639 -0.3528  2.3294 -0.9078
 4228TIP3   OH212647   2.592   2.882   5.692  0.0451 -0.0193 -0.2390
 4228TIP3    H112648   2.648   2.958   5.676  0.1390 -0.2638 -1.1655
 4228TIP3    H212649   2.529   2.911   5.758  0.1347  0.8324 -0.5224
 4229TIP3   OH212650   6.073   3.627   1.237  0.3411  0.3342 -0.7696
 4229TIP3    H112651   6.071   3.547   1.184  0.8539  0.1037 -0.4477
 4229TIP3    H212652   6.166   3.641   1.256  0.0447 -0.8240  1.9478
 4230TIP3   OH212653   3.648   4.161   2.536  0.4563  0.1488 -0.5612
 4230TIP3    H112654   3.600   4.086   2.570 -0.9687  1.2837  0.0603
 4230TIP3    H212655   3.627   4.165   2.443  0.9223 -0.4772 -0.6988
 4231TIP3   OH212656   7.082   0.745   0.795 -0.1763  0.1698 -0.4046
 4231TIP3    H112657   7.074   0.793   0.712 -2.9608  1.9900  0.7724
 4231TIP3    H212658   7.141   0.799   0.848 -0.0184  0.0849 -0.4923
 4232TIP3   OH212659   0.577   5.144   3.744 -0.5277  0.7022 -0.6575
 4232TIP3    H112660   0.608   5.101   3.823 -0.9691  1.1091 -0.2540
 4232TIP3    H212661   0.497   5.097   3.721 -1.7052  2.0373  0.4904
 4233TIP3   OH212662   4.983   3.542   0.968  0.1385 -0.3314  0.0783
 4233TIP3    H112663   4.906   3.526   0.913  0.6127 -1.6016 -0.2700
 4233TIP3    H212664   5.020   3.623   0.934 -1.5817  0.8598  0.9130
 4234TIP3   OH212665   3.135   3.154   0.156 -0.1541  0.8465 -0.4328
 4234TIP3    H112666   3.042   3.132   0.162  0.1784 -0.2635  0.9127
 4234TIP3    H212667   3.141   3.242   0.194 -0.6579  0.9745 -0.6379
 4235TIP3   OH212668   2.955   5.320   2.804  0.2269  0.0241  0.0460
 4235TIP3    H112669   2.925   5.411   2.802 -0.1636 -0.1078 -1.2994
 4235TIP3    H212670   2.996   5.310   2.889 -2.3825  0.5916  1.4765
 4236TIP3   OH212671   3.054   2.149   4.681  0.2017  0.1882  0.5689
 4236TIP3    H112672   3.073   2.141   4.774 -0.6434 -1.7226  0.6324
 4236TIP3    H212673   3.125   2.101   4.638  0.7680  1.3386  0.1753
 4237TIP3   OH212674   1.342   5.112   3.746 -0.4661 -0.0250  0.0768
 4237TIP3    H112675   1.410   5.178   3.762  0.7346 -1.5418  1.5378
 4237TIP3    H212676   1.269   5.138   3.802 -0.9735  1.3698 -1.1698
 4238TIP3   OH212677   0.753   0.416   3.950  0.3732 -0.0146  0.0437
 4238TIP3    H112678   0.696   0.387   4.021  0.3572  0.4822  0.2347
 4238TIP3    H212679   0.839   0.429   3.991  0.4835 -0.1926 -0.1250
 4239TIP3   OH212680   0.293   0.129   2.457  0.1336  0.0992 -0.0485
 4239TIP3    H112681   0.306   0.037   2.479 -0.4975 -0.4141 -1.6869
 4239TIP3    H212682   0.361   0.175   2.506  1.0026 -1.3180  0.1465
 4240TIP3   OH212683   0.170   5.676   3.062  0.2023 -0.5905 -0.6259
 4240TIP3    H112684   0.135   5.631   3.140  0.2354  0.0503 -0.2322
 4240TIP3    H212685   0.258   5.641   3.051  1.1048  0.9617  1.0338
 4241TIP3   OH212686   2.494   5.452   4.058  0.4415 -0.4567 -0.0778
 4241TIP3    H112687   2.462   5.442   3.969  0.6047 -1.1571 -0.0585
 4241TIP3    H212688   2.419   5.489   4.106 -0.3406 -1.9914 -0.0533
 4242TIP3   OH212689   6.000   2.267   3.790  0.1396  0.1933 -0.2914
 4242TIP3    H112690   6.055   2.345   3.795  1.7122 -0.7142 -2.1152
 4242TIP3    H212691   5.931   2.291   3.728  0.8830  0.0447 -1.2103
 4243TIP3   OH212692   4.446   4.431   0.133 -0.3980 -0.3688  0.1575
 4243TIP3    H112693   4.438   4.473   0.219  1.0424 -0.2215  0.2573
 4243TIP3    H212694   4.446   4.503   0.071 -0.0108 -0.3638  0.1592
 4244TIP3   OH212695   5.750   4.715   5.603 -0.1939 -0.6650 -0.1863
 4244TIP3    H112696   5.817   4.783   5.605  0.3470 -1.1963  0.3092
 4244TIP3    H212697   5.734   4.699   5.510  1.4564 -1.5670 -0.3558
 4245TIP3   OH212698   4.476   0.943   2.048 -0.0238  0.0511 -0.1422
 4245TIP3    H112699   4.456   0.882   2.120  1.2915 -1.1108 -0.7137
 4245TIP3    H212700   4.492   1.027   2.092 -1.2712 -0.1291  0.7186
 4246TIP3   OH212701   0.589   1.962   1.794  0.4188  0.0550 -0.1209
 4246TIP3    H112702   0.597   2.057   1.780 -1.8497  0.2338 -0.5833
 4246TIP3    H212703   0.648   1.944   1.867  1.2936  1.7213 -0.3559
 4247TIP3   OH212704   4.623   0.379   2.663  0.6004  0.4676  0.2118
 4247TIP3    H112705   4.674   0.426   2.597 -2.5189  2.2880 -1.1110
 4247TIP3    H212706   4.572   0.316   2.613  0.1809 -0.0320  1.2532
 4248TIP3   OH212707   7.074   5.314   0.264 -0.4025 -0.1391  0.0574
 4248TIP3    H112708   7.110   5.387   0.316  0.7447 -0.8617  0.3173
 4248TIP3    H212709   6.985   5.342   0.242 -1.2825 -0.1368  3.1298
 4249TIP3   OH212710   3.051   1.718   5.345  0.2043  0.5120  0.3823
 4249TIP3    H112711   3.044   1.805   5.305 -0.4260  0.8385  1.1608
 4249TIP3    H212712   3.045   1.735   5.439 -2.5071 -0.5647  0.4962
 4250TIP3   OH212713   1.611   0.319   2.337  0.3426  0.5394  0.0741
 4250TIP3    H112714   1.662   0.350   2.262  0.4732 -0.1896 -0.1456
 4250TIP3    H212715   1.623   0.224   2.336  0.3767  0.5271  1.0425
 4251TIP3   OH212716   2.219   0.939   4.163  0.5746  0.6436 -0.2223
 4251TIP3    H112717   2.136   0.986   4.169  1.1723  1.7111 -0.0250
 4251TIP3    H212718   2.285   1.008   4.164  1.5140 -0.2451  0.6561
 4252TIP3   OH212719   6.203   6.703   3.245  0.5346  0.4802 -0.2348
 4252TIP3    H112720   6.219   6.638   3.176 -0.5085  0.8408 -0.8345
 4252TIP3    H212721   6.181   6.651   3.322  3.4062 -0.0104  0.3668
 4253TIP3   OH212722   0.328   2.399   2.287 -0.2179 -0.3114 -0.0503
 4253TIP3    H112723   0.258   2.464   2.292  0.5296  0.4422  1.0427
 4253TIP3    H212724   0.407   2.446   2.313  0.6480 -1.2373 -0.9107
 4254TIP3   OH212725   2.034   6.114   1.371 -0.1375  0.6200  0.1355
 4254TIP3    H112726   1.956   6.169   1.361 -0.6172  0.0459  0.6474
 4254TIP3    H212727   2.077   6.118   1.286 -1.4898 -0.2000 -0.6338
 4255TIP3   OH212728   7.057   3.621   4.849 -0.4795 -0.3397  0.2351
 4255TIP3    H112729   7.033   3.713   4.849  0.6955  0.0317  2.1156
 4255TIP3    H212730   6.978   3.575   4.819 -0.6837  1.3086 -1.9695
 4256TIP3   OH212731   1.894   1.673   4.378  0.2144  0.0054  0.3287
 4256TIP3    H112732   1.890   1.755   4.329  0.4006  0.1902  0.6220
 4256TIP3    H212733   1.835   1.686   4.453  2.4351  0.9809  2.0289
 4257TIP3   OH212734   4.436   6.416   3.816 -0.1306 -0.1505 -0.6141
 4257TIP3    H112735   4.403   6.421   3.906  0.6546 -0.3165 -0.3088
 4257TIP3    H212736   4.386   6.482   3.768 -1.0215 -0.5193 -0.2079
 4258TIP3   OH212737   5.952   4.013   4.674  1.0830  0.5611  0.5257
 4258TIP3    H112738   5.910   3.986   4.592 -0.5853 -1.1458  1.8499
 4258TIP3    H212739   5.936   4.108   4.678 -0.3164  0.4027 -0.3330
 4259TIP3   OH212740   1.391   3.385   5.889  0.0339  0.8862 -0.3613
 4259TIP3    H112741   1.430   3.471   5.904 -0.6181  1.1003  0.1164
 4259TIP3    H212742   1.302   3.403   5.859 -0.2402  0.3816  0.1231
 4260TIP3   OH212743   3.578   4.625   2.353  0.0476 -0.6834 -0.1160
 4260TIP3    H112744   3.542   4.537   2.365  0.2811 -1.4044 -3.6344
 4260TIP3    H212745   3.501   4.681   2.343 -0.0988 -0.4272  1.9834
 4261TIP3   OH212746   6.042   4.323   5.580  0.2495 -0.4256  0.1795
 4261TIP3    H112747   6.129   4.323   5.541 -0.1623 -0.9557 -0.7658
 4261TIP3    H212748   6.033   4.410   5.620  1.4547 -0.5983  0.8818
 4262TIP3   OH212749   2.204   5.722   1.574  0.1435  0.4949  0.2255
 4262TIP3    H112750   2.199   5.709   1.480  1.4040 -0.5788  0.2673
 4262TIP3    H212751   2.115   5.746   1.600 -0.5710 -0.6313 -1.0333
 4263TIP3   OH212752   6.024   4.853   5.229  0.2972 -0.4157 -0.1659
 4263TIP3    H112753   6.010   4.868   5.135 -0.7893  0.7724  0.1602
 4263TIP3    H212754   6.011   4.939   5.269  1.7535 -0.7000  0.9809
 4264TIP3   OH212755   5.420   0.922   2.801  0.0215 -0.2354  0.3886
 4264TIP3    H112756   5.404   0.923   2.895  0.5424  1.4534  0.4825
 4264TIP3    H212757   5.417   0.829   2.778 -0.0831 -0.6877  2.0681
 4265TIP3   OH212758   6.074   5.202   2.144  0.4193 -0.0466  0.3889
 4265TIP3    H112759   6.135   5.240   2.081 -1.8506  0.7611 -1.4829
 4265TIP3    H212760   6.124   5.196   2.226  2.4591  2.1377 -0.5879
 4266TIP3   OH212761   4.617   1.490   5.650  0.7331  0.3419  0.0792
 4266TIP3    H112762   4.695   1.501   5.705  1.0868 -0.8362 -0.1737
 4266TIP3    H212763   4.646   1.510   5.562  0.7886 -0.2279 -0.0345
 4267TIP3   OH212764   4.583   3.192   2.915  0.2767 -0.1151 -0.1290
 4267TIP3    H112765   4.617   3.116   2.962  0.4800  0.1458  0.1469
 4267TIP3    H212766   4.516   3.155   2.857 -0.6172 -0.3347  1.0053
 4268TIP3   OH212767   5.597   1.704   0.219 -0.3983 -0.2282 -0.0109
 4268TIP3    H112768   5.570   1.791   0.249  0.9147  0.5842 -1.0371
 4268TIP3    H212769   5.532   1.645   0.256 -2.7179  1.4115 -1.1602
 4269TIP3   OH212770   0.079   2.478   0.913 -0.5132 -0.4101 -0.0722
 4269TIP3    H112771   0.138   2.551   0.929  0.1091 -0.6830 -1.0704
 4269TIP3    H212772   0.053   2.449   1.001  1.6251 -0.9308  0.4554
 4270TIP3   OH212773   6.702   2.600   0.492 -0.4088  0.1562  0.3351
 4270TIP3    H112774   6.787   2.607   0.536 -0.6825  2.1625  0.6712
 4270TIP3    H212775   6.674   2.691   0.480 -2.3294 -0.4444 -0.1364
 4271TIP3   OH212776   6.539   3.107   1.758 -0.5319 -0.5259  0.2161
 4271TIP3    H112777   6.619   3.155   1.780  0.3654 -1.7424 -0.3273
 4271TIP3    H212778   6.568   3.018   1.738 -1.9433 -0.8341 -0.6079
 4272TIP3   OH212779   6.648   5.219   1.363 -0.2747 -0.1880  0.7514
 4272TIP3    H112780   6.614   5.158   1.297  1.3285 -0.4194  0.0914
 4272TIP3    H212781   6.581   5.286   1.371 -0.8795 -0.6127 -0.5001
 4273TIP3   OH212782   3.551   6.609   5.159  0.0079 -0.0434 -0.1623
 4273TIP3    H112783   3.483   6.560   5.112 -0.5002  0.6737 -0.2002
 4273TIP3    H212784   3.502   6.663   5.222  0.5808  0.0911  0.1766
 4274TIP3   OH212785   0.307   0.482   2.558 -0.2806 -0.2903 -0.6163
 4274TIP3    H112786   0.301   0.532   2.640 -0.1040 -0.9087 -0.2218
 4274TIP3    H212787   0.323   0.549   2.491 -1.1471  0.3029 -0.2517
 4275TIP3   OH212788   1.232   0.956   2.272 -0.1667 -0.2658  0.2429
 4275TIP3    H112789   1.314   0.998   2.298 -0.2633 -0.4662  0.9054
 4275TIP3    H212790   1.195   1.014   2.206 -1.0257  1.5333  2.1776
 4276TIP3   OH212791   3.222   1.691   1.880  0.5079 -0.1076  0.5290
 4276TIP3    H112792   3.210   1.707   1.786  1.4360  0.2879  0.4676
 4276TIP3    H212793   3.292   1.626   1.884 -0.7898 -1.5252  0.9018
 4277TIP3   OH212794   1.110   3.986   1.025 -0.2143 -0.4949 -0.3013
 4277TIP3    H112795   1.198   4.002   0.993 -0.0724  0.5246  0.5554
 4277TIP3    H212796   1.116   3.904   1.073  0.6656  0.3780  1.1409
 4278TIP3   OH212797   6.686   6.372   5.104  0.4020  0.5299  0.4049
 4278TIP3    H112798   6.646   6.290   5.133 -1.0286  0.7251 -0.8829
 4278TIP3    H212799   6.667   6.435   5.173 -0.7890  0.3897  0.2254
 4279TIP3   OH212800   0.170   6.052   3.009 -0.4566  0.1257 -0.4074
 4279TIP3    H112801   0.128   5.973   2.977  0.4189  0.0132 -1.3224
 4279TIP3    H212802   0.178   6.108   2.931  1.5483 -0.0800 -0.4020
 4280TIP3   OH212803   6.667   1.761   4.300 -0.1716 -1.0078 -0.0559
 4280TIP3    H112804   6.753   1.798   4.277 -1.1621  0.0500 -2.4025
 4280TIP3    H212805   6.609   1.789   4.229 -1.8674 -3.9822 -0.0257
 4281TIP3   OH212806   0.251   3.483   3.521  0.3699  0.1490 -0.6680
 4281TIP3    H112807   0.155   3.480   3.525  0.3394  0.8269 -0.8466
 4281TIP3    H212808   0.271   3.573   3.496  1.0474 -0.0714 -0.9245
 4282TIP3   OH212809   3.655   0.334   4.181 -0.4206 -0.2585 -0.5342
 4282TIP3    H112810   3.635   0.282   4.104 -0.1146 -0.2320 -0.6296
 4282TIP3    H212811   3.726   0.287   4.225 -1.0625 -0.6567  0.1121
 4283TIP3   OH212812   3.065   1.580   2.108  0.4565 -0.3574  0.6320
 4283TIP3    H112813   3.145   1.532   2.087  0.5100  0.3601 -1.0012
 4283TIP3    H212814   3.006   1.515   2.146  1.9432 -0.8026  2.2899
 4284TIP3   OH212815   0.389   4.933   2.012 -0.3174  0.3581 -0.3280
 4284TIP3    H112816   0.369   5.025   1.993  0.3306  0.4978 -0.3751
 4284TIP3    H212817   0.415   4.896   1.928 -0.9436  0.0318 -0.3773
 4285TIP3   OH212818   4.536   3.872   3.544  0.2375  0.7867 -0.5554
 4285TIP3    H112819   4.627   3.889   3.569  0.7097  1.5335 -2.5479
 4285TIP3    H212820   4.514   3.789   3.586  2.3479 -0.1456 -1.1734
 4286TIP3   OH212821   1.485   5.514   2.311  0.5006  0.3747  0.7591
 4286TIP3    H112822   1.452   5.475   2.230  0.5249 -1.5861  1.6310
 4286TIP3    H212823   1.454   5.604   2.309  0.6715  0.4356 -1.5181
 4287TIP3   OH212824   3.322   5.819   1.400 -0.1685 -0.3298  0.0600
 4287TIP3    H112825   3.365   5.744   1.359 -1.4845 -0.7584 -0.5998
 4287TIP3    H212826   3.236   5.823   1.358 -0.2363  1.3694  0.3153
 4288TIP3   OH212827   0.868   4.850   1.235 -0.5462 -0.2520  0.5674
 4288TIP3    H112828   0.900   4.889   1.316  0.8123 -0.0643 -0.0468
 4288TIP3    H212829   0.933   4.783   1.213 -0.3263  0.4308 -0.9356
 4289TIP3   OH212830   4.098   1.656   1.457  0.0410 -0.9599 -0.2299
 4289TIP3    H112831   4.143   1.740   1.465 -1.9764  0.2473 -0.7905
 4289TIP3    H212832   4.152   1.605   1.396  0.1993  0.7516 -1.5855
 4290TIP3   OH212833   6.447   2.952   0.495 -0.5915 -0.5891  0.3415
 4290TIP3    H112834   6.457   2.861   0.523  0.5031  0.1440  2.5715
 4290TIP3    H212835   6.427   2.946   0.402 -0.0257 -3.0965  0.3055
 4291TIP3   OH212836   5.403   2.476   0.240  0.3283 -0.3004  0.6014
 4291TIP3    H112837   5.320   2.432   0.219  0.7997 -1.3894  0.9580
 4291TIP3    H212838   5.431   2.438   0.323  1.1559  0.1062  0.5244
 4292TIP3   OH212839   0.022   4.970   0.299  0.0390  0.1231  0.3829
 4292TIP3    H112840   0.048   5.061   0.284  0.8314 -0.1252  0.2192
 4292TIP3    H212841   0.104   4.921   0.296 -0.2725 -0.4902  1.3587
 4293TIP3   OH212842   4.205   1.197   0.603  0.0521 -0.7400 -0.2467
 4293TIP3    H112843   4.266   1.129   0.572 -0.2014 -1.2872  0.4353
 4293TIP3    H212844   4.262   1.270   0.628  0.2648 -0.2130 -2.1048
 4294TIP3   OH212845   6.487   5.862   1.356 -0.1056  0.3521  0.0644
 4294TIP3    H112846   6.451   5.822   1.277 -0.4679 -0.5559  0.6660
 4294TIP3    H212847   6.478   5.794   1.423 -0.9148  1.4965  1.1750
 4295TIP3   OH212848   2.858   3.678   4.229  0.1008  0.3908  0.0350
 4295TIP3    H112849   2.835   3.769   4.245  0.4756  0.3234  1.0647
 4295TIP3    H212850   2.777   3.630   4.244 -0.0391  0.5283 -0.2718
 4296TIP3   OH212851   3.184   0.047   3.835  0.2456  0.2557 -0.4563
 4296TIP3    H112852   3.233   0.022   3.914  1.2995 -1.5878 -1.6016
 4296TIP3    H212853   3.129  -0.029   3.817  0.6317  0.2993 -1.9369
 4297TIP3   OH212854   6.505   4.094   4.992  0.0448  0.1457 -0.3743
 4297TIP3    H112855   6.528   4.052   4.910 -0.5703  1.2428 -1.1261
 4297TIP3    H212856   6.432   4.152   4.971 -0.5347 -0.0118  1.0677
 4298TIP3   OH212857   2.832   2.447   0.099 -0.9491 -0.1861 -0.2193
 4298TIP3    H112858   2.921   2.412   0.102 -0.5249  0.8451 -0.0938
 4298TIP3    H212859   2.838   2.521   0.038 -1.7460 -0.1930 -0.3082
 4299TIP3   OH212860   1.250   5.177   3.242 -0.0562 -0.6114  0.2974
 4299TIP3    H112861   1.187   5.116   3.204  2.6690 -2.5905 -1.3977
 4299TIP3    H212862   1.259   5.150   3.333 -0.4458 -1.3983  0.1068
 4300TIP3   OH212863   1.254   0.996   1.481  0.1464  0.1913 -0.3564
 4300TIP3    H112864   1.275   0.984   1.573 -1.2955  0.0026 -0.0305
 4300TIP3    H212865   1.175   0.943   1.467 -0.4620  1.3027 -1.3460
 4301TIP3   OH212866   6.663   2.808   1.305 -0.5616  0.0764 -0.0437
 4301TIP3    H112867   6.602   2.737   1.285 -2.1373  1.5241 -0.5593
 4301TIP3    H212868   6.669   2.858   1.224  1.2047  0.0745  0.0511
 4302TIP3   OH212869   6.418   3.553   2.566 -0.1041  0.5283 -0.7616
 4302TIP3    H112870   6.437   3.487   2.499 -0.1125 -0.2384 -0.0322
 4302TIP3    H212871   6.407   3.502   2.647  1.5109  1.5328  0.1649
 4303TIP3   OH212872   4.953   0.213   0.599 -0.2919 -0.2295 -0.1504
 4303TIP3    H112873   4.940   0.166   0.516 -2.2568  1.7791 -1.0864
 4303TIP3    H212874   4.940   0.305   0.577 -0.3352  0.4236  2.2965
 4304TIP3   OH212875   2.201   1.755   0.102 -0.1104 -0.1219  0.0253
 4304TIP3    H112876   2.191   1.666   0.135 -1.3573 -0.6605 -1.6986
 4304TIP3    H212877   2.192   1.810   0.180  1.2827 -1.4879  1.2069
 4305TIP3   OH212878   5.581   5.736   2.127 -0.1117  0.0836  0.5078
 4305TIP3    H112879   5.633   5.797   2.075 -1.8362  0.1146 -1.2897
 4305TIP3    H212880   5.523   5.791   2.180 -0.2570  0.0165  0.4178
 4306TIP3   OH212881   0.822   5.231   5.389 -0.0287  0.3997  0.6010
 4306TIP3    H112882   0.761   5.158   5.381 -1.5075  1.6470  0.0012
 4306TIP3    H212883   0.907   5.190   5.405 -0.8565 -1.4210  0.5381
 4307TIP3   OH212884   4.920   5.202   5.046  0.1862 -0.1462  0.4578
 4307TIP3    H112885   4.841   5.249   5.073 -0.4895 -0.0655 -1.4743
 4307TIP3    H212886   4.992   5.263   5.065 -0.6814  1.8877 -2.1678
 4308TIP3   OH212887   6.198   4.810   2.942  0.5998 -0.1401  0.1667
 4308TIP3    H112888   6.141   4.829   2.868 -1.6521  0.4419  1.9452
 4308TIP3    H212889   6.181   4.718   2.962 -0.4928  0.2701  1.2635
 4309TIP3   OH212890   4.115   6.214   1.499 -0.1200 -0.2320  0.5100
 4309TIP3    H112891   4.067   6.131   1.496 -0.8030  0.1639  0.0658
 4309TIP3    H212892   4.046   6.281   1.499  0.4385  0.3791 -0.9912
 4310TIP3   OH212893   2.600   1.195   2.228  0.2661  0.8763 -0.0718
 4310TIP3    H112894   2.557   1.258   2.172  2.7006  1.4964 -1.3663
 4310TIP3    H212895   2.574   1.220   2.317 -3.1018  0.2922 -0.7657
 4311TIP3   OH212896   4.942   4.314   5.320  0.1462  0.2655  0.1599
 4311TIP3    H112897   4.885   4.258   5.269 -1.1893  0.8129  1.0031
 4311TIP3    H212898   5.030   4.294   5.288 -0.1950 -2.6989  0.7784
 4312TIP3   OH212899   6.738   0.055   0.437  0.1441 -0.7774  0.4150
 4312TIP3    H112900   6.821   0.011   0.454 -0.8530 -3.0500 -0.2772
 4312TIP3    H212901   6.689   0.049   0.519  0.0745 -0.7770  0.3742
 4313TIP3   OH212902   6.303   1.845   3.667 -0.6919 -0.0722 -0.5900
 4313TIP3    H112903   6.282   1.939   3.670 -0.1876  0.0445 -0.5968
 4313TIP3    H212904   6.303   1.824   3.574 -0.9273 -0.1074 -0.5822
 4314TIP3   OH212905   2.432   2.645   5.694 -0.3019  0.3697 -0.1194
 4314TIP3    H112906   2.490   2.713   5.659 -0.4230  0.1069 -0.8562
 4314TIP3    H212907   2.491   2.582   5.735 -0.1091  0.3910 -0.3602
 4315TIP3   OH212908   1.272   3.776   2.348 -1.0034 -0.7140  0.0899
 4315TIP3    H112909   1.264   3.700   2.406  0.6461 -2.0688 -1.3415
 4315TIP3    H212910   1.345   3.826   2.384  0.1912 -1.6905 -0.8575
 4316TIP3   OH212911   4.108   0.506   0.259 -0.5099 -0.0444  0.2757
 4316TIP3    H112912   4.197   0.473   0.260 -0.3164  0.3535 -1.4001
 4316TIP3    H212913   4.061   0.448   0.320  0.5166 -1.3279 -0.0949
 4317TIP3   OH212914   0.508   0.549   4.236  0.1984  0.1889 -0.6284
 4317TIP3    H112915   0.472   0.501   4.310 -0.0249  0.3445 -0.6340
 4317TIP3    H212916   0.431   0.580   4.188  0.3396  0.8956 -0.4018
 4318TIP3   OH212917   2.863   2.096   5.479 -0.1106  0.3480  0.1316
 4318TIP3    H112918   2.830   2.007   5.468 -0.5938  0.6166 -0.7153
 4318TIP3    H212919   2.956   2.085   5.496  0.3941 -0.2651 -2.5278
 4319TIP3   OH212920   1.247   3.737   2.938 -0.6120 -0.3562  0.1372
 4319TIP3    H112921   1.223   3.818   2.983 -0.4524 -0.4397  0.3701
 4319TIP3    H212922   1.190   3.670   2.976 -1.2618 -0.2241 -0.5676
 4320TIP3   OH212923   4.197   0.812   0.533 -0.0547  0.4809  0.0345
 4320TIP3    H112924   4.148   0.779   0.458  0.8426 -1.3445  0.1778
 4320TIP3    H212925   4.131   0.822   0.602 -0.5247 -0.2432 -0.2893
 4321TIP3   OH212926   5.071   2.639   0.550 -0.0819  0.2119 -0.2232
 4321TIP3    H112927   5.109   2.551   0.552  0.8816  0.5967  1.8770
 4321TIP3    H212928   5.039   2.653   0.639 -0.3375  1.9316 -0.5529
 4322TIP3   OH212929   0.799   2.647   3.558  0.3170  0.1072  0.0882
 4322TIP3    H112930   0.727   2.587   3.577 -1.0703  1.3883 -0.8624
 4322TIP3    H212931   0.812   2.696   3.640 -0.6228  0.5841 -0.0376
 4323TIP3   OH212932   2.576   4.638   2.173 -0.2251 -0.2713 -0.5651
 4323TIP3    H112933   2.595   4.558   2.124  0.0521  1.1726 -2.9690
 4323TIP3    H212934   2.578   4.611   2.265  1.6730 -2.6374 -1.2082
 4324TIP3   OH212935   0.350   0.348   5.132 -0.0163 -0.5755  0.0873
 4324TIP3    H112936   0.441   0.320   5.137  0.4804  1.0144  0.1407
 4324TIP3    H212937   0.351   0.426   5.077 -0.9292  1.0618  2.2468
 4325TIP3   OH212938   1.513   6.098   1.128 -0.5198  0.0764  0.0028
 4325TIP3    H112939   1.574   6.073   1.198  1.0614 -2.2938 -2.0283
 4325TIP3    H212940   1.570   6.124   1.055 -2.0723  1.1956 -0.8531
 4326TIP3   OH212941   1.500   6.768   1.208 -0.1156 -0.2988  0.0325
 4326TIP3    H112942   1.475   6.708   1.138 -0.5613 -0.3075  0.1984
 4326TIP3    H212943   1.587   6.799   1.183 -0.4406  0.0082 -0.7202
 4327TIP3   OH212944   0.168   5.580   5.734  0.2916 -0.3565 -0.1214
 4327TIP3    H112945   0.176   5.537   5.819 -2.7293 -0.0497  0.4029
 4327TIP3    H212946   0.191   5.512   5.671 -0.0901 -1.4283  0.8518
 4328TIP3   OH212947   2.454   5.844   4.947  0.0345 -0.5084 -0.1074
 4328TIP3    H112948   2.450   5.933   4.983 -0.0505 -0.0458 -1.2131
 4328TIP3    H212949   2.487   5.856   4.858  0.5796 -1.6524 -0.0773
 4329TIP3   OH212950   6.046   0.753   5.658 -0.2001  0.3349 -0.0780
 4329TIP3    H112951   6.023   0.696   5.731 -0.2486  0.8076  0.2796
 4329TIP3    H212952   5.986   0.827   5.666 -0.3264  0.3043 -0.7054
 4330TIP3   OH212953   4.610   6.529   1.977  0.0772 -0.2690 -0.2677
 4330TIP3    H112954   4.575   6.610   2.015 -0.0955 -0.6071  0.3043
 4330TIP3    H212955   4.690   6.557   1.932  0.6864  0.0487  0.9405
 4331TIP3   OH212956   6.165   4.344   4.047 -0.2328  0.0288  0.0078
 4331TIP3    H112957   6.173   4.426   3.998 -0.5964  0.7710  1.1476
 4331TIP3    H212958   6.070   4.329   4.052 -0.1816 -0.2688  0.1136
 4332TIP3   OH212959   5.544   2.860   1.514 -0.1504 -0.0773  0.1088
 4332TIP3    H112960   5.448   2.870   1.510 -0.0951  0.2029 -0.5851
 4332TIP3    H212961   5.559   2.816   1.598 -0.7649  1.3612  1.0121
 4333TIP3   OH212962   1.538   2.453   4.784  0.9115 -0.0706  0.2682
 4333TIP3    H112963   1.521   2.491   4.698 -2.2807  0.1577  0.8712
 4333TIP3    H212964   1.548   2.529   4.842  1.4576 -0.2196  0.3763
 4334TIP3   OH212965   1.006   0.327   3.993  0.6043 -0.6352 -0.2000
 4334TIP3    H112966   1.098   0.350   3.981  0.0672  1.9852  0.0969
 4334TIP3    H212967   0.988   0.262   3.924  2.6056 -1.1191 -0.3241
 4335TIP3   OH212968   4.255   5.353   2.749  0.3523 -0.4089 -0.2273
 4335TIP3    H112969   4.176   5.405   2.764 -0.2357 -0.9621 -1.3095
 4335TIP3    H212970   4.323   5.418   2.731 -0.4051  0.0090 -1.7271
 4336TIP3   OH212971   6.477   5.768   3.825 -0.1774 -0.4728  1.1130
 4336TIP3    H112972   6.420   5.843   3.842  0.0736  0.3949 -1.4862
 4336TIP3    H212973   6.565   5.799   3.844  0.3137  1.0698 -2.7976
 4337TIP3   OH212974   2.091   0.569   4.268  0.0005 -0.3755  0.5279
 4337TIP3    H112975   2.180   0.554   4.301 -0.2384  0.0862  1.3942
 4337TIP3    H212976   2.047   0.485   4.279  0.2899 -0.5683  0.2241
 4338TIP3   OH212977   4.333   4.420   3.774  0.4669 -0.0698  0.4030
 4338TIP3    H112978   4.371   4.505   3.796 -0.8455  1.3011 -2.2049
 4338TIP3    H212979   4.407   4.370   3.737  1.3291 -0.3011  2.2975
 4339TIP3   OH212980   4.878   1.675   4.852  0.3224 -0.8604 -0.3114
 4339TIP3    H112981   4.955   1.732   4.857 -0.6710  0.5074  0.1850
 4339TIP3    H212982   4.872   1.636   4.940 -0.3848  0.2195  0.1422
 4340TIP3   OH212983   3.868   5.216   2.810 -0.3517 -0.4037 -0.1597
 4340TIP3    H112984   3.793   5.259   2.850 -0.6775  1.7912 -2.8314
 4340TIP3    H212985   3.896   5.275   2.740  2.4148 -2.2509 -0.8014
 4341TIP3   OH212986   4.386   1.602   0.482 -0.0662 -0.1793  0.0082
 4341TIP3    H112987   4.340   1.635   0.406  1.5907 -0.8714 -1.3770
 4341TIP3    H212988   4.318   1.585   0.547 -1.6643 -0.5334 -1.6851
 4342TIP3   OH212989   1.228   4.951   0.718  0.4411 -0.0104  0.4915
 4342TIP3    H112990   1.319   4.947   0.689 -0.1971  0.5560 -1.8035
 4342TIP3    H212991   1.202   4.860   0.727  0.4873 -0.2738 -1.5654
 4343TIP3   OH212992   3.070   2.407   5.296 -0.2293 -0.0596 -0.3769
 4343TIP3    H112993   3.164   2.393   5.287 -0.2472 -0.8645  0.6104
 4343TIP3    H212994   3.044   2.446   5.212  1.0820  0.7818 -0.4186
 4344TIP3   OH212995   5.335   3.222   1.547  0.1271 -0.1056  0.3978
 4344TIP3    H112996   5.261   3.249   1.491 -1.6710 -1.1619  2.1494
 4344TIP3    H212997   5.409   3.272   1.513 -1.3141  0.8252 -1.6181
 4345TIP3   OH212998   4.812   3.835   3.659  0.7859  0.2480  0.1019
 4345TIP3    H112999   4.753   3.859   3.731  0.5334  1.6034 -0.5310
 4345TIP3    H213000   4.890   3.800   3.703  1.1002  2.0936  1.1223
 4346TIP3   OH213001   0.065   1.148   5.527  0.3386  0.0267  0.0014
 4346TIP3    H113002   0.083   1.242   5.533 -0.1561  0.0832  0.7078
 4346TIP3    H213003   0.142   1.106   5.566  0.7916  0.1063 -0.7734
 4347TIP3   OH213004   5.555   6.353   3.212 -0.3046  0.4288  0.4766
 4347TIP3    H113005   5.612   6.279   3.191 -1.9103 -0.8467  0.3938
 4347TIP3    H213006   5.604   6.430   3.186 -0.4097 -0.7760 -3.9867
 4348TIP3   OH213007   0.740   2.191   5.151 -0.3721  0.2829 -0.3272
 4348TIP3    H113008   0.662   2.226   5.195 -0.6313 -1.4470  0.6811
 4348TIP3    H213009   0.717   2.100   5.131  1.2134 -0.1085 -0.4703
 4349TIP3   OH213010   2.106   4.102   0.830 -0.3076  0.0675 -0.2262
 4349TIP3    H113011   2.052   4.171   0.869  1.5783  1.4682  0.0198
 4349TIP3    H213012   2.173   4.148   0.781  1.2233 -1.5795  0.2047
 4350TIP3   OH213013   5.125   6.678   1.668 -0.0801 -0.3128 -0.5882
 4350TIP3    H113014   5.214   6.714   1.659  0.8799 -1.3717  2.8231
 4350TIP3    H213015   5.077   6.747   1.714 -0.8560 -0.0502 -1.7535
 4351TIP3   OH213016   2.916   4.024   5.663  0.1535 -0.0519  0.3728
 4351TIP3    H113017   2.828   4.025   5.626  0.9549 -1.9222 -1.7841
 4351TIP3    H213018   2.905   3.986   5.750 -1.3153  1.0283  0.6965
 4352TIP3   OH213019   1.178   0.161   2.889 -0.2620  0.5552  0.0090
 4352TIP3    H113020   1.221   0.244   2.864  1.2822 -0.0026  0.6768
 4352TIP3    H213021   1.212   0.142   2.976  1.1316 -1.8631 -0.9633
 4353TIP3   OH213022   0.263   0.961   0.095 -0.0919 -0.0819 -0.1012
 4353TIP3    H113023   0.214   0.941   0.015  0.6538 -0.9396 -0.3504
 4353TIP3    H213024   0.339   1.010   0.065 -0.4160  0.6352  0.2175
 4354TIP3   OH213025   3.569   2.905   0.527  0.2696  0.2935  0.2385
 4354TIP3    H113026   3.482   2.937   0.548 -0.4727 -1.2061 -0.3768
 4354TIP3    H213027   3.556   2.845   0.454  1.8174  0.0127  0.1412
 4355TIP3   OH213028   7.072   1.522   3.028  0.1450  0.5805  0.0109
 4355TIP3    H113029   7.142   1.464   2.996  0.6965 -0.5239  2.9291
 4355TIP3    H213030   6.992   1.473   3.011  0.4531 -0.1396  0.5690
 4356TIP3   OH213031   3.860   6.509   3.194  0.2230  0.6931 -0.0458
 4356TIP3    H113032   3.941   6.463   3.214  0.5627  1.0633 -0.5189
 4356TIP3    H213033   3.889   6.590   3.151 -0.4002  0.7519 -0.3665
 4357TIP3   OH213034   3.069   5.006   5.334 -0.2920 -0.3121 -0.0852
 4357TIP3    H113035   2.975   5.016   5.321 -0.4524 -0.2985  0.9537
 4357TIP3    H213036   3.083   4.911   5.332 -0.2110 -0.2837 -0.9523
 4358TIP3   OH213037   7.158   2.094   4.504  0.4699 -0.3029  0.4938
 4358TIP3    H113038   7.212   2.033   4.554 -0.6186 -1.0279  0.8301
 4358TIP3    H213039   7.117   2.150   4.570  0.4124 -0.0878  0.2788
 4359TIP3   OH213040   1.448   2.745   1.057  0.0802 -0.0730 -0.4783
 4359TIP3    H113041   1.394   2.682   1.010 -1.8693  1.1302  0.0750
 4359TIP3    H213042   1.487   2.694   1.129  0.0853 -1.0571 -1.1594
 4360TIP3   OH213043   3.245   3.392   1.689  0.7502 -0.4229  0.5707
 4360TIP3    H113044   3.266   3.477   1.726 -0.5779  0.7130 -1.1306
 4360TIP3    H213045   3.243   3.333   1.764  3.3676  0.6455  1.5894
 4361TIP3   OH213046   5.417   2.485   3.608  0.0509  0.1073 -0.3647
 4361TIP3    H113047   5.387   2.574   3.631 -1.0238 -0.5237  0.8499
 4361TIP3    H213048   5.403   2.479   3.514 -0.4450  1.0366 -0.3702
 4362TIP3   OH213049   3.338   2.768   3.779  0.2388 -1.0784 -0.4075
 4362TIP3    H113050   3.286   2.759   3.858  0.1751 -0.8898 -0.4288
 4362TIP3    H213051   3.355   2.678   3.751  1.3267 -1.1758  0.5183
 4363TIP3   OH213052   1.955   3.245   2.530 -0.1366  0.0206  0.1297
 4363TIP3    H113053   1.934   3.334   2.502 -1.7137  0.2331  1.7807
 4363TIP3    H213054   1.950   3.192   2.451 -0.2246  1.2266 -0.6919
 4364TIP3   OH213055   5.208   1.457   4.421  0.1979 -0.5188 -0.4187
 4364TIP3    H113056   5.153   1.380   4.404  2.3358 -1.9983 -1.1151
 4364TIP3    H213057   5.214   1.500   4.336 -1.5611  0.9250  0.1079
 4365TIP3   OH213058   6.318   2.225   4.019  0.0226  0.0412 -0.4366
 4365TIP3    H113059   6.368   2.265   3.948  1.0189  1.2758  0.9004
 4365TIP3    H213060   6.269   2.154   3.977 -0.1715  1.3282 -2.5122
 4366TIP3   OH213061   6.610   0.207   3.269 -1.0134 -0.6584  0.2746
 4366TIP3    H113062   6.689   0.252   3.238 -0.7971  0.2219  1.9819
 4366TIP3    H213063   6.543   0.230   3.205 -0.0322 -1.0001 -0.9270
 4367TIP3   OH213064   4.208   6.402   4.848 -0.2462  0.0469  0.0331
 4367TIP3    H113065   4.206   6.315   4.887 -1.8775  0.2406  0.4378
 4367TIP3    H213066   4.117   6.432   4.850  0.3755  2.0841  0.6449
 4368TIP3   OH213067   1.585   1.965   5.691 -0.5672  0.0320  0.0265
 4368TIP3    H113068   1.677   1.979   5.668 -0.6346 -0.2391 -0.4236
 4368TIP3    H213069   1.570   2.021   5.767  0.3201 -0.9062  0.9105
 4369TIP3   OH213070   6.657   1.924   2.728 -0.0503 -0.2872  0.5378
 4369TIP3    H113071   6.736   1.950   2.680  1.0767 -0.2697  2.3134
 4369TIP3    H213072   6.635   1.838   2.692 -0.5054  0.5848 -1.4340
 4370TIP3   OH213073   0.348   1.716   4.772  0.5866  0.4127 -0.3815
 4370TIP3    H113074   0.279   1.710   4.706 -0.9046 -0.2549  1.1686
 4370TIP3    H213075   0.301   1.737   4.853  1.8137 -2.6711  1.2947
 4371TIP3   OH213076   1.403   3.352   4.097 -0.1291 -0.3213  0.2210
 4371TIP3    H113077   1.419   3.264   4.064 -0.4240 -1.0158  1.8486
 4371TIP3    H213078   1.312   3.370   4.076 -0.0750 -0.4116 -0.0938
 4372TIP3   OH213079   7.020   1.837   4.828  0.2283 -0.1525 -0.6611
 4372TIP3    H113080   7.008   1.907   4.892  1.2968 -0.2465 -0.3435
 4372TIP3    H213081   6.995   1.877   4.744 -0.4473  0.2006 -0.2920
 4373TIP3   OH213082   0.440   5.122   5.237 -0.2330  0.0962  0.0452
 4373TIP3    H113083   0.458   5.209   5.201  0.5775  0.7049  1.8226
 4373TIP3    H213084   0.516   5.103   5.292  1.0369 -3.0074 -2.4844
 4374TIP3   OH213085   4.781   3.460   5.052  0.0943 -0.1290  0.2209
 4374TIP3    H113086   4.745   3.445   4.964  0.6824  0.9221 -0.2213
 4374TIP3    H213087   4.854   3.520   5.038  0.4053 -0.2024  1.4053
 4375TIP3   OH213088   6.061   5.234   2.424  0.0614 -0.7907  0.4122
 4375TIP3    H113089   6.051   5.255   2.517  0.6071  0.9796  0.1127
 4375TIP3    H213090   6.009   5.154   2.412  0.2002 -1.2239  2.2749
 4376TIP3   OH213091   0.065   2.843   2.534  0.2527  0.0859  0.2387
 4376TIP3    H113092   0.089   2.807   2.619 -0.9971  1.0029  1.0295
 4376TIP3    H213093   0.147   2.874   2.496  1.0422 -1.6690  0.4367
 4377TIP3   OH213094   5.674   6.208   1.863 -0.2263  0.7653 -0.0478
 4377TIP3    H113095   5.680   6.211   1.767 -0.9702  1.5127 -0.0814
 4377TIP3    H213096   5.580   6.207   1.881 -0.1423  2.5116  0.7033
 4378TIP3   OH213097   6.327   4.222   3.802  0.4987  0.0282  0.5312
 4378TIP3    H113098   6.310   4.130   3.783  0.3735  0.3048 -0.7249
 4378TIP3    H213099   6.292   4.270   3.727 -0.4450  1.2006  1.6534
 4379TIP3   OH213100   7.031   1.442   3.797 -0.0036 -0.5242 -0.4028
 4379TIP3    H113101   7.062   1.384   3.865  0.6919  0.2341 -0.0561
 4379TIP3    H213102   7.089   1.426   3.723  0.6857  0.2708 -0.0464
 4380TIP3   OH213103   7.166   3.491   3.443 -0.0507 -0.0861 -0.0913
 4380TIP3    H113104   7.183   3.512   3.351  1.2675  0.4746  0.2577
 4380TIP3    H213105   7.102   3.556   3.471  0.2935  0.3703 -0.3500
 4381TIP3   OH213106   7.141   0.972   0.140 -0.3673  0.5010  0.1061
 4381TIP3    H113107   7.212   0.987   0.204 -0.6306  2.7064 -0.0589
 4381TIP3    H213108   7.132   0.876   0.138  2.2059  0.1544  0.5554
 4382TIP3   OH213109   0.140   4.164   0.422  0.2310 -0.1817 -0.3537
 4382TIP3    H113110   0.078   4.096   0.396 -0.0736 -0.2381  0.4871
 4382TIP3    H213111   0.226   4.122   0.418  0.1487 -0.3005 -0.8646
 4383TIP3   OH213112   3.250   5.733   4.335 -0.2077  0.0281 -0.0061
 4383TIP3    H113113   3.283   5.742   4.424 -1.2948  0.3043  0.3930
 4383TIP3    H213114   3.163   5.772   4.338 -0.7706 -1.0803 -0.8762
 4384TIP3   OH213115   3.655   1.676   0.664  0.2136 -0.3770  0.4908
 4384TIP3    H113116   3.648   1.736   0.738  1.1713  0.5490 -0.1407
 4384TIP3    H213117   3.564   1.650   0.646 -0.2775  1.1606  0.5686
 4385TIP3   OH213118   3.367   6.581   3.668  0.6115  0.3405  0.5491
 4385TIP3    H113119   3.385   6.506   3.611 -0.1412  0.3672  0.2661
 4385TIP3    H213120   3.304   6.548   3.733 -2.0468  1.4064 -1.2894
 4386TIP3   OH213121   4.455   1.178   4.697  0.3571 -0.0610 -0.2580
 4386TIP3    H113122   4.396   1.206   4.627  0.5955 -0.5377 -0.6580
 4386TIP3    H213123   4.400   1.125   4.755  0.6651 -1.6796 -1.3691
 4387TIP3   OH213124   4.992   2.836   1.822  0.5688  0.8832  0.0717
 4387TIP3    H113125   4.909   2.828   1.868  0.1446  0.1491 -0.7835
 4387TIP3    H213126   4.979   2.788   1.740  1.5802  1.4146 -0.4264
 4388TIP3   OH213127   4.609   0.954   3.477  0.1950  0.1481 -0.3546
 4388TIP3    H113128   4.653   1.038   3.490 -2.8772  1.5763  2.0454
 4388TIP3    H213129   4.656   0.892   3.533  0.3318  1.1605  0.6706
 4389TIP3   OH213130   5.994   4.578   2.068 -0.0425 -0.0608  0.1640
 4389TIP3    H113131   6.016   4.508   2.129 -0.1531  0.2707  0.5930
 4389TIP3    H213132   5.936   4.537   2.004  0.0917 -0.4197  0.2689
 4390TIP3   OH213133   5.125   0.311   2.407  0.2394  0.2198  0.1684
 4390TIP3    H113134   5.064   0.262   2.462  0.9087  1.4560  2.1189
 4390TIP3    H213135   5.188   0.245   2.376 -0.6839 -0.6594  0.1270
 4391TIP3   OH213136   6.247   0.951   4.607 -0.6977  0.3076  0.4347
 4391TIP3    H113137   6.160   0.930   4.642  0.0511 -0.5137  1.8946
 4391TIP3    H213138   6.229   1.003   4.529 -2.5061 -0.0422  0.5690
 4392TIP3   OH213139   6.676   6.194   4.324 -0.1837  0.3594 -0.1105
 4392TIP3    H113140   6.747   6.257   4.340 -1.8086  1.7239  2.4100
 4392TIP3    H213141   6.618   6.238   4.262  0.5295 -0.2895 -1.2823
 4393TIP3   OH213142   1.362   1.792   3.473 -0.3659 -0.0210  0.1657
 4393TIP3    H113143   1.284   1.788   3.418 -0.7145 -0.2807  0.6702
 4393TIP3    H213144   1.413   1.715   3.448 -0.9379 -0.6246  0.8033
 4394TIP3   OH213145   4.283   3.650   4.526  0.1890 -0.3358 -1.0962
 4394TIP3    H113146   4.264   3.628   4.617  0.7591  1.1046 -0.6038
 4394TIP3    H213147   4.316   3.568   4.488  0.0991 -0.9133  0.0299
 4395TIP3   OH213148   6.308   3.914   3.810  0.2136  0.2249  0.4803
 4395TIP3    H113149   6.326   3.851   3.740 -0.6082  0.1198  0.3514
 4395TIP3    H213150   6.380   3.903   3.871  1.1250  0.5457 -0.5009
 4396TIP3   OH213151   6.467   2.329   5.815 -0.7875 -0.0248  0.2699
 4396TIP3    H113152   6.550   2.375   5.802 -0.5702 -0.5622 -0.3026
 4396TIP3    H213153   6.486   2.264   5.882 -0.7545 -0.1357  0.1520
 4397TIP3   OH213154   4.382   4.378   1.456 -0.3149 -0.3068 -0.4859
 4397TIP3    H113155   4.338   4.358   1.539 -2.2107 -0.1344 -1.3842
 4397TIP3    H213156   4.421   4.464   1.469 -1.4731  0.1754 -0.0726
 4398TIP3   OH213157   2.916   0.439   4.796  0.0151  0.3463  0.0661
 4398TIP3    H113158   2.931   0.377   4.724 -0.9850  1.7251 -1.3749
 4398TIP3    H213159   2.984   0.505   4.784  1.1183 -0.4451  1.6392
 4399TIP3   OH213160   5.789   5.535   5.459  0.3277  0.2953  0.0084
 4399TIP3    H113161   5.796   5.526   5.364  0.4131  1.3483 -0.0888
 4399TIP3    H213162   5.707   5.581   5.473 -0.3177 -0.9612  0.5281
 4400TIP3   OH213163   6.999   2.142   5.483 -0.0372  0.1391  0.2114
 4400TIP3    H113164   7.093   2.141   5.499  0.1476 -1.4288 -0.7674
 4400TIP3    H213165   6.969   2.055   5.511 -0.9388  0.1072 -0.8115
 4401TIP3   OH213166   4.924   2.651   4.675 -0.3601 -0.3117 -0.1957
 4401TIP3    H113167   4.902   2.641   4.582  0.4077  0.7495 -0.5177
 4401TIP3    H213168   4.842   2.681   4.715 -0.2622  0.9862 -0.8841
 4402TIP3   OH213169   1.475   6.335   0.917  0.6200 -0.2802  0.1397
 4402TIP3    H113170   1.469   6.286   0.835  0.8721  0.2951 -0.2289
 4402TIP3    H213171   1.402   6.304   0.969 -0.3032  0.2592 -0.7999
 4403TIP3   OH213172   3.725   0.164   1.309  0.3260 -0.5264 -0.1604
 4403TIP3    H113173   3.800   0.218   1.336  0.1800 -0.7688  0.7828
 4403TIP3    H213174   3.763   0.096   1.254  0.6499 -0.0429 -0.5478
 4404TIP3   OH213175   2.269   1.028   0.266  0.6061  0.1434 -0.0878
 4404TIP3    H113176   2.319   1.103   0.299 -0.8700  1.0830  0.0836
 4404TIP3    H213177   2.223   0.994   0.343  1.0763 -0.8277 -0.2117
 4405TIP3   OH213178   0.091   0.842   4.436  0.1415  0.5140  0.4914
 4405TIP3    H113179   0.027   0.881   4.496 -0.4696 -0.9716  0.8631
 4405TIP3    H213180   0.168   0.897   4.444 -1.2403  2.6871 -0.3638
 4406TIP3   OH213181   1.786   0.550   2.891  0.3863 -0.2266 -0.5332
 4406TIP3    H113182   1.797   0.645   2.892  0.9334 -0.2690 -1.5888
 4406TIP3    H213183   1.773   0.526   2.983 -0.2137  0.9143 -0.3036
 4407TIP3   OH213184   4.148   5.000   0.132 -0.3344  0.5892  0.4233
 4407TIP3    H113185   4.225   4.983   0.187 -0.1710  0.8249  0.2680
 4407TIP3    H213186   4.116   5.085   0.163 -1.3217 -0.1092  1.3968
 4408TIP3   OH213187   4.794   2.490   1.498 -0.8365  0.4500 -0.1267
 4408TIP3    H113188   4.809   2.397   1.483  0.5390  0.8286 -1.3772
 4408TIP3    H213189   4.744   2.494   1.579 -1.0836 -1.3779 -0.1519
 4409TIP3   OH213190   3.536   0.526   3.300  0.0762 -0.1000  0.2318
 4409TIP3    H113191   3.574   0.498   3.216 -1.7317 -1.5672 -0.1551
 4409TIP3    H213192   3.598   0.495   3.366  0.6160 -0.5617 -0.4784
 4410TIP3   OH213193   5.070   5.645   5.536  0.3989  0.3702  1.1583
 4410TIP3    H113194   5.160   5.615   5.540  0.1963 -0.3333  0.6596
 4410TIP3    H213195   5.038   5.637   5.627  0.2541 -1.2919  0.9904
 4411TIP3   OH213196   3.194   2.958   5.043  0.1520 -0.2477  0.6941
 4411TIP3    H113197   3.140   2.910   4.981 -0.3627 -0.4280  1.2762
 4411TIP3    H213198   3.143   3.035   5.066  0.2350 -0.3039  1.0774
 4412TIP3   OH213199   6.028   4.326   2.245  0.0451  0.6125 -0.3419
 4412TIP3    H113200   5.936   4.354   2.248 -0.0341  0.3562 -0.3410
 4412TIP3    H213201   6.040   4.276   2.326 -0.1879 -0.4846 -0.9580
 4413TIP3   OH213202   5.296   4.619   1.813 -0.5007  0.2121  0.1301
 4413TIP3    H113203   5.320   4.526   1.812 -1.3496 -0.0575 -2.1508
 4413TIP3    H213204   5.211   4.622   1.771  0.5809  2.2236 -2.1901
 4414TIP3   OH213205   6.162   3.181   4.977  0.5262 -0.0400 -0.4835
 4414TIP3    H113206   6.103   3.171   4.903  0.0666 -0.8749 -0.0142
 4414TIP3    H213207   6.163   3.276   4.994 -0.5316  0.0075 -0.6096
 4415TIP3   OH213208   3.089   1.844   0.280  0.4214 -0.0812  0.2175
 4415TIP3    H113209   3.001   1.808   0.280 -0.3910  1.7499 -1.2097
 4415TIP3    H213210   3.080   1.930   0.320  1.4278  0.3826 -0.4944
 4416TIP3   OH213211   3.942   5.506   2.292  0.3441 -0.3053  0.3026
 4416TIP3    H113212   4.032   5.530   2.311 -0.2342  2.7661 -0.3730
 4416TIP3    H213213   3.948   5.448   2.216  1.7241  0.2275 -0.0167
 4417TIP3   OH213214   4.669   1.136   0.126 -0.0623  0.0319 -0.0175
 4417TIP3    H113215   4.667   1.102   0.036  0.2079 -1.2050  0.4242
 4417TIP3    H213216   4.750   1.101   0.163  0.3091  1.3150  0.4275
 4418TIP3   OH213217   2.871   0.778   3.590  0.1493 -0.0181  0.3937
 4418TIP3    H113218   2.954   0.739   3.617  0.0404 -0.9834 -0.6204
 4418TIP3    H213219   2.896   0.849   3.531  0.2639  0.1435  0.6314
 4419TIP3   OH213220   3.203   3.808   5.273  0.4141 -0.3554  0.1008
 4419TIP3    H113221   3.173   3.841   5.188  1.3112  0.6253  0.1368
 4419TIP3    H213222   3.150   3.854   5.337  0.2991 -0.4828  0.0978
 4420TIP3   OH213223   1.117   5.858   3.799  0.2819 -0.0369  0.0890
 4420TIP3    H113224   1.161   5.779   3.767 -0.5958 -1.3790  2.0185
 4420TIP3    H213225   1.040   5.866   3.744  0.4162 -0.4761 -0.1722
 4421TIP3   OH213226   5.999   0.522   5.322 -0.6448  0.2112 -0.0188
 4421TIP3    H113227   5.948   0.450   5.360 -0.5360  0.9850  1.6816
 4421TIP3    H213228   6.064   0.478   5.267 -1.1314 -0.9514  0.3002
 4422TIP3   OH213229   0.326   1.792   1.692 -0.7772 -0.3483  0.1372
 4422TIP3    H113230   0.285   1.847   1.759  0.9705 -0.6075  1.4937
 4422TIP3    H213231   0.372   1.724   1.741  1.0262 -0.2362 -1.2717
 4423TIP3   OH213232   2.854   0.714   2.384 -0.0855  0.2753  0.2867
 4423TIP3    H113233   2.795   0.770   2.333 -0.1134  0.4816  0.5446
 4423TIP3    H213234   2.813   0.709   2.471 -0.5474 -0.8443  0.0330
 4424TIP3   OH213235   3.157   3.266   3.341 -0.0529  0.1254 -0.2207
 4424TIP3    H113236   3.095   3.335   3.316  0.6660  0.1662 -2.0174
 4424TIP3    H213237   3.239   3.312   3.357 -0.2445 -0.0250  1.3740
 4425TIP3   OH213238   1.874   4.547   4.628 -0.1504 -0.3750 -0.6541
 4425TIP3    H113239   1.821   4.517   4.701  1.5651  1.0272  1.2662
 4425TIP3    H213240   1.845   4.493   4.554 -2.5423 -1.2679  0.8031
 4426TIP3   OH213241   6.445   6.479   4.923 -0.1360  0.1081 -0.1480
 4426TIP3    H113242   6.398   6.552   4.883 -1.2204 -0.2646  0.4158
 4426TIP3    H213243   6.411   6.474   5.012  0.2294 -0.8215 -0.0475
 4427TIP3   OH213244   1.922   4.466   3.452  0.3353 -0.2270  0.2198
 4427TIP3    H113245   1.879   4.397   3.401 -0.5380  0.4686 -0.0003
 4427TIP3    H213246   2.004   4.426   3.480  0.0138 -1.2404 -0.2088
 4428TIP3   OH213247   4.802   0.208   2.472 -0.4296 -0.2414 -0.3008
 4428TIP3    H113248   4.784   0.297   2.439  0.2711  0.4626  1.1347
 4428TIP3    H213249   4.751   0.151   2.415 -2.7692  1.2575  0.1450
 4429TIP3   OH213250   3.114   0.191   0.489 -0.4695  0.3799 -0.5671
 4429TIP3    H113251   3.143   0.269   0.538 -1.2822 -0.8917  2.1531
 4429TIP3    H213252   3.133   0.118   0.547 -2.1945 -1.2120 -1.8698
 4430TIP3   OH213253   5.355   2.806   4.145 -0.2282 -0.1383  0.2143
 4430TIP3    H113254   5.322   2.877   4.200 -2.4603 -1.0546  0.1671
 4430TIP3    H213255   5.435   2.777   4.189 -0.1714  1.3209  1.1264
 4431TIP3   OH213256   0.191   4.766   1.299  0.0794  0.6020 -0.2965
 4431TIP3    H113257   0.269   4.763   1.354  0.3180  1.0999 -0.6000
 4431TIP3    H213258   0.187   4.681   1.256  0.8969  0.8573 -0.8868
 4432TIP3   OH213259   4.891   6.123   3.764 -0.0371  0.2064 -0.3009
 4432TIP3    H113260   4.950   6.087   3.698  0.2045 -0.5578  0.3234
 4432TIP3    H213261   4.810   6.074   3.753 -0.2823  0.6589 -0.5770
 4433TIP3   OH213262   6.842   4.925   4.967 -0.3420 -0.1917 -0.0527
 4433TIP3    H113263   6.824   4.916   5.061 -0.6920  0.6439 -0.0332
 4433TIP3    H213264   6.796   4.852   4.926 -0.4823 -0.3526  0.3891
 4434TIP3   OH213265   5.250   5.523   1.491  0.4095 -0.0631 -0.1796
 4434TIP3    H113266   5.196   5.496   1.416 -1.0063  0.1890  0.7101
 4434TIP3    H213267   5.336   5.484   1.473 -0.3401 -1.4068 -1.1208
 4435TIP3   OH213268   6.542   4.165   0.354 -0.1735  0.1343  0.0109
 4435TIP3    H113269   6.509   4.163   0.444  1.8860 -0.4321  0.8111
 4435TIP3    H213270   6.597   4.243   0.350 -1.6602  1.1475 -1.3288
 4436TIP3   OH213271   1.291   6.520   2.080 -0.4304  0.4151  0.0947
 4436TIP3    H113272   1.243   6.439   2.098 -0.5930 -0.1581 -2.5074
 4436TIP3    H213273   1.225   6.582   2.051  0.0823  0.2936 -1.4400
 4437TIP3   OH213274   1.425   2.211   2.867  0.0097 -0.3521  0.5549
 4437TIP3    H113275   1.495   2.154   2.901 -0.1490 -0.2696  1.0270
 4437TIP3    H213276   1.411   2.181   2.778 -0.5440 -1.5002  1.0208
 4438TIP3   OH213277   4.706   2.070   0.934  0.8722 -0.0703 -0.2154
 4438TIP3    H113278   4.615   2.043   0.921  0.6785 -0.5698  1.8477
 4438TIP3    H213279   4.754   1.988   0.945  1.5577  0.2024 -1.0804
 4439TIP3   OH213280   3.360   4.426   2.254 -0.0778 -0.1974 -0.3784
 4439TIP3    H113281   3.446   4.407   2.216 -0.0290 -1.3286  0.2406
 4439TIP3    H213282   3.341   4.350   2.309 -1.1917  0.3320  0.0027
 4440TIP3   OH213283   1.598   0.045   5.354 -0.1029 -0.0205 -0.2316
 4440TIP3    H113284   1.594   0.127   5.403 -1.0047  0.3126 -0.8357
 4440TIP3    H213285   1.507   0.017   5.347  0.1486 -0.8093 -0.4957
 4441TIP3   OH213286   0.749   0.763   5.689  0.2770 -0.0988  0.3211
 4441TIP3    H113287   0.778   0.840   5.737 -0.2553  1.5298 -1.8205
 4441TIP3    H213288   0.673   0.792   5.639  0.9078 -1.5662 -1.6687
 4442TIP3   OH213289   2.192   2.141   2.511  0.1734  0.0564  0.4715
 4442TIP3    H113290   2.164   2.220   2.556  0.2733 -0.5481  1.6580
 4442TIP3    H213291   2.136   2.135   2.434  1.0385  1.9524 -0.3575
 4443TIP3   OH213292   4.045   4.945   5.406  0.0482  0.5917 -0.1082
 4443TIP3    H113293   4.132   4.975   5.380  0.8815 -1.4839  0.1272
 4443TIP3    H213294   4.061   4.865   5.456 -1.9826  0.3039  0.1493
 4444TIP3   OH213295   0.853   6.382   5.634 -0.5036 -0.3279 -0.2318
 4444TIP3    H113296   0.806   6.327   5.697 -0.7887  0.9261  0.7108
 4444TIP3    H213297   0.916   6.430   5.688 -0.1549  0.1369 -1.0458
 4445TIP3   OH213298   3.406   4.944   5.243 -0.0192 -0.4466 -0.3493
 4445TIP3    H113299   3.364   4.893   5.174  1.3283 -1.1815 -0.6500
 4445TIP3    H213300   3.334   4.974   5.298 -0.8129 -3.4682  0.4119
 4446TIP3   OH213301   4.976   3.488   4.505  0.4559 -0.1009 -0.1144
 4446TIP3    H113302   5.069   3.501   4.486  0.9629 -0.4426  1.9519
 4446TIP3    H213303   4.958   3.399   4.472  0.5980  0.3137 -1.3581
 4447TIP3   OH213304   5.248   2.316   4.402 -0.3911  0.0088 -0.1449
 4447TIP3    H113305   5.222   2.235   4.447 -0.0445 -0.6460 -1.0940
 4447TIP3    H213306   5.306   2.286   4.331  0.4341  1.1686  0.0204
 4448TIP3   OH213307   2.411   5.698   1.730  0.3658 -0.1210  0.1097
 4448TIP3    H113308   2.326   5.717   1.690  0.3174  0.8289  0.6550
 4448TIP3    H213309   2.470   5.763   1.692  0.3425  0.7355  1.4854
 4449TIP3   OH213310   1.569   1.284   3.477 -0.5730  0.5306 -0.2155
 4449TIP3    H113311   1.507   1.343   3.433  1.1005  2.6112  0.0488
 4449TIP3    H213312   1.562   1.306   3.570  0.2751  0.5287 -0.1412
 4450TIP3   OH213313   1.710   3.623   3.217 -0.3439  0.5575  0.1523
 4450TIP3    H113314   1.671   3.539   3.240 -2.9044  1.0306 -2.0079
 4450TIP3    H213315   1.804   3.607   3.219 -0.7141 -2.9661 -2.0028
 4451TIP3   OH213316   0.924   0.117   3.415  0.5124 -0.1047  0.3275
 4451TIP3    H113317   0.905   0.210   3.409 -1.2238 -0.5357 -1.7944
 4451TIP3    H213318   0.841   0.076   3.440  0.9091 -1.2010 -0.0797
 4452TIP3   OH213319   6.468   4.238   1.415 -0.0651  0.0616  0.1911
 4452TIP3    H113320   6.537   4.188   1.459  0.4668  1.7320  1.3390
 4452TIP3    H213321   6.422   4.283   1.485  1.1160  3.2185 -0.8857
 4453TIP3   OH213322   3.626   5.638   0.251 -0.6318 -0.0982 -0.4583
 4453TIP3    H113323   3.624   5.585   0.331 -1.3502  1.7558  0.8106
 4453TIP3    H213324   3.665   5.721   0.278  0.9044 -0.0536 -2.4949
 4454TIP3   OH213325   4.389   1.364   0.701 -0.4802 -0.0548 -0.2276
 4454TIP3    H113326   4.402   1.385   0.794  0.3491  0.3830 -0.4274
 4454TIP3    H213327   4.476   1.376   0.662 -0.6098 -1.1417 -0.8919
 4455TIP3   OH213328   5.388   0.177   0.622  0.3069 -0.4853 -0.0664
 4455TIP3    H113329   5.423   0.190   0.710  0.1467 -0.1730 -0.0474
 4455TIP3    H213330   5.295   0.158   0.636 -0.4694  2.6125 -0.2946
 4456TIP3   OH213331   4.860   3.287   3.831  0.6332  0.4181 -0.0610
 4456TIP3    H113332   4.854   3.309   3.738  0.7659 -1.6352 -0.6180
 4456TIP3    H213333   4.930   3.343   3.865  2.5021 -0.6895 -1.8685
 4457TIP3   OH213334   7.108   1.551   2.483  0.0766 -0.1221  0.5041
 4457TIP3    H113335   7.160   1.594   2.551 -1.2345  2.2993  0.0926
 4457TIP3    H213336   7.054   1.488   2.531  2.0365 -1.3874  1.1417
 4458TIP3   OH213337   4.082   4.315   0.571 -0.2970 -0.2796 -0.0524
 4458TIP3    H113338   4.149   4.321   0.503  0.9344  0.4198  1.1766
 4458TIP3    H213339   4.080   4.223   0.594  1.4145 -0.0982  0.9848
 4459TIP3   OH213340   5.377   3.553   0.831  0.4884 -0.3694  0.1391
 4459TIP3    H113341   5.325   3.474   0.852 -0.8270 -0.1693 -2.0533
 4459TIP3    H213342   5.437   3.524   0.762  0.2486  0.4465 -0.4171
 4460TIP3   OH213343   4.866   5.503   5.814  0.2458  0.6118  0.6468
 4460TIP3    H113344   4.911   5.539   5.890  1.6188  0.1797  0.0639
 4460TIP3    H213345   4.782   5.549   5.812  1.1440  2.3492  1.0606
 4461TIP3   OH213346   0.208   5.583   3.751  1.0216 -0.5173 -0.2204
 4461TIP3    H113347   0.170   5.663   3.714  2.1212 -0.0508 -0.3763
 4461TIP3    H213348   0.273   5.614   3.813  1.7791 -1.2843 -0.6054
 4462TIP3   OH213349   6.373   5.793   3.251 -0.3907  0.3948 -0.3194
 4462TIP3    H113350   6.443   5.768   3.191  0.5078  1.2700  0.3401
 4462TIP3    H213351   6.409   5.777   3.338 -0.8895  1.1463  0.0344
 4463TIP3   OH213352   5.440   4.644   5.350 -0.2846  0.5537 -0.3072
 4463TIP3    H113353   5.450   4.621   5.443 -1.3631 -0.3217 -0.3735
 4463TIP3    H213354   5.452   4.561   5.304  0.9193  1.1066 -1.0248
 4464TIP3   OH213355   5.694   0.822   3.586 -0.0878  0.2220 -0.7762
 4464TIP3    H113356   5.690   0.728   3.602 -0.9630  0.5847  1.7136
 4464TIP3    H213357   5.638   0.837   3.511 -4.1772 -0.8185  1.7539
 4465TIP3   OH213358   3.173   4.103   5.353 -0.3069 -0.0466 -0.3015
 4465TIP3    H113359   3.190   4.021   5.399 -2.3458 -0.4525 -0.1928
 4465TIP3    H213360   3.235   4.103   5.280  0.7674 -0.9225  0.5751
 4466TIP3   OH213361   0.599   1.060   0.320  0.6401  0.2557  0.0770
 4466TIP3    H113362   0.659   1.035   0.249  0.8777 -0.4995  0.5344
 4466TIP3    H213363   0.644   1.132   0.365  1.3825 -0.5466  0.6383
 4467TIP3   OH213364   6.972   5.835   1.150  0.4197 -0.2214 -0.2609
 4467TIP3    H113365   7.056   5.881   1.149  0.7980 -0.8967 -0.2889
 4467TIP3    H213366   6.912   5.895   1.194  1.1306 -0.0795  0.5403
 4468TIP3   OH213367   2.547   5.479   5.478  0.1411  0.1413 -0.4658
 4468TIP3    H113368   2.642   5.478   5.487  0.0695 -2.0728  0.9184
 4468TIP3    H213369   2.515   5.447   5.562 -1.9143  2.1068 -0.4224
 4469TIP3   OH213370   2.713   1.076   4.922 -0.5097  0.7338 -0.4679
 4469TIP3    H113371   2.740   1.141   4.857  0.0549  1.3600  0.3727
 4469TIP3    H213372   2.790   1.064   4.977 -1.8674  2.5495  1.9876
 4470TIP3   OH213373   0.136   0.606   0.614 -0.0851 -0.3560  0.0581
 4470TIP3    H113374   0.113   0.513   0.612 -0.1020 -0.3411 -1.4112
 4470TIP3    H213375   0.129   0.634   0.523 -2.6053  1.7397  0.7849
 4471TIP3   OH213376   1.402   6.686   0.401  0.0940  0.1298  0.2445
 4471TIP3    H113377   1.314   6.720   0.386  0.0552  0.3862  1.0048
 4471TIP3    H213378   1.434   6.662   0.314 -0.8184 -0.1985 -0.0118
 4472TIP3   OH213379   6.264   5.442   1.665 -0.2062  0.0335  0.6092
 4472TIP3    H113380   6.311   5.525   1.665 -0.3839  0.1379  1.0321
 4472TIP3    H213381   6.178   5.462   1.626  0.6087 -0.4739 -1.6204
 4473TIP3   OH213382   5.248   3.519   4.387  0.5222 -0.0374  0.0153
 4473TIP3    H113383   5.326   3.474   4.355  1.0753  0.9195 -0.0181
 4473TIP3    H213384   5.255   3.608   4.352 -0.1744  0.2912  0.6762
 4474TIP3   OH213385   0.391   3.300   0.761  0.0161 -0.0055 -0.0687
 4474TIP3    H113386   0.482   3.325   0.777  0.7703 -2.1490 -0.7527
 4474TIP3    H213387   0.370   3.340   0.677  0.5696 -0.0804 -0.2476
 4475TIP3   OH213388   0.115   0.105   0.436 -0.2129 -0.0936 -0.1621
 4475TIP3    H113389   0.075   0.087   0.521 -0.3831 -0.2099 -0.2672
 4475TIP3    H213390   0.209   0.090   0.450 -0.3208 -0.7916 -0.1722
 4476TIP3   OH213391   2.694   2.681   3.282 -0.0616 -0.8041 -0.4858
 4476TIP3    H113392   2.714   2.761   3.233 -0.3287 -1.1829 -1.2217
 4476TIP3    H213393   2.776   2.632   3.281  0.6283  0.2128  1.4617
 4477TIP3   OH213394   2.071   1.681   1.066 -0.0729  0.2381 -0.3511
 4477TIP3    H113395   2.086   1.717   0.979  1.2370  1.1421  0.2113
 4477TIP3    H213396   2.097   1.752   1.126  0.1556 -0.7667  0.7779
 4478TIP3   OH213397   1.613   5.520   3.002  0.1857 -0.4600 -0.3146
 4478TIP3    H113398   1.642   5.437   2.964  0.1652 -1.0479  0.9043
 4478TIP3    H213399   1.646   5.518   3.091  1.3228  1.4421 -0.6370
 4479TIP3   OH213400   2.171   3.617   2.701 -0.1339 -0.0155  0.2200
 4479TIP3    H113401   2.208   3.545   2.650 -1.0940 -0.9633  0.8186
 4479TIP3    H213402   2.138   3.679   2.635  0.8760 -0.0149 -0.2972
 4480TIP3   OH213403   3.597   0.793   1.872 -0.4189 -0.5478 -0.6773
 4480TIP3    H113404   3.612   0.855   1.800  0.1113  1.4062  1.0089
 4480TIP3    H213405   3.684   0.766   1.900 -0.6005 -0.9655 -0.5152
 4481TIP3   OH213406   5.669   4.403   4.755 -0.1483 -0.1114  0.4438
 4481TIP3    H113407   5.690   4.439   4.841  1.4035 -0.2749  0.1614
 4481TIP3    H213408   5.580   4.368   4.765  0.3312 -0.9321  2.2377
 4482TIP3   OH213409   2.329   2.500   5.241  0.4785  0.0349 -0.0084
 4482TIP3    H113410   2.312   2.460   5.155 -1.4275 -0.1274  0.4169
 4482TIP3    H213411   2.425   2.509   5.244  0.7017 -1.3231 -1.5399
 4483TIP3   OH213412   6.149   6.210   2.283  0.0377 -0.0813  0.0853
 4483TIP3    H113413   6.109   6.153   2.217  1.0197 -0.1271 -0.4889
 4483TIP3    H213414   6.220   6.254   2.237  0.0685  0.6866  0.8489
 4484TIP3   OH213415   1.120   2.389   0.596  0.0094 -0.6368  0.2055
 4484TIP3    H113416   1.152   2.302   0.623 -0.3757 -0.7374  0.3539
 4484TIP3    H213417   1.029   2.390   0.625 -0.6985 -1.0723 -1.8251
 4485TIP3   OH213418   2.479   3.863   0.182 -0.1422 -0.5294 -0.2472
 4485TIP3    H113419   2.429   3.913   0.117 -1.1754  0.8490  1.5166
 4485TIP3    H213420   2.436   3.777   0.184  0.1855 -0.7406 -1.6786
 4486TIP3   OH213421   3.203   6.473   3.848  0.1146 -0.2843 -0.7182
 4486TIP3    H113422   3.136   6.411   3.819 -0.2609 -1.8240  2.9696
 4486TIP3    H213423   3.160   6.524   3.917  1.8582  0.8110 -0.3940
 4487TIP3   OH213424   5.009   2.314   2.897 -0.1155 -0.2254  0.1905
 4487TIP3    H113425   4.985   2.402   2.928 -0.5823 -0.6848  1.1742
 4487TIP3    H213426   4.925   2.268   2.890 -0.0955 -0.0174 -2.2760
 4488TIP3   OH213427   0.299   0.413   3.815 -0.1266  0.0369  0.6584
 4488TIP3    H113428   0.247   0.452   3.745  1.1546  1.3015  0.3565
 4488TIP3    H213429   0.329   0.488   3.866  1.3610 -0.6541  0.8303
 4489TIP3   OH213430   1.194   5.459   5.272 -0.3586  0.0228  0.2118
 4489TIP3    H113431   1.236   5.375   5.250  0.6876  0.7979 -0.9232
 4489TIP3    H213432   1.265   5.523   5.266 -1.2308  1.0538  0.6094
 4490TIP3   OH213433   1.194   0.543   2.589 -0.1036  0.6233 -0.5836
 4490TIP3    H113434   1.117   0.487   2.586  1.0800 -1.1327  0.4570
 4490TIP3    H213435   1.261   0.494   2.542  0.4491  2.0697 -1.3592
 4491TIP3   OH213436   0.577   4.337   5.199 -0.2042 -0.0716  0.4912
 4491TIP3    H113437   0.625   4.254   5.196 -0.3023 -0.1201 -2.0056
 4491TIP3    H213438   0.492   4.317   5.160 -0.3713  1.1158  0.2032
 4492TIP3   OH213439   6.978   2.151   1.863 -0.0058 -0.2486 -0.0871
 4492TIP3    H113440   6.918   2.107   1.804  0.5459 -1.4127  0.1886
 4492TIP3    H213441   6.922   2.204   1.920 -0.7108 -0.8032 -0.2571
 4493TIP3   OH213442   2.738   1.972   3.444 -0.3726 -0.2570  0.0712
 4493TIP3    H113443   2.744   2.022   3.525  0.1017 -0.7035  0.3241
 4493TIP3    H213444   2.761   1.882   3.471  1.6051 -0.0906 -0.8607
 4494TIP3   OH213445   0.122   0.100   5.375  0.4255 -0.0807  0.2699
 4494TIP3    H113446   0.213   0.081   5.400  0.3473  0.7879  1.2852
 4494TIP3    H213447   0.072   0.080   5.454 -0.3284 -0.8959 -0.3964
 4495TIP3   OH213448   3.497   4.328   3.962  0.1893 -0.3107  0.0957
 4495TIP3    H113449   3.585   4.294   3.949  0.5308  0.7802 -0.5880
 4495TIP3    H213450   3.452   4.312   3.879  0.1659  0.3259 -0.0198
 4496TIP3   OH213451   4.390   2.988   3.672  0.1013  1.1894  0.0844
 4496TIP3    H113452   4.475   3.013   3.636 -1.2678  4.2188 -1.4286
 4496TIP3    H213453   4.346   3.071   3.688 -1.8744 -0.2200  2.7510
 4497TIP3   OH213454   7.126   0.323   3.127  0.3906 -0.2100  0.4124
 4497TIP3    H113455   7.131   0.407   3.082  2.3960 -1.1541 -1.3006
 4497TIP3    H213456   7.034   0.299   3.123 -0.2391  1.8761  0.9921
 4498TIP3   OH213457   3.681   5.720   3.736  0.6430  0.2009 -0.4446
 4498TIP3    H113458   3.723   5.799   3.701  0.2101  0.4526 -0.4117
 4498TIP3    H213459   3.737   5.693   3.809  1.4692 -0.2443 -1.2295
 4499TIP3   OH213460   0.652   1.426   5.449  0.5696 -0.4658 -0.2353
 4499TIP3    H113461   0.658   1.378   5.532  0.6133  0.1532  0.1293
 4499TIP3    H213462   0.593   1.499   5.468 -0.4983 -1.0683 -1.1281
 4500TIP3   OH213463   0.982   5.744   4.977 -0.5657 -0.2445 -0.2703
 4500TIP3    H113464   0.975   5.804   5.051 -1.3840  3.0614 -2.7369
 4500TIP3    H213465   0.900   5.757   4.929  0.3776 -1.3700 -2.3176
 4501TIP3   OH213466   3.732   0.750   1.339  0.0035  0.6438 -0.0337
 4501TIP3    H113467   3.764   0.840   1.330  0.8213  0.4737  0.9982
 4501TIP3    H213468   3.778   0.715   1.416  0.9385 -1.2015 -1.3627
 4502TIP3   OH213469   4.766   2.074   2.656  0.1180  0.1223 -0.1990
 4502TIP3    H113470   4.720   2.063   2.572  1.3811 -1.6442 -0.7217
 4502TIP3    H213471   4.845   2.020   2.647  1.3930  1.6233  1.3410
 4503TIP3   OH213472   6.497   6.191   2.728 -0.2245  0.9048 -0.5570
 4503TIP3    H113473   6.559   6.160   2.662 -1.7928 -0.6855 -1.3641
 4503TIP3    H213474   6.523   6.147   2.808  1.1185  2.1247 -0.2739
 4504TIP3   OH213475   6.214   5.412   3.731 -0.5763 -0.4762  0.7911
 4504TIP3    H113476   6.212   5.508   3.728 -3.9165 -0.4200 -1.6562
 4504TIP3    H213477   6.278   5.387   3.665 -1.1085  0.1529  0.0129
 4505TIP3   OH213478   1.064   2.607   3.083 -0.3570  0.2876 -0.1362
 4505TIP3    H113479   0.983   2.656   3.069 -0.2207  0.6602  0.3292
 4505TIP3    H213480   1.035   2.518   3.101 -0.6677  0.4081 -0.0209
 4506TIP3   OH213481   1.281   2.487   0.399 -0.0262  0.1913 -0.2407
 4506TIP3    H113482   1.350   2.421   0.406  0.0572  0.3375  0.4131
 4506TIP3    H213483   1.207   2.449   0.447 -2.0704 -1.9842 -4.5656
 4507TIP3   OH213484   3.616   4.947   1.160 -1.0803 -0.5053  0.3492
 4507TIP3    H113485   3.684   4.938   1.093 -0.5604  1.3516  0.5590
 4507TIP3    H213486   3.622   4.868   1.212  0.9476 -0.3937  0.3633
 4508TIP3   OH213487   2.652   1.418   2.411 -0.7082 -0.1644 -0.3277
 4508TIP3    H113488   2.582   1.396   2.472 -1.1978  0.9911 -0.4448
 4508TIP3    H213489   2.607   1.457   2.336 -0.1859 -2.2494 -1.7893
 4509TIP3   OH213490   5.395   3.118   0.067  0.9513 -0.5182  0.4815
 4509TIP3    H113491   5.401   3.190   0.129  0.7659 -0.6204  0.6195
 4509TIP3    H213492   5.314   3.072   0.091  0.2871  0.0763 -0.5315
 4510TIP3   OH213493   5.950   2.494   0.772  0.4355 -0.1421 -0.8962
 4510TIP3    H113494   6.014   2.493   0.843 -2.0143 -4.0267  1.6271
 4510TIP3    H213495   5.996   2.453   0.698  1.0985 -2.2854  0.6367
 4511TIP3   OH213496   6.968   6.349   3.350 -0.0956  0.2775 -0.5807
 4511TIP3    H113497   7.062   6.348   3.332 -0.0723 -1.6053 -0.5251
 4511TIP3    H213498   6.956   6.423   3.409  1.4475  0.2219 -0.1527
 4512TIP3   OH213499   0.183   2.196   3.750 -0.0087 -0.1036 -0.1014
 4512TIP3    H113500   0.255   2.188   3.812  0.6356  0.7436 -0.7289
 4512TIP3    H213501   0.120   2.129   3.778  1.1611 -1.0887  0.2387
 4513TIP3   OH213502   1.049   3.122   3.222  0.0964 -0.2253 -0.3853
 4513TIP3    H113503   1.015   3.035   3.204  1.6630 -1.4025  1.7611
 4513TIP3    H213504   1.075   3.119   3.314  1.7358  1.9888 -0.6756
 4514TIP3   OH213505   3.879   3.491   4.384 -0.4025 -0.1587  0.0556
 4514TIP3    H113506   3.924   3.440   4.317 -0.3868  0.1195 -0.1492
 4514TIP3    H213507   3.931   3.571   4.392 -0.1649 -0.3757  0.7050
 4515TIP3   OH213508   7.177   0.201   3.366 -0.0552  0.5886 -0.3526
 4515TIP3    H113509   7.176   0.252   3.285  2.8918  0.2517 -0.7064
 4515TIP3    H213510   7.175   0.110   3.337  1.3372  0.4615 -0.1059
 4516TIP3   OH213511   5.508   3.330   2.462 -0.0188  0.1480  0.2094
 4516TIP3    H113512   5.424   3.303   2.425 -0.6891  1.3157  0.8286
 4516TIP3    H213513   5.542   3.251   2.505 -0.2329 -0.6427 -1.0210
 4517TIP3   OH213514   0.246   1.503   1.066  0.0102 -0.0004  0.0613
 4517TIP3    H113515   0.326   1.450   1.067  0.7254  0.9841  2.4350
 4517TIP3    H213516   0.224   1.515   1.158 -3.0041 -0.3219 -0.5218
 4518TIP3   OH213517   4.330   0.746   0.237  0.2572 -0.2070  1.0978
 4518TIP3    H113518   4.412   0.703   0.213  0.3903  0.2790  0.6584
 4518TIP3    H213519   4.287   0.765   0.154 -0.2849 -0.4233  1.3262
 4519TIP3   OH213520   6.598   5.802   5.886  0.4590  0.0309 -0.0693
 4519TIP3    H113521   6.508   5.776   5.867  0.9616 -3.2375  1.3688
 4519TIP3    H213522   6.646   5.785   5.805 -0.0135  0.8694 -0.5361
 4520TIP3   OH213523   3.479   3.751   3.876 -0.3763  0.2557  0.2800
 4520TIP3    H113524   3.419   3.676   3.876  0.1097 -0.1453  0.5984
 4520TIP3    H213525   3.532   3.739   3.955 -0.5111  1.1213  0.5126
 4521TIP3   OH213526   6.430   5.488   0.847 -0.1250 -0.0322 -0.5631
 4521TIP3    H113527   6.502   5.544   0.876 -0.2342  0.0584 -0.4632
 4521TIP3    H213528   6.381   5.543   0.786 -1.2520  0.6138  0.8747
 4522TIP3   OH213529   0.102   5.226   0.188 -0.1061 -0.0697  0.1655
 4522TIP3    H113530   0.016   5.269   0.192 -0.1936 -0.2942  1.0572
 4522TIP3    H213531   0.156   5.276   0.249  0.4601  0.1889 -0.5386
 4523TIP3   OH213532   4.970   2.360   1.990  0.0671  0.3369 -0.3835
 4523TIP3    H113533   5.055   2.368   2.034 -0.8982  3.4451  1.2638
 4523TIP3    H213534   4.991   2.364   1.897  1.7166  1.5949 -0.0157
 4524TIP3   OH213535   4.245   5.084   4.503  0.7804  0.1937  0.2177
 4524TIP3    H113536   4.257   5.092   4.409  2.0854 -0.2804  0.3257
 4524TIP3    H213537   4.219   5.171   4.532 -1.3290 -0.0461 -0.7856
 4525TIP3   OH213538   1.121   2.747   4.915 -0.3056 -0.3224  0.2404
 4525TIP3    H113539   1.038   2.705   4.938 -1.3025  1.2771 -0.2837
 4525TIP3    H213540   1.103   2.841   4.919  1.2365  0.0628 -0.7809
 4526TIP3   OH213541   3.176   4.771   5.317 -0.3170  0.8978  0.2307
 4526TIP3    H113542   3.163   4.696   5.259  0.1695  1.7454 -1.0211
 4526TIP3    H213543   3.243   4.742   5.379 -2.6243 -0.9183  2.0536
 4527TIP3   OH213544   3.060   4.818   3.600  0.0260  0.6976 -0.5181
 4527TIP3    H113545   3.079   4.773   3.682 -0.5476 -1.0314 -1.2970
 4527TIP3    H213546   2.974   4.858   3.615 -0.0032  0.5304 -0.2166
 4528TIP3   OH213547   6.061   2.445   1.191 -0.0480 -0.3430 -0.5565
 4528TIP3    H113548   5.985   2.387   1.187  0.7916 -1.5341  0.0625
 4528TIP3    H213549   6.071   2.479   1.102 -1.9635  0.7508 -0.4076
 4529TIP3   OH213550   5.584   1.318   2.282  0.5358  0.4455 -0.2966
 4529TIP3    H113551   5.585   1.338   2.376 -1.3393  0.9457 -0.3438
 4529TIP3    H213552   5.675   1.296   2.262  1.0070  0.4152  1.6081
 4530TIP3   OH213553   6.573   6.440   2.479 -0.3107  0.3222  0.3576
 4530TIP3    H113554   6.567   6.512   2.542  0.9294 -1.0515  2.1532
 4530TIP3    H213555   6.501   6.381   2.501 -0.9763  0.6994 -0.7317
 4531TIP3   OH213556   2.882   6.125   0.894  0.7616 -0.5972  0.2403
 4531TIP3    H113557   2.956   6.181   0.917  0.6200 -1.1765  2.3536
 4531TIP3    H213558   2.887   6.053   0.957 -2.7081  0.3578  1.8311
 4532TIP3   OH213559   0.357   1.432   5.145 -0.3337  0.9188 -0.2032
 4532TIP3    H113560   0.281   1.430   5.203  0.8934  1.3376  1.5089
 4532TIP3    H213561   0.338   1.502   5.083 -0.4942  2.4825  1.5191
 4533TIP3   OH213562   1.147   3.731   2.083  0.8343 -0.0743 -0.0313
 4533TIP3    H113563   1.078   3.788   2.049  1.0163  0.1535 -0.0224
 4533TIP3    H213564   1.196   3.786   2.145  1.0069 -0.2404 -0.0174
 4534TIP3   OH213565   3.016   4.034   4.282  0.1924  0.2816 -0.2207
 4534TIP3    H113566   3.098   4.033   4.231  0.1303  1.9403 -0.4166
 4534TIP3    H213567   3.020   4.117   4.331 -0.4429 -0.5825  1.3442
 4535TIP3   OH213568   2.039   5.648   2.181 -0.0753  0.3542 -0.4622
 4535TIP3    H113569   2.063   5.741   2.184 -0.3814  0.5089 -2.1101
 4535TIP3    H213570   2.038   5.626   2.088  1.6342 -1.7522 -0.0788
 4536TIP3   OH213571   0.722   6.531   5.026 -0.2379  0.0942 -0.1326
 4536TIP3    H113572   0.661   6.496   5.091  0.9724  0.2494  1.1167
 4536TIP3    H213573   0.710   6.626   5.030  0.3142  0.1503  0.3746
 4537TIP3   OH213574   6.482   1.973   1.249 -0.0795  0.1287  0.1210
 4537TIP3    H113575   6.463   1.880   1.266 -1.4045  0.3656  0.0363
 4537TIP3    H213576   6.519   1.974   1.161  0.4594 -0.3790  0.3348
 4538TIP3   OH213577   1.095   1.580   1.215 -0.6548 -0.2066  0.0258
 4538TIP3    H113578   1.130   1.626   1.292 -0.2772 -0.3354 -0.0652
 4538TIP3    H213579   1.148   1.501   1.209 -0.8608 -0.3271 -0.2130
 4539TIP3   OH213580   2.890   0.323   3.385  0.0693  0.1354  0.3722
 4539TIP3    H113581   2.806   0.363   3.361 -0.1203  0.2559  1.2165
 4539TIP3    H213582   2.866   0.246   3.437  0.4842  0.5171  1.1455
 4540TIP3   OH213583   2.089   5.051   0.105 -0.0260  0.3183  0.1256
 4540TIP3    H113584   1.997   5.026   0.102  0.2827 -0.7105 -1.6771
 4540TIP3    H213585   2.129   4.989   0.166 -0.6534  1.3437  1.6370
 4541TIP3   OH213586   6.234   2.105   1.147 -0.3387 -0.0791  0.0951
 4541TIP3    H113587   6.322   2.086   1.177  0.1230  1.1186 -0.4376
 4541TIP3    H213588   6.247   2.157   1.067 -1.4482  2.9606  1.7268
 4542TIP3   OH213589   5.975   1.175   2.801  0.5646 -0.3073  0.2750
 4542TIP3    H113590   6.061   1.153   2.765  1.1337  1.6515  0.3245
 4542TIP3    H213591   5.916   1.173   2.726  1.0239  0.1335 -0.1055
 4543TIP3   OH213592   6.065   1.584   1.971  0.3978 -0.1465  0.0966
 4543TIP3    H113593   6.014   1.665   1.977  0.8943  0.2875 -1.1387
 4543TIP3    H213594   6.110   1.591   1.887  0.3113 -1.7978 -0.1133
 4544TIP3   OH213595   1.956   3.108   0.138 -0.3018 -0.0308 -0.3609
 4544TIP3    H113596   1.865   3.082   0.127 -0.9584  2.0018 -0.1952
 4544TIP3    H213597   1.976   3.088   0.230  0.0719 -2.2028 -0.8587
 4545TIP3   OH213598   0.590   5.602   4.901 -0.2012  0.7591  0.2798
 4545TIP3    H113599   0.525   5.648   4.954  0.1874  2.3000 -0.5445
 4545TIP3    H213600   0.660   5.665   4.888  0.6584 -0.2906 -0.3567
 4546TIP3   OH213601   2.185   3.918   2.525  0.6200 -0.0082 -0.1716
 4546TIP3    H113602   2.210   3.994   2.577  0.1080  0.0948 -0.0694
 4546TIP3    H213603   2.255   3.854   2.539 -0.5408 -0.8335  2.3713
 4547TIP3   OH213604   2.070   5.223   2.878  0.0600  0.1467 -0.0078
 4547TIP3    H113605   2.060   5.171   2.958 -0.2516  0.3338  0.0780
 4547TIP3    H213606   2.031   5.168   2.809 -0.6887  0.4560  0.1609
 4548TIP3   OH213607   4.098   2.104   3.936 -0.7480 -0.6356  0.2521
 4548TIP3    H113608   4.031   2.078   3.873 -0.7441  0.6091 -0.2965
 4548TIP3    H213609   4.058   2.174   3.987  0.6023  1.2698 -1.1443
 4549TIP3   OH213610   6.157   4.638   2.409  0.3359  0.0792 -0.4161
 4549TIP3    H113611   6.099   4.649   2.334  3.3348 -1.0153 -3.1152
 4549TIP3    H213612   6.207   4.720   2.412 -1.1612  1.0178  1.8846
 4550TIP3   OH213613   6.392   1.891   1.533  0.3475 -0.4247  0.1726
 4550TIP3    H113614   6.471   1.942   1.517  0.3879 -0.7508 -0.7120
 4550TIP3    H213615   6.405   1.810   1.484 -0.6154 -0.3932 -0.1563
 4551TIP3   OH213616   3.635   4.792   3.821  0.0958  0.1805  0.0416
 4551TIP3    H113617   3.621   4.832   3.735 -0.8873  0.1685  0.1895
 4551TIP3    H213618   3.707   4.730   3.807  0.6982  0.9695 -0.5078
 4552TIP3   OH213619   2.082   5.312   0.018 -0.6029  0.5813  0.4563
 4552TIP3    H113620   2.027   5.360   0.079 -1.2035 -1.0262  1.2481
 4552TIP3    H213621   2.080   5.221   0.049  1.1193  0.1542 -0.4957
 4553TIP3   OH213622   4.506   5.134   1.390 -0.6319  0.0384 -0.6357
 4553TIP3    H113623   4.504   5.144   1.295 -1.3812  1.0787 -0.5258
 4553TIP3    H213624   4.504   5.040   1.405  0.6781 -0.1689 -1.6658
 4554TIP3   OH213625   3.385   0.504   5.320  0.4716  0.1234 -0.4706
 4554TIP3    H113626   3.437   0.424   5.314  0.7776  0.3172 -0.4488
 4554TIP3    H213627   3.295   0.474   5.333  0.5627 -0.2160 -0.6320
 4555TIP3   OH213628   6.225   6.224   2.778  0.0328  0.6477  0.5299
 4555TIP3    H113629   6.207   6.168   2.702 -0.6860  0.1064  1.0774
 4555TIP3    H213630   6.317   6.247   2.770  0.3002 -0.4566  0.1705
 4556TIP3   OH213631   6.227   2.704   4.090 -0.2232  0.1765 -0.1669
 4556TIP3    H113632   6.243   2.637   4.157  1.2541  0.9590  0.3062
 4556TIP3    H213633   6.185   2.657   4.019 -0.3156 -1.0123  0.6401
 4557TIP3   OH213634   6.359   3.279   1.182 -0.3140  0.4412  0.9344
 4557TIP3    H113635   6.380   3.188   1.163  1.0533  0.8194  0.4831
 4557TIP3    H213636   6.278   3.276   1.233 -0.5990 -0.9805  0.4217
 4558TIP3   OH213637   1.913   4.339   1.131 -0.4227  0.3087 -0.2062
 4558TIP3    H113638   1.860   4.356   1.054 -0.4072  0.6040 -0.1527
 4558TIP3    H213639   1.859   4.281   1.185 -0.1673 -0.4324 -0.7326
 4559TIP3   OH213640   4.984   4.365   2.345 -0.8842  0.0552 -0.3507
 4559TIP3    H113641   4.920   4.307   2.303 -1.0283  1.3289 -1.9907
 4559TIP3    H213642   4.938   4.400   2.421 -0.6755 -2.1777  0.8983
 4560TIP3   OH213643   1.927   6.510   3.696 -0.6466  0.4153  0.5434
 4560TIP3    H113644   1.876   6.433   3.671 -0.1858  0.3450 -0.2345
 4560TIP3    H213645   2.013   6.476   3.718  0.4509  0.8969 -2.4972
 4561TIP3   OH213646   0.274   2.849   3.808 -0.6016  0.1760  0.0862
 4561TIP3    H113647   0.275   2.880   3.718  0.1360  1.4707  0.5163
 4561TIP3    H213648   0.364   2.858   3.838 -0.3634 -2.2533  0.3280
 4562TIP3   OH213649   2.351   6.675   3.479 -0.2785 -0.7360 -0.4328
 4562TIP3    H113650   2.388   6.731   3.411 -0.2995  1.2733  1.0973
 4562TIP3    H213651   2.257   6.690   3.474 -0.2722 -0.4891  0.0751
 4563TIP3   OH213652   2.364   4.379   2.276 -0.0293  0.1656 -0.5056
 4563TIP3    H113653   2.350   4.295   2.231  2.5704  0.9210 -3.1125
 4563TIP3    H213654   2.351   4.445   2.207 -1.7635  1.9557  1.4112
 4564TIP3   OH213655   0.614   0.847   3.790 -0.8524 -0.2770 -0.0531
 4564TIP3    H113656   0.564   0.894   3.723 -2.9720 -1.5618  0.5353
 4564TIP3    H213657   0.636   0.764   3.749 -0.0680 -0.1263  0.0517
 4565TIP3   OH213658   3.105   6.233   5.374  0.4652  0.8369  0.1717
 4565TIP3    H113659   3.096   6.156   5.430  0.7118  1.3204  0.8851
 4565TIP3    H213660   3.057   6.210   5.294  2.5762 -1.0507 -0.6727
 4566TIP3   OH213661   2.640   2.541   5.316 -0.4310  0.4386  0.1563
 4566TIP3    H113662   2.713   2.497   5.359  1.1494  3.8325  1.2789
 4566TIP3    H213663   2.664   2.541   5.223 -0.0044 -0.2123  0.2613
 4567TIP3   OH213664   4.437   6.277   4.732  0.3641 -0.9570 -0.5147
 4567TIP3    H113665   4.397   6.193   4.713 -0.1643 -0.5297 -1.3713
 4567TIP3    H213666   4.381   6.315   4.800  0.2661 -1.0501 -0.5437
 4568TIP3   OH213667   6.183   1.192   3.446  0.0509  0.3912 -0.2546
 4568TIP3    H113668   6.180   1.105   3.486 -0.5049  1.0749  1.2402
 4568TIP3    H213669   6.166   1.175   3.353  0.0195 -1.1081 -0.0016
 4569TIP3   OH213670   4.200   0.807   4.879 -0.2391 -0.0671 -0.0446
 4569TIP3    H113671   4.227   0.715   4.873  0.5653  0.0877  0.9455
 4569TIP3    H213672   4.105   0.804   4.888 -0.1248 -0.8652  1.0735
 4570TIP3   OH213673   0.345   0.572   4.508 -0.0468  0.0587  0.4346
 4570TIP3    H113674   0.377   0.631   4.576 -0.7286 -1.1327  1.8250
 4570TIP3    H213675   0.252   0.593   4.499  0.0497  0.2490 -0.1907
 4571TIP3   OH213676   2.828   6.703   0.278  0.6274 -0.4995 -0.0095
 4571TIP3    H113677   2.765   6.644   0.238  1.8103 -1.3722 -0.6133
 4571TIP3    H213678   2.850   6.661   0.361 -1.1866  0.8930  1.2818
 4572TIP3   OH213679   7.009   1.534   1.270  0.2507  0.3340  0.0331
 4572TIP3    H113680   7.043   1.563   1.185 -1.0224  0.5491 -0.4230
 4572TIP3    H213681   6.951   1.605   1.298 -1.3268 -0.8402 -0.1268
 4573TIP3   OH213682   6.468   3.373   5.672 -0.1999  0.5177 -0.1688
 4573TIP3    H113683   6.403   3.433   5.708 -0.1496  0.4480  0.0371
 4573TIP3    H213684   6.419   3.295   5.648 -0.1945  0.4684 -0.0214
 4574TIP3   OH213685   5.112   2.238   3.169  0.2968  0.2290  0.1514
 4574TIP3    H113686   5.103   2.247   3.074  0.6143  1.1526  0.2038
 4574TIP3    H213687   5.203   2.211   3.181 -0.1183 -1.3262  0.1246
 4575TIP3   OH213688   1.986   3.261   3.634  0.0900  0.0463  0.4823
 4575TIP3    H113689   1.911   3.321   3.629  1.2642  1.5367  0.1547
 4575TIP3    H213690   2.018   3.255   3.544  1.2750  0.6392  0.8507
 4576TIP3   OH213691   5.923   4.975   2.440  0.5787  0.3400  0.2389
 4576TIP3    H113692   5.937   4.922   2.361  0.2571 -0.1644  0.5120
 4576TIP3    H213693   5.895   4.912   2.506  1.0517  0.7252  0.8191
 4577TIP3   OH213694   0.377   1.701   4.051  0.6219  0.3348 -0.1268
 4577TIP3    H113695   0.368   1.659   3.966  0.8362  0.9671 -0.4733
 4577TIP3    H213696   0.356   1.633   4.115 -2.0636  0.4811 -0.7294
 4578TIP3   OH213697   6.511   1.366   5.357  0.0586 -0.1363 -0.0317
 4578TIP3    H113698   6.494   1.302   5.427  3.3094 -0.1973  0.8862
 4578TIP3    H213699   6.525   1.448   5.404 -2.7961  1.0851 -1.1130
 4579TIP3   OH213700   4.330   2.785   5.008  0.1250  0.6249  0.3311
 4579TIP3    H113701   4.269   2.738   5.065  1.4952 -0.2525  1.1241
 4579TIP3    H213702   4.365   2.718   4.950 -0.8470  1.4168 -1.2251
 4580TIP3   OH213703   0.908   3.052   4.087 -0.4471 -0.6488  0.5666
 4580TIP3    H113704   0.833   3.079   4.036 -0.2773 -1.3686 -0.0780
 4580TIP3    H213705   0.913   2.957   4.076  1.5067 -0.4566 -0.7447
 4581TIP3   OH213706   0.583   6.316   2.235  0.1892  0.1116 -0.2406
 4581TIP3    H113707   0.508   6.303   2.177  0.5288 -2.0564 -0.2616
 4581TIP3    H213708   0.594   6.411   2.239 -0.5010  0.3706 -2.8897
 4582TIP3   OH213709   2.920   4.944   4.862  0.2743  0.3583 -0.6090
 4582TIP3    H113710   2.920   4.850   4.881 -0.5526  0.6098  0.7508
 4582TIP3    H213711   2.828   4.966   4.849  0.2751  1.2911  0.7963
 4583TIP3   OH213712   3.849   2.987   0.102  0.0227 -0.0937 -0.1599
 4583TIP3    H113713   3.943   3.003   0.115  0.2457  0.2912 -1.9293
 4583TIP3    H213714   3.845   2.902   0.058 -0.4533 -0.0552 -0.1928
 4584TIP3   OH213715   0.965   3.082   2.848 -0.1906  0.6343 -0.3306
 4584TIP3    H113716   1.038   3.021   2.842 -0.4111  0.4345 -1.0667
 4584TIP3    H213717   0.899   3.036   2.900  0.9506  1.5871  2.1307
 4585TIP3   OH213718   6.748   2.291   4.538 -0.2106  0.7980 -0.4108
 4585TIP3    H113719   6.838   2.315   4.517 -0.2701  0.5349 -1.0008
 4585TIP3    H213720   6.720   2.237   4.464 -0.8686  0.9223 -0.2615
 4586TIP3   OH213721   4.899   3.573   0.267  0.2852  0.4098  0.6130
 4586TIP3    H113722   4.957   3.498   0.254  1.8656  1.0813  3.0198
 4586TIP3    H213723   4.955   3.640   0.305 -1.4377  2.2551  0.0648
 4587TIP3   OH213724   5.491   3.096   4.550 -0.0209  0.0090  0.3335
 4587TIP3    H113725   5.441   3.096   4.631 -0.3597 -0.8544  0.1359
 4587TIP3    H213726   5.582   3.090   4.578 -0.1073  0.2101  0.6614
 4588TIP3   OH213727   6.290   0.221   0.229  0.1883  0.0392  0.1811
 4588TIP3    H113728   6.218   0.203   0.290 -0.1012  0.9801  0.1374
 4588TIP3    H213729   6.331   0.301   0.263 -0.4120  0.9955 -1.2106
 4589TIP3   OH213730   0.782   4.455   2.561  0.4852 -0.7540 -0.2800
 4589TIP3    H113731   0.846   4.498   2.617 -0.3372  1.0056 -0.6339
 4589TIP3    H213732   0.726   4.525   2.528 -0.3324 -1.9729 -1.6732
 4590TIP3   OH213733   5.651   0.456   0.538 -0.2292  0.6557 -0.3007
 4590TIP3    H113734   5.643   0.424   0.448  0.7984 -0.0394 -0.1655
 4590TIP3    H213735   5.681   0.380   0.587  0.3456  1.3359  0.4178
 4591TIP3   OH213736   5.724   1.333   1.244  0.2345  0.4001 -0.1136
 4591TIP3    H113737   5.732   1.429   1.239  0.4905  0.3038 -2.0210
 4591TIP3    H213738   5.649   1.312   1.188 -0.1376 -0.4994  0.6931
 4592TIP3   OH213739   2.331   6.317   0.941 -0.0999 -0.1144 -0.5130
 4592TIP3    H113740   2.383   6.243   0.910  1.8628  0.9387  0.1535
 4592TIP3    H213741   2.390   6.392   0.937 -1.6767  1.2138 -0.0330
 4593TIP3   OH213742   4.490   2.432   3.765 -0.4138 -0.0855  0.0425
 4593TIP3    H113743   4.465   2.356   3.713  0.4388  0.5021 -1.3078
 4593TIP3    H213744   4.486   2.505   3.703 -0.3794  0.8205  1.0809
 4594TIP3   OH213745   0.407   1.984   3.642  0.4846  0.2733 -0.0254
 4594TIP3    H113746   0.415   1.981   3.737  2.8796  1.9904 -0.0743
 4594TIP3    H213747   0.487   1.943   3.609 -0.4567 -0.5916 -1.3365
 4595TIP3   OH213748   2.774   5.166   0.665 -0.5590  0.4965 -0.7265
 4595TIP3    H113749   2.690   5.145   0.706 -0.9277  0.7825 -1.3301
 4595TIP3    H213750   2.784   5.260   0.677  0.1109  0.3345  0.1344
 4596TIP3   OH213751   0.415   4.710   3.709 -0.4483  0.0196 -0.3837
 4596TIP3    H113752   0.510   4.698   3.711 -0.1918  1.5134 -1.5503
 4596TIP3    H213753   0.403   4.802   3.686 -2.1919 -0.0849 -0.0276
 4597TIP3   OH213754   0.601   6.016   1.994  0.3509 -0.5497  0.1937
 4597TIP3    H113755   0.604   5.979   2.082 -0.3021 -2.5652 -0.5556
 4597TIP3    H213756   0.527   5.971   1.952  0.1011  0.9820 -1.1232
 4598TIP3   OH213757   4.763   3.417   2.227  0.0587 -0.4048  0.1125
 4598TIP3    H113758   4.834   3.352   2.235  0.6899  0.3680  1.0648
 4598TIP3    H213759   4.686   3.365   2.205  0.8439 -1.3114 -0.5723
 4599TIP3   OH213760   4.410   5.408   3.747 -0.6607  0.1388  0.5085
 4599TIP3    H113761   4.465   5.422   3.825  0.7182 -0.1213 -0.3712
 4599TIP3    H213762   4.323   5.436   3.774 -0.0119  1.0112  1.8306
 4600TIP3   OH213763   0.443   2.704   5.480  0.2134 -0.4640  0.0840
 4600TIP3    H113764   0.445   2.625   5.426  0.1607 -0.0151 -0.5896
 4600TIP3    H213765   0.350   2.725   5.489 -0.1826 -2.9580  4.0221
 4601TIP3   OH213766   1.612   1.043   4.727  0.1669 -0.6179  0.0345
 4601TIP3    H113767   1.646   0.954   4.713  0.7080 -0.1352 -2.0146
 4601TIP3    H213768   1.618   1.085   4.641  1.4063  1.9372  1.2527
 4602TIP3   OH213769   4.538   6.112   5.690  0.3868  1.2466 -0.4907
 4602TIP3    H113770   4.595   6.177   5.650  1.5451  1.2840  1.1529
 4602TIP3    H213771   4.473   6.163   5.737  0.2181  1.1958 -0.6643
 4603TIP3   OH213772   2.962   6.647   3.713 -0.2640 -0.1134  0.2815
 4603TIP3    H113773   2.965   6.558   3.678 -0.6088  0.1389 -0.4300
 4603TIP3    H213774   2.871   6.659   3.741 -0.9832  0.8810 -2.1185
 4604TIP3   OH213775   3.654   0.913   5.747 -0.1555 -0.8632  0.1934
 4604TIP3    H113776   3.699   0.935   5.666  2.4136 -0.4881  1.6092
 4604TIP3    H213777   3.675   0.821   5.762 -0.9474 -1.0447  0.2554
 4605TIP3   OH213778   1.721   0.029   0.811 -0.2651 -0.3697  0.4906
 4605TIP3    H113779   1.770   0.074   0.743  1.8146  0.5204  2.4698
 4605TIP3    H213780   1.650   0.090   0.834 -0.7114 -0.4884 -0.5310
 4606TIP3   OH213781   6.388   1.483   2.381 -0.6918  0.5599  0.2230
 4606TIP3    H113782   6.383   1.411   2.444  0.8423  0.1527 -0.0701
 4606TIP3    H213783   6.328   1.459   2.311  0.1660 -0.7046 -0.1085
 4607TIP3   OH213784   5.140   3.686   2.629  0.6679  0.1961  0.6745
 4607TIP3    H113785   5.048   3.664   2.644  0.8213 -0.9989 -0.0517
 4607TIP3    H213786   5.137   3.773   2.589 -0.1982 -0.1924 -0.1300
 4608TIP3   OH213787   4.484   6.338   0.177  0.4386  0.2280 -0.2824
 4608TIP3    H113788   4.406   6.298   0.138 -0.9087  3.8200 -1.7970
 4608TIP3    H213789   4.450   6.387   0.252  1.7709 -0.3523  0.7430
 4609TIP3   OH213790   6.876   5.131   4.378  0.6799  0.2793  0.7769
 4609TIP3    H113791   6.846   5.213   4.338  0.0202  0.2929  1.2794
 4609TIP3    H213792   6.928   5.089   4.310 -1.6706 -0.4415 -0.6902
 4610TIP3   OH213793   2.049   2.042   0.670 -0.5831 -0.3389  0.0610
 4610TIP3    H113794   2.081   2.006   0.753  0.2417 -0.5976 -0.3591
 4610TIP3    H213795   2.035   1.966   0.614 -0.9921 -0.1567 -0.0875
 4611TIP3   OH213796   0.924   3.339   3.896 -0.4561  0.2197  0.6054
 4611TIP3    H113797   0.907   3.252   3.930 -1.5940  0.0060 -0.4596
 4611TIP3    H213798   0.861   3.395   3.941  0.1767  0.4926  1.1809
 4612TIP3   OH213799   4.909   6.153   2.232  0.4348 -0.5321  0.0700
 4612TIP3    H113800   4.826   6.191   2.206  0.8726  0.4896  0.1123
 4612TIP3    H213801   4.889   6.062   2.252 -0.2976 -0.8259 -1.8331
 4613TIP3   OH213802   1.107   1.220   5.136 -0.0645 -0.5524 -0.1097
 4613TIP3    H113803   1.039   1.286   5.151 -0.5192 -0.9559 -0.3755
 4613TIP3    H213804   1.183   1.252   5.186 -0.4770 -0.1533  0.2727
 4614TIP3   OH213805   3.595   6.545   1.686 -0.4955  0.1819 -0.4588
 4614TIP3    H113806   3.670   6.492   1.712 -1.1572 -0.6002 -0.0935
 4614TIP3    H213807   3.628   6.635   1.684 -0.1166  0.1828  2.1279
 4615TIP3   OH213808   4.361   3.960   4.422  0.3616 -0.0052 -0.0493
 4615TIP3    H113809   4.336   3.874   4.454 -0.3152  0.0704 -0.3599
 4615TIP3    H213810   4.336   3.959   4.329  3.4164 -0.6818 -0.9979
 4616TIP3   OH213811   5.382   4.065   5.383 -0.4764  0.4823  0.0209
 4616TIP3    H113812   5.365   4.113   5.464  0.3983 -0.7060  0.9478
 4616TIP3    H213813   5.349   3.977   5.400 -0.3134  0.2302 -0.9303
 4617TIP3   OH213814   4.506   3.485   4.799 -0.1081 -0.2870  0.0969
 4617TIP3    H113815   4.450   3.408   4.790 -0.8561  0.2801 -0.2110
 4617TIP3    H213816   4.595   3.452   4.789 -0.2548 -1.4687  2.1830
 4618TIP3   OH213817   6.087   6.660   4.930 -0.4148 -0.4190  0.0268
 4618TIP3    H113818   6.174   6.683   4.897 -0.3541 -1.2375 -0.4148
 4618TIP3    H213819   6.081   6.565   4.917 -0.7136 -0.6358  1.6171
 4619TIP3   OH213820   2.204   0.576   0.097 -0.4121 -0.2350  0.0413
 4619TIP3    H113821   2.271   0.641   0.119 -0.4875 -0.6929  1.7381
 4619TIP3    H213822   2.204   0.574   0.001  1.4422  0.3440 -0.0173
 4620TIP3   OH213823   5.470   1.082   3.579  0.1934 -0.4603  0.7901
 4620TIP3    H113824   5.525   1.156   3.603 -0.9898  0.0475  2.0470
 4620TIP3    H213825   5.382   1.119   3.568 -0.0597 -1.3455 -0.5634
 4621TIP3   OH213826   3.633   6.097   4.352  0.0787  0.3300 -0.3088
 4621TIP3    H113827   3.683   6.174   4.378  0.2183 -0.2745  1.3112
 4621TIP3    H213828   3.555   6.133   4.309  0.8496  1.3186 -0.9186
 4622TIP3   OH213829   6.752   5.551   1.363 -0.0609 -0.0682 -0.0443
 4622TIP3    H113830   6.842   5.524   1.344  0.1133 -1.0255  1.8905
 4622TIP3    H213831   6.762   5.627   1.421 -0.5218  0.3030 -0.4390
 4623TIP3   OH213832   7.024   4.335   2.626  0.3127  0.4386 -0.0339
 4623TIP3    H113833   7.098   4.305   2.574  0.2457  1.6748 -0.8852
 4623TIP3    H213834   7.059   4.408   2.678  0.3759 -0.7602  1.6860
 4624TIP3   OH213835   7.145   1.371   0.430  0.0196 -0.1750 -0.3710
 4624TIP3    H113836   7.190   1.296   0.390  0.4141 -0.3060  0.3173
 4624TIP3    H213837   7.215   1.431   0.455 -0.2936  0.4095 -0.8656
 4625TIP3   OH213838   4.317   3.930   2.993  0.2358  0.0349  0.3387
 4625TIP3    H113839   4.241   3.981   3.019 -0.9445 -1.7542  0.5380
 4625TIP3    H213840   4.364   3.913   3.075 -0.9383 -1.6051  0.7074
 4626TIP3   OH213841   2.323   4.517   0.848 -0.1232 -0.0195  0.2034
 4626TIP3    H113842   2.260   4.490   0.915 -0.1666  2.3788  1.2434
 4626TIP3    H213843   2.408   4.496   0.885 -0.2128 -1.9095 -0.5667
 4627TIP3   OH213844   6.702   3.973   4.360 -0.1348 -0.1819  0.0108
 4627TIP3    H113845   6.785   4.004   4.325  0.2615  0.0431  1.1342
 4627TIP3    H213846   6.673   3.907   4.297  1.3306 -0.9153  0.0610
 4628TIP3   OH213847   2.627   3.708   4.461 -0.4940  0.4882  0.5011
 4628TIP3    H113848   2.573   3.751   4.394  0.6262 -0.3537 -1.0035
 4628TIP3    H213849   2.582   3.727   4.544 -0.7287  3.4526 -0.1895
 4629TIP3   OH213850   2.073   0.633   0.382 -0.2720 -0.0873  0.2742
 4629TIP3    H113851   1.985   0.635   0.344  0.4108 -1.1735 -1.4859
 4629TIP3    H213852   2.090   0.541   0.400  0.6718  0.0570  0.1833
 4630TIP3   OH213853   2.492   4.633   3.034 -0.0690 -0.2441  0.0623
 4630TIP3    H113854   2.442   4.619   2.954  0.1281  1.7164 -0.4671
 4630TIP3    H213855   2.568   4.684   3.006  1.8278 -2.3886  0.9921
 4631TIP3   OH213856   2.347   2.387   1.539  0.1214  0.2532 -0.2983
 4631TIP3    H113857   2.362   2.346   1.454 -1.6594 -0.4585 -0.3163
 4631TIP3    H213858   2.362   2.480   1.524 -1.7598  0.3729 -1.8576
 4632TIP3   OH213859   7.219   1.104   1.627 -0.3262  0.1798  0.5011
 4632TIP3    H113860   7.126   1.120   1.613 -0.4687 -0.9595  0.0181
 4632TIP3    H213861   7.263   1.178   1.583 -0.9744  0.2606 -0.0232
 4633TIP3   OH213862   4.815   6.708   2.206 -0.3557  0.2466 -0.2899
 4633TIP3    H113863   4.863   6.684   2.127 -0.2120  0.1796 -0.1819
 4633TIP3    H213864   4.741   6.760   2.174 -0.5305 -0.1298 -0.5028
 4634TIP3   OH213865   4.083   0.469   4.333 -0.0058  0.2530 -0.0468
 4634TIP3    H113866   4.150   0.529   4.366  0.0132 -0.3404  1.0173
 4634TIP3    H213867   4.089   0.392   4.389 -0.6192 -0.4002 -0.8472
 4635TIP3   OH213868   1.282   3.297   2.983 -0.3020  0.1897 -0.2839
 4635TIP3    H113869   1.326   3.355   2.922 -1.8276 -1.1777 -2.8824
 4635TIP3    H213870   1.189   3.302   2.958 -0.7913 -1.5186  0.9782
 4636TIP3   OH213871   1.650   4.918   1.949 -0.2414 -0.2057  0.2636
 4636TIP3    H113872   1.651   4.891   2.041  2.5030 -0.3560  0.2883
 4636TIP3    H213873   1.572   4.877   1.912 -1.8873  0.5564  2.6836
 4637TIP3   OH213874   4.100   5.657   3.457  0.0937 -0.1041  0.4498
 4637TIP3    H113875   4.146   5.635   3.539 -1.1833 -2.1532  0.6849
 4637TIP3    H213876   4.027   5.712   3.485 -0.2258 -0.6386  0.6928
 4638TIP3   OH213877   1.554   2.656   1.299 -0.6739  0.0570 -0.0921
 4638TIP3    H113878   1.588   2.568   1.316  0.1705  0.4379  0.2476
 4638TIP3    H213879   1.506   2.679   1.379 -1.8293 -0.5091 -0.5995
 4639TIP3   OH213880   4.344   3.039   5.122 -0.0040  0.0634 -0.0655
 4639TIP3    H113881   4.419   3.071   5.072  0.2252  1.2480  0.9668
 4639TIP3    H213882   4.331   2.949   5.092  1.0067  0.2745 -1.1973
 4640TIP3   OH213883   1.137   4.389   3.846 -0.0749 -0.5163 -0.7024
 4640TIP3    H113884   1.179   4.353   3.769  0.7070 -0.8242 -0.1410
 4640TIP3    H213885   1.196   4.459   3.876 -0.1436 -0.6946 -0.1321
 4641TIP3   OH213886   2.696   4.077   5.359  0.1673 -0.0486 -0.2168
 4641TIP3    H113887   2.770   4.028   5.325 -0.3275 -0.3723 -0.8299
 4641TIP3    H213888   2.655   4.117   5.282 -2.5224 -2.8836 -0.4857
 4642TIP3   OH213889   5.099   0.209   4.003  0.1145  0.0658  0.0204
 4642TIP3    H113890   5.067   0.213   3.913 -0.6069 -0.7435  0.2328
 4642TIP3    H213891   5.085   0.297   4.037 -0.3400  0.1635 -0.4150
 4643TIP3   OH213892   5.470   0.848   5.536  0.4185 -0.4257  0.2838
 4643TIP3    H113893   5.565   0.838   5.536  0.3124 -3.2261 -2.8426
 4643TIP3    H213894   5.438   0.778   5.593  0.1302  0.6996  1.5809
 4644TIP3   OH213895   7.180   4.283   4.194 -0.7395 -0.1626 -0.3373
 4644TIP3    H113896   7.163   4.192   4.220 -1.1290 -0.4270 -1.4763
 4644TIP3    H213897   7.154   4.335   4.270 -1.1263 -0.9557  0.0857
 4645TIP3   OH213898   2.312   4.126   4.219  0.4042 -0.2272  0.0362
 4645TIP3    H113899   2.343   4.059   4.159  0.5562 -1.0316  0.9770
 4645TIP3    H213900   2.313   4.207   4.168  0.8359 -0.8262 -0.9305
 4646TIP3   OH213901   6.986   4.213   5.046  0.2297  0.2769  0.2628
 4646TIP3    H113902   6.989   4.224   4.951  1.0887  4.1133  0.5794
 4646TIP3    H213903   7.077   4.224   5.075 -0.2361  0.8166  1.6186
 4647TIP3   OH213904   3.511   5.413   4.886  0.1362 -0.0315 -0.3010
 4647TIP3    H113905   3.464   5.362   4.821  1.0893 -0.6417 -0.5309
 4647TIP3    H213906   3.520   5.354   4.961 -2.2117  1.1291  0.9937
 4648TIP3   OH213907   1.992   3.683   3.241  0.0829 -0.4382  0.7263
 4648TIP3    H113908   2.070   3.635   3.270  0.7724 -0.5747 -1.2497
 4648TIP3    H213909   2.014   3.715   3.154 -2.0450 -0.4293  0.1331
 4649TIP3   OH213910   3.815   3.465   1.694  0.9899  0.2259  0.0274
 4649TIP3    H113911   3.744   3.451   1.756  0.7703  0.6411 -0.1211
 4649TIP3    H213912   3.892   3.425   1.735  0.9123  0.7464  0.6936
 4650TIP3   OH213913   4.364   2.206   4.852  0.0879  0.0191  0.5387
 4650TIP3    H113914   4.433   2.256   4.809 -0.6410  1.6530  1.1671
 4650TIP3    H213915   4.376   2.116   4.821  0.4258  0.8567 -1.9776
 4651TIP3   OH213916   5.370   4.401   4.438 -0.2989 -0.0479 -0.9467
 4651TIP3    H113917   5.315   4.452   4.499 -0.9737 -1.2596 -0.4968
 4651TIP3    H213918   5.458   4.435   4.451 -0.3641 -0.5034  1.0036
 4652TIP3   OH213919   7.125   3.718   2.347 -0.3192 -0.2080 -0.1417
 4652TIP3    H113920   7.039   3.712   2.389  0.4901 -0.5211  1.5344
 4652TIP3    H213921   7.188   3.710   2.419  1.1364 -0.9684 -1.4323
 4653TIP3   OH213922   5.500   2.005   0.090 -0.3642 -0.0023  0.2493
 4653TIP3    H113923   5.415   1.999   0.046 -0.0841  0.2508 -0.3400
 4653TIP3    H213924   5.478   2.033   0.179 -0.9151 -0.1787  0.1768
 4654TIP3   OH213925   1.911   4.557   1.300 -0.4380 -0.5936 -0.1009
 4654TIP3    H113926   1.918   4.479   1.245  2.0866 -2.1442  2.1727
 4654TIP3    H213927   1.997   4.599   1.293 -1.1905  1.0507  0.0642
 4655TIP3   OH213928   1.985   4.321   5.875 -0.1691  0.0831  0.1275
 4655TIP3    H113929   1.958   4.267   5.801  1.7760  1.3498 -1.6138
 4655TIP3    H213930   1.981   4.262   5.951 -1.2806 -1.5213 -1.1130
 4656TIP3   OH213931   2.533   2.104   0.693  0.2876  0.4381  0.1261
 4656TIP3    H113932   2.457   2.121   0.637  1.5903  1.9363 -1.3033
 4656TIP3    H213933   2.568   2.021   0.661 -1.4324 -0.9836  1.6871
 4657TIP3   OH213934   0.035   3.848   5.239  0.0535  0.0822  0.0880
 4657TIP3    H113935   0.075   3.834   5.325 -0.0172 -1.4351 -0.0977
 4657TIP3    H213936  -0.059   3.834   5.254  0.1564 -1.3468 -0.4287
 4658TIP3   OH213937   4.852   5.392   5.557  0.3002 -0.0900 -0.3417
 4658TIP3    H113938   4.875   5.430   5.642 -0.0161  1.7343 -1.0276
 4658TIP3    H213939   4.927   5.336   5.534  0.1008 -1.1371  1.4043
 4659TIP3   OH213940   7.043   2.921   1.326  0.1655  0.0492 -0.3078
 4659TIP3    H113941   7.114   2.934   1.389 -0.4299 -0.5634  0.5081
 4659TIP3    H213942   7.016   3.010   1.303  0.0432  0.2984  0.7113
 4660TIP3   OH213943   7.121   5.576   5.264 -0.2123  0.1888 -0.3845
 4660TIP3    H113944   7.071   5.657   5.275  0.3578  0.3835  1.0804
 4660TIP3    H213945   7.118   5.534   5.350 -1.1740 -1.7932 -1.3055
 4661TIP3   OH213946   6.845   1.653   0.691 -0.0662  0.6268  0.1852
 4661TIP3    H113947   6.773   1.594   0.667 -0.2362  1.3353 -1.1440
 4661TIP3    H213948   6.913   1.596   0.727 -0.9775 -0.1394  0.7301
 4662TIP3   OH213949   5.543   1.907   0.454 -0.1766  0.1007  0.1788
 4662TIP3    H113950   5.493   1.988   0.456 -2.5606 -1.2941  0.3989
 4662TIP3    H213951   5.480   1.838   0.474  1.6786 -1.8750 -0.3057
 4663TIP3   OH213952   1.657   5.802   1.489  0.0745 -0.2703  0.3973
 4663TIP3    H113953   1.699   5.787   1.573  1.0546 -0.9322 -0.1849
 4663TIP3    H213954   1.563   5.794   1.507  0.3351 -2.3854  1.0767
 4664TIP3   OH213955   3.143   0.412   3.497 -0.1461 -0.1363  0.9779
 4664TIP3    H113956   3.058   0.368   3.488 -0.0836 -0.2126  0.7585
 4664TIP3    H213957   3.204   0.342   3.521  0.2245 -0.4267 -0.7167
 4665TIP3   OH213958   1.898   4.749   4.103 -0.0050 -0.3692  0.1654
 4665TIP3    H113959   1.922   4.839   4.121  0.7970 -0.8643  1.7493
 4665TIP3    H213960   1.806   4.743   4.129 -0.0695 -0.0103  0.0243
 4666TIP3   OH213961   4.250   6.457   5.765 -0.9742 -0.2994  0.3258
 4666TIP3    H113962   4.201   6.525   5.717 -1.0536 -0.3031  0.3995
 4666TIP3    H213963   4.310   6.506   5.821 -0.3387 -0.3070 -0.3326
 4667TIP3   OH213964   6.238   5.103   4.735 -0.0259 -0.7373 -0.1335
 4667TIP3    H113965   6.233   5.029   4.674  1.1416  1.2358 -2.8064
 4667TIP3    H213966   6.330   5.108   4.758  0.0748  0.4210 -0.7337
 4668TIP3   OH213967   1.216   2.618   0.135 -0.0985 -0.0654  0.5112
 4668TIP3    H113968   1.214   2.548   0.200  0.8221  1.7372  2.6180
 4668TIP3    H213969   1.213   2.699   0.186 -2.5479  1.5113 -1.8591
 4669TIP3   OH213970   2.369   4.514   4.431 -0.0096  0.7395 -0.0996
 4669TIP3    H113971   2.442   4.467   4.390  1.9278  1.9814  1.6958
 4669TIP3    H213972   2.309   4.446   4.460  0.2559 -0.3057 -1.8595
 4670TIP3   OH213973   1.996   2.666   2.292  0.4226 -0.0594 -0.0426
 4670TIP3    H113974   1.955   2.733   2.347  0.9022 -0.3738  0.7162
 4670TIP3    H213975   2.028   2.601   2.355  4.1145  1.2198 -0.4001
 4671TIP3   OH213976   2.622   6.404   0.440 -0.3497 -0.1343 -0.0947
 4671TIP3    H113977   2.603   6.327   0.493  2.5636  0.4033  1.9834
 4671TIP3    H213978   2.601   6.478   0.498  1.7661  0.4849 -0.0289
 4672TIP3   OH213979   4.389   2.267   1.692  0.3475 -0.0956  0.1198
 4672TIP3    H113980   4.476   2.232   1.670  0.2689 -1.1670  1.3659
 4672TIP3    H213981   4.359   2.211   1.764 -1.3269  0.3497 -0.1995
 4673TIP3   OH213982   0.970   4.639   3.687  0.2108 -0.8512  0.4894
 4673TIP3    H113983   0.989   4.547   3.667 -0.1439 -0.7243 -0.5029
 4673TIP3    H213984   1.049   4.670   3.731  1.4330 -0.9498 -1.5137
 4674TIP3   OH213985   5.087   4.358   4.954  0.2475  0.4789  0.3736
 4674TIP3    H113986   5.106   4.331   4.865  1.2108 -1.0644  1.0100
 4674TIP3    H213987   4.993   4.375   4.955  0.0244 -0.6165 -0.6508
 4675TIP3   OH213988   2.902   1.717   0.103  0.6252 -0.0937  0.7061
 4675TIP3    H113989   2.847   1.795   0.094 -2.4354 -2.0229  1.2280
 4675TIP3    H213990   2.920   1.691   0.013 -0.0728  0.0826  0.5079
 4676TIP3   OH213991   3.842   6.302   4.739  0.7593 -0.3314  0.2674
 4676TIP3    H113992   3.929   6.339   4.725  0.7911 -1.0671 -1.9593
 4676TIP3    H213993   3.855   6.207   4.727 -0.2785 -0.4737  0.1707
 4677TIP3   OH213994   4.722   5.273   2.979 -0.4656  0.3776  0.5212
 4677TIP3    H113995   4.775   5.223   2.917 -1.5184  1.4501 -1.3500
 4677TIP3    H213996   4.760   5.361   2.977 -0.4989  0.4153  1.4270
 4678TIP3   OH213997   0.871   4.512   3.384  0.0545 -0.0265  0.1372
 4678TIP3    H113998   0.941   4.568   3.349  0.0308  0.7325  1.2625
 4678TIP3    H213999   0.791   4.560   3.366 -0.5739 -2.0380 -3.5116
 4679TIP3   OH214000   1.791   5.469   0.982 -0.5302  0.5427 -0.1366
 4679TIP3    H114001   1.829   5.413   1.050 -0.0485 -0.1323 -0.9428
 4679TIP3    H214002   1.702   5.488   1.013 -0.6179 -0.4725  0.2551
 4680TIP3   OH214003   3.665   1.043   4.818 -0.1633 -0.0735 -0.0725
 4680TIP3    H114004   3.583   1.014   4.779 -0.4120  1.2134 -0.5417
 4680TIP3    H214005   3.715   0.963   4.830 -1.2626 -0.8178 -0.2880
 4681TIP3   OH214006   1.417   6.604   0.994 -0.1331  0.2106  0.0972
 4681TIP3    H114007   1.443   6.512   0.984  0.1142  0.2145  0.6888
 4681TIP3    H214008   1.417   6.638   0.905  0.3961 -0.1984 -0.0661
 4682TIP3   OH214009   3.053   1.536   3.415  0.5075 -0.4940 -0.2719
 4682TIP3    H114010   2.974   1.486   3.393 -0.2580 -0.3656  1.9578
 4682TIP3    H214011   3.124   1.490   3.370 -0.4420 -2.3802  0.0690
 4683TIP3   OH214012   1.655   3.103   1.808 -0.0986  0.6371  0.0615
 4683TIP3    H114013   1.593   3.067   1.871 -1.0485  1.7631 -0.1976
 4683TIP3    H214014   1.662   3.036   1.740  2.6677 -1.6383  2.3321
 4684TIP3   OH214015   5.993   2.938   2.551  0.0986  0.0988  0.1906
 4684TIP3    H114016   5.940   3.018   2.553  1.2453  0.9090 -0.7501
 4684TIP3    H214017   5.965   2.893   2.472  0.3168  0.1662  0.0768
 4685TIP3   OH214018   2.752   0.378   5.097 -0.2417 -0.1686  0.3642
 4685TIP3    H114019   2.703   0.459   5.083 -1.4828 -1.0054 -0.3281
 4685TIP3    H214020   2.817   0.377   5.028  0.5746  0.7972  1.0908
 4686TIP3   OH214021   5.613   2.715   4.207  0.2583  0.2176 -0.2594
 4686TIP3    H114022   5.615   2.654   4.281  1.0444 -0.3055 -0.6916
 4686TIP3    H214023   5.673   2.676   4.143 -0.4641  0.6177 -1.2058
 4687TIP3   OH214024   2.623   0.658   1.939  0.6539 -0.7775  0.2747
 4687TIP3    H114025   2.627   0.661   1.843  1.2043  0.2576  0.3185
 4687TIP3    H214026   2.547   0.712   1.961  1.7265  0.7076  0.4825
 4688TIP3   OH214027   3.978   1.067   4.738 -0.3439  0.2649 -0.5155
 4688TIP3    H114028   3.983   1.038   4.830  0.3789  0.5644 -0.4501
 4688TIP3    H214029   4.022   0.997   4.689 -0.0721  0.4615 -0.5498
 4689TIP3   OH214030   5.758   5.900   3.296  0.3147 -0.5469 -0.5048
 4689TIP3    H114031   5.666   5.877   3.309  0.5299 -0.7406  0.8394
 4689TIP3    H214032   5.762   5.933   3.207 -0.8530 -1.5489 -0.9644
 4690TIP3   OH214033   3.869   2.180   0.492  0.1623  0.3116 -0.1008
 4690TIP3    H114034   3.847   2.090   0.467 -0.7436  1.2035 -2.9105
 4690TIP3    H214035   3.785   2.226   0.488  0.8489  1.5788 -0.1234
 4691TIP3   OH214036   0.792   6.338   1.635  0.5428  0.0600  0.1393
 4691TIP3    H114037   0.806   6.428   1.604  1.0426  0.1789  0.6991
 4691TIP3    H214038   0.764   6.290   1.557 -1.1065  1.0034  0.0873
 4692TIP3   OH214039   3.491   2.664   5.814  0.2038 -0.6459 -0.8424
 4692TIP3    H114040   3.469   2.608   5.889 -1.7234  0.2333 -0.6967
 4692TIP3    H214041   3.406   2.690   5.778  1.0950 -0.2157 -2.7222
 4693TIP3   OH214042   3.009   0.261   5.489  0.4562 -0.1787  0.4675
 4693TIP3    H114043   3.048   0.309   5.563  1.5446 -1.2764  0.6358
 4693TIP3    H214044   3.050   0.300   5.412 -0.0010  0.3511  0.4827
 4694TIP3   OH214045   0.698   6.573   2.000  0.1711 -0.0723  0.1064
 4694TIP3    H114046   0.652   6.508   1.946 -1.1579  0.7621  0.1818
 4694TIP3    H214047   0.726   6.640   1.937  1.3015 -0.5810  0.0631
 4695TIP3   OH214048   2.023   5.201   4.298  0.4494 -0.2760  0.3195
 4695TIP3    H114049   2.063   5.157   4.374  0.9213  1.8222  1.3507
 4695TIP3    H214050   1.988   5.283   4.333  0.5814  0.7159 -1.7281
 4696TIP3   OH214051   1.826   3.950   5.600 -0.2114  1.1172  0.7201
 4696TIP3    H114052   1.805   3.864   5.636 -1.2252  1.6577  1.4668
 4696TIP3    H214053   1.881   3.991   5.667  0.4385  0.9951  0.2767
 4697TIP3   OH214054   0.392   6.025   1.309 -0.3233  0.8126 -0.2041
 4697TIP3    H114055   0.331   6.076   1.256 -0.7190  0.0613 -0.4951
 4697TIP3    H214056   0.360   6.035   1.399 -0.2907  1.2219 -0.2377
 4698TIP3   OH214057   6.051   1.260   3.201  0.1596 -0.6802 -0.1749
 4698TIP3    H114058   6.136   1.303   3.199 -0.3306  0.3133 -0.3407
 4698TIP3    H214059   6.004   1.296   3.126 -0.6489 -0.6843  0.3120
 4699TIP3   OH214060   1.133   0.004   3.536 -0.2591 -0.2171 -0.0459
 4699TIP3    H114061   1.169   0.081   3.580  0.0154 -0.9994  1.1402
 4699TIP3    H214062   1.047   0.032   3.505 -0.6422  0.2611  1.3642
 4700TIP3   OH214063   5.524   4.331   5.777 -0.3575 -0.7142 -0.8391
 4700TIP3    H114064   5.586   4.271   5.735 -0.1567 -1.9531  1.1037
 4700TIP3    H214065   5.578   4.394   5.822 -0.5602 -0.2495 -1.2333
 4701TIP3   OH214066   5.857   4.696   5.871  0.1353  0.2570 -0.5703
 4701TIP3    H114067   5.783   4.666   5.820 -0.0262  0.5986 -0.5377
 4701TIP3    H214068   5.859   4.638   5.947 -0.0062  0.1537 -0.6453
 4702TIP3   OH214069   6.446   0.145   4.718  0.3781  0.3210 -0.2727
 4702TIP3    H114070   6.467   0.067   4.667  2.2488  0.8003 -0.3150
 4702TIP3    H214071   6.358   0.170   4.690  1.2553  0.4688 -3.1760
 4703TIP3   OH214072   5.824   0.089   2.189 -0.4043  0.1924 -0.4453
 4703TIP3    H114073   5.746   0.067   2.139  0.2224 -0.1189 -1.3114
 4703TIP3    H214074   5.794   0.153   2.254 -1.5222 -0.5108 -0.2469
 4704TIP3   OH214075   3.782   1.415   1.630 -0.0838  0.4583  0.2124
 4704TIP3    H114076   3.710   1.446   1.685  0.3046 -0.1406  1.0902
 4704TIP3    H214077   3.810   1.492   1.581 -1.0000  0.8091  0.2217
 4705TIP3   OH214078   4.622   3.077   3.606 -0.7232 -0.0812  0.5129
 4705TIP3    H114079   4.638   3.079   3.512 -0.2885  0.1580  0.5934
 4705TIP3    H214080   4.586   3.163   3.627  0.2590  0.2761  0.7586
 4706TIP3   OH214081   1.452   1.301   4.370  0.1536  0.3093  0.2775
 4706TIP3    H114082   1.373   1.268   4.329 -0.3736  0.7044  0.9518
 4706TIP3    H214083   1.422   1.371   4.428  1.1172  1.2190 -0.2877
 4707TIP3   OH214084   4.383   6.555   2.748 -0.4285 -0.2484  0.4028
 4707TIP3    H114085   4.307   6.528   2.800 -0.6081  0.5201  0.5518
 4707TIP3    H214086   4.408   6.640   2.784  1.0231 -0.8598  0.8948
 4708TIP3   OH214087   2.585   0.865   4.681 -0.0028 -0.2866 -0.5408
 4708TIP3    H114088   2.596   0.958   4.659 -1.2475  0.5490  2.0246
 4708TIP3    H214089   2.674   0.833   4.694  0.4069  0.7835 -0.5922
 4709TIP3   OH214090   5.745   1.476   2.814  0.3455 -0.2254  0.2380
 4709TIP3    H114091   5.750   1.531   2.736  0.8108 -0.6796 -0.0586
 4709TIP3    H214092   5.652   1.471   2.834  0.1682 -0.5454 -0.6189
 4710TIP3   OH214093   3.449   0.365   5.634 -0.0360 -0.0792 -0.1670
 4710TIP3    H114094   3.398   0.441   5.663 -0.6453 -0.6168  0.1988
 4710TIP3    H214095   3.386   0.310   5.588  0.2912 -0.5854 -0.0184
 4711TIP3   OH214096   4.968   4.884   5.147  0.4927  0.4806  0.4436
 4711TIP3    H114097   4.907   4.944   5.190 -1.0652 -0.1240 -0.8317
 4711TIP3    H214098   4.957   4.801   5.194  0.6211  0.4669  0.4493
 4712TIP3   OH214099   5.096   4.817   4.776 -0.0215 -0.0546 -0.6418
 4712TIP3    H114100   5.116   4.738   4.826 -2.6470 -0.6364 -0.3772
 4712TIP3    H214101   5.175   4.871   4.784  0.8981 -1.5680  1.2853
 4713TIP3   OH214102   6.807   4.262   3.606  0.0417 -0.1807  0.0335
 4713TIP3    H114103   6.881   4.202   3.607  0.5671  0.4637  0.4530
 4713TIP3    H214104   6.840   4.343   3.644 -0.6718  0.3619 -0.4477
 4714TIP3   OH214105   0.510   0.338   1.018  0.5576 -0.0379 -0.1904
 4714TIP3    H114106   0.532   0.402   0.950  2.7254  0.2141  0.6715
 4714TIP3    H214107   0.594   0.299   1.042 -0.4516 -1.6885  0.8107
 4715TIP3   OH214108   0.744   0.615   3.404 -0.1917  0.5734 -0.4537
 4715TIP3    H114109   0.707   0.639   3.320  0.8373  3.2632 -0.2316
 4715TIP3    H214110   0.716   0.685   3.463 -0.1785 -0.8050  1.2728
 4716TIP3   OH214111   0.494   0.795   4.063  0.1079 -0.2056 -0.5438
 4716TIP3    H114112   0.551   0.822   4.136 -0.0399  1.4043 -0.9880
 4716TIP3    H214113   0.548   0.809   3.985 -0.2133 -0.6199 -0.8453
 4717TIP3   OH214114   6.938   2.368   0.163 -0.0489 -0.2111 -0.0921
 4717TIP3    H114115   6.939   2.410   0.249  0.9371 -0.7660  0.1803
 4717TIP3    H214116   6.901   2.281   0.180  3.1002 -1.5692  0.4166
 4718TIP3   OH214117   6.123   1.991   1.478  0.5410  0.0947  0.0539
 4718TIP3    H114118   6.159   2.074   1.446 -0.4602  1.5520  2.4461
 4718TIP3    H214119   6.199   1.939   1.502  1.1485  1.2722  0.7194
 4719TIP3   OH214120   1.989   0.199   3.471  0.6356  0.3006 -0.6006
 4719TIP3    H114121   2.058   0.143   3.434 -0.8411 -1.0230 -1.4535
 4719TIP3    H214122   1.929   0.138   3.514 -0.9451  1.2255 -1.4157
 4720TIP3   OH214123   5.140   6.639   3.241  0.2841 -0.0329  0.7863
 4720TIP3    H114124   5.176   6.625   3.328 -0.7975 -0.6913  1.1449
 4720TIP3    H214125   5.098   6.725   3.245  0.3278 -0.0163  0.8770
 4721TIP3   OH214126   0.624   4.877   0.615 -0.5940  0.2059 -0.6502
 4721TIP3    H114127   0.593   4.792   0.646  0.6068 -0.6174 -1.5879
 4721TIP3    H214128   0.638   4.865   0.521  0.2039  1.2404 -0.6894
 4722TIP3   OH214129   5.589   3.643   0.307  0.5653 -0.0458 -0.4217
 4722TIP3    H114130   5.645   3.649   0.385 -0.2537  0.6041  0.1274
 4722TIP3    H214131   5.506   3.681   0.334  1.0387  2.6738 -2.3932
 4723TIP3   OH214132   0.463   0.249   3.258  1.1340  0.0259 -0.0911
 4723TIP3    H114133   0.532   0.250   3.191 -0.3106  0.7448 -1.6570
 4723TIP3    H214134   0.423   0.336   3.253 -2.0059 -1.3147 -1.6430
 4724TIP3   OH214135   0.178   0.135   5.056 -0.2041  0.2436 -0.1210
 4724TIP3    H114136   0.222   0.189   5.121  0.7918  0.4906 -0.9616
 4724TIP3    H214137   0.210   0.168   4.972 -0.6383 -0.7508 -0.6990
 4725TIP3   OH214138   1.182   1.025   5.736  0.0302  0.5937  0.4985
 4725TIP3    H114139   1.273   1.037   5.765  0.3495 -1.5742  0.5636
 4725TIP3    H214140   1.148   0.955   5.791 -0.2279 -1.7373 -2.3554
 4726TIP3   OH214141   5.474   5.344   1.483  0.1047 -0.1197  0.1284
 4726TIP3    H114142   5.515   5.305   1.406  0.9380  1.4222 -0.2641
 4726TIP3    H214143   5.487   5.280   1.552  1.4301 -0.5431 -0.4795
 4727TIP3   OH214144   2.716   1.704   0.343 -0.3143 -0.1334 -0.3507
 4727TIP3    H114145   2.795   1.699   0.289  0.0504 -0.9042  0.2491
 4727TIP3    H214146   2.650   1.657   0.292 -1.1877  2.7805 -2.1505
 4728TIP3   OH214147   1.927   0.043   2.401  0.1278  0.1439  0.0804
 4728TIP3    H114148   2.007  -0.001   2.373  0.5048  1.9954 -2.0162
 4728TIP3    H214149   1.958   0.113   2.459 -0.1626 -0.1723  0.6312
 4729TIP3   OH214150   2.053   5.313   0.980  0.2542  0.2046 -0.0377
 4729TIP3    H114151   1.971   5.270   0.957  0.3595 -0.2899  0.4792
 4729TIP3    H214152   2.074   5.369   0.905 -0.0887 -0.3547 -0.5509
 4730TIP3   OH214153   3.438   3.566   0.734 -0.0730  0.3050 -0.2331
 4730TIP3    H114154   3.488   3.644   0.713  0.3421  0.3941  0.9841
 4730TIP3    H214155   3.495   3.493   0.709  0.8746  0.4015  1.4794
 4731TIP3   OH214156   1.190   5.121   0.253 -0.0333 -0.5498  0.5656
 4731TIP3    H114157   1.154   5.056   0.313  0.0619 -0.2381  0.9701
 4731TIP3    H214158   1.285   5.114   0.265 -0.0515  0.4478  1.4799
 4732TIP3   OH214159   6.366   1.528   3.941 -0.1942  0.0545  0.2725
 4732TIP3    H114160   6.400   1.472   3.871 -0.2658  0.0065  0.2757
 4732TIP3    H214161   6.385   1.480   4.022 -2.7223 -1.3139  0.1427
 4733TIP3   OH214162   3.876   2.520   1.293  0.0843  0.0064  0.3979
 4733TIP3    H114163   3.903   2.440   1.248  0.7936  0.8098 -0.6468
 4733TIP3    H214164   3.780   2.515   1.295  0.1377 -2.2654  3.0241
 4734TIP3   OH214165   1.391   5.002   2.877 -0.6852  1.3216  0.1934
 4734TIP3    H114166   1.355   4.961   2.956  0.2044  1.0082  0.4560
 4734TIP3    H214167   1.406   5.093   2.902 -1.1270  1.4074  0.1411
 4735TIP3   OH214168   6.290   0.841   2.128 -0.2359  0.6863 -0.7619
 4735TIP3    H114169   6.264   0.794   2.208 -0.8712 -0.7068 -1.7418
 4735TIP3    H214170   6.301   0.932   2.156 -0.0678  0.1764  0.9869
 4736TIP3   OH214171   0.370   2.357   1.009  0.0741  0.2154  0.3392
 4736TIP3    H114172   0.313   2.420   0.967 -0.5400  0.7476  1.8962
 4736TIP3    H214173   0.311   2.289   1.042  0.4973 -0.0104  0.6425
 4737TIP3   OH214174   5.307   1.816   0.315 -0.1940  0.9019  0.0425
 4737TIP3    H114175   5.289   1.797   0.223  0.0698  0.9665 -0.0235
 4737TIP3    H214176   5.339   1.906   0.315  0.8980  0.5245  0.0606
 4738TIP3   OH214177   5.924   1.458   3.044  0.8853  0.2986  0.3030
 4738TIP3    H114178   5.987   1.520   3.079 -0.7951  1.2693  1.7817
 4738TIP3    H214179   5.889   1.500   2.965 -0.0197  1.1269  1.1251
 4739TIP3   OH214180   6.226   6.600   2.750 -0.3950  0.4437  0.0222
 4739TIP3    H114181   6.256   6.613   2.660  0.2262 -1.1526 -0.0314
 4739TIP3    H214182   6.143   6.647   2.755 -0.1021  1.1273 -1.1796
 4740TIP3   OH214183   2.036   3.648   2.940  0.1453 -0.0106  0.5108
 4740TIP3    H114184   2.101   3.594   2.985  1.1360  0.8304  0.1219
 4740TIP3    H214185   2.062   3.648   2.848  0.7670  1.8956  0.6364
 4741TIP3   OH214186   5.296   2.398   3.947 -0.4360  0.2044 -0.0631
 4741TIP3    H114187   5.336   2.409   4.033 -0.3663 -0.2283 -0.0397
 4741TIP3    H214188   5.348   2.330   3.905 -0.5729  0.2968 -0.3857
 4742TIP3   OH214189   4.180   2.089   5.184 -0.5343 -1.2057 -0.3011
 4742TIP3    H114190   4.268   2.123   5.169 -0.7843 -0.3404  0.1411
 4742TIP3    H214191   4.180   2.003   5.142  0.6044 -1.3318 -0.0740
 4743TIP3   OH214192   3.744   6.751   2.778 -0.1038 -0.1194 -0.1067
 4743TIP3    H114193   3.808   6.691   2.742  0.4883 -0.9744  2.1902
 4743TIP3    H214194   3.789   6.835   2.785  0.1353 -0.2343 -0.3004
 4744TIP3   OH214195   4.074   4.065   4.720  0.1055 -0.6876  0.0447
 4744TIP3    H114196   4.067   3.982   4.674 -1.7451 -1.0737  0.9120
 4744TIP3    H214197   4.075   4.131   4.651  0.0250 -1.3598 -0.6113
 4745TIP3   OH214198   5.271   5.275   3.653 -0.6005 -0.0771 -0.3645
 4745TIP3    H114199   5.196   5.318   3.694 -0.0729  1.0956 -0.5787
 4745TIP3    H214200   5.240   5.252   3.565 -1.7749 -2.7175  0.6389
 4746TIP3   OH214201   3.585   2.633   1.207 -0.2073  1.0309 -0.0917
 4746TIP3    H114202   3.520   2.685   1.255  1.7250  1.8483  1.7926
 4746TIP3    H214203   3.656   2.694   1.190  0.7906 -0.2430 -0.6205
 4747TIP3   OH214204   4.833   0.551   0.132  0.6347 -0.1219  0.1369
 4747TIP3    H114205   4.871   0.526   0.048 -0.4797  0.2076 -0.4721
 4747TIP3    H214206   4.907   0.587   0.182  1.3771 -0.6647 -0.5473
 4748TIP3   OH214207   4.247   4.072   5.471 -0.3380  0.4367  0.0171
 4748TIP3    H114208   4.175   4.108   5.420  0.3301  1.8547  0.0149
 4748TIP3    H214209   4.325   4.084   5.416  0.0395 -0.2061  0.3922
 4749TIP3   OH214210   0.397   4.473   2.981 -0.2517  0.1174  0.2144
 4749TIP3    H114211   0.328   4.536   2.963 -1.0274 -0.9340 -0.5898
 4749TIP3    H214212   0.358   4.388   2.961  0.7599 -0.6329  1.2923
 4750TIP3   OH214213   0.979   0.558   3.663  0.1327  0.0372 -0.2905
 4750TIP3    H114214   0.891   0.553   3.699 -0.3352  0.4871 -1.3327
 4750TIP3    H214215   1.023   0.624   3.716 -0.2301 -0.0256  0.0902
 4751TIP3   OH214216   5.152   6.613   0.944 -0.6127 -0.4659  0.3396
 4751TIP3    H114217   5.078   6.645   0.995 -1.0554  0.2737 -0.7295
 4751TIP3    H214218   5.172   6.684   0.883  1.3590 -0.4204  0.9675
 4752TIP3   OH214219   5.187   5.593   0.475  0.3376  0.1590  0.3474
 4752TIP3    H114220   5.269   5.549   0.495  1.3176  0.8147 -1.8804
 4752TIP3    H214221   5.188   5.604   0.379 -1.4008  1.9692  0.4621
 4753TIP3   OH214222   1.052   3.331   2.798  0.0954  0.1249  0.1810
 4753TIP3    H114223   1.011   3.245   2.805  0.6542 -0.1987 -0.4143
 4753TIP3    H214224   0.979   3.393   2.799 -0.3694 -0.4094 -0.2846
 4754TIP3   OH214225   2.062   6.499   4.795 -0.0409 -0.4673 -0.0016
 4754TIP3    H114226   2.015   6.491   4.878  0.8248  0.5880  0.6156
 4754TIP3    H214227   2.048   6.589   4.768  1.4580 -0.1802  0.1110
 4755TIP3   OH214228   5.548   0.919   3.372  0.4617 -0.6696  0.0567
 4755TIP3    H114229   5.518   0.951   3.456  0.6703 -1.6220  0.5111
 4755TIP3    H214230   5.617   0.981   3.345 -0.4112  0.3014  0.0092
 4756TIP3   OH214231   0.339   4.558   1.042 -0.8722  0.4504 -0.1780
 4756TIP3    H114232   0.398   4.590   1.110 -1.6978  0.2328  0.6668
 4756TIP3    H214233   0.252   4.564   1.081 -1.1051 -2.7419  0.0421
 4757TIP3   OH214234   2.969   2.094   1.115  0.0163 -0.0838  0.4250
 4757TIP3    H114235   2.957   2.116   1.208 -0.0110 -0.3278  0.4790
 4757TIP3    H214236   3.028   2.162   1.082 -0.8985  0.6967  0.3444
 4758TIP3   OH214237   0.524   6.148   0.069  0.0781 -0.0862  0.1066
 4758TIP3    H114238   0.446   6.183   0.113 -0.9846  1.4135 -2.6843
 4758TIP3    H214239   0.494   6.126  -0.019  2.7336  0.1880 -0.9662
 4759TIP3   OH214240   4.638   3.028   0.522  0.1966 -0.2247 -0.0693
 4759TIP3    H114241   4.626   3.024   0.617  2.5200  0.1718  0.2853
 4759TIP3    H214242   4.713   3.086   0.509 -0.7018  0.5709 -2.2293
 4760TIP3   OH214243   0.417   3.706   5.429 -0.7418 -0.5650  0.3082
 4760TIP3    H114244   0.464   3.776   5.384  0.3853 -0.4011  1.6723
 4760TIP3    H214245   0.338   3.749   5.464 -0.5367 -0.2052  0.3308
 4761TIP3   OH214246   4.985   3.947   0.353 -0.1194 -0.3322  0.3221
 4761TIP3    H114247   5.005   3.875   0.413 -1.8175 -0.8845  0.2644
 4761TIP3    H214248   4.897   3.974   0.376 -0.1728  0.5663 -0.8395
 4762TIP3   OH214249   0.731   1.745   5.406 -0.4123 -0.2909 -0.0730
 4762TIP3    H114250   0.696   1.707   5.326 -1.9373  1.9074 -0.5481
 4762TIP3    H214251   0.810   1.791   5.378 -1.7377  1.7338 -0.7039
 4763TIP3   OH214252   1.155   0.226   5.237 -0.4702 -0.0844 -0.5259
 4763TIP3    H114253   1.128   0.289   5.170 -1.4293  0.0462 -0.0403
 4763TIP3    H214254   1.206   0.278   5.299 -0.9448  0.1505 -0.3226
 4764TIP3   OH214255   5.652   1.073   2.665 -0.1020 -0.1492 -0.3060
 4764TIP3    H114256   5.687   1.042   2.582 -1.1930  1.1299 -1.2919
 4764TIP3    H214257   5.635   0.993   2.715  2.1039 -0.8767 -0.6181
 4765TIP3   OH214258   7.035   5.209   4.736 -0.5478 -0.2568 -0.1967
 4765TIP3    H114259   6.967   5.152   4.702 -1.3241  1.1648 -1.1576
 4765TIP3    H214260   7.056   5.267   4.663 -1.7334  2.4525  1.4479
 4766TIP3   OH214261   1.524   3.257   2.685  0.3841  0.2118 -0.1939
 4766TIP3    H114262   1.429   3.260   2.677  0.1011  0.3556  2.2473
 4766TIP3    H214263   1.554   3.340   2.648 -0.4968  0.4536 -0.3910
 4767TIP3   OH214264   3.076   1.112   4.222 -0.8503 -0.0407  0.5540
 4767TIP3    H114265   3.155   1.073   4.261  0.0634  0.1462 -1.0227
 4767TIP3    H214266   3.081   1.089   4.130 -1.4935  1.8240  0.0031
 4768TIP3   OH214267   6.690   3.065   1.389  0.4982 -0.2491  0.2831
 4768TIP3    H114268   6.659   2.975   1.393 -1.7601  0.5088  3.4400
 4768TIP3    H214269   6.684   3.089   1.296 -2.0152 -2.3450 -0.1806
 4769TIP3   OH214270   2.970   0.608   4.275 -0.2640 -1.1463 -0.0611
 4769TIP3    H114271   2.886   0.642   4.245 -1.3510 -1.6334  2.2027
 4769TIP3    H214272   3.010   0.681   4.322  0.4524 -1.0192 -0.8480
 4770TIP3   OH214273   2.408   3.188   2.139  0.2161 -0.4237  0.5667
 4770TIP3    H114274   2.313   3.191   2.151 -0.2344 -3.2481 -1.4161
 4770TIP3    H214275   2.437   3.115   2.193  0.6727 -1.8110 -1.4322
 4771TIP3   OH214276   5.894   0.162   5.319 -0.4333  0.5397  0.2166
 4771TIP3    H114277   5.891   0.182   5.226 -1.1505  0.7520  0.2743
 4771TIP3    H214278   5.874   0.068   5.324 -0.7327  0.5980  0.1691
 4772TIP3   OH214279   3.020   6.591   1.320 -0.0946 -0.0416  0.3283
 4772TIP3    H114280   2.949   6.529   1.335  0.5085 -0.6175  0.8873
 4772TIP3    H214281   3.064   6.599   1.405 -0.1306  1.1256  0.2554
 4773TIP3   OH214282   4.242   3.662   2.544 -0.4580  0.2303 -0.4783
 4773TIP3    H114283   4.308   3.595   2.564 -0.8799 -1.0343 -2.8643
 4773TIP3    H214284   4.164   3.612   2.522 -1.7511  1.6603  0.6935
 4774TIP3   OH214285   6.559   5.022   2.580  0.2189 -0.1418  0.3006
 4774TIP3    H114286   6.496   4.955   2.605 -2.4549  1.3879 -1.7713
 4774TIP3    H214287   6.612   4.980   2.512 -0.9957 -0.4199 -0.5166
 4775TIP3   OH214288   3.621   5.378   5.333 -0.0682 -0.1540  0.2098
 4775TIP3    H114289   3.573   5.324   5.270  1.9671 -0.9412 -0.7636
 4775TIP3    H214290   3.620   5.466   5.295 -0.3469 -0.2623 -0.0360
 4776TIP3   OH214291   3.105   1.796   5.636  0.1650 -0.2274 -0.2599
 4776TIP3    H114292   3.034   1.776   5.697  0.0727  3.5362  1.1365
 4776TIP3    H214293   3.185   1.770   5.683 -0.0746 -0.1486  0.1996
 4777TIP3   OH214294   4.826   5.557   3.496  0.5853  0.2430  0.2804
 4777TIP3    H114295   4.889   5.485   3.499  0.6789  0.3441  0.9449
 4777TIP3    H214296   4.806   5.575   3.588 -0.1853  0.4102  0.0892
 4778TIP3   OH214297   3.404   6.790   0.189  0.1345  0.6588  0.5964
 4778TIP3    H114298   3.344   6.726   0.150  0.0387  0.1769  1.5110
 4778TIP3    H214299   3.389   6.870   0.139  0.7285 -0.1810 -1.0281
 4779TIP3   OH214300   3.673   0.604   4.168  0.1085 -0.0044 -0.3144
 4779TIP3    H114301   3.579   0.621   4.170 -0.0772 -1.0420  0.6930
 4779TIP3    H214302   3.681   0.509   4.167  1.1350  0.0012  1.6300
 4780TIP3   OH214303   4.422   5.865   2.984  0.3324  0.1999 -0.1536
 4780TIP3    H114304   4.361   5.895   2.917  0.8769  0.5833 -0.4860
 4780TIP3    H214305   4.386   5.900   3.066 -0.1462  0.0258 -0.2847
 4781TIP3   OH214306   0.784   3.838   3.084 -0.5107 -0.8051 -0.4502
 4781TIP3    H114307   0.708   3.781   3.097 -0.5511 -0.6232  0.1224
 4781TIP3    H214308   0.815   3.816   2.996  0.8797 -3.4333  0.5728
 4782TIP3   OH214309   4.777   0.805   2.415 -0.2264  0.4516  0.2630
 4782TIP3    H114310   4.733   0.760   2.487  0.8453  0.4354  0.9232
 4782TIP3    H214311   4.762   0.898   2.432 -2.1933  0.4393 -0.9462
 4783TIP3   OH214312   3.193   4.327   1.257 -0.2112 -0.6780 -0.3742
 4783TIP3    H114313   3.185   4.422   1.258  1.8562 -0.4723 -0.4841
 4783TIP3    H214314   3.138   4.299   1.184 -0.4029  0.4656 -0.6905
 4784TIP3   OH214315   4.778   3.126   2.067 -0.5378 -0.0307 -0.0772
 4784TIP3    H114316   4.870   3.100   2.069  0.1976  2.3633  1.2966
 4784TIP3    H214317   4.738   3.076   2.139  0.0738  0.1184  0.3785
 4785TIP3   OH214318   3.267   6.578   4.253  0.3002  0.2119 -0.1343
 4785TIP3    H114319   3.227   6.581   4.340 -0.6116 -0.1250 -0.5414
 4785TIP3    H214320   3.196   6.594   4.192  0.7012 -0.7781 -0.8878
 4786TIP3   OH214321   2.407   3.168   0.257  0.1638  0.2760  0.4449
 4786TIP3    H114322   2.324   3.210   0.234  0.4245  0.2610 -0.5406
 4786TIP3    H214323   2.435   3.123   0.177  1.5783  1.0244  0.4834
 4787TIP3   OH214324   3.616   5.407   1.298 -0.0413  0.0580 -0.3092
 4787TIP3    H114325   3.588   5.382   1.210  0.3440  1.4170 -0.8572
 4787TIP3    H214326   3.690   5.350   1.317 -1.6222 -1.9205  0.1738
 4788TIP3   OH214327   5.167   4.450   2.118 -0.1910 -0.5996 -0.5128
 4788TIP3    H114328   5.095   4.433   2.179 -0.2983  0.9696 -0.1669
 4788TIP3    H214329   5.167   4.545   2.107 -0.0917 -0.8255 -2.8885
 4789TIP3   OH214330   3.075   5.306   1.007  0.0892 -0.8899 -0.0747
 4789TIP3    H114331   3.103   5.348   1.088  1.2676 -0.9788 -0.4123
 4789TIP3    H214332   3.003   5.360   0.975  0.9718  0.3591 -0.0246
 4790TIP3   OH214333   5.756   5.499   5.187 -0.1313  0.1124 -0.0558
 4790TIP3    H114334   5.686   5.565   5.188  1.3231  1.7306  1.1848
 4790TIP3    H214335   5.805   5.516   5.107 -1.1130 -1.0542 -0.9514
 4791TIP3   OH214336   4.485   4.917   0.665  0.0217 -0.2963  0.2683
 4791TIP3    H114337   4.501   5.003   0.628 -0.4393 -0.7428 -1.0306
 4791TIP3    H214338   4.459   4.934   0.755  0.7041  0.8608  0.2645
 4792TIP3   OH214339   3.084   3.940   3.585 -0.3418 -0.0051  0.1424
 4792TIP3    H114340   3.101   3.924   3.493 -1.4310 -1.3275  0.1319
 4792TIP3    H214341   3.152   3.891   3.632  0.2692  0.7465  0.0520
 4793TIP3   OH214342   4.703   1.381   1.982 -0.0115  0.0073 -0.7310
 4793TIP3    H114343   4.714   1.303   1.928 -1.5154 -0.9849  0.3083
 4793TIP3    H214344   4.610   1.381   2.005  0.0701  1.8092 -0.2461
 4794TIP3   OH214345   3.552   6.730   2.006 -0.2868 -0.7992  0.3182
 4794TIP3    H114346   3.560   6.800   2.072  1.4468  0.1923 -0.8603
 4794TIP3    H214347   3.464   6.694   2.020 -0.5063  0.3367  2.2164
 4795TIP3   OH214348   2.578   5.799   4.642 -0.0894  0.2953 -0.0093
 4795TIP3    H114349   2.535   5.880   4.614 -0.9204 -0.7854 -2.0191
 4795TIP3    H214350   2.605   5.757   4.561 -0.4080 -1.8553  0.9477
 4796TIP3   OH214351   3.852   2.000   0.108  0.0473 -0.0760 -0.1366
 4796TIP3    H114352   3.878   1.929   0.050  1.7905 -0.8824  1.5509
 4796TIP3    H214353   3.790   1.960   0.169  0.5839 -0.0281  0.4510
 4797TIP3   OH214354   1.446   1.249   2.643  0.1600  0.1026  0.1530
 4797TIP3    H114355   1.456   1.298   2.561  1.9600  0.0976  0.3181
 4797TIP3    H214356   1.365   1.199   2.631 -1.3727  2.5172 -0.2905
 4798TIP3   OH214357   4.347   2.370   4.045 -0.4448  0.4028  0.4172
 4798TIP3    H114358   4.346   2.276   4.026  0.3911 -0.1299  2.6698
 4798TIP3    H214359   4.332   2.412   3.960 -1.4953 -1.7540 -0.5445
 4799TIP3   OH214360   5.252   5.160   1.665 -0.4860  0.0477  0.0943
 4799TIP3    H114361   5.260   5.242   1.617 -0.6925 -0.4468 -0.8006
 4799TIP3    H214362   5.289   5.180   1.751  1.9871  0.3471 -0.9450
 4800TIP3   OH214363   6.392   3.007   0.197 -0.4668 -0.0125 -0.2744
 4800TIP3    H114364   6.392   3.094   0.237 -0.6552 -0.2272  0.2019
 4800TIP3    H214365   6.480   2.998   0.160  0.3419 -0.4768  1.6114
 4801TIP3   OH214366   2.772   0.056   4.355 -0.3769  0.0264 -0.3050
 4801TIP3    H114367   2.857   0.082   4.320  0.2072 -1.8825 -0.4109
 4801TIP3    H214368   2.773   0.086   4.446  0.8678 -0.8838  0.0072
 4802TIP3   OH214369   3.966   6.791   5.219 -0.0012  0.0737  0.2012
 4802TIP3    H114370   3.938   6.813   5.308 -1.0418 -0.9098  0.1498
 4802TIP3    H214371   3.967   6.695   5.217 -2.8776 -0.0361 -1.6428
 4803TIP3   OH214372   5.313   0.341   4.290  0.1333 -0.2189 -1.0115
 4803TIP3    H114373   5.279   0.394   4.218  3.5286  1.2990 -1.6824
 4803TIP3    H214374   5.364   0.402   4.343  0.2107 -1.9194  0.9684
 4804TIP3   OH214375   1.206   3.573   2.518  0.2292 -0.0761  0.0261
 4804TIP3    H114376   1.128   3.592   2.571  0.5909 -0.6080  0.7770
 4804TIP3    H214377   1.237   3.489   2.551  1.1499  0.1482 -0.2331
 4805TIP3   OH214378   0.075   1.465   5.274 -0.0562  0.1742 -0.0491
 4805TIP3    H114379   0.050   1.486   5.364  0.5122 -2.8582  0.9151
 4805TIP3    H214380   0.070   1.549   5.228 -1.5903  1.6017  2.4826
 4806TIP3   OH214381   3.567   1.903   0.805 -0.0793 -0.0092 -0.3810
 4806TIP3    H114382   3.576   1.998   0.802 -1.0658  0.0736 -1.9513
 4806TIP3    H214383   3.473   1.888   0.820 -0.0205 -0.7386 -0.6965
 4807TIP3   OH214384   4.331   2.030   2.912 -0.3743  0.5832  0.1586
 4807TIP3    H114385   4.266   1.963   2.889  0.2393  0.7233 -2.2126
 4807TIP3    H214386   4.415   1.987   2.898  0.1076  0.6477  2.4725
 4808TIP3   OH214387   2.129   6.378   3.286  0.2968  0.0181 -0.0552
 4808TIP3    H114388   2.201   6.339   3.336  0.0140 -0.6985 -0.1908
 4808TIP3    H214389   2.080   6.303   3.253 -1.9463  0.4265  2.0670
 4809TIP3   OH214390   4.027   2.450   1.520  0.0907  0.3883 -0.0805
 4809TIP3    H114391   3.971   2.472   1.446 -0.6316 -0.1305  0.2933
 4809TIP3    H214392   4.031   2.354   1.520  0.9027  0.4073 -0.0352
 4810TIP3   OH214393   7.149   3.968   3.995 -0.3898 -0.5335 -0.4600
 4810TIP3    H114394   7.124   3.887   4.040 -0.4845  0.7127  1.8710
 4810TIP3    H214395   7.066   4.014   3.981 -0.2160 -0.2777 -0.6494
 4811TIP3   OH214396   3.925   1.043   5.006  0.1611  0.4142 -0.2527
 4811TIP3    H114397   3.892   0.953   5.015  2.9625 -0.7893 -0.9403
 4811TIP3    H214398   3.846   1.097   5.009 -1.7105 -2.0861 -0.4158
 4812TIP3   OH214399   6.012   1.417   3.524  0.6178 -0.2947  0.3692
 4812TIP3    H114400   5.934   1.402   3.472  0.3721  2.0053  0.0006
 4812TIP3    H214401   6.076   1.353   3.490 -0.8389 -1.7369  0.2266
 4813TIP3   OH214402   3.400   5.685   3.788  0.6708 -0.2236 -0.4065
 4813TIP3    H114403   3.490   5.717   3.794  0.4856  0.1925  0.2881
 4813TIP3    H214404   3.346   5.760   3.814  0.1924 -0.8509  0.4853
 4814TIP3   OH214405   3.772   6.375   4.194 -0.4231 -0.5556 -0.3924
 4814TIP3    H114406   3.682   6.400   4.213  0.1596  1.2540  0.1762
 4814TIP3    H214407   3.796   6.428   4.118  1.2353  1.7571  1.5819
 4815TIP3   OH214408   2.182   3.219   4.326  0.1192 -0.0321  0.3921
 4815TIP3    H114409   2.147   3.192   4.410 -0.0143  0.7244  0.5899
 4815TIP3    H214410   2.256   3.276   4.348  0.1072  0.1405  0.0015
 4816TIP3   OH214411   3.244   2.434   1.305 -0.1063  0.2866  0.7195
 4816TIP3    H114412   3.213   2.438   1.396  0.6418 -0.4481  1.0291
 4816TIP3    H214413   3.281   2.346   1.297 -1.3663 -0.1509 -0.7113
 4817TIP3   OH214414   5.802   5.536   4.926  0.3225  0.3404 -0.5236
 4817TIP3    H114415   5.877   5.497   4.882  1.5402  0.1785  1.5721
 4817TIP3    H214416   5.735   5.467   4.924  0.6195  0.0639 -1.4022
 4818TIP3   OH214417   4.305   3.268   4.804 -0.4944 -0.4276  0.1113
 4818TIP3    H114418   4.289   3.174   4.811  1.1098 -0.7407 -0.3034
 4818TIP3    H214419   4.352   3.290   4.885  1.0836 -0.4205 -0.7805
 4819TIP3   OH214420   3.190   2.240   4.389  0.0728 -0.1211  0.1493
 4819TIP3    H114421   3.150   2.304   4.331  0.8645 -0.6839 -1.0638
 4819TIP3    H214422   3.199   2.285   4.473 -1.5006  0.5664 -0.0099
 4820TIP3   OH214423   5.189   5.082   4.402  0.2729 -0.3870  0.4928
 4820TIP3    H114424   5.243   5.037   4.467  0.3864 -1.3139 -0.2151
 4820TIP3    H214425   5.235   5.070   4.319  0.2423  0.9726  0.2648
 4821TIP3   OH214426   1.436   2.300   5.749  0.2840 -0.4761  0.1489
 4821TIP3    H114427   1.369   2.245   5.788 -0.4947  0.4210  0.1270
 4821TIP3    H214428   1.412   2.306   5.656  0.3132 -0.0615  0.1620
 4822TIP3   OH214429   2.184   1.488   0.250 -0.2999 -0.2712  0.4336
 4822TIP3    H114430   2.135   1.516   0.327 -0.1582 -0.0338  0.4383
 4822TIP3    H214431   2.116   1.464   0.186 -0.4596  1.0991  0.0440
 4823TIP3   OH214432   1.222   2.001   5.402 -0.0887  0.1749  0.2768
 4823TIP3    H114433   1.254   2.070   5.345 -5.0424  2.8917  0.1589
 4823TIP3    H214434   1.230   1.921   5.351  1.7523  1.3635 -1.4226
 4824TIP3   OH214435   1.596   3.616   4.649 -0.0017 -0.1021 -0.4613
 4824TIP3    H114436   1.648   3.589   4.724 -0.1925 -2.1365 -1.0127
 4824TIP3    H214437   1.649   3.683   4.606  0.8670 -0.1326  0.5142
 4825TIP3   OH214438   1.921   2.422   5.670 -0.3515 -0.1863 -0.4880
 4825TIP3    H114439   1.997   2.477   5.652 -0.3823  0.4520  1.1808
 4825TIP3    H214440   1.849   2.484   5.683 -0.4369 -0.5863  1.2112
 4826TIP3   OH214441   6.148   2.469   5.593  0.1245  0.3647  0.3030
 4826TIP3    H114442   6.092   2.404   5.636 -0.8992  0.4475 -0.8267
 4826TIP3    H214443   6.174   2.529   5.663 -0.7889  0.0162  0.9652
 4827TIP3   OH214444   4.831   3.908   2.204 -0.5953 -0.0764 -0.5014
 4827TIP3    H114445   4.853   3.833   2.150 -0.7677  0.3030 -1.1128
 4827TIP3    H214446   4.908   3.964   2.201 -0.1697 -0.5714  0.5850
 4828TIP3   OH214447   4.884   2.894   0.159  1.0398 -0.4552 -0.7719
 4828TIP3    H114448   4.839   2.978   0.145  2.1959  0.1539 -0.9093
 4828TIP3    H214449   4.850   2.837   0.090 -1.2204 -0.7475  0.4810
 4829TIP3   OH214450   4.265   0.121   1.956 -0.5075  0.0509 -0.0976
 4829TIP3    H114451   4.213   0.070   1.893  1.1580 -1.5489 -0.2389
 4829TIP3    H214452   4.286   0.059   2.026  0.4572  0.9169  0.4010
 4830TIP3   OH214453   2.747   5.784   2.426  0.0781  0.3436  0.5847
 4830TIP3    H114454   2.680   5.834   2.473  0.2260  0.4916  0.6383
 4830TIP3    H214455   2.710   5.696   2.418 -0.4502  0.6195 -0.0763
 4831TIP3   OH214456   1.088   1.719   4.550  0.0157  0.2495  0.4083
 4831TIP3    H114457   1.038   1.662   4.492  1.0369  0.7471 -1.0190
 4831TIP3    H214458   1.022   1.775   4.592 -0.7627 -0.2458 -0.1357
 4832TIP3   OH214459   3.760   6.409   5.222  0.3673  0.0680  0.0834
 4832TIP3    H114460   3.703   6.486   5.226  0.5611  0.1599  1.5342
 4832TIP3    H214461   3.716   6.351   5.160 -1.0045  0.3892  0.7069
 4833TIP3   OH214462   2.747   5.433   4.422  0.2559 -0.2245  0.3825
 4833TIP3    H114463   2.795   5.405   4.344 -1.9854 -0.1480 -1.1046
 4833TIP3    H214464   2.682   5.363   4.436  0.8753 -0.4463  2.4679
 4834TIP3   OH214465   0.914   3.601   5.915 -0.0273  0.1966  0.2194
 4834TIP3    H114466   0.983   3.648   5.867  0.4917  0.6784  1.3991
 4834TIP3    H214467   0.849   3.579   5.848  1.5573 -0.8477 -1.0568
 4835TIP3   OH214468   2.284   1.629   4.925  0.6368  0.5381  0.3530
 4835TIP3    H114469   2.363   1.596   4.968 -0.0144 -0.9935  0.4266
 4835TIP3    H214470   2.212   1.584   4.970 -0.3021  1.9565  0.3329
 4836TIP3   OH214471   5.288   3.476   0.464  0.2122  0.0584 -0.3820
 4836TIP3    H114472   5.227   3.468   0.537 -2.3307 -1.1610 -2.4906
 4836TIP3    H214473   5.375   3.476   0.505 -1.1077  0.2944  2.6404
 4837TIP3   OH214474   0.717   0.227   0.401  0.4106  0.1569 -0.0671
 4837TIP3    H114475   0.630   0.226   0.440  0.7130 -1.6556  0.6822
 4837TIP3    H214476   0.703   0.201   0.310  0.3468 -3.0731  0.7298
 4838TIP3   OH214477   7.043   0.805   3.461  0.5372 -0.0647 -0.1090
 4838TIP3    H114478   7.109   0.871   3.483  0.2674  0.0742  0.2957
 4838TIP3    H214479   6.959   0.850   3.474  0.3590  0.0902 -1.6296
 4839TIP3   OH214480   5.569   2.923   3.125  0.3102 -0.0419  0.5143
 4839TIP3    H114481   5.604   2.922   3.214 -0.8821 -1.4381  0.9996
 4839TIP3    H214482   5.640   2.961   3.072  2.1021 -1.6045  1.6474
 4840TIP3   OH214483   2.328   4.396   0.068 -0.2506  0.4715 -0.1526
 4840TIP3    H114484   2.252   4.344   0.039 -1.0535  0.7588  1.3223
 4840TIP3    H214485   2.403   4.355   0.025 -1.2969  0.6664 -2.2926
 4841TIP3   OH214486   1.068   3.063   5.173 -0.4031  0.4077 -0.0065
 4841TIP3    H114487   1.161   3.052   5.194 -0.5377  0.2774  0.5392
 4841TIP3    H214488   1.066   3.070   5.078  0.1766  0.5056 -0.0178
 4842TIP3   OH214489   3.541   2.372   4.592 -0.0210 -0.0508  0.2869
 4842TIP3    H114490   3.625   2.381   4.637 -0.8770 -1.4800  2.3449
 4842TIP3    H214491   3.537   2.280   4.567 -0.1721  0.4351 -1.5655
 4843TIP3   OH214492   1.298   1.360   1.183  0.3698 -0.2420  0.5886
 4843TIP3    H114493   1.354   1.438   1.185  0.0103  0.0091  1.1212
 4843TIP3    H214494   1.306   1.323   1.271 -2.7586  1.5856  1.8205
 4844TIP3   OH214495   2.179   4.350   1.020 -0.0354  0.1245  0.4273
 4844TIP3    H114496   2.241   4.306   1.078 -0.2121  1.5154  1.7308
 4844TIP3    H214497   2.096   4.348   1.068 -0.0057  2.0014  0.6527
 4845TIP3   OH214498   2.770   5.325   2.031 -0.7158  0.6095  0.3645
 4845TIP3    H114499   2.751   5.282   2.114 -0.4097  0.1964  0.2253
 4845TIP3    H214500   2.684   5.348   1.995 -0.9627 -0.9276 -0.0987
 4846TIP3   OH214501   4.739   1.034   4.715  0.2532 -0.5485 -0.1099
 4846TIP3    H114502   4.687   1.057   4.638 -1.3801 -3.7914 -0.1356
 4846TIP3    H214503   4.705   1.091   4.784  1.6095  2.2724 -1.5944
 4847TIP3   OH214504   1.865   2.222   5.180  0.0230  0.3002 -0.1374
 4847TIP3    H114505   1.802   2.149   5.182  2.3489 -1.7991  0.8559
 4847TIP3    H214506   1.931   2.195   5.117  1.8509  0.6717  1.5144
 4848TIP3   OH214507   3.613   5.508   5.592  0.9634  0.1672 -0.8659
 4848TIP3    H114508   3.560   5.577   5.552 -0.0412 -0.4463 -0.6243
 4848TIP3    H214509   3.641   5.453   5.518  3.2378  1.7632 -1.2850
 4849TIP3   OH214510   6.351   4.433   3.384 -0.4407  0.1639 -0.1434
 4849TIP3    H114511   6.355   4.338   3.396 -3.1162  0.0549  0.4921
 4849TIP3    H214512   6.434   4.465   3.420  0.1973 -1.8398  0.3182
 4850TIP3   OH214513   5.242   4.699   0.399  0.2912 -0.3741  0.3131
 4850TIP3    H114514   5.280   4.744   0.475 -1.4392  2.7465 -0.5072
 4850TIP3    H214515   5.316   4.685   0.340  0.8873  1.9353  0.4227
 4851TIP3   OH214516   2.310   5.939   1.199  0.7003  0.7339  0.2306
 4851TIP3    H114517   2.371   6.012   1.194 -0.4386  1.6442 -2.5112
 4851TIP3    H214518   2.224   5.979   1.194 -0.0130 -0.7061  0.4454
 4852TIP3   OH214519   4.773   3.873   1.756  0.3198  0.8528 -0.4372
 4852TIP3    H114520   4.751   3.939   1.690 -0.3441 -1.4245 -2.6594
 4852TIP3    H214521   4.793   3.794   1.705 -3.2681 -1.9821  2.0174
 4853TIP3   OH214522   0.373   2.248   3.568  0.4241  0.2498 -0.5108
 4853TIP3    H114523   0.380   2.154   3.587 -0.8214  0.0782 -0.8488
 4853TIP3    H214524   0.298   2.277   3.619  0.0365  0.8066 -1.3848
 4854TIP3   OH214525   5.459   1.464   2.741 -0.1744 -0.5806  0.1622
 4854TIP3    H114526   5.375   1.499   2.713 -0.3339 -0.1907  1.1063
 4854TIP3    H214527   5.441   1.372   2.762 -0.4303 -0.4225  0.6420
 4855TIP3   OH214528   0.342   5.148   0.464  0.0028 -0.2682  0.1139
 4855TIP3    H114529   0.279   5.097   0.515  0.3493 -0.1179  0.6958
 4855TIP3    H214530   0.374   5.087   0.398  0.9138 -1.0239  1.2215
 4856TIP3   OH214531   1.750   3.903   0.453 -0.7035 -0.4625  0.1259
 4856TIP3    H114532   1.796   3.820   0.464 -0.0117 -0.4677 -2.2005
 4856TIP3    H214533   1.703   3.916   0.535 -0.2984 -2.8179  0.8006
 4857TIP3   OH214534   5.404   6.097   1.549 -0.0581  0.8145  0.2811
 4857TIP3    H114535   5.431   6.183   1.584 -0.5665  1.1265 -0.0785
 4857TIP3    H214536   5.448   6.034   1.606 -0.1751  1.3144  0.9429
 4858TIP3   OH214537   0.340   2.483   0.288  0.1533  0.4867 -0.1317
 4858TIP3    H114538   0.331   2.391   0.312  1.7141  0.5524  0.7991
 4858TIP3    H214539   0.250   2.516   0.286 -0.3032 -0.1957  3.1165
 4859TIP3   OH214540   4.974   5.125   1.627 -0.4770  0.2380  0.5178
 4859TIP3    H114541   4.967   5.191   1.697  1.0068 -0.8269  1.7358
 4859TIP3    H214542   5.068   5.118   1.610 -0.7358 -0.4056 -0.7355
 4860TIP3   OH214543   5.618   5.488   4.066 -0.0428  0.6439 -0.1450
 4860TIP3    H114544   5.644   5.494   4.158  0.0335  0.3184 -0.1452
 4860TIP3    H214545   5.645   5.571   4.029  0.2883  0.6189  0.0369
 4861TIP3   OH214546   6.584   1.680   2.594 -0.0828  0.2922 -0.5308
 4861TIP3    H114547   6.581   1.686   2.498 -0.1854 -1.3148 -0.6552
 4861TIP3    H214548   6.614   1.592   2.611 -0.9169  0.2598  0.9345
 4862TIP3   OH214549   6.218   2.543   5.337  0.0045 -0.3404 -0.1493
 4862TIP3    H114550   6.193   2.505   5.421 -0.1732 -0.9920 -0.4850
 4862TIP3    H214551   6.306   2.509   5.320  1.0122  1.6034  0.8235
 4863TIP3   OH214552   6.546   0.938   5.492 -0.0277  0.2001 -0.4817
 4863TIP3    H114553   6.471   0.887   5.524  0.2870  0.0264  0.0010
 4863TIP3    H214554   6.621   0.899   5.536  0.1593  1.4698  0.3709
 4864TIP3   OH214555   3.783   5.811   0.656  0.1352  0.1233  0.4248
 4864TIP3    H114556   3.782   5.786   0.748  1.8348  2.5736  1.1999
 4864TIP3    H214557   3.837   5.889   0.652 -1.8046  1.5319 -2.3141
 4865TIP3   OH214558   1.747   1.862   3.422 -0.2569 -0.4787  0.1885
 4865TIP3    H114559   1.657   1.894   3.411 -0.6902 -1.3958  0.9197
 4865TIP3    H214560   1.739   1.767   3.414  0.1798 -0.8295  3.1085
 4866TIP3   OH214561   6.816   6.320   2.429  0.4671 -0.0782 -0.2929
 4866TIP3    H114562   6.892   6.375   2.448  0.9118 -0.1608 -1.7160
 4866TIP3    H214563   6.747   6.382   2.407  0.4419 -0.0338 -0.0878
 4867TIP3   OH214564   1.859   2.963   2.791 -0.0248  0.0195  0.1438
 4867TIP3    H114565   1.874   3.049   2.831 -1.0873  1.7062 -2.8058
 4867TIP3    H214566   1.931   2.953   2.728 -1.7197  0.4297 -1.9832
 4868TIP3   OH214567   4.857   4.632   4.804 -0.3486  0.8449 -0.3517
 4868TIP3    H114568   4.936   4.684   4.788  0.2507 -0.3778 -1.5883
 4868TIP3    H214569   4.787   4.681   4.760 -0.5118  2.3887  1.4887
 4869TIP3   OH214570   4.207   1.850   5.111  0.0441  0.2719 -0.1623
 4869TIP3    H114571   4.135   1.788   5.118 -0.2996  0.6916  0.0921
 4869TIP3    H214572   4.272   1.805   5.057  0.7242 -1.1658  1.7335
 4870TIP3   OH214573   4.049   3.699   4.419 -0.4677 -0.1600  0.2544
 4870TIP3    H114574   4.011   3.763   4.479  0.0520 -0.0196  0.4369
 4870TIP3    H214575   4.129   3.670   4.462 -0.6626 -0.8816  0.1366
 4871TIP3   OH214576   0.949   5.920   0.499  0.6878 -0.0600  0.6706
 4871TIP3    H114577   0.984   5.835   0.472 -0.2885 -0.2806  0.0073
 4871TIP3    H214578   0.861   5.900   0.532  0.4618  0.6880  0.5479
 4872TIP3   OH214579   6.264   1.881   0.668 -0.0046  0.2007  0.2562
 4872TIP3    H114580   6.211   1.866   0.590  1.0018  1.9285 -0.8333
 4872TIP3    H214581   6.201   1.906   0.736 -0.6598  1.8576 -0.9055
 4873TIP3   OH214582   2.899   0.556   5.572 -0.1525  0.9271  0.2188
 4873TIP3    H114583   2.941   0.601   5.645  0.2730  0.9648 -0.0487
 4873TIP3    H214584   2.940   0.470   5.569  0.7069  1.3447 -0.7260
 4874TIP3   OH214585   6.072   1.512   5.772 -0.0011 -0.1028 -0.1109
 4874TIP3    H114586   6.033   1.585   5.820  0.6381  1.1952 -1.4692
 4874TIP3    H214587   6.009   1.494   5.702 -0.0991 -0.7829  0.1535
 4875TIP3   OH214588   6.898   0.683   1.186 -0.4320 -0.1433  0.4795
 4875TIP3    H114589   6.983   0.690   1.228  0.2566 -1.4737 -0.6119
 4875TIP3    H214590   6.878   0.773   1.157  0.9934  0.0560  0.0427
 4876TIP3   OH214591   2.620   5.705   4.124  0.1577  0.6094 -0.2172
 4876TIP3    H114592   2.597   5.627   4.073  0.3650 -0.5750  1.4249
 4876TIP3    H214593   2.715   5.701   4.133 -0.0300 -0.3186  1.8999
 4877TIP3   OH214594   5.247   4.990   1.959  0.4519  0.2464 -0.1352
 4877TIP3    H114595   5.330   4.981   2.007  0.7459  1.5566 -0.3704
 4877TIP3    H214596   5.212   5.075   1.986 -0.5934 -0.0899 -0.3949
 4878TIP3   OH214597   2.036   4.355   2.056  0.3675  0.3441  0.6110
 4878TIP3    H114598   2.123   4.392   2.066  0.8325 -0.3665 -0.5709
 4878TIP3    H214599   2.008   4.383   1.968 -0.1948 -0.1986  0.6097
 4879TIP3   OH214600   6.485   0.039   1.706  0.7824 -0.2745  0.2393
 4879TIP3    H114601   6.537  -0.040   1.690 -0.7895 -1.1120 -0.9560
 4879TIP3    H214602   6.451   0.028   1.795  2.5815  0.3068  1.0634
 4880TIP3   OH214603   0.550   0.588   2.114  0.2524  0.6655 -0.1700
 4880TIP3    H114604   0.643   0.602   2.129  0.5943 -2.2535  1.0199
 4880TIP3    H214605   0.545   0.563   2.021  0.7812  0.1783 -0.0778
 4881TIP3   OH214606   5.213   2.902   2.799  0.2607 -0.2003  0.4557
 4881TIP3    H114607   5.208   2.989   2.758 -0.5060 -1.4326 -2.3411
 4881TIP3    H214608   5.137   2.899   2.857  1.1130  1.4636  1.7548
 4882TIP3   OH214609   3.437   1.476   5.627 -0.4358 -0.3522  0.0881
 4882TIP3    H114610   3.477   1.491   5.713 -1.0501 -0.8373  0.4612
 4882TIP3    H214611   3.470   1.548   5.572  0.2248 -0.2338  0.6349
 4883TIP3   OH214612   2.469   4.774   4.104  0.4310 -0.4427 -0.2518
 4883TIP3    H114613   2.376   4.761   4.082 -0.1586 -0.6324  2.0405
 4883TIP3    H214614   2.467   4.810   4.193  2.5543  0.4353 -0.5092
 4884TIP3   OH214615   5.520   3.735   4.300 -0.0624 -0.5016  0.3536
 4884TIP3    H114616   5.432   3.763   4.276  0.4160 -0.3307 -1.3304
 4884TIP3    H214617   5.539   3.661   4.242  1.1847 -0.0279  0.1197
 4885TIP3   OH214618   1.730   5.503   0.703 -0.5084 -0.2774  0.0529
 4885TIP3    H114619   1.778   5.481   0.783 -0.5508  1.9641  0.7699
 4885TIP3    H214620   1.638   5.501   0.729 -0.4766  1.8157  0.5209
 4886TIP3   OH214621   3.216   5.790   0.638  0.1821  0.2826  0.5331
 4886TIP3    H114622   3.215   5.884   0.619 -0.3159  0.0023 -1.0184
 4886TIP3    H214623   3.300   5.775   0.681  0.8485  1.2318 -0.3792
 4887TIP3   OH214624   5.658   4.334   0.467 -0.3088 -0.1838 -0.2324
 4887TIP3    H114625   5.630   4.360   0.554 -1.3121  0.4014 -0.7193
 4887TIP3    H214626   5.581   4.291   0.429  0.1407 -0.4907 -0.8146
 4888TIP3   OH214627   6.855   2.939   3.238  0.2413  0.0738  0.2057
 4888TIP3    H114628   6.810   3.002   3.182 -0.1574 -0.2877  0.1195
 4888TIP3    H214629   6.817   2.952   3.325  0.5060  0.2879  0.2916
 4889TIP3   OH214630   4.597   5.920   0.752  0.1724  0.2162  0.2730
 4889TIP3    H114631   4.598   5.828   0.724 -0.4709 -0.3925  2.0872
 4889TIP3    H214632   4.689   5.943   0.761  0.3343 -0.5227  0.6045
 4890TIP3   OH214633   4.900   2.392   5.527 -0.0449 -0.2044  0.0631
 4890TIP3    H114634   4.966   2.344   5.477  0.7103  1.2314 -0.3848
 4890TIP3    H214635   4.918   2.369   5.618  1.4267  0.4978 -0.0070
 4891TIP3   OH214636   0.762   4.307   5.860  0.1287 -0.0713 -0.1050
 4891TIP3    H114637   0.672   4.275   5.870  0.3404 -0.1131  2.2808
 4891TIP3    H214638   0.754   4.402   5.861  0.0897 -0.0747 -0.0823
 4892TIP3   OH214639   0.313   3.448   1.863  0.3094  0.7252 -0.1149
 4892TIP3    H114640   0.276   3.518   1.809  1.9860  3.0310  1.5337
 4892TIP3    H214641   0.246   3.431   1.930 -0.3273  0.3162 -0.8393
 4893TIP3   OH214642   4.579   6.699   2.530  0.6207 -0.0159 -0.1921
 4893TIP3    H114643   4.636   6.673   2.602  0.1515 -0.5749 -0.0132
 4893TIP3    H214644   4.554   6.617   2.488  0.5616  0.2764 -0.7408
 4894TIP3   OH214645   0.748   6.101   3.840  0.2657 -0.2897 -0.8340
 4894TIP3    H114646   0.700   6.139   3.767  0.1886  0.0822 -0.5940
 4894TIP3    H214647   0.736   6.007   3.830 -2.0634 -0.1755  0.2125
 4895TIP3   OH214648   3.528   2.465   1.873  0.2908  0.3186  0.5220
 4895TIP3    H114649   3.478   2.487   1.952  0.5700  0.9518  0.5288
 4895TIP3    H214650   3.617   2.495   1.892  0.6637 -0.7486  0.4841
 4896TIP3   OH214651   6.838   2.251   5.792 -0.0770  0.0942 -0.1744
 4896TIP3    H114652   6.859   2.229   5.701 -1.1368  1.8958 -0.9251
 4896TIP3    H214653   6.802   2.340   5.786  0.4461  0.5007  2.1053
 4897TIP3   OH214654   1.570   3.503   2.539 -0.5644  0.0370 -0.0968
 4897TIP3    H114655   1.572   3.573   2.474  0.3231 -0.0806 -0.2057
 4897TIP3    H214656   1.498   3.526   2.597 -0.5635  0.8068 -0.3960
 4898TIP3   OH214657   5.777   5.906   0.146  1.0028 -0.3278 -0.1557
 4898TIP3    H114658   5.728   5.869   0.220  1.5730 -2.5724 -0.8183
 4898TIP3    H214659   5.724   5.883   0.069  0.1010  2.4993 -0.4993
 4899TIP3   OH214660   6.897   5.151   5.830  0.3457  0.3917 -0.2604
 4899TIP3    H114661   6.957   5.195   5.770 -0.1061  0.4916 -0.6496
 4899TIP3    H214662   6.866   5.221   5.887 -0.5332  0.6378 -1.0131
 4900TIP3   OH214663   2.051   6.413   1.574 -0.2999  0.0588 -0.3384
 4900TIP3    H114664   2.060   6.419   1.669 -0.1801 -0.3931 -0.3193
 4900TIP3    H214665   2.141   6.412   1.542 -0.3315  1.4071 -0.5462
 4901TIP3   OH214666   0.160   4.615   3.011  0.4490  0.6550  0.2694
 4901TIP3    H114667   0.155   4.593   3.104  1.4824  1.2935  0.4881
 4901TIP3    H214668   0.158   4.711   3.009 -0.7992  0.6409 -0.4579
 4902TIP3   OH214669   6.291   3.465   1.970  0.6371  0.3364 -0.3983
 4902TIP3    H114670   6.203   3.450   1.935 -0.1053  1.8350  0.7390
 4902TIP3    H214671   6.304   3.394   2.033  1.5479 -1.7371 -2.7359
 4903TIP3   OH214672   1.775   0.038   0.106  0.7555  0.1255  0.3540
 4903TIP3    H114673   1.688   0.029   0.145  0.9989  2.1641  1.4950
 4903TIP3    H214674   1.763   0.013   0.015 -0.7707 -0.7016  0.7448
 4904TIP3   OH214675   2.785   1.737   0.712 -0.2157  0.1409 -0.2407
 4904TIP3    H114676   2.777   1.731   0.807 -0.8553 -0.4390 -0.3263
 4904TIP3    H214677   2.806   1.648   0.684  3.6126  0.8735 -0.3530
 4905TIP3   OH214678   3.053   2.589   4.332 -0.1112 -0.1417  0.7008
 4905TIP3    H114679   2.991   2.649   4.289  0.7283  0.2892  0.0420
 4905TIP3    H214680   3.042   2.506   4.285  2.1284  0.8044 -1.7818
 4906TIP3   OH214681   1.201   6.366   2.852 -0.2034  0.2344  0.1987
 4906TIP3    H114682   1.282   6.397   2.812 -0.4799 -0.3658 -0.8617
 4906TIP3    H214683   1.156   6.318   2.782 -0.8027 -0.6784  1.1765
 4907TIP3   OH214684   1.987   6.078   4.141  0.4656  0.5113  0.3592
 4907TIP3    H114685   1.900   6.116   4.127  0.2411  0.2228  0.9204
 4907TIP3    H214686   2.046   6.154   4.144  0.3787  0.6500 -0.9822
 4908TIP3   OH214687   4.808   5.789   5.511  0.0411 -0.9237  0.9475
 4908TIP3    H114688   4.791   5.868   5.460 -0.0669 -1.7446 -0.3190
 4908TIP3    H214689   4.750   5.723   5.473  1.7422 -2.2143  0.4848
 4909TIP3   OH214690   1.420   4.878   4.151  0.2608  0.1079  0.5567
 4909TIP3    H114691   1.417   4.891   4.056  1.3623  1.6890  0.6958
 4909TIP3    H214692   1.493   4.818   4.165  1.0853  1.0801  0.4897
 4910TIP3   OH214693   1.757   1.774   4.584 -0.2063 -0.1153  0.4977
 4910TIP3    H114694   1.793   1.842   4.641  0.2097  1.1610 -1.2103
 4910TIP3    H214695   1.726   1.706   4.645  1.6868  0.4091  2.1693
 4911TIP3   OH214696   1.871   0.067   0.416 -1.0767 -0.2568  0.1104
 4911TIP3    H114697   1.862   0.156   0.450 -0.5968 -0.7453  1.6174
 4911TIP3    H214698   1.836   0.071   0.327 -0.9847  1.4460  0.1242
 4912TIP3   OH214699   1.926   2.978   4.305  0.2477 -0.0441 -0.3058
 4912TIP3    H114700   2.018   2.958   4.287 -0.1509 -0.8890 -1.6193
 4912TIP3    H214701   1.890   3.003   4.220 -0.6669  0.6066  0.2549
 4913TIP3   OH214702   2.562   5.971   1.803  0.9996 -0.4738  0.2824
 4913TIP3    H114703   2.489   5.998   1.747  1.5144 -1.4092 -0.9035
 4913TIP3    H214704   2.640   5.988   1.750  1.6573  0.4000  1.4816
 4914TIP3   OH214705   7.169   1.531   1.666  0.0785 -0.1515  0.0215
 4914TIP3    H114706   7.141   1.459   1.722 -0.8760  0.2209  0.0351
 4914TIP3    H214707   7.205   1.595   1.726  2.1941 -1.1444 -0.0945
 4915TIP3   OH214708   6.407   4.436   5.174  0.0060 -0.0406  0.2767
 4915TIP3    H114709   6.314   4.416   5.181 -0.1372  0.2416 -0.7026
 4915TIP3    H214710   6.432   4.404   5.088  1.2332 -1.7175  1.2032
 4916TIP3   OH214711   0.560   4.170   1.529  0.0862  0.0581 -0.2149
 4916TIP3    H114712   0.572   4.241   1.466  0.2724  0.1677 -0.0581
 4916TIP3    H214713   0.548   4.092   1.476  0.9488  0.0300 -0.3908
 4917TIP3   OH214714   3.098   0.356   5.729  0.2741  0.2142 -0.1310
 4917TIP3    H114715   3.022   0.351   5.788 -0.2700  0.6151 -0.7749
 4917TIP3    H214716   3.157   0.287   5.759 -0.4891 -0.3097  0.1930
 4918TIP3   OH214717   6.038   5.506   1.527 -0.2325 -0.1825  0.0665
 4918TIP3    H114718   6.070   5.580   1.474 -3.0443  0.5236 -0.8170
 4918TIP3    H214719   5.979   5.458   1.468 -0.2734 -1.7905  1.3482
 4919TIP3   OH214720   4.918   2.610   2.200 -0.2817 -0.1565 -0.1280
 4919TIP3    H114721   4.872   2.526   2.196  1.4913 -1.1591 -0.4680
 4919TIP3    H214722   4.980   2.606   2.127  0.4223  1.0870  0.3787
 4920TIP3   OH214723   2.747   0.755   4.114 -0.1604 -0.6776 -0.9178
 4920TIP3    H114724   2.714   0.843   4.134 -0.3821 -0.8579 -0.4768
 4920TIP3    H214725   2.756   0.754   4.019 -0.3825 -0.2558 -0.9473
 4921TIP3   OH214726   0.567   5.605   1.123 -0.8139  0.2090 -0.1858
 4921TIP3    H114727   0.557   5.524   1.173  1.1427  1.3224  2.2451
 4921TIP3    H214728   0.633   5.586   1.057  1.1579  0.2601  1.6712
 4922TIP3   OH214729   0.321   6.644   4.165  0.8286 -0.1029  0.3035
 4922TIP3    H114730   0.324   6.554   4.197  1.4938 -0.4523 -0.7006
 4922TIP3    H214731   0.405   6.681   4.191  0.1870  0.5496  1.5508
 4923TIP3   OH214732   6.961   3.868   5.264  0.4488 -0.0237 -0.0179
 4923TIP3    H114733   6.918   3.880   5.180  0.7621 -0.5146 -0.2537
 4923TIP3    H214734   6.934   3.944   5.316  0.0056  0.1204 -0.4519
 4924TIP3   OH214735   3.110   2.429   2.789  0.2443 -0.0938 -0.5814
 4924TIP3    H114736   3.063   2.414   2.707 -0.3498  0.6733 -0.4000
 4924TIP3    H214737   3.163   2.351   2.802 -0.6890 -0.8141 -0.9998
 4925TIP3   OH214738   5.008   5.993   0.587  0.5504 -0.1605  0.4374
 4925TIP3    H114739   4.986   5.968   0.498 -0.0507  0.2594  0.4608
 4925TIP3    H214740   5.058   6.075   0.578 -0.4358  0.4631  0.5343
 4926TIP3   OH214741   5.963   4.070   0.788  0.0352  0.8772  0.1658
 4926TIP3    H114742   5.961   4.061   0.693  1.2884  2.3148 -0.0377
 4926TIP3    H214743   6.045   4.117   0.806  1.7749 -2.5027  2.2347
 4927TIP3   OH214744   1.756   4.815   2.223  0.1578  0.0552 -0.1743
 4927TIP3    H114745   1.821   4.869   2.269  0.6100 -0.2697 -0.4307
 4927TIP3    H214746   1.721   4.758   2.291  0.5795 -0.1866 -0.1538
 4928TIP3   OH214747   2.076   1.876   4.468 -0.0429  0.0496  0.3871
 4928TIP3    H114748   2.042   1.787   4.473 -1.7650  0.6941  1.1359
 4928TIP3    H214749   2.005   1.930   4.504  1.0524  1.6918  0.1702
 4929TIP3   OH214750   5.784   0.327   0.775  0.0741 -0.2338 -0.4544
 4929TIP3    H114751   5.704   0.302   0.821  0.0548 -0.6463 -0.7145
 4929TIP3    H214752   5.839   0.249   0.777  0.4438  0.0235 -0.3456
 4930TIP3   OH214753   3.239   6.448   2.343  0.2042  0.5541  0.0950
 4930TIP3    H114754   3.258   6.354   2.346 -0.2940  0.4319 -0.3774
 4930TIP3    H214755   3.171   6.461   2.410  0.8205  0.7185  0.6989
 4931TIP3   OH214756   0.416   2.215   4.833  0.3019  0.9703  0.3254
 4931TIP3    H114757   0.499   2.195   4.877 -0.7895 -0.4641  1.8673
 4931TIP3    H214758   0.418   2.163   4.753  0.6721  0.5464  0.6028
 4932TIP3   OH214759   2.606   6.533   0.216 -0.3634 -0.3972 -0.1570
 4932TIP3    H114760   2.516   6.555   0.240 -0.4275 -1.3174  0.5325
 4932TIP3    H214761   2.633   6.468   0.282  1.3516  0.9939  0.5908
 4933TIP3   OH214762   4.140   2.124   1.490  0.4454 -0.0315 -0.1267
 4933TIP3    H114763   4.216   2.067   1.481 -0.6122 -1.3011 -1.6768
 4933TIP3    H214764   4.071   2.066   1.523 -0.1887  0.7837  0.0049
 4934TIP3   OH214765   1.227   1.780   3.053  0.0423 -0.0360  0.1799
 4934TIP3    H114766   1.191   1.852   3.105 -0.9788 -0.1181 -0.3959
 4934TIP3    H214767   1.257   1.822   2.972  0.4006 -0.1092  0.2730
 4935TIP3   OH214768   0.549   4.999   4.475  0.1093  0.4878  0.0171
 4935TIP3    H114769   0.491   5.007   4.550  0.5481 -0.9948  0.5646
 4935TIP3    H214770   0.505   5.045   4.404 -1.5973 -0.3653  0.4836
 4936TIP3   OH214771   2.870   0.454   2.274  0.4694 -0.1017 -0.0590
 4936TIP3    H114772   2.932   0.449   2.200  3.4595  0.6713  2.1989
 4936TIP3    H214773   2.863   0.548   2.293 -1.5211 -0.1675 -0.2611
 4937TIP3   OH214774   7.045   1.298   2.615 -0.2125  0.1893  0.3097
 4937TIP3    H114775   7.135   1.271   2.598  0.2563  1.3943  0.7874
 4937TIP3    H214776   6.992   1.235   2.566  0.8869 -0.3770 -0.1986
 4938TIP3   OH214777   0.033   0.099   0.700  0.2360  0.5094 -0.3884
 4938TIP3    H114778   0.050   0.192   0.687  0.5070  0.5311  0.0966
 4938TIP3    H214779  -0.042   0.097   0.760  0.2765  0.4187 -0.3395
 4939TIP3   OH214780   0.589   4.210   2.347 -0.3711  0.1313 -0.3504
 4939TIP3    H114781   0.612   4.172   2.262  0.9738 -0.6940  0.3471
 4939TIP3    H214782   0.548   4.294   2.325  0.0137 -0.0324 -1.8162
 4940TIP3   OH214783   2.088   5.932   5.559 -0.1176 -0.4430 -0.6413
 4940TIP3    H114784   2.118   5.913   5.648  0.9058  1.3345 -0.5675
 4940TIP3    H214785   1.995   5.953   5.570 -0.2154 -1.1034 -0.1304
 4941TIP3   OH214786   3.674   6.673   4.511 -0.0720  0.1547 -0.8601
 4941TIP3    H114787   3.754   6.644   4.557 -0.1373  1.7043  0.2911
 4941TIP3    H214788   3.608   6.608   4.536  0.5151 -0.4652 -0.8629
 4942TIP3   OH214789   3.556   5.246   0.265  0.1147 -0.6791 -0.0694
 4942TIP3    H114790   3.507   5.273   0.187  0.3161  0.3072  0.1300
 4942TIP3    H214791   3.534   5.154   0.277 -2.8367  0.0564  0.8602
 4943TIP3   OH214792   3.256   1.627   0.286  0.0358  0.2177 -0.7531
 4943TIP3    H114793   3.275   1.673   0.205  0.7638  3.1929  0.9595
 4943TIP3    H214794   3.184   1.677   0.325 -2.4192 -2.9242 -0.8398
 4944TIP3   OH214795   1.505   6.651   5.297  0.2669  0.0249 -0.0079
 4944TIP3    H114796   1.489   6.634   5.390  0.3984 -0.1072 -0.0090
 4944TIP3    H214797   1.427   6.618   5.252  1.1347 -1.9342 -0.1479
 4945TIP3   OH214798   2.645   4.095   3.797  0.0373  0.5205  0.3458
 4945TIP3    H114799   2.580   4.141   3.850  1.2190  2.8498 -0.0889
 4945TIP3    H214800   2.625   4.119   3.707  0.7693  0.2653  0.1033
 4946TIP3   OH214801   3.725   6.278   5.476  0.1612 -0.8897  0.3635
 4946TIP3    H114802   3.719   6.328   5.395  0.0689  2.0506  2.0453
 4946TIP3    H214803   3.791   6.210   5.457  3.0204  2.0190 -1.1027
 4947TIP3   OH214804   2.858   5.087   5.133  0.3431 -0.0477 -0.1087
 4947TIP3    H114805   2.854   5.024   5.061  0.7675  0.3869 -0.5273
 4947TIP3    H214806   2.822   5.167   5.096  1.7466  0.5457 -0.2563
 4948TIP3   OH214807   0.885   0.798   3.072 -0.6217  0.1460  0.1234
 4948TIP3    H114808   0.892   0.830   3.161  0.3600  1.2412 -0.3297
 4948TIP3    H214809   0.804   0.746   3.071 -0.6457  0.1329  1.6247
 4949TIP3   OH214810   0.320   0.518   4.917 -0.0822 -0.2772 -0.1181
 4949TIP3    H114811   0.410   0.548   4.910 -0.8105  2.0083 -0.6830
 4949TIP3    H214812   0.282   0.533   4.830 -1.1221 -0.8269  0.2137
 4950TIP3   OH214813   1.908   6.239   1.160  0.1934 -0.3205 -0.3474
 4950TIP3    H114814   1.825   6.220   1.203  0.1514  0.8615  0.1283
 4950TIP3    H214815   1.885   6.248   1.067 -0.0491 -0.9106 -0.3468
 4951TIP3   OH214816   6.441   5.640   4.708 -0.5567 -0.3493  0.4725
 4951TIP3    H114817   6.419   5.547   4.719 -2.7307 -0.1150 -1.3118
 4951TIP3    H214818   6.516   5.640   4.648 -0.3681 -0.9307  0.6963
 4952TIP3   OH214819   3.477   6.270   0.105 -0.2071 -0.3330 -0.0730
 4952TIP3    H114820   3.523   6.353   0.115  1.3644 -0.7462 -2.8339
 4952TIP3    H214821   3.386   6.294   0.089  0.0424  0.7986  0.1339
 4953TIP3   OH214822   6.156   1.298   0.227  0.5099  0.8999  0.9146
 4953TIP3    H114823   6.115   1.310   0.141  2.4668  1.6782  0.0253
 4953TIP3    H214824   6.130   1.376   0.276 -0.7430  0.3788  1.1037
 4954TIP3   OH214825   4.127   4.538   4.102 -0.3626  0.7219 -0.4722
 4954TIP3    H114826   4.067   4.491   4.160 -0.1340  1.0966  0.0786
 4954TIP3    H214827   4.178   4.469   4.059  1.1680  0.4491  1.6129
 4955TIP3   OH214828   3.112   4.987   4.320  0.2220 -0.6736 -0.4979
 4955TIP3    H114829   3.199   4.995   4.280  0.5802  1.3243  0.5097
 4955TIP3    H214830   3.113   4.902   4.364  2.0538 -0.3243  0.2423
 4956TIP3   OH214831   5.089   4.044   4.272  0.4218 -0.1742 -0.3546
 4956TIP3    H114832   5.025   4.015   4.206  0.3668 -0.2912 -0.2505
 4956TIP3    H214833   5.039   4.100   4.331  0.4586 -0.1150 -0.3801
 4957TIP3   OH214834   3.705   4.974   0.081 -0.4221  0.7316 -0.1627
 4957TIP3    H114835   3.704   4.907   0.150  1.8884  0.5119 -0.2413
 4957TIP3    H214836   3.655   4.935   0.009  0.7959 -0.9425 -0.1786
 4958TIP3   OH214837   2.784   5.444   0.677 -0.5044  0.1137 -0.2153
 4958TIP3    H114838   2.699   5.402   0.692  0.7552 -3.4859 -1.8706
 4958TIP3    H214839   2.772   5.498   0.600 -1.6352  0.9532  0.5242
 4959TIP3   OH214840   5.228   3.285   3.919 -0.2924 -0.8653  0.0248
 4959TIP3    H114841   5.296   3.249   3.976  1.1597 -1.2956 -1.8624
 4959TIP3    H214842   5.165   3.213   3.909  0.5930 -1.5683 -0.6564
 4960TIP3   OH214843   5.148   2.635   2.019  0.1780  0.3210  0.3248
 4960TIP3    H114844   5.139   2.637   1.924  0.9261  0.2871  0.2524
 4960TIP3    H214845   5.206   2.708   2.039 -0.3656  0.6264  0.8003
 4961TIP3   OH214846   1.345   5.136   4.950  0.1231 -0.3818  0.1948
 4961TIP3    H114847   1.389   5.053   4.931  0.0981 -0.5137  0.7012
 4961TIP3    H214848   1.327   5.174   4.864  1.6182 -0.1155 -0.0404
 4962TIP3   OH214849   3.763   1.271   3.832  0.1188  0.4997  0.0205
 4962TIP3    H114850   3.770   1.243   3.741  0.2905 -1.5944  0.6357
 4962TIP3    H214851   3.669   1.269   3.851  0.0615  1.1620 -0.1452
 4963TIP3   OH214852   4.488   1.854   5.713 -0.1056  0.0374  0.2455
 4963TIP3    H114853   4.431   1.921   5.675 -0.6981  0.8742  2.4443
 4963TIP3    H214854   4.562   1.849   5.654 -1.0007  1.1883 -1.0337
 4964TIP3   OH214855   6.641   1.724   5.062  0.3555 -0.1123 -0.0389
 4964TIP3    H114856   6.554   1.701   5.031 -0.5332  1.7142  0.8979
 4964TIP3    H214857   6.651   1.817   5.039  1.5479  0.0408  0.9670
 4965TIP3   OH214858   3.502   3.793   4.911  0.2360  0.3174 -0.2894
 4965TIP3    H114859   3.450   3.725   4.955  0.7130  0.4455  0.4924
 4965TIP3    H214860   3.521   3.756   4.825 -2.8814  1.0834 -1.4317
 4966TIP3   OH214861   1.505   5.120   1.845  0.1758 -0.3612  0.1089
 4966TIP3    H114862   1.418   5.084   1.861 -0.1495  0.4542  0.2528
 4966TIP3    H214863   1.562   5.075   1.907 -0.1740 -0.7886  0.1226
 4967TIP3   OH214864   2.067   3.618   4.311 -0.0510  0.3890  0.1333
 4967TIP3    H114865   2.144   3.640   4.258  0.9847 -1.2245  0.8868
 4967TIP3    H214866   2.055   3.695   4.367  2.0158  0.0730  1.1034
 4968TIP3   OH214867   4.219   5.340   1.968  0.5976 -0.0068 -0.3306
 4968TIP3    H114868   4.200   5.322   1.876  0.7402 -0.4165 -0.2826
 4968TIP3    H214869   4.314   5.354   1.970  0.6380 -0.2960 -0.1995
 4969TIP3   OH214870   0.193   4.003   4.156  0.4773 -0.4888 -0.1141
 4969TIP3    H114871   0.162   3.974   4.242  0.3719  1.1529  0.4372
 4969TIP3    H214872   0.114   4.003   4.102 -0.0765  1.1880  0.5949
 4970TIP3   OH214873   1.684   4.831   0.446  0.6087  0.0290  0.2543
 4970TIP3    H114874   1.773   4.806   0.469  0.5957  0.4612  0.7947
 4970TIP3    H214875   1.691   4.923   0.419  0.1171  0.5231  1.6975
 4971TIP3   OH214876   5.940   5.959   1.822  0.1343 -0.7008 -0.5082
 4971TIP3    H114877   5.978   6.000   1.745 -1.4678 -0.9027 -1.4562
 4971TIP3    H214878   5.970   5.869   1.819  1.7383 -0.2205  0.2668
 4972TIP3   OH214879   1.243   2.657   5.617 -0.4721 -0.1352  0.1519
 4972TIP3    H114880   1.208   2.586   5.670 -0.4753  0.3344  0.7897
 4972TIP3    H214881   1.295   2.710   5.678 -0.0531  0.1223 -0.4228
 4973TIP3   OH214882   2.488   2.152   5.049  0.2631  0.4226  0.7554
 4973TIP3    H114883   2.556   2.182   4.989  0.6808 -0.8657  0.5541
 4973TIP3    H214884   2.528   2.158   5.136  0.5223 -0.0323  0.6681
 4974TIP3   OH214885   0.480   6.562   0.117 -0.2980 -0.4748  0.1136
 4974TIP3    H114886   0.419   6.510   0.169 -1.8420 -0.8961 -1.9430
 4974TIP3    H214887   0.566   6.544   0.155 -1.0166 -2.9184  0.7801
 4975TIP3   OH214888   3.345   4.511   5.297  0.3305 -0.2707 -0.4764
 4975TIP3    H114889   3.390   4.446   5.351 -0.5764 -0.8762 -0.4411
 4975TIP3    H214890   3.416   4.554   5.248  0.9064 -1.7233 -0.9916
 4976TIP3   OH214891   6.630   1.894   5.390  0.0893  0.1622  0.2707
 4976TIP3    H114892   6.648   1.800   5.385  0.3753 -0.2250  4.6149
 4976TIP3    H214893   6.549   1.900   5.441 -0.3144  2.2864 -0.5292
 4977TIP3   OH214894   0.446   3.374   3.086 -0.4767 -0.5498  0.0790
 4977TIP3    H114895   0.363   3.404   3.049 -0.4294  1.0552  1.1971
 4977TIP3    H214896   0.437   3.389   3.180  1.0471 -0.4273  0.2197
 4978TIP3   OH214897   4.706   5.872   3.072 -0.0837  0.9515  0.2688
 4978TIP3    H114898   4.710   5.967   3.062  1.9282  0.7609 -1.6080
 4978TIP3    H214899   4.614   5.851   3.062 -0.3415  2.5631 -1.3426
 4979TIP3   OH214900   1.897   5.296   2.188  0.8400 -0.2529 -0.2444
 4979TIP3    H114901   1.929   5.246   2.113  1.4979 -1.4717  0.8067
 4979TIP3    H214902   1.970   5.296   2.250 -0.7187 -2.1097  1.7501
 4980TIP3   OH214903   4.238   3.433   3.104  0.0487  0.4011 -0.5725
 4980TIP3    H114904   4.264   3.346   3.073  0.6124  0.7587 -1.1182
 4980TIP3    H214905   4.271   3.438   3.193  1.9748  0.8744 -1.2692
 4981TIP3   OH214906   1.963   3.288   4.853  0.4018  0.5603  0.4794
 4981TIP3    H114907   2.050   3.316   4.882  1.1775 -1.0794 -0.1318
 4981TIP3    H214908   1.913   3.279   4.933  0.5166  2.3577  0.7804
 4982TIP3   OH214909   6.957   6.712   4.025 -0.1059 -0.0288 -0.6362
 4982TIP3    H114910   6.972   6.646   3.957  1.6486 -0.5348  0.1584
 4982TIP3    H214911   7.019   6.782   4.004  0.9012 -0.4613  0.7208
 4983TIP3   OH214912   4.792   2.634   4.434  0.5293  0.0400  0.4692
 4983TIP3    H114913   4.814   2.625   4.341  0.7694 -0.8949  0.6053
 4983TIP3    H214914   4.764   2.547   4.460  0.9855  0.1612  1.4083
 4984TIP3   OH214915   6.579   5.316   3.391 -0.2127  0.7328  0.1871
 4984TIP3    H114916   6.570   5.225   3.363 -1.1736  0.0509  2.3970
 4984TIP3    H214917   6.658   5.348   3.349  0.5921 -1.3958 -0.0051
 4985TIP3   OH214918   4.968   2.760   5.198 -0.5715  0.2331  0.4883
 4985TIP3    H114919   5.044   2.710   5.227 -0.7654 -2.1093 -2.5754
 4985TIP3    H214920   5.001   2.817   5.129 -1.2500  0.6291  0.4794
 4986TIP3   OH214921   3.112   6.055   4.229 -0.5654 -0.5506  0.0899
 4986TIP3    H114922   3.042   6.101   4.182 -0.0788 -0.2067 -0.3096
 4986TIP3    H214923   3.078   5.967   4.242 -1.0316 -0.4185 -0.1954
 4987TIP3   OH214924   6.624   6.080   0.832  0.6488  0.5299 -0.0353
 4987TIP3    H114925   6.600   6.168   0.803  0.2793  0.9517  1.5003
 4987TIP3    H214926   6.565   6.022   0.784  1.0741  1.0837 -1.2627
 4988TIP3   OH214927   6.738   5.941   1.272  0.3211  0.3202  0.1378
 4988TIP3    H114928   6.702   6.030   1.273  1.3885  0.7776  1.5404
 4988TIP3    H214929   6.664   5.885   1.297 -0.6530  0.6377 -1.8354
 4989TIP3   OH214930   5.641   4.917   2.944  0.0395 -0.0244 -0.2795
 4989TIP3    H114931   5.672   4.950   3.028 -0.2992 -2.4628  0.9071
 4989TIP3    H214932   5.549   4.942   2.941 -0.3349 -1.1759  0.8127
 4990TIP3   OH214933   1.228   5.409   2.442 -0.0489 -0.1716 -0.4380
 4990TIP3    H114934   1.172   5.471   2.395 -0.5750  0.3567  0.8337
 4990TIP3    H214935   1.173   5.377   2.514  0.9944 -0.3384  0.3015
 4991TIP3   OH214936   3.756   3.271   5.436  0.5256  0.2566  0.0353
 4991TIP3    H114937   3.820   3.224   5.489  2.0761  2.4405  0.2519
 4991TIP3    H214938   3.690   3.301   5.498  2.4603  3.0171  0.9445
 4992TIP3   OH214939   5.689   1.827   3.346  0.1388 -0.0209 -0.3953
 4992TIP3    H114940   5.649   1.905   3.385 -0.3113 -0.1917 -0.5021
 4992TIP3    H214941   5.662   1.830   3.254  0.6449  0.0305 -0.5404
 4993TIP3   OH214942   1.845   3.403   3.419  0.0018  0.0284  0.7777
 4993TIP3    H114943   1.768   3.433   3.468 -0.2862 -1.1791  1.0957
 4993TIP3    H214944   1.811   3.339   3.357  0.5597  0.5552 -0.1000
 4994TIP3   OH214945   5.975   2.887   0.135 -0.3551  0.6149 -0.5608
 4994TIP3    H114946   5.914   2.822   0.102 -0.1253 -0.2818  0.6978
 4994TIP3    H214947   5.920   2.953   0.177 -0.5099  0.3522 -0.3490
 4995TIP3   OH214948   3.940   1.938   5.764 -0.1594  0.3527 -0.0618
 4995TIP3    H114949   3.875   1.996   5.724 -1.2494 -1.0632 -0.4276
 4995TIP3    H214950   4.024   1.980   5.746 -0.7144  0.5006 -2.6139
 4996TIP3   OH214951   4.872   3.610   2.638 -0.3893 -0.8253 -0.6208
 4996TIP3    H114952   4.790   3.568   2.612 -0.1385 -0.7796 -1.5189
 4996TIP3    H214953   4.875   3.691   2.587 -0.3909 -0.1881  0.3559
 4997TIP3   OH214954   0.247   2.964   3.204 -0.4150  0.5089 -0.3158
 4997TIP3    H114955   0.335   2.941   3.233 -0.0387  2.0207 -0.2014
 4997TIP3    H214956   0.260   3.017   3.126 -1.3127 -0.7542 -1.3680
 4998TIP3   OH214957   6.403   3.779   4.311 -0.1286 -0.2236  0.1454
 4998TIP3    H114958   6.485   3.780   4.261 -0.6163 -1.7875 -0.7496
 4998TIP3    H214959   6.393   3.688   4.339 -1.6769 -0.1014  0.0570
 4999TIP3   OH214960   4.248   6.231   2.726 -0.8031 -0.2987 -0.2998
 4999TIP3    H114961   4.157   6.222   2.754 -0.3641 -2.5857  0.6072
 4999TIP3    H214962   4.245   6.291   2.652 -3.0805 -0.4778 -0.4020
 5000TIP3   OH214963   5.113   1.564   1.592 -0.0087 -0.3395 -0.0726
 5000TIP3    H114964   5.172   1.608   1.532 -0.5575  2.0817  1.0420
 5000TIP3    H214965   5.168   1.538   1.666  0.0345 -0.0381  0.0004
 5001TIP3   OH214966   4.738   0.252   4.921 -0.7091  0.3183 -0.5979
 5001TIP3    H114967   4.731   0.257   5.016 -1.0534  0.0182 -0.6077
 5001TIP3    H214968   4.731   0.343   4.892 -2.4862  0.2591 -0.4594
 5002TIP3   OH214969   0.530   5.383   5.207  0.7443 -0.5917  0.4287
 5002TIP3    H114970   0.616   5.372   5.165 -0.4323 -1.2195 -1.9621
 5002TIP3    H214971   0.537   5.467   5.253  2.4904 -0.4263 -0.0414
 5003TIP3   OH214972   2.322   4.173   4.704 -0.1232  0.3304  0.7796
 5003TIP3    H114973   2.405   4.166   4.658  0.1715 -0.8111  1.4507
 5003TIP3    H214974   2.283   4.254   4.671  0.9504  0.5401 -0.0218
 5004TIP3   OH214975   2.612   4.192   3.536 -0.6190  0.2401 -0.0071
 5004TIP3    H114976   2.685   4.158   3.484 -0.5785  0.8554 -0.3678
 5004TIP3    H214977   2.610   4.286   3.515 -0.6770  0.4776  1.0053
 5005TIP3   OH214978   3.653   4.957   2.352  0.1321 -0.7320  0.0176
 5005TIP3    H114979   3.629   4.865   2.338 -0.6554 -0.4795 -0.3517
 5005TIP3    H214980   3.671   4.991   2.265 -1.2368 -0.1044 -0.0410
 5006TIP3   OH214981   7.040   2.879   1.940  0.2356 -0.3563 -0.2111
 5006TIP3    H114982   7.097   2.884   2.017 -1.5347 -1.2186  1.2341
 5006TIP3    H214983   7.043   2.966   1.902  1.5872 -0.0638  0.5038
 5007TIP3   OH214984   4.910   3.139   0.433 -0.7451  0.4261 -0.0126
 5007TIP3    H114985   4.957   3.056   0.430 -0.8994  0.3746 -2.1084
 5007TIP3    H214986   4.974   3.205   0.405 -0.5049  1.1373  1.9971
 5008TIP3   OH214987   2.758   4.174   4.989  0.0073 -0.3074  0.7258
 5008TIP3    H114988   2.764   4.204   4.899  0.7113  1.3642  1.2951
 5008TIP3    H214989   2.675   4.209   5.021  0.5128  0.5213  1.1863
 5009TIP3   OH214990   5.827   2.885   1.483 -0.1099 -0.6085 -0.3320
 5009TIP3    H114991   5.732   2.899   1.482 -0.2521 -1.4699 -1.6712
 5009TIP3    H214992   5.855   2.919   1.567 -1.1700  2.4693 -1.0794
 5010TIP3   OH214993   1.823   5.184   1.668 -0.3277 -0.1455 -0.5079
 5010TIP3    H114994   1.815   5.276   1.643 -1.9638  0.2097  1.0521
 5010TIP3    H214995   1.766   5.138   1.607 -0.4058  0.0244 -0.5647
 5011TIP3   OH214996   5.535   6.029   2.567  0.1797  0.4050  0.0521
 5011TIP3    H114997   5.612   5.975   2.547  1.1559  1.6848  0.2507
 5011TIP3    H214998   5.538   6.100   2.503 -2.0320 -0.6067 -1.2943
 5012TIP3   OH214999   0.056   3.669   2.570 -0.3649 -0.1236 -0.1166
 5012TIP3    H115000   0.039   3.581   2.604  0.9755 -0.4133 -0.1413
 5012TIP3    H215001   0.038   3.727   2.644 -1.6456 -0.3625 -0.2173
 5013TIP3   OH215002   4.883   3.177   2.924 -0.5506  0.3667 -0.3215
 5013TIP3    H115003   4.805   3.232   2.918 -1.1030 -0.4926 -1.3258
 5013TIP3    H215004   4.956   3.239   2.931 -1.4523  1.2712  4.0214
 5014TIP3   OH215005   0.090   6.734   0.364  0.3931 -0.6035 -0.1031
 5014TIP3    H115006   0.091   6.643   0.336  0.6776 -0.6958  0.1985
 5014TIP3    H215007   0.026   6.776   0.307 -0.0079 -1.0658  0.0080
 5015TIP3   OH215008   6.933   5.754   3.841 -0.2911 -0.3254 -0.1409
 5015TIP3    H115009   7.002   5.790   3.896 -0.8218 -0.8181  0.8805
 5015TIP3    H215010   6.947   5.659   3.843  0.2108 -0.3024 -1.5924
 5016TIP3   OH215011   0.177   6.646   2.588 -0.9946  0.5314 -0.0655
 5016TIP3    H115012   0.250   6.708   2.578  0.1564 -0.4528  1.6580
 5016TIP3    H215013   0.219   6.560   2.585 -2.1190 -0.0670  0.7836
 5017TIP3   OH215014   3.387   5.035   4.209  0.4579  0.0405 -0.3776
 5017TIP3    H115015   3.358   5.126   4.205 -1.2046 -0.4864 -1.1321
 5017TIP3    H215016   3.402   5.010   4.118 -0.1433 -0.7475 -0.2738
 5018TIP3   OH215017   2.971   5.814   4.353 -0.3352 -0.2917 -0.6030
 5018TIP3    H115018   2.944   5.746   4.415 -0.3850  0.7827  0.5960
 5018TIP3    H215019   2.894   5.872   4.346  0.2298  0.5021 -0.3813
 5019TIP3   OH215020   0.549   2.777   0.033  0.1495  0.4588  0.8158
 5019TIP3    H115021   0.491   2.702   0.040  0.6108 -0.0631 -0.5655
 5019TIP3    H215022   0.570   2.800   0.124 -1.0920 -0.1981  1.2947
 5020TIP3   OH215023   5.279   5.201   2.521 -0.0404 -0.4917  0.5066
 5020TIP3    H115024   5.187   5.203   2.497 -0.3568  4.1368  1.1801
 5020TIP3    H215025   5.326   5.204   2.438 -0.4607 -1.8626  0.1960
 5021TIP3   OH215026   1.001   0.448   1.280 -0.1459 -0.0642 -0.6230
 5021TIP3    H115027   1.062   0.480   1.213  0.4803  1.2664  0.5516
 5021TIP3    H215028   1.041   0.367   1.312  1.2883  1.0315  0.4558
 5022TIP3   OH215029   5.978   5.176   4.832 -0.6145 -0.1242  0.1607
 5022TIP3    H115030   6.060   5.169   4.784 -0.8275 -1.1143 -0.0913
 5022TIP3    H215031   5.979   5.264   4.871  1.4177 -0.7539  1.7204
 5023TIP3   OH215032   6.581   4.113   5.886  0.1222  0.3178 -0.3082
 5023TIP3    H115033   6.486   4.118   5.898 -0.3133 -0.7619 -2.7728
 5023TIP3    H215034   6.598   4.162   5.805  1.2605 -1.7459 -1.3889
 5024TIP3   OH215035   5.617   5.097   3.674  0.0565 -0.2057  0.7912
 5024TIP3    H115036   5.652   5.162   3.735 -0.0649  0.2604  0.3701
 5024TIP3    H215037   5.616   5.142   3.589 -0.1527 -0.7157  0.5200
 5025TIP3   OH215038   0.689   2.699   5.571  0.1742 -0.5460 -0.3470
 5025TIP3    H115039   0.602   2.703   5.532  0.0868 -0.5150 -0.1485
 5025TIP3    H215040   0.685   2.624   5.631  0.9644 -1.9894 -2.0117
 5026TIP3   OH215041   3.467   0.668   0.573 -0.1446  0.1907 -0.3461
 5026TIP3    H115042   3.453   0.601   0.506 -0.4337 -1.2652  1.0863
 5026TIP3    H215043   3.507   0.620   0.646  0.6950  1.8234  0.3216
 5027TIP3   OH215044   2.603   0.463   0.899 -0.2469  0.3251  0.3162
 5027TIP3    H115045   2.530   0.518   0.928 -1.2759 -1.4843  1.2857
 5027TIP3    H215046   2.654   0.448   0.978  0.9415  1.1491 -0.2566
 5028TIP3   OH215047   0.787   3.606   4.965 -0.2412  0.0642 -0.0513
 5028TIP3    H115048   0.825   3.607   5.053 -1.9876 -0.2325  0.7585
 5028TIP3    H215049   0.848   3.554   4.913 -0.2348 -1.6212  1.5297
 5029TIP3   OH215050   5.691   6.210   0.834  0.1311  0.8555  0.0746
 5029TIP3    H115051   5.665   6.135   0.889  1.7671  0.1725 -0.0512
 5029TIP3    H215052   5.742   6.172   0.763 -1.1207  1.8491 -1.4318
 5030TIP3   OH215053   6.913   3.541   0.286  0.0441 -0.0383  0.6504
 5030TIP3    H115054   6.837   3.568   0.234  0.2116 -1.9448 -0.6980
 5030TIP3    H215055   6.974   3.503   0.222  1.4639  0.0162  1.9082
 5031TIP3   OH215056   3.852   0.283   4.761 -0.0722 -0.1391 -0.0168
 5031TIP3    H115057   3.804   0.317   4.837 -1.3552 -1.0171 -0.3926
 5031TIP3    H215058   3.823   0.338   4.688 -0.9048 -0.9492 -0.3260
 5032TIP3   OH215059   3.534   3.955   3.709 -0.4744  0.5160 -0.2185
 5032TIP3    H115060   3.540   3.876   3.762  0.5066 -0.2582 -1.4226
 5032TIP3    H215061   3.542   3.925   3.619 -0.5374  1.9447 -0.7364
 5033TIP3   OH215062   3.429   0.006   1.106 -0.2819 -0.1536  0.2724
 5033TIP3    H115063   3.407  -0.038   1.187 -0.7810 -1.4125 -0.5192
 5033TIP3    H215064   3.360   0.072   1.094  0.4535  0.8774  1.4421
 5034TIP3   OH215065   4.198   4.620   3.544 -0.2368  0.3306 -1.0428
 5034TIP3    H115066   4.219   4.528   3.531 -0.8216  0.2193 -1.2580
 5034TIP3    H215067   4.236   4.642   3.629  0.0792 -0.0560 -1.0837
 5035TIP3   OH215068   4.693   2.786   2.120  0.3408 -0.2771 -0.3288
 5035TIP3    H115069   4.627   2.741   2.173 -1.7623  0.6273 -2.0134
 5035TIP3    H215070   4.776   2.743   2.143 -0.8008 -1.4817  1.8705
 5036TIP3   OH215071   6.439   4.394   3.955  0.6781  0.3697  0.1058
 5036TIP3    H115072   6.372   4.388   4.023  0.2607  1.3381 -0.2055
 5036TIP3    H215073   6.402   4.349   3.880 -0.4553  2.4605 -0.6812
 5037TIP3   OH215074   3.555   3.975   0.337  0.3931 -0.5435 -0.1449
 5037TIP3    H115075   3.491   3.913   0.301  0.0387 -0.2580 -0.0096
 5037TIP3    H215076   3.571   4.037   0.265 -1.4267  0.8986  0.6301
 5038TIP3   OH215077   2.545   0.464   4.573 -0.0717  0.0540 -0.2121
 5038TIP3    H115078   2.538   0.389   4.515  1.8763  0.7889 -1.5052
 5038TIP3    H215079   2.513   0.538   4.521 -0.0704  0.4325  0.3165
 5039TIP3   OH215080   4.869   6.275   1.279 -0.4446  0.3279  0.0191
 5039TIP3    H115081   4.796   6.278   1.218 -0.8083 -0.3943  0.4060
 5039TIP3    H215082   4.946   6.263   1.224 -0.8522 -1.1901 -0.2744
 5040TIP3   OH215083   1.064   1.592   3.517  0.7007 -0.4800  1.1167
 5040TIP3    H115084   1.127   1.530   3.480  0.2345 -0.0383 -0.4812
 5040TIP3    H215085   1.086   1.676   3.476  0.0149 -0.0130  1.6757
 5041TIP3   OH215086   2.975   1.797   3.903 -0.0503 -0.0432  0.0816
 5041TIP3    H115087   2.941   1.838   3.982 -0.6937 -1.6253  0.6701
 5041TIP3    H215088   3.002   1.870   3.847  0.0770  1.1189  1.5981
 5042TIP3   OH215089   7.107   3.340   4.965 -0.3227 -0.5830 -0.1739
 5042TIP3    H115090   7.186   3.384   4.932  0.0765 -1.9761 -1.1764
 5042TIP3    H215091   7.080   3.392   5.040  0.7747  0.7031 -0.6376
 5043TIP3   OH215092   6.999   5.848   5.232  0.0871 -0.4116 -0.0297
 5043TIP3    H115093   6.920   5.901   5.224 -0.3272 -0.9935  0.1506
 5043TIP3    H215094   7.070   5.907   5.205 -0.4402  0.0038 -0.5507
 5044TIP3   OH215095   4.174   6.454   1.351  0.5879  0.6674  0.4636
 5044TIP3    H115096   4.173   6.363   1.380  2.3355 -0.0711 -1.5213
 5044TIP3    H215097   4.260   6.465   1.310  0.8036  3.5070  1.4521
 5045TIP3   OH215098   3.237   1.745   3.976 -0.1184  0.1287  0.3349
 5045TIP3    H115099   3.143   1.733   3.959  0.1844 -0.6791 -0.9003
 5045TIP3    H215100   3.253   1.697   4.057 -1.1072  1.8616  1.6323
 5046TIP3   OH215101   4.447   5.512   4.662 -0.1201  0.3966  0.6297
 5046TIP3    H115102   4.495   5.475   4.737 -1.2572 -0.3110  1.0337
 5046TIP3    H215103   4.461   5.448   4.591 -1.5410 -0.5280  1.1385
 5047TIP3   OH215104   3.985   5.974   1.498  0.3610 -0.1891 -0.2286
 5047TIP3    H115105   3.926   5.900   1.510  1.8422 -1.2837  0.7749
 5047TIP3    H215106   4.048   5.943   1.432  0.9227  0.2014  0.1179
 5048TIP3   OH215107   0.087   2.588   3.378  0.3622  0.0387  0.0669
 5048TIP3    H115108   0.057   2.673   3.345 -0.1948 -0.5195 -0.9104
 5048TIP3    H215109   0.009   2.532   3.374  0.4228 -0.2260  1.7873
 5049TIP3   OH215110   4.887   4.099   4.694 -0.1788 -0.0284 -0.4024
 5049TIP3    H115111   4.923   4.187   4.697  0.3654 -0.2601  1.8814
 5049TIP3    H215112   4.793   4.111   4.681 -0.0721  0.8795 -0.3540
 5050TIP3   OH215113   3.621   0.241   0.022 -1.3065 -0.1417  0.6159
 5050TIP3    H115114   3.540   0.246   0.073 -0.8783 -0.0254  1.2946
 5050TIP3    H215115   3.620   0.321  -0.032 -1.6967 -0.1969  0.5394
 5051TIP3   OH215116   6.372   2.010   2.744  0.0171 -0.0843  0.3881
 5051TIP3    H115117   6.455   1.992   2.700 -0.6197  0.2153 -0.9844
 5051TIP3    H215118   6.395   2.072   2.814  1.2133 -1.4108  1.2050
 5052TIP3   OH215119   4.384   5.901   5.230 -0.4531  0.0192 -0.8991
 5052TIP3    H115120   4.422   5.953   5.301 -1.7589 -0.3922  0.1379
 5052TIP3    H215121   4.426   5.815   5.239 -0.8539 -0.1308 -0.3960
 5053TIP3   OH215122   4.289   0.885   5.457 -0.2453 -0.1671 -0.1984
 5053TIP3    H115123   4.235   0.816   5.419  0.8309 -1.0053 -0.2582
 5053TIP3    H215124   4.326   0.846   5.536  0.3477  0.3425 -0.2134
 5054TIP3   OH215125   5.258   4.282   3.095 -0.1243 -0.7323  1.0715
 5054TIP3    H115126   5.333   4.336   3.118 -1.0265  0.6896  0.8274
 5054TIP3    H215127   5.188   4.313   3.153 -1.2540 -0.0853 -0.5474
 5055TIP3   OH215128   6.410   3.324   2.754  0.3460 -0.3686 -0.3210
 5055TIP3    H115129   6.362   3.284   2.682  0.1867 -1.3644  0.3227
 5055TIP3    H215130   6.343   3.367   2.807  0.1078 -1.9336  0.6897
 5056TIP3   OH215131   1.392   5.148   1.312  0.1667  0.5239 -1.1779
 5056TIP3    H115132   1.464   5.178   1.258  0.9591  2.2562  0.6961
 5056TIP3    H215133   1.322   5.212   1.297 -0.5948 -0.4617 -2.0585
 5057TIP3   OH215134   0.233   6.129   0.242 -0.1518  0.2587 -0.0780
 5057TIP3    H115135   0.180   6.077   0.181  0.5130  2.8552 -3.1727
 5057TIP3    H215136   0.294   6.067   0.281 -1.2259 -1.7164 -1.4052
 5058TIP3   OH215137   0.352   2.907   2.471 -0.6278  0.5869  0.1042
 5058TIP3    H115138   0.435   2.897   2.517 -1.3247  0.8448  1.4998
 5058TIP3    H215139   0.367   2.872   2.384  0.6053 -0.4721  0.7227
 5059TIP3   OH215140   4.949   0.444   4.158  0.2588  0.1314  0.0302
 5059TIP3    H115141   4.856   0.448   4.179  0.0088  0.5127 -1.0954
 5059TIP3    H215142   4.993   0.460   4.242 -0.6574 -1.4081  0.8414
 5060TIP3   OH215143   5.716   4.879   5.339 -0.2056 -0.4733 -0.0141
 5060TIP3    H115144   5.722   4.808   5.275 -1.5796  0.4933 -1.2998
 5060TIP3    H215145   5.738   4.958   5.289 -1.3054  0.3073  0.6841
 5061TIP3   OH215146   2.912   6.188   4.116  0.0060 -0.0150  0.3726
 5061TIP3    H115147   2.904   6.278   4.086 -0.2422 -0.4413 -0.8912
 5061TIP3    H215148   2.858   6.184   4.195 -1.1082  0.6086 -0.3339
 5062TIP3   OH215149   1.007   5.004   1.030 -0.0721  0.1495 -0.7415
 5062TIP3    H115150   1.086   4.971   1.073  0.5933  1.1346 -1.1666
 5062TIP3    H215151   0.934   4.965   1.079  0.6722 -0.6031 -0.2090
 5063TIP3   OH215152   0.922   5.544   0.569  0.0520  0.1916  0.2416
 5063TIP3    H115153   0.936   5.451   0.584 -0.9819 -0.0720 -0.3229
 5063TIP3    H215154   0.834   5.549   0.530  0.3481  1.3375 -0.3199
 5064TIP3   OH215155   5.964   3.645   5.601 -0.6992  0.1867 -0.2838
 5064TIP3    H115156   5.897   3.633   5.667 -0.2149 -1.1071 -0.0103
 5064TIP3    H215157   5.950   3.734   5.569 -0.3334  1.2269  2.2323
 5065TIP3   OH215158   3.304   1.229   0.583 -0.4848  0.5133 -0.3778
 5065TIP3    H115159   3.328   1.285   0.509 -0.3328  1.5665  0.4438
 5065TIP3    H215160   3.351   1.266   0.658 -1.2586 -0.0420  0.4087
 5066TIP3   OH215161   6.410   3.539   1.144  0.7790 -0.0163 -0.1504
 5066TIP3    H115162   6.406   3.450   1.179  2.1684 -1.1420 -2.5703
 5066TIP3    H215163   6.483   3.580   1.190  0.4748 -0.3009  0.6027
 5067TIP3   OH215164   3.425   2.680   0.335  0.8689  0.0871  0.2419
 5067TIP3    H115165   3.425   2.719   0.248 -0.3414  0.2813  0.3101
 5067TIP3    H215166   3.344   2.629   0.339  0.8551  0.1547  1.2707
 5068TIP3   OH215167   3.924   2.851   4.986  0.0514 -0.5612 -0.0276
 5068TIP3    H115168   3.994   2.829   4.924 -1.6405 -3.9483 -0.9729
 5068TIP3    H215169   3.933   2.787   5.057 -1.0147  0.0950  0.7402
 5069TIP3   OH215170   4.729   1.974   3.492  0.2723 -0.1992 -0.6615
 5069TIP3    H115171   4.654   1.916   3.483  0.4169 -0.4625 -0.2057
 5069TIP3    H215172   4.710   2.047   3.434  0.5068 -1.1276 -1.9677
 5070TIP3   OH215173   4.150   0.474   3.114 -0.4714 -0.1755  0.4961
 5070TIP3    H115174   4.065   0.456   3.153 -1.1198 -1.6142 -1.4126
 5070TIP3    H215175   4.205   0.401   3.142  0.2258  0.8161  1.8293
 5071TIP3   OH215176   3.752   6.123   0.420  0.4884 -0.1824  0.1935
 5071TIP3    H115177   3.848   6.118   0.414  0.3731 -1.4040 -1.2403
 5071TIP3    H215178   3.733   6.216   0.426  1.7418  0.1075  0.0025
 5072TIP3   OH215179   3.188   2.506   3.229  0.2143 -0.1249  0.4546
 5072TIP3    H115180   3.191   2.511   3.134 -3.3297  0.9433  0.2394
 5072TIP3    H215181   3.223   2.419   3.250 -2.0293 -1.8364 -2.1598
 5073TIP3   OH215182   6.005   4.813   0.642 -0.1386  0.6936  0.2181
 5073TIP3    H115183   6.022   4.907   0.643 -1.8621  1.1548 -2.5731
 5073TIP3    H215184   5.911   4.805   0.659  0.2394 -0.6875  1.9569
 5074TIP3   OH215185   3.399   2.510   0.051 -0.0737  0.3032  0.1447
 5074TIP3    H115186   3.429   2.596   0.079  1.1551 -0.0787  0.0564
 5074TIP3    H215187   3.329   2.528  -0.013  0.0385  1.2194  0.2743
 5075TIP3   OH215188   5.322   0.374   0.414 -0.0315 -0.0306  0.3488
 5075TIP3    H115189   5.368   0.451   0.446 -2.5206  1.0950  1.4408
 5075TIP3    H215190   5.369   0.300   0.453  0.7100  1.0584  1.5892
 5076TIP3   OH215191   4.653   4.347   4.116  0.1361 -0.1947 -0.5046
 5076TIP3    H115192   4.564   4.320   4.094 -0.1196 -1.1607  1.4725
 5076TIP3    H215193   4.694   4.366   4.031 -1.9374  0.3237 -1.4542
 5077TIP3   OH215194   5.353   2.217   3.590  0.5240 -0.1844  0.3080
 5077TIP3    H115195   5.385   2.296   3.634 -0.3758  0.1318  0.3992
 5077TIP3    H215196   5.287   2.248   3.528  1.6077 -0.6410 -1.1408
 5078TIP3   OH215197   4.702   5.399   2.631 -0.3894 -0.4166 -0.2934
 5078TIP3    H115198   4.688   5.448   2.712  1.3129 -2.5926  1.4487
 5078TIP3    H215199   4.627   5.340   2.625 -0.5948 -0.1467 -0.4037
 5079TIP3   OH215200   4.386   3.840   2.361 -0.2010  0.1390 -0.0937
 5079TIP3    H115201   4.435   3.781   2.305  0.6648 -0.6377  1.4312
 5079TIP3    H215202   4.318   3.786   2.401 -1.4563  0.9001 -1.0982
 5080TIP3   OH215203   1.650   6.624   2.777 -0.0023 -0.0315  0.5399
 5080TIP3    H115204   1.655   6.699   2.837  2.3936 -0.3286  0.8353
 5080TIP3    H215205   1.621   6.662   2.694  0.9143  1.2068  0.7518
 5081TIP3   OH215206   3.914   4.665   3.259 -0.0057 -0.1735  0.1211
 5081TIP3    H115207   3.823   4.677   3.231 -0.2167 -2.1009 -0.1582
 5081TIP3    H215208   3.910   4.657   3.354 -0.0530  0.3089  0.1606
 5082TIP3   OH215209   3.370   3.513   4.826 -0.5094 -0.4118  0.2816
 5082TIP3    H115210   3.305   3.476   4.887  0.3435 -0.9325  0.9059
 5082TIP3    H215211   3.450   3.464   4.845 -0.2913 -0.8113 -1.5021
 5083TIP3   OH215212   4.080   4.871   3.597 -0.0379 -0.1712 -0.0905
 5083TIP3    H115213   4.110   4.867   3.688 -0.7451 -0.0144  0.1568
 5083TIP3    H215214   4.122   4.797   3.554  1.3974  0.5406  0.0259
 5084TIP3   OH215215   6.620   3.074   4.684  0.2807 -0.7612 -0.2216
 5084TIP3    H115216   6.663   2.993   4.656 -1.1386 -1.2048 -1.2570
 5084TIP3    H215217   6.527   3.051   4.687 -0.0983  0.7250 -0.1292
 5085TIP3   OH215218   6.851   5.211   5.538 -0.2860  0.1665  0.0214
 5085TIP3    H115219   6.770   5.182   5.497 -0.6722 -1.3607  1.7250
 5085TIP3    H215220   6.823   5.256   5.617  0.5071 -0.4203  0.6488
 5086TIP3   OH215221   6.467   2.443   0.583 -0.0404 -0.1697  0.4742
 5086TIP3    H115222   6.497   2.534   0.573 -0.7244  0.1583  1.3137
 5086TIP3    H215223   6.519   2.394   0.519 -0.5134  0.9981 -0.8681
 5087TIP3   OH215224   5.322   4.138   3.706 -0.0852 -0.4186  0.1429
 5087TIP3    H115225   5.276   4.199   3.764  0.3440  0.5810 -0.5466
 5087TIP3    H215226   5.294   4.052   3.736 -2.3926  0.1330 -0.1947
 5088TIP3   OH215227   3.840   5.406   4.708 -0.3227 -0.2119  0.0124
 5088TIP3    H115228   3.799   5.365   4.784 -1.7822 -0.5268 -0.9120
 5088TIP3    H215229   3.877   5.333   4.658  0.6272 -0.0057  0.3866
 5089TIP3   OH215230   0.276   5.754   4.865 -0.0123 -0.1750  0.5829
 5089TIP3    H115231   0.234   5.745   4.950 -0.2816  0.4676  0.5195
 5089TIP3    H215232   0.357   5.703   4.873  1.0507  1.6318  1.9681
 5090TIP3   OH215233   1.609   0.662   5.116  0.8476  0.2799  0.5249
 5090TIP3    H115234   1.526   0.704   5.093  0.6821  0.6336  1.7060
 5090TIP3    H215235   1.656   0.656   5.033 -0.6167 -0.5378 -0.2949
 5091TIP3   OH215236   6.072   5.244   0.489 -0.2581 -0.0597 -0.3599
 5091TIP3    H115237   6.059   5.338   0.479 -0.7223 -0.1999 -1.1068
 5091TIP3    H215238   6.059   5.228   0.583  2.8964  1.0727  0.3956
 5092TIP3   OH215239   4.497   3.715   4.125  0.0586  0.1741  0.4670
 5092TIP3    H115240   4.524   3.794   4.172  0.0076 -1.0914  2.7951
 5092TIP3    H215241   4.562   3.650   4.149 -1.1362 -1.0755  0.4210
 5093TIP3   OH215242   5.133   4.546   5.828  0.6388  0.5555 -0.1118
 5093TIP3    H115243   5.073   4.579   5.894  0.7427  1.0975 -0.2788
 5093TIP3    H215244   5.202   4.613   5.823 -0.4496  1.6227 -2.2684
 5094TIP3   OH215245   5.795   1.271   3.885  0.3931  0.3123  0.0535
 5094TIP3    H115246   5.777   1.267   3.979 -0.7744  2.5305 -0.0131
 5094TIP3    H215247   5.799   1.179   3.858 -3.2875 -0.4974  1.5614
 5095TIP3   OH215248   4.980   4.868   0.862  0.1470 -0.1711 -0.3411
 5095TIP3    H115249   4.969   4.778   0.891 -1.4443  0.4315  1.0823
 5095TIP3    H215250   4.892   4.897   0.837  0.3960  1.3290  0.3670
 5096TIP3   OH215251   0.572   5.154   5.624  0.2670 -0.2110  0.2647
 5096TIP3    H115252   0.575   5.064   5.590  0.5183 -0.1459  0.1144
 5096TIP3    H215253   0.641   5.157   5.689 -1.3294 -0.8534  2.0865
 5097TIP3   OH215254   4.388   2.985   0.282 -0.5279 -0.7569  0.1010
 5097TIP3    H115255   4.448   2.914   0.259 -1.3420 -1.6821  0.7741
 5097TIP3    H215256   4.330   2.947   0.348 -2.1640 -0.0451 -0.8708
 5098TIP3   OH215257   5.192   3.159   0.434 -0.4836  0.0149 -0.2131
 5098TIP3    H115258   5.177   3.125   0.522  0.6995 -1.8810 -0.6837
 5098TIP3    H215259   5.264   3.106   0.400  1.2132  2.7794 -1.2190
 5099TIP3   OH215260   4.858   1.034   0.427 -0.1434 -0.3781  0.3113
 5099TIP3    H115261   4.878   1.112   0.480  0.1702  1.1263 -1.8858
 5099TIP3    H215262   4.944   0.995   0.409 -0.0973  0.0370 -0.3934
 5100TIP3   OH215263   6.935   0.861   2.620 -0.1443 -0.1724 -0.5589
 5100TIP3    H115264   6.871   0.913   2.572 -1.0031 -0.5466  0.1456
 5100TIP3    H215265   6.955   0.913   2.698 -0.0424 -0.3216 -0.4837
 5101TIP3   OH215266   2.350   2.527   1.177 -0.5529  0.1766  0.7794
 5101TIP3    H115267   2.439   2.542   1.209 -0.2129 -0.3756  0.1104
 5101TIP3    H215268   2.313   2.615   1.168  0.9006  0.6288 -1.6246
 5102TIP3   OH215269   0.467   1.142   0.023 -0.0749  0.5154  0.3539
 5102TIP3    H115270   0.549   1.093   0.022 -0.5972 -0.4125  1.2412
 5102TIP3    H215271   0.477   1.205   0.095 -0.6833 -0.6284  1.4920
 5103TIP3   OH215272   4.902   1.494   5.736  0.1155  0.6938 -0.2372
 5103TIP3    H115273   4.946   1.500   5.651 -0.7101  0.8328 -0.6643
 5103TIP3    H215274   4.901   1.584   5.768  0.4016  0.6454 -0.0843
 5104TIP3   OH215275   5.069   2.061   5.631  0.7405 -0.1106 -0.0993
 5104TIP3    H115276   5.114   1.990   5.676  0.4627 -0.1955  0.0485
 5104TIP3    H215277   5.037   2.118   5.701  1.7208  0.6390 -0.2344
 5105TIP3   OH215278   3.668   0.096   0.972 -0.0107  0.7385  0.0709
 5105TIP3    H115279   3.591   0.065   1.020 -1.0012  0.2770 -1.7239
 5105TIP3    H215280   3.679   0.187   1.000  0.8518 -0.1151  2.8244
 5106TIP3   OH215281   5.163   4.169   1.211 -0.6011 -0.4627 -0.3659
 5106TIP3    H115282   5.097   4.182   1.144  0.0740  2.0153 -0.6505
 5106TIP3    H215283   5.245   4.194   1.169  0.2584 -1.6304  0.5514
 5107TIP3   OH215284   6.226   4.664   4.164  0.0108  0.6003  0.2233
 5107TIP3    H115285   6.288   4.711   4.108  1.0202  1.2892  1.8411
 5107TIP3    H215286   6.141   4.678   4.122  0.6216  1.7223 -0.7152
 5108TIP3   OH215287   0.542   1.354   3.810  0.2264 -0.4603 -0.0944
 5108TIP3    H115288   0.571   1.442   3.786 -3.1269  0.0224 -3.0703
 5108TIP3    H215289   0.615   1.297   3.785  1.3756  1.1935 -0.6652
 5109TIP3   OH215290   5.273   4.276   5.208  0.3120  0.2105  0.0287
 5109TIP3    H115291   5.249   4.249   5.120  0.9671  0.0694 -0.1119
 5109TIP3    H215292   5.298   4.194   5.252  2.5336  0.5614 -0.4692
 5110TIP3   OH215293   1.494   4.832   2.501 -0.4982 -0.3405 -0.1461
 5110TIP3    H115294   1.532   4.915   2.528  0.1318 -0.8789  0.6851
 5110TIP3    H215295   1.400   4.847   2.498 -0.4839  0.0890  1.1254
 5111TIP3   OH215296   7.009   5.619   4.515 -0.5483  0.0543 -0.4035
 5111TIP3    H115297   6.925   5.574   4.516 -0.5998  0.0340  2.4286
 5111TIP3    H215298   6.987   5.712   4.513 -0.5917  0.0424 -0.4971
 5112TIP3   OH215299   5.021   0.617   0.631  0.4724  0.1425  0.3463
 5112TIP3    H115300   5.011   0.655   0.719 -2.5421  1.2875 -0.3469
 5112TIP3    H215301   4.934   0.581   0.612  1.2663 -0.7166 -1.9050
 5113TIP3   OH215302   1.080   5.841   1.067 -0.5558  0.5582 -0.1708
 5113TIP3    H115303   1.134   5.775   1.024 -1.6989  0.6137 -1.7623
 5113TIP3    H215304   1.143   5.892   1.119  0.5980 -0.6556 -0.3059
 5114TIP3   OH215305   6.155   1.197   2.270  0.6126 -0.3389 -0.1710
 5114TIP3    H115306   6.174   1.230   2.358  0.0285  0.3309 -0.2858
 5114TIP3    H215307   6.141   1.275   2.217 -1.2649 -0.7278 -0.3365
 5115TIP3   OH215308   4.543   1.087   1.074 -0.0743  0.5762  0.0449
 5115TIP3    H115309   4.581   1.062   0.990 -1.2215  3.9429 -1.6386
 5115TIP3    H215310   4.616   1.122   1.124  0.0043  2.1602 -1.1231
 5116TIP3   OH215311   3.751   4.145   4.520  0.1410  0.4850  0.4240
 5116TIP3    H115312   3.712   4.075   4.572 -1.4942  1.7773  1.0424
 5116TIP3    H215313   3.691   4.155   4.445 -0.4434  2.1046  1.0658
 5117TIP3   OH215314   6.940   5.704   0.918 -0.0363 -0.0003  0.3790
 5117TIP3    H115315   6.903   5.775   0.865 -0.0718  0.9062  1.5811
 5117TIP3    H215316   6.960   5.745   1.002  3.2364 -0.5448 -0.0054
 5118TIP3   OH215317   3.098   3.169   2.474 -0.1052 -0.3430 -0.3806
 5118TIP3    H115318   3.104   3.179   2.379 -0.5549 -1.5236 -0.5526
 5118TIP3    H215319   3.005   3.159   2.492 -0.0857  0.5008  0.2757
 5119TIP3   OH215320   1.985   1.387   0.105  0.1665 -0.3002  0.9309
 5119TIP3    H115321   1.912   1.445   0.088 -0.5872 -1.5153 -0.1632
 5119TIP3    H215322   1.948   1.299   0.101  1.7130 -0.9605  0.1503
 5120TIP3   OH215323   5.802   6.529   1.607  0.0867  0.1874  0.1469
 5120TIP3    H115324   5.791   6.516   1.701  0.8052  1.9176  0.5194
 5120TIP3    H215325   5.717   6.560   1.577  0.0162  0.1837  0.3415
 5121TIP3   OH215326   0.283   3.236   1.701  0.2597  0.2093 -0.1758
 5121TIP3    H115327   0.294   3.307   1.764 -0.7103 -0.8121  1.2039
 5121TIP3    H215328   0.364   3.236   1.650  1.1527  0.9687  1.1862
 5122TIP3   OH215329   6.956   6.341   4.014  0.0925  0.0853 -0.4796
 5122TIP3    H115330   6.954   6.251   3.981  1.5332 -0.6946  1.4129
 5122TIP3    H215331   7.023   6.385   3.961 -0.3077 -0.0651 -1.1161
 5123TIP3   OH215332   2.134   6.500   5.264  0.7296  0.2044  0.1218
 5123TIP3    H115333   2.078   6.422   5.266  1.0634 -0.0335  0.2626
 5123TIP3    H215334   2.222   6.465   5.249  0.9501  0.5223  0.6691
 5124TIP3   OH215335   4.219   2.485   1.063  0.4610 -0.0406  0.6766
 5124TIP3    H115336   4.214   2.412   1.124 -0.1521  0.4679  1.2533
 5124TIP3    H215337   4.143   2.476   1.006 -0.2757  0.7915  1.5031
 5125TIP3   OH215338   1.897   1.281   4.564  0.2056 -0.1459  0.4877
 5125TIP3    H115339   1.883   1.263   4.657  3.9607  0.5736  1.3341
 5125TIP3    H215340   1.927   1.372   4.561  1.0577 -0.4487 -1.2974
 5126TIP3   OH215341   5.781   6.472   4.609 -1.0472  0.3009 -0.5351
 5126TIP3    H115342   5.869   6.438   4.624 -1.0477  0.4795 -0.0998
 5126TIP3    H215343   5.786   6.520   4.526 -1.2752 -1.5385 -1.6628
 5127TIP3   OH215344   4.002   1.565   3.795 -0.0499 -0.0372  0.1352
 5127TIP3    H115345   4.031   1.505   3.726 -1.0349 -1.6287  1.0440
 5127TIP3    H215346   4.079   1.574   3.852  0.3749  0.2774 -0.4785
 5128TIP3   OH215347   1.913   0.355   4.903  0.0825  0.2388  0.6383
 5128TIP3    H115348   1.974   0.286   4.876 -1.3070 -0.8909  0.3105
 5128TIP3    H215349   1.961   0.436   4.887  0.0274 -0.3499 -3.7409
 5129TIP3   OH215350   0.120   6.756   3.399  0.5024  0.4690 -0.4878
 5129TIP3    H115351   0.046   6.723   3.350  1.3733 -1.7720 -0.4187
 5129TIP3    H215352   0.092   6.842   3.430 -1.8907 -0.1350 -0.7819
 5130TIP3   OH215353   4.299   4.768   5.158  0.5546 -0.1660 -0.5143
 5130TIP3    H115354   4.286   4.720   5.240  0.0949  1.2405  0.2701
 5130TIP3    H215355   4.363   4.836   5.180 -1.6012  1.9962 -0.5304
 5131TIP3   OH215356   1.874   2.174   0.849 -0.5143  0.2605  0.6215
 5131TIP3    H115357   1.795   2.134   0.813 -0.1253 -0.0083  0.0526
 5131TIP3    H215358   1.945   2.141   0.794 -0.1982  1.9159 -0.0227
 5132TIP3   OH215359   6.176   1.034   1.126  0.7128 -0.5524 -0.2678
 5132TIP3    H115360   6.100   1.091   1.115  1.0610 -0.0606 -0.1207
 5132TIP3    H215361   6.250   1.086   1.095  0.8274 -1.4812 -1.6368
 5133TIP3   OH215362   3.316   6.078   4.490 -0.4187  0.3583 -0.4248
 5133TIP3    H115363   3.357   6.135   4.425 -0.1233 -0.0495 -0.6004
 5133TIP3    H215364   3.252   6.027   4.440  0.0475 -0.1971 -0.4646
 5134TIP3   OH215365   1.627   4.600   2.391 -0.1225  0.3568 -0.5442
 5134TIP3    H115366   1.572   4.678   2.404  0.2223  0.5546 -0.2538
 5134TIP3    H215367   1.677   4.592   2.472  1.8069  1.4031 -1.5555
 5135TIP3   OH215368   2.166   6.093   0.621  0.2825  0.0344  0.0397
 5135TIP3    H115369   2.231   6.029   0.650  0.7773  0.6323  0.2797
 5135TIP3    H215370   2.086   6.042   0.608  0.1056 -0.3044  2.1926
 5136TIP3   OH215371   5.622   3.924   3.032  0.2062 -0.6485  0.2991
 5136TIP3    H115372   5.716   3.932   3.050  0.1601 -1.4574  0.9874
 5136TIP3    H215373   5.580   3.975   3.101  0.0524 -3.1660  2.2100
 5137TIP3   OH215374   1.819   6.171   4.525 -0.1990 -0.4576 -0.0345
 5137TIP3    H115375   1.732   6.187   4.487  0.2493  1.1561 -0.4916
 5137TIP3    H215376   1.801   6.125   4.607 -1.5388  0.3834  0.1847
 5138TIP3   OH215377   7.211   2.338   1.150 -0.6788  0.2812  0.0475
 5138TIP3    H115378   7.193   2.346   1.243  3.1839 -0.7964  1.0788
 5138TIP3    H215379   7.218   2.243   1.135  2.2841  0.4826 -0.3968
 5139TIP3   OH215380   0.332   3.595   4.262  0.0754  0.2586 -0.6538
 5139TIP3    H115381   0.274   3.632   4.328  0.8556  0.5175 -0.1003
 5139TIP3    H215382   0.348   3.668   4.201 -2.1976 -0.4713 -2.2985
 5140TIP3   OH215383   5.590   3.798   3.970  0.2940  0.8583  0.3603
 5140TIP3    H115384   5.645   3.753   3.906 -1.0719  2.9884 -2.4986
 5140TIP3    H215385   5.634   3.882   3.984 -0.2535  1.0348  1.0776
 5141TIP3   OH215386   4.972   2.787   3.615  0.1441 -0.0833  0.4265
 5141TIP3    H115387   5.012   2.862   3.572  0.5378 -1.1261 -1.0910
 5141TIP3    H215388   4.878   2.807   3.615  0.3010  0.6875  0.6291
 5142TIP3   OH215389   0.427   4.502   2.307  0.1305 -0.4371  0.0690
 5142TIP3    H115390   0.382   4.438   2.252 -0.9461 -0.2550  0.7116
 5142TIP3    H215391   0.369   4.577   2.308  2.0043  1.1944 -1.8452
 5143TIP3   OH215392   5.820   1.318   0.687 -0.9461  0.0635 -0.6421
 5143TIP3    H115393   5.785   1.260   0.754 -0.2246 -0.3406 -0.6100
 5143TIP3    H215394   5.880   1.264   0.637  0.1369  0.9110 -0.2985
 5144TIP3   OH215395   0.865   2.817   3.768  0.7129 -0.0291 -0.3551
 5144TIP3    H115396   0.830   2.906   3.755  0.0264 -0.0876  0.9043
 5144TIP3    H215397   0.887   2.814   3.861 -2.1283 -2.1074  0.3981
 5145TIP3   OH215398   1.815   4.746   4.999  0.2710  0.1089  0.4652
 5145TIP3    H115399   1.746   4.797   5.041  0.2497  0.4132  0.0622
 5145TIP3    H215400   1.884   4.741   5.065 -0.1314 -0.1920  0.8657
 5146TIP3   OH215401   5.494   3.891   2.150  0.2941  0.8328 -0.3629
 5146TIP3    H115402   5.411   3.843   2.148 -1.0133  2.7217  2.0820
 5146TIP3    H215403   5.538   3.861   2.229  0.6987  1.6735 -0.2498
 5147TIP3   OH215404   0.856   6.416   3.178 -0.0209 -0.0525 -0.1636
 5147TIP3    H115405   0.767   6.439   3.205  0.6465  2.0262  0.4455
 5147TIP3    H215406   0.855   6.428   3.083 -0.5011 -0.4404 -0.2118
 5148TIP3   OH215407   4.189   4.640   4.455 -0.8751 -0.0957 -0.6053
 5148TIP3    H115408   4.212   4.721   4.501 -1.6583 -0.4846  0.5273
 5148TIP3    H215409   4.095   4.648   4.439 -1.2680 -1.3923  0.8454
 5149TIP3   OH215410   1.682   2.634   2.169  0.3102 -0.3661  0.1245
 5149TIP3    H115411   1.683   2.672   2.257  0.2956 -0.8538  0.3379
 5149TIP3    H215412   1.759   2.671   2.127 -0.4280  0.9246 -0.1157
 5150TIP3   OH215413   2.065   2.958   3.023 -0.4928 -0.5786  0.3903
 5150TIP3    H115414   1.998   3.023   3.004 -1.1369 -1.9661 -2.8099
 5150TIP3    H215415   2.038   2.917   3.105 -2.6154  0.0736  0.0608
 5151TIP3   OH215416   4.375   4.535   4.660  0.7874  0.3945  0.0224
 5151TIP3    H115417   4.460   4.561   4.623  0.3220  2.3130  0.1709
 5151TIP3    H215418   4.315   4.604   4.630 -0.5848 -0.5802  0.4597
 5152TIP3   OH215419   1.761   1.298   1.208  0.2246  0.5288 -0.0380
 5152TIP3    H115420   1.675   1.334   1.227  0.3179  1.6279 -1.4902
 5152TIP3    H215421   1.818   1.375   1.202  1.1966 -0.1470  0.4008
 5153TIP3   OH215422   1.090   2.212   3.727 -0.3735  0.3378  0.2088
 5153TIP3    H115423   1.045   2.290   3.696 -2.7504 -1.3941 -0.9854
 5153TIP3    H215424   1.096   2.223   3.822 -0.9127  1.8135  0.0912
 5154TIP3   OH215425   6.616   1.014   2.668 -0.0212 -0.8629  0.2458
 5154TIP3    H115426   6.548   1.072   2.704  0.2766  0.2181 -0.8555
 5154TIP3    H215427   6.640   1.055   2.584  0.5618 -2.3270 -0.3272
 5155TIP3   OH215428   6.855   4.755   3.648  0.0464  0.0391 -0.3438
 5155TIP3    H115429   6.884   4.839   3.613  0.3512 -0.4623 -1.3298
 5155TIP3    H215430   6.813   4.777   3.731  1.1385  1.0402 -0.0277
 5156TIP3   OH215431   0.769   6.496   0.726 -0.3574  0.3612  0.3089
 5156TIP3    H115432   0.854   6.468   0.692 -0.4232 -1.2454  1.3689
 5156TIP3    H215433   0.790   6.560   0.794 -0.1561  2.1431 -1.3493
 5157TIP3   OH215434   6.690   2.599   1.708  0.2034  0.7804  0.0612
 5157TIP3    H115435   6.706   2.689   1.680  0.8457  0.5913 -0.2147
 5157TIP3    H215436   6.770   2.574   1.755 -0.5043  0.7923  1.3171
 5158TIP3   OH215437   1.260   3.100   1.953 -0.4759 -0.1007 -0.2967
 5158TIP3    H115438   1.308   3.166   1.903  0.8864 -0.0418  1.0286
 5158TIP3    H215439   1.173   3.098   1.913  0.0316  1.1753 -1.5299
 5159TIP3   OH215440   4.501   4.952   4.524 -0.4591  0.1061  0.3020
 5159TIP3    H115441   4.439   5.022   4.506  0.3952  1.6971  2.9874
 5159TIP3    H215442   4.506   4.903   4.442 -4.3360  0.5482 -0.3811
 5160TIP3   OH215443   5.190   1.673   0.941 -0.3353  0.1456  0.4565
 5160TIP3    H115444   5.256   1.640   0.879 -0.9567 -0.4979  0.1162
 5160TIP3    H215445   5.110   1.681   0.888 -1.5244 -2.6568  1.6224
 5161TIP3   OH215446   1.491   0.988   0.357 -0.0194  0.3946 -0.5968
 5161TIP3    H115447   1.551   0.943   0.297 -1.9809 -0.5301 -1.9628
 5161TIP3    H215448   1.448   0.917   0.405 -0.2839  1.0241  0.1213
 5162TIP3   OH215449   6.573   2.955   4.345  0.0959 -0.5750 -0.0103
 5162TIP3    H115450   6.558   2.959   4.251  1.4577 -0.3974 -0.2522
 5162TIP3    H215451   6.604   3.043   4.367  1.0616 -0.9866  0.3410
 5163TIP3   OH215452   4.387   0.498   0.865  0.0395 -0.2782  0.4771
 5163TIP3    H115453   4.366   0.418   0.912 -0.6848  0.2657  1.0843
 5163TIP3    H215454   4.483   0.504   0.871  0.3792 -2.2510 -1.4805
 5164TIP3   OH215455   0.612   5.101   1.320 -0.5702  0.1386 -0.3631
 5164TIP3    H115456   0.668   5.160   1.269  0.3981  0.5124  1.0681
 5164TIP3    H215457   0.635   5.120   1.411 -0.3370 -2.3617  0.1568
 5165TIP3   OH215458   5.295   2.097   1.204 -0.9982 -0.0491  0.3129
 5165TIP3    H115459   5.274   2.189   1.217 -0.5484  0.3927 -1.7421
 5165TIP3    H215460   5.305   2.062   1.293  0.5774  2.2996  1.1611
 5166TIP3   OH215461   4.820   2.108   4.694 -0.2079 -0.5371  0.3915
 5166TIP3    H115462   4.844   2.088   4.785 -2.0570  0.5764  1.1819
 5166TIP3    H215463   4.787   2.025   4.659 -1.4335 -0.5093  1.4248
 5167TIP3   OH215464   2.330   0.802   0.121 -0.3952  0.2846 -0.2780
 5167TIP3    H115465   2.313   0.862   0.193 -2.2732 -1.3702  0.7589
 5167TIP3    H215466   2.410   0.756   0.146 -2.4476 -2.2181  2.2592
 5168TIP3   OH215467   4.371   2.035   3.991 -0.4225  0.3413 -0.3577
 5168TIP3    H115468   4.281   2.062   3.973 -0.6257 -0.2093 -0.1866
 5168TIP3    H215469   4.372   1.941   3.973  0.0825  0.3163 -0.2159
 5169TIP3   OH215470   1.045   1.637   2.878 -0.2152 -0.1526  0.4010
 5169TIP3    H115471   0.982   1.580   2.921 -0.4650  0.2906  0.6349
 5169TIP3    H215472   1.097   1.674   2.950 -0.8773  0.8779  0.3583
 5170TIP3   OH215473   3.736   3.655   1.030 -0.1005  0.3979 -0.2190
 5170TIP3    H115474   3.677   3.714   0.983 -0.5982  0.3048  0.2805
 5170TIP3    H215475   3.741   3.691   1.119  0.8502  0.5868 -0.3307
 5171TIP3   OH215476   0.246   2.761   1.941 -0.2536  0.6153  0.2549
 5171TIP3    H115477   0.271   2.843   1.899  1.6525 -0.9750 -1.9450
 5171TIP3    H215478   0.169   2.731   1.892 -1.2559  1.2411  1.3728
 5172TIP3   OH215479   2.453   1.328   2.581  0.0822  0.1155  0.0507
 5172TIP3    H115480   2.389   1.397   2.563  0.3212  0.0196 -1.2411
 5172TIP3    H215481   2.467   1.333   2.676 -1.3423  0.5679  0.2645
 5173TIP3   OH215482   0.294   3.627   0.123 -0.0099  0.3926 -0.0476
 5173TIP3    H115483   0.202   3.638   0.146 -0.1664 -0.5620 -0.1862
 5173TIP3    H215484   0.294   3.624   0.027  0.5567  3.6383 -0.2633
 5174TIP3   OH215485   4.555   3.526   0.685  0.2805  0.7063 -0.0778
 5174TIP3    H115486   4.467   3.554   0.709 -0.0436  0.4521 -0.9468
 5174TIP3    H215487   4.555   3.524   0.589  1.2059  0.6267 -0.0870
 5175TIP3   OH215488   2.581   1.510   4.169  0.0296  0.3668 -0.0664
 5175TIP3    H115489   2.560   1.456   4.245  0.5503  1.0277  0.5633
 5175TIP3    H215490   2.617   1.449   4.105  0.5946 -0.0380  0.6264
 5176TIP3   OH215491   0.809   3.841   1.651 -0.0728  0.3719 -0.5553
 5176TIP3    H115492   0.717   3.815   1.651 -0.0703  0.3633 -0.1589
 5176TIP3    H215493   0.808   3.933   1.627 -0.2571  0.6080  0.3241
 5177TIP3   OH215494   5.649   4.196   4.442  0.5542 -0.1400  0.3623
 5177TIP3    H115495   5.645   4.141   4.363 -1.3784  1.1431 -0.5126
 5177TIP3    H215496   5.610   4.142   4.511 -1.3935  0.0556 -0.5039
 5178TIP3   OH215497   0.640   2.208   1.630  0.2801  0.3048 -0.0519
 5178TIP3    H115498   0.656   2.235   1.540  1.8320 -0.9436 -0.1929
 5178TIP3    H215499   0.625   2.290   1.677  1.2834  1.1396 -1.1146
 5179TIP3   OH215500   0.788   6.420   2.726  0.2170  0.1258  0.2724
 5179TIP3    H115501   0.794   6.349   2.661 -0.4360 -0.3771  0.7449
 5179TIP3    H215502   0.728   6.386   2.792  0.3294  0.9145  0.7866
 5180TIP3   OH215503   3.036   4.034   2.262 -0.1415  0.1138  0.2374
 5180TIP3    H115504   3.044   4.005   2.353 -0.1079  0.6531  0.4082
 5180TIP3    H215505   3.121   4.072   2.241 -0.5726  1.2083  0.4149
 5181TIP3   OH215506   1.915   3.436   1.708 -0.1652  0.4787  0.0388
 5181TIP3    H115507   1.992   3.488   1.687  0.6097  0.2313  2.0279
 5181TIP3    H215508   1.865   3.433   1.626  0.7672  2.5846 -0.6852
 5182TIP3   OH215509   5.317   6.229   3.271  0.0208 -0.0441 -0.4545
 5182TIP3    H115510   5.396   6.282   3.262  0.2106 -0.3304 -0.4769
 5182TIP3    H215511   5.344   6.153   3.321 -0.1419 -0.3494 -0.8276
 5183TIP3   OH215512   2.845   6.724   4.435 -0.0513  0.6174 -0.2342
 5183TIP3    H115513   2.756   6.690   4.419 -0.2487 -0.1160  2.0384
 5183TIP3    H215514   2.832   6.815   4.459 -0.5362 -0.0687  2.4393
 5184TIP3   OH215515   1.742   2.044   2.539 -0.0182 -0.0717 -0.8233
 5184TIP3    H115516   1.744   2.130   2.581  1.0306  0.7005 -2.3470
 5184TIP3    H215517   1.801   1.990   2.591 -0.7982  0.0566  0.2348
 5185TIP3   OH215518   5.505   4.200   4.916 -0.1917 -0.3576  0.0037
 5185TIP3    H115519   5.446   4.131   4.947 -0.5886  0.1915  0.5012
 5185TIP3    H215520   5.455   4.281   4.928  0.2172  0.0055 -0.6942
 5186TIP3   OH215521   3.369   0.712   5.130  0.4293 -0.0281 -0.4072
 5186TIP3    H115522   3.289   0.667   5.101  0.4437  0.0452 -0.5615
 5186TIP3    H215523   3.386   0.676   5.217 -1.4484  2.1164  0.9713
 5187TIP3   OH215524   6.465   2.566   2.842  0.2261 -0.0382  0.2512
 5187TIP3    H115525   6.527   2.603   2.779  2.3534 -1.9632  1.1205
 5187TIP3    H215526   6.515   2.556   2.923 -1.5207 -0.7279  1.2972
 5188TIP3   OH215527   3.304   0.368   4.472 -0.3956 -0.1717 -0.3994
 5188TIP3    H115528   3.314   0.338   4.381  0.7409  0.8767 -0.6427
 5188TIP3    H215529   3.357   0.307   4.523 -0.1020 -0.0622 -0.5757
 5189TIP3   OH215530   5.391   0.609   2.021 -0.1893  0.2183  0.5721
 5189TIP3    H115531   5.308   0.644   2.055 -0.4835  0.4074 -0.3192
 5189TIP3    H215532   5.395   0.640   1.930  0.0901 -1.1103  0.1135
 5190TIP3   OH215533   3.812   2.139   2.368  0.5708 -0.0018  0.0609
 5190TIP3    H115534   3.783   2.097   2.449  2.1141 -0.8293  0.2285
 5190TIP3    H215535   3.764   2.094   2.299  0.3028 -0.2727  0.4217
 5191TIP3   OH215536   0.544   2.828   3.875 -0.0080 -0.5068 -0.1253
 5191TIP3    H115537   0.615   2.891   3.865  0.5271 -1.0658  0.0723
 5191TIP3    H215538   0.523   2.831   3.969 -0.3224 -0.2578 -0.2042
 5192TIP3   OH215539   0.143   6.762   5.440  0.1019 -0.5020 -0.2538
 5192TIP3    H115540   0.125   6.747   5.533 -1.5678  0.5116 -0.3751
 5192TIP3    H215541   0.214   6.826   5.440 -1.3079  1.1731  0.4191
 5193TIP3   OH215542   2.574   3.973   2.124 -0.2879  0.0537  0.7439
 5193TIP3    H115543   2.664   4.002   2.141 -1.0449  2.4327  1.0527
 5193TIP3    H215544   2.585   3.895   2.070  1.9672 -0.6885  2.1031
 5194TIP3   OH215545   3.756   5.849   4.257  0.5208  0.1217  0.3511
 5194TIP3    H115546   3.675   5.811   4.222  0.8827 -0.3057 -0.0279
 5194TIP3    H215547   3.731   5.939   4.281 -0.7529 -0.7859  2.7157
 5195TIP3   OH215548   5.522   4.770   4.512  0.2810  0.3225 -0.5088
 5195TIP3    H115549   5.573   4.849   4.530  1.7747 -1.0688  2.0611
 5195TIP3    H215550   5.585   4.709   4.474  0.0546 -0.7188  0.7158
 5196TIP3   OH215551   4.573   0.471   2.339  0.3024  0.0380  0.0519
 5196TIP3    H115552   4.484   0.487   2.306  0.4718  1.8373  0.3630
 5196TIP3    H215553   4.627   0.465   2.261 -0.1404 -1.6520 -0.1672
 5197TIP3   OH215554   2.669   3.406   0.588  0.2667 -0.1057 -0.1231
 5197TIP3    H115555   2.651   3.375   0.499  3.0197  0.2627 -0.9063
 5197TIP3    H215556   2.745   3.464   0.578 -0.2632  1.1366  2.2970
 5198TIP3   OH215557   4.416   5.712   5.643 -0.7164 -0.7898  1.1006
 5198TIP3    H115558   4.348   5.764   5.600  1.1346  0.4157 -0.6019
 5198TIP3    H215559   4.471   5.777   5.687  1.2114 -1.3078 -0.4145
 5199TIP3   OH215560   5.915   3.206   4.385 -0.3839  0.2185 -0.6434
 5199TIP3    H115561   5.983   3.266   4.355 -0.1075  0.4805  0.4759
 5199TIP3    H215562   5.834   3.256   4.380 -0.4869 -0.0239 -1.7696
 5200TIP3   OH215563   1.772   2.117   1.112  0.7002 -0.2657 -0.2919
 5200TIP3    H115564   1.683   2.151   1.117  0.3913 -1.1659  0.5166
 5200TIP3    H215565   1.805   2.151   1.029 -0.4558 -0.0624 -0.6935
 5201TIP3   OH215566   4.386   6.507   0.371 -0.0052 -0.0102  0.1948
 5201TIP3    H115567   4.340   6.439   0.419 -0.0134 -0.7662 -0.8598
 5201TIP3    H215568   4.316   6.566   0.340 -0.0295  0.2654  0.7497
 5202TIP3   OH215569   1.296   3.603   0.980  0.0960 -0.1580  0.0744
 5202TIP3    H115570   1.211   3.561   0.968  0.4515 -1.2080  1.0519
 5202TIP3    H215571   1.277   3.686   1.024 -0.4743 -0.0863 -0.3069
 5203TIP3   OH215572   5.939   5.248   1.756  0.1779  0.2749  0.1489
 5203TIP3    H115573   6.009   5.283   1.700  1.3497 -1.9491  0.1140
 5203TIP3    H215574   5.982   5.180   1.808 -2.1772 -1.9912 -0.6921
 5204TIP3   OH215575   3.509   5.677   4.997 -0.2872 -0.0195  0.0767
 5204TIP3    H115576   3.499   5.589   4.962  0.2619  0.2595 -0.8102
 5204TIP3    H215577   3.429   5.722   4.972  0.4226  0.4114 -1.5884
 5205TIP3   OH215578   2.744   3.703   2.340 -0.1357 -0.2539 -0.0506
 5205TIP3    H115579   2.837   3.707   2.360 -0.4489  0.3372  1.4757
 5205TIP3    H215580   2.702   3.745   2.415 -1.5983  0.0622 -1.0053
 5206TIP3   OH215581   4.965   1.193   2.092  0.3065  0.0769 -0.0517
 5206TIP3    H115582   5.021   1.256   2.138  0.8835  0.9463 -1.8811
 5206TIP3    H215583   4.877   1.231   2.095  0.4488  0.4117 -0.1791
 5207TIP3   OH215584   5.306   0.885   4.691  0.5384  0.7407 -0.4512
 5207TIP3    H115585   5.244   0.900   4.762  0.6517 -0.0976 -0.1625
 5207TIP3    H215586   5.296   0.961   4.634 -0.2571  0.9526 -0.0473
 5208TIP3   OH215587   3.092   0.623   3.947 -0.0028  0.0040 -0.2287
 5208TIP3    H115588   3.006   0.643   3.912  0.2325  0.1752 -0.7142
 5208TIP3    H215589   3.096   0.671   4.030 -0.5297 -0.3447  0.0009
 5209TIP3   OH215590   0.533   5.818   3.000 -0.0843 -0.2340 -0.1693
 5209TIP3    H115591   0.495   5.731   2.984 -1.4561  0.2246  0.4769
 5209TIP3    H215592   0.627   5.806   2.985 -0.3304 -1.6744 -0.7183
 5210TIP3   OH215593   0.840   3.612   3.611 -0.3853 -0.5163 -0.1385
 5210TIP3    H115594   0.839   3.625   3.706  0.2956 -0.9510 -0.0698
 5210TIP3    H215595   0.919   3.656   3.581  0.0912 -1.4889 -0.3338
 5211TIP3   OH215596   5.054   1.783   3.560  0.2691 -0.1523  0.2619
 5211TIP3    H115597   5.029   1.875   3.562  0.0848 -0.1923 -0.1332
 5211TIP3    H215598   5.052   1.759   3.467 -0.4473 -0.7654  0.4225
 5212TIP3   OH215599   0.970   5.985   0.879 -0.0361  0.3895 -0.2735
 5212TIP3    H115600   0.882   5.967   0.911  0.1111  0.5278  0.2092
 5212TIP3    H215601   1.028   5.933   0.934  0.1948  0.3930 -0.5094
 5213TIP3   OH215602   1.221   2.804   1.326  0.2882  0.0556 -0.3750
 5213TIP3    H115603   1.272   2.884   1.343  0.3458  0.0481 -0.5146
 5213TIP3    H215604   1.207   2.804   1.232  0.1137  0.0054 -0.3481
 5214TIP3   OH215605   1.542   2.538   4.147  0.3758  0.4806 -0.7480
 5214TIP3    H115606   1.532   2.632   4.158  1.2071  0.5241 -0.3124
 5214TIP3    H215607   1.615   2.514   4.203 -0.6580 -0.6406  0.1862
 5215TIP3   OH215608   2.363   4.828   0.989 -0.2808 -0.1775  0.3442
 5215TIP3    H115609   2.298   4.895   1.009  0.5280  0.8128 -0.2286
 5215TIP3    H215610   2.441   4.877   0.964  0.5700 -1.3386  0.6322
 5216TIP3   OH215611   5.903   5.492   2.435 -0.1686  0.4414 -0.3424
 5216TIP3    H115612   5.875   5.584   2.432 -1.1478  0.1760  0.0458
 5216TIP3    H215613   5.997   5.496   2.448  0.0327  1.3966 -1.8357
 5217TIP3   OH215614   2.010   4.154   5.369 -0.0271  0.0751 -0.3633
 5217TIP3    H115615   2.074   4.114   5.310  0.4953  1.4243 -0.7442
 5217TIP3    H215616   2.036   4.246   5.374  0.2482 -0.0769  2.3810
 5218TIP3   OH215617   3.424   5.608   0.717  0.0662 -0.1144  0.8189
 5218TIP3    H115618   3.417   5.519   0.749  0.2454 -1.3063 -2.1032
 5218TIP3    H215619   3.485   5.602   0.643 -1.0525  2.1389 -0.3941
 5219TIP3   OH215620   5.427   1.371   0.128 -0.2089  0.3551 -0.1421
 5219TIP3    H115621   5.339   1.401   0.108 -0.8472 -0.2960  1.5204
 5219TIP3    H215622   5.418   1.277   0.141  0.5576  0.3989  0.8300
 5220TIP3   OH215623   6.271   1.075   5.606  0.2829 -0.0573 -0.0982
 5220TIP3    H115624   6.234   1.094   5.519  0.5065  0.4418 -0.0862
 5220TIP3    H215625   6.291   0.981   5.603  0.6623  0.0353 -0.7317
 5221TIP3   OH215626   3.335   1.048   0.039 -0.6019 -0.3184 -0.5241
 5221TIP3    H115627   3.328   1.056   0.134  1.0239  3.3899 -0.5318
 5221TIP3    H215628   3.417   1.001   0.025 -1.0305 -1.2067 -0.1224
 5222TIP3   OH215629   0.806   4.770   5.041 -0.3356  0.0733  0.6244
 5222TIP3    H115630   0.747   4.806   4.974 -0.3936 -0.1621  0.5509
 5222TIP3    H215631   0.781   4.678   5.049 -0.0816  0.0113  0.7048
 5223TIP3   OH215632   2.985   1.993   3.728 -0.3518 -0.1130  0.4512
 5223TIP3    H115633   3.028   2.037   3.655  0.4214  1.4263  1.7869
 5223TIP3    H215634   2.897   2.031   3.731  0.3613  1.5885  1.6981
 5224TIP3   OH215635   6.958   6.510   2.953 -0.0041  0.0693  0.0808
 5224TIP3    H115636   7.034   6.458   2.928  0.1798 -0.3634  1.4856
 5224TIP3    H215637   6.884   6.450   2.943 -0.0238  0.1283 -0.1370
 5225TIP3   OH215638   1.346   4.018   1.774 -0.4079 -0.2113  0.0942
 5225TIP3    H115639   1.280   4.007   1.842  0.3217  2.3130  1.3534
 5225TIP3    H215640   1.428   4.031   1.822  0.7943 -1.8699 -1.3956
 5226TIP3   OH215641   5.142   2.827   5.743 -0.1208  0.3306  0.1901
 5226TIP3    H115642   5.078   2.895   5.764 -0.1697  0.2601  0.2659
 5226TIP3    H215643   5.105   2.781   5.667 -0.1772  0.2673  0.2558
 5227TIP3   OH215644   0.285   1.000   2.467  0.2175  0.0658  0.2720
 5227TIP3    H115645   0.261   0.931   2.530  0.5506 -2.1854 -1.9291
 5227TIP3    H215646   0.320   0.953   2.392 -0.4690  2.6135 -1.7793
 5228TIP3   OH215647   5.551   4.689   1.681 -0.1370 -0.5350  0.1909
 5228TIP3    H115648   5.518   4.712   1.768  0.5594  2.1745 -0.1824
 5228TIP3    H215649   5.474   4.696   1.624 -0.2438 -0.6194  0.3240
 5229TIP3   OH215650   4.778   5.085   4.613  0.0042  0.5618 -0.3096
 5229TIP3    H115651   4.759   5.076   4.706 -0.7125  0.6408 -0.4420
 5229TIP3    H215652   4.737   5.009   4.572 -0.9628  1.2938 -0.7305
 5230TIP3   OH215653   2.049   5.096   5.302 -0.0335  0.5411  0.1295
 5230TIP3    H115654   2.079   5.084   5.212 -1.3041 -0.3508 -0.2169
 5230TIP3    H215655   2.122   5.138   5.347  1.4153 -0.8568 -0.8165
 5231TIP3   OH215656   2.555   1.726   3.280  0.5950 -0.7573 -0.2709
 5231TIP3    H115657   2.615   1.665   3.235  0.6163 -0.5055 -0.5870
 5231TIP3    H215658   2.555   1.804   3.225 -1.7172 -1.5147 -1.4984
 5232TIP3   OH215659   3.012   5.969   4.622  0.1976  0.1840 -0.1599
 5232TIP3    H115660   2.994   5.944   4.532  0.4126 -0.7162  0.0375
 5232TIP3    H215661   2.972   6.055   4.631  1.1401  0.7851 -1.4293
 5233TIP3   OH215662   6.647   0.334   2.261  0.2959 -0.2381 -0.7300
 5233TIP3    H115663   6.729   0.383   2.257  1.1687 -1.7367 -2.1087
 5233TIP3    H215664   6.674   0.242   2.265 -1.3173 -0.7318 -0.4690
 5234TIP3   OH215665   4.642   3.600   4.415 -0.2558 -0.2514 -0.0891
 5234TIP3    H115666   4.686   3.525   4.376 -0.5518 -0.5040  0.0585
 5234TIP3    H215667   4.683   3.676   4.373 -0.1793 -0.5035 -0.4809
 5235TIP3   OH215668   5.392   1.851   1.060  0.4225 -0.3411 -0.3247
 5235TIP3    H115669   5.309   1.816   1.028 -0.4266 -1.2859  2.5515
 5235TIP3    H215670   5.367   1.928   1.112  1.4440 -0.0410 -0.2674
 5236TIP3   OH215671   4.459   0.676   2.469  0.3504  0.1113  0.3801
 5236TIP3    H115672   4.519   0.615   2.426 -1.7625 -1.2700 -0.7953
 5236TIP3    H215673   4.456   0.648   2.560  0.1084 -0.9927  0.0453
 5237TIP3   OH215674   2.308   5.174   5.377  0.0810 -0.4874  0.3404
 5237TIP3    H115675   2.354   5.091   5.375  3.0371  0.9587  1.2828
 5237TIP3    H215676   2.357   5.230   5.317 -0.5347  1.1306  1.2787
 5238TIP3   OH215677   6.372   1.205   1.058 -0.0697  0.2763  0.2313
 5238TIP3    H115678   6.434   1.236   1.124 -0.5210 -0.9351  1.2808
 5238TIP3    H215679   6.421   1.143   1.005  0.1917  0.9773 -0.3751
 5239TIP3   OH215680   2.829   4.400   2.166 -0.1661  0.0971  0.1921
 5239TIP3    H115681   2.853   4.452   2.090 -0.4439  1.2131  0.8383
 5239TIP3    H215682   2.900   4.415   2.229  1.3911 -2.8467 -0.7221
 5240TIP3   OH215683   6.135   1.661   1.378  0.4100 -0.0517  0.3919
 5240TIP3    H115684   6.108   1.656   1.287  1.1946  1.6997  0.0180
 5240TIP3    H215685   6.231   1.661   1.375  0.4596 -1.4581  1.3398
 5241TIP3   OH215686   1.898   4.545   0.633 -0.3939 -0.2084  0.2709
 5241TIP3    H115687   1.974   4.507   0.589 -0.3908  0.4814 -0.3544
 5241TIP3    H215688   1.929   4.632   0.661 -1.5078  0.9475 -1.8159
 5242TIP3   OH215689   4.615   1.738   4.069 -0.4160  0.5748  0.1618
 5242TIP3    H115690   4.630   1.806   4.003 -0.5997  0.5878  0.1310
 5242TIP3    H215691   4.646   1.657   4.028 -0.6500  0.5615  0.0067
 5243TIP3   OH215692   2.646   0.830   5.230 -0.1261  0.0212 -0.6891
 5243TIP3    H115693   2.616   0.920   5.217 -1.1159 -0.3186 -0.8217
 5243TIP3    H215694   2.620   0.810   5.320 -1.1042 -0.5657 -1.0864
 5244TIP3   OH215695   7.206   5.736   3.505  0.5321 -0.8214 -0.1051
 5244TIP3    H115696   7.112   5.717   3.510  0.1883  0.4032 -1.2663
 5244TIP3    H215697   7.231   5.757   3.595 -1.2556  2.8023 -0.2754
 5245TIP3   OH215698   1.349   2.312   1.894  0.1270 -0.0709  0.0907
 5245TIP3    H115699   1.350   2.408   1.902 -0.4814  0.1086 -1.5333
 5245TIP3    H215700   1.313   2.296   1.807  0.5267 -1.7851  0.2086
 5246TIP3   OH215701   1.883   1.028   2.137 -0.0306  0.0383  0.5043
 5246TIP3    H115702   1.817   0.996   2.076 -0.4997 -1.3010  1.6454
 5246TIP3    H215703   1.967   1.005   2.097 -0.1631  2.2994 -1.2462
 5247TIP3   OH215704   5.579   5.440   2.180 -0.2706 -0.1327  0.1748
 5247TIP3    H115705   5.669   5.409   2.177 -0.6263 -1.1046 -1.3128
 5247TIP3    H215706   5.587   5.535   2.174  0.6247 -0.2744 -1.3425
 5248TIP3   OH215707   6.808   1.958   0.764  0.0800 -0.3721  0.5333
 5248TIP3    H115708   6.858   1.877   0.774  0.2321 -0.3173  0.2252
 5248TIP3    H215709   6.716   1.932   0.775  0.1277 -0.5867  0.4151
 5249TIP3   OH215710   4.088   6.770   1.316 -0.5220  0.1546 -0.3408
 5249TIP3    H115711   4.127   6.728   1.392  1.6951  0.0943 -1.4297
 5249TIP3    H215712   4.117   6.861   1.321  0.5710 -0.0917 -1.6371
 5250TIP3   OH215713   1.109   5.580   1.954  0.0365  0.0895 -0.2832
 5250TIP3    H115714   1.073   5.646   1.895 -0.9312  0.0620  0.2545
 5250TIP3    H215715   1.173   5.627   2.008 -0.7883  0.6485  0.2299
 5251TIP3   OH215716   2.528   3.261   5.475 -0.1735  0.3425 -0.5661
 5251TIP3    H115717   2.611   3.309   5.466 -0.1023  0.5925  1.0758
 5251TIP3    H215718   2.462   3.330   5.477 -0.5040  0.1205 -2.3419
 5252TIP3   OH215719   2.272   5.410   3.563 -0.3674 -0.7757  0.0715
 5252TIP3    H115720   2.210   5.459   3.509 -0.8847  0.2864  1.5774
 5252TIP3    H215721   2.248   5.318   3.551 -0.8361 -0.5211 -1.0338
 5253TIP3   OH215722   1.381   1.612   4.879  0.2033  0.4126 -0.2303
 5253TIP3    H115723   1.399   1.706   4.890 -0.0160  0.2220  2.3034
 5253TIP3    H215724   1.423   1.571   4.954 -0.6848 -1.4111 -0.6757
 5254TIP3   OH215725   0.815   1.347   0.958  0.2729  0.1078 -0.0721
 5254TIP3    H115726   0.782   1.436   0.972  2.3908  0.8205  0.8545
 5254TIP3    H215727   0.864   1.352   0.876 -0.5603 -0.5454 -0.6357
 5255TIP3   OH215728   2.009   0.756   2.814  0.2181  0.0224 -0.0648
 5255TIP3    H115729   1.927   0.805   2.807 -1.0730 -1.6247  2.1491
 5255TIP3    H215730   2.057   0.801   2.885  0.6973  0.2414 -0.5202
 5256TIP3   OH215731   4.794   4.124   4.251  0.2339  0.0337  0.5521
 5256TIP3    H115732   4.718   4.164   4.209  0.7986  0.4955 -0.0527
 5256TIP3    H215733   4.818   4.186   4.320 -1.2554 -1.1615  2.2352
 5257TIP3   OH215734  -0.027   1.646   1.040  0.0043  0.5273  0.5610
 5257TIP3    H115735   0.054   1.637   1.090  0.5530 -0.5393 -0.4522
 5257TIP3    H215736   0.003   1.654   0.949 -1.0375 -1.3522 -0.0057
 5258TIP3   OH215737   1.984   4.642   1.917  0.7026 -0.1494 -0.3390
 5258TIP3    H115738   2.003   4.713   1.856  2.8061  0.1256  0.5128
 5258TIP3    H215739   1.906   4.670   1.964  0.1700  0.5114 -1.5825
 5259TIP3   OH215740   0.697   3.015   4.749  0.0300  0.4738 -0.1123
 5259TIP3    H115741   0.627   3.046   4.691  0.6227  1.6023 -0.2633
 5259TIP3    H215742   0.669   3.042   4.837 -1.3255 -2.0620  0.3270
 5260TIP3   OH215743   0.680   4.758   3.368 -0.2813  0.5825 -0.1149
 5260TIP3    H115744   0.660   4.734   3.277 -0.2945  1.7601 -0.4330
 5260TIP3    H215745   0.693   4.853   3.366  0.3909  0.5353  0.9956
 5261TIP3   OH215746   4.973   2.686   1.589  0.2097  0.1457  0.3485
 5261TIP3    H115747   5.061   2.648   1.593  0.7526  1.1430 -1.4377
 5261TIP3    H215748   4.915   2.610   1.579  1.0115 -0.4287 -0.0531
 5262TIP3   OH215749   6.888   1.292   1.163 -0.0071 -0.1371  0.4034
 5262TIP3    H115750   6.939   1.259   1.089  0.0139  1.0959 -0.1625
 5262TIP3    H215751   6.936   1.370   1.192 -0.9072  0.3432  0.6505
 5263TIP3   OH215752   0.777   2.806   4.982 -0.2984  0.2659 -0.0474
 5263TIP3    H115753   0.834   2.812   4.906 -1.3597  2.2006 -0.7638
 5263TIP3    H215754   0.835   2.822   5.057  0.5729 -0.6701 -0.4943
 5264TIP3   OH215755   1.569   1.216   1.570  0.0423  0.3797  0.1273
 5264TIP3    H115756   1.559   1.288   1.508 -2.1886 -2.5026 -3.3651
 5264TIP3    H215757   1.488   1.216   1.621  0.1935  0.5297  0.3692
 5265TIP3   OH215758   6.044   6.324   4.617  0.6208  0.1865 -0.4674
 5265TIP3    H115759   6.105   6.329   4.543  0.2370  2.8975 -0.7007
 5265TIP3    H215760   6.092   6.363   4.690  0.7550 -1.8632  0.6118
 5266TIP3   OH215761   3.893   5.107   0.929  0.1948 -0.1339 -0.2072
 5266TIP3    H115762   3.935   5.104   1.015  0.8746 -0.0607 -0.5271
 5266TIP3    H215763   3.958   5.070   0.869 -0.0494  0.3413 -0.7765
 5267TIP3   OH215764   3.580   0.960   1.640 -0.4733  0.0414  0.3159
 5267TIP3    H115765   3.490   0.993   1.649  0.4268  2.5494  0.8949
 5267TIP3    H215766   3.634   1.039   1.633  1.9175 -1.3130  2.0582
 5268TIP3   OH215767   3.061   0.157   4.631 -0.2416 -0.1169 -0.0115
 5268TIP3    H115768   3.133   0.209   4.666  0.5210 -0.6365 -0.7633
 5268TIP3    H215769   3.030   0.207   4.555  0.4655 -0.7253 -0.7100
 5269TIP3   OH215770   0.942   5.865   3.542  0.0085  0.2754  0.0565
 5269TIP3    H115771   0.907   5.917   3.469  0.6764 -0.3190 -0.6946
 5269TIP3    H215772   0.934   5.774   3.512 -0.0723  0.0073  0.8870
 5270TIP3   OH215773   3.458   5.862   0.164  0.0667  0.1118 -0.2879
 5270TIP3    H115774   3.525   5.867   0.097  0.2819 -0.3870 -0.1102
 5270TIP3    H215775   3.494   5.805   0.232  0.1314  1.1353  0.5740
 5271TIP3   OH215776   1.608   3.409   0.208  0.1505  0.4246 -0.5540
 5271TIP3    H115777   1.630   3.337   0.268  0.2279  1.0605  0.1897
 5271TIP3    H215778   1.682   3.413   0.147  0.0709 -0.2284 -0.7012
 5272TIP3   OH215779   4.090   2.694   1.246 -0.1058 -0.3673  0.0680
 5272TIP3    H115780   4.014   2.640   1.267 -0.0938 -0.7500 -0.8118
 5272TIP3    H215781   4.125   2.656   1.165 -0.0125  0.8679 -0.4989
 5273TIP3   OH215782   1.656   3.388   1.782  0.8082 -0.0474  0.3988
 5273TIP3    H115783   1.663   3.298   1.751  0.2686 -0.1032  0.4368
 5273TIP3    H215784   1.746   3.421   1.778  0.8266 -0.1855 -0.8388
 5274TIP3   OH215785   5.363   3.056   4.804 -0.1890  0.2705 -0.0272
 5274TIP3    H115786   5.371   3.017   4.891 -2.1656  1.9847  0.9945
 5274TIP3    H215787   5.307   2.996   4.755  0.7620 -0.5924 -0.0904
 5275TIP3   OH215788   2.280   2.005   2.894  0.2236  0.0115  0.8090
 5275TIP3    H115789   2.311   2.022   2.805 -1.1217  0.0059  0.3174
 5275TIP3    H215790   2.306   2.083   2.943 -0.3962  0.7397  0.0286
 5276TIP3   OH215791   1.569   3.599   2.076 -0.1589 -0.3184 -0.1975
 5276TIP3    H115792   1.620   3.520   2.090  0.3793 -0.4132 -2.3650
 5276TIP3    H215793   1.479   3.567   2.062 -0.3276 -0.3606  0.8889
 5277TIP3   OH215794   0.117   3.942   2.642 -0.0500  0.0852  0.7031
 5277TIP3    H115795   0.094   3.996   2.718 -1.9521  0.6788 -0.2465
 5277TIP3    H215796   0.142   3.857   2.680 -1.8651  0.0600  1.9787
 5278TIP3   OH215797   5.421   1.107   5.572  0.0616  0.3138 -0.5096
 5278TIP3    H115798   5.512   1.136   5.574  0.3274 -0.5310  0.4649
 5278TIP3    H215799   5.426   1.011   5.569 -0.8014  0.2759 -1.2882
 5279TIP3   OH215800   5.887   0.242   3.744 -0.1484  0.4903  0.3120
 5279TIP3    H115801   5.861   0.249   3.836  1.2453 -1.2783  0.9000
 5279TIP3    H215802   5.904   0.149   3.731  0.6297  0.8411 -1.4728
 5280TIP3   OH215803   6.917   4.254   0.546  0.3746 -0.6230  0.0645
 5280TIP3    H115804   7.000   4.211   0.567  1.3680  1.2409  0.1163
 5280TIP3    H215805   6.910   4.325   0.610  0.6521  1.6253 -2.2606
 5281TIP3   OH215806   1.709   2.075   4.593  0.6261  0.3191  0.4368
 5281TIP3    H115807   1.627   2.115   4.624  0.0203 -0.8755  0.4282
 5281TIP3    H215808   1.681   1.995   4.549  1.5062  1.6211 -2.7758
 5282TIP3   OH215809   4.325   5.957   3.876 -0.5645  0.4198 -0.0785
 5282TIP3    H115810   4.286   6.035   3.838 -0.4833  0.0400 -0.9773
 5282TIP3    H215811   4.375   5.989   3.951 -0.8082  1.1804 -0.2313
 5283TIP3   OH215812   2.348   3.508   0.458 -0.1753 -0.0663  0.1995
 5283TIP3    H115813   2.350   3.424   0.503  0.7157 -0.6603 -0.9069
 5283TIP3    H215814   2.433   3.548   0.477 -0.5623  0.5648  0.6589
 5284TIP3   OH215815   3.226   4.372   0.608 -0.3917  0.3736 -0.2191
 5284TIP3    H115816   3.203   4.462   0.631 -1.1555  0.4085 -1.0648
 5284TIP3    H215817   3.242   4.329   0.693 -1.4073  0.9449  0.2881
 5285TIP3   OH215818   4.281   5.769   0.299  0.2103 -0.1222 -0.1372
 5285TIP3    H115819   4.193   5.764   0.335  0.6367 -0.9147  0.8691
 5285TIP3    H215820   4.306   5.678   0.283  1.6188 -0.1349  1.6818
 5286TIP3   OH215821   3.483   3.569   1.440  0.4697 -0.5313 -0.0475
 5286TIP3    H115822   3.398   3.555   1.398  0.3319 -0.8007  0.3201
 5286TIP3    H215823   3.483   3.510   1.515  1.5788 -1.6512 -0.8972
 5287TIP3   OH215824   5.499   4.206   0.276  0.1350  0.1025  0.2860
 5287TIP3    H115825   5.441   4.220   0.201 -1.6070  2.5217  1.9201
 5287TIP3    H215826   5.474   4.121   0.310 -1.7421  0.5966  0.2549
 5288TIP3   OH215827   1.496   2.939   0.295 -0.2938  0.3923 -0.7089
 5288TIP3    H115828   1.529   2.851   0.315  1.1476  1.3523  1.6323
 5288TIP3    H215829   1.404   2.937   0.323 -0.2973 -0.3889 -0.7571
 5289TIP3   OH215830   3.512   6.674   4.015  0.8032  0.1830 -0.4288
 5289TIP3    H115831   3.563   6.689   4.094 -0.8394  1.0207  0.5425
 5289TIP3    H215832   3.421   6.679   4.044  0.1272 -1.5599 -2.0187
 5290TIP3   OH215833   3.797   6.788   3.573 -0.6582  0.2520 -0.3972
 5290TIP3    H115834   3.744   6.755   3.646  0.8753  1.7303  1.5337
 5290TIP3    H215835   3.802   6.715   3.511 -1.6348 -1.2650  1.2217
 5291TIP3   OH215836   1.959   5.332   5.622  0.6178  0.1489  0.3380
 5291TIP3    H115837   1.978   5.370   5.708  0.7592 -0.5458  0.6178
 5291TIP3    H215838   1.970   5.238   5.634 -0.6115 -0.0757 -0.1147
 5292TIP3   OH215839   0.102   0.151   2.957 -0.1727 -0.1804 -0.3507
 5292TIP3    H115840   0.028   0.191   3.002  0.6160 -0.3618  1.1682
 5292TIP3    H215841   0.089   0.175   2.865 -1.3431  0.9923  0.0750
 5293TIP3   OH215842   4.062   4.779   5.772 -0.2231  0.1810 -0.1244
 5293TIP3    H115843   3.973   4.781   5.736 -0.4237  0.1337  0.3726
 5293TIP3    H215844   4.072   4.690   5.805  0.5134 -0.2531 -1.4346
 5294TIP3   OH215845   3.067   0.471   2.981  0.2040  0.0743  0.6475
 5294TIP3    H115846   3.091   0.403   2.917 -0.4338  0.2163  0.2445
 5294TIP3    H215847   2.996   0.431   3.031  0.7886 -0.0853  1.3673
 5295TIP3   OH215848   2.948   2.340   2.137  0.0105 -0.0470  0.1432
 5295TIP3    H115849   2.890   2.323   2.211  0.4709  0.3974  0.6173
 5295TIP3    H215850   2.889   2.349   2.062 -0.3868 -1.5635  0.2448
 5296TIP3   OH215851   0.626   6.358   1.857 -0.3343  0.1263  0.6159
 5296TIP3    H115852   0.612   6.266   1.879 -2.8866  0.4678  0.7296
 5296TIP3    H215853   0.683   6.356   1.780 -0.0877 -1.5191  0.8194
 5297TIP3   OH215854   1.897   5.173   1.933  0.5862 -0.2260 -0.4262
 5297TIP3    H115855   1.981   5.130   1.944  0.3083 -0.3186  2.1279
 5297TIP3    H215856   1.879   5.169   1.839  2.2947 -2.3177 -0.7389
 5298TIP3   OH215857   7.066   4.119   1.697 -0.8334  0.1392 -0.2730
 5298TIP3    H115858   6.992   4.163   1.655 -1.1302 -1.1234 -1.1556
 5298TIP3    H215859   7.026   4.063   1.764 -0.4807  1.0394  0.7093
 5299TIP3   OH215860   2.402   5.105   1.415  0.2942 -0.0223 -0.0067
 5299TIP3    H115861   2.396   5.015   1.384  0.6770  0.0289 -0.2291
 5299TIP3    H215862   2.490   5.133   1.392  1.0899 -0.4108  2.3482
 5300TIP3   OH215863   5.162   1.655   3.838 -0.4244  0.1659 -0.1531
 5300TIP3    H115864   5.218   1.607   3.777 -1.0474 -3.0605  1.5850
 5300TIP3    H215865   5.073   1.640   3.805 -0.8746 -2.6487  2.0067
 5301TIP3   OH215866   4.117   3.181   5.099 -0.0276 -0.2302 -0.0052
 5301TIP3    H115867   4.203   3.146   5.076 -0.5518 -0.3577 -2.0574
 5301TIP3    H215868   4.088   3.226   5.019 -2.0548 -0.6379  0.4453
 5302TIP3   OH215869   3.906   5.727   1.202 -0.1105 -0.1891  0.1848
 5302TIP3    H115870   3.929   5.811   1.163  0.5027  0.1220  1.1905
 5302TIP3    H215871   3.904   5.666   1.129 -1.1797  0.8095 -0.6616
 5303TIP3   OH215872   6.834   3.865   5.574 -0.6090 -0.1655 -0.6517
 5303TIP3    H115873   6.878   3.946   5.599 -2.7746  0.3691  1.7729
 5303TIP3    H215874   6.752   3.893   5.534 -1.8074 -1.1077  1.0567
 5304TIP3   OH215875   1.095   5.434   4.927  0.0179 -0.7312 -0.4930
 5304TIP3    H115876   1.119   5.480   5.008  0.5100 -2.5691  0.4674
 5304TIP3    H215877   1.046   5.358   4.957  0.9609 -1.9216 -1.8553
 5305TIP3   OH215878   4.155   0.012   5.547 -0.1072  0.1556 -0.2035
 5305TIP3    H115879   4.132   0.090   5.597 -0.3611 -0.8032  1.2436
 5305TIP3    H215880   4.218   0.043   5.482 -1.3335  1.8207 -0.6723
 5306TIP3   OH215881   2.653   4.844   3.179 -0.2293  0.6258  0.2581
 5306TIP3    H115882   2.636   4.767   3.233 -0.3304  0.7776  0.4455
 5306TIP3    H215883   2.742   4.832   3.146 -1.4330 -1.3586 -2.6603
 5307TIP3   OH215884   4.393   3.126   2.680  0.4965 -0.0967  0.6424
 5307TIP3    H115885   4.331   3.057   2.659 -1.8332  1.9545  0.3854
 5307TIP3    H215886   4.477   3.093   2.649 -0.8329 -1.9997 -1.1975
 5308TIP3   OH215887   2.265   5.085   3.868 -0.2759 -0.3293  0.4774
 5308TIP3    H115888   2.345   5.033   3.870 -0.4539 -0.7228 -1.0730
 5308TIP3    H215889   2.274   5.146   3.941  1.1150 -0.8250  0.7504
 5309TIP3   OH215890   4.346   2.944   1.866 -0.1263 -0.0866  0.3423
 5309TIP3    H115891   4.392   2.901   1.793  0.7751 -1.0482  1.4330
 5309TIP3    H215892   4.259   2.904   1.866 -0.0398 -0.2836 -0.0452
 5310TIP3   OH215893   0.612   3.671   4.539 -0.2349  0.1683 -0.5123
 5310TIP3    H115894   0.615   3.766   4.527 -1.2756 -0.0811 -3.4922
 5310TIP3    H215895   0.704   3.645   4.544  0.0579  1.3589  1.1116
 5311TIP3   OH215896   4.586   1.758   2.287  0.1827 -0.0706 -0.1357
 5311TIP3    H115897   4.513   1.709   2.248 -0.5608  0.4813  0.5348
 5311TIP3    H215898   4.628   1.695   2.345 -0.8903  0.1027  0.8743
 5312TIP3   OH215899   3.866   1.422   4.034 -0.2972  0.1555  0.3433
 5312TIP3    H115900   3.926   1.458   3.970  0.0609  0.3455  0.7849
 5312TIP3    H215901   3.818   1.354   3.986  0.3923 -0.1229  0.0398
 5313TIP3   OH215902   1.291   4.724   5.831  0.3600  0.3420  0.6046
 5313TIP3    H115903   1.293   4.799   5.772 -1.0050 -1.3303 -1.7149
 5313TIP3    H215904   1.324   4.651   5.779 -2.0420 -1.4646  1.3979
 5314TIP3   OH215905   4.745   0.713   2.819 -0.5102  0.0452 -0.3283
 5314TIP3    H115906   4.658   0.718   2.857  0.6913  0.9232  2.6077
 5314TIP3    H215907   4.798   0.668   2.885  1.6849  1.4336 -0.9985
 5315TIP3   OH215908   6.059   0.703   2.309 -0.4559 -0.0251 -0.6484
 5315TIP3    H115909   6.068   0.608   2.296 -0.7864 -0.1200 -0.2059
 5315TIP3    H215910   5.997   0.730   2.241 -2.5840 -0.6098  0.9479
 5316TIP3   OH215911   1.963   1.281   5.246  0.1866 -0.3713 -1.1186
 5316TIP3    H115912   2.023   1.308   5.177 -1.0840  0.0472 -2.0917
 5316TIP3    H215913   1.986   1.189   5.263  0.0689 -0.7005 -2.6022
 5317TIP3   OH215914   3.583   2.777   2.556  0.3407 -0.0977 -0.3459
 5317TIP3    H115915   3.492   2.784   2.526 -0.8122 -2.1714  2.2853
 5317TIP3    H215916   3.609   2.689   2.529  1.5782  0.4402 -0.9725
 5318TIP3   OH215917   6.351   1.153   5.850  0.5071 -0.0962 -0.0174
 5318TIP3    H115918   6.314   1.160   5.762 -0.4416 -0.8799  0.2957
 5318TIP3    H215919   6.397   1.069   5.850 -0.7976 -0.8544  0.6615
 5319TIP3   OH215920   2.741   2.676   2.917 -0.2386  0.5408 -0.5545
 5319TIP3    H115921   2.828   2.640   2.900 -0.4786 -0.5602  0.3894
 5319TIP3    H215922   2.756   2.749   2.977  0.0044  0.0712 -0.0379
 5320TIP3   OH215923   4.714   0.878   1.928 -0.8474 -0.1629 -0.2072
 5320TIP3    H115924   4.647   0.898   1.993  0.8129  0.2171  1.4825
 5320TIP3    H215925   4.737   0.787   1.945  1.4079  0.6417  1.5997
 5321TIP3   OH215926   3.909   0.422   0.063  0.4025 -0.2186  0.4730
 5321TIP3    H115927   3.928   0.361   0.134  2.3788  0.0129  0.2011
 5321TIP3    H215928   3.961   0.500   0.084 -0.7359  0.7227 -0.0820
 5322TIP3   OH215929   3.343   1.592   1.177  0.2180 -0.1996 -0.5837
 5322TIP3    H115930   3.433   1.617   1.197  0.7657 -1.2401 -1.6044
 5322TIP3    H215931   3.344   1.496   1.181 -1.4092 -0.1967  1.6109
 5323TIP3   OH215932   4.681   2.421   2.781  0.4584 -0.8266 -0.6512
 5323TIP3    H115933   4.686   2.332   2.815 -0.9728 -0.5053  0.5122
 5323TIP3    H215934   4.590   2.430   2.752  0.4214  0.4332 -0.2008
 5324TIP3   OH215935   0.785   5.772   5.785 -0.0121 -0.4778 -0.2056
 5324TIP3    H115936   0.860   5.737   5.736  0.8001 -1.7380  1.7960
 5324TIP3    H215937   0.709   5.729   5.746  0.5067 -0.8080 -0.8891
 5325TIP3   OH215938   5.149   1.523   4.144  0.3133  0.2237 -0.0746
 5325TIP3    H115939   5.196   1.555   4.067 -0.0635 -1.9289 -1.2678
 5325TIP3    H215940   5.058   1.516   4.116 -0.0502  0.5369  0.9672
 5326TIP3   OH215941   1.013   1.989   0.618  0.4977  0.0913  0.1859
 5326TIP3    H115942   1.091   1.936   0.635  0.1763 -0.8036 -1.0228
 5326TIP3    H215943   0.950   1.960   0.684  0.6185 -0.3999  0.0877
 5327TIP3   OH215944   4.448   5.094   3.265  0.1826 -0.3042 -0.4160
 5327TIP3    H115945   4.414   5.180   3.290  1.2388 -0.1377  0.5384
 5327TIP3    H215946   4.425   5.085   3.173  0.4650  1.2107 -0.6645
 5328TIP3   OH215947   2.542   5.293   1.859  0.1143  0.9186  0.6063
 5328TIP3    H115948   2.510   5.205   1.882 -0.7331  0.8309 -0.7914
 5328TIP3    H215949   2.575   5.283   1.770  1.8758  1.5844  1.1493
 5329TIP3   OH215950   1.810   0.841   4.698 -0.1703 -0.1079  0.0971
 5329TIP3    H115951   1.890   0.873   4.740  0.7571 -0.1700 -1.5342
 5329TIP3    H215952   1.840   0.797   4.619 -1.8626  0.5079 -0.9591
 5330TIP3   OH215953   1.941   6.609   3.297 -0.1574  0.3727  0.0494
 5330TIP3    H115954   2.005   6.636   3.363  1.0531 -0.8966 -0.5622
 5330TIP3    H215955   1.970   6.522   3.269 -2.1562 -0.2521 -0.2528
 5331TIP3   OH215956   4.310   2.160   0.927  0.7116 -0.1694  0.0420
 5331TIP3    H115957   4.244   2.147   0.995  1.5147 -0.2012  0.8366
 5331TIP3    H215958   4.284   2.102   0.856 -1.0085  0.9935 -0.3423
 5332TIP3   OH215959   2.245   0.076   0.658  0.0364  0.0917  0.4758
 5332TIP3    H115960   2.195   0.070   0.577 -1.4792  0.4798  1.3330
 5332TIP3    H215961   2.179   0.086   0.726  1.3140  3.5631  1.4325
 5333TIP3   OH215962   3.991   0.883   0.751  0.0354 -0.5043  0.2597
 5333TIP3    H115963   3.979   0.831   0.830 -0.7481  0.4809  0.8008
 5333TIP3    H215964   4.010   0.971   0.782 -1.7266  0.2301 -0.6011
 5334TIP3   OH215965   5.195   1.030   1.539 -0.4955 -0.2360  0.6828
 5334TIP3    H115966   5.163   1.119   1.523 -0.7195 -0.0241  2.1363
 5334TIP3    H215967   5.121   0.974   1.516  0.2219 -0.2302 -1.9636
 5335TIP3   OH215968   3.997   1.837   5.468  0.1476 -0.6396  0.1560
 5335TIP3    H115969   4.084   1.797   5.473 -0.5533 -2.2962 -0.2079
 5335TIP3    H215970   3.978   1.862   5.559 -0.2165 -3.1027  0.8362
 5336TIP3   OH215971   3.211   1.528   5.171  0.1890 -0.4863 -0.2791
 5336TIP3    H115972   3.279   1.481   5.219  0.5210 -1.2830 -1.4800
 5336TIP3    H215973   3.166   1.581   5.238  1.9186 -0.0014  0.5453
 5337TIP3   OH215974   5.798   0.272   3.467  0.2128 -0.0506  0.8288
 5337TIP3    H115975   5.755   0.243   3.547  0.3926 -0.1826  0.8783
 5337TIP3    H215976   5.858   0.201   3.445 -1.4536 -1.0768 -0.6768
 5338TIP3   OH215977   2.176   5.449   2.652  1.0555  0.3270  0.1175
 5338TIP3    H115978   2.106   5.494   2.605  0.7842 -0.7324 -0.5315
 5338TIP3    H215979   2.257   5.476   2.608  0.6909 -2.1471 -2.3615
 5339TIP3   OH215980   2.700   4.700   2.848 -0.4993 -0.2005 -0.0732
 5339TIP3    H115981   2.710   4.607   2.827 -0.1491 -0.3872  0.8564
 5339TIP3    H215982   2.767   4.744   2.796  0.3267 -0.6420  0.5904
 5340TIP3   OH215983   3.735   3.736   5.122 -0.2670  0.0799  0.7789
 5340TIP3    H115984   3.697   3.656   5.157  0.6119  0.0302  1.6468
 5340TIP3    H215985   3.684   3.807   5.161 -1.6546 -0.0414 -0.7073
 5341TIP3   OH215986   1.560   2.526   0.803 -0.8997  0.1519  0.3108
 5341TIP3    H115987   1.576   2.491   0.715 -2.4834  1.3100 -0.4983
 5341TIP3    H215988   1.478   2.485   0.831 -0.6629  0.1628  1.0306
 5342TIP3   OH215989   1.105   3.756   1.158 -0.2270  0.0150 -0.1041
 5342TIP3    H115990   1.039   3.763   1.228 -1.0705 -2.2549 -0.5823
 5342TIP3    H215991   1.182   3.721   1.202 -0.4038 -0.3703 -0.0922
 5343TIP3   OH215992   4.522   5.164   0.530  0.3373  0.5171 -0.1307
 5343TIP3    H115993   4.585   5.174   0.459 -1.2138  0.6019 -1.5767
 5343TIP3    H215994   4.538   5.237   0.588  1.7980  0.3209 -0.2566
 5344TIP3   OH215995   1.855   1.075   3.046  0.3247  0.2307 -0.2075
 5344TIP3    H115996   1.802   1.118   3.113  0.3429 -0.3644  0.1952
 5344TIP3    H215997   1.799   1.074   2.969  0.5407  1.5052 -0.4123
 5345TIP3   OH215998   5.601   4.758   0.351 -0.3915 -0.4209  0.0435
 5345TIP3    H115999   5.541   4.701   0.303 -1.8704 -0.1176  1.4584
 5345TIP3    H216000   5.678   4.704   0.368 -0.4064 -0.9463 -1.4583
 5346TIP3   OH216001   2.730   6.394   5.279 -0.1641 -0.1430  0.2613
 5346TIP3    H116002   2.817   6.409   5.243 -0.5221  1.0485 -0.1460
 5346TIP3    H216003   2.685   6.341   5.213  0.3694 -1.1130  0.6596
 5347TIP3   OH216004   1.150   6.684   0.791 -0.8294  0.3342 -0.0474
 5347TIP3    H116005   1.223   6.732   0.831 -2.1610  1.6837  0.8571
 5347TIP3    H216006   1.138   6.725   0.706  0.0173 -0.4934 -0.5867
 5348TIP3   OH216007   4.049   2.744   2.390 -0.1832  0.0790 -0.4457
 5348TIP3    H116008   4.021   2.770   2.302  0.5858  2.1280 -0.1481
 5348TIP3    H216009   3.984   2.783   2.448 -0.2569 -0.6004 -0.0706
 5349TIP3   OH216010   5.136   4.889   0.628  0.2840 -0.0251  0.3854
 5349TIP3    H116011   5.090   4.903   0.711 -0.8781  0.9407 -0.3907
 5349TIP3    H216012   5.067   4.864   0.566  1.0312 -0.0959 -0.4417
 5350TIP3   OH216013   4.201   6.090   3.533  0.4849 -0.2078  0.3267
 5350TIP3    H116014   4.149   6.170   3.536 -1.2407 -1.2832  2.4368
 5350TIP3    H216015   4.139   6.022   3.508  2.0029 -0.8967 -1.8169
 5351TIP3   OH216016   3.475   2.093   3.438  0.6458 -0.2016  0.2975
 5351TIP3    H116017   3.428   2.028   3.490 -1.3001 -0.6339 -1.7853
 5351TIP3    H216018   3.565   2.062   3.436 -0.4216 -3.8322 -1.7927
 5352TIP3   OH216019   1.466   3.841   5.017 -0.2671 -0.1597  0.2680
 5352TIP3    H116020   1.401   3.888   5.069  1.2842  0.7592  1.4520
 5352TIP3    H216021   1.508   3.781   5.079  0.4846 -0.2491 -0.3072
 5353TIP3   OH216022   3.701   2.171   1.874  0.0890  0.2291  0.0210
 5353TIP3    H116023   3.704   2.195   1.966  0.1618 -1.0120  0.3558
 5353TIP3    H216024   3.608   2.175   1.851 -0.2238 -1.7100  0.7933
 5354TIP3   OH216025   6.977   3.890   4.846 -0.5884  0.4792 -0.3254
 5354TIP3    H116026   6.976   3.971   4.795  0.7291  1.8595  1.6950
 5354TIP3    H216027   6.938   3.915   4.930 -0.6187 -1.1349  0.1707
 5355TIP3   OH216028   2.387   4.898   3.231  0.3386  0.1589 -0.3643
 5355TIP3    H116029   2.468   4.890   3.181  0.5814  0.0874  0.0316
 5355TIP3    H216030   2.365   4.991   3.226  1.2278  0.4478  0.7140
 5356TIP3   OH216031   4.270   1.746   5.467  0.0603 -0.0433 -0.1844
 5356TIP3    H116032   4.329   1.812   5.431 -0.4397  0.6971  0.3212
 5356TIP3    H216033   4.293   1.665   5.421  1.1602  0.3271 -0.3033
 5357TIP3   OH216034   2.270   6.049   5.166  0.4417  0.2195 -0.2973
 5357TIP3    H116035   2.280   6.126   5.109 -1.3076 -0.7867 -2.1053
 5357TIP3    H216036   2.179   6.022   5.154 -0.4389  0.5538  3.9027
 5358TIP3   OH216037   3.396   0.822   2.390 -0.0860  0.2109  0.0336
 5358TIP3    H116038   3.471   0.859   2.344 -1.1655  1.7608 -0.5503
 5358TIP3    H216039   3.352   0.768   2.325  1.8317 -2.8455  1.0446
 5359TIP3   OH216040   1.105   4.990   2.122  0.1046 -0.5824 -0.2467
 5359TIP3    H116041   1.034   5.011   2.060 -0.2919  1.8100  0.8808
 5359TIP3    H216042   1.065   4.928   2.183 -0.7612  0.0396 -0.1528
 5360TIP3   OH216043   5.781   6.204   4.111 -0.3633 -0.4420  0.4136
 5360TIP3    H116044   5.785   6.133   4.175 -4.4512  0.9991  2.6349
 5360TIP3    H216045   5.708   6.180   4.053  0.3127  0.4474 -0.8591
 5361TIP3   OH216046   1.331   0.112   4.048 -0.1324 -0.6881 -0.3235
 5361TIP3    H116047   1.394   0.184   4.051 -1.1076  0.2240 -0.5881
 5361TIP3    H216048   1.384   0.033   4.043  0.9944 -0.0639  1.0282
 5362TIP3   OH216049   3.937   0.140   5.182  0.3633 -0.0506  0.6865
 5362TIP3    H116050   3.926   0.053   5.220  0.9042  0.7382  2.7661
 5362TIP3    H216051   3.996   0.186   5.242  1.5012  1.2203 -1.2594
 5363TIP3   OH216052   4.744   3.135   0.176 -0.0204 -0.1620  0.0877
 5363TIP3    H116053   4.816   3.196   0.193  0.6973 -0.7022 -0.9166
 5363TIP3    H216054   4.679   3.155   0.244 -0.0149  2.0259 -0.4846
 5364TIP3   OH216055   5.035   3.068   2.000  0.6511 -0.1122 -0.2905
 5364TIP3    H116056   5.051   2.996   1.939  0.7514 -0.4432  0.1173
 5364TIP3    H216057   5.074   3.038   2.083  0.5439  0.3402 -0.0726
 5365TIP3   OH216058   4.266   2.676   4.508  0.0759 -0.1659 -0.3147
 5365TIP3    H116059   4.350   2.638   4.482  0.0183  0.2045 -1.0540
 5365TIP3    H216060   4.206   2.651   4.439 -0.5509 -0.8409  0.4534
 5366TIP3   OH216061   1.208   1.826   2.492  0.1582  0.1564 -0.1179
 5366TIP3    H116062   1.211   1.737   2.529  1.0098  0.1063 -0.3006
 5366TIP3    H216063   1.286   1.832   2.438  0.7549  1.4273  0.8400
 5367TIP3   OH216064   5.853   4.271   4.611 -0.2657 -0.0162 -0.5927
 5367TIP3    H116065   5.778   4.320   4.644 -0.0824 -0.0597 -0.1108
 5367TIP3    H216066   5.826   4.241   4.524 -0.9514 -0.3644 -0.2661
 5368TIP3   OH216067   5.930   4.169   5.197  0.0713  0.1074 -0.5721
 5368TIP3    H116068   5.881   4.249   5.180  1.1373  0.4685 -2.1848
 5368TIP3    H216069   5.934   4.125   5.112  1.8868 -0.2639 -0.3353
 5369TIP3   OH216070   1.111   5.004   0.489  0.5668  0.5670  0.0497
 5369TIP3    H116071   1.050   4.938   0.457  0.8691  0.6846 -0.7951
 5369TIP3    H216072   1.136   4.974   0.576  0.5227 -0.3061 -0.2338
 5370TIP3   OH216073   4.365   1.379   5.692  0.1372 -0.3084  0.4924
 5370TIP3    H116074   4.446   1.427   5.675 -0.2209  0.0082 -0.3431
 5370TIP3    H216075   4.395   1.291   5.714  0.7187 -0.1677  0.3082
 5371TIP3   OH216076   0.276   4.394   3.383  0.2206 -0.6292  0.1646
 5371TIP3    H116077   0.360   4.407   3.426  0.1075  0.3251  0.1263
 5371TIP3    H216078   0.222   4.348   3.448  0.8054 -1.3812  0.1331
 5372TIP3   OH216079   3.085   0.172   3.303  0.2553 -0.1055  0.3496
 5372TIP3    H116080   3.003   0.214   3.328 -1.3221 -1.2895 -2.4059
 5372TIP3    H216081   3.151   0.241   3.311 -1.3377  1.4278  0.8366
 5373TIP3   OH216082   2.242   6.273   4.975 -0.0181 -0.1129  0.2603
 5373TIP3    H116083   2.258   6.352   4.924  0.7887 -0.2524  0.2872
 5373TIP3    H216084   2.172   6.227   4.927 -0.5773  0.6666  0.3156
 5374TIP3   OH216085   1.609   0.347   1.197 -0.4087  0.4736 -0.0746
 5374TIP3    H116086   1.573   0.427   1.159 -1.3762  0.3756  0.5879
 5374TIP3    H216087   1.537   0.311   1.249  0.2363 -0.4593  0.1980
 5375TIP3   OH216088   3.243   5.867   5.829  0.2887  0.0115  0.0549
 5375TIP3    H116089   3.226   5.945   5.882 -0.0576 -0.2171  0.2755
 5375TIP3    H216090   3.217   5.794   5.884  0.1600 -0.2386 -0.3370
 5376TIP3   OH216091   1.176   3.193   0.896  0.3607  0.1984 -0.2387
 5376TIP3    H116092   1.245   3.130   0.877 -0.0125  0.1483 -1.5163
 5376TIP3    H216093   1.151   3.175   0.987 -0.2407 -2.0200 -0.7783
 5377TIP3   OH216094   1.660   6.605   3.221  0.5521  0.4658 -0.2270
 5377TIP3    H116095   1.608   6.529   3.246 -0.0728  0.2935 -1.9553
 5377TIP3    H216096   1.749   6.584   3.250  0.2457 -0.6071 -0.0352
 5378TIP3   OH216097   0.584   1.624   4.420  0.1095 -0.0548  0.2793
 5378TIP3    H116098   0.599   1.715   4.446 -0.3307  0.1143 -0.0266
 5378TIP3    H216099   0.504   1.628   4.367  0.2121 -0.5886  0.0784
 5379TIP3   OH216100   5.636   0.823   4.333 -0.0655  0.5549 -0.2863
 5379TIP3    H116101   5.566   0.762   4.309 -0.1948  0.9755 -1.0281
 5379TIP3    H216102   5.674   0.850   4.249  2.0386 -0.8500  0.1119
 5380TIP3   OH216103   1.454   5.783   2.354 -0.1200  0.3984 -0.1523
 5380TIP3    H116104   1.385   5.821   2.408 -0.9384 -2.6162  1.1379
 5380TIP3    H216105   1.535   5.814   2.392 -0.7284  1.2483  0.4780
 5381TIP3   OH216106   7.027   0.785   2.104  0.2922 -0.1125  0.4901
 5381TIP3    H116107   7.005   0.713   2.045 -0.8228  0.2010  0.4974
 5381TIP3    H216108   7.031   0.745   2.191 -1.3307 -0.0065  0.6324
 5382TIP3   OH216109   6.272   5.963   3.817  0.3347 -0.5066  0.2857
 5382TIP3    H116110   6.280   6.014   3.898 -0.2669  0.2202 -0.0917
 5382TIP3    H216111   6.180   5.935   3.816  0.0645  0.3530 -0.6331
 5383TIP3   OH216112   3.340   0.900   3.170 -0.0841  0.2235 -0.2312
 5383TIP3    H116113   3.322   0.943   3.253  3.7028  0.1395  0.7979
 5383TIP3    H216114   3.314   0.809   3.184  1.0306  0.0944  1.0846
 5384TIP3   OH216115   2.500   4.219   5.186  0.5818 -0.1485  0.0267
 5384TIP3    H116116   2.480   4.304   5.225 -0.7955 -0.2362 -0.4187
 5384TIP3    H216117   2.437   4.211   5.114  0.8921 -1.4138 -0.1201
 5385TIP3   OH216118   5.730   2.708   4.728 -0.6696 -0.6437 -0.3400
 5385TIP3    H116119   5.737   2.749   4.814 -0.8194  1.9234 -1.4389
 5385TIP3    H216120   5.785   2.630   4.733 -0.6212 -0.5294  2.0231
 5386TIP3   OH216121   2.129   4.424   5.269 -0.5107  0.0022  0.4434
 5386TIP3    H116122   2.221   4.449   5.273 -0.0833 -1.3538 -0.4086
 5386TIP3    H216123   2.117   4.391   5.180 -1.2734 -1.8081  1.1703
 5387TIP3   OH216124   6.821   5.897   0.578  0.1853 -0.3812  0.2368
 5387TIP3    H116125   6.808   5.836   0.505 -1.3348  2.7195 -2.3064
 5387TIP3    H216126   6.914   5.919   0.573  0.2235 -0.6408 -0.4272
 5388TIP3   OH216127   6.914   1.313   4.955  0.5999 -0.4218  0.0747
 5388TIP3    H116128   6.901   1.396   4.910  1.0407 -0.0686  0.5791
 5388TIP3    H216129   6.839   1.306   5.014  0.8638 -0.0759  0.4673
 5389TIP3   OH216130   0.416   5.177   2.298 -0.2008 -0.5174  0.0411
 5389TIP3    H116131   0.375   5.191   2.383  1.2193 -2.6266  1.1866
 5389TIP3    H216132   0.510   5.188   2.315  0.0020  1.3827 -1.8439
 5390TIP3   OH216133   6.829   1.568   4.425 -0.4782 -0.1260 -0.4084
 5390TIP3    H116134   6.791   1.631   4.364 -0.3905  1.3535  0.9894
 5390TIP3    H216135   6.779   1.580   4.506  2.2455  1.2752  1.2399
 5391TIP3   OH216136   2.550   3.082   1.889 -0.7176 -0.0133 -0.3269
 5391TIP3    H116137   2.606   3.143   1.842 -3.2702  1.6345 -1.4778
 5391TIP3    H216138   2.486   3.138   1.934 -0.8599 -1.7301  1.7842
 5392TIP3   OH216139   6.213   4.230   1.233 -0.4847  0.4837  0.0236
 5392TIP3    H116140   6.287   4.211   1.290  0.6038  0.8027 -1.2447
 5392TIP3    H216141   6.207   4.155   1.174 -1.4768  0.2442  0.3997
 5393TIP3   OH216142   3.102   5.547   1.188  0.4129 -0.4500 -0.6373
 5393TIP3    H116143   3.096   5.496   1.269 -0.0978 -1.0299 -1.0310
 5393TIP3    H216144   3.196   5.548   1.167  0.9830  2.2002  1.5078
 5394TIP3   OH216145   5.646   0.424   2.957  0.1113  0.3396 -0.0377
 5394TIP3    H116146   5.567   0.401   2.908 -0.0248  0.3716  0.1678
 5394TIP3    H216147   5.649   0.519   2.954  0.8708  0.3009 -1.1986
 5395TIP3   OH216148   4.362   2.025   5.559 -0.2697  0.2745  0.0829
 5395TIP3    H116149   4.359   1.984   5.472 -0.9222 -0.0403  0.2422
 5395TIP3    H216150   4.326   2.112   5.546  1.1553  0.8363 -0.2658
 5396TIP3   OH216151   5.614   5.361   3.529 -0.0830  0.5530 -0.1120
 5396TIP3    H116152   5.549   5.428   3.509 -1.7767 -1.2767 -1.0295
 5396TIP3    H216153   5.682   5.374   3.463 -0.3741  1.3758 -0.2633
 5397TIP3   OH216154   3.205   5.356   2.686  0.2230  0.1113  0.2514
 5397TIP3    H116155   3.115   5.332   2.707  0.3056  0.3620  0.9286
 5397TIP3    H216156   3.197   5.415   2.611 -0.2574  0.8452  0.8589
 5398TIP3   OH216157   4.878   3.360   3.588 -0.2074 -1.0017 -0.0104
 5398TIP3    H116158   4.824   3.431   3.553  0.0220  0.8221  3.0494
 5398TIP3    H216159   4.966   3.379   3.555  0.4073  1.8351  2.7749
 5399TIP3   OH216160   2.910   2.459   2.958  0.1011  0.2189 -0.0578
 5399TIP3    H116161   2.996   2.456   2.917  0.3904 -0.1028  0.5496
 5399TIP3    H216162   2.854   2.406   2.902  0.7946 -1.3064  0.6435
 5400TIP3   OH216163   5.549   4.075   3.536  0.3055 -0.5905 -0.0314
 5400TIP3    H116164   5.493   4.098   3.610  1.0000 -2.6045  1.2041
 5400TIP3    H216165   5.597   4.156   3.515 -1.2960  0.5179  0.4183
 5401TIP3   OH216166   0.131   4.899   3.558  0.0081  0.1514  0.0050
 5401TIP3    H116167   0.044   4.881   3.524  0.0536 -0.5414  0.2260
 5401TIP3    H216168   0.190   4.848   3.501  0.2147  0.1789  0.1917
 5402TIP3   OH216169   1.223   4.305   2.517  0.1751  0.4520  0.3079
 5402TIP3    H116170   1.314   4.311   2.549 -0.5413  1.2852  2.4026
 5402TIP3    H216171   1.217   4.370   2.447  1.2051  0.3722  0.1349
 5403TIP3   OH216172   0.570   6.589   2.249  0.0558  0.5958 -0.8111
 5403TIP3    H116173   0.616   6.662   2.291  0.5206  0.6811 -1.4665
 5403TIP3    H216174   0.579   6.605   2.155 -0.4673  0.0804 -0.9580
 5404TIP3   OH216175   6.662   3.633   2.841 -0.1528  0.1673 -0.3747
 5404TIP3    H116176   6.657   3.551   2.793 -0.1471  0.2138 -0.4542
 5404TIP3    H216177   6.590   3.629   2.904  0.9533 -0.7268  0.9145
 5405TIP3   OH216178   5.986   3.862   3.865  0.3697 -0.6241  0.4236
 5405TIP3    H116179   6.034   3.779   3.867  0.5884 -0.5383 -0.5911
 5405TIP3    H216180   5.933   3.857   3.785  1.1083  0.6086 -0.1600
 5406TIP3   OH216181   2.747   1.567   0.942 -0.1107 -0.3589 -0.1964
 5406TIP3    H116182   2.762   1.473   0.933  1.5003 -0.3265  1.5654
 5406TIP3    H216183   2.680   1.575   1.010 -0.9592 -0.2265 -1.0245
 5407TIP3   OH216184   1.009   4.458   0.044 -0.5688 -0.1981  0.2752
 5407TIP3    H116185   0.979   4.407   0.120 -0.4780 -0.9461 -0.1848
 5407TIP3    H216186   1.099   4.428   0.030 -1.1495 -1.3487 -1.1952
 5408TIP3   OH216187   0.451   3.980   3.108 -0.2332  0.0402  0.2326
 5408TIP3    H116188   0.464   3.984   3.014 -0.2320 -0.7977  0.1968
 5408TIP3    H216189   0.403   4.061   3.129 -0.5508  0.0543 -0.5308
 5409TIP3   OH216190   6.451   1.745   2.343  0.2397  0.0856 -0.0290
 5409TIP3    H116191   6.481   1.747   2.252 -0.7245  0.5647 -0.3518
 5409TIP3    H216192   6.432   1.652   2.359  0.4386 -0.0068 -0.3148
 5410TIP3   OH216193   5.331   5.057   4.104  0.3092  0.1419  0.0825
 5410TIP3    H116194   5.305   4.965   4.106  0.2532  0.1547 -0.1160
 5410TIP3    H216195   5.326   5.082   4.012 -1.0622  0.7385  0.3052
 5411TIP3   OH216196   0.226   5.461   4.742 -0.1910 -0.0479 -0.3518
 5411TIP3    H116197   0.255   5.470   4.832 -0.6368 -1.9620  0.0176
 5411TIP3    H216198   0.144   5.511   4.738  0.1872  0.6281  0.0899
 5412TIP3   OH216199   3.535   0.804   3.026 -0.1129  0.1319  0.1746
 5412TIP3    H116200   3.460   0.836   3.076 -1.3671 -1.2291 -0.7455
 5412TIP3    H216201   3.498   0.740   2.965  1.8300 -0.7315 -0.1852
 5413TIP3   OH216202   0.302   2.916   0.211  0.0044  0.1549 -0.0913
 5413TIP3    H116203   0.277   2.844   0.152 -0.1369 -0.3777  0.6010
 5413TIP3    H216204   0.333   2.872   0.290 -0.5426  0.8714  0.5319
 5414TIP3   OH216205   1.916   6.140   2.880  0.0376 -0.4701 -0.0554
 5414TIP3    H116206   2.003   6.131   2.919 -0.9740 -1.2833  2.1575
 5414TIP3    H216207   1.890   6.230   2.901 -1.0419 -1.2923  2.5193
 5415TIP3   OH216208   0.061   4.538   0.967  0.3006 -0.5548 -0.3180
 5415TIP3    H116209  -0.017   4.525   1.020 -0.4233  0.4682 -1.0851
 5415TIP3    H216210   0.112   4.458   0.979 -0.8743 -1.2592  0.1664
 5416TIP3   OH216211   6.932   4.684   1.229 -0.3502  0.1825 -0.4658
 5416TIP3    H116212   6.886   4.665   1.311 -0.8106  0.0185 -0.7574
 5416TIP3    H216213   6.953   4.777   1.234  3.0298 -0.5115  1.5396
 5417TIP3   OH216214   6.161   4.597   0.165 -0.1464 -0.1142  0.1229
 5417TIP3    H116215   6.201   4.676   0.128 -2.9332  1.1288 -0.5040
 5417TIP3    H216216   6.111   4.628   0.240 -2.1192 -1.0703 -0.7373
 5418TIP3   OH216217   4.104   3.010   4.524 -0.4170  0.6348 -0.6348
 5418TIP3    H116218   4.136   2.950   4.457  1.2036  0.9090 -0.1346
 5418TIP3    H216219   4.182   3.037   4.572 -1.6106 -0.4063  2.1096
 5419TIP3   OH216220   2.879   1.222   5.390 -0.0496  0.4772 -0.5186
 5419TIP3    H116221   2.888   1.293   5.453 -2.5497 -0.3502  0.9120
 5419TIP3    H216222   2.919   1.255   5.309  3.3570  1.5581  1.4025
 5420TIP3   OH216223   0.049   1.712   1.853 -0.3259  0.1038  0.8715
 5420TIP3    H116224   0.131   1.697   1.902 -0.4916 -0.2263  1.0567
 5420TIP3    H216225  -0.010   1.751   1.917 -0.3055  0.3660  0.7303
 5421TIP3   OH216226   3.368   0.903   5.732 -0.1298  0.1795  0.4980
 5421TIP3    H116227   3.463   0.887   5.728 -0.1402  0.2889 -0.5940
 5421TIP3    H216228   3.342   0.873   5.819  0.7715 -0.6366  0.5075
 5422TIP3   OH216229   0.823   4.534   0.235 -0.3101 -0.0605 -0.4479
 5422TIP3    H116230   0.894   4.534   0.298 -2.0080  1.5628  1.6069
 5422TIP3    H216231   0.787   4.446   0.238 -0.0573 -0.1343  0.5147
 5423TIP3   OH216232   4.152   1.417   5.113  0.1203  0.1444  0.2687
 5423TIP3    H116233   4.111   1.427   5.027  1.6904  2.5505 -0.3064
 5423TIP3    H216234   4.223   1.354   5.099  2.2050  2.5933 -1.0430
 5424TIP3   OH216235   6.951   0.034   5.098  0.1123  0.1372 -0.2609
 5424TIP3    H116236   6.965   0.099   5.167  0.8506 -1.2255  0.9353
 5424TIP3    H216237   6.870   0.062   5.055 -0.9280  0.5240  1.8072
 5425TIP3   OH216238   5.446   3.792   1.197 -0.2814 -0.0119  0.3315
 5425TIP3    H116239   5.453   3.697   1.189 -0.5564 -0.0632  0.7181
 5425TIP3    H216240   5.443   3.823   1.107 -0.0844 -0.3602  0.2020
 5426TIP3   OH216241   4.628   2.306   4.340 -0.5851  0.2785 -0.2393
 5426TIP3    H116242   4.715   2.293   4.378 -0.5933 -2.1100 -0.8265
 5426TIP3    H216243   4.570   2.249   4.391 -1.6860  1.3193 -0.2858
 5427TIP3   OH216244   1.160   0.665   2.267 -0.0247  0.4628 -0.2003
 5427TIP3    H116245   1.126   0.664   2.178  0.5902 -1.4986 -0.4640
 5427TIP3    H216246   1.224   0.737   2.268  0.6609 -0.0949 -1.6382
 5428TIP3   OH216247   6.080   3.861   1.072 -0.4427  0.0243  0.0250
 5428TIP3    H116248   6.124   3.826   1.149  0.6551  0.9556 -0.1607
 5428TIP3    H216249   5.999   3.809   1.065 -0.3970 -0.3011  1.5821
 5429TIP3   OH216250   1.505   2.058   3.493 -0.3313 -0.5801  0.0187
 5429TIP3    H116251   1.476   1.979   3.539 -0.8129 -0.6058 -0.3239
 5429TIP3    H216252   1.467   2.131   3.543  0.6800 -0.5281  0.7368
 5430TIP3   OH216253   3.887   1.501   0.812  0.1582 -0.2521 -0.1829
 5430TIP3    H116254   3.832   1.566   0.855  0.1490 -0.5832  0.3213
 5430TIP3    H216255   3.868   1.419   0.859  2.4137 -0.0403  1.2689
 5431TIP3   OH216256   5.168   2.957   4.606 -0.2767 -0.4904 -0.1401
 5431TIP3    H116257   5.114   2.926   4.534  0.8839 -0.4000 -1.0895
 5431TIP3    H216258   5.162   2.889   4.673 -0.6375 -1.0216 -0.7081
 5432TIP3   OH216259   1.665   3.319   2.930 -0.4119 -0.2507  0.5265
 5432TIP3    H116260   1.584   3.300   2.884 -1.0953  1.0100  1.1785
 5432TIP3    H216261   1.733   3.276   2.878 -1.1011  1.3729 -1.8567
 5433TIP3   OH216262   0.636   0.060   2.630 -0.2682 -0.1646 -0.3846
 5433TIP3    H116263   0.665   0.092   2.545  3.1392 -0.9623  0.3290
 5433TIP3    H216264   0.545   0.088   2.637 -0.4326  0.5764 -3.9302
 5434TIP3   OH216265   6.351   4.921   1.307  0.5834 -0.0837  0.2811
 5434TIP3    H116266   6.380   4.999   1.260  2.8306 -0.5836  0.7068
 5434TIP3    H216267   6.314   4.954   1.389  1.0658  0.5575  0.2477
 5435TIP3   OH216268   3.368   5.005   3.927 -0.8967 -0.3711 -0.0585
 5435TIP3    H116269   3.368   4.911   3.909  0.9628 -0.9716  2.4892
 5435TIP3    H216270   3.417   5.043   3.854  1.0813 -1.8372  0.4062
 5436TIP3   OH216271   0.487   2.828   5.783  0.1480 -0.0350  0.1095
 5436TIP3    H116272   0.436   2.753   5.752  0.0717  0.4428 -0.9555
 5436TIP3    H216273   0.578   2.804   5.765  0.1211  0.1377 -0.2641
 5437TIP3   OH216274   2.170   3.729   0.111 -0.5478  0.1789  0.2016
 5437TIP3    H116275   2.130   3.810   0.078 -0.7617 -0.0358 -0.0798
 5437TIP3    H216276   2.191   3.748   0.202 -0.2898  0.6616  0.0433
 5438TIP3   OH216277   1.587   3.358   0.875  0.2095 -0.5514 -0.3564
 5438TIP3    H116278   1.590   3.445   0.915 -0.6239 -0.4075 -0.5958
 5438TIP3    H216279   1.666   3.315   0.907  0.2986  0.0650  0.2908
 5439TIP3   OH216280   3.378   5.135   2.802  0.2923 -0.1035 -0.1604
 5439TIP3    H116281   3.306   5.197   2.814  0.6841  0.3021  0.1393
 5439TIP3    H216282   3.410   5.151   2.714  0.5465  0.2935  0.0000
 5440TIP3   OH216283   6.102   6.381   4.910 -0.0666  0.1531  0.4278
 5440TIP3    H116284   6.062   6.294   4.919  1.3004 -0.6269 -0.6918
 5440TIP3    H216285   6.168   6.384   4.979 -0.4278  0.5168  0.7676
 5441TIP3   OH216286   4.482   3.316   3.594  0.4991  0.4362 -0.2785
 5441TIP3    H116287   4.432   3.293   3.515 -0.1526  0.4587  0.1197
 5441TIP3    H216288   4.494   3.411   3.588 -0.9373  0.6866  0.4262
 5442TIP3   OH216289   6.214   1.586   3.513  0.3841 -0.3143 -0.5562
 5442TIP3    H116290   6.170   1.670   3.525 -0.7919 -1.0912  0.8558
 5442TIP3    H216291   6.143   1.523   3.501  0.9401 -1.7598  2.7215
 5443TIP3   OH216292   2.014   4.039   3.330 -0.7297 -0.2647 -0.3621
 5443TIP3    H116293   2.051   3.988   3.258  0.2596  0.2592 -0.2349
 5443TIP3    H216294   2.000   3.975   3.400  1.1169 -0.2654  0.0335
 5444TIP3   OH216295   3.108   3.506   2.175  0.1465  0.9429 -0.1808
 5444TIP3    H116296   3.058   3.567   2.121  1.1738  1.2712 -0.8011
 5444TIP3    H216297   3.190   3.494   2.127  0.8291  0.7491  0.9982
 5445TIP3   OH216298   6.805   0.402   0.669 -0.1407  0.3462 -0.4329
 5445TIP3    H116299   6.715   0.419   0.696 -0.2735 -0.0013 -0.6473
 5445TIP3    H216300   6.813   0.445   0.584 -0.2441 -0.0180 -0.6256
 5446TIP3   OH216301   3.024   6.172   1.574  0.4203 -0.4577 -0.2221
 5446TIP3    H116302   3.042   6.205   1.662 -0.6269 -1.1362  0.2629
 5446TIP3    H216303   3.102   6.122   1.551  2.5308  3.0503 -1.3982
 5447TIP3   OH216304   1.087   3.231   4.192 -0.1949  0.2059 -0.0201
 5447TIP3    H116305   1.121   3.158   4.243 -1.5904  0.0272  0.6892
 5447TIP3    H216306   1.008   3.197   4.150  0.0493  0.8277 -1.0377
 5448TIP3   OH216307   6.585   0.512   0.825  0.1348 -0.1413 -0.0448
 5448TIP3    H116308   6.576   0.581   0.891 -2.0221 -1.4583  1.1453
 5448TIP3    H216309   6.542   0.436   0.864  1.3455 -1.8393 -1.8216
 5449TIP3   OH216310   3.595   6.378   0.871  0.5588 -0.1652  0.5049
 5449TIP3    H116311   3.506   6.394   0.904  0.1102 -2.2043  0.4249
 5449TIP3    H216312   3.636   6.324   0.939  2.1239  1.5898  1.0170
 5450TIP3   OH216313   5.582   2.522   4.397 -0.0216 -0.0423  0.0934
 5450TIP3    H116314   5.547   2.509   4.484  0.2798  1.3425  0.4561
 5450TIP3    H216315   5.677   2.513   4.407  0.0138  0.1061 -0.0937
 5451TIP3   OH216316   1.216   6.346   3.443  0.2786  0.3732 -0.2204
 5451TIP3    H116317   1.221   6.427   3.493  0.8860  0.7993 -0.9453
 5451TIP3    H216318   1.275   6.286   3.487  1.5728  1.0562 -0.9471
 5452TIP3   OH216319   6.931   4.660   0.155  0.0830  0.0854  0.6305
 5452TIP3    H116320   6.941   4.746   0.194 -1.0141 -0.5909  2.5353
 5452TIP3    H216321   7.008   4.649   0.100  1.4193  1.3338  2.1854
 5453TIP3   OH216322   3.300   5.247   2.237  0.2008  0.0290 -0.4403
 5453TIP3    H116323   3.259   5.190   2.173  2.1329  0.5249 -2.2316
 5453TIP3    H216324   3.252   5.329   2.231 -0.7739 -0.4758  0.1083
 5454TIP3   OH216325   2.106   2.353   1.068  0.4448 -0.2172  0.1158
 5454TIP3    H116326   2.188   2.383   1.106  0.7696  0.7612 -1.2850
 5454TIP3    H216327   2.123   2.262   1.043  0.8928 -0.2090  0.3776
 5455TIP3   OH216328   3.229   1.395   1.514  0.0955 -0.3524  0.1454
 5455TIP3    H116329   3.307   1.410   1.568  0.2649 -2.4520  0.5636
 5455TIP3    H216330   3.165   1.359   1.575 -1.0021  0.6736 -0.3497
 5456TIP3   OH216331   4.844   6.140   0.229 -0.0697  0.4130  0.6764
 5456TIP3    H116332   4.768   6.082   0.233  0.3893 -0.2384  0.2367
 5456TIP3    H216333   4.812   6.224   0.262 -0.9923  0.1657  0.4503
 5457TIP3   OH216334   0.649   2.542   5.299  0.3839  0.2684 -0.0571
 5457TIP3    H116335   0.565   2.503   5.274  0.4097  0.2013 -0.0404
 5457TIP3    H216336   0.704   2.531   5.222  0.3696  0.3328 -0.0758
 5458TIP3   OH216337   6.179   4.583   3.891 -0.2003  0.1203  0.1606
 5458TIP3    H116338   6.180   4.562   3.798 -2.6300 -0.4647  0.1813
 5458TIP3    H216339   6.172   4.679   3.895 -1.4855  0.0603 -0.3258
 5459TIP3   OH216340   4.792   3.038   1.797  0.7220 -0.0736 -0.3078
 5459TIP3    H116341   4.739   2.958   1.798 -0.0939  0.3959 -2.0676
 5459TIP3    H216342   4.774   3.080   1.881  1.5922 -1.9719  0.9001
 5460TIP3   OH216343   0.666   2.175   1.996  0.7345  0.8841  0.3349
 5460TIP3    H116344   0.647   2.269   1.990  0.6526  0.8324 -0.2324
 5460TIP3    H216345   0.638   2.151   2.084 -0.8077  1.0573 -0.0718
 5461TIP3   OH216346   3.311   0.999   3.423  0.6431  0.4477 -0.2459
 5461TIP3    H116347   3.356   1.075   3.461  0.2698  0.2303  0.6468
 5461TIP3    H216348   3.220   1.026   3.417  0.7603  0.6340 -1.4077
 5462TIP3   OH216349   4.671   6.269   1.113 -0.0954 -0.1446 -0.5082
 5462TIP3    H116350   4.591   6.252   1.063 -0.4991 -2.3836  0.7592
 5462TIP3    H216351   4.741   6.230   1.062 -0.2067 -0.5013 -0.3960
 5463TIP3   OH216352   7.030   1.835   0.592  0.0419 -0.4908 -0.5382
 5463TIP3    H116353   6.960   1.768   0.592  0.5763 -1.0670  0.1108
 5463TIP3    H216354   7.076   1.821   0.509  0.5048 -1.3164 -0.1495
 5464TIP3   OH216355   4.550   0.850   3.235 -0.1531 -0.2030  0.2722
 5464TIP3    H116356   4.469   0.806   3.209 -0.2512  1.3882 -2.5217
 5464TIP3    H216357   4.555   0.838   3.330 -3.5317 -0.5450  0.5138
 5465TIP3   OH216358   4.721   1.337   3.718  0.1157 -0.1881 -0.1617
 5465TIP3    H116359   4.691   1.297   3.637 -2.2845  1.8541 -0.4024
 5465TIP3    H216360   4.769   1.415   3.691 -0.3659  0.2971  0.3431
 5466TIP3   OH216361   1.251   6.533   3.936  0.0077  0.6357 -0.0873
 5466TIP3    H116362   1.173   6.542   3.880 -0.2067  0.1055  0.1206
 5466TIP3    H216363   1.300   6.614   3.922  0.9888 -0.2916 -2.6002
 5467TIP3   OH216364   1.609   0.624   4.586  0.0459 -0.4398  0.2165
 5467TIP3    H116365   1.576   0.661   4.668  1.6866 -0.9630  1.1836
 5467TIP3    H216366   1.656   0.545   4.613  0.6630 -0.6003 -1.2195
 5468TIP3   OH216367   6.718   6.350   3.182  0.0376 -0.2118 -0.1479
 5468TIP3    H116368   6.814   6.345   3.189 -0.0135 -0.4936  0.3629
 5468TIP3    H216369   6.697   6.440   3.206  0.1541 -0.2153 -0.0316
 5469TIP3   OH216370   1.683   0.836   2.613  0.5666 -0.4802  0.0227
 5469TIP3    H116371   1.715   0.926   2.628 -0.5302  0.0964 -0.9672
 5469TIP3    H216372   1.663   0.803   2.701  2.2533 -0.2771  0.5348
 5470TIP3   OH216373   3.719   4.209   1.606  0.5489 -0.0659  0.2923
 5470TIP3    H116374   3.710   4.270   1.532  1.4763  2.3886  2.0547
 5470TIP3    H216375   3.629   4.195   1.637  0.0509 -1.8157 -1.7084
 5471TIP3   OH216376   6.688   3.373   2.693  0.4992 -0.9650  0.1305
 5471TIP3    H116377   6.603   3.337   2.716 -0.5151  2.2346  1.9206
 5471TIP3    H216378   6.683   3.389   2.599  0.1729 -3.1730 -0.2789
 5472TIP3   OH216379   2.044   6.445   2.600  0.2820  0.3703 -0.1746
 5472TIP3    H116380   1.992   6.366   2.617  1.4159 -1.3501 -3.6826
 5472TIP3    H216381   1.980   6.512   2.578 -0.6643  0.2883  2.0648
 5473TIP3   OH216382   1.383   0.464   0.931  0.5581 -0.0591  0.3318
 5473TIP3    H116383   1.325   0.497   0.999 -0.3054 -1.7841  0.5009
 5473TIP3    H216384   1.332   0.472   0.850  1.4570  1.6811 -0.1123
 5474TIP3   OH216385   0.070   3.147   5.158  0.1866 -0.0031  0.0916
 5474TIP3    H116386   0.019   3.187   5.228 -0.1407 -0.8438  0.3442
 5474TIP3    H216387   0.113   3.221   5.115  0.7616  0.4887  1.4626
 5475TIP3   OH216388   0.431   3.648   2.691 -0.0134 -0.0150 -0.5087
 5475TIP3    H116389   0.353   3.690   2.726 -0.6143  0.9002 -2.7627
 5475TIP3    H216390   0.499   3.715   2.696  0.8419 -0.9578  1.8880
 5476TIP3   OH216391   2.277   0.741   4.985  0.5632  0.3745  0.1960
 5476TIP3    H116392   2.337   0.668   4.998  1.1896  1.0842  1.6126
 5476TIP3    H216393   2.331   0.812   4.950 -0.1675  0.0111 -1.8098
 5477TIP3   OH216394   6.896   1.103   2.496  0.6420  0.2241  0.4421
 5477TIP3    H116395   6.820   1.114   2.439  0.0681 -0.7541  0.9882
 5477TIP3    H216396   6.968   1.083   2.436 -0.2761 -2.4521  0.0884
 5478TIP3   OH216397   6.780   1.192   0.423 -0.2136  0.0992 -0.1052
 5478TIP3    H116398   6.847   1.217   0.487  1.0230 -0.8782 -0.9536
 5478TIP3    H216399   6.741   1.275   0.396  0.9620  0.7491  0.1041
 5479TIP3   OH216400   4.563   2.487   4.125  0.4135  0.1396  0.7033
 5479TIP3    H116401   4.586   2.432   4.200  0.7480 -1.6024 -0.6380
 5479TIP3    H216402   4.470   2.470   4.111  0.5027 -0.0262  0.3224
 5480TIP3   OH216403   1.653   2.052   2.934  0.2825 -0.7407 -0.3299
 5480TIP3    H116404   1.574   2.004   2.958 -1.9137  3.5248  2.1168
 5480TIP3    H216405   1.715   2.034   3.005 -1.3565  1.5432  1.8235
 5481TIP3   OH216406   0.832   6.506   4.026  0.4033 -0.1483 -0.0674
 5481TIP3    H116407   0.894   6.578   4.023  0.2763  0.0348  1.2283
 5481TIP3    H216408   0.757   6.539   4.077 -0.4417 -0.6011 -0.9739
 5482TIP3   OH216409   0.440   0.503   2.948  1.0859 -0.3270  0.0700
 5482TIP3    H116410   0.533   0.490   2.927  1.2559 -1.1543  1.2213
 5482TIP3    H216411   0.410   0.567   2.884  2.5001  0.1022 -0.2076
 5483TIP3   OH216412   3.557   0.902   0.020  0.1114  0.4149  0.6172
 5483TIP3    H116413   3.613   0.843   0.072  1.6168  1.8761  0.7440
 5483TIP3    H216414   3.600   0.904  -0.066 -0.3924  0.6966  0.3740
 5484TIP3   OH216415   6.031   3.291   4.680  0.6086  0.1733 -0.0556
 5484TIP3    H116416   6.071   3.378   4.680 -0.8059  0.8406  0.0245
 5484TIP3    H216417   6.012   3.273   4.589  1.3815 -0.3102 -0.1374
 5485TIP3   OH216418   0.515   4.306   1.040  0.5646  0.0949 -0.0694
 5485TIP3    H116419   0.507   4.396   1.007  0.9632  0.1650  0.0250
 5485TIP3    H216420   0.435   4.263   1.009  0.0595  0.6449  0.4224
 5486TIP3   OH216421   3.064   4.206   3.534 -0.2948  0.3514 -0.1603
 5486TIP3    H116422   3.064   4.113   3.558  0.4527  0.7106  1.3631
 5486TIP3    H216423   3.081   4.207   3.440  1.2253 -1.0246  0.0508
 5487TIP3   OH216424   3.290   2.430   2.491 -0.0321 -0.4964 -0.0108
 5487TIP3    H116425   3.204   2.467   2.511 -0.3785 -0.9400 -0.6326
 5487TIP3    H216426   3.271   2.341   2.461  0.4819 -0.0426 -1.7883
 5488TIP3   OH216427   0.834   0.186   1.040  0.0383  0.2390  0.1439
 5488TIP3    H116428   0.818   0.120   1.108 -0.5512  1.2290  0.9825
 5488TIP3    H216429   0.819   0.270   1.083  0.0847  0.9121 -1.1031
 5489TIP3   OH216430   4.146   6.211   1.773  0.1485  0.6731 -0.0867
 5489TIP3    H116431   4.210   6.185   1.838 -0.5905 -1.5281 -0.1544
 5489TIP3    H216432   4.183   6.181   1.690 -0.8392 -0.4533 -0.1440
 5490TIP3   OH216433   4.061   6.428   5.417  0.0427  0.2871 -0.0269
 5490TIP3    H116434   4.052   6.463   5.329 -0.7861 -0.2935 -0.1907
 5490TIP3    H216435   4.011   6.346   5.415  2.0046 -0.9643  0.3131
 5491TIP3   OH216436   7.037   2.810   1.078  0.1410  0.6223 -0.3724
 5491TIP3    H116437   7.124   2.849   1.064  0.7593 -0.0936  1.1675
 5491TIP3    H216438   7.022   2.820   1.172  0.4272 -2.9096  0.1700
 5492TIP3   OH216439   6.670   4.066   1.541 -0.6220 -0.0012  0.6733
 5492TIP3    H116440   6.674   4.079   1.636 -0.7235 -1.1739  0.8566
 5492TIP3    H216441   6.693   3.974   1.529 -3.0810 -0.5746 -0.2376
 5493TIP3   OH216442   1.212   5.761   0.657  0.5009 -0.5129 -0.3428
 5493TIP3    H116443   1.225   5.835   0.598  1.4761  0.0128  0.4848
 5493TIP3    H216444   1.214   5.684   0.600 -1.8970  0.1296 -1.3889
 5494TIP3   OH216445   5.205   4.537   0.969 -0.2202  0.2145 -0.4449
 5494TIP3    H116446   5.135   4.473   0.983 -0.1535  0.3046  0.3423
 5494TIP3    H216447   5.268   4.519   1.038  0.2500  0.5352 -0.7799
 5495TIP3   OH216448   3.889   5.377   2.525  0.2053  0.1472  0.4005
 5495TIP3    H116449   3.878   5.284   2.501  2.5194 -0.0062 -0.2674
 5495TIP3    H216450   3.905   5.421   2.442  1.5669  0.7210  0.9408
 5496TIP3   OH216451   3.612   6.040   1.557  0.5600  0.1112 -0.2795
 5496TIP3    H116452   3.632   5.948   1.574 -2.0169 -0.5450 -0.4798
 5496TIP3    H216453   3.657   6.059   1.474  1.5825 -0.7592  0.0501
 5497TIP3   OH216454   4.344   0.609   4.101 -0.6885  0.5938 -0.4363
 5497TIP3    H116455   4.307   0.605   4.012 -2.2830  0.7306  0.1884
 5497TIP3    H216456   4.321   0.526   4.141 -1.5713  1.2287  0.4235
 5498TIP3   OH216457   4.622   6.112   3.950 -0.6323  0.9574 -0.0203
 5498TIP3    H116458   4.641   6.040   4.009 -1.9144  1.0604  0.5529
 5498TIP3    H216459   4.546   6.156   3.989 -0.8336  1.6844 -1.1724
 5499TIP3   OH216460   6.575   4.786   2.891  0.2626 -0.5671  0.0939
 5499TIP3    H116461   6.630   4.712   2.916  2.4760  0.9490 -0.0055
 5499TIP3    H216462   6.530   4.812   2.971  2.1042  0.0556  0.9730
 5500TIP3   OH216463   4.328   1.737   3.088  0.9189 -0.0608 -0.0755
 5500TIP3    H116464   4.265   1.791   3.040  0.9786  0.9011  0.8786
 5500TIP3    H216465   4.277   1.697   3.158  1.0031 -0.7753 -0.4121
 5501TIP3   OH216466   7.163   0.423   1.069  0.1977 -0.1940 -0.0546
 5501TIP3    H116467   7.085   0.389   1.023  0.7897 -1.2632 -0.2982
 5501TIP3    H216468   7.138   0.512   1.094 -0.8536 -0.2660 -0.7454
 5502TIP3   OH216469   4.618   0.916   0.364 -0.6743 -0.4754  0.4714
 5502TIP3    H116470   4.694   0.964   0.398 -0.0978 -1.9070  1.2828
 5502TIP3    H216471   4.649   0.875   0.284 -0.4887 -1.2993  0.9572
 5503TIP3   OH216472   2.494   4.319   3.901  0.2245  0.2000 -0.0175
 5503TIP3    H116473   2.429   4.343   3.967  0.7866  1.1190  0.2153
 5503TIP3    H216474   2.459   4.354   3.819  0.1392  0.1699  0.0060
 5504TIP3   OH216475   1.333   2.490   3.176 -0.0116 -0.0708 -0.0282
 5504TIP3    H116476   1.269   2.524   3.238 -0.7305 -1.6316  0.1212
 5504TIP3    H216477   1.301   2.518   3.091  1.7181  3.3155  0.2551
 5505TIP3   OH216478   0.251   6.185   2.778 -0.1485 -0.0476  0.0752
 5505TIP3    H116479   0.275   6.092   2.782 -1.0093 -0.2881 -0.0525
 5505TIP3    H216480   0.228   6.199   2.686  1.2727  0.6384 -0.1905
 5506TIP3   OH216481   4.268   4.356   4.432  0.5480 -0.1248  0.0716
 5506TIP3    H116482   4.248   4.449   4.421 -0.8641 -0.4420 -0.3437
 5506TIP3    H216483   4.211   4.328   4.504  0.6799 -0.7410 -0.0604
 5507TIP3   OH216484   5.321   5.276   3.002  0.1160  0.3112  0.3065
 5507TIP3    H116485   5.328   5.216   3.076 -0.8695  1.3105  1.2476
 5507TIP3    H216486   5.410   5.308   2.989  0.4319 -0.4340  0.5588
 5508TIP3   OH216487   5.759   3.122   5.625  0.0529 -0.0049 -0.3567
 5508TIP3    H116488   5.765   3.034   5.589 -0.3244 -0.2321  0.1302
 5508TIP3    H216489   5.736   3.178   5.550 -1.2048 -0.5372 -0.3868
 5509TIP3   OH216490   0.721   5.898   5.379 -0.2435 -0.2132 -0.2777
 5509TIP3    H116491   0.813   5.890   5.406 -0.4343  0.8560  0.7741
 5509TIP3    H216492   0.678   5.942   5.453 -1.3934  0.2232 -1.1725
 5510TIP3   OH216493   6.963   4.255   0.008 -0.0027 -0.0421  0.4064
 5510TIP3    H116494   6.950   4.165   0.036 -2.0843  0.5315  1.5337
 5510TIP3    H216495   6.891   4.304   0.050  0.4453  1.9591 -0.9880
 5511TIP3   OH216496   6.926   2.015   0.395 -0.5077 -0.1087  0.3093
 5511TIP3    H116497   6.847   1.973   0.362 -0.8835  0.4490  0.4955
 5511TIP3    H216498   6.936   1.980   0.484  0.0861 -1.0324 -0.1012
 5512TIP3   OH216499   5.732   4.799   4.760 -0.2428  0.2779  0.3437
 5512TIP3    H116500   5.770   4.711   4.752 -0.5368 -0.1524  2.8181
 5512TIP3    H216501   5.693   4.800   4.847  0.4402  3.1489  0.7121
 5513TIP3   OH216502   2.724   3.608   1.003 -0.3026 -0.5040  0.8714
 5513TIP3    H116503   2.794   3.576   0.946 -0.7116 -0.7838  0.5186
 5513TIP3    H216504   2.703   3.695   0.968 -0.1663 -0.4401  0.9473
 5514TIP3   OH216505   0.756   1.867   2.908 -0.1884 -0.1235 -0.3577
 5514TIP3    H116506   0.782   1.806   2.977 -1.8454 -0.8916 -0.3669
 5514TIP3    H216507   0.773   1.819   2.827  2.0175  0.8797 -0.5670
 5515TIP3   OH216508   0.952   3.286   2.479  0.0846 -0.3596 -0.7861
 5515TIP3    H116509   0.958   3.280   2.383 -0.3906 -0.5100 -0.8093
 5515TIP3    H216510   0.989   3.204   2.510  0.8146 -0.0441 -0.8176
 5516TIP3   OH216511   1.332   3.466   5.531  0.2825  0.8685  0.8669
 5516TIP3    H116512   1.376   3.551   5.521  1.7838 -0.0449 -0.8110
 5516TIP3    H216513   1.243   3.482   5.499  0.4276  1.9139  0.9515
 5517TIP3   OH216514   0.243   1.204   0.742 -0.1149  0.5512  0.0304
 5517TIP3    H116515   0.318   1.213   0.684  0.7585  1.1368  1.1906
 5517TIP3    H216516   0.279   1.163   0.821 -1.5718 -1.6471 -0.3835
 5518TIP3   OH216517   2.139   0.073   4.265  0.6884 -0.0560  0.2761
 5518TIP3    H116518   2.123   0.021   4.344  1.2119 -2.0687 -0.8610
 5518TIP3    H216519   2.111   0.016   4.193  2.5455  0.7119 -1.1358
 5519TIP3   OH216520   1.121   2.016   1.741  0.2268  0.0695 -0.3716
 5519TIP3    H116521   1.188   1.953   1.769  0.8402  0.5656 -0.6898
 5519TIP3    H216522   1.049   2.003   1.803  0.3597 -0.9052 -0.3988
 5520TIP3   OH216523   0.043   6.558   3.067  0.4794 -0.3614 -0.0205
 5520TIP3    H116524   0.035   6.614   2.990 -0.9702 -2.2284 -1.3087
 5520TIP3    H216525   0.060   6.470   3.032  3.2540 -0.7525  1.9340
 5521TIP3   OH216526   5.053   3.707   0.499 -0.2208 -0.3790 -0.1309
 5521TIP3    H116527   5.061   3.612   0.511 -1.0063 -0.5137 -0.5502
 5521TIP3    H216528   5.068   3.744   0.585  2.6335 -0.6816 -0.4223
 5522TIP3   OH216529   5.547   1.290   3.047 -0.1254  0.4101  0.3646
 5522TIP3    H116530   5.626   1.236   3.041  0.4058  1.3459 -1.9643
 5522TIP3    H216531   5.499   1.271   2.966 -1.7295  0.7660  1.1819
 5523TIP3   OH216532   0.957   5.590   3.475  0.5699  0.5445  1.1068
 5523TIP3    H116533   0.887   5.598   3.409 -0.7775  1.3751  2.5775
 5523TIP3    H216534   1.036   5.575   3.423 -0.3062  1.9158 -0.7641
 5524TIP3   OH216535   1.470   2.615   4.561 -0.2142 -0.4185  0.5493
 5524TIP3    H116536   1.387   2.594   4.517  0.0031  0.9901 -0.6244
 5524TIP3    H216537   1.447   2.685   4.623 -0.1135 -0.8908  1.1306
 5525TIP3   OH216538   2.497   1.343   3.173  0.4731 -0.0074 -0.1800
 5525TIP3    H116539   2.516   1.435   3.190  0.6070 -0.1520  0.4766
 5525TIP3    H216540   2.448   1.314   3.251 -2.9068  0.4668 -1.9215
 5526TIP3   OH216541   6.067   0.744   1.624 -0.3263 -0.3866 -0.6812
 5526TIP3    H116542   6.141   0.685   1.617 -1.5778 -2.3476  1.3205
 5526TIP3    H216543   6.105   0.831   1.609  2.1466 -1.3975 -0.8177
 5527TIP3   OH216544   0.719   6.190   1.420 -0.4780 -0.1569 -0.5281
 5527TIP3    H116545   0.694   6.108   1.464  0.3226 -0.2801 -0.2769
 5527TIP3    H216546   0.755   6.162   1.336 -0.4547 -0.0436 -0.5559
 5528TIP3   OH216547   3.527   1.076   4.469 -0.0739 -0.4674  0.1310
 5528TIP3    H116548   3.594   1.015   4.439  1.1310 -0.5102  2.6507
 5528TIP3    H216549   3.560   1.108   4.553 -1.1435  2.8809 -0.5514
 5529TIP3   OH216550   1.632   2.822   2.682 -0.4043 -0.3000 -0.2610
 5529TIP3    H116551   1.692   2.885   2.721 -0.3791 -1.1270  1.1057
 5529TIP3    H216552   1.546   2.845   2.717 -0.3602 -1.1307  0.4322
 5530TIP3   OH216553   3.741   3.300   2.536 -0.1417 -0.3244  0.4166
 5530TIP3    H116554   3.741   3.214   2.494  2.3734  0.4755 -1.5506
 5530TIP3    H216555   3.828   3.307   2.576 -0.3562  1.2337  0.6728
 5531TIP3   OH216556   0.545   4.243   0.284 -0.3073 -0.7879  0.1741
 5531TIP3    H116557   0.479   4.266   0.349  0.3898 -0.5939  0.8304
 5531TIP3    H216558   0.535   4.148   0.274 -2.4274 -0.4492 -1.7015
 5532TIP3   OH216559   6.918   0.493   5.669  0.0225  0.0022 -0.0285
 5532TIP3    H116560   6.948   0.511   5.758 -2.7174  0.5752  0.8768
 5532TIP3    H216561   6.924   0.398   5.660  1.6159  0.0563  0.2284
 5533TIP3   OH216562   1.227   6.307   5.271 -0.5706  0.5027  0.1633
 5533TIP3    H116563   1.288   6.350   5.211  0.2988 -0.6104  0.2208
 5533TIP3    H216564   1.144   6.306   5.224 -0.2495  0.9281 -0.4327
 5534TIP3   OH216565   6.593   2.973   0.818 -0.2595 -0.1593 -0.0224
 5534TIP3    H116566   6.688   2.966   0.820 -0.1732  0.6463 -0.8021
 5534TIP3    H216567   6.576   3.067   0.817 -1.1347 -0.2227  2.2347
 5535TIP3   OH216568   5.911   2.660   3.537 -0.2344  0.1428  0.3782
 5535TIP3    H116569   5.823   2.678   3.569 -0.1013 -0.2335  0.9640
 5535TIP3    H216570   5.900   2.649   3.442 -0.5963  1.4475  0.2486
 5536TIP3   OH216571   6.034   2.904   4.659 -0.3020  0.1479  0.2983
 5536TIP3    H116572   6.123   2.881   4.683 -0.1494  1.7973  1.4506
 5536TIP3    H216573   6.039   2.931   4.567  0.1652 -0.7810  0.0418
 5537TIP3   OH216574   3.168   5.885   0.942 -0.5279  0.1908  0.0742
 5537TIP3    H116575   3.209   5.971   0.942 -0.9575  0.4344 -1.5128
 5537TIP3    H216576   3.090   5.895   0.887  0.2260 -1.5499 -1.4576
 5538TIP3   OH216577   6.542   5.508   1.193  0.6632  0.1631 -0.4145
 5538TIP3    H116578   6.612   5.544   1.248  0.7994 -1.1107  0.2692
 5538TIP3    H216579   6.588   5.465   1.121  0.4971  1.3786 -1.2697
 5539TIP3   OH216580   1.662   2.802   0.864 -0.5195 -0.9922 -0.4125
 5539TIP3    H116581   1.633   2.822   0.775 -1.9621 -2.0507 -0.2028
 5539TIP3    H216582   1.632   2.713   0.880  2.5097 -2.0291  0.0196
 5540TIP3   OH216583   4.873   5.897   2.344 -0.3472  0.2129  0.0831
 5540TIP3    H116584   4.899   5.895   2.436 -2.4068  0.1697  0.7133
 5540TIP3    H216585   4.785   5.860   2.343 -0.7467  1.0836 -1.7781
 5541TIP3   OH216586   1.085   6.294   1.679 -0.4759  0.2827  0.3747
 5541TIP3    H116587   0.990   6.300   1.675 -0.5502 -0.9053 -0.4401
 5541TIP3    H216588   1.115   6.344   1.603 -0.6431 -1.7098 -1.1081
 5542TIP3   OH216589   5.139   0.060   3.342  0.1266  0.4985 -0.3345
 5542TIP3    H116590   5.229   0.081   3.365 -0.0061  0.2473  0.4540
 5542TIP3    H216591   5.118  -0.017   3.394  0.0323 -0.5493 -1.8519
 5543TIP3   OH216592   0.378   5.020   3.358 -0.2588  0.0679 -0.5079
 5543TIP3    H116593   0.353   4.928   3.358 -1.4706  0.3532 -2.1146
 5543TIP3    H216594   0.469   5.021   3.389 -0.2453 -1.6440 -0.4341
 5544TIP3   OH216595   2.940   0.658   0.153 -0.0955 -0.3760  0.0675
 5544TIP3    H116596   2.982   0.647   0.239 -2.7056 -0.1808  1.4826
 5544TIP3    H216597   2.930   0.752   0.144  0.3917 -0.3852 -0.5834
 5545TIP3   OH216598   2.867   4.906   2.753  0.5401  0.2625  0.0764
 5545TIP3    H116599   2.858   4.987   2.804 -0.4808 -0.3999  0.9974
 5545TIP3    H216600   2.951   4.869   2.781  0.4324  0.3914  0.5809
 5546TIP3   OH216601   0.084   3.767   3.682  0.0982  0.4792 -0.0818
 5546TIP3    H116602   0.161   3.760   3.625  0.5075  1.0023  0.4044
 5546TIP3    H216603   0.087   3.688   3.736 -0.2325  0.0328 -0.6876
 5547TIP3   OH216604   2.062   4.774   0.875  0.5562  0.0594  0.3422
 5547TIP3    H116605   2.084   4.865   0.895  0.0091 -0.0009  1.2397
 5547TIP3    H216606   2.137   4.724   0.908  0.7736  0.1624  0.0138
 5548TIP3   OH216607   2.294   5.642   5.720 -0.3049 -0.0720  0.0798
 5548TIP3    H116608   2.366   5.598   5.766 -0.6459  0.6749  1.4022
 5548TIP3    H216609   2.283   5.724   5.767 -0.2714  1.0436 -1.7778
 5549TIP3   OH216610   3.151   2.119   0.153  0.1914 -0.4966  0.0491
 5549TIP3    H116611   3.235   2.156   0.127 -0.9964  1.3771 -1.4184
 5549TIP3    H216612   3.115   2.082   0.072 -1.1691  0.3924  0.2187
 5550TIP3   OH216613   4.549   6.678   0.520  0.3449  0.4122 -0.1057
 5550TIP3    H116614   4.488   6.618   0.477  1.2190 -1.4322  1.0814
 5550TIP3    H216615   4.636   6.645   0.496  0.8580  1.7055 -0.0729
 5551TIP3   OH216616   3.747   1.894   4.882  0.2868 -0.5342 -0.2762
 5551TIP3    H116617   3.665   1.936   4.907  0.6483  0.4971 -0.7700
 5551TIP3    H216618   3.812   1.931   4.942  0.4656 -1.0135 -0.1748
 5552TIP3   OH216619   6.435   5.172   5.040  0.0075 -0.2759 -0.0206
 5552TIP3    H116620   6.502   5.221   4.992  0.2874  0.7770  1.3990
 5552TIP3    H216621   6.455   5.080   5.022  0.8131  0.0648 -0.9424
 5553TIP3   OH216622   0.776   2.666   1.046  0.3322  0.0206  0.0791
 5553TIP3    H116623   0.732   2.627   0.970 -0.7123  0.8510  0.2354
 5553TIP3    H216624   0.820   2.593   1.089 -0.8200 -0.8279 -0.1410
 5554TIP3   OH216625   6.961   1.423   0.230 -0.1297  0.4314 -0.2856
 5554TIP3    H116626   7.019   1.419   0.154 -0.3972 -4.2109 -0.5901
 5554TIP3    H216627   7.012   1.383   0.301 -1.3846  0.5126  0.6944
 5555TIP3   OH216628   3.033   3.147   4.937  0.0902  0.9260  0.1329
 5555TIP3    H116629   3.010   3.182   4.850  0.2008  0.1027 -0.2380
 5555TIP3    H216630   2.989   3.206   4.998  0.6376  1.9861 -0.4535
 5556TIP3   OH216631   4.440   2.650   0.386  0.1006  0.5201  0.3989
 5556TIP3    H116632   4.512   2.710   0.367  1.1903 -0.7078  0.4618
 5556TIP3    H216633   4.375   2.703   0.431 -0.0173  2.1729 -1.6228
 5557TIP3   OH216634   4.437   2.696   1.617 -0.2985  0.5095  0.1811
 5557TIP3    H116635   4.429   2.626   1.552  1.0327  0.7080 -0.2148
 5557TIP3    H216636   4.521   2.737   1.599  0.0180  0.7122  1.8962
 5558TIP3   OH216637   5.775   2.764   4.989 -0.1827 -0.2925 -0.2515
 5558TIP3    H116638   5.819   2.754   5.074 -0.7921  0.6646  0.1951
 5558TIP3    H216639   5.684   2.740   5.006 -0.2804 -0.2130 -0.6578
 5559TIP3   OH216640   3.612   6.591   2.605  0.7711 -0.2107  0.0853
 5559TIP3    H116641   3.592   6.532   2.678  1.0570  0.8354  1.0552
 5559TIP3    H216642   3.670   6.657   2.644  1.4128  0.0324 -1.2579
 5560TIP3   OH216643   2.259   1.809   3.484  0.0738 -0.6738  0.5145
 5560TIP3    H116644   2.265   1.862   3.404  0.2267 -2.3957 -0.6523
 5560TIP3    H216645   2.166   1.811   3.507 -0.1275 -0.9263 -0.2501
 5561TIP3   OH216646   2.314   1.095   4.700 -0.0913 -0.2103  0.3277
 5561TIP3    H116647   2.296   1.078   4.608  0.5174  0.7985  0.0054
 5561TIP3    H216648   2.406   1.069   4.712  0.7531  2.3112 -0.0937
 5562TIP3   OH216649   4.653   1.645   0.440  0.4965 -0.2897  0.0163
 5562TIP3    H116650   4.564   1.635   0.473  0.0479  0.8102 -0.8163
 5562TIP3    H216651   4.655   1.592   0.360  0.8880 -1.0756  0.5330
 5563TIP3   OH216652   2.661   4.713   4.739  0.4098  0.9602 -0.1985
 5563TIP3    H116653   2.573   4.703   4.775  1.2768 -1.0800  1.5931
 5563TIP3    H216654   2.663   4.802   4.703 -2.9070  0.4444 -2.0022
 5564TIP3   OH216655   4.978   4.688   2.282  0.0228 -0.3629  0.1877
 5564TIP3    H116656   4.967   4.632   2.359 -0.1086 -0.3671  0.1653
 5564TIP3    H216657   5.073   4.704   2.277  0.0758 -0.7029  0.1065
 5565TIP3   OH216658   1.038   1.955   5.878 -0.2059 -0.0049  0.2518
 5565TIP3    H116659   1.103   2.024   5.887  1.8516 -1.8082  0.0086
 5565TIP3    H216660   1.034   1.938   5.783 -1.1405  0.1414  0.2493
 5566TIP3   OH216661   6.748   2.089   4.348 -0.0716  0.1353 -0.1230
 5566TIP3    H116662   6.708   2.054   4.269 -0.0420 -0.5359  0.1521
 5566TIP3    H216663   6.842   2.076   4.335 -0.1673 -2.4516  1.1163
 5567TIP3   OH216664   5.800   1.813   0.466 -0.9848  0.5581 -0.2538
 5567TIP3    H116665   5.711   1.846   0.466 -0.8456  0.9478 -0.9518
 5567TIP3    H216666   5.790   1.719   0.481 -1.4141  0.8051  1.1191
 5568TIP3   OH216667   2.778   6.675   3.907  0.7075  0.8872  0.0574
 5568TIP3    H116668   2.816   6.600   3.952 -1.5850 -1.0097 -0.9722
 5568TIP3    H216669   2.684   6.669   3.925  0.0239  1.5411 -2.7496
 5569TIP3   OH216670   6.402   0.467   4.597 -0.0444 -0.2069 -0.8468
 5569TIP3    H116671   6.444   0.551   4.616 -0.7128 -0.0403 -0.0381
 5569TIP3    H216672   6.467   0.401   4.622 -0.6484  0.0138  1.5972
 5570TIP3   OH216673   3.380   6.224   3.199 -0.2256 -0.4546  0.0648
 5570TIP3    H116674   3.414   6.265   3.278  0.9319  0.1887 -0.7429
 5570TIP3    H216675   3.429   6.142   3.191 -1.6057 -1.4075  0.9586
 5571TIP3   OH216676   6.452   0.722   1.397 -0.2299  0.0049  0.1108
 5571TIP3    H116677   6.491   0.783   1.460 -1.8528 -0.3685  1.5266
 5571TIP3    H216678   6.401   0.661   1.450  0.0488 -1.6385 -1.4068
 5572TIP3   OH216679   3.396   1.683   3.756  0.4574  0.2162  0.3835
 5572TIP3    H116680   3.328   1.684   3.823  0.5287 -1.6906  0.5212
 5572TIP3    H216681   3.455   1.754   3.781 -0.6448  0.9179  1.1057
 5573TIP3   OH216682   6.872   4.306   4.519 -0.0488 -0.1077  0.1424
 5573TIP3    H116683   6.882   4.314   4.424 -0.5627  1.1694  0.1774
 5573TIP3    H216684   6.943   4.361   4.555 -1.4816  1.6574  0.4450
 5574TIP3   OH216685   7.056   0.995   5.620  0.4177 -0.3333  0.2826
 5574TIP3    H116686   6.964   1.020   5.616  0.5191 -0.1230 -1.3333
 5574TIP3    H216687   7.102   1.063   5.570  1.2984 -1.0804  0.0369
 5575TIP3   OH216688   2.624   3.634   2.940 -0.5129 -0.5320 -0.4853
 5575TIP3    H116689   2.628   3.547   2.980  0.8086 -0.5580 -0.6466
 5575TIP3    H216690   2.710   3.673   2.957  0.0673 -0.4744 -3.1481
 5576TIP3   OH216691   3.634   0.061   5.057  0.5655 -0.1130 -0.4716
 5576TIP3    H116692   3.716   0.025   5.023  1.9321  2.1606  0.2834
 5576TIP3    H216693   3.634   0.036   5.150 -1.3284 -3.0099 -1.1089
 5577TIP3   OH216694   5.229   5.812   1.425  0.0156 -0.3444 -0.1640
 5577TIP3    H116695   5.257   5.728   1.461 -0.8156 -0.4634  0.2405
 5577TIP3    H216696   5.228   5.871   1.501 -0.2557 -0.1954 -0.2828
 5578TIP3   OH216697   6.087   0.622   4.967 -0.2361  0.1005 -0.4501
 5578TIP3    H116698   6.091   0.530   4.941 -0.3067  0.0708 -0.3582
 5578TIP3    H216699   6.177   0.652   4.963 -0.1960 -0.0058 -0.3627
 5579TIP3   OH216700   2.428   5.839   3.181  0.2751  0.2473 -0.1838
 5579TIP3    H116701   2.523   5.836   3.197  0.0904 -3.6899  1.1132
 5579TIP3    H216702   2.416   5.790   3.100 -0.7450 -0.2414  0.2594
 5580TIP3   OH216703   2.420   5.449   1.604  0.0765  0.0717 -0.0512
 5580TIP3    H116704   2.376   5.455   1.519  2.0739 -0.4585 -1.1751
 5580TIP3    H216705   2.406   5.535   1.643 -1.4865  0.0947 -0.5670
 5581TIP3   OH216706   3.853   3.808   0.704  0.3095  0.3182  0.0070
 5581TIP3    H116707   3.857   3.790   0.611  0.9224 -2.7464  0.5179
 5581TIP3    H216708   3.760   3.820   0.723  0.0356 -0.4135 -0.8105
 5582TIP3   OH216709   0.924   3.522   1.680 -0.1902 -0.5130  0.0396
 5582TIP3    H116710   0.868   3.457   1.722 -2.2192  1.2996  0.3296
 5582TIP3    H216711   0.863   3.576   1.628  1.5578  0.4108 -1.1441
 5583TIP3   OH216712   1.435   3.134   5.787  0.2974  0.1070 -0.1096
 5583TIP3    H116713   1.416   3.211   5.840 -2.4085  0.0039 -0.7492
 5583TIP3    H216714   1.479   3.169   5.709 -0.6397  0.9990 -0.2628
 5584TIP3   OH216715   2.857   2.893   0.733  0.2978  0.4890 -0.0454
 5584TIP3    H116716   2.816   2.818   0.776  1.6464  0.3050  0.9737
 5584TIP3    H216717   2.793   2.963   0.742 -0.0652  0.0507  0.9443
 5585TIP3   OH216718   7.186   6.218   3.716 -0.2312  0.3064 -0.1779
 5585TIP3    H116719   7.244   6.159   3.668  1.2553 -0.2416  2.1470
 5585TIP3    H216720   7.098   6.186   3.695  0.3383 -0.1229 -2.1748
 5586TIP3   OH216721   6.793   5.656   2.348 -0.5237  0.9670  0.1231
 5586TIP3    H116722   6.703   5.685   2.337 -1.1755 -0.1933  1.9886
 5586TIP3    H216723   6.839   5.733   2.381 -0.4060  2.0148 -2.2407
 5587TIP3   OH216724   6.235   5.076   3.435  0.6033  0.0776 -0.1313
 5587TIP3    H116725   6.283   5.060   3.354  1.9098 -0.6693  0.7673
 5587TIP3    H216726   6.192   5.161   3.421  3.5318  1.6349 -0.3585
 5588TIP3   OH216727   1.920   0.249   2.929 -0.2384 -0.0600  0.0020
 5588TIP3    H116728   1.888   0.219   3.014  1.2305 -2.2874 -0.1635
 5588TIP3    H216729   1.995   0.304   2.950 -0.1364 -0.2597  0.1621
 5589TIP3   OH216730   3.212   3.993   2.942 -0.7102  0.4361 -0.0662
 5589TIP3    H116731   3.276   4.009   2.873  0.5191 -1.5033  0.5342
 5589TIP3    H216732   3.199   4.078   2.983  0.2122  1.1895 -1.2626
 5590TIP3   OH216733   5.714   2.033   1.777  0.4075 -0.3434  0.4959
 5590TIP3    H116734   5.776   1.960   1.777  0.1535 -0.5633  0.0020
 5590TIP3    H216735   5.746   2.091   1.847  1.6390 -0.0600 -0.2610
 5591TIP3   OH216736   0.806   5.153   5.839  0.3374 -0.1080  0.3193
 5591TIP3    H116737   0.807   5.123   5.930 -0.5927  1.3937  0.8642
 5591TIP3    H216738   0.807   5.249   5.846  2.8934  0.0596 -1.3323
 5592TIP3   OH216739   6.784   0.380   3.660 -0.1923  0.1269  0.3691
 5592TIP3    H116740   6.837   0.300   3.656  0.9123  0.8505 -0.0935
 5592TIP3    H216741   6.849   0.450   3.672 -1.1695  0.9120  1.2674
 5593TIP3   OH216742   4.638   0.126   4.690  0.4250 -0.3800  0.1740
 5593TIP3    H116743   4.707   0.175   4.735  0.6679 -0.8355  0.2975
 5593TIP3    H216744   4.600   0.071   4.758  0.0833 -0.2892  0.0562
 5594TIP3   OH216745   0.104   5.985   4.045 -0.2475  0.1444  0.3431
 5594TIP3    H116746   0.188   5.979   4.091  0.0565 -2.0117 -0.3626
 5594TIP3    H216747   0.111   6.065   3.993  0.9044  0.6048  1.1521
 5595TIP3   OH216748   4.782   6.673   5.059  0.3393  0.2013 -0.1794
 5595TIP3    H116749   4.716   6.605   5.068 -0.0674  0.6727  0.4925
 5595TIP3    H216750   4.740   6.752   5.093  1.7187  0.2248  1.5953
 5596TIP3   OH216751   4.997   4.863   2.031 -0.3082  0.0156 -0.1726
 5596TIP3    H116752   4.999   4.818   2.115 -1.5061  0.4022  0.0720
 5596TIP3    H216753   5.088   4.890   2.016  0.0220 -0.5710  0.7012
 5597TIP3   OH216754   6.851   4.112   2.241 -0.9432 -1.0994  0.1336
 5597TIP3    H116755   6.836   4.022   2.269 -0.5048 -2.2238 -2.8462
 5597TIP3    H216756   6.946   4.116   2.227 -1.0130 -0.2772 -0.1243
 5598TIP3   OH216757   3.002   1.242   3.076 -0.1931 -0.2739 -0.1873
 5598TIP3    H116758   2.910   1.228   3.100  0.1824 -3.3221 -0.1325
 5598TIP3    H216759   3.009   1.205   2.987  0.4955  2.2006 -1.2377
 5599TIP3   OH216760   5.706   1.608   4.655  0.0626  0.5760 -0.0063
 5599TIP3    H116761   5.634   1.634   4.599  1.3692 -2.2116 -3.3887
 5599TIP3    H216762   5.784   1.646   4.613  0.9291  0.0663  1.0836
 5600TIP3   OH216763   4.890   0.857   3.299  0.5583 -0.4856 -0.2486
 5600TIP3    H116764   4.809   0.807   3.285  0.0052  0.2990  0.0993
 5600TIP3    H216765   4.898   0.861   3.394  1.4189 -1.1964 -0.2805
 5601TIP3   OH216766   2.061   4.709   5.205  0.1252 -0.1889  0.3754
 5601TIP3    H116767   2.063   4.623   5.248 -1.8003 -0.8953 -0.7966
 5601TIP3    H216768   2.113   4.696   5.126  0.4308 -0.0648  0.5573
 5602TIP3   OH216769   1.957   5.286   4.620 -0.5677 -0.3638 -0.0902
 5602TIP3    H116770   2.007   5.365   4.600  0.8224 -0.8669  1.2295
 5602TIP3    H216771   1.873   5.319   4.651 -0.1891  0.5857 -0.0365
 5603TIP3   OH216772   6.273   3.484   3.136 -0.1907  0.0306  0.3734
 5603TIP3    H116773   6.291   3.461   3.227 -2.4963  1.1145  1.1686
 5603TIP3    H216774   6.327   3.561   3.120  1.1356 -0.8541  0.3840
 5604TIP3   OH216775   5.869   2.469   4.403 -0.7838  0.3281  0.2153
 5604TIP3    H116776   5.882   2.424   4.320  0.9014  0.4727  0.3733
 5604TIP3    H216777   5.954   2.509   4.423 -0.8647 -0.4614  2.4590
 5605TIP3   OH216778   7.112   4.926   3.778  0.2813 -0.0099  0.3338
 5605TIP3    H116779   7.195   4.952   3.740  0.2049  1.1084  0.8792
 5605TIP3    H216780   7.055   5.003   3.767 -1.3077 -1.3528 -1.7127
 5606TIP3   OH216781   5.389   6.736   0.696  0.0538 -0.2523  0.2059
 5606TIP3    H116782   5.322   6.803   0.686 -0.0203 -0.2672  0.6073
 5606TIP3    H216783   5.392   6.718   0.790  0.9106  0.0496  0.2463
 5607TIP3   OH216784   0.847   2.575   1.973 -0.2801 -0.1600 -0.0607
 5607TIP3    H116785   0.917   2.641   1.980  1.0536 -1.4796 -0.4372
 5607TIP3    H216786   0.780   2.605   2.034  0.6049  1.1698  0.3139
 5608TIP3   OH216787   1.629   5.748   5.261  0.3008  0.0879  0.5262
 5608TIP3    H116788   1.723   5.736   5.280  0.4736  0.2457 -0.2055
 5608TIP3    H216789   1.611   5.838   5.289  0.2241 -0.1374  1.2166
 5609TIP3   OH216790   2.670   5.755   5.844  0.3144  0.6775 -0.1402
 5609TIP3    H116791   2.584   5.716   5.861  0.3750  0.9858  0.8768
 5609TIP3    H216792   2.708   5.769   5.930  1.6073  0.0776 -0.5838
 5610TIP3   OH216793   0.270   2.126   2.205 -0.0339  0.1533  0.1652
 5610TIP3    H116794   0.295   2.202   2.258 -0.8974  0.2118  0.5181
 5610TIP3    H216795   0.298   2.051   2.257  0.9041  0.2291 -0.2274
 5611TIP3   OH216796   4.549   2.644   1.268  0.3377  0.0652 -0.5517
 5611TIP3    H116797   4.490   2.716   1.291  1.1115  0.5721 -0.1103
 5611TIP3    H216798   4.525   2.573   1.327  2.2645  1.3253  1.9412
 5612TIP3   OH216799   4.154   2.161   4.590 -0.0381  0.2417 -0.4527
 5612TIP3    H116800   4.143   2.125   4.678  0.7593  0.4832 -0.2426
 5612TIP3    H216801   4.150   2.085   4.532 -0.6436  0.0914 -0.2147
 5613TIP3   OH216802   5.625   3.720   2.323 -0.3841  0.2996 -0.1787
 5613TIP3    H116803   5.582   3.671   2.394 -1.9983  0.4369 -1.0143
 5613TIP3    H216804   5.682   3.655   2.281 -0.4181 -0.1323  0.4241
 5614TIP3   OH216805   6.588   5.141   2.193 -0.1799  0.5891  0.0455
 5614TIP3    H116806   6.607   5.134   2.099 -0.6580  1.2872 -0.1201
 5614TIP3    H216807   6.655   5.201   2.226  0.8440 -0.7323  0.4450
 5615TIP3   OH216808   2.858   5.394   3.877  0.0232  0.2076  0.3064
 5615TIP3    H116809   2.884   5.376   3.967  0.6081  0.7976  0.2669
 5615TIP3    H216810   2.884   5.485   3.862  0.2374  0.0180 -0.5570
 5616TIP3   OH216811   2.497   2.241   5.886 -1.0205 -0.0245 -0.6302
 5616TIP3    H116812   2.517   2.148   5.897 -0.6842  0.2607  1.8625
 5616TIP3    H216813   2.404   2.244   5.865 -1.5660 -0.9154  1.3929
 5617TIP3   OH216814   4.876   2.499   2.597 -0.0075  0.6109  0.1469
 5617TIP3    H116815   4.819   2.569   2.568  0.2936  0.6672 -0.3261
 5617TIP3    H216816   4.835   2.465   2.677 -2.4755 -1.4820 -1.8301
 5618TIP3   OH216817   2.511   1.925   2.404  0.2539 -0.1676  0.1976
 5618TIP3    H116818   2.422   1.910   2.372  0.5201  1.2696 -1.3485
 5618TIP3    H216819   2.567   1.901   2.330  1.0947  0.2039  0.6994
 5619TIP3   OH216820   6.515   1.773   4.525 -0.0462 -0.3198 -0.0967
 5619TIP3    H116821   6.583   1.787   4.459  0.8218  0.3849  0.8948
 5619TIP3    H216822   6.547   1.821   4.602 -1.4660 -0.3488  0.5415
 5620TIP3   OH216823   1.453   1.697   5.406 -0.3632  0.4630 -0.0003
 5620TIP3    H116824   1.505   1.697   5.486  1.0008  3.2476 -0.7628
 5620TIP3    H216825   1.381   1.637   5.424  2.1046 -2.2362  1.7602
 5621TIP3   OH216826   5.548   4.484   4.087 -0.1534 -0.2556  0.0096
 5621TIP3    H116827   5.637   4.464   4.057 -0.2123  2.5790 -2.5992
 5621TIP3    H216828   5.498   4.494   4.006 -2.0130  1.5510  1.2965
 5622TIP3   OH216829   0.871   1.194   0.664  0.0536 -0.2000 -0.2019
 5622TIP3    H116830   0.945   1.243   0.700  1.3051  0.0575 -2.8842
 5622TIP3    H216831   0.911   1.115   0.628 -1.3923 -1.2957  0.4917
 5623TIP3   OH216832   7.158   1.205   5.256  0.4826  0.1413 -0.2191
 5623TIP3    H116833   7.204   1.288   5.264 -0.1378  0.4035  0.8342
 5623TIP3    H216834   7.156   1.170   5.345 -1.2716  0.1000 -0.2423
 5624TIP3   OH216835   1.400   6.556   4.185 -0.3974 -0.2677  0.1422
 5624TIP3    H116836   1.358   6.520   4.107  0.1180  0.8369 -0.6749
 5624TIP3    H216837   1.474   6.497   4.201 -1.0355 -1.0280  0.3617
 5625TIP3   OH216838   4.052   3.854   2.199 -0.0102  0.3703 -0.3408
 5625TIP3    H116839   4.059   3.763   2.170 -1.7853  0.0565  0.0700
 5625TIP3    H216840   4.083   3.853   2.289  0.3357  0.2500 -0.4608
 5626TIP3   OH216841   4.818   4.780   0.048 -0.0718 -0.0310  0.6150
 5626TIP3    H116842   4.901   4.738   0.071 -0.2722 -1.2401 -0.7216
 5626TIP3    H216843   4.776   4.799   0.132  1.2089 -0.1172  1.2922
 5627TIP3   OH216844   6.480   2.214   0.813 -0.5351 -0.6188 -0.2533
 5627TIP3    H116845   6.390   2.228   0.840 -0.1286  0.3538  0.6330
 5627TIP3    H216846   6.478   2.221   0.717 -1.2253  0.4345 -0.1680
 5628TIP3   OH216847   6.264   3.824   1.332  0.2606  0.3154  0.1326
 5628TIP3    H116848   6.348   3.867   1.320  1.0133 -0.5759  1.8988
 5628TIP3    H216849   6.275   3.769   1.409 -2.3707  1.3182  1.3839
 5629TIP3   OH216850   0.295   1.304   3.149  0.3554  0.6886 -0.0286
 5629TIP3    H116851   0.223   1.328   3.207 -1.9978 -1.4724 -1.8497
 5629TIP3    H216852   0.295   1.370   3.081 -0.7353  0.0972 -0.6363
 5630TIP3   OH216853   3.878   3.503   5.329 -0.2651  0.0747 -0.3292
 5630TIP3    H116854   3.796   3.467   5.296 -0.5236 -1.0508  1.4144
 5630TIP3    H216855   3.929   3.426   5.356  1.4525  0.7369 -1.5039
 5631TIP3   OH216856   0.514   0.935   4.977 -0.2630  0.2409  0.0543
 5631TIP3    H116857   0.566   0.950   4.898  0.3593  0.8690  0.5648
 5631TIP3    H216858   0.429   0.906   4.945  0.4011 -0.8459 -0.8077
 5632TIP3   OH216859   6.738   0.341   0.085 -0.6483  0.3584  0.5654
 5632TIP3    H116860   6.702   0.349   0.173 -1.7436  0.3817  0.1365
 5632TIP3    H216861   6.801   0.269   0.091 -0.8157  0.2640  1.3240
 5633TIP3   OH216862   5.864   0.709   2.126 -0.4888 -0.1320 -0.5230
 5633TIP3    H116863   5.912   0.710   2.044 -1.2347 -0.4587 -0.9716
 5633TIP3    H216864   5.794   0.646   2.113 -0.9256  0.1859  0.1889
 5634TIP3   OH216865   2.371   2.440   3.216  0.5582  0.2904  0.2391
 5634TIP3    H116866   2.290   2.466   3.171  0.5352  2.0779  1.2260
 5634TIP3    H216867   2.435   2.508   3.191  1.7794 -1.0746 -0.4983
 5635TIP3   OH216868   1.718   2.250   2.748 -0.5167  0.1011  0.1312
 5635TIP3    H116869   1.684   2.173   2.794  0.7520 -0.1694  0.6385
 5635TIP3    H216870   1.741   2.311   2.817 -0.9024  0.6966 -0.2504
 5636TIP3   OH216871   2.286   0.028   1.925  0.4419  0.0992  0.8189
 5636TIP3    H116872   2.267   0.104   1.869  1.4196  0.3772  0.8571
 5636TIP3    H216873   2.215   0.028   1.990 -0.2714  0.2301  0.0674
 5637TIP3   OH216874   6.324   3.204   0.879 -0.1207  0.0050  0.6494
 5637TIP3    H116875   6.264   3.155   0.936 -0.2025 -1.1364 -0.3909
 5637TIP3    H216876   6.294   3.184   0.790  0.1293  1.5959  0.1702
 5638TIP3   OH216877   6.726   0.655   2.209 -0.8882 -0.2180  0.2895
 5638TIP3    H116878   6.732   0.571   2.165  0.5322 -0.2068  0.4049
 5638TIP3    H216879   6.752   0.719   2.143  0.3210 -0.1092  0.8467
 5639TIP3   OH216880   3.390   4.178   5.703 -0.1860  0.1725  0.0887
 5639TIP3    H116881   3.430   4.093   5.690 -0.3260  0.1859 -0.4607
 5639TIP3    H216882   3.419   4.205   5.791  0.9770  0.1797 -0.2816
 5640TIP3   OH216883   5.493   6.651   3.998 -0.1959  0.3918 -0.0446
 5640TIP3    H116884   5.511   6.580   3.936 -0.1410  0.9677 -0.7027
 5640TIP3    H216885   5.401   6.671   3.984  0.0508  1.1617 -0.6281
 5641TIP3   OH216886   6.430   6.022   2.359 -0.0383 -0.8333 -0.1028
 5641TIP3    H116887   6.479   6.036   2.279 -0.5373 -0.4611 -0.3453
 5641TIP3    H216888   6.339   6.039   2.336 -0.1011  0.1170  0.7323
 5642TIP3   OH216889   2.173   6.303   4.258  0.3479 -0.7345  0.0920
 5642TIP3    H116890   2.128   6.277   4.338 -0.2991  0.0480 -0.0073
 5642TIP3    H216891   2.125   6.380   4.227 -0.4248 -1.9569 -1.9171
 5643TIP3   OH216892   3.859   4.229   5.454 -0.2647  0.5434 -0.6131
 5643TIP3    H116893   3.871   4.150   5.401 -1.5286 -0.2127  0.1685
 5643TIP3    H216894   3.910   4.296   5.409 -0.3769 -0.3450 -2.1376
 5644TIP3   OH216895   5.447   0.607   3.497  0.3802  0.5082  0.2572
 5644TIP3    H116896   5.495   0.591   3.416  1.3720  0.0924  0.9090
 5644TIP3    H216897   5.402   0.524   3.515  0.4040  0.5037  0.2947
 5645TIP3   OH216898   4.556   6.680   5.487  0.4911  0.7574  0.2338
 5645TIP3    H116899   4.629   6.741   5.493  1.3736 -0.2647  0.1777
 5645TIP3    H216900   4.515   6.699   5.402  1.0772  0.9123 -0.0176
 5646TIP3   OH216901   2.086   6.398   5.540  0.2339  0.1707  0.1923
 5646TIP3    H116902   2.140   6.454   5.484 -0.3207  0.8738  0.3472
 5646TIP3    H216903   2.127   6.312   5.534 -0.5647 -0.1017 -2.3580
 5647TIP3   OH216904   0.391   2.524   1.219  0.4465  0.4443 -0.0412
 5647TIP3    H116905   0.477   2.545   1.255  1.4460 -0.9582 -1.4909
 5647TIP3    H216906   0.409   2.492   1.130 -0.9876 -4.1491  1.0280
 5648TIP3   OH216907   1.916   2.541   1.164 -0.2918  0.2254  0.7026
 5648TIP3    H116908   1.835   2.503   1.131 -0.5367  0.3950  1.0961
 5648TIP3    H216909   1.985   2.489   1.124 -0.6103 -0.2915  0.8122
 5649TIP3   OH216910   2.519   1.457   5.016  0.2877 -0.1816 -0.4686
 5649TIP3    H116911   2.592   1.469   4.956 -0.2982  0.0431 -1.1420
 5649TIP3    H216912   2.485   1.370   4.995  0.9803 -0.7213  0.5386
 5650TIP3   OH216913   3.039   1.228   3.796 -0.3182  0.1964  0.4657
 5650TIP3    H116914   3.103   1.277   3.848  1.3694 -0.4248 -0.9078
 5650TIP3    H216915   3.064   1.136   3.808  0.0658  0.0339 -1.3054
 5651TIP3   OH216916   5.265   2.546   2.813  0.1583 -0.1861 -0.1421
 5651TIP3    H116917   5.310   2.606   2.872 -0.7277  1.2040 -0.8412
 5651TIP3    H216918   5.172   2.554   2.836 -0.2866  0.8868 -2.1151
 5652TIP3   OH216919   3.429   2.989   5.773 -0.2871 -0.0498 -0.0107
 5652TIP3    H116920   3.416   3.083   5.765  3.1774  0.6031  0.4157
 5652TIP3    H216921   3.461   2.977   5.863 -0.7800 -1.6897 -0.0202
 5653TIP3   OH216922   7.084   5.078   5.592  0.0799 -0.0674 -0.0968
 5653TIP3    H116923   6.999   5.092   5.552  0.2805  1.0844 -0.1732
 5653TIP3    H216924   7.097   5.155   5.648  0.4502 -0.9201  1.0226
 5654TIP3   OH216925   2.799   4.065   2.778 -0.1497 -0.0413  0.0718
 5654TIP3    H116926   2.883   4.109   2.787 -0.1409 -0.2587  1.3461
 5654TIP3    H216927   2.815   3.976   2.811 -0.5332 -0.5285 -1.0339
 5655TIP3   OH216928   2.179   6.127   2.992 -0.0905 -0.7759 -0.3530
 5655TIP3    H116929   2.168   6.068   3.066  1.8019 -1.1374 -0.3180
 5655TIP3    H216930   2.269   6.158   2.998 -0.6902  1.2593 -1.0271
 5656TIP3   OH216931   5.384   0.665   0.836 -0.2840 -0.3294 -0.1552
 5656TIP3    H116932   5.386   0.581   0.790  1.5749 -0.3618 -0.0934
 5656TIP3    H216933   5.424   0.646   0.921  0.7307  0.7284 -0.3721
 5657TIP3   OH216934   5.921   6.165   4.866  0.1011 -0.1561 -0.1851
 5657TIP3    H116935   5.880   6.218   4.798  0.9663 -0.8495 -1.2812
 5657TIP3    H216936   5.965   6.094   4.818 -2.0336 -2.6298  1.2736
 5658TIP3   OH216937   5.322   4.939   2.350 -0.4003 -0.0446 -0.1997
 5658TIP3    H116938   5.376   4.938   2.271  0.7405 -0.4298  0.5600
 5658TIP3    H216939   5.239   4.978   2.322  1.0371  2.8044 -0.8972
 5659TIP3   OH216940   3.476   6.241   5.781 -0.2945  0.5004  0.1310
 5659TIP3    H116941   3.504   6.160   5.737 -0.7115  0.9632 -1.0322
 5659TIP3    H216942   3.401   6.215   5.834 -0.8823  0.2532 -0.8041
 5660TIP3   OH216943   2.775   1.363   3.981  0.3393 -0.0692  0.3127
 5660TIP3    H116944   2.855   1.410   4.006 -1.3674  3.9522 -0.8475
 5660TIP3    H216945   2.767   1.378   3.887 -0.6608 -2.3894 -0.0382
 5661TIP3   OH216946   0.802   1.073   5.557  0.2642 -0.1211  0.0828
 5661TIP3    H116947   0.787   1.066   5.651 -0.2221  4.3857  0.5427
 5661TIP3    H216948   0.718   1.099   5.521  0.0576 -3.1372 -1.9737
 5662TIP3   OH216949   5.757   1.026   1.339 -0.6211 -0.1503 -0.4415
 5662TIP3    H116950   5.812   1.087   1.290  0.3275 -0.3476  0.3434
 5662TIP3    H216951   5.711   1.081   1.403  2.4275 -0.4735  2.2798
 5663TIP3   OH216952   3.099   3.605   1.137 -0.2188  0.6498  0.5325
 5663TIP3    H116953   3.153   3.580   1.062 -1.0889  0.4630 -0.0532
 5663TIP3    H216954   3.142   3.565   1.212 -0.9975 -1.8104 -0.2500
 5664TIP3   OH216955   3.148   6.108   3.133  0.5941 -0.4210  0.0130
 5664TIP3    H116956   3.225   6.162   3.152  1.9934 -1.6672 -1.7401
 5664TIP3    H216957   3.122   6.071   3.218  0.1000  2.2640  1.1049
 5665TIP3   OH216958   1.457   0.848   3.919 -0.2574 -0.1417  0.0627
 5665TIP3    H116959   1.456   0.754   3.940  0.7952 -0.2291 -0.2394
 5665TIP3    H216960   1.529   0.857   3.856 -0.3525  0.8746  0.0964
 5666TIP3   OH216961   3.760   5.520   4.311  0.5996  0.0798  0.3707
 5666TIP3    H116962   3.712   5.439   4.296 -0.1090  0.5963 -0.1598
 5666TIP3    H216963   3.695   5.582   4.342  0.1298  1.8062 -3.5626
 5667TIP3   OH216964   2.007   3.187   1.520  0.1763 -0.2311 -0.1796
 5667TIP3    H116965   2.102   3.176   1.525  0.3722  1.1176 -0.5279
 5667TIP3    H216966   1.977   3.176   1.611  0.9458  1.4674  0.3205
 5668TIP3   OH216967   0.198   1.650   2.453  0.2136  0.3470  0.0035
 5668TIP3    H116968   0.160   1.703   2.523  2.3853  0.6216  1.0674
 5668TIP3    H216969   0.291   1.674   2.452  0.8651 -1.9312 -0.8727
 5669TIP3   OH216970   3.267   2.006   0.566 -0.0165 -0.8077  0.1251
 5669TIP3    H116971   3.191   2.042   0.519  1.1993  1.1299 -0.4656
 5669TIP3    H216972   3.239   1.918   0.591 -1.4068 -1.2819 -2.6228
 5670TIP3   OH216973   6.586   6.707   2.611 -0.3881 -0.7478  0.5802
 5670TIP3    H116974   6.619   6.753   2.535 -0.0731 -1.0039  0.5631
 5670TIP3    H216975   6.528   6.771   2.654 -0.4468 -0.5527  0.2150
 5671TIP3   OH216976   6.366   3.022   3.936 -0.1267 -0.1041 -0.9260
 5671TIP3    H116977   6.298   2.980   3.988  0.2691 -0.5169 -0.7341
 5671TIP3    H216978   6.326   3.103   3.905  0.1696  1.0135  1.4094
 5672TIP3   OH216979   4.231   0.452   2.835  0.5076 -0.2943 -0.1254
 5672TIP3    H116980   4.243   0.537   2.791  1.2665 -0.9657 -1.2714
 5672TIP3    H216981   4.219   0.474   2.927  1.6547  1.0160 -0.2589
 5673TIP3   OH216982   5.350   2.747   0.928 -0.2820 -0.3350  0.3026
 5673TIP3    H116983   5.315   2.832   0.955  0.7477 -0.3998  2.0335
 5673TIP3    H216984   5.275   2.701   0.890 -1.2298  0.7833  0.7442
 5674TIP3   OH216985   3.241   3.737   3.314 -0.2101  0.1081 -0.1637
 5674TIP3    H116986   3.302   3.675   3.354 -0.7944 -0.9493 -0.8695
 5674TIP3    H216987   3.298   3.802   3.272  0.4140  0.8919  1.7563
 5675TIP3   OH216988   1.727   3.177   5.332  0.3692  0.1294 -0.3752
 5675TIP3    H116989   1.773   3.217   5.405  1.8776  0.3298 -1.3931
 5675TIP3    H216990   1.779   3.099   5.311  1.3917  1.3522 -2.7291
 5676TIP3   OH216991   2.686   2.338   3.186 -0.1068 -0.5371  0.0158
 5676TIP3    H116992   2.614   2.393   3.157 -0.3810 -0.9285 -0.0463
 5676TIP3    H216993   2.750   2.400   3.222 -0.3331 -0.1650 -0.2148
 5677TIP3   OH216994   5.863   2.659   2.952  0.0006  0.3559 -0.6454
 5677TIP3    H116995   5.892   2.702   2.872 -0.1776  0.0865 -0.8585
 5677TIP3    H216996   5.769   2.644   2.938  0.3988 -1.8079 -1.3978
 5678TIP3   OH216997   1.149   4.424   0.757  0.3205 -0.3396  0.4399
 5678TIP3    H116998   1.160   4.366   0.682 -0.3484  0.9337 -0.6767
 5678TIP3    H216999   1.111   4.368   0.825 -0.6354 -1.1488 -0.7160
 5679TIP3   OH217000   1.410   4.294   1.123  0.4662  0.0726  0.2155
 5679TIP3    H117001   1.411   4.371   1.067 -0.6498 -0.8926 -1.1883
 5679TIP3    H217002   1.381   4.327   1.208  0.7862  1.3269 -0.1412
 5680TIP3   OH217003   5.026   2.897   4.374  0.6368  0.4440 -0.1599
 5680TIP3    H117004   4.972   2.822   4.350  0.9496  0.4013 -0.7586
 5680TIP3    H217005   5.032   2.949   4.293  0.6570  0.9665  0.1687
 5681TIP3   OH217006   2.670   5.899   3.539 -0.5985 -0.0784  0.2283
 5681TIP3    H117007   2.754   5.871   3.577  0.3583  1.0551 -0.9571
 5681TIP3    H217008   2.614   5.916   3.615 -0.4844 -2.8340  1.0333
 5682TIP3   OH217009   1.285   5.602   1.205  0.2202 -0.3011  0.1757
 5682TIP3    H117010   1.217   5.540   1.179 -0.7123  0.7090  0.1354
 5682TIP3    H217011   1.283   5.670   1.137  1.0839 -0.1092  0.3233
 5683TIP3   OH217012   5.928   1.597   4.417 -0.0558 -0.0078  0.3085
 5683TIP3    H117013   5.861   1.555   4.364  0.6578 -0.4765 -0.2376
 5683TIP3    H217014   5.996   1.530   4.429  1.6858  1.2737 -1.5956
 5684TIP3   OH217015   3.922   6.083   5.425 -0.1007  0.3522 -0.4099
 5684TIP3    H117016   3.928   6.013   5.490 -0.6924  0.2330 -0.4720
 5684TIP3    H217017   4.008   6.086   5.383 -0.2708 -0.7899 -0.8731
 5685TIP3   OH217018   6.930   5.585   4.195 -0.0558 -0.7563  0.2589
 5685TIP3    H117019   6.932   5.660   4.254  0.4453 -1.8240  1.6692
 5685TIP3    H217020   7.004   5.598   4.136  1.9435 -1.5483  2.4127
 5686TIP3   OH217021   4.963   1.279   0.129 -0.2097  0.3295  0.6987
 5686TIP3    H117022   4.901   1.300   0.199 -2.9866  1.2184 -1.7965
 5686TIP3    H217023   5.022   1.354   0.126 -0.2054  0.3877  1.9039
 5687TIP3   OH217024   3.290   0.545   0.296 -0.4542 -0.0750  0.2910
 5687TIP3    H117025   3.334   0.460   0.302 -2.6937 -1.4047 -0.7184
 5687TIP3    H217026   3.321   0.582   0.213 -0.8509 -0.7795 -0.1803
 5688TIP3   OH217027   4.665   6.286   0.768  0.0576  0.1855 -1.0607
 5688TIP3    H117028   4.707   6.265   0.685  0.8131 -0.5202 -0.5157
 5688TIP3    H217029   4.717   6.359   0.803  1.4939 -1.2993  0.0605
 5689TIP3   OH217030   3.867   4.966   1.892 -0.2758  0.0288 -0.0083
 5689TIP3    H117031   3.848   5.040   1.835  1.3564  0.6844  0.2510
 5689TIP3    H217032   3.867   4.890   1.834 -0.5881  0.4164 -0.5216
 5690TIP3   OH217033   4.399   5.558   1.695 -0.4358  0.0755 -0.1042
 5690TIP3    H117034   4.430   5.523   1.779  2.2547 -0.1878 -1.0991
 5690TIP3    H217035   4.421   5.490   1.631 -2.3249  0.3169 -1.0937
 5691TIP3   OH217036   6.276   0.425   2.644  0.3798 -0.3491  1.0869
 5691TIP3    H117037   6.251   0.516   2.661 -2.3774 -0.6734 -0.5858
 5691TIP3    H217038   6.320   0.428   2.559 -1.8679 -0.7682 -0.1653
 5692TIP3   OH217039   2.729   3.400   5.615 -0.2513  1.0592 -0.7155
 5692TIP3    H117040   2.706   3.493   5.616 -1.3398  0.8006 -1.2433
 5692TIP3    H217041   2.809   3.396   5.563  1.1500  1.9817  1.2280
 5693TIP3   OH217042   3.308   1.183   2.487  0.2480 -0.1511  0.4905
 5693TIP3    H117043   3.266   1.162   2.571  0.0865 -1.1715  0.1734
 5693TIP3    H217044   3.298   1.278   2.478 -2.8144 -0.4020  0.0179
 5694TIP3   OH217045   0.590   1.014   2.081  0.1732  0.0015 -0.1267
 5694TIP3    H117046   0.554   0.965   2.155 -0.4213  0.4248 -0.1258
 5694TIP3    H217047   0.597   1.104   2.113  2.4362 -0.2470  0.3046
 5695TIP3   OH217048   2.704   1.732   4.711  0.2255 -0.3169  0.3617
 5695TIP3    H117049   2.610   1.744   4.702  0.2761  1.0212  1.2846
 5695TIP3    H217050   2.713   1.658   4.771 -0.2966  0.8036  1.8833
 5696TIP3   OH217051   2.363   1.727   1.250 -0.0696  0.0488 -0.2373
 5696TIP3    H117052   2.341   1.815   1.278  1.0191  0.2387  0.0649
 5696TIP3    H217053   2.311   1.670   1.305  0.9563  0.4570  1.2069
 5697TIP3   OH217054   4.792   5.357   0.005 -0.2970 -0.0590 -0.1836
 5697TIP3    H117055   4.776   5.316   0.090  0.3584  1.9087  0.9589
 5697TIP3    H217056   4.887   5.366   0.001 -0.2445 -1.0053 -1.5961
 5698TIP3   OH217057   5.076   1.947   2.964 -0.8084 -0.0340 -0.0490
 5698TIP3    H117058   5.124   1.867   2.941  1.0520  0.9039  0.3857
 5698TIP3    H217059   5.104   2.012   2.900 -0.1214  1.0097  1.2589
 5699TIP3   OH217060   0.524   3.717   1.006  0.2790 -0.0077  0.0295
 5699TIP3    H117061   0.508   3.791   1.065  0.2556 -0.0933  0.1309
 5699TIP3    H217062   0.507   3.640   1.059  0.4191 -0.0895 -0.0436
 5700TIP3   OH217063   3.618   3.973   1.005  0.6248 -0.0535  0.0100
 5700TIP3    H117064   3.703   4.018   1.006  0.2724  0.6170  0.6929
 5700TIP3    H217065   3.604   3.948   1.097 -0.3088  0.5922  0.0501
 5701TIP3   OH217066   0.247   2.666   0.970 -0.8591 -0.1387 -0.0374
 5701TIP3    H117067   0.275   2.669   1.062 -1.3401 -0.6704  0.1330
 5701TIP3    H217068   0.323   2.696   0.921 -0.5502  0.0242  0.5276
 5702TIP3   OH217069   4.743   3.348   4.793  0.1235 -1.4722  0.3909
 5702TIP3    H117070   4.733   3.254   4.775  0.4270 -1.2226 -1.1987
 5702TIP3    H217071   4.838   3.360   4.805  0.1672 -1.2556 -0.1470
 5703TIP3   OH217072   3.771   2.767   4.717 -0.1638  0.4929  0.1981
 5703TIP3    H117073   3.819   2.842   4.682  0.4652  0.0480  0.0904
 5703TIP3    H217074   3.754   2.790   4.809  0.8736  0.3657  0.4329
 5704TIP3   OH217075   5.851   2.995   1.027 -0.5001 -0.1312 -0.6259
 5704TIP3    H117076   5.854   2.902   1.005 -0.0200 -0.1523 -0.4822
 5704TIP3    H217077   5.908   3.003   1.103 -2.1358 -0.0677  0.6448
 5705TIP3   OH217078   2.300   6.593   3.948 -0.2229  0.0987 -0.0203
 5705TIP3    H117079   2.314   6.535   3.873  0.9313 -1.2947  1.2109
 5705TIP3    H217080   2.388   6.608   3.984 -0.5471  2.2804 -0.0244
 5706TIP3   OH217081   0.083   6.722   0.639 -0.1321 -0.3391 -0.2155
 5706TIP3    H117082  -0.003   6.752   0.669  0.5382  1.3630  0.1234
 5706TIP3    H217083   0.078   6.726   0.543 -1.2202 -2.7039 -0.3259
 5707TIP3   OH217084   1.677   5.656   1.750  0.2878  0.5869  0.4550
 5707TIP3    H117085   1.665   5.730   1.810  0.3864  0.1712  0.9928
 5707TIP3    H217086   1.701   5.583   1.806  0.6046  0.2419 -0.1189
 5708TIP3   OH217087   0.731   1.465   2.687  0.0645 -0.2005  0.0168
 5708TIP3    H117088   0.802   1.405   2.663  1.8874  2.0015 -0.4316
 5708TIP3    H217089   0.673   1.413   2.743  2.1433 -2.0317  0.5973
 5709TIP3   OH217090   4.874   6.709   5.722  0.3552  0.2964  0.1636
 5709TIP3    H117091   4.864   6.638   5.787 -0.8099  0.6642  0.3979
 5709TIP3    H217092   4.912   6.665   5.646  1.4700 -0.2048  0.9709
 5710TIP3   OH217093   3.323   2.968   5.423 -0.0837 -0.5154  0.6225
 5710TIP3    H117094   3.320   3.063   5.410  0.0701 -0.2632  2.1321
 5710TIP3    H217095   3.413   2.951   5.451 -0.4337 -0.9177  1.5513
 5711TIP3   OH217096   0.611   3.516   2.512 -0.3217  0.1100 -0.1672
 5711TIP3    H117097   0.543   3.528   2.579  0.1748 -1.7347  0.7247
 5711TIP3    H217098   0.687   3.484   2.561  0.1592 -0.9627 -1.5712
 5712TIP3   OH217099   3.984   0.905   2.827 -0.3422 -0.7017  0.1421
 5712TIP3    H117100   3.943   0.951   2.900  0.6432 -0.1781  0.3773
 5712TIP3    H217101   4.061   0.957   2.806  0.3727 -1.8149 -0.0949
 5713TIP3   OH217102   1.699   4.687   1.738 -0.3347 -0.4482 -0.0885
 5713TIP3    H117103   1.691   4.684   1.643 -1.5419 -1.3453  0.0111
 5713TIP3    H217104   1.610   4.702   1.769  0.4801  3.7896  0.8522
 5714TIP3   OH217105   6.765   2.529   3.439  0.1720  0.4235 -1.0614
 5714TIP3    H117106   6.709   2.604   3.459 -0.0896 -0.1972  0.6542
 5714TIP3    H217107   6.851   2.568   3.423  0.4542  1.0452  1.4951
 5715TIP3   OH217108   6.455   6.549   0.858  0.1341 -0.5797 -0.0552
 5715TIP3    H117109   6.470   6.642   0.841 -2.6026 -0.1312 -0.4267
 5715TIP3    H217110   6.542   6.513   0.871  1.2093  2.2747  1.4248
 5716TIP3   OH217111   5.362   3.833   1.666  0.5114  0.1845 -0.6347
 5716TIP3    H117112   5.315   3.820   1.584 -0.2480 -2.0318  0.0767
 5716TIP3    H217113   5.453   3.812   1.644  0.1764 -1.2189 -0.7547
 5717TIP3   OH217114   2.688   2.657   2.135  0.0182 -0.0391  0.4535
 5717TIP3    H117115   2.711   2.608   2.214 -0.0261  0.6965  0.9258
 5717TIP3    H217116   2.696   2.749   2.160 -0.4436  0.2046 -0.2666
 5718TIP3   OH217117   2.048   6.508   4.089  0.1065  0.3168 -0.1772
 5718TIP3    H117118   1.976   6.568   4.070 -0.4873  0.0043  0.9801
 5718TIP3    H217119   2.127   6.559   4.072 -0.3756  0.6738 -1.4428
 5719TIP3   OH217120   5.240   3.943   0.912  0.2089 -0.2096  0.6375
 5719TIP3    H117121   5.287   4.016   0.954  1.2132 -0.5616  0.1509
 5719TIP3    H217122   5.195   3.899   0.984  0.6276  0.1424  1.1235
 5720TIP3   OH217123   3.233   2.084   3.131 -0.2188  0.2498  0.2735
 5720TIP3    H117124   3.325   2.109   3.139  0.3141 -0.3168 -2.8459
 5720TIP3    H217125   3.185   2.165   3.146  0.8590  0.8826  0.4234
 5721TIP3   OH217126   2.590   1.780   5.214  0.3849 -0.3538  0.0699
 5721TIP3    H117127   2.648   1.806   5.142 -0.0434 -0.2089 -0.2230
 5721TIP3    H217128   2.550   1.698   5.185  0.9832 -0.8407  0.5782
 5722TIP3   OH217129   5.112   6.120   0.125  0.0527  0.2036 -0.7149
 5722TIP3    H117130   5.020   6.139   0.146 -0.7202 -3.1900 -0.4410
 5722TIP3    H217131   5.107   6.062   0.048  1.8981 -0.5364 -0.3247
 5723TIP3   OH217132   2.203   0.868   5.288 -0.7790 -0.2817  0.4363
 5723TIP3    H117133   2.117   0.910   5.290 -1.6401 -1.9613  1.2510
 5723TIP3    H217134   2.235   0.883   5.199 -1.6833  0.8182  0.2769
 5724TIP3   OH217135   6.140   3.244   5.495  0.9634  0.3962 -0.0426
 5724TIP3    H117136   6.058   3.284   5.467  0.1704  0.5378  2.2767
 5724TIP3    H217137   6.173   3.199   5.417 -1.4690  0.0846 -0.9580
 5725TIP3   OH217138   3.749   6.408   3.637 -0.1953 -0.0196  0.3266
 5725TIP3    H117139   3.715   6.319   3.630 -0.3410  0.0456  0.1717
 5725TIP3    H217140   3.719   6.438   3.723 -1.7716  0.5326 -0.3812
 5726TIP3   OH217141   6.868   1.980   2.159  0.0890 -0.0914  0.5020
 5726TIP3    H117142   6.852   2.041   2.231 -0.5633 -2.2414  2.3143
 5726TIP3    H217143   6.907   1.903   2.202  0.6379 -1.0729 -1.6181
 5727TIP3   OH217144   0.248   3.779   1.301 -0.0446  0.3073 -0.1560
 5727TIP3    H117145   0.169   3.734   1.333 -0.1576  1.4925  1.3699
 5727TIP3    H217146   0.214   3.850   1.246 -0.0063  0.4157 -0.0392
 5728TIP3   OH217147   4.555   5.356   1.579 -0.3261 -0.3602 -0.1461
 5728TIP3    H117148   4.636   5.380   1.535 -0.3973 -1.2280 -0.7727
 5728TIP3    H217149   4.524   5.278   1.533 -0.8462 -0.8017  0.9022
 5729TIP3   OH217150   2.455   0.462   4.126 -0.1979 -0.0029 -0.2123
 5729TIP3    H117151   2.451   0.532   4.062  0.6350 -0.4972 -0.8294
 5729TIP3    H217152   2.543   0.425   4.115 -1.4679 -2.8762 -1.7910
 5730TIP3   OH217153   2.000   1.818   3.551  0.2771 -0.0314  0.2801
 5730TIP3    H117154   1.909   1.837   3.528  0.8349  0.0264 -2.2137
 5730TIP3    H217155   2.017   1.871   3.628 -1.1241  1.9064 -0.6496
 5731TIP3   OH217156   2.544   1.196   1.117 -0.5941 -0.2391  0.1144
 5731TIP3    H117157   2.472   1.206   1.180 -0.6095 -1.1637  0.2605
 5731TIP3    H217158   2.622   1.223   1.165 -0.4429 -1.9715  0.9265
 5732TIP3   OH217159   3.438   4.004   2.770 -0.0527  0.4181 -0.1826
 5732TIP3    H117160   3.447   3.958   2.687 -1.3905  2.1112 -1.3464
 5732TIP3    H217161   3.497   3.958   2.830  1.2299 -0.6311 -2.1462
 5733TIP3   OH217162   0.184   4.985   5.205  0.1653  0.3402  0.3893
 5733TIP3    H117163   0.264   5.032   5.226  1.0570 -1.2025  0.5702
 5733TIP3    H217164   0.190   4.904   5.255 -2.3350  0.8973  1.7919
 5734TIP3   OH217165   3.347   2.704   2.688  0.3553  0.5609  0.4762
 5734TIP3    H117166   3.324   2.649   2.613 -2.7053  0.5237  1.3167
 5734TIP3    H217167   3.440   2.687   2.702  0.2300 -2.0673 -1.1606
 5735TIP3   OH217168   3.952   1.114   5.689  0.1991 -0.2352 -0.1468
 5735TIP3    H117169   3.942   1.096   5.782  0.9708  0.0382 -0.0075
 5735TIP3    H217170   4.046   1.114   5.674  0.0954  0.1146 -0.8519
 5736TIP3   OH217171   1.110   2.463   5.768 -0.3675 -0.4400 -0.1660
 5736TIP3    H117172   1.022   2.457   5.806 -1.1501 -1.5110 -1.9771
 5736TIP3    H217173   1.118   2.384   5.714  1.6462 -0.2649 -0.2063
 5737TIP3   OH217174   6.224   3.002   1.986 -0.0541  0.0818 -0.5382
 5737TIP3    H117175   6.304   2.950   1.976  1.2480  1.4209  1.8726
 5737TIP3    H217176   6.234   3.074   1.924  0.8530  0.4631  0.0206
 5738TIP3   OH217177   1.293   1.040   5.467  0.3862  0.2234 -0.4831
 5738TIP3    H117178   1.345   1.119   5.481  1.1324 -0.1408 -1.1150
 5738TIP3    H217179   1.211   1.056   5.514  1.9279 -0.1630  2.5600
 5739TIP3   OH217180   6.280   5.651   0.669  0.0746 -0.4395  0.1929
 5739TIP3    H117181   6.272   5.710   0.744  2.2703  1.8001 -1.1887
 5739TIP3    H217182   6.221   5.688   0.603 -0.9256 -1.6915  0.3447
 5740TIP3   OH217183   3.042   2.691   5.370  0.0498 -0.0858 -0.0952
 5740TIP3    H117184   3.118   2.718   5.318 -0.1038 -0.7110 -0.6505
 5740TIP3    H217185   3.070   2.610   5.413  0.1548  0.3868  0.7713
 5741TIP3   OH217186   3.898   2.319   4.422 -0.1321 -0.1408  0.5243
 5741TIP3    H117187   3.878   2.405   4.461 -1.2630 -0.9774  1.8812
 5741TIP3    H217188   3.823   2.301   4.365  1.2002  0.7691 -1.6604
 5742TIP3   OH217189   7.069   3.708   0.494 -0.2905  0.0217  0.0478
 5742TIP3    H117190   7.072   3.621   0.455  0.3646 -0.0356  0.2156
 5742TIP3    H217191   6.979   3.737   0.480 -0.3443 -0.4228 -0.5710
 5743TIP3   OH217192   2.940   3.523   1.943 -0.2072  0.0316 -0.6724
 5743TIP3    H117193   2.891   3.582   1.886  0.3499  1.2202  0.0330
 5743TIP3    H217194   2.880   3.506   2.017 -0.8685 -1.3816 -1.4866
 5744TIP3   OH217195   4.261   1.962   2.293  0.2649  0.5645 -0.0418
 5744TIP3    H117196   4.345   1.983   2.333 -0.4862  0.1522  1.8873
 5744TIP3    H217197   4.196   2.003   2.351 -0.8895  0.9226 -1.5019
 5745TIP3   OH217198   5.705   4.267   1.863 -0.4741 -0.7414  0.0781
 5745TIP3    H117199   5.629   4.210   1.850 -0.0952 -1.2117 -0.0616
 5745TIP3    H217200   5.780   4.209   1.857 -0.1093 -0.3099  0.4416
 5746TIP3   OH217201   2.337   5.196   4.163  0.0515 -0.0316  0.4374
 5746TIP3    H117202   2.427   5.219   4.184 -0.0147  1.0047 -0.3222
 5746TIP3    H217203   2.284   5.243   4.228  0.0286 -0.1277  0.4884
 5747TIP3   OH217204   4.353   1.619   1.765 -0.9896  0.2246 -0.1609
 5747TIP3    H117205   4.300   1.647   1.690  0.3000  0.4681 -1.0154
 5747TIP3    H217206   4.407   1.696   1.786 -2.1941  0.5992  1.8601
 5748TIP3   OH217207   3.975   0.049   0.536 -0.1657 -0.2544  0.5914
 5748TIP3    H117208   3.902   0.105   0.560 -1.8385 -3.6202  4.4578
 5748TIP3    H217209   3.937  -0.016   0.477  0.0746 -1.0422  1.2877
 5749TIP3   OH217210   1.499   2.824   3.679  0.8925  0.3309 -0.8833
 5749TIP3    H117211   1.405   2.808   3.686  0.5995  0.5907 -3.3581
 5749TIP3    H217212   1.538   2.737   3.675  1.1966  0.0741  3.0228
 5750TIP3   OH217213   6.217   4.330   0.151  0.2388  0.4923 -0.0874
 5750TIP3    H117214   6.170   4.291   0.077 -1.6853 -2.9282  2.6276
 5750TIP3    H217215   6.192   4.422   0.149 -0.2969  0.3841 -3.2254
 5751TIP3   OH217216   1.777   6.572   2.104  0.0007 -0.0979  0.1552
 5751TIP3    H117217   1.742   6.541   2.020 -2.1805 -0.1695  1.0042
 5751TIP3    H217218   1.702   6.566   2.164  1.9271 -1.8460  2.5917
 5752TIP3   OH217219   5.902   1.072   1.834  0.0907  0.3810 -0.5115
 5752TIP3    H117220   5.963   1.096   1.764 -1.2341 -2.5258 -2.9125
 5752TIP3    H217221   5.958   1.049   1.908  1.5537  3.7271 -0.4257
 5753TIP3   OH217222   3.347   6.672   1.363 -0.3065 -0.1228 -0.0582
 5753TIP3    H117223   3.367   6.757   1.323 -1.1519  0.0641 -0.0880
 5753TIP3    H217224   3.353   6.688   1.457  0.7397 -0.3330 -0.0781
 5754TIP3   OH217225   5.966   4.154   4.246 -0.4612 -0.8137  0.3878
 5754TIP3    H117226   6.039   4.180   4.303 -0.3258 -0.1472 -0.0861
 5754TIP3    H217227   5.926   4.080   4.292 -1.1054  0.4575  1.9774
 5755TIP3   OH217228   5.318   5.148   5.719  0.1458 -0.1556 -0.3226
 5755TIP3    H117229   5.411   5.128   5.724  0.2525  0.6683  2.3888
 5755TIP3    H217230   5.285   5.091   5.649  2.4718 -1.1836 -0.6663
 5756TIP3   OH217231   4.402   6.639   0.770 -0.4691 -0.3048  0.1327
 5756TIP3    H117232   4.406   6.666   0.678 -0.4112 -2.3877 -0.5315
 5756TIP3    H217233   4.387   6.544   0.767 -0.4585 -0.4311  2.2787
 5757TIP3   OH217234   0.401   6.214   5.272  0.2778  0.5976  0.1510
 5757TIP3    H117235   0.316   6.192   5.310  1.2151  0.0045  2.0478
 5757TIP3    H217236   0.462   6.154   5.315  1.3796 -0.7241 -2.9816
 5758TIP3   OH217237   3.882   0.450   5.475 -0.3993 -0.8995  0.7272
 5758TIP3    H117238   3.902   0.357   5.466  0.3769 -0.7615  0.9141
 5758TIP3    H217239   3.845   0.476   5.391  3.2605 -0.4614 -0.9306
 5759TIP3   OH217240   0.264   3.372   1.027 -0.1949  0.2889 -0.1815
 5759TIP3    H117241   0.280   3.372   0.932  1.8393  0.3553  0.1201
 5759TIP3    H217242   0.292   3.286   1.056 -1.4256  0.0356  0.2880
 5760TIP3   OH217243   6.666   6.792   1.375  0.1929  0.2895 -0.1268
 5760TIP3    H117244   6.654   6.699   1.394 -1.6105  0.4536 -0.3245
 5760TIP3    H217245   6.578   6.824   1.353  1.2386  1.2679 -3.5305
 5761TIP3   OH217246   5.125   5.349   2.330  0.5860 -0.1503  0.0517
 5761TIP3    H117247   5.217   5.374   2.331  0.7661 -0.6895  2.5612
 5761TIP3    H217248   5.089   5.385   2.411 -0.5435 -2.8045  0.8512
 5762TIP3   OH217249   5.785   2.282   3.963 -0.7878 -0.1757 -0.4826
 5762TIP3    H117250   5.792   2.253   4.054 -1.5424 -1.5896 -0.8389
 5762TIP3    H217251   5.866   2.253   3.922  0.3147  1.9565  0.0886
 5763TIP3   OH217252   5.791   6.465   5.618  0.0621  0.1274  0.4427
 5763TIP3    H117253   5.817   6.508   5.699 -0.5517 -0.5595  1.0080
 5763TIP3    H217254   5.842   6.384   5.615 -0.0444  0.0668  0.2222
 5764TIP3   OH217255   4.579   3.907   2.554 -0.0114  0.1585 -0.0243
 5764TIP3    H117256   4.545   3.987   2.594  1.1282  1.0024 -0.6831
 5764TIP3    H217257   4.525   3.895   2.475  0.0792  0.5198 -0.1447
 5765TIP3   OH217258   0.592   3.671   1.431 -0.1275  0.3912  0.2378
 5765TIP3    H117259   0.662   3.609   1.413  0.9104  1.6977 -0.3451
 5765TIP3    H217260   0.562   3.648   1.519 -0.4378 -1.5222 -0.3154
 5766TIP3   OH217261   2.293   3.320   1.373  0.0761 -0.1711 -0.6184
 5766TIP3    H117262   2.217   3.377   1.363 -0.8240 -1.4964 -1.6471
 5766TIP3    H217263   2.320   3.300   1.283  0.4430 -1.2649 -0.2759
 5767TIP3   OH217264   0.998   5.734   1.475 -0.3898 -0.0534  0.9752
 5767TIP3    H117265   0.985   5.672   1.547 -3.4547  0.5348  1.0889
 5767TIP3    H217266   0.934   5.707   1.409  0.8216  0.7790 -0.6169
 5768TIP3   OH217267   1.779   3.032   5.001 -0.0997 -0.2029  0.0236
 5768TIP3    H117268   1.833   2.989   5.067  1.2366 -0.7726 -1.3782
 5768TIP3    H217269   1.816   3.004   4.918 -0.6401  1.8330 -0.9771
 5769TIP3   OH217270   3.646   5.315   2.091  0.9359  0.6049  0.3026
 5769TIP3    H117271   3.628   5.359   2.174 -1.6201 -1.6181  1.0328
 5769TIP3    H217272   3.567   5.328   2.039  0.9863 -1.2284 -0.2906
 5770TIP3   OH217273   6.947   6.170   5.472 -0.3300 -0.0547  0.4782
 5770TIP3    H117274   6.917   6.101   5.532 -1.0369 -0.6062 -0.4912
 5770TIP3    H217275   7.035   6.190   5.502 -1.2158  0.8577  2.7453
 5771TIP3   OH217276   5.563   5.920   4.846  0.3935 -0.0643  0.3794
 5771TIP3    H117277   5.647   5.913   4.892  0.2282 -2.0138  0.4890
 5771TIP3    H217278   5.586   5.946   4.758  0.9674  0.9358  0.8111
 5772TIP3   OH217279   0.105   3.771   2.003  0.5932  0.3572 -0.0617
 5772TIP3    H117280   0.011   3.783   2.020  0.8821  0.6218  1.4505
 5772TIP3    H217281   0.108   3.739   1.913 -1.0914 -1.7568  0.5564
 5773TIP3   OH217282   3.827   3.984   2.144 -0.0387 -0.4879  0.1082
 5773TIP3    H117283   3.862   4.071   2.159 -0.8601 -0.2060  0.4741
 5773TIP3    H217284   3.901   3.925   2.157  0.3595  0.1064  0.5660
 5774TIP3   OH217285   2.099   2.506   0.830 -1.0459  0.5386  0.4473
 5774TIP3    H117286   2.012   2.538   0.804 -1.5318 -0.8678  0.2406
 5774TIP3    H217287   2.086   2.475   0.920 -0.5708  0.9462  0.6623
 5775TIP3   OH217288   2.828   1.770   3.641  0.1386 -0.5195  0.0354
 5775TIP3    H117289   2.746   1.721   3.646  1.9205 -3.6903  0.6428
 5775TIP3    H217290   2.844   1.799   3.731 -0.3331  0.2619 -0.1155
 5776TIP3   OH217291   6.494   4.198   0.889 -0.0445 -0.1650  0.1451
 5776TIP3    H117292   6.475   4.279   0.937  0.1950 -0.0486  0.0500
 5776TIP3    H217293   6.449   4.129   0.937 -2.3059  0.3377 -1.1343
 5777TIP3   OH217294   5.443   0.481   5.542  0.0462 -0.2822 -0.0461
 5777TIP3    H117295   5.537   0.465   5.532  0.3572  2.1940 -2.5089
 5777TIP3    H217296   5.402   0.417   5.485  0.2497 -0.9877  0.5819
 5778TIP3   OH217297   5.789   6.600   4.357  0.3713  0.4955  0.3109
 5778TIP3    H117298   5.844   6.559   4.291  0.9733  0.1332  1.0302
 5778TIP3    H217299   5.699   6.585   4.326  0.4412 -3.0096  1.4531
 5779TIP3   OH217300   6.706   3.098   3.085  0.1161  0.1102 -0.3415
 5779TIP3    H117301   6.676   3.187   3.106  3.8681  1.1891  1.4264
 5779TIP3    H217302   6.709   3.097   2.989 -0.3756  1.7854 -0.4182
 5780TIP3   OH217303   1.702   3.532   4.922 -0.2241  0.3587 -0.1961
 5780TIP3    H117304   1.741   3.445   4.931  0.9128  0.7705 -0.8468
 5780TIP3    H217305   1.706   3.570   5.010  0.8709  0.3842 -0.2450
 5781TIP3   OH217306   0.030   6.635   2.048 -0.2576 -0.3863  0.2462
 5781TIP3    H117307   0.002   6.624   1.958  1.4422  1.6353 -0.6116
 5781TIP3    H217308   0.034   6.730   2.061 -0.9907 -0.5916  2.6595
 5782TIP3   OH217309   0.590   1.643   3.750 -0.7824 -0.4996  0.1891
 5782TIP3    H117310   0.498   1.669   3.742 -0.6887 -0.3815 -0.5562
 5782TIP3    H217311   0.635   1.690   3.680 -0.1188 -0.4189  0.6562
 5783TIP3   OH217312   2.225   0.366   2.789 -0.0543  0.1720  0.4110
 5783TIP3    H117313   2.180   0.330   2.713  0.7586 -0.8813  0.4016
 5783TIP3    H217314   2.248   0.289   2.841  0.7865  0.7667  0.9434
 5784TIP3   OH217315   2.226   0.766   5.590 -0.6787  0.4970  0.1555
 5784TIP3    H117316   2.254   0.675   5.604 -1.0212  0.5170  1.0248
 5784TIP3    H217317   2.248   0.784   5.499 -0.3427 -0.3680  0.0569
 5785TIP3   OH217318   5.407   4.091   1.805  0.1548  0.1678 -0.1269
 5785TIP3    H117319   5.362   4.130   1.730  1.1057  1.0274 -0.2713
 5785TIP3    H217320   5.385   3.998   1.800 -3.1229  0.7796  0.9071
 5786TIP3   OH217321   5.689   3.644   1.978 -0.0585  0.4893  0.4701
 5786TIP3    H117322   5.774   3.624   1.940 -0.4878 -1.4089  0.4081
 5786TIP3    H217323   5.654   3.715   1.924  1.1332  0.7418  0.0010
 5787TIP3   OH217324   4.174   3.347   2.067 -0.7437 -0.3464 -0.4947
 5787TIP3    H117325   4.214   3.319   1.984 -1.5444 -1.3908 -0.5472
 5787TIP3    H217326   4.143   3.436   2.050  0.0180 -0.1670 -0.9888
 5788TIP3   OH217327   1.795   3.567   2.842 -0.0295  0.0764  0.9059
 5788TIP3    H117328   1.770   3.489   2.892  1.1969 -0.5322  0.6087
 5788TIP3    H217329   1.874   3.599   2.886  0.0435  0.5722  0.4198
 5789TIP3   OH217330   1.552   3.757   0.678  0.2484  0.0583 -0.2919
 5789TIP3    H117331   1.522   3.685   0.623 -1.4288 -0.0559  0.7053
 5789TIP3    H217332   1.472   3.798   0.711  1.1804  0.9644  0.9712
 5790TIP3   OH217333   3.573   3.969   5.718 -0.0334  0.1672  0.1226
 5790TIP3    H117334   3.658   3.953   5.678  0.8204 -1.0269  2.2476
 5790TIP3    H217335   3.540   3.882   5.741 -0.9125  0.7239  1.0947
 5791TIP3   OH217336   5.616   0.301   2.611  0.0157  0.3096 -0.1940
 5791TIP3    H117337   5.585   0.279   2.699  0.1652 -1.6667 -0.5758
 5791TIP3    H217338   5.598   0.222   2.559  1.1236  0.9438 -1.6140
 5792TIP3   OH217339   1.558   0.245   4.001  0.2848 -0.1194  0.1308
 5792TIP3    H117340   1.561   0.340   3.986  0.2065  0.0089  0.8949
 5792TIP3    H217341   1.601   0.208   3.924  1.1792  0.5857  0.2656
 5793TIP3   OH217342   6.540   3.026   2.457 -0.0732 -0.1681  0.7604
 5793TIP3    H117343   6.582   2.952   2.412  0.1354  0.3930  0.0058
 5793TIP3    H217344   6.447   3.004   2.458  0.1213 -1.0213  1.6680
 5794TIP3   OH217345   4.433   0.470   1.313 -0.5157  0.2497  0.0120
 5794TIP3    H117346   4.403   0.440   1.398 -3.1046 -0.2889 -0.9984
 5794TIP3    H217347   4.429   0.392   1.257 -0.3975  0.9287 -0.9637
 5795TIP3   OH217348   0.852   4.860   1.597 -0.3668 -0.1926  0.0503
 5795TIP3    H117349   0.938   4.903   1.596 -1.3477  1.8844  0.0298
 5795TIP3    H217350   0.828   4.854   1.504 -0.5302 -0.1787  0.0919
 5796TIP3   OH217351   0.973   1.818   5.637  0.6574  0.4768 -0.0141
 5796TIP3    H117352   0.938   1.735   5.669 -0.0405  0.3719 -1.0104
 5796TIP3    H217353   1.067   1.801   5.624  0.9370  0.4674  1.7156
 5797TIP3   OH217354   1.146   6.236   4.679  0.1756  0.2981 -0.0349
 5797TIP3    H117355   1.209   6.293   4.635  2.0282 -0.5479  1.3941
 5797TIP3    H217356   1.110   6.181   4.609  1.4918  0.3840 -0.8048
 5798TIP3   OH217357   2.567   2.137   5.332 -0.1567  0.3114  0.4767
 5798TIP3    H117358   2.528   2.221   5.357  2.7678  1.3938  1.9579
 5798TIP3    H217359   2.588   2.095   5.415  1.0852 -0.4953 -0.2158
 5799TIP3   OH217360   1.808   5.271   0.592 -0.1157 -0.4938 -0.4535
 5799TIP3    H117361   1.774   5.359   0.609 -2.9881 -1.5092 -0.2518
 5799TIP3    H217362   1.829   5.237   0.679 -1.2136 -0.7651 -0.2767
 5800TIP3   OH217363   5.163   4.040   4.668 -0.3222  0.5395  0.1305
 5800TIP3    H117364   5.071   4.063   4.653 -0.5372 -1.4258 -2.1545
 5800TIP3    H217365   5.208   4.070   4.589 -0.0742 -3.4665 -1.4645
 5801TIP3   OH217366   6.439   1.367   0.240  0.0886 -0.2814 -0.3061
 5801TIP3    H117367   6.517   1.322   0.207  0.7854  0.7803 -0.1656
 5801TIP3    H217368   6.367   1.329   0.191  0.5180 -2.2344  0.4939
 5802TIP3   OH217369   2.145   0.701   4.037 -0.0864 -0.4186  0.2486
 5802TIP3    H117370   2.092   0.647   4.095  0.5907 -1.4259 -0.0406
 5802TIP3    H217371   2.174   0.774   4.092 -1.9281  0.2845  0.3421
 5803TIP3   OH217372   1.138   0.866   4.081 -0.6245  0.0938 -0.4040
 5803TIP3    H117373   1.050   0.881   4.046 -0.6522  2.4506  0.4663
 5803TIP3    H217374   1.126   0.868   4.176  0.2218 -0.7308 -0.2720
 5804TIP3   OH217375   5.556   1.807   3.070  0.1666 -0.5848 -0.4648
 5804TIP3    H117376   5.544   1.776   2.981  0.2656 -3.6307  0.4815
 5804TIP3    H217377   5.518   1.739   3.125 -0.6969  1.6088  1.8545
 5805TIP3   OH217378   0.230   1.916   4.395 -0.3413  0.4728 -0.5998
 5805TIP3    H117379   0.293   1.970   4.441 -0.9097 -1.2082  2.3906
 5805TIP3    H217380   0.268   1.828   4.396 -1.8875 -0.2267 -0.3353
 5806TIP3   OH217381   7.194   3.729   4.635  0.0803 -0.1055  0.0821
 5806TIP3    H117382   7.138   3.678   4.693 -0.1770 -1.8537 -1.5859
 5806TIP3    H217383   7.277   3.681   4.634  0.7306  0.9722  0.4468
 5807TIP3   OH217384   1.029   0.997   1.849 -0.2906  0.0725  0.1774
 5807TIP3    H117385   0.970   0.975   1.777  0.2422 -0.2166 -0.1723
 5807TIP3    H217386   0.972   0.998   1.926 -0.5715 -1.3304  0.0232
 5808TIP3   OH217387   1.395   0.599   4.089  0.4618  0.1791 -0.1863
 5808TIP3    H117388   1.351   0.660   4.148 -0.9050 -0.1320 -0.8332
 5808TIP3    H217389   1.471   0.568   4.138  0.8445  1.9154  0.3885
 5809TIP3   OH217390   5.332   0.913   0.684 -0.9682  0.3670  0.5494
 5809TIP3    H117391   5.287   0.969   0.747 -1.1604  0.1350  0.6207
 5809TIP3    H217392   5.408   0.879   0.732 -0.9790  0.3862  0.5802
 5810TIP3   OH217393   4.604   5.937   1.609 -0.1447 -0.0739  0.2732
 5810TIP3    H117394   4.683   5.884   1.596 -0.4882 -0.6947  0.6751
 5810TIP3    H217395   4.585   5.972   1.522 -2.0822 -3.7124 -0.9737
 5811TIP3   OH217396   6.170   6.066   4.761  0.4574 -0.1938  0.2495
 5811TIP3    H117397   6.181   5.982   4.718 -0.4967 -0.7924  1.1323
 5811TIP3    H217398   6.255   6.109   4.752  0.4266 -0.4861 -1.7875
 5812TIP3   OH217399   3.014   3.996   3.302 -0.6133  0.1123  0.5059
 5812TIP3    H117400   3.028   3.927   3.237  3.0094  0.9809  0.0919
 5812TIP3    H217401   2.977   4.069   3.252 -1.2481 -0.4119  0.2073
 5813TIP3   OH217402   1.248   3.786   0.594  0.0230  0.0150 -0.1474
 5813TIP3    H117403   1.276   3.703   0.556  0.3501  0.1634 -0.2326
 5813TIP3    H217404   1.181   3.762   0.658 -1.6968 -0.1294 -1.8942
 5814TIP3   OH217405   4.765   4.671   1.911  0.3145  0.3283 -0.0893
 5814TIP3    H117406   4.712   4.636   1.839  0.2539 -1.0111  0.5705
 5814TIP3    H217407   4.730   4.627   1.989  1.6313  0.3050  0.5092
 5815TIP3   OH217408   5.492   3.240   2.774 -0.4564 -0.2176  0.3713
 5815TIP3    H117409   5.484   3.250   2.869 -0.1850  0.2370  0.3491
 5815TIP3    H217410   5.550   3.166   2.762  0.2320  0.2845  0.5694
 5816TIP3   OH217411   5.553   5.670   2.545 -0.2785 -0.3263 -0.1586
 5816TIP3    H117412   5.471   5.712   2.571 -0.7170 -0.3386 -1.4289
 5816TIP3    H217413   5.548   5.583   2.583 -1.0247 -0.4431 -0.4961
 5817TIP3   OH217414   3.044   1.542   4.546  0.4182 -0.2783 -0.7275
 5817TIP3    H117415   3.038   1.609   4.478 -0.7293  2.2150  1.6303
 5817TIP3    H217416   3.098   1.582   4.615 -0.9117 -1.4054  1.0767
 5818TIP3   OH217417   5.180   6.387   1.707 -0.5075 -0.0258 -0.2815
 5818TIP3    H117418   5.112   6.454   1.696  0.8972  1.2852 -1.3833
 5818TIP3    H217419   5.229   6.415   1.784  1.1856  1.3025 -1.7551
 5819TIP3   OH217420   0.442   6.207   2.486  0.0821 -0.6281  0.5549
 5819TIP3    H117421   0.445   6.294   2.447 -0.4562  1.0033  3.7712
 5819TIP3    H217422   0.351   6.180   2.479 -0.4868  0.6019  2.3181
 5820TIP3   OH217423   5.644   3.569   4.997  0.4752 -0.1882 -0.1399
 5820TIP3    H117424   5.580   3.606   4.936 -0.5436 -2.2489 -0.3712
 5820TIP3    H217425   5.682   3.495   4.950  1.0410 -0.6661  1.0319
 5821TIP3   OH217426   6.301   3.792   3.253  0.0220 -0.5006  0.2934
 5821TIP3    H117427   6.231   3.799   3.318 -0.1019 -0.2463  0.1358
 5821TIP3    H217428   6.359   3.867   3.271 -0.8547  0.5130 -0.8720
 5822TIP3   OH217429   2.780   5.886   2.157  0.6488 -0.4136 -0.2591
 5822TIP3    H117430   2.866   5.926   2.144 -0.3987  2.2541  0.3857
 5822TIP3    H217431   2.778   5.863   2.250  0.1891  0.8422  0.0588
 5823TIP3   OH217432   1.832   4.026   2.427  0.0750  0.0785 -0.1720
 5823TIP3    H117433   1.763   4.050   2.366  0.4884  1.4808 -0.1210
 5823TIP3    H217434   1.851   3.935   2.407 -1.2348 -0.0938 -0.7112
 5824TIP3   OH217435   1.709   0.840   5.312 -0.4079 -0.2993  0.0353
 5824TIP3    H117436   1.682   0.808   5.226  1.0152 -1.0080 -0.1805
 5824TIP3    H217437   1.748   0.763   5.354  1.0044  0.6006  0.4079
 5825TIP3   OH217438   6.044   3.321   0.828 -0.4560  0.2070 -0.2530
 5825TIP3    H117439   6.057   3.388   0.760  1.9009  0.5027  0.3793
 5825TIP3    H217440   6.007   3.246   0.781 -1.6930  1.4056 -1.2641
 5826TIP3   OH217441   5.120   3.398   5.306 -0.4310  0.1744  0.6971
 5826TIP3    H117442   5.130   3.408   5.211 -1.9331 -0.8871  0.3958
 5826TIP3    H217443   5.206   3.421   5.341  0.0733  0.8930 -0.8879
 5827TIP3   OH217444   2.755   3.404   4.120  0.2320 -0.2495 -0.2052
 5827TIP3    H117445   2.818   3.338   4.147  1.2480  0.6406 -0.2993
 5827TIP3    H217446   2.798   3.449   4.047 -1.4246 -1.0023 -1.7200
 5828TIP3   OH217447   3.849   1.154   3.592 -0.0029 -0.3228 -0.0300
 5828TIP3    H117448   3.822   1.179   3.503 -0.3358  0.3572  0.2596
 5828TIP3    H217449   3.865   1.060   3.586 -0.2793 -0.3322 -0.7507
 5829TIP3   OH217450   0.133   2.615   5.363 -0.0198  0.1555 -0.8990
 5829TIP3    H117451   0.050   2.588   5.323 -1.4184 -1.6707  2.7694
 5829TIP3    H217452   0.131   2.710   5.360 -2.1748  0.1546 -1.1099
 5830TIP3   OH217453   0.197   2.225   2.979  0.1959  0.3692  0.0371
 5830TIP3    H117454   0.180   2.223   2.885 -0.5843 -1.6775  0.1819
 5830TIP3    H217455   0.287   2.194   2.988  0.2000  0.3665 -0.0132
 5831TIP3   OH217456   6.288   0.964   1.362 -0.0222  0.0603  0.1532
 5831TIP3    H117457   6.313   0.883   1.317  2.4085  1.0616 -0.4879
 5831TIP3    H217458   6.258   1.022   1.292  0.7526  0.5638  0.2253
 5832TIP3   OH217459   0.459   5.454   0.028  0.3175  0.1989  0.3974
 5832TIP3    H117460   0.381   5.483   0.075  0.7559  1.2454  0.5068
 5832TIP3    H217461   0.474   5.365   0.059 -1.6320 -0.5646 -0.6554
 5833TIP3   OH217462   2.548   0.442   2.094  0.2943  0.1156  0.1565
 5833TIP3    H117463   2.539   0.522   2.145 -1.3316 -0.5400  0.9710
 5833TIP3    H217464   2.572   0.472   2.006  0.4433  1.4231  0.6186
 5834TIP3   OH217465   0.343   6.278   4.640 -0.1611  0.2041  0.6515
 5834TIP3    H117466   0.385   6.357   4.673  0.2436  1.4726 -2.4804
 5834TIP3    H217467   0.279   6.309   4.576  0.4237 -1.9491 -1.1480
 5835TIP3   OH217468   4.579   6.211   3.674  0.2744 -1.0445  0.3940
 5835TIP3    H117469   4.595   6.150   3.745 -1.1196  1.0292  2.6350
 5835TIP3    H217470   4.516   6.274   3.709 -1.4510 -0.5518 -3.0670
 5836TIP3   OH217471   5.642   2.611   0.738  0.1936  0.3007 -0.1708
 5836TIP3    H117472   5.575   2.577   0.798 -0.2019  0.7954 -0.3272
 5836TIP3    H217473   5.721   2.564   0.762 -0.1976 -0.2464  0.0588
 5837TIP3   OH217474   0.017   5.227   3.490 -0.7800 -0.2370  0.4626
 5837TIP3    H117475   0.060   5.179   3.562  1.3106  1.4202  0.4050
 5837TIP3    H217476   0.085   5.236   3.424 -2.5619 -1.3790 -1.6538
 5838TIP3   OH217477   6.338   4.370   4.892  0.0563 -0.0060  0.2915
 5838TIP3    H117478   6.270   4.430   4.923  0.0908 -0.1988  0.7599
 5838TIP3    H217479   6.327   4.367   4.797 -2.4942 -2.2698  0.5217
 5839TIP3   OH217480   6.015   6.574   2.220 -0.1058  0.0666 -0.1485
 5839TIP3    H117481   6.038   6.508   2.155  0.8562 -0.5157  0.7406
 5839TIP3    H217482   5.942   6.534   2.269 -1.5027  0.9143 -1.4473
 5840TIP3   OH217483   1.499   4.047   0.429  0.8366  0.3861 -0.0626
 5840TIP3    H117484   1.589   4.080   0.428  1.5638 -1.4005 -2.4419
 5840TIP3    H217485   1.470   4.060   0.519  3.8381  0.0818  1.0648
 5841TIP3   OH217486   3.501   4.393   0.155 -0.0707  0.0531 -0.3839
 5841TIP3    H117487   3.562   4.428   0.220 -0.0916 -0.5670 -0.0303
 5841TIP3    H217488   3.449   4.328   0.203  1.0015 -1.6078 -1.4012
 5842TIP3   OH217489   4.005   0.980   1.633 -0.2052  0.0901  0.0442
 5842TIP3    H117490   3.923   1.015   1.668 -0.6913  0.9056 -1.7814
 5842TIP3    H217491   4.032   1.045   1.568  1.6623 -0.3976  0.2888
 5843TIP3   OH217492   5.409   2.459   5.683  0.1345 -0.4141 -0.0476
 5843TIP3    H117493   5.403   2.553   5.667 -1.1529 -0.5375 -0.4104
 5843TIP3    H217494   5.467   2.450   5.758  0.2524  0.6685 -0.0032
 5844TIP3   OH217495   6.396   5.898   4.155 -0.0765 -0.3801 -0.0811
 5844TIP3    H117496   6.486   5.866   4.146 -1.1036 -3.5579 -0.3062
 5844TIP3    H217497   6.385   5.913   4.249  0.4618 -0.7450  0.0455
 5845TIP3   OH217498   3.358   3.730   2.183 -0.3998  0.3223 -0.2332
 5845TIP3    H117499   3.436   3.687   2.149 -1.2880 -2.2572  0.7696
 5845TIP3    H217500   3.290   3.713   2.118 -0.9232 -0.3957  0.4865
 5846TIP3   OH217501   0.837   3.212   4.567 -0.2082 -0.3375  0.4563
 5846TIP3    H117502   0.917   3.172   4.532 -0.9455 -0.8732 -0.6761
 5846TIP3    H217503   0.789   3.140   4.607 -0.5016 -0.1693  0.4088
 5847TIP3   OH217504   3.647   1.620   1.950 -0.5795  0.5554  0.0153
 5847TIP3    H117505   3.622   1.711   1.934  0.3076  0.6268 -1.0642
 5847TIP3    H217506   3.593   1.570   1.889 -1.2487  0.3187  0.7826
 5848TIP3   OH217507   6.676   4.789   3.286 -0.0442 -0.7045 -0.2198
 5848TIP3    H117508   6.717   4.860   3.236 -0.7121 -0.7899 -0.9127
 5848TIP3    H217509   6.652   4.829   3.370 -1.3251  0.1903 -0.9738
 5849TIP3   OH217510   1.759   5.839   0.954  0.4330  0.1437 -0.2239
 5849TIP3    H117511   1.763   5.744   0.956  0.7486  0.0702 -2.3150
 5849TIP3    H217512   1.832   5.868   1.008 -0.3657 -0.7637  1.4004
 5850TIP3   OH217513   0.593   3.814   2.317 -0.0784  0.2538 -0.3474
 5850TIP3    H117514   0.519   3.857   2.360 -0.6242  0.1686 -1.1863
 5850TIP3    H217515   0.582   3.835   2.224 -0.7461 -2.2381 -0.8955
 5851TIP3   OH217516   2.445   6.646   3.148  0.8180  0.5175  0.1263
 5851TIP3    H117517   2.373   6.584   3.133  1.4006 -0.2444  0.3952
 5851TIP3    H217518   2.523   6.590   3.158  1.2086  1.2290  1.2996
 5852TIP3   OH217519   5.322   6.786   4.255  0.2835 -0.0759  0.6102
 5852TIP3    H117520   5.283   6.725   4.192 -0.0283  1.2800 -0.5693
 5852TIP3    H217521   5.258   6.794   4.325 -0.4883  0.2366 -0.1076
 5853TIP3   OH217522   4.060   2.787   2.787 -0.0136  0.3776  0.5405
 5853TIP3    H117523   4.016   2.844   2.723 -0.6716 -1.3800 -0.6619
 5853TIP3    H217524   3.992   2.766   2.851 -0.9827 -2.1106 -1.1632
 5854TIP3   OH217525   3.756   1.292   5.148 -0.0594 -0.3405 -0.6164
 5854TIP3    H117526   3.835   1.297   5.203 -0.4795 -2.4869  0.2784
 5854TIP3    H217527   3.704   1.222   5.188 -1.9007  0.2598 -1.8703
 5855TIP3   OH217528   2.948   2.428   1.793 -0.0424  0.0701 -0.0293
 5855TIP3    H117529   2.887   2.370   1.839  2.5606 -0.2527  3.3832
 5855TIP3    H217530   2.954   2.506   1.849  3.7164 -0.5605  0.7314
 5856TIP3   OH217531   4.782   0.390   1.180  0.7178  0.2867 -0.0636
 5856TIP3    H117532   4.774   0.295   1.187  0.0136  0.2774 -0.9401
 5856TIP3    H217533   4.692   0.421   1.177  0.8805  1.1438  1.9449
 5857TIP3   OH217534   6.644   5.606   5.399  0.1933 -0.5056  0.4435
 5857TIP3    H117535   6.673   5.697   5.389  0.4318 -0.6656 -0.3221
 5857TIP3    H217536   6.708   5.554   5.350  0.2205 -1.1196  1.1084
 5858TIP3   OH217537   5.977   5.053   0.305  0.0965 -0.1401  0.5750
 5858TIP3    H117538   5.997   5.120   0.371  1.1416  1.2708 -1.0783
 5858TIP3    H217539   6.061   5.009   0.289  0.3530  0.8914 -1.1860
 5859TIP3   OH217540   6.625   2.371   4.145  0.0528  0.2065  0.3337
 5859TIP3    H117541   6.570   2.430   4.197  1.4757  0.6637  1.3914
 5859TIP3    H217542   6.700   2.354   4.201  0.9110 -0.5218 -1.0039
 5860TIP3   OH217543   4.818   5.037   1.272  0.0136 -0.0137  0.0444
 5860TIP3    H117544   4.858   5.104   1.215 -0.1180 -0.7808 -0.9736
 5860TIP3    H217545   4.725   5.056   1.268  0.0908  0.5965  0.8898
 5861TIP3   OH217546   6.370   3.942   1.674  0.4222 -0.0902  0.2125
 5861TIP3    H117547   6.414   4.002   1.735 -0.7936  1.0216  0.0415
 5861TIP3    H217548   6.319   4.000   1.617  0.2899 -1.2180 -0.8425
 5862TIP3   OH217549   1.778   5.973   4.949 -0.1665  0.6618  0.4668
 5862TIP3    H117550   1.737   5.936   4.871  0.9220  1.1088 -0.3381
 5862TIP3    H217551   1.787   6.067   4.930  0.5757  0.6931  0.9098
 5863TIP3   OH217552   6.506   3.235   0.313  0.4459 -0.2879  0.5756
 5863TIP3    H117553   6.565   3.229   0.388  1.4139  0.0361 -0.1335
 5863TIP3    H217554   6.558   3.278   0.245 -0.1823 -1.1650 -0.5035
 5864TIP3   OH217555   3.155   0.867   1.601  0.4432  0.2707  0.3557
 5864TIP3    H117556   3.078   0.823   1.637 -1.0265  0.2813 -2.5453
 5864TIP3    H217557   3.228   0.810   1.626 -0.8450 -1.3504  0.6472
 5865TIP3   OH217558   1.731   6.305   5.469  0.1001 -0.1038  0.6484
 5865TIP3    H117559   1.672   6.256   5.527 -1.5665  0.6424 -0.3098
 5865TIP3    H217560   1.733   6.393   5.507  0.4435 -0.0798  0.5699
 5866TIP3   OH217561   4.008   1.707   2.557  0.6741  0.4827  0.0602
 5866TIP3    H117562   4.087   1.668   2.520  0.8273  0.0153  0.8625
 5866TIP3    H217563   4.036   1.745   2.640 -0.1582 -0.7127  0.9259
 5867TIP3   OH217564   0.547   3.226   1.317 -0.3625 -0.0066  0.2526
 5867TIP3    H117565   0.569   3.217   1.410 -2.2455 -0.5089  0.6995
 5867TIP3    H217566   0.460   3.266   1.317 -1.2566 -1.8025 -1.2096
 5868TIP3   OH217567   1.424   4.975   2.218 -0.4844 -0.4239 -0.1676
 5868TIP3    H117568   1.505   5.020   2.242 -0.5705 -0.4626  0.2019
 5868TIP3    H217569   1.388   5.027   2.147  0.8890 -1.5075 -1.7433
 5869TIP3   OH217570   6.688   4.409   1.343 -0.1641 -0.2988 -0.4435
 5869TIP3    H117571   6.730   4.431   1.426  0.6730 -0.5388 -0.7868
 5869TIP3    H217572   6.610   4.359   1.368  0.9417 -1.8003  0.1852
 5870TIP3   OH217573   1.085   0.741   5.308  0.4125 -0.0980 -0.4220
 5870TIP3    H117574   1.097   0.803   5.236 -0.4819  0.1317 -0.3874
 5870TIP3    H217575   1.149   0.769   5.374  1.1250 -0.2148 -1.0581
 5871TIP3   OH217576   3.657   2.080   5.213 -0.6050  0.5499 -0.5642
 5871TIP3    H117577   3.742   2.078   5.258 -1.0863  0.8163  0.4035
 5871TIP3    H217578   3.674   2.125   5.131 -0.0307  1.7096  0.1640
 5872TIP3   OH217579   1.076   5.412   1.157 -0.2558  0.1495 -0.0625
 5872TIP3    H117580   1.059   5.410   1.062 -1.9656 -0.2599  0.2108
 5872TIP3    H217581   1.126   5.332   1.174 -2.1548 -1.1605 -0.2930
 5873TIP3   OH217582   2.864   0.529   5.295  0.4091 -0.4372  0.8543
 5873TIP3    H117583   2.785   0.480   5.272 -0.1012  0.6034  0.3364
 5873TIP3    H217584   2.849   0.557   5.385 -1.3581  2.5447 -0.2224
 5874TIP3   OH217585   4.552   4.191   5.284 -0.4690 -0.2570  0.0016
 5874TIP3    H117586   4.622   4.183   5.219 -0.3499  1.0875 -0.0638
 5874TIP3    H217587   4.472   4.199   5.233 -0.6435 -1.3338  0.0730
 5875TIP3   OH217588   1.931   0.964   0.126 -0.3236  0.2380 -0.6060
 5875TIP3    H117589   1.939   0.872   0.103 -1.0154 -0.3043  1.1177
 5875TIP3    H217590   2.013   1.003   0.098  0.2371 -1.0376 -0.8095
 5876TIP3   OH217591   5.580   5.376   4.928 -0.1452  0.4168  0.0000
 5876TIP3    H117592   5.558   5.389   5.020 -0.9495  0.7668 -0.2279
 5876TIP3    H217593   5.513   5.315   4.896  0.0934  0.3445 -0.3665
 5877TIP3   OH217594   2.572   2.917   2.718  0.2287  0.3748  0.4386
 5877TIP3    H117595   2.592   2.997   2.766 -0.1621  0.5876  0.2476
 5877TIP3    H217596   2.546   2.947   2.631 -0.9269  0.1001  0.6804
 5878TIP3   OH217597   0.503   6.458   4.788  0.3252 -0.2782 -0.0135
 5878TIP3    H117598   0.545   6.542   4.803  2.2682 -1.2624  0.4148
 5878TIP3    H217599   0.501   6.416   4.874  1.0973 -1.3881 -0.5087
 5879TIP3   OH217600   3.557   6.085   4.861  0.5167 -0.0531  0.5991
 5879TIP3    H117601   3.464   6.106   4.872  0.7106 -0.0493  2.3928
 5879TIP3    H217602   3.562   6.050   4.772 -1.1844 -0.0031  0.4375
 5880TIP3   OH217603   1.840   3.091   5.730  0.4670 -1.1104  0.1175
 5880TIP3    H117604   1.818   3.000   5.708 -0.1574 -0.7949 -0.6139
 5880TIP3    H217605   1.935   3.090   5.742  0.4478 -1.8871  0.2711
 5881TIP3   OH217606   2.997   6.388   3.613 -0.2363 -0.2223 -0.0817
 5881TIP3    H117607   2.945   6.308   3.603 -1.3854  0.7841 -3.4323
 5881TIP3    H217608   3.083   6.365   3.577  0.2096 -0.5645  1.1526
 5882TIP3   OH217609   1.617   5.946   4.602  0.0166 -0.5171  0.2957
 5882TIP3    H117610   1.592   6.027   4.557  2.7625  0.4457  0.3186
 5882TIP3    H217611   1.548   5.931   4.666 -0.8444  1.5102 -0.0945
 5883TIP3   OH217612   5.178   1.849   4.630 -0.5444  0.0419  0.7830
 5883TIP3    H117613   5.181   1.930   4.580 -0.7596  0.2626  1.1266
 5883TIP3    H217614   5.104   1.800   4.593 -0.8985  0.3403  1.0879
 5884TIP3   OH217615   5.125   4.758   3.682  0.0525 -0.7019  0.0313
 5884TIP3    H117616   5.190   4.737   3.616  2.1749 -0.8762  2.0403
 5884TIP3    H217617   5.175   4.763   3.764 -2.1119  1.3810  1.3486
 5885TIP3   OH217618   5.315   6.547   2.316  0.0343  0.1352 -0.0653
 5885TIP3    H117619   5.247   6.480   2.305 -0.3850  0.1698  1.9738
 5885TIP3    H217620   5.312   6.598   2.235  0.2857 -2.1967 -1.6386
 5886TIP3   OH217621   5.158   2.544   1.732 -0.1184  0.2960  0.6821
 5886TIP3    H117622   5.105   2.465   1.746  0.3478  0.1416  1.6409
 5886TIP3    H217623   5.245   2.511   1.712  0.1007  0.5752  1.1791
 5887TIP3   OH217624   6.891   4.537   4.853 -0.1818  0.1723 -0.3002
 5887TIP3    H117625   6.971   4.534   4.905 -0.1826 -1.2388 -0.3478
 5887TIP3    H217626   6.922   4.537   4.762 -0.2141 -2.6815 -0.3762
 5888TIP3   OH217627   4.830   6.100   2.826 -0.0465  0.0581 -0.1586
 5888TIP3    H117628   4.875   6.058   2.899 -0.2304  0.4892  0.2017
 5888TIP3    H217629   4.823   6.192   2.851 -1.3613 -0.0510 -0.0857
 5889TIP3   OH217630   2.136   2.261   3.452 -0.4063 -0.4597 -0.4273
 5889TIP3    H117631   2.220   2.306   3.445  0.2749 -1.4963  0.6376
 5889TIP3    H217632   2.107   2.279   3.542 -1.4361  0.0620 -0.8531
 5890TIP3   OH217633   1.650   0.478   3.889 -0.0932  0.1111  0.5209
 5890TIP3    H117634   1.601   0.483   3.807  1.9258 -1.9422 -0.9155
 5890TIP3    H217635   1.727   0.532   3.874 -0.3304  0.7928  1.6148
 5891TIP3   OH217636   6.455   5.240   5.827  0.2429 -0.7121 -0.4361
 5891TIP3    H117637   6.512   5.163   5.822  0.7943 -0.2196 -2.1595
 5891TIP3    H217638   6.426   5.255   5.737 -3.4460 -1.5117  0.4414
 5892TIP3   OH217639   1.963   1.513   3.739 -0.2006  0.2511 -0.1885
 5892TIP3    H117640   1.953   1.459   3.661  1.1284  0.7650 -0.7444
 5892TIP3    H217641   1.890   1.576   3.734 -1.4753 -1.1368  0.2150
 5893TIP3   OH217642   3.548   6.072   0.940 -0.0869 -0.3913 -0.4407
 5893TIP3    H117643   3.487   6.119   0.997  0.7867 -1.1916  1.2313
 5893TIP3    H217644   3.633   6.112   0.959  0.2999 -1.0625 -0.7461
 5894TIP3   OH217645   4.182   5.839   5.552  0.7749 -0.1832 -0.3664
 5894TIP3    H117646   4.091   5.828   5.580  0.8398  0.4883  0.1366
 5894TIP3    H217647   4.212   5.918   5.598  2.1486 -1.3716  0.8555
 5895TIP3   OH217648   2.922   5.303   3.613  0.1641  0.4477 -0.4713
 5895TIP3    H117649   2.881   5.316   3.699 -0.6576 -1.3622 -0.5383
 5895TIP3    H217650   3.000   5.250   3.632  0.4117  0.7067 -0.7632
 5896TIP3   OH217651   1.463   2.033   3.998  0.0838 -0.3514 -0.0416
 5896TIP3    H117652   1.429   1.975   4.066  1.2339 -0.6369  0.3129
 5896TIP3    H217653   1.532   2.084   4.041  1.0832 -0.7924 -1.0485
 5897TIP3   OH217654   3.937   2.289   5.897 -0.0426  0.4897  0.3941
 5897TIP3    H117655   3.969   2.333   5.818 -1.4519  0.7954 -0.0387
 5897TIP3    H217656   4.008   2.231   5.922  0.0946 -0.3222 -1.6607
 5898TIP3   OH217657   2.019   2.092   5.001  0.2688 -0.1052 -0.1473
 5898TIP3    H117658   2.096   2.080   4.946  0.0644 -0.1257 -0.4278
 5898TIP3    H217659   2.004   2.006   5.040  0.2956 -0.1375 -0.2088
 5899TIP3   OH217660   2.598   0.869   3.302 -0.0867 -0.3267 -0.0591
 5899TIP3    H117661   2.523   0.923   3.327  1.1723  1.2232  0.5050
 5899TIP3    H217662   2.612   0.811   3.377  0.4913  0.7580  0.6917
 5900TIP3   OH217663   3.296   1.629   4.220  0.1795  0.2071 -0.1638
 5900TIP3    H117664   3.350   1.683   4.278 -1.1980  1.2969  0.1729
 5900TIP3    H217665   3.319   1.539   4.242  0.7121  0.6210  1.0778
 5901TIP3   OH217666   4.694   5.857   4.135 -1.0540 -0.3793 -0.0471
 5901TIP3    H117667   4.689   5.916   4.210 -1.9854 -0.4121 -0.0708
 5901TIP3    H217668   4.615   5.802   4.142 -0.5749 -1.1298 -0.4279
 5902TIP3   OH217669   2.091   6.004   3.207  0.1794 -0.4913  0.3576
 5902TIP3    H117670   2.157   5.999   3.276 -0.5439  1.8869  1.3123
 5902TIP3    H217671   2.053   5.916   3.203 -0.1032 -0.5860  3.3497
 5903TIP3   OH217672   3.027   5.622   5.056  0.0582 -0.0775 -0.0133
 5903TIP3    H117673   3.017   5.683   4.983  1.9343  0.6470  0.2859
 5903TIP3    H217674   2.943   5.626   5.102 -0.4237  1.0456 -0.9371
 5904TIP3   OH217675   3.722   3.751   1.678  0.1939  0.1298 -0.2719
 5904TIP3    H117676   3.742   3.658   1.687 -1.1818 -0.0115  2.0358
 5904TIP3    H217677   3.801   3.789   1.639  0.8412 -1.9446 -1.1287
 5905TIP3   OH217678   3.992   5.938   3.770 -0.5497 -0.0519 -0.0442
 5905TIP3    H117679   4.072   5.977   3.803 -0.2619  2.3492 -3.0968
 5905TIP3    H217680   3.926   6.006   3.778 -1.3539 -0.6910 -0.9239
 5906TIP3   OH217681   3.175   4.250   3.041  0.3553 -0.0351  0.2919
 5906TIP3    H117682   3.104   4.257   3.105 -0.3296  2.3151 -0.6155
 5906TIP3    H217683   3.224   4.331   3.050  0.6485  0.0609 -1.6564
 5907TIP3   OH217684   0.547   1.913   4.827 -0.2129  0.5294  0.0610
 5907TIP3    H117685   0.478   1.850   4.808 -0.6916  0.9135  0.4588
 5907TIP3    H217686   0.606   1.909   4.752 -1.4936  1.2918 -1.0345
 5908TIP3   OH217687   1.117   1.859   3.381 -0.0074 -0.0950 -0.0049
 5908TIP3    H117688   1.105   1.936   3.436  0.2961 -0.1703  0.1703
 5908TIP3    H217689   1.123   1.894   3.292 -0.9271 -0.0144 -0.0358
 5909TIP3   OH217690   1.652   0.808   3.714 -0.1066 -0.3571 -0.1987
 5909TIP3    H117691   1.600   0.775   3.640  0.1561  0.4914 -0.7696
 5909TIP3    H217692   1.671   0.899   3.692 -1.0894  0.2962  1.5067
 5910TIP3   OH217693   6.642   1.581   1.467  0.3178 -0.3111 -0.6668
 5910TIP3    H117694   6.662   1.494   1.433 -0.9877 -1.2716  0.8671
 5910TIP3    H217695   6.701   1.591   1.541 -0.3703 -0.4279 -0.0924
 5911TIP3   OH217696   3.394   1.394   2.811  0.1298  0.2190  0.4735
 5911TIP3    H117697   3.315   1.350   2.842 -0.7568 -0.2758 -2.2142
 5911TIP3    H217698   3.382   1.486   2.836 -0.1295 -0.2391  2.1582
 5912TIP3   OH217699   1.419   4.434   4.355  0.1793 -0.0378 -0.6320
 5912TIP3    H117700   1.455   4.359   4.403  0.8080  0.4046 -0.3949
 5912TIP3    H217701   1.447   4.510   4.405 -0.2341  0.3680 -1.0125
 5913TIP3   OH217702   2.783   0.117   0.886  0.0526  0.3408 -0.0214
 5913TIP3    H117703   2.713   0.171   0.921  0.4388  2.7694 -2.6876
 5913TIP3    H217704   2.848   0.179   0.853  2.0219 -1.7929 -0.4122
 5914TIP3   OH217705   6.649   0.812   0.211 -0.2025 -0.1297  0.1333
 5914TIP3    H117706   6.580   0.797   0.275  0.8483 -3.5532  0.6462
 5914TIP3    H217707   6.713   0.866   0.257 -0.4902 -0.6793  1.1905
 5915TIP3   OH217708   4.108   3.285   1.472 -0.4067 -0.3142 -1.1505
 5915TIP3    H117709   4.105   3.258   1.380  0.9848 -0.3838 -1.1979
 5915TIP3    H217710   4.190   3.247   1.505 -0.8606 -0.2333  0.0990
 5916TIP3   OH217711   6.907   5.052   0.832  0.2588  0.5180  0.4734
 5916TIP3    H117712   6.947   4.965   0.845 -1.4551 -0.2165  1.0366
 5916TIP3    H217713   6.960   5.110   0.887  0.1424 -0.5552  1.7774
 5917TIP3   OH217714   6.370   0.365   3.984 -0.1821 -0.0204  0.3919
 5917TIP3    H117715   6.305   0.306   3.946  0.3865 -0.2418 -0.2488
 5917TIP3    H217716   6.431   0.383   3.912 -0.0855  0.9730  0.7086
 5918TIP3   OH217717   0.373   1.172   0.978  0.5532 -0.4000  0.0923
 5918TIP3    H117718   0.401   1.255   1.016  1.5825 -0.3877 -0.6388
 5918TIP3    H217719   0.455   1.125   0.962  0.3868  0.2486 -3.5598
 5919TIP3   OH217720   2.839   1.294   0.886 -0.2412  0.1348 -0.1370
 5919TIP3    H117721   2.868   1.203   0.888  1.8049  0.6889 -1.2518
 5919TIP3    H217722   2.908   1.342   0.932 -0.3021  1.3229 -1.2233
 5920TIP3   OH217723   5.295   6.753   2.996 -0.9117 -0.3659 -0.0704
 5920TIP3    H117724   5.361   6.779   3.060 -0.4674 -0.6297 -0.4185
 5920TIP3    H217725   5.267   6.835   2.956  0.3618 -0.3776 -1.0445
 5921TIP3   OH217726   5.698   5.927   1.954  0.2595 -0.4170 -0.5076
 5921TIP3    H117727   5.776   5.924   1.899  1.2162  0.5318  0.7212
 5921TIP3    H217728   5.666   6.017   1.945  0.2337 -0.3468  0.1992
 5922TIP3   OH217729   1.641   1.042   1.378 -0.3233 -0.3039 -0.1151
 5922TIP3    H117730   1.625   1.101   1.452  0.4409  0.3552 -0.4524
 5922TIP3    H217731   1.678   1.099   1.310  2.6940 -1.5215  0.3481
 5923TIP3   OH217732   1.087   4.398   1.247  0.3174  0.2585  0.4854
 5923TIP3    H117733   1.023   4.340   1.287 -1.2941  1.4074 -0.3043
 5923TIP3    H217734   1.133   4.438   1.320  0.1581 -0.6065  1.0692
 5924TIP3   OH217735   2.765   4.340   4.766  0.1003  0.3373 -0.3340
 5924TIP3    H117736   2.810   4.394   4.700 -0.3854 -0.5329 -1.3956
 5924TIP3    H217737   2.682   4.316   4.725 -0.5693  0.4300  0.9171
 5925TIP3   OH217738   1.428   2.857   2.209 -0.1447 -0.0826  0.3843
 5925TIP3    H117739   1.417   2.785   2.272 -4.1206 -0.3387 -0.3385
 5925TIP3    H217740   1.393   2.934   2.254 -1.1213  0.1603 -0.7563
 5926TIP3   OH217741   5.151   0.665   1.412  0.2980 -0.0930  0.0135
 5926TIP3    H117742   5.142   0.636   1.503 -0.2440 -0.8516 -0.2674
 5926TIP3    H217743   5.116   0.592   1.360 -1.6858  1.2602 -0.7124
 5927TIP3   OH217744   4.801   2.404   4.588  0.2670 -0.2253  0.0717
 5927TIP3    H117745   4.864   2.442   4.649 -0.6514  0.1413  0.8322
 5927TIP3    H217746   4.817   2.310   4.593 -1.0831 -0.4242  2.4863
 5928TIP3   OH217747   3.901   5.856   5.614  0.3248  0.6001 -0.2910
 5928TIP3    H117748   3.850   5.911   5.674 -0.1195  1.0137 -1.0408
 5928TIP3    H217749   3.888   5.767   5.647  1.0802  0.9270  0.9503
 5929TIP3   OH217750   1.293   5.724   4.959  0.3890  0.0319  0.0373
 5929TIP3    H117751   1.198   5.725   4.973  0.3723 -0.4557 -0.0416
 5929TIP3    H217752   1.331   5.724   5.046  0.3372  1.2510  0.0866
 5930TIP3   OH217753   4.174   1.370   0.116  0.2088  0.3289  0.1192
 5930TIP3    H117754   4.239   1.338   0.179 -0.3977  0.7632  0.9749
 5930TIP3    H217755   4.091   1.333   0.146 -0.3769  1.9869  0.6385
 5931TIP3   OH217756   1.515   3.696   3.626  0.7047 -0.2435  0.2514
 5931TIP3    H117757   1.427   3.667   3.652  0.8927 -2.0463 -0.9055
 5931TIP3    H217758   1.499   3.765   3.562  0.1687  0.2962  0.9478
 5932TIP3   OH217759   2.291   3.941   2.180  0.3864 -0.0470  0.5967
 5932TIP3    H117760   2.378   3.952   2.142  0.1880  0.8603  0.3783
 5932TIP3    H217761   2.304   3.884   2.256  1.1479 -0.0243  0.4820
 5933TIP3   OH217762   1.322   3.651   1.300 -0.1348  0.8775  0.4460
 5933TIP3    H117763   1.401   3.609   1.267  0.6079  1.1982  1.7520
 5933TIP3    H217764   1.272   3.579   1.339  1.0175  1.0813  2.4520
 5934TIP3   OH217765   2.051   4.064   2.755  0.3860  0.1453 -0.2413
 5934TIP3    H117766   2.066   4.032   2.666  1.0691 -1.6268  0.4610
 5934TIP3    H217767   1.976   4.123   2.748 -0.2254 -0.7866 -1.8208
 5935TIP3   OH217768   5.944   0.961   4.546  0.3351 -0.0766  0.3304
 5935TIP3    H117769   5.853   0.946   4.524  0.2911  0.8842 -0.2279
 5935TIP3    H217770   5.994   0.920   4.475  0.3951 -1.5606  1.1998
 5936TIP3   OH217771   0.442   0.300   1.573  0.2665 -0.2062  0.1647
 5936TIP3    H117772   0.485   0.328   1.493 -0.0274  1.0355  0.4067
 5936TIP3    H217773   0.361   0.258   1.544  0.2933 -0.0049 -0.2007
 5937TIP3   OH217774   2.054   6.170   4.804 -0.0544 -0.4620  0.0786
 5937TIP3    H117775   2.035   6.077   4.793  0.2191 -0.5979  0.7664
 5937TIP3    H217776   1.969   6.210   4.822 -0.0211 -0.7348  0.8504
 5938TIP3   OH217777   0.649   3.508   0.169  0.5527  0.1640  0.2610
 5938TIP3    H117778   0.645   3.585   0.112 -1.6484 -0.1280 -0.0992
 5938TIP3    H217779   0.667   3.543   0.256 -0.7148  1.1690  0.1630
 5939TIP3   OH217780   7.209   3.648   5.522 -0.3532  0.0458 -0.2917
 5939TIP3    H117781   7.261   3.713   5.569 -1.8766  1.5705 -0.6362
 5939TIP3    H217782   7.135   3.629   5.579  0.6019 -2.2800  0.2989
 5940TIP3   OH217783   3.905   0.505   2.472  0.0950  0.5175  0.1135
 5940TIP3    H117784   3.976   0.443   2.486 -0.1127 -0.1851 -1.6457
 5940TIP3    H217785   3.933   0.584   2.518  0.8229 -0.5465  1.5578
 5941TIP3   OH217786   5.926   5.935   3.505  0.3677  0.4681  0.1711
 5941TIP3    H117787   5.856   5.924   3.441 -0.0759 -1.0940  0.8811
 5941TIP3    H217788   6.007   5.923   3.454  0.0330 -0.4487 -0.1644
 5942TIP3   OH217789   0.659   1.636   4.757  0.0228 -0.7052 -0.4024
 5942TIP3    H117790   0.672   1.683   4.674 -2.1665 -0.2410 -0.5360
 5942TIP3    H217791   0.566   1.645   4.775  0.2683 -1.7063  1.5988
 5943TIP3   OH217792   4.889   4.631   3.720 -0.7384 -0.2194 -0.1465
 5943TIP3    H117793   4.981   4.654   3.703 -0.7737  0.5234  0.6183
 5943TIP3    H217794   4.854   4.706   3.766 -1.7386 -0.5160 -0.4097
 5944TIP3   OH217795   4.107   5.678   5.301  0.9732 -0.0091 -0.0274
 5944TIP3    H117796   4.200   5.683   5.279  1.0077  2.9050  0.4431
 5944TIP3    H217797   4.091   5.756   5.355 -1.2803 -1.6042  1.7962
 5945TIP3   OH217798   4.765   1.744   3.322  0.3234 -0.2680  0.1059
 5945TIP3    H117799   4.777   1.812   3.389  0.5248  0.9732 -1.1328
 5945TIP3    H217800   4.855   1.722   3.295  0.2104  0.8080 -1.2370
 5946TIP3   OH217801   4.147   4.952   2.075 -0.3385 -0.1072 -0.5778
 5946TIP3    H117802   4.162   5.023   2.138 -1.5487  0.4743 -0.9038
 5946TIP3    H217803   4.125   4.997   1.993 -0.1355 -0.8666 -1.0633
 5947TIP3   OH217804   4.335   3.613   3.388 -0.0598  0.2577  0.7380
 5947TIP3    H117805   4.389   3.687   3.417 -1.5055  1.3657  0.6895
 5947TIP3    H217806   4.245   3.645   3.391 -0.6435 -1.1205 -0.4399
 5948TIP3   OH217807   7.226   3.682   1.439 -0.6298  0.2805 -0.2573
 5948TIP3    H117808   7.177   3.607   1.474  0.5674  0.1198  1.1590
 5948TIP3    H217809   7.170   3.757   1.458 -1.5041 -0.1447 -1.0246
 5949TIP3   OH217810   5.349   6.708   4.649 -0.5175  0.0171  0.4983
 5949TIP3    H117811   5.337   6.622   4.610  3.6418 -0.4121 -0.3129
 5949TIP3    H217812   5.422   6.696   4.710 -0.0041  2.8939  0.5729
 5950TIP3   OH217813   7.039   5.197   1.031 -0.3056  0.0723 -0.8721
 5950TIP3    H117814   7.048   5.291   1.014  2.6746  0.8031  3.1752
 5950TIP3    H217815   7.129   5.166   1.044 -1.2844 -3.1192 -0.8822
 5951TIP3   OH217816   6.028   1.732   2.743  0.4545  0.0601  0.7019
 5951TIP3    H117817   6.056   1.642   2.723  2.5486  0.7780  0.1349
 5951TIP3    H217818   5.976   1.759   2.668  0.5704 -0.3797  0.4619
 5952TIP3   OH217819   4.206   0.196   0.394 -0.0009 -0.5074 -0.5925
 5952TIP3    H117820   4.257   0.237   0.324  2.8631 -0.8738  1.1280
 5952TIP3    H217821   4.226   0.103   0.386 -0.5424 -0.6836  0.0382
 5953TIP3   OH217822   5.906   5.003   0.000  0.3369 -0.2336 -0.1357
 5953TIP3    H117823   5.855   4.991   0.080 -0.6823 -1.6514 -0.9430
 5953TIP3    H217824   5.917   5.098  -0.008 -0.9843  0.0313  0.8112
 5954TIP3   OH217825   2.087   4.517   2.475  0.1574  0.4879 -0.3218
 5954TIP3    H117826   2.136   4.443   2.510 -1.0742 -0.0726  0.2532
 5954TIP3    H217827   2.153   4.569   2.428  0.7519 -1.8761 -2.3066
 5955TIP3   OH217828   6.241   2.734   0.434 -0.7358  0.5102 -0.0514
 5955TIP3    H117829   6.192   2.817   0.441 -0.6199  0.7406 -1.5752
 5955TIP3    H217830   6.210   2.682   0.508  0.1435  2.3888  1.7344
 5956TIP3   OH217831   1.002   1.380   2.037 -1.0915 -0.2003  0.0063
 5956TIP3    H117832   0.931   1.343   2.090 -0.0086 -2.1813  0.1826
 5956TIP3    H217833   1.078   1.324   2.056  0.5173  1.7948 -0.2306
 5957TIP3   OH217834   2.472   4.904   3.839  0.1584 -0.3501 -0.4408
 5957TIP3    H117835   2.465   4.822   3.790  2.5718 -0.3111 -0.9822
 5957TIP3    H217836   2.462   4.879   3.931 -1.0320 -0.9326 -0.7130
 5958TIP3   OH217837   5.937   6.001   0.459  0.3817  0.1834  0.3376
 5958TIP3    H117838   5.956   6.070   0.396 -1.7343  1.6143  1.1557
 5958TIP3    H217839   5.848   5.972   0.438  0.8065 -1.5128  0.7294
 5959TIP3   OH217840   6.877   0.964   1.100  0.2411 -0.1921 -0.0958
 5959TIP3    H117841   6.818   1.025   1.144  0.6534  0.3326 -0.2657
 5959TIP3    H217842   6.832   0.942   1.018 -0.8806 -1.7636  0.8965
 5960TIP3   OH217843   1.394   1.638   0.348  0.2734  0.0387 -0.0530
 5960TIP3    H117844   1.460   1.674   0.289 -0.5491  1.2579 -0.2784
 5960TIP3    H217845   1.311   1.658   0.306 -0.2679 -0.9125  0.5281
 5961TIP3   OH217846   2.444   2.312   2.714 -0.0737 -0.4696  0.2843
 5961TIP3    H117847   2.469   2.274   2.630 -2.6346  0.5359 -1.0021
 5961TIP3    H217848   2.437   2.236   2.773  1.3045 -1.2218 -0.4625
 5962TIP3   OH217849   5.531   0.629   2.436  0.1259 -0.0879  0.1060
 5962TIP3    H117850   5.612   0.673   2.409  0.6299 -2.0474 -2.0093
 5962TIP3    H217851   5.561   0.551   2.483 -0.5854 -0.1753  0.4272
 5963TIP3   OH217852   1.497   2.365   3.881 -0.3132 -0.6438  0.3127
 5963TIP3    H117853   1.527   2.440   3.932  1.0403  0.6757 -2.1961
 5963TIP3    H217854   1.559   2.295   3.903  0.3914 -0.0327  0.3475
 5964TIP3   OH217855   5.813   3.709   3.357 -0.2244  0.8421 -0.2447
 5964TIP3    H117856   5.863   3.694   3.276 -0.5370 -2.6140  0.0524
 5964TIP3    H217857   5.730   3.663   3.343 -0.9973  1.6345  1.4261
 5965TIP3   OH217858   4.472   4.850   1.401 -0.6797 -0.3936  0.6525
 5965TIP3    H117859   4.440   4.830   1.489  2.1938  0.4934  2.0028
 5965TIP3    H217860   4.524   4.774   1.375  0.6084  0.3854  0.8575
 5966TIP3   OH217861   4.483   0.243   5.655 -0.0305 -0.3365 -0.0065
 5966TIP3    H117862   4.448   0.317   5.705 -0.1102 -0.3330 -0.0670
 5966TIP3    H217863   4.477   0.169   5.715  1.1281 -0.0728  0.4770
 5967TIP3   OH217864   3.220   2.707   1.278 -0.0442  0.1069  0.2559
 5967TIP3    H117865   3.174   2.716   1.194 -0.4997 -0.2621  0.4601
 5967TIP3    H217866   3.242   2.614   1.283  0.4600  0.2271  0.2993
 5968TIP3   OH217867   4.626   2.487   5.503  0.7528  0.4543  0.0953
 5968TIP3    H117868   4.629   2.490   5.408  1.7323 -2.6118 -0.1000
 5968TIP3    H217869   4.713   2.454   5.529  0.2002  0.3244  1.9607
 5969TIP3   OH217870   6.822   0.454   1.044  0.0882 -0.1670  0.6900
 5969TIP3    H117871   6.887   0.476   0.977 -0.1325  0.6489  0.7384
 5969TIP3    H217872   6.827   0.526   1.107  0.7701 -1.2377  1.9162
 5970TIP3   OH217873   1.208   4.446   5.873 -0.0223 -0.2308  0.0014
 5970TIP3    H117874   1.283   4.402   5.832 -1.7537 -3.3111 -0.2337
 5970TIP3    H217875   1.158   4.481   5.799 -1.1442 -2.3925 -0.3760
 5971TIP3   OH217876   6.229   2.240   0.927  0.1767  0.3742  0.3852
 5971TIP3    H117877   6.143   2.248   0.968  0.0175  1.2194 -0.0831
 5971TIP3    H217878   6.222   2.293   0.847  0.4828 -1.2030 -0.7383
 5972TIP3   OH217879   3.225   0.604   2.298 -0.5552 -0.3113  0.8892
 5972TIP3    H117880   3.175   0.564   2.369  0.0895 -1.7322  0.5763
 5972TIP3    H217881   3.171   0.589   2.220 -0.4409 -0.3280  0.8130
 5973TIP3   OH217882   1.352   1.573   2.185  0.0487  0.3790 -0.1691
 5973TIP3    H117883   1.275   1.607   2.140 -1.0369  1.0076  2.0252
 5973TIP3    H217884   1.389   1.648   2.231  0.5427 -0.3849  0.7453
 5974TIP3   OH217885   4.901   0.531   3.889 -0.1308 -0.1946 -0.3356
 5974TIP3    H117886   4.817   0.576   3.903  0.1456  0.0158  0.7021
 5974TIP3    H217887   4.917   0.484   3.971 -0.4266 -2.2463 -1.3908
 5975TIP3   OH217888   5.706   4.780   2.661  0.0625 -0.2897 -0.3549
 5975TIP3    H117889   5.627   4.763   2.610 -0.4896  1.5766 -0.1862
 5975TIP3    H217890   5.674   4.814   2.745  0.9874 -2.3868  0.9311
 5976TIP3   OH217891   1.966   3.905   3.051  0.3719 -0.6834  0.1843
 5976TIP3    H117892   1.928   3.990   3.030  1.0244 -0.0445  1.4929
 5976TIP3    H217893   1.994   3.870   2.967 -0.0065  0.3418 -0.3868
 5977TIP3   OH217894   3.803   2.860   5.648  0.0493  0.0647 -0.7882
 5977TIP3    H117895   3.820   2.818   5.564 -1.9276 -0.1725 -1.1077
 5977TIP3    H217896   3.890   2.868   5.688  1.2312  1.3695 -3.3521
 5978TIP3   OH217897   6.038   5.596   5.309  0.1441 -0.2780  0.0242
 5978TIP3    H117898   6.131   5.579   5.294  0.9176  2.5497  1.0967
 5978TIP3    H217899   6.016   5.546   5.387  0.5214 -1.5512 -0.6571
 5979TIP3   OH217900   0.123   1.495   0.186 -0.0895  0.3476  0.1798
 5979TIP3    H117901   0.201   1.536   0.149  0.9147  1.8282  3.5749
 5979TIP3    H217902   0.055   1.562   0.176 -0.2278  0.1439 -0.2864
 5980TIP3   OH217903   6.437   2.593   4.842  0.2821 -0.2372  0.3313
 5980TIP3    H117904   6.370   2.534   4.807 -1.2441 -0.1998  2.9063
 5980TIP3    H217905   6.452   2.560   4.931  2.1718  1.0355  0.5290
 5981TIP3   OH217906   1.917   5.482   4.865 -0.1503  0.3183  0.3456
 5981TIP3    H117907   1.831   5.520   4.880 -0.9154 -1.8979  2.2301
 5981TIP3    H217908   1.935   5.432   4.945  2.0649 -0.7990 -0.7557
 5982TIP3   OH217909   3.544   0.446   0.747  0.3076 -0.4760  0.4805
 5982TIP3    H117910   3.493   0.365   0.748  1.2513 -1.1289 -0.9282
 5982TIP3    H217911   3.601   0.440   0.823 -0.4862 -0.5471  1.0800
 5983TIP3   OH217912   4.679   1.749   5.099  0.2212  0.1097 -0.0971
 5983TIP3    H117913   4.618   1.710   5.162  0.7893  0.4688  0.6806
 5983TIP3    H217914   4.757   1.694   5.104  0.0074 -0.3084 -1.0450
 5984TIP3   OH217915   4.500   0.687   4.709 -0.0732  0.3067 -0.3217
 5984TIP3    H117916   4.518   0.595   4.728 -1.7956 -0.5256 -2.3161
 5984TIP3    H217917   4.508   0.731   4.794  0.9434 -1.6175  0.6515
 5985TIP3   OH217918   0.525   4.885   3.969 -0.2013  0.2504 -0.1069
 5985TIP3    H117919   0.430   4.897   3.966 -0.3778 -0.5680  1.2935
 5985TIP3    H217920   0.560   4.971   3.992 -0.5348  0.7119 -1.2694
 5986TIP3   OH217921   0.057   0.532   5.031 -0.3902  0.5394  0.0922
 5986TIP3    H117922   0.013   0.456   4.993 -0.0867  0.7436 -0.6830
 5986TIP3    H217923   0.151   0.512   5.023 -0.3005 -0.1649  2.2757
 5987TIP3   OH217924   6.288   3.705   1.784 -0.4436  0.3229 -0.1448
 5987TIP3    H117925   6.305   3.797   1.762  0.1674  1.0174  2.7899
 5987TIP3    H217926   6.320   3.696   1.874  0.6267 -3.1013 -0.7149
 5988TIP3   OH217927   4.656   4.276   1.038  0.1401 -0.2934  0.2007
 5988TIP3    H117928   4.698   4.338   1.096  0.3006 -0.0198 -0.2062
 5988TIP3    H217929   4.609   4.330   0.974 -0.1498 -0.5900  0.1577
 5989TIP3   OH217930   4.841   5.131   2.611  0.0084  0.0779 -0.4565
 5989TIP3    H117931   4.917   5.109   2.665 -2.7047  0.1896  3.9250
 5989TIP3    H217932   4.852   5.224   2.590  0.9540  0.1566  0.3329
 5990TIP3   OH217933   0.421   2.875   4.127  0.1687 -0.4493  0.2263
 5990TIP3    H117934   0.492   2.874   4.191 -0.1603  1.6864  0.7117
 5990TIP3    H217935   0.351   2.825   4.168 -0.2901  1.4402  1.9303
 5991TIP3   OH217936   5.536   6.577   5.552  0.3070 -0.2426 -0.2559
 5991TIP3    H117937   5.624   6.564   5.516  0.5011  1.2769 -0.3773
 5991TIP3    H217938   5.544   6.652   5.611 -0.8903 -0.1330 -0.2015
 5992TIP3   OH217939   3.232   4.205   4.139  0.0731 -0.1469 -0.1408
 5992TIP3    H117940   3.300   4.246   4.085  0.9251 -0.6569  0.5157
 5992TIP3    H217941   3.243   4.111   4.123 -1.1410 -0.2039 -0.7858
 5993TIP3   OH217942   0.727   1.081   4.882 -0.4344 -0.3703  0.6161
 5993TIP3    H117943   0.797   1.087   4.817 -0.9644 -1.6593 -0.1240
 5993TIP3    H217944   0.772   1.081   4.966  0.2484  1.6663  0.2902
 5994TIP3   OH217945   5.661   6.234   4.479 -0.0980  0.7999 -0.0254
 5994TIP3    H117946   5.695   6.318   4.511 -0.6287  0.4844  1.4161
 5994TIP3    H217947   5.566   6.243   4.485 -0.1590  0.1423  0.0162
 5995TIP3   OH217948   2.076   0.651   3.540  0.3770 -0.1131 -0.0432
 5995TIP3    H117949   2.056   0.712   3.470  0.1017 -1.1427 -0.8910
 5995TIP3    H217950   2.108   0.706   3.612  0.6444  0.9617 -0.9588
 5996TIP3   OH217951   4.083   4.576   0.207 -0.2149  0.3858 -0.0479
 5996TIP3    H117952   4.086   4.572   0.111 -1.6049  0.8998 -0.1457
 5996TIP3    H217953   4.123   4.495   0.236  1.1723  0.6809 -1.0298
 5997TIP3   OH217954   0.381   6.439   2.687  0.5790 -0.0143  0.0242
 5997TIP3    H117955   0.424   6.494   2.752  0.2981  0.9455 -0.5730
 5997TIP3    H217956   0.399   6.349   2.715  0.5699  0.3743  1.3357
 5998TIP3   OH217957   4.846   6.651   0.341  0.3274 -0.1216  0.5455
 5998TIP3    H117958   4.867   6.637   0.433  0.2711 -0.6941  0.4741
 5998TIP3    H217959   4.880   6.739   0.322  0.2633  0.0321  1.1286
 5999TIP3   OH217960   3.267   1.455   3.661  0.6207  0.1949  0.3327
 5999TIP3    H117961   3.181   1.493   3.677  0.6785  0.3591  0.2501
 5999TIP3    H217962   3.329   1.519   3.694  0.6992 -0.3715  1.3489
 6000TIP3   OH217963   1.969   3.701   0.493 -0.1801 -0.0979 -0.8692
 6000TIP3    H117964   1.987   3.721   0.585 -0.0306  1.4963 -1.2169
 6000TIP3    H217965   1.932   3.613   0.495  1.7063 -0.9218  0.4986
 6001TIP3   OH217966   1.597   2.829   5.291  0.1712  0.0111  0.4594
 6001TIP3    H117967   1.630   2.789   5.210 -0.6899  0.6109 -0.1993
 6001TIP3    H217968   1.517   2.875   5.265  0.6582  1.4455  1.3563
 6002TIP3   OH217969   7.183   4.834   5.525 -0.5029 -0.0156  0.4626
 6002TIP3    H117970   7.101   4.789   5.504 -0.1574 -0.6473  0.4516
 6002TIP3    H217971   7.156   4.913   5.571 -1.1826  0.4784 -0.7616
 6003TIP3   OH217972   4.825   3.702   5.270  0.1689 -0.4462  0.1724
 6003TIP3    H117973   4.790   3.623   5.311  0.7105 -0.1551  1.2322
 6003TIP3    H217974   4.820   3.769   5.339  0.0016  0.3661 -0.6147
 6004TIP3   OH217975   6.375   1.106   1.824 -0.1157 -0.0051  0.4185
 6004TIP3    H117976   6.456   1.150   1.853  0.1435 -0.7521  0.8650
 6004TIP3    H217977   6.305   1.166   1.849  0.1884 -0.1124  1.6014
 6005TIP3   OH217978   5.376   5.611   2.927 -0.1467 -0.0062 -0.1824
 6005TIP3    H117979   5.411   5.600   3.015  0.2404 -1.0921 -0.4535
 6005TIP3    H217980   5.388   5.525   2.886 -3.1502 -0.4768 -0.2894
 6006TIP3   OH217981   0.522   6.305   2.921  0.3709  0.0049  0.1705
 6006TIP3    H117982   0.448   6.305   2.982  2.1297  0.5383  2.3942
 6006TIP3    H217983   0.547   6.397   2.914  0.3881 -0.0800 -1.1872
 6007TIP3   OH217984   3.451   2.133   1.986 -0.1922  0.4454 -0.2144
 6007TIP3    H117985   3.489   2.184   2.057  0.4422  0.5292 -0.6056
 6007TIP3    H217986   3.387   2.191   1.945  1.1576  1.2883 -1.2278
 6008TIP3   OH217987   6.465   1.201   0.458 -0.2502 -0.3613 -0.1951
 6008TIP3    H117988   6.505   1.237   0.378 -1.4264  1.9017  0.1428
 6008TIP3    H217989   6.405   1.133   0.427  0.4348 -0.5782 -1.0893
 6009TIP3   OH217990   2.115   2.927   0.629  0.6122  0.3219  0.4270
 6009TIP3    H117991   2.049   2.880   0.680  1.8407 -1.8709  0.1539
 6009TIP3    H217992   2.168   2.972   0.694  0.8206 -0.6387  0.9484
 6010TIP3   OH217993   4.994   5.012   3.655 -0.0326 -0.0252  0.5376
 6010TIP3    H117994   4.993   5.064   3.735 -0.5400  1.2126 -0.2582
 6010TIP3    H217995   5.078   4.965   3.658  0.7418  1.3428  0.9605
 6011TIP3   OH217996   2.295   2.093   1.887  0.1209 -0.1214  0.4613
 6011TIP3    H117997   2.215   2.088   1.835 -0.5805  1.5509  1.2940
 6011TIP3    H217998   2.277   2.037   1.963  0.0166 -0.3026  0.3040
 6012TIP3   OH217999   2.527   0.744   0.632 -0.1691 -0.1673 -0.1035
 6012TIP3    H118000   2.590   0.713   0.567  1.3849 -0.3907  1.4085
 6012TIP3    H218001   2.443   0.710   0.602  0.3482  0.3606 -2.3539
 6013TIP3   OH218002   2.417   4.844   1.271 -0.1896  0.5760 -0.1331
 6013TIP3    H118003   2.414   4.827   1.177  1.6586 -1.5326  0.1065
 6013TIP3    H218004   2.510   4.841   1.293 -0.4029  3.1740  1.4614
 6014TIP3   OH218005   2.946   1.058   5.066  0.2905  0.7978 -0.5838
 6014TIP3    H118006   2.977   1.148   5.081  0.7592  0.5830 -0.2372
 6014TIP3    H218007   2.953   1.016   5.152  0.5245  0.2951 -0.8438
 6015TIP3   OH218008   2.881   2.996   4.655 -0.3853  0.3849 -0.0541
 6015TIP3    H118009   2.868   2.955   4.569 -0.3238 -0.2646  0.2407
 6015TIP3    H218010   2.976   2.995   4.668 -0.3869  0.5839 -0.0214
 6016TIP3   OH218011   7.065   1.117   5.022  0.4617 -0.5449 -0.0298
 6016TIP3    H118012   7.090   1.135   5.112  1.8616  1.2224 -0.7072
 6016TIP3    H218013   7.016   1.194   4.994 -1.8122 -1.9401 -0.2257
 6017TIP3   OH218014   5.839   6.791   2.136  0.1180  0.1455 -0.4896
 6017TIP3    H118015   5.883   6.708   2.155  1.1036  0.9940  1.1638
 6017TIP3    H218016   5.787   6.809   2.214 -1.0281  0.5176 -1.3213
 6018TIP3   OH218017   3.033  -0.018   0.902  0.4009 -0.5492  0.0056
 6018TIP3    H118018   2.943   0.012   0.917  0.3439 -0.7871  0.1459
 6018TIP3    H218019   3.073   0.052   0.851  0.0752 -0.5341 -0.2344
 6019TIP3   OH218020   6.900   6.758   3.032  0.1978 -0.6545  0.4614
 6019TIP3    H118021   6.941   6.680   2.995 -0.9625 -1.2531  0.3787
 6019TIP3    H218022   6.808   6.733   3.043 -0.5373  1.2274 -1.0266
 6020TIP3   OH218023   1.866   3.021   4.049  0.0843 -0.4512  0.2993
 6020TIP3    H118024   1.801   2.980   3.991  0.5250 -1.8589  0.7693
 6020TIP3    H218025   1.875   3.110   4.015 -1.3550 -0.5329 -0.3851
 6021TIP3   OH218026   3.906   0.722   4.099  0.1278  0.6921  0.1999
 6021TIP3    H118027   3.816   0.698   4.079  0.3163  0.0130  0.1628
 6021TIP3    H218028   3.902   0.757   4.188 -0.1363  0.4549  0.2830
 6022TIP3   OH218029   5.058   4.862   4.492 -0.1989  0.1628 -0.2209
 6022TIP3    H118030   5.069   4.866   4.587  1.4718  3.0467 -0.3884
 6022TIP3    H218031   5.102   4.942   4.460  0.5879 -1.4077 -3.5264
 6023TIP3   OH218032   4.512   3.277   2.212  0.0024  0.2685  0.4544
 6023TIP3    H118033   4.479   3.207   2.157  1.2658  1.7562 -2.4112
 6023TIP3    H218034   4.468   3.264   2.296 -1.6714 -2.4304 -0.7017
 6024TIP3   OH218035   3.448   1.978   2.264 -1.1172 -0.0142  0.2700
 6024TIP3    H118036   3.499   1.921   2.321  1.2890  1.0546 -0.6605
 6024TIP3    H218037   3.405   1.918   2.203  2.2461 -0.9502 -1.4119
 6025TIP3   OH218038   3.652   2.280   3.838  0.6272 -0.2486 -1.0159
 6025TIP3    H118039   3.724   2.221   3.813  0.4993  0.0000 -2.0449
 6025TIP3    H218040   3.604   2.233   3.906 -1.1689 -2.6778 -3.7264
 6026TIP3   OH218041   5.407   0.306   4.785 -0.1353  0.3524  0.0134
 6026TIP3    H118042   5.478   0.278   4.728 -0.3243 -0.6179  0.2449
 6026TIP3    H218043   5.366   0.379   4.739 -1.2611 -1.3730 -1.8895
 6027TIP3   OH218044   1.357   3.068   4.343  0.2479  0.6061  0.1298
 6027TIP3    H118045   1.439   3.054   4.294  0.9741  1.2110  1.1431
 6027TIP3    H218046   1.358   3.161   4.364 -1.2955  0.8799 -0.8459
 6028TIP3   OH218047   3.785   4.543   0.074  0.7715  0.0185  0.2779
 6028TIP3    H118048   3.833   4.627   0.073  0.4028  0.2313  0.4921
 6028TIP3    H218049   3.801   4.507   0.161  0.7622 -0.0390  0.2560
 6029TIP3   OH218050   2.947   4.139   1.339  0.3197  0.0794  0.5025
 6029TIP3    H118051   2.913   4.225   1.366 -0.1645  0.5535 -1.4315
 6029TIP3    H218052   2.877   4.102   1.285  1.3219 -0.6509 -0.3400
 6030TIP3   OH218053   1.734   4.122   5.078  0.7380 -0.2096  0.0884
 6030TIP3    H118054   1.821   4.125   5.040  0.2385 -2.5193 -1.4560
 6030TIP3    H218055   1.746   4.078   5.162  1.1181 -0.1563  0.0610
 6031TIP3   OH218056   5.717   5.305   3.846  0.3070  0.4791  0.3501
 6031TIP3    H118057   5.693   5.382   3.897  1.8148  1.3485 -0.1986
 6031TIP3    H218058   5.791   5.333   3.792  0.7975 -1.3057  0.0098
 6032TIP3   OH218059   5.445   5.272   1.983 -0.1629 -0.4640  0.1239
 6032TIP3    H118060   5.466   5.350   2.035 -0.9673 -1.5184  2.1367
 6032TIP3    H218061   5.359   5.244   2.015 -0.5928 -1.3243 -1.6433
 6033TIP3   OH218062   1.978   4.082   0.341  0.0037 -0.0641  0.1070
 6033TIP3    H118063   2.015   4.084   0.430  0.1717  0.1243  0.0323
 6033TIP3    H218064   1.893   4.039   0.352 -0.3458  0.7125  0.4956
 6034TIP3   OH218065   6.785   0.364   1.483  0.1100 -0.2451  0.1217
 6034TIP3    H118066   6.706   0.321   1.515 -0.7640  1.6607  0.6236
 6034TIP3    H218067   6.755   0.445   1.442  1.7063  0.0040 -0.6569
 6035TIP3   OH218068   1.595   2.057   1.662  0.2958 -0.3714 -0.3504
 6035TIP3    H118069   1.536   1.982   1.653  0.1682 -0.3412  0.2376
 6035TIP3    H218070   1.659   2.045   1.591  1.2278 -1.8945  0.6925
 6036TIP3   OH218071   3.031   4.098   0.349 -0.2881  0.0940 -0.1534
 6036TIP3    H118072   2.987   4.101   0.434  0.3371  0.5464  0.1679
 6036TIP3    H218073   3.122   4.076   0.370 -0.2835 -0.4972 -0.7728
 6037TIP3   OH218074   0.044   0.822   2.911  0.1949  0.1857  0.6241
 6037TIP3    H118075  -0.040   0.864   2.890  0.2718  0.7088  1.3275
 6037TIP3    H218076   0.041   0.810   3.006  0.3738 -0.9950  0.4915
 6038TIP3   OH218077   3.679   3.136   0.400  0.5044 -0.3377  0.1831
 6038TIP3    H118078   3.624   3.107   0.473  0.5504 -0.5382  0.1402
 6038TIP3    H218079   3.748   3.070   0.395 -0.4782 -1.2998 -1.1532
 6039TIP3   OH218080   5.068   0.266   5.204  0.0533 -0.3019 -0.5535
 6039TIP3    H118081   5.020   0.299   5.280  0.6045 -2.0831  0.6172
 6039TIP3    H218082   5.023   0.306   5.129 -0.3560  1.7019  0.6637
 6040TIP3   OH218083   6.129   4.554   2.833 -0.0217  0.3315 -0.3542
 6040TIP3    H118084   6.216   4.541   2.796  0.5216 -1.1644  1.2854
 6040TIP3    H218085   6.069   4.544   2.758  1.1077 -0.8120 -1.1458
 6041TIP3   OH218086   1.781   0.633   0.295 -0.2571 -0.1329 -0.3706
 6041TIP3    H118087   1.732   0.705   0.256  1.0343  0.7974 -0.3801
 6041TIP3    H218088   1.778   0.563   0.231 -0.2743  0.4755 -1.0481
 6042TIP3   OH218089   0.193   1.486   0.782 -0.0500  0.2048  0.3612
 6042TIP3    H118090   0.197   1.511   0.874  1.9521 -2.1613  1.0179
 6042TIP3    H218091   0.198   1.391   0.782  1.6811  0.1858 -2.2086
 6043TIP3   OH218092   5.952   3.002   5.320 -0.0581  0.3671 -0.4409
 6043TIP3    H118093   6.019   3.071   5.319 -0.6688  0.9751 -1.4386
 6043TIP3    H218094   5.873   3.046   5.289 -0.5876 -0.6749 -0.5910
 6044TIP3   OH218095   0.944   1.517   5.834  0.2722 -0.7927 -0.2163
 6044TIP3    H118096   0.859   1.527   5.791  0.0643 -0.8975  0.1671
 6044TIP3    H218097   0.997   1.468   5.771  0.2981 -0.0487 -0.7858
 6045TIP3   OH218098   5.937   0.385   0.465  0.4152  0.3361 -0.3735
 6045TIP3    H118099   5.931   0.480   0.462  0.8498  0.3481 -0.9413
 6045TIP3    H218100   5.852   0.357   0.499  0.2270  0.9159 -0.3596
 6046TIP3   OH218101   2.717   3.344   4.821 -0.5841 -0.5214 -0.0175
 6046TIP3    H118102   2.702   3.334   4.915  1.8035  0.9732  0.6149
 6046TIP3    H218103   2.681   3.430   4.800  0.9223  0.1593  0.0777
 6047TIP3   OH218104   4.508   3.361   0.977  1.0545 -0.0528 -0.4663
 6047TIP3    H118105   4.514   3.403   1.062 -0.7128 -1.0801  0.2056
 6047TIP3    H218106   4.442   3.411   0.929  3.1062  1.4692 -1.8723
 6048TIP3   OH218107   3.990   2.434   0.895  0.0062 -0.0251  0.4614
 6048TIP3    H118108   4.018   2.448   0.804 -1.6648  0.6369  0.0161
 6048TIP3    H218109   4.004   2.341   0.910 -1.1281 -0.4674 -1.0039
 6049TIP3   OH218110   3.207   6.643   0.696 -0.0901  0.0202 -0.2046
 6049TIP3    H118111   3.227   6.549   0.689 -0.7540 -0.1936  0.6204
 6049TIP3    H218112   3.279   6.679   0.748  0.0210 -0.0807 -0.2875
 6050TIP3   OH218113   4.191   2.297   1.264  0.3202 -0.1419  0.4709
 6050TIP3    H118114   4.213   2.315   1.355 -0.9239 -0.4453  0.8555
 6050TIP3    H218115   4.107   2.252   1.268 -0.6393  1.3885 -0.8906
 6051TIP3   OH218116   3.484   6.497   4.576  0.2899 -0.6202  0.0306
 6051TIP3    H118117   3.523   6.454   4.652  1.6981  2.2210  1.0380
 6051TIP3    H218118   3.390   6.498   4.595  0.6791  0.8419  2.2641
 6052TIP3   OH218119   0.738   0.003   5.709  0.2380 -0.1730  0.0399
 6052TIP3    H118120   0.813   0.061   5.725  0.5633 -0.6211  0.1616
 6052TIP3    H218121   0.687   0.006   5.790  1.1786 -1.4053  0.7068
 6053TIP3   OH218122   2.216   2.741   0.935 -0.2724 -0.4014  0.0307
 6053TIP3    H118123   2.127   2.768   0.913  0.3045  0.2700 -1.7201
 6053TIP3    H218124   2.233   2.666   0.877  0.8438  0.5468 -0.9389
 6054TIP3   OH218125   5.664   2.232   4.502  0.4628 -0.4463  0.5443
 6054TIP3    H118126   5.584   2.274   4.535  0.5196  1.0952 -1.1129
 6054TIP3    H218127   5.732   2.258   4.564  0.3494  1.4291 -0.0537
 6055TIP3   OH218128   5.016   1.839   1.634 -0.0151 -0.1179  0.2414
 6055TIP3    H118129   5.007   1.745   1.614  0.1512 -0.0434 -0.1962
 6055TIP3    H218130   5.031   1.880   1.549 -1.0773  0.4404  0.3098
 6056TIP3   OH218131   5.683   2.357   3.375  0.5163 -0.3890  0.1139
 6056TIP3    H118132   5.599   2.387   3.340  0.5842  0.7781  0.8937
 6056TIP3    H218133   5.742   2.355   3.300  0.5052  1.4972  0.0165
 6057TIP3   OH218134   7.089   6.425   2.532  0.2027  0.0696 -0.1361
 6057TIP3    H118135   7.057   6.510   2.562 -0.5841 -0.0714 -0.5405
 6057TIP3    H218136   7.151   6.445   2.462  0.2186  0.3169 -0.0509
 6058TIP3   OH218137   5.938   3.842   1.418  0.1040  0.0271 -0.5915
 6058TIP3    H118138   5.886   3.849   1.337 -0.0533 -1.3999 -0.6413
 6058TIP3    H218139   6.018   3.796   1.391  0.2829  0.0058 -0.0360
 6059TIP3   OH218140   3.063   2.598   2.442  0.1603  0.0304  0.4011
 6059TIP3    H118141   3.095   2.608   2.353 -0.1794 -0.3417  0.2323
 6059TIP3    H218142   3.007   2.674   2.457 -1.0862 -0.7262 -0.2836
 6060TIP3   OH218143   0.360   1.855   0.932  0.2879  0.1269 -0.4381
 6060TIP3    H118144   0.313   1.925   0.976  1.2662  1.0096 -0.7703
 6060TIP3    H218145   0.409   1.811   1.001  0.0722  0.0940 -0.3064
 6061TIP3   OH218146   1.734   4.956   4.378 -0.5454  0.0354 -0.4229
 6061TIP3    H118147   1.793   4.989   4.310 -1.0358 -1.1673 -1.4610
 6061TIP3    H218148   1.759   4.865   4.390 -0.6349  0.1672  0.8518
 6062TIP3   OH218149   4.093   2.850   1.777 -0.6961 -0.0192 -0.0439
 6062TIP3    H118150   4.135   2.797   1.710 -0.8579 -0.0366 -0.1316
 6062TIP3    H218151   4.024   2.898   1.731 -0.7446  0.0435  0.0906
 6063TIP3   OH218152   5.340   0.839   0.157 -0.3193 -0.0634  0.4238
 6063TIP3    H118153   5.248   0.817   0.143 -0.1772 -0.1169 -0.4841
 6063TIP3    H218154   5.352   0.834   0.252 -1.5192  0.9807  0.6669
 6064TIP3   OH218155   7.170   1.955   5.209  0.0059  0.2617 -0.1698
 6064TIP3    H118156   7.248   1.972   5.157  0.1872  0.5857  0.2069
 6064TIP3    H218157   7.198   1.965   5.299 -0.8698  2.1104 -0.0634
 6065TIP3   OH218158   2.807   2.772   2.645  0.0044  0.6829 -0.7315
 6065TIP3    H118159   2.743   2.823   2.695 -0.2612 -0.5556  0.2463
 6065TIP3    H218160   2.766   2.686   2.634  1.0650  0.1968 -1.0196
 6066TIP3   OH218161   5.822   3.528   1.384  0.1039 -0.3652  0.4795
 6066TIP3    H118162   5.852   3.502   1.471  0.8875 -3.0653 -0.4865
 6066TIP3    H218163   5.901   3.551   1.336 -0.3964  1.9313  0.6609
 6067TIP3   OH218164   0.028   6.257   0.972 -0.5231 -0.0628  0.2703
 6067TIP3    H118165   0.009   6.340   1.015  0.0783  0.5583 -0.6261
 6067TIP3    H218166   0.093   6.214   1.029 -1.2921 -0.2206  1.0561
 6068TIP3   OH218167   4.184   4.336   3.459  0.0847 -0.3137 -0.3871
 6068TIP3    H118168   4.248   4.319   3.390  0.6793 -1.2066  0.3453
 6068TIP3    H218169   4.229   4.310   3.539 -1.2607 -1.1360  0.1308
 6069TIP3   OH218170   1.565   3.602   5.852  0.2976  0.3705 -0.1223
 6069TIP3    H118171   1.495   3.655   5.812  0.7384  0.7550 -0.3932
 6069TIP3    H218172   1.560   3.622   5.945  0.6069  1.0748 -0.2492
 6070TIP3   OH218173   2.317   1.095   4.389 -0.2832  0.4201 -0.2497
 6070TIP3    H118174   2.408   1.122   4.379  0.0271 -0.2613  0.5903
 6070TIP3    H218175   2.321   1.001   4.409 -1.1901  0.2966 -0.5678
 6071TIP3   OH218176   5.039   6.701   5.206 -0.5319  0.2525 -0.1918
 6071TIP3    H118177   5.114   6.707   5.265 -1.7550 -1.6013  1.6829
 6071TIP3    H218178   4.996   6.786   5.214 -0.7117  0.0251  1.7021
 6072TIP3   OH218179   4.477   4.997   5.217 -0.7525 -0.2877  0.3538
 6072TIP3    H118180   4.457   5.070   5.276 -3.1116 -0.1488 -0.5123
 6072TIP3    H218181   4.504   5.040   5.135 -0.7618 -0.4005  0.2920
 6073TIP3   OH218182   1.695   4.732   0.115  0.4144 -0.2780  0.2002
 6073TIP3    H118183   1.608   4.698   0.096  0.7581 -0.1270 -1.9817
 6073TIP3    H218184   1.754   4.658   0.095  0.8722  0.0930  0.1609
 6074TIP3   OH218185   3.238   1.063   2.732 -0.4346 -0.0881  0.4431
 6074TIP3    H118186   3.314   1.025   2.688 -0.9871 -0.4976 -0.1890
 6074TIP3    H218187   3.258   1.057   2.825 -0.3483 -1.6554  0.3511
 6075TIP3   OH218188   1.044   6.398   2.170 -1.0131  0.6970 -0.0689
 6075TIP3    H118189   1.015   6.361   2.253  1.2388 -0.2430  0.3810
 6075TIP3    H218190   1.008   6.486   2.168 -0.6283  0.9562  2.2079
 6076TIP3   OH218191   1.475   4.671   4.479 -0.2315 -0.0946 -0.5239
 6076TIP3    H118192   1.385   4.706   4.485 -0.1473  0.0403  0.0314
 6076TIP3    H218193   1.508   4.676   4.569  0.8404  1.2163 -0.9465
 6077TIP3   OH218194   1.891   4.879   0.609 -0.1906 -0.2192  0.5458
 6077TIP3    H118195   1.844   4.880   0.692  1.6992 -1.5959  1.7296
 6077TIP3    H218196   1.957   4.948   0.618 -0.4440  0.1157 -0.1245
 6078TIP3   OH218197   4.223   4.044   0.820 -0.2837  0.0915  0.0374
 6078TIP3    H118198   4.259   3.960   0.848  2.8650  0.5999 -2.0552
 6078TIP3    H218199   4.199   4.088   0.901  0.7549 -1.6522  1.3668
 6079TIP3   OH218200   6.036   3.583   3.790 -0.1151  0.3172 -0.3395
 6079TIP3    H118201   6.054   3.550   3.702 -0.6619 -1.5028  0.1988
 6079TIP3    H218202   5.941   3.597   3.791  0.0421  1.5717 -0.4085
 6080TIP3   OH218203   4.521   4.872   3.815 -0.1235  0.0366 -0.2054
 6080TIP3    H118204   4.514   4.912   3.728  2.0208 -0.5270 -0.6952
 6080TIP3    H218205   4.484   4.938   3.874 -0.7269  0.8464 -1.4233
 6081TIP3   OH218206   6.336   4.015   1.036 -0.0968  0.3124 -0.0274
 6081TIP3    H118207   6.369   4.000   1.124 -3.3559 -0.3169  1.2337
 6081TIP3    H218208   6.330   3.928   0.997  0.4250  0.4946 -0.5289
 6082TIP3   OH218209   3.910   5.995   4.969 -0.3214 -0.3773 -0.2675
 6082TIP3    H118210   3.869   6.045   5.040  1.2036  0.7285 -0.1063
 6082TIP3    H218211   3.898   5.904   4.995  1.1827 -0.0143  2.0968
 6083TIP3   OH218212   5.218   0.553   2.572 -0.0261  0.5606 -0.3733
 6083TIP3    H118213   5.213   0.487   2.503 -0.6957  0.5438 -0.3162
 6083TIP3    H218214   5.242   0.634   2.527  0.0130  0.4463 -0.5561
 6084TIP3   OH218215   5.167   6.352   2.196 -0.4455  0.5235 -0.2944
 6084TIP3    H118216   5.074   6.338   2.212 -0.3434 -0.0223 -0.1572
 6084TIP3    H218217   5.173   6.369   2.102 -0.6033 -0.1273 -0.4226
 6085TIP3   OH218218   5.742   1.770   4.878  0.6298 -0.8741  0.2291
 6085TIP3    H118219   5.822   1.820   4.859  0.6967 -0.7355  0.8473
 6085TIP3    H218220   5.729   1.714   4.801  2.3094 -2.1903  0.8473
 6086TIP3   OH218221   3.577   5.315   4.270  0.3723 -0.4651 -0.6081
 6086TIP3    H118222   3.605   5.250   4.334  1.6441 -0.0486 -0.7175
 6086TIP3    H218223   3.483   5.325   4.286  0.5255 -0.9004  0.7084
 6087TIP3   OH218224   4.974   3.831   0.084 -0.1911  1.1282  0.3233
 6087TIP3    H118225   4.931   3.750   0.111  0.7149  0.7614  0.6614
 6087TIP3    H218226   4.943   3.896   0.147 -0.6288  0.9741  0.2738
 6088TIP3   OH218227   0.478   1.567   1.757  0.2141 -0.2520 -0.2272
 6088TIP3    H118228   0.542   1.524   1.700  0.6119 -1.6518  1.2079
 6088TIP3    H218229   0.530   1.599   1.831 -0.5820 -0.4580  0.4374
 6089TIP3   OH218230   0.945   2.954   5.424 -0.6822 -0.3044 -0.1988
 6089TIP3    H118231   0.968   2.979   5.334  0.1048  0.8514  0.2963
 6089TIP3    H218232   0.882   3.021   5.451  0.9515  0.8476  0.9261
 6090TIP3   OH218233   1.995   3.837   4.497 -0.0310  0.1454 -0.2980
 6090TIP3    H118234   2.046   3.855   4.576 -0.7946 -0.8524  0.4483
 6090TIP3    H218235   1.906   3.821   4.529  0.0030 -1.9928 -1.1462
 6091TIP3   OH218236   4.824   5.808   1.497 -0.3946 -0.2553 -0.2880
 6091TIP3    H118237   4.859   5.890   1.461 -1.3447 -0.2913 -1.3508
 6091TIP3    H218238   4.883   5.787   1.570 -0.4261  1.6323  0.3383
 6092TIP3   OH218239   4.608   4.456   2.065 -0.4815  0.1475  0.7584
 6092TIP3    H118240   4.573   4.367   2.069 -0.0565 -0.0627  0.0874
 6092TIP3    H218241   4.689   4.447   2.014 -0.5545  0.9514  0.4937
 6093TIP3   OH218242   4.793   5.002   4.271  0.2613  0.0269 -0.1102
 6093TIP3    H118243   4.718   4.943   4.283  0.4658  0.2039  2.8441
 6093TIP3    H218244   4.858   4.949   4.226 -1.1379 -0.5384 -1.5637
 6094TIP3   OH218245   4.510   2.895   5.498  0.2817 -0.0729  0.4082
 6094TIP3    H118246   4.580   2.955   5.472  0.8890 -0.6446  0.6705
 6094TIP3    H218247   4.430   2.934   5.464  0.6602  0.8910  0.6000
 6095TIP3   OH218248   6.369   0.227   3.616 -0.0555  0.0620  0.1890
 6095TIP3    H118249   6.337   0.302   3.566  0.5698  1.0146  1.1732
 6095TIP3    H218250   6.328   0.151   3.575 -1.2626  0.9972 -0.3859
 6096TIP3   OH218251   1.610   0.573   5.557  0.4961 -0.3530  0.3531
 6096TIP3    H118252   1.650   0.527   5.631 -0.3520 -0.8446  0.5144
 6096TIP3    H218253   1.607   0.664   5.584  1.1411 -0.3664  0.4976
 6097TIP3   OH218254   6.108   2.876   2.217 -0.0102  0.2631  0.1796
 6097TIP3    H118255   6.177   2.904   2.156  0.5028  0.2777  0.7579
 6097TIP3    H218256   6.044   2.947   2.214 -0.1789  0.0925 -0.6195
 6098TIP3   OH218257   5.995   5.988   5.345 -0.2640 -0.0458 -0.5399
 6098TIP3    H118258   5.969   5.958   5.432  0.8999  0.6419  0.0726
 6098TIP3    H218259   5.988   6.084   5.350  1.2177  0.1036 -0.6923
 6099TIP3   OH218260   3.953   5.629   0.881 -0.1982  0.2045  0.2288
 6099TIP3    H118261   3.946   5.535   0.862 -0.3779  0.2056  0.2857
 6099TIP3    H218262   3.863   5.657   0.895 -0.2286  0.5634 -0.6348
 6100TIP3   OH218263   2.673   3.906   3.085  0.6371 -0.0385  0.3155
 6100TIP3    H118264   2.618   3.876   3.158 -0.4493  2.4202  0.6241
 6100TIP3    H218265   2.611   3.926   3.015  1.6540 -2.1851 -1.3000
 6101TIP3   OH218266   3.697   1.006   4.178 -0.0830 -0.1640 -0.0898
 6101TIP3    H118267   3.740   1.005   4.092  1.3937 -2.4081  0.6035
 6101TIP3    H218268   3.745   1.074   4.227  1.0951 -0.9453 -0.1134
 6102TIP3   OH218269   5.147   2.993   0.040  0.2527 -0.1391 -0.3412
 6102TIP3    H118270   5.059   3.030   0.045  0.5300  0.6639 -1.1024
 6102TIP3    H218271   5.138   2.905   0.076 -0.9445 -0.2201 -0.7880
 6103TIP3   OH218272   4.286   4.098   2.333  0.4197  0.0229 -0.5941
 6103TIP3    H118273   4.342   4.029   2.298  1.2617 -0.5627  1.7445
 6103TIP3    H218274   4.230   4.055   2.397  1.2849  1.5174  1.2593
 6104TIP3   OH218275   6.093   3.917   5.829  0.4527 -0.0426 -0.1056
 6104TIP3    H118276   6.175   3.871   5.847  1.3996  1.2030 -1.0599
 6104TIP3    H218277   6.098   3.996   5.883 -1.1146 -0.9541  1.4572
 6105TIP3   OH218278   4.192   1.268   3.147  0.3697 -0.0876 -0.0203
 6105TIP3    H118279   4.243   1.237   3.072  1.2689  0.8242  0.2006
 6105TIP3    H218280   4.250   1.253   3.223 -0.5138 -0.9701  0.5107
 6106TIP3   OH218281   0.235   1.161   3.408 -0.1239  0.1764 -0.5322
 6106TIP3    H118282   0.223   1.166   3.502  0.2000  0.6994 -0.5167
 6106TIP3    H218283   0.283   1.240   3.385 -0.9547  0.4910 -1.2602
 6107TIP3   OH218284   4.702   5.867   4.902  0.5231  0.0222  0.4729
 6107TIP3    H118285   4.682   5.774   4.904  0.8602 -0.0479  1.9435
 6107TIP3    H218286   4.790   5.873   4.940  1.3992  0.7540 -1.5375
 6108TIP3   OH218287   5.965   4.802   1.034  0.1000 -0.0303 -0.3469
 6108TIP3    H118288   5.951   4.761   1.120  0.3197  0.9270  0.1643
 6108TIP3    H218289   6.060   4.808   1.026  0.0736  0.4118 -0.3824
 6109TIP3   OH218290   3.404   0.258   4.241 -0.3361  0.2436 -0.4196
 6109TIP3    H118291   3.371   0.305   4.165  0.1161 -1.5266 -1.7904
 6109TIP3    H218292   3.499   0.261   4.232 -0.2934 -0.7773 -0.4786
 6110TIP3   OH218293   2.923   2.634   0.394  0.3880  0.3722  0.1454
 6110TIP3    H118294   2.836   2.647   0.431 -1.0022 -1.2249 -2.2974
 6110TIP3    H218295   2.921   2.681   0.311  0.9703 -1.5673 -1.0345
 6111TIP3   OH218296   7.042   2.119   4.804 -0.1498  0.1448  0.4489
 6111TIP3    H118297   7.129   2.124   4.845  0.1363 -1.0609  0.0309
 6111TIP3    H218298   7.037   2.198   4.750  0.2643  0.7479  1.2803
 6112TIP3   OH218299   2.373   6.288   4.066  0.3879 -0.0664 -0.2418
 6112TIP3    H118300   2.370   6.384   4.055  1.6422  0.1228  0.7869
 6112TIP3    H218301   2.313   6.270   4.138  1.4455  0.1867  0.7400
 6113TIP3   OH218302   4.091   0.974   3.080  0.0988  0.1522 -0.0743
 6113TIP3    H118303   4.005   0.948   3.113 -0.2376  0.3702 -0.7491
 6113TIP3    H218304   4.110   1.056   3.126  0.1074 -0.0773  0.3370
 6114TIP3   OH218305   3.127   6.015   3.388  0.1288  0.0858 -0.2026
 6114TIP3    H118306   3.060   5.949   3.371  1.7888 -1.4196 -1.4461
 6114TIP3    H218307   3.155   5.998   3.478 -0.0261 -0.3922 -0.2403
 6115TIP3   OH218308   0.285   2.699   4.885 -0.1627 -0.4149 -0.2727
 6115TIP3    H118309   0.292   2.632   4.953  0.9975 -0.8609 -0.8049
 6115TIP3    H218310   0.259   2.651   4.806 -0.9037  0.0112 -0.2984
 6116TIP3   OH218311   4.686   5.928   4.413  0.1938 -0.0148 -0.2066
 6116TIP3    H118312   4.723   5.972   4.489 -1.3297 -0.0677  0.6098
 6116TIP3    H218313   4.648   5.847   4.447  1.9074 -1.4409 -1.4966
 6117TIP3   OH218314   5.278   3.978   5.776  0.1599  0.8772 -0.0497
 6117TIP3    H118315   5.295   3.981   5.870 -1.4487  2.9537  0.2549
 6117TIP3    H218316   5.295   4.067   5.746 -2.2122  1.0404 -1.1115
 6118TIP3   OH218317   1.640   1.214   5.797 -0.5882 -0.6203  0.2491
 6118TIP3    H118318   1.598   1.293   5.832 -0.4622 -1.3485  2.1640
 6118TIP3    H218319   1.734   1.235   5.796 -0.6550 -0.3337 -0.4007
 6119TIP3   OH218320   1.497   2.304   4.475  0.3442  0.9858  0.1434
 6119TIP3    H118321   1.435   2.319   4.404  0.8504  0.9082 -0.3276
 6119TIP3    H218322   1.443   2.283   4.551 -0.2013  0.9713 -0.2446
 6120TIP3   OH218323   1.227   1.542   5.431  0.3782  0.1843 -0.0303
 6120TIP3    H118324   1.137   1.559   5.460  0.4447  0.7731 -0.1622
 6120TIP3    H218325   1.249   1.457   5.470 -0.5251 -0.3574 -0.6744
 6121TIP3   OH218326   4.049   5.767   4.163  0.1231 -0.4048 -0.5374
 6121TIP3    H118327   4.096   5.850   4.168  2.1029 -1.4996  0.3061
 6121TIP3    H218328   3.993   5.766   4.240  0.9880 -0.3350  0.1092
 6122TIP3   OH218329   4.315   6.685   1.689 -0.6725 -0.6626  0.3158
 6122TIP3    H118330   4.387   6.742   1.715 -1.4523  0.3672  0.2856
 6122TIP3    H218331   4.355   6.600   1.675  0.7687  0.2063 -1.0372
 6123TIP3   OH218332   4.291   4.942   1.206 -0.3476 -0.2647 -0.1638
 6123TIP3    H118333   4.372   4.947   1.258 -0.8656  1.2640  0.5409
 6123TIP3    H218334   4.276   4.848   1.196  1.0877 -0.5818  0.3784
 6124TIP3   OH218335   0.178   3.555   5.328 -0.3976  0.0084 -0.3824
 6124TIP3    H118336   0.118   3.597   5.390 -0.0749 -0.6550  0.3935
 6124TIP3    H218337   0.260   3.602   5.340 -1.0697  1.9244 -2.5002
 6125TIP3   OH218338   6.524   1.043   3.402 -0.1110 -0.1338 -0.0179
 6125TIP3    H118339   6.496   1.049   3.494  1.0316  0.5875  0.2975
 6125TIP3    H218340   6.551   1.132   3.379  2.7671 -0.9130 -0.0033
 6126TIP3   OH218341   5.262   3.031   5.466 -0.1633 -0.4102 -0.0401
 6126TIP3    H118342   5.315   3.045   5.545 -0.7848 -1.1264  0.5143
 6126TIP3    H218343   5.274   3.111   5.415 -0.1357  0.2742  1.0079
 6127TIP3   OH218344   3.438   1.355   3.105 -0.5944  0.3856 -0.1872
 6127TIP3    H118345   3.437   1.450   3.100  1.9530  0.5131  0.4416
 6127TIP3    H218346   3.506   1.328   3.043 -0.2002 -0.8971  0.7485
 6128TIP3   OH218347   4.612   0.211   0.480  0.5276 -0.2695  0.0815
 6128TIP3    H118348   4.665   0.252   0.411 -0.2769 -1.3320 -1.2172
 6128TIP3    H218349   4.571   0.284   0.526  1.2382  0.4706 -0.4315
 6129TIP3   OH218350   5.913   0.381   5.669  0.5711 -0.1797  0.2506
 6129TIP3    H118351   5.888   0.381   5.761  1.6248 -0.6515  0.5535
 6129TIP3    H218352   5.873   0.459   5.633  2.2011  1.4258  1.6999
 6130TIP3   OH218353   1.638   2.858   5.784 -0.3742 -0.2006 -0.2212
 6130TIP3    H118354   1.586   2.909   5.722  0.4108 -0.8244 -1.4451
 6130TIP3    H218355   1.616   2.767   5.766  0.1513 -0.4088  0.1407
 6131TIP3   OH218356   3.613   4.279   5.247  0.0577  0.3322 -0.3066
 6131TIP3    H118357   3.582   4.364   5.215 -1.1407 -0.3111 -0.8729
 6131TIP3    H218358   3.596   4.282   5.341 -2.5631 -0.3178 -0.7036
 6132TIP3   OH218359   4.863   0.486   2.495 -0.6134 -0.2776  0.0157
 6132TIP3    H118360   4.954   0.456   2.484 -0.7873 -0.7770 -0.0634
 6132TIP3    H218361   4.831   0.499   2.406 -0.8651 -0.8410  0.0221
 6133TIP3   OH218362   2.436   6.391   4.427  0.2910 -0.4929 -0.3822
 6133TIP3    H118363   2.427   6.410   4.334  0.4255 -3.1107 -0.9938
 6133TIP3    H218364   2.347   6.371   4.456  0.3853 -0.5826 -0.1579
 6134TIP3   OH218365   5.716   1.601   1.204 -0.1880 -0.0817  0.0419
 6134TIP3    H118366   5.678   1.595   1.117  0.7311  0.1028 -0.3835
 6134TIP3    H218367   5.667   1.671   1.247 -1.0926 -0.6279 -0.0847
 6135TIP3   OH218368   1.805   4.128   2.992  0.0504 -0.1268 -0.0901
 6135TIP3    H118369   1.720   4.106   3.029  0.7547 -1.1552  1.0108
 6135TIP3    H218370   1.787   4.151   2.901 -1.3742 -0.4478  0.0885
 6136TIP3   OH218371   7.204   0.361   0.642  0.5530  0.6352 -0.3326
 6136TIP3    H118372   7.167   0.342   0.556 -0.8468  1.8852 -0.0551
 6136TIP3    H218373   7.138   0.415   0.685  1.0154 -0.3223  1.7103
 6137TIP3   OH218374   3.374   2.877   2.418 -0.3359 -0.5369  0.1924
 6137TIP3    H118375   3.396   2.969   2.432  1.1421 -0.9420  0.7028
 6137TIP3    H218376   3.421   2.853   2.338 -2.1516 -0.4103 -0.9652
 6138TIP3   OH218377   5.809   3.523   4.117 -0.3469  0.2975 -0.4621
 6138TIP3    H118378   5.874   3.593   4.116  0.1353 -0.1414 -1.1715
 6138TIP3    H218379   5.764   3.531   4.033 -0.4343 -0.1027 -0.4578
 6139TIP3   OH218380   0.967   4.926   5.731  0.1587  0.4093 -0.3629
 6139TIP3    H118381   0.905   4.991   5.764  0.2140  0.7965 -1.0056
 6139TIP3    H218382   0.926   4.891   5.652 -0.1785 -0.8357  0.3410
 6140TIP3   OH218383   0.496   1.628   0.243  0.1300  0.5888  0.0379
 6140TIP3    H118384   0.431   1.662   0.181  0.3273 -1.2794 -1.3036
 6140TIP3    H218385   0.575   1.679   0.225  0.0664  0.3496 -1.0120
 6141TIP3   OH218386   2.636   1.140   3.497  0.3795  0.2199  0.2275
 6141TIP3    H118387   2.628   1.126   3.403 -0.0512 -0.7203  0.3920
 6141TIP3    H218388   2.729   1.124   3.516  0.7444  1.6233 -0.2008
 6142TIP3   OH218389   4.593   2.081   5.897 -0.0732  0.1260  0.3360
 6142TIP3    H118390   4.609   2.125   5.813 -0.3249  1.9040  1.1892
 6142TIP3    H218391   4.544   2.002   5.873  0.5658  0.1734 -1.2602
 6143TIP3   OH218392   3.699   0.727   2.434  0.5876 -0.2857 -0.2220
 6143TIP3    H118393   3.657   0.641   2.434 -0.2049  0.0434 -2.6366
 6143TIP3    H218394   3.792   0.708   2.452  0.1864 -1.4564  0.7893
 6144TIP3   OH218395   1.083   3.214   1.178  0.0153  0.3930  0.2809
 6144TIP3    H118396   1.044   3.284   1.231 -0.3064 -0.4601  1.2016
 6144TIP3    H218397   1.093   3.141   1.239 -0.5188 -0.6814 -0.8788
 6145TIP3   OH218398   6.698   0.022   4.463  0.2846 -0.0641 -0.5306
 6145TIP3    H118399   6.734   0.063   4.384 -0.5593 -1.4467 -1.6902
 6145TIP3    H218400   6.603   0.026   4.451  0.1638 -0.9062  0.0811
 6146TIP3   OH218401   5.041   4.622   1.208  0.0411 -0.6300  0.3990
 6146TIP3    H118402   5.079   4.604   1.122  1.5642  1.0176  0.6685
 6146TIP3    H218403   5.090   4.566   1.268  0.2873 -0.3875  0.4256
 6147TIP3   OH218404   1.117   5.512   4.003 -0.2114  0.2656 -0.2925
 6147TIP3    H118405   1.075   5.499   3.919  1.7051  2.2233 -1.6797
 6147TIP3    H218406   1.096   5.603   4.027 -0.3659 -0.1137  1.1324
 6148TIP3   OH218407   4.749   3.348   5.660 -0.6113 -0.1162 -0.4710
 6148TIP3    H118408   4.790   3.375   5.578 -2.1420 -1.3727 -1.7505
 6148TIP3    H218409   4.664   3.392   5.659 -0.1315  0.9096  1.1447
 6149TIP3   OH218410   0.862   0.502   4.912  1.0142 -0.3731  0.1156
 6149TIP3    H118411   0.856   0.477   5.004 -1.5466 -0.2732  0.0649
 6149TIP3    H218412   0.889   0.594   4.914  1.1060 -0.4129  0.7634
 6150TIP3   OH218413   2.425   4.023   2.994 -0.2285 -0.0726 -0.6372
 6150TIP3    H118414   2.379   3.953   2.948 -0.3815 -0.4784  0.1168
 6150TIP3    H218415   2.375   4.035   3.075  0.2652  0.3533 -0.3904
 6151TIP3   OH218416   2.203   3.134   0.819  0.2557  0.3780 -0.1242
 6151TIP3    H118417   2.117   3.161   0.786  0.8879  0.4352 -1.8525
 6151TIP3    H218418   2.185   3.096   0.905 -1.3787  1.1423 -0.0899
 6152TIP3   OH218419   4.469   4.211   3.615  0.3597  0.1691 -0.2302
 6152TIP3    H118420   4.564   4.211   3.615  0.3955  1.8133 -0.4118
 6152TIP3    H218421   4.444   4.132   3.567  1.6303 -0.0789 -0.4987
 6153TIP3   OH218422   0.547   5.087   0.786  0.2146  0.2686  0.3414
 6153TIP3    H118423   0.564   5.011   0.729  1.1633  0.2580  0.6148
 6153TIP3    H218424   0.497   5.051   0.859  1.8690 -0.4170  1.1921
 6154TIP3   OH218425   4.357   1.182   1.835 -0.0623 -0.4027  0.0798
 6154TIP3    H118426   4.324   1.093   1.822  1.4012 -0.8841 -0.5817
 6154TIP3    H218427   4.450   1.170   1.856  0.3044  1.0106 -0.6237
 6155TIP3   OH218428   0.638   2.968   2.392  0.2385  0.6359  0.3719
 6155TIP3    H118429   0.731   2.969   2.369  0.0691 -1.7727 -0.7463
 6155TIP3    H218430   0.610   3.059   2.381  1.8752  0.9658 -2.0231
 6156TIP3   OH218431   1.807   1.751   2.860 -0.1732 -0.4681 -0.4680
 6156TIP3    H118432   1.792   1.758   2.954  1.7834 -0.2256 -0.1382
 6156TIP3    H218433   1.880   1.689   2.852 -0.1797 -0.3302 -1.8064
 6157TIP3   OH218434   3.302   4.493   4.758 -0.1572  0.4780 -0.0521
 6157TIP3    H118435   3.335   4.577   4.788  1.8976  0.5823 -2.2988
 6157TIP3    H218436   3.377   4.434   4.763 -1.6160 -1.3796  1.7742
 6158TIP3   OH218437   5.489   1.772   2.534 -0.3564 -0.3257  0.6135
 6158TIP3    H118438   5.418   1.717   2.504 -1.7801  0.4090  2.4361
 6158TIP3    H218439   5.502   1.835   2.463 -1.2104 -0.7443  0.0678
 6159TIP3   OH218440   2.026   2.251   2.950 -0.0214  0.2026  0.3582
 6159TIP3    H118441   1.940   2.292   2.955 -1.2674 -1.9656 -1.3518
 6159TIP3    H218442   2.014   2.166   2.994  2.4682  1.4409  3.8570
 6160TIP3   OH218443   7.184   1.726   0.783  0.5254  0.9360 -0.6089
 6160TIP3    H118444   7.133   1.777   0.720  1.8523  0.6545 -1.9531
 6160TIP3    H218445   7.275   1.735   0.754  1.0547 -0.1444  0.6011
 6161TIP3   OH218446   5.627   2.991   0.323  0.1204  0.7055 -0.2077
 6161TIP3    H118447   5.544   3.012   0.365  0.3077  1.0757 -0.0184
 6161TIP3    H218448   5.654   2.908   0.362 -0.7128 -0.0033 -1.0881
 6162TIP3   OH218449   3.234   1.429   5.885  0.3077  0.4399 -0.4324
 6162TIP3    H118450   3.320   1.469   5.870  0.7555 -0.4503 -0.3467
 6162TIP3    H218451   3.228   1.360   5.819 -1.1313  1.6307 -1.6187
 6163TIP3   OH218452   6.159   5.333   3.078 -0.7986 -0.3372 -0.0267
 6163TIP3    H118453   6.170   5.296   2.990  0.0530  1.1874 -0.6165
 6163TIP3    H218454   6.108   5.413   3.063  0.2828  0.5126  0.6893
 6164TIP3   OH218455   5.501   6.545   2.647 -0.1492 -0.3739  0.7496
 6164TIP3    H118456   5.582   6.552   2.697 -0.8585 -0.0856  1.9300
 6164TIP3    H218457   5.485   6.634   2.615  0.8528 -0.7699 -0.9484
 6165TIP3   OH218458   4.491   5.281   5.355 -0.0084 -0.0154 -0.7160
 6165TIP3    H118459   4.404   5.317   5.371 -0.5583 -1.1506 -1.0537
 6165TIP3    H218460   4.532   5.279   5.442  0.4657  2.3798 -0.8172
 6166TIP3   OH218461   1.236   3.868   2.673  0.3979 -0.5060 -0.0347
 6166TIP3    H118462   1.326   3.878   2.641  0.2138  0.8361 -0.2211
 6166TIP3    H218463   1.246   3.827   2.759  1.3164  0.7455  0.5084
 6167TIP3   OH218464   6.639   3.904   2.787  0.1211  0.5585 -0.5649
 6167TIP3    H118465   6.710   3.945   2.737  1.1881  1.4254  1.5394
 6167TIP3    H218466   6.679   3.826   2.824  0.0458  1.1218  0.7411
 6168TIP3   OH218467   5.793   2.767   1.983  0.1834 -0.1284 -0.6767
 6168TIP3    H118468   5.827   2.856   1.972 -0.3384  0.0120 -1.2216
 6168TIP3    H218469   5.710   2.767   1.935 -0.3041 -0.6280  0.1257
 6169TIP3   OH218470   1.569   4.366   2.907 -0.2988  0.0409 -0.2669
 6169TIP3    H118471   1.554   4.347   3.000 -0.4298  1.9895  0.1511
 6169TIP3    H218472   1.622   4.445   2.907 -1.0942  0.6200 -1.8537
 6170TIP3   OH218473   1.245   3.335   0.406 -0.5846 -0.4268 -0.5694
 6170TIP3    H118474   1.313   3.328   0.473 -2.0188  1.3900  1.1998
 6170TIP3    H218475   1.291   3.316   0.324  1.5827 -1.2680  0.7445
 6171TIP3   OH218476   0.275   3.663   4.653  0.4827  0.0893 -0.0165
 6171TIP3    H118477   0.263   3.574   4.686  1.2567  0.2760  0.7750
 6171TIP3    H218478   0.366   3.666   4.623 -0.0328  0.0873 -1.7173
 6172TIP3   OH218479   4.172   4.229   2.989 -0.0074  0.0663 -0.6061
 6172TIP3    H118480   4.161   4.242   2.895  0.5359 -1.9665 -0.9982
 6172TIP3    H218481   4.265   4.211   3.000  0.1331  1.3019  0.4934
 6173TIP3   OH218482   2.105   1.282   4.400  0.3858 -0.0959 -0.0963
 6173TIP3    H118483   2.061   1.273   4.484  1.8862  1.5474  0.9265
 6173TIP3    H218484   2.181   1.225   4.406  0.8890  0.5695 -0.0443
 6174TIP3   OH218485   4.527   1.309   4.254  0.0754 -0.6219 -0.7021
 6174TIP3    H118486   4.575   1.391   4.237 -0.9843  0.3705  0.8392
 6174TIP3    H218487   4.508   1.275   4.167 -0.1229  1.1856 -1.4243
 6175TIP3   OH218488   5.838   5.984   2.201  0.2102 -0.2873  0.0378
 6175TIP3    H118489   5.884   5.901   2.186 -0.1315 -0.3839 -0.5039
 6175TIP3    H218490   5.766   5.982   2.139 -0.0131  0.2581  0.2804
 6176TIP3   OH218491   7.152   5.515   3.837  0.3421  0.0643  0.0082
 6176TIP3    H118492   7.219   5.556   3.782 -0.6257  0.2099 -1.1017
 6176TIP3    H218493   7.194   5.505   3.922  2.1759 -0.9070 -0.9471
 6177TIP3   OH218494   1.414   1.016   3.660 -0.4850 -0.1226 -0.0593
 6177TIP3    H118495   1.384   1.065   3.737 -1.3598  1.1853 -1.1783
 6177TIP3    H218496   1.496   1.059   3.636 -0.9251  0.3947 -0.6641
 6178TIP3   OH218497   1.022   5.769   4.071 -0.5226  0.6841  0.5147
 6178TIP3    H118498   0.930   5.748   4.056 -0.4741  0.6269  0.2909
 6178TIP3    H218499   1.046   5.826   3.998 -0.1561  0.0251  0.1034
 6179TIP3   OH218500   4.519   4.574   1.072  0.0708 -0.4051 -0.1047
 6179TIP3    H118501   4.539   4.583   1.165  0.5313  0.0692 -0.2428
 6179TIP3    H218502   4.459   4.500   1.067  0.0346 -0.4273  0.5700
 6180TIP3   OH218503   2.201   6.160   5.462  0.1799 -0.1626 -0.6670
 6180TIP3    H118504   2.251   6.146   5.382 -0.8735  1.2381 -1.6166
 6180TIP3    H218505   2.164   6.074   5.483 -0.2764 -0.3675 -2.2174
 6181TIP3   OH218506   1.435   4.361   0.836 -0.0218 -0.1306 -0.5380
 6181TIP3    H118507   1.350   4.384   0.798 -1.0840 -1.6118  0.8100
 6181TIP3    H218508   1.498   4.381   0.767 -1.6699 -0.9420 -2.3981
 6182TIP3   OH218509   0.300   2.421   5.021 -0.1532  0.4146 -0.6111
 6182TIP3    H118510   0.211   2.424   4.986 -0.4966 -0.3553  0.1514
 6182TIP3    H218511   0.333   2.335   4.994 -0.3445 -0.0990  0.7405
 6183TIP3   OH218512   6.077   2.615   2.310 -0.6717 -0.7827 -0.2837
 6183TIP3    H118513   6.046   2.633   2.399 -0.3376 -1.1397 -0.0922
 6183TIP3    H218514   6.099   2.702   2.275  0.3366 -0.7288  0.4158
 6184TIP3   OH218515   1.806   0.870   4.244  0.0663  0.1359 -0.5905
 6184TIP3    H118516   1.825   0.784   4.282 -1.2801  0.1637  0.2402
 6184TIP3    H218517   1.856   0.873   4.163  3.1675  0.0815  1.1631
 6185TIP3   OH218518   0.232   3.091   0.884  0.5912  0.5096 -1.0325
 6185TIP3    H118519   0.294   3.075   0.955  0.3003  0.8193 -0.7076
 6185TIP3    H218520   0.267   3.168   0.838 -0.4733  1.7953  0.2227
 6186TIP3   OH218521   4.820   4.401   1.223 -0.3495 -0.2961  0.0505
 6186TIP3    H118522   4.889   4.407   1.289  0.1867  1.5239 -0.6170
 6186TIP3    H218523   4.745   4.447   1.263 -0.6499 -0.8243  0.1104
 6187TIP3   OH218524   4.786   6.106   5.405 -0.2476  0.6153  0.3254
 6187TIP3    H118525   4.738   6.182   5.373  0.3958  0.4873 -1.0205
 6187TIP3    H218526   4.800   6.124   5.498 -1.5692  1.3351  0.4138
 6188TIP3   OH218527   5.989   3.637   0.482 -0.6530 -0.0571  0.3867
 6188TIP3    H118528   6.077   3.663   0.456 -1.1537 -0.5662 -2.0372
 6188TIP3    H218529   5.940   3.719   0.487 -0.0371  0.2439  1.9186
 6189TIP3   OH218530   2.677   4.055   0.236 -0.6179 -0.3343  0.2430
 6189TIP3    H118531   2.613   3.985   0.222 -0.7176 -0.1262 -0.3732
 6189TIP3    H218532   2.654   4.092   0.321 -2.0585  0.4954 -0.4774
 6190TIP3   OH218533   4.243   4.202   0.368  0.2600  0.0461  0.3450
 6190TIP3    H118534   4.315   4.166   0.422  0.6206  1.8179  1.1118
 6190TIP3    H218535   4.287   4.239   0.292  0.0542  0.2087  0.3058
 6191TIP3   OH218536   0.339   5.542   0.816  0.1356 -0.2292  0.3782
 6191TIP3    H118537   0.299   5.457   0.800 -0.4222 -0.0310  0.7115
 6191TIP3    H218538   0.310   5.566   0.904 -1.1815  1.1105 -0.3781
 6192TIP3   OH218539   4.709   0.597   2.028 -0.3547  0.0411  0.1536
 6192TIP3    H118540   4.790   0.548   2.015  0.2364  0.8169  0.7836
 6192TIP3    H218541   4.643   0.549   1.979  0.6080 -0.2770 -0.8497
 6193TIP3   OH218542   5.806   0.802   1.573  0.7647 -0.6157  0.3185
 6193TIP3    H118543   5.803   0.891   1.538 -1.1019 -1.0220 -0.6772
 6193TIP3    H218544   5.895   0.792   1.606  1.0623  1.5551  0.3076
 6194TIP3   OH218545   3.082   0.735   2.892  0.2509  0.2317 -0.1112
 6194TIP3    H118546   3.108   0.689   2.813 -0.9538 -0.5566 -0.0805
 6194TIP3    H218547   3.072   0.666   2.958 -0.7174  0.6313  0.1804
 6195TIP3   OH218548   2.335   3.281   0.624 -0.0698  0.1901 -0.1210
 6195TIP3    H118549   2.398   3.221   0.585 -3.6605 -2.2686 -2.8089
 6195TIP3    H218550   2.313   3.241   0.708 -2.3335 -2.5364 -1.8312
 6196TIP3   OH218551   1.128   3.094   4.877  0.7251  0.2659  0.7895
 6196TIP3    H118552   1.161   3.182   4.858 -0.1045  0.6819  1.2302
 6196TIP3    H218553   1.073   3.073   4.801 -1.4337  1.3465  1.9528
 6197TIP3   OH218554   2.309   2.551   0.237 -0.3229  0.0123  0.3552
 6197TIP3    H118555   2.263   2.619   0.285  0.7431  0.8453  0.2164
 6197TIP3    H218556   2.260   2.542   0.155 -0.9742 -0.0210  0.7395
 6198TIP3   OH218557   6.797   6.697   4.858  0.1664  0.3785 -0.4796
 6198TIP3    H118558   6.766   6.620   4.810  0.3499  0.6919 -1.1191
 6198TIP3    H218559   6.723   6.724   4.911 -0.2743  0.4191 -1.0982
 6199TIP3   OH218560   7.052   1.243   4.416  0.1052 -0.2920 -0.0712
 6199TIP3    H118561   7.035   1.225   4.508 -0.1887  0.9601  0.1316
 6199TIP3    H218562   7.146   1.265   4.413 -0.0643  0.4766  0.0719
 6200TIP3   OH218563   1.327   0.424   3.366  0.5240  0.4829  0.6394
 6200TIP3    H118564   1.384   0.459   3.297 -0.8001  1.6212  0.0918
 6200TIP3    H218565   1.371   0.343   3.394  2.2402  1.1601  0.0296
 6201TIP3   OH218566   4.983   6.110   4.028  0.4844  0.2428  0.0180
 6201TIP3    H118567   5.060   6.096   3.973  0.5231 -1.0709  0.3919
 6201TIP3    H218568   4.910   6.108   3.966  0.5893 -0.4598 -0.0817
 6202TIP3   OH218569   7.069   1.513   3.300 -0.3013  0.2881 -0.3651
 6202TIP3    H118570   7.062   1.521   3.205 -0.3052  0.9493 -0.3129
 6202TIP3    H218571   7.159   1.539   3.320  0.4130 -1.9361 -0.3898
 6203TIP3   OH218572   4.118   3.250   1.177  0.0146  0.1367 -0.0303
 6203TIP3    H118573   4.103   3.177   1.117  1.2423  0.4050 -0.7129
 6203TIP3    H218574   4.048   3.312   1.158  0.1711  0.0472 -0.9293
 6204TIP3   OH218575   4.970   6.323   4.461 -0.1822  0.3732  0.1334
 6204TIP3    H118576   4.986   6.357   4.373 -0.8117 -0.0944 -0.1708
 6204TIP3    H218577   4.896   6.373   4.493 -2.4602 -1.9439 -1.0979
 6205TIP3   OH218578   1.238   1.090   0.882  0.2798  0.4571 -0.2356
 6205TIP3    H118579   1.265   1.177   0.854  1.2626 -0.0681 -0.9813
 6205TIP3    H218580   1.252   1.089   0.976  1.1552  0.7960 -0.3573
 6206TIP3   OH218581   5.650   1.649   4.195 -0.3943 -0.8106  0.6262
 6206TIP3    H118582   5.651   1.590   4.119  0.0237 -0.5442  0.4193
 6206TIP3    H218583   5.734   1.693   4.191 -0.9010  0.1630  0.4965
 6207TIP3   OH218584   0.824   6.038   1.234 -0.4604 -0.1768 -0.0759
 6207TIP3    H118585   0.803   6.020   1.143 -0.8181 -1.1421  0.1855
 6207TIP3    H218586   0.812   5.954   1.279  2.4252 -0.4800  0.3801
 6208TIP3   OH218587   6.517   2.397   3.394 -0.3321 -0.2549 -0.0515
 6208TIP3    H118588   6.603   2.434   3.410 -0.5453 -0.4694  1.7711
 6208TIP3    H218589   6.476   2.455   3.330  1.6755 -0.9704 -2.0993
 6209TIP3   OH218590   2.093   3.517   5.903 -0.0963 -0.1837 -0.3472
 6209TIP3    H118591   2.126   3.563   5.825  0.9835  0.7204  0.6000
 6209TIP3    H218592   2.150   3.441   5.912  0.0863 -0.0290 -0.1803
 6210TIP3   OH218593   1.486   0.473   0.293 -0.1733  0.0727  0.1380
 6210TIP3    H118594   1.428   0.545   0.269  0.2984  0.7018  0.8363
 6210TIP3    H218595   1.450   0.397   0.247 -1.5959  0.4260  0.6215
 6211TIP3   OH218596   5.306   5.805   2.572  0.1457  0.9264  0.3696
 6211TIP3    H118597   5.302   5.896   2.604  0.2410  0.8308  0.6525
 6211TIP3    H218598   5.217   5.773   2.583 -0.2820  1.4835 -1.2049
 6212TIP3   OH218599   0.670   4.781   4.344  0.4317 -0.3711 -0.9128
 6212TIP3    H118600   0.623   4.745   4.269  1.2495 -2.0774 -0.6472
 6212TIP3    H218601   0.613   4.851   4.376 -2.3176 -2.7286 -0.2013
 6213TIP3   OH218602   2.494   1.220   3.725 -0.2445  0.1772  0.1803
 6213TIP3    H118603   2.522   1.306   3.691  0.3970  0.6479  1.8174
 6213TIP3    H218604   2.527   1.158   3.660  1.6930  0.9923  0.3070
 6214TIP3   OH218605   3.415   0.264   5.058  0.3248  0.1521 -0.8958
 6214TIP3    H118606   3.436   0.176   5.027  0.2768 -0.0522 -0.3562
 6214TIP3    H218607   3.478   0.280   5.129  0.8484  0.8597 -1.5000
 6215TIP3   OH218608   6.634   4.137   0.105 -0.1516  0.1000  0.1254
 6215TIP3    H118609   6.715   4.097   0.135 -0.7441 -0.8529  0.5070
 6215TIP3    H218610   6.578   4.138   0.183 -0.7980 -0.0214 -0.3296
 6216TIP3   OH218611   4.384   2.913   4.515 -0.0796  0.0452  0.2448
 6216TIP3    H118612   4.338   2.830   4.517  1.0552 -0.6361 -0.8040
 6216TIP3    H218613   4.371   2.946   4.425 -0.9951  1.2956  0.8000
 6217TIP3   OH218614   2.040   6.659   2.099 -0.0719  0.1016  0.1215
 6217TIP3    H118615   1.951   6.625   2.094 -1.1011  2.6815 -0.6325
 6217TIP3    H218616   2.040   6.713   2.178  0.9415 -0.1337  0.2933
 6218TIP3   OH218617   5.841   3.947   2.377 -0.2859 -0.4023 -0.2377
 6218TIP3    H118618   5.753   3.934   2.411  0.9211 -1.7123  2.7754
 6218TIP3    H218619   5.840   3.905   2.290 -3.4596  2.8043 -2.0294
 6219TIP3   OH218620   2.441   2.895   1.456 -0.2287 -0.2509 -0.3409
 6219TIP3    H118621   2.437   2.981   1.496  0.7301  0.0121 -0.7809
 6219TIP3    H218622   2.529   2.889   1.419 -0.5381 -1.1147 -0.9891
 6220TIP3   OH218623   5.567   5.877   1.669  0.1602 -0.2405 -0.3717
 6220TIP3    H118624   5.533   5.867   1.758 -1.9491 -0.6234 -1.1503
 6220TIP3    H218625   5.616   5.796   1.653 -0.4225 -0.6917  0.0658
 6221TIP3   OH218626   0.398   3.478   3.740 -0.0469  0.5120 -0.0800
 6221TIP3    H118627   0.333   3.477   3.669  0.6982 -1.9152 -0.8152
 6221TIP3    H218628   0.390   3.565   3.778 -3.1991  0.5783 -0.6331
 6222TIP3   OH218629   2.755   1.966   0.990 -0.6979 -0.1710  0.1966
 6222TIP3    H118630   2.825   2.010   1.038 -0.9184 -0.2055  0.5547
 6222TIP3    H218631   2.720   1.902   1.053 -2.3042  1.1373  0.7024
 6223TIP3   OH218632   1.364   5.208   2.536 -0.2665 -0.1904  0.3516
 6223TIP3    H118633   1.316   5.278   2.491 -0.7672 -0.6705  0.1254
 6223TIP3    H218634   1.327   5.206   2.624 -1.3360 -1.1729 -0.0960
 6224TIP3   OH218635   0.774   2.539   5.059  0.2021  0.2626 -0.5152
 6224TIP3    H118636   0.848   2.493   5.020  0.0559  0.8103 -1.4672
 6224TIP3    H218637   0.772   2.623   5.014  0.4060  1.1828  1.1146
 6225TIP3   OH218638   0.686   4.750   2.692  0.2182 -0.6324 -0.4598
 6225TIP3    H118639   0.692   4.667   2.739  0.4565 -0.1608  0.3630
 6225TIP3    H218640   0.664   4.725   2.602 -1.2087 -1.5116  0.0912
 6226TIP3   OH218641   3.881   0.742   1.562 -0.3270  0.1455 -0.4797
 6226TIP3    H118642   3.868   0.826   1.605  0.4654  0.1501 -0.2312
 6226TIP3    H218643   3.971   0.745   1.530 -0.1835 -0.7319 -0.1835
 6227TIP3   OH218644   4.763   4.732   1.103 -0.1833  0.0268 -0.1250
 6227TIP3    H118645   4.805   4.680   1.034 -0.4281  0.4176 -0.5737
 6227TIP3    H218646   4.692   4.676   1.136 -0.6043  0.1734 -0.7758
 6228TIP3   OH218647   5.625   0.350   0.269 -0.6288 -0.1766  0.0032
 6228TIP3    H118648   5.535   0.361   0.239 -0.4493 -0.1518 -0.5359
 6228TIP3    H218649   5.660   0.280   0.214  0.0177  0.5613 -0.5422
 6229TIP3   OH218650   6.550   2.459   5.062  0.6269 -0.4940 -0.9649
 6229TIP3    H118651   6.508   2.375   5.085 -0.7957  0.7327  1.2501
 6229TIP3    H218652   6.585   2.492   5.145  1.5011  0.9523 -1.8706
 6230TIP3   OH218653   6.400   5.205   0.881 -0.1933  0.1549  0.5316
 6230TIP3    H118654   6.415   5.300   0.885 -0.3645  0.2968 -1.2860
 6230TIP3    H218655   6.305   5.197   0.875 -0.1158 -0.0625 -0.4734
 6231TIP3   OH218656   5.575   3.809   1.473  0.2124  0.0643 -0.0620
 6231TIP3    H118657   5.613   3.801   1.385  1.0492  1.7107  0.1174
 6231TIP3    H218658   5.564   3.718   1.502  1.2188 -0.5033 -1.3187
 6232TIP3   OH218659   4.835   6.732   3.273  1.0847  0.3829  0.1007
 6232TIP3    H118660   4.921   6.766   3.249 -0.1663  2.5586 -1.7047
 6232TIP3    H218661   4.826   6.651   3.222  2.0405  0.1478  0.2899
 6233TIP3   OH218662   5.202   4.065   0.260 -0.0168 -0.4738  0.0728
 6233TIP3    H118663   5.128   4.010   0.285 -1.1256  1.4067  1.2020
 6233TIP3    H218664   5.234   4.101   0.342  1.5006 -0.4197 -0.5155
 6234TIP3   OH218665   6.051   0.970   2.495  0.0466  0.7436  0.0950
 6234TIP3    H118666   6.028   0.926   2.577 -0.9986  0.5811 -0.2773
 6234TIP3    H218667   6.147   0.972   2.495  0.3018 -3.1944 -0.7101
 6235TIP3   OH218668   7.082   2.048   1.141 -0.0764  0.1171 -0.2972
 6235TIP3    H118669   6.986   2.046   1.134 -0.3019  2.2755  1.1425
 6235TIP3    H218670   7.099   2.035   1.235  1.0756 -0.3883 -0.5578
 6236TIP3   OH218671   2.923   5.592   2.903 -0.8119 -0.2844 -0.2966
 6236TIP3    H118672   2.948   5.679   2.873  1.4872 -0.1800  1.6860
 6236TIP3    H218673   2.875   5.607   2.985  1.2544 -0.8759  1.0947
 6237TIP3   OH218674   4.543   6.342   1.431  0.6531  0.5603 -0.1180
 6237TIP3    H118675   4.568   6.252   1.411 -0.6215  0.1459  0.0300
 6237TIP3    H218676   4.473   6.333   1.496 -0.5096  1.5903 -1.1791
 6238TIP3   OH218677   5.026   0.731   0.225 -0.3753 -0.0238  0.6496
 6238TIP3    H118678   5.045   0.799   0.289  4.1301  0.4334 -0.8300
 6238TIP3    H218679   5.067   0.652   0.260  1.0519 -0.0601 -0.9441
 6239TIP3   OH218680   5.720   4.255   1.186 -0.3218  0.2660 -0.0525
 6239TIP3    H118681   5.774   4.176   1.194 -0.1746  0.1040 -2.1036
 6239TIP3    H218682   5.779   4.320   1.148 -1.4806  0.1110 -2.2766
 6240TIP3   OH218683   6.204   3.791   0.499  0.2799 -0.1961  0.0532
 6240TIP3    H118684   6.216   3.840   0.580 -0.0185  0.5659 -0.3550
 6240TIP3    H218685   6.233   3.850   0.430 -0.4358 -0.4511 -0.4801
 6241TIP3   OH218686   7.185   6.506   3.603  0.6290  0.3844 -0.6081
 6241TIP3    H118687   7.180   6.474   3.513  2.1666 -0.5448 -0.3933
 6241TIP3    H218688   7.208   6.429   3.655 -0.3401  0.8785  0.6207
 6242TIP3   OH218689   2.913   4.184   3.130 -0.0005 -0.1711  0.1234
 6242TIP3    H118690   2.899   4.124   3.057 -0.2757  0.8954 -0.7363
 6242TIP3    H218691   2.846   4.251   3.119 -0.0692 -0.0052  1.3907
 6243TIP3   OH218692   1.502   2.176   1.032  0.1653  0.2731 -0.4104
 6243TIP3    H118693   1.425   2.227   1.055 -0.5476 -0.0579 -2.0056
 6243TIP3    H218694   1.485   2.088   1.068 -0.0861  0.2638 -0.5555
 6244TIP3   OH218695   5.374   5.169   3.234 -0.3057 -0.2878  0.0219
 6244TIP3    H118696   5.470   5.170   3.228 -0.2594  2.5043 -0.0596
 6244TIP3    H218697   5.356   5.125   3.317  1.2266  1.6465  1.4723
 6245TIP3   OH218698   4.696   0.635   3.422 -0.2366 -0.0607  0.2895
 6245TIP3    H118699   4.622   0.614   3.365  0.5065 -1.7057 -0.1429
 6245TIP3    H218700   4.676   0.590   3.504  1.3182 -2.6232 -0.6032
 6246TIP3   OH218701   5.561   1.049   4.476  0.8588 -0.0754 -0.1750
 6246TIP3    H118702   5.644   1.056   4.523  0.8968 -0.7792 -0.1265
 6246TIP3    H218703   5.559   0.959   4.444 -0.5816 -0.5718  1.1811
 6247TIP3   OH218704   2.385   3.943   4.042 -0.5742 -0.3812 -0.5088
 6247TIP3    H118705   2.344   3.894   3.971 -0.1817 -0.8288 -0.4271
 6247TIP3    H218706   2.478   3.946   4.019 -0.4699 -0.3829 -0.0995
 6248TIP3   OH218707   6.409   1.878   5.535 -0.1814  0.2606  0.7666
 6248TIP3    H118708   6.346   1.926   5.482 -0.6656 -1.1603 -0.0130
 6248TIP3    H218709   6.373   1.790   5.541  0.5651  0.0179  2.3128
 6249TIP3   OH218710   3.832   2.050   4.522 -0.2301 -0.6158  0.0738
 6249TIP3    H118711   3.909   2.067   4.467  0.6071  0.1938  1.4276
 6249TIP3    H218712   3.844   1.961   4.553 -1.1395 -1.3958 -1.6527
 6250TIP3   OH218713   6.986   5.516   3.260  0.1177  0.5057 -0.2813
 6250TIP3    H118714   7.002   5.596   3.209 -0.7293  0.7054 -0.2494
 6250TIP3    H218715   6.987   5.545   3.351  1.9118  0.1003 -0.1434
 6251TIP3   OH218716   2.473   2.275   4.047  0.0792 -0.2579 -0.3234
 6251TIP3    H118717   2.400   2.328   4.013  1.5787  0.7022 -2.3142
 6251TIP3    H218718   2.449   2.256   4.137 -1.0376  3.0254  0.2158
 6252TIP3   OH218719   6.920   4.491   1.556  0.9192 -0.2741  0.6737
 6252TIP3    H118720   6.873   4.570   1.531  0.8974  0.1974  2.0942
 6252TIP3    H218721   6.989   4.523   1.615  1.0667 -1.2882  1.0596
 6253TIP3   OH218722   0.853   0.248   2.227 -0.1083 -0.1814  0.0492
 6253TIP3    H118723   0.925   0.274   2.284 -0.5724  0.7256  0.2390
 6253TIP3    H218724   0.895   0.227   2.143  0.6191 -1.8998  0.7962
 6254TIP3   OH218725   1.887   3.602   3.738  0.2825  0.2171 -0.2829
 6254TIP3    H118726   1.919   3.649   3.661  0.7775  0.5105  0.0944
 6254TIP3    H218727   1.962   3.550   3.767  0.0313 -0.0622 -0.1271
 6255TIP3   OH218728   4.640   5.902   2.733 -0.0474 -0.5777 -0.2724
 6255TIP3    H118729   4.643   5.901   2.829 -0.2614 -2.8676 -0.2116
 6255TIP3    H218730   4.713   5.957   2.707 -0.1769  0.3520  1.1888
 6256TIP3   OH218731   3.667   5.798   3.208 -0.3104  0.6196 -0.1911
 6256TIP3    H118732   3.750   5.824   3.167 -0.6008  0.6831 -0.7460
 6256TIP3    H218733   3.676   5.704   3.223  0.7203  0.9751  1.7570
 6257TIP3   OH218734   2.321   3.117   4.828  0.1815 -0.1736  0.5404
 6257TIP3    H118735   2.341   3.211   4.826  0.2351 -0.2005 -0.5420
 6257TIP3    H218736   2.278   3.104   4.913 -1.2655  1.1258  0.0575
 6258TIP3   OH218737   5.231   3.183   1.085  0.3629  0.2984  0.1538
 6258TIP3    H118738   5.315   3.148   1.117 -0.6607 -1.0639  1.4926
 6258TIP3    H218739   5.183   3.206   1.164 -0.9182  0.0837 -0.5403
 6259TIP3   OH218740   6.795   2.341   2.571  0.3052  0.2937 -0.0620
 6259TIP3    H118741   6.797   2.331   2.667 -1.4050  1.8320  0.2006
 6259TIP3    H218742   6.702   2.354   2.551  0.7470  0.9432 -1.8226
 6260TIP3   OH218743   4.842   2.295   0.446 -0.0592 -0.3137  0.6579
 6260TIP3    H118744   4.800   2.312   0.530  0.9900  1.8746  0.8108
 6260TIP3    H218745   4.792   2.346   0.383  0.0349 -0.7935  0.1843
 6261TIP3   OH218746   1.057   0.364   0.078 -0.1407  0.3384  0.0968
 6261TIP3    H118747   1.049   0.370   0.173  0.1186  0.0653  0.1379
 6261TIP3    H218748   1.093   0.276   0.062  0.1226  0.5027 -0.2339
 6262TIP3   OH218749   5.068   2.367   0.619  0.8958 -0.2483 -0.6359
 6262TIP3    H118750   4.976   2.357   0.592  0.3078  1.3651  0.5948
 6262TIP3    H218751   5.077   2.309   0.695  0.6321  0.2216 -0.2379
 6263TIP3   OH218752   4.643   0.463   3.667 -0.0185  0.2757 -0.3467
 6263TIP3    H118753   4.682   0.399   3.726  0.9437  0.7038 -0.5014
 6263TIP3    H218754   4.556   0.427   3.646 -0.8396  0.6338  2.1516
 6264TIP3   OH218755   4.163   3.357   0.800  0.1382 -0.3989 -0.3625
 6264TIP3    H118756   4.113   3.275   0.807 -1.7557  0.6995 -0.1594
 6264TIP3    H218757   4.143   3.390   0.713  0.3324  0.1628 -0.2001
 6265TIP3   OH218758   6.800   3.898   2.422  0.2124 -0.1260  0.1145
 6265TIP3    H118759   6.724   3.839   2.424  1.3813 -1.9619 -2.6390
 6265TIP3    H218760   6.871   3.848   2.463  0.2269  1.1945  1.7961
 6266TIP3   OH218761   4.828   1.242   4.522  0.1253 -0.0344  0.3330
 6266TIP3    H118762   4.742   1.210   4.494 -0.1368 -0.0633  1.1528
 6266TIP3    H218763   4.808   1.309   4.588  0.7571 -0.8690  1.3952
 6267TIP3   OH218764   5.519   4.637   2.974 -0.3891 -0.0356  0.1011
 6267TIP3    H118765   5.579   4.563   2.963 -0.6369 -0.1813 -0.2961
 6267TIP3    H218766   5.574   4.715   2.966 -0.5717 -0.0938 -2.6866
 6268TIP3   OH218767   4.378   3.257   5.438  0.1145 -0.2902  0.6380
 6268TIP3    H118768   4.465   3.220   5.427 -0.1041 -1.0119  1.1979
 6268TIP3    H218769   4.385   3.312   5.516  0.4668  0.9705 -0.2580
 6269TIP3   OH218770   6.678   0.497   2.622  0.2454 -0.4569 -0.1915
 6269TIP3    H118771   6.644   0.546   2.548 -1.0679  0.1056  0.7379
 6269TIP3    H218772   6.771   0.516   2.624  0.0212  0.7412 -0.7940
 6270TIP3   OH218773   4.902   1.182   4.020 -0.2814  0.2254  0.1430
 6270TIP3    H118774   4.874   1.243   3.952  1.3240  0.8011 -0.0344
 6270TIP3    H218775   4.888   1.229   4.102 -2.2336 -0.4754  0.2865
 6271TIP3   OH218776   5.748   1.487   1.635 -0.1719  0.1448 -0.4988
 6271TIP3    H118777   5.735   1.422   1.704 -3.1395 -0.7662 -1.7433
 6271TIP3    H218778   5.791   1.438   1.564 -0.2196  0.1879 -0.5569
 6272TIP3   OH218779   0.806   6.344   0.474  0.0723 -0.4156 -0.4972
 6272TIP3    H118780   0.856   6.325   0.553  0.0041 -0.4476 -0.4625
 6272TIP3    H218781   0.718   6.365   0.505 -0.1594 -1.1933 -0.6234
 6273TIP3   OH218782   7.098   5.339   4.512 -0.3674  0.0407 -0.1424
 6273TIP3    H118783   7.092   5.435   4.504  0.4775  0.4766  3.1006
 6273TIP3    H218784   7.160   5.314   4.445 -0.9137  1.6889 -1.3470
 6274TIP3   OH218785   7.168   0.101   3.890  0.3477 -0.2176 -0.0572
 6274TIP3    H118786   7.170   0.008   3.916 -0.8353 -0.0550  0.6961
 6274TIP3    H218787   7.257   0.133   3.908  0.4869 -0.9566  0.6377
 6275TIP3   OH218788   6.904   1.800   1.295 -0.3716  0.7908 -0.1840
 6275TIP3    H118789   6.950   1.852   1.361  0.5404  0.4316 -0.5087
 6275TIP3    H218790   6.848   1.862   1.249  1.0533  1.6156 -0.8915
 6276TIP3   OH218791   4.710   4.829   0.533 -0.5241  0.0342 -0.3935
 6276TIP3    H118792   4.629   4.860   0.573 -0.1895 -0.7314  0.9533
 6276TIP3    H218793   4.715   4.737   0.557  0.2462 -0.1808 -1.3227
 6277TIP3   OH218794   2.017   0.035   2.075  0.0081 -0.0350  0.1467
 6277TIP3    H118795   1.934   0.082   2.082  0.2135  0.5367 -0.9095
 6277TIP3    H218796   1.999  -0.051   2.113 -1.3531 -0.2541 -0.8859
 6278TIP3   OH218797   7.204   5.587   4.740 -0.9026 -0.0927 -0.1030
 6278TIP3    H118798   7.160   5.573   4.657 -0.6701 -1.7690  0.0230
 6278TIP3    H218799   7.136   5.576   4.806 -0.9792  0.7062 -0.0444
 6279TIP3   OH218800   0.660   5.532   2.432  0.2183 -0.0960  0.0268
 6279TIP3    H118801   0.729   5.588   2.398  0.3717 -0.8735 -0.9844
 6279TIP3    H218802   0.604   5.513   2.357 -0.4239 -0.4592  0.5742
 6280TIP3   OH218803   6.900   5.457   5.407  0.5944  0.4399 -0.2699
 6280TIP3    H118804   6.899   5.482   5.499 -0.7328 -0.2388 -0.0829
 6280TIP3    H218805   6.889   5.362   5.407  0.6896  0.4174 -1.1261
 6281TIP3   OH218806   2.169   3.296   0.175  0.0308 -0.2593  0.5000
 6281TIP3    H118807   2.163   3.305   0.270  1.0211  1.5622  0.4272
 6281TIP3    H218808   2.098   3.235   0.153 -2.0039  1.3386  2.1204
 6282TIP3   OH218809   2.452   5.514   2.259  0.2068  0.2386  0.5455
 6282TIP3    H118810   2.458   5.569   2.181 -0.3448  0.7116  0.8380
 6282TIP3    H218811   2.518   5.445   2.244  0.2650  0.4521 -0.2295
 6283TIP3   OH218812   0.479   3.269   2.002 -0.1725 -0.2567  0.3518
 6283TIP3    H118813   0.535   3.319   2.061  0.2060  0.4242 -0.5652
 6283TIP3    H218814   0.410   3.329   1.976  0.5969  0.0131 -1.1955
 6284TIP3   OH218815   6.918   0.318   2.166 -0.1802  0.1451 -0.0329
 6284TIP3    H118816   6.954   0.230   2.172 -0.1041  0.1429 -0.4784
 6284TIP3    H218817   6.954   0.364   2.242 -0.1449 -0.1788  0.1467
 6285TIP3   OH218818   0.672   4.158   4.921 -0.4803 -0.0384 -0.2427
 6285TIP3    H118819   0.596   4.108   4.949 -0.2101 -0.3218 -0.0145
 6285TIP3    H218820   0.742   4.132   4.982  0.2265 -0.9668 -1.4117
 6286TIP3   OH218821   3.963   4.083   5.661  0.1814 -0.4031  0.0644
 6286TIP3    H118822   3.930   4.137   5.590  0.8093  0.6356  0.5457
 6286TIP3    H218823   3.918   4.114   5.739  1.3892  0.2301  0.5344
 6287TIP3   OH218824   6.953   0.354   4.770  0.0724 -0.2204 -0.1534
 6287TIP3    H118825   6.985   0.272   4.733  0.4337  0.6022 -1.7619
 6287TIP3    H218826   6.995   0.359   4.857  0.0624 -1.6940 -0.0390
 6288TIP3   OH218827   2.632   1.300   1.711  0.2247  0.1926  0.0339
 6288TIP3    H118828   2.700   1.347   1.760  1.7390  0.4433 -2.1863
 6288TIP3    H218829   2.671   1.215   1.690  0.7557  1.0573 -2.9796
 6289TIP3   OH218830   6.169   3.395   1.489  0.2813 -0.2295 -0.5257
 6289TIP3    H118831   6.083   3.383   1.529 -0.0109  2.2573 -0.2864
 6289TIP3    H218832   6.191   3.308   1.454 -3.1575 -0.5669 -2.2626
 6290TIP3   OH218833   0.869   3.611   4.526  0.1318  0.0265 -0.4796
 6290TIP3    H118834   0.899   3.528   4.491 -1.9083 -1.6916  1.5281
 6290TIP3    H218835   0.915   3.621   4.609 -0.8262  0.0299  0.0733
 6291TIP3   OH218836   4.924   5.789   5.069  0.6518 -0.0556 -0.3578
 6291TIP3    H118837   4.952   5.850   5.137 -1.2995  0.5045  0.0259
 6291TIP3    H218838   4.865   5.729   5.114 -0.8133  0.4264 -1.5379
 6292TIP3   OH218839   6.466   3.725   3.981  0.4707  0.2055 -0.2064
 6292TIP3    H118840   6.529   3.702   4.048  1.2286 -0.3664 -1.1002
 6292TIP3    H218841   6.512   3.712   3.898 -0.7751 -0.1273 -0.8768
 6293TIP3   OH218842   1.722   5.758   4.366  0.5263 -0.3800  0.1233
 6293TIP3    H118843   1.682   5.803   4.440  1.2040 -1.6289  1.2726
 6293TIP3    H218844   1.708   5.665   4.383  1.6797 -0.7332 -0.7413
 6294TIP3   OH218845   3.472   5.960   0.683 -0.0511  0.0498 -0.0456
 6294TIP3    H118846   3.404   6.027   0.669  0.0203 -0.0673 -1.0397
 6294TIP3    H218847   3.508   5.981   0.769 -0.4979  0.8777 -0.0406
 6295TIP3   OH218848   6.976   6.553   3.791 -0.2873  0.0572  0.3213
 6295TIP3    H118849   6.897   6.558   3.737 -1.0947  5.3377  1.3594
 6295TIP3    H218850   7.048   6.572   3.731 -0.9257  3.4519  0.3948
 6296TIP3   OH218851   0.919   1.941   5.308  0.3485 -0.5346 -0.1248
 6296TIP3    H118852   1.015   1.937   5.315  0.4149  1.0245  0.3116
 6296TIP3    H218853   0.903   2.012   5.246 -0.4917  1.8176  2.5503
 6297TIP3   OH218854   5.626   5.002   4.252 -0.0793 -0.0489 -0.2324
 6297TIP3    H118855   5.570   5.057   4.306  0.0232 -0.6912  0.5522
 6297TIP3    H218856   5.592   4.913   4.264  1.2342 -0.4997  0.4965
 6298TIP3   OH218857   4.221   5.736   1.116  0.3975 -0.2879 -0.6244
 6298TIP3    H118858   4.197   5.806   1.177 -1.3640 -1.0340 -0.4217
 6298TIP3    H218859   4.266   5.782   1.044 -1.1558  1.1570 -0.7513
 6299TIP3   OH218860   0.598   2.383   0.804  0.0659 -0.8234 -0.2214
 6299TIP3    H118861   0.523   2.399   0.746  0.1925  0.9294  0.0472
 6299TIP3    H218862   0.559   2.344   0.882 -0.8079  1.2843  0.4593
 6300TIP3   OH218863   3.426   6.150   5.400  0.0900  0.1843 -0.2994
 6300TIP3    H118864   3.517   6.146   5.429  0.3803  0.5080 -1.1380
 6300TIP3    H218865   3.378   6.099   5.465  0.8536  0.1018  0.2105
 6301TIP3   OH218866   4.308   2.381   0.383  0.1093  0.3920  0.3296
 6301TIP3    H118867   4.319   2.459   0.437  1.1991  0.7268 -0.3518
 6301TIP3    H218868   4.226   2.396   0.336  0.6126  1.4104 -0.2469
 6302TIP3   OH218869   4.373   1.851   1.206  0.0769 -0.6725  0.1211
 6302TIP3    H118870   4.410   1.894   1.129 -2.9065  0.6739 -0.7205
 6302TIP3    H218871   4.391   1.911   1.278 -0.7974  0.1985 -0.3597
 6303TIP3   OH218872   0.932   4.761   4.408  0.1140 -0.0194 -0.0870
 6303TIP3    H118873   0.839   4.765   4.384  0.2842 -0.6357 -0.8703
 6303TIP3    H218874   0.931   4.744   4.502 -0.5603  0.9936  0.1144
 6304TIP3   OH218875   3.169   4.823   0.513 -0.2986  0.5017 -0.4235
 6304TIP3    H118876   3.115   4.896   0.545  2.1384  1.8565  0.8271
 6304TIP3    H218877   3.125   4.745   0.547 -0.8784  1.6073  1.5506
 6305TIP3   OH218878   2.451   3.513   1.080  0.4962 -0.3563 -0.4836
 6305TIP3    H118879   2.510   3.529   1.007  0.1143  1.8938 -0.3847
 6305TIP3    H218880   2.369   3.484   1.040 -0.0529  1.8500 -1.1318
 6306TIP3   OH218881   1.762   5.681   2.183 -0.3720 -0.1362  0.2532
 6306TIP3    H118882   1.857   5.676   2.192 -0.3366  1.3978  0.9763
 6306TIP3    H218883   1.730   5.684   2.273 -0.7831  3.6501  0.1480
 6307TIP3   OH218884   0.074   3.833   0.426  0.9280  0.4143  0.0839
 6307TIP3    H118885   0.082   3.861   0.335  1.6960 -0.4613 -0.1389
 6307TIP3    H218886  -0.014   3.794   0.432  0.5169  1.3160 -0.0311
 6308TIP3   OH218887   0.156   4.559   2.032  0.0199  0.4674 -0.0575
 6308TIP3    H118888   0.162   4.647   2.069  0.1796 -0.2451  1.7237
 6308TIP3    H218889   0.062   4.543   2.025 -0.0309  0.4176  0.6050
 6309TIP3   OH218890   1.276   2.517   3.836 -0.1302 -1.2875 -0.5113
 6309TIP3    H118891   1.265   2.532   3.742 -0.5521 -2.7097 -0.7074
 6309TIP3    H218892   1.341   2.447   3.842 -0.7955 -1.8639  0.2193
 6310TIP3   OH218893   2.366   1.018   3.370  0.1743  0.1583  0.2383
 6310TIP3    H118894   2.337   1.109   3.357  1.7646  0.7801  0.8693
 6310TIP3    H218895   2.347   0.975   3.286  1.0934  1.5484 -0.7295
 6311TIP3   OH218896   5.230   3.676   3.596  0.7644 -0.4584 -0.0368
 6311TIP3    H118897   5.307   3.706   3.549  0.6803  0.6232  0.4848
 6311TIP3    H218898   5.161   3.739   3.573  0.9340  0.6488  2.1508
 6312TIP3   OH218899   0.318   4.600   0.758 -0.1533 -0.5987  0.0258
 6312TIP3    H118900   0.347   4.623   0.846  1.2484 -1.5956 -0.1412
 6312TIP3    H218901   0.296   4.508   0.763 -0.6234 -0.5200 -0.5314
 6313TIP3   OH218902   5.239   4.706   2.079  0.4360  0.1509 -0.1135
 6313TIP3    H118903   5.252   4.665   1.994 -1.6636 -0.0415 -0.3801
 6313TIP3    H218904   5.286   4.789   2.073  0.1285  0.2354 -1.5413
 6314TIP3   OH218905   5.598   4.398   0.711  0.7070 -0.0056  0.2115
 6314TIP3    H118906   5.642   4.341   0.774  2.2336  0.4054 -0.4292
 6314TIP3    H218907   5.505   4.387   0.729  0.9884 -2.0981  0.6196
 6315TIP3   OH218908   6.860   5.843   0.035  0.2788  0.3573  0.0189
 6315TIP3    H118909   6.871   5.928   0.078 -2.1694 -0.3741  2.3399
 6315TIP3    H218910   6.833   5.865  -0.055  1.6378  1.9626 -0.0411
 6316TIP3   OH218911   4.368   1.286   0.981  0.4081 -0.2584  0.1707
 6316TIP3    H118912   4.410   1.216   1.030 -1.1672 -0.5843  1.1265
 6316TIP3    H218913   4.279   1.256   0.967 -1.0151  2.3480  2.4871
 6317TIP3   OH218914   4.990   5.977   5.242 -0.1199 -0.1324 -0.6168
 6317TIP3    H118915   5.024   5.946   5.326 -0.2007  1.6193  0.1062
 6317TIP3    H218916   4.914   6.031   5.266  0.5802  1.4125 -1.6763
 6318TIP3   OH218917   1.760   5.452   4.208 -0.4561  0.2208  0.2564
 6318TIP3    H118918   1.676   5.493   4.232 -0.2186  1.5909 -1.0690
 6318TIP3    H218919   1.805   5.440   4.291 -2.2070 -1.1630  1.0775
 6319TIP3   OH218920   6.265   2.815   5.386  0.2526  0.2831 -0.1589
 6319TIP3    H118921   6.223   2.729   5.393 -0.8973  0.6280 -2.0124
 6319TIP3    H218922   6.240   2.861   5.466 -2.6855  0.3007 -0.9656
 6320TIP3   OH218923   1.015   2.598   1.200  0.1870  0.7070 -0.3187
 6320TIP3    H118924   1.016   2.687   1.165 -0.4958  0.8119 -0.0756
 6320TIP3    H218925   0.958   2.603   1.277  0.3712  0.1209 -0.1430
 6321TIP3   OH218926   1.512   4.201   4.471 -0.0013  0.2359 -0.0853
 6321TIP3    H118927   1.461   4.133   4.428  0.1493  1.1470 -1.7848
 6321TIP3    H218928   1.482   4.200   4.562  0.0941 -2.1625 -0.0213
 6322TIP3   OH218929   2.935   6.288   3.122 -0.1629 -0.2306  0.1247
 6322TIP3    H118930   2.955   6.367   3.173  0.2029  0.4821 -1.0780
 6322TIP3    H218931   3.019   6.245   3.110 -0.4084 -1.0024  1.0635
 6323TIP3   OH218932   5.457   0.711   4.550 -0.0712 -0.7445  0.4671
 6323TIP3    H118933   5.548   0.741   4.547  0.9373 -3.4430  1.1412
 6323TIP3    H218934   5.415   0.770   4.612  1.4894 -0.0409  0.9163
 6324TIP3   OH218935   3.010   5.851   2.493  0.3565  0.1721 -0.0576
 6324TIP3    H118936   2.941   5.787   2.476  1.0170 -0.5819  0.0246
 6324TIP3    H218937   3.023   5.847   2.588 -1.2590  2.2035  0.3115
 6325TIP3   OH218938   4.861   4.474   1.586 -0.3224  0.6600 -0.5630
 6325TIP3    H118939   4.849   4.402   1.647  3.6378 -0.3672 -0.7301
 6325TIP3    H218940   4.791   4.463   1.522 -1.3908 -1.4616  0.8568
 6326TIP3   OH218941   2.377   0.474   0.678  0.4576  0.2739  0.5358
 6326TIP3    H118942   2.388   0.487   0.772  1.2957 -0.8290  0.6087
 6326TIP3    H218943   2.441   0.407   0.655 -0.7829 -0.5889 -0.5516
 6327TIP3   OH218944   6.057   5.065   1.334 -0.0275  0.7908  0.3445
 6327TIP3    H118945   6.101   5.104   1.258 -2.1846  0.3068 -1.2645
 6327TIP3    H218946   5.965   5.088   1.323 -0.5734 -0.2468  2.2373
 6328TIP3   OH218947   3.066   5.896   1.324  0.3085  0.0229  0.1915
 6328TIP3    H118948   3.070   5.884   1.229  0.3374  0.0587  0.1884
 6328TIP3    H218949   3.036   5.811   1.357  1.6391 -0.4428  0.2645
 6329TIP3   OH218950   6.053   4.424   2.535  0.1462  0.0568 -0.1646
 6329TIP3    H118951   6.112   4.349   2.537  0.0413 -0.0338 -0.3575
 6329TIP3    H218952   6.099   4.489   2.481  0.4076  0.2792  0.3223
 6330TIP3   OH218953   7.092   1.105   2.266 -0.0571 -0.0928  0.0011
 6330TIP3    H118954   7.127   1.099   2.177 -0.0049 -0.5255  0.0505
 6330TIP3    H218955   7.125   1.028   2.310  0.9218  0.7335  0.7555
 6331TIP3   OH218956   6.740   0.694   0.551  0.1032  0.2938 -0.7146
 6331TIP3    H118957   6.671   0.636   0.582  1.9753 -0.7076  1.8797
 6331TIP3    H218958   6.703   0.782   0.561 -0.8078 -0.2154  0.6119
 6332TIP3   OH218959   6.398   3.094   5.608  0.2211 -0.2309  0.3430
 6332TIP3    H118960   6.460   3.035   5.650 -0.2819 -0.6593  0.4868
 6332TIP3    H218961   6.315   3.048   5.610  0.1952 -0.3017 -1.2160
 6333TIP3   OH218962   3.884   1.985   1.556 -0.0779  0.3312  0.0898
 6333TIP3    H118963   3.905   2.026   1.640  1.0564  1.4559 -0.7289
 6333TIP3    H218964   3.795   2.014   1.537  0.4792  1.9194 -0.1725
 6334TIP3   OH218965   3.626   1.728   2.847 -0.2889  0.6760 -0.2455
 6334TIP3    H118966   3.608   1.820   2.830  2.0223  0.9429 -1.7167
 6334TIP3    H218967   3.605   1.684   2.765 -0.3052  0.0574  0.0829
 6335TIP3   OH218968   5.201   3.696   5.746  0.0183  0.4204 -0.6386
 6335TIP3    H118969   5.219   3.790   5.749  3.1536  0.0161 -2.3482
 6335TIP3    H218970   5.275   3.655   5.791 -0.0268 -1.3003 -1.9889
 6336TIP3   OH218971   6.340   5.417   2.247  0.7759 -0.2560 -0.2368
 6336TIP3    H118972   6.399   5.405   2.173 -1.3619 -2.2783 -1.7822
 6336TIP3    H218973   6.355   5.340   2.302 -0.1446 -0.6241 -0.4804
 6337TIP3   OH218974   1.017   3.666   4.093 -0.0282  0.2125  0.1053
 6337TIP3    H118975   0.950   3.698   4.153 -0.1355 -2.0860  1.3242
 6337TIP3    H218976   1.098   3.664   4.144  0.4890  0.7916 -0.6650
 6338TIP3   OH218977   0.260   0.102   3.207  0.1782 -0.1633  0.2936
 6338TIP3    H118978   0.212   0.135   3.131 -0.0592 -1.3231 -0.0814
 6338TIP3    H218979   0.332   0.164   3.219 -0.9456  1.1689  0.3875
 6339TIP3   OH218980   1.118   3.668   4.357 -0.3928 -0.7552  0.3322
 6339TIP3    H118981   1.075   3.589   4.389 -0.2684 -0.4990  1.1382
 6339TIP3    H218982   1.205   3.666   4.397 -0.3363 -0.2852  0.2344
 6340TIP3   OH218983   7.148   6.064   4.385  0.1697  0.5063  0.3042
 6340TIP3    H118984   7.193   6.084   4.467 -0.4029  0.9075  0.5264
 6340TIP3    H218985   7.151   6.146   4.335 -0.2798  0.5317  0.3101
 6341TIP3   OH218986   1.941   3.784   3.486  0.0707 -0.0790 -0.2758
 6341TIP3    H118987   2.036   3.772   3.483 -0.0178 -0.6361 -1.2111
 6341TIP3    H218988   1.907   3.726   3.418 -1.0671 -1.0803  1.0768
 6342TIP3   OH218989   4.803   0.514   1.439  0.2275 -0.0761  0.1720
 6342TIP3    H118990   4.768   0.456   1.371  1.1265  1.7962 -2.0194
 6342TIP3    H218991   4.872   0.462   1.481  1.5252 -0.4628 -2.2283
 6343TIP3   OH218992   3.643   3.859   1.242  0.6326 -0.2078 -0.3104
 6343TIP3    H118993   3.732   3.862   1.277 -0.7512  2.2005  3.6609
 6343TIP3    H218994   3.590   3.826   1.314 -1.7166 -2.8688 -2.9520
 6344TIP3   OH218995   2.160   3.495   3.741  0.4706 -0.2650 -0.2360
 6344TIP3    H118996   2.224   3.532   3.680 -0.7119 -0.1663 -1.4578
 6344TIP3    H218997   2.142   3.408   3.706 -0.3719 -0.1307 -0.1534
 6345TIP3   OH218998   5.604   4.839   5.026  0.0423 -0.2792  0.3210
 6345TIP3    H118999   5.634   4.752   5.055 -1.9978 -0.6587  1.5802
 6345TIP3    H219000   5.540   4.865   5.093 -0.8242  1.3396 -1.0597
 6346TIP3   OH219001   3.794   4.757   5.691  0.5058  0.2033 -0.2603
 6346TIP3    H119002   3.760   4.743   5.603 -1.3837  0.1351  0.4447
 6346TIP3    H219003   3.726   4.807   5.736  1.2145 -0.1654  1.2973
 6347TIP3   OH219004   1.641   0.155   4.812 -0.2013 -0.0630 -0.3133
 6347TIP3    H119005   1.601   0.224   4.866  1.2915  0.2551  0.4407
 6347TIP3    H219006   1.695   0.105   4.873  1.1925  0.0339 -1.4242
 6348TIP3   OH219007   0.737   4.565   1.054 -0.6372  0.1888 -0.0437
 6348TIP3    H119008   0.731   4.661   1.053 -0.7372  0.1819 -0.9784
 6348TIP3    H219009   0.763   4.544   1.144  3.6176  1.3390 -0.7668
 6349TIP3   OH219010   2.460   3.909   1.298 -0.6913 -0.4746 -0.2346
 6349TIP3    H119011   2.455   3.880   1.389  0.0585 -1.1939 -0.4159
 6349TIP3    H219012   2.390   3.861   1.253 -0.2574 -1.0700 -0.2824
 6350TIP3   OH219013   1.453   1.876   2.005  0.1132 -0.0406 -0.6790
 6350TIP3    H119014   1.392   1.847   1.937 -0.7408 -0.7388  0.3535
 6350TIP3    H219015   1.405   1.943   2.054  1.3622  1.7557 -1.8099
 6351TIP3   OH219016   2.987   4.828   3.868 -0.0700 -0.2539  0.3639
 6351TIP3    H119017   2.894   4.812   3.882 -0.0703 -0.3994  0.1852
 6351TIP3    H219018   3.028   4.800   3.950 -0.0363 -1.4283 -0.0499
 6352TIP3   OH219019   6.073   0.647   0.538 -0.2397 -0.3676 -0.3080
 6352TIP3    H119020   6.164   0.630   0.515 -0.5004 -0.3349 -1.4147
 6352TIP3    H219021   6.068   0.631   0.632  0.6856 -1.3575 -0.4115
 6353TIP3   OH219022   5.641   4.043   3.922  0.0750 -0.3134 -0.2992
 6353TIP3    H119023   5.726   4.060   3.963  0.4088 -1.5930 -0.4300
 6353TIP3    H219024   5.618   4.126   3.881  0.4167  0.5836  1.2124
 6354TIP3   OH219025   6.585   1.278   4.709  0.5397  0.0919  0.1601
 6354TIP3    H119026   6.557   1.192   4.681 -2.0575  0.9539 -0.1127
 6354TIP3    H219027   6.681   1.277   4.699  0.4285 -2.2310 -1.2144
 6355TIP3   OH219028   3.477   5.901   1.964 -0.3413 -0.6849  0.1171
 6355TIP3    H119029   3.456   5.988   1.998 -0.1377 -0.3630 -0.5596
 6355TIP3    H219030   3.570   5.888   1.985 -0.4740 -0.9108  0.5744
 6356TIP3   OH219031   6.475   0.737   4.689  0.0002 -0.3144 -0.0874
 6356TIP3    H119032   6.417   0.803   4.727 -0.7025  0.0209 -1.6754
 6356TIP3    H219033   6.529   0.708   4.763 -0.8330  0.7935  1.0075
 6357TIP3   OH219034   1.841   0.456   2.635  0.1196  1.1892 -0.0651
 6357TIP3    H119035   1.777   0.510   2.589 -1.5088  0.0307  0.7333
 6357TIP3    H219036   1.822   0.470   2.728  1.3479  1.1674  0.2031
 6358TIP3   OH219037   3.144   1.616   1.382 -0.4061 -0.1057  0.1292
 6358TIP3    H119038   3.214   1.639   1.321  0.2360  0.4213  1.0312
 6358TIP3    H219039   3.166   1.528   1.413  0.6103  0.5497  1.3838
 6359TIP3   OH219040   1.840   0.058   1.061 -0.3195 -0.2284 -0.8817
 6359TIP3    H119041   1.807   0.031   0.976  2.5395 -2.2022 -1.4867
 6359TIP3    H219042   1.841  -0.022   1.114  2.0199  0.0164 -0.4662
 6360TIP3   OH219043   4.090   5.358   4.841 -0.2681  0.3682  0.0733
 6360TIP3    H119044   4.033   5.393   4.772  0.1083  0.5084 -0.1674
 6360TIP3    H219045   4.034   5.356   4.919 -0.7701 -0.0210 -0.2862
 6361TIP3   OH219046   7.012   6.069   3.400 -0.2067  0.1634 -0.3177
 6361TIP3    H119047   7.056   6.010   3.340  0.2262  0.4630 -0.2959
 6361TIP3    H219048   6.994   6.147   3.349 -0.0143  0.3426 -0.1142
 6362TIP3   OH219049   1.127   3.704   5.678  0.1795  0.2640 -0.5207
 6362TIP3    H119050   1.204   3.749   5.712 -0.1012  0.5965 -0.3111
 6362TIP3    H219051   1.087   3.768   5.619  1.3443 -0.7354 -2.4905
 6363TIP3   OH219052   0.006   2.311   5.806  0.2019  0.5035 -0.3795
 6363TIP3    H119053  -0.022   2.290   5.717 -0.1133  1.1719 -0.4419
 6363TIP3    H219054   0.055   2.393   5.798  2.2828 -0.6649 -0.2784
 6364TIP3   OH219055   5.847   0.490   1.823  0.0291 -0.0344 -0.2798
 6364TIP3    H119056   5.769   0.498   1.768  0.7893  0.1627 -1.3613
 6364TIP3    H219057   5.863   0.578   1.855  0.0821  0.0141 -0.4401
 6365TIP3   OH219058   0.668   5.126   4.017 -0.0223  0.6632 -0.2812
 6365TIP3    H119059   0.758   5.096   4.030  0.7975  1.8351 -2.7783
 6365TIP3    H219060   0.655   5.192   4.086  0.8385  0.1466  0.4046
 6366TIP3   OH219061   6.235   1.460   3.106  0.4283 -0.3618 -0.1751
 6366TIP3    H119062   6.319   1.440   3.148 -0.1681  0.1679  1.3381
 6366TIP3    H219063   6.220   1.552   3.127 -1.1269 -0.7753  0.7076
 6367TIP3   OH219064   0.918   4.467   2.814  0.4894 -0.1032  0.5033
 6367TIP3    H119065   0.929   4.386   2.863  1.9347  0.6445  1.4914
 6367TIP3    H219066   1.006   4.488   2.781  0.1558  1.0997  0.3281
 6368TIP3   OH219067   1.078   3.179   5.787  0.4483 -0.5302  0.5288
 6368TIP3    H119068   1.105   3.257   5.740  1.4190 -1.4532 -0.5177
 6368TIP3    H219069   0.988   3.197   5.815  0.5785  0.8494  0.1198
 6369TIP3   OH219070   3.753   0.373   2.289  0.0624 -0.2331  0.3860
 6369TIP3    H119071   3.797   0.418   2.361 -0.8961 -0.3263  1.0498
 6369TIP3    H219072   3.721   0.443   2.232 -1.3438 -0.0336  1.3656
 6370TIP3   OH219073   4.981   1.669   0.762  0.7228  0.5692 -0.4116
 6370TIP3    H119074   4.891   1.698   0.748  0.1982 -0.7528  0.1012
 6370TIP3    H219075   4.975   1.575   0.774  1.9991  0.6163  0.9932
 6371TIP3   OH219076   3.569   3.615   2.806 -0.1545  0.3496  0.9318
 6371TIP3    H119077   3.492   3.653   2.848 -1.2476 -1.4853  0.6996
 6371TIP3    H219078   3.609   3.561   2.875  0.2521  0.3674  0.7103
 6372TIP3   OH219079   2.877   3.803   0.267 -0.4896  0.0146  0.6271
 6372TIP3    H119080   2.857   3.895   0.283 -0.9527  0.0336  0.0127
 6372TIP3    H219081   2.964   3.804   0.226 -0.4672  0.1747  0.6794
 6373TIP3   OH219082   5.666   5.004   4.533  0.2733  0.3534  0.6519
 6373TIP3    H119083   5.639   5.088   4.497  1.0687  0.7637  0.9918
 6373TIP3    H219084   5.759   5.015   4.555  0.2780 -0.4631  1.1167
 6374TIP3   OH219085   5.257   0.972   1.815  0.1900  0.0394  0.5503
 6374TIP3    H119086   5.236   1.008   1.729  2.2919  3.7427  1.3385
 6374TIP3    H219087   5.175   0.976   1.863 -0.6973 -0.7830 -0.8298
 6375TIP3   OH219088   5.938   1.705   5.092 -0.0546  0.1459 -0.1423
 6375TIP3    H119089   6.027   1.700   5.058  0.2345  0.8121  0.4731
 6375TIP3    H219090   5.932   1.793   5.129 -1.0058  0.1401 -0.2765
 6376TIP3   OH219091   6.828   4.535   5.706 -0.5016 -0.6515 -0.4190
 6376TIP3    H119092   6.863   4.556   5.619  0.7777 -2.0265 -0.2818
 6376TIP3    H219093   6.741   4.574   5.707 -0.3457 -0.1780 -2.1345
 6377TIP3   OH219094   3.175   0.604   1.290 -0.4538 -0.2405  0.0828
 6377TIP3    H119095   3.257   0.598   1.241  0.5287  0.9616  1.4783
 6377TIP3    H219096   3.116   0.653   1.233  0.4238  0.5071 -0.2035
 6378TIP3   OH219097   4.645   1.333   4.786  0.5156 -0.6250 -0.2052
 6378TIP3    H119098   4.657   1.302   4.875  0.2126  0.6545  0.3117
 6378TIP3    H219099   4.575   1.279   4.750 -0.0787 -0.4657  0.6927
 6379TIP3   OH219100   0.342   1.166   0.443  0.0346  0.0068 -0.7492
 6379TIP3    H119101   0.419   1.112   0.428 -0.6163 -0.2448 -3.8012
 6379TIP3    H219102   0.372   1.256   0.432 -0.1977 -0.1276 -2.8462
 6380TIP3   OH219103   5.739   1.901   1.057 -0.2667 -0.7808 -0.3912
 6380TIP3    H119104   5.690   1.885   1.137 -1.2844  2.0991 -0.3020
 6380TIP3    H219105   5.826   1.927   1.086  0.3623 -2.7149 -0.4159
 6381TIP3   OH219106   3.880   6.746   0.625 -0.2144  0.6649  0.1463
 6381TIP3    H119107   3.816   6.688   0.668 -0.4559  0.5298 -0.3811
 6381TIP3    H219108   3.868   6.729   0.531  1.2435 -0.0616  0.0607
 6382TIP3   OH219109   5.066   1.281   2.889 -0.0569  0.0228 -0.3527
 6382TIP3    H119110   5.093   1.237   2.969  0.1201  1.0489  0.1729
 6382TIP3    H219111   5.110   1.233   2.819 -1.7317 -2.1047 -0.0532
 6383TIP3   OH219112   0.824   6.790   0.667 -0.0678 -0.0542  0.5414
 6383TIP3    H119113   0.771   6.715   0.641 -1.5579  1.1975 -0.1598
 6383TIP3    H219114   0.914   6.756   0.669 -0.5921 -1.6231 -0.6673
 6384TIP3   OH219115   1.962   4.433   2.858 -0.4924 -0.1101 -0.1085
 6384TIP3    H119116   2.002   4.520   2.850  0.4637 -0.5530 -0.4071
 6384TIP3    H219117   1.942   4.424   2.951  0.1999  0.1052  0.0712
 6385TIP3   OH219118   4.231   5.942   2.811  0.0823 -0.0622 -0.3150
 6385TIP3    H119119   4.220   6.031   2.845 -1.5465  0.5228 -2.2035
 6385TIP3    H219120   4.142   5.911   2.798  0.5921 -2.3622  1.1158
 6386TIP3   OH219121   2.873   4.892   5.800 -0.3953 -0.0244 -0.2328
 6386TIP3    H119122   2.912   4.846   5.874  1.0295  0.0092 -0.9295
 6386TIP3    H219123   2.918   4.976   5.798 -1.8119  0.7871  0.0220
 6387TIP3   OH219124   2.126   3.324   1.085  0.3150  0.1877  0.0118
 6387TIP3    H119125   2.212   3.288   1.109 -0.2044  0.9429  3.6292
 6387TIP3    H219126   2.064   3.276   1.140 -1.1367  1.9404  0.0081
 6388TIP3   OH219127   5.764   0.007   4.438  0.1681  1.0498 -0.4462
 6388TIP3    H119128   5.771   0.054   4.354 -0.6159  1.0889 -0.4972
 6388TIP3    H219129   5.670  -0.010   4.448  0.0420  2.4658  1.1976
 6389TIP3   OH219130   0.254   3.133   2.377 -0.2044  0.4253 -0.2689
 6389TIP3    H119131   0.285   3.050   2.413  2.2427  2.4392  2.7128
 6389TIP3    H219132   0.330   3.169   2.330 -0.9324  1.4344 -0.7154
 6390TIP3   OH219133   3.780   6.068   2.857  0.1286 -0.0177 -0.3566
 6390TIP3    H119134   3.708   6.024   2.904 -0.3771  0.8750 -0.2692
 6390TIP3    H219135   3.813   6.133   2.920 -0.0512  0.6715 -0.9638
 6391TIP3   OH219136   0.042   6.092   0.485 -0.1836 -0.2638  0.0486
 6391TIP3    H119137   0.073   6.177   0.454  0.3554 -0.4289  0.1331
 6391TIP3    H219138   0.089   6.028   0.432 -1.6636 -0.5019 -1.0374
 6392TIP3   OH219139   6.150   5.649   0.224 -0.3568 -0.3284  0.1781
 6392TIP3    H119140   6.211   5.722   0.238  0.6296 -1.4064  1.8408
 6392TIP3    H219141   6.190   5.599   0.152  1.3166 -1.5300  1.8462
 6393TIP3   OH219142   2.804   4.897   4.180  0.0868 -0.3117 -0.2273
 6393TIP3    H119143   2.755   4.867   4.104 -1.6901  1.1635  0.2722
 6393TIP3    H219144   2.842   4.980   4.152  0.0509 -0.1325  0.2527
 6394TIP3   OH219145   5.749   2.751   0.095  0.0717  0.2088  0.5491
 6394TIP3    H119146   5.680   2.813   0.072  0.2914  0.5482  0.8031
 6394TIP3    H219147   5.702   2.673   0.125 -0.2131  0.0140 -0.3536
 6395TIP3   OH219148   0.544   5.798   0.296  0.1043  0.6740  0.4329
 6395TIP3    H119149   0.595   5.815   0.217 -0.5343 -0.6558 -0.3094
 6395TIP3    H219150   0.501   5.881   0.316 -0.3760  0.8306 -1.1126
 6396TIP3   OH219151   5.311   3.021   4.325 -0.3907 -0.0834 -0.2063
 6396TIP3    H119152   5.323   3.115   4.337  1.8160 -0.0824 -1.8196
 6396TIP3    H219153   5.312   2.984   4.413  3.7919  0.9616  0.3980
 6397TIP3   OH219154   4.215   4.868   4.664 -0.3008  0.7786 -0.2219
 6397TIP3    H119155   4.203   4.942   4.604 -0.1579 -0.0767 -1.3222
 6397TIP3    H219156   4.299   4.885   4.707 -1.2365  2.3247  1.1154
 6398TIP3   OH219157   3.132   4.238   0.100 -0.4033 -0.1623  0.0866
 6398TIP3    H119158   3.078   4.203   0.171 -1.8979 -0.5703 -1.1843
 6398TIP3    H219159   3.203   4.175   0.090  1.3348  1.1571  2.8061
 6399TIP3   OH219160   4.654   2.508   0.498 -0.1629 -0.1357  0.5911
 6399TIP3    H119161   4.686   2.563   0.570 -1.7048  1.0504  0.4085
 6399TIP3    H219162   4.564   2.535   0.485 -0.1532 -0.8798 -1.2923
 6400TIP3   OH219163   5.699   5.291  -0.004  0.5298  0.6362 -0.3787
 6400TIP3    H119164   5.708   5.261   0.086 -0.9149 -0.6930 -0.6165
 6400TIP3    H219165   5.783   5.271  -0.045  0.8649  0.3538  0.4268
 6401TIP3   OH219166   6.244   5.258   0.146  0.1966  0.3096  0.1963
 6401TIP3    H119167   6.156   5.296   0.157  0.0378  0.5781 -1.6677
 6401TIP3    H219168   6.270   5.284   0.058  1.6774 -0.7619  0.2858
 6402TIP3   OH219169   6.658   1.833   2.982  0.3584 -0.5860 -0.5299
 6402TIP3    H119170   6.563   1.842   2.986  0.2527 -1.8706  0.5486
 6402TIP3    H219171   6.684   1.883   2.905 -1.1776 -0.1277 -0.7741
 6403TIP3   OH219172   4.170   6.184   0.807 -0.4194 -0.3199  0.3152
 6403TIP3    H119173   4.199   6.100   0.772 -1.7449 -0.8162  0.3608
 6403TIP3    H219174   4.203   6.249   0.745  1.8631 -0.7131  1.0382
 6404TIP3   OH219175   1.566   1.372   2.877 -0.9244  0.6906 -0.1518
 6404TIP3    H119176   1.511   1.314   2.824 -1.0280  0.0591  0.6350
 6404TIP3    H219177   1.653   1.365   2.838 -1.3519  1.6539 -1.3725
 6405TIP3   OH219178   3.337   6.101   0.376  0.3176 -0.0744  0.4212
 6405TIP3    H119179   3.293   6.152   0.309 -1.0655 -1.6986  0.0148
 6405TIP3    H219180   3.402   6.049   0.328  1.2798  0.8073  0.7431
 6406TIP3   OH219181   1.442   6.095   5.114  0.5172  0.3931 -0.3709
 6406TIP3    H119182   1.357   6.087   5.070 -0.6831  1.2082  1.6600
 6406TIP3    H219183   1.479   6.176   5.081 -0.3518  0.9772  0.0449
 6407TIP3   OH219184   3.304   1.329   4.232 -0.1437 -0.3746 -0.1684
 6407TIP3    H119185   3.282   1.241   4.203  2.8333 -1.1114 -0.5240
 6407TIP3    H219186   3.284   1.329   4.326 -1.5738 -0.8966 -0.4535
 6408TIP3   OH219187   0.942   4.188   2.329 -0.4406 -0.5941 -0.1985
 6408TIP3    H119188   1.010   4.180   2.263 -0.2561  0.2498 -0.1217
 6408TIP3    H219189   0.989   4.211   2.410 -0.8194  0.2471 -0.2015
 6409TIP3   OH219190   3.972   0.736   0.202 -0.4218  0.2498  0.4568
 6409TIP3    H119191   4.033   0.662   0.203  0.0758  0.6409  1.8909
 6409TIP3    H219192   4.016   0.803   0.254 -1.3468  1.1662  0.0835
 6410TIP3   OH219193   0.915   4.238   3.410  0.0410 -0.8926  0.5009
 6410TIP3    H119194   0.874   4.324   3.401  1.2588 -0.3887 -0.7209
 6410TIP3    H219195   0.937   4.232   3.502  1.4952  0.9082  0.3352
 6411TIP3   OH219196   1.604   5.774   2.005  0.0931 -0.3993  0.2029
 6411TIP3    H119197   1.517   5.764   2.044 -0.1630 -2.6382 -0.7965
 6411TIP3    H219198   1.664   5.748   2.075 -0.1029 -0.0043  0.5220
 6412TIP3   OH219199   6.397   2.814   1.633  0.5204  0.1161  0.2363
 6412TIP3    H119200   6.357   2.771   1.708  1.6237  1.5408  1.7125
 6412TIP3    H219201   6.491   2.802   1.645  0.6957 -1.0093 -1.8110
 6413TIP3   OH219202   2.836   6.146   3.569 -0.3908 -0.0817  0.3159
 6413TIP3    H119203   2.744   6.173   3.576 -0.3497 -0.3735  3.0614
 6413TIP3    H219204   2.832   6.051   3.562 -0.3010 -0.0589 -0.0600
 6414TIP3   OH219205   0.668   5.345   4.896  0.1670 -0.6174  0.4254
 6414TIP3    H119206   0.729   5.321   4.966  1.3770  0.4774 -0.2152
 6414TIP3    H219207   0.658   5.440   4.903  0.8771 -0.3703 -1.2821
 6415TIP3   OH219208   6.629   1.176   2.441  0.1511  0.0065 -0.6332
 6415TIP3    H119209   6.664   1.261   2.466 -0.5191  0.3098 -0.6944
 6415TIP3    H219210   6.564   1.196   2.374 -2.9474 -0.0758  2.0804
 6416TIP3   OH219211   1.036   4.766   5.162 -0.1200  0.3080  1.0296
 6416TIP3    H119212   0.940   4.770   5.157 -0.1639  0.0477  1.5271
 6416TIP3    H219213   1.064   4.857   5.155 -0.3676  0.3342  0.3028
 6417TIP3   OH219214   0.619   6.197   3.606  0.3773  0.0518 -0.5950
 6417TIP3    H119215   0.683   6.268   3.617  1.2004 -0.5570 -1.2866
 6417TIP3    H219216   0.620   6.179   3.512  1.4752 -2.0313 -0.2315
 6418TIP3   OH219217   5.057   3.816   1.117  0.5579  0.0682 -0.0594
 6418TIP3    H119218   5.006   3.861   1.184  1.5291  1.4333 -0.2080
 6418TIP3    H219219   5.059   3.725   1.147 -0.8075  0.2380  0.6414
 6419TIP3   OH219220   4.570   3.571   5.361 -0.4002  0.0076 -0.2495
 6419TIP3    H119221   4.604   3.538   5.444 -1.9169 -1.5389 -0.1648
 6419TIP3    H219222   4.540   3.660   5.380  1.5391  0.6111  0.1789
 6420TIP3   OH219223   3.653   4.295   4.912 -0.1624 -0.5462  0.0849
 6420TIP3    H119224   3.601   4.214   4.903 -1.2191  0.2627 -1.6395
 6420TIP3    H219225   3.739   4.264   4.942 -0.8641 -2.1892  0.5622
 6421TIP3   OH219226   7.050   2.503   3.256  0.1668 -0.1860 -0.2601
 6421TIP3    H119227   6.997   2.562   3.201 -0.8470 -1.0241 -0.2143
 6421TIP3    H219228   7.018   2.416   3.235 -0.1531 -0.5460  1.5348
 6422TIP3   OH219229   6.486   1.610   0.685  0.1467 -0.1312  1.0067
 6422TIP3    H119230   6.391   1.601   0.693 -0.0431  1.0501  0.2761
 6422TIP3    H219231   6.521   1.535   0.733 -1.1278  0.0116  2.2039
 6423TIP3   OH219232   4.584   6.109   4.962 -0.2023  0.0757  0.4247
 6423TIP3    H119233   4.627   6.023   4.960  0.7442  0.5081  1.2643
 6423TIP3    H219234   4.573   6.132   4.869 -0.6975 -1.0440  0.1862
 6424TIP3   OH219235   1.682   6.006   1.847  0.1863  0.0922 -0.2279
 6424TIP3    H119236   1.659   5.933   1.904 -1.9408  0.8144 -0.0517
 6424TIP3    H219237   1.723   6.070   1.906  0.8901 -0.4291 -0.1403
 6425TIP3   OH219238   6.536   2.758   3.454 -0.5127 -0.4099  0.1299
 6425TIP3    H119239   6.472   2.738   3.386  0.7767 -1.3641 -0.8641
 6425TIP3    H219240   6.484   2.788   3.529 -1.9342  1.3789 -1.4889
 6426TIP3   OH219241   6.225   3.943   4.720  0.5150 -0.4701  0.2191
 6426TIP3    H119242   6.139   3.985   4.724 -0.6015 -2.6691  0.5136
 6426TIP3    H219243   6.262   3.972   4.637 -0.5172  0.4636  0.0615
 6427TIP3   OH219244   2.325   1.979   1.410  0.4679 -0.0933 -0.3083
 6427TIP3    H119245   2.391   1.955   1.474 -1.0124 -0.9145  0.9864
 6427TIP3    H219246   2.257   2.023   1.461 -0.2701  0.1816 -1.4847
 6428TIP3   OH219247   2.307   0.836   1.126 -0.3450 -0.1942 -0.0200
 6428TIP3    H119248   2.244   0.897   1.165 -0.4924  0.0212 -0.5872
 6428TIP3    H219249   2.366   0.893   1.076 -1.7377 -0.6749 -2.3140
 6429TIP3   OH219250   2.229   3.510   4.517  0.5072  0.0634  0.0593
 6429TIP3    H119251   2.157   3.494   4.455  0.6084 -1.3831  0.2701
 6429TIP3    H219252   2.306   3.474   4.473  1.0678  1.3273 -0.0292
 6430TIP3   OH219253   5.667   0.561   2.684 -0.1305  0.4801  0.8063
 6430TIP3    H119254   5.759   0.585   2.674 -0.0924 -0.0506 -0.3042
 6430TIP3    H219255   5.664   0.468   2.662 -0.7734  0.2322  1.8736
 6431TIP3   OH219256   0.939   3.219   1.642 -0.6612  0.2031 -0.1496
 6431TIP3    H119257   0.865   3.269   1.607 -1.2915 -1.0272 -0.6461
 6431TIP3    H219258   0.966   3.163   1.569 -0.4871 -0.7345  0.6202
 6432TIP3   OH219259   5.743   6.203   5.070  0.6383  0.0736 -0.5025
 6432TIP3    H119260   5.823   6.165   5.032  1.1749  0.6402  0.0431
 6432TIP3    H219261   5.773   6.279   5.119 -0.2353  0.2536 -0.2268
 6433TIP3   OH219262   2.325   2.247   0.338 -0.0786  0.1471  0.6527
 6433TIP3    H119263   2.356   2.337   0.343  1.5977 -0.4575  2.5730
 6433TIP3    H219264   2.400   2.197   0.309 -1.2156 -0.5842 -1.1894
 6434TIP3   OH219265   6.231   0.373   3.423  0.2330 -0.8407 -0.1747
 6434TIP3    H119266   6.173   0.387   3.498  0.8437 -2.8739  0.7333
 6434TIP3    H219267   6.178   0.326   3.359  0.2049 -0.6077 -0.3241
 6435TIP3   OH219268   3.949   2.011   1.283  0.3266  0.4880  0.3089
 6435TIP3    H119269   3.936   1.923   1.247  1.4400  0.8695 -1.1421
 6435TIP3    H219270   3.904   2.010   1.367 -1.8984 -0.6551 -0.8118
 6436TIP3   OH219271   0.009   3.970   3.451  0.0802 -0.3889  0.0011
 6436TIP3    H119272   0.094   3.972   3.494  0.9888  1.6920 -1.6689
 6436TIP3    H219273   0.014   3.894   3.392  1.3007  0.3748 -0.9403
 6437TIP3   OH219274   6.261   0.214   0.579 -0.3144  0.7915  0.5100
 6437TIP3    H119275   6.293   0.129   0.610 -0.7688  0.9849  1.5492
 6437TIP3    H219276   6.184   0.192   0.526  0.0686  0.5082  0.0520
 6438TIP3   OH219277   0.965   4.075   1.229  0.4240  0.3191  0.4303
 6438TIP3    H119278   0.916   4.156   1.213 -0.4843 -0.5129 -1.2659
 6438TIP3    H219279   0.982   4.039   1.142 -1.4262 -2.5986  1.1390
 6439TIP3   OH219280   0.625   1.779   0.533 -0.7437  0.2533 -0.5780
 6439TIP3    H119281   0.606   1.849   0.595 -0.3877  1.1202 -1.4281
 6439TIP3    H219282   0.544   1.730   0.526 -1.3752  1.3164 -0.8925
 6440TIP3   OH219283   4.516   5.064   3.627  0.0973 -0.1947 -0.4343
 6440TIP3    H119284   4.508   5.143   3.573  3.6935  1.2029  0.7600
 6440TIP3    H219285   4.590   5.017   3.591 -0.9305 -2.2260 -0.0572
 6441TIP3   OH219286   6.919   2.385   4.226  0.3290 -0.7534 -0.3247
 6441TIP3    H119287   6.961   2.466   4.253 -0.1712 -1.2669  2.2118
 6441TIP3    H219288   6.991   2.326   4.203  0.7226  0.0609 -1.2508
 6442TIP3   OH219289   2.533   6.172   5.920 -0.2938  0.0767 -0.2876
 6442TIP3    H119290   2.490   6.205   5.841 -0.4230  0.3063 -0.1242
 6442TIP3    H219291   2.593   6.104   5.889 -0.4768  0.0420 -0.5614
 6443TIP3   OH219292   2.416   3.345   3.869 -0.5805 -1.1210 -0.2898
 6443TIP3    H119293   2.497   3.298   3.852  0.2317  0.3801 -0.7861
 6443TIP3    H219294   2.389   3.378   3.783 -1.2788 -0.9288 -0.0065
 6444TIP3   OH219295   0.870   0.883   2.701  0.1384  0.0179 -0.4035
 6444TIP3    H119296   0.918   0.928   2.771 -0.7631 -1.0408  0.9598
 6444TIP3    H219297   0.937   0.839   2.650  0.9011  1.6048 -0.8276
 6445TIP3   OH219298   4.194   2.429   1.766 -0.3556 -0.4712  0.0880
 6445TIP3    H119299   4.269   2.397   1.717  0.0239  1.8977 -1.0344
 6445TIP3    H219300   4.123   2.434   1.702 -0.3403  1.0243  0.1499
 6446TIP3   OH219301   6.756   0.228   2.621 -0.4919 -0.2227  0.2930
 6446TIP3    H119302   6.724   0.180   2.545  0.4245  0.0736 -0.3054
 6446TIP3    H219303   6.707   0.309   2.621 -0.5813 -0.2768  0.0807
 6447TIP3   OH219304   6.138   1.942   0.157  0.1901 -0.8999  0.4858
 6447TIP3    H119305   6.167   1.901   0.076  1.5765  0.0881  0.4492
 6447TIP3    H219306   6.130   2.035   0.136 -1.4215 -0.8879  0.9639
 6448TIP3   OH219307   2.221   3.594   3.338  0.5479  0.0384  0.1465
 6448TIP3    H119308   2.242   3.600   3.431  1.3109 -2.6029  0.2038
 6448TIP3    H219309   2.272   3.665   3.298  2.5264 -0.5948  1.4110
 6449TIP3   OH219310   6.689   6.399   0.862 -0.5011 -0.2533 -0.3351
 6449TIP3    H119311   6.778   6.414   0.832 -0.8627 -0.0559 -1.3574
 6449TIP3    H219312   6.695   6.401   0.958  0.6372 -0.5959 -0.3901
 6450TIP3   OH219313   3.184   5.499   5.266 -0.0472 -0.3512 -0.2809
 6450TIP3    H119314   3.153   5.555   5.195  0.8612  0.8526  0.2360
 6450TIP3    H219315   3.161   5.410   5.238  2.3492 -0.2251 -3.2745
 6451TIP3   OH219316   6.691   0.478   3.189 -0.2199 -0.4139 -0.0056
 6451TIP3    H119317   6.595   0.476   3.181 -0.4606 -2.3902  2.2871
 6451TIP3    H219318   6.707   0.529   3.268  0.7355  0.6227 -0.8292
 6452TIP3   OH219319   0.819   5.932   4.408 -0.4948 -0.3493 -0.0547
 6452TIP3    H119320   0.780   5.852   4.373 -1.7270 -0.4589  1.4751
 6452TIP3    H219321   0.749   5.997   4.400  0.0026  0.2016  0.0462
 6453TIP3   OH219322   1.387   0.223   0.205 -0.4556 -0.0586 -0.5726
 6453TIP3    H119323   1.452   0.161   0.238  0.9198  1.0265 -1.1442
 6453TIP3    H219324   1.334   0.171   0.145  0.0357 -0.9230 -0.2798
 6454TIP3   OH219325   1.633   2.993   1.496  0.6226  0.0761 -0.0906
 6454TIP3    H119326   1.648   3.088   1.496  0.0094  0.2110  1.6168
 6454TIP3    H219327   1.557   2.981   1.553 -0.0646 -1.3498 -1.2680
 6455TIP3   OH219328   4.870   5.571   2.961  0.1698  0.4178  0.6501
 6455TIP3    H119329   4.960   5.593   2.936  0.6613 -0.3760  1.6494
 6455TIP3    H219330   4.850   5.630   3.033 -0.0216  0.4152  0.5996
 6456TIP3   OH219331   3.437   4.931   2.561  0.9216  0.0377 -0.5226
 6456TIP3    H119332   3.472   4.900   2.478  0.2676 -0.2364 -0.7027
 6456TIP3    H219333   3.428   5.026   2.549 -1.8514 -0.2782 -1.8518
 6457TIP3   OH219334   5.892   6.469   4.148 -0.0474  0.7390  0.2985
 6457TIP3    H119335   5.834   6.393   4.151  0.0275  0.7012  0.8359
 6457TIP3    H219336   5.851   6.527   4.084 -0.1376  0.2748 -0.0668
 6458TIP3   OH219337   3.538   5.179   5.117  0.4230 -0.3658 -0.1448
 6458TIP3    H119338   3.506   5.101   5.162 -1.3648 -0.1830 -1.0079
 6458TIP3    H219339   3.633   5.170   5.119  0.2916 -3.2284 -1.3003
 6459TIP3   OH219340   0.539   3.562   5.660  0.5707 -0.4858  0.0326
 6459TIP3    H119341   0.502   3.632   5.608  0.1976 -0.5943  0.1514
 6459TIP3    H219342   0.492   3.483   5.633  1.1345 -0.7359 -0.2572
 6460TIP3   OH219343   3.181   2.964   4.174 -0.0387 -0.3521  0.0717
 6460TIP3    H119344   3.184   3.050   4.216 -1.2917 -0.1863 -0.1388
 6460TIP3    H219345   3.272   2.947   4.148  0.0765  1.3683 -0.7947
 6461TIP3   OH219346   2.925   3.047   1.683 -0.1669 -0.4099  0.3452
 6461TIP3    H119347   2.932   3.129   1.732 -0.5323 -0.6747  0.8472
 6461TIP3    H219348   2.838   3.050   1.643 -0.4595 -0.8552  0.9310
 6462TIP3   OH219349   2.443   4.419   3.202 -0.0731 -0.0969  1.1918
 6462TIP3    H119350   2.425   4.497   3.150  1.4848  0.1109  0.9203
 6462TIP3    H219351   2.358   4.376   3.212 -1.0280  1.8095  1.6519
 6463TIP3   OH219352   0.459   6.390   0.573 -0.2247  0.4594  0.3989
 6463TIP3    H119353   0.480   6.483   0.560 -0.8068  0.7620  1.4589
 6463TIP3    H219354   0.463   6.352   0.486  2.1318  1.0176  0.2133
 6464TIP3   OH219355   2.228   1.246   5.476 -0.1434 -0.7632  0.2762
 6464TIP3    H119356   2.257   1.310   5.411 -0.7552 -0.6603  0.0903
 6464TIP3    H219357   2.238   1.290   5.560 -3.6259  0.9041 -0.0046
 6465TIP3   OH219358   3.020   2.883   3.655  0.2854  0.1694  0.6314
 6465TIP3    H119359   3.059   2.846   3.575 -0.5206 -0.0208  0.3130
 6465TIP3    H219360   2.974   2.809   3.695 -0.5276  0.5927  0.5002
 6466TIP3   OH219361   6.609   2.895   5.490 -0.0143 -0.3196 -0.4749
 6466TIP3    H119362   6.541   2.961   5.482  0.3058 -0.0124 -0.7414
 6466TIP3    H219363   6.617   2.879   5.584 -0.6202 -0.5362 -0.4634
 6467TIP3   OH219364   0.999   6.735   2.623 -0.0283  0.3075  0.3684
 6467TIP3    H119365   0.947   6.698   2.553  0.7415  2.0404 -1.2234
 6467TIP3    H219366   1.082   6.687   2.619 -1.0835 -1.8876  2.3707
 6468TIP3   OH219367   1.740   4.519   5.856 -0.0848 -0.4517 -0.1482
 6468TIP3    H119368   1.774   4.429   5.851  0.4936 -0.2524  0.1259
 6468TIP3    H219369   1.810   4.569   5.897  0.0743  0.3763 -1.3769
 6469TIP3   OH219370   4.369   4.161   0.616  0.1248  0.3783  0.4411
 6469TIP3    H119371   4.372   4.074   0.655  0.0991  0.5513  0.8275
 6469TIP3    H219372   4.330   4.217   0.683 -1.0413  0.4484 -0.2531
 6470TIP3   OH219373   1.095   5.280   3.551 -0.1970 -0.6291  0.0499
 6470TIP3    H119374   1.148   5.211   3.513  0.7174  0.3730 -0.5395
 6470TIP3    H219375   1.107   5.355   3.493  0.1976  0.5391  1.5674
 6471TIP3   OH219376   5.032   6.730   0.118 -0.1486 -0.1149  0.6365
 6471TIP3    H119377   4.982   6.714   0.037 -0.2754  1.9348  0.2444
 6471TIP3    H219378   5.029   6.647   0.165  0.0231 -1.4065 -1.5067
 6472TIP3   OH219379   0.685   1.828   3.560 -0.1757 -0.0381 -0.1346
 6472TIP3    H119380   0.743   1.813   3.485 -0.1544  0.8385 -0.3074
 6472TIP3    H219381   0.732   1.893   3.613 -2.3024  3.1381 -1.8245
 6473TIP3   OH219382   5.570   0.050   0.428 -0.2691 -0.1542 -0.0322
 6473TIP3    H119383   5.652   0.006   0.449 -0.9086 -2.1939 -1.4770
 6473TIP3    H219384   5.529   0.068   0.513  0.3940 -1.6767  0.6372
 6474TIP3   OH219385   2.575   4.153   1.331 -0.0124  0.3512 -0.0864
 6474TIP3    H119386   2.618   4.179   1.412 -2.1165 -1.3065  1.6761
 6474TIP3    H219387   2.564   4.058   1.338 -1.3263  0.3243 -1.7612
 6475TIP3   OH219388   2.724   5.992   0.082 -0.2940  0.1887  0.0580
 6475TIP3    H119389   2.795   6.051   0.109  0.5100 -0.5535 -0.3812
 6475TIP3    H219390   2.698   5.947   0.162 -2.1100  2.3309  0.7669
 6476TIP3   OH219391   3.342   1.027   1.750 -0.0317 -0.3805 -0.2531
 6476TIP3    H119392   3.269   1.088   1.741  0.1427  0.3023  2.1117
 6476TIP3    H219393   3.303   0.941   1.736 -1.5181 -0.0847  1.5631
 6477TIP3   OH219394   3.067   2.572   4.627 -0.0339 -0.1304  0.0284
 6477TIP3    H119395   3.135   2.505   4.621 -0.4060 -0.8530  2.6672
 6477TIP3    H219396   3.065   2.612   4.540  2.2738 -1.5063 -0.7466
 6478TIP3   OH219397   6.479   3.517   4.390 -0.2408 -0.2164 -0.2525
 6478TIP3    H119398   6.420   3.499   4.463 -0.6002 -0.1528 -0.5273
 6478TIP3    H219399   6.556   3.557   4.431 -1.7301  2.9128 -0.1621
 6479TIP3   OH219400   3.189   0.909   1.012 -0.0593  0.1185 -0.0093
 6479TIP3    H119401   3.207   0.949   1.097  1.0567  0.1735 -0.2470
 6479TIP3    H219402   3.271   0.921   0.963 -0.1865 -1.1743 -0.5864
 6480TIP3   OH219403   5.011   5.352   4.055  0.3627 -0.2573  0.3798
 6480TIP3    H119404   4.949   5.385   4.119 -0.8537  0.7636 -1.2567
 6480TIP3    H219405   5.084   5.414   4.058 -0.5106  0.8548 -0.4639
 6481TIP3   OH219406   0.591   3.819   3.589  0.5144 -0.1790 -0.1996
 6481TIP3    H119407   0.646   3.846   3.662  0.6316 -1.3401  0.1746
 6481TIP3    H219408   0.633   3.739   3.556 -0.7213 -0.8655 -0.1514
 6482TIP3   OH219409   0.986   4.455   0.465 -0.2101  0.1437  0.2403
 6482TIP3    H119410   1.070   4.411   0.474  1.5540  3.4136  1.3506
 6482TIP3    H219411   0.922   4.392   0.498  1.5375 -2.8963 -1.6454
 6483TIP3   OH219412   2.322   3.697   2.461 -0.0464  0.0747 -0.0112
 6483TIP3    H119413   2.362   3.708   2.375  1.1497 -0.3347  0.4666
 6483TIP3    H219414   2.314   3.602   2.472 -1.2873  0.1533 -0.1478
 6484TIP3   OH219415   3.315   0.667   4.525  0.6850  1.0499 -0.3399
 6484TIP3    H119416   3.335   0.573   4.530  0.9369  1.1666  1.2636
 6484TIP3    H219417   3.378   0.702   4.462  0.7625  0.1930 -0.7521
 6485TIP3   OH219418   0.373   5.971   0.419  0.0657 -0.3680  0.3253
 6485TIP3    H119419   0.417   6.017   0.491  0.2251 -0.1252  0.0733
 6485TIP3    H219420   0.347   5.887   0.457 -0.0199 -0.1651  0.7224
 6486TIP3   OH219421   0.283   1.935   1.985  0.5376 -0.2337 -0.0595
 6486TIP3    H119422   0.280   1.993   2.061  0.6696 -1.1217  0.6307
 6486TIP3    H219423   0.365   1.887   1.994  0.9729  0.2305 -1.2144
 6487TIP3   OH219424   0.790   6.218   5.419 -0.5229  0.2069  0.4273
 6487TIP3    H119425   0.829   6.291   5.468  1.9218 -0.6965 -0.0174
 6487TIP3    H219426   0.865   6.166   5.392 -2.1746 -2.2940  0.4095
 6488TIP3   OH219427   7.014   3.250   3.483  0.1188  0.1017  0.1939
 6488TIP3    H119428   7.054   3.189   3.545  1.5287  0.7430 -0.0576
 6488TIP3    H219429   7.065   3.330   3.491 -1.9509  1.4398  0.8152
 6489TIP3   OH219430   3.780   2.640   5.476  0.0780 -0.2718 -0.1321
 6489TIP3    H119431   3.702   2.591   5.452  0.5954 -0.4410 -1.5536
 6489TIP3    H219432   3.849   2.574   5.482  0.3375  0.0116  0.0556
 6490TIP3   OH219433   3.583   1.285   1.518  0.0725  0.5272  0.0849
 6490TIP3    H119434   3.673   1.298   1.546  0.3383 -0.8985 -0.0467
 6490TIP3    H219435   3.531   1.337   1.580  0.9079  0.4903  0.8297
 6491TIP3   OH219436   6.358   6.323   2.168 -0.0841 -0.5850  0.0348
 6491TIP3    H119437   6.400   6.244   2.134 -0.9784 -1.6420  1.2872
 6491TIP3    H219438   6.412   6.348   2.243 -0.0904 -0.3096 -0.0538
 6492TIP3   OH219439   5.973   3.017   3.208  0.1467 -0.4688  0.5612
 6492TIP3    H119440   6.053   3.070   3.207  0.2323 -0.5773 -0.8138
 6492TIP3    H219441   5.905   3.077   3.176  0.2240 -1.1295 -0.9033
 6493TIP3   OH219442   2.524   4.516   2.695  0.8695  0.3459 -0.1681
 6493TIP3    H119443   2.556   4.463   2.768 -1.6903 -1.4814 -0.1929
 6493TIP3    H219444   2.473   4.585   2.736 -0.4620 -0.6068 -0.1220
 6494TIP3   OH219445   3.196   6.798   3.782  0.5193  0.5665  0.3822
 6494TIP3    H119446   3.266   6.733   3.787  0.3565  0.1528 -1.7555
 6494TIP3    H219447   3.121   6.749   3.749  0.3215  1.7671 -1.0177
 6495TIP3   OH219448   0.537   4.396   1.386 -0.2413 -0.3464 -0.6260
 6495TIP3    H119449   0.532   4.438   1.472 -1.9113 -1.3187 -0.1916
 6495TIP3    H219450   0.519   4.466   1.323  0.2661  0.2265 -0.1426
 6496TIP3   OH219451   5.053   5.401   0.036  0.2394 -0.1899 -0.2157
 6496TIP3    H119452   5.070   5.372  -0.053  0.3006  1.4605 -0.7832
 6496TIP3    H219453   5.081   5.328   0.091  0.3962 -1.1577 -1.5253
 6497TIP3   OH219454   6.728   4.683   1.436  0.3786  0.1715  0.2818
 6497TIP3    H119455   6.709   4.726   1.519 -0.6731 -0.9075  0.6263
 6497TIP3    H219456   6.647   4.692   1.385  0.0568 -1.5665  0.4509
 6498TIP3   OH219457   3.499   6.751   4.770 -0.5549 -0.4103  0.3871
 6498TIP3    H119458   3.475   6.677   4.714 -1.4592  0.7303 -0.8142
 6498TIP3    H219459   3.423   6.765   4.825 -0.1853 -0.6769  0.9781
 6499TIP3   OH219460   2.962   6.042   1.860  0.2755  0.1040 -0.5859
 6499TIP3    H119461   2.895   6.077   1.802 -0.6108  0.7188  0.7713
 6499TIP3    H219462   2.955   5.947   1.849 -1.8918  0.0660  0.6481
 6500TIP3   OH219463   6.759   5.239   0.640 -0.2633  0.3541  0.5260
 6500TIP3    H119464   6.800   5.203   0.561 -0.3089 -0.5489  0.9090
 6500TIP3    H219465   6.817   5.211   0.711 -1.5476 -0.9600  1.0824
 6501TIP3   OH219466   7.099   2.873   0.743 -0.3632  0.6403  0.3926
 6501TIP3    H119467   7.168   2.890   0.680 -0.2273 -0.1611  0.3050
 6501TIP3    H219468   7.145   2.852   0.824 -0.4385 -1.1286  0.0205
 6502TIP3   OH219469   6.147   5.414   4.155 -0.2563 -0.6251  0.0393
 6502TIP3    H119470   6.193   5.358   4.092 -0.8238 -0.5446 -0.4507
 6502TIP3    H219471   6.182   5.502   4.139 -0.6271 -0.5496 -0.3897
 6503TIP3   OH219472   3.351   1.780   2.104 -0.1189 -0.3431  0.7068
 6503TIP3    H119473   3.429   1.779   2.049 -0.2810  2.0589  0.3260
 6503TIP3    H219474   3.284   1.736   2.051  0.2953 -0.0179 -0.1057
 6504TIP3   OH219475   3.878   5.215   1.798  0.2052  0.0011 -0.1158
 6504TIP3    H119476   3.963   5.241   1.760  0.8086  0.6794  1.5894
 6504TIP3    H219477   3.824   5.294   1.790  0.6823  0.5058  1.3158
 6505TIP3   OH219478   3.761   4.432   5.603 -0.0386  0.4876  0.6883
 6505TIP3    H119479   3.801   4.357   5.557 -0.1890  0.1493  1.1036
 6505TIP3    H219480   3.835   4.482   5.636  0.0600  0.3499  0.6807
 6506TIP3   OH219481   5.638   0.566   2.106 -0.2196  0.2050  0.1257
 6506TIP3    H119482   5.567   0.600   2.052  1.2494  0.5771 -1.7021
 6506TIP3    H219483   5.619   0.473   2.115 -0.3046  0.0347 -1.4648
 6507TIP3   OH219484   0.921   6.070   2.750  0.2325  0.1952 -0.2331
 6507TIP3    H119485   0.843   6.119   2.777  0.0699  0.1952 -0.6942
 6507TIP3    H219486   0.887   5.986   2.720  0.3842  0.2916 -0.6772
 6508TIP3   OH219487   1.911   5.016   4.085  0.2590  0.0640 -0.0808
 6508TIP3    H119488   1.823   5.048   4.107  0.3601 -1.1306  2.3499
 6508TIP3    H219489   1.970   5.079   4.126  0.5309 -0.0239 -0.3356
 6509TIP3   OH219490   2.886   3.516   3.147  0.3474 -0.6188 -0.1100
 6509TIP3    H119491   2.857   3.427   3.128 -0.7626 -0.9076  2.5498
 6509TIP3    H219492   2.816   3.553   3.202  2.9082  0.2168  2.8602
 6510TIP3   OH219493   3.653   5.721   0.901  0.1962  0.0292  0.4479
 6510TIP3    H119494   3.587   5.651   0.910 -0.8755  0.9363 -0.1040
 6510TIP3    H219495   3.621   5.791   0.957  0.3547  0.7289 -0.3295
 6511TIP3   OH219496   2.329   1.758   5.556  0.5886  0.0230  0.5664
 6511TIP3    H119497   2.298   1.822   5.621  0.0685  0.5733 -0.2013
 6511TIP3    H219498   2.358   1.812   5.483  0.0035 -0.6266 -0.1593
 6512TIP3   OH219499   6.189   3.369   0.265  0.0791  0.8503  0.3592
 6512TIP3    H119500   6.220   3.283   0.238  0.6795  0.6643  1.5522
 6512TIP3    H219501   6.161   3.357   0.356 -2.8312  1.1987 -0.3795
 6513TIP3   OH219502   5.066   3.291   5.654  0.2809 -0.5020 -0.5523
 6513TIP3    H119503   5.082   3.372   5.604  0.3272  0.1329  0.4616
 6513TIP3    H219504   5.092   3.312   5.743  0.2859 -1.6514 -0.2662
 6514TIP3   OH219505   6.536   5.763   2.099  0.5927  0.3183 -0.5697
 6514TIP3    H119506   6.448   5.793   2.079 -0.1767 -0.6998  1.0493
 6514TIP3    H219507   6.530   5.729   2.189  2.6676  0.3809 -0.3589
 6515TIP3   OH219508   7.064   5.653   1.883  0.1510 -0.0785 -0.1844
 6515TIP3    H119509   6.993   5.673   1.944 -1.1196  0.2030 -1.6945
 6515TIP3    H219510   7.037   5.573   1.839  0.9071 -0.1269 -0.5861
 6516TIP3   OH219511   4.666   6.736   1.392  0.3151 -0.5607  0.4585
 6516TIP3    H119512   4.632   6.654   1.357  0.7164 -1.0154  1.1273
 6516TIP3    H219513   4.760   6.734   1.374  0.4116 -0.4837  0.9428
 6517TIP3   OH219514   5.152   2.156   0.453 -0.0803  0.4757  0.5676
 6517TIP3    H119515   5.074   2.103   0.436  0.4079  0.5478 -2.2650
 6517TIP3    H219516   5.118   2.232   0.500 -1.8974  0.8380 -1.1673
 6518TIP3   OH219517   6.357   6.623   4.149  0.4250 -0.5573  0.1175
 6518TIP3    H119518   6.372   6.681   4.224 -1.6578  0.6102 -0.2708
 6518TIP3    H219519   6.383   6.676   4.073 -1.0422 -0.2516 -0.2058
 6519TIP3   OH219520   4.346   0.372   4.241 -0.0828 -0.3005  0.2839
 6519TIP3    H119521   4.332   0.283   4.274 -2.1425 -0.2368 -0.3111
 6519TIP3    H219522   4.378   0.420   4.317  2.3928 -1.7929  0.3126
 6520TIP3   OH219523   3.546   1.871   5.800  0.3004 -0.4256  0.2631
 6520TIP3    H119524   3.597   1.923   5.862  0.0740 -1.2008  1.1198
 6520TIP3    H219525   3.602   1.866   5.722  0.6717  0.3937  0.4615
 6521TIP3   OH219526   1.496   2.394   5.114 -0.1354  0.1983  0.2059
 6521TIP3    H119527   1.513   2.479   5.075 -1.2885 -0.1642 -1.1579
 6521TIP3    H219528   1.563   2.385   5.183  0.6146  1.7583 -0.2815
 6522TIP3   OH219529   2.726   4.640   3.973 -0.5303 -0.6142 -0.0083
 6522TIP3    H119530   2.732   4.548   3.999 -1.7453 -0.2045  1.9241
 6522TIP3    H219531   2.646   4.672   4.014  0.4594  1.6080  0.4026
 6523TIP3   OH219532   2.370   1.250   4.916 -0.4289 -0.4107 -0.1131
 6523TIP3    H119533   2.337   1.187   4.852 -0.3295  0.5263 -1.1160
 6523TIP3    H219534   2.316   1.329   4.902  1.7319  0.9544 -1.3817
 6524TIP3   OH219535   6.629   6.204   1.292  0.0969  0.3426  0.4572
 6524TIP3    H119536   6.718   6.238   1.282  0.1809  1.6533  4.1318
 6524TIP3    H219537   6.579   6.278   1.327 -1.6376 -1.1984  1.4407
 6525TIP3   OH219538   3.446   1.865   4.356 -0.3414  0.6890  0.0578
 6525TIP3    H119539   3.519   1.804   4.362 -0.1339  1.0200  1.1950
 6525TIP3    H219540   3.452   1.901   4.268 -0.0276 -0.3786 -0.3722
 6526TIP3   OH219541   5.643   3.045   3.520 -0.5374  0.1927  0.4348
 6526TIP3    H119542   5.682   2.974   3.469 -1.5520 -0.6259  0.7438
 6526TIP3    H219543   5.694   3.123   3.497  1.2089 -0.7917  0.7764
 6527TIP3   OH219544   3.515   4.052   4.911  0.2463 -0.2936  0.1706
 6527TIP3    H119545   3.451   4.047   4.840 -1.7059  0.5382  1.7769
 6527TIP3    H219546   3.541   3.962   4.928  0.5157 -0.5264 -1.3651
 6528TIP3   OH219547   1.153   2.648   2.766 -0.6837 -0.4408  0.1626
 6528TIP3    H119548   1.174   2.724   2.821  1.2832 -1.2712  0.6398
 6528TIP3    H219549   1.228   2.590   2.775 -1.9423 -2.2710 -0.5511
 6529TIP3   OH219550   0.092   0.471   1.971 -0.8074  0.4316 -0.2438
 6529TIP3    H119551   0.124   0.559   1.951 -0.6880  0.3082 -0.6104
 6529TIP3    H219552   0.048   0.443   1.892  0.1193 -0.2663 -0.5360
 6530TIP3   OH219553   4.232   0.946   2.627  0.5710 -0.6219  0.0897
 6530TIP3    H119554   4.288   0.933   2.550  0.5771  2.3929 -0.5467
 6530TIP3    H219555   4.208   1.039   2.624 -2.5876 -1.2371  1.6440
 6531TIP3   OH219556   6.934   5.230   3.551  0.1657 -0.4619 -0.0462
 6531TIP3    H119557   6.905   5.143   3.525 -0.9032 -0.1960  0.1961
 6531TIP3    H219558   7.026   5.233   3.526 -0.5289 -0.5199 -3.0613
 6532TIP3   OH219559   5.651   5.528   4.342 -0.1757  0.5224  0.4615
 6532TIP3    H119560   5.679   5.617   4.322 -1.1300  0.4883 -1.2282
 6532TIP3    H219561   5.555   5.531   4.336 -0.4335 -0.0575  3.0001
 6533TIP3   OH219562   4.450   2.970   2.415  0.4420  1.0657  0.2165
 6533TIP3    H119563   4.400   3.052   2.410 -0.2389  0.8301  2.2382
 6533TIP3    H219564   4.483   2.957   2.326 -0.8688  2.6319 -0.5615
 6534TIP3   OH219565   7.057   3.007   2.782 -0.1200  0.3199 -0.7459
 6534TIP3    H119566   7.025   3.098   2.783  2.4047  1.2890 -0.7777
 6534TIP3    H219567   7.110   2.999   2.861 -0.8329 -1.3716 -0.4085
 6535TIP3   OH219568   2.063   5.216   2.580 -0.1006 -0.5671 -0.3348
 6535TIP3    H119569   1.973   5.248   2.582 -0.2598 -1.0168  0.6838
 6535TIP3    H219570   2.116   5.291   2.608 -0.2636 -0.5797  0.0150
 6536TIP3   OH219571   4.544   4.922   1.935 -0.3306 -0.2039 -0.0591
 6536TIP3    H119572   4.471   4.860   1.942 -0.0633 -0.4144  0.9852
 6536TIP3    H219573   4.506   5.007   1.958 -0.9140  0.2436 -2.3544
 6537TIP3   OH219574   6.447   5.694   1.570 -0.1891 -0.1619 -0.0218
 6537TIP3    H119575   6.495   5.617   1.538 -1.1395 -1.0476  0.6400
 6537TIP3    H219576   6.478   5.706   1.659 -2.0023 -1.4634  0.8333
 6538TIP3   OH219577   3.797   1.133   1.694 -0.4795  0.1274 -0.0994
 6538TIP3    H119578   3.821   1.214   1.649 -1.1972  0.6759  0.4789
 6538TIP3    H219579   3.792   1.158   1.786 -1.1509 -0.4592  0.0284
 6539TIP3   OH219580   0.141   0.019   4.511 -0.1005  0.0261 -0.0165
 6539TIP3    H119581   0.226   0.062   4.511  0.3516 -0.5437  3.6986
 6539TIP3    H219582   0.078   0.092   4.504  0.7066  1.0698  2.4627
 6540TIP3   OH219583   0.161   5.503   5.033 -0.5330 -0.1698  0.1127
 6540TIP3    H119584   0.144   5.416   5.070  1.2130 -0.6682 -0.1865
 6540TIP3    H219585   0.085   5.555   5.060 -0.7583 -1.2981  1.8346
 6541TIP3   OH219586   1.601   2.845   0.000  0.3988 -0.0884 -0.0665
 6541TIP3    H119587   1.549   2.892   0.065 -1.2755 -2.2553  0.2824
 6541TIP3    H219588   1.665   2.909  -0.031 -0.5297  1.8057  1.7096
 6542TIP3   OH219589   2.579   0.187   5.741  0.3299 -0.3239 -0.7207
 6542TIP3    H119590   2.501   0.241   5.743 -0.8834 -1.9762  2.0221
 6542TIP3    H219591   2.548   0.100   5.717  1.6179 -0.6362 -1.3449
 6543TIP3   OH219592   0.748   5.838   4.885 -0.2233 -0.1727 -0.3807
 6543TIP3    H119593   0.777   5.918   4.843  1.8970 -0.6568  0.0649
 6543TIP3    H219594   0.667   5.862   4.930  0.2392  1.6358 -0.4666
 6544TIP3   OH219595   4.662   5.808   1.865  0.3555  0.0920 -0.3029
 6544TIP3    H119596   4.576   5.821   1.904  0.7980  3.3099 -0.0995
 6544TIP3    H219597   4.668   5.876   1.797  3.2236  1.0269  0.7244
 6545TIP3   OH219598   2.645   0.983   1.545 -0.3550 -0.2159 -0.4210
 6545TIP3    H119599   2.660   0.889   1.535 -0.9819 -0.0442 -4.1490
 6545TIP3    H219600   2.716   1.024   1.497 -1.3816  1.1324 -0.8331
 6546TIP3   OH219601   6.312   4.830   1.793  0.0382 -0.2325  0.0958
 6546TIP3    H119602   6.308   4.735   1.781 -0.0791 -0.2370  0.1709
 6546TIP3    H219603   6.265   4.866   1.718  0.7079 -0.2079 -0.3285
 6547TIP3   OH219604   2.874   0.328   2.516  0.4281 -0.2091 -0.0252
 6547TIP3    H119605   2.779   0.314   2.521  0.3936 -0.5250 -1.2738
 6547TIP3    H219606   2.887   0.372   2.433  1.5276 -1.6141 -0.6273
 6548TIP3   OH219607   6.461   2.263   1.240 -0.7527  0.2818  0.3655
 6548TIP3    H119608   6.489   2.173   1.259  0.8618  0.6706 -0.0225
 6548TIP3    H219609   6.511   2.287   1.162 -1.8894  1.1959 -0.1012
 6549TIP3   OH219610   3.549   1.277   4.918  0.3998 -0.2451 -0.3617
 6549TIP3    H119611   3.580   1.187   4.911  1.0025  0.0833 -2.4741
 6549TIP3    H219612   3.628   1.328   4.938 -0.0403 -0.1983  1.5012
 6550TIP3   OH219613   3.603   0.380   1.850 -0.3581  0.4050  0.7542
 6550TIP3    H119614   3.669   0.426   1.797  0.6284 -0.5455  1.1222
 6550TIP3    H219615   3.554   0.328   1.787  1.2903 -1.2989  0.8007
 6551TIP3   OH219616   0.098   3.390   4.431  0.1943 -0.6865 -0.1272
 6551TIP3    H119617   0.168   3.406   4.494  2.3852 -0.9819 -2.2874
 6551TIP3    H219618   0.044   3.322   4.470  1.1259 -0.4591  1.6249
 6552TIP3   OH219619   5.438   1.965   1.714  0.4600  0.1800  0.9127
 6552TIP3    H119620   5.529   1.976   1.739  0.5354 -2.5268  2.2101
 6552TIP3    H219621   5.412   1.882   1.754 -1.9891 -0.1504 -1.0858
 6553TIP3   OH219622   6.827   0.698   4.460  0.3388 -0.2333  0.2064
 6553TIP3    H119623   6.862   0.670   4.544  0.5751 -0.2872  0.0908
 6553TIP3    H219624   6.839   0.622   4.403  0.4544 -0.0938  0.0442
 6554TIP3   OH219625   5.597   5.635   3.131  0.3397  0.2541 -0.4722
 6554TIP3    H119626   5.673   5.602   3.179 -0.6492  1.4475  2.1225
 6554TIP3    H219627   5.633   5.674   3.051  2.1493 -1.2460 -0.4457
 6555TIP3   OH219628   4.210   2.662   5.868  0.6532 -0.1492 -0.5753
 6555TIP3    H119629   4.172   2.631   5.785  2.2937 -1.7095 -0.7766
 6555TIP3    H219630   4.290   2.707   5.842 -0.2606  1.9181 -0.0288
 6556TIP3   OH219631   3.250   3.542   0.100 -0.8158  0.2848  0.4432
 6556TIP3    H119632   3.158   3.523   0.116 -1.2782  0.8945 -1.2508
 6556TIP3    H219633   3.249   3.603   0.027  0.8878  1.3948  1.2801
 6557TIP3   OH219634   3.683   4.628   4.595 -0.3963  0.0070  0.5472
 6557TIP3    H119635   3.634   4.708   4.616 -1.6187 -0.0729 -1.7084
 6557TIP3    H219636   3.616   4.563   4.576  0.5935 -0.9000  0.0757
 6558TIP3   OH219637   5.114   0.137   1.017 -0.0899 -0.4481 -0.3200
 6558TIP3    H119638   5.062   0.151   1.096  0.1579  2.4360 -0.5538
 6558TIP3    H219639   5.180   0.073   1.042 -0.3091  0.0465  1.6755
 6559TIP3   OH219640   3.780   3.163   3.891  0.4662 -0.2051  0.0062
 6559TIP3    H119641   3.792   3.163   3.986  0.4529  2.2849  0.0721
 6559TIP3    H219642   3.701   3.215   3.877  2.0203  1.9597 -1.4335
 6560TIP3   OH219643   4.329   2.752   0.995 -0.2274  0.3066  0.1648
 6560TIP3    H119644   4.390   2.793   1.056  1.7827 -0.3762 -1.2562
 6560TIP3    H219645   4.318   2.663   1.030 -1.1184  0.6852  0.8815
 6561TIP3   OH219646   4.060   5.006   0.442 -0.5151 -0.3275  0.3392
 6561TIP3    H119647   4.135   5.064   0.428 -1.3333  0.8918  0.8862
 6561TIP3    H219648   4.050   5.002   0.537 -0.4591 -1.4141  0.3165
 6562TIP3   OH219649   1.699   4.337   2.103  0.5379  0.1420 -0.0905
 6562TIP3    H119650   1.716   4.390   2.025  0.0544  1.1758  0.4893
 6562TIP3    H219651   1.765   4.365   2.166  1.4006 -1.2138 -0.3421
 6563TIP3   OH219652   6.095   4.232   1.995  0.3864  0.3211  0.4131
 6563TIP3    H119653   6.070   4.263   2.082  0.3636 -0.0357  0.5367
 6563TIP3    H219654   6.156   4.298   1.963 -0.6916  1.2129  0.1063
 6564TIP3   OH219655   5.655   4.795   3.347 -0.5382 -0.2379 -0.4039
 6564TIP3    H119656   5.659   4.854   3.423  1.9009 -1.2883  0.3877
 6564TIP3    H219657   5.737   4.809   3.301 -0.5597 -1.9145 -1.0317
 6565TIP3   OH219658   3.895   0.453   3.217 -0.4943  0.3439 -0.8524
 6565TIP3    H119659   3.837   0.405   3.158 -0.7307 -0.9885  0.4039
 6565TIP3    H219660   3.847   0.532   3.240 -1.0182  0.1500 -1.2692
 6566TIP3   OH219661   2.846   5.427   4.165 -0.6546 -0.0269  0.4136
 6566TIP3    H119662   2.842   5.522   4.159 -0.0932 -0.0853 -1.5437
 6566TIP3    H219663   2.938   5.408   4.184 -0.9116 -0.1794  1.5953
 6567TIP3   OH219664   2.544   0.278   4.354  0.8084 -0.0239  0.1299
 6567TIP3    H119665   2.525   0.231   4.272 -1.2010 -0.7805  0.9822
 6567TIP3    H219666   2.623   0.236   4.387  1.6227  0.2458 -1.3535
 6568TIP3   OH219667   3.546   2.538   2.867 -0.2256 -0.1174 -0.1784
 6568TIP3    H119668   3.524   2.484   2.792 -0.8314  1.8418 -1.4919
 6568TIP3    H219669   3.546   2.478   2.942 -2.2650 -1.6480 -1.3267
 6569TIP3   OH219670   5.922   3.004   1.971  0.0167 -0.6154  0.5523
 6569TIP3    H119671   5.910   3.099   1.976 -1.4715 -0.8628  3.1062
 6569TIP3    H219672   6.017   2.992   1.977  0.1014  0.6662  2.8192
 6570TIP3   OH219673   6.723   5.796   4.477 -0.2414 -0.0461 -0.1709
 6570TIP3    H119674   6.696   5.825   4.390 -0.8631 -2.0966 -0.7325
 6570TIP3    H219675   6.702   5.702   4.478  3.0817 -0.9170  0.8563
 6571TIP3   OH219676   3.147   3.534   3.161 -0.0800 -0.1049  0.0675
 6571TIP3    H119677   3.051   3.535   3.171 -0.1569 -2.7556  0.3149
 6571TIP3    H219678   3.176   3.615   3.202 -2.2500  1.1395 -0.6475
 6572TIP3   OH219679   3.398   2.390   0.495  0.1713 -0.1902 -0.3893
 6572TIP3    H119680   3.353   2.429   0.421  0.2710 -1.3738 -1.1007
 6572TIP3    H219681   3.382   2.450   0.568  0.0209  0.9564 -1.3394
 6573TIP3   OH219682   4.261   4.248   5.701  0.3415  0.6777 -0.2658
 6573TIP3    H119683   4.247   4.176   5.639  1.2537 -0.8193  1.1723
 6573TIP3    H219684   4.257   4.206   5.787  0.8306  2.3818  0.6239
 6574TIP3   OH219685   4.167   6.572   2.226  0.3532  0.2522  0.2498
 6574TIP3    H119686   4.190   6.587   2.317  0.7314 -0.3262  0.2523
 6574TIP3    H219687   4.241   6.606   2.176  0.1271  0.6098  0.1532
 6575TIP3   OH219688   5.939   2.689   5.295  0.0770 -0.5028  0.1543
 6575TIP3    H119689   6.027   2.667   5.263  0.0920 -1.0985  0.5777
 6575TIP3    H219690   5.943   2.782   5.316  0.1042 -0.1232 -1.4242
 6576TIP3   OH219691   3.813   2.576   4.519 -0.4339  0.1625  0.3524
 6576TIP3    H119692   3.781   2.622   4.441  0.1873 -1.3429 -0.8467
 6576TIP3    H219693   3.799   2.638   4.591 -1.4284  1.4336 -0.8773
 6577TIP3   OH219694   2.992   4.269   4.436 -0.3306  0.1610 -0.1285
 6577TIP3    H119695   3.069   4.269   4.493 -0.1991  1.2203 -0.3004
 6577TIP3    H219696   2.972   4.361   4.421 -0.0761 -0.0727 -2.1950
 6578TIP3   OH219697   3.424   2.889   3.481  0.8821  0.0516 -0.1048
 6578TIP3    H119698   3.403   2.830   3.553  0.5705  1.0691  0.6600
 6578TIP3    H219699   3.469   2.962   3.522  0.1707  0.9372 -0.8561
 6579TIP3   OH219700   6.526   3.961   3.066 -0.2299  0.0695  0.3037
 6579TIP3    H119701   6.531   3.951   2.971 -2.5580 -0.9610  0.2284
 6579TIP3    H219702   6.591   3.901   3.100 -0.8058 -1.1142 -0.6173
 6580TIP3   OH219703   3.979   3.517   2.778  0.1781  0.1339  0.4154
 6580TIP3    H119704   3.986   3.546   2.686 -2.1826  0.2881  0.2242
 6580TIP3    H219705   3.967   3.423   2.773 -0.4494  0.2063  0.5330
 6581TIP3   OH219706   6.938   2.598   0.601  0.1205  0.1223  0.0345
 6581TIP3    H119707   7.012   2.641   0.557  0.4878 -1.0312 -0.5042
 6581TIP3    H219708   6.955   2.611   0.694  0.8981  0.0397 -0.0912
 6582TIP3   OH219709   6.706   3.012   2.811  0.2860  0.1740 -0.3716
 6582TIP3    H119710   6.770   2.948   2.780 -0.6445 -0.1321 -1.7014
 6582TIP3    H219711   6.661   3.041   2.733 -1.4448  0.1546  0.5773
 6583TIP3   OH219712   2.107   3.662   2.121 -0.7290  0.1172  0.1065
 6583TIP3    H119713   2.166   3.674   2.046  0.5331  1.1158  1.2151
 6583TIP3    H219714   2.120   3.571   2.147 -0.6616 -0.0416 -0.4658
 6584TIP3   OH219715   2.855   1.347   2.174 -0.2161  0.1669  0.7680
 6584TIP3    H119716   2.794   1.366   2.246  0.5439 -1.8322  2.0584
 6584TIP3    H219717   2.854   1.251   2.168 -0.8387  0.2901 -2.4770
 6585TIP3   OH219718   0.806   3.277   0.253 -0.0651 -0.1617 -0.4105
 6585TIP3    H119719   0.717   3.298   0.282  0.2486 -0.3760  0.7417
 6585TIP3    H219720   0.835   3.356   0.207  0.3215  1.2172  2.0256
 6586TIP3   OH219721   0.201   0.827   5.400 -0.1718  0.0021 -0.5587
 6586TIP3    H119722   0.223   0.778   5.321  0.5030 -0.0949 -0.3167
 6586TIP3    H219723   0.254   0.906   5.395 -1.5568  0.9182 -1.1443
 6587TIP3   OH219724   4.128   1.332   1.754  0.8160  0.1376  0.0390
 6587TIP3    H119725   4.113   1.289   1.670  0.8272 -0.9410  0.5701
 6587TIP3    H219726   4.213   1.298   1.783  1.4321  1.4884 -0.0927
 6588TIP3   OH219727   4.451   0.383   4.713 -0.5451 -0.0603  0.1850
 6588TIP3    H119728   4.484   0.351   4.796 -1.0314 -1.4174 -0.1211
 6588TIP3    H219729   4.486   0.322   4.648  2.4431  2.6908 -1.0618
 6589TIP3   OH219730   2.727   3.427   4.528 -0.1013  0.3778  0.6181
 6589TIP3    H119731   2.660   3.494   4.517 -0.4076 -0.3106 -3.0393
 6589TIP3    H219732   2.800   3.456   4.473  0.3629 -1.5563  0.1330
 6590TIP3   OH219733   3.998   2.516   2.565  0.3733  0.6783  0.3917
 6590TIP3    H119734   3.909   2.506   2.533 -0.7958  0.6844  3.3544
 6590TIP3    H219735   4.019   2.608   2.548  0.3287  0.4166 -1.3296
 6591TIP3   OH219736   6.267   6.415   1.688  0.2741  0.3200 -0.1639
 6591TIP3    H119737   6.255   6.429   1.594  0.9963  0.8548 -0.1801
 6591TIP3    H219738   6.295   6.324   1.695  0.3452  0.3179 -0.4761
 6592TIP3   OH219739   2.580   4.520   2.420  0.0357  0.1835 -0.0446
 6592TIP3    H119740   2.551   4.432   2.395 -2.6011  0.4026  1.7961
 6592TIP3    H219741   2.572   4.521   2.516  1.3014  2.0381  0.0966
 6593TIP3   OH219742   7.049   3.806   4.417  0.1034 -0.1626 -0.2699
 6593TIP3    H119743   7.105   3.761   4.353 -3.2105 -1.5366 -2.5184
 6593TIP3    H219744   7.105   3.819   4.493  2.9991 -2.7917 -1.6973
 6594TIP3   OH219745   4.979   0.325   1.552 -0.3686 -0.2970  0.1116
 6594TIP3    H119746   5.011   0.270   1.481  1.4502 -1.8350  1.9766
 6594TIP3    H219747   4.945   0.263   1.617  1.7943  0.6652  2.3185
 6595TIP3   OH219748   5.651   5.620   0.476 -0.2370  0.2792 -0.2034
 6595TIP3    H119749   5.732   5.645   0.519 -0.3955 -0.6940  0.6971
 6595TIP3    H219750   5.679   5.576   0.395  0.1084  0.5261 -0.2175
 6596TIP3   OH219751   1.056   3.434   5.451  0.2254  0.7573 -0.4308
 6596TIP3    H119752   0.976   3.386   5.427 -0.6476  2.2438 -0.6124
 6596TIP3    H219753   1.026   3.504   5.509  1.7148  0.0255  1.3108
 6597TIP3   OH219754   6.052   6.264   5.407 -0.2875  0.1123  0.5973
 6597TIP3    H119755   6.114   6.321   5.452  1.2021 -0.4751 -0.6070
 6597TIP3    H219756   6.010   6.322   5.342  2.0097 -0.2597 -1.3810
 6598TIP3   OH219757   3.582   3.369   1.826  0.5756  0.3743  0.6176
 6598TIP3    H119758   3.553   3.324   1.747  1.0283  1.5970 -0.2663
 6598TIP3    H219759   3.568   3.305   1.896  0.8319 -0.9902 -0.5367
 6599TIP3   OH219760   0.537   6.722   5.352 -0.4065 -0.5850 -0.1315
 6599TIP3    H119761   0.509   6.640   5.312 -1.6410 -1.3405  2.1122
 6599TIP3    H219762   0.466   6.783   5.334 -0.3513 -0.5541 -0.2410
 6600TIP3   OH219763   3.202   1.378   5.549 -0.0943  0.2764 -0.5151
 6600TIP3    H119764   3.228   1.293   5.512 -1.7547 -1.2149  1.5319
 6600TIP3    H219765   3.284   1.416   5.580  0.4333 -1.9914  1.1855
 6601TIP3   OH219766   6.122   3.801   5.362 -0.0794  0.2529  0.1014
 6601TIP3    H119767   6.122   3.726   5.421  4.2737  0.3654  0.5714
 6601TIP3    H219768   6.140   3.876   5.419  0.9078  0.8494 -0.9613
 6602TIP3   OH219769   0.371   0.805   4.658 -0.4460 -0.0712 -0.0363
 6602TIP3    H119770   0.449   0.848   4.692 -1.5513  3.0092 -1.0337
 6602TIP3    H219771   0.314   0.794   4.734 -1.1718  2.8121 -0.0562
 6603TIP3   OH219772   0.749   4.528   3.899  0.5308  0.0836  0.1703
 6603TIP3    H119773   0.740   4.569   3.813  1.5147  1.1919  0.5666
 6603TIP3    H219774   0.843   4.509   3.907  0.2315 -1.4658  0.3713
 6604TIP3   OH219775   3.895   1.484   2.629  0.0566  0.2875 -0.1020
 6604TIP3    H119776   3.951   1.428   2.575  1.1193  0.4954  0.7495
 6604TIP3    H219777   3.917   1.573   2.601 -1.6970  0.3462 -1.5213
 6605TIP3   OH219778   2.341   0.351   1.009 -0.5068 -0.3295  0.0255
 6605TIP3    H119779   2.375   0.440   1.002 -0.5586 -0.2233  0.9661
 6605TIP3    H219780   2.259   0.361   1.059 -0.3032 -0.9453  0.4907
 6606TIP3   OH219781   0.447   0.822   0.248  0.1422  0.2424  0.2337
 6606TIP3    H119782   0.492   0.900   0.282  2.3013 -0.3233 -1.1355
 6606TIP3    H219783   0.369   0.857   0.204  0.6107  1.5344  0.3858
 6607TIP3   OH219784   6.013   5.153   3.947 -0.2983  0.1600 -0.1449
 6607TIP3    H119785   5.981   5.095   4.016  0.5192  0.3435  0.4122
 6607TIP3    H219786   6.108   5.153   3.960 -0.3360  2.4386  0.5528
 6608TIP3   OH219787   6.924   1.279   0.636 -0.5470 -0.2832 -0.8456
 6608TIP3    H119788   7.010   1.263   0.597 -0.9365 -2.1896 -1.0392
 6608TIP3    H219789   6.942   1.310   0.724  0.3455 -0.9893 -0.7752
 6609TIP3   OH219790   2.462   5.530   0.503 -0.2503  0.0404 -0.1881
 6609TIP3    H119791   2.457   5.453   0.559 -0.4219  1.2825  1.5611
 6609TIP3    H219792   2.526   5.506   0.436 -1.3318 -2.1206 -0.5405
 6610TIP3   OH219793   3.065   5.604   0.321  0.6765 -0.1439  0.1353
 6610TIP3    H119794   3.156   5.576   0.325  1.5647  2.5729  0.3518
 6610TIP3    H219795   3.068   5.693   0.286 -1.8209  0.3049  0.8684
 6611TIP3   OH219796   0.771   1.893   3.974  0.5071  0.1175  0.0610
 6611TIP3    H119797   0.849   1.878   4.026 -0.0422  0.3417  0.9806
 6611TIP3    H219798   0.765   1.988   3.966  0.2906  0.1058  0.0633
 6612TIP3   OH219799   2.003   1.540   3.451  0.0385  0.0834 -0.1454
 6612TIP3    H119800   2.076   1.540   3.389 -0.8940  0.1231 -1.2871
 6612TIP3    H219801   1.981   1.632   3.463 -2.5824  0.0759 -3.2959
 6613TIP3   OH219802   1.096   0.634   2.997  0.2418 -0.7434 -0.2418
 6613TIP3    H119803   1.129   0.580   3.069  1.6074 -0.1873 -0.4161
 6613TIP3    H219804   1.019   0.678   3.033  1.9004  0.9118  1.5599
 6614TIP3   OH219805   5.798   0.839   5.740  0.0368  0.2494  0.0403
 6614TIP3    H119806   5.748   0.882   5.671 -2.2562  0.1197  1.5255
 6614TIP3    H219807   5.796   0.901   5.813 -0.5515 -1.0137  1.1323
 6615TIP3   OH219808   2.193   4.435   4.725 -0.3592  0.1497 -0.2713
 6615TIP3    H119809   2.213   4.512   4.672  1.5036 -0.1830 -0.1237
 6615TIP3    H219810   2.102   4.446   4.751 -0.2110  2.1386 -0.5010
 6616TIP3   OH219811   3.833   4.669   2.403  0.3483 -0.2274 -0.3165
 6616TIP3    H119812   3.869   4.603   2.344 -0.1105  0.4627 -1.3998
 6616TIP3    H219813   3.742   4.680   2.374  0.7930  1.8624 -1.0856
 6617TIP3   OH219814   4.686   1.535   4.332  0.1436  0.2231 -0.0084
 6617TIP3    H119815   4.721   1.611   4.287 -2.4329  1.0923 -0.6949
 6617TIP3    H219816   4.649   1.570   4.413  1.5716 -0.8019  1.1468
 6618TIP3   OH219817   5.650   1.264   5.640 -0.8370 -0.0034 -0.5312
 6618TIP3    H119818   5.722   1.209   5.608 -0.7498 -0.9390  1.1477
 6618TIP3    H219819   5.622   1.222   5.721 -2.6524  0.8918 -0.6408
 6619TIP3   OH219820   1.723   0.445   2.085 -0.4015  0.8463  0.4980
 6619TIP3    H119821   1.679   0.490   2.013 -1.1247  2.0877  1.6492
 6619TIP3    H219822   1.805   0.493   2.096 -0.1102  0.4088  0.2560
 6620TIP3   OH219823   6.666   3.772   4.144  0.8448 -0.1435 -0.4906
 6620TIP3    H119824   6.732   3.827   4.100  0.7329  0.1780 -0.2546
 6620TIP3    H219825   6.716   3.721   4.208  0.6338  1.4491  1.0149
 6621TIP3   OH219826   6.438   1.116   2.859 -0.1836  0.4287 -0.4932
 6621TIP3    H119827   6.359   1.168   2.871 -0.0084  0.8883 -1.3409
 6621TIP3    H219828   6.451   1.073   2.944 -1.6561 -0.0978 -0.5103
 6622TIP3   OH219829   6.508   2.623   4.135  0.4684  0.0090  0.9494
 6622TIP3    H119830   6.467   2.701   4.172  1.5044  0.3670  1.3966
 6622TIP3    H219831   6.435   2.567   4.110 -0.2868  0.7087  1.5144
 6623TIP3   OH219832   5.513   5.981   4.252 -0.2698  0.0349  0.1949
 6623TIP3    H119833   5.478   6.060   4.294 -0.3833  0.0457  0.0816
 6623TIP3    H219834   5.524   6.006   4.160  0.1237  0.0590  0.2465
 6624TIP3   OH219835   1.533   1.790   0.850  0.7220 -0.2877 -0.0655
 6624TIP3    H119836   1.511   1.781   0.758  1.2918 -0.6797 -0.1655
 6624TIP3    H219837   1.494   1.713   0.892 -1.4900  0.9885  0.4096
 6625TIP3   OH219838   5.999   2.520   0.121  0.4971 -0.5479 -0.6851
 6625TIP3    H119839   5.921   2.576   0.119  0.8762  0.0913  0.7066
 6625TIP3    H219840   6.056   2.555   0.053  0.4374  0.3388 -0.2896
 6626TIP3   OH219841   6.825   3.439   2.383  0.1215 -0.5087  0.5170
 6626TIP3    H119842   6.878   3.380   2.329 -0.0610 -0.6052  0.4444
 6626TIP3    H219843   6.756   3.470   2.324  2.3322  2.7645 -0.6478
 6627TIP3   OH219844   1.248   1.078   1.138  0.2752  0.2958  0.5877
 6627TIP3    H119845   1.249   1.172   1.151 -1.1434  0.6376 -1.2344
 6627TIP3    H219846   1.299   1.042   1.211  1.0746  2.4627  1.1604
 6628TIP3   OH219847   6.324   5.399   4.726  0.7528  0.0529 -0.5813
 6628TIP3    H119848   6.231   5.393   4.747  0.1099  2.2283 -2.3531
 6628TIP3    H219849   6.329   5.376   4.633  1.6378  1.7817 -1.0158
 6629TIP3   OH219850   5.453   6.046   5.548  0.3289  0.5202 -0.1028
 6629TIP3    H119851   5.437   6.132   5.508 -0.6748 -0.1744 -1.2592
 6629TIP3    H219852   5.427   5.983   5.481 -1.1977 -0.7064  1.5437
 6630TIP3   OH219853   2.715   6.219   4.540 -0.8112  0.3772  0.2062
 6630TIP3    H119854   2.761   6.303   4.530 -0.1126  0.0892  0.9118
 6630TIP3    H219855   2.653   6.234   4.611 -0.7654  0.3246  0.2565
 6631TIP3   OH219856   0.117   1.939   5.435  0.1846  0.5686  0.0549
 6631TIP3    H119857   0.108   1.860   5.487 -2.5765 -0.4457 -1.7158
 6631TIP3    H219858   0.206   1.936   5.401  0.8307 -0.6142  1.7364
 6632TIP3   OH219859   7.068   6.679   5.440  0.2496  0.6470  0.1349
 6632TIP3    H119860   7.143   6.732   5.469  0.3341  0.4769  0.2289
 6632TIP3    H219861   7.013   6.673   5.518  0.1140  0.8149  0.0511
 6633TIP3   OH219862   3.276   0.565   5.701  0.4865  0.0818  0.1952
 6633TIP3    H119863   3.192   0.526   5.728  0.5100 -0.2482 -0.1989
 6633TIP3    H219864   3.252   0.643   5.652  0.4263  0.2918  0.5533
 6634TIP3   OH219865   5.031   4.600   0.587 -0.0504 -0.4484  0.6685
 6634TIP3    H119866   5.079   4.526   0.624  0.7393  0.1762  0.9304
 6634TIP3    H219867   5.095   4.644   0.531 -1.2567 -1.4458 -1.5915
 6635TIP3   OH219868   0.161   3.974   3.853 -0.0501 -0.3129 -0.0371
 6635TIP3    H119869   0.147   3.903   3.790  0.3916 -2.2670  1.9790
 6635TIP3    H219870   0.089   3.965   3.916  0.1312  0.9372  0.3775
 6636TIP3   OH219871   4.007   3.014   4.127 -0.3828  0.0335 -0.3636
 6636TIP3    H119872   4.076   2.998   4.063  0.2303  0.7557  0.0973
 6636TIP3    H219873   3.934   2.959   4.098  0.6584 -1.3921 -0.3827
 6637TIP3   OH219874   0.895   3.785   2.841 -0.1981 -0.2166  0.0425
 6637TIP3    H119875   0.886   3.727   2.765 -1.7133 -0.5831  0.4619
 6637TIP3    H219876   0.982   3.766   2.876 -0.0094 -1.0102 -0.8192
 6638TIP3   OH219877   4.910   0.483   5.099  0.0481 -0.3962  0.3211
 6638TIP3    H119878   4.998   0.495   5.063  0.1952 -0.2712  0.7105
 6638TIP3    H219879   4.907   0.543   5.174  1.0217 -3.1655  2.7403
 6639TIP3   OH219880   1.944   3.770   2.332 -0.0089 -0.0460  0.0389
 6639TIP3    H119881   1.955   3.725   2.416  2.1916  0.8423  0.2941
 6639TIP3    H219882   2.014   3.735   2.277 -0.4624  0.5229 -0.9248
 6640TIP3   OH219883   1.437   5.408   2.044  0.7731 -0.3311 -0.0309
 6640TIP3    H119884   1.369   5.342   2.055  0.0935  0.3126 -0.2434
 6640TIP3    H219885   1.440   5.423   1.950 -0.1039  0.9663  0.1246
 6641TIP3   OH219886   2.073   0.857   3.365  0.5433 -0.2324  0.2427
 6641TIP3    H119887   2.100   0.918   3.434  1.7212 -0.6806  0.1934
 6641TIP3    H219888   2.136   0.870   3.295 -0.6942  0.2671 -0.8051
 6642TIP3   OH219889   3.356   4.748   3.860  0.4048  0.6835 -0.8165
 6642TIP3    H119890   3.450   4.736   3.847  0.5966 -0.5405  1.3938
 6642TIP3    H219891   3.316   4.691   3.794  1.2760 -1.7235  0.6204
 6643TIP3   OH219892   5.206   4.656   0.004  0.1011  0.0750  0.0848
 6643TIP3    H119893   5.297   4.629  -0.012  0.2473  1.1378 -1.0380
 6643TIP3    H219894   5.212   4.726   0.069 -0.0210 -0.5684  0.8015
 6644TIP3   OH219895   0.349   1.911   0.485  0.1243 -0.0704  0.1547
 6644TIP3    H119896   0.377   1.819   0.493 -1.0327 -0.4627 -0.0561
 6644TIP3    H219897   0.308   1.931   0.569  1.7489  0.7658  0.7708
 6645TIP3   OH219898   1.849   0.187   3.952 -0.1400 -0.6643 -0.4920
 6645TIP3    H119899   1.832   0.281   3.948  1.2364 -0.2932  1.3603
 6645TIP3    H219900   1.934   0.176   3.908  0.6970 -0.7084  1.0634
 6646TIP3   OH219901   5.555   3.889   5.256  0.4839  0.5692 -0.0435
 6646TIP3    H119902   5.505   3.962   5.293  0.6312  0.5708  0.1566
 6646TIP3    H219903   5.571   3.831   5.331 -0.5074 -0.1750 -0.3879
 6647TIP3   OH219904   2.083   5.981   3.604 -0.2763  0.1827  0.2514
 6647TIP3    H119905   2.003   6.012   3.646 -0.9245 -1.3828  0.2366
 6647TIP3    H219906   2.053   5.935   3.525  0.8490  2.2266 -1.4781
 6648TIP3   OH219907   0.268   1.109   5.301  0.2022 -0.1594 -0.6706
 6648TIP3    H119908   0.191   1.135   5.350  1.6408 -0.0085  1.6549
 6648TIP3    H219909   0.260   1.154   5.217 -0.5579  2.6657  0.7941
 6649TIP3   OH219910   0.886   5.733   1.734 -0.5627  0.0516  1.0154
 6649TIP3    H119911   0.907   5.765   1.822 -1.8329  1.5904  0.8083
 6649TIP3    H219912   0.844   5.807   1.691 -0.2998 -0.7917 -0.7862
 6650TIP3   OH219913   1.230   0.712   3.357 -0.3154  0.0019  0.2191
 6650TIP3    H119914   1.302   0.706   3.294 -0.8479 -0.7169 -0.3297
 6650TIP3    H219915   1.214   0.622   3.385 -1.9865 -0.0658 -0.8021
 6651TIP3   OH219916   1.767   3.743   3.975 -0.1551  0.1613 -0.0594
 6651TIP3    H119917   1.709   3.674   3.943 -0.7377  0.6403 -0.0551
 6651TIP3    H219918   1.855   3.709   3.960 -0.3906 -1.6199  2.0979
 6652TIP3   OH219919   3.724   3.389   0.281 -0.2390  0.0709  0.0596
 6652TIP3    H119920   3.714   3.317   0.344  0.5608 -0.5019 -0.4363
 6652TIP3    H219921   3.666   3.365   0.209 -1.3040  0.8258  0.6404
 6653TIP3   OH219922   0.944   1.888   4.696 -0.3252 -1.0103 -0.2863
 6653TIP3    H119923   0.896   1.880   4.778 -1.6349 -0.3712 -0.9542
 6653TIP3    H219924   0.876   1.894   4.629  0.4604  3.2397 -0.9931
 6654TIP3   OH219925   2.496   3.468   4.103  0.2122 -0.0588 -0.2244
 6654TIP3    H119926   2.459   3.466   4.015 -0.3901  0.8107 -0.0002
 6654TIP3    H219927   2.588   3.445   4.091  0.1439  0.0857 -1.0792
 6655TIP3   OH219928   1.859   6.208   1.595 -0.5638 -0.1749  0.0830
 6655TIP3    H119929   1.939   6.256   1.573 -0.8418 -0.8333 -2.7735
 6655TIP3    H219930   1.891   6.121   1.621 -0.2595  0.4481  1.9870
 6656TIP3   OH219931   5.692   0.165   1.859 -0.1743  0.1662  0.2605
 6656TIP3    H119932   5.639   0.099   1.903 -1.1280  0.8544  0.1765
 6656TIP3    H219933   5.636   0.243   1.856  1.0161  1.0794  0.6320
 6657TIP3   OH219934   0.733   6.385   4.355  0.7264  0.6647 -0.2245
 6657TIP3    H119935   0.768   6.313   4.303  0.8163 -0.5994  1.5133
 6657TIP3    H219936   0.781   6.381   4.438 -0.5154  1.5984  0.5843
 6658TIP3   OH219937   4.826   5.245   3.512 -0.2873  0.3848  0.7224
 6658TIP3    H119938   4.743   5.292   3.518 -0.5150  0.0239  0.4013
 6658TIP3    H219939   4.812   5.165   3.563 -0.0747  0.4029  0.8145
 6659TIP3   OH219940   6.055   3.392   1.114  0.2047 -0.0977  0.6299
 6659TIP3    H119941   6.008   3.396   1.031  0.0749  0.0819  0.7133
 6659TIP3    H219942   6.137   3.347   1.092  0.4421  0.4877  0.2744
 6660TIP3   OH219943   6.145   2.070   0.450 -0.2302  0.6444 -0.5330
 6660TIP3    H119944   6.199   2.073   0.529 -0.3141  1.2337 -0.4997
 6660TIP3    H219945   6.169   2.148   0.401  1.3414 -0.7214 -2.1029
 6661TIP3   OH219946   1.155   6.582   4.860 -0.2909  0.2475 -0.0826
 6661TIP3    H119947   1.132   6.639   4.787  0.0305 -0.1340 -0.4936
 6661TIP3    H219948   1.079   6.526   4.872 -0.4155  0.4331 -0.0022
 6662TIP3   OH219949   2.331   5.605   2.488 -0.2865 -0.5006  0.0498
 6662TIP3    H119950   2.385   5.578   2.415 -0.1158 -1.3301  0.4716
 6662TIP3    H219951   2.290   5.687   2.459  0.4053 -0.3953 -0.6485
 6663TIP3   OH219952   6.791   3.756   0.547  0.4444 -0.4379  0.0841
 6663TIP3    H119953   6.793   3.849   0.569 -0.8868  0.2901 -2.4677
 6663TIP3    H219954   6.699   3.732   0.552  0.3633 -0.7936 -2.1446
 6664TIP3   OH219955   0.334   3.477   0.558  0.3772  0.3308  0.1947
 6664TIP3    H119956   0.328   3.557   0.610  1.5195  1.1512 -0.8693
 6664TIP3    H219957   0.349   3.507   0.469  0.8344 -1.0729 -0.2318
 6665TIP3   OH219958   6.027   6.407   1.962 -0.3103  0.4179  0.3041
 6665TIP3    H119959   6.087   6.435   1.892 -2.4089  0.8302 -1.4453
 6665TIP3    H219960   6.045   6.313   1.972  0.1298  0.3745 -0.6998
 6666TIP3   OH219961   2.225   4.439   3.479  0.3663 -0.0477  0.0138
 6666TIP3    H119962   2.271   4.513   3.439 -2.6263  1.9778 -0.1066
 6666TIP3    H219963   2.190   4.390   3.405 -0.0549  0.1447  0.0779
 6667TIP3   OH219964   0.716   0.708   4.564 -0.5177 -0.3850  0.4775
 6667TIP3    H119965   0.801   0.665   4.568 -0.9706 -1.4285 -0.6042
 6667TIP3    H219966   0.690   0.703   4.472  0.4284  4.3540 -0.3207
 6668TIP3   OH219967   5.552   6.806   1.220  0.1335 -0.6760  0.2007
 6668TIP3    H119968   5.596   6.726   1.247 -0.3511 -0.7810  0.6894
 6668TIP3    H219969   5.464   6.799   1.255 -0.8846 -1.2770 -2.2587
 6669TIP3   OH219970   4.789   6.640   3.971  1.0120 -0.2447 -0.3291
 6669TIP3    H119971   4.874   6.649   3.928  0.4598 -1.6611 -1.7986
 6669TIP3    H219972   4.769   6.547   3.966 -1.1316  0.2022 -1.0315
 6670TIP3   OH219973   1.513   6.117   2.118 -0.6059  0.4028 -0.3881
 6670TIP3    H119974   1.530   6.086   2.030 -0.9000 -1.3808  0.1463
 6670TIP3    H219975   1.419   6.135   2.120 -0.8270 -0.7142 -0.1204
 6671TIP3   OH219976   3.411   3.388   3.350  0.1097 -0.1040  0.0067
 6671TIP3    H119977   3.406   3.478   3.382 -2.0927 -0.0222 -0.4447
 6671TIP3    H219978   3.462   3.394   3.270  0.6496  0.6014  0.3879
 6672TIP3   OH219979   0.819   2.596   4.742 -0.5469 -0.1394 -0.1649
 6672TIP3    H119980   0.875   2.544   4.799  0.5127 -2.4562 -3.0562
 6672TIP3    H219981   0.730   2.565   4.760 -0.5045  0.7097  1.6558
 6673TIP3   OH219982   6.022   4.246   1.658  0.3441 -0.5494  0.3509
 6673TIP3    H119983   5.982   4.240   1.571  1.2879 -0.0552 -0.1340
 6673TIP3    H219984   5.969   4.188   1.712 -0.3621 -0.7452 -0.5156
 6674TIP3   OH219985   5.149   2.997   2.232 -0.5223  0.1799 -0.2311
 6674TIP3    H119986   5.111   2.929   2.287 -1.3289 -0.1507 -1.1590
 6674TIP3    H219987   5.239   2.969   2.218 -0.7733 -0.5847 -0.3891
 6675TIP3   OH219988   5.285   3.329   3.273  0.4540  0.4651  0.0567
 6675TIP3    H119989   5.235   3.375   3.340 -1.7819  0.5313 -1.5281
 6675TIP3    H219990   5.231   3.252   3.253  0.7544  0.7519 -2.0300
 6676TIP3   OH219991   1.937   5.171   4.891  0.1483 -0.1023  0.2902
 6676TIP3    H119992   2.019   5.136   4.928  0.8886  0.4685 -0.7471
 6676TIP3    H219993   1.953   5.174   4.796 -1.0591  0.0885  0.0758
 6677TIP3   OH219994   3.769   4.563   1.763 -0.2409  0.5497  0.1265
 6677TIP3    H119995   3.684   4.582   1.802 -0.2013 -0.8503  0.9663
 6677TIP3    H219996   3.782   4.469   1.777  0.8913  0.4913 -1.0931
 6678TIP3   OH219997   1.688   0.861   0.187  0.4613  0.1882 -0.6009
 6678TIP3    H119998   1.769   0.900   0.153  0.1734  0.9426 -0.4410
 6678TIP3    H219999   1.633   0.849   0.110  0.8323 -0.6279 -0.7572
 6679TIP3   OH220000   6.902   0.595   3.070 -0.6879  0.3567  0.1125
 6679TIP3    H120001   6.828   0.539   3.092 -1.0658  1.5394  1.9502
 6679TIP3    H220002   6.900   0.599   2.974 -1.3355 -1.7992 -0.0324
 6680TIP3   OH220003   5.392   1.204   2.795  0.7264  0.0542  0.4401
 6680TIP3    H120004   5.312   1.210   2.743 -0.0052  0.5638  1.5748
 6680TIP3    H220005   5.413   1.111   2.797  0.6240  0.0059 -0.5520
 6681TIP3   OH220006   1.315   3.395   3.239 -0.1120  0.5916  0.5457
 6681TIP3    H120007   1.281   3.348   3.163  0.5928  0.0577  0.5426
 6681TIP3    H220008   1.361   3.470   3.202 -0.6336  0.8870  0.5038
 6682TIP3   OH220009   3.758   5.314   3.857 -0.4568 -0.8443 -0.9085
 6682TIP3    H120010   3.671   5.292   3.889 -0.8987  1.8013 -0.1071
 6682TIP3    H220011   3.743   5.351   3.770 -0.2870  0.7130 -0.2926
 6683TIP3   OH220012   3.791   4.980   4.329  0.3535 -0.4273 -0.1754
 6683TIP3    H120013   3.759   4.951   4.244  0.5603 -0.6788 -0.1679
 6683TIP3    H220014   3.865   5.037   4.310  0.3449 -0.4123 -0.1654
 6684TIP3   OH220015   0.874   0.398   5.182 -0.5425  0.3296 -0.1373
 6684TIP3    H120016   0.967   0.419   5.178 -0.4303  0.7214  2.5983
 6684TIP3    H220017   0.871   0.302   5.184 -0.1940  0.3170 -0.1573
 6685TIP3   OH220018   1.743   2.019   1.418  0.2508 -0.3311 -0.0485
 6685TIP3    H120019   1.796   2.030   1.339  0.1011 -0.9262 -0.2343
 6685TIP3    H220020   1.799   1.970   1.478  0.9605  1.4345  0.8256
 6686TIP3   OH220021   2.599   0.600   5.072 -0.2707 -0.0976 -0.5523
 6686TIP3    H120022   2.638   0.675   5.118 -1.7075  0.5416 -0.3191
 6686TIP3    H220023   2.552   0.640   4.999 -1.7920 -0.6630  0.0790
 6687TIP3   OH220024   4.182   5.187   5.203 -0.1586  0.2773 -0.4752
 6687TIP3    H120025   4.240   5.166   5.276  0.0286 -2.8505 -1.3801
 6687TIP3    H220026   4.094   5.177   5.239 -0.2232  3.0692  0.3695
 6688TIP3   OH220027   5.063   1.841   4.030 -0.2303  0.2282 -0.0377
 6688TIP3    H120028   5.107   1.811   4.110 -0.5527 -0.8174 -0.2375
 6688TIP3    H220029   5.114   1.802   3.959 -2.2173 -2.1945 -0.2614
 6689TIP3   OH220030   1.470   0.178   3.418  0.1888  0.2657 -0.0712
 6689TIP3    H120031   1.542   0.134   3.374 -0.3647  1.4198 -2.2428
 6689TIP3    H220032   1.472   0.142   3.508  2.0950 -1.2809 -0.6513
 6690TIP3   OH220033   1.349   1.543   2.683  0.1320 -0.2042 -0.0668
 6690TIP3    H120034   1.364   1.482   2.611  0.0851  0.1657 -0.3960
 6690TIP3    H220035   1.434   1.582   2.700  0.4980 -1.4747  1.1863
 6691TIP3   OH220036   2.768   6.726   3.082  0.0677  0.1435  0.0536
 6691TIP3    H120037   2.755   6.635   3.109  0.2256  0.4481  1.2011
 6691TIP3    H220038   2.789   6.773   3.163  2.3656  0.7765 -0.8246
 6692TIP3   OH220039   6.327   1.313   0.695 -0.9362 -0.4175 -0.1888
 6692TIP3    H120040   6.252   1.371   0.678  0.9790  2.3065  0.0441
 6692TIP3    H220041   6.370   1.305   0.610 -1.3498 -1.8231 -0.2799
 6693TIP3   OH220042   6.387   0.667   5.006  0.4149  0.3281  0.4123
 6693TIP3    H120043   6.456   0.693   5.068  2.0101  0.7963 -1.4735
 6693TIP3    H220044   6.391   0.733   4.937 -1.4918 -0.0473 -0.1063
 6694TIP3   OH220045   6.790   0.497   4.249  0.5228 -0.5454  0.0800
 6694TIP3    H120046   6.733   0.444   4.193 -2.2275  0.6343  1.5630
 6694TIP3    H220047   6.818   0.569   4.193  1.5364 -1.7101 -0.9817
 6695TIP3   OH220048   4.751   4.109   0.277 -1.1032 -0.4406  0.0055
 6695TIP3    H120049   4.696   4.179   0.312 -1.1197 -0.8265  0.7657
 6695TIP3    H220050   4.751   4.124   0.182  1.0959  2.2321  0.2837
 6696TIP3   OH220051   6.695   0.375   4.695 -0.5591  0.0601 -0.3568
 6696TIP3    H120052   6.783   0.350   4.723 -1.8070 -2.2318  1.9352
 6696TIP3    H220053   6.683   0.464   4.729  0.7078  0.2579 -0.3866
 6697TIP3   OH220054   1.252   5.241   2.163  0.3488  0.2362 -0.0039
 6697TIP3    H120055   1.203   5.158   2.153  0.6911 -0.1905  1.6459
 6697TIP3    H220056   1.216   5.281   2.242  0.6836  1.3408 -0.3911
 6698TIP3   OH220057   2.295   1.478   4.697  0.1113 -0.1526  0.5747
 6698TIP3    H120058   2.292   1.546   4.764 -0.6347  1.1945 -0.7539
 6698TIP3    H220059   2.213   1.429   4.709 -0.5912  0.8255 -0.0450
 6699TIP3   OH220060   0.747   6.493   3.560 -0.4816  0.3977 -0.0413
 6699TIP3    H120061   0.797   6.421   3.523 -0.0195 -0.3794  1.9631
 6699TIP3    H220062   0.751   6.562   3.494 -0.2117 -1.0959 -1.6325
 6700TIP3   OH220063   6.456   4.808   4.313  0.3920  0.0149 -0.0335
 6700TIP3    H120064   6.432   4.798   4.220  1.8947 -0.4668 -0.3893
 6700TIP3    H220065   6.550   4.791   4.316  1.0476  3.2534  1.0798
 6701TIP3   OH220066   5.865   3.069   0.293 -0.5116  0.2429  0.3133
 6701TIP3    H120067   5.867   3.164   0.284 -0.8770  0.2730  0.5482
 6701TIP3    H220068   5.773   3.048   0.310 -0.2386 -0.0378  1.5316
 6702TIP3   OH220069   3.317   2.501   3.709 -0.2318 -0.4604 -0.2844
 6702TIP3    H120070   3.306   2.406   3.715 -0.2174 -0.4991 -0.8822
 6702TIP3    H220071   3.232   2.533   3.679  0.3588 -0.4926 -2.1185
 6703TIP3   OH220072   3.573   0.833   4.337 -0.0195  0.5914  0.2463
 6703TIP3    H120073   3.608   0.871   4.256 -1.8461  2.4116  0.2211
 6703TIP3    H220074   3.594   0.740   4.331  1.4809  0.9858 -1.4550
 6704TIP3   OH220075   4.741   3.350   1.735  0.0226 -0.8369 -0.1125
 6704TIP3    H120076   4.720   3.439   1.707  0.1092 -0.9541 -0.5626
 6704TIP3    H220077   4.657   3.314   1.764  0.1364 -0.3332  0.8757
 6705TIP3   OH220078   2.802   1.079   1.758 -0.1696  0.5410 -0.6074
 6705TIP3    H120079   2.769   1.055   1.845 -0.4886 -0.4995 -1.0039
 6705TIP3    H220080   2.756   1.020   1.698 -0.3601  1.6144 -1.5463
 6706TIP3   OH220081   3.222   2.418   5.796  0.0870 -0.1087 -0.0974
 6706TIP3    H120082   3.188   2.329   5.802  1.1808 -0.4599  2.0821
 6706TIP3    H220083   3.267   2.421   5.711 -1.5744 -0.9817 -1.0538
 6707TIP3   OH220084   2.053   5.906   2.236 -0.3573  0.6058 -0.2551
 6707TIP3    H120085   1.994   5.959   2.289  3.8736  1.9464  3.8744
 6707TIP3    H220086   2.108   5.970   2.190 -0.7866 -0.5156 -2.4296
 6708TIP3   OH220087   6.840   3.132   5.259 -0.3975  0.2197  0.6812
 6708TIP3    H120088   6.885   3.212   5.285  1.3435 -1.0339  1.8038
 6708TIP3    H220089   6.907   3.081   5.214 -1.4462 -0.6450  0.0475
 6709TIP3   OH220090   0.879   3.022   0.286 -0.1798  0.2532  0.5090
 6709TIP3    H120091   0.961   3.005   0.240 -0.5117 -1.8007  0.5719
 6709TIP3    H220092   0.869   3.117   0.285  2.4866  0.6020  1.0103
 6710TIP3   OH220093   5.673   1.210   5.114 -0.8197  0.1331 -0.2770
 6710TIP3    H120094   5.612   1.137   5.125  0.2608 -0.7808 -0.2310
 6710TIP3    H220095   5.734   1.181   5.046 -0.6008  1.1470 -0.5333
 6711TIP3   OH220096   3.549   5.940   2.956  0.3494  0.5834  0.1942
 6711TIP3    H120097   3.459   5.914   2.935  0.4246  0.3702  0.1356
 6711TIP3    H220098   3.576   5.879   3.024  1.2425 -0.8528 -1.3568
 6712TIP3   OH220099   6.859   0.256   3.083 -0.0251 -0.0296  0.3497
 6712TIP3    H120100   6.811   0.338   3.091  1.1907  0.7008  0.4477
 6712TIP3    H220101   6.821   0.213   3.006  0.3095  1.3238 -0.6034
 6713TIP3   OH220102   1.457   0.667   3.194 -0.1809  0.1995  0.0919
 6713TIP3    H120103   1.474   0.746   3.142 -1.1195 -1.3208 -2.7628
 6713TIP3    H220104   1.543   0.626   3.202  0.0084  0.5436 -0.1157
 6714TIP3   OH220105   1.581   1.066   2.903  0.0124  0.4162 -0.1498
 6714TIP3    H120106   1.519   1.026   2.842 -0.6444 -0.1685  0.8674
 6714TIP3    H220107   1.527   1.120   2.960  0.5730  0.7082  0.1061
 6715TIP3   OH220108   4.670   0.179   3.548  0.0637  0.4195  0.2733
 6715TIP3    H120109   4.732   0.175   3.476  1.4496 -0.7453  1.4672
 6715TIP3    H220110   4.675   0.093   3.590 -1.1911  0.8334  1.3685
 6716TIP3   OH220111   5.055  -0.016   4.189  0.0736 -0.3918 -0.0382
 6716TIP3    H120112   5.069   0.043   4.115  1.0321 -0.1159  0.3498
 6716TIP3    H220113   5.028   0.041   4.261 -0.6977 -0.6427 -0.1117
 6717TIP3   OH220114   4.730   3.191   0.951 -0.4032 -0.5772 -0.6519
 6717TIP3    H120115   4.658   3.255   0.951 -0.3390 -0.5057 -0.7856
 6717TIP3    H220116   4.772   3.202   0.866  1.9079  1.8279  0.6287
 6718TIP3   OH220117   4.501   2.800   3.392  0.0213  0.0057  0.0063
 6718TIP3    H120118   4.555   2.777   3.317 -0.6732 -2.5075  0.1816
 6718TIP3    H220119   4.472   2.890   3.375  2.6557  0.7555 -0.9936
 6719TIP3   OH220120   0.210   2.440   5.564  0.5865  0.2964 -0.2586
 6719TIP3    H120121   0.184   2.489   5.641 -1.2513  0.7151 -1.0845
 6719TIP3    H220122   0.171   2.488   5.490 -0.5362 -1.8810 -1.1672
 6720TIP3   OH220123   4.409   5.621   5.262 -0.8710 -0.9475 -0.2183
 6720TIP3    H120124   4.392   5.547   5.204 -0.3073 -2.1535  1.0847
 6720TIP3    H220125   4.487   5.595   5.312  0.2036  1.1301 -0.6793
 6721TIP3   OH220126   6.202   3.158   3.129  0.0924 -0.2054  0.0553
 6721TIP3    H120127   6.227   3.191   3.215 -0.8665 -0.6055  0.5005
 6721TIP3    H220128   6.280   3.114   3.096 -0.0119 -1.4959  1.4445
 6722TIP3   OH220129   0.289   6.394   0.256  0.4997 -0.3366 -0.1779
 6722TIP3    H120130   0.290   6.299   0.263  1.4051 -0.3438 -0.1714
 6722TIP3    H220131   0.234   6.424   0.328 -0.0843 -0.8707 -0.4016
 6723TIP3   OH220132   4.120   4.339   5.341 -0.0025 -0.1119 -0.0769
 6723TIP3    H120133   4.110   4.386   5.424 -0.3339 -0.8002  0.2883
 6723TIP3    H220134   4.096   4.403   5.274 -0.0250  0.3633  0.3767
 6724TIP3   OH220135   0.729   0.081   5.449  0.0806  0.2395  0.0693
 6724TIP3    H120136   0.823   0.087   5.436  0.4044 -2.7094  0.4477
 6724TIP3    H220137   0.718   0.045   5.537 -1.4471  1.2710  0.3484
 6725TIP3   OH220138   3.749   3.728   5.408 -0.0269 -0.2886  0.6885
 6725TIP3    H120139   3.780   3.791   5.343  0.5189 -0.7089  0.5271
 6725TIP3    H220140   3.820   3.665   5.416 -0.7276 -1.1337  0.5128
 6726TIP3   OH220141   0.883   4.795   2.247  0.5102  0.6309 -0.3350
 6726TIP3    H120142   0.948   4.783   2.316  1.1218  0.6184 -0.9025
 6726TIP3    H220143   0.801   4.810   2.293  1.0222  1.2319  0.3977
 6727TIP3   OH220144   2.037   1.775   4.781  0.0635 -0.2612  0.0558
 6727TIP3    H120145   2.068   1.771   4.871 -1.3143  0.9066  0.6389
 6727TIP3    H220146   1.971   1.845   4.782  0.1336 -0.1154 -1.8955
 6728TIP3   OH220147   1.845   2.523   1.548  0.7331 -0.1943  0.5242
 6728TIP3    H120148   1.889   2.584   1.489  3.0283 -1.7881  0.4707
 6728TIP3    H220149   1.916   2.483   1.599 -0.8922 -1.1630  2.1412
 6729TIP3   OH220150   5.694   0.341   5.451 -0.5061 -0.0527 -0.2706
 6729TIP3    H120151   5.738   0.410   5.499 -0.7539 -0.3032  0.3252
 6729TIP3    H220152   5.742   0.261   5.474 -0.9771 -0.2584  0.0228
 6730TIP3   OH220153   4.046   0.625   3.502 -0.1718 -0.0036  0.3575
 6730TIP3    H120154   4.038   0.531   3.512 -0.9516 -0.1375 -1.3002
 6730TIP3    H220155   3.957   0.655   3.482 -0.2646  1.3282  2.4234
 6731TIP3   OH220156   3.513   2.957   5.036  0.1840 -0.7895 -1.0033
 6731TIP3    H120157   3.564   3.015   5.092 -1.0008 -0.3094 -0.4075
 6731TIP3    H220158   3.458   3.016   4.984 -0.1518 -1.3291 -1.2689
 6732TIP3   OH220159   3.152   2.072   5.316 -0.3581 -0.4968  0.3429
 6732TIP3    H120160   3.231   2.085   5.264 -1.6631  0.1590 -1.5966
 6732TIP3    H220161   3.161   2.132   5.390  0.8750 -0.3538  0.0930
 6733TIP3   OH220162   1.002   2.752   0.326 -0.0376  0.1733 -0.6233
 6733TIP3    H120163   0.968   2.665   0.308  1.6779 -0.3433 -1.5101
 6733TIP3    H220164   0.928   2.811   0.309 -0.7252 -0.9640 -1.6710
 6734TIP3   OH220165   2.389   1.908   5.325 -0.4587  0.1122  0.1018
 6734TIP3    H120166   2.419   1.998   5.341  0.7063 -0.2806  0.2739
 6734TIP3    H220167   2.460   1.869   5.274 -1.0575 -0.6429 -0.1553
 6735TIP3   OH220168   1.189   0.928   3.032 -0.2284 -0.2104 -0.0449
 6735TIP3    H120169   1.098   0.957   3.030 -0.8584 -2.0574 -1.2107
 6735TIP3    H220170   1.226   0.970   3.109 -2.6317 -1.0343  1.6652
 6736TIP3   OH220171   6.841   2.609   2.326 -0.6643 -0.2143 -0.6355
 6736TIP3    H120172   6.852   2.514   2.322 -2.1600 -0.4796  0.5002
 6736TIP3    H220173   6.930   2.644   2.316  0.5735 -1.8830  2.8742
 6737TIP3   OH220174   3.993   0.362   3.521  0.2718  0.0061  0.1936
 6737TIP3    H120175   4.000   0.298   3.451  0.3572  1.8635 -1.6056
 6737TIP3    H220176   3.986   0.310   3.601  0.4039 -2.2017 -1.1474
 6738TIP3   OH220177   0.702   3.411   1.805 -0.5293  0.2431 -0.1464
 6738TIP3    H120178   0.706   3.356   1.883 -2.9397 -0.8345 -0.6859
 6738TIP3    H220179   0.705   3.500   1.839  0.5809 -0.1932  0.9819
 6739TIP3   OH220180   1.983   1.237   3.379  0.2524 -0.0762 -0.0144
 6739TIP3    H120181   1.987   1.320   3.427 -1.2599  0.5373 -0.8699
 6739TIP3    H220182   2.066   1.193   3.399  0.1089  0.5849  2.3301
 6740TIP3   OH220183   1.751   4.487   5.102 -0.1945 -0.1190  0.6970
 6740TIP3    H120184   1.775   4.570   5.061 -0.2469 -0.1367  0.6297
 6740TIP3    H220185   1.692   4.512   5.174 -0.7372 -0.1427  0.2670
 6741TIP3   OH220186   0.996   0.332   2.605 -0.0917  0.2276 -0.5502
 6741TIP3    H120187   0.973   0.353   2.695  0.8417  2.2529 -0.7178
 6741TIP3    H220188   1.051   0.254   2.612  0.7252  0.8763  0.7645
 6742TIP3   OH220189   5.387   6.462   3.017 -0.2111 -0.5142  0.7086
 6742TIP3    H120190   5.430   6.389   3.062  0.8906 -0.6752 -0.5411
 6742TIP3    H220191   5.454   6.531   3.014 -0.3933 -0.3597 -0.2803
 6743TIP3   OH220192   1.842   3.038   2.315  0.4202 -0.0906  0.3300
 6743TIP3    H120193   1.779   3.103   2.346  1.0732  1.5124 -1.5320
 6743TIP3    H220194   1.799   2.996   2.240  1.1421  0.2874 -0.3085
 6744TIP3   OH220195   3.043   0.841   4.387 -0.0491  0.4830  0.3046
 6744TIP3    H120196   3.023   0.798   4.470  2.6837 -0.9387  0.3591
 6744TIP3    H220197   3.098   0.916   4.412 -1.1679  1.4545 -0.0947
 6745TIP3   OH220198   0.242   6.398   1.374 -0.7803 -0.6220  0.3693
 6745TIP3    H120199   0.335   6.388   1.354 -1.0066 -1.3267 -0.4028
 6745TIP3    H220200   0.239   6.420   1.467  0.1739 -0.1858  0.2982
 6746TIP3   OH220201   7.094   2.952   0.401 -0.4766 -0.2418 -0.0665
 6746TIP3    H120202   7.157   3.019   0.373 -1.2111  0.1255 -0.8663
 6746TIP3    H220203   7.147   2.891   0.452 -0.2248  2.3161  3.0755
 6747TIP3   OH220204   4.684   1.080   0.804 -0.2893  0.4848 -0.1180
 6747TIP3    H120205   4.764   1.029   0.811  0.0396  1.0502  0.2451
 6747TIP3    H220206   4.710   1.161   0.760 -1.1844 -0.4834 -2.5818
 6748TIP3   OH220207   5.791   6.035   4.332  0.5330 -0.0466  0.7329
 6748TIP3    H120208   5.880   6.027   4.367  1.1956  0.6498 -0.7162
 6748TIP3    H220209   5.755   6.112   4.375  0.8079 -0.0405  0.9565
 6749TIP3   OH220210   2.284   0.397   4.342  0.3182  0.4172  0.2162
 6749TIP3    H120211   2.240   0.315   4.365  1.0253  0.2945  1.1891
 6749TIP3    H220212   2.377   0.373   4.336  0.5863  1.2191  0.9276
 6750TIP3   OH220213   0.446   5.747   2.160 -0.2997 -0.0144 -0.5427
 6750TIP3    H120214   0.399   5.801   2.096 -1.1649  0.4261  0.4243
 6750TIP3    H220215   0.510   5.806   2.200  0.2073 -0.2744 -0.9657
 6751TIP3   OH220216   3.586   1.173   5.820 -0.8078 -0.1731 -0.1557
 6751TIP3    H120217   3.621   1.178   5.909 -0.1130  0.3632 -0.4515
 6751TIP3    H220218   3.616   1.088   5.788  1.5187  0.8540 -0.9075
 6752TIP3   OH220219   2.569   1.995   3.872 -0.1626  0.1209 -0.3137
 6752TIP3    H120220   2.507   1.929   3.840 -0.2953 -0.1132  0.4021
 6752TIP3    H220221   2.515   2.058   3.920 -0.0600  0.8680 -1.1488
 6753TIP3   OH220222   2.734   3.803   5.031 -0.4038 -0.1583 -0.2998
 6753TIP3    H120223   2.740   3.896   5.051 -0.5801 -0.2021 -0.0382
 6753TIP3    H220224   2.771   3.759   5.108  0.3158 -0.2890 -0.7021
 6754TIP3   OH220225   2.020   1.190   2.330  0.1321  0.2260 -0.2971
 6754TIP3    H120226   2.040   1.110   2.380  0.2782  0.1061 -0.5461
 6754TIP3    H220227   1.971   1.159   2.254  0.5346  0.3306 -0.6012
 6755TIP3   OH220228   2.208   5.160   1.572  0.0536 -0.0972 -0.0094
 6755TIP3    H120229   2.198   5.069   1.602 -2.7307  0.2815  0.5085
 6755TIP3    H220230   2.276   5.156   1.506 -1.3584 -2.9809 -1.5013
 6756TIP3   OH220231   6.391   5.188   1.556  0.4715  0.1516  0.4364
 6756TIP3    H120232   6.370   5.232   1.473  1.4109  2.5020  1.3691
 6756TIP3    H220233   6.412   5.259   1.616  0.8884 -1.5570  2.4133
 6757TIP3   OH220234   4.306   1.688   4.933 -0.6301  0.0090 -0.0514
 6757TIP3    H120235   4.396   1.656   4.923 -1.3589 -1.9243 -1.0093
 6757TIP3    H220236   4.261   1.656   4.854 -1.9176  1.8461 -0.1043
 6758TIP3   OH220237   4.548   6.205   2.313 -0.4999 -0.4465  0.4084
 6758TIP3    H120238   4.559   6.277   2.251 -1.7056 -1.4286 -1.0165
 6758TIP3    H220239   4.611   6.224   2.383  2.1567 -0.1759 -1.8985
 6759TIP3   OH220240   7.021   1.009   1.367 -1.2103 -0.2214 -0.7708
 6759TIP3    H120241   7.034   0.925   1.412 -3.1564  0.3783  1.0913
 6759TIP3    H220242   6.980   0.986   1.284  1.7620 -1.3171 -2.0556
 6760TIP3   OH220243   5.817   6.343   3.447  0.3037  0.0623  0.3429
 6760TIP3    H120244   5.801   6.303   3.361 -1.2689 -1.8516  1.4254
 6760TIP3    H220245   5.748   6.409   3.456 -0.2345 -0.5180  0.5608
 6761TIP3   OH220246   6.170   0.555   4.481 -0.2936  0.0384 -0.1731
 6761TIP3    H120247   6.084   0.522   4.508  0.5634 -3.0508 -0.8011
 6761TIP3    H220248   6.230   0.523   4.548  0.4541  1.7253 -0.0052
 6762TIP3   OH220249   0.659   2.533   3.236  0.0986 -0.0513  0.0040
 6762TIP3    H120250   0.571   2.550   3.268  0.3723  1.2399  0.1287
 6762TIP3    H220251   0.671   2.595   3.164  2.3035  2.7959  2.5412
 6763TIP3   OH220252   2.699   1.736   4.241  0.4754 -0.1459 -0.3428
 6763TIP3    H120253   2.792   1.720   4.226  0.4472  0.2989 -1.0710
 6763TIP3    H220254   2.657   1.655   4.211  0.6830 -0.7447  0.9278
 6764TIP3   OH220255   6.184   2.113   3.631  0.4852  0.2461  0.1235
 6764TIP3    H120256   6.250   2.178   3.608  1.5883 -0.2560  1.7369
 6764TIP3    H220257   6.114   2.164   3.673  1.0374  0.4919  0.7617
 6765TIP3   OH220258   5.457   2.269   1.816  0.6486 -0.2742 -0.4000
 6765TIP3    H120259   5.439   2.313   1.899  0.6357  1.1440 -1.1297
 6765TIP3    H220260   5.426   2.179   1.829  0.2009  0.0559  0.9508
 6766TIP3   OH220261   6.592   2.175   2.840  0.2294 -0.6632 -0.4694
 6766TIP3    H120262   6.666   2.235   2.849  0.5520 -0.9710 -0.9776
 6766TIP3    H220263   6.625   2.106   2.781 -0.4840 -0.7651 -0.7528
 6767TIP3   OH220264   3.806   2.209   4.154 -0.5618  0.0752 -0.1005
 6767TIP3    H120265   3.741   2.270   4.187 -2.2322 -0.8161 -1.6037
 6767TIP3    H220266   3.866   2.263   4.102 -2.4256  0.4237 -2.0187
 6768TIP3   OH220267   0.734   5.812   0.068  0.0925  0.1480  0.5361
 6768TIP3    H120268   0.737   5.716   0.062 -0.6112  0.0179  1.9157
 6768TIP3    H220269   0.825   5.839   0.063  0.1801 -0.3579 -2.5507
 6769TIP3   OH220270   3.276   5.095   0.703 -0.0026 -0.9334  0.2431
 6769TIP3    H120271   3.271   5.176   0.652  1.0079  0.2281  1.8690
 6769TIP3    H220272   3.185   5.073   0.722 -0.3272 -0.7037 -0.9801
 6770TIP3   OH220273   5.057   3.658   3.025 -0.4267  0.0041 -0.0877
 6770TIP3    H120274   5.003   3.734   3.008 -0.9854 -1.0193 -3.6543
 6770TIP3    H220275   5.029   3.628   3.112 -2.2389  2.1362  0.1626
 6771TIP3   OH220276   7.166   6.416   5.429  0.1571  0.3141  0.3267
 6771TIP3    H120277   7.133   6.365   5.355  1.2227  0.4340 -0.2463
 6771TIP3    H220278   7.118   6.499   5.424  1.0967  0.8105 -0.9884
 6772TIP3   OH220279   4.812   0.118   1.215 -0.0416  0.4021 -0.0223
 6772TIP3    H120280   4.753   0.055   1.256 -1.7283  1.8959  0.0002
 6772TIP3    H220281   4.898   0.099   1.252 -0.3573 -2.2036 -0.4561
 6773TIP3   OH220282   6.519   4.230   3.541  0.5469 -0.0759 -0.1254
 6773TIP3    H120283   6.588   4.291   3.513 -0.1659  0.0871 -1.6760
 6773TIP3    H220284   6.562   4.171   3.602  1.7338  0.8311 -0.0427
 6774TIP3   OH220285   3.269   6.536   2.072 -0.1501  0.0484 -0.3154
 6774TIP3    H120286   3.324   6.469   2.033 -0.8670 -1.1945  0.7501
 6774TIP3    H220287   3.237   6.498   2.154 -1.5250  1.2277 -0.2454
 6775TIP3   OH220288   4.719   4.175   3.185 -0.1129  0.0622 -0.0449
 6775TIP3    H120289   4.791   4.116   3.205 -0.7021 -0.3604  0.9354
 6775TIP3    H220290   4.729   4.247   3.248  0.1749  0.6328 -0.7405
 6776TIP3   OH220291   4.981   3.025   5.542 -0.5707 -0.3885 -0.2784
 6776TIP3    H120292   5.073   2.999   5.546 -0.3493  0.1929 -1.2953
 6776TIP3    H220293   4.981   3.116   5.572 -1.1911 -1.1421  2.2348
 6777TIP3   OH220294   1.270   6.650   2.375 -0.2590  0.1786  0.2457
 6777TIP3    H120295   1.246   6.742   2.380 -0.7300 -0.0050  1.8061
 6777TIP3    H220296   1.229   6.619   2.294 -1.3536  0.9878  0.4701
 6778TIP3   OH220297   2.925   2.156   3.281  0.6778  0.8790 -0.2711
 6778TIP3    H120298   2.838   2.121   3.301  0.9358 -0.2990 -1.0905
 6778TIP3    H220299   2.912   2.208   3.202  0.5298  1.5858  0.2143
 6779TIP3   OH220300   2.537   6.400  -0.015 -0.0247 -0.0136 -0.6525
 6779TIP3    H120301   2.617   6.388   0.036 -0.9238 -0.6788  0.6582
 6779TIP3    H220302   2.466   6.396   0.049 -1.0604  2.1070 -1.5450
 6780TIP3   OH220303   1.308   2.154   4.622  0.1840  0.4753  0.0451
 6780TIP3    H120304   1.276   2.152   4.532  0.1747 -1.0534  0.0526
 6780TIP3    H220305   1.273   2.074   4.662  0.5244  0.9185  1.2924
 6781TIP3   OH220306   0.496   6.638   1.317 -0.1547  0.2848  0.5678
 6781TIP3    H120307   0.439   6.639   1.241 -0.2340  0.6041  0.6319
 6781TIP3    H220308   0.484   6.551   1.355 -0.4789  0.2969  0.4917
 6782TIP3   OH220309   2.450   0.987   0.927  0.4909  0.1266 -0.3242
 6782TIP3    H120310   2.492   1.049   0.986 -0.4133  0.8847 -0.4597
 6782TIP3    H220311   2.511   0.978   0.854  0.7576  0.6338 -0.1673
 6783TIP3   OH220312   6.011   5.076   5.389 -0.3306 -0.4528 -0.2115
 6783TIP3    H120313   5.938   5.105   5.335 -0.3314 -1.1147 -0.5763
 6783TIP3    H220314   6.030   5.150   5.446 -2.0483 -0.6536  0.6913
 6784TIP3   OH220315   6.270   2.404   4.711 -0.0855  0.1232 -0.3444
 6784TIP3    H120316   6.277   2.311   4.693  0.8652  0.0141  0.5011
 6784TIP3    H220317   6.178   2.425   4.695 -0.0488 -0.6744 -1.7760
 6785TIP3   OH220318   6.356   2.905   5.044  0.1468 -0.2445  0.1210
 6785TIP3    H120319   6.268   2.872   5.024  1.0277 -1.8890 -1.2852
 6785TIP3    H220320   6.371   2.974   4.979  0.4706 -1.0517 -0.6842
 6786TIP3   OH220321   1.435   4.167   0.155 -0.3892 -0.0556  0.0153
 6786TIP3    H120322   1.362   4.119   0.193 -0.6797  0.9765  0.8127
 6786TIP3    H220323   1.458   4.233   0.221  0.5889  0.3056 -0.6520
 6787TIP3   OH220324   6.053   6.231   0.862 -0.0437 -0.3747 -0.1824
 6787TIP3    H120325   6.013   6.308   0.820 -0.0402  0.0033  0.4922
 6787TIP3    H220326   6.141   6.261   0.885  0.1119 -0.7276 -0.3232
 6788TIP3   OH220327   2.043   3.254   0.608  0.1245  0.9570 -0.6913
 6788TIP3    H120328   2.031   3.192   0.535  1.0400  0.4051 -0.3910
 6788TIP3    H220329   2.134   3.283   0.600  1.3263 -1.5193  2.0214
 6789TIP3   OH220330   5.517   0.932   1.664 -0.2407  0.4611 -0.4104
 6789TIP3    H120331   5.551   0.982   1.739 -0.9217  0.8145 -0.3283
 6789TIP3    H220332   5.427   0.963   1.654 -1.2044 -1.8088  0.5892
 6790TIP3   OH220333   0.065   6.736   5.716  0.2543  0.6724 -0.4690
 6790TIP3    H120334   0.020   6.744   5.800  1.2996  1.2981  0.0524
 6790TIP3    H220335   0.102   6.648   5.716  1.7872  1.2767  0.5448
 6791TIP3   OH220336   0.927   6.382   1.913 -0.4964  0.1428  0.6911
 6791TIP3    H120337   0.866   6.436   1.964  2.3733  1.8986  2.5675
 6791TIP3    H220338   0.977   6.333   1.979 -0.7741 -2.4052 -0.8374
 6792TIP3   OH220339   3.713   3.995   5.260  0.5555  0.5566 -0.1614
 6792TIP3    H120340   3.681   4.081   5.234  0.3191  0.8940  1.1502
 6792TIP3    H220341   3.668   3.977   5.343  1.7511 -0.1393  0.3617
 6793TIP3   OH220342   2.490   4.378   1.234  0.2296  0.2283 -0.2461
 6793TIP3    H120343   2.539   4.300   1.261 -0.9544 -1.3508 -2.3095
 6793TIP3    H220344   2.473   4.425   1.315  2.7563 -0.5596  0.8301
 6794TIP3   OH220345   4.329   5.226   2.437  0.6748  0.1051 -0.2548
 6794TIP3    H120346   4.352   5.319   2.442 -0.4117  0.3077  2.5533
 6794TIP3    H220347   4.243   5.224   2.395 -0.2906  0.6407  1.5907
 6795TIP3   OH220348   0.692   0.915   1.345 -0.1095  0.2304 -0.2770
 6795TIP3    H120349   0.699   0.857   1.269 -0.3224  0.7767 -0.7167
 6795TIP3    H220350   0.776   0.962   1.347 -1.1004  2.1793 -1.7954
 6796TIP3   OH220351   5.859   3.691   1.105  0.0191  0.3502  0.3370
 6796TIP3    H120352   5.935   3.663   1.155  0.5402 -0.6476 -0.9613
 6796TIP3    H220353   5.816   3.610   1.080 -1.3776  0.8921  0.8616
 6797TIP3   OH220354   6.391   0.806   0.324 -0.1852  0.5062 -0.6332
 6797TIP3    H120355   6.365   0.846   0.407  0.9918  0.0306 -0.0026
 6797TIP3    H220356   6.364   0.714   0.332 -1.0936  0.7100 -1.2571
 6798TIP3   OH220357   1.322   3.450   5.198 -0.4065 -0.5037 -0.0533
 6798TIP3    H120358   1.414   3.439   5.224 -0.6464  1.6932  2.0924
 6798TIP3    H220359   1.304   3.543   5.212 -2.4675 -0.4667 -2.2903
 6799TIP3   OH220360   1.182   2.527   2.188 -0.2654  0.9746  0.4586
 6799TIP3    H120361   1.102   2.549   2.234  0.1630  0.4747  1.4672
 6799TIP3    H220362   1.229   2.468   2.247  0.2645  0.2489 -0.6427
 6800TIP3   OH220363   2.951   3.860   2.848  0.5032  0.1657  0.0407
 6800TIP3    H120364   2.997   3.839   2.930 -0.8270  0.8353  1.0109
 6800TIP3    H220365   2.932   3.774   2.810 -0.1937 -0.2552  1.2466
 6801TIP3   OH220366   5.972  -0.014   4.260 -0.1545 -0.4389  0.2347
 6801TIP3    H120367   5.922  -0.017   4.341 -0.6973  0.2247 -0.0629
 6801TIP3    H220368   6.035   0.057   4.272  1.6299 -2.0827  1.0970
 6802TIP3   OH220369   4.086   6.199   2.291  0.2460  0.1721 -0.5187
 6802TIP3    H120370   4.089   6.227   2.199 -1.3341 -1.6511 -1.1917
 6802TIP3    H220371   4.003   6.153   2.300  0.2357  0.5285  1.9359
 6803TIP3   OH220372   3.075   5.054   0.128 -0.0956  0.2429 -0.0543
 6803TIP3    H120373   3.169   5.072   0.125  0.1653 -0.9356  0.2160
 6803TIP3    H220374   3.042   5.112   0.196  0.5594  0.2096  0.3072
 6804TIP3   OH220375   5.828   4.396   0.218 -0.0852 -0.3950  0.0061
 6804TIP3    H120376   5.814   4.311   0.176  1.1237 -1.2345  1.2109
 6804TIP3    H220377   5.776   4.392   0.297  1.9667 -1.1204  1.4058
 6805TIP3   OH220378   6.909   2.232   2.312  0.1639 -1.0966 -0.0707
 6805TIP3    H120379   6.890   2.263   2.401  3.0788  1.3625 -0.1246
 6805TIP3    H220380   6.994   2.189   2.320  0.3973 -0.9687 -1.6329
 6806TIP3   OH220381   6.414   3.673   2.111  0.2807  0.1720  0.3136
 6806TIP3    H120382   6.392   3.615   2.038  0.9255  0.7536 -0.3658
 6806TIP3    H220383   6.333   3.683   2.160  0.3244 -1.9508  0.9337
 6807TIP3   OH220384   0.720   6.766   1.825 -0.1288  0.4717 -0.4647
 6807TIP3    H120385   0.719   6.851   1.781 -0.8955  0.4779 -0.4447
 6807TIP3    H220386   0.763   6.707   1.762  0.2128  0.8237 -0.5652
 6808TIP3   OH220387   0.562   2.496   4.720  0.7268 -0.2888 -0.6982
 6808TIP3    H120388   0.470   2.473   4.735  0.8359 -0.4318 -0.2085
 6808TIP3    H220389   0.568   2.515   4.627  0.2761 -0.6283 -0.7970
 6809TIP3   OH220390   0.892   5.694   2.338 -0.3615 -0.1508  0.0469
 6809TIP3    H120391   0.905   5.628   2.270  0.0209 -0.3903  0.3489
 6809TIP3    H220392   0.958   5.674   2.404 -0.7207  0.0850  0.4855
 6810TIP3   OH220393   5.647   5.019   3.981 -0.0675  0.5519 -0.3265
 6810TIP3    H120394   5.595   5.029   4.061  0.7790 -2.9961  0.8690
 6810TIP3    H220395   5.661   5.108   3.950 -0.4487  2.1385  3.4881
 6811TIP3   OH220396   3.452   0.510   2.441 -0.1200 -0.9844 -0.0175
 6811TIP3    H120397   3.437   0.416   2.440  0.2911 -1.0519 -0.3253
 6811TIP3    H220398   3.394   0.545   2.374 -1.3116 -0.8431  1.0591
 6812TIP3   OH220399   2.487   1.380   2.859  0.3788  0.1258  0.0720
 6812TIP3    H120400   2.425   1.406   2.928 -0.3046  2.6270 -1.3714
 6812TIP3    H220401   2.573   1.404   2.894  0.1743  0.1686  0.5565
 6813TIP3   OH220402   3.659   2.496   4.862  0.0649  0.1563 -0.2641
 6813TIP3    H120403   3.615   2.563   4.915  0.5935  0.0519  0.3225
 6813TIP3    H220404   3.588   2.446   4.822 -0.3413  0.4744  0.0458
 6814TIP3   OH220405   1.927   0.475   3.971 -0.2958  0.0954  0.3456
 6814TIP3    H120406   1.917   0.552   3.915 -0.5270  0.1310  0.4353
 6814TIP3    H220407   2.022   0.461   3.976 -0.3025 -0.5251 -0.8856
 6815TIP3   OH220408   6.310   4.748   5.716 -0.2630 -0.0200 -0.1701
 6815TIP3    H120409   6.333   4.838   5.693  1.2257 -0.6618 -1.4245
 6815TIP3    H220410   6.230   4.756   5.767 -0.8025  1.9386 -1.2070
 6816TIP3   OH220411   0.855   0.928   5.333  0.1182  0.1961 -0.1413
 6816TIP3    H120412   0.827   0.976   5.411  0.1290 -0.4298  0.2529
 6816TIP3    H220413   0.922   0.867   5.365 -1.5040 -1.7035 -0.1830
 6817TIP3   OH220414   2.970   2.918   3.253  0.4039 -0.0855  0.0933
 6817TIP3    H120415   2.946   2.986   3.316  1.4186 -0.0803  0.4869
 6817TIP3    H220416   3.064   2.930   3.239  0.0763  0.4930 -2.1273
 6818TIP3   OH220417   6.991   5.013   2.737  0.2637 -0.1921 -0.0076
 6818TIP3    H120418   6.899   5.020   2.763  0.1240  1.0464 -0.7329
 6818TIP3    H220419   7.040   5.026   2.818 -0.1902  0.9215  0.1022
 6819TIP3   OH220420   0.102   2.179   4.875 -0.6466  0.2193 -0.3576
 6819TIP3    H120421   0.070   2.255   4.923 -1.9538 -0.4793 -0.0733
 6819TIP3    H220422   0.180   2.211   4.830 -0.0942  1.2264  1.2104
 6820TIP3   OH220423   1.700   3.085   4.408  0.4122  0.8127 -0.5082
 6820TIP3    H120424   1.791   3.054   4.403  1.0615  2.2860  1.1405
 6820TIP3    H220425   1.692   3.123   4.495 -2.2384 -0.5031 -0.0729
 6821TIP3   OH220426   2.236   4.253   0.655  0.0226  0.2199 -0.4333
 6821TIP3    H120427   2.219   4.348   0.654  1.6998  0.5515 -0.4838
 6821TIP3    H220428   2.246   4.230   0.563  1.7838  0.4505 -0.3283
 6822TIP3   OH220429   3.371   5.597   1.843 -1.1390  0.0211 -0.1989
 6822TIP3    H120430   3.345   5.662   1.909  0.6234 -0.0030  0.5814
 6822TIP3    H220431   3.376   5.646   1.761  1.8850  1.4130  0.6768
 6823TIP3   OH220432   0.949   0.387   2.896  0.2032 -0.4367  0.2968
 6823TIP3    H120433   0.922   0.326   2.964  1.4823 -0.9662  0.3684
 6823TIP3    H220434   1.025   0.432   2.933  1.4375 -1.3003 -1.0201
 6824TIP3   OH220435   2.408   3.664   4.764  0.1674 -0.9018  0.0475
 6824TIP3    H120436   2.348   3.701   4.698  0.1931 -0.2372  0.3842
 6824TIP3    H220437   2.394   3.719   4.841  0.2774 -1.5545  0.5372
 6825TIP3   OH220438   3.106   5.566   2.488 -0.0414 -0.3639 -0.2546
 6825TIP3    H120439   3.090   5.561   2.394  1.0937  0.3895 -0.5108
 6825TIP3    H220440   3.022   5.545   2.528 -1.0420  1.1739 -1.4398
 6826TIP3   OH220441   2.221   4.819   0.197  0.1789  0.3838  0.0742
 6826TIP3    H120442   2.211   4.752   0.130 -0.9394 -0.7256  1.2977
 6826TIP3    H220443   2.311   4.808   0.229  0.8067  1.0804 -1.3511
 6827TIP3   OH220444   3.181   1.821   4.457  0.5912 -0.0700  0.1654
 6827TIP3    H120445   3.267   1.824   4.415  0.8706  0.0835  0.7438
 6827TIP3    H220446   3.195   1.859   4.543 -0.3482  1.2221 -0.2188
 6828TIP3   OH220447   7.038   0.217   5.341 -0.0122 -0.0243 -0.6616
 6828TIP3    H120448   7.086   0.202   5.422 -0.6249 -1.1807 -0.4796
 6828TIP3    H220449   6.946   0.211   5.366 -0.2039 -0.7932 -1.4961
 6829TIP3   OH220450   2.832   2.897   1.111 -0.0432  0.5005 -0.0708
 6829TIP3    H120451   2.771   2.925   1.042 -3.2639  0.2474  2.4502
 6829TIP3    H220452   2.823   2.963   1.179  1.2063 -0.5209  1.1291
 6830TIP3   OH220453   3.672   4.506   3.463  0.4834  0.2122 -0.0192
 6830TIP3    H120454   3.657   4.457   3.544 -0.9907  1.1601  0.3128
 6830TIP3    H220455   3.749   4.560   3.481  0.1439  0.4401  0.7621
 6831TIP3   OH220456   4.614   0.636   5.502 -0.6955 -0.6289 -0.3992
 6831TIP3    H120457   4.602   0.549   5.465  1.7399 -1.3082  0.2250
 6831TIP3    H220458   4.686   0.627   5.564 -0.9535  1.6604  0.3667
 6832TIP3   OH220459   3.806   2.140   5.570 -0.0205  0.9278 -0.4247
 6832TIP3    H120460   3.721   2.103   5.547  0.6314 -0.9517  0.0092
 6832TIP3    H220461   3.785   2.209   5.633 -1.1063 -1.9344  2.6247
 6833TIP3   OH220462   0.109   1.660   3.358  0.3082 -0.5778  0.0948
 6833TIP3    H120463   0.148   1.744   3.384 -2.1732  1.0428 -1.0043
 6833TIP3    H220464   0.093   1.669   3.264 -2.4528 -1.1416  0.4278
 6834TIP3   OH220465   0.123   6.093   4.576  0.0449  0.2886 -0.2742
 6834TIP3    H120466   0.214   6.067   4.590  0.6249  1.5289 -1.4781
 6834TIP3    H220467   0.074   6.051   4.647  1.5055 -0.6435  0.2124
 6835TIP3   OH220468   1.144   0.491   5.153 -0.4629 -0.2248  0.5853
 6835TIP3    H120469   1.135   0.552   5.227  1.7831  0.0099  0.7292
 6835TIP3    H220470   1.192   0.541   5.087  0.4772 -1.4767  0.2802
 6836TIP3   OH220471   0.823   2.842   1.317 -0.0599  0.0733 -0.0063
 6836TIP3    H120472   0.757   2.903   1.350 -1.4996 -0.5542 -1.5755
 6836TIP3    H220473   0.806   2.837   1.222  0.8416 -1.7779 -0.1218
 6837TIP3   OH220474   1.427   4.735   0.775 -0.1355  0.2434 -0.3529
 6837TIP3    H120475   1.443   4.695   0.690  0.2281  2.5735 -1.4384
 6837TIP3    H220476   1.507   4.716   0.825  0.8550  1.2094 -1.5063
 6838TIP3   OH220477   2.445   4.205   0.827  0.0847 -0.6919  0.6378
 6838TIP3    H120478   2.450   4.282   0.884  0.3186 -2.5067  3.2640
 6838TIP3    H220479   2.375   4.225   0.765 -3.2879 -0.1084  4.2085
 6839TIP3   OH220480   2.102   0.904   4.772  0.1870  0.2926  0.0833
 6839TIP3    H120481   2.150   0.874   4.849 -0.1927 -0.0627  0.1790
 6839TIP3    H220482   2.162   0.967   4.731  0.3632  0.5360  0.6992
 6840TIP3   OH220483   4.436   1.105   5.692 -0.5092 -0.2089  0.5417
 6840TIP3    H120484   4.527   1.107   5.662 -0.1184  0.4188  1.7143
 6840TIP3    H220485   4.432   1.029   5.750 -0.5456  0.1896  1.0618
 6841TIP3   OH220486   4.095   0.728   2.107  0.1747  0.3947  0.0411
 6841TIP3    H120487   4.126   0.638   2.100 -1.0868 -0.0167 -0.5443
 6841TIP3    H220488   4.063   0.736   2.196  0.7656  0.4335  0.2552
 6842TIP3   OH220489   2.834   0.786   1.448 -0.1907  0.5455 -0.3186
 6842TIP3    H120490   2.864   0.696   1.432 -1.4594 -0.1141  0.7688
 6842TIP3    H220491   2.912   0.840   1.439  1.2907 -1.0435  1.9778
 6843TIP3   OH220492   6.664   4.387   4.338  0.2685 -0.6607  0.1569
 6843TIP3    H120493   6.613   4.318   4.380 -1.3832 -0.7215 -1.8358
 6843TIP3    H220494   6.652   4.463   4.396 -0.6053 -1.1625  0.6536
 6844TIP3   OH220495   2.565   4.441   3.439  0.3060 -0.4357 -0.4389
 6844TIP3    H120496   2.529   4.433   3.351 -1.0513 -1.7219  0.1951
 6844TIP3    H220497   2.501   4.494   3.487 -0.5659 -2.3066  0.5595
 6845TIP3   OH220498   0.633   4.386   2.855  0.0838  0.2830  0.2505
 6845TIP3    H120499   0.563   4.429   2.904 -0.7329 -0.9179  0.1731
 6845TIP3    H220500   0.712   4.433   2.882 -0.7316  1.7045  0.2970
 6846TIP3   OH220501   2.043   0.233   3.753 -0.5747 -0.0587 -0.2352
 6846TIP3    H120502   2.132   0.261   3.774 -0.4363 -0.4986 -0.2399
 6846TIP3    H220503   2.007   0.306   3.702 -0.7127  0.7847  0.9992
 6847TIP3   OH220504   3.808   6.558   0.861 -0.2091 -0.0932  0.2534
 6847TIP3    H120505   3.883   6.499   0.849  0.2383  0.3083  0.9853
 6847TIP3    H220506   3.732   6.500   0.862  0.3152 -0.8102  2.0980
 6848TIP3   OH220507   7.040   5.550   4.981  0.6636 -0.0208  0.2930
 6848TIP3    H120508   7.069   5.559   5.072  2.4069  2.0308 -0.3595
 6848TIP3    H220509   6.955   5.593   4.979  0.9326  0.5577  0.8450
 6849TIP3   OH220510   3.071   1.223   1.693 -0.4259 -0.5378  0.1408
 6849TIP3    H120511   3.071   1.304   1.743 -0.5889 -1.1347  1.1280
 6849TIP3    H220512   2.991   1.178   1.720  0.1676 -1.4815  0.3771
 6850TIP3   OH220513   6.091   2.024   0.813 -0.0102  0.8760  0.3906
 6850TIP3    H120514   5.999   2.046   0.798  0.0207  1.9009  1.5094
 6850TIP3    H220515   6.134   2.108   0.828  1.4891  0.5839 -1.8493
 6851TIP3   OH220516   5.100   0.532   0.379 -0.0334 -0.6719  0.4488
 6851TIP3    H120517   5.091   0.539   0.474  1.3709 -1.3373  0.6647
 6851TIP3    H220518   5.173   0.471   0.366 -0.9561 -1.5271 -1.0787
 6852TIP3   OH220519   4.384   4.584   5.343  0.1849  0.4573  0.2142
 6852TIP3    H120520   4.423   4.537   5.416 -0.3028  1.0013  0.8366
 6852TIP3    H220521   4.438   4.561   5.267 -0.5988 -1.8601  0.2855
 6853TIP3   OH220522   0.910   2.826   4.333  0.6439 -0.5415 -0.5818
 6853TIP3    H120523   0.925   2.751   4.391  0.9873  0.5344  0.7972
 6853TIP3    H220524   0.954   2.899   4.377  0.5573  0.4176 -2.0175
 6854TIP3   OH220525   4.659   2.198   3.995 -0.0796 -0.0851 -0.4404
 6854TIP3    H120526   4.602   2.123   4.006 -1.3101  1.0143  1.0528
 6854TIP3    H220527   4.709   2.203   4.076 -1.2574  1.6532  0.2431
 6855TIP3   OH220528   5.319   1.510   3.671  0.6890  0.1700  0.3649
 6855TIP3    H120529   5.257   1.483   3.602  0.4771  0.4559  0.4381
 6855TIP3    H220530   5.399   1.461   3.653 -0.4246 -2.4258  1.9313
 6856TIP3   OH220531   2.458   0.655   4.812  0.6735  0.1292  1.1628
 6856TIP3    H120532   2.404   0.584   4.778  0.6216  0.2130  1.0680
 6856TIP3    H220533   2.476   0.710   4.735  2.0835 -0.6562  0.8835
 6857TIP3   OH220534   6.060   6.300   3.578 -0.1805 -0.0838  0.1647
 6857TIP3    H120535   6.026   6.235   3.639 -0.3894  0.7307  0.9333
 6857TIP3    H220536   5.995   6.303   3.508 -1.6730  1.2976  1.5064
 6858TIP3   OH220537   4.540   4.499   5.128 -0.0445  0.1660 -0.0158
 6858TIP3    H120538   4.616   4.442   5.139  0.2993  0.5785 -0.1990
 6858TIP3    H220539   4.498   4.469   5.047 -0.3200 -0.3362  0.3142
 6859TIP3   OH220540   3.381   1.444   2.435 -0.3266 -0.1404 -0.2826
 6859TIP3    H120541   3.405   1.494   2.513 -1.6900 -0.4697  0.3780
 6859TIP3    H220542   3.451   1.461   2.372  0.7127  0.2535  0.9642
 6860TIP3   OH220543   3.367   6.656   5.683  0.2228  0.4268  0.2824
 6860TIP3    H120544   3.288   6.681   5.731  1.7849  0.4234  3.0613
 6860TIP3    H220545   3.357   6.562   5.668 -0.5450  0.5335  0.0698
 6861TIP3   OH220546   2.825   4.885   1.794  0.6844  0.0553  0.1474
 6861TIP3    H120547   2.815   4.975   1.762 -0.7123  0.2779  1.0947
 6861TIP3    H220548   2.784   4.886   1.881 -1.7089 -2.0529 -0.8337
 6862TIP3   OH220549   0.574   5.690   4.604 -0.4584  0.0932 -0.8047
 6862TIP3    H120550   0.535   5.673   4.690 -1.4051  1.2086 -0.9852
 6862TIP3    H220551   0.534   5.772   4.576  3.6226  2.6479 -0.0226
 6863TIP3   OH220552   3.954   1.165   1.933 -0.6886 -0.7100 -0.1977
 6863TIP3    H120553   3.988   1.223   1.865 -0.6325 -0.2996  0.1731
 6863TIP3    H220554   4.013   1.089   1.932  0.8949  0.4191  1.1024
 6864TIP3   OH220555   7.124   2.879   1.602  0.9313 -0.6969 -0.2577
 6864TIP3    H120556   7.120   2.829   1.683 -0.1642  0.9887  0.7842
 6864TIP3    H220557   7.215   2.904   1.594  0.7890  0.4399  1.3237
 6865TIP3   OH220558   3.116   4.981   2.558  0.1652 -0.1174 -1.1149
 6865TIP3    H120559   3.097   4.897   2.599  0.2300  0.1927 -0.4480
 6865TIP3    H220560   3.207   5.000   2.581 -0.0814  0.5010 -0.6008
 6866TIP3   OH220561   5.479   4.375   3.387 -0.4540 -0.0068 -0.3616
 6866TIP3    H120562   5.554   4.398   3.443 -1.4983 -0.4316  1.2953
 6866TIP3    H220563   5.457   4.456   3.341  0.9112  0.1616 -0.7588
 6867TIP3   OH220564   2.731   3.940   3.384  0.6744  0.3653  0.2906
 6867TIP3    H120565   2.766   3.894   3.460  0.6682 -1.0405 -0.5248
 6867TIP3    H220566   2.797   3.927   3.315 -0.5410 -0.7411 -0.7237
 6868TIP3   OH220567   0.841   2.779  -0.015 -0.1395 -0.2559 -0.1202
 6868TIP3    H120568   0.754   2.773  -0.054 -0.4309  0.7953  0.3394
 6868TIP3    H220569   0.828   2.823   0.069  0.8349 -0.0318 -0.0663
 6869TIP3   OH220570   0.372   2.163   3.942  0.6032  0.4195  0.2844
 6869TIP3    H120571   0.423   2.224   3.997  2.6971  0.0252 -1.1003
 6869TIP3    H220572   0.426   2.084   3.939 -1.0387 -0.7283  0.2616
 6870TIP3   OH220573   0.246   5.649   5.364 -0.4847  0.0420  0.0776
 6870TIP3    H120574   0.278   5.571   5.409 -0.1702  0.8051  1.2244
 6870TIP3    H220575   0.154   5.630   5.347 -0.1142 -1.0820 -0.8162
 6871TIP3   OH220576   2.062   4.742   0.398  0.0442 -0.1733  0.0439
 6871TIP3    H120577   2.032   4.817   0.450  1.0606  0.8949 -0.8487
 6871TIP3    H220578   2.124   4.780   0.335  1.5417 -1.9363  0.3722
 6872TIP3   OH220579   0.156   0.811   2.184  0.5295  0.6645  1.1133
 6872TIP3    H120580   0.159   0.754   2.107  3.9388  0.9972  0.8465
 6872TIP3    H220581   0.108   0.888   2.155  2.4969  1.1861 -1.0934
 6873TIP3   OH220582   1.992   4.845   5.437  0.3060  0.0373 -0.3417
 6873TIP3    H120583   2.001   4.787   5.361  0.3869  0.5479 -0.7264
 6873TIP3    H220584   1.993   4.933   5.400 -0.3996  0.2751  0.1782
 6874TIP3   OH220585   3.879   0.942   5.488  0.5839 -0.2079 -0.2719
 6874TIP3    H120586   3.917   1.004   5.551 -0.8227 -0.3319  0.7548
 6874TIP3    H220587   3.905   0.975   5.403  1.2678  0.8457  0.3228
 6875TIP3   OH220588   0.494   1.394   1.060  0.0564  0.5985 -0.0745
 6875TIP3    H120589   0.507   1.399   1.154 -0.9261  1.2307  0.0450
 6875TIP3    H220590   0.574   1.431   1.022  0.6747 -0.1346  0.4837
 6876TIP3   OH220591   2.952   4.848   1.229  0.2916  0.0240  0.0842
 6876TIP3    H120592   2.926   4.894   1.309  0.0784 -0.3527  0.2385
 6876TIP3    H220593   2.981   4.917   1.169  0.4568  0.3090  0.4885
 6877TIP3   OH220594   6.475   0.764   2.621  0.1609  0.1131 -0.3478
 6877TIP3    H120595   6.532   0.840   2.635 -0.7040  0.6830  0.2035
 6877TIP3    H220596   6.525   0.707   2.562  1.3233  0.5539  0.1755
 6878TIP3   OH220597   3.892   4.961   2.911 -0.0952  0.1052  0.2351
 6878TIP3    H120598   3.923   5.041   2.868 -1.5886  1.1351  0.9874
 6878TIP3    H220599   3.797   4.972   2.916 -0.2553 -1.4097  0.9894
 6879TIP3   OH220600   1.887   2.880   1.614  0.6520 -0.0017  0.0379
 6879TIP3    H120601   1.920   2.841   1.533 -0.5421 -2.0002  0.4400
 6879TIP3    H220602   1.803   2.920   1.589  1.7551  2.2772 -0.3209
 6880TIP3   OH220603   6.522   1.859   0.770 -0.2679  0.4981  0.4320
 6880TIP3    H120604   6.432   1.880   0.745 -0.5245  0.0140  0.9194
 6880TIP3    H220605   6.540   1.775   0.728  0.8677  1.7661 -1.7776
 6881TIP3   OH220606   1.004   5.269   4.162 -0.1030  0.1527  0.4120
 6881TIP3    H120607   1.050   5.188   4.181  2.0478  1.2193 -0.0118
 6881TIP3    H220608   1.063   5.319   4.106 -1.0176  2.3288  1.2631
 6882TIP3   OH220609   0.977   6.497   5.291  0.0285  0.1005  0.3257
 6882TIP3    H120610   0.928   6.442   5.230 -0.0330 -0.8633  1.2193
 6882TIP3    H220611   0.912   6.528   5.354  0.1586  0.7749  0.1354
 6883TIP3   OH220612   7.150   1.408   4.717  0.1157 -0.1974 -0.5273
 6883TIP3    H120613   7.111   1.487   4.680  0.9735 -0.8442 -3.0660
 6883TIP3    H220614   7.078   1.362   4.759 -0.3523  1.9971  1.2752
 6884TIP3   OH220615   2.257   5.454   4.771 -0.1958 -0.4760  0.1879
 6884TIP3    H120616   2.237   5.545   4.794 -0.2474 -0.2937 -0.5661
 6884TIP3    H220617   2.264   5.454   4.676  1.5271 -0.9008  0.2729
 6885TIP3   OH220618   6.617   4.934   0.102  0.5837  0.1100 -0.1989
 6885TIP3    H120619   6.603   4.898   0.189 -1.4799 -1.0152 -0.9280
 6885TIP3    H220620   6.591   5.026   0.108 -2.1641 -0.5946 -0.1809
 6886TIP3   OH220621   6.099   5.943   0.967 -0.3553  0.2464  0.0017
 6886TIP3    H120622   6.079   6.025   0.922 -0.8940  1.0214  1.5875
 6886TIP3    H220623   6.019   5.923   1.016  0.5406  0.0014  1.4241
 6887TIP3   OH220624   6.602   0.824   4.440  0.1847  0.5821  0.1876
 6887TIP3    H120625   6.674   0.761   4.442 -0.8752 -0.8293 -2.2052
 6887TIP3    H220626   6.534   0.784   4.495 -1.3616 -1.6993 -3.0813
 6888TIP3   OH220627   0.684   4.109   3.036 -0.2296 -0.2036 -0.4553
 6888TIP3    H120628   0.593   4.119   3.064  0.0615 -0.6899  0.7501
 6888TIP3    H220629   0.712   4.026   3.076  1.2344  0.7468  0.6139
 6889TIP3   OH220630   6.619   3.522   2.185  0.5129 -0.4959  0.4007
 6889TIP3    H120631   6.574   3.443   2.155  1.6894 -0.5715 -1.3654
 6889TIP3    H220632   6.559   3.593   2.163  0.4155 -0.7376 -0.1393
 6890TIP3   OH220633   4.529   3.917   0.634 -0.1180 -0.0513 -0.0762
 6890TIP3    H120634   4.497   3.899   0.723 -0.5975  2.0838  0.2536
 6890TIP3    H220635   4.624   3.916   0.642 -0.0484 -2.9517 -0.2830
 6891TIP3   OH220636   4.340   0.960   2.964  0.6273 -0.6179  0.1364
 6891TIP3    H120637   4.251   0.952   2.997  0.2578 -2.0694 -1.1264
 6891TIP3    H220638   4.347   1.052   2.937 -0.6250 -0.5992 -0.1810
 6892TIP3   OH220639   7.088   4.217   4.777  0.2667 -0.1148 -0.1400
 6892TIP3    H120640   7.150   4.146   4.763 -0.2843 -0.5354 -0.4622
 6892TIP3    H220641   7.102   4.277   4.703 -1.2455 -1.3269 -1.4696
 6893TIP3   OH220642   4.045   2.868   5.482  0.3583  0.4882  0.5251
 6893TIP3    H120643   4.133   2.891   5.453  0.6763  1.2717  2.0359
 6893TIP3    H220644   3.991   2.944   5.458  0.2994  0.4453  0.5218
 6894TIP3   OH220645   6.862   4.313   4.173 -0.2692  0.0000 -0.4808
 6894TIP3    H120646   6.791   4.348   4.227  0.6188  0.6686  0.2853
 6894TIP3    H220647   6.927   4.383   4.171  0.0848 -0.3474 -1.7332
 6895TIP3   OH220648   6.019   3.712   4.429 -0.0780 -0.5328  0.0836
 6895TIP3    H120649   6.074   3.781   4.393 -1.6802  1.3167  1.0049
 6895TIP3    H220650   6.073   3.673   4.498  1.2098 -0.9117 -1.0890
 6896TIP3   OH220651   3.684   5.252   3.308 -0.7719  0.1778  0.3371
 6896TIP3    H120652   3.738   5.221   3.235 -0.3620  1.1410  0.2247
 6896TIP3    H220653   3.601   5.206   3.297 -0.2158 -0.8231  0.1308
 6897TIP3   OH220654   4.875   0.035   0.397  0.1383 -0.7192 -0.4446
 6897TIP3    H120655   4.903   0.075   0.315  0.3970  1.4865  0.6325
 6897TIP3    H220656   4.781   0.020   0.386  0.1336 -0.2509 -1.0797
 6898TIP3   OH220657   4.980   1.071   5.846 -0.2676  0.6288 -0.3210
 6898TIP3    H120658   4.957   1.164   5.851 -1.4977  0.2829  1.0712
 6898TIP3    H220659   5.038   1.057   5.921  0.1050  0.3199 -0.6635
 6899TIP3   OH220660   3.545   3.773   0.025  0.0717  0.1783 -0.9277
 6899TIP3    H120661   3.516   3.750   0.113 -0.9401 -0.2741 -1.3663
 6899TIP3    H220662   3.630   3.815   0.038 -0.0364  0.0594  0.2543
 6900TIP3   OH220663   1.194   4.509   2.716  0.9309 -0.0779  0.3880
 6900TIP3    H120664   1.281   4.550   2.717  0.6872  0.7388 -2.5247
 6900TIP3    H220665   1.205   4.429   2.664 -0.2958  0.8435 -1.4022
 6901TIP3   OH220666   3.012   3.334   0.386  0.0573  0.0755 -0.1227
 6901TIP3    H120667   3.006   3.251   0.434  0.0730  0.2347  0.1573
 6901TIP3    H220668   3.105   3.354   0.384  0.0792 -0.0652 -0.4495
 6902TIP3   OH220669   1.621   2.098   3.259  0.0501 -0.2673  0.2212
 6902TIP3    H120670   1.564   2.096   3.336 -0.4977 -4.7715 -0.0648
 6902TIP3    H220671   1.710   2.090   3.294 -0.0867 -0.8350  0.4457
 6903TIP3   OH220672   1.161   4.725   0.146 -0.3824 -0.1181  0.0645
 6903TIP3    H120673   1.212   4.804   0.128  0.6481 -0.9165 -0.6606
 6903TIP3    H220674   1.128   4.697   0.060  0.5297 -1.2985  0.0773
 6904TIP3   OH220675   1.382   3.549   0.155 -0.1933 -0.4711 -0.4198
 6904TIP3    H120676   1.469   3.510   0.154 -0.2017 -0.5282  0.6484
 6904TIP3    H220677   1.389   3.623   0.094  1.7754  1.9766  2.4931
 6905TIP3   OH220678   4.780   1.116   1.239 -0.4511  0.6667  0.2057
 6905TIP3    H120679   4.848   1.055   1.212 -1.3615 -0.6403  0.7891
 6905TIP3    H220680   4.714   1.062   1.282 -1.3260  2.0507  0.6810
 6906TIP3   OH220681   5.404   2.097   0.363 -0.0810 -0.3522  0.2893
 6906TIP3    H120682   5.445   2.181   0.385 -0.7663 -0.3596  1.6875
 6906TIP3    H220683   5.315   2.104   0.397  0.0690 -1.9050  1.0895
 6907TIP3   OH220684   7.156   4.229   0.762 -0.0625  0.3276 -0.4050
 6907TIP3    H120685   7.110   4.145   0.758 -1.4822  0.9761  1.0309
 6907TIP3    H220686   7.087   4.294   0.773  1.1242  1.4577  0.8176
 6908TIP3   OH220687   3.054   4.210   2.801 -0.1491  0.8048 -0.3741
 6908TIP3    H120688   3.088   4.190   2.888 -0.0847  1.0348 -0.3446
 6908TIP3    H220689   3.131   4.237   2.751 -0.2709  1.2607 -0.3265
 6909TIP3   OH220690   6.016   5.854   3.110 -0.1596 -0.0180 -0.2782
 6909TIP3    H120691   6.061   5.907   3.176  1.0868 -0.5628 -0.6489
 6909TIP3    H220692   5.958   5.797   3.161  0.6149 -0.2743  0.3503
 6910TIP3   OH220693   5.626   4.293   3.770  0.0213 -0.5015  0.0381
 6910TIP3    H120694   5.678   4.294   3.689  0.3271  1.2920  0.2011
 6910TIP3    H220695   5.683   4.335   3.835  0.3654 -3.2153  1.6422
 6911TIP3   OH220696   6.149   5.144   4.253  0.0971  0.6463  0.2044
 6911TIP3    H120697   6.143   5.235   4.227 -0.3710  0.8468  0.9783
 6911TIP3    H220698   6.064   5.106   4.229  1.1278 -0.2470 -2.4245
 6912TIP3   OH220699   6.297   3.186   4.240  0.4120 -0.0089  0.6057
 6912TIP3    H120700   6.261   3.156   4.157  0.4875 -0.6238  0.7891
 6912TIP3    H220701   6.222   3.224   4.286  0.6238  1.5537 -0.2667
 6913TIP3   OH220702   2.382   4.504   0.339 -0.0998  0.3000  0.2748
 6913TIP3    H120703   2.339   4.442   0.280 -0.7253 -0.0405  1.0743
 6913TIP3    H220704   2.471   4.511   0.304 -0.9222  1.4918 -1.7847
 6914TIP3   OH220705   5.465   5.129   1.297  0.4635 -0.4822  0.5150
 6914TIP3    H120706   5.471   5.052   1.354 -1.3666 -1.8010 -0.9467
 6914TIP3    H220707   5.442   5.093   1.211  2.4716  1.4834 -0.9583
 6915TIP3   OH220708   6.604   0.486   5.699 -0.3271 -0.0066 -0.6949
 6915TIP3    H120709   6.670   0.418   5.683 -2.5067 -2.1699 -1.1193
 6915TIP3    H220710   6.588   0.483   5.793  0.4443  0.8169 -0.5274
 6916TIP3   OH220711   2.213   0.194   2.214  0.5998 -0.5196  0.4187
 6916TIP3    H120712   2.176   0.218   2.129  0.8563 -0.0941  0.4227
 6916TIP3    H220713   2.198   0.100   2.221  0.6255 -0.5711 -0.1270
 6917TIP3   OH220714   0.881   1.423   5.167 -0.2633  0.1364 -0.5710
 6917TIP3    H120715   0.796   1.405   5.207 -0.3870 -0.7240 -1.1887
 6917TIP3    H220716   0.862   1.435   5.074  0.2169  0.5752 -0.6217
 6918TIP3   OH220717   3.278   3.179   1.887 -0.1001 -0.1895 -0.5454
 6918TIP3    H120718   3.329   3.236   1.946  2.6260  0.3566 -3.1439
 6918TIP3    H220719   3.285   3.092   1.926  2.1460  0.0419 -0.2590
 6919TIP3   OH220720   5.735   2.120   5.518  0.4568 -0.1886 -0.5313
 6919TIP3    H120721   5.690   2.205   5.516  0.8704  0.0287 -2.1247
 6919TIP3    H220722   5.773   2.111   5.431  1.5295 -1.4323  0.0225
 6920TIP3   OH220723   1.415   1.551   4.524 -0.0631 -0.5179  0.3770
 6920TIP3    H120724   1.378   1.572   4.439  0.9096  0.2851  0.1313
 6920TIP3    H220725   1.419   1.634   4.571 -0.4115 -0.9191  1.1455
 6921TIP3   OH220726   3.655   4.837   0.311  0.6300  0.2554 -0.2982
 6921TIP3    H120727   3.588   4.889   0.356  0.3929  1.8702 -2.3590
 6921TIP3    H220728   3.640   4.747   0.341 -0.9015  0.9247  1.0986
 6922TIP3   OH220729   4.427   0.317   3.865  0.4645 -0.2582 -0.0534
 6922TIP3    H120730   4.510   0.340   3.825  0.9028  0.5595  1.2683
 6922TIP3    H220731   4.449   0.291   3.954 -0.5933 -0.9550  0.0274
 6923TIP3   OH220732   0.598   1.163   3.584 -0.5469  0.1543  0.6889
 6923TIP3    H120733   0.681   1.210   3.572 -1.8972  2.4090 -0.5898
 6923TIP3    H220734   0.605   1.086   3.527  1.6370 -1.2290  2.6528
 6924TIP3   OH220735   5.064   5.944   1.015  0.3139 -0.4675  0.2663
 6924TIP3    H120736   5.007   5.902   1.080  0.1873 -1.1722 -0.3013
 6924TIP3    H220737   5.149   5.950   1.058 -0.1275  0.4632  1.0692
 6925TIP3   OH220738   4.308   1.506   5.339 -0.1896 -1.1641 -0.1987
 6925TIP3    H120739   4.338   1.415   5.342  0.6543 -0.9548 -1.5451
 6925TIP3    H220740   4.285   1.520   5.248 -1.2020 -0.2907  0.1792
 6926TIP3   OH220741   4.997   2.963   5.019  0.4937 -0.1283 -0.1939
 6926TIP3    H120742   4.922   3.016   4.994  0.2847 -0.6046 -0.6066
 6926TIP3    H220743   5.063   3.026   5.048  0.1542  0.3308 -0.4108
 6927TIP3   OH220744   5.915   5.073   0.990  0.9237 -0.1255  0.2176
 6927TIP3    H120745   5.851   5.083   1.060  0.2246 -1.0035 -0.2858
 6927TIP3    H220746   5.939   4.980   0.993 -1.1162 -0.8411 -2.3959
 6928TIP3   OH220747   4.308   2.666   2.452  0.0201  0.1748  0.0166
 6928TIP3    H120748   4.301   2.572   2.466 -0.5029  0.4172  1.6249
 6928TIP3    H220749   4.220   2.694   2.426 -0.2207  0.4074  1.0175
 6929TIP3   OH220750   2.342   2.374   4.969  0.0039 -0.3327  0.1300
 6929TIP3    H120751   2.396   2.298   4.993  0.6087 -0.6113 -1.9246
 6929TIP3    H220752   2.380   2.405   4.887 -0.8057  1.6651  0.4727
 6930TIP3   OH220753   3.075   6.745   5.363 -0.4562  0.0195  0.2034
 6930TIP3    H120754   3.065   6.659   5.403  3.6019  0.2513  2.2116
 6930TIP3    H220755   3.169   6.764   5.370 -0.8730  3.8125 -1.8920
 6931TIP3   OH220756   3.094   5.734   5.644 -0.4084 -0.4959  0.5653
 6931TIP3    H120757   3.148   5.785   5.705  0.6684 -0.8606 -0.0741
 6931TIP3    H220758   3.156   5.682   5.594 -1.3803 -1.1565  0.0189
 6932TIP3   OH220759   0.505   4.205   3.333  0.1833 -0.1810 -0.0981
 6932TIP3    H120760   0.593   4.171   3.349 -0.2119 -0.8249  0.7896
 6932TIP3    H220761   0.500   4.284   3.386  0.5754  0.4694 -0.9861
 6933TIP3   OH220762   5.364   2.000   0.725  0.0559  0.6651 -0.5507
 6933TIP3    H120763   5.397   1.912   0.744 -1.7521 -0.3631 -1.9135
 6933TIP3    H220764   5.279   2.004   0.768  0.3313  1.9668 -0.0748
 6934TIP3   OH220765   1.991   3.468   0.061  0.6965 -0.0407 -0.7885
 6934TIP3    H120766   2.023   3.558   0.061 -1.1161  0.6388 -0.2766
 6934TIP3    H220767   2.060   3.418   0.104  0.1771  1.7177  2.3814
 6935TIP3   OH220768   5.161   4.619   3.277 -0.5124  0.0889  0.0800
 6935TIP3    H120769   5.136   4.527   3.267 -0.9261  0.2379 -0.2990
 6935TIP3    H220770   5.256   4.617   3.283 -0.6034 -0.5766  2.5327
 6936TIP3   OH220771   5.290   1.217   5.323  0.0402  0.0978 -0.4671
 6936TIP3    H120772   5.355   1.204   5.392  0.9294  0.4347 -1.2132
 6936TIP3    H220773   5.285   1.133   5.278  1.7179  0.6724 -1.8542
 6937TIP3   OH220774   3.339   3.189   1.340  0.1195  0.0970  0.2293
 6937TIP3    H120775   3.290   3.172   1.259 -0.2006  2.0406 -0.0321
 6937TIP3    H220776   3.291   3.140   1.407 -0.4839 -0.3644 -0.5109
 6938TIP3   OH220777   3.186   4.947   2.908  0.5334  0.1081  0.0431
 6938TIP3    H120778   3.242   5.015   2.870  2.4457 -0.7952  1.0996
 6938TIP3    H220779   3.225   4.929   2.994 -1.4912 -0.4881  0.8955
 6939TIP3   OH220780   5.790   2.388   2.407  0.2005 -0.0493  0.9549
 6939TIP3    H120781   5.767   2.436   2.328 -0.0721 -2.6401 -0.6572
 6939TIP3    H220782   5.706   2.370   2.450  0.2711  0.5497  1.3557
 6940TIP3   OH220783   0.096   5.557   3.313  0.0310 -0.2446  0.5129
 6940TIP3    H120784   0.155   5.488   3.346  0.1191 -0.9246 -0.9635
 6940TIP3    H220785   0.072   5.607   3.390  0.2332 -1.7456  1.5907
 6941TIP3   OH220786   2.201   4.286   4.413  0.3858 -0.1696  0.0635
 6941TIP3    H120787   2.173   4.356   4.355  1.5064  0.9119  0.7696
 6941TIP3    H220788   2.215   4.211   4.356 -1.1465  0.0652 -0.6602
 6942TIP3   OH220789   1.929   2.733   4.514 -0.4179  0.5823  0.6469
 6942TIP3    H120790   1.943   2.764   4.604 -0.9552 -0.8089  1.2491
 6942TIP3    H220791   1.849   2.778   4.486 -0.1292  1.1893  0.7777
 6943TIP3   OH220792   2.393   2.651   0.578 -0.0456 -0.4661 -0.1516
 6943TIP3    H120793   2.362   2.582   0.637 -0.2819  0.6884  1.1399
 6943TIP3    H220794   2.317   2.676   0.527 -1.0777  1.4870  2.1293
 6944TIP3   OH220795   3.537   5.117   0.795 -0.5246 -0.1552 -0.3516
 6944TIP3    H120796   3.446   5.098   0.772  0.2540 -1.6819 -2.5574
 6944TIP3    H220797   3.574   5.032   0.818  0.4719  0.3777  0.0685
 6945TIP3   OH220798   4.592   4.708   4.639  0.0061 -0.2548  0.7090
 6945TIP3    H120799   4.543   4.789   4.652 -1.5824 -0.9669 -0.4809
 6945TIP3    H220800   4.655   4.729   4.570 -0.7787 -0.1622  0.0038
 6946TIP3   OH220801   4.717   1.603   0.923 -0.0858 -0.7418 -0.3931
 6946TIP3    H120802   4.621   1.605   0.925 -0.2188 -3.0187 -1.5706
 6946TIP3    H220803   4.742   1.567   1.008 -0.4778 -2.7289 -1.0605
 6947TIP3   OH220804   2.732   4.882   2.056 -0.0199  0.5852  0.0330
 6947TIP3    H120805   2.688   4.817   2.110 -0.9422 -0.1858 -1.5598
 6947TIP3    H220806   2.800   4.919   2.112 -1.3879  0.3524  1.9235
 6948TIP3   OH220807   6.392   1.868   3.270  0.3462  0.0623  0.2284
 6948TIP3    H120808   6.312   1.915   3.294 -0.5890 -1.1429 -0.3919
 6948TIP3    H220809   6.463   1.929   3.289 -0.7609  1.3825  0.2477
 6949TIP3   OH220810   1.027   0.324   5.516  0.3449 -0.3561 -0.5477
 6949TIP3    H120811   1.003   0.376   5.438  1.6474 -1.1735 -1.5371
 6949TIP3    H220812   1.117   0.350   5.534  0.1216 -0.3437  0.5784
 6950TIP3   OH220813   0.323   5.168   1.319  0.5103 -0.3525  0.1574
 6950TIP3    H120814   0.336   5.125   1.404  2.1919 -1.1931 -0.4864
 6950TIP3    H220815   0.408   5.162   1.276  0.4818  2.5991 -0.4842
 6951TIP3   OH220816   6.161   4.372   3.192  0.2682  0.1225  0.5644
 6951TIP3    H120817   6.222   4.406   3.258  1.3626 -1.4433  0.4250
 6951TIP3    H220818   6.214   4.311   3.140 -0.7261  0.8671 -1.4016
 6952TIP3   OH220819   0.973   5.142   2.916  0.9888 -0.5421 -0.0612
 6952TIP3    H120820   0.908   5.190   2.967 -1.0130 -1.7947 -1.2995
 6952TIP3    H220821   1.055   5.189   2.931 -0.2496  1.3346  1.2615
 6953TIP3   OH220822   5.223   1.337   1.242 -0.4843 -0.3100  0.0396
 6953TIP3    H120823   5.163   1.321   1.315 -0.5406  0.6036  0.2131
 6953TIP3    H220824   5.307   1.304   1.272 -0.6479 -0.5231  0.2649
 6954TIP3   OH220825   0.126   2.067   4.168 -0.1367  0.6039 -0.1564
 6954TIP3    H120826   0.139   2.014   4.246 -0.2931 -0.6212 -0.9347
 6954TIP3    H220827   0.202   2.049   4.113  1.3890  3.5320  0.7777
 6955TIP3   OH220828   1.556   3.696   5.237  0.2678  0.1871 -0.1441
 6955TIP3    H120829   1.566   3.602   5.228  1.1184  0.2665 -0.0580
 6955TIP3    H220830   1.528   3.708   5.328 -1.0512 -0.0600 -0.4976
 6956TIP3   OH220831   3.976   3.544   1.470  0.2161 -0.3675 -0.2824
 6956TIP3    H120832   4.015   3.459   1.455  1.3840  0.2302 -0.7479
 6956TIP3    H220833   3.925   3.533   1.550  0.9614 -1.2983  0.0852
 6957TIP3   OH220834   6.774   4.167   2.907  0.0315 -0.1293  0.0567
 6957TIP3    H120835   6.721   4.124   2.840 -1.9212 -1.7873  2.4758
 6957TIP3    H220836   6.757   4.117   2.987  1.6023  2.2000  1.9997
 6958TIP3   OH220837   1.964   2.421   5.344  0.3409  0.1689 -0.2313
 6958TIP3    H120838   1.886   2.429   5.399 -0.2955  0.5435 -1.1753
 6958TIP3    H220839   1.950   2.341   5.293 -0.7483  1.6379 -2.3917
 6959TIP3   OH220840   4.480   1.891   3.444 -0.2105 -0.3495  0.1263
 6959TIP3    H120841   4.402   1.905   3.498 -0.8118  0.2173 -0.8498
 6959TIP3    H220842   4.478   1.962   3.380 -0.2530 -1.7108 -1.4698
 6960TIP3   OH220843   4.975   2.694   5.582 -0.5397  0.2875 -0.1140
 6960TIP3    H120844   4.883   2.718   5.571 -0.3622  0.4029 -1.4851
 6960TIP3    H220845   4.985   2.614   5.529  0.5210  1.1940 -1.3335
 6961TIP3   OH220846   2.415   3.389   4.371  0.1489 -0.0541 -0.0563
 6961TIP3    H120847   2.478   3.317   4.375  0.0399 -0.0979  1.0933
 6961TIP3    H220848   2.421   3.421   4.281 -0.2207 -1.8600 -0.7617
 6962TIP3   OH220849   3.680   6.400   2.870 -0.2515 -0.9991  0.0245
 6962TIP3    H120850   3.769   6.423   2.844 -0.0542 -1.1424  0.5629
 6962TIP3    H220851   3.691   6.323   2.926 -0.5133  0.1849  1.7986
 6963TIP3   OH220852   1.257   5.067   3.478 -0.0027  0.4398  0.2176
 6963TIP3    H120853   1.196   4.993   3.469 -0.6786  1.1460 -1.4772
 6963TIP3    H220854   1.297   5.055   3.564  1.0646 -2.7651 -0.5810
 6964TIP3   OH220855   5.630   3.778   4.563 -0.0707 -0.1714  0.0378
 6964TIP3    H120856   5.628   3.864   4.606 -2.0573 -0.4740  0.6690
 6964TIP3    H220857   5.590   3.793   4.477  0.3426 -0.3060 -0.1792
 6965TIP3   OH220858   5.559   6.544   4.772  0.0754  0.0317 -0.3429
 6965TIP3    H120859   5.634   6.534   4.713 -0.2513 -0.6051 -0.6705
 6965TIP3    H220860   5.509   6.463   4.760  0.4360 -0.5058  1.4465
 6966TIP3   OH220861   1.888   6.235   3.269 -0.3101  0.7480 -0.3741
 6966TIP3    H120862   1.828   6.253   3.196 -1.1065  0.6523  0.2528
 6966TIP3    H220863   1.932   6.153   3.244 -0.4016  0.8424 -0.8534
 6967TIP3   OH220864   5.119   5.907   5.465  0.2787  0.1390  0.5506
 6967TIP3    H120865   5.122   5.946   5.553  1.2438 -2.1080  1.5922
 6967TIP3    H220866   5.092   5.817   5.480  1.2025 -0.5065 -1.3990
 6968TIP3   OH220867   6.699   2.762   4.860 -0.1855  0.1951  0.1972
 6968TIP3    H120868   6.619   2.716   4.884 -0.3025  0.6599  0.7332
 6968TIP3    H220869   6.694   2.770   4.765 -2.3673  2.9404  0.3894
 6969TIP3   OH220870   1.030   4.515   2.053 -0.0944  0.2649  0.2087
 6969TIP3    H120871   1.100   4.536   1.991 -1.6840  2.6053 -0.9431
 6969TIP3    H220872   1.063   4.547   2.137  0.8175 -0.0359 -0.0224
 6970TIP3   OH220873   0.364   2.604   3.421 -0.3605  0.2069  0.3073
 6970TIP3    H120874   0.275   2.636   3.431 -0.4226  0.8665 -1.9558
 6970TIP3    H220875   0.354   2.517   3.383 -0.0584  0.4454 -0.3374
 6971TIP3   OH220876   2.499   0.196   2.197  0.8019 -0.4552 -0.2097
 6971TIP3    H120877   2.405   0.204   2.179  0.3066 -0.8192  1.9108
 6971TIP3    H220878   2.536   0.279   2.168 -0.0986 -0.4643 -1.4578
 6972TIP3   OH220879   3.108   2.171   2.497  0.1313 -0.0864 -0.3806
 6972TIP3    H120880   3.190   2.151   2.541 -0.4712  0.2887  0.9854
 6972TIP3    H220881   3.124   2.152   2.405  1.6317 -0.3417 -0.0872
 6973TIP3   OH220882   0.278   3.743   0.601 -0.5931 -0.2522 -0.5100
 6973TIP3    H120883   0.359   3.776   0.563 -0.1233  1.3834  1.6784
 6973TIP3    H220884   0.208   3.783   0.550  0.0068  1.7773  0.1617
 6974TIP3   OH220885   6.161   1.472   4.180  0.6370  0.4474 -0.3958
 6974TIP3    H120886   6.126   1.558   4.155 -0.7675 -0.2300 -0.8481
 6974TIP3    H220887   6.222   1.491   4.251 -0.8291  1.6723  0.5817
 6975TIP3   OH220888   4.527   1.992   1.394 -0.1436 -0.0482 -0.1038
 6975TIP3    H120889   4.537   2.072   1.446  0.0347  1.3344 -2.1216
 6975TIP3    H220890   4.617   1.963   1.379 -0.2189 -0.8121  0.8487
 6976TIP3   OH220891   6.849   2.712   3.055  0.1247  0.1350 -0.1544
 6976TIP3    H120892   6.822   2.793   3.098  1.8780  1.5506 -1.5866
 6976TIP3    H220893   6.918   2.738   2.995  0.5926 -2.4099 -0.8438
 6977TIP3   OH220894   7.149   4.139   2.207 -0.9628 -0.1324  0.2111
 6977TIP3    H120895   7.234   4.138   2.251 -1.0225 -2.7735  0.4103
 6977TIP3    H220896   7.135   4.231   2.185  1.4476  0.5300  1.0944
 6978TIP3   OH220897   1.224   6.557   3.622  0.2476  0.8417  0.2507
 6978TIP3    H120898   1.289   6.520   3.681  0.9345  0.9000 -0.4486
 6978TIP3    H220899   1.142   6.556   3.672  0.4868 -0.5285  0.6493
 6979TIP3   OH220900   6.178   2.281   1.399  0.1315 -0.2082  0.0081
 6979TIP3    H120901   6.244   2.298   1.331 -0.1930  2.1634  0.1987
 6979TIP3    H220902   6.098   2.319   1.364 -0.2857  0.1395  1.2930
 6980TIP3   OH220903   2.630   1.192   5.693  0.1001 -0.0683 -0.0929
 6980TIP3    H120904   2.564   1.171   5.760 -2.0308  0.8128 -1.8006
 6980TIP3    H220905   2.705   1.224   5.743 -1.4501  0.7199  1.8892
 6981TIP3   OH220906   1.443   5.527   2.670 -0.3497 -0.4072 -0.2356
 6981TIP3    H120907   1.394   5.606   2.693  0.7757  0.1804  0.2387
 6981TIP3    H220908   1.409   5.502   2.584 -3.4628 -1.6869  1.2356
 6982TIP3   OH220909   3.317   2.569   1.649 -0.1953 -0.4229  0.4710
 6982TIP3    H120910   3.248   2.519   1.606 -0.0103  0.0895 -0.4314
 6982TIP3    H220911   3.369   2.503   1.695 -0.8754 -0.8861  0.5906
 6983TIP3   OH220912   3.033   2.900   5.589  0.0917  0.4780  0.0994
 6983TIP3    H120913   2.973   2.844   5.638 -0.3084  0.8967  0.0875
 6983TIP3    H220914   3.035   2.861   5.501 -1.8912  1.7207 -0.5559
 6984TIP3   OH220915   2.929   3.792   3.116  0.2259  0.1338 -0.0270
 6984TIP3    H120916   2.841   3.816   3.089  0.6006  1.6792  0.0484
 6984TIP3    H220917   2.924   3.697   3.131 -1.2486  0.0889 -0.6138
 6985TIP3   OH220918   6.297   6.068   0.466  0.7088  0.0623 -0.1168
 6985TIP3    H120919   6.246   6.132   0.417  1.1770 -1.4549 -2.7551
 6985TIP3    H220920   6.328   6.006   0.400 -0.5025 -3.4657  2.3068
 6986TIP3   OH220921   0.611   2.211   0.081  0.2538 -0.0846 -0.2491
 6986TIP3    H120922   0.629   2.159   0.160  0.7085  0.2115 -0.1558
 6986TIP3    H220923   0.650   2.160   0.010 -2.7927 -1.9304 -0.7551
 6987TIP3   OH220924   2.131   1.863   3.089 -0.4915 -0.3121  0.7697
 6987TIP3    H120925   2.152   1.928   3.156 -0.0405 -0.2655  0.5843
 6987TIP3    H220926   2.170   1.898   3.009  0.5563 -1.2462  0.8502
 6988TIP3   OH220927   6.685   6.462   0.199 -0.7980 -0.2688  0.4864
 6988TIP3    H120928   6.657   6.492   0.286 -1.0425 -0.3248  0.4283
 6988TIP3    H220929   6.637   6.381   0.185  1.6806 -2.0545  1.6815
 6989TIP3   OH220930   5.220   3.477   1.742 -0.1453 -0.6082  0.1251
 6989TIP3    H120931   5.150   3.415   1.761  0.8494 -1.6666  0.4457
 6989TIP3    H220932   5.240   3.518   1.827 -0.8398  0.2142 -0.0965
 6990TIP3   OH220933   6.527   3.820   2.516  0.3709 -0.7277  0.1159
 6990TIP3    H120934   6.472   3.743   2.509 -1.2961  0.4471 -0.2797
 6990TIP3    H220935   6.534   3.837   2.610 -0.7896 -0.3240  0.1419
 6991TIP3   OH220936   5.800   2.919   3.941 -0.4891 -0.1908 -0.0243
 6991TIP3    H120937   5.821   2.988   4.003 -1.4381  0.4895 -0.4319
 6991TIP3    H220938   5.782   2.842   3.996  1.7267 -0.4757  0.3805
 6992TIP3   OH220939   5.231   2.551   4.919  0.5003  0.1300 -0.1666
 6992TIP3    H120940   5.194   2.618   4.862  0.5177 -0.3230 -0.7222
 6992TIP3    H220941   5.306   2.517   4.871  0.4893 -0.2916  0.1074
 6993TIP3   OH220942   6.671   4.714   5.076  0.1466  0.0746 -0.2086
 6993TIP3    H120943   6.667   4.623   5.049  1.0330  0.0560 -0.3108
 6993TIP3    H220944   6.657   4.712   5.171 -2.8356  0.1314 -0.5716
 6994TIP3   OH220945   5.048   2.041   3.490 -0.1288 -0.5023  0.3027
 6994TIP3    H120946   4.963   2.079   3.466  0.4860  0.0728 -1.0655
 6994TIP3    H220947   5.108   2.115   3.491  1.0581 -1.3198 -2.2106
 6995TIP3   OH220948   5.274   5.990   1.221  0.0702  0.6412 -0.4079
 6995TIP3    H120949   5.366   6.018   1.222  0.0573  0.7071 -0.9843
 6995TIP3    H220950   5.266   5.935   1.299  1.5769 -2.4439 -2.2438
 6996TIP3   OH220951   3.378   1.669   5.377 -0.3230 -0.1579  0.0517
 6996TIP3    H120952   3.390   1.760   5.351  0.5213 -0.2028  0.2690
 6996TIP3    H220953   3.293   1.668   5.421  0.0927  0.7247  0.9224
 6997TIP3   OH220954   4.913   4.748   2.608 -0.1467 -0.0827  0.0463
 6997TIP3    H120955   4.997   4.778   2.644 -0.6415 -0.1555  1.3228
 6997TIP3    H220956   4.850   4.767   2.678 -1.1215 -0.4343 -0.7247
 6998TIP3   OH220957   6.935   4.823   4.120 -0.1015 -0.3308  0.0351
 6998TIP3    H120958   6.954   4.917   4.110  0.4522 -0.4207  0.2462
 6998TIP3    H220959   7.004   4.790   4.176 -1.1399 -0.5783  1.2027
 6999TIP3   OH220960   5.406   1.743   4.255 -0.1886 -0.1994 -0.0097
 6999TIP3    H120961   5.376   1.751   4.165  0.7623  0.6476 -0.2659
 6999TIP3    H220962   5.482   1.686   4.251  0.1406  0.2184  0.1841
 7000TIP3   OH220963   4.004   5.124   4.244  0.0552 -0.1821  0.0071
 7000TIP3    H120964   4.065   5.068   4.196 -0.7347 -0.8470 -0.2439
 7000TIP3    H220965   4.057   5.199   4.272  1.0000 -0.7928 -0.1155
 7001TIP3   OH220966   5.699   2.530   3.883  0.0451 -0.4698  0.1136
 7001TIP3    H120967   5.617   2.531   3.933 -1.3292 -0.4653 -2.0015
 7001TIP3    H220968   5.743   2.450   3.911 -1.2041 -1.0565  0.5110
 7002TIP3   OH220969   3.266   5.426   0.850  0.7668 -0.4523 -0.2826
 7002TIP3    H120970   3.209   5.375   0.908 -0.0154  1.2742  0.5110
 7002TIP3    H220971   3.206   5.476   0.795  1.5184 -0.8753 -1.5397
 7003TIP3   OH220972   0.300   0.315   2.053  0.0890  0.1100  0.1973
 7003TIP3    H120973   0.358   0.349   1.985  1.0451  0.1945  1.0325
 7003TIP3    H220974   0.216   0.358   2.036  0.0238 -0.5921 -1.4907
 7004TIP3   OH220975   5.123   5.679   0.210  0.1030 -0.1859  0.0612
 7004TIP3    H120976   5.079   5.616   0.153  2.6687 -1.2460 -0.8677
 7004TIP3    H220977   5.054   5.742   0.233 -1.9548 -1.9297 -0.9671
 7005TIP3   OH220978   6.526   3.081   3.680  0.2204  0.2278 -0.3635
 7005TIP3    H120979   6.490   3.170   3.686 -1.2869 -0.1619 -2.4752
 7005TIP3    H220980   6.519   3.047   3.769  0.2653  2.0131  0.3625
 7006TIP3   OH220981   2.582   2.503   4.594  0.1231 -0.1845 -0.2804
 7006TIP3    H120982   2.571   2.459   4.510 -1.2446  0.3963 -0.4187
 7006TIP3    H220983   2.496   2.538   4.615  0.6577  0.4764  0.9234
 7007TIP3   OH220984   0.021   1.102   3.228 -0.3751  0.2689 -0.1608
 7007TIP3    H120985   0.102   1.146   3.253  0.3260 -1.0437  0.0029
 7007TIP3    H220986   0.050   1.020   3.188 -1.6284 -0.3258  0.0968
 7008TIP3   OH220987   2.291   3.417   5.428  0.0465  0.0120 -0.0945
 7008TIP3    H120988   2.244   3.345   5.386 -1.2255 -0.0382  1.3575
 7008TIP3    H220989   2.235   3.444   5.500  1.2354  1.4382  0.3424
 7009TIP3   OH220990   0.250   0.353   4.663 -0.3641  0.7195 -0.1677
 7009TIP3    H120991   0.275   0.410   4.591  0.8359  0.2294 -0.1574
 7009TIP3    H220992   0.332   0.314   4.693 -1.0207 -0.1841  0.5228
 7010TIP3   OH220993   3.268   0.196   5.468  0.0835 -0.3056 -0.0699
 7010TIP3    H120994   3.281   0.183   5.374  1.7267 -2.0604  0.3275
 7010TIP3    H220995   3.181   0.160   5.485  0.1314 -0.7807 -0.7852
 7011TIP3   OH220996   4.637   2.534   3.037  0.0813  0.1772  0.7197
 7011TIP3    H120997   4.668   2.459   2.987 -0.5545 -0.3600  1.1106
 7011TIP3    H220998   4.601   2.496   3.117  0.2255  0.9436  1.1578
 7012TIP3   OH220999   2.830   5.655   0.491 -0.1863  0.0661 -0.0400
 7012TIP3    H121000   2.912   5.667   0.442 -0.0147 -0.9419 -0.0153
 7012TIP3    H221001   2.778   5.732   0.468 -0.0897 -0.3292 -1.7869
 7013TIP3   OH221002   0.070   5.061   1.409 -0.0098 -0.6033  0.0126
 7013TIP3    H121003   0.141   5.119   1.380  0.9644 -1.3067  0.9068
 7013TIP3    H221004   0.072   4.988   1.347  1.5399 -1.7076  1.2812
 7014TIP3   OH221005   2.989   0.041   3.579  0.1908 -0.0230  0.7542
 7014TIP3    H121006   3.019   0.046   3.669 -0.7707 -2.0835  1.2517
 7014TIP3    H221007   3.067   0.015   3.529  0.0878 -1.9130  1.4994
 7015TIP3   OH221008   4.554   3.034   0.772  0.7441 -0.3859  0.4086
 7015TIP3    H121009   4.504   2.951   0.776 -0.6216  0.2614 -1.6686
 7015TIP3    H221010   4.548   3.069   0.861  0.7853 -2.1849  1.1685
 7016TIP3   OH221011   2.088   2.237   5.568  0.2047  0.6789  0.3655
 7016TIP3    H121012   2.066   2.149   5.539  1.7399  0.4201 -0.0866
 7016TIP3    H221013   2.004   2.279   5.582 -0.5693 -0.2276 -1.3165
 7017TIP3   OH221014   1.644   3.887   3.324  0.5422  0.2237  0.2964
 7017TIP3    H121015   1.578   3.847   3.380  0.3730  0.1421  0.0417
 7017TIP3    H221016   1.692   3.813   3.285  0.3877  0.2698  0.0142
 7018TIP3   OH221017   0.113   5.290   1.836 -0.0430 -0.3886 -0.3997
 7018TIP3    H121018   0.195   5.334   1.814  0.9378 -1.2722  1.2541
 7018TIP3    H221019   0.045   5.348   1.802  1.2437  1.0960 -0.5686
 7019TIP3   OH221020   3.009   4.560   0.501  0.2921  0.4174  0.1952
 7019TIP3    H121021   3.037   4.473   0.471 -0.3272  0.7890 -1.5579
 7019TIP3    H221022   2.958   4.542   0.580  2.3099 -0.5607  1.3827
 7020TIP3   OH221023   2.049   1.213   2.791 -0.4056 -0.6353  0.1891
 7020TIP3    H121024   2.121   1.195   2.852  0.3470  1.8536  0.1230
 7020TIP3    H221025   2.069   1.160   2.714  2.0787  0.8388 -0.2978
 7021TIP3   OH221026   1.927   1.844   2.624 -0.2043  0.4627  0.7346
 7021TIP3    H121027   1.877   1.815   2.700 -2.0325  1.1663 -0.1217
 7021TIP3    H221028   2.016   1.816   2.641 -0.4478  1.0261  3.3617
 7022TIP3   OH221029   1.777   4.030   5.332 -0.1508 -0.3696  0.0130
 7022TIP3    H121030   1.799   3.972   5.406  2.9087  0.1427 -0.3383
 7022TIP3    H221031   1.844   4.099   5.335 -1.5638  1.1763 -1.6796
 7023TIP3   OH221032   5.368   1.872   4.004 -0.5147 -0.5454  0.1982
 7023TIP3    H121033   5.313   1.940   3.964 -1.4135 -0.4648  1.4957
 7023TIP3    H221034   5.387   1.811   3.933  1.6106  1.7892 -1.4280
 7024TIP3   OH221035   6.584   6.582   2.894 -0.2911 -0.5072 -0.1662
 7024TIP3    H121036   6.545   6.644   2.831  0.3088 -0.3056 -0.3438
 7024TIP3    H221037   6.509   6.535   2.929 -0.6705 -0.4084 -0.8102
 7025TIP3   OH221038   5.359   3.975   4.018  0.7751 -0.4181  0.3228
 7025TIP3    H121039   5.451   3.959   4.000  0.5007 -0.3587 -1.2520
 7025TIP3    H221040   5.314   3.897   3.985  0.3272 -0.8619  1.9175
 7026TIP3   OH221041   4.844   4.304   1.999  0.0440 -0.0436 -0.1887
 7026TIP3    H121042   4.803   4.274   2.080 -1.2110  0.2677 -0.6866
 7026TIP3    H221043   4.887   4.226   1.963  1.5577  0.0584  1.3044
 7027TIP3   OH221044   4.181   0.025   4.998  0.4211  0.6748 -0.1497
 7027TIP3    H121045   4.158   0.015   5.090 -0.8040 -1.2979 -0.6074
 7027TIP3    H221046   4.265  -0.020   4.989  0.1036  0.0705 -0.1485
 7028TIP3   OH221047   6.534   3.773   5.433  0.7668 -0.6599  0.1354
 7028TIP3    H121048   6.536   3.863   5.466 -0.1028 -0.1877 -1.0274
 7028TIP3    H221049   6.623   3.741   5.446  1.3092  0.6471 -0.1586
 7029TIP3   OH221050   5.969   3.385   0.017  0.0042  0.3141  0.3935
 7029TIP3    H121051   6.003   3.471  -0.008 -0.3537  0.6795  1.1530
 7029TIP3    H221052   6.012   3.365   0.100  1.4539 -1.0450 -0.6059
 7030TIP3   OH221053   1.938   2.773   0.772 -0.5222  0.3374  0.0260
 7030TIP3    H121054   1.891   2.722   0.707 -1.6918  2.2207 -0.7013
 7030TIP3    H221055   1.874   2.793   0.839  0.3043 -0.3616  1.0591
 7031TIP3   OH221056   1.145   6.410   0.211 -0.3241 -0.5332 -0.0465
 7031TIP3    H121057   1.162   6.347   0.141 -0.2621 -0.2000 -0.3361
 7031TIP3    H221058   1.212   6.477   0.200 -0.9984  0.1019 -0.3703
 7032TIP3   OH221059   3.645   5.152   5.584 -0.5290  0.1671 -0.7454
 7032TIP3    H121060   3.666   5.118   5.497  0.9951  3.4979 -1.8318
 7032TIP3    H221061   3.586   5.225   5.568 -0.9951  0.2555  1.1172
 7033TIP3   OH221062   0.471   3.723   1.971  0.3157 -0.3504  0.4721
 7033TIP3    H121063   0.404   3.789   1.951  0.4068 -0.6570 -0.9871
 7033TIP3    H221064   0.423   3.651   2.011  0.1548  0.4043  1.6884
 7034TIP3   OH221065   5.512   5.149   5.174 -0.1600  0.2392  0.2040
 7034TIP3    H121066   5.533   5.059   5.201 -0.6521 -0.2827 -1.0588
 7034TIP3    H221067   5.478   5.139   5.085 -0.0100  1.7155 -0.0303
 7035TIP3   OH221068   4.261   6.634   3.010 -0.1877  0.0017  0.3024
 7035TIP3    H121069   4.342   6.674   3.043  0.4048 -1.0124  0.1174
 7035TIP3    H221070   4.191   6.676   3.061  0.3934  1.2921  0.0787
 7036TIP3   OH221071   4.190   5.969   1.254  0.1984 -0.2328  0.3385
 7036TIP3    H121072   4.233   6.055   1.250 -1.0469  0.4343  0.6948
 7036TIP3    H221073   4.122   5.974   1.187  0.7489 -1.3335 -0.3345
 7037TIP3   OH221074   0.108   3.929   1.132 -0.4648 -0.6357 -0.1135
 7037TIP3    H121075   0.100   3.845   1.087 -1.4407 -0.7484  0.2509
 7037TIP3    H221076   0.019   3.965   1.132  0.0590  0.7362 -0.9067
 7038TIP3   OH221077   6.486   0.380   1.174 -0.2939 -0.1439 -0.2498
 7038TIP3    H121078   6.494   0.457   1.119  0.2508 -0.2275 -0.2888
 7038TIP3    H221079   6.556   0.389   1.239  1.0800 -1.5842 -1.4514
 7039TIP3   OH221080   4.940   2.438   4.846 -0.9166 -0.5062  0.2860
 7039TIP3    H121081   4.884   2.514   4.827 -2.0389 -0.9586  1.6099
 7039TIP3    H221082   5.028   2.475   4.856 -1.2869  0.4913 -0.0017
 7040TIP3   OH221083   6.845   1.386   2.953 -0.1759 -0.0893  0.1804
 7040TIP3    H121084   6.808   1.415   3.037  0.7590 -0.6704  0.8228
 7040TIP3    H221085   6.799   1.305   2.933  0.2046 -0.4101  0.5868
 7041TIP3   OH221086   2.606   2.595   2.685 -0.2893  0.7959  0.0818
 7041TIP3    H121087   2.558   2.512   2.684  0.5537  0.2990  0.2821
 7041TIP3    H221088   2.629   2.608   2.777  0.7675  0.5517 -0.1390
 7042TIP3   OH221089   3.425   6.128   2.111 -0.3105 -0.0190  0.1577
 7042TIP3    H121090   3.450   6.213   2.074 -0.1729  0.6002  1.6283
 7042TIP3    H221091   3.349   6.146   2.166 -1.0213 -1.0667 -0.4334
 7043TIP3   OH221092   6.183   2.070   4.928 -0.2378  0.3043 -0.1912
 7043TIP3    H121093   6.245   2.010   4.972 -0.4684 -0.0175 -0.3005
 7043TIP3    H221094   6.115   2.012   4.893 -0.4714  0.6363 -0.2854
 7044TIP3   OH221095   3.669   4.471   3.194 -0.3792 -0.2296 -0.8237
 7044TIP3    H121096   3.671   4.473   3.289  2.6890  0.5254 -0.7893
 7044TIP3    H221097   3.655   4.563   3.168 -1.2948 -0.4436 -1.1192
 7045TIP3   OH221098   2.140   1.125   0.030 -0.1951 -0.9363  0.0747
 7045TIP3    H121099   2.181   1.118   0.116 -1.8184 -1.3269  0.8607
 7045TIP3    H221100   2.211   1.148  -0.029  1.3028 -2.4044  1.2207
 7046TIP3   OH221101   3.733   3.076   2.305 -0.1591  0.0980  0.3228
 7046TIP3    H121102   3.695   3.150   2.258 -0.7430  0.8510  1.8900
 7046TIP3    H221103   3.826   3.097   2.311 -0.0705 -0.0382 -0.5356
 7047TIP3   OH221104   4.605   2.004   2.448 -0.0123  0.2988 -0.3535
 7047TIP3    H121105   4.589   2.086   2.401 -3.1029 -0.6678 -1.2090
 7047TIP3    H221106   4.604   1.937   2.380  3.9687 -0.4932  0.0987
 7048TIP3   OH221107   1.294   3.036   3.126 -0.6745  0.2264 -0.2617
 7048TIP3    H121108   1.379   3.077   3.112 -1.1866  1.2680 -0.4255
 7048TIP3    H221109   1.231   3.109   3.123 -1.4369 -0.3244  1.3273
 7049TIP3   OH221110   7.154   1.342   1.032  0.1792 -1.3063  0.0551
 7049TIP3    H121111   7.172   1.276   1.099  1.0272 -0.7721  0.3687
 7049TIP3    H221112   7.225   1.405   1.040 -0.9750  0.0344  0.2268
 7050TIP3   OH221113   5.747   5.407   1.888  0.1111 -0.2684 -0.3790
 7050TIP3    H121114   5.780   5.360   1.812 -0.4833 -1.2540 -0.0465
 7050TIP3    H221115   5.764   5.348   1.962  0.8914  0.7618  0.3118
 7051TIP3   OH221116   6.409   1.709   2.796 -0.0302 -0.0766 -0.5511
 7051TIP3    H121117   6.407   1.624   2.840 -0.2201 -0.0325 -0.4713
 7051TIP3    H221118   6.443   1.690   2.708 -0.5554 -0.3200 -0.7090
 7052TIP3   OH221119   4.153   0.671   5.278 -0.3862 -0.2894 -0.1931
 7052TIP3    H121120   4.160   0.643   5.369  1.3650  1.5074  0.2974
 7052TIP3    H221121   4.240   0.656   5.241 -0.7499  0.0592 -1.2470
 7053TIP3   OH221122   6.506   1.221   2.207  0.8912  0.1703  0.0417
 7053TIP3    H121123   6.572   1.171   2.159 -0.2297 -0.4945 -0.8706
 7053TIP3    H221124   6.472   1.283   2.143 -0.7265 -0.8290 -0.1335
 7054TIP3   OH221125   3.349   2.185   1.233 -0.1516 -0.1162  0.2672
 7054TIP3    H121126   3.334   2.189   1.138  2.2326  2.5628 -0.1398
 7054TIP3    H221127   3.360   2.092   1.251 -1.2366 -0.7661 -1.9661
 7055TIP3   OH221128   4.898   0.541   3.002 -0.4648  0.0603  0.0189
 7055TIP3    H121129   4.954   0.511   2.931  2.2577 -1.6158  2.6546
 7055TIP3    H221130   4.949   0.609   3.045 -2.3406  1.5067  0.0751
 7056TIP3   OH221131   3.207   1.894   4.895  0.3532  0.3575 -0.4433
 7056TIP3    H121132   3.188   1.976   4.850 -0.6255  0.3345 -0.0898
 7056TIP3    H221133   3.137   1.885   4.960  1.1708 -0.1123  0.4002
 7057TIP3   OH221134   3.456   0.197   2.933  0.5953  0.2159 -0.2310
 7057TIP3    H121135   3.536   0.145   2.926  0.5210  0.2898 -1.9262
 7057TIP3    H221136   3.386   0.133   2.942  0.7494  0.1215  0.3231
 7058TIP3   OH221137   5.894   6.394   5.195 -0.4117  0.3906 -0.4150
 7058TIP3    H121138   5.967   6.412   5.137  0.2263  0.2784  0.3381
 7058TIP3    H221139   5.845   6.476   5.197  0.0426  0.6664 -0.4357
 7059TIP3   OH221140   4.314   0.483   1.590 -0.0762  0.3402  0.1470
 7059TIP3    H121141   4.353   0.571   1.593  1.8943 -0.4515 -0.8095
 7059TIP3    H221142   4.360   0.435   1.659  1.3429 -0.8509 -1.5559
 7060TIP3   OH221143   1.599   1.658   1.993  0.4140  0.1900 -0.0569
 7060TIP3    H121144   1.564   1.608   2.067  0.9386  0.5386  0.4351
 7060TIP3    H221145   1.537   1.730   1.981 -0.4950 -0.6988 -0.9433
 7061TIP3   OH221146   6.955   5.185   5.010  0.0009 -0.2241 -0.5542
 7061TIP3    H121147   6.953   5.089   4.999  0.7098 -0.1655 -1.2971
 7061TIP3    H221148   6.938   5.218   4.922  1.0661  0.3300 -0.5550
 7062TIP3   OH221149   1.144   2.231   5.592 -0.3652 -0.2404  0.0012
 7062TIP3    H121150   1.175   2.155   5.543 -0.4531 -0.6085  0.5090
 7062TIP3    H221151   1.091   2.280   5.528  0.4938 -0.0847 -0.6042
 7063TIP3   OH221152   6.196   2.919   5.638  0.0670  0.0835 -0.1411
 7063TIP3    H121153   6.121   2.978   5.649  0.4163  0.2584  1.6154
 7063TIP3    H221154   6.179   2.847   5.698  2.1129  0.9897  1.6523
 7064TIP3   OH221155   6.458   0.842   0.044  0.1530  0.3045  0.1621
 7064TIP3    H121156   6.538   0.841   0.097 -0.0013 -0.6892  0.3984
 7064TIP3    H221157   6.390   0.871   0.105 -0.0335 -0.8866  0.5367
 7065TIP3   OH221158   7.098   1.037   0.873 -0.3380  0.7168 -0.0176
 7065TIP3    H121159   7.008   1.032   0.905 -0.7148 -1.2136 -1.2759
 7065TIP3    H221160   7.148   0.983   0.933 -0.0951  1.3130  0.3307
 7066TIP3   OH221161   5.950   4.077   0.515  0.3755 -0.2263  0.3289
 7066TIP3    H121162   5.982   4.152   0.465  1.3403 -1.0875 -0.4007
 7066TIP3    H221163   5.910   4.020   0.449  0.2277 -0.6510  0.7797
 7067TIP3   OH221164   7.066   0.790   3.176  0.0743 -0.6752 -0.1621
 7067TIP3    H121165   7.041   0.766   3.266 -0.8372 -0.4339 -0.3418
 7067TIP3    H221166   7.007   0.740   3.121  1.6562 -2.0239 -0.6968
 7068TIP3   OH221167   3.361   2.233   0.042 -0.0196  0.2175 -0.7575
 7068TIP3    H121168   3.449   2.207   0.016 -0.0177  0.7368 -1.2923
 7068TIP3    H221169   3.367   2.327   0.057 -0.1827  0.0528  0.4952
 7069TIP3   OH221170   3.761   1.845   2.496  0.0604 -0.3694  0.4458
 7069TIP3    H121171   3.835   1.794   2.527  0.4895  0.0818  0.1666
 7069TIP3    H221172   3.786   1.874   2.408 -0.9387 -1.2341 -0.1652
 7070TIP3   OH221173   5.210   0.785   2.125 -0.0270 -0.8140  0.4168
 7070TIP3    H121174   5.217   0.798   2.220 -0.6735 -0.7937  0.4680
 7070TIP3    H221175   5.165   0.863   2.094  0.0767 -0.8774  0.1064
 7071TIP3   OH221176   1.216   6.282   1.010  0.2238 -0.1816  0.1944
 7071TIP3    H121177   1.159   6.247   1.079  1.0512 -1.7070  0.1444
 7071TIP3    H221178   1.167   6.356   0.974 -2.3747 -2.2148 -0.7535
 7072TIP3   OH221179   3.017   5.216   2.400 -0.3275 -0.0015 -0.4342
 7072TIP3    H121180   3.066   5.141   2.432 -0.2463 -0.0904 -0.7584
 7072TIP3    H221181   3.031   5.215   2.305 -2.5750 -1.1973 -0.8266
 7073TIP3   OH221182   6.570   1.257   3.170  0.5763 -0.3710 -0.0199
 7073TIP3    H121183   6.552   1.171   3.132  1.1287 -0.6017  0.2273
 7073TIP3    H221184   6.666   1.264   3.168  0.5805 -0.1433  0.7933
 7074TIP3   OH221185   3.361   2.504   4.852 -0.2289 -0.0471  0.4420
 7074TIP3    H121186   3.371   2.584   4.904 -0.7780  1.3650 -1.4699
 7074TIP3    H221187   3.365   2.535   4.761 -1.4931 -2.0574 -0.3705
 7075TIP3   OH221188   7.077   4.677   3.892 -0.5091 -0.2458 -0.0354
 7075TIP3    H121189   7.084   4.738   3.819 -0.0299  0.1410  0.3306
 7075TIP3    H221190   7.007   4.714   3.947 -1.4640 -0.9843 -0.7087
 7076TIP3   OH221191   6.487   4.983   1.953  0.0659 -0.2095  0.3242
 7076TIP3    H121192   6.454   5.063   1.992 -0.3431  0.2706 -0.9572
 7076TIP3    H221193   6.418   4.954   1.894  0.8910 -0.5728 -0.4973
 7077TIP3   OH221194   5.751   2.408   1.046  0.3366 -0.8470 -0.1665
 7077TIP3    H121195   5.663   2.427   1.013  0.2724  1.6857  1.2066
 7077TIP3    H221196   5.737   2.363   1.128  0.1519  1.4000  1.1262
 7078TIP3   OH221197   3.468   0.619   2.816 -0.0465 -1.0533 -0.0058
 7078TIP3    H121198   3.430   0.545   2.864 -0.9510 -0.4406  0.2585
 7078TIP3    H221199   3.400   0.644   2.753 -0.7369  0.9719  1.4294
 7079TIP3   OH221200   4.241   5.101   3.650 -0.5068  0.2748  0.6975
 7079TIP3    H121201   4.194   5.019   3.634  1.0947 -0.9773  1.9733
 7079TIP3    H221202   4.331   5.074   3.669  0.4840  2.4783 -0.4775
 7080TIP3   OH221203   6.744   5.312   5.126  0.8400 -0.2444 -0.6062
 7080TIP3    H121204   6.738   5.369   5.050  1.0162 -0.5516 -0.8547
 7080TIP3    H221205   6.834   5.278   5.123  1.2670  0.7296  0.4602
 7081TIP3   OH221206   4.285   5.740   4.697 -0.2836 -0.0283  0.0142
 7081TIP3    H121207   4.304   5.778   4.783  1.7328  0.4424 -0.6034
 7081TIP3    H221208   4.314   5.649   4.703 -2.6420 -0.8125  0.6335
 7082TIP3   OH221209   4.341   3.590   2.226 -0.6728 -0.5231 -0.3549
 7082TIP3    H121210   4.303   3.510   2.264  1.4691 -0.6263  1.8256
 7082TIP3    H221211   4.435   3.570   2.219 -0.3131  1.3123 -1.0999
 7083TIP3   OH221212   3.414   5.239   3.209 -0.4079  0.2832  0.1583
 7083TIP3    H121213   3.367   5.158   3.186  1.1233 -0.8845  0.9410
 7083TIP3    H221214   3.351   5.290   3.259 -2.0374  0.4727 -1.9213
 7084TIP3   OH221215   0.413   2.849   0.499  0.1772 -0.1807  0.4484
 7084TIP3    H121216   0.449   2.908   0.565 -0.9045 -0.2844  1.1569
 7084TIP3    H221217   0.318   2.850   0.515 -0.1747  0.1199 -1.3717
 7085TIP3   OH221218   2.068   5.907   4.777 -0.2246 -0.4456 -0.1088
 7085TIP3    H121219   2.087   5.899   4.684  0.7364  0.6158 -0.0240
 7085TIP3    H221220   1.985   5.860   4.789 -0.1982 -0.8599 -1.4304
 7086TIP3   OH221221   4.827   3.909   4.901  0.5944 -0.3919  0.0864
 7086TIP3    H121222   4.876   3.927   4.820  0.6537  1.9977  0.5800
 7086TIP3    H221223   4.891   3.924   4.971  0.0812 -0.6872  0.6202
 7087TIP3   OH221224   2.341   6.751   1.439  0.1800 -0.0606 -0.1585
 7087TIP3    H121225   2.360   6.661   1.413 -1.0479 -0.4111  0.0577
 7087TIP3    H221226   2.389   6.763   1.521 -0.2175 -0.7727  0.1886
 7088TIP3   OH221227   5.198   3.147   5.052 -0.1692 -0.5196  0.1891
 7088TIP3    H121228   5.287   3.115   5.069 -0.0835  0.2662  1.3911
 7088TIP3    H221229   5.204   3.242   5.065 -1.4350 -0.5904  1.6489
 7089TIP3   OH221230   1.483   0.850   1.103  0.3881  0.0131  0.0095
 7089TIP3    H121231   1.494   0.831   1.196  1.2975 -0.6783 -0.2190
 7089TIP3    H221232   1.443   0.771   1.066  0.6543  0.0161 -0.2959
 7090TIP3   OH221233   6.585   3.254   0.900 -0.3337 -0.3852 -0.2293
 7090TIP3    H121234   6.593   3.317   0.829 -1.4661 -1.4935 -1.3892
 7090TIP3    H221235   6.491   3.248   0.916 -0.1009  0.0658  1.6057
 7091TIP3   OH221236   4.206   3.560   4.771  0.3660 -0.4260  0.3527
 7091TIP3    H121237   4.174   3.563   4.861 -1.1056 -0.3571 -0.1466
 7091TIP3    H221238   4.202   3.467   4.746  3.9372 -1.0119  1.3810
 7092TIP3   OH221239   6.981   0.206   3.580 -0.1344  0.1234  0.4847
 7092TIP3    H121240   7.033   0.242   3.509  0.2603 -1.5778 -0.1381
 7092TIP3    H221241   7.039   0.144   3.624 -0.2515  1.3411  2.5329
 7093TIP3   OH221242   1.247   0.439   3.933  0.3426  1.0071 -0.0577
 7093TIP3    H121243   1.308   0.418   3.862  1.7058 -2.2894  1.8507
 7093TIP3    H221244   1.297   0.498   3.990  1.0378 -0.0558  0.4626
 7094TIP3   OH221245   3.943   2.129   1.777  0.3001  0.0948 -0.1800
 7094TIP3    H121246   3.994   2.118   1.857  2.2433 -0.7019 -1.4773
 7094TIP3    H221247   3.862   2.172   1.807  0.8573 -0.3635  2.2209
 7095TIP3   OH221248   5.495   1.279   3.916 -0.1189 -0.0549 -0.0766
 7095TIP3    H121249   5.511   1.224   3.993  0.5448  1.2872  0.7851
 7095TIP3    H221250   5.410   1.319   3.933  0.4620  1.0052  0.4756
 7096TIP3   OH221251   1.603   2.631   1.582  0.1062 -0.0718  0.6849
 7096TIP3    H121252   1.592   2.647   1.676 -1.5145 -1.8282  0.8521
 7096TIP3    H221253   1.695   2.607   1.573  0.1991 -0.2479  1.8851
 7097TIP3   OH221254   5.747   6.256   2.925 -0.5182 -0.0763 -0.7806
 7097TIP3    H121255   5.719   6.337   2.884 -0.5001  0.5226  0.3520
 7097TIP3    H221256   5.686   6.190   2.891 -3.2974  1.1370  1.4294
 7098TIP3   OH221257   0.666   5.643   5.286 -0.2259 -0.3064 -0.1869
 7098TIP3    H121258   0.753   5.618   5.317  0.0330 -0.8548 -1.3136
 7098TIP3    H221259   0.656   5.734   5.315 -0.3229 -0.9957  2.1298
 7099TIP3   OH221260   0.409   1.244   1.504  0.5190 -0.2619  0.2986
 7099TIP3    H121261   0.481   1.277   1.451  0.2061 -1.5792 -1.0182
 7099TIP3    H221262   0.356   1.321   1.524  1.3084  0.4402 -0.2823
 7100TIP3   OH221263   3.404   0.642   0.054 -0.3643  0.7226  0.0601
 7100TIP3    H121264   3.399   0.666  -0.038  2.8053  0.3686 -0.3241
 7100TIP3    H221265   3.440   0.720   0.097  1.2113 -0.1357  0.3851
 7101TIP3   OH221266   3.433   4.628   3.421 -0.3827  0.1024 -0.5559
 7101TIP3    H121267   3.516   4.580   3.425  1.1508  2.2858 -2.7599
 7101TIP3    H221268   3.455   4.715   3.455 -2.0152  0.4861 -0.4144
 7102TIP3   OH221269   5.462   2.430   2.281 -0.0104  0.2220 -0.1041
 7102TIP3    H121270   5.479   2.385   2.364  2.3322  2.5319  0.8068
 7102TIP3    H221271   5.513   2.380   2.216 -0.3506 -0.5047  0.1725
 7103TIP3   OH221272   0.184   5.929   2.085  0.0909 -0.2088 -0.4432
 7103TIP3    H121273   0.238   5.949   2.161  0.7417 -0.3946 -0.8400
 7103TIP3    H221274   0.096   5.919   2.119 -0.0049  1.7713 -0.0189
 7104TIP3   OH221275   4.374   2.494   5.654  0.7150  0.1926 -0.0354
 7104TIP3    H121276   4.315   2.423   5.628  0.4040  1.0599 -1.8717
 7104TIP3    H221277   4.449   2.486   5.595 -0.0470  2.2721 -1.4383
 7105TIP3   OH221278   1.271   1.973   0.918 -0.1256 -0.2241 -0.4453
 7105TIP3    H121279   1.250   1.914   0.845  0.9045  1.0527 -1.8417
 7105TIP3    H221280   1.218   2.051   0.901 -1.2542 -0.5784  1.2202
 7106TIP3   OH221281   1.425   3.020   2.766 -0.7026  0.2173 -0.5755
 7106TIP3    H121282   1.452   2.997   2.855 -0.5208  0.3001 -0.6072
 7106TIP3    H221283   1.479   3.097   2.745 -0.7940  0.2383 -0.7311
 7107TIP3   OH221284   5.537   5.005   0.311 -0.2352 -0.0009  0.1633
 7107TIP3    H121285   5.485   5.010   0.391  1.2573  3.6985  1.1135
 7107TIP3    H221286   5.585   4.923   0.319 -1.4418 -0.5872  2.1778
 7108TIP3   OH221287   6.977   4.795   1.775 -0.3238 -0.6139  0.4619
 7108TIP3    H121288   6.922   4.869   1.747 -1.2056 -0.9880  1.1567
 7108TIP3    H221289   6.916   4.735   1.817  0.1565 -2.3566 -1.2116
 7109TIP3   OH221290   2.246   6.332   5.902 -0.1776 -0.5486 -0.1173
 7109TIP3    H121291   2.160   6.293   5.922 -1.7209  1.2385 -2.7051
 7109TIP3    H221292   2.279   6.282   5.828 -0.4797  0.6838 -1.1149
 7110TIP3   OH221293   6.592   3.618   3.760 -0.0446 -0.0350  0.3562
 7110TIP3    H121294   6.662   3.573   3.806  0.8298  0.3446 -0.5666
 7110TIP3    H221295   6.613   3.606   3.667 -0.7152  0.8426  0.0788
 7111TIP3   OH221296   2.396   3.384   4.800  0.4726  0.2271  0.2523
 7111TIP3    H121297   2.395   3.470   4.757 -1.6001  0.0305 -0.1886
 7111TIP3    H221298   2.390   3.404   4.894  0.5739  0.5740  0.1866
 7112TIP3   OH221299   5.012   5.493   5.031 -0.1128 -0.2876  0.3706
 7112TIP3    H121300   5.044   5.577   4.996  0.6999 -1.1516 -1.0482
 7112TIP3    H221301   5.050   5.488   5.119 -0.5463  1.0214  0.6592
 7113TIP3   OH221302   5.106   2.319   1.142  0.4473  0.4387 -0.2744
 7113TIP3    H121303   5.017   2.306   1.175  0.8916  3.0879  2.4650
 7113TIP3    H221304   5.110   2.413   1.123  2.8965  0.5646  0.5805
 7114TIP3   OH221305   5.063   1.375   5.259 -0.4201  0.6132  0.1081
 7114TIP3    H121306   5.050   1.339   5.172  0.1337  2.1388 -0.6466
 7114TIP3    H221307   5.134   1.324   5.297 -1.6959 -1.0858  0.3031
 7115TIP3   OH221308   3.383   1.413   0.400  0.2200 -0.2115  0.3541
 7115TIP3    H121309   3.478   1.427   0.397  0.0827  0.5571 -1.3836
 7115TIP3    H221310   3.346   1.484   0.348 -1.4181  0.1134  1.8387
 7116TIP3   OH221311   4.088   0.209   4.473 -0.0590 -0.2496  0.5487
 7116TIP3    H121312   4.167   0.171   4.435  1.4464  1.9870  1.2694
 7116TIP3    H221313   4.092   0.185   4.565 -0.4252 -0.4356  0.5178
 7117TIP3   OH221314   1.700   4.884   3.851  0.0938 -0.7236 -0.0243
 7117TIP3    H121315   1.791   4.865   3.874 -0.2366 -2.3773 -0.0144
 7117TIP3    H221316   1.691   4.978   3.866  1.6020 -0.6614  0.6414
 7118TIP3   OH221317   2.998   5.127   5.720 -0.5397 -0.0704  0.1739
 7118TIP3    H121318   3.026   5.160   5.635  0.0046 -0.4292  0.2077
 7118TIP3    H221319   3.055   5.170   5.783  0.8703 -1.7800  0.1450
 7119TIP3   OH221320   6.523   2.146   3.295  0.3908 -0.1347  0.0929
 7119TIP3    H121321   6.618   2.159   3.300  0.4377 -0.8740  1.6081
 7119TIP3    H221322   6.486   2.227   3.330  0.4568  0.0007 -0.1433
 7120TIP3   OH221323   3.782   6.251   2.094  0.0837 -0.2315  0.4774
 7120TIP3    H121324   3.808   6.343   2.092 -0.2164 -0.1534 -0.4870
 7120TIP3    H221325   3.810   6.217   2.009  0.3556 -1.0779  0.9003
 7121TIP3   OH221326   3.004   1.233   2.426 -0.0873  0.2217 -0.2274
 7121TIP3    H121327   3.047   1.310   2.390  0.7044 -0.4867 -0.8365
 7121TIP3    H221328   3.052   1.159   2.390  1.4951 -0.5544  3.0888
 7122TIP3   OH221329   4.932   3.134   5.291  0.9657 -0.5928  0.1135
 7122TIP3    H121330   5.012   3.184   5.308  1.0047  0.6047 -2.8937
 7122TIP3    H221331   4.925   3.074   5.364  1.6667  2.8592  3.3178
 7123TIP3   OH221332   1.732   3.923   3.644 -0.3841 -0.2017 -0.3802
 7123TIP3    H121333   1.677   3.981   3.592  0.3933  0.4092 -0.5360
 7123TIP3    H221334   1.784   3.876   3.579  1.0558  1.0309 -0.1647
 7124TIP3   OH221335   2.138   3.442   2.270 -0.1070 -0.2132  0.2400
 7124TIP3    H121336   2.155   3.412   2.360  0.8586 -0.9956 -0.1871
 7124TIP3    H221337   2.162   3.368   2.215  0.3097  0.6170 -0.7291
 7125TIP3   OH221338   5.886   1.233   5.299 -0.5387  0.2634  0.1112
 7125TIP3    H121339   5.867   1.202   5.211 -0.3209 -0.0005  0.1586
 7125TIP3    H221340   5.879   1.329   5.293 -2.6172  0.1610  0.2872
 7126TIP3   OH221341   5.936   4.634   2.639  0.4663  0.3048 -0.1221
 7126TIP3    H121342   5.925   4.551   2.592  2.2648  1.1846 -2.3088
 7126TIP3    H221343   5.848   4.672   2.640  0.0618 -0.5080 -1.3664
 7127TIP3   OH221344   0.654   4.791   1.816 -0.6687  0.2581  0.2484
 7127TIP3    H121345   0.646   4.717   1.877 -0.6992  2.0320  2.5529
 7127TIP3    H221346   0.747   4.792   1.791 -0.3892  0.1510  1.2216
 7128TIP3   OH221347   1.147   1.382   4.123 -0.0043 -0.0470  0.3776
 7128TIP3    H121348   1.197   1.455   4.088  2.2681 -1.1550  1.1255
 7128TIP3    H221349   1.142   1.399   4.217 -0.2237 -0.4381  0.4406
 7129TIP3   OH221350   0.477   2.333   2.835  0.0511  0.1541  0.8079
 7129TIP3    H121351   0.404   2.384   2.869 -0.7684  0.0937 -0.7793
 7129TIP3    H221352   0.551   2.355   2.892 -1.0448  0.6659  2.0727
 7130TIP3   OH221353   5.647   3.041   0.052 -0.2100  0.2201 -0.3093
 7130TIP3    H121354   5.559   3.075   0.036 -0.2780  0.6204  0.7994
 7130TIP3    H221355   5.648   3.019   0.145 -0.1278 -2.8126 -0.9469
 7131TIP3   OH221356   2.335   1.434   5.311  0.4804  0.1996  0.3459
 7131TIP3    H121357   2.386   1.472   5.382  0.9967 -0.5168  0.3675
 7131TIP3    H221358   2.399   1.414   5.243  0.3493 -1.2897  0.6212
 7132TIP3   OH221359   6.487   0.399   2.793  0.3525  0.2517  0.6254
 7132TIP3    H121360   6.541   0.431   2.720  1.9295 -4.1765 -0.4891
 7132TIP3    H221361   6.399   0.390   2.756  1.0617 -1.6064 -0.7727
 7133TIP3   OH221362   4.602   0.723   5.213  0.3791 -0.1381 -0.5417
 7133TIP3    H121363   4.622   0.683   5.297 -0.1329  0.2159 -0.2428
 7133TIP3    H221364   4.541   0.663   5.171  0.1045  0.0163 -0.3658
 7134TIP3   OH221365   1.431   6.740   3.894 -0.1818  0.2942  0.6767
 7134TIP3    H121366   1.437   6.784   3.809  0.0146  0.8921  0.9927
 7134TIP3    H221367   1.511   6.767   3.940  1.3409 -2.5145 -0.0848
 7135TIP3   OH221368   2.752   3.967   4.252 -0.0763 -0.1303  0.2486
 7135TIP3    H121369   2.725   3.975   4.161  1.4557 -0.8446 -0.3004
 7135TIP3    H221370   2.844   3.992   4.252  0.0317 -0.4615  1.5458
 7136TIP3   OH221371   2.465   1.819   0.011  0.2648 -0.2953  0.3026
 7136TIP3    H121372   2.476   1.909  -0.018 -0.8848 -1.2880 -3.7814
 7136TIP3    H221373   2.374   1.814   0.042  0.8359  0.2371  2.2296
 7137TIP3   OH221374   6.123   2.963   4.082  0.0002 -0.8815  0.2970
 7137TIP3    H121375   6.143   2.870   4.094 -2.1928 -1.3035  1.1991
 7137TIP3    H221376   6.095   2.993   4.169  0.9712  0.7306  0.0960
 7138TIP3   OH221377   2.805   1.194   2.797  0.3301 -0.0097  0.0029
 7138TIP3    H121378   2.806   1.188   2.701 -0.3396 -0.5220  0.0201
 7138TIP3    H221379   2.863   1.125   2.826  3.1304  2.1289 -0.0672
 7139TIP3   OH221380   5.004   1.897   2.550  0.2213 -0.3926 -0.3946
 7139TIP3    H121381   5.080   1.932   2.596  0.1832 -2.0381  1.0243
 7139TIP3    H221382   4.948   1.863   2.619 -2.0379  1.1363 -1.3720
 7140TIP3   OH221383   0.354   6.364   5.600 -0.2430  0.4865  0.0569
 7140TIP3    H121384   0.425   6.313   5.561 -0.4361 -0.1712  0.5499
 7140TIP3    H221385   0.398   6.427   5.656 -0.0731 -0.9591  1.6161
 7141TIP3   OH221386   2.130   1.972   3.747  0.2630 -0.2980 -0.6378
 7141TIP3    H121387   2.205   1.938   3.699  2.0679  2.9905 -0.4184
 7141TIP3    H221388   2.168   2.017   3.822 -2.1387 -0.4669  0.7913
 7142TIP3   OH221389   5.844   5.406   1.270  0.1087 -0.0509  0.6038
 7142TIP3    H121390   5.827   5.424   1.177 -2.4594 -0.4227  0.9329
 7142TIP3    H221391   5.861   5.312   1.273  0.5729  0.0260  0.4786
 7143TIP3   OH221392   2.731   1.192   3.203 -0.1525  0.4951 -0.5078
 7143TIP3    H121393   2.738   1.128   3.133 -0.7698 -0.3574  0.1920
 7143TIP3    H221394   2.654   1.244   3.182 -0.9185 -0.3932  0.0238
 7144TIP3   OH221395   6.144   0.963   5.092  0.5736 -0.9660 -0.3246
 7144TIP3    H121396   6.053   0.964   5.063 -0.3318 -1.5659  2.2467
 7144TIP3    H221397   6.183   1.041   5.053 -1.2984 -0.1664 -0.7069
 7145TIP3   OH221398   2.365   6.235   5.677  0.6476  0.3929 -0.2812
 7145TIP3    H121399   2.314   6.188   5.611 -0.3272  2.3264 -0.9834
 7145TIP3    H221400   2.414   6.301   5.627  1.7281  0.3611  0.6961
 7146TIP3   OH221401   3.434   5.991   3.710 -0.0209  0.2194  0.0612
 7146TIP3    H121402   3.447   6.023   3.799 -2.1622  1.6941 -0.0934
 7146TIP3    H221403   3.506   6.029   3.660 -0.2802  1.5934  0.6804
 7147TIP3   OH221404   3.978   6.161   2.723 -0.3328  0.5949  0.2871
 7147TIP3    H121405   3.920   6.104   2.774 -1.2461  1.5395  0.3383
 7147TIP3    H221406   3.928   6.182   2.644  1.8919 -2.7131 -2.2935
 7148TIP3   OH221407   1.680   5.686   2.758 -0.0121  0.5839 -0.5180
 7148TIP3    H121408   1.729   5.745   2.815 -0.6556  1.2306 -0.6281
 7148TIP3    H221409   1.620   5.640   2.816  1.5092 -1.1227 -0.1692
 7149TIP3   OH221410   3.374   0.976   5.189 -0.5914  0.7120 -0.2056
 7149TIP3    H121411   3.381   0.899   5.133  2.0630  0.2229  0.6696
 7149TIP3    H221412   3.282   0.977   5.217 -1.1064 -1.0734 -1.6509
 7150TIP3   OH221413   4.449   3.872   1.661  0.1963 -0.4253 -0.0924
 7150TIP3    H121414   4.510   3.946   1.669  0.0304 -0.3931  0.9497
 7150TIP3    H221415   4.367   3.906   1.695 -0.0452 -0.9051 -0.2017
 7151TIP3   OH221416   1.406   4.576   5.596 -0.7653  0.1857 -0.4698
 7151TIP3    H121417   1.387   4.647   5.535 -0.5775  0.8203  0.1928
 7151TIP3    H221418   1.498   4.555   5.580 -1.2910 -1.2227 -1.9767
 7152TIP3   OH221419   6.883   5.286   1.543  0.1375 -0.4402 -0.0188
 7152TIP3    H121420   6.908   5.194   1.547  1.7133 -0.0527 -0.6330
 7152TIP3    H221421   6.821   5.291   1.470  0.2704 -0.9531 -0.1709
 7153TIP3   OH221422   2.431   4.969   2.923 -0.4588  0.2442 -0.0147
 7153TIP3    H121423   2.395   4.899   2.977  2.7485  0.6420  3.0742
 7153TIP3    H221424   2.480   4.924   2.854 -0.3639 -0.5221  0.5383
 7154TIP3   OH221425   6.703   0.863   3.276 -0.2457 -0.2349 -0.3082
 7154TIP3    H121426   6.702   0.777   3.318 -0.0848 -0.1510 -0.1353
 7154TIP3    H221427   6.657   0.920   3.338 -1.5273 -0.4713 -1.0009
 7155TIP3   OH221428   6.807   3.287   1.832  0.3299  0.6594  0.4222
 7155TIP3    H121429   6.828   3.264   1.923 -1.2672  1.6540  1.0930
 7155TIP3    H221430   6.839   3.213   1.781  0.9062 -0.1205  1.8372
 7156TIP3   OH221431   5.216   6.059   2.308  0.5350  0.3367  0.1594
 7156TIP3    H121432   5.124   6.031   2.305  0.9022 -1.3102  2.2162
 7156TIP3    H221433   5.212   6.154   2.299 -1.3035  0.2340 -0.5856
 7157TIP3   OH221434   2.442   5.481   0.953  0.1558 -0.1832  0.1782
 7157TIP3    H121435   2.400   5.430   1.023 -0.2709  2.4847  2.0444
 7157TIP3    H221436   2.419   5.571   0.973  1.9773  0.9009 -2.1546
 7158TIP3   OH221437   3.263   4.102   1.857  0.7825 -0.3542 -0.1962
 7158TIP3    H121438   3.310   4.020   1.871  0.2262 -1.2561 -2.9147
 7158TIP3    H221439   3.172   4.082   1.879  0.6917 -0.3867 -0.5967
 7159TIP3   OH221440   5.991   0.896   0.453 -0.4696 -0.1054  0.1940
 7159TIP3    H121441   5.997   0.807   0.488  0.2830 -0.5217 -0.9631
 7159TIP3    H221442   5.981   0.885   0.359  1.0224  1.0341 -0.1372
 7160TIP3   OH221443   3.499   0.048   3.758 -0.1297  0.0590 -0.5159
 7160TIP3    H121444   3.535   0.074   3.673  2.0509  0.4835  0.4787
 7160TIP3    H221445   3.525   0.118   3.818 -3.9009  1.1598  0.1057
 7161TIP3   OH221446   0.522   2.712   1.974  0.2509 -0.3593 -0.9508
 7161TIP3    H121447   0.547   2.804   1.987  0.0569 -0.3610 -0.5580
 7161TIP3    H221448   0.429   2.716   1.949  0.2096 -0.4535 -0.8154
 7162TIP3   OH221449   2.451   6.709   5.055  0.6742 -0.4520  0.4840
 7162TIP3    H121450   2.403   6.639   5.099  0.5968 -1.4389 -1.0865
 7162TIP3    H221451   2.529   6.721   5.108 -0.6608  0.3244  2.4071
 7163TIP3   OH221452   2.553   4.423   0.979  0.4259  0.1483 -0.1766
 7163TIP3    H121453   2.647   4.441   0.975  0.7141 -1.1847 -0.1064
 7163TIP3    H221454   2.534   4.416   1.073  0.1167  1.0036 -0.1649
 7164TIP3   OH221455   5.741   4.460   1.570 -0.2444  0.4320  0.2415
 7164TIP3    H121456   5.709   4.427   1.654  0.3896  2.0670  1.1668
 7164TIP3    H221457   5.829   4.494   1.590  0.2099  0.1971 -1.2443
 7165TIP3   OH221458   3.260   5.894   2.966  0.4146  0.2679 -0.9325
 7165TIP3    H121459   3.218   5.969   3.007  0.5824  0.2092 -0.6511
 7165TIP3    H221460   3.262   5.827   3.034  4.4428  1.4833  0.4626
 7166TIP3   OH221461   4.267   4.214   4.908 -0.4180  0.0763  0.3885
 7166TIP3    H121462   4.227   4.301   4.909 -1.3224 -0.3313  0.9374
 7166TIP3    H221463   4.237   4.174   4.826 -2.0614 -0.6200  1.2805
 7167TIP3   OH221464   3.182   2.734   4.009  0.1821 -0.3688 -0.1996
 7167TIP3    H121465   3.206   2.702   4.096  0.8757  0.6144 -0.0083
 7167TIP3    H221466   3.094   2.771   4.021 -0.3140 -1.4939 -0.2563
 7168TIP3   OH221467   3.427   3.923   4.476 -0.1189 -0.4226 -0.5672
 7168TIP3    H121468   3.446   3.838   4.516  0.2682 -0.6735 -1.2678
 7168TIP3    H221469   3.332   3.925   4.466 -0.0243 -1.3883 -1.8603
 7169TIP3   OH221470   2.464   2.567   4.199  0.1435 -0.0761 -0.0748
 7169TIP3    H121471   2.532   2.581   4.132  1.0202  0.1912  0.8355
 7169TIP3    H221472   2.390   2.620   4.169  0.5837  0.1845 -0.7467
 7170TIP3   OH221473   0.939   1.496   2.333 -0.0049 -0.0735 -0.1837
 7170TIP3    H121474   0.970   1.566   2.391 -0.0041  0.1774 -0.4876
 7170TIP3    H221475   0.992   1.420   2.358 -1.4479 -0.5453  1.6124
 7171TIP3   OH221476   6.570   5.200   0.098  0.2286 -0.7430 -0.1637
 7171TIP3    H121477   6.528   5.255   0.032 -1.0935 -2.0510 -0.4527
 7171TIP3    H221478   6.520   5.216   0.178  1.9307  0.9730  0.6664
 7172TIP3   OH221479   1.074   2.437   4.269 -0.8074 -0.7940  0.2963
 7172TIP3    H121480   1.071   2.513   4.211 -1.4463 -0.9572  0.1109
 7172TIP3    H221481   0.987   2.398   4.263 -1.1620 -0.3702  1.9632
 7173TIP3   OH221482   1.102   3.117   2.185 -0.0443 -0.0491 -0.3367
 7173TIP3    H121483   1.171   3.112   2.118 -0.2732 -0.4553 -0.5499
 7173TIP3    H221484   1.107   3.207   2.218  1.8816 -0.6154  1.0496
 7174TIP3   OH221485   4.716   3.430   0.061 -0.0505 -0.5953  0.0136
 7174TIP3    H121486   4.624   3.411   0.078  0.0075  0.3227  1.5395
 7174TIP3    H221487   4.753   3.448   0.148  1.1888  0.6656 -0.7326
 7175TIP3   OH221488   4.309   4.759   0.238 -0.5647 -0.0873  0.0497
 7175TIP3    H121489   4.329   4.755   0.144  0.0208  0.0936  0.1598
 7175TIP3    H221490   4.230   4.707   0.248  0.5535 -1.9410 -0.2231
 7176TIP3   OH221491   5.300   4.128   4.447 -0.2898 -0.4733  0.1004
 7176TIP3    H121492   5.253   4.100   4.369 -1.5619  0.9338  0.3043
 7176TIP3    H221493   5.340   4.211   4.422 -0.8432  0.0723  0.9575
 7177TIP3   OH221494   1.796   4.121   4.283 -0.2544 -0.0637  0.0508
 7177TIP3    H121495   1.743   4.074   4.219  1.3118 -1.6128 -0.2122
 7177TIP3    H221496   1.880   4.135   4.238  0.5354 -0.2847  1.4153
 7178TIP3   OH221497   5.989   6.802   0.784  0.2151  0.0172  0.4918
 7178TIP3    H121498   5.954   6.754   0.708  2.6183 -0.7914 -0.1764
 7178TIP3    H221499   6.062   6.749   0.815  1.7464  2.2620  0.9456
 7179TIP3   OH221500   4.775   2.216   1.796 -0.2098  0.4065  0.5855
 7179TIP3    H121501   4.741   2.255   1.877 -0.5723 -0.7699  1.0082
 7179TIP3    H221502   4.806   2.130   1.821 -1.2055 -0.3702 -0.7003
 7180TIP3   OH221503   6.338   1.574   5.902  0.2168 -0.2709  0.1096
 7180TIP3    H121504   6.261   1.539   5.858  0.0768 -0.0220  0.1574
 7180TIP3    H221505   6.408   1.513   5.879  0.0088 -0.4945  0.0630
 7181TIP3   OH221506   4.741   1.445   5.407  0.3357 -0.2435 -0.2384
 7181TIP3    H121507   4.832   1.428   5.431  0.6146  0.2002 -0.9850
 7181TIP3    H221508   4.729   1.400   5.324 -0.1611 -0.3754 -0.1020
 7182TIP3   OH221509   5.271   1.878   2.285  0.5072 -0.0599 -0.2378
 7182TIP3    H121510   5.320   1.931   2.222 -0.7485 -2.0616 -3.1175
 7182TIP3    H221511   5.236   1.942   2.347  1.2068  2.1893 -2.0018
 7183TIP3   OH221512   5.038   5.182   5.413 -0.0288  0.3530  0.5350
 7183TIP3    H121513   5.076   5.095   5.424  1.2933  0.7917 -0.3371
 7183TIP3    H221514   5.073   5.213   5.330  0.5981  2.2523  1.4612
 7184TIP3   OH221515   3.945   6.814   0.993 -0.0676  0.2884 -0.3733
 7184TIP3    H121516   3.917   6.723   0.985  0.0240  0.1736  0.5795
 7184TIP3    H221517   4.040   6.811   0.985 -0.1024  0.3638 -0.8468
 7185TIP3   OH221518   3.769   0.707   3.174  0.5423 -0.1212  0.1520
 7185TIP3    H121519   3.684   0.729   3.134  1.3226  1.7715 -0.5700
 7185TIP3    H221520   3.829   0.699   3.100  1.0790 -1.1538  0.6799
 7186TIP3   OH221521   3.096   4.363   5.211  0.0171 -0.0913 -0.4847
 7186TIP3    H121522   3.177   4.411   5.227  2.8979 -3.8094 -2.1724
 7186TIP3    H221523   3.064   4.340   5.299  1.3893  0.5844  0.2231
 7187TIP3   OH221524   0.370   1.252   4.428  0.1454  0.3065 -0.2747
 7187TIP3    H121525   0.417   1.280   4.349  2.4147  0.5939  1.1037
 7187TIP3    H221526   0.422   1.285   4.501 -2.4598  1.0133  1.4189
 7188TIP3   OH221527   2.829   4.020   1.116  0.1886 -0.0213 -0.3531
 7188TIP3    H121528   2.857   3.947   1.059  1.3695  1.0519 -1.2049
 7188TIP3    H221529   2.741   4.042   1.085  0.3421 -0.2347 -0.9563
 7189TIP3   OH221530   4.421   1.430   1.982 -0.2328 -0.0972  0.1479
 7189TIP3    H121531   4.350   1.368   1.994  0.2392 -0.8007 -0.5709
 7189TIP3    H221532   4.404   1.471   1.898  1.0051 -1.4079 -0.8037
 7190TIP3   OH221533   0.503   5.645   1.633  0.3438 -0.6129  0.1270
 7190TIP3    H121534   0.567   5.676   1.569  1.1744 -2.3503  0.0723
 7190TIP3    H221535   0.419   5.679   1.602  1.1644  1.6871  0.1726
 7191TIP3   OH221536   6.914   6.358   4.321  0.4702 -0.2384  0.3853
 7191TIP3    H121537   6.934   6.347   4.229  0.0105  0.7601  0.1486
 7191TIP3    H221538   6.998   6.350   4.365  0.8385  0.2376 -0.2202
 7192TIP3   OH221539   4.806   3.170   5.055  0.3073  0.0900  0.1528
 7192TIP3    H121540   4.795   3.265   5.043 -0.7228  0.1395  1.3486
 7192TIP3    H221541   4.855   3.162   5.136  1.0777 -0.4094 -0.3417
 7193TIP3   OH221542   0.301   6.297   3.071  0.0792  0.2901 -0.2484
 7193TIP3    H121543   0.259   6.266   3.152  1.8979 -0.7557  0.3479
 7193TIP3    H221544   0.251   6.256   3.001 -1.7892  1.5420  0.2674
 7194TIP3   OH221545   0.542   4.565   1.646 -0.0253 -0.6280 -1.3918
 7194TIP3    H121546   0.600   4.636   1.674  1.9584 -2.3619 -0.8022
 7194TIP3    H221547   0.487   4.547   1.722 -0.0591 -0.1917 -1.3109
 7195TIP3   OH221548   4.541   2.843   2.795  0.5900  0.0884 -0.0149
 7195TIP3    H121549   4.558   2.832   2.702 -0.9504  0.4036 -0.3697
 7195TIP3    H221550   4.447   2.864   2.800  0.7672  0.6770  1.5512
 7196TIP3   OH221551   4.818   2.129   2.299 -0.1011 -0.6206  0.0213
 7196TIP3    H121552   4.873   2.055   2.325 -0.5566 -0.9539  0.0517
 7196TIP3    H221553   4.860   2.205   2.338 -0.4443 -1.0331  1.2530
 7197TIP3   OH221554   5.652   6.227   1.582  0.2794 -0.0627 -0.1275
 7197TIP3    H121555   5.641   6.306   1.529  0.2981 -0.5704 -0.9023
 7197TIP3    H221556   5.743   6.199   1.566 -0.4376 -1.6151 -1.8288
 7198TIP3   OH221557   5.689   0.590   5.869  0.1896 -0.2439  0.3238
 7198TIP3    H121558   5.764   0.554   5.915  0.5635  0.0826 -0.0159
 7198TIP3    H221559   5.716   0.679   5.846 -0.6559  0.2026  1.0105
 7199TIP3   OH221560   6.917   5.994   0.277  0.2303 -0.2614 -0.1148
 7199TIP3    H121561   6.925   6.068   0.217  0.0049  0.5609  0.8456
 7199TIP3    H221562   6.940   6.029   0.363 -0.1002 -1.2496  0.4041
 7200TIP3   OH221563   6.051   0.241   3.259 -0.2889 -0.8619  0.1548
 7200TIP3    H121564   5.987   0.267   3.192  0.7614 -0.9883 -0.9466
 7200TIP3    H221565   6.010   0.168   3.304 -1.2763 -0.3925  0.0529
 7201TIP3   OH221566   1.905   4.737   3.049  0.6092  0.1023 -0.0151
 7201TIP3    H121567   1.922   4.798   3.121  0.8789 -0.1109  0.1050
 7201TIP3    H221568   1.908   4.650   3.090  0.4816 -0.0058 -0.2305
 7202TIP3   OH221569   4.260   1.104   4.858 -0.3529  0.2835 -0.3435
 7202TIP3    H121570   4.246   1.009   4.859 -1.8231  0.4251  2.2010
 7202TIP3    H221571   4.191   1.138   4.800  0.4261 -0.1909 -1.5822
 7203TIP3   OH221572   1.148   0.722   1.193 -0.0075  0.4618 -0.0911
 7203TIP3    H121573   1.197   0.675   1.261 -0.7328  0.8441  0.7055
 7203TIP3    H221574   1.132   0.655   1.126  0.2092 -0.0708  0.3751
 7204TIP3   OH221575   3.459   3.911   5.312  0.6283  0.5651 -0.2244
 7204TIP3    H121576   3.428   3.979   5.251 -0.6170  0.6449  0.4809
 7204TIP3    H221577   3.398   3.839   5.301  1.0052  0.1765  0.1989
 7205TIP3   OH221578   4.117   5.390   1.391 -0.3930 -0.3845  0.2130
 7205TIP3    H121579   4.145   5.438   1.313 -0.5052 -0.4462  0.1338
 7205TIP3    H221580   4.126   5.298   1.366 -0.1956 -0.4043  0.3576
 7206TIP3   OH221581   3.338   4.591   1.037 -0.0845  0.5723 -0.0237
 7206TIP3    H121582   3.385   4.665   1.001  1.1408 -0.0565  0.2330
 7206TIP3    H221583   3.402   4.546   1.092  0.0132 -2.1274 -2.1517
 7207TIP3   OH221584   1.504   3.149   5.052 -0.8264  0.0157 -0.2945
 7207TIP3    H121585   1.596   3.129   5.067 -0.8878  0.5155  0.8222
 7207TIP3    H221586   1.501   3.183   4.962  0.1768  0.5517 -0.1371
 7208TIP3   OH221587   2.192   0.362   4.024 -0.4197  0.0285  0.1102
 7208TIP3    H121588   2.134   0.332   4.094 -0.2861 -0.4994  0.0020
 7208TIP3    H221589   2.273   0.386   4.069 -1.2138  2.3120  0.4709
 7209TIP3   OH221590   2.203   4.682   4.040 -0.0025  0.0056 -0.2760
 7209TIP3    H121591   2.191   4.688   3.945  0.7654  0.9106 -0.3264
 7209TIP3    H221592   2.117   4.656   4.073 -0.6531  1.0525 -1.0952
 7210TIP3   OH221593   0.089   5.468   2.623  0.5606 -0.4232 -0.0720
 7210TIP3    H121594   0.018   5.412   2.652  0.3341 -0.0463  0.1066
 7210TIP3    H221595   0.104   5.444   2.531 -0.0047 -0.2826 -0.2013
 7211TIP3   OH221596   2.223   1.485   2.616 -0.0689 -0.0577  0.1646
 7211TIP3    H121597   2.171   1.447   2.687 -1.0355 -0.5589 -0.7860
 7211TIP3    H221598   2.275   1.553   2.659 -2.0522  0.9823  1.0436
 7212TIP3   OH221599   6.147   5.950   3.355 -0.1878 -0.1422  0.2509
 7212TIP3    H121600   6.209   6.001   3.407 -0.0917  0.8223 -0.7651
 7212TIP3    H221601   6.196   5.872   3.329  0.8413  0.8895 -1.0434
 7213TIP3   OH221602   6.285   2.404   3.133 -0.5301 -0.4505 -0.1745
 7213TIP3    H121603   6.329   2.335   3.084 -0.5505 -0.5641 -0.0353
 7213TIP3    H221604   6.216   2.435   3.074 -0.6902 -0.7314 -0.1377
 7214TIP3   OH221605   0.754   0.165   0.127  1.3412  0.3294  0.0636
 7214TIP3    H121606   0.792   0.100   0.069 -1.3362  1.1629 -2.8607
 7214TIP3    H221607   0.779   0.249   0.088 -0.6817  0.9103 -0.0987
 7215TIP3   OH221608   0.589   1.988   5.389 -1.0819  0.2599  0.1693
 7215TIP3    H121609   0.644   2.028   5.456 -0.0480  1.4330 -1.3195
 7215TIP3    H221610   0.625   1.899   5.379 -0.3541  0.5428  0.2015
 7216TIP3   OH221611   6.507   1.618   1.825 -0.1099  0.4567 -0.2844
 7216TIP3    H121612   6.424   1.658   1.798  0.3169  0.6185 -1.4200
 7216TIP3    H221613   6.528   1.558   1.754  0.5841  0.1727  0.1551
 7217TIP3   OH221614   2.787   3.634   0.047  0.1713  0.2386 -0.2572
 7217TIP3    H121615   2.703   3.662   0.011 -0.5339 -0.4401  0.8206
 7217TIP3    H221616   2.805   3.695   0.118 -0.0863 -0.4277  0.3924
 7218TIP3   OH221617   4.742   0.722   1.073  0.0209  0.0948  0.1487
 7218TIP3    H121618   4.821   0.775   1.080  0.9071 -1.2386  0.7713
 7218TIP3    H221619   4.701   0.729   1.159 -2.4897  3.5432 -1.1150
 7219TIP3   OH221620   4.821   1.469   2.243 -0.2002  0.0812  0.3323
 7219TIP3    H121621   4.770   1.452   2.164  1.8673  0.2276 -1.1291
 7219TIP3    H221622   4.858   1.556   2.229  0.7642 -0.1825  1.1092
 7220TIP3   OH221623   5.645   2.738   0.407 -0.0797 -0.1994 -0.1659
 7220TIP3    H121624   5.579   2.681   0.448  0.1797 -0.4092 -0.0310
 7220TIP3    H221625   5.718   2.679   0.387 -0.8731 -0.4517 -2.5527
 7221TIP3   OH221626   1.229   2.103   2.473  0.3215  0.6024 -0.4446
 7221TIP3    H121627   1.216   2.129   2.381 -0.7170 -0.9990 -0.7962
 7221TIP3    H221628   1.193   2.014   2.478 -0.1069  0.8443  1.6416
 7222TIP3   OH221629   7.162   2.005   5.883  0.3276  0.5266 -0.1174
 7222TIP3    H121630   7.184   2.097   5.873  0.5532  0.5762  0.7418
 7222TIP3    H221631   7.066   2.002   5.884  0.3235  0.8511  0.6945
 7223TIP3   OH221632   0.770   5.617   4.410 -0.2566 -0.5216  0.1364
 7223TIP3    H121633   0.707   5.657   4.470  2.0874  0.5494  2.0713
 7223TIP3    H221634   0.813   5.549   4.461  0.4986 -0.9096 -0.9687
 7224TIP3   OH221635   5.054   3.509   2.349  0.6291 -0.8376 -0.4694
 7224TIP3    H121636   5.018   3.427   2.317 -0.2301 -1.0148  0.8849
 7224TIP3    H221637   5.077   3.492   2.441  1.9342 -0.0189 -0.6105
 7225TIP3   OH221638   3.850   1.020   3.933 -0.0860  0.0616 -0.2692
 7225TIP3    H121639   3.863   0.970   3.853  0.3160  0.8604 -0.7084
 7225TIP3    H221640   3.791   1.092   3.908  0.6949  0.7919 -0.0602
 7226TIP3   OH221641   6.112   1.372   4.460  0.0723 -0.3009 -1.0923
 7226TIP3    H121642   6.200   1.353   4.427  1.0348  1.1155  0.5002
 7226TIP3    H221643   6.108   1.327   4.545  0.4472  2.0396  0.2550
 7227TIP3   OH221644   2.804   0.873   2.013  0.0563 -0.0415 -0.0140
 7227TIP3    H121645   2.729   0.930   2.028  0.2437  0.5386 -1.2181
 7227TIP3    H221646   2.766   0.790   1.984 -0.1605 -0.1636  0.6008
 7228TIP3   OH221647   0.699   3.126   3.890 -0.1883  0.0688  0.1790
 7228TIP3    H121648   0.739   3.101   3.807  2.2342 -0.6511  1.4720
 7228TIP3    H221649   0.619   3.173   3.865  0.5569  0.0505 -2.5338
 7229TIP3   OH221650   5.804   1.208   3.006  0.9020 -0.4281  0.5851
 7229TIP3    H121651   5.864   1.178   2.938  1.0376  0.1686  0.4346
 7229TIP3    H221652   5.824   1.301   3.017  0.7718 -0.4809  1.3355
 7230TIP3   OH221653   0.365   3.368   0.245  0.5579  0.0071  0.0915
 7230TIP3    H121654   0.381   3.453   0.204  0.5138 -0.8253 -1.7588
 7230TIP3    H221655   0.296   3.328   0.191  0.2972 -1.0507  1.1567
 7231TIP3   OH221656   3.429   1.201   2.235 -0.0661 -0.5174  0.3319
 7231TIP3    H121657   3.394   1.176   2.321 -1.8025 -2.1970 -0.7915
 7231TIP3    H221658   3.352   1.222   2.183  0.9054 -0.3891 -1.1017
 7232TIP3   OH221659   2.638   5.076   4.852 -0.0661  0.4364  0.7037
 7232TIP3    H121660   2.711   5.127   4.817  0.4169 -0.6033  0.1339
 7232TIP3    H221661   2.560   5.128   4.833  0.2611  0.3186 -1.2128
 7233TIP3   OH221662   4.748   4.657   5.466 -0.3784 -0.2789 -0.1867
 7233TIP3    H121663   4.828   4.686   5.423  1.0234  3.2239  4.0261
 7233TIP3    H221664   4.682   4.720   5.440 -0.9175 -1.1750 -1.0456
 7234TIP3   OH221665   1.443   3.162   1.094  0.3305 -0.1954  0.7128
 7234TIP3    H121666   1.461   3.232   1.031 -1.2165 -0.0018  0.4414
 7234TIP3    H221667   1.511   3.097   1.079 -0.4983 -0.5592 -1.7903
 7235TIP3   OH221668   2.367   5.704   1.087 -0.4265 -0.0140 -0.1457
 7235TIP3    H121669   2.321   5.782   1.116 -0.9536  0.1653 -1.4048
 7235TIP3    H221670   2.391   5.658   1.167 -0.8770  0.9971  0.5772
 7236TIP3   OH221671   1.211   0.177   3.765  0.3618  0.3004  0.1566
 7236TIP3    H121672   1.262   0.103   3.798 -0.3657 -0.2584  0.0610
 7236TIP3    H221673   1.243   0.252   3.814  2.7211  0.3627 -1.3053
 7237TIP3   OH221674   2.948   2.382   2.551  0.0853 -0.2000 -0.0333
 7237TIP3    H121675   2.989   2.313   2.499 -1.2096 -2.1792  1.4382
 7237TIP3    H221676   2.963   2.462   2.500  0.7166 -1.6829 -2.3487
 7238TIP3   OH221677   2.902   6.120   1.343 -0.0067 -0.1261  0.3497
 7238TIP3    H121678   2.935   6.162   1.422 -0.3751  1.2549 -0.2073
 7238TIP3    H221679   2.955   6.041   1.334  1.9002  1.0847  0.4770
 7239TIP3   OH221680   1.982   3.335   3.178  0.1703  0.1489  0.1765
 7239TIP3    H121681   1.970   3.407   3.240  0.1201  0.2832  0.0141
 7239TIP3    H221682   2.038   3.273   3.224  1.2218  0.8502 -0.1127
 7240TIP3   OH221683   2.321   2.288   1.290 -0.4915 -0.0574 -0.0303
 7240TIP3    H121684   2.352   2.368   1.247  0.7906 -1.6685 -2.3013
 7240TIP3    H221685   2.380   2.219   1.259 -1.9740 -2.0411  1.2753
 7241TIP3   OH221686   1.663   6.431   4.225 -0.0070 -0.1270  0.1878
 7241TIP3    H121687   1.717   6.474   4.159  0.0820 -0.2797  0.1616
 7241TIP3    H221688   1.684   6.476   4.307  0.9215 -0.8519  0.3652
 7242TIP3   OH221689   0.973   3.433   4.357  0.1394 -0.0695 -0.2609
 7242TIP3    H121690   1.032   3.374   4.310  1.2131  0.8076 -0.0320
 7242TIP3    H221691   0.937   3.490   4.289  0.0021 -0.2192 -0.3155
 7243TIP3   OH221692   4.606   0.016   3.787  0.5636  0.3595 -0.1860
 7243TIP3    H121693   4.639   0.100   3.818  0.8291  0.8188 -1.6182
 7243TIP3    H221694   4.610  -0.041   3.863 -1.3314  2.0910  1.3014
 7244TIP3   OH221695   6.947   3.903   1.877 -0.5949 -0.1947 -0.0779
 7244TIP3    H121696   6.867   3.877   1.922  0.8906 -1.7642  1.8154
 7244TIP3    H221697   7.008   3.926   1.948  1.4288 -1.4948 -1.2945
 7245TIP3   OH221698   3.139   4.944   2.183 -0.4160  0.2735 -0.4864
 7245TIP3    H121699   3.081   5.015   2.156 -1.5997 -1.0293 -1.4778
 7245TIP3    H221700   3.095   4.903   2.257 -0.9511 -0.9045 -1.4244
 7246TIP3   OH221701   3.174   4.675   2.481 -0.1697  0.2920  0.3333
 7246TIP3    H121702   3.158   4.666   2.575  2.1752  2.1880  0.9906
 7246TIP3    H221703   3.264   4.704   2.475 -0.0531 -0.4193 -2.5854
 7247TIP3   OH221704   0.612   4.507   4.435 -0.1071 -0.1333  0.0504
 7247TIP3    H121705   0.618   4.596   4.401 -1.0864  0.1236  0.5167
 7247TIP3    H221706   0.545   4.512   4.503  0.5720 -1.0085  0.8005
 7248TIP3   OH221707   6.732   3.017   1.968  0.3051 -1.0401 -0.2004
 7248TIP3    H121708   6.640   2.995   1.982  0.0115 -1.7160 -2.7195
 7248TIP3    H221709   6.776   2.987   2.048 -1.7544  0.3957  1.6264
 7249TIP3   OH221710   4.868   1.100   1.585 -0.2422 -0.3858 -0.6450
 7249TIP3    H121711   4.775   1.112   1.563  0.3261  0.9459 -2.5952
 7249TIP3    H221712   4.895   1.025   1.532 -0.1488 -0.5992 -0.2910
 7250TIP3   OH221713   4.324   1.367   2.585  0.1611 -0.0786 -0.2281
 7250TIP3    H121714   4.240   1.321   2.582 -0.0022  0.2340 -0.4282
 7250TIP3    H221715   4.325   1.408   2.671  0.3763 -0.5832  0.0141
 7251TIP3   OH221716   1.461   5.769   0.847 -0.2615  0.2486  0.0610
 7251TIP3    H121717   1.420   5.847   0.884 -1.6886  0.0594 -1.0455
 7251TIP3    H221718   1.555   5.784   0.858 -0.5572  1.4766  1.1331
 7252TIP3   OH221719   6.112   3.586   4.661 -0.3648  0.0205  0.1288
 7252TIP3    H121720   6.206   3.567   4.656 -0.6212 -1.5339  0.7221
 7252TIP3    H221721   6.103   3.637   4.742 -0.0594  0.0558  0.1435
 7253TIP3   OH221722   3.243   5.514   5.799 -0.4227  0.2322 -0.0699
 7253TIP3    H121723   3.327   5.552   5.825 -0.2030  0.2000 -0.7231
 7253TIP3    H221724   3.249   5.504   5.704 -0.8462 -0.5445 -0.0228
 7254TIP3   OH221725   4.771   0.306   0.259  0.0807 -0.4355 -0.0659
 7254TIP3    H121726   4.829   0.255   0.203  1.3222  0.6044  0.2070
 7254TIP3    H221727   4.782   0.396   0.228 -5.6077 -0.5479 -3.7789
 7255TIP3   OH221728   6.820   1.843   0.052  0.2276  0.8076 -0.9027
 7255TIP3    H121729   6.835   1.778   0.120  0.5593  1.3470 -0.4452
 7255TIP3    H221730   6.893   1.904   0.061 -1.6751  3.0270  0.8292
 7256TIP3   OH221731   4.002   1.212   1.108  0.2339 -0.2934  0.0571
 7256TIP3    H121732   3.935   1.233   1.042  1.0929  0.8731 -0.4890
 7256TIP3    H221733   4.071   1.169   1.059  1.1909  1.2021  0.0168
 7257TIP3   OH221734   5.500   3.444   5.238 -0.6349  0.6440  0.2339
 7257TIP3    H121735   5.542   3.463   5.154 -0.1885 -0.2169  0.2474
 7257TIP3    H221736   5.450   3.523   5.259  1.4856  1.9749  0.5228
 7258TIP3   OH221737   2.692   6.399   4.290  0.0763  0.3324  0.4427
 7258TIP3    H121738   2.637   6.395   4.368 -0.8194  2.3452 -0.0224
 7258TIP3    H221739   2.668   6.320   4.240 -0.7684  0.0322  1.2927
 7259TIP3   OH221740   1.723   4.759   1.242  0.0093  0.1474 -0.5757
 7259TIP3    H121741   1.655   4.725   1.184 -0.9341  0.1960  0.4718
 7259TIP3    H221742   1.778   4.683   1.262 -0.5500 -0.1985 -0.3332
 7260TIP3   OH221743   0.912   1.462   3.059 -0.0376 -0.2682  0.0319
 7260TIP3    H121744   0.840   1.399   3.051 -0.7935  0.7113 -1.3022
 7260TIP3    H221745   0.868   1.546   3.075  0.9385  0.0228  1.3919
 7261TIP3   OH221746   6.461   2.276   0.161  0.1151  0.1185  0.5197
 7261TIP3    H121747   6.495   2.190   0.136 -0.7412 -0.3207  0.8218
 7261TIP3    H221748   6.533   2.318   0.208 -0.0421 -1.1401  1.9433
 7262TIP3   OH221749   5.796   5.666   1.230 -0.0253  0.2028  0.5191
 7262TIP3    H121750   5.716   5.705   1.266 -1.1025 -0.2028 -1.3075
 7262TIP3    H221751   5.798   5.578   1.266 -0.3625  0.2346  0.6176
 7263TIP3   OH221752   4.649   6.621   3.693 -0.0358  0.4283 -0.1094
 7263TIP3    H121753   4.647   6.554   3.761  1.5667  0.5826  0.1428
 7263TIP3    H221754   4.583   6.685   3.720  0.0754  0.1312  0.9236
 7264TIP3   OH221755   4.182   1.190   4.574 -0.2646  0.0604  0.0437
 7264TIP3    H121756   4.192   1.199   4.479 -0.1765 -0.0528  0.0422
 7264TIP3    H221757   4.090   1.166   4.586 -0.2495 -0.0279 -0.0202
 7265TIP3   OH221758   6.687   5.898   3.948  0.2086 -0.2023 -0.1062
 7265TIP3    H121759   6.762   5.949   3.919 -1.0591  1.6976 -0.2303
 7265TIP3    H221760   6.654   5.945   4.024  0.0492 -1.8964  0.9299
 7266TIP3   OH221761   3.718   0.449   3.485  0.0328 -0.4357 -0.5649
 7266TIP3    H121762   3.710   0.458   3.580  0.8313 -1.4546 -0.3881
 7266TIP3    H221763   3.812   0.442   3.470 -0.1237 -0.8118 -1.3796
 7267TIP3   OH221764   3.184   6.305   3.425  0.3022  0.0253 -0.3765
 7267TIP3    H121765   3.276   6.325   3.440 -0.0539  1.5079 -0.0869
 7267TIP3    H221766   3.184   6.214   3.395  1.8760  0.0833 -0.6114
 7268TIP3   OH221767   2.002   2.869   3.489  0.1226  0.3561  0.5014
 7268TIP3    H121768   1.924   2.922   3.477 -1.0690 -1.2677  0.7751
 7268TIP3    H221769   2.029   2.845   3.400 -1.0772 -0.9846  0.4769
 7269TIP3   OH221770   0.802   0.390   1.798 -0.5408 -0.6367  0.5960
 7269TIP3    H121771   0.817   0.443   1.876 -0.2334  0.1186  0.0267
 7269TIP3    H221772   0.789   0.453   1.728  0.5227 -1.2945 -0.2288
 7270TIP3   OH221773   2.421   5.812   0.597 -0.2381  0.4768  0.0165
 7270TIP3    H121774   2.409   5.722   0.569  0.8233  0.3988 -0.2252
 7270TIP3    H221775   2.483   5.849   0.535  0.9373  0.7593  1.3204
 7271TIP3   OH221776   0.587   0.940   4.690 -0.0399  0.1226  0.0434
 7271TIP3    H121777   0.658   0.878   4.673  0.0495  0.4772 -0.9717
 7271TIP3    H221778   0.632   1.019   4.720  0.0583  0.5040 -1.0470
 7272TIP3   OH221779   2.024   4.374   5.040  0.0403 -0.2215 -0.2977
 7272TIP3    H121780   2.005   4.283   5.016 -0.9496 -0.3774  0.9480
 7272TIP3    H221781   1.939   4.413   5.058  0.4658  0.9289 -0.6768
 7273TIP3   OH221782   4.114   6.373   2.044 -0.3465 -0.0737  0.1709
 7273TIP3    H121783   4.079   6.410   1.963  0.8750  2.1749  0.5954
 7273TIP3    H221784   4.104   6.442   2.109 -0.9172 -1.6788  1.8953
 7274TIP3   OH221785   4.455   5.715   3.293  0.4737 -0.4854 -0.3121
 7274TIP3    H121786   4.411   5.722   3.377 -0.3337 -1.5391 -0.6298
 7274TIP3    H221787   4.510   5.637   3.301 -0.2668 -1.1058 -1.0296
 7275TIP3   OH221788   0.924   2.770   4.056  0.2383 -0.1540 -0.5924
 7275TIP3    H121789   0.916   2.774   4.151  0.0768 -0.3290 -0.5991
 7275TIP3    H221790   0.961   2.683   4.039  0.9670  0.1574 -0.6397
 7276TIP3   OH221791   3.737   0.456   1.202  0.2580  0.8491 -0.4730
 7276TIP3    H121792   3.788   0.434   1.280  1.5266  2.3752 -0.8234
 7276TIP3    H221793   3.713   0.547   1.214 -0.5484  0.7644 -1.3452
 7277TIP3   OH221794   4.589   4.520   2.623 -0.2237 -0.3730  0.5261
 7277TIP3    H121795   4.513   4.518   2.565  0.6991 -0.3476 -0.7343
 7277TIP3    H221796   4.574   4.449   2.685 -1.2074 -0.4485  0.2196
 7278TIP3   OH221797   4.635   1.550   1.628  0.2417  0.0660 -0.1157
 7278TIP3    H121798   4.597   1.594   1.552 -1.5372 -0.1666  0.5915
 7278TIP3    H221799   4.560   1.530   1.684  1.2823 -1.6503  0.7355
 7279TIP3   OH221800   2.840   4.555   4.573  0.3945  0.1192 -0.0190
 7279TIP3    H121801   2.835   4.606   4.492  2.9357  0.1420 -0.2445
 7279TIP3    H221802   2.784   4.602   4.634  1.1331  2.0960 -0.7859
 7280TIP3   OH221803   6.307   4.305   2.231  0.0585 -0.3540 -0.4642
 7280TIP3    H121804   6.221   4.319   2.269 -0.6459 -0.7145 -1.8456
 7280TIP3    H221805   6.341   4.227   2.276 -0.3834 -0.2734  0.0135
 7281TIP3   OH221806   6.951   1.117   1.825  0.2727  0.2072 -0.1459
 7281TIP3    H121807   6.986   1.028   1.824  0.8745  0.4174  0.9013
 7281TIP3    H221808   6.948   1.142   1.733  2.0269 -0.1549 -0.3329
 7282TIP3   OH221809   6.661   3.725   3.272 -0.2371 -0.1587 -0.1769
 7282TIP3    H121810   6.620   3.784   3.335 -0.1450  1.1816 -1.3096
 7282TIP3    H221811   6.751   3.758   3.264  0.8736 -2.5014  1.5921
 7283TIP3   OH221812   2.590   1.280   5.378  0.3687 -0.0406 -0.2508
 7283TIP3    H121813   2.548   1.309   5.459  0.9733  0.8240 -0.2334
 7283TIP3    H221814   2.674   1.244   5.406 -0.0253 -1.0788 -0.3598
 7284TIP3   OH221815   0.375   0.024   4.872  0.3348  0.1204  0.6601
 7284TIP3    H121816   0.412   0.108   4.845 -3.3568  1.4034 -1.1143
 7284TIP3    H221817   0.395  -0.035   4.800  0.7488  0.1971  0.7105
 7285TIP3   OH221818   2.698   2.134   2.132 -0.0438  0.3609  0.2645
 7285TIP3    H121819   2.622   2.180   2.168 -1.9358 -0.4085 -2.4341
 7285TIP3    H221820   2.727   2.076   2.202 -2.8315 -0.3245  0.9514
 7286TIP3   OH221821   0.438   4.818   1.465 -0.1301  0.2271  0.1949
 7286TIP3    H121822   0.494   4.893   1.485 -0.1264  0.3642 -0.3239
 7286TIP3    H221823   0.384   4.808   1.543  0.1935  0.4741  0.4574
 7287TIP3   OH221824   5.938   4.355   1.054 -0.4563 -0.3849 -0.0319
 7287TIP3    H121825   5.960   4.411   1.128  1.0192  0.2886 -0.9520
 7287TIP3    H221826   6.022   4.326   1.018 -1.1563 -1.6897 -0.7100
 7288TIP3   OH221827   3.260   0.878   0.643 -0.0975  0.1348  0.0370
 7288TIP3    H121828   3.307   0.820   0.584 -0.8690 -1.1751  0.6827
 7288TIP3    H221829   3.326   0.910   0.704  0.9454  2.3548 -2.0966
 7289TIP3   OH221830   4.758   1.772   1.784 -0.1567 -0.2185  0.5345
 7289TIP3    H121831   4.757   1.765   1.880 -0.2902  0.0407  0.5537
 7289TIP3    H221832   4.738   1.683   1.753  0.7195 -0.4943  0.7349
 7290TIP3   OH221833   5.584   1.324   4.439 -0.2556 -0.0960 -0.1252
 7290TIP3    H121834   5.580   1.352   4.348 -2.8996 -0.3868 -0.1843
 7290TIP3    H221835   5.576   1.229   4.436 -0.3911 -0.1058  0.3960
 7291TIP3   OH221836   7.027   0.166   2.606 -0.2140 -0.9178  0.2192
 7291TIP3    H121837   6.944   0.183   2.651 -1.5322 -2.0154 -1.6893
 7291TIP3    H221838   7.016   0.080   2.567  2.6045 -1.9705  1.5060
 7292TIP3   OH221839   0.070   0.782   5.116 -0.4031  0.3933  0.1634
 7292TIP3    H121840  -0.018   0.819   5.106 -1.0292 -0.8037  0.9757
 7292TIP3    H221841   0.057   0.688   5.105  0.9082  0.2640 -0.4186
 7293TIP3   OH221842   5.743   0.819   0.175 -0.0672  0.4322  0.6095
 7293TIP3    H121843   5.766   0.912   0.181  1.6038  0.2037 -1.2991
 7293TIP3    H221844   5.664   0.817   0.121  1.1418  0.6736 -1.2635
 7294TIP3   OH221845   2.254   5.016   0.737 -0.2294 -0.4009 -0.3628
 7294TIP3    H121846   2.279   4.933   0.697 -0.4461 -0.2786 -0.7557
 7294TIP3    H221847   2.210   5.065   0.667 -3.2852 -1.3242  0.7542
 7295TIP3   OH221848   6.767   3.437   3.847  0.5198  0.1242  0.0228
 7295TIP3    H121849   6.793   3.454   3.938  1.0571  0.9338 -0.2645
 7295TIP3    H221850   6.770   3.342   3.839 -0.0634  0.0074  1.0020
 7296TIP3   OH221851   2.948   4.556   1.986  0.0832 -0.1245 -0.1774
 7296TIP3    H121852   2.911   4.568   1.899  1.0849 -0.2554 -0.6322
 7296TIP3    H221853   3.016   4.622   1.993  0.3281 -0.4239  0.3278
 7297TIP3   OH221854   0.729   3.279   2.650  0.3277  0.0048  0.2316
 7297TIP3    H121855   0.809   3.265   2.600 -0.1323  1.5376 -1.0139
 7297TIP3    H221856   0.759   3.309   2.736  1.1052 -0.0132 -0.0317
 7298TIP3   OH221857   5.784   3.253   3.737 -0.5187  0.1957  0.4755
 7298TIP3    H121858   5.731   3.245   3.658  0.3702  0.0684 -0.1116
 7298TIP3    H221859   5.872   3.229   3.710 -0.0079  1.0904  1.2739
 7299TIP3   OH221860   6.652   0.327   4.429  0.8413 -0.0679 -0.0768
 7299TIP3    H121861   6.697   0.315   4.512 -1.4608  1.2892  1.4382
 7299TIP3    H221862   6.680   0.413   4.398  1.0339 -0.2092 -0.3055
 7300TIP3   OH221863   5.109   2.286   3.437  0.3676  0.1406  0.1972
 7300TIP3    H121864   5.097   2.264   3.344  0.6696 -1.0041  0.4100
 7300TIP3    H221865   5.074   2.374   3.445  2.4164  1.2177 -1.4895
 7301TIP3   OH221866   7.065   0.273   5.024  0.1135  0.0405 -0.0349
 7301TIP3    H121867   7.099   0.233   5.104  0.5219 -0.3811 -0.4098
 7301TIP3    H221868   7.142   0.283   4.967 -0.0798  0.8371 -0.1712
 7302TIP3   OH221869   6.908   4.976   5.371 -0.2461 -0.2856  0.3118
 7302TIP3    H121870   6.976   4.937   5.316  1.1946 -0.0623  1.8489
 7302TIP3    H221871   6.893   5.062   5.333  1.8982  0.5162  1.1005
 7303TIP3   OH221872   1.987   2.691   1.381  0.1872 -0.6240  0.1368
 7303TIP3    H121873   1.947   2.636   1.314 -2.7006  1.3933  0.0413
 7303TIP3    H221874   2.074   2.711   1.346 -0.6923 -0.7777 -2.3846
 7304TIP3   OH221875   6.664   4.441   2.828  0.7092  0.1909  0.2753
 7304TIP3    H121876   6.708   4.357   2.843  0.4050 -0.1386 -0.5687
 7304TIP3    H221877   6.669   4.486   2.912 -1.5086 -1.7760  1.6071
 7305TIP3   OH221878   4.395   6.339   0.656  0.1041 -0.0786  0.3808
 7305TIP3    H121879   4.475   6.342   0.708  0.0931  0.1803  0.3840
 7305TIP3    H221880   4.391   6.249   0.623  0.0176 -0.3048  0.9769
 7306TIP3   OH221881   0.496   6.506   5.185  0.3416 -0.3770  0.1711
 7306TIP3    H121882   0.438   6.494   5.109  0.7628 -1.0721 -0.0454
 7306TIP3    H221883   0.458   6.451   5.253 -0.8167  1.2756  0.9333
 7307TIP3   OH221884   6.496   1.442   2.981 -0.1068 -0.0998  0.9951
 7307TIP3    H121885   6.546   1.398   2.912  0.2870  0.7768  0.7036
 7307TIP3    H221886   6.537   1.413   3.062 -0.7039 -1.3033  0.8924
 7308TIP3   OH221887   1.946   0.993   5.330  0.4959 -0.8871  0.3200
 7308TIP3    H121888   1.960   1.031   5.417  0.8473 -0.2792 -0.0022
 7308TIP3    H221889   1.898   0.912   5.348  0.3726 -0.6612  1.0664
 7309TIP3   OH221890   6.554   3.910   3.458 -0.0025  0.1574 -0.4516
 7309TIP3    H121891   6.489   3.875   3.519  0.2409  1.7957  0.8246
 7309TIP3    H221892   6.608   3.968   3.512  0.6515  1.1510 -2.1173
 7310TIP3   OH221893   0.136   6.580   5.229  0.3999  0.4453  0.3040
 7310TIP3    H121894   0.058   6.528   5.250 -0.7328  1.7041 -0.5775
 7310TIP3    H221895   0.132   6.654   5.290  1.0035  0.4305  0.3629
 7311TIP3   OH221896   2.185   3.210   4.607  0.1382  0.1770 -0.0001
 7311TIP3    H121897   2.220   3.151   4.674 -0.1124  1.2228  1.0957
 7311TIP3    H221898   2.185   3.296   4.649 -2.3235  0.4805 -0.4876
 7312TIP3   OH221899   3.465   0.272   1.249  0.3557 -0.5701  0.3237
 7312TIP3    H121900   3.538   0.332   1.232 -0.3735 -0.1713 -1.6954
 7312TIP3    H221901   3.508   0.191   1.277  1.6497 -0.5403 -1.3970
 7313TIP3   OH221902   4.471   6.116   3.455 -0.6778  0.7142 -0.4528
 7313TIP3    H121903   4.377   6.109   3.473 -0.6112 -0.5928 -0.5378
 7313TIP3    H221904   4.510   6.134   3.540 -0.8478 -0.4508 -0.1160
 7314TIP3   OH221905   2.883   6.134   2.849  0.4071  0.7956 -0.1731
 7314TIP3    H121906   2.822   6.123   2.922  0.9808 -0.4778  0.1457
 7314TIP3    H221907   2.961   6.086   2.877  0.1539 -0.8976 -2.1699
 7315TIP3   OH221908   4.488   5.749   3.807 -0.4411 -0.3787 -0.2305
 7315TIP3    H121909   4.522   5.701   3.883  0.3544  0.9405  0.2979
 7315TIP3    H221910   4.420   5.806   3.843  0.7679  1.1436 -0.2394
 7316TIP3   OH221911   2.299   6.660   4.575 -0.4152 -0.1257  0.2127
 7316TIP3    H121912   2.279   6.746   4.611  1.1167  0.2253  0.2937
 7316TIP3    H221913   2.321   6.606   4.651 -0.0265 -0.1976  0.0517
 7317TIP3   OH221914   6.316   3.490   0.876 -0.2178  0.0400 -0.2726
 7317TIP3    H121915   6.303   3.395   0.875  0.3135 -0.0789 -2.7189
 7317TIP3    H221916   6.363   3.507   0.957 -0.7145 -1.7212  0.4315
 7318TIP3   OH221917   1.077   3.577   3.065  0.7955  0.6478  0.1611
 7318TIP3    H121918   1.036   3.631   3.133  1.9136 -0.3695  1.7281
 7318TIP3    H221919   1.038   3.491   3.076 -0.5915  0.9512 -1.9765
 7319TIP3   OH221920   3.807   6.028   5.790  0.5424 -0.1074  0.3111
 7319TIP3    H121921   3.734   6.062   5.842 -0.0200 -0.8886  0.0348
 7319TIP3    H221922   3.874   6.096   5.797 -0.4249  0.9021  0.0676
 7320TIP3   OH221923   0.179   4.261   3.612 -0.0692  0.3290  0.1550
 7320TIP3    H121924   0.101   4.269   3.667 -0.0179  0.3992  0.2179
 7320TIP3    H221925   0.247   4.307   3.660 -0.0566  0.5096 -0.0342
 7321TIP3   OH221926   0.579   5.355   3.161 -0.1007  0.1757 -0.3810
 7321TIP3    H121927   0.520   5.395   3.224  0.5466 -2.4380  2.1151
 7321TIP3    H221928   0.535   5.274   3.135  1.7861 -1.3018  0.7237
 7322TIP3   OH221929   6.436   6.508   5.550 -0.2785  0.4693  0.5190
 7322TIP3    H121930   6.400   6.595   5.533 -0.0677  0.5280  0.3625
 7322TIP3    H221931   6.481   6.517   5.634  1.8241  1.1880 -0.5973
 7323TIP3   OH221932   6.873   1.928   5.622 -0.1138  0.8223  0.4303
 7323TIP3    H121933   6.872   1.915   5.717  0.1928  2.1049  0.6258
 7323TIP3    H221934   6.907   1.846   5.588 -0.4318  0.2548  1.4049
 7324TIP3   OH221935   0.909   3.664   0.958 -0.0683 -0.2387 -0.7472
 7324TIP3    H121936   0.937   3.709   1.038 -2.1922 -0.1451  0.0147
 7324TIP3    H221937   0.950   3.578   0.964  1.1282  0.3390 -0.4033
 7325TIP3   OH221938   5.768   6.599   5.380 -0.8486  0.0558  0.4089
 7325TIP3    H121939   5.810   6.685   5.384  0.1197 -0.3193 -1.1806
 7325TIP3    H221940   5.801   6.553   5.457  1.5527 -0.1419 -0.6517
 7326TIP3   OH221941   3.764   6.661   1.437  0.3166 -0.0725 -0.1578
 7326TIP3    H121942   3.700   6.590   1.429  0.7195 -0.3521 -1.1086
 7326TIP3    H221943   3.751   6.714   1.358  1.6678 -0.5067 -0.7156
 7327TIP3   OH221944   4.161   5.341   0.983 -0.8032  0.5152  0.1649
 7327TIP3    H121945   4.243   5.325   0.938 -0.8473  0.5781  0.0620
 7327TIP3    H221946   4.185   5.390   1.062 -0.5124 -1.1168  1.1454
 7328TIP3   OH221947   3.378   4.281   0.409  0.0941  0.0381  0.3273
 7328TIP3    H121948   3.324   4.205   0.428 -0.4385 -0.0584 -1.4003
 7328TIP3    H221949   3.339   4.352   0.460 -0.3126 -0.5189  0.7993
 7329TIP3   OH221950   0.474   0.894   0.570 -0.6742 -0.4316 -0.4010
 7329TIP3    H121951   0.393   0.863   0.610  0.7739 -0.9857  2.3336
 7329TIP3    H221952   0.497   0.825   0.507 -0.3034 -2.3491  1.7107
 7330TIP3   OH221953   0.225   2.084   1.395 -0.2962 -0.1921  0.1999
 7330TIP3    H121954   0.150   2.025   1.393  0.0520 -0.6341 -1.6482
 7330TIP3    H221955   0.241   2.100   1.489 -0.5022 -2.8705  0.7647
 7331TIP3   OH221956   5.058   0.437   4.421  0.3364 -0.2906 -0.2993
 7331TIP3    H121957   4.983   0.431   4.480  0.4628 -1.6280 -0.2536
 7331TIP3    H221958   5.114   0.504   4.460  0.3632 -1.0686  1.0497
 7332TIP3   OH221959   5.694   2.577   5.669 -0.1054 -0.1650  0.5242
 7332TIP3    H121960   5.676   2.670   5.683  0.1830 -0.0357  0.0685
 7332TIP3    H221961   5.745   2.551   5.746 -1.4809 -0.3324  1.4163
 7333TIP3   OH221962   3.051   0.044   5.758 -0.2679 -0.3026  0.3520
 7333TIP3    H121963   3.119   0.066   5.823 -0.5459 -0.1677  0.5991
 7333TIP3    H221964   3.067   0.103   5.685 -1.4933  1.3272  1.3187
 7334TIP3   OH221965   5.127   3.405   3.519  0.0862 -0.1291  0.0713
 7334TIP3    H121966   5.176   3.344   3.576  1.6099  0.4873 -0.5243
 7334TIP3    H221967   5.161   3.491   3.543 -1.8862  0.5072  0.7380
 7335TIP3   OH221968   2.346   4.182   1.592  0.0958  0.1040 -0.1020
 7335TIP3    H121969   2.439   4.205   1.598 -0.3296  1.7574  1.0114
 7335TIP3    H221970   2.307   4.255   1.543 -1.0270  0.9086  1.8901
 7336TIP3   OH221971   4.133   0.818   3.738 -0.0075  0.0009  0.8027
 7336TIP3    H121972   4.083   0.743   3.706 -1.2324  0.9167  0.5396
 7336TIP3    H221973   4.121   0.816   3.833 -0.7341  0.3466  0.7198
 7337TIP3   OH221974   2.687   5.361   1.573 -0.4724  0.6646  0.5303
 7337TIP3    H121975   2.597   5.385   1.595 -0.4411 -0.2156  1.7129
 7337TIP3    H221976   2.740   5.430   1.611 -0.6430  1.3302 -0.4026
 7338TIP3   OH221977   2.699   4.674   0.910  0.2528  0.2296 -0.3798
 7338TIP3    H121978   2.676   4.655   0.820 -0.1325 -1.4322  0.0491
 7338TIP3    H221979   2.670   4.765   0.923 -0.7907  0.0951 -1.5559
 7339TIP3   OH221980   6.785   6.578   4.395 -0.2679 -0.1639  0.1046
 7339TIP3    H121981   6.722   6.506   4.395  1.2157 -1.5586 -0.9934
 7339TIP3    H221982   6.870   6.534   4.392  0.6945  1.6476 -0.4299
 7340TIP3   OH221983   5.630   3.838   1.792  0.0341 -0.1555  0.1302
 7340TIP3    H121984   5.713   3.836   1.744  0.2088 -1.5944  0.4420
 7340TIP3    H221985   5.582   3.912   1.755  0.6856 -0.4417 -1.3712
 7341TIP3   OH221986   5.381   5.483   5.133 -0.3782  0.0822 -0.1742
 7341TIP3    H121987   5.434   5.560   5.153  0.8321 -0.4487 -1.2339
 7341TIP3    H221988   5.346   5.499   5.046 -0.0147 -0.6029 -0.4585
 7342TIP3   OH221989   5.570   6.392   3.892  0.8179  0.1016  0.0555
 7342TIP3    H121990   5.479   6.372   3.870  1.0048 -1.9811  0.9697
 7342TIP3    H221991   5.619   6.371   3.812  0.6795 -0.2832  0.0731
 7343TIP3   OH221992   1.041   6.567   5.792 -0.4465  0.8417 -0.2082
 7343TIP3    H121993   0.976   6.530   5.852  2.2211 -1.1775  1.6303
 7343TIP3    H221994   1.078   6.641   5.840  0.4563  0.3092 -0.0555
 7344TIP3   OH221995   1.914   2.662   4.159  0.9798  0.5066 -0.6959
 7344TIP3    H121996   1.932   2.715   4.081 -1.4820  0.4558 -1.3652
 7344TIP3    H221997   1.858   2.718   4.213 -0.3998 -0.8132 -0.7079
 7345TIP3   OH221998   6.281   5.911   0.169 -0.2551 -0.1459 -0.1757
 7345TIP3    H121999   6.289   5.857   0.090 -1.8654 -0.9598  0.1590
 7345TIP3    H222000   6.256   5.997   0.137  0.7042 -0.0244 -0.6291
 7346TIP3   OH222001   2.152   4.520   0.476  0.1867  0.2809 -0.2127
 7346TIP3    H122002   2.242   4.519   0.445  0.7890  2.6581  1.1875
 7346TIP3    H222003   2.113   4.596   0.432 -1.1073 -0.5981 -0.6409
 7347TIP3   OH222004   5.938   4.146   3.400 -0.0423 -0.3749 -0.0881
 7347TIP3    H122005   5.918   4.198   3.322  3.1322  2.0174  0.4604
 7347TIP3    H222006   6.005   4.084   3.371 -0.7453 -1.2853  0.1983
 7348TIP3   OH222007   6.982   4.784   2.483 -0.5534  0.3406  0.6310
 7348TIP3    H122008   7.051   4.845   2.510  0.5460 -1.1734  1.3577
 7348TIP3    H222009   6.947   4.749   2.564 -0.9665 -0.2304  0.2153
 7349TIP3   OH222010   4.309   4.008   4.150  0.5062  0.4795 -0.2133
 7349TIP3    H122011   4.274   4.095   4.167 -0.4200  0.0671  0.0578
 7349TIP3    H222012   4.313   4.001   4.055  0.7568  0.8839 -0.2332
 7350TIP3   OH222013   5.999   1.976   1.095 -0.6471 -0.5873 -0.2908
 7350TIP3    H122014   6.012   1.985   1.001 -1.7820  0.8904 -0.3354
 7350TIP3    H222015   6.084   1.997   1.134 -0.0734 -1.5630 -0.9686
 7351TIP3   OH222016   0.390   4.975   4.698  0.0807 -0.2142  0.5218
 7351TIP3    H122017   0.350   5.062   4.695 -0.3408 -0.4341 -0.7369
 7351TIP3    H222018   0.382   4.948   4.789  0.7001  1.2776  1.0490
 7352TIP3   OH222019   2.938   6.060   0.291  0.2668  0.3689  0.6602
 7352TIP3    H122020   2.878   6.013   0.349 -0.3192  0.6480  0.2874
 7352TIP3    H222021   2.941   6.149   0.326 -0.0566  0.5269  0.2973
 7353TIP3   OH222022   3.529   1.209   5.512  0.1674  0.0450  0.0266
 7353TIP3    H122023   3.618   1.244   5.503 -0.5592  1.8653 -0.5540
 7353TIP3    H222024   3.504   1.231   5.602  0.4194 -0.7917  0.3084
 7354TIP3   OH222025   3.507   5.528   4.061 -0.0658 -0.5350  0.8326
 7354TIP3    H122026   3.532   5.493   4.147  0.8346 -1.1919  0.3233
 7354TIP3    H222027   3.543   5.465   3.999  0.3782  0.5718 -0.0721
 7355TIP3   OH222028   3.713   1.456   3.295 -0.5571  0.3094 -0.8910
 7355TIP3    H122029   3.711   1.515   3.370  0.5765  0.8024 -1.2121
 7355TIP3    H222030   3.805   1.457   3.267 -0.7749 -0.6051 -1.6985
 7356TIP3   OH222031   5.738   5.011   1.518 -0.4711 -0.2068 -0.1629
 7356TIP3    H122032   5.755   5.082   1.581  1.0214 -0.1327 -0.6269
 7356TIP3    H222033   5.809   4.949   1.531 -1.6045 -1.5299  0.0421
 7357TIP3   OH222034   5.154   0.110   0.737  0.0279 -0.1467 -0.0029
 7357TIP3    H122035   5.146   0.143   0.827 -0.8053  0.5434 -0.3169
 7357TIP3    H222036   5.078   0.146   0.691  0.8284  0.1023 -1.1778
 7358TIP3   OH222037   5.040   0.982   2.355  0.2823 -0.2237 -0.4244
 7358TIP3    H122038   4.985   0.994   2.433  0.7323  0.9566 -0.2659
 7358TIP3    H222039   5.037   1.066   2.310  1.1108 -0.4686 -0.9641
 7359TIP3   OH222040   3.447   2.782   0.070 -0.4041  0.1672 -0.2231
 7359TIP3    H122041   3.438   2.803  -0.023  1.4924 -1.0145 -0.7233
 7359TIP3    H222042   3.520   2.837   0.101 -1.1713  0.7355  0.6682
 7360TIP3   OH222043   0.599   2.861   5.213  0.0479 -0.3554 -0.1715
 7360TIP3    H122044   0.599   2.890   5.121  2.1622  0.3328 -0.0069
 7360TIP3    H222045   0.609   2.766   5.208 -1.1394 -0.4816 -0.6326
 7361TIP3   OH222046   2.400   4.643   3.717  0.0249 -0.0760 -0.1089
 7361TIP3    H122047   2.391   4.548   3.728  2.4969 -1.1938 -4.9521
 7361TIP3    H222048   2.311   4.675   3.712 -1.0116 -1.4093  4.5563
 7362TIP3   OH222049   2.651   0.915   2.264 -0.3619 -0.3029 -0.4733
 7362TIP3    H122050   2.642   0.923   2.359 -1.3131 -0.7892 -0.5138
 7362TIP3    H222051   2.680   1.002   2.236  3.7202 -1.0470  0.6358
 7363TIP3   OH222052   3.866   0.102   2.929  0.0505  0.1168  0.0866
 7363TIP3    H122053   3.781   0.059   2.931  1.1211 -2.2037 -0.3746
 7363TIP3    H222054   3.856   0.174   2.868 -0.8579 -1.9251 -2.3511
 7364TIP3   OH222055   5.872   6.081   1.270  0.5075 -0.6814 -0.1064
 7364TIP3    H122056   5.850   6.021   1.199 -4.7516  0.6056  0.0052
 7364TIP3    H222057   5.862   6.030   1.350  0.8999 -0.7733 -0.1116
 7365TIP3   OH222058   2.472   3.918   5.373 -0.1855  0.0504  0.1506
 7365TIP3    H122059   2.558   3.958   5.361  0.0055 -0.6921 -1.1092
 7365TIP3    H222060   2.455   3.926   5.467  1.0244  0.6539  0.3419
 7366TIP3   OH222061   1.255   0.449   5.561  0.3089 -0.2313  0.0592
 7366TIP3    H122062   1.307   0.433   5.482  0.7561 -1.9665  0.6611
 7366TIP3    H222063   1.233   0.542   5.557 -0.8303 -0.5041 -2.8195
 7367TIP3   OH222064   2.702   4.232   0.492 -0.0202  0.4325 -0.4895
 7367TIP3    H122065   2.760   4.236   0.569 -0.0733  0.4517 -0.4505
 7367TIP3    H222066   2.631   4.292   0.513  0.5928  1.3991 -1.0798
 7368TIP3   OH222067   6.682   5.624   4.053  0.3085  0.2776 -0.4307
 7368TIP3    H122068   6.756   5.574   4.085 -0.9878 -1.6052 -0.2429
 7368TIP3    H222069   6.717   5.712   4.038  2.3395 -0.3300  0.4726
 7369TIP3   OH222070   5.990   0.508   0.854  0.0183 -0.2747 -0.5295
 7369TIP3    H122071   5.929   0.451   0.806 -0.8519  1.6985 -1.9168
 7369TIP3    H222072   6.068   0.454   0.867 -0.1779 -1.3527 -3.1149
 7370TIP3   OH222073   2.393   2.024   2.670 -0.1244  0.3110  0.0169
 7370TIP3    H122074   2.460   2.002   2.605 -0.0094 -0.4963  0.4009
 7370TIP3    H222075   2.323   2.066   2.619 -0.8546 -1.9281 -0.9401
 7371TIP3   OH222076   0.240   5.820   4.396  0.0124 -0.1879 -0.2609
 7371TIP3    H122077   0.232   5.725   4.400 -0.9842 -0.0749  1.2291
 7371TIP3    H222078   0.278   5.845   4.481 -0.3003  0.7826 -0.3901
 7372TIP3   OH222079   0.501   3.038   2.979 -0.5127 -0.1516  0.2514
 7372TIP3    H122080   0.529   3.082   2.898 -0.2077 -0.2447  0.3059
 7372TIP3    H222081   0.580   3.030   3.031 -1.1000  2.1021  1.6340
 7373TIP3   OH222082   3.376   3.586   1.828  0.7537 -0.0850 -0.3168
 7373TIP3    H122083   3.357   3.680   1.833 -0.3900 -0.3112 -0.1279
 7373TIP3    H222084   3.468   3.579   1.855  0.8609  0.9759 -0.3543
 7374TIP3   OH222085   3.696   4.697   4.946  0.4821  0.1910 -0.0134
 7374TIP3    H122086   3.744   4.768   4.988  0.0679  0.5413 -0.1215
 7374TIP3    H222087   3.758   4.660   4.883  0.2628  1.3549 -0.9405
 7375TIP3   OH222088   5.174   6.221   0.662 -0.4811  0.3258  0.4898
 7375TIP3    H122089   5.252   6.196   0.613 -0.1614 -3.4003  2.5655
 7375TIP3    H222090   5.206   6.248   0.748 -1.3780  0.7449  0.7113
 7376TIP3   OH222091   0.157   6.589   3.952 -0.3865 -0.1050  0.5033
 7376TIP3    H122092   0.211   6.618   4.026  1.1805  0.0030 -0.6242
 7376TIP3    H222093   0.102   6.664   3.932 -0.6858 -0.0657  1.4314
 7377TIP3   OH222094   1.407   5.396   1.557 -0.7600 -0.3570  0.1328
 7377TIP3    H122095   1.471   5.415   1.627 -0.4309 -0.5380 -0.1166
 7377TIP3    H222096   1.460   5.387   1.478 -1.3640  2.7327 -0.7332
 7378TIP3   OH222097   3.010   1.492   4.120 -0.5078  0.1472  0.7053
 7378TIP3    H122098   3.102   1.472   4.103 -0.5394  1.5604 -1.7176
 7378TIP3    H222099   3.011   1.558   4.189  0.3274  0.2802  0.5676
 7379TIP3   OH222100   1.701   0.610   0.553 -0.8382  0.2693  0.5696
 7379TIP3    H122101   1.770   0.631   0.616 -0.7528  1.0021  0.2415
 7379TIP3    H222102   1.729   0.651   0.472 -0.3132 -1.7547 -0.3147
 7380TIP3   OH222103   5.477   6.170   3.565  0.8019  0.4477  0.1240
 7380TIP3    H122104   5.560   6.157   3.610  0.7824  0.1624  0.0822
 7380TIP3    H222105   5.485   6.118   3.485  1.2056  1.6955 -0.6806
 7381TIP3   OH222106   5.575   2.796   1.171 -0.3118 -0.3052 -0.4137
 7381TIP3    H122107   5.617   2.772   1.088  1.6021 -0.5763  0.5710
 7381TIP3    H222108   5.636   2.766   1.238 -0.7929  1.7771  1.0475
 7382TIP3   OH222109   3.281   3.448   5.794  0.2909  1.1197  0.1083
 7382TIP3    H122110   3.283   3.489   5.708 -0.5101 -1.4837 -1.2680
 7382TIP3    H222111   3.322   3.362   5.781  1.7789  1.3168  2.7736
 7383TIP3   OH222112   4.259   4.989   5.800  0.3359 -0.4462 -0.2818
 7383TIP3    H122113   4.192   4.925   5.777 -0.6142  0.4908 -0.1704
 7383TIP3    H222114   4.317   4.991   5.723  0.3273 -1.3703 -0.3171
 7384TIP3   OH222115   2.450   4.440   5.323 -0.4915  0.0188 -0.1013
 7384TIP3    H122116   2.506   4.514   5.345 -1.1807  0.6849 -0.5579
 7384TIP3    H222117   2.428   4.401   5.408  0.5183 -0.1632  0.0940
 7385TIP3   OH222118   5.521   4.333   1.418 -0.2004  0.1868  0.3143
 7385TIP3    H122119   5.579   4.297   1.351 -0.7439  0.0119 -0.0666
 7385TIP3    H222120   5.580   4.359   1.489  0.5963  2.2668 -1.0320
 7386TIP3   OH222121   6.182   2.477   1.652 -0.4488  0.0094 -0.6467
 7386TIP3    H122122   6.257   2.507   1.704 -0.7352 -0.1359 -0.1468
 7386TIP3    H222123   6.221   2.444   1.571  0.0011  0.2423 -0.5269
 7387TIP3   OH222124   3.013   5.213   2.118  0.2572 -0.2756  0.3366
 7387TIP3    H122125   2.928   5.231   2.078 -0.3159  0.1774  1.6883
 7387TIP3    H222126   3.075   5.215   2.045 -0.6707  0.9732 -0.4608
 7388TIP3   OH222127   5.344   5.329   1.007 -0.1594  0.4368 -0.1406
 7388TIP3    H122128   5.431   5.292   0.989 -0.4722 -0.7789  0.6956
 7388TIP3    H222129   5.295   5.314   0.926  0.2628  0.6802 -0.4468
 7389TIP3   OH222130   5.438   5.400   2.640 -0.1819  0.0372  0.0296
 7389TIP3    H122131   5.367   5.339   2.621 -0.0437 -0.8035  1.9951
 7389TIP3    H222132   5.510   5.371   2.584 -0.2441 -1.3950  0.6487
 7390TIP3   OH222133   6.969   3.617   1.465 -0.4386  0.0776 -0.4645
 7390TIP3    H122134   6.940   3.700   1.501 -0.8790 -0.5151  0.6008
 7390TIP3    H222135   6.888   3.567   1.452 -0.1652 -0.2645 -0.8666
 7391TIP3   OH222136   1.049   6.698   5.559  0.1850 -0.5401 -0.1365
 7391TIP3    H122137   1.045   6.683   5.653  1.1606 -0.8315 -0.1315
 7391TIP3    H222138   0.957   6.702   5.531 -0.2184  2.2611  1.2201
 7392TIP3   OH222139   5.807   3.931   3.666 -0.6670 -0.5331  0.3733
 7392TIP3    H122140   5.738   3.992   3.693 -1.1338 -1.0427  0.3275
 7392TIP3    H222141   5.773   3.888   3.588 -0.0639 -0.3855  0.0187
 7393TIP3   OH222142   5.200   4.864   3.409  0.0949 -0.1630 -0.2013
 7393TIP3    H122143   5.163   4.790   3.362  1.9898 -0.5935 -1.1173
 7393TIP3    H222144   5.151   4.940   3.377  0.9876 -0.5091 -2.5730
 7394TIP3   OH222145   1.668   2.630   3.894  0.2720 -0.1153 -0.2452
 7394TIP3    H122146   1.634   2.650   3.981  0.0879  0.6497 -0.4850
 7394TIP3    H222147   1.686   2.716   3.855 -1.2046 -0.3575 -1.5608
 7395TIP3   OH222148   4.027   1.364   0.450 -0.2094 -0.0330  0.0631
 7395TIP3    H122149   4.074   1.312   0.515  1.5384  0.0437 -1.0910
 7395TIP3    H222150   3.961   1.304   0.414 -0.7869 -0.2587  1.4149
 7396TIP3   OH222151   1.797   3.652   4.265 -0.0001  0.0631 -0.3210
 7396TIP3    H122152   1.880   3.606   4.264 -0.5066 -0.9185 -1.9046
 7396TIP3    H222153   1.731   3.583   4.262 -0.7739  0.7786 -3.3821
 7397TIP3   OH222154   6.138   3.986   5.562 -0.1533  0.0882  0.7647
 7397TIP3    H122155   6.101   3.960   5.647  0.5046  1.4104  1.4834
 7397TIP3    H222156   6.220   4.031   5.584  0.3534 -0.1176 -0.6207
 7398TIP3   OH222157   6.212   6.260   3.283  0.9104 -0.1750  0.0175
 7398TIP3    H122158   6.240   6.237   3.371  2.3087 -0.5111 -0.4876
 7398TIP3    H222159   6.262   6.201   3.226 -0.3607 -0.3344 -0.9851
 7399TIP3   OH222160   3.414   5.304   3.632 -0.3163  0.3663 -0.0141
 7399TIP3    H122161   3.501   5.339   3.651 -0.6777  0.8914  0.6701
 7399TIP3    H222162   3.382   5.358   3.559  0.4340 -0.6484 -1.1293
 7400TIP3   OH222163   2.329   0.833   4.445 -0.0376  0.6387  0.2658
 7400TIP3    H122164   2.373   0.765   4.393 -0.5251  0.9044 -0.5176
 7400TIP3    H222165   2.236   0.807   4.444 -0.1018  0.8488  0.6957
 7401TIP3   OH222166   4.433   4.860   4.831  0.1256  0.0079 -0.4887
 7401TIP3    H122167   4.508   4.818   4.874 -0.1968  0.5956  0.7017
 7401TIP3    H222168   4.421   4.942   4.879 -0.1109  0.8161 -1.8884
 7402TIP3   OH222169   2.506   2.497   2.007 -0.3362 -0.1872  0.4156
 7402TIP3    H122170   2.552   2.564   2.058 -0.5333 -0.4194  0.8962
 7402TIP3    H222171   2.508   2.419   2.062 -0.1533 -0.5689 -0.1235
 7403TIP3   OH222172   6.302   3.641   1.515  0.4854  0.7894 -0.0597
 7403TIP3    H122173   6.297   3.640   1.610  2.0840 -0.7012  0.0448
 7403TIP3    H222174   6.265   3.557   1.488  1.5260  0.4968 -0.6390
 7404TIP3   OH222175   1.577   3.682   1.671  0.0480  0.1544  0.2394
 7404TIP3    H122176   1.586   3.733   1.752  1.0261 -0.5419  0.5789
 7404TIP3    H222177   1.529   3.741   1.612  1.7748  1.8022  0.3594
 7405TIP3   OH222178   1.260   0.446   2.874  0.0978  0.4550  0.3070
 7405TIP3    H122179   1.230   0.526   2.918 -0.2065  0.9796 -0.7955
 7405TIP3    H222180   1.348   0.468   2.842  0.9067 -0.4024  1.8183
 7406TIP3   OH222181   6.346   1.662   0.015  0.3376 -0.3763  0.1718
 7406TIP3    H122182   6.422   1.720   0.007  0.0860  0.2880  2.0278
 7406TIP3    H222183   6.381   1.574   0.008  1.2392 -0.0621  0.6333
 7407TIP3   OH222184   1.389   0.427   2.426  0.1257 -0.3146  0.2270
 7407TIP3    H122185   1.469   0.380   2.401 -0.9726 -1.4925 -1.2485
 7407TIP3    H222186   1.393   0.508   2.376  0.4546 -0.3249  0.2337
 7408TIP3   OH222187   5.307   0.845   3.264 -0.1487  0.0471  0.2828
 7408TIP3    H122188   5.400   0.838   3.284  0.0433  0.1180 -0.5272
 7408TIP3    H222189   5.281   0.755   3.240  0.0812  0.2868 -0.9509
 7409TIP3   OH222190   4.445   6.422   5.553 -0.4363 -0.0868  0.4206
 7409TIP3    H122191   4.373   6.430   5.616  0.3293 -0.4970  1.3728
 7409TIP3    H222192   4.468   6.512   5.532 -1.3458  0.0535 -0.0578
 7410TIP3   OH222193   4.622   2.111   0.603 -0.0617  0.2013 -0.0661
 7410TIP3    H122194   4.646   2.171   0.673 -0.3698 -1.0767  1.2043
 7410TIP3    H222195   4.603   2.167   0.528 -0.9661  1.7219  1.2330
 7411TIP3   OH222196   1.457   6.144   4.061  0.1675  0.3756  0.6832
 7411TIP3    H122197   1.378   6.190   4.033  0.9595  2.2255  1.3099
 7411TIP3    H222198   1.435   6.051   4.053 -1.6860  0.8361 -0.1685
 7412TIP3   OH222199   4.089   2.004   0.265  0.3426  0.2709  0.5182
 7412TIP3    H122200   4.001   1.990   0.229 -0.2757  0.6012  1.8285
 7412TIP3    H222201   4.133   1.920   0.252  0.2564  0.4616 -1.2266
 7413TIP3   OH222202   5.383   4.639   2.421 -0.5081  0.1547 -0.0025
 7413TIP3    H122203   5.414   4.641   2.511  1.3587 -0.1141 -0.5927
 7413TIP3    H222204   5.366   4.731   2.400  1.7893  0.5928 -0.2098
 7414TIP3   OH222205   5.530   2.230   3.894 -0.3748 -0.1354  0.2771
 7414TIP3    H122206   5.615   2.258   3.928  0.0473  0.0263 -0.8615
 7414TIP3    H222207   5.545   2.142   3.861 -1.4473 -1.3755  2.8823
 7415TIP3   OH222208   3.742   0.380   4.526 -0.3234 -0.2496  0.5287
 7415TIP3    H122209   3.778   0.331   4.453  1.9161 -1.5539  2.3412
 7415TIP3    H222210   3.760   0.472   4.505  0.6065 -0.6249 -0.3853
 7416TIP3   OH222211   2.543   5.854   2.582  0.0348  0.1641 -0.3736
 7416TIP3    H122212   2.602   5.915   2.627  0.1378 -0.4740  0.3625
 7416TIP3    H222213   2.455   5.886   2.603  0.0730 -0.2986  0.5450
 7417TIP3   OH222214   0.406   5.986   3.176 -0.4500  0.1459  0.0258
 7417TIP3    H122215   0.423   5.910   3.120 -0.7488 -0.1633  0.3502
 7417TIP3    H222216   0.344   6.040   3.126 -0.2276  0.1816 -0.2104
 7418TIP3   OH222217   1.978   1.113   5.569 -0.0237  0.5271  0.6643
 7418TIP3    H122218   2.068   1.139   5.553  0.4328 -0.3202  1.7671
 7418TIP3    H222219   1.958   1.146   5.657 -0.4224 -0.2013  0.8602
 7419TIP3   OH222220   5.637   3.579   0.038 -0.1194 -0.3385 -0.4094
 7419TIP3    H122221   5.732   3.582   0.041 -0.1327  1.2671 -1.0924
 7419TIP3    H222222   5.610   3.589   0.129  0.3503 -0.6738 -0.2280
 7420TIP3   OH222223   1.334   4.075   4.759 -0.0164  0.2804  0.6942
 7420TIP3    H122224   1.400   4.046   4.822 -0.3613  0.3537  1.0959
 7420TIP3    H222225   1.257   4.021   4.778 -0.0099  0.0498  0.0938
 7421TIP3   OH222226   5.512   0.926   0.921  0.2680  0.0216  0.1733
 7421TIP3    H122227   5.465   0.946   1.002 -1.1492 -0.7470 -0.4080
 7421TIP3    H222228   5.502   0.831   0.911  0.5500  0.0845 -0.8082
 7422TIP3   OH222229   3.428   3.094   3.107  0.1442  0.0571 -0.3180
 7422TIP3    H122230   3.382   3.022   3.064  0.2759 -0.4625  0.4038
 7422TIP3    H222231   3.386   3.173   3.071 -0.0385 -0.3728 -1.0656
 7423TIP3   OH222232   4.087   4.591   1.848 -0.0153  0.1988 -0.4835
 7423TIP3    H122233   4.097   4.497   1.832 -1.8725 -0.0675 -0.2470
 7423TIP3    H222234   3.993   4.604   1.855  0.1657  2.2375 -1.3416
 7424TIP3   OH222235   6.483   5.626   0.517  0.8870  0.0097  0.0207
 7424TIP3    H122236   6.505   5.537   0.543  0.7043  0.3489  1.3791
 7424TIP3    H222237   6.424   5.658   0.585 -0.3640  0.6305 -1.2929
 7425TIP3   OH222238   4.549   4.596   3.827  0.0941  0.2204  0.2342
 7425TIP3    H122239   4.609   4.572   3.898 -0.0505  0.2735  0.3742
 7425TIP3    H222240   4.565   4.689   3.814  2.7672 -0.4515 -2.2691
 7426TIP3   OH222241   2.689   5.848   3.279 -0.9781  0.4143 -0.5524
 7426TIP3    H122242   2.712   5.937   3.250 -0.4444 -0.0177 -1.5091
 7426TIP3    H222243   2.694   5.852   3.374  0.4387  1.0630 -0.6236
 7427TIP3   OH222244   0.243   6.108   5.713  0.0179  0.0340 -0.0297
 7427TIP3    H122245   0.295   6.188   5.708  1.3817 -0.8665 -1.0558
 7427TIP3    H222246   0.271   6.066   5.794 -0.6306  0.5372  0.4614
 7428TIP3   OH222247   4.636   2.214   5.357 -0.0697 -0.1861 -0.5004
 7428TIP3    H122248   4.688   2.277   5.307  0.8598 -0.5498 -0.0185
 7428TIP3    H222249   4.647   2.131   5.310  0.7226 -0.5066  0.2400
 7429TIP3   OH222250   2.449   2.954   2.299 -0.4027 -0.3619  0.1309
 7429TIP3    H122251   2.538   2.975   2.327 -0.9731  2.2114  0.3076
 7429TIP3    H222252   2.401   2.942   2.380  0.0180 -3.2910  0.0369
 7430TIP3   OH222253   5.316   4.516   1.422 -0.1744  0.1851  0.1906
 7430TIP3    H122254   5.256   4.479   1.486 -0.7480 -0.5579 -0.7318
 7430TIP3    H222255   5.395   4.463   1.430 -1.0054 -1.3680 -1.1476
 7431TIP3   OH222256   6.691   3.802   1.636  0.1195 -0.0427  0.4122
 7431TIP3    H122257   6.646   3.836   1.713 -0.4451 -0.7005  0.3784
 7431TIP3    H222258   6.729   3.719   1.665  0.1808 -0.1365  0.0683
 7432TIP3   OH222259   4.045   6.783   4.137 -0.3023 -0.4287  0.3742
 7432TIP3    H122260   4.000   6.763   4.055 -0.4476  0.0550  0.3338
 7432TIP3    H222261   4.110   6.714   4.146 -1.3549 -1.4179  0.6620
 7433TIP3   OH222262   6.280   1.787   1.765 -0.1935 -0.3312 -0.7443
 7433TIP3    H122263   6.338   1.835   1.706 -0.2992  0.4669 -0.2111
 7433TIP3    H222264   6.235   1.854   1.815  0.5098 -0.9884  0.8552
 7434TIP3   OH222265   5.127   1.799   4.893  0.1604 -0.3668  0.3855
 7434TIP3    H122266   5.155   1.812   4.802 -1.3670 -2.0566 -0.3971
 7434TIP3    H222267   5.167   1.871   4.941  1.1018  0.5209 -1.6040
 7435TIP3   OH222268   6.419   0.898   4.880 -0.1765 -0.8175  0.1305
 7435TIP3    H122269   6.505   0.938   4.873  0.2302 -1.3084  1.8111
 7435TIP3    H222270   6.364   0.966   4.919 -1.3168  0.4368 -3.2996
 7436TIP3   OH222271   6.032   4.953   4.975 -0.3863 -0.3337  0.0795
 7436TIP3    H122272   5.989   5.029   4.936 -0.2507  0.5637  1.5881
 7436TIP3    H222273   6.105   4.933   4.917  0.1214  1.2738  0.1368
 7437TIP3   OH222274   6.224   2.345   0.681  0.3992  0.6897 -0.2714
 7437TIP3    H122275   6.170   2.371   0.607  0.5078  3.0072  0.3973
 7437TIP3    H222276   6.313   2.368   0.656  0.8811 -1.2261 -0.5366
 7438TIP3   OH222277   0.181   0.250   3.996  0.0511 -0.1828 -0.2951
 7438TIP3    H122278   0.257   0.228   4.051  0.3669  1.3290 -0.0632
 7438TIP3    H222279   0.212   0.324   3.943 -0.5320 -1.0473 -1.8924
 7439TIP3   OH222280   6.585   6.542   5.776 -0.0156 -1.2015 -0.1070
 7439TIP3    H122281   6.642   6.469   5.801  1.0323 -0.3109  0.1718
 7439TIP3    H222282   6.645   6.614   5.758 -0.9086 -0.9024 -2.1772
 7440TIP3   OH222283   2.919   2.491   3.222 -0.0502  0.9550  0.0207
 7440TIP3    H122284   2.909   2.481   3.127 -1.0006 -2.0255  0.3460
 7440TIP3    H222285   3.013   2.497   3.236  0.1619  0.2371 -1.0166
 7441TIP3   OH222286   2.142   4.310   3.259 -0.2115  0.4060 -0.3716
 7441TIP3    H122287   2.107   4.231   3.299 -1.1158  0.4394 -1.0552
 7441TIP3    H222288   2.134   4.295   3.165 -0.6917  1.4218 -0.5106
 7442TIP3   OH222289   0.940   4.225   3.676  0.0019 -0.2028  0.2956
 7442TIP3    H122290   0.986   4.290   3.729  0.0216  0.4287 -0.4821
 7442TIP3    H222291   0.924   4.152   3.736 -0.6450  0.7938  1.3868
 7443TIP3   OH222292   5.112   5.693   2.900 -0.6261  0.4138  0.3433
 7443TIP3    H122293   5.208   5.692   2.905 -0.1775  1.7595 -3.6391
 7443TIP3    H222294   5.087   5.776   2.941  0.0584  0.6623  0.2797
 7444TIP3   OH222295   3.755   0.689   0.992 -0.7822 -0.3333 -0.8885
 7444TIP3    H122296   3.830   0.719   1.042 -1.3853  0.1360 -0.2422
 7444TIP3    H222297   3.792   0.654   0.911  0.1247 -0.1434 -0.5646
 7445TIP3   OH222298   4.344   4.734   1.930 -0.3682 -0.5713  0.3724
 7445TIP3    H122299   4.251   4.712   1.932 -0.2880 -1.3975 -1.8623
 7445TIP3    H222300   4.379   4.698   2.012 -2.0195 -0.0657  1.3376
 7446TIP3   OH222301   2.650   3.391   0.046 -0.1686 -0.0336  0.1007
 7446TIP3    H122302   2.642   3.484   0.068 -0.4213 -0.4533  1.9581
 7446TIP3    H222303   2.597   3.380  -0.033 -0.4467  1.3255  0.0825
 7447TIP3   OH222304   1.751   5.734   0.575 -0.7405 -0.2558 -0.3881
 7447TIP3    H122305   1.706   5.695   0.500  1.7821 -4.2653 -0.1069
 7447TIP3    H222306   1.757   5.663   0.639  1.4042  1.5787  1.6259
 7448TIP3   OH222307   3.800   4.949   5.268 -0.3750  0.2563  0.0685
 7448TIP3    H122308   3.867   4.965   5.334 -1.4177  3.1492  0.5836
 7448TIP3    H222309   3.724   4.917   5.318 -0.3637 -0.0254 -0.0920
 7449TIP3   OH222310   2.062   0.269   1.961 -0.1708 -0.0074 -0.0113
 7449TIP3    H122311   2.021   0.188   1.991  0.1301  0.1530  0.8309
 7449TIP3    H222312   2.044   0.270   1.866 -2.8912  0.4701  0.4069
 7450TIP3   OH222313   6.500   0.387   4.973  0.6318  0.2117 -0.1740
 7450TIP3    H122314   6.424   0.445   4.977  0.0441 -0.4617 -1.0926
 7450TIP3    H222315   6.564   0.427   5.032  0.4109  2.0178 -1.0906
 7451TIP3   OH222316   0.544   0.364   4.467  0.2397 -0.8842 -0.1925
 7451TIP3    H122317   0.497   0.435   4.509  1.6700 -0.4585  0.7333
 7451TIP3    H222318   0.635   0.376   4.493  0.8890 -1.6727 -1.9501
 7452TIP3   OH222319   3.192   2.790   1.776  0.2368  0.4484  0.1082
 7452TIP3    H122320   3.213   2.699   1.756 -0.7759 -0.0076  0.9619
 7452TIP3    H222321   3.143   2.821   1.700 -2.1105 -0.7265  1.0333
 7453TIP3   OH222322   1.878   4.859   2.683 -0.4548 -0.3933  0.0801
 7453TIP3    H122323   1.885   4.917   2.607  1.8190  0.6559  1.0126
 7453TIP3    H222324   1.842   4.777   2.647  0.0542  0.2438 -2.0135
 7454TIP3   OH222325   2.044   5.285   0.466 -0.0250 -0.2875  0.3960
 7454TIP3    H122326   1.956   5.279   0.503 -0.9805 -0.7827 -1.8022
 7454TIP3    H222327   2.062   5.379   0.461 -0.1095 -0.1940  1.4650
 7455TIP3   OH222328   1.589   4.474   3.385  0.3329 -0.4340  0.2472
 7455TIP3    H122329   1.632   4.555   3.360  0.7761 -0.0775  2.0294
 7455TIP3    H222330   1.638   4.443   3.462 -1.4777 -0.9484  1.2613
 7456TIP3   OH222331   6.045   6.034   1.594 -0.5134  0.5480 -0.1895
 7456TIP3    H122332   6.066   6.101   1.529 -2.0816  0.0167 -1.2776
 7456TIP3    H222333   5.996   5.967   1.547  0.7568 -1.2776  0.9370
 7457TIP3   OH222334   7.044   1.795   2.820  0.1619  0.1406 -0.1274
 7457TIP3    H122335   6.987   1.721   2.800  0.3554 -0.3788  1.1627
 7457TIP3    H222336   7.032   1.811   2.914  2.2590 -0.1315  0.2500
 7458TIP3   OH222337   6.212   4.976   1.547  0.1142  0.1019  0.4113
 7458TIP3    H122338   6.173   5.042   1.489  0.7633  0.5132  0.4249
 7458TIP3    H222339   6.260   5.028   1.612 -0.7952 -0.3407  1.4678
 7459TIP3   OH222340   3.173   4.753   1.992 -0.2770  0.5180  0.1151
 7459TIP3    H122341   3.182   4.811   1.917  1.5787  1.8407  1.2802
 7459TIP3    H222342   3.161   4.811   2.067 -3.0903 -0.7878  0.8116
 7460TIP3   OH222343   2.786   3.603   5.271 -0.2104 -0.6168  0.1963
 7460TIP3    H122344   2.846   3.644   5.334 -0.7851 -0.9238  0.9594
 7460TIP3    H222345   2.841   3.541   5.223  0.1483 -0.6898  0.6880
 7461TIP3   OH222346   4.084   1.539   1.920  0.1496  0.0635  0.2902
 7461TIP3    H122347   4.177   1.547   1.902 -0.1645 -0.3742 -1.8111
 7461TIP3    H222348   4.054   1.468   1.863 -1.6706  0.9704  0.0201
 7462TIP3   OH222349   0.736   0.739   1.148 -0.1977  0.8376 -0.2202
 7462TIP3    H122350   0.691   0.726   1.064 -0.7329 -1.1876  0.3240
 7462TIP3    H222351   0.820   0.779   1.124  0.0925 -0.6434 -1.8425
 7463TIP3   OH222352   2.076   1.829   5.117  0.5254  0.0986  0.2609
 7463TIP3    H122353   2.155   1.790   5.082 -0.0267 -1.1611  0.3788
 7463TIP3    H222354   2.012   1.757   5.120 -0.7816  1.1764 -0.3011
 7464TIP3   OH222355   6.267   5.359   4.465  0.1363 -0.3696  0.3593
 7464TIP3    H122356   6.231   5.273   4.446  0.6311 -0.1285 -2.0412
 7464TIP3    H222357   6.204   5.420   4.427  1.2558  0.1780 -0.7007
 7465TIP3   OH222358   3.738   1.519   5.582  0.1894  0.2717 -0.2095
 7465TIP3    H122359   3.683   1.530   5.505  1.7615  1.7506 -1.1839
 7465TIP3    H222360   3.781   1.435   5.569 -1.5377 -0.7876  0.4445
 7466TIP3   OH222361   2.868   6.107   2.516 -0.1366  0.4151  0.0037
 7466TIP3    H122362   2.934   6.040   2.499  1.8171  1.7285  1.9025
 7466TIP3    H222363   2.915   6.189   2.507 -2.1516  1.5414 -0.9242
 7467TIP3   OH222364   1.295   2.184   5.210  0.1712 -0.1087 -0.0515
 7467TIP3    H122365   1.223   2.167   5.149  0.9375 -2.7821 -0.3483
 7467TIP3    H222366   1.349   2.250   5.166 -1.2270  0.7476 -0.5341
 7468TIP3   OH222367   5.584   3.247   3.939  0.2316 -0.1831 -0.5645
 7468TIP3    H122368   5.588   3.170   3.995  0.3036  0.2590  0.0472
 7468TIP3    H222369   5.656   3.235   3.877  1.6562  0.4417  0.9059
 7469TIP3   OH222370   2.719   5.635   3.129  0.2127  0.2574  0.9869
 7469TIP3    H122371   2.737   5.552   3.174  1.7135  1.0832  1.9891
 7469TIP3    H222372   2.712   5.699   3.199 -0.6668  1.0401  0.2024
 7470TIP3   OH222373   4.570   6.063   1.367  0.0131 -0.0191  0.4557
 7470TIP3    H122374   4.491   6.077   1.315  0.0549  1.2143  0.6975
 7470TIP3    H222375   4.640   6.054   1.302  0.2582  2.6808  0.2393
 7471TIP3   OH222376   4.037   4.060   0.253 -0.0539 -0.1212 -0.3262
 7471TIP3    H122377   3.996   3.995   0.310 -0.2622 -0.4047 -0.7874
 7471TIP3    H222378   4.106   4.099   0.306 -0.8902  0.3385  0.4595
 7472TIP3   OH222379   6.652   4.687   5.481  0.1274 -0.0480  0.2422
 7472TIP3    H122380   6.724   4.675   5.418  0.5832 -1.0425  0.9212
 7472TIP3    H222381   6.672   4.769   5.526  0.1901  0.2933 -0.3932
 7473TIP3   OH222382   4.402   5.457   4.304 -0.1111 -0.2994 -0.1086
 7473TIP3    H122383   4.455   5.418   4.373  0.5888 -2.9311 -1.9785
 7473TIP3    H222384   4.313   5.457   4.339  0.7745  3.0187  2.5811
 7474TIP3   OH222385   5.948   2.257   0.921  0.2699  1.0670 -0.0638
 7474TIP3    H122386   5.886   2.324   0.893 -0.7577  0.0996 -0.1903
 7474TIP3    H222387   5.910   2.174   0.891  1.0170  0.3341  0.9161
 7475TIP3   OH222388   1.837   1.353   5.459  0.4929  0.2895 -0.6459
 7475TIP3    H122389   1.883   1.320   5.382 -0.4534 -2.2564 -0.2375
 7475TIP3    H222390   1.904   1.360   5.526  1.0348  0.9085 -1.2443
 7476TIP3   OH222391   2.188   1.607   2.218  0.0944  0.0300 -0.0244
 7476TIP3    H122392   2.133   1.602   2.140 -1.1673  1.5308  0.7098
 7476TIP3    H222393   2.143   1.551   2.281 -1.7374  2.6116  1.1551
 7477TIP3   OH222394   5.072   4.368   3.857  0.4007  0.0545 -0.1348
 7477TIP3    H122395   4.994   4.397   3.903  1.5322  2.4451  0.4341
 7477TIP3    H222396   5.103   4.293   3.909 -0.9958 -0.3857  0.1193
 7478TIP3   OH222397   6.794   3.614   5.464  0.2551  0.4032 -0.3122
 7478TIP3    H122398   6.827   3.672   5.532 -0.5709  2.0413 -1.2305
 7478TIP3    H222399   6.758   3.539   5.511 -1.0900  1.8933  1.1704
 7479TIP3   OH222400   1.334   3.579   1.961  0.1632  0.5980  0.1478
 7479TIP3    H122401   1.303   3.602   1.873 -0.8367 -0.2428  0.2617
 7479TIP3    H222402   1.279   3.631   2.020  0.5426  0.8414  0.2858
 7480TIP3   OH222403   4.179   4.436   4.813  0.0234  0.1898  0.1193
 7480TIP3    H122404   4.178   4.510   4.874 -1.5714  0.7332 -0.5104
 7480TIP3    H222405   4.226   4.468   4.736 -0.7125  0.5772 -0.1742
 7481TIP3   OH222406   2.676   5.083   1.338  0.3262  0.2341 -0.7745
 7481TIP3    H122407   2.739   5.100   1.268  0.1558  0.0653 -0.9703
 7481TIP3    H222408   2.690   4.991   1.361  1.0711  0.5534  0.1062
 7482TIP3   OH222409   2.927   6.817   1.111  0.1993  0.2185  0.3498
 7482TIP3    H122410   2.993   6.825   1.043  0.6210  1.5973  0.9022
 7482TIP3    H222411   2.951   6.736   1.158 -1.6046 -2.2890 -2.6420
 7483TIP3   OH222412   7.098   2.775   3.003  0.0054  0.4697 -0.2770
 7483TIP3    H122413   7.174   2.738   3.049  0.4187 -1.4839 -2.3484
 7483TIP3    H222414   7.113   2.869   3.005  1.6924  0.2344  0.6770
 7484TIP3   OH222415   4.500   1.469   1.140  0.2656  0.3767 -0.2653
 7484TIP3    H122416   4.574   1.409   1.151 -0.2780 -0.1455  0.6979
 7484TIP3    H222417   4.434   1.416   1.096 -0.2706  0.2011  0.7234
 7485TIP3   OH222418   4.200   2.563   4.254  0.0646  0.4578 -0.2982
 7485TIP3    H122419   4.277   2.580   4.200 -1.0688 -1.5645 -2.7298
 7485TIP3    H222420   4.193   2.468   4.258 -2.4511  0.5623 -0.3989
 7486TIP3   OH222421   0.519   0.252   0.704  0.2954 -0.0428  0.0888
 7486TIP3    H122422   0.480   0.334   0.735  1.4640  0.4450  0.3347
 7486TIP3    H222423   0.503   0.252   0.609 -0.4750  0.0272  0.2099
 7487TIP3   OH222424   1.000   6.583   3.751 -0.3923  0.2357 -0.5332
 7487TIP3    H122425   0.917   6.544   3.723 -0.3377 -0.2539 -0.0305
 7487TIP3    H222426   0.975   6.660   3.802 -0.5225  0.4233 -0.8801
 7488TIP3   OH222427   2.749   6.106   3.133 -0.1087  0.2731 -0.0764
 7488TIP3    H122428   2.678   6.116   3.196  0.6403  0.7062  0.7183
 7488TIP3    H222429   2.814   6.171   3.159  0.8576 -0.5365 -0.3965
 7489TIP3   OH222430   1.441   5.770   3.262 -0.0632  0.3404 -0.4884
 7489TIP3    H122431   1.377   5.787   3.331 -1.5492  0.1438 -1.7359
 7489TIP3    H222432   1.397   5.798   3.182  0.9380 -0.9474 -1.5456
 7490TIP3   OH222433   2.379   3.027   4.396  0.5604  0.5071 -0.0313
 7490TIP3    H122434   2.295   3.042   4.352  0.6287  1.2503  0.0788
 7490TIP3    H222435   2.429   2.975   4.334 -0.9099 -2.3085  0.9542
 7491TIP3   OH222436   5.142   1.800   5.710 -0.0312 -0.0424  0.1513
 7491TIP3    H122437   5.052   1.773   5.727 -0.5749  0.6079 -1.4491
 7491TIP3    H222438   5.188   1.719   5.685  0.1185 -0.5423  1.9117
 7492TIP3   OH222439   3.043   4.684   4.078  0.1768  0.5482  0.1338
 7492TIP3    H122440   2.983   4.632   4.132 -1.1618  2.6360  0.8140
 7492TIP3    H222441   3.099   4.620   4.036 -0.7684 -1.3691  1.6041
 7493TIP3   OH222442   4.286   6.656   1.975 -0.4443 -0.0901  0.3753
 7493TIP3    H122443   4.288   6.657   1.879  0.0979 -0.7238  0.3771
 7493TIP3    H222444   4.374   6.681   2.002 -0.5270 -0.1422  0.7045
 7494TIP3   OH222445   1.821   6.585   2.522 -0.0835  0.1383 -0.0706
 7494TIP3    H122446   1.752   6.604   2.586 -0.5158  0.7423 -0.7097
 7494TIP3    H222447   1.775   6.547   2.448  0.4916 -1.1732  0.2119
 7495TIP3   OH222448   2.597   3.307   1.311  0.3589 -0.1900 -0.1492
 7495TIP3    H122449   2.661   3.372   1.284  1.0007 -0.4051  0.7900
 7495TIP3    H222450   2.520   3.358   1.336  0.2243  0.0838 -1.0862
 7496TIP3   OH222451   2.799   4.838   1.502  0.2724  0.2876 -0.9106
 7496TIP3    H122452   2.766   4.883   1.580 -0.0255 -2.1544  0.4816
 7496TIP3    H222453   2.742   4.762   1.492  1.1238 -0.1631 -2.7599
 7497TIP3   OH222454   0.291   1.861   2.767 -0.2480 -0.2094 -0.0646
 7497TIP3    H122455   0.372   1.886   2.722 -0.6053 -1.1268 -1.2824
 7497TIP3    H222456   0.317   1.851   2.858  0.8746  0.1605 -0.3272
 7498TIP3   OH222457   4.746   3.762   3.232 -0.3567 -0.6394  0.4794
 7498TIP3    H122458   4.745   3.675   3.191 -1.3876 -0.3649 -0.1005
 7498TIP3    H222459   4.694   3.817   3.174 -2.0609 -0.2695  2.2468
 7499TIP3   OH222460   6.556   2.416   2.512  0.3813  0.8162 -0.2148
 7499TIP3    H122461   6.460   2.411   2.508  0.3723  0.9207 -0.1213
 7499TIP3    H222462   6.574   2.502   2.549  0.4358 -0.1173  2.1268
 7500TIP3   OH222463   3.010   0.109   4.191  0.4675 -0.5459  0.1616
 7500TIP3    H122464   3.008   0.199   4.159 -1.5739 -0.2102  1.1148
 7500TIP3    H222465   3.099   0.097   4.224  0.1893  1.8720  2.0080
 7501TIP3   OH222466   0.932   1.300   2.604  0.4207  0.2530  0.3039
 7501TIP3    H122467   0.940   1.216   2.559 -0.1140  0.3900 -0.0646
 7501TIP3    H222468   1.001   1.299   2.669  0.2881 -0.5698  0.4497
 7502TIP3   OH222469   5.698   6.805   4.557  0.4632  0.2702  0.1237
 7502TIP3    H122470   5.785   6.839   4.535  0.0541  0.6336 -1.0124
 7502TIP3    H222471   5.678   6.745   4.485 -0.6059  0.8964 -0.1222
 7503TIP3   OH222472   1.871   2.054   5.673  0.0307  0.4767  0.2529
 7503TIP3    H122473   1.865   2.102   5.756  1.4333  1.5978 -0.2436
 7503TIP3    H222474   1.912   1.971   5.697 -1.6522 -0.1852  0.9948
 7504TIP3   OH222475   0.014   2.702   0.463 -0.1295 -0.4208  0.4319
 7504TIP3    H122476   0.074   2.696   0.537  0.6220  0.4608 -0.0777
 7504TIP3    H222477   0.054   2.650   0.394 -0.3649 -0.4928  0.3464
 7505TIP3   OH222478   4.651   0.053   2.315 -0.6180  0.5252 -0.2318
 7505TIP3    H122479   4.683   0.106   2.241 -0.5706  0.6291 -0.1376
 7505TIP3    H222480   4.556   0.066   2.314 -0.4247  2.4758  1.1894
 7506TIP3   OH222481   5.043   1.017   0.036  0.2200  0.0837 -0.1205
 7506TIP3    H122482   4.993   1.085   0.079 -1.7973 -0.9152 -0.7755
 7506TIP3    H222483   5.103   1.064  -0.022 -0.5188  1.2996  0.0868
 7507TIP3   OH222484   1.017   1.103   3.205 -0.5657 -0.0964 -0.0763
 7507TIP3    H122485   0.923   1.112   3.196 -0.5157  1.0230  0.3660
 7507TIP3    H222486   1.028   1.057   3.289 -0.7148 -0.1136 -0.0656
 7508TIP3   OH222487   2.701   1.880   4.985  0.1755  0.0155  0.0331
 7508TIP3    H122488   2.666   1.933   4.914 -0.4386  0.9441  0.9989
 7508TIP3    H222489   2.769   1.827   4.944 -2.2359 -1.8291 -1.9404
 7509TIP3   OH222490   5.761   3.297   3.462 -0.3647 -0.6030 -0.0934
 7509TIP3    H122491   5.805   3.381   3.475  0.8072 -1.3550  1.2000
 7509TIP3    H222492   5.724   3.302   3.374 -0.3076  1.2409 -0.0492
 7510TIP3   OH222493   6.106   3.780   0.156 -0.3537 -0.1168 -0.0655
 7510TIP3    H122494   6.035   3.831   0.117  0.7225  0.6767 -1.0817
 7510TIP3    H222495   6.160   3.846   0.202  0.3643 -0.5124 -0.3190
 7511TIP3   OH222496   1.544   0.776   1.393 -0.7924 -0.5465  0.1789
 7511TIP3    H122497   1.551   0.871   1.390  0.5653 -0.6313 -2.5695
 7511TIP3    H222498   1.591   0.751   1.473  0.5093  1.0105 -0.0453
 7512TIP3   OH222499   5.877   2.859   4.313 -0.1300  0.7528 -0.1596
 7512TIP3    H122500   5.886   2.832   4.222  1.5654  0.5616  0.0503
 7512TIP3    H222501   5.790   2.828   4.338 -0.2749  0.0568 -1.4528
 7513TIP3   OH222502   6.733   0.779   1.652  0.3754  0.7205  0.1397
 7513TIP3    H122503   6.684   0.833   1.590  2.1184  0.8343 -1.2250
 7513TIP3    H222504   6.675   0.705   1.671 -0.6444  1.2723 -0.7374
 7514TIP3   OH222505   4.531   3.946   2.110  0.4393 -0.2599  0.0875
 7514TIP3    H122506   4.526   3.876   2.175 -0.9094  0.6241  0.9817
 7514TIP3    H222507   4.557   3.902   2.029 -0.7020 -1.8601  0.5533
 7515TIP3   OH222508   1.376   3.847   3.439  0.4601  0.3217  0.6329
 7515TIP3    H122509   1.330   3.790   3.377  2.2664 -0.7952  0.2553
 7515TIP3    H222510   1.309   3.869   3.505 -1.3551  1.0708 -1.3270
 7516TIP3   OH222511   3.610   0.113   2.415  0.6760  0.4706 -0.4681
 7516TIP3    H122512   3.654   0.196   2.399  1.0108  0.6331  1.1262
 7516TIP3    H222513   3.551   0.131   2.488  1.2729 -0.8492  0.3761
 7517TIP3   OH222514   3.616   5.592   2.926  0.1370  0.2500  0.1762
 7517TIP3    H122515   3.702   5.552   2.931  0.5124  1.0191  0.0973
 7517TIP3    H222516   3.561   5.537   2.982  0.6225 -0.3703  0.0580
 7518TIP3   OH222517   5.384   0.428   1.007  0.5564 -0.2658 -0.1761
 7518TIP3    H122518   5.324   0.393   0.942  0.5622  1.5187 -1.2153
 7518TIP3    H222519   5.437   0.353   1.034 -1.3137 -1.6256 -0.1155
 7519TIP3   OH222520   6.276   3.546   5.790  0.2443  0.0834 -0.4719
 7519TIP3    H122521   6.302   3.638   5.800  0.3281 -0.1482  1.9407
 7519TIP3    H222522   6.183   3.544   5.812 -0.1696 -0.2173 -2.0830
 7520TIP3   OH222523   0.074   1.817   4.775  0.0023 -0.5778 -0.0827
 7520TIP3    H122524   0.068   1.806   4.680 -0.4024  0.8837 -0.2526
 7520TIP3    H222525  -0.016   1.813   4.805  0.0724 -0.3620  0.1537
 7521TIP3   OH222526   4.994   1.228   1.802  0.6205  0.4997  0.1070
 7521TIP3    H122527   4.959   1.172   1.733  2.2034 -0.1127 -0.2193
 7521TIP3    H222528   4.972   1.182   1.884 -0.3174  0.6980 -0.0207
 7522TIP3   OH222529   6.438   2.207   3.048  0.1243  0.2268  0.2503
 7522TIP3    H122530   6.511   2.209   2.986  0.5940  0.6217  0.8058
 7522TIP3    H222531   6.477   2.178   3.130 -0.4913 -0.2729  0.3759
 7523TIP3   OH222532   2.479   0.300   4.922 -0.3589  0.0660 -0.7044
 7523TIP3    H122533   2.474   0.305   4.826 -1.2576 -0.7430 -0.7180
 7523TIP3    H222534   2.556   0.353   4.945 -0.7019  1.0784 -1.7921
 7524TIP3   OH222535   1.622   5.240   5.582 -0.2911  0.0302 -0.4039
 7524TIP3    H122536   1.677   5.217   5.658  0.4414  2.3391 -0.1744
 7524TIP3    H222537   1.677   5.220   5.506  0.0487  0.3404 -0.2410
 7525TIP3   OH222538   5.420   5.356   5.829 -0.8073 -0.1287 -0.3069
 7525TIP3    H122539   5.360   5.373   5.901 -0.3276  0.5051 -0.0353
 7525TIP3    H222540   5.370   5.305   5.767 -1.0004 -1.3549  0.8192
 7526TIP3   OH222541   5.217   6.073   0.371  0.6151  0.2472 -0.5325
 7526TIP3    H122542   5.179   5.993   0.407  3.6258 -1.4194 -0.7681
 7526TIP3    H222543   5.187   6.074   0.280 -0.6401  0.2289 -0.1409
 7527TIP3   OH222544   0.181   0.851   1.457  0.0099 -0.5110  0.4419
 7527TIP3    H122545   0.268   0.877   1.429 -0.6296  0.7412 -0.4729
 7527TIP3    H222546   0.142   0.931   1.492 -0.6907 -1.1124  1.0737
 7528TIP3   OH222547   0.724   3.662   1.921 -0.1876 -0.0708  0.8614
 7528TIP3    H122548   0.635   3.683   1.950 -0.7808  0.3415 -1.1691
 7528TIP3    H222549   0.766   3.747   1.910  0.6300 -0.2724  2.2006
 7529TIP3   OH222550   2.014   1.579   1.996  0.3155 -0.0350 -0.0197
 7529TIP3    H122551   2.080   1.568   1.927 -0.4339  1.4260 -1.0288
 7529TIP3    H222552   1.976   1.492   2.007  1.5153 -0.6301 -0.3236
 7530TIP3   OH222553   1.255   1.875   2.781  0.4858  0.6352  0.1045
 7530TIP3    H122554   1.167   1.901   2.753  0.3665  0.0357 -0.0831
 7530TIP3    H222555   1.273   1.794   2.734 -0.7924 -1.9239  3.5436
 7531TIP3   OH222556   1.611   5.512   0.136 -0.4461  0.1831 -0.1408
 7531TIP3    H122557   1.688   5.484   0.086 -0.2417 -0.4315  0.5072
 7531TIP3    H222558   1.540   5.457   0.103 -1.1800  2.3066 -2.4059
 7532TIP3   OH222559   0.171   6.123   2.480  0.0025 -0.2205 -0.1832
 7532TIP3    H122560   0.110   6.051   2.495 -1.4585  1.1310  0.8474
 7532TIP3    H222561   0.116   6.193   2.444  0.9170  1.0450  0.7634
 7533TIP3   OH222562   6.578   2.353   5.423  0.3551  0.1734  0.3835
 7533TIP3    H122563   6.530   2.436   5.424 -2.0900 -1.1099  3.0073
 7533TIP3    H222564   6.524   2.295   5.369  1.0525 -0.2576  0.1343
 7534TIP3   OH222565   5.362   6.106   5.821 -0.1551  0.1174 -0.0721
 7534TIP3    H122566   5.431   6.136   5.881  0.4679 -0.1891 -0.6275
 7534TIP3    H222567   5.404   6.102   5.735 -0.7477 -0.4821 -0.3477
 7535TIP3   OH222568   0.952   2.351   5.253  0.2928 -0.2852  0.2634
 7535TIP3    H122569   1.023   2.385   5.197  0.7357  0.2637  1.1249
 7535TIP3    H222570   0.914   2.279   5.203  1.9329 -1.0650  0.0806
 7536TIP3   OH222571   2.710   5.222   3.469  0.2841 -0.1627  0.5271
 7536TIP3    H122572   2.787   5.241   3.521  1.3267  0.4157 -1.1492
 7536TIP3    H222573   2.720   5.131   3.443  1.2121  0.3258 -0.9256
 7537TIP3   OH222574   5.758   1.062   2.395  0.0538 -0.3233 -0.2702
 7537TIP3    H122575   5.788   1.082   2.306 -1.3271 -0.1711 -0.7202
 7537TIP3    H222576   5.759   0.967   2.400 -1.3314 -0.4065 -1.0080
 7538TIP3   OH222577   4.466   4.579   0.391  0.4898  0.1014  0.0063
 7538TIP3    H122578   4.425   4.600   0.475  0.5911 -0.3944  0.1874
 7538TIP3    H222579   4.450   4.656   0.336  0.5479  0.4868  0.5242
 7539TIP3   OH222580   0.546   6.186   5.510  0.7931 -0.3979  0.0116
 7539TIP3    H122581   0.573   6.104   5.549  0.8085 -0.9065 -1.0215
 7539TIP3    H222582   0.627   6.228   5.481  0.8787  0.4786  1.4326
 7540TIP3   OH222583   2.817   5.609   3.441 -0.4242 -0.3346 -0.0859
 7540TIP3    H122584   2.723   5.624   3.433 -1.0024 -0.6016  3.9372
 7540TIP3    H222585   2.825   5.519   3.471  1.4051 -1.1334 -2.6306
 7541TIP3   OH222586   7.177   4.394   5.765  0.1122  0.0949 -0.5665
 7541TIP3    H122587   7.231   4.470   5.747 -1.2861  0.7271 -2.4260
 7541TIP3    H222588   7.160   4.355   5.679 -1.8663 -0.4146 -0.0160
 7542TIP3   OH222589   3.049   5.823   2.761 -0.2210 -0.0101  0.6527
 7542TIP3    H122590   3.000   5.870   2.828  0.2635  0.7401  0.4907
 7542TIP3    H222591   3.141   5.838   2.783  0.0467  2.6047 -1.6802
 7543TIP3   OH222592   2.716   6.371   5.587 -0.3194  0.2726 -0.0366
 7543TIP3    H122593   2.728   6.276   5.595 -1.1792  0.1405 -0.1854
 7543TIP3    H222594   2.741   6.391   5.497  0.8195  0.3551  0.2822
 7544TIP3   OH222595   0.033   0.887   1.781  0.0264 -0.6792  0.3963
 7544TIP3    H122596  -0.057   0.871   1.754  0.2116 -2.7524  0.8346
 7544TIP3    H222597   0.067   0.948   1.715 -1.5751 -0.1219  0.0395
 7545TIP3   OH222598   7.077   3.847   5.767 -0.1728  0.6311 -0.4079
 7545TIP3    H122599   7.157   3.887   5.732  0.9269 -1.9779 -1.1564
 7545TIP3    H222600   7.006   3.899   5.730  1.0322 -0.0317 -4.1349
 7546TIP3   OH222601   0.174   5.685   2.761  0.2570 -0.2392 -1.0756
 7546TIP3    H122602   0.159   5.616   2.697  0.1558  0.5053 -1.8776
 7546TIP3    H222603   0.243   5.651   2.818 -1.0686 -1.7637 -0.2820
 7547TIP3   OH222604   1.985   6.390   0.131 -0.4076 -0.5511  0.1834
 7547TIP3    H122605   2.004   6.462   0.071  0.2629 -0.5632  0.3742
 7547TIP3    H222606   2.058   6.329   0.120  1.3155  0.7726  3.0635
 7548TIP3   OH222607   0.105   4.793   0.821 -0.4527 -0.1762 -0.0384
 7548TIP3    H122608   0.061   4.743   0.890 -0.6288 -0.0753 -0.0796
 7548TIP3    H222609   0.167   4.731   0.783  2.0517  0.5948  2.3705
 7549TIP3   OH222610   6.963   4.524   2.389 -0.3526 -0.4692 -0.0228
 7549TIP3    H122611   7.030   4.480   2.441  0.8526 -0.6321 -1.6249
 7549TIP3    H222612   6.968   4.616   2.415  0.3281 -0.5286  0.0706
 7550TIP3   OH222613   1.669   1.611   4.791  0.2346  0.4623 -0.2582
 7550TIP3    H122614   1.741   1.597   4.852 -0.0459  1.6587  0.3888
 7550TIP3    H222615   1.628   1.525   4.781  1.9279 -0.3080 -0.9082
 7551TIP3   OH222616   3.624   3.494   5.175  0.4419 -0.2979 -0.0517
 7551TIP3    H122617   3.539   3.454   5.197  1.0001 -0.8468  1.1624
 7551TIP3    H222618   3.631   3.483   5.080 -0.2033 -1.5491  0.0238
 7552TIP3   OH222619   3.002   4.245   5.521  0.1870  0.2465  0.3335
 7552TIP3    H122620   2.993   4.176   5.587  1.4501  0.8131  1.1524
 7552TIP3    H222621   3.038   4.201   5.444  1.1288 -0.0077  0.8998
 7553TIP3   OH222622   5.698   6.513   1.100 -0.2183  0.1880  0.3515
 7553TIP3    H122623   5.749   6.432   1.102 -0.7069 -0.1405 -0.3568
 7553TIP3    H222624   5.763   6.581   1.080  0.0372 -0.1565 -0.0050
 7554TIP3   OH222625   0.686   2.855   3.428  0.0551  0.3416  0.5578
 7554TIP3    H122626   0.667   2.922   3.494  1.5754  1.6323 -0.2362
 7554TIP3    H222627   0.742   2.792   3.473 -2.6554 -1.3877  1.7825
 7555TIP3   OH222628   1.166   6.082   5.616  0.6761 -0.1317 -0.9390
 7555TIP3    H122629   1.252   6.043   5.628  0.4872  0.2258  3.1024
 7555TIP3    H222630   1.176   6.172   5.648 -1.1030  0.0402 -0.7468
 7556TIP3   OH222631   6.475   2.367   4.384  0.2540  0.0288  0.5750
 7556TIP3    H122632   6.459   2.291   4.440 -0.4837 -0.0488  0.2643
 7556TIP3    H222633   6.523   2.428   4.440 -0.8588  0.1377  1.4485
 7557TIP3   OH222634   2.244   2.027   3.281 -0.0328 -0.2836  0.2118
 7557TIP3    H122635   2.214   2.073   3.360 -0.3111 -0.0661 -0.0189
 7557TIP3    H222636   2.326   2.070   3.258 -0.1998 -0.0225  0.1020
 7558TIP3   OH222637   4.658   4.243   4.649 -0.3405  0.5544  0.0091
 7558TIP3    H122638   4.628   4.165   4.695  0.3550  0.5114  0.4038
 7558TIP3    H222639   4.600   4.250   4.573 -0.2850 -0.4618 -0.1437
 7559TIP3   OH222640   0.735   0.095   4.349 -0.3438  0.1004  0.0979
 7559TIP3    H122641   0.733   0.047   4.432  0.7738 -1.1293 -0.5319
 7559TIP3    H222642   0.658   0.065   4.302 -0.2730 -0.2035  0.1742
 7560TIP3   OH222643   5.705   0.989   0.499  0.5934  0.1797  0.4047
 7560TIP3    H122644   5.705   0.905   0.544 -0.7474 -1.2929 -2.0583
 7560TIP3    H222645   5.784   0.987   0.445  0.1674  0.1305 -0.2269
 7561TIP3   OH222646   0.608   2.018   0.659  0.4188  0.1118 -0.4737
 7561TIP3    H122647   0.655   2.083   0.606  0.2506 -1.7895 -3.1945
 7561TIP3    H222648   0.613   2.051   0.748  5.0222  1.1702 -0.8861
 7562TIP3   OH222649   3.805   3.214   5.715 -0.3875 -0.2510 -0.1526
 7562TIP3    H122650   3.801   3.126   5.752 -0.9609 -0.1851 -0.0352
 7562TIP3    H222651   3.857   3.265   5.778  0.9709 -0.7808 -0.8244
 7563TIP3   OH222652   5.348   5.870   1.826 -0.8176  0.6291 -0.0257
 7563TIP3    H122653   5.313   5.798   1.774 -0.4885  1.0958 -0.9068
 7563TIP3    H222654   5.302   5.864   1.910 -0.6307 -0.7415  0.0007
 7564TIP3   OH222655   5.104   0.687   0.879 -0.0728 -0.2024  0.6534
 7564TIP3    H122656   5.101   0.754   0.948 -0.4854  2.5158 -1.8281
 7564TIP3    H222657   5.197   0.677   0.859 -0.0332 -0.1092  0.7888
 7565TIP3   OH222658   2.261   4.977   4.708 -0.2236 -0.1621 -0.1565
 7565TIP3    H122659   2.222   5.036   4.644 -0.0502  0.0663 -0.0517
 7565TIP3    H222660   2.186   4.940   4.755 -0.3995 -0.8811 -0.9592
 7566TIP3   OH222661   3.278   5.583   5.515  0.4348 -0.0118  0.6701
 7566TIP3    H122662   3.351   5.642   5.495  0.7944 -1.0645 -1.4130
 7566TIP3    H222663   3.250   5.550   5.429 -1.3527 -0.9813  1.5792
 7567TIP3   OH222664   5.257   0.714   4.111  0.0468 -0.1099  0.9223
 7567TIP3    H122665   5.174   0.759   4.096  0.1700 -0.5113 -1.2973
 7567TIP3    H222666   5.323   0.769   4.070  0.7887 -0.1672  2.0110
 7568TIP3   OH222667   2.338   5.984   1.651  0.2548  0.3686  0.1641
 7568TIP3    H122668   2.276   6.009   1.719 -0.0799  0.7383 -0.2753
 7568TIP3    H222669   2.315   5.893   1.630 -0.9431  0.8730 -0.8450
 7569TIP3   OH222670   6.979   1.244   4.090  0.1295  0.0836 -0.5300
 7569TIP3    H122671   6.894   1.265   4.130 -0.9582 -0.1811 -2.5837
 7569TIP3    H222672   7.023   1.191   4.156 -2.5405 -2.3364 -0.4554
 7570TIP3   OH222673   5.693   1.674   5.350  0.8540 -0.0196  0.4273
 7570TIP3    H122674   5.786   1.667   5.331  0.4962 -0.0063 -1.4846
 7570TIP3    H222675   5.659   1.586   5.336  0.0730  0.6122 -2.0698
 7571TIP3   OH222676   3.524   1.728   3.417  0.7539  0.3595 -0.0023
 7571TIP3    H122677   3.509   1.757   3.507  0.5141 -0.9238  0.4036
 7571TIP3    H222678   3.608   1.681   3.421  0.7229  0.2605 -0.4339
 7572TIP3   OH222679   7.190   1.265   2.994 -0.0469  0.0739  0.1519
 7572TIP3    H122680   7.170   1.197   2.930 -1.5214  1.0257 -0.4762
 7572TIP3    H222681   7.146   1.237   3.075 -1.0525  0.4651 -0.2388
 7573TIP3   OH222682   4.641   5.086   4.998 -0.0092 -0.3297 -0.5693
 7573TIP3    H122683   4.701   5.033   4.945  0.4749 -0.7547  0.3905
 7573TIP3    H222684   4.693   5.112   5.074 -1.2530 -1.3740  0.6888
 7574TIP3   OH222685   5.679   0.631   5.300 -0.3229 -0.0304 -0.4101
 7574TIP3    H122686   5.697   0.568   5.231  0.6347 -0.0765 -0.1367
 7574TIP3    H222687   5.710   0.714   5.265  0.2223 -0.0642 -0.0306
 7575TIP3   OH222688   1.267   1.846   5.645 -0.8995 -0.7224  0.0561
 7575TIP3    H122689   1.302   1.916   5.589 -0.5424 -1.0079 -0.0839
 7575TIP3    H222690   1.337   1.829   5.709 -1.5768  0.0997  1.0603
 7576TIP3   OH222691   0.012   5.948   1.217 -0.4299  0.0488  0.1493
 7576TIP3    H122692   0.041   5.941   1.308 -0.6577  0.0592  0.2220
 7576TIP3    H222693  -0.007   6.041   1.205 -2.0180 -0.1952  0.5842
 7577TIP3   OH222694   2.627   3.010   4.911 -0.1301  0.2187  0.1935
 7577TIP3    H122695   2.550   2.969   4.950  0.8171 -0.7349  1.1262
 7577TIP3    H222696   2.660   3.068   4.979 -0.2473  0.9404 -0.3548
 7578TIP3   OH222697   1.727   4.748   3.622 -0.1744  0.5488 -0.2687
 7578TIP3    H122698   1.693   4.786   3.703 -5.4807 -1.4154 -1.1650
 7578TIP3    H222699   1.771   4.668   3.649  0.0918  1.0244  0.7456
 7579TIP3   OH222700   1.401   2.529   2.780  0.1844  0.1208  0.6985
 7579TIP3    H122701   1.436   2.605   2.825 -0.7067  0.5893  0.6303
 7579TIP3    H222702   1.448   2.454   2.817  0.8899  0.6761  0.9410
 7580TIP3   OH222703   4.585   6.030   2.101 -0.8865  0.2845 -0.0236
 7580TIP3    H122704   4.629   6.098   2.050 -1.2881 -0.4299 -1.3607
 7580TIP3    H222705   4.598   6.057   2.192  1.2406  0.7580 -0.4033
 7581TIP3   OH222706   2.287   6.240   3.464 -0.0740  0.3416  0.5399
 7581TIP3    H122707   2.286   6.144   3.463 -1.5435  0.3129  1.5211
 7581TIP3    H222708   2.374   6.262   3.497  0.5194 -0.6221 -0.2920
 7582TIP3   OH222709   1.062   4.683   1.142 -0.2530  0.1105 -0.9695
 7582TIP3    H122710   1.064   4.599   1.188 -0.4101  0.0154 -1.1339
 7582TIP3    H222711   1.087   4.661   1.052 -1.6790  0.0072 -1.3655
 7583TIP3   OH222712   4.085   5.655   4.507 -0.3491 -0.4572  0.4042
 7583TIP3    H122713   4.028   5.670   4.582  0.5196 -3.1484  1.7431
 7583TIP3    H222714   4.171   5.684   4.537 -0.2633 -0.1768 -0.1106
 7584TIP3   OH222715   5.190   2.076   1.792 -0.1831  0.1987 -0.5198
 7584TIP3    H122716   5.268   2.042   1.749 -1.0942  1.0097 -3.0152
 7584TIP3    H222717   5.162   2.007   1.851  1.7990 -0.5362 -0.3830
 7585TIP3   OH222718   4.217   2.281   5.493 -0.3039  0.1387 -0.1605
 7585TIP3    H122719   4.122   2.286   5.490 -0.4418 -0.1952  2.0359
 7585TIP3    H222720   4.246   2.352   5.434 -1.8018 -1.2963 -2.8264
 7586TIP3   OH222721   0.094   1.282   4.502  0.4469 -0.0495 -0.3277
 7586TIP3    H122722   0.179   1.286   4.458  0.5458  1.1397 -0.0788
 7586TIP3    H222723   0.107   1.331   4.583 -1.0188  2.1693 -1.3028
 7587TIP3   OH222724   7.049   6.577   4.980  0.2897  0.0480  0.5860
 7587TIP3    H122725   6.963   6.571   4.937  0.7055  1.0891 -0.4334
 7587TIP3    H222726   7.028   6.601   5.071 -0.4605  2.7209 -0.2066
 7588TIP3   OH222727   7.059   3.113   3.239 -0.0318  0.2919 -0.0336
 7588TIP3    H122728   6.985   3.052   3.234  1.9211 -2.5095  2.0879
 7588TIP3    H222729   7.040   3.168   3.315 -0.1230 -0.1880  0.2949
 7589TIP3   OH222730   5.029   0.966   1.959 -0.7558 -0.3622 -0.6830
 7589TIP3    H122731   4.999   1.038   2.014  0.5203 -1.4473  1.5926
 7589TIP3    H222732   4.972   0.893   1.982 -0.3446 -0.7891 -0.9995
 7590TIP3   OH222733   0.866   3.970   4.288  0.5570  0.4570 -0.9268
 7590TIP3    H122734   0.852   4.063   4.273  0.3058  0.5362 -0.2413
 7590TIP3    H222735   0.944   3.966   4.343  1.5062  0.1715 -2.2381
 7591TIP3   OH222736   2.746   6.092   5.504  0.2107 -0.0310 -0.6112
 7591TIP3    H122737   2.655   6.068   5.525  1.3021 -2.3414  2.1261
 7591TIP3    H222738   2.764   6.047   5.421 -0.4640 -1.5851  0.0519
 7592TIP3   OH222739   0.906   6.102   1.894 -0.4816 -0.0685  0.0113
 7592TIP3    H122740   0.897   6.197   1.880 -1.2172  0.3087  2.5916
 7592TIP3    H222741   0.834   6.064   1.843  0.8454  0.5115 -2.4879
 7593TIP3   OH222742   3.892   0.663   5.163  0.4119  0.0636 -0.2623
 7593TIP3    H122743   3.843   0.619   5.232 -0.1990  0.3441 -0.5157
 7593TIP3    H222744   3.975   0.686   5.204  0.1098  0.0955  0.3396
 7594TIP3   OH222745   2.122   6.285   2.048 -0.1632 -0.6693 -0.2097
 7594TIP3    H122746   2.175   6.209   2.070 -0.4035 -1.1850 -1.3662
 7594TIP3    H222747   2.118   6.336   2.129  0.2403 -1.7360  0.4935
 7595TIP3   OH222748   0.749   0.657   4.277 -0.1296  0.2847  0.5315
 7595TIP3    H122749   0.667   0.614   4.255 -0.8228  1.2751  1.1246
 7595TIP3    H222750   0.730   0.751   4.270  0.4239  0.5787  2.4271
 7596TIP3   OH222751   5.070   5.404   3.779 -0.3467 -0.2558  0.2680
 7596TIP3    H122752   4.981   5.438   3.774 -0.6517 -0.8541  1.3670
 7596TIP3    H222753   5.079   5.371   3.868  1.0757  0.0443  0.2700
 7597TIP3   OH222754   0.489   6.506   0.853 -0.4130  0.5130  0.4858
 7597TIP3    H122755   0.450   6.476   0.771 -0.1523 -0.2571  0.6281
 7597TIP3    H222756   0.557   6.568   0.827  0.3549 -0.4786  0.0427
 7598TIP3   OH222757   5.530   6.760   1.872  0.1424  0.5336 -0.1844
 7598TIP3    H122758   5.624   6.776   1.882 -0.1782  1.1698  3.1210
 7598TIP3    H222759   5.524   6.674   1.831  2.2536 -0.6825  1.8386
 7599TIP3   OH222760   3.609   2.326   2.106 -0.4026  0.0670  0.1181
 7599TIP3    H122761   3.537   2.377   2.141 -0.6894  0.0583 -0.4468
 7599TIP3    H222762   3.686   2.357   2.154 -0.8026 -0.0593  0.8561
 7600TIP3   OH222763   4.101   6.424   2.965  0.7461 -0.5941  0.2342
 7600TIP3    H122764   4.073   6.386   3.048  0.8746 -0.7774  0.1947
 7600TIP3    H222765   4.180   6.474   2.987  1.0211 -0.9832  0.1524
 7601TIP3   OH222766   0.618   2.844   0.313  0.3288  0.0963  0.2225
 7601TIP3    H122767   0.682   2.911   0.338 -0.7055  0.6108  1.6781
 7601TIP3    H222768   0.556   2.843   0.386  0.2135 -2.3605  0.1584
 7602TIP3   OH222769   1.711   4.126   0.676 -0.0560 -0.5609  0.0082
 7602TIP3    H122770   1.793   4.076   0.666 -0.0095 -0.6379  0.6710
 7602TIP3    H222771   1.722   4.201   0.618  0.8504 -0.1334  0.7004
 7603TIP3   OH222772   0.132   2.058   1.767  0.1820  0.6014 -0.1748
 7603TIP3    H122773   0.203   2.100   1.718  0.5280  2.3970  1.7350
 7603TIP3    H222774   0.176   2.020   1.843 -0.7158  0.4083  0.2507
 7604TIP3   OH222775   6.785   4.320   5.228  0.2199 -0.6159  0.1847
 7604TIP3    H122776   6.858   4.278   5.182 -0.0934 -0.2727 -0.6438
 7604TIP3    H222777   6.729   4.353   5.158 -0.5949 -0.6396  0.8179
 7605TIP3   OH222778   0.286   2.115   0.094 -0.3559  0.5749 -0.1576
 7605TIP3    H122779   0.362   2.131   0.039 -0.3586 -0.1078 -0.3671
 7605TIP3    H222780   0.319   2.121   0.184  0.7549 -3.0946 -0.1798
 7606TIP3   OH222781   6.504   4.844   0.613 -0.5050  0.0671  0.0676
 7606TIP3    H122782   6.420   4.876   0.581 -0.3364 -0.1570 -0.6199
 7606TIP3    H222783   6.569   4.884   0.555 -0.0762  0.8286  1.0575
 7607TIP3   OH222784   7.100   3.389   0.721  0.5250  0.2065 -0.2847
 7607TIP3    H122785   7.066   3.306   0.756 -1.1540  0.0864 -2.0148
 7607TIP3    H222786   7.022   3.444   0.710  1.5252  1.7897  0.1393
 7608TIP3   OH222787   2.727   6.559   1.486 -0.0511 -0.2709 -0.0744
 7608TIP3    H122788   2.760   6.520   1.405 -0.4489  1.3209 -1.0578
 7608TIP3    H222789   2.734   6.489   1.551  0.6293 -1.4826 -1.3855
 7609TIP3   OH222790   2.166   3.971   1.086 -0.1839 -0.3712 -0.3120
 7609TIP3    H122791   2.218   4.043   1.121 -0.1520 -0.8532  0.6666
 7609TIP3    H222792   2.128   4.006   1.005  0.8385  0.3127 -0.5118
 7610TIP3   OH222793   5.264   1.351   5.720 -0.2132 -0.1095  0.5974
 7610TIP3    H122794   5.208   1.310   5.654  0.4918  1.8329 -1.3313
 7610TIP3    H222795   5.278   1.283   5.785 -0.7380 -2.2348 -1.3825
 7611TIP3   OH222796   1.565   1.788   0.171  0.1068  0.5291 -0.4375
 7611TIP3    H122797   1.505   1.815   0.101 -1.1527 -0.5021  0.1873
 7611TIP3    H222798   1.580   1.695   0.155  0.9565  0.6085 -0.1467
 7612TIP3   OH222799   1.843   3.705   5.321  0.1036 -0.9142 -0.1805
 7612TIP3    H122800   1.755   3.714   5.283 -0.7119 -0.6728  1.6651
 7612TIP3    H222801   1.898   3.760   5.266 -0.9458 -0.8751 -1.2449
 7613TIP3   OH222802   6.378   2.277   5.241  0.4848 -0.0410 -0.2524
 7613TIP3    H122803   6.302   2.289   5.184  0.3030 -0.1182 -0.0265
 7613TIP3    H222804   6.436   2.220   5.190  0.1002 -0.5224 -0.1597
 7614TIP3   OH222805   6.163   4.845   3.809 -0.1761 -0.0112 -0.4055
 7614TIP3    H122806   6.226   4.911   3.839 -1.3919  1.4583 -0.9852
 7614TIP3    H222807   6.077   4.886   3.821 -1.1137 -2.1487  0.8592
 7615TIP3   OH222808   6.157   5.677   3.787 -0.2629  0.4417 -0.2515
 7615TIP3    H122809   6.082   5.734   3.776 -2.3872 -1.6445  1.9461
 7615TIP3    H222810   6.208   5.717   3.857 -0.2301  1.0155 -0.6007
 7616TIP3   OH222811   2.480   1.849   1.861 -0.2236 -0.1101  0.0094
 7616TIP3    H122812   2.427   1.928   1.845 -1.8542 -1.0186  0.6489
 7616TIP3    H222813   2.504   1.818   1.774 -3.2297 -1.2369 -0.5428
 7617TIP3   OH222814   4.093   2.698   3.988 -0.0881 -0.2704  0.2020
 7617TIP3    H122815   4.044   2.653   3.920  2.4734 -1.8567 -0.7637
 7617TIP3    H222816   4.040   2.688   4.067 -1.9645 -0.5756 -1.0490
 7618TIP3   OH222817   6.656   2.412   0.314 -0.0604 -0.2262 -0.3595
 7618TIP3    H122818   6.673   2.479   0.380 -0.6373 -1.0997  0.7159
 7618TIP3    H222819   6.702   2.334   0.347 -1.0039 -0.8893 -0.5580
 7619TIP3   OH222820   4.465   4.215   3.020 -0.0038  0.2837 -0.1860
 7619TIP3    H122821   4.521   4.277   2.973  0.1298 -1.3159 -2.2772
 7619TIP3    H222822   4.526   4.163   3.073 -0.1166  1.8334  1.5719
 7620TIP3   OH222823   0.367   2.324   0.647  0.5318  0.1016 -0.2671
 7620TIP3    H122824   0.286   2.317   0.698 -0.0512  0.6056 -1.0952
 7620TIP3    H222825   0.367   2.247   0.591  1.0708 -0.3463  0.3354
 7621TIP3   OH222826   3.452   6.350   3.444  0.0635  0.3902  0.0935
 7621TIP3    H122827   3.509   6.283   3.482 -0.1342  0.2870  0.2121
 7621TIP3    H222828   3.507   6.428   3.436  0.2616  0.2479  0.0673
 7622TIP3   OH222829   1.211   5.247   0.803 -0.1048  0.0420  0.0555
 7622TIP3    H122830   1.178   5.159   0.783  0.6420 -0.4193  0.7969
 7622TIP3    H222831   1.253   5.275   0.722 -1.5021  0.2755 -0.6136
 7623TIP3   OH222832   1.587   3.429   5.312 -0.4529  0.4141  0.0480
 7623TIP3    H122833   1.626   3.351   5.272 -1.3776  0.4721 -1.0173
 7623TIP3    H222834   1.614   3.425   5.404  0.0506 -0.8101 -0.1361
 7624TIP3   OH222835   2.079   2.068   1.586  0.1428  0.0789 -0.5437
 7624TIP3    H122836   2.006   2.061   1.525 -0.5636  0.6514  0.2144
 7624TIP3    H222837   2.104   1.977   1.604  0.1769 -0.1049 -1.4396
 7625TIP3   OH222838   3.312   3.214   1.044 -0.0478  0.2006  0.0797
 7625TIP3    H122839   3.381   3.278   1.060  0.3548 -0.3692  0.7027
 7625TIP3    H222840   3.354   3.146   0.991  0.2968 -0.8377  1.6142
 7626TIP3   OH222841   4.426   5.486   2.482  0.4144 -0.0995  0.0357
 7626TIP3    H122842   4.341   5.503   2.441 -0.3268 -1.6556  0.8338
 7626TIP3    H222843   4.414   5.512   2.573  1.6749  2.1928 -0.3815
 7627TIP3   OH222844   4.535   6.696   4.451  0.1442 -0.4603 -0.2674
 7627TIP3    H122845   4.447   6.729   4.467 -0.6140 -2.0243 -1.0072
 7627TIP3    H222846   4.574   6.760   4.390 -0.3731  0.3631  0.2526
 7628TIP3   OH222847   5.981   4.513   1.694 -0.5663 -0.7314 -0.1579
 7628TIP3    H122848   5.999   4.419   1.695 -1.9608 -1.0248  0.1117
 7628TIP3    H222849   6.058   4.552   1.652  0.2907 -1.9239  0.2341
 7629TIP3   OH222850   0.101   2.920   4.556 -0.2841  0.0035  0.3812
 7629TIP3    H122851   0.092   2.838   4.605 -0.9476 -0.2371 -0.1207
 7629TIP3    H222852   0.194   2.927   4.538 -0.1338 -0.2861  1.0313
 7630TIP3   OH222853   6.304   6.112   1.759  0.0524  0.2488  0.0479
 7630TIP3    H122854   6.350   6.104   1.676 -0.7486  0.2457 -0.4070
 7630TIP3    H222855   6.212   6.093   1.738 -0.5294  2.3030  0.5209
 7631TIP3   OH222856   0.264   0.565   1.278  0.2193 -0.1148 -0.4921
 7631TIP3    H122857   0.354   0.582   1.250  0.1080  1.9548  0.2549
 7631TIP3    H222858   0.268   0.565   1.373 -0.4690 -0.7428 -0.4561
 7632TIP3   OH222859   1.612   5.609   4.644  0.0081 -0.2681 -0.3869
 7632TIP3    H122860   1.553   5.593   4.718  1.1350 -0.3403  0.5359
 7632TIP3    H222861   1.557   5.651   4.578 -0.2752  3.4019  1.9262
 7633TIP3   OH222862   6.987   3.857   1.574  0.3703 -0.1112  0.3323
 7633TIP3    H122863   6.912   3.867   1.632 -0.2050 -1.3992 -0.1538
 7633TIP3    H222864   7.046   3.928   1.599  0.0270 -0.4461  2.3038
 7634TIP3   OH222865   0.827   6.612   0.980 -0.1553 -0.4734  0.6888
 7634TIP3    H122866   0.739   6.648   0.963  1.1072  1.9665 -1.3750
 7634TIP3    H222867   0.863   6.668   1.048  0.3672 -0.4462  0.3927
 7635TIP3   OH222868   4.935   5.863   0.357  0.1674 -0.5351 -0.4070
 7635TIP3    H122869   4.888   5.782   0.378  0.0216 -1.1049 -2.6408
 7635TIP3    H222870   4.876   5.911   0.299  0.8715  0.4922 -0.3015
 7636TIP3   OH222871   6.473   2.857   1.991  0.1274 -0.3367  0.0060
 7636TIP3    H122872   6.460   2.834   2.083  1.1032 -3.0964 -0.4483
 7636TIP3    H222873   6.483   2.773   1.946 -0.2058  0.9196 -2.6331
 7637TIP3   OH222874   2.654   0.938   0.247 -0.2426  0.6087  0.1232
 7637TIP3    H122875   2.693   0.900   0.168 -0.9546  0.0766  0.0134
 7637TIP3    H222876   2.573   0.887   0.260 -0.7552  1.5034  0.4955
 7638TIP3   OH222877   6.031   2.284   5.749 -0.1177  0.3430  0.2035
 7638TIP3    H122878   5.974   2.208   5.738  0.1608  0.3076 -1.2134
 7638TIP3    H222879   6.119   2.251   5.733 -0.1697  1.3303 -2.7114
 7639TIP3   OH222880   1.057   6.470   0.923 -0.2338  0.0409  0.3737
 7639TIP3    H122881   0.967   6.491   0.949  0.0419  0.7406  0.8078
 7639TIP3    H222882   1.094   6.554   0.897  0.0413 -0.3794 -0.6096
 7640TIP3   OH222883   0.679   2.282   0.429 -0.2558  0.2835 -0.4991
 7640TIP3    H122884   0.731   2.218   0.381 -2.8149 -1.5846 -1.0096
 7640TIP3    H222885   0.719   2.284   0.516  0.6909 -1.0198 -0.8719
 7641TIP3   OH222886   2.907   0.829   5.235 -0.6954  0.2325 -0.3021
 7641TIP3    H122887   2.813   0.834   5.254 -0.4297 -0.7901  1.4467
 7641TIP3    H222888   2.932   0.739   5.259  0.6129  0.2893 -1.3471
 7642TIP3   OH222889   4.692   0.727   4.450  0.2219  0.6853 -0.8058
 7642TIP3    H122890   4.779   0.759   4.473  0.6605 -0.1936 -1.1830
 7642TIP3    H222891   4.701   0.632   4.449 -1.2703  0.4409  1.2447
 7643TIP3   OH222892   6.550   0.474   3.777 -0.4746  0.1192 -0.6971
 7643TIP3    H122893   6.479   0.493   3.717 -1.0920 -0.7797 -0.2818
 7643TIP3    H222894   6.605   0.411   3.731 -0.6853 -0.1996 -0.5231
 7644TIP3   OH222895   5.463   6.260   2.793 -0.2827  0.1200 -0.3721
 7644TIP3    H122896   5.421   6.333   2.840  1.9517  1.8491 -0.8729
 7644TIP3    H222897   5.458   6.285   2.700  0.0298 -0.6329 -0.6032
 7645TIP3   OH222898   5.448   0.057   3.161 -0.3142 -0.3114 -0.4760
 7645TIP3    H122899   5.510  -0.011   3.187  0.9474  1.2741  0.9378
 7645TIP3    H222900   5.489   0.139   3.190 -3.1729  0.8182  0.7854
 7646TIP3   OH222901   6.768   3.966   1.262 -0.3246 -0.6146  0.0279
 7646TIP3    H122902   6.776   4.034   1.329 -0.9717 -1.4590  0.9891
 7646TIP3    H222903   6.818   3.892   1.297  0.8645 -0.4659 -1.2696
 7647TIP3   OH222904   0.541   3.823   0.562  0.1401  0.1232 -0.6757
 7647TIP3    H122905   0.572   3.765   0.492 -1.7941  0.1468 -1.6167
 7647TIP3    H222906   0.587   3.792   0.640  1.1710 -0.9254 -1.6578
 7648TIP3   OH222907   2.081   1.250   0.513 -0.3491  0.6483  0.1834
 7648TIP3    H122908   2.069   1.158   0.488 -1.5631  1.6928 -3.7632
 7648TIP3    H222909   2.171   1.270   0.487 -0.2557  0.7218  0.5610
 7649TIP3   OH222910   4.374   6.083   4.121 -0.2495  0.3879  0.6832
 7649TIP3    H122911   4.411   6.079   4.209  0.9858  2.2618  0.3104
 7649TIP3    H222912   4.280   6.068   4.133 -0.1506  0.9300  2.3602
 7650TIP3   OH222913   4.908   0.670   5.319  0.1200 -0.4255 -0.0959
 7650TIP3    H122914   4.862   0.741   5.364  0.2181 -1.5127  1.8353
 7650TIP3    H222915   4.997   0.673   5.353  0.1928 -1.2941 -0.1891
 7651TIP3   OH222916   3.554   2.542   2.411 -0.1110 -0.2234  0.4070
 7651TIP3    H122917   3.501   2.517   2.335 -0.9805  1.6109  0.3779
 7651TIP3    H222918   3.626   2.479   2.411  0.0406 -0.1418 -2.0775
 7652TIP3   OH222919   6.527   0.987   3.099 -0.1640  0.5279  0.3489
 7652TIP3    H122920   6.461   0.920   3.119 -0.6787  0.8315 -0.3053
 7652TIP3    H222921   6.607   0.955   3.141  0.3483 -1.9333 -2.2100
 7653TIP3   OH222922   5.545   2.011   3.498 -0.3744 -0.1418  0.8473
 7653TIP3    H122923   5.496   2.088   3.527  0.6896  1.0256 -0.3551
 7653TIP3    H222924   5.482   1.962   3.446 -0.3949  1.2314 -0.4965
 7654TIP3   OH222925   4.864   0.096   3.303 -0.3631  0.6042 -0.2557
 7654TIP3    H122926   4.956   0.115   3.326 -0.1802  1.0016 -1.2729
 7654TIP3    H222927   4.869   0.022   3.243 -0.8900 -0.8815  1.4247
 7655TIP3   OH222928   3.620   1.410   2.327  0.6119 -0.3195  0.2790
 7655TIP3    H122929   3.715   1.397   2.318  0.5376 -0.2794 -0.7324
 7655TIP3    H222930   3.582   1.341   2.271  0.0273 -0.7076  1.1360
 7656TIP3   OH222931   0.204   4.887   3.042 -0.0439  0.3509  0.8195
 7656TIP3    H122932   0.175   4.928   2.960 -1.8347 -0.8947  0.7775
 7656TIP3    H222933   0.142   4.917   3.108 -1.7461 -2.4956  0.6975
 7657TIP3   OH222934   2.122   0.540   1.980  0.3399 -0.7784 -0.0102
 7657TIP3    H122935   2.102   0.447   1.996 -1.1525 -0.7034 -1.1831
 7657TIP3    H222936   2.193   0.560   2.041  1.0907 -2.8336 -0.1278
 7658TIP3   OH222937   6.942   2.046   1.452 -0.8491  0.1176 -0.0541
 7658TIP3    H122938   6.990   2.099   1.516 -2.7162  0.1556  1.4169
 7658TIP3    H222939   6.865   2.098   1.430 -2.2963 -1.5638  0.7841
 7659TIP3   OH222940   3.666   6.649   5.541 -0.5511 -0.1695  0.4374
 7659TIP3    H122941   3.633   6.724   5.590 -1.2105 -1.1254  1.5015
 7659TIP3    H222942   3.655   6.575   5.600  1.7315 -0.8607  0.1007
 7660TIP3   OH222943   0.425   6.012   3.700 -0.6026 -0.4372 -0.3304
 7660TIP3    H122944   0.456   5.924   3.679  1.0482 -0.4191  1.7389
 7660TIP3    H222945   0.491   6.070   3.662  0.9542 -0.3299  2.2898
 7661TIP3   OH222946   1.627   3.357   3.211 -0.1278 -0.6264 -0.4928
 7661TIP3    H122947   1.533   3.374   3.208  0.0814  1.0479  0.7977
 7661TIP3    H222948   1.650   3.332   3.122 -1.8738 -1.6038 -0.7111
 7662TIP3   OH222949   2.885   4.318   0.301  0.0846 -0.9056 -0.4174
 7662TIP3    H122950   2.806   4.308   0.355  0.1758 -0.8641 -0.2779
 7662TIP3    H222951   2.918   4.229   0.290  2.1276 -0.6323  2.6365
 7663TIP3   OH222952   4.602   5.300   5.605 -0.2294  0.1053  0.2482
 7663TIP3    H122953   4.690   5.321   5.573 -0.1073 -0.2257  0.3560
 7663TIP3    H222954   4.593   5.351   5.685  0.8072 -1.6376  1.5616
 7664TIP3   OH222955   3.829   2.988   4.564  0.8321  0.1789  0.0366
 7664TIP3    H122956   3.914   2.963   4.529  1.1277  0.8005  0.2806
 7664TIP3    H222957   3.803   3.063   4.510 -0.1779 -0.8024 -0.8936
 7665TIP3   OH222958   6.148   6.562   0.843  0.4080  0.6683  0.3136
 7665TIP3    H122959   6.231   6.527   0.876 -0.1963 -1.2153 -0.0708
 7665TIP3    H222960   6.158   6.562   0.748  0.5911  2.0966  0.3174
 7666TIP3   OH222961   4.771   4.528   0.553  0.1916 -0.0423 -0.2949
 7666TIP3    H122962   4.860   4.556   0.574  1.0507 -2.8796  0.3460
 7666TIP3    H222963   4.782   4.458   0.488 -1.6396 -0.0646 -0.6558
 7667TIP3   OH222964   0.132   0.453   5.567 -0.0966 -0.1642  0.5731
 7667TIP3    H122965   0.098   0.542   5.569 -2.3342 -0.8719 -1.4471
 7667TIP3    H222966   0.149   0.435   5.475 -0.1480 -1.9885  0.8748
 7668TIP3   OH222967   6.391   1.565   4.331  0.3862 -0.2565 -0.6592
 7668TIP3    H122968   6.455   1.550   4.261  0.5410  2.3471 -1.1758
 7668TIP3    H222969   6.428   1.637   4.382 -1.6524  0.6527 -0.3748
 7669TIP3   OH222970   5.889   1.785   0.185 -0.2069  0.0824  0.8263
 7669TIP3    H122971   5.798   1.764   0.208  0.5293 -1.6423  2.5179
 7669TIP3    H222972   5.912   1.722   0.118 -0.4533  1.0200 -0.1660
 7670TIP3   OH222973   2.986   4.221   1.023  0.1292 -0.2002 -0.5832
 7670TIP3    H122974   2.927   4.296   1.024 -0.9157 -1.0201  0.1482
 7670TIP3    H222975   2.943   4.154   1.076  1.0286 -1.3414 -1.2291
 7671TIP3   OH222976   1.795   5.027   1.218 -0.2667  0.1949 -0.5822
 7671TIP3    H122977   1.786   5.042   1.313 -2.4487 -0.8933 -0.5465
 7671TIP3    H222978   1.778   4.934   1.207 -2.2989  0.6948 -2.2321
 7672TIP3   OH222979   5.247   3.609   3.296 -0.1409 -0.2498  0.0968
 7672TIP3    H122980   5.336   3.576   3.307 -0.9886 -2.3967  0.8451
 7672TIP3    H222981   5.259   3.693   3.251  2.1329 -1.6224 -2.1397
 7673TIP3   OH222982   0.877   2.078   3.039  0.1614  0.1898 -0.5137
 7673TIP3    H122983   0.872   2.025   2.960 -0.8334 -0.6531  0.0882
 7673TIP3    H222984   0.862   2.168   3.009 -0.8255 -0.1914 -1.2242
 7674TIP3   OH222985   2.559   6.381   1.840  0.0797  0.2173  0.0039
 7674TIP3    H122986   2.483   6.435   1.860 -0.9623 -1.2478  0.1543
 7674TIP3    H222987   2.583   6.341   1.924  0.4225 -0.0708 -0.2268
 7675TIP3   OH222988   3.167   5.137   3.563 -0.2790 -0.2546  0.0073
 7675TIP3    H122989   3.233   5.195   3.600  0.8447 -2.2251  1.3370
 7675TIP3    H222990   3.121   5.101   3.639 -2.0402  0.0847 -0.8418
 7676TIP3   OH222991   2.206   5.637   3.377  0.3148 -0.2566  0.1040
 7676TIP3    H122992   2.252   5.717   3.404  0.0540 -0.3673  0.8794
 7676TIP3    H222993   2.114   5.654   3.398  0.1753 -0.5397 -0.2648
 7677TIP3   OH222994   0.960   0.924   1.228 -0.3592  0.3387  0.5773
 7677TIP3    H122995   0.936   0.989   1.162  0.9773  0.1225 -0.1393
 7677TIP3    H222996   1.045   0.890   1.200 -0.4083 -0.7643  1.6600
 7678TIP3   OH222997   0.517   5.925   2.496 -0.0258 -0.2230 -0.1029
 7678TIP3    H122998   0.466   5.925   2.415  0.4839  0.9969 -0.4414
 7678TIP3    H222999   0.510   6.014   2.529  1.8144 -0.0394 -0.1282
 7679TIP3   OH223000   6.779   0.125   5.376 -0.4422  0.0826 -0.5046
 7679TIP3    H123001   6.755   0.046   5.329 -0.0813 -0.2450 -0.1502
 7679TIP3    H223002   6.707   0.186   5.361  0.0163  0.2618 -2.1108
 7680TIP3   OH223003   2.153   3.066   4.100  0.3900  0.6247 -0.1575
 7680TIP3    H123004   2.128   3.118   4.176  0.3730 -0.9009  0.9402
 7680TIP3    H223005   2.088   3.089   4.033 -0.3127  1.1418  0.6777
 7681TIP3   OH223006   3.637   2.835   3.733 -0.7220  0.3413  0.1121
 7681TIP3    H123007   3.553   2.797   3.758 -0.7778  0.7293  0.5208
 7681TIP3    H223008   3.662   2.787   3.654 -0.3818 -1.1385  1.0937
 7682TIP3   OH223009   2.319   4.131   2.677 -0.1318  0.0265 -0.0486
 7682TIP3    H123010   2.287   4.153   2.765  0.2023 -1.2382  0.4124
 7682TIP3    H223011   2.319   4.215   2.630 -2.1679  0.4228  0.5519
 7683TIP3   OH223012   0.761   0.466   1.155 -0.2950 -0.4102 -0.1278
 7683TIP3    H123013   0.838   0.448   1.209 -0.2151  1.1909  0.3153
 7683TIP3    H223014   0.759   0.561   1.145 -2.5842 -0.3319  0.4328
 7684TIP3   OH223015   6.286   4.135   3.413 -0.1174 -0.4481  0.4001
 7684TIP3    H123016   6.224   4.083   3.464 -1.3761 -0.1814 -0.8144
 7684TIP3    H223017   6.360   4.149   3.473  0.0706 -3.1852  0.9530
 7685TIP3   OH223018   2.757   3.138   4.406  0.5653 -0.2922 -0.7394
 7685TIP3    H123019   2.826   3.172   4.349 -2.3231  1.0509 -3.7780
 7685TIP3    H223020   2.747   3.047   4.379  0.1652 -0.0701 -1.3392
 7686TIP3   OH223021   5.278   2.791   1.781  0.5006 -0.1301  0.4891
 7686TIP3    H123022   5.220   2.843   1.725  1.8527 -1.9119 -2.8529
 7686TIP3    H223023   5.247   2.701   1.769  1.3365 -0.6599  2.0709
 7687TIP3   OH223024   3.073   3.815   0.700 -0.5193 -0.4579  0.2683
 7687TIP3    H123025   3.150   3.842   0.751 -0.9675  2.3430 -0.3727
 7687TIP3    H223026   3.097   3.730   0.664  2.0999  0.1019  0.4940
 7688TIP3   OH223027   1.411   1.177   3.095 -0.6573 -0.4448 -0.3718
 7688TIP3    H123028   1.429   1.264   3.132  0.0000 -0.4622 -0.6390
 7688TIP3    H223029   1.333   1.190   3.041 -0.9474 -0.1669  0.1062
 7689TIP3   OH223030   1.779   1.453   4.988 -0.5503  0.0829  0.9088
 7689TIP3    H123031   1.779   1.359   4.975 -0.1497  0.0714  0.9888
 7689TIP3    H223032   1.757   1.465   5.081  2.0280 -0.0427  1.6065
 7690TIP3   OH223033   6.082   2.463   2.945  0.0918 -0.0615  0.1816
 7690TIP3    H123034   6.022   2.537   2.944 -0.4732 -0.5109  0.1701
 7690TIP3    H223035   6.062   2.414   2.865 -0.2174 -0.7454  0.6576
 7691TIP3   OH223036   1.549   5.566   1.075  0.2243  0.1713 -0.5786
 7691TIP3    H123037   1.616   5.593   1.137 -0.4085 -0.9615  0.6289
 7691TIP3    H223038   1.469   5.560   1.127  0.0566 -2.7145 -1.0067
 7692TIP3   OH223039   1.910   2.326   4.007 -0.6644  0.4415  0.6387
 7692TIP3    H123040   1.962   2.293   4.080 -0.5402 -0.3806  0.2004
 7692TIP3    H223041   1.921   2.421   4.009  0.0224  0.3547  1.1643
 7693TIP3   OH223042   2.508   5.612   5.095 -0.5201 -0.3644 -0.0084
 7693TIP3    H123043   2.414   5.617   5.107 -0.7533 -2.7016 -0.2525
 7693TIP3    H223044   2.536   5.702   5.077 -2.6462  0.3957  0.2679
 7694TIP3   OH223045   6.914   3.525   2.067  0.2986  0.4169  0.3314
 7694TIP3    H123046   6.867   3.444   2.045  0.9777  0.3134 -0.8508
 7694TIP3    H223047   6.948   3.509   2.156  0.2531 -0.5212  0.1963
 7695TIP3   OH223048   0.997   3.711   3.297 -0.2477  0.3621  0.3181
 7695TIP3    H123049   1.044   3.712   3.380  0.5635  1.4353 -0.1317
 7695TIP3    H223050   0.966   3.801   3.285 -0.0434  0.3118 -0.7000
 7696TIP3   OH223051   6.025   3.761   0.816  0.0169  0.1104 -0.1732
 7696TIP3    H123052   6.000   3.853   0.802  1.4110  0.6504  0.6788
 7696TIP3    H223053   6.043   3.756   0.910 -2.0306 -1.5823  0.2115
 7697TIP3   OH223054   6.176   2.006   3.982 -0.3673 -0.0475 -0.0996
 7697TIP3    H123055   6.134   1.923   3.963  0.3465 -0.2543 -0.8342
 7697TIP3    H223056   6.265   1.983   4.010 -0.9318  0.3404  2.1733
 7698TIP3   OH223057   1.659   3.009   1.043  0.2599 -0.0328  0.2510
 7698TIP3    H123058   1.703   2.996   1.127 -2.2680  1.5532  1.9409
 7698TIP3    H223059   1.652   2.921   1.006  0.4977 -0.9310  2.2110
 7699TIP3   OH223060   3.471   1.971   2.827  0.2240 -0.4066 -0.5945
 7699TIP3    H123061   3.392   1.923   2.852  0.4043  0.4697  2.0282
 7699TIP3    H223062   3.487   2.030   2.901  1.8072  1.4099 -2.2565
 7700TIP3   OH223063   1.046   3.275   0.604  0.1302  0.8204  0.0313
 7700TIP3    H123064   1.108   3.296   0.534  1.4561 -0.0206  0.9139
 7700TIP3    H223065   1.101   3.247   0.677 -1.2700  0.7626  1.1008
 7701TIP3   OH223066   3.268   2.222   3.726  0.3435  0.0212 -0.3120
 7701TIP3    H123067   3.214   2.185   3.796 -0.2270  0.2493 -0.6249
 7701TIP3    H223068   3.230   2.188   3.645 -0.3668  1.4683 -0.6288
 7702TIP3   OH223069   3.322   4.950   3.143  0.1837 -0.2238  0.0562
 7702TIP3    H123070   3.390   4.945   3.210 -0.0795 -0.8903  0.2778
 7702TIP3    H223071   3.242   4.922   3.187 -0.0024 -0.6128 -0.5218
 7703TIP3   OH223072   4.474   1.915   0.951  0.1611 -0.1708 -0.0206
 7703TIP3    H123073   4.417   1.982   0.913 -0.5085  0.0347  1.2609
 7703TIP3    H223074   4.451   1.835   0.905 -0.5671  0.0791 -0.1096
 7704TIP3   OH223075   5.837   3.851   5.427  0.3946 -0.3358  0.7461
 7704TIP3    H123076   5.855   3.874   5.335  1.1974 -2.3702  0.3403
 7704TIP3    H223077   5.822   3.935   5.470  1.2486  0.7682 -0.9918
 7705TIP3   OH223078   1.842   2.084   3.655  0.1185  0.0509 -0.0371
 7705TIP3    H123079   1.931   2.118   3.664 -0.0664  0.1751  1.7741
 7705TIP3    H223080   1.817   2.058   3.744 -1.8632  0.5673 -0.3881
 7706TIP3   OH223081   1.108   3.940   4.447  0.2210 -0.4664  0.4598
 7706TIP3    H123082   1.194   3.971   4.420  0.5224 -0.1601  1.7271
 7706TIP3    H223083   1.109   3.846   4.428  0.7883 -0.4440  0.3653
 7707TIP3   OH223084   4.506   4.127   1.464  0.5767  0.0286 -0.2587
 7707TIP3    H123085   4.453   4.205   1.482 -0.3647 -0.9417  1.5372
 7707TIP3    H223086   4.482   4.102   1.375 -0.7544  0.5778 -0.0907
 7708TIP3   OH223087   3.659   0.024   4.711  0.3528 -0.0403  0.2483
 7708TIP3    H123088   3.672   0.055   4.800  0.0302  1.0458 -0.0682
 7708TIP3    H223089   3.747   0.008   4.678  0.5121  0.3195  0.4964
 7709TIP3   OH223090   5.890   1.839   2.424  0.5051 -0.5237  0.1430
 7709TIP3    H123091   5.877   1.934   2.432 -2.0387 -0.6681 -1.2596
 7709TIP3    H223092   5.956   1.830   2.356  0.1772  0.2603 -0.2920
 7710TIP3   OH223093   6.919   4.102   5.698 -0.5201  0.1138  0.1982
 7710TIP3    H123094   6.865   4.054   5.760  1.3696 -2.5874 -0.0515
 7710TIP3    H223095   6.953   4.176   5.747 -0.8226 -0.7267  1.7174
 7711TIP3   OH223096   5.049   0.145   2.939  0.3466  0.2119 -0.6615
 7711TIP3    H123097   5.111   0.202   2.985 -0.6875  0.1316  0.9081
 7711TIP3    H223098   5.071   0.057   2.968 -0.8408  0.2328  0.3684
 7712TIP3   OH223099   7.135   4.324   5.470  0.1027 -0.1466 -0.0111
 7712TIP3    H123100   7.078   4.250   5.449  0.4996 -0.5507  0.3023
 7712TIP3    H223101   7.183   4.341   5.389  1.3084 -1.4096  0.3896
 7713TIP3   OH223102   4.160   5.496   3.693 -0.0512 -0.3322  0.3610
 7713TIP3    H123103   4.124   5.524   3.777 -4.2204  0.6174 -1.4333
 7713TIP3    H223104   4.159   5.400   3.696 -4.7314 -0.5199  0.0387
 7714TIP3   OH223105   6.420   2.996   5.283  0.0724 -0.0866 -0.3303
 7714TIP3    H123106   6.428   2.950   5.199  3.3232 -0.4262  0.0026
 7714TIP3    H223107   6.373   2.935   5.339  3.7417 -3.1150 -0.0723
 7715TIP3   OH223108   6.262   3.543   4.157  0.6250  0.9067 -0.0358
 7715TIP3    H123109   6.283   3.635   4.146  0.1532  1.1392  0.8978
 7715TIP3    H223110   6.346   3.501   4.174  0.7873  1.2308 -0.0308
 7716TIP3   OH223111   6.882   3.559   0.733 -0.0517 -0.1640  0.1123
 7716TIP3    H123112   6.889   3.630   0.669 -1.1784 -1.2651 -1.2863
 7716TIP3    H223113   6.790   3.534   0.731  0.2947 -1.5493  0.7034
 7717TIP3   OH223114   3.398   1.580   0.652  0.0718  0.6552  0.5595
 7717TIP3    H123115   3.304   1.573   0.672  0.1086  0.2725  0.5888
 7717TIP3    H223116   3.410   1.525   0.575  0.4553 -0.0574  1.1233
 7718TIP3   OH223117   0.322   0.037   0.785 -0.3897 -0.6584 -0.5443
 7718TIP3    H123118   0.379   0.112   0.801 -1.5685 -0.0908  1.3508
 7718TIP3    H223119   0.236   0.076   0.770 -0.5277 -1.5436 -2.1731
 7719TIP3   OH223120   5.047   2.600   1.123 -0.4975 -0.0769 -0.3931
 7719TIP3    H123121   4.984   2.627   1.190  1.1948  3.4750  0.0150
 7719TIP3    H223122   5.133   2.617   1.162  0.5773  1.9119 -3.2166
 7720TIP3   OH223123   6.744   5.794   0.320 -0.1544 -0.0772 -0.2781
 7720TIP3    H123124   6.659   5.833   0.306 -1.3917 -3.2702 -3.1493
 7720TIP3    H223125   6.807   5.859   0.288 -1.5623  1.7308  0.4838
 7721TIP3   OH223126   3.257   5.290   4.183  0.1850  0.1433  0.5424
 7721TIP3    H123127   3.271   5.295   4.089 -0.5470 -0.2678  0.4036
 7721TIP3    H223128   3.194   5.359   4.202 -0.6764 -0.6204  0.5171
 7722TIP3   OH223129   3.220   0.397   0.636  0.2035  0.2031 -0.3370
 7722TIP3    H123130   3.195   0.467   0.696  2.1335 -0.8264  1.8261
 7722TIP3    H223131   3.315   0.403   0.631  0.2670 -1.3020 -1.3132
 7723TIP3   OH223132   3.804   4.416   2.277  0.4239  0.1557  0.1308
 7723TIP3    H123133   3.866   4.355   2.237  0.6442 -0.9061  1.9818
 7723TIP3    H223134   3.729   4.416   2.218  1.4757  0.1377 -1.2534
 7724TIP3   OH223135   6.159   6.080   2.543 -0.0432 -0.2168  0.2738
 7724TIP3    H123136   6.113   6.002   2.513 -0.7768  0.6970 -1.1210
 7724TIP3    H223137   6.139   6.146   2.476  1.7806  0.7375  0.6013
 7725TIP3   OH223138   1.259   4.622   4.153  0.0532  0.8588 -0.8323
 7725TIP3    H123139   1.291   4.577   4.232  0.1321  0.6798 -0.9652
 7725TIP3    H223140   1.254   4.714   4.179 -2.2049  0.5296  0.1366
 7726TIP3   OH223141   2.777   1.145   1.328  0.4242  0.1335  0.3735
 7726TIP3    H123142   2.850   1.092   1.358  1.3771  0.9056 -0.5132
 7726TIP3    H223143   2.750   1.105   1.245  1.5246  1.3309 -0.5947
 7727TIP3   OH223144   5.306   1.889   5.442 -0.3148  0.5072  0.0073
 7727TIP3    H123145   5.273   1.938   5.517 -0.0270  1.7947 -0.6809
 7727TIP3    H223146   5.401   1.904   5.443  0.1451 -1.9573  1.1160
 7728TIP3   OH223147   4.875   5.240   1.102 -0.0762 -0.5834  0.4403
 7728TIP3    H123148   4.853   5.325   1.141  0.2168 -0.3863  0.1736
 7728TIP3    H223149   4.923   5.261   1.022  2.8433 -0.9931  1.9590
 7729TIP3   OH223150   0.520   2.635   0.644  0.3636  0.4914 -0.4003
 7729TIP3    H123151   0.480   2.686   0.574  0.7293  1.7561  0.2639
 7729TIP3    H223152   0.591   2.587   0.601  2.4085  3.3692 -0.5427
 7730TIP3   OH223153   1.723   0.452   5.829 -0.2790 -0.4895  0.2760
 7730TIP3    H123154   1.724   0.359   5.807 -0.7771 -0.1220 -1.4929
 7730TIP3    H223155   1.767   0.458   5.914 -0.4464 -2.3505  0.5157
 7731TIP3   OH223156   4.863   6.474   4.790  0.1095 -0.0666 -0.0133
 7731TIP3    H123157   4.813   6.444   4.714  0.3006 -1.2047  0.2966
 7731TIP3    H223158   4.846   6.408   4.857  0.8827  0.3004  0.5513
 7732TIP3   OH223159   5.171   4.357   2.838  0.2394 -0.4538  0.1038
 7732TIP3    H123160   5.173   4.303   2.759  0.3715 -1.1412  0.5732
 7732TIP3    H223161   5.188   4.296   2.910 -0.8858 -0.0169  0.7664
 7733TIP3   OH223162   1.477   0.453   4.397  0.2288 -0.5963 -0.2832
 7733TIP3    H123163   1.536   0.509   4.447 -0.4139 -1.2102  1.2149
 7733TIP3    H223164   1.396   0.502   4.392  0.2861 -0.5412 -0.7437
 7734TIP3   OH223165   1.393   0.334   5.362 -0.3238  0.3677 -0.2659
 7734TIP3    H123166   1.416   0.269   5.429  0.6253 -1.3223 -2.1132
 7734TIP3    H223167   1.476   0.377   5.340 -0.4961  0.4171 -0.8393
 7735TIP3   OH223168   0.660   4.630   3.070 -0.4753  0.0343  0.4423
 7735TIP3    H123169   0.752   4.644   3.046 -0.1920  0.4397  1.6848
 7735TIP3    H223170   0.655   4.537   3.090 -0.4792 -0.1029 -0.1698
 7736TIP3   OH223171   2.951   5.658   3.826  0.3915  0.3074 -0.0186
 7736TIP3    H123172   2.937   5.729   3.763 -0.2857  1.1302  1.0437
 7736TIP3    H223173   3.034   5.618   3.798 -0.0003  0.4949 -1.5671
 7737TIP3   OH223174   2.522   5.055   0.712 -0.5252 -0.3416 -0.3795
 7737TIP3    H123175   2.538   4.993   0.642 -0.7609 -0.2893 -0.4815
 7737TIP3    H223176   2.427   5.050   0.727 -0.3457 -1.0690  0.5991
 7738TIP3   OH223177   7.125   1.877   3.236  0.8180 -0.6756  0.8058
 7738TIP3    H123178   7.077   1.836   3.163 -1.4645  2.6518  0.2298
 7738TIP3    H223179   7.062   1.878   3.308 -0.0630  3.3061  0.2090
 7739TIP3   OH223180   2.573   5.662   0.188  0.0980  0.4424  0.4684
 7739TIP3    H123181   2.522   5.708   0.120  2.1920  1.2955 -0.6315
 7739TIP3    H223182   2.568   5.720   0.264 -0.6746  0.4440  0.4269
 7740TIP3   OH223183   4.318   1.569   3.531  0.0803 -0.1798 -0.3921
 7740TIP3    H123184   4.400   1.600   3.493  1.3107  0.0287  2.2419
 7740TIP3    H223185   4.328   1.474   3.537 -0.9181 -0.4411 -2.2730
 7741TIP3   OH223186   3.857   2.849   2.562 -0.3728 -0.2404 -0.5847
 7741TIP3    H123187   3.866   2.939   2.593 -0.6716 -0.3237 -0.2427
 7741TIP3    H223188   3.763   2.831   2.569 -0.2478 -0.7489 -0.1736
 7742TIP3   OH223189   1.444   5.023   0.281  0.3359 -0.0782 -0.4736
 7742TIP3    H123190   1.515   5.047   0.340 -0.3336  0.5535  0.0942
 7742TIP3    H223191   1.483   5.026   0.193  1.2620 -0.7330 -0.0934
 7743TIP3   OH223192   5.889   6.034   0.736 -0.4719  0.0599 -0.1525
 7743TIP3    H123193   5.943   5.988   0.672  0.6990 -0.2092  0.9738
 7743TIP3    H223194   5.952   6.083   0.789 -1.5072  1.1410  0.1115
 7744TIP3   OH223195   3.337   2.162   0.956 -0.1237  0.1827  0.4575
 7744TIP3    H123196   3.325   2.074   0.922  0.5221  0.2101  0.1365
 7744TIP3    H223197   3.380   2.209   0.884  0.7502  0.3946  1.1033
 7745TIP3   OH223198   1.500   6.623   5.773  0.0230  0.4686 -0.2567
 7745TIP3    H123199   1.435   6.603   5.840 -0.0803  2.6001  0.3754
 7745TIP3    H223200   1.452   6.673   5.708  0.2075 -1.2739 -1.8067
 7746TIP3   OH223201   6.917   1.820   4.540 -0.3642 -0.0768 -0.0371
 7746TIP3    H123202   7.003   1.848   4.508 -1.8385  3.6611 -1.4189
 7746TIP3    H223203   6.911   1.728   4.516  2.6153 -0.0506 -1.3569
 7747TIP3   OH223204   3.109   3.924   5.031  0.0830  0.1239 -0.0518
 7747TIP3    H123205   3.095   3.887   4.944 -2.9766  2.2132 -0.6162
 7747TIP3    H223206   3.112   4.019   5.017  2.2670  0.4359  1.8823
 7748TIP3   OH223207   0.924   0.542   1.537  0.2274 -0.2318  0.0106
 7748TIP3    H123208   1.006   0.495   1.552 -1.0968 -2.2175  1.5530
 7748TIP3    H223209   0.883   0.495   1.464 -0.6820 -0.9862  0.9638
 7749TIP3   OH223210   6.772   6.227   3.633  0.0879 -0.6128  0.3634
 7749TIP3    H123211   6.688   6.208   3.675 -1.3031  3.6994  0.0300
 7749TIP3    H223212   6.749   6.247   3.542  1.5429  0.0581  0.1213
 7750TIP3   OH223213   6.522   5.719   2.365 -0.2132 -0.1209  0.4679
 7750TIP3    H123214   6.510   5.666   2.444 -0.8729 -1.1218 -0.2662
 7750TIP3    H223215   6.477   5.801   2.383 -0.2716 -0.3030  1.1725
 7751TIP3   OH223216   3.722   5.534   1.517  0.4673 -0.2806  0.1823
 7751TIP3    H123217   3.776   5.456   1.527  2.0642  0.5516 -1.4418
 7751TIP3    H223218   3.663   5.513   1.445  1.6605  0.3524 -1.0260
 7752TIP3   OH223219   1.586   6.361   0.589  0.2594 -0.0572 -0.2067
 7752TIP3    H123220   1.500   6.319   0.597  0.2895  0.1784  2.1625
 7752TIP3    H223221   1.649   6.289   0.596  0.2677 -0.1054 -0.7723
 7753TIP3   OH223222   6.330   5.079   2.820 -0.4105  0.1799  0.5298
 7753TIP3    H123223   6.259   5.045   2.875 -2.4852 -0.0558 -2.0829
 7753TIP3    H223224   6.367   5.002   2.778 -0.3340  0.5242 -0.0373
 7754TIP3   OH223225   0.652   4.903   2.334 -0.1874 -0.6253  0.4981
 7754TIP3    H123226   0.631   4.953   2.255 -0.6132  0.1293  1.0783
 7754TIP3    H223227   0.636   4.963   2.406  0.7857 -1.1017  1.1451
 7755TIP3   OH223228   0.512   1.340   0.190  0.3856 -0.5522  0.0228
 7755TIP3    H123229   0.475   1.413   0.240  0.3970 -0.7578  0.3390
 7755TIP3    H223230   0.597   1.324   0.232  0.1924 -1.0282  0.2325
 7756TIP3   OH223231   1.727   1.479   3.107  0.4835 -0.1941  0.5162
 7756TIP3    H123232   1.712   1.477   3.012  1.1440  1.4823  0.3494
 7756TIP3    H223233   1.743   1.387   3.130 -3.0534 -1.1830 -0.3634
 7757TIP3   OH223234   0.644   6.237   0.727 -0.0894  0.2169 -0.0783
 7757TIP3    H123235   0.593   6.296   0.672  0.6648  0.9783  0.0167
 7757TIP3    H223236   0.713   6.292   0.763 -0.6469 -0.2172  1.7646
 7758TIP3   OH223237   4.953   1.487   2.720  0.0191  0.0390 -0.5766
 7758TIP3    H123238   4.988   1.405   2.754 -0.3853  0.0206 -0.1842
 7758TIP3    H223239   4.869   1.463   2.682  0.1483  0.1816 -0.9540
 7759TIP3   OH223240   0.945   4.006   4.668 -1.1173 -0.0206 -0.3864
 7759TIP3    H123241   1.009   4.008   4.596  0.0354  3.3747  0.5239
 7759TIP3    H223242   0.990   3.959   4.738  0.0302  1.3278 -0.1538
 7760TIP3   OH223243   6.729   5.610   0.085 -0.3427  0.0752  0.0752
 7760TIP3    H123244   6.815   5.571   0.071  0.0861  1.9284 -3.6847
 7760TIP3    H223245   6.744   5.704   0.084 -2.4094  0.4603 -0.7702
 7761TIP3   OH223246   0.784   5.554   0.951 -0.6233 -0.0249 -0.0588
 7761TIP3    H123247   0.744   5.491   0.891 -1.8549  0.4035  0.2861
 7761TIP3    H223248   0.841   5.607   0.895 -1.4178  0.0838 -0.7978
 7762TIP3   OH223249   4.621   5.456   1.095  0.4794 -0.2541 -0.2307
 7762TIP3    H123250   4.611   5.494   1.182  1.1618  0.4238 -0.4373
 7762TIP3    H223251   4.559   5.504   1.040  0.7107 -0.0450 -0.3096
 7763TIP3   OH223252   6.710   2.875   3.771  0.0304  0.4136 -0.1608
 7763TIP3    H123253   6.622   2.842   3.751 -0.4720  0.4914  1.7452
 7763TIP3    H223254   6.768   2.819   3.719 -1.1748  1.7770 -3.2012
 7764TIP3   OH223255   3.601   2.335   1.178  0.3408  0.2046  0.9137
 7764TIP3    H123256   3.519   2.294   1.206 -0.3210  0.6792 -0.2424
 7764TIP3    H223257   3.586   2.429   1.191  0.3259  0.3686 -0.1683
 7765TIP3   OH223258   7.195   3.151   4.528 -0.0055  0.3786  0.7681
 7765TIP3    H123259   7.255   3.078   4.547  1.6309  1.7179  0.9530
 7765TIP3    H223260   7.173   3.140   4.436  2.4975  1.1850  0.0055
 7766TIP3   OH223261   3.307   3.097   2.845  0.2546 -0.1795 -0.2594
 7766TIP3    H123262   3.293   3.009   2.880  0.6418 -0.2797 -0.3515
 7766TIP3    H223263   3.373   3.085   2.776  2.2182  0.5340  1.4108
 7767TIP3   OH223264   5.697   5.423   1.008 -0.6885  0.1374 -0.1543
 7767TIP3    H123265   5.661   5.344   0.968 -0.0947  1.3059 -3.2196
 7767TIP3    H223266   5.622   5.480   1.020 -0.8474 -0.1666  0.3643
 7768TIP3   OH223267   6.063   1.445   0.586  0.1134  0.4561 -0.3474
 7768TIP3    H123268   6.043   1.354   0.606 -0.0545  0.7120  0.7163
 7768TIP3    H223269   6.039   1.455   0.494 -0.3373 -0.4404 -0.3397
 7769TIP3   OH223270   4.281   0.109   3.756 -0.1012  0.1535 -0.1453
 7769TIP3    H123271   4.316   0.190   3.793  0.3164 -0.3306  0.5258
 7769TIP3    H223272   4.359   0.057   3.734 -0.3729 -0.1653 -0.3627
 7770TIP3   OH223273   2.158   3.573   1.410 -0.2332  0.1621  0.5107
 7770TIP3    H123274   2.063   3.567   1.400 -0.7439  1.9852  3.1099
 7770TIP3    H223275   2.188   3.623   1.335 -1.2921 -0.5016 -0.3802
 7771TIP3   OH223276   3.600   3.522   2.384 -0.4370  0.3959 -0.1376
 7771TIP3    H123277   3.618   3.448   2.325  1.9554  1.1105 -0.4391
 7771TIP3    H223278   3.667   3.514   2.452 -1.1992  1.3689  0.7549
 7772TIP3   OH223279   0.354   6.572   3.018  0.6331  0.1005  0.1953
 7772TIP3    H123280   0.363   6.601   3.109  2.2727  0.4838 -0.0547
 7772TIP3    H223281   0.281   6.510   3.019  1.3048 -0.7215  1.9650
 7773TIP3   OH223282   4.968   3.662   5.038  0.2510  0.7652 -0.5575
 7773TIP3    H123283   5.045   3.719   5.039  0.4119  0.7581 -3.4665
 7773TIP3    H223284   4.929   3.673   5.124  2.1784  2.6037  0.1768
 7774TIP3   OH223285   5.160   4.415   1.623  0.3397  0.6713  0.0304
 7774TIP3    H123286   5.083   4.465   1.651 -0.7093 -0.5982 -0.4805
 7774TIP3    H223287   5.198   4.381   1.704 -0.9873 -0.5749  0.1719
 7775TIP3   OH223288   5.795   4.520   1.884  0.0351 -0.0026 -0.3284
 7775TIP3    H123289   5.855   4.520   1.809 -0.7212  0.8871 -0.9585
 7775TIP3    H223290   5.755   4.433   1.882  1.7656 -0.8710  0.5187
 7776TIP3   OH223291   4.167   5.831   3.259 -0.2515  0.5952 -0.2733
 7776TIP3    H123292   4.248   5.799   3.221 -0.5659 -0.7133  0.1062
 7776TIP3    H223293   4.156   5.780   3.340 -0.4397  2.1466  0.7231
 7777TIP3   OH223294   1.546   6.731   1.498  0.4379  0.2090 -0.1546
 7777TIP3    H123295   1.527   6.734   1.404  1.2656 -1.0910 -0.3908
 7777TIP3    H223296   1.548   6.637   1.519 -0.7135  0.4908  1.3870
 7778TIP3   OH223297   4.777   4.054   1.555 -0.1603 -0.2712 -0.2963
 7778TIP3    H123298   4.713   4.063   1.484  0.2994  1.1575 -0.5587
 7778TIP3    H223299   4.782   4.141   1.594  1.5002 -0.3868 -0.1844
 7779TIP3   OH223300   2.024   3.064   0.421 -0.2111 -0.3170 -0.1190
 7779TIP3    H123301   2.057   3.019   0.499 -0.4558 -1.6185 -0.7407
 7779TIP3    H223302   1.948   3.013   0.394  0.1964 -0.2340 -1.5296
 7780TIP3   OH223303   5.847   1.432   0.082  0.0572  0.1213  0.4412
 7780TIP3    H123304   5.910   1.364   0.059 -0.2417 -0.4647  1.2742
 7780TIP3    H223305   5.812   1.462  -0.002 -0.0201 -0.9746  0.0619
 7781TIP3   OH223306   1.097   2.197   2.257  0.2572 -0.4284  0.2981
 7781TIP3    H123307   1.049   2.121   2.289  1.2544 -1.4134 -0.4700
 7781TIP3    H223308   1.032   2.246   2.205 -0.0517 -1.4575 -0.3009
 7782TIP3   OH223309   6.209   5.816   4.642 -0.3812 -0.2806 -0.3017
 7782TIP3    H123310   6.267   5.745   4.669 -2.1241 -1.9023 -0.6192
 7782TIP3    H223311   6.238   5.838   4.554 -0.2063 -1.0285 -0.4386
 7783TIP3   OH223312   4.202   1.241   2.081  0.5226  0.2851  0.2802
 7783TIP3    H123313   4.110   1.216   2.073  0.4605  0.3690  0.6894
 7783TIP3    H223314   4.247   1.193   2.012  0.4464 -1.1228  1.1813
 7784TIP3   OH223315   1.112   4.156   5.069  0.0538  0.7620  0.0849
 7784TIP3    H123316   1.183   4.192   5.016  0.0582  1.3533  0.4899
 7784TIP3    H223317   1.066   4.097   5.009  0.2461  1.1818 -0.4895
 7785TIP3   OH223318   2.404   4.542   1.498  0.3361  0.6335 -0.1463
 7785TIP3    H123319   2.426   4.517   1.588  0.0055 -1.0903 -0.5078
 7785TIP3    H223320   2.328   4.599   1.507 -0.7455 -0.8420  0.6236
 7786TIP3   OH223321   0.194   4.762   5.377 -0.0966  0.4067 -0.0324
 7786TIP3    H123322   0.160   4.679   5.344 -0.2971 -0.1579  1.5094
 7786TIP3    H223323   0.125   4.796   5.434  0.6588  0.7831  0.6918
 7787TIP3   OH223324   4.350   2.138   2.546 -0.0104 -0.0306  0.1582
 7787TIP3    H123325   4.386   2.054   2.573  0.1298 -0.6612 -1.8599
 7787TIP3    H223326   4.255   2.123   2.544 -0.1950  0.6167  2.1393
 7788TIP3   OH223327   4.789   4.216   5.105  0.2495  0.3945 -0.2711
 7788TIP3    H123328   4.796   4.268   5.025  1.7983  1.5721  0.5596
 7788TIP3    H223329   4.866   4.159   5.103  0.0707  0.1327  0.1850
 7789TIP3   OH223330   2.559   1.000   2.814 -0.2205 -0.4209 -0.1191
 7789TIP3    H123331   2.647   1.037   2.820 -0.4644  0.1243  0.1242
 7789TIP3    H223332   2.524   1.032   2.731  0.0285 -1.1313 -0.5106
 7790TIP3   OH223333   3.070   1.085   0.637 -0.2682 -0.2667 -0.6502
 7790TIP3    H123334   3.103   0.996   0.622 -2.0092 -1.0316 -0.1886
 7790TIP3    H223335   3.146   1.141   0.621  1.3558 -1.9277  0.6938
 7791TIP3   OH223336   0.305   4.278   2.200  0.3740  0.0379  0.6181
 7791TIP3    H123337   0.248   4.232   2.262 -0.0110  1.2084  1.1513
 7791TIP3    H223338   0.254   4.281   2.119  0.0723  0.2101  0.8097
 7792TIP3   OH223339   5.574   2.614   5.295 -0.0358 -0.1767 -0.6160
 7792TIP3    H123340   5.559   2.532   5.343  0.3060  0.9910  1.6025
 7792TIP3    H223341   5.487   2.650   5.281 -0.0658  0.6556  1.3960
 7793TIP3   OH223342   6.030   5.840   5.093  0.0584 -0.6129  0.4074
 7793TIP3    H123343   6.046   5.751   5.126 -1.2105 -0.9064  0.2610
 7793TIP3    H223344   6.065   5.897   5.161 -0.3325 -1.2192  1.1319
 7794TIP3   OH223345   3.502   0.240   2.651 -0.0775 -0.3641 -0.3104
 7794TIP3    H123346   3.504   0.202   2.739  0.3781 -1.1127 -0.6303
 7794TIP3    H223347   3.425   0.296   2.651  1.2221  1.6077  1.3477
 7795TIP3   OH223348   5.662   6.615   5.013 -0.2088 -0.1026  0.6364
 7795TIP3    H123349   5.733   6.677   5.000  0.1071 -0.7867 -1.1630
 7795TIP3    H223350   5.640   6.584   4.925 -2.0553 -0.6755  1.2429
 7796TIP3   OH223351   0.879   1.390   1.263 -0.4231  0.0136 -0.2492
 7796TIP3    H123352   0.876   1.360   1.172 -0.9503  0.5252 -0.4048
 7796TIP3    H223353   0.914   1.479   1.258  0.2421 -0.2241  0.1211
 7797TIP3   OH223354   5.367   6.340   4.750  0.4534  0.4198  0.1867
 7797TIP3    H123355   5.432   6.280   4.787 -0.1185 -0.2601  0.1071
 7797TIP3    H223356   5.291   6.285   4.733 -0.6980  1.4658  1.6553
 7798TIP3   OH223357   3.115   5.223   5.154  0.3940 -0.8733  0.1088
 7798TIP3    H123358   3.079   5.152   5.207 -2.0258 -0.8564 -1.3746
 7798TIP3    H223359   3.158   5.179   5.081 -1.1814 -0.8731 -0.8572
 7799TIP3   OH223360   3.521   3.851   2.558  0.1613  1.3117 -0.1575
 7799TIP3    H123361   3.608   3.820   2.535  0.2110  0.4905  1.0846
 7799TIP3    H223362   3.466   3.773   2.556 -0.1050  1.4446  1.1609
 7800TIP3   OH223363   0.874   5.033   3.705  0.0914 -0.4543  0.0072
 7800TIP3    H123364   0.893   5.007   3.795  1.1761  0.1867 -0.0155
 7800TIP3    H223365   0.850   4.951   3.661  1.3782 -1.0976  0.4383
 7801TIP3   OH223366   4.622   5.599   5.018 -0.1606 -0.1313  0.4885
 7801TIP3    H123367   4.548   5.540   5.008 -1.0327  0.9701  0.1646
 7801TIP3    H223368   4.669   5.566   5.095 -1.8901  0.0507  1.6861
 7802TIP3   OH223369   0.983   5.582   0.144  0.1248  0.0090  1.0642
 7802TIP3    H123370   1.031   5.576   0.061 -0.1333  0.7562  0.8495
 7802TIP3    H223371   0.891   5.588   0.118  0.0942  1.0895  1.3540
 7803TIP3   OH223372   3.467   2.882   4.690  0.2353 -0.2326 -0.2339
 7803TIP3    H123373   3.518   2.935   4.629 -0.8584 -1.6497 -2.5121
 7803TIP3    H223374   3.469   2.794   4.654 -1.9411 -0.7895  0.8039
 7804TIP3   OH223375   7.215   5.869   4.718 -0.4679  0.4756  0.5174
 7804TIP3    H123376   7.162   5.884   4.639  0.2173  1.6436  0.2633
 7804TIP3    H223377   7.204   5.776   4.736 -1.5545  0.4223 -0.2904
 7805TIP3   OH223378   1.472   1.055   2.359  0.1243  0.0061  0.7265
 7805TIP3    H123379   1.513   0.972   2.382 -1.7451 -1.3369 -0.4896
 7805TIP3    H223380   1.544   1.112   2.334  1.3222 -2.0021 -0.6673
 7806TIP3   OH223381   1.087   5.520   2.226  0.0891 -0.6618  0.1485
 7806TIP3    H123382   1.147   5.587   2.193  0.8176 -1.1028  0.5457
 7806TIP3    H223383   1.069   5.464   2.150 -0.2175 -0.2471 -0.0891
 7807TIP3   OH223384   4.435   4.123   2.663 -0.2859 -0.0159  0.0637
 7807TIP3    H123385   4.431   4.171   2.746 -0.7456 -0.2986  0.2116
 7807TIP3    H223386   4.344   4.119   2.634 -0.2858 -0.9771  0.1565
 7808TIP3   OH223387   1.001   2.216   1.601  0.5120 -0.3216  0.4113
 7808TIP3    H123388   1.060   2.158   1.650  0.8962  1.1482  1.7742
 7808TIP3    H223389   0.995   2.295   1.655 -0.2137  0.8072 -1.2440
 7809TIP3   OH223390   6.872   6.452   5.472  0.2377  0.1118  0.4281
 7809TIP3    H123391   6.884   6.358   5.487  0.5621  0.2777  1.2399
 7809TIP3    H223392   6.912   6.494   5.548 -0.0656  0.9045  0.1589
 7810TIP3   OH223393   1.492   1.801   1.613  0.0547 -0.4344  0.3451
 7810TIP3    H123394   1.562   1.753   1.657 -0.6672 -1.0736  0.8076
 7810TIP3    H223395   1.511   1.790   1.519  0.6124 -0.5350  0.4651
 7811TIP3   OH223396   0.527   1.793   1.151  0.2478  0.0820  0.2694
 7811TIP3    H123397   0.468   1.778   1.224  0.3417  0.1340  0.3573
 7811TIP3    H223398   0.596   1.849   1.188  0.4724 -0.1656  0.2271
 7812TIP3   OH223399   0.309   1.625   4.386  0.1965 -0.3957  0.0554
 7812TIP3    H123400   0.268   1.598   4.469 -1.9549  2.2763 -0.0298
 7812TIP3    H223401   0.261   1.577   4.319 -0.3516 -0.0316  0.1799
 7813TIP3   OH223402   1.554   5.386   1.791  0.4275  0.0721 -0.0567
 7813TIP3    H123403   1.635   5.403   1.839 -0.2717 -1.6271  1.9326
 7813TIP3    H223404   1.547   5.291   1.790 -0.5205  0.1271 -2.0484
 7814TIP3   OH223405   4.068   0.377   1.806 -0.5875 -0.3674 -0.4877
 7814TIP3    H123406   4.118   0.424   1.740  1.7771 -0.3549  1.1764
 7814TIP3    H223407   4.057   0.289   1.770  0.4594 -0.2967 -1.0199
 7815TIP3   OH223408   1.197   5.635   3.693  0.7993 -0.0350  0.4563
 7815TIP3    H123409   1.122   5.590   3.733  0.4394  0.4190  0.3047
 7815TIP3    H223410   1.253   5.565   3.659  0.0826 -0.3556 -0.0801
 7816TIP3   OH223411   5.396   6.515   1.468  0.2619  0.1326 -0.0578
 7816TIP3    H123412   5.401   6.611   1.468 -1.3028  0.2562  0.5370
 7816TIP3    H223413   5.304   6.497   1.448  0.5921 -1.2605 -0.4055
 7817TIP3   OH223414   3.589   5.342   2.353 -0.1196  0.2665 -0.5383
 7817TIP3    H123415   3.595   5.249   2.375  0.1009  0.5233  0.5433
 7817TIP3    H223416   3.647   5.386   2.415  1.6584  0.9306 -2.5259
 7818TIP3   OH223417   6.948   6.761   0.436 -0.2805 -0.2236 -0.1177
 7818TIP3    H123418   6.860   6.795   0.424 -0.4530 -0.7483 -0.3919
 7818TIP3    H223419   6.991   6.775   0.352 -0.5761 -1.2862 -0.4715
 7819TIP3   OH223420   7.101   2.543   5.213 -0.3971  0.3803 -0.5719
 7819TIP3    H123421   7.033   2.501   5.267  0.0047  1.0738  0.5004
 7819TIP3    H223422   7.056   2.616   5.171 -0.1230  1.4848  0.9574
 7820TIP3   OH223423   4.979   4.184   3.446 -0.2781 -0.1593  0.1092
 7820TIP3    H123424   5.063   4.157   3.482 -0.6651  1.2202  2.2312
 7820TIP3    H223425   4.962   4.122   3.376  2.0741 -1.0171  0.2130
 7821TIP3   OH223426   6.932   0.032   1.771  0.4810 -0.5394  0.0014
 7821TIP3    H123427   6.924   0.119   1.732 -0.5598 -0.5739  0.1086
 7821TIP3    H223428   7.017  -0.001   1.740  0.7489  0.3892 -0.2727
 7822TIP3   OH223429   4.491   1.190   2.163 -0.2094  0.0318  0.2075
 7822TIP3    H123430   4.401   1.219   2.155 -0.2629 -0.3409 -0.6600
 7822TIP3    H223431   4.520   1.224   2.247 -0.8384  1.0153  0.0375
 7823TIP3   OH223432   1.572   4.684   4.763  0.2364  0.3126  0.0543
 7823TIP3    H123433   1.489   4.638   4.752  1.5224 -1.6589 -2.3647
 7823TIP3    H223434   1.630   4.621   4.806  1.5995  0.0629 -1.9795
 7824TIP3   OH223435   5.255   0.959   5.180 -0.4189  0.3993 -0.2409
 7824TIP3    H123436   5.270   0.888   5.243 -1.6736  0.1037 -0.2560
 7824TIP3    H223437   5.341   0.974   5.140  0.4660  0.7555  1.6924
 7825TIP3   OH223438   2.030   0.581   4.807 -0.5517  0.1861 -0.2350
 7825TIP3    H123439   1.998   0.576   4.717  0.0758 -2.3416 -0.3910
 7825TIP3    H223440   2.125   0.592   4.798 -0.3825 -0.9390  0.0792
 7826TIP3   OH223441   1.232   4.184   1.589 -0.1508  0.0814  0.2127
 7826TIP3    H123442   1.228   4.267   1.636 -0.0057  0.1810  0.0490
 7826TIP3    H223443   1.279   4.125   1.648 -1.0937 -0.1650  0.7462
 7827TIP3   OH223444   0.146   5.298   3.067 -0.2652  0.2408 -0.1810
 7827TIP3    H123445   0.235   5.271   3.044 -0.8489 -0.4723 -1.7178
 7827TIP3    H223446   0.139   5.277   3.160  2.2668  3.4375  0.9398
 7828TIP3   OH223447   2.369   5.081   0.407  0.2040  0.2620  0.0879
 7828TIP3    H123448   2.405   5.009   0.356 -0.4509  1.0162 -1.4914
 7828TIP3    H223449   2.375   5.158   0.350  1.4609  1.6444  1.9333
 7829TIP3   OH223450   5.557   1.986   2.329  0.5924  0.1843  0.1873
 7829TIP3    H123451   5.623   2.030   2.275  0.5154  0.9074  0.6655
 7829TIP3    H223452   5.540   2.047   2.401  0.1980 -0.4696  0.6640
 7830TIP3   OH223453   5.811   1.559   5.870  0.3682 -0.2122  0.0190
 7830TIP3    H123454   5.770   1.478   5.900  0.6431  0.5483  2.6121
 7830TIP3    H223455   5.743   1.626   5.879  0.9819  0.3461  0.6251
 7831TIP3   OH223456   6.966   6.727   2.307 -0.0842  0.7198 -0.9990
 7831TIP3    H123457   6.912   6.655   2.275 -1.2866  1.7223 -1.2855
 7831TIP3    H223458   7.050   6.686   2.328 -0.5737 -0.6699 -1.6302
 7832TIP3   OH223459   4.202   4.016   1.734  0.1187 -0.4444  0.4686
 7832TIP3    H123460   4.191   4.107   1.707 -0.0231 -0.1669  1.4127
 7832TIP3    H223461   4.168   4.014   1.824  0.1852 -1.4134  0.4807
 7833TIP3   OH223462   2.758   0.127   5.488  0.0175 -0.1066  0.0158
 7833TIP3    H123463   2.849   0.142   5.460  0.1728 -1.9715 -0.6468
 7833TIP3    H223464   2.743   0.192   5.556  1.2586  1.3996 -1.0678
 7834TIP3   OH223465   6.982   0.792   1.770 -0.2701  0.1167  0.1678
 7834TIP3    H123466   6.910   0.785   1.708 -0.6584  0.6386  0.5630
 7834TIP3    H223467   6.967   0.722   1.833  0.3888 -0.7326 -0.5754
 7835TIP3   OH223468   4.364   1.996   0.404 -0.4793 -0.1618  0.2866
 7835TIP3    H123469   4.298   2.037   0.459 -0.3221 -0.3462  0.6188
 7835TIP3    H223470   4.344   2.025   0.316 -1.1091 -0.3542  0.3651
 7836TIP3   OH223471   5.930   1.246   2.505 -0.2042  0.3816 -0.5758
 7836TIP3    H123472   5.835   1.248   2.494 -0.1938 -0.5581 -0.9030
 7836TIP3    H223473   5.955   1.158   2.477  0.4669 -0.2797  1.9213
 7837TIP3   OH223474   3.237   4.895   4.667 -0.3290  0.2964  0.1232
 7837TIP3    H123475   3.181   4.966   4.697  0.5739  0.5972  1.1733
 7837TIP3    H223476   3.183   4.816   4.673 -0.9905  0.7340 -0.0038
 7838TIP3   OH223477   6.470   6.660   5.176  0.2940 -0.3587 -0.2544
 7838TIP3    H123478   6.452   6.731   5.238  0.8629  0.2148 -0.7312
 7838TIP3    H223479   6.542   6.612   5.216  0.8770  0.2037 -0.6134
 7839TIP3   OH223480   4.717   3.058   3.859 -0.1113  0.6288  0.7029
 7839TIP3    H123481   4.789   3.120   3.871  0.8103 -0.4620  0.9396
 7839TIP3    H223482   4.711   3.047   3.765  0.6653  0.0249  0.7115
 7840TIP3   OH223483   6.414   3.043   3.025  0.1213 -0.3646 -0.0650
 7840TIP3    H123484   6.434   3.060   2.933 -0.7697  0.0856 -0.1956
 7840TIP3    H223485   6.494   3.007   3.061  0.1332 -1.6927 -1.3094
 7841TIP3   OH223486   3.091   3.816   0.059 -0.0555  0.6476 -0.5811
 7841TIP3    H123487   3.049   3.809  -0.027  1.8093 -0.8517 -1.4611
 7841TIP3    H223488   3.159   3.882   0.048  0.7285 -0.1243 -0.5536
 7842TIP3   OH223489   3.263   0.656   2.626  0.2524  0.1611 -0.4674
 7842TIP3    H123490   3.326   0.628   2.560 -0.9852 -1.0478 -1.1764
 7842TIP3    H223491   3.178   0.655   2.582 -0.2252  2.5976  0.2183
 7843TIP3   OH223492   3.662   2.345   5.729 -0.4084 -0.4437  0.4480
 7843TIP3    H123493   3.614   2.323   5.809 -1.4209  0.0097 -0.0078
 7843TIP3    H223494   3.725   2.412   5.756 -0.9945 -0.0291  0.7996
 7844TIP3   OH223495   4.016   1.357   4.860  0.3801  0.0051  0.1136
 7844TIP3    H123496   3.981   1.269   4.848  0.1292  0.3500 -2.1996
 7844TIP3    H223497   3.939   1.411   4.878  0.0054  0.2472 -1.8869
 7845TIP3   OH223498   6.107   3.928   2.699 -0.2189  0.8977 -0.6342
 7845TIP3    H123499   6.115   4.001   2.761  0.4306  0.4670 -0.1887
 7845TIP3    H223500   6.148   3.854   2.745 -1.1491  0.1687 -0.9500
 7846TIP3   OH223501   0.336   4.617   4.002  0.3093 -0.1302 -0.1452
 7846TIP3    H123502   0.376   4.630   3.916  0.8781  2.5623  0.4347
 7846TIP3    H223503   0.408   4.627   4.063 -0.2126 -1.3466  0.6881
 7847TIP3   OH223504   4.973   4.286   5.702 -0.1693 -0.1269  0.1326
 7847TIP3    H123505   4.971   4.363   5.759  1.5172  1.2765 -1.5801
 7847TIP3    H223506   4.907   4.304   5.635  0.3221 -0.1133 -0.3484
 7848TIP3   OH223507   6.935   5.269   3.962  0.2410  0.0800 -0.5588
 7848TIP3    H123508   6.909   5.310   3.880 -1.2480 -1.3276 -0.8423
 7848TIP3    H223509   6.916   5.176   3.950  1.1729 -0.3501  0.9393
 7849TIP3   OH223510   5.236   3.800   4.335 -0.7123  0.0454 -0.0022
 7849TIP3    H123511   5.194   3.783   4.419 -0.1414  1.5292  0.6202
 7849TIP3    H223512   5.213   3.891   4.315 -0.3527 -0.1055 -1.1571
 7850TIP3   OH223513   3.947   5.856   2.753  0.1749  0.3515  0.3360
 7850TIP3    H123514   3.863   5.896   2.775  0.7288  1.9276 -0.2879
 7850TIP3    H223515   3.925   5.782   2.696 -0.7035  1.8372 -1.3118
 7851TIP3   OH223516   0.620   1.385   5.177 -0.2275  0.7202  0.4463
 7851TIP3    H123517   0.621   1.385   5.273 -0.6450 -0.6155  0.4614
 7851TIP3    H223518   0.529   1.400   5.153 -0.6471 -1.6342  0.3211
 7852TIP3   OH223519   1.050   1.623   5.052 -0.3043  0.0217  0.2441
 7852TIP3    H123520   1.045   1.545   5.107 -1.2560 -0.3403 -0.3228
 7852TIP3    H223521   1.071   1.589   4.965  1.0457  0.5732  0.3380
 7853TIP3   OH223522   3.309   4.716   4.153 -0.0546 -0.0585 -0.5860
 7853TIP3    H123523   3.222   4.694   4.188  0.6876 -1.7535  0.3704
 7853TIP3    H223524   3.292   4.746   4.064 -1.6976  0.6096 -0.0982
 7854TIP3   OH223525   1.279   6.228   0.441  0.4773  0.0378  0.3218
 7854TIP3    H123526   1.250   6.258   0.527 -0.9674  0.0330 -0.1474
 7854TIP3    H223527   1.228   6.280   0.379  1.0035 -0.4494 -0.5330
 7855TIP3   OH223528   7.132   5.850   2.161 -0.4848 -0.1849  0.1364
 7855TIP3    H123529   7.092   5.793   2.095 -1.9120  0.8269  0.0752
 7855TIP3    H223530   7.111   5.939   2.131  2.1479  0.4298 -0.0656
 7856TIP3   OH223531   5.388   2.938   0.467 -0.0966 -0.5277 -0.0204
 7856TIP3    H123532   5.395   2.874   0.537  1.1753 -0.5370 -0.1358
 7856TIP3    H223533   5.380   2.886   0.387 -2.5940 -0.5312  0.1390
 7857TIP3   OH223534   0.174   2.893   0.685  0.6625  0.2805 -0.3076
 7857TIP3    H123535   0.224   2.946   0.747  1.7473 -0.6476 -0.3481
 7857TIP3    H223536   0.169   2.947   0.606  1.4704  0.4737 -0.2365
 7858TIP3   OH223537   4.184   3.871   2.780 -0.0394  0.3125 -0.1480
 7858TIP3    H123538   4.209   3.788   2.739 -0.3226  0.3547 -0.4101
 7858TIP3    H223539   4.240   3.878   2.857 -0.3200 -0.3359  0.1219
 7859TIP3   OH223540   2.600   1.053   1.967  0.2404 -0.3026 -0.1612
 7859TIP3    H123541   2.531   1.064   1.902  0.3652 -0.2813 -0.2913
 7859TIP3    H223542   2.575   1.110   2.040 -0.5369 -1.2430  0.3354
 7860TIP3   OH223543   3.858   0.783   0.520  0.3492  0.1985  0.4098
 7860TIP3    H123544   3.888   0.840   0.592 -0.3568  0.7128  0.3109
 7860TIP3    H223545   3.871   0.835   0.441  0.1796  0.0234  0.2653
 7861TIP3   OH223546   3.930   5.394   3.127  0.0526 -0.4043  0.5465
 7861TIP3    H123547   3.934   5.383   3.222  1.3554  3.2696  1.0832
 7861TIP3    H223548   4.012   5.354   3.095  0.3293 -0.3420  1.1525
 7862TIP3   OH223549   4.440   2.506   0.125 -0.0754 -0.4788 -0.1506
 7862TIP3    H123550   4.370   2.458   0.080 -0.2884  0.4020 -0.7841
 7862TIP3    H223551   4.403   2.526   0.211 -0.0909 -1.1776  0.0152
 7863TIP3   OH223552   1.501   2.910   1.957  0.4975  0.4393  0.0064
 7863TIP3    H123553   1.426   2.970   1.959 -0.0679 -0.2479  1.5913
 7863TIP3    H223554   1.499   2.867   2.043  1.4136 -1.1955 -0.7490
 7864TIP3   OH223555   1.720   6.354   0.237  0.5164 -0.3661  0.1989
 7864TIP3    H123556   1.782   6.370   0.166 -0.7419 -1.1506 -1.1404
 7864TIP3    H223557   1.733   6.427   0.297  0.2554  1.4881 -1.8547
 7865TIP3   OH223558   3.164   5.549   4.806 -0.5002  0.1017 -0.0519
 7865TIP3    H123559   3.137   5.595   4.886  0.8947  0.1428  0.4217
 7865TIP3    H223560   3.117   5.466   4.809 -0.0785 -0.1147  1.0928
 7866TIP3   OH223561   6.125   1.462   2.198  0.0046  0.0628 -0.4106
 7866TIP3    H123562   6.057   1.489   2.260  0.4899  1.5824 -0.4819
 7866TIP3    H223563   6.121   1.527   2.128  1.8909  0.5666 -0.1202
 7867TIP3   OH223564   5.423   1.101   0.170 -0.6701  0.2616  0.4638
 7867TIP3    H123565   5.410   1.007   0.163 -0.3086  0.1372  1.4008
 7867TIP3    H223566   5.468   1.113   0.253 -0.2552  1.2178  0.1117
 7868TIP3   OH223567   2.723   3.125   2.878 -0.0795  0.1188  0.1226
 7868TIP3    H123568   2.763   3.162   2.799 -1.4764  1.9714  0.2031
 7868TIP3    H223569   2.730   3.195   2.943  1.3361 -1.4893  1.8088
 7869TIP3   OH223570   3.069   0.951   4.831  0.1533  0.7987 -0.1342
 7869TIP3    H123571   3.038   0.862   4.845  2.2209 -0.1057 -0.9835
 7869TIP3    H223572   3.019   1.004   4.894 -2.0691 -0.7154 -0.5152
 7870TIP3   OH223573   3.272   4.222   2.411 -0.7272 -0.1986 -0.3843
 7870TIP3    H123574   3.311   4.135   2.415 -0.9673 -0.3239 -0.7314
 7870TIP3    H223575   3.216   4.227   2.488  1.4873  0.7330  1.2922
 7871TIP3   OH223576   3.913   5.867   3.514 -0.4491 -0.0806  0.1859
 7871TIP3    H123577   3.833   5.920   3.520 -0.5233 -0.2328  0.5374
 7871TIP3    H223578   3.950   5.870   3.602 -0.5104 -0.7117  0.2337
 7872TIP3   OH223579   6.829   3.125   5.798 -0.3024  0.5220 -0.2951
 7872TIP3    H123580   6.818   3.102   5.705 -2.0178 -1.3024  0.2705
 7872TIP3    H223581   6.883   3.203   5.797  1.2646 -0.4689 -2.7492
 7873TIP3   OH223582   6.719   0.616   4.840  0.2601  0.6883 -0.6812
 7873TIP3    H123583   6.761   0.598   4.924 -1.0691 -0.2591 -0.1797
 7873TIP3    H223584   6.707   0.711   4.840 -0.3502  0.6367  0.5348
 7874TIP3   OH223585   3.112   1.388   0.923 -0.2108 -0.1223  0.1200
 7874TIP3    H123586   3.167   1.375   0.846  0.4909 -0.7830  0.7097
 7874TIP3    H223587   3.164   1.352   0.996 -2.5294 -3.5655  0.3452
 7875TIP3   OH223588   4.591   1.619   4.838  0.2128 -0.8146 -0.1192
 7875TIP3    H123589   4.679   1.649   4.859  0.5916 -2.2443  0.3794
 7875TIP3    H223590   4.595   1.524   4.842 -1.5131 -0.8985  0.5755
 7876TIP3   OH223591   0.205   4.524   4.386  0.0192  0.5426  0.4908
 7876TIP3    H123592   0.122   4.488   4.416  0.4495 -1.0163 -0.1021
 7876TIP3    H223593   0.227   4.591   4.451 -1.5803  0.8312  0.7691
 7877TIP3   OH223594   5.354   2.750   2.995  0.0610  0.5700  0.1605
 7877TIP3    H123595   5.316   2.816   2.937  0.7605  1.2484  0.4555
 7877TIP3    H223596   5.377   2.799   3.074  0.0213 -0.1520  0.6276
 7878TIP3   OH223597   3.403   3.140   0.011 -0.3447  0.1889  0.3363
 7878TIP3    H123598   3.451   3.087   0.074  0.3509 -3.3300 -2.8018
 7878TIP3    H223599   3.311   3.123   0.031 -0.1301 -1.6083 -0.0193
 7879TIP3   OH223600   2.550   6.122   3.329  0.1090  0.0211  0.1971
 7879TIP3    H123601   2.489   6.065   3.375 -0.9707  1.4530  0.6311
 7879TIP3    H223602   2.587   6.179   3.397  0.5939  0.3291 -0.3134
 7880TIP3   OH223603   4.350   2.814   1.291 -0.0070 -0.1595  0.3816
 7880TIP3    H123604   4.255   2.806   1.298  0.0005  0.6313  1.8056
 7880TIP3    H223605   4.368   2.906   1.309  1.0477 -0.3168  0.2287
 7881TIP3   OH223606   5.404   0.622   2.741  0.4683  0.0048  0.1949
 7881TIP3    H123607   5.493   0.614   2.705  0.7729 -1.4731  1.1721
 7881TIP3    H223608   5.349   0.573   2.681  0.0148  2.0440 -1.1734
 7882TIP3   OH223609   5.828   5.892   1.068 -0.4890  0.5703 -0.0094
 7882TIP3    H123610   5.834   5.809   1.115 -1.3592  0.6495  0.2566
 7882TIP3    H223611   5.751   5.883   1.013  0.7307  0.3269 -1.7562
 7883TIP3   OH223612   3.999   6.437   2.509 -0.3509 -0.0458  0.1122
 7883TIP3    H123613   3.924   6.437   2.449  0.0076 -1.8461 -0.4126
 7883TIP3    H223614   4.068   6.393   2.460  1.2502  2.0048  0.4086
 7884TIP3   OH223615   3.710   0.710   0.178  0.3554  0.1433 -0.3069
 7884TIP3    H123616   3.677   0.652   0.246 -0.5500  0.8664 -0.0995
 7884TIP3    H223617   3.796   0.738   0.209  1.4638 -2.1903 -1.0984
 7885TIP3   OH223618   6.693   6.096   2.541 -0.0378  0.0902 -0.1337
 7885TIP3    H123619   6.715   6.168   2.482 -1.7519  0.0427 -0.8941
 7885TIP3    H223620   6.721   6.017   2.494  1.3554  0.1972  0.4699
 7886TIP3   OH223621   5.018   3.642   4.190 -0.3045  0.0596 -0.0323
 7886TIP3    H123622   5.023   3.552   4.221 -0.2298  0.2265  0.4562
 7886TIP3    H223623   5.076   3.691   4.249 -0.8942  0.5462  0.1570
 7887TIP3   OH223624   2.607   0.234   3.732 -0.1826 -0.5346  0.5036
 7887TIP3    H123625   2.632   0.239   3.640  0.2351 -1.6097  0.5379
 7887TIP3    H223626   2.655   0.159   3.766  0.3153  0.3396  1.8153
 7888TIP3   OH223627   2.007   4.183   4.665 -0.1222  0.3525 -0.0287
 7888TIP3    H123628   1.938   4.230   4.618 -0.8464 -0.8037 -0.1620
 7888TIP3    H223629   2.069   4.159   4.597 -0.8836 -0.8210 -0.3334
 7889TIP3   OH223630   1.331   4.971   5.735 -0.1192 -0.1379 -0.4171
 7889TIP3    H123631   1.409   5.012   5.773 -0.4002 -0.1606  0.1925
 7889TIP3    H223632   1.258   5.026   5.764 -0.8373 -2.3592  2.5864
 7890TIP3   OH223633   0.850   0.259   5.713 -0.1617  0.1525 -0.1221
 7890TIP3    H123634   0.905   0.263   5.635  0.2702  0.3436  0.1921
 7890TIP3    H223635   0.795   0.337   5.707 -2.1289 -1.2337 -1.6907
 7891TIP3   OH223636   0.208   5.396   0.420 -0.3740 -0.6240  0.1873
 7891TIP3    H123637   0.267   5.459   0.379 -0.8551  0.8334  1.6235
 7891TIP3    H223638   0.260   5.317   0.431  0.8581  0.1550  0.1108
 7892TIP3   OH223639   3.661   1.192   0.656  0.4150 -0.3302  0.3260
 7892TIP3    H123640   3.688   1.250   0.585 -0.9484  0.9479  0.7934
 7892TIP3    H223641   3.627   1.114   0.612  1.7512 -0.5611 -0.3319
 7893TIP3   OH223642   6.322   0.507   0.277  0.6158  0.1207 -0.0801
 7893TIP3    H123643   6.358   0.552   0.201  0.7052  0.9407  0.4270
 7893TIP3    H223644   6.228   0.497   0.258  0.8094 -0.5767 -0.7121
 7894TIP3   OH223645   5.234   1.483   4.897  0.1466  0.0654 -0.0916
 7894TIP3    H123646   5.295   1.494   4.824 -1.2209  0.5066 -1.1978
 7894TIP3    H223647   5.206   1.572   4.919 -0.1026 -0.1341  0.4186
 7895TIP3   OH223648   3.073   0.030   2.299 -0.1149 -1.0967  0.2266
 7895TIP3    H123649   3.073   0.083   2.379 -0.8090 -1.3291  0.3931
 7895TIP3    H223650   3.054   0.092   2.229 -0.8307 -1.0972  0.4089
 7896TIP3   OH223651   1.735   1.983   5.204  0.1410  0.0678  0.0158
 7896TIP3    H123652   1.660   1.931   5.176 -1.5617  1.7772  1.1642
 7896TIP3    H223653   1.771   1.935   5.278  0.2235 -0.7534 -0.5315
 7897TIP3   OH223654   2.779   4.107   4.546 -0.0932 -0.9292 -0.2639
 7897TIP3    H123655   2.865   4.149   4.539 -0.4262 -0.2609 -0.3663
 7897TIP3    H223656   2.767   4.062   4.462 -0.2571 -0.2238 -0.6234
 7898TIP3   OH223657   0.057   2.884   0.975  0.6485  0.1091  0.3774
 7898TIP3    H123658   0.139   2.841   0.996  1.6038  0.6298 -1.9791
 7898TIP3    H223659   0.082   2.963   0.926 -1.2182 -0.7759 -2.2342
 7899TIP3   OH223660   2.704   6.637   4.764  0.3978  0.9229  0.3994
 7899TIP3    H123661   2.639   6.656   4.696  1.7246  1.5276 -0.7525
 7899TIP3    H223662   2.727   6.723   4.799 -0.7866  0.5784  2.1777
 7900TIP3   OH223663   7.029   4.824   0.920 -0.0801 -0.5496  0.0327
 7900TIP3    H123664   6.997   4.764   0.988 -0.9182  0.1768  0.2967
 7900TIP3    H223665   7.107   4.864   0.958 -0.9018  0.3295  0.8516
 7901TIP3   OH223666  -0.004   4.498   1.810 -0.1831 -0.7387 -0.1875
 7901TIP3    H123667   0.009   4.468   1.720 -1.4325  0.4984 -0.8175
 7901TIP3    H223668   0.022   4.590   1.808 -2.3982 -0.0518  0.1098
 7902TIP3   OH223669   3.412   0.228   1.707  0.5892 -0.6458  0.6747
 7902TIP3    H123670   3.341   0.246   1.644 -0.8045  0.0803  2.3789
 7902TIP3    H223671   3.482   0.191   1.653 -0.9319 -1.0620 -1.1492
 7903TIP3   OH223672   5.858   4.174   1.468  0.1235  0.3325  0.2958
 7903TIP3    H123673   5.791   4.122   1.513 -0.2574  0.5881  0.0202
 7903TIP3    H223674   5.876   4.125   1.388  1.0558 -0.3090  0.8713
 7904TIP3   OH223675   5.869   2.692   4.085 -0.7414 -0.2842  0.3804
 7904TIP3    H123676   5.868   2.674   3.991  0.9525  2.7088 -0.3477
 7904TIP3    H223677   5.930   2.628   4.121 -0.1535 -0.4646 -0.8758
 7905TIP3   OH223678   4.460   6.454   1.742  0.0272 -0.0540 -0.2352
 7905TIP3    H123679   4.456   6.358   1.736 -1.8539 -0.0557  0.4888
 7905TIP3    H223680   4.527   6.471   1.808  0.0048 -0.8910  0.0238
 7906TIP3   OH223681   7.135   4.645   0.669  0.8323 -0.1254  0.3165
 7906TIP3    H123682   7.159   4.720   0.724 -0.4383 -0.2109  1.0171
 7906TIP3    H223683   7.081   4.682   0.600  0.8488 -0.2929  0.2127
 7907TIP3   OH223684   4.253   0.235   3.213  0.3335  0.0229  0.0809
 7907TIP3    H123685   4.190   0.179   3.258 -0.2705 -0.0346 -0.8100
 7907TIP3    H223686   4.325   0.176   3.191  0.2403 -0.1359  0.1965
 7908TIP3   OH223687   6.490   4.989   5.296 -0.4777  0.1057  0.1512
 7908TIP3    H123688   6.433   5.036   5.235  0.1258  1.2176  0.4097
 7908TIP3    H223689   6.510   4.907   5.252 -0.4571  0.6682 -0.9326
 7909TIP3   OH223690   1.643   4.760   3.000 -0.6712  0.1393  0.4850
 7909TIP3    H123691   1.732   4.726   3.001 -0.9060 -0.4848  1.1843
 7909TIP3    H223692   1.614   4.755   3.091 -1.4710  0.1861  0.2424
 7910TIP3   OH223693   7.145   0.536   4.185 -0.4242  0.4769  0.4833
 7910TIP3    H123694   7.130   0.474   4.113  0.5953 -0.2491  0.8704
 7910TIP3    H223695   7.144   0.622   4.144  1.1021  0.0262 -0.5756
 7911TIP3   OH223696   1.259   4.855   3.103  1.0929  0.2239  0.2825
 7911TIP3    H123697   1.277   4.781   3.161 -0.1382 -0.1402  0.2290
 7911TIP3    H223698   1.180   4.896   3.139  0.4842  0.1711 -0.9354
 7912TIP3   OH223699   4.445   2.325   2.081  0.2884  0.2480  0.2894
 7912TIP3    H123700   4.540   2.319   2.072  0.2125 -0.0825 -0.3299
 7912TIP3    H223701   4.416   2.369   2.001 -0.1900 -0.6922 -0.0631
 7913TIP3   OH223702   0.232   3.162   2.987  0.0244 -0.1748 -0.9007
 7913TIP3    H123703   0.323   3.137   2.972  0.4391  0.4807  0.3862
 7913TIP3    H223704   0.233   3.258   2.989 -0.2697 -0.1687  1.3427
 7914TIP3   OH223705   3.025   1.551   3.772  0.1706  0.2068 -0.1335
 7914TIP3    H123706   2.941   1.517   3.741  0.1799  0.0581  0.0070
 7914TIP3    H223707   3.005   1.639   3.803 -0.0180  0.0144  0.2980
 7915TIP3   OH223708   0.271   0.597   4.121  0.2032  0.2468 -0.5574
 7915TIP3    H123709   0.293   0.686   4.094  0.0059  0.3107 -0.5140
 7915TIP3    H223710   0.183   0.582   4.086 -0.5823  0.7847  1.0731
 7916TIP3   OH223711   1.102   5.938   3.211 -0.3593 -0.0412 -0.4007
 7916TIP3    H123712   1.184   5.961   3.254  0.3849  1.5269 -2.4597
 7916TIP3    H223713   1.105   5.986   3.128 -2.0729 -2.1787 -1.8088
 7917TIP3   OH223714   0.026   5.099   2.045  0.3525 -0.1963 -0.4563
 7917TIP3    H123715   0.056   5.162   1.980 -2.4004  1.2281 -0.5236
 7917TIP3    H223716   0.064   5.129   2.127  1.4929 -0.2887 -0.9304
 7918TIP3   OH223717   6.278   5.320   5.227 -0.2893 -0.2128 -0.3632
 7918TIP3    H123718   6.314   5.408   5.216  0.6730 -0.7001 -1.3364
 7918TIP3    H223719   6.310   5.271   5.151 -1.2426 -1.2682 -0.1155
 7919TIP3   OH223720   2.101   0.483   1.107 -0.1042  0.2636  0.2313
 7919TIP3    H123721   2.079   0.522   1.022 -1.2271 -0.7320  0.0237
 7919TIP3    H223722   2.018   0.480   1.154  0.4337  0.4220  1.2217
 7920TIP3   OH223723   1.126   6.084   0.670  0.1413 -0.1622 -0.2664
 7920TIP3    H123724   1.083   6.034   0.740  0.4092  0.7791  0.5975
 7920TIP3    H223725   1.090   6.049   0.589  0.1932 -1.6376  0.3159
 7921TIP3   OH223726   6.217   0.392   4.868  0.2133 -0.1752  0.3587
 7921TIP3    H123727   6.274   0.386   4.791  0.4443 -0.8447  0.5700
 7921TIP3    H223728   6.170   0.308   4.868  0.4124 -0.2913  1.0981
 7922TIP3   OH223729   3.225   2.959   3.329  0.2544  0.6307  0.6147
 7922TIP3    H123730   3.294   2.912   3.377  1.2690 -0.1533 -1.4866
 7922TIP3    H223731   3.251   3.051   3.332  2.7155  0.1431 -1.9915
 7923TIP3   OH223732   4.457   1.293   5.354  0.0561  0.1466  0.0225
 7923TIP3    H123733   4.439   1.225   5.418 -1.0486  0.4466  0.0638
 7923TIP3    H223734   4.462   1.247   5.270  2.1517 -0.3302  0.3700
 7924TIP3   OH223735   2.587   5.560   2.583 -0.5139  0.3146 -0.0918
 7924TIP3    H123736   2.558   5.470   2.568  0.0987  0.0057  0.5334
 7924TIP3    H223737   2.508   5.613   2.576 -1.4507 -0.5940  2.5498
 7925TIP3   OH223738   6.686   3.682   5.882 -0.0392  0.0250 -0.8021
 7925TIP3    H123739   6.602   3.642   5.904  0.6437 -0.8072  0.4312
 7925TIP3    H223740   6.740   3.610   5.850  1.0336 -0.0276  0.9321
 7926TIP3   OH223741   0.241   5.275   3.328 -0.1537  0.3024  0.4008
 7926TIP3    H123742   0.313   5.338   3.327 -0.3032  0.4787 -0.4590
 7926TIP3    H223743   0.283   5.190   3.329  0.1116  0.3815 -1.2052
 7927TIP3   OH223744   5.813   2.434   1.463 -0.1288 -0.0499  0.4759
 7927TIP3    H123745   5.747   2.389   1.516 -0.2471 -2.0219 -1.2201
 7927TIP3    H223746   5.874   2.365   1.437  1.0013  1.2136 -0.3711
 7928TIP3   OH223747   6.294   0.795   3.134  0.6286  0.2758 -0.3631
 7928TIP3    H123748   6.216   0.850   3.123  1.0579  0.7948 -0.8216
 7928TIP3    H223749   6.294   0.739   3.057 -1.8223 -2.9791  1.7043
 7929TIP3   OH223750   1.925   0.666   5.380  0.4568  0.3845 -0.2116
 7929TIP3    H123751   1.997   0.609   5.408  0.6640  0.6073 -0.2923
 7929TIP3    H223752   1.925   0.659   5.285 -0.7253 -0.9605 -0.1457
 7930TIP3   OH223753   2.688   3.606   4.825  0.4318 -0.2111  0.1034
 7930TIP3    H123754   2.692   3.663   4.902 -0.5512 -0.4119  0.3178
 7930TIP3    H223755   2.610   3.633   4.779  1.3767  0.3571 -1.2134
 7931TIP3   OH223756   4.950   5.314   1.407  0.1472  0.3903 -0.1859
 7931TIP3    H123757   5.030   5.297   1.358  1.7497 -1.8484  2.8385
 7931TIP3    H223758   4.953   5.251   1.480 -3.4285  1.5226  1.1502
 7932TIP3   OH223759   6.942   1.558   2.772  0.3345 -0.3950 -0.4432
 7932TIP3    H123760   6.966   1.470   2.743 -0.6792 -0.4375 -1.2216
 7932TIP3    H223761   6.873   1.545   2.836  1.6643 -0.2335  1.0838
 7933TIP3   OH223762   0.046   6.219   1.347  0.7106 -0.2900 -0.0352
 7933TIP3    H123763   0.114   6.286   1.348 -1.0685  1.6415  1.2524
 7933TIP3    H223764   0.054   6.176   1.433 -0.0695  0.4139  0.4081
 7934TIP3   OH223765   2.463   4.461   4.890 -0.3552  0.3532 -0.1300
 7934TIP3    H123766   2.389   4.444   4.833 -0.2976 -0.4099  0.0092
 7934TIP3    H223767   2.473   4.381   4.941  0.0687  0.7407  0.4134
 7935TIP3   OH223768   4.451   4.946   1.671  0.8033  0.1435 -0.2802
 7935TIP3    H123769   4.436   5.038   1.694 -0.7015 -0.4927  1.5026
 7935TIP3    H223770   4.507   4.913   1.741 -0.8393 -0.9255  0.5941
 7936TIP3   OH223771   5.604   0.932   3.088 -0.1791 -0.7600 -0.0465
 7936TIP3    H123772   5.621   1.026   3.085  0.9464 -0.9409  0.2369
 7936TIP3    H223773   5.524   0.925   3.141  0.7152 -0.0532  1.4826
 7937TIP3   OH223774   2.463   4.450   1.981 -0.1959  0.4190 -0.3302
 7937TIP3    H123775   2.378   4.485   1.954  0.5477  2.6370 -0.0213
 7937TIP3    H223776   2.514   4.444   1.900 -0.5635 -0.7419 -0.4905
 7938TIP3   OH223777   4.538   2.244   0.367  0.2939 -0.1268  0.1707
 7938TIP3    H123778   4.458   2.294   0.381 -0.2238 -0.7910 -0.3537
 7938TIP3    H223779   4.586   2.292   0.301 -0.1299 -0.2341 -0.2204
 7939TIP3   OH223780   6.583   1.205   1.556 -0.5056  0.3283 -1.0264
 7939TIP3    H123781   6.615   1.267   1.621 -1.0924 -1.3861  1.0187
 7939TIP3    H223782   6.500   1.242   1.526 -0.0831  1.2801 -1.0462
 7940TIP3   OH223783   3.589   6.635   1.086  0.1097 -0.4551 -0.1445
 7940TIP3    H123784   3.639   6.693   1.144 -1.3326  2.1622 -1.3734
 7940TIP3    H223785   3.649   6.561   1.070  1.8414  0.3799  1.8905
 7941TIP3   OH223786   2.467   1.338   2.030 -0.4484  0.2643  0.1711
 7941TIP3    H123787   2.427   1.422   2.055  0.9130  0.7607  0.7747
 7941TIP3    H223788   2.405   1.300   1.968 -2.4827  0.4045  1.9708
 7942TIP3   OH223789   6.645   6.481   4.739  0.4367  0.5672 -0.1205
 7942TIP3    H123790   6.705   6.415   4.775  0.7346  0.3751 -0.9352
 7942TIP3    H223791   6.570   6.480   4.798  0.3512 -0.6540 -0.2151
 7943TIP3   OH223792   1.144   5.201  -0.009 -0.1516  0.5179  0.1686
 7943TIP3    H123793   1.089   5.133  -0.049  0.1042  0.1391  0.4608
 7943TIP3    H223794   1.157   5.172   0.081 -0.4689  1.2169  0.4499
 7944TIP3   OH223795   3.142   1.003   2.342  0.1448  0.0168  0.5334
 7944TIP3    H123796   3.227   1.043   2.361 -0.0316  0.6157  0.0745
 7944TIP3    H223797   3.150   0.914   2.375  0.5371  0.4286  1.5778
 7945TIP3   OH223798   2.051   5.687   0.616  0.4755 -0.0431  0.3404
 7945TIP3    H123799   1.960   5.714   0.608 -0.5940 -3.6050 -1.1515
 7945TIP3    H223800   2.087   5.698   0.528  1.1164  0.0479  0.6062
 7946TIP3   OH223801  -0.010   3.194   2.347 -0.0493 -0.6255  0.5532
 7946TIP3    H123802  -0.060   3.120   2.382 -0.8302 -1.2102 -1.6399
 7946TIP3    H223803   0.082   3.168   2.359 -0.3061 -1.8926  0.0338
 7947TIP3   OH223804   2.707   5.477   1.305 -0.3087 -0.2886 -0.1785
 7947TIP3    H123805   2.710   5.423   1.384  1.8834 -0.0915 -0.0748
 7947TIP3    H223806   2.743   5.421   1.236  0.8989  0.6281 -0.3152
 7948TIP3   OH223807   2.625   0.998   0.723 -0.0945  0.0396  0.0513
 7948TIP3    H123808   2.578   0.927   0.679  1.5946 -0.6253 -0.7702
 7948TIP3    H223809   2.677   1.038   0.654  0.4590  0.8118  0.9031
 7949TIP3   OH223810   1.922   5.037   3.314  0.3825 -0.7814  0.1319
 7949TIP3    H123811   1.831   5.034   3.285 -0.1621 -0.1759  1.6642
 7949TIP3    H223812   1.916   5.047   3.409  2.0562 -1.5062  0.3433
 7950TIP3   OH223813   1.714   4.339  -0.021 -0.3306 -0.2325  0.2253
 7950TIP3    H123814   1.686   4.247  -0.025 -3.0498  0.5487 -0.0785
 7950TIP3    H223815   1.774   4.342   0.053  0.0557 -2.2935  0.0724
 7951TIP3   OH223816   0.956   6.277   3.924 -0.1064  1.2994 -0.1215
 7951TIP3    H123817   0.881   6.228   3.888  0.4230  1.3661 -1.3630
 7951TIP3    H223818   0.918   6.358   3.957 -0.8667  0.4683  1.1315
 7952TIP3   OH223819   0.298   6.702   4.742 -0.5530  0.5274 -0.3056
 7952TIP3    H123820   0.343   6.636   4.690 -3.8825  0.0296 -2.9274
 7952TIP3    H223821   0.249   6.652   4.808 -3.0739  0.1813 -2.2904
 7953TIP3   OH223822   5.732   4.537   3.390 -0.2834  0.2904 -0.3638
 7953TIP3    H123823   5.689   4.623   3.392 -0.0502  0.4024  1.6454
 7953TIP3    H223824   5.808   4.551   3.333  2.3808  2.8725  3.2918
 7954TIP3   OH223825   5.090   4.824   0.220 -0.1905 -0.4838 -0.7211
 7954TIP3    H123826   5.154   4.778   0.274  0.6554 -0.3342 -1.5854
 7954TIP3    H223827   5.037   4.873   0.284  1.6908  0.8397 -0.0797
 7955TIP3   OH223828   2.522   0.473   5.326  0.0126  0.4134 -0.2678
 7955TIP3    H123829   2.595   0.520   5.366  1.6490 -0.8077 -1.6777
 7955TIP3    H223830   2.510   0.516   5.241  0.0605 -0.3106 -0.6441
 7956TIP3   OH223831   1.690   6.096   0.923  0.4641 -0.6665  0.0488
 7956TIP3    H123832   1.764   6.112   0.865  0.0038 -0.4273 -0.4750
 7956TIP3    H223833   1.687   6.001   0.933  0.5390 -0.7070 -0.3172
 7957TIP3   OH223834   2.360   2.191   4.300 -0.3936 -0.2461  0.1114
 7957TIP3    H123835   2.265   2.179   4.289 -0.5947  0.0626  1.3861
 7957TIP3    H223836   2.397   2.105   4.281 -1.0136 -0.5834  0.3960
 7958TIP3   OH223837   6.346   4.618   1.369  0.5022  0.5878 -0.3627
 7958TIP3    H123838   6.360   4.705   1.331  1.1509  0.0836 -1.3249
 7958TIP3    H223839   6.282   4.577   1.312  0.5243  0.2702 -0.1619
 7959TIP3   OH223840   3.333   3.399   2.051  0.7599 -0.2426  0.0889
 7959TIP3    H123841   3.361   3.465   1.987 -0.0158 -2.0313 -2.2605
 7959TIP3    H223842   3.412   3.382   2.103  1.7670  0.4729 -1.1366
 7960TIP3   OH223843   6.826   1.955   1.726 -0.9241  0.3496  0.5493
 7960TIP3    H123844   6.916   1.924   1.714 -0.3043  0.7493  3.4807
 7960TIP3    H223845   6.784   1.937   1.642  1.6667 -0.5398 -0.6856
 7961TIP3   OH223846   0.293   4.252   2.846 -0.5770 -0.5306  0.0128
 7961TIP3    H123847   0.206   4.211   2.842 -0.1512 -1.4055 -0.7294
 7961TIP3    H223848   0.354   4.180   2.831  0.2779  0.1069  0.3412
 7962TIP3   OH223849   4.499   2.334   1.205 -0.2437 -0.3225 -0.5183
 7962TIP3    H123850   4.407   2.342   1.182 -0.5029 -0.6853  0.3577
 7962TIP3    H223851   4.534   2.271   1.142 -0.5891 -0.1947 -0.8439
 7963TIP3   OH223852   6.937   3.707   2.545 -0.0417  0.4602  0.0790
 7963TIP3    H123853   6.962   3.699   2.637 -1.1341 -0.1542  0.3527
 7963TIP3    H223854   6.878   3.632   2.531 -0.5443  1.0240 -0.8854
 7964TIP3   OH223855   4.236   1.687   0.246 -0.6111 -0.5808 -0.3756
 7964TIP3    H123856   4.187   1.644   0.175 -0.4234 -0.4286 -0.5988
 7964TIP3    H223857   4.257   1.774   0.211 -0.5455 -0.4949 -0.1200
 7965TIP3   OH223858   1.071   5.054   5.246  0.1853 -0.1535  0.0233
 7965TIP3    H123859   1.099   5.073   5.335 -0.1431 -0.6250  0.2273
 7965TIP3    H223860   1.145   5.005   5.208  0.8868  1.1680 -0.3950
 7966TIP3   OH223861   1.264   0.773   5.524 -0.3354 -0.1369 -0.3828
 7966TIP3    H123862   1.331   0.754   5.589 -0.1193  0.0481 -0.5480
 7966TIP3    H223863   1.271   0.868   5.510  0.9641 -0.4623 -2.1394
 7967TIP3   OH223864   4.803   0.894   5.456  0.0928 -0.2726  0.0566
 7967TIP3    H123865   4.802   0.984   5.424  2.3388  0.2454  1.2566
 7967TIP3    H223866   4.786   0.902   5.550 -0.9476 -1.2475 -0.0306
 7968TIP3   OH223867   4.070   1.567   1.018 -0.5716  0.1052 -0.5358
 7968TIP3    H123868   4.082   1.662   1.026 -1.9469  0.4648 -2.1314
 7968TIP3    H223869   3.994   1.558   0.960  0.0236 -1.9823 -1.0483
 7969TIP3   OH223870   6.873   4.490   3.789  0.3173 -0.8409 -0.4847
 7969TIP3    H123871   6.949   4.494   3.846 -0.9368 -2.7767  1.5123
 7969TIP3    H223872   6.842   4.580   3.782  1.6598 -0.3077  0.2545
 7970TIP3   OH223873   6.937   4.388   3.214  0.1979  0.6596  0.1767
 7970TIP3    H123874   6.865   4.325   3.213 -0.5987  1.5499 -1.1715
 7970TIP3    H223875   6.983   4.370   3.296  0.3631 -2.0729 -0.4314
 7971TIP3   OH223876   4.733   4.164   3.601 -0.2135 -0.1670  0.1167
 7971TIP3    H123877   4.748   4.107   3.677 -1.0427  2.6159  2.5726
 7971TIP3    H223878   4.820   4.178   3.564  0.0835 -2.4617 -0.2394
 7972TIP3   OH223879   2.254   5.907   3.794 -0.2975  0.2247  0.2892
 7972TIP3    H123880   2.202   5.937   3.719 -0.1644 -0.3182 -0.0246
 7972TIP3    H223881   2.300   5.985   3.824 -1.6858  0.8526  0.9108
 7973TIP3   OH223882   4.312   4.654   0.626 -0.1112  0.3067  0.1602
 7973TIP3    H123883   4.239   4.676   0.567 -0.1305 -1.4378 -0.5371
 7973TIP3    H223884   4.346   4.739   0.654 -0.4546  1.2263 -1.9509
 7974TIP3   OH223885   1.323   0.006   5.234  0.0718  0.0851  0.5017
 7974TIP3    H123886   1.277   0.087   5.257  0.9522  1.2052 -1.4239
 7974TIP3    H223887   1.276  -0.028   5.159 -0.2328 -1.1879  1.2410
 7975TIP3   OH223888   0.915   0.543   4.631  0.1011  0.0542  0.3957
 7975TIP3    H123889   0.895   0.461   4.586  1.2345 -0.0303  0.0098
 7975TIP3    H223890   0.893   0.526   4.723 -2.0827  0.1817 -0.0686
 7976TIP3   OH223891   3.558   0.060   0.585 -0.9298  0.1265  0.3791
 7976TIP3    H123892   3.619   0.134   0.593 -2.5061  1.7029 -1.1279
 7976TIP3    H223893   3.546   0.049   0.491 -1.4429 -1.4632  0.6120
 7977TIP3   OH223894   6.698   3.579   4.560  0.6871 -0.0732 -0.7210
 7977TIP3    H123895   6.687   3.497   4.608 -0.8585  0.4130 -0.2035
 7977TIP3    H223896   6.712   3.644   4.628 -1.2333  0.5778 -0.8916
 7978TIP3   OH223897   0.226   0.202   3.495 -0.8704  0.2003  0.1208
 7978TIP3    H123898   0.267   0.192   3.409 -0.8019 -2.1844  0.3489
 7978TIP3    H223899   0.133   0.187   3.479 -0.9315  0.2961  0.3823
 7979TIP3   OH223900   2.006   5.537   1.441  0.1546  0.6998 -0.2214
 7979TIP3    H123901   1.984   5.630   1.437 -0.9399  0.4526 -0.1736
 7979TIP3    H223902   1.941   5.499   1.500  1.2070  0.0657  0.5713
 7980TIP3   OH223903   0.322   6.260   1.795 -0.2039 -0.4135  0.0129
 7980TIP3    H123904   0.278   6.341   1.768  0.2331 -0.4076 -0.6941
 7980TIP3    H223905   0.414   6.274   1.775  0.1440 -0.4201  1.5190
 7981TIP3   OH223906   1.813   3.864   1.342  0.1656  0.5208  0.0653
 7981TIP3    H123907   1.792   3.896   1.430  1.4799  0.4847  0.4130
 7981TIP3    H223908   1.844   3.775   1.356 -0.2992  0.2546 -0.5325
 7982TIP3   OH223909   5.955   5.323   3.721 -0.0444  0.4527 -0.6449
 7982TIP3    H123910   5.955   5.260   3.793  0.8801  0.4664 -0.6128
 7982TIP3    H223911   6.046   5.355   3.717 -0.3266  1.2302 -1.1371
 7983TIP3   OH223912   5.706   0.421   1.169  0.0715  0.0646 -0.4491
 7983TIP3    H123913   5.647   0.395   1.240  0.4351  0.1020 -0.1358
 7983TIP3    H223914   5.788   0.443   1.212  0.4625 -0.4311 -0.9292
 7984TIP3   OH223915   5.114   3.822   5.326 -0.0159 -0.6280  0.1090
 7984TIP3    H123916   5.169   3.855   5.398  1.4170 -0.5965 -0.9642
 7984TIP3    H223917   5.038   3.784   5.370 -0.9305  2.4728  1.5132
 7985TIP3   OH223918   4.483   2.024   5.068 -0.3225  0.0723  0.2752
 7985TIP3    H123919   4.567   2.019   5.112  0.1256  0.2159 -0.5331
 7985TIP3    H223920   4.459   2.117   5.074  1.7070  1.0339 -3.1966
 7986TIP3   OH223921   3.859   4.044   3.110  0.2407  0.5075 -0.7361
 7986TIP3    H123922   3.802   4.120   3.100 -0.0233  0.4282  0.1203
 7986TIP3    H223923   3.834   4.006   3.194 -1.0096 -1.6829 -2.0012
 7987TIP3   OH223924   7.206   5.212   3.984  0.0190 -0.9424 -0.4431
 7987TIP3    H123925   7.245   5.253   4.061 -0.4048 -1.6979  0.1991
 7987TIP3    H223926   7.111   5.218   3.999 -0.0577 -2.1868 -0.2916
 7988TIP3   OH223927   6.908   5.888   2.429  1.1183  0.8037 -0.7212
 7988TIP3    H123928   6.983   5.948   2.428  2.2244 -0.3451  2.3527
 7988TIP3    H223929   6.938   5.812   2.478 -2.1985  0.5526  1.2810
 7989TIP3   OH223930   0.457   4.180   5.680  0.3918  0.3295  0.1285
 7989TIP3    H123931   0.476   4.098   5.725  1.5424  1.1510  1.2181
 7989TIP3    H223932   0.372   4.207   5.715  0.2338 -0.1535  0.1227
 7990TIP3   OH223933   6.492   5.105   4.596  0.5111  0.2624 -0.5838
 7990TIP3    H123934   6.445   5.091   4.513  0.1148  0.5463 -0.4113
 7990TIP3    H223935   6.504   5.017   4.632  0.5330  0.1511 -0.8584
 7991TIP3   OH223936   4.635   2.185   1.578  0.1580 -0.0015 -0.1905
 7991TIP3    H123937   4.683   2.182   1.661 -1.1546 -0.2294  0.5896
 7991TIP3    H223938   4.695   2.227   1.517  0.2455  2.5357  1.4984
 7992TIP3   OH223939   6.685   0.788   5.677 -0.3261 -0.1682 -0.1717
 7992TIP3    H123940   6.653   0.698   5.678  1.0215 -0.6899  1.5173
 7992TIP3    H223941   6.631   0.834   5.742 -1.6502  0.5372 -1.7029
 7993TIP3   OH223942   4.502   3.714   1.441  0.1764 -0.1497  0.2580
 7993TIP3    H123943   4.415   3.675   1.430 -0.2480  0.7482  0.3337
 7993TIP3    H223944   4.494   3.771   1.517  0.4371  0.9769 -0.5208
 7994TIP3   OH223945   4.396   0.187   4.947 -0.1110 -0.3257  0.2958
 7994TIP3    H123946   4.382   0.101   4.907 -0.1758  0.1406 -0.7046
 7994TIP3    H223947   4.309   0.227   4.951 -0.0604 -0.2461  0.6137
 7995TIP3   OH223948   0.723   3.149   5.017 -0.0241  0.4791  0.4914
 7995TIP3    H123949   0.811   3.185   5.029  0.5419 -1.4111  2.6510
 7995TIP3    H223950   0.677   3.170   5.098 -0.0376 -2.4299  1.3560
 7996TIP3   OH223951   1.137   0.069   4.226  0.0104  0.0212  0.4164
 7996TIP3    H123952   1.063   0.038   4.174 -0.7410 -1.3249  2.1958
 7996TIP3    H223953   1.209   0.077   4.163 -1.4997  0.9591 -1.2737
 7997TIP3   OH223954   5.304   0.546   4.698  0.2547  0.2799 -0.4571
 7997TIP3    H123955   5.383   0.587   4.664  0.3533  1.2160  0.8449
 7997TIP3    H223956   5.237   0.614   4.692 -0.6706 -0.7264 -2.2266
 7998TIP3   OH223957   3.480   3.210   0.605 -0.8736  0.3664 -0.0292
 7998TIP3    H123958   3.551   3.271   0.623  0.8078 -0.5978 -2.7363
 7998TIP3    H223959   3.478   3.152   0.681  2.7576 -0.8420 -0.6318
 7999TIP3   OH223960   0.032   2.189   0.107 -0.3162 -0.2195  0.5661
 7999TIP3    H123961   0.028   2.222   0.197 -1.9280  0.5061  0.2636
 7999TIP3    H223962   0.122   2.158   0.097  0.2666  0.8584  2.0258
 8000TIP3   OH223963   6.407   0.830   1.870  0.2496 -0.1856  0.3431
 8000TIP3    H123964   6.369   0.847   1.956 -0.7455  0.5592 -0.2214
 8000TIP3    H223965   6.437   0.915   1.840  1.3486 -0.5742  0.2774
 8001TIP3   OH223966   2.223   5.955   4.067 -0.9011 -0.0508  0.0302
 8001TIP3    H123967   2.140   6.003   4.064 -0.4472  0.7532  0.2263
 8001TIP3    H223968   2.208   5.880   4.010 -0.4949  2.1505 -3.2632
 8002TIP3   OH223969   3.374   0.241   3.372 -0.2595  0.0552 -0.1362
 8002TIP3    H123970   3.405   0.329   3.352 -0.7436  0.3112  0.2279
 8002TIP3    H223971   3.417   0.185   3.307 -1.3070  0.7766 -1.4855
 8003TIP3   OH223972   6.474   0.623   1.053 -0.1755  0.2281 -0.3443
 8003TIP3    H123973   6.395   0.664   1.019 -1.5468 -1.1739  1.0172
 8003TIP3    H223974   6.472   0.641   1.147 -0.7498 -2.7015  0.2943
 8004TIP3   OH223975   5.390   6.199   4.360 -0.1234  0.1542  0.2644
 8004TIP3    H123976   5.356   6.287   4.379 -1.1318 -0.1859  0.1029
 8004TIP3    H223977   5.335   6.141   4.413  0.8835 -0.3528  0.7859
 8005TIP3   OH223978   4.053   3.327   1.746  0.1600 -0.8608  0.8828
 8005TIP3    H123979   4.142   3.340   1.778  0.2393 -1.1302  0.7687
 8005TIP3    H223980   4.063   3.287   1.660 -0.0238  0.9193 -0.0258
 8006TIP3   OH223981   2.798   0.006   2.511  0.0459  0.3443  0.4157
 8006TIP3    H123982   2.878  -0.033   2.548  0.0539  1.1062  1.2546
 8006TIP3    H223983   2.799   0.096   2.543 -1.4101  0.2327  0.8551
 8007TIP3   OH223984   3.432   3.157   2.406  0.4717  0.0616 -0.4187
 8007TIP3    H123985   3.411   3.247   2.433  0.2068 -0.5083  1.4263
 8007TIP3    H223986   3.493   3.168   2.333  2.0385  1.8063  1.0306
 8008TIP3   OH223987   4.653   5.622   2.813 -0.0852 -0.0369 -0.3598
 8008TIP3    H123988   4.715   5.605   2.884  0.1829  0.2185 -0.5273
 8008TIP3    H223989   4.657   5.717   2.800  0.3907 -0.1539 -1.1796
 8009TIP3   OH223990   6.006   1.860   4.453 -0.3110 -0.2317  0.0006
 8009TIP3    H123991   5.979   1.778   4.412 -0.5975 -0.9113  1.4477
 8009TIP3    H223992   6.079   1.835   4.510  0.2943  0.7294 -0.3340
 8010TIP3   OH223993   1.301   1.953   4.220 -0.5580 -0.0164 -0.4885
 8010TIP3    H123994   1.305   2.022   4.287 -2.1617 -1.1714  0.8755
 8010TIP3    H223995   1.207   1.940   4.205 -0.2910 -1.8554 -0.7391
 8011TIP3   OH223996   6.793   5.470   5.705  0.2463 -0.3712  0.2610
 8011TIP3    H123997   6.762   5.471   5.795  1.9455  0.6953  0.8617
 8011TIP3    H223998   6.748   5.543   5.663  0.2304 -0.2437  0.5029
 8012TIP3   OH223999   1.932   5.947   0.544  0.5615 -0.3803  0.3076
 8012TIP3    H124000   1.851   5.895   0.539  0.7011 -0.5908  0.1724
 8012TIP3    H224001   1.970   5.938   0.457  0.9255 -0.5989  0.4905
 8013TIP3   OH224002   5.579   2.101   3.062  0.0326 -0.7154  0.0470
 8013TIP3    H124003   5.577   2.005   3.060  0.4325 -0.7276  0.1411
 8013TIP3    H224004   5.575   2.127   2.970  0.8279 -0.8450 -0.0271
 8014TIP3   OH224005   5.957   6.254   5.705 -0.1863  0.2509 -0.0367
 8014TIP3    H124006   5.968   6.185   5.639 -0.2063  0.1878  0.0258
 8014TIP3    H224007   6.029   6.315   5.689 -1.8936  1.8717 -2.1251
 8015TIP3   OH224008   2.932   1.336  -0.004  0.7402 -0.3512 -0.2190
 8015TIP3    H124009   2.918   1.303   0.084  1.2841  0.5693  0.2267
 8015TIP3    H224010   3.013   1.387   0.001 -0.3772  1.5932 -0.6959
 8016TIP3   OH224011   5.210   6.349   0.909  0.6568  0.2421  0.0526
 8016TIP3    H124012   5.186   6.440   0.925  1.8161  0.5928 -0.0927
 8016TIP3    H224013   5.305   6.351   0.899  0.5909 -0.8171 -1.0697
 8017TIP3   OH224014   1.423   3.836   1.486 -0.4127  0.2725 -0.5793
 8017TIP3    H124015   1.385   3.783   1.415  0.7257 -1.1822 -0.1555
 8017TIP3    H224016   1.392   3.925   1.468 -1.7539 -0.3772 -1.7787
 8018TIP3   OH224017   6.182   5.756   4.071 -0.4007  0.2213  0.1102
 8018TIP3    H124018   6.248   5.821   4.097 -2.4031  2.0770  0.8523
 8018TIP3    H224019   6.111   5.768   4.134 -2.3891 -0.1659 -1.9160
 8019TIP3   OH224020   1.879   5.460   3.796 -0.2698 -0.2556 -0.3019
 8019TIP3    H124021   1.895   5.447   3.703 -1.3281 -2.4780 -0.2478
 8019TIP3    H224022   1.862   5.553   3.805  1.2733  0.2482 -2.0740
 8020TIP3   OH224023   3.422   3.052   0.868 -0.5966  0.3864  0.4246
 8020TIP3    H124024   3.483   2.988   0.904 -0.2567  0.8728  0.7403
 8020TIP3    H224025   3.376   3.006   0.799  0.0286 -0.0345  0.2801
 8021TIP3   OH224026   6.618   4.025   5.520  0.1235 -0.2023  0.1571
 8021TIP3    H124027   6.653   4.102   5.564 -0.3567  1.2656 -1.8642
 8021TIP3    H224028   6.585   4.058   5.436  1.4971 -2.8621 -1.5870
 8022TIP3   OH224029   2.274   0.861   3.166  0.1559 -0.0716 -0.2906
 8022TIP3    H124030   2.210   0.863   3.095  1.6000 -1.3195 -1.6976
 8022TIP3    H224031   2.340   0.798   3.138  2.3714  1.6153  0.7808
 8023TIP3   OH224032   2.323   5.955   3.404 -0.1905 -0.0448 -0.1975
 8023TIP3    H124033   2.329   5.897   3.480  1.1966  0.0622 -0.1915
 8023TIP3    H224034   2.371   5.908   3.335  0.4538  0.8259 -0.3556
 8024TIP3   OH224035   3.408   1.340   5.248 -0.3010  0.4163 -0.3343
 8024TIP3    H124036   3.454   1.297   5.320 -2.7077  0.0471  1.0790
 8024TIP3    H224037   3.403   1.274   5.179 -0.4735 -0.2085  0.2739
 8025TIP3   OH224038   3.077   2.489   3.918  0.3516 -0.0143  0.2952
 8025TIP3    H124039   3.071   2.472   3.824  1.7024  0.5197  0.0906
 8025TIP3    H224040   3.132   2.567   3.925  1.3033 -0.7631  1.5718
 8026TIP3   OH224041   5.975   0.266   4.017 -0.1982 -0.2292 -0.2893
 8026TIP3    H124042   6.018   0.252   4.102  0.6926  1.2337 -0.4557
 8026TIP3    H224043   6.038   0.235   3.953  0.6121  1.7612 -0.5280
 8027TIP3   OH224044   3.683   5.443   3.620 -0.2814 -0.0187  1.1814
 8027TIP3    H124045   3.745   5.454   3.547 -0.4744 -0.7720  0.9001
 8027TIP3    H224046   3.634   5.526   3.622 -1.3030 -0.5269 -0.5272
 8028TIP3   OH224047   5.201   1.267   0.568 -0.0810 -0.0344 -0.1364
 8028TIP3    H124048   5.184   1.209   0.642  0.3393 -0.4338 -0.3520
 8028TIP3    H224049   5.244   1.212   0.504  0.6938  0.6160 -0.1847
 8029TIP3   OH224050   3.570   2.104   4.500 -0.4672  0.0050 -0.7374
 8029TIP3    H124051   3.663   2.096   4.519 -0.5778 -2.7565 -0.9812
 8029TIP3    H224052   3.552   2.033   4.438 -2.6495  0.7814 -1.0811
 8030TIP3   OH224053   0.212   0.910   3.627  0.1516  0.0980  0.3411
 8030TIP3    H124054   0.271   0.978   3.658 -1.2929  0.3913  2.6563
 8030TIP3    H224055   0.242   0.830   3.670  0.0419 -0.1533 -0.0365
 8031TIP3   OH224056   2.728   6.673   1.847  0.1998  0.2577  0.5989
 8031TIP3    H124057   2.746   6.750   1.792  0.1116 -0.4526 -0.4442
 8031TIP3    H224058   2.726   6.600   1.786 -0.2080 -0.5151  1.5194
 8032TIP3   OH224059   4.633   1.239   1.587 -1.0924 -0.4729  0.3285
 8032TIP3    H124060   4.599   1.254   1.499  2.4642 -0.8419 -1.2826
 8032TIP3    H224061   4.657   1.326   1.618  0.2254 -0.5867 -0.2977
 8033TIP3   OH224062   5.643   2.486   0.142 -0.3261  0.3207  0.1311
 8033TIP3    H124063   5.624   2.471   0.049 -1.8078  1.4307  0.1977
 8033TIP3    H224064   5.557   2.499   0.182  0.3559  1.3025  1.3804
 8034TIP3   OH224065   1.486   4.916   3.345 -0.5029  0.4219  0.1593
 8034TIP3    H124066   1.406   4.966   3.360 -0.0709  1.2404 -0.1527
 8034TIP3    H224067   1.548   4.950   3.409  0.3918  1.7244 -1.2984
 8035TIP3   OH224068   2.337   0.521   5.608 -0.0393  0.8305 -0.5838
 8035TIP3    H124069   2.339   0.437   5.655 -0.0197  0.6853 -0.8437
 8035TIP3    H224070   2.353   0.497   5.517  0.9806  1.2185 -0.5163
 8036TIP3   OH224071   3.479   4.799   0.933  0.3041  0.3503  0.1965
 8036TIP3    H124072   3.572   4.819   0.924  0.4231 -0.6252 -1.0361
 8036TIP3    H224073   3.455   4.759   0.850 -0.6153 -1.7409  1.3866
 8037TIP3   OH224074   1.258   1.426   3.385 -0.6962  0.2529 -0.1859
 8037TIP3    H124075   1.211   1.386   3.311 -1.1161 -0.0576  0.2419
 8037TIP3    H224076   1.314   1.492   3.344 -0.3593 -0.4299 -0.8637
 8038TIP3   OH224077   5.498   6.524   1.733 -0.6325  0.2225 -0.7937
 8038TIP3    H124078   5.481   6.442   1.780  0.9321 -0.5868 -1.5595
 8038TIP3    H224079   5.440   6.520   1.657 -1.8780  0.7070  0.0967
 8039TIP3   OH224080   1.670   0.057   2.317 -0.2529 -0.3059 -0.1631
 8039TIP3    H124081   1.753   0.052   2.364  1.1167  1.9401 -2.1198
 8039TIP3    H224082   1.684   0.006   2.238 -1.6857 -2.0116  0.6176
 8040TIP3   OH224083   4.550   0.065   0.806  0.0394  0.3481  0.5095
 8040TIP3    H124084   4.629   0.113   0.829  0.1322  0.2582  0.3818
 8040TIP3    H224085   4.478   0.117   0.842 -0.1365  2.4451 -2.5522
 8041TIP3   OH224086   4.105   4.733   0.464 -0.2153  0.1595  0.2120
 8041TIP3    H124087   4.091   4.823   0.435  3.6106  0.2330 -2.1947
 8041TIP3    H224088   4.078   4.679   0.390  0.0686 -0.4663  0.5570
 8042TIP3   OH224089   6.430   6.205   4.814  0.9239  0.0018  0.0005
 8042TIP3    H124090   6.451   6.287   4.858  3.2398  0.4662 -1.7955
 8042TIP3    H224091   6.501   6.192   4.752 -1.5545 -1.1588 -2.8645
 8043TIP3   OH224092   0.016   5.574   4.119 -0.0697  0.2295 -0.3897
 8043TIP3    H124093   0.014   5.483   4.149  0.1820  0.2249 -0.3894
 8043TIP3    H224094   0.109   5.596   4.114 -0.1375  0.8540  0.7414
 8044TIP3   OH224095   7.061   5.944   0.682  0.1663  0.0523 -0.2389
 8044TIP3    H124096   7.011   6.002   0.738 -0.5239  0.2306 -1.0184
 8044TIP3    H224097   7.152   5.960   0.706  0.0912  2.3614 -1.2436
 8045TIP3   OH224098   2.495   5.692   2.968  0.3275  0.7789 -0.4946
 8045TIP3    H124099   2.571   5.663   3.019  0.8620  0.8827 -1.2244
 8045TIP3    H224100   2.476   5.619   2.910  0.4840  1.1426 -1.0024
 8046TIP3   OH224101   2.062   3.709   4.000 -0.4645 -0.5071  0.7587
 8046TIP3    H124102   2.042   3.731   4.091 -0.3688  0.9271  0.4634
 8046TIP3    H224103   2.100   3.621   4.004  2.4395  0.6754  2.5115
 8047TIP3   OH224104   3.251   2.788   5.228 -0.4086 -0.0129  0.5627
 8047TIP3    H124105   3.296   2.852   5.283 -2.3005  0.5233  1.5491
 8047TIP3    H224106   3.226   2.836   5.150 -0.8909  0.1826  0.8343
 8048TIP3   OH224107   0.770   1.296   0.391 -0.1518 -0.3768  0.1123
 8048TIP3    H124108   0.833   1.272   0.458 -1.9772 -1.6137  1.4791
 8048TIP3    H224109   0.819   1.351   0.330  2.0662 -0.8411  1.3892
 8049TIP3   OH224110   6.551   3.359   0.065  0.4935 -0.1075  0.1173
 8049TIP3    H124111   6.534   3.294  -0.003  1.0812  0.8586 -0.9830
 8049TIP3    H224112   6.482   3.425   0.053  1.5119  0.8553 -0.5782
 8050TIP3   OH224113   1.398   4.591   0.209  0.5633 -0.4436  0.0664
 8050TIP3    H124114   1.461   4.576   0.138  1.9394 -1.1890  1.3623
 8050TIP3    H224115   1.315   4.608   0.165  0.7719 -3.3556 -1.7577
 8051TIP3   OH224116   0.523   3.972   5.833  0.2838  0.4101  0.3948
 8051TIP3    H124117   0.606   4.005   5.867  0.6767 -1.4789  1.4218
 8051TIP3    H224118   0.520   3.880   5.861 -1.9636  0.3024  0.0181
 8052TIP3   OH224119   1.556   2.809   4.150  0.3441  0.0666  0.2907
 8052TIP3    H124120   1.594   2.803   4.238  1.1650  0.0967 -0.0496
 8052TIP3    H224121   1.580   2.896   4.120 -0.4132  0.2613  0.2452
 8053TIP3   OH224122   6.228   2.192   2.401 -0.1175  0.4054  0.4201
 8053TIP3    H124123   6.190   2.180   2.488  0.3043 -0.4313  0.5010
 8053TIP3    H224124   6.301   2.131   2.399  0.7601  1.4431 -0.0074
 8054TIP3   OH224125   2.448   5.591   1.322 -0.1435  0.2560  0.0113
 8054TIP3    H124126   2.534   5.562   1.290 -0.8553  0.3540 -2.1867
 8054TIP3    H224127   2.391   5.516   1.308 -0.4646  0.2375  1.3395
 8055TIP3   OH224128   1.334   3.038   5.240 -0.0751 -0.6597  0.1655
 8055TIP3    H124129   1.352   3.076   5.326 -0.5778 -1.0864  0.4606
 8055TIP3    H224130   1.393   3.085   5.181  2.3157 -2.2446  1.1507
 8056TIP3   OH224131   6.618   5.984   3.448  0.8960  0.1097  0.1358
 8056TIP3    H124132   6.643   5.898   3.414 -1.6667 -0.9230  0.5994
 8056TIP3    H224133   6.645   5.983   3.539 -0.3389 -0.8164  0.5226
 8057TIP3   OH224134   3.145   4.207   4.977 -0.2487  0.1244  0.0925
 8057TIP3    H124135   3.137   4.230   5.069  2.5461 -0.1145  0.4826
 8057TIP3    H224136   3.113   4.284   4.930  1.4697  1.6838  1.3286
 8058TIP3   OH224137   1.091   0.212   0.938  0.3241 -0.0757 -0.2383
 8058TIP3    H124138   1.154   0.177   0.876  1.0262  1.2054 -0.2766
 8058TIP3    H224139   1.010   0.164   0.919  0.8881 -0.6880 -1.1859
 8059TIP3   OH224140   5.757   1.171   3.285 -0.6525 -0.3326 -1.0294
 8059TIP3    H124141   5.782   1.176   3.193 -0.9922  0.3909 -1.0887
 8059TIP3    H224142   5.839   1.156   3.331 -0.3290  0.3606 -1.3620
 8060TIP3   OH224143   6.670   1.632   5.318  0.1277 -0.0389 -0.2393
 8060TIP3    H124144   6.636   1.653   5.231 -1.4970 -2.5541 -0.3042
 8060TIP3    H224145   6.755   1.590   5.301 -0.4641 -1.0824 -0.6904
 8061TIP3   OH224146   2.117   3.737   1.658  0.7514  0.2047  0.3462
 8061TIP3    H124147   2.031   3.719   1.694  0.9268 -2.5159 -0.3789
 8061TIP3    H224148   2.112   3.709   1.567  2.2189  0.5439  0.1230
 8062TIP3   OH224149   6.893   4.984   4.614  0.3120  0.2283 -0.1474
 8062TIP3    H124150   6.895   5.021   4.526 -0.0933  0.3156 -0.1232
 8062TIP3    H224151   6.810   4.937   4.618  0.2771  0.3157  0.2217
 8063TIP3   OH224152   0.837   1.005   5.827  0.2594  0.1670 -0.6374
 8063TIP3    H124153   0.917   1.047   5.857  0.9513 -1.1034 -0.6394
 8063TIP3    H224154   0.810   0.949   5.900 -1.2798  1.4203 -0.1884
 8064TIP3   OH224155   0.149   2.911   5.027  0.0859 -0.4161  0.1864
 8064TIP3    H124156   0.139   2.987   5.085 -0.1525 -1.1636  1.1546
 8064TIP3    H224157   0.244   2.896   5.023  0.3641  1.5007 -2.1353
 8065TIP3   OH224158   0.884   2.637   2.716 -0.2683  0.4587  0.0946
 8065TIP3    H124159   0.902   2.703   2.649 -1.6823  1.0659  0.2906
 8065TIP3    H224160   0.965   2.632   2.767  0.5455  0.5730 -1.1464
 8066TIP3   OH224161   4.103   4.215   1.390 -0.1316 -0.3193 -0.1201
 8066TIP3    H124162   4.144   4.130   1.406  0.1957 -0.1997 -0.3229
 8066TIP3    H224163   4.088   4.251   1.477 -0.0876 -0.4978 -0.0380
 8067TIP3   OH224164   5.359   2.786   2.098 -0.1184  0.1978  0.1814
 8067TIP3    H124165   5.398   2.745   2.176 -1.3045 -0.4104  0.4866
 8067TIP3    H224166   5.428   2.782   2.032  0.7152  0.1908  1.0241
 8068TIP3   OH224167   5.658   2.710   2.616 -0.2677 -0.3388  0.8384
 8068TIP3    H124168   5.695   2.673   2.697 -1.8991 -2.4013  0.7124
 8068TIP3    H224169   5.573   2.668   2.607  0.1202 -0.6913 -2.2989
 8069TIP3   OH224170   3.578   4.343   4.646 -0.1859  0.0368 -0.0690
 8069TIP3    H124171   3.612   4.346   4.735  0.2605 -0.5382 -0.2111
 8069TIP3    H224172   3.629   4.274   4.603  0.2557  0.9410 -1.0417
 8070TIP3   OH224173   0.379   1.941   5.552  0.5768 -0.2237 -0.5155
 8070TIP3    H124174   0.441   1.948   5.480 -0.5477 -0.3988 -1.5230
 8070TIP3    H224175   0.348   2.030   5.567 -0.3047 -0.3850 -1.2773
 8071TIP3   OH224176   6.432   4.814   4.033 -0.1972  0.7630  0.1257
 8071TIP3    H124177   6.507   4.757   4.017 -1.5874 -0.7675 -1.3696
 8071TIP3    H224178   6.446   4.889   3.975 -0.2372  0.0697 -0.7933
 8072TIP3   OH224179   4.184   1.134   5.562 -0.0862 -0.1483  0.8003
 8072TIP3    H124180   4.200   1.046   5.528 -1.0417  0.2830 -0.8779
 8072TIP3    H224181   4.265   1.157   5.608  1.6889 -0.4824 -1.9416
 8073TIP3   OH224182   6.123   1.810   2.272  0.3915 -0.0099  0.0797
 8073TIP3    H124183   6.140   1.893   2.227  3.4748 -0.5940 -0.0748
 8073TIP3    H224184   6.210   1.769   2.281 -0.5350 -1.6565  3.2324
 8074TIP3   OH224185   1.030   1.236   5.700 -0.1257  0.4101  0.2787
 8074TIP3    H124186   1.073   1.152   5.719  0.6433  0.6483 -0.3712
 8074TIP3    H224187   0.954   1.212   5.646  0.1586  0.1395 -0.0083
 8075TIP3   OH224188   0.882   2.025   1.893 -0.1237 -0.0408  0.3487
 8075TIP3    H124189   0.928   1.993   1.971 -1.3251 -1.4934  0.5219
 8075TIP3    H224190   0.816   2.086   1.927 -0.6865 -0.7190  0.5041
 8076TIP3   OH224191   2.597   4.245   2.844  0.2887  0.1623  1.1058
 8076TIP3    H124192   2.518   4.194   2.855 -0.3831  0.8255 -0.3037
 8076TIP3    H224193   2.661   4.184   2.808 -0.2503  0.1061  0.2257
 8077TIP3   OH224194   4.649   6.539   1.184  0.2174  0.8442 -0.3430
 8077TIP3    H124195   4.662   6.444   1.183 -1.9220  0.5034 -0.9859
 8077TIP3    H224196   4.669   6.566   1.094  0.3102  0.9116 -0.3013
 8078TIP3   OH224197   2.887   2.779   0.183  0.2941 -0.6603 -0.3312
 8078TIP3    H124198   2.970   2.823   0.165  0.3887 -0.2709  0.9468
 8078TIP3    H224199   2.861   2.741   0.099  1.1056  0.3216 -1.0485
 8079TIP3   OH224200   2.828   6.118   4.902  0.2737  0.0847 -0.3903
 8079TIP3    H124201   2.801   6.033   4.868  0.7252  0.1967 -1.0371
 8079TIP3    H224202   2.905   6.141   4.851  0.7338  0.4387  0.4483
 8080TIP3   OH224203   5.494   3.607   3.702  0.4644 -0.5806 -0.0378
 8080TIP3    H124204   5.472   3.520   3.667  0.5465 -0.0279 -1.5236
 8080TIP3    H224205   5.496   3.664   3.625 -2.9796  1.4980  1.1790
 8081TIP3   OH224206   6.803   5.666   5.056  0.3096  0.2054 -0.0813
 8081TIP3    H124207   6.716   5.659   5.018 -0.0752  0.7228  0.6913
 8081TIP3    H224208   6.816   5.759   5.070  2.0321  0.4332 -2.5451
 8082TIP3   OH224209   5.801   2.848   0.660  0.5024  0.4101  0.3414
 8082TIP3    H124210   5.794   2.822   0.568  0.8031  0.4304  0.3113
 8082TIP3    H224211   5.766   2.773   0.708  1.5970 -0.1839  0.2637
 8083TIP3   OH224212   5.436   2.685   2.332 -0.1293 -0.2513 -0.1579
 8083TIP3    H124213   5.454   2.592   2.318  1.3052 -0.0224 -0.0055
 8083TIP3    H224214   5.376   2.687   2.407  1.0144 -1.0036  0.8074
 8084TIP3   OH224215   0.594   2.624   1.403 -0.1449  0.4566  0.7302
 8084TIP3    H124216   0.680   2.663   1.416 -0.2234  1.1945 -0.6818
 8084TIP3    H224217   0.543   2.652   1.478  0.4711  1.1550  0.9009
 8085TIP3   OH224218   3.302   2.224   4.925  0.1379  0.1840 -0.3385
 8085TIP3    H124219   3.339   2.291   4.867  1.5683 -0.2325  0.0561
 8085TIP3    H224220   3.363   2.220   4.999  0.3578 -1.8565 -0.5758
 8086TIP3   OH224221   1.672   4.327   2.502  0.2937 -0.1402  0.3658
 8086TIP3    H124222   1.639   4.389   2.437 -1.1327 -0.0711  1.1295
 8086TIP3    H224223   1.711   4.256   2.451 -1.2345 -0.3207 -0.5912
 8087TIP3   OH224224   1.193   1.479   3.747  0.2050 -0.5249  0.1559
 8087TIP3    H124225   1.211   1.531   3.825  0.0242  0.4052 -0.4058
 8087TIP3    H224226   1.142   1.537   3.691  0.1199 -1.2644 -0.5535
 8088TIP3   OH224227   3.839   1.855   0.523 -0.5302  0.0971 -0.0532
 8088TIP3    H124228   3.781   1.803   0.579  1.1220  0.5343  2.2108
 8088TIP3    H224229   3.927   1.821   0.542  0.1202  0.3081 -2.4263
 8089TIP3   OH224230   2.809   1.666   1.773 -0.3610 -0.0755 -0.1565
 8089TIP3    H124231   2.846   1.714   1.847 -0.4868  0.6880 -0.5806
 8089TIP3    H224232   2.751   1.602   1.813  0.7151 -0.6897  0.4727
 8090TIP3   OH224233   6.188   0.993   1.630  0.0559 -0.0730  0.1535
 8090TIP3    H124234   6.265   1.015   1.682 -0.3091 -0.3347  0.8196
 8090TIP3    H224235   6.213   1.013   1.540  0.2808  1.5516  0.5464
 8091TIP3   OH224236   3.975   2.341   3.998 -0.2691  0.3121 -0.0231
 8091TIP3    H124237   4.053   2.361   3.947  1.2133 -0.4387  1.8337
 8091TIP3    H224238   3.911   2.407   3.971  1.5506  2.0224 -0.3930
 8092TIP3   OH224239   5.701   4.530   4.992 -0.6120  0.3324 -0.0994
 8092TIP3    H124240   5.723   4.561   5.080  1.8987  1.7623 -1.1036
 8092TIP3    H224241   5.747   4.447   4.984  0.4035  0.9134 -0.5112
 8093TIP3   OH224242   0.738   2.583   2.270  1.0495  0.1485  0.5854
 8093TIP3    H124243   0.738   2.499   2.316  0.8619  2.1650  4.7392
 8093TIP3    H224244   0.822   2.623   2.294  2.2205  0.3584 -3.2509
 8094TIP3   OH224245   0.986   5.926   5.468  0.5470 -0.8176 -0.3250
 8094TIP3    H124246   1.020   5.860   5.528  0.0820 -0.5173  0.2709
 8094TIP3    H224247   1.034   6.006   5.490 -0.2688 -0.4845  0.2697
 8095TIP3   OH224248   6.916   3.414   4.466  0.7412 -0.6281 -0.5862
 8095TIP3    H124249   6.977   3.377   4.530  1.0639  1.0234  0.1134
 8095TIP3    H224250   6.830   3.404   4.506  0.7557 -1.1934 -0.6923
 8096TIP3   OH224251   3.592   1.639   1.273 -0.3583  0.1941  0.3392
 8096TIP3    H124252   3.678   1.677   1.256  1.2741 -2.9203  0.9371
 8096TIP3    H224253   3.582   1.643   1.368  0.2575 -1.5226  0.5130
 8097TIP3   OH224254   3.320   5.561   0.168 -0.3930 -0.0829 -0.3479
 8097TIP3    H124255   3.327   5.655   0.153  0.0929  0.1277  1.0996
 8097TIP3    H224256   3.408   5.533   0.195 -0.7456 -0.7688  0.1456
 8098TIP3   OH224257   3.231   6.519   1.161 -0.1686 -0.4321  0.4246
 8098TIP3    H124258   3.161   6.558   1.214 -0.8733 -0.4323 -0.4880
 8098TIP3    H224259   3.312   6.555   1.199 -0.5261 -1.6307  2.4998
 8099TIP3   OH224260   6.323   6.052   3.121 -0.0592 -0.2232 -0.6538
 8099TIP3    H124261   6.396   6.109   3.144 -0.6078  1.1454 -2.1037
 8099TIP3    H224262   6.338   5.972   3.172  0.8411  1.1122  1.3283
 8100TIP3   OH224263   0.036   1.721   3.702 -0.0393  0.4186  0.2407
 8100TIP3    H124264  -0.009   1.790   3.654 -0.6204 -0.5713 -0.6928
 8100TIP3    H224265   0.016   1.641   3.653  0.1642 -0.4956  1.5975
 8101TIP3   OH224266   5.442   6.148   0.456  0.1599 -0.2235 -0.2132
 8101TIP3    H124267   5.360   6.115   0.418  0.3688 -1.4797  0.3585
 8101TIP3    H224268   5.439   6.242   0.443 -0.5175 -0.4482 -1.8756
 8102TIP3   OH224269   6.355   1.972   4.196  0.0549 -0.3537 -0.3832
 8102TIP3    H124270   6.433   2.010   4.155  1.5361 -0.6793  1.9634
 8102TIP3    H224271   6.328   2.036   4.261 -0.0306 -1.3796  0.6223
 8103TIP3   OH224272  -0.003   1.427   2.056  0.1616 -0.1564 -0.5008
 8103TIP3    H124273   0.049   1.504   2.076  1.2435 -0.6575 -1.3065
 8103TIP3    H224274   0.059   1.365   2.019 -0.7143 -1.3745  0.0033
 8104TIP3   OH224275   4.091   0.067   3.984 -0.2134  0.5072 -0.1225
 8104TIP3    H124276   4.146   0.098   3.912  0.5452  0.4740  0.4250
 8104TIP3    H224277   4.102   0.132   4.053  1.8611 -1.1552  1.2677
 8105TIP3   OH224278   3.156   0.081   5.144  0.1801  0.4318  0.0824
 8105TIP3    H124279   3.096   0.025   5.193  2.0721 -0.5680  1.3769
 8105TIP3    H224280   3.113   0.167   5.143 -0.6331  0.1182  2.2275
 8106TIP3   OH224281   6.254   2.662   0.015 -0.3134  0.5626  0.2819
 8106TIP3    H124282   6.300   2.580  -0.005  1.1757  1.3489  0.3624
 8106TIP3    H224283   6.272   2.678   0.107  0.8688  1.8179 -0.1166
 8107TIP3   OH224284   6.160   6.564   5.343 -0.3891  0.0344  0.4952
 8107TIP3    H124285   6.164   6.650   5.301 -2.5423  0.2242  0.6012
 8107TIP3    H224286   6.165   6.583   5.437 -1.4994  0.1281  0.5489
 8108TIP3   OH224287   0.445   4.500   5.403 -0.3225 -0.2767 -0.1376
 8108TIP3    H124288   0.498   4.454   5.339 -0.5740 -0.1323 -0.4521
 8108TIP3    H224289   0.359   4.508   5.362 -0.6688 -0.7502  0.4732
 8109TIP3   OH224290   1.521   4.281   5.060 -0.0211 -0.2454 -0.1889
 8109TIP3    H124291   1.589   4.213   5.063 -0.4195 -0.6215  2.3129
 8109TIP3    H224292   1.529   4.327   5.143 -0.8374  1.7669 -1.1489
 8110TIP3   OH224293   5.416   5.453   3.840  0.7158  0.3892 -0.0015
 8110TIP3    H124294   5.416   5.364   3.805  0.3325  0.6456 -0.6852
 8110TIP3    H224295   5.477   5.451   3.913  1.1982 -0.2754 -0.4199
 8111TIP3   OH224296   4.896   6.757   4.767 -0.1367 -0.9345  0.2446
 8111TIP3    H124297   4.939   6.769   4.683  0.5191 -1.0165  0.5586
 8111TIP3    H224298   4.859   6.669   4.763 -1.9634 -0.1566 -0.7555
 8112TIP3   OH224299   1.752   5.121   5.373 -0.0752  0.7142 -0.2670
 8112TIP3    H124300   1.706   5.141   5.292  0.7773 -0.9885 -1.2285
 8112TIP3    H224301   1.841   5.101   5.346 -0.0150 -0.8624  0.9411
 8113TIP3   OH224302   4.676   1.138   1.834  0.1095 -0.3082 -0.0641
 8113TIP3    H124303   4.718   1.055   1.852 -1.3500 -1.1984 -0.5592
 8113TIP3    H224304   4.674   1.144   1.739  0.0055  0.1958 -0.0349
 8114TIP3   OH224305   5.233   0.657   4.409  0.0791  0.5382  0.4971
 8114TIP3    H124306   5.323   0.657   4.442  0.1079  1.1637  0.4393
 8114TIP3    H224307   5.241   0.688   4.319 -0.0401 -0.8243 -0.0058
 8115TIP3   OH224308   5.075   6.440   0.508  0.1048 -0.2272  0.1705
 8115TIP3    H124309   5.077   6.372   0.576 -2.0207 -1.6797 -1.0975
 8115TIP3    H224310   5.000   6.494   0.530  1.9048  1.9955  1.2957
 8116TIP3   OH224311   2.538   1.566   2.225  0.5353 -0.3807  0.1927
 8116TIP3    H124312   2.566   1.645   2.179 -2.3896  0.1988 -0.7900
 8116TIP3    H224313   2.442   1.569   2.222  0.2664 -2.3835  2.8803
 8117TIP3   OH224314   2.262   3.963   5.178 -0.6675 -0.1060  0.2321
 8117TIP3    H124315   2.324   3.919   5.120 -0.1813  0.6199  0.1901
 8117TIP3    H224316   2.304   3.960   5.264 -0.4378  0.6426  0.1487
 8118TIP3   OH224317   3.284   2.787   5.682  0.1574  0.0068 -0.1022
 8118TIP3    H124318   3.193   2.817   5.677  0.2299  0.3861  0.6820
 8118TIP3    H224319   3.335   2.867   5.686  0.3482 -0.1580  2.1038
 8119TIP3   OH224320   4.637   5.747   2.389 -0.4839  0.5458 -0.9794
 8119TIP3    H124321   4.569   5.795   2.436 -1.1148  0.1135 -1.4433
 8119TIP3    H224322   4.658   5.673   2.447 -0.8076  0.3653 -1.0944
 8120TIP3   OH224323   3.484   5.740   5.448 -0.2437 -0.2581  0.6577
 8120TIP3    H124324   3.525   5.709   5.368 -1.0552 -1.2774  0.6230
 8120TIP3    H224325   3.422   5.807   5.419 -2.2095 -2.2240  0.1431
 8121TIP3   OH224326   3.053   2.581   0.965 -0.1085  0.4095  0.0625
 8121TIP3    H124327   3.023   2.600   1.054  0.7543  1.7949  0.0829
 8121TIP3    H224328   3.082   2.489   0.969 -3.1556 -0.6386  0.3255
 8122TIP3   OH224329   6.987   3.433   5.223 -0.0268  0.6022 -0.1412
 8122TIP3    H124330   7.033   3.490   5.285 -1.0830  0.0471  1.2028
 8122TIP3    H224331   6.901   3.474   5.213  0.6935  1.6827 -2.7074
 8123TIP3   OH224332   0.410   2.470   3.046 -0.2112 -0.0655 -0.5951
 8123TIP3    H124333   0.365   2.442   3.126  0.5169  0.1678 -0.0923
 8123TIP3    H224334   0.416   2.566   3.055  0.0084 -0.0542 -0.8546
 8124TIP3   OH224335   1.899   6.045   3.818 -0.4042  0.3392  0.1678
 8124TIP3    H124336   1.963   6.105   3.856 -0.0424  0.1349 -0.1198
 8124TIP3    H224337   1.817   6.067   3.862 -0.7105  2.3414 -1.2682
 8125TIP3   OH224338   0.746   4.127   5.266  0.5040 -0.0338 -0.0629
 8125TIP3    H124339   0.782   4.039   5.261  1.4148  0.3694 -0.9643
 8125TIP3    H224340   0.746   4.148   5.359  2.1293 -0.2572  0.0108
 8126TIP3   OH224341   5.180   3.202   2.998  0.2315  0.2557  0.0071
 8126TIP3    H124342   5.185   3.179   2.905 -2.4244 -0.3998 -0.0740
 8126TIP3    H224343   5.246   3.270   3.010  0.7033  0.3013 -2.3281
 8127TIP3   OH224344   6.686   2.657   0.879 -0.0207 -0.2022  0.1308
 8127TIP3    H124345   6.771   2.626   0.909  0.2061 -0.6853 -0.9454
 8127TIP3    H224346   6.705   2.740   0.835  0.0044 -0.6166 -0.6604
 8128TIP3   OH224347   3.111   3.769   3.918 -0.1471 -0.2551 -0.8861
 8128TIP3    H124348   3.135   3.859   3.894 -0.1322  0.3187  1.0754
 8128TIP3    H224349   3.177   3.715   3.875  0.7695  0.8027 -0.8758
 8129TIP3   OH224350   3.291   6.769   2.648 -0.0736 -0.0741 -0.1170
 8129TIP3    H124351   3.277   6.688   2.698  2.1953  0.9772  2.4801
 8129TIP3    H224352   3.359   6.746   2.585  0.9200 -0.0926  0.9447
 8130TIP3   OH224353   2.779   1.013   0.482 -0.0182  0.6388  0.5652
 8130TIP3    H124354   2.874   1.010   0.486  0.0292 -3.1905  0.5823
 8130TIP3    H224355   2.758   1.000   0.390 -0.4954  0.2956  0.7175
 8131TIP3   OH224356   2.836   0.510   0.740 -0.2575 -0.2108  0.0837
 8131TIP3    H124357   2.832   0.606   0.738 -0.4041 -0.1742  1.2951
 8131TIP3    H224358   2.746   0.483   0.757 -0.2252 -0.5776 -0.2988
 8132TIP3   OH224359   5.869   4.398   5.349  0.5756  0.0602  0.4825
 8132TIP3    H124360   5.948   4.417   5.401  0.6755  0.2547  0.2628
 8132TIP3    H224361   5.805   4.368   5.414  0.1324  1.9875  1.0034
 8133TIP3   OH224362   4.897   0.391   3.299  0.2885  0.3886  0.6194
 8133TIP3    H124363   4.892   0.367   3.391  1.1757  1.7552  1.0495
 8133TIP3    H224364   4.986   0.423   3.287  1.0183 -2.0723 -1.3284
 8134TIP3   OH224365   1.163   4.299   4.295  0.1141 -0.4526 -0.4418
 8134TIP3    H124366   1.127   4.355   4.364  1.2184 -0.7348  0.3821
 8134TIP3    H224367   1.258   4.311   4.301  0.3579 -2.0975 -0.4942
 8135TIP3   OH224368   1.893   4.391   2.294 -0.4229  0.3534 -0.4443
 8135TIP3    H124369   1.952   4.366   2.222 -0.8813 -1.5140 -0.2201
 8135TIP3    H224370   1.952   4.414   2.366  0.0285  1.4330 -1.1279
 8136TIP3   OH224371   7.142   3.107   1.852  0.0458 -0.1326 -0.5155
 8136TIP3    H124372   7.156   3.119   1.758  0.8364  1.3659 -0.2407
 8136TIP3    H224373   7.150   3.195   1.889 -0.5931 -0.6442  0.9215
 8137TIP3   OH224374   2.328   1.553   3.381 -0.0693  0.5183  0.2919
 8137TIP3    H124375   2.357   1.624   3.325  1.5416  0.1131  0.5467
 8137TIP3    H224376   2.289   1.596   3.457  2.0122  1.2378  1.0430
 8138TIP3   OH224377   3.746   2.743   3.464  0.3080  0.1830  0.0701
 8138TIP3    H124378   3.824   2.783   3.425  0.8991 -0.9890  0.0026
 8138TIP3    H224379   3.673   2.779   3.414  0.6801  2.1766  0.8628
 8139TIP3   OH224380   2.814   0.099   5.125 -0.0576 -0.0152  0.2565
 8139TIP3    H124381   2.784   0.189   5.134  1.6607  0.8189 -1.6994
 8139TIP3    H224382   2.764   0.064   5.052  0.9751  0.1594 -0.5535
 8140TIP3   OH224383   4.777   4.467   3.274  0.3175  0.3078 -0.0546
 8140TIP3    H124384   4.692   4.506   3.293 -0.3974 -1.8355  1.5428
 8140TIP3    H224385   4.772   4.442   3.182 -0.2635  1.3939 -0.3314
 8141TIP3   OH224386   6.214   4.109   5.218 -0.2938 -0.1303 -0.5761
 8141TIP3    H124387   6.170   4.114   5.303 -0.0744  0.3549 -0.4916
 8141TIP3    H224388   6.143   4.116   5.154 -0.5986 -1.6277 -0.4479
 8142TIP3   OH224389   5.009   4.353   1.028  0.3248  0.3802  0.5943
 8142TIP3    H124390   4.946   4.353   1.100  1.0586 -1.0594  1.2774
 8142TIP3    H224391   4.971   4.295   0.962 -0.2171  1.4837 -0.0967
 8143TIP3   OH224392   7.077   2.209   2.753 -0.0367  0.3269 -0.3800
 8143TIP3    H124393   7.158   2.159   2.763 -0.3413 -0.0567  0.2095
 8143TIP3    H224394   7.104   2.289   2.708  1.0041  1.0040  1.3313
 8144TIP3   OH224395   2.714   6.383   3.896  0.1667 -0.5639  0.0096
 8144TIP3    H124396   2.713   6.299   3.941  0.2404 -0.1529  0.7990
 8144TIP3    H224397   2.706   6.361   3.803  1.8992 -1.5403  0.0463
 8145TIP3   OH224398   4.562   1.627   1.381 -0.0991  0.0460  0.1479
 8145TIP3    H124399   4.575   1.597   1.291 -0.0155 -2.1003  0.8216
 8145TIP3    H224400   4.558   1.723   1.374 -1.4491 -0.1142 -2.2937
 8146TIP3   OH224401   4.633   1.484   3.930  0.2916  0.5278 -0.1447
 8146TIP3    H124402   4.544   1.512   3.909  0.3584  1.0032  0.2117
 8146TIP3    H224403   4.656   1.424   3.858 -0.1921  0.6523 -0.4098
 8147TIP3   OH224404   5.250   3.154   2.694 -0.2107 -0.5351 -0.0839
 8147TIP3    H124405   5.202   3.228   2.656  1.1590  0.6841  0.4610
 8147TIP3    H224406   5.339   3.187   2.707  0.8893 -2.8050 -1.3100
 8148TIP3   OH224407   5.328   4.225   5.598  0.1360  0.0109  0.4036
 8148TIP3    H124408   5.274   4.291   5.555  0.7315 -0.6706 -1.4798
 8148TIP3    H224409   5.382   4.275   5.660  1.1820  1.4775 -1.5818
 8149TIP3   OH224410   6.541   6.163   5.196 -0.1304 -0.5551  0.2055
 8149TIP3    H124411   6.468   6.131   5.142  0.4411 -3.2197  0.8778
 8149TIP3    H224412   6.503   6.173   5.283 -0.0686 -0.3138  0.2057
 8150TIP3   OH224413   2.965   0.276   0.778  0.3179  0.8287 -0.0171
 8150TIP3    H124414   2.918   0.341   0.727  0.9960  0.2764 -1.4289
 8150TIP3    H224415   3.057   0.301   0.770  0.5433  0.0095 -0.1715
 8151TIP3   OH224416   4.544   5.460   5.840  0.5165  0.0242  0.2981
 8151TIP3    H124417   4.592   5.540   5.863  2.3458 -0.9028 -0.1350
 8151TIP3    H224418   4.476   5.453   5.907  1.8845  0.6234  1.8134
 8152TIP3   OH224419   1.466   3.236   0.630  0.0653 -0.7443 -0.3936
 8152TIP3    H124420   1.534   3.246   0.697  0.1574 -0.5388 -0.5177
 8152TIP3    H224421   1.449   3.141   0.628 -0.7609 -0.6464  0.7323
 8153TIP3   OH224422   5.783   2.136   0.560  0.4141 -0.2405 -0.1121
 8153TIP3    H124423   5.730   2.193   0.503  3.9445  2.6212 -0.9406
 8153TIP3    H224424   5.827   2.077   0.499  0.6756 -0.3535  0.1874
 8154TIP3   OH224425   5.077   1.282   1.513 -0.1851 -0.0759  0.1179
 8154TIP3    H124426   5.042   1.344   1.578  0.5935  1.7626 -1.1208
 8154TIP3    H224427   5.000   1.246   1.470 -0.6769  1.4036 -0.3161
 8155TIP3   OH224428   6.032   2.613   2.007 -0.4624 -0.6213 -0.1690
 8155TIP3    H124429   5.940   2.619   1.983 -0.5890  1.3133  0.6229
 8155TIP3    H224430   6.034   2.630   2.101  0.7364 -0.3222 -0.2315
 8156TIP3   OH224431   5.340   6.240   3.831 -0.1351 -0.1015 -0.1893
 8156TIP3    H124432   5.248   6.244   3.856  0.0110 -0.6132  0.4681
 8156TIP3    H224433   5.339   6.230   3.735 -0.7733 -0.5861 -0.1349
 8157TIP3   OH224434   5.768  -0.002   1.635 -0.8801  0.1461  0.4903
 8157TIP3    H124435   5.734   0.066   1.692 -1.3908  0.4327 -0.1574
 8157TIP3    H224436   5.862  -0.003   1.653 -0.6664  1.8746 -0.3979
 8158TIP3   OH224437   5.766   5.136   1.279 -1.0307  0.3364 -0.1737
 8158TIP3    H124438   5.747   5.072   1.348  0.6773 -2.0273 -1.7360
 8158TIP3    H224439   5.681   5.156   1.240 -1.5262 -2.0500 -0.4759
 8159TIP3   OH224440   1.696   2.586   5.682  0.4235  0.0558  0.1463
 8159TIP3    H124441   1.620   2.572   5.625  0.4956 -1.1053  0.2986
 8159TIP3    H224442   1.750   2.649   5.635  0.0373 -0.1787 -0.6337
 8160TIP3   OH224443   4.190   4.250   4.190 -0.2387 -0.0310 -0.2520
 8160TIP3    H124444   4.097   4.239   4.211 -0.2688  1.3841  0.4699
 8160TIP3    H224445   4.230   4.278   4.273  0.8347 -0.5624 -0.5719
 8161TIP3   OH224446   2.747   0.142   3.193  0.0873  0.9197 -0.2180
 8161TIP3    H124447   2.652   0.152   3.182 -0.3317 -2.2954 -0.3632
 8161TIP3    H224448   2.758   0.121   3.285  0.4149 -0.4366 -0.5418
 8162TIP3   OH224449   4.244   0.531   4.867  0.5945  0.1801  0.9458
 8162TIP3    H124450   4.303   0.495   4.801  0.5521  0.4305  0.7675
 8162TIP3    H224451   4.196   0.455   4.901  0.0926  0.1296  0.1586
 8163TIP3   OH224452   3.695   1.920   4.230  0.3607 -0.1433  0.5642
 8163TIP3    H124453   3.757   1.847   4.229 -0.5316 -0.9204  0.4642
 8163TIP3    H224454   3.749   1.997   4.215  1.2445 -0.8473 -0.0184
 8164TIP3   OH224455   6.416   1.401   5.674  0.6783  0.3549  0.6131
 8164TIP3    H124456   6.500   1.438   5.647  0.4077 -0.7789 -2.1543
 8164TIP3    H224457   6.351   1.466   5.649  0.4492 -0.5736 -1.3759
 8165TIP3   OH224458   3.884   3.970   1.573 -0.0094 -0.5611 -0.0373
 8165TIP3    H124459   3.968   3.994   1.612  0.1526 -1.5659  0.2688
 8165TIP3    H224460   3.829   4.047   1.584  0.4513 -0.3706  0.9881
 8166TIP3   OH224461   6.182   5.611   2.361 -0.2766 -0.0207 -0.4732
 8166TIP3    H124462   6.225   5.667   2.296  0.0963 -1.5415 -1.6086
 8166TIP3    H224463   6.220   5.524   2.346  0.7712 -0.2225  2.6614
 8167TIP3   OH224464   2.611   2.189   4.777  0.2709 -0.2612  0.0713
 8167TIP3    H124465   2.655   2.273   4.786 -0.9005  0.3503  0.3147
 8167TIP3    H224466   2.608   2.173   4.683 -1.2761  0.9865 -0.1398
 8168TIP3   OH224467   0.785   0.738   2.268  0.1408  0.7430 -0.1298
 8168TIP3    H124468   0.865   0.721   2.317  0.3283 -1.6433 -1.1462
 8168TIP3    H224469   0.715   0.731   2.333  0.5551  0.0444  0.2463
 8169TIP3   OH224470   6.969   4.425   0.796  0.5158 -0.2085 -0.2553
 8169TIP3    H124471   6.898   4.486   0.814  1.5256  0.5568  1.4367
 8169TIP3    H224472   7.047   4.481   0.792  1.1814 -1.1567 -0.8574
 8170TIP3   OH224473   3.499   0.249   4.616  0.2052  0.2867  0.3688
 8170TIP3    H124474   3.570   0.289   4.567  0.0867 -1.4906 -1.3491
 8170TIP3    H224475   3.536   0.168   4.652 -0.5466  0.0723  0.6840
 8171TIP3   OH224476   4.970   4.504   4.537 -0.5332  0.1118  0.1853
 8171TIP3    H124477   4.907   4.575   4.545 -2.3290 -1.4523  0.6743
 8171TIP3    H224478   4.918   4.430   4.504  1.4137 -0.7758 -1.0496
 8172TIP3   OH224479   2.033   1.597   3.176  0.3655  0.3648 -0.3123
 8172TIP3    H124480   2.070   1.678   3.140  0.0708 -0.0025 -1.4788
 8172TIP3    H224481   1.941   1.616   3.190  0.4768  0.5037  0.2625
 8173TIP3   OH224482   4.795   0.937   3.879  0.4564  0.2137  0.0942
 8173TIP3    H124483   4.750   0.882   3.944 -1.4292  1.6217  0.0470
 8173TIP3    H224484   4.829   1.011   3.929  0.9010  0.2214 -0.2106
 8174TIP3   OH224485   1.521   0.313   3.096 -0.1588 -0.3278 -0.4845
 8174TIP3    H124486   1.481   0.363   3.025 -0.2190  0.2058 -0.0784
 8174TIP3    H224487   1.448   0.272   3.142 -0.4341  1.9312  1.2403
 8175TIP3   OH224488   6.752   1.570   1.022  0.2743  0.1957  0.6298
 8175TIP3    H124489   6.779   1.493   0.973 -0.5880 -0.7181  1.5602
 8175TIP3    H224490   6.834   1.617   1.039  0.6096  0.6768 -1.8048
 8176TIP3   OH224491   3.072   3.243   0.913 -0.7674 -0.1595  0.0672
 8176TIP3    H124492   3.063   3.186   0.837 -1.0808  3.1618 -2.6329
 8176TIP3    H224493   3.166   3.243   0.932 -0.3458  0.5596 -1.7823
 8177TIP3   OH224494   0.043   2.399   2.075  0.3567  0.2040 -0.5728
 8177TIP3    H124495   0.121   2.405   2.020  0.5552 -2.4046 -0.6653
 8177TIP3    H224496   0.071   2.435   2.160  1.3165  0.2853 -0.9151
 8178TIP3   OH224497   1.997   4.351   1.780  0.2730  0.5310 -0.5258
 8178TIP3    H124498   1.990   4.327   1.687  0.9630 -1.0757 -0.1769
 8178TIP3    H224499   1.915   4.397   1.798 -0.9456 -1.1943 -1.3646
 8179TIP3   OH224500   6.400   1.670   1.356 -0.3712 -0.2028 -0.5351
 8179TIP3    H124501   6.480   1.644   1.402  0.2291  1.6949 -0.4451
 8179TIP3    H224502   6.429   1.695   1.269 -0.8968  0.3404 -0.5569
 8180TIP3   OH224503   2.815   4.903   0.414 -0.0942  0.0314 -0.1905
 8180TIP3    H124504   2.746   4.926   0.351  0.3287 -0.6340 -0.9124
 8180TIP3    H224505   2.884   4.967   0.398  0.0915 -0.2529 -0.5432
 8181TIP3   OH224506   0.461   3.102   4.637  0.3575 -0.0485  0.4194
 8181TIP3    H124507   0.474   3.164   4.566 -0.1782 -1.5057 -0.9956
 8181TIP3    H224508   0.403   3.147   4.698  0.0368  0.8611 -0.5291
 8182TIP3   OH224509   6.823   6.385   1.119  0.2587  0.2647 -0.4862
 8182TIP3    H124510   6.866   6.462   1.083  0.9806 -0.2629 -0.7778
 8182TIP3    H224511   6.873   6.311   1.084  0.6974 -0.2874  1.2174
 8183TIP3   OH224512   1.008   5.398   0.880  0.3875 -0.0022 -0.4682
 8183TIP3    H124513   0.923   5.355   0.868  0.7584 -0.2508 -2.4635
 8183TIP3    H224514   1.072   5.332   0.853  1.2416  0.1833  1.0280
 8184TIP3   OH224515   4.956   4.612   2.859  0.2367  0.0801  0.0993
 8184TIP3    H124516   5.041   4.568   2.848  2.3164  3.5116  1.0550
 8184TIP3    H224517   4.958   4.645   2.949 -1.3876  1.6733 -0.4056
 8185TIP3   OH224518   2.407   6.539   4.810 -0.1984 -0.1780 -0.2672
 8185TIP3    H124519   2.483   6.582   4.849  0.0140 -0.9721  0.2202
 8185TIP3    H224520   2.332   6.586   4.845  0.0399  0.0721 -0.0844
 8186TIP3   OH224521   4.361   3.065   3.328  0.4236 -0.4654  0.1656
 8186TIP3    H124522   4.304   3.098   3.397 -0.2681 -1.0812 -0.0954
 8186TIP3    H224523   4.407   3.142   3.295 -0.5838  0.1065  0.0920
 8187TIP3   OH224524   6.005   6.387   2.652  0.3732  0.0496 -0.0480
 8187TIP3    H124525   6.092   6.425   2.642  0.0357  0.7040 -0.7107
 8187TIP3    H224526   6.015   6.319   2.718  1.7397 -1.0148 -1.2877
 8188TIP3   OH224527   0.444   3.151   4.924 -0.0688 -0.2573  0.3061
 8188TIP3    H124528   0.503   3.180   4.993 -1.1341 -0.9040  1.5377
 8188TIP3    H224529   0.432   3.057   4.940  0.0268 -0.5182 -1.0477
 8189TIP3   OH224530   0.277   6.504   5.006  0.3776  0.2533  0.3152
 8189TIP3    H124531   0.219   6.432   4.982  1.2766 -0.7434  1.0219
 8189TIP3    H224532   0.237   6.543   5.083  0.3232 -0.0391  0.4344
 8190TIP3   OH224533   1.897   2.837   2.505 -0.7733  0.3519 -0.4128
 8190TIP3    H124534   1.807   2.804   2.499 -0.7599  0.4172 -1.0162
 8190TIP3    H224535   1.897   2.915   2.450 -0.2662  0.1842 -0.6492
 8191TIP3   OH224536   4.712   2.747   3.190 -0.3472  0.5061  0.2373
 8191TIP3    H124537   4.697   2.680   3.123  2.0764  2.6324 -2.6862
 8191TIP3    H224538   4.804   2.735   3.215 -0.7123  0.9311  1.8702
 8192TIP3   OH224539   3.019   4.271   1.780  0.1931  0.4770  0.3686
 8192TIP3    H124540   3.081   4.304   1.845 -0.1758  1.0094  0.4575
 8192TIP3    H224541   3.032   4.327   1.704 -0.1429  0.5630  0.3707
 8193TIP3   OH224542   0.020   0.696   5.564  0.7804 -0.3809 -0.7037
 8193TIP3    H124543  -0.072   0.706   5.538  0.3207  0.8293  1.1937
 8193TIP3    H224544   0.066   0.762   5.513  0.4281 -0.2482 -0.8535
 8194TIP3   OH224545   0.525   5.189   0.062  0.4301 -0.1390  0.6150
 8194TIP3    H124546   0.485   5.173  -0.023  0.6970  0.3481  0.3971
 8194TIP3    H224547   0.488   5.120   0.119 -0.3212 -0.0132  0.2957
 8195TIP3   OH224548   2.205   1.980   5.623  0.3705  0.2679  0.2029
 8195TIP3    H124549   2.189   1.989   5.529  1.4273 -0.7516 -0.0976
 8195TIP3    H224550   2.122   1.949   5.659  0.4307 -0.9548 -0.6612
 8196TIP3   OH224551   5.378   1.422   5.105 -0.1045 -0.6606 -0.1192
 8196TIP3    H124552   5.347   1.350   5.160  1.2907 -0.3869  1.0957
 8196TIP3    H224553   5.315   1.426   5.033 -0.4764 -2.7973  0.0067
 8197TIP3   OH224554   7.129   1.546   4.436 -0.0761  0.6398 -0.0459
 8197TIP3    H124555   7.170   1.496   4.366 -0.8849  1.8542 -1.4255
 8197TIP3    H224556   7.035   1.545   4.416 -0.3217  1.0717  0.9800
 8198TIP3   OH224557   1.246   1.621   3.992 -0.7068  0.2089 -0.2378
 8198TIP3    H124558   1.311   1.652   4.055 -0.8018  0.0462 -0.0602
 8198TIP3    H224559   1.185   1.694   3.982  0.3561  0.9640 -1.5786
 8199TIP3   OH224560   1.567   4.751   1.012  0.4623  0.0164 -0.1848
 8199TIP3    H124561   1.549   4.833   1.057  0.2506 -1.6990  3.1351
 8199TIP3    H224562   1.483   4.704   1.014  0.4594 -0.1829 -2.4287
 8200TIP3   OH224563   0.571   6.581   2.875 -0.4765  0.4662 -0.4001
 8200TIP3    H124564   0.489   6.575   2.925  0.3496 -0.6613  0.9082
 8200TIP3    H224565   0.625   6.642   2.927  0.9270 -1.8153  0.9843
 8201TIP3   OH224566   4.774   4.367   5.524  0.3562 -0.3292  0.3483
 8201TIP3    H124567   4.735   4.450   5.495  1.4412  0.3712  0.8077
 8201TIP3    H224568   4.809   4.329   5.443  2.0300  0.8894  0.4263
 8202TIP3   OH224569   0.589   4.577   5.026  0.5943  0.6455 -0.4403
 8202TIP3    H124570   0.623   4.520   5.095 -0.5938 -0.1176 -0.4618
 8202TIP3    H224571   0.510   4.533   4.995  0.3613  1.6672 -1.3513
 8203TIP3   OH224572   4.479   5.301   3.486 -0.0667  0.3738  0.1842
 8203TIP3    H124573   4.459   5.336   3.573 -0.1276  1.5262 -0.2767
 8203TIP3    H224574   4.396   5.303   3.439 -0.4363 -1.8837  0.5995
 8204TIP3   OH224575   5.288   0.282   3.702  0.1421 -0.3008  0.1278
 8204TIP3    H124576   5.350   0.279   3.775 -2.7040 -1.5035  2.6709
 8204TIP3    H224577   5.269   0.375   3.690  2.1658  0.0814 -0.5767
 8205TIP3   OH224578   0.531   6.008   0.656 -0.2813  0.7134 -0.0115
 8205TIP3    H124579   0.574   5.924   0.669  2.6315  1.4832 -3.3220
 8205TIP3    H224580   0.595   6.073   0.683 -0.2483  1.8742 -2.5912
 8206TIP3   OH224581   3.733   4.826   3.566  0.0564 -0.4932  0.1881
 8206TIP3    H124582   3.749   4.920   3.569 -0.5769 -0.3717 -0.2615
 8206TIP3    H224583   3.821   4.787   3.557  0.1730  0.1630 -1.9833
 8207TIP3   OH224584   6.499   6.209   0.603 -0.3599  0.5243  1.0796
 8207TIP3    H124585   6.420   6.183   0.556 -0.3856  0.9702  0.8753
 8207TIP3    H224586   6.571   6.170   0.553 -0.5280 -1.9576  2.5812
 8208TIP3   OH224587   6.706   5.051   3.232  0.7732 -0.0044 -0.7044
 8208TIP3    H124588   6.611   5.038   3.235  0.9560 -2.8943 -3.0185
 8208TIP3    H224589   6.716   5.137   3.192 -0.7847  1.1773  1.2391
 8209TIP3   OH224590   5.897   4.008   3.020  0.2719 -0.3892  0.3277
 8209TIP3    H124591   5.864   4.044   2.937  1.8351 -2.5556 -1.3589
 8209TIP3    H224592   5.983   3.972   2.998 -0.2231 -3.1378  2.3127
 8210TIP3   OH224593   3.418   6.748   0.458 -0.5494  0.1878  0.6760
 8210TIP3    H124594   3.423   6.773   0.366 -1.4980  0.8074  0.7848
 8210TIP3    H224595   3.446   6.656   0.459  0.3123  0.4266 -0.1007
 8211TIP3   OH224596   2.536   0.648   2.252  0.1919  0.0512 -0.1809
 8211TIP3    H124597   2.522   0.672   2.344 -0.6053  1.0807 -0.5426
 8211TIP3    H224598   2.569   0.729   2.212 -1.4983  0.2622 -1.2305
 8212TIP3   OH224599   1.363   3.111   2.358 -0.1153 -0.2569 -0.3606
 8212TIP3    H124600   1.285   3.162   2.338 -0.6536 -0.2014  1.6858
 8212TIP3    H224601   1.333   3.042   2.417  1.3981 -0.0762  0.6994
 8213TIP3   OH224602   3.043   2.167   4.959 -0.0263  0.2885  0.3424
 8213TIP3    H124603   2.993   2.172   5.041  1.2130  0.5036  1.1223
 8213TIP3    H224604   3.126   2.211   4.980  0.3987  0.1350 -0.9701
 8214TIP3   OH224605   2.222   1.153   3.803 -0.6029 -0.1807 -0.2517
 8214TIP3    H124606   2.313   1.176   3.788  0.0097 -1.7820  0.7211
 8214TIP3    H224607   2.218   1.125   3.895 -2.2201  0.4616 -0.0768
 8215TIP3   OH224608   4.377   5.190   1.770 -0.0426 -0.0872 -0.3241
 8215TIP3    H124609   4.434   5.258   1.735 -0.5985  0.2157 -0.6454
 8215TIP3    H224610   4.408   5.177   1.860 -0.7414  1.5138  0.1840
 8216TIP3   OH224611   0.933   3.363   5.017 -0.7187 -0.1744  0.2932
 8216TIP3    H124612   0.913   3.438   5.074 -1.7565  2.4255 -3.1238
 8216TIP3    H224613   1.028   3.365   5.007 -0.6755  0.3203  0.7429
 8217TIP3   OH224614   2.755   0.094   3.470  0.3040 -0.2107 -0.2385
 8217TIP3    H124615   2.813   0.054   3.535 -0.3198  0.6461  0.8620
 8217TIP3    H224616   2.692   0.026   3.449  0.9797 -0.7571 -0.5628
 8218TIP3   OH224617   6.203   3.026   0.700  0.2002 -0.4415 -0.4728
 8218TIP3    H124618   6.238   2.938   0.713 -0.0780 -0.4924 -0.0353
 8218TIP3    H224619   6.110   3.012   0.682  0.3085 -0.2819 -1.1840
 8219TIP3   OH224620   3.831   3.905   3.393  0.2331  0.0332 -0.0051
 8219TIP3    H124621   3.876   3.828   3.359  0.4693  0.5297 -0.8388
 8219TIP3    H224622   3.750   3.870   3.431  0.0043 -0.5514 -1.0092
 8220TIP3   OH224623   1.566   2.843   3.194 -0.2650 -0.0524 -0.6158
 8220TIP3    H124624   1.601   2.913   3.250 -0.4075 -0.0356 -0.5485
 8220TIP3    H224625   1.637   2.779   3.191  0.2256  0.5064 -1.4209
 8221TIP3   OH224626   5.783   3.129   4.112 -0.1640  0.6360  0.0615
 8221TIP3    H124627   5.720   3.085   4.169 -1.2519  1.9687 -0.0601
 8221TIP3    H224628   5.842   3.174   4.173 -0.5552  1.0242  0.1572
 8222TIP3   OH224629   5.390   0.534   5.083 -0.1991  0.2292 -0.5188
 8222TIP3    H124630   5.309   0.505   5.041 -1.5888 -0.2616  2.2225
 8222TIP3    H224631   5.423   0.605   5.028 -2.9743  1.0280 -1.2969
 8223TIP3   OH224632   4.048   6.322   3.233  0.0400 -0.0156  0.5018
 8223TIP3    H124633   3.987   6.253   3.261 -1.2913  0.5701 -0.7702
 8223TIP3    H224634   4.133   6.293   3.264 -0.4506 -2.3233 -0.0805
 8224TIP3   OH224635   3.811   0.375   5.035 -0.4550 -0.4553 -0.0210
 8224TIP3    H124636   3.734   0.419   5.070 -0.4064  0.4505 -1.0191
 8224TIP3    H224637   3.820   0.297   5.090 -0.4866  0.7932  1.8552
 8225TIP3   OH224638   0.509   1.257   4.839 -0.1893  0.1692  0.0773
 8225TIP3    H124639   0.536   1.316   4.768  0.8523  1.7784  1.7293
 8225TIP3    H224640   0.587   1.204   4.856  0.4565  1.5446  1.6620
 8226TIP3   OH224641   4.186   0.172   2.922 -0.5816  0.0099 -0.1678
 8226TIP3    H124642   4.192   0.267   2.935 -0.2457  0.0971 -0.9303
 8226TIP3    H224643   4.157   0.139   3.007 -2.2423  0.9414 -0.3253
 8227TIP3   OH224644   4.798   1.925   5.603  0.1661 -0.1023  0.0115
 8227TIP3    H124645   4.891   1.948   5.598  1.0078 -3.3201 -1.1162
 8227TIP3    H224646   4.753   2.009   5.592  2.8738  1.4609 -0.2704
 8228TIP3   OH224647   3.395   0.950   4.752 -0.8099 -0.2790  0.1394
 8228TIP3    H124648   3.326   0.918   4.693 -0.9556  0.6447 -0.2067
 8228TIP3    H224649   3.349   1.002   4.817 -0.5228 -0.3302  0.3849
 8229TIP3   OH224650   5.597   1.324   3.668  0.2166 -0.0598  0.2087
 8229TIP3    H124651   5.691   1.319   3.685 -0.0751 -0.5827  1.7551
 8229TIP3    H224652   5.556   1.305   3.752 -1.2800  0.5118 -0.3629
 8230TIP3   OH224653   0.312   4.747   3.425 -0.5649 -0.2016 -0.0203
 8230TIP3    H124654   0.367   4.725   3.349  0.2562  0.8597  0.2402
 8230TIP3    H224655   0.358   4.709   3.500 -0.3866  0.3424  0.1522
 8231TIP3   OH224656   2.723   1.555   5.463 -0.2353 -0.4264 -0.1655
 8231TIP3    H124657   2.790   1.522   5.523  0.0169  0.0426 -0.1769
 8231TIP3    H224658   2.641   1.546   5.510 -0.0000  0.2608  0.4029
 8232TIP3   OH224659   4.799   6.416   1.502 -0.1041  0.4381 -0.2490
 8232TIP3    H124660   4.839   6.373   1.426 -0.4929  1.8868 -1.3158
 8232TIP3    H224661   4.706   6.395   1.496  0.0064 -0.3039  0.4401
 8233TIP3   OH224662   3.099   6.653   4.035 -0.1919 -0.8942  0.5786
 8233TIP3    H124663   3.070   6.733   3.991 -0.0981 -0.9460  0.4204
 8233TIP3    H224664   3.019   6.618   4.075  0.4069  1.5787  4.4750
 8234TIP3   OH224665   4.610   0.761   2.221 -0.0013 -0.5879  0.4218
 8234TIP3    H124666   4.650   0.706   2.154 -0.6546 -1.0662  0.4128
 8234TIP3    H224667   4.676   0.768   2.289  1.1060  0.7953 -0.7274
 8235TIP3   OH224668   2.226   5.704   4.890 -0.3907  0.3074  0.5675
 8235TIP3    H124669   2.310   5.739   4.920  0.2405 -0.1937 -0.5652
 8235TIP3    H224670   2.187   5.776   4.840  1.0207 -0.5674 -1.9758
 8236TIP3   OH224671   6.040   5.445   4.799 -0.3239 -0.4173  0.2009
 8236TIP3    H124672   6.081   5.521   4.841 -0.0980 -0.3501 -0.1420
 8236TIP3    H224673   6.038   5.467   4.706  0.6100 -1.2338 -0.0226
 8237TIP3   OH224674   3.677   4.570   2.895 -0.0475  0.4495 -0.3467
 8237TIP3    H124675   3.623   4.634   2.849 -1.3302 -0.2966  0.0450
 8237TIP3    H224676   3.658   4.487   2.851  0.7589  0.1558 -0.1659
 8238TIP3   OH224677   1.943   1.477   1.473  0.1107 -0.0986 -0.0154
 8238TIP3    H124678   1.925   1.384   1.484 -2.2062  0.3878  0.8301
 8238TIP3    H224679   1.900   1.500   1.390 -1.6422  0.6976  1.0586
 8239TIP3   OH224680   5.584   2.588   2.909  0.8040 -0.1446  0.2949
 8239TIP3    H124681   5.521   2.654   2.940 -0.3912 -0.5610 -1.1218
 8239TIP3    H224682   5.585   2.522   2.978  2.1232  1.3722  1.8067
 8240TIP3   OH224683   2.045   0.696   0.925  0.4915 -0.1884 -0.4084
 8240TIP3    H124684   2.104   0.723   0.996  0.6396 -1.5487  0.0088
 8240TIP3    H224685   2.087   0.729   0.845  1.4859 -0.5768 -0.0613
 8241TIP3   OH224686   4.528   0.230   4.478 -1.0451  0.0972  0.6357
 8241TIP3    H124687   4.479   0.158   4.439  1.2167 -0.6995 -0.9957
 8241TIP3    H224688   4.571   0.192   4.554 -1.5468  0.3094  1.0261
 8242TIP3   OH224689   2.854   2.187   4.118  0.6446 -0.2208  0.0110
 8242TIP3    H124690   2.826   2.096   4.117  0.8278 -0.2790  0.0420
 8242TIP3    H224691   2.838   2.215   4.208  2.9768 -0.9939  0.7513
 8243TIP3   OH224692   3.533   4.131   4.337  0.3339 -0.2948  0.1207
 8243TIP3    H124693   3.513   4.049   4.383 -1.5597 -0.0598 -0.2303
 8243TIP3    H224694   3.461   4.190   4.359  1.0155  0.8625 -0.6422
 8244TIP3   OH224695   0.232   2.925   5.635  0.5163  0.0623 -0.0925
 8244TIP3    H124696   0.320   2.961   5.646 -0.5838  2.9916  0.2832
 8244TIP3    H224697   0.188   2.944   5.719 -1.3557  1.7005 -1.3428
 8245TIP3   OH224698   2.031   2.030   5.367 -0.2819 -0.3464 -0.0530
 8245TIP3    H124699   2.024   1.993   5.279  1.3481 -0.9227  0.0357
 8245TIP3    H224700   1.991   1.964   5.424 -1.1275 -0.0783 -0.3239
 8246TIP3   OH224701   3.399   2.248   5.203 -0.8492  0.0885 -0.2256
 8246TIP3    H124702   3.482   2.216   5.239 -0.4630  1.8704  0.5383
 8246TIP3    H224703   3.388   2.336   5.239 -2.5808  0.2986 -1.1207
 8247TIP3   OH224704   0.486   3.463   4.419 -0.3783  0.3062  0.6553
 8247TIP3    H124705   0.541   3.538   4.443 -0.6964  1.1501 -1.0497
 8247TIP3    H224706   0.434   3.495   4.345 -1.1090 -1.3627  0.4095
 8248TIP3   OH224707   6.855   6.803   4.566 -0.0165  0.2219 -0.0195
 8248TIP3    H124708   6.831   6.730   4.508  0.4319 -0.4431  0.6037
 8248TIP3    H224709   6.838   6.770   4.654  0.3343  0.8219  0.2771
 8249TIP3   OH224710   1.608   2.021   2.254  0.6705 -0.1757  0.1931
 8249TIP3    H124711   1.604   2.104   2.206 -0.7435  1.1555  2.4257
 8249TIP3    H224712   1.672   2.037   2.324  0.8132 -1.1956  0.3159
 8250TIP3   OH224713   3.603   6.211   2.307  0.2258 -0.3580 -0.0347
 8250TIP3    H124714   3.646   6.251   2.232  1.5240 -0.6402  0.5197
 8250TIP3    H224715   3.554   6.137   2.271 -0.2934  0.3233 -0.7599
 8251TIP3   OH224716   5.898   0.838   1.113  0.5075  0.5363 -0.1753
 8251TIP3    H124717   5.960   0.901   1.076 -0.6909  1.3454 -0.9045
 8251TIP3    H224718   5.869   0.878   1.195  0.9223  0.1736  0.1509
 8252TIP3   OH224719   1.204   5.027   2.677  0.1489 -0.8194  0.1635
 8252TIP3    H124720   1.269   5.057   2.741  1.1419 -2.2241 -0.1247
 8252TIP3    H224721   1.160   4.955   2.721 -1.0165 -0.0804  0.2304
 8253TIP3   OH224722   0.180   5.165   4.967 -0.0836 -0.5750 -0.2460
 8253TIP3    H124723   0.178   5.117   5.050 -1.0856  0.3757  0.2925
 8253TIP3    H224724   0.269   5.199   4.962  0.4363 -1.8785 -0.2994
 8254TIP3   OH224725   1.493   5.441   4.275  0.0074 -0.1903 -0.2855
 8254TIP3    H124726   1.445   5.458   4.194  0.0448  0.5784 -0.1559
 8254TIP3    H224727   1.466   5.353   4.301  0.2481 -0.5841 -1.3069
 8255TIP3   OH224728   3.015   1.944   3.029 -0.7432  0.9459  0.2740
 8255TIP3    H124729   3.091   1.982   3.072  1.3173 -1.8126 -0.6930
 8255TIP3    H224730   2.970   1.896   3.098 -1.6347  2.4673  0.8149
 8256TIP3   OH224731   4.533   1.300   3.156  0.1965 -0.1870 -0.2228
 8256TIP3    H124732   4.535   1.270   3.247 -0.0550 -1.1737 -0.5246
 8256TIP3    H224733   4.570   1.227   3.106  1.2424  0.7265 -0.8275
 8257TIP3   OH224734   2.035   4.937   3.854 -0.7071  0.1756 -0.3500
 8257TIP3    H124735   1.983   4.975   3.925 -1.2800  0.7321 -1.0505
 8257TIP3    H224736   2.122   4.976   3.864  0.1731 -2.1154  1.9233
 8258TIP3   OH224737   4.446   2.318   3.521 -0.1547  0.3443  0.4933
 8258TIP3    H124738   4.415   2.409   3.523 -1.5170 -0.0645 -0.6067
 8258TIP3    H224739   4.529   2.322   3.473  0.2175  1.1173  1.1917
 8259TIP3   OH224740   0.381   3.560   2.256  0.0076 -0.8159 -0.4459
 8259TIP3    H124741   0.470   3.536   2.281 -0.4522 -2.0556  0.1020
 8259TIP3    H224742   0.367   3.646   2.294  0.8178 -0.8087 -0.1541
 8260TIP3   OH224743   5.469   6.365   0.904  0.0415 -0.3355  0.1546
 8260TIP3    H124744   5.547   6.324   0.868 -0.1488 -0.5874  0.0198
 8260TIP3    H224745   5.496   6.399   0.989  0.3762 -0.1428 -0.0277
 8261TIP3   OH224746   6.840   6.036   3.120 -0.0144  0.5288  0.0024
 8261TIP3    H124747   6.796   6.107   3.168  1.6980  2.3417 -0.9482
 8261TIP3    H224748   6.771   5.999   3.064 -0.9420  1.5115  0.4487
 8262TIP3   OH224749   2.977   6.724   3.435 -0.0439  0.6693  0.1488
 8262TIP3    H124750   2.983   6.818   3.450  2.1815  0.5363  0.4796
 8262TIP3    H224751   2.946   6.689   3.519 -0.6548  1.0676  0.0981
 8263TIP3   OH224752   5.444   3.335   4.902 -0.4808  0.2718  0.1877
 8263TIP3    H124753   5.519   3.301   4.950  0.5448  1.1354 -0.7325
 8263TIP3    H224754   5.428   3.269   4.834 -1.3336 -0.4945  1.1235
 8264TIP3   OH224755   2.006   2.299   3.698  0.2988 -0.0854  0.1264
 8264TIP3    H124756   1.940   2.312   3.765  0.1373 -1.5675  0.2714
 8264TIP3    H224757   2.081   2.351   3.728 -1.1751  2.7747 -0.7276
 8265TIP3   OH224758   2.175   5.114   5.046  0.1066  0.5414 -0.5111
 8265TIP3    H124759   2.246   5.067   5.002  1.8197  0.2255  2.3331
 8265TIP3    H224760   2.207   5.204   5.054 -1.0700  1.0884 -1.6657
 8266TIP3   OH224761   6.024   3.780   2.479  0.1373 -0.0827 -0.3325
 8266TIP3    H124762   6.052   3.823   2.559  0.3564 -1.6857  0.4916
 8266TIP3    H224763   5.938   3.817   2.460 -0.8488 -1.1000  1.8113
 8267TIP3   OH224764   3.363   2.164   5.685 -0.2828  0.1801  0.3146
 8267TIP3    H124765   3.396   2.135   5.770 -1.6238 -1.1620  0.4246
 8267TIP3    H224766   3.442   2.175   5.632  0.6991  2.3857  2.0538
 8268TIP3   OH224767   0.997   2.462   4.926  0.1029 -0.3361 -0.1462
 8268TIP3    H124768   0.997   2.377   4.881  1.5316  0.9653 -2.8427
 8268TIP3    H224769   1.075   2.459   4.982  1.2825 -0.1557 -1.7127
 8269TIP3   OH224770   4.103   0.600   4.622  0.5322 -0.3686 -0.2698
 8269TIP3    H124771   4.143   0.614   4.707  0.9138  2.3328 -0.8056
 8269TIP3    H224772   4.011   0.582   4.640  0.8308 -0.9388  0.7263
 8270TIP3   OH224773   0.665   2.973   5.487  0.2150 -0.4010 -0.4923
 8270TIP3    H124774   0.656   2.953   5.394  2.4518 -0.5604 -0.7113
 8270TIP3    H224775   0.685   2.889   5.528  0.6663 -0.1030 -0.0918
 8271TIP3   OH224776   1.053   1.643   1.786 -0.2743  0.1412 -0.2512
 8271TIP3    H124777   1.014   1.574   1.839 -0.6746  2.2293  2.3546
 8271TIP3    H224778   0.982   1.670   1.726 -0.3122 -1.1829 -0.8440
 8272TIP3   OH224779   1.632   5.868   0.337  0.0310  0.1837  0.7600
 8272TIP3    H124780   1.601   5.905   0.420 -1.0928  0.6077  0.1716
 8272TIP3    H224781   1.610   5.775   0.343 -1.4749  0.4920  0.3224
 8273TIP3   OH224782   4.466   4.414   5.571 -0.0057 -0.1522  0.1692
 8273TIP3    H124783   4.503   4.382   5.653 -0.7001  1.4041  1.1483
 8273TIP3    H224784   4.396   4.352   5.549  0.1803 -0.5732  0.7665
 8274TIP3   OH224785   4.191   4.883   1.551 -0.4368 -0.0193 -0.3677
 8274TIP3    H124786   4.217   4.793   1.568 -0.7048  0.0862  0.7106
 8274TIP3    H224787   4.254   4.936   1.601 -1.1771  0.3209  0.2430
 8275TIP3   OH224788   6.746   0.256   1.945  0.4462 -0.0013  1.0346
 8275TIP3    H124789   6.766   0.163   1.936 -0.9388 -0.2393  0.1294
 8275TIP3    H224790   6.781   0.280   2.031  3.4023 -0.6252  0.1148
 8276TIP3   OH224791   3.336   2.309   3.322  0.4420 -0.0532  0.4799
 8276TIP3    H124792   3.391   2.381   3.352  2.1189 -1.1617  0.2180
 8276TIP3    H224793   3.387   2.230   3.341 -1.5856 -1.2444  1.3200
 8277TIP3   OH224794   2.859   4.578   0.206 -0.1064  0.0893  0.1185
 8277TIP3    H124795   2.934   4.605   0.260  1.1750 -0.4054 -1.3596
 8277TIP3    H224796   2.872   4.484   0.192  0.6494  0.5062 -2.5407
 8278TIP3   OH224797   4.646   0.550   0.891 -0.4307 -0.3152 -0.0020
 8278TIP3    H124798   4.665   0.604   0.968 -0.7066 -0.0393 -0.1257
 8278TIP3    H224799   4.724   0.495   0.881 -0.4878 -0.5262  0.6137
 8279TIP3   OH224800   6.727   3.566   1.790  0.0717  0.3756  0.3831
 8279TIP3    H124801   6.765   3.487   1.828  1.3290  1.6125  1.8415
 8279TIP3    H224802   6.701   3.619   1.866 -0.1387  1.6425 -0.5369
 8280TIP3   OH224803   4.233   1.479   1.291  0.2310  0.3372 -0.3452
 8280TIP3    H124804   4.189   1.458   1.209 -0.8312  0.4084  0.1937
 8280TIP3    H224805   4.313   1.526   1.264 -0.8477  1.7275 -1.2959
 8281TIP3   OH224806   1.135   2.009   3.134 -0.4489 -0.0536 -0.2432
 8281TIP3    H124807   1.041   2.023   3.121 -0.4400  0.4636  0.1698
 8281TIP3    H224808   1.175   2.090   3.102 -0.2911  0.4418  1.1244
 8282TIP3   OH224809   7.171   5.834   2.822 -0.1536 -0.0187 -0.1819
 8282TIP3    H124810   7.175   5.796   2.910  1.2602  0.0383 -0.1898
 8282TIP3    H224811   7.250   5.801   2.779  1.4581  3.2023 -0.0418
 8283TIP3   OH224812   2.691   1.485   1.943  0.6581 -0.0419 -0.0129
 8283TIP3    H124813   2.615   1.428   1.945 -0.1145  0.9872  0.8525
 8283TIP3    H224814   2.730   1.477   2.030  0.4986  0.8064  0.1425
 8284TIP3   OH224815   2.160   6.358   3.682  0.1375  0.0283  0.1077
 8284TIP3    H124816   2.163   6.294   3.611  0.1793 -1.0255  1.0482
 8284TIP3    H224817   2.238   6.413   3.668  1.5792 -1.7648  0.7910
 8285TIP3   OH224818   5.894   4.255   3.146  0.6499 -0.0439 -0.0541
 8285TIP3    H124819   5.875   4.171   3.105  2.1505 -1.3433  1.7258
 8285TIP3    H224820   5.979   4.281   3.112  1.2135 -0.3849  1.0529
 8286TIP3   OH224821   4.903   6.514   3.656  0.5292 -0.1880  0.6994
 8286TIP3    H124822   4.811   6.538   3.657  0.4335 -0.1964 -1.8765
 8286TIP3    H224823   4.939   6.551   3.737 -2.0168 -1.5801  2.5993
 8287TIP3   OH224824   2.624   1.793   1.170  0.0956 -0.0075  0.3040
 8287TIP3    H124825   2.702   1.743   1.193  0.9971  0.8987 -0.6628
 8287TIP3    H224826   2.551   1.733   1.186  1.2048 -2.2614 -2.3694
 8288TIP3   OH224827   1.415   1.827   4.586  0.2812 -0.0696  0.3894
 8288TIP3    H124828   1.329   1.868   4.586 -0.0984 -0.8175 -0.6305
 8288TIP3    H224829   1.448   1.842   4.674 -0.4074  1.2088  0.4608
 8289TIP3   OH224830   2.008   5.462   4.358  0.3102  0.2835 -0.2144
 8289TIP3    H124831   1.993   5.542   4.308 -2.0291 -0.4359 -0.7786
 8289TIP3    H224832   2.034   5.492   4.445  0.8964  1.6138 -0.8198
 8290TIP3   OH224833   6.986   3.266   2.634  0.3522 -0.0711 -0.5978
 8290TIP3    H124834   6.982   3.302   2.723  0.7659 -0.6306 -0.3456
 8290TIP3    H224835   6.939   3.330   2.580  0.1060  0.2779  0.0198
 8291TIP3   OH224836   2.418   6.250   2.606 -0.8224 -0.2495 -0.0371
 8291TIP3    H124837   2.415   6.306   2.684 -0.2758  0.0157 -0.2065
 8291TIP3    H224838   2.467   6.173   2.634 -0.9828 -0.3418 -0.0051
 8292TIP3   OH224839   3.623   1.674   4.033  0.0038  0.7655  0.4507
 8292TIP3    H124840   3.680   1.669   4.109  2.3640  0.5257 -1.2088
 8292TIP3    H224841   3.557   1.740   4.055 -1.2711 -1.3780  3.7544
 8293TIP3   OH224842   4.730   5.536   1.792  0.2852  0.1022  0.1250
 8293TIP3    H124843   4.655   5.520   1.736  0.1140 -0.2191  0.4468
 8293TIP3    H224844   4.708   5.616   1.840 -0.9124 -1.2638  1.9867
 8294TIP3   OH224845   2.745   3.498   2.146 -0.6733  0.3959  0.2805
 8294TIP3    H124846   2.655   3.466   2.137 -0.5882  0.0926  0.4888
 8294TIP3    H224847   2.738   3.570   2.209 -0.8881  0.8941 -0.3044
 8295TIP3   OH224848   6.677   6.538   5.301  0.4058 -0.4136  0.0756
 8295TIP3    H124849   6.700   6.491   5.381 -0.3499 -0.9974 -0.0398
 8295TIP3    H224850   6.760   6.570   5.267  0.9482 -1.7065  0.1330
 8296TIP3   OH224851   5.303   3.852   5.518  0.2750 -0.0105 -0.5248
 8296TIP3    H124852   5.316   3.762   5.547 -0.5940  0.2298  0.6766
 8296TIP3    H224853   5.283   3.901   5.598  1.9121  1.4994 -0.9799
 8297TIP3   OH224854   6.072   1.649   0.766 -0.8776  0.0183 -0.4617
 8297TIP3    H124855   5.996   1.630   0.822  0.1811 -1.3225  0.6172
 8297TIP3    H224856   6.080   1.572   0.710 -0.0187 -0.1066 -0.1870
 8298TIP3   OH224857   2.515   3.170   4.592 -0.7431  0.1187 -0.1892
 8298TIP3    H124858   2.465   3.144   4.514 -0.5019  1.1846 -0.7176
 8298TIP3    H224859   2.454   3.223   4.643 -0.5646  0.3339 -0.1961
 8299TIP3   OH224860   0.284   4.779   4.558  0.4516 -0.0578 -0.5559
 8299TIP3    H124861   0.278   4.824   4.474 -0.6575 -0.8150 -0.9124
 8299TIP3    H224862   0.340   4.835   4.612 -0.5650  1.5697 -1.0981
 8300TIP3   OH224863   0.320   3.932   1.862  0.3845 -0.2458  0.0971
 8300TIP3    H124864   0.322   3.928   1.767  1.3911 -2.2186  0.1538
 8300TIP3    H224865   0.238   3.978   1.882 -0.0704 -0.2017 -1.6923
 8301TIP3   OH224866   1.645   3.735   2.307 -0.8743 -0.2936 -0.3296
 8301TIP3    H124867   1.739   3.721   2.307 -0.7132  0.7134 -0.4782
 8301TIP3    H224868   1.615   3.696   2.224 -0.5047 -0.1335 -0.5427
 8302TIP3   OH224869   2.322   3.695   4.207  0.2105 -0.0659 -0.2941
 8302TIP3    H124870   2.378   3.621   4.184 -0.3456 -0.5090 -0.2704
 8302TIP3    H224871   2.349   3.765   4.148  0.5096 -0.3983 -0.5586
 8303TIP3   OH224872   4.151   3.365   5.339  0.1738  0.5948  0.4275
 8303TIP3    H124873   4.174   3.307   5.267 -0.1445  0.2993  0.5603
 8303TIP3    H224874   4.230   3.369   5.393  1.4547  3.1469 -1.4446
 8304TIP3   OH224875   4.858   4.604   5.078  0.7426  0.4225 -0.0169
 8304TIP3    H124876   4.855   4.595   4.983  0.7662 -0.4190  0.0550
 8304TIP3    H224877   4.786   4.663   5.099  0.1630 -0.1008 -0.4880
 8305TIP3   OH224878   0.994   2.464   3.699  0.0622 -1.0644  0.3419
 8305TIP3    H124879   1.053   2.526   3.743  1.2713 -0.3732 -2.0857
 8305TIP3    H224880   0.972   2.507   3.617 -4.2577 -1.1370  1.2480
 8306TIP3   OH224881   3.004   5.799   4.859 -0.1559 -0.1162  0.5489
 8306TIP3    H124882   3.029   5.872   4.803  2.4419 -1.2557  0.0478
 8306TIP3    H224883   2.935   5.753   4.810  0.9756 -0.2101 -1.0295
 8307TIP3   OH224884   0.158   2.602   3.716 -0.1831 -0.4436 -0.8956
 8307TIP3    H124885   0.154   2.641   3.628 -2.0551  1.0696 -0.2209
 8307TIP3    H224886   0.191   2.673   3.771 -0.8573 -0.7428 -0.0920
 8308TIP3   OH224887   5.007   3.801   4.503 -0.7882  0.4523 -0.5124
 8308TIP3    H124888   4.979   3.804   4.594 -1.3278 -0.2088 -0.6554
 8308TIP3    H224889   4.928   3.783   4.453 -0.4348  0.4412 -1.0817
 8309TIP3   OH224890   0.554   4.024   1.138 -0.0116 -0.2457  0.7695
 8309TIP3    H124891   0.495   4.078   1.085 -0.8942 -0.0182  1.9409
 8309TIP3    H224892   0.634   4.076   1.145 -0.7015  0.7380  1.5368
 8310TIP3   OH224893   2.900   5.682   4.100  0.2076  0.8772 -0.2362
 8310TIP3    H124894   2.933   5.765   4.134  2.0165  0.1101  0.0189
 8310TIP3    H224895   2.924   5.683   4.007 -2.2455  1.7732 -0.9349
 8311TIP3   OH224896   0.804   4.445   0.811 -0.2011  0.2174  0.0168
 8311TIP3    H124897   0.896   4.430   0.832 -0.2179  1.0270  0.7610
 8311TIP3    H224898   0.770   4.493   0.887 -1.1222  0.3097 -0.4397
 8312TIP3   OH224899   1.843   1.847   0.997  0.3513 -0.4761  0.0252
 8312TIP3    H124900   1.795   1.911   1.048  0.6613 -1.2310  1.2973
 8312TIP3    H224901   1.920   1.894   0.965  0.3195 -0.0918  0.5132
 8313TIP3   OH224902   6.153   3.522   2.496  1.0781  0.4814 -0.4080
 8313TIP3    H124903   6.243   3.552   2.509  1.1615  0.5369 -1.0717
 8313TIP3    H224904   6.104   3.601   2.474  0.5700  0.6853  1.2585
 8314TIP3   OH224905   2.457   3.052   0.011 -0.4723 -0.1642 -0.0812
 8314TIP3    H124906   2.400   2.981   0.039 -0.1942 -0.5527 -0.5012
 8314TIP3    H224907   2.523   3.011  -0.044  1.0903  0.0388  1.5509
 8315TIP3   OH224908   0.967   2.364   3.110 -0.1358 -0.1464 -0.3234
 8315TIP3    H124909   0.959   2.350   3.204  2.0051  0.6420  0.0412
 8315TIP3    H224910   1.042   2.309   3.085  1.0780  1.7354 -1.0098
 8316TIP3   OH224911   5.507   3.384   3.553 -0.7451  0.1557 -0.0114
 8316TIP3    H124912   5.573   3.334   3.505 -0.0411 -0.1341  1.2182
 8316TIP3    H224913   5.448   3.318   3.589 -0.5539  0.2854  0.5471
 8317TIP3   OH224914   6.085   0.866   3.554 -0.1156 -0.4294 -0.0637
 8317TIP3    H124915   6.178   0.874   3.534 -0.1554  1.8131  0.3322
 8317TIP3    H224916   6.046   0.833   3.473  0.8364 -0.0157 -0.7148
 8318TIP3   OH224917   5.423   1.947   4.797 -0.0320  0.0551  0.3852
 8318TIP3    H124918   5.344   1.984   4.758  0.2620  0.2794 -0.0031
 8318TIP3    H224919   5.493   2.005   4.769  0.4284 -0.7474 -0.1924
 8319TIP3   OH224920   4.309   0.889   0.958  0.0242  0.2216 -0.0114
 8319TIP3    H124921   4.309   0.862   1.050 -1.2888  0.9727  0.2351
 8319TIP3    H224922   4.394   0.860   0.925  0.6434  0.1690  1.5094
 8320TIP3   OH224923   5.564   5.203   1.700 -0.0616  0.1823 -0.0250
 8320TIP3    H124924   5.619   5.128   1.718 -2.6920 -1.7310  0.6767
 8320TIP3    H224925   5.559   5.250   1.784  0.5734  0.4543 -0.1326
 8321TIP3   OH224926   4.519   3.462   5.695 -0.0686  0.4188  0.1646
 8321TIP3    H124927   4.505   3.476   5.789  0.8638 -0.3710  0.4301
 8321TIP3    H224928   4.432   3.471   5.657 -0.7097 -0.6608  1.2914
 8322TIP3   OH224929   0.550   3.123   3.526  0.4645  0.3193  0.3457
 8322TIP3    H124930   0.518   3.183   3.458 -0.5654 -1.8413 -1.1985
 8322TIP3    H224931   0.511   3.156   3.607 -1.4199  0.8143 -0.6930
 8323TIP3   OH224932   0.078   4.073   1.426 -0.1474  0.1657 -0.1857
 8323TIP3    H124933  -0.005   4.068   1.379 -0.3593  0.1449  0.1858
 8323TIP3    H224934   0.131   4.133   1.375 -0.3997  0.1933 -0.4162
 8324TIP3   OH224935   5.198   6.688   3.506  0.4852 -0.3833 -0.4998
 8324TIP3    H124936   5.173   6.607   3.549  4.4544 -2.2355 -1.2658
 8324TIP3    H224937   5.197   6.754   3.576 -0.1759 -1.6815  0.7548
 8325TIP3   OH224938   2.148   5.032   0.980  0.1997 -0.2531  0.3710
 8325TIP3    H124939   2.190   5.022   0.894 -0.8482  1.5383 -0.4184
 8325TIP3    H224940   2.116   5.122   0.980 -2.5916 -1.1216  1.3534
 8326TIP3   OH224941   1.355   0.566   1.289  0.4671 -0.0407 -0.3016
 8326TIP3    H124942   1.410   0.628   1.336 -0.8939  0.5779  0.5491
 8326TIP3    H224943   1.391   0.480   1.311  2.3919  0.3961 -1.5169
 8327TIP3   OH224944   7.223   0.209   1.739  0.2395  0.7282 -0.1636
 8327TIP3    H124945   7.204   0.118   1.718  1.0672  0.5907 -0.3199
 8327TIP3    H224946   7.138   0.253   1.729 -0.1567 -0.0092 -0.1257
 8328TIP3   OH224947   0.515   6.227   4.992  0.1587  0.3230 -0.3099
 8328TIP3    H124948   0.571   6.165   5.040 -0.3180  0.3952  0.3477
 8328TIP3    H224949   0.444   6.247   5.052 -1.5685 -1.1144 -1.7360
 8329TIP3   OH224950   5.881   6.322   1.438 -0.0101 -0.6001 -0.4861
 8329TIP3    H124951   5.815   6.350   1.376 -0.1015  1.6262  0.5209
 8329TIP3    H224952   5.896   6.399   1.494  2.4084 -1.4588  0.1864
 8330TIP3   OH224953   4.340   0.882   1.819  0.1247  0.6801 -0.6838
 8330TIP3    H124954   4.379   0.825   1.753 -1.3238  0.6873 -1.6011
 8330TIP3    H224955   4.405   0.887   1.889  1.2548 -0.1840 -1.6406
 8331TIP3   OH224956   2.521   4.777   1.647 -0.0952  0.0045 -0.0477
 8331TIP3    H124957   2.498   4.857   1.695 -0.9482  0.2765 -0.8824
 8331TIP3    H224958   2.450   4.766   1.584  0.4780 -0.9255 -0.5483
 8332TIP3   OH224959   2.213   3.864   3.508  0.2447 -0.1237  0.5436
 8332TIP3    H124960   2.258   3.801   3.563  1.7916  0.9676  0.5935
 8332TIP3    H224961   2.281   3.898   3.449 -1.0962 -0.3839 -1.2593
 8333TIP3   OH224962   7.005   0.495   0.842  0.0380 -0.0323 -0.4008
 8333TIP3    H124963   6.942   0.476   0.773  0.2987 -1.0632 -0.3787
 8333TIP3    H224964   7.028   0.587   0.830  0.0909 -0.2007 -1.6935
 8334TIP3   OH224965   4.377   4.445   0.802  0.6327  0.1780  0.3596
 8334TIP3    H124966   4.471   4.447   0.785  0.4835 -0.1461 -0.5186
 8334TIP3    H224967   4.341   4.512   0.744  0.4537  1.2136  1.6191
 8335TIP3   OH224968   1.056   4.770   2.474  0.2079  0.2416 -0.8194
 8335TIP3    H124969   1.046   4.765   2.569  1.2673  0.0613 -0.7096
 8335TIP3    H224970   1.123   4.837   2.460 -1.1975  1.5633 -1.5288
 8336TIP3   OH224971   0.005   2.910   5.468  0.1614  0.2427  0.7265
 8336TIP3    H124972   0.080   2.914   5.528  0.8813  2.1267 -0.2312
 8336TIP3    H224973  -0.011   3.001   5.443 -1.6750 -0.2518 -0.0759
 8337TIP3   OH224974   3.406   4.047   1.329 -0.0584  0.2443 -0.3224
 8337TIP3    H124975   3.472   4.000   1.379 -0.2081  1.2356  0.8880
 8337TIP3    H224976   3.450   4.126   1.299  0.1019 -0.4579 -2.0555
 8338TIP3   OH224977   0.834   6.814   2.831 -0.1308  0.1194 -0.3591
 8338TIP3    H124978   0.879   6.754   2.890  0.6027  1.1939  0.2024
 8338TIP3    H224979   0.879   6.804   2.747  1.3511  1.3383  0.2481
 8339TIP3   OH224980   4.887   0.179   1.766 -0.0332 -0.2210 -0.1341
 8339TIP3    H124981   4.920   0.165   1.855 -1.1401  0.1128  0.3471
 8339TIP3    H224982   4.803   0.223   1.778  0.2565  0.7234 -1.3850
 8340TIP3   OH224983   4.933   3.326   1.151  0.0757  0.1063 -0.4278
 8340TIP3    H124984   4.880   3.254   1.116 -1.7854  1.0164  0.4025
 8340TIP3    H224985   4.925   3.396   1.087 -2.6048  1.4538  1.2057
 8341TIP3   OH224986   3.997   6.649   4.623  0.4161  0.1262  0.0984
 8341TIP3    H124987   4.049   6.691   4.555  0.3868 -0.8379 -0.5485
 8341TIP3    H224988   3.960   6.571   4.580  1.6682 -1.3792  1.5966
 8342TIP3   OH224989   0.585   5.360   3.571 -0.2048 -0.3160  0.3842
 8342TIP3    H124990   0.544   5.291   3.624  1.4292 -0.9112  0.9210
 8342TIP3    H224991   0.666   5.321   3.539 -0.2963  0.6523 -1.1088
 8343TIP3   OH224992   5.871   2.085   0.289  0.2861  0.1129 -0.0676
 8343TIP3    H124993   5.894   2.177   0.304 -0.6606  0.2002  0.9528
 8343TIP3    H224994   5.825   2.085   0.205 -0.4401  0.7053  0.3236
 8344TIP3   OH224995   2.935   5.145   0.412  0.3698  0.3195  0.4623
 8344TIP3    H124996   3.019   5.186   0.434  0.7710 -0.2573  0.0179
 8344TIP3    H224997   2.884   5.150   0.493  0.6354  1.1517  0.5837
 8345TIP3   OH224998   5.699   4.169   0.075 -0.2408  0.0457  0.1862
 8345TIP3    H124999   5.638   4.124   0.015 -1.3293  0.3101  1.0597
 8345TIP3    H225000   5.645   4.193   0.150  0.9297  0.4319  0.9271
 8346TIP3   OH225001   6.826   5.028   3.921  0.8190  0.0676  1.0659
 8346TIP3    H125002   6.768   5.047   3.994 -0.4582  5.4320 -0.9189
 8346TIP3    H225003   6.767   4.997   3.852  1.2395  0.0665  0.7058
 8347TIP3   OH225004   0.012   2.818   3.264 -0.5231 -0.0318  0.1683
 8347TIP3    H125005   0.098   2.839   3.228 -0.4179 -1.1926 -0.3000
 8347TIP3    H225006  -0.042   2.894   3.243 -0.0593 -0.0228 -1.0783
 8348TIP3   OH225007   3.922   5.947   1.032 -0.0406  0.0836  0.1971
 8348TIP3    H125008   3.917   5.967   0.939  1.0997  1.0574  0.3233
 8348TIP3    H225009   3.874   6.019   1.074  0.8691  0.5570  0.4423
 8349TIP3   OH225010   2.320   2.423   0.709  0.2282 -0.3174 -0.0121
 8349TIP3    H125011   2.234   2.426   0.752 -0.4465 -2.2700 -1.0633
 8349TIP3    H225012   2.334   2.329   0.693  2.2196  0.0409 -0.5376
 8350TIP3   OH225013   2.982   0.988   5.556 -0.1518 -0.8745 -0.1127
 8350TIP3    H125014   2.927   1.038   5.497  0.6291  0.8879  0.5634
 8350TIP3    H225015   3.071   1.004   5.525  0.2555 -0.0722  1.3782
 8351TIP3   OH225016   4.349   1.037   3.343 -0.2373  0.1343 -0.8599
 8351TIP3    H125017   4.300   0.955   3.350 -0.6096  0.3136 -1.3309
 8351TIP3    H225018   4.440   1.012   3.359 -0.0736 -0.7088 -2.8613
 8352TIP3   OH225019   4.823   0.092   5.431  0.0642  0.2473  0.4374
 8352TIP3    H125020   4.815   0.125   5.520  2.3118 -1.3942  1.3227
 8352TIP3    H225021   4.867   0.163   5.383 -0.0631  0.6685  0.9349
 8353TIP3   OH225022   4.146   4.797   3.086 -1.2904 -0.3475 -0.4146
 8353TIP3    H125023   4.197   4.797   3.166  1.4921 -2.3020 -2.0048
 8353TIP3    H225024   4.055   4.795   3.115 -0.4205 -0.2563  2.6336
 8354TIP3   OH225025   6.273   2.989   2.451  0.0385 -0.7689  0.4886
 8354TIP3    H125026   6.218   2.970   2.375 -0.4705 -0.6659  0.8296
 8354TIP3    H225027   6.211   3.002   2.523  0.4144  0.7744  0.5690
 8355TIP3   OH225028   5.931   2.668   0.432 -0.5696 -0.0420  0.2399
 8355TIP3    H125029   5.992   2.594   0.428 -0.3236  0.1938 -1.5582
 8355TIP3    H225030   5.978   2.739   0.388 -1.9554  0.2794 -0.7699
 8356TIP3   OH225031   6.240   0.594   1.919  0.0437 -0.1250  0.1552
 8356TIP3    H125032   6.296   0.670   1.901  0.1095  0.1002  1.2175
 8356TIP3    H225033   6.234   0.591   2.015 -1.5205 -0.3196  0.0830
 8357TIP3   OH225034   0.123   4.508   0.491 -0.1362 -0.0773 -0.4987
 8357TIP3    H125035   0.130   4.557   0.410 -1.1404 -0.1695 -0.6512
 8357TIP3    H225036   0.052   4.550   0.539 -0.2061 -0.6339 -0.0995
 8358TIP3   OH225037   4.784   0.296   2.129 -0.3625  0.4626 -0.0382
 8358TIP3    H125038   4.734   0.311   2.048 -1.5811  1.4875  0.8667
 8358TIP3    H225039   4.870   0.268   2.098 -1.2495 -0.6819 -1.6652
 8359TIP3   OH225040   2.321   4.381   2.569 -0.0672  0.1921 -0.2321
 8359TIP3    H125041   2.389   4.421   2.624 -0.6845  0.6242  0.2287
 8359TIP3    H225042   2.350   4.398   2.479  1.5825 -1.5731 -0.0955
 8360TIP3   OH225043   6.421   5.523   4.032  0.0156 -0.3479  0.1104
 8360TIP3    H125044   6.516   5.529   4.027  0.0735 -1.4838 -0.6818
 8360TIP3    H225045   6.391   5.613   4.024  1.0151 -0.0139 -0.0198
 8361TIP3   OH225046   4.453   0.414   0.562 -0.1917 -0.1562  0.1815
 8361TIP3    H125047   4.404   0.389   0.483 -1.2339  1.5953  0.2234
 8361TIP3    H225048   4.386   0.427   0.629  0.6404 -1.0618  1.2257
 8362TIP3   OH225049   0.157   3.280   0.095  0.1520  0.2479 -0.5484
 8362TIP3    H125050   0.116   3.197   0.121 -1.7878  0.9097 -1.3457
 8362TIP3    H225051   0.196   3.261   0.010 -0.9856  0.3405 -1.1051
 8363TIP3   OH225052   4.738   1.327   2.645 -0.1728  0.0899  0.3505
 8363TIP3    H125053   4.677   1.381   2.695 -1.5614 -1.6407  0.6455
 8363TIP3    H225054   4.741   1.244   2.694  1.3076 -0.3702 -0.4689
 8364TIP3   OH225055   3.419   3.788   5.565 -0.7635  0.4692 -0.0849
 8364TIP3    H125056   3.476   3.838   5.507 -0.4370 -1.9111 -1.9605
 8364TIP3    H225057   3.336   3.836   5.566  0.4892  2.7724  0.8913
 8365TIP3   OH225058   0.331   4.814   1.743 -0.3803 -0.2491 -0.5678
 8365TIP3    H125059   0.328   4.720   1.763  0.9600  0.0365  1.2485
 8365TIP3    H225060   0.242   4.845   1.761 -0.1612 -0.7129  1.5968
 8366TIP3   OH225061   5.631   2.122   4.779 -0.1466  0.0831 -0.1429
 8366TIP3    H125062   5.710   2.091   4.824 -0.0455 -0.4926 -0.7035
 8366TIP3    H225063   5.660   2.202   4.734  0.0010  0.1281  0.0305
 8367TIP3   OH225064   5.353   0.696   1.776 -0.1877 -0.0973 -0.0224
 8367TIP3    H125065   5.284   0.633   1.755 -0.0979 -0.0153 -0.5914
 8367TIP3    H225066   5.307   0.776   1.799 -0.3035 -0.3697  0.7072
 8368TIP3   OH225067   4.533   0.049   1.584  0.0715  0.2718  0.0135
 8368TIP3    H125068   4.558   0.043   1.677 -1.3720 -0.5103  0.3810
 8368TIP3    H225069   4.587  -0.017   1.540 -0.8797 -1.0046  0.6964
 8369TIP3   OH225070   4.897   1.693   1.212  0.0842  0.3341 -0.9109
 8369TIP3    H125071   4.986   1.656   1.216  0.0812  0.3300 -0.8766
 8369TIP3    H225072   4.851   1.651   1.284 -0.0790 -0.0097 -1.2177
 8370TIP3   OH225073   0.617   0.299   5.308 -0.6059 -0.5186  0.0699
 8370TIP3    H125074   0.611   0.255   5.223  1.7318 -0.8785  0.0265
 8370TIP3    H225075   0.630   0.229   5.371 -0.4835 -0.1347  0.4783
 8371TIP3   OH225076   0.051   1.258   0.069  0.4270 -0.3514  0.0520
 8371TIP3    H125077   0.023   1.184   0.123  0.2857 -1.3046 -1.2573
 8371TIP3    H225078   0.100   1.314   0.128 -0.0151 -1.1722  1.2362
 8372TIP3   OH225079   0.019   2.938   3.900 -0.3813 -0.6692  0.2284
 8372TIP3    H125080   0.065   2.956   3.982  0.3859 -1.0410 -0.1143
 8372TIP3    H225081   0.085   2.899   3.844 -0.3469  1.4112 -1.2755
 8373TIP3   OH225082   3.378   3.062   4.421  0.5043  0.3733 -0.3119
 8373TIP3    H125083   3.447   3.120   4.455 -0.1226  1.0409 -0.1410
 8373TIP3    H225084   3.302   3.119   4.412  0.2326 -0.1341 -1.4231
 8374TIP3   OH225085   5.117   0.182   5.739 -0.0395 -0.2600  0.1219
 8374TIP3    H125086   5.172   0.122   5.690  0.5198  2.4688 -2.9423
 8374TIP3    H225087   5.168   0.262   5.745 -1.5518  0.6506  2.1580
 8375TIP3   OH225088   6.294   2.155   4.428 -0.0920  0.3126  0.2200
 8375TIP3    H125089   6.337   2.152   4.513  1.6011  1.0404 -0.5551
 8375TIP3    H225090   6.201   2.164   4.448  0.1995 -0.2731  1.9798
 8376TIP3   OH225091   2.206   5.532   0.370  0.0641 -0.7602 -0.3212
 8376TIP3    H125092   2.287   5.573   0.400 -1.1852  0.5494  1.4556
 8376TIP3    H225093   2.203   5.551   0.276  1.2887  0.1328 -0.1999
 8377TIP3   OH225094   2.090   5.544   3.091  0.7144 -0.6909  0.4485
 8377TIP3    H125095   2.050   5.628   3.115  0.0005 -0.6737 -0.6994
 8377TIP3    H225096   2.061   5.483   3.159  0.1045 -0.2953  0.5577
 8378TIP3   OH225097   4.469   0.610   2.730 -0.6269 -0.1038 -0.1700
 8378TIP3    H125098   4.463   0.633   2.823 -1.8322 -2.7039  0.4873
 8378TIP3    H225099   4.524   0.532   2.728 -0.1498  0.2296 -1.7455
 8379TIP3   OH225100   2.037   2.296   0.276 -0.3489  0.1867 -0.2353
 8379TIP3    H125101   2.016   2.208   0.247 -0.2467 -0.0044  0.2603
 8379TIP3    H225102   2.131   2.305   0.261 -0.4987  0.5001 -1.0313
 8380TIP3   OH225103   4.286   4.646   1.630  0.4072 -0.1958 -0.1341
 8380TIP3    H125104   4.362   4.681   1.677 -0.3349 -0.8401  1.5962
 8380TIP3    H225105   4.266   4.564   1.674 -0.3807 -0.8001 -1.5523
 8381TIP3   OH225106   2.020   3.839   5.162  0.0988 -0.6496  0.3860
 8381TIP3    H125107   1.991   3.842   5.071 -1.2537  0.1628  0.8165
 8381TIP3    H225108   2.109   3.875   5.160 -0.5313  1.0080 -0.4192
 8382TIP3   OH225109   5.239   5.385   0.767 -0.5410  0.1744  0.0447
 8382TIP3    H125110   5.191   5.356   0.690  0.7586 -1.4105 -0.2173
 8382TIP3    H225111   5.312   5.436   0.731 -1.8585  2.4961  0.4347
 8383TIP3   OH225112   6.808   4.032   4.630  0.0296  0.0836 -0.2148
 8383TIP3    H125113   6.804   3.993   4.542  5.5761  0.5395 -1.0049
 8383TIP3    H225114   6.825   4.124   4.615  0.7882  0.2248  1.3419
 8384TIP3   OH225115   3.119   5.924   2.229  0.3399  0.1118  0.1577
 8384TIP3    H125116   3.163   5.855   2.181 -0.7216  0.6420 -1.6615
 8384TIP3    H225117   3.074   5.879   2.301  0.3772 -0.9585 -0.4740
 8385TIP3   OH225118   0.890   3.863   2.154  0.5120 -0.2520 -0.0035
 8385TIP3    H125119   0.932   3.948   2.161  2.7248 -0.9746 -2.7679
 8385TIP3    H225120   0.802   3.882   2.120  0.6051  0.9471  0.3994
 8386TIP3   OH225121   5.117   3.176   1.353  0.5617  0.0909 -0.1777
 8386TIP3    H125122   5.076   3.093   1.328  2.3008 -0.8230 -0.1463
 8386TIP3    H225123   5.051   3.220   1.405 -0.3210 -1.3971  0.0304
 8387TIP3   OH225124   1.424   6.404   1.836 -0.0814  0.6768 -0.2688
 8387TIP3    H125125   1.433   6.452   1.918 -0.9605  1.2907 -0.5123
 8387TIP3    H225126   1.393   6.317   1.861 -0.9884  1.0744  0.0067
 8388TIP3   OH225127   0.958   4.384   1.705 -0.1520  0.2299  0.1185
 8388TIP3    H125128   0.956   4.323   1.632  0.3216 -0.0937  0.3734
 8388TIP3    H225129   1.049   4.381   1.737  0.1145  1.7166 -0.4259
 8389TIP3   OH225130   3.301   5.860   4.810  0.7284  0.4575  0.4625
 8389TIP3    H125131   3.259   5.814   4.737  0.5325  0.8653  0.3131
 8389TIP3    H225132   3.302   5.952   4.782 -1.8624  1.0931  2.0965
 8390TIP3   OH225133   2.528   1.087   5.182  0.5237 -0.0576  0.5304
 8390TIP3    H125134   2.533   1.130   5.267  1.0016  0.3409  0.3092
 8390TIP3    H225135   2.545   1.157   5.119 -0.1505 -0.2789  0.0883
 8391TIP3   OH225136   0.084   0.476   2.262  0.1603 -0.3213  0.0614
 8391TIP3    H125137   0.064   0.394   2.307 -1.9717  0.3722  0.4606
 8391TIP3    H225138   0.101   0.450   2.172 -0.5997 -1.1970  0.1555
 8392TIP3   OH225139   3.926   3.458   1.119  0.7657  0.3381  0.4904
 8392TIP3    H125140   3.898   3.453   1.028 -0.4774 -1.2745  0.9129
 8392TIP3    H225141   3.849   3.489   1.167  0.9667 -0.1716  1.1655
 8393TIP3   OH225142   5.500   2.716   4.952 -0.1976  0.0057  0.4075
 8393TIP3    H125143   5.507   2.694   4.859 -1.4637 -0.2866  0.3640
 8393TIP3    H225144   5.434   2.656   4.986  1.1303 -0.7541  1.8032
 8394TIP3   OH225145   5.919   2.150   3.014 -0.3033  0.2073 -0.0547
 8394TIP3    H125146   5.983   2.096   2.968 -0.6188 -0.1499 -0.0865
 8394TIP3    H225147   5.835   2.105   2.999 -0.6298  0.9170 -0.4167
 8395TIP3   OH225148   2.954   3.547   0.814 -0.8054  0.6048 -0.6070
 8395TIP3    H125149   3.041   3.582   0.797 -0.4893  1.1619  1.8023
 8395TIP3    H225150   2.969   3.472   0.872 -1.9355  0.7906 -0.0444
 8396TIP3   OH225151   4.275   3.867   5.228  0.2792  0.3048 -0.5263
 8396TIP3    H125152   4.280   3.962   5.237 -0.6128  0.3022  0.1493
 8396TIP3    H225153   4.183   3.849   5.212  0.6083 -0.3783 -1.7359
 8397TIP3   OH225154   1.715   6.020   3.564  0.3047  0.1626 -0.2264
 8397TIP3    H125155   1.732   5.942   3.616  0.8367  0.4162 -0.0153
 8397TIP3    H225156   1.626   6.047   3.589  0.5346  0.2548  0.5144
 8398TIP3   OH225157   4.791   0.905   5.088 -0.2471  0.0637  0.3158
 8398TIP3    H125158   4.823   0.849   5.017  1.1508 -0.5811  1.3996
 8398TIP3    H225159   4.725   0.852   5.133 -1.1612  0.4870 -0.4887
 8399TIP3   OH225160   4.927   4.749   1.499  0.3268 -0.1166  0.4534
 8399TIP3    H125161   4.951   4.783   1.586 -2.0575  1.5917  0.5534
 8399TIP3    H225162   4.915   4.655   1.512  3.2257 -0.4965  1.1268
 8400TIP3   OH225163   0.724   5.626   3.298  0.2418 -0.1505 -0.1680
 8400TIP3    H125164   0.756   5.643   3.209 -1.2318  1.4152 -0.4252
 8400TIP3    H225165   0.632   5.652   3.297  0.1864 -0.1081  1.8257
 8401TIP3   OH225166   0.646   0.905   4.255 -0.0877  0.6100  0.0185
 8401TIP3    H125167   0.699   0.983   4.238  0.4365  0.5411  1.1949
 8401TIP3    H225168   0.574   0.937   4.310  0.3221  0.2278  0.7981
 8402TIP3   OH225169   6.386   1.879   4.994 -0.3458 -0.8517  0.0090
 8402TIP3    H125170   6.473   1.916   4.979 -0.2589 -1.1303 -0.1755
 8402TIP3    H225171   6.364   1.834   4.912 -0.3222 -1.4656  0.3316
 8403TIP3   OH225172   0.565   6.364   3.930 -0.0481 -0.3937 -0.1968
 8403TIP3    H125173   0.591   6.272   3.919  0.5741 -0.2159 -0.2366
 8403TIP3    H225174   0.567   6.378   4.025  0.9654 -0.1158 -0.2444
 8404TIP3   OH225175   0.568   2.983   2.020 -0.1330  0.3388 -0.3613
 8404TIP3    H125176   0.580   2.958   2.111  0.4515 -3.2789 -1.3112
 8404TIP3    H225177   0.531   3.072   2.025  0.1390  0.4017  3.3259
 8405TIP3   OH225178   6.517   4.494   2.221 -0.1208 -0.2889  0.0096
 8405TIP3    H125179   6.593   4.435   2.225  0.3915  0.1996 -1.6534
 8405TIP3    H225180   6.444   4.441   2.253  1.0463 -0.4619  2.6275
 8406TIP3   OH225181   0.354   3.898   2.159 -0.4085  0.0815 -0.1571
 8406TIP3    H125182   0.313   3.868   2.240  0.2781 -0.2940  0.0573
 8406TIP3    H225183   0.283   3.896   2.094 -1.0437  0.7156  0.5035
 8407TIP3   OH225184   3.543   5.073   3.703 -0.2773 -0.0577  0.0614
 8407TIP3    H125185   3.493   5.134   3.648 -0.2835 -0.6313 -0.5795
 8407TIP3    H225186   3.631   5.074   3.666  0.2066  0.9269  1.1713
 8408TIP3   OH225187   2.287   4.936   2.687  0.2456 -0.1259  0.6332
 8408TIP3    H125188   2.287   4.988   2.768 -1.6563 -0.2107  0.7485
 8408TIP3    H225189   2.284   5.002   2.617  0.5134 -0.0595  0.6842
 8409TIP3   OH225190   6.996   1.346   2.218  0.0280  0.4038 -0.0854
 8409TIP3    H125191   7.040   1.263   2.235 -0.4536  0.2980  0.6676
 8409TIP3    H225192   7.060   1.397   2.168  0.2469 -0.4947 -0.7546
 8410TIP3   OH225193   4.248   4.807   5.504 -0.1523 -0.2300  0.4452
 8410TIP3    H125194   4.281   4.726   5.465  1.5072 -0.7578  2.6850
 8410TIP3    H225195   4.255   4.792   5.599 -2.5932  1.4697  0.9704
 8411TIP3   OH225196   3.524   5.044   1.446  0.7882  0.4997 -0.6191
 8411TIP3    H125197   3.549   5.037   1.354 -0.2387 -1.4836 -0.7968
 8411TIP3    H225198   3.557   4.964   1.486  1.7994  1.6156  0.9315
 8412TIP3   OH225199   2.557   0.054   5.001  0.4718 -0.4662  0.1300
 8412TIP3    H125200   2.522   0.141   4.984  1.1806  0.1857  1.7664
 8412TIP3    H225201   2.537   0.038   5.094  0.0038 -2.2290 -0.2285
 8413TIP3   OH225202   4.133   4.065   3.193  0.6971  0.3857  0.0897
 8413TIP3    H125203   4.179   4.126   3.135 -0.1359 -0.5353 -1.5867
 8413TIP3    H225204   4.041   4.074   3.170  0.6139 -2.1245 -0.8668
 8414TIP3   OH225205   5.566   0.188   2.342  0.3947 -0.3319 -0.4008
 8414TIP3    H125206   5.533   0.099   2.336 -0.1453 -0.1930  0.3251
 8414TIP3    H225207   5.493   0.243   2.315  0.8267 -0.1093 -1.1551
 8415TIP3   OH225208   2.001   2.181   2.337 -0.1257 -0.4182  0.2819
 8415TIP3    H125209   1.921   2.228   2.314 -0.0795 -1.1376 -1.4852
 8415TIP3    H225210   1.991   2.095   2.297  1.4508 -0.5796  0.1712
 8416TIP3   OH225211   1.201   4.613   5.015  0.0441  0.4424 -0.4545
 8416TIP3    H125212   1.140   4.658   5.073 -0.6204  0.1687 -0.9419
 8416TIP3    H225213   1.288   4.638   5.049 -0.3218  1.1511 -0.0115
 8417TIP3   OH225214   1.606   5.443   1.370 -0.3525  0.1430  0.1818
 8417TIP3    H125215   1.653   5.526   1.366  0.2160 -0.1169  1.2852
 8417TIP3    H225216   1.635   5.395   1.292 -1.3234  1.2824 -0.9369
 8418TIP3   OH225217   3.246   5.158   1.944 -0.3190  0.1018 -0.2698
 8418TIP3    H125218   3.323   5.206   1.915  1.5346 -1.6234  1.4379
 8418TIP3    H225219   3.243   5.080   1.889  0.8981 -1.2211  1.4215
 8419TIP3   OH225220   4.961   3.455   2.867 -0.2017 -0.5578  0.0083
 8419TIP3    H125221   4.923   3.507   2.797  0.5330 -0.7880 -0.5767
 8419TIP3    H225222   4.979   3.517   2.937  2.9964  0.5105 -1.6037
 8420TIP3   OH225223   7.162   6.618   1.755  0.5182 -0.2079  0.4144
 8420TIP3    H125224   7.114   6.572   1.686 -0.2264 -0.5449  1.1242
 8420TIP3    H225225   7.101   6.686   1.785  1.0221  0.2515  0.4076
 8421TIP3   OH225226   6.925   6.233   1.392  0.1375  0.1015  0.3435
 8421TIP3    H125227   6.973   6.312   1.414  0.1058  0.4489 -0.7856
 8421TIP3    H225228   6.979   6.162   1.428  2.2082  0.3809 -1.9661
 8422TIP3   OH225229   6.871   2.453   1.244  0.0541  0.2901  0.3224
 8422TIP3    H125230   6.966   2.445   1.236  0.1556  0.0200  1.6386
 8422TIP3    H225231   6.857   2.543   1.275 -0.0655  0.0374  0.9995
 8423TIP3   OH225232   5.304   6.235   5.309  0.1134  0.4186  0.4031
 8423TIP3    H125233   5.308   6.140   5.295  3.5920  0.4972 -0.1304
 8423TIP3    H225234   5.296   6.271   5.220  2.0097  0.6130  0.2767
 8424TIP3   OH225235   1.480   6.066   3.727 -0.3728 -0.1210 -0.0857
 8424TIP3    H125236   1.447   5.976   3.737  3.0466 -1.5243  0.0196
 8424TIP3    H225237   1.430   6.117   3.790 -1.3632 -2.2910  1.0092
 8425TIP3   OH225238   2.818   2.348   5.389  0.0689  0.4356  0.3867
 8425TIP3    H125239   2.900   2.382   5.354 -0.2607 -0.4845 -1.3896
 8425TIP3    H225240   2.840   2.261   5.423  0.1159  0.7899  1.2850
 8426TIP3   OH225241   0.615   2.456   4.305  0.2530  0.3741  0.0263
 8426TIP3    H125242   0.547   2.467   4.239  1.9732  2.9705 -1.5075
 8426TIP3    H225243   0.591   2.516   4.375  0.2522  0.2157  0.1646
 8427TIP3   OH225244   2.845   2.765   5.726  0.5671 -0.3499 -0.4914
 8427TIP3    H125245   2.759   2.806   5.721 -0.3057 -1.8354  1.0019
 8427TIP3    H225246   2.835   2.684   5.676  0.8602 -0.8795  0.2994
 8428TIP3   OH225247   6.252   1.858   4.638 -0.3642  0.0957  0.4426
 8428TIP3    H125248   6.317   1.789   4.621  0.0428  0.6001 -0.0715
 8428TIP3    H225249   6.298   1.940   4.619 -1.3846  0.4285 -0.6732
 8429TIP3   OH225250   4.012   6.580   1.141 -0.7666  0.1953 -0.4175
 8429TIP3    H125251   4.018   6.670   1.174 -0.0191  0.8459 -2.1913
 8429TIP3    H225252   4.074   6.531   1.195  1.7195  1.5790 -1.8336
 8430TIP3   OH225253   1.436   4.539   3.666 -0.1459  0.0090 -0.3915
 8430TIP3    H125254   1.521   4.503   3.641  0.3603  2.2188 -2.2145
 8430TIP3    H225255   1.453   4.585   3.748 -0.1985 -1.5281  0.5287
 8431TIP3   OH225256   0.805   2.016   5.569  0.8089 -0.3280 -0.1932
 8431TIP3    H125257   0.874   2.059   5.519  1.5390 -1.2941 -0.0269
 8431TIP3    H225258   0.845   1.936   5.603 -0.8158 -1.7254 -1.3938
 8432TIP3   OH225259   0.783   3.635   5.432 -0.0792  0.3053 -0.0682
 8432TIP3    H125260   0.697   3.624   5.392  0.1715 -0.1430 -0.5061
 8432TIP3    H225261   0.792   3.558   5.489  1.2188 -1.3119 -2.2732
 8433TIP3   OH225262   6.123   1.161   0.810 -0.0698 -0.5708 -0.1577
 8433TIP3    H125263   6.101   1.209   0.890 -1.7317  2.6445 -2.3514
 8433TIP3    H225264   6.199   1.208   0.775 -1.2919  0.1292 -2.0013
 8434TIP3   OH225265   5.932   4.042   4.948  0.6456 -0.0359 -0.3528
 8434TIP3    H125266   5.933   4.019   4.855  0.2464 -0.1744 -0.3265
 8434TIP3    H225267   5.958   3.961   4.992  0.6471 -0.0255 -0.3348
 8435TIP3   OH225268   0.501   3.508   5.267 -0.2551 -0.3667  0.4927
 8435TIP3    H125269   0.485   3.578   5.331 -0.0096  0.1913 -0.0569
 8435TIP3    H225270   0.511   3.553   5.184 -0.4125 -1.0859  0.0800
 8436TIP3   OH225271   5.560   0.204   4.389 -0.0566 -0.1400 -0.0084
 8436TIP3    H125272   5.479   0.240   4.353 -0.9656 -1.7702  0.3185
 8436TIP3    H225273   5.623   0.277   4.384 -1.9635  1.7088  1.3003
 8437TIP3   OH225274   1.018   3.811   0.169 -0.3450 -0.3549 -0.5656
 8437TIP3    H125275   1.046   3.720   0.185 -0.9175 -0.3234  0.7296
 8437TIP3    H225276   0.971   3.836   0.249  2.9535  2.3432  0.8056
 8438TIP3   OH225277   1.427   5.969   4.808  0.2809  0.3674 -0.0571
 8438TIP3    H125278   1.361   6.035   4.827  1.7552  1.7689  0.4664
 8438TIP3    H225279   1.401   5.893   4.861 -1.0376  0.7882 -0.0845
 8439TIP3   OH225280   2.794   6.649   2.727 -0.5059 -0.1793  0.2849
 8439TIP3    H125281   2.839   6.566   2.742 -1.5551 -0.5536  1.4836
 8439TIP3    H225282   2.701   6.626   2.722 -0.8011  0.8934  0.4386
 8440TIP3   OH225283   4.986   3.631   5.566  0.3442 -0.1794  0.0058
 8440TIP3    H125284   5.054   3.655   5.628 -0.1889 -0.0128  0.5309
 8440TIP3    H225285   4.904   3.650   5.611 -0.0475  0.2229 -0.8654
 8441TIP3   OH225286   6.661   3.000   1.118 -0.2725  0.2415 -0.0463
 8441TIP3    H125287   6.657   3.093   1.095 -2.2570 -0.2392 -2.1026
 8441TIP3    H225288   6.617   2.957   1.045  2.1361 -2.5109 -0.0356
 8442TIP3   OH225289   4.980   4.869   5.451 -0.2567 -0.3106 -0.0817
 8442TIP3    H125290   4.975   4.888   5.544 -0.6582 -1.0106  0.0482
 8442TIP3    H225291   5.057   4.813   5.441  1.5816  2.1387 -0.6185
 8443TIP3   OH225292   6.012   1.619   4.738  0.6767 -0.1654 -0.2783
 8443TIP3    H125293   6.009   1.554   4.808 -0.9616 -0.2498 -0.3901
 8443TIP3    H225294   5.938   1.597   4.681  0.2394  1.6134 -0.4733
 8444TIP3   OH225295   3.920   2.414   5.128 -0.1506 -0.2460 -0.3997
 8444TIP3    H125296   3.996   2.388   5.077 -0.1604  0.1105 -0.5964
 8444TIP3    H225297   3.871   2.473   5.071  0.0264  0.4451  0.1423
 8445TIP3   OH225298   0.729   6.734   1.198 -0.3107 -0.1211 -0.5724
 8445TIP3    H125299   0.703   6.813   1.149 -1.5160 -0.8177 -1.1081
 8445TIP3    H225300   0.647   6.702   1.236  0.2379 -0.9046 -0.0360
 8446TIP3   OH225301   1.638   5.058   3.501  0.2778  0.7268  0.4749
 8446TIP3    H125302   1.631   5.144   3.541 -0.4786  0.2196  1.4770
 8446TIP3    H225303   1.732   5.039   3.503  0.3844  1.2567  0.8376
 8447TIP3   OH225304   4.160   2.114   5.790 -0.4680 -0.4275 -0.5456
 8447TIP3    H125305   4.170   2.168   5.711 -0.4632 -2.3574 -1.9334
 8447TIP3    H225306   4.224   2.150   5.852  0.7545  0.0691 -2.0328
 8448TIP3   OH225307   0.267   5.081   3.973 -0.2847  0.2884 -0.3978
 8448TIP3    H125308   0.207   5.150   4.001 -1.4607 -0.4345 -1.0323
 8448TIP3    H225309   0.224   5.000   4.000  1.8206 -0.2168  1.8231
 8449TIP3   OH225310   1.780   5.462   1.912 -0.1084  0.0809 -0.1448
 8449TIP3    H125311   1.801   5.369   1.920 -0.0027 -0.0053 -1.2370
 8449TIP3    H225312   1.772   5.493   2.002 -1.3821 -1.2609  0.2482
 8450TIP3   OH225313   6.969   2.683   5.001  0.0582  0.5522  0.1130
 8450TIP3    H125314   6.905   2.754   5.002  1.1756  1.6166 -0.7174
 8450TIP3    H225315   6.932   2.619   4.940 -0.6124  0.7538  0.2996
 8451TIP3   OH225316   6.099   3.385   4.312 -0.1889 -0.3561  1.0609
 8451TIP3    H125317   6.175   3.423   4.268  0.5849 -0.5570  2.1746
 8451TIP3    H225318   6.050   3.461   4.344  0.0868 -0.2411  1.2151
 8452TIP3   OH225319   3.265   5.884   5.323 -0.0069  0.3447 -0.1566
 8452TIP3    H125320   3.243   5.918   5.236 -0.0201  0.1741 -0.2202
 8452TIP3    H225321   3.203   5.927   5.381 -0.5514 -0.1698 -0.3429
 8453TIP3   OH225322   6.672   4.435   4.985 -0.0445  0.2130  0.5169
 8453TIP3    H125323   6.751   4.454   4.935  0.0083 -0.3741  0.3692
 8453TIP3    H225324   6.616   4.386   4.924 -0.2521  0.0692  0.8185
 8454TIP3   OH225325   3.922   0.779   4.890  0.4365 -0.6625  0.0455
 8454TIP3    H125326   3.870   0.735   4.824 -0.7145 -0.6818  0.9471
 8454TIP3    H225327   3.907   0.730   4.970 -0.2495  0.8478  0.8951
 8455TIP3   OH225328   7.094   3.425   2.264  0.6030  0.0179 -0.3150
 8455TIP3    H125329   7.141   3.345   2.287  1.0654  0.1570 -0.7492
 8455TIP3    H225330   7.136   3.494   2.316 -3.0381 -0.6422  4.1392
 8456TIP3   OH225331   5.990   0.366   2.866 -0.2773  0.1175 -0.1822
 8456TIP3    H125332   5.922   0.319   2.915 -0.1358  0.4651  0.3485
 8456TIP3    H225333   6.025   0.300   2.806 -1.5452  0.1101 -0.9577
 8457TIP3   OH225334   1.199   5.315   2.970  0.0981  0.1066  0.4542
 8457TIP3    H125335   1.266   5.299   3.036  1.3686  0.6860 -0.6452
 8457TIP3    H225336   1.244   5.362   2.900 -1.7144  1.5275  0.1572
 8458TIP3   OH225337   0.996   2.755   5.742  0.1449 -0.5307 -0.3614
 8458TIP3    H125338   1.032   2.836   5.779 -2.9458 -0.3615  2.8820
 8458TIP3    H225339   1.036   2.685   5.794 -1.0464 -0.6121  0.4971
 8459TIP3   OH225340   3.992   3.288   3.753  0.2112  0.1441  0.3057
 8459TIP3    H125341   3.914   3.264   3.802  0.4861 -1.8690 -0.1653
 8459TIP3    H225342   4.057   3.309   3.820 -0.7409  2.0808  0.7026
 8460TIP3   OH225343   5.427   5.774   0.471  0.3023 -0.1613 -0.2704
 8460TIP3    H125344   5.378   5.762   0.390  1.2877  0.4522 -0.9841
 8460TIP3    H225345   5.505   5.720   0.460 -0.9960 -2.6150  1.6243
 8461TIP3   OH225346   4.028   0.961   0.363 -0.3355  0.0125 -0.0880
 8461TIP3    H125347   4.092   1.002   0.422 -1.1651 -0.5586  1.2710
 8461TIP3    H225348   3.982   1.035   0.323 -1.2299  0.4621  1.6741
 8462TIP3   OH225349   4.142   4.230   2.676  0.0019 -0.2919  0.0785
 8462TIP3    H125350   4.128   4.310   2.627 -1.3929 -0.9586 -0.6750
 8462TIP3    H225351   4.060   4.181   2.667  0.5094 -1.4344  1.2128
 8463TIP3   OH225352   0.440   6.471   3.528  0.1141 -0.0746 -0.1792
 8463TIP3    H125353   0.535   6.460   3.534 -0.0688 -1.0419  1.2093
 8463TIP3    H225354   0.411   6.477   3.619 -1.2573 -0.6033 -0.5712
 8464TIP3   OH225355   1.452   2.708   3.415  0.1545 -0.5952  0.1972
 8464TIP3    H125356   1.512   2.768   3.372 -0.7744 -0.4386 -0.9289
 8464TIP3    H225357   1.507   2.656   3.474  0.9674  1.3501  1.2342
 8465TIP3   OH225358   0.030   0.680   3.701  0.1038 -1.0043  0.1625
 8465TIP3    H125359   0.017   0.740   3.628 -0.3841 -0.3829  0.7399
 8465TIP3    H225360   0.076   0.605   3.663  0.4407 -0.4091 -0.6414
 8466TIP3   OH225361   2.545   0.139   0.099  0.0092 -0.2072 -0.0519
 8466TIP3    H125362   2.619   0.084   0.075  0.5279  0.3414  0.2723
 8466TIP3    H225363   2.500   0.155   0.016  1.7311  1.5865 -0.7110
 8467TIP3   OH225364   5.578   5.245   4.409 -0.1014  0.2040  0.2785
 8467TIP3    H125365   5.491   5.280   4.427 -1.0566  0.1657 -3.4368
 8467TIP3    H225366   5.631   5.321   4.388  0.0241  0.0246 -0.0666
 8468TIP3   OH225367   5.966   4.880   5.567  0.2025  0.4677  0.2554
 8468TIP3    H125368   5.991   4.947   5.503  0.5175  0.3278  0.2296
 8468TIP3    H225369   5.944   4.929   5.646 -1.0473  0.7070 -0.2185
 8469TIP3   OH225370   0.191   6.496   1.683 -0.2039  0.1984 -0.1342
 8469TIP3    H125371   0.252   6.556   1.726 -1.1079 -0.0257  1.5609
 8469TIP3    H225372   0.104   6.533   1.701 -0.6448  0.0546 -1.7598
 8470TIP3   OH225373   3.558   6.644   2.953 -0.3783 -0.3680  0.2798
 8470TIP3    H125374   3.631   6.695   2.920 -0.9383  0.4463  0.2516
 8470TIP3    H225375   3.596   6.561   2.980  0.9634  0.8209  2.3129
 8471TIP3   OH225376   6.607   2.211   4.777  0.2372 -0.2761 -0.1801
 8471TIP3    H125377   6.645   2.220   4.689 -0.6584  1.7120 -0.4319
 8471TIP3    H225378   6.649   2.279   4.829 -0.3525 -0.4223  0.5121
 8472TIP3   OH225379   1.572   1.782   1.357 -0.5635  0.9754  0.3089
 8472TIP3    H125380   1.620   1.864   1.346  1.8942 -0.1166  1.8229
 8472TIP3    H225381   1.548   1.756   1.269  0.8558  2.0947 -0.4602
 8473TIP3   OH225382   2.337   5.162   3.283  0.1666 -0.2368  0.4690
 8473TIP3    H125383   2.354   5.243   3.234 -0.6028 -1.1908 -1.4687
 8473TIP3    H225384   2.402   5.162   3.353 -1.0665  3.0568  1.8109
 8474TIP3   OH225385   5.865   5.652   0.075 -0.6497  0.1148 -0.9885
 8474TIP3    H125386   5.773   5.651   0.101 -0.7121 -1.2754 -1.1624
 8474TIP3    H225387   5.906   5.717   0.131 -1.2255 -1.2045  1.0614
 8475TIP3   OH225388   5.639   5.931   0.881 -0.5947  0.2210 -0.2124
 8475TIP3    H125389   5.714   5.925   0.821 -0.1798 -2.7336  0.4414
 8475TIP3    H225390   5.565   5.900   0.829 -0.4765 -1.1170  0.3888
 8476TIP3   OH225391   6.908   6.051   4.924 -0.1577  1.1447 -0.0824
 8476TIP3    H125392   6.911   6.028   4.832  1.9747  0.4308  0.1377
 8476TIP3    H225393   6.857   5.981   4.965 -0.0590  0.8150 -0.5227
 8477TIP3   OH225394   2.538   6.028   2.069  0.1738  0.2824 -0.3081
 8477TIP3    H125395   2.623   6.004   2.107  0.1896  0.7252 -0.0520
 8477TIP3    H225396   2.550   6.019   1.975  0.8316  1.3286 -0.3430
 8478TIP3   OH225397   1.221   0.189   2.428  0.2047 -0.1846 -0.3277
 8478TIP3    H125398   1.247   0.279   2.406  1.4686 -0.5892 -0.5924
 8478TIP3    H225399   1.302   0.138   2.419 -0.3044 -1.2041  0.6442
 8479TIP3   OH225400   5.864   5.076   3.219 -0.3467  0.0219 -0.0722
 8479TIP3    H125401   5.852   5.121   3.303 -1.0965  0.6547 -0.4962
 8479TIP3    H225402   5.922   5.003   3.238  0.4921  0.8848  0.7454
 8480TIP3   OH225403   4.694   5.360   2.003 -0.2524 -0.0352  0.0762
 8480TIP3    H125404   4.750   5.367   2.080 -0.9490 -0.2175  0.6097
 8480TIP3    H225405   4.744   5.402   1.933 -0.1229  1.2435  0.9032
 8481TIP3   OH225406   3.563   5.499   2.629  0.7027  0.1871 -0.4526
 8481TIP3    H125407   3.504   5.551   2.573  0.6184 -0.7982 -1.2972
 8481TIP3    H225408   3.525   5.507   2.717  0.9215  1.8837 -0.4753
 8482TIP3   OH225409   1.790   2.702   2.891 -0.2125 -0.3136 -0.2482
 8482TIP3    H125410   1.839   2.784   2.892 -0.8130  0.0626  1.1868
 8482TIP3    H225411   1.772   2.686   2.798 -0.1585  1.2140 -0.5514
 8483TIP3   OH225412   2.556   1.734   3.560 -0.0385  0.2723 -0.0142
 8483TIP3    H125413   2.502   1.812   3.574 -1.7193 -1.0078  0.8512
 8483TIP3    H225414   2.548   1.717   3.466 -1.2163  0.0497  0.1191
 8484TIP3   OH225415   2.652   6.621   5.728 -0.4587 -0.0601  0.3946
 8484TIP3    H125416   2.709   6.671   5.669 -2.3838  0.3501 -1.2105
 8484TIP3    H225417   2.682   6.530   5.719  0.0119  0.1574 -0.2969
 8485TIP3   OH225418   5.139   1.784   4.281 -0.6818 -0.0084 -0.2278
 8485TIP3    H125419   5.229   1.805   4.304 -1.4215  1.3431  1.6890
 8485TIP3    H225420   5.135   1.688   4.286  0.7496 -0.1310 -0.8839
 8486TIP3   OH225421   6.666   2.462   5.663  0.2562  0.0601 -0.7358
 8486TIP3    H125422   6.700   2.544   5.627  1.9307  0.2447  1.0678
 8486TIP3    H225423   6.628   2.417   5.588  0.9843  1.6536 -2.1450
 8487TIP3   OH225424   5.418   6.129   1.923 -0.2471 -0.1877  0.1475
 8487TIP3    H125425   5.440   6.040   1.896 -0.0309 -0.2736  0.5932
 8487TIP3    H225426   5.323   6.126   1.938 -0.0111 -0.7909  1.7367
 8488TIP3   OH225427   2.992   3.441   0.041  0.3518 -0.1602 -0.0947
 8488TIP3    H125428   2.947   3.366   0.079 -0.7095  1.2047  1.4804
 8488TIP3    H225429   2.921   3.498   0.012  1.1294  0.6078 -0.5208
 8489TIP3   OH225430   1.620   1.724   5.631  0.4976  0.2420 -0.2061
 8489TIP3    H125431   1.596   1.816   5.642 -2.6571 -0.6540  1.7982
 8489TIP3    H225432   1.680   1.706   5.703  1.0448  0.6736 -0.5437
 8490TIP3   OH225433   3.582   5.280   2.955 -0.4061 -0.0756 -0.0905
 8490TIP3    H125434   3.533   5.302   3.034 -0.9569  0.7353 -0.6402
 8490TIP3    H225435   3.522   5.228   2.902 -0.3866  0.1995 -0.3908
 8491TIP3   OH225436   0.994   4.091   1.966  0.1229 -0.1108 -0.2708
 8491TIP3    H125437   1.048   4.137   2.030  0.6726  1.1025 -1.5603
 8491TIP3    H225438   0.927   4.155   1.940  0.0005 -0.5284 -1.0116
 8492TIP3   OH225439   7.138   2.265   4.100 -0.5111 -0.3538  0.0954
 8492TIP3    H125440   7.209   2.205   4.121 -1.1300 -1.1995 -0.1961
 8492TIP3    H225441   7.175   2.325   4.035  0.6878  0.7897  1.7650
 8493TIP3   OH225442   2.553   2.108   1.257  0.0460 -0.0813 -0.1542
 8493TIP3    H125443   2.563   2.020   1.220  0.6609  0.3256 -0.9997
 8493TIP3    H225444   2.517   2.093   1.345  2.1862 -1.3447  0.6093
 8494TIP3   OH225445   3.208   1.306   4.508 -1.0313 -0.0220  0.5096
 8494TIP3    H125446   3.255   1.287   4.589 -0.3900 -0.3250  0.0795
 8494TIP3    H225447   3.155   1.383   4.527  0.1439  0.7274  0.8239
 8495TIP3   OH225448   4.251   3.272   2.841 -0.1235  0.6102  0.5186
 8495TIP3    H125449   4.164   3.310   2.825 -0.1748  0.4272  0.3741
 8495TIP3    H225450   4.268   3.217   2.765 -0.4780 -0.4566  1.1911
 8496TIP3   OH225451   5.811   6.259   3.180 -0.0852  0.2445  0.1682
 8496TIP3    H125452   5.824   6.165   3.194  1.0759  0.5822  1.5222
 8496TIP3    H225453   5.805   6.268   3.085 -0.0687 -1.1727  0.0072
 8497TIP3   OH225454   0.736   3.613   0.404 -0.2970  0.5009 -0.2667
 8497TIP3    H125455   0.771   3.552   0.469 -0.0580 -0.8681 -1.6216
 8497TIP3    H225456   0.805   3.678   0.392  0.3711 -0.2099 -0.3808
 8498TIP3   OH225457   1.847   1.596   5.769 -0.3502 -0.1895  0.2457
 8498TIP3    H125458   1.829   1.613   5.861  1.1591  0.5849  0.4234
 8498TIP3    H225459   1.882   1.507   5.768 -0.4406 -0.2273  0.4120
 8499TIP3   OH225460   0.386   0.434   0.268 -0.6971  0.4267 -0.6031
 8499TIP3    H125461   0.331   0.504   0.303 -1.1734 -0.0202 -0.4527
 8499TIP3    H225462   0.469   0.478   0.247  0.0052  0.5503  2.0326
 8500TIP3   OH225463   6.404   3.447   0.537  0.1276  0.1080  0.6084
 8500TIP3    H125464   6.419   3.408   0.451 -0.7356  3.3084 -1.1590
 8500TIP3    H225465   6.309   3.443   0.549  0.2999 -0.9756  1.8200
 8501TIP3   OH225466   5.821   2.760   2.387  0.3258 -0.1527  0.5475
 8501TIP3    H125467   5.782   2.700   2.323 -0.8562  1.0998  0.0387
 8501TIP3    H225468   5.758   2.764   2.459  0.3957  0.4517  0.5855
 8502TIP3   OH225469   6.951   5.953   4.585  0.0015 -0.6914 -0.1196
 8502TIP3    H125470   6.990   6.009   4.518  0.5192 -0.7123  0.1610
 8502TIP3    H225471   6.871   5.918   4.544 -0.3479  0.2753 -0.2822
 8503TIP3   OH225472   0.944   2.239   0.197  0.1617  0.0215  0.2860
 8503TIP3    H125473   0.952   2.188   0.278 -0.6289 -0.6717 -0.0673
 8503TIP3    H225474   1.012   2.203   0.140 -1.1098 -1.4428 -0.3700
 8504TIP3   OH225475   5.436   3.823   3.494 -0.0124  0.0741  0.0167
 8504TIP3    H125476   5.500   3.890   3.518  1.6870 -1.1833 -0.7685
 8504TIP3    H225477   5.402   3.852   3.409  2.4352 -1.1165 -1.4713
 8505TIP3   OH225478   5.630   2.823   4.497 -0.6082  0.4636  0.4154
 8505TIP3    H125479   5.673   2.779   4.570  0.5851  1.8888  0.6183
 8505TIP3    H225480   5.660   2.914   4.503 -0.0550  0.5095 -2.1532
 8506TIP3   OH225481   1.322   5.560   3.049 -0.2057  0.2101  0.3319
 8506TIP3    H125482   1.416   5.562   3.031 -0.5083  1.0473 -1.3527
 8506TIP3    H225483   1.296   5.652   3.050 -1.0808 -0.0270  0.3908
 8507TIP3   OH225484   0.109   1.967   3.029  0.8665  0.2680  0.2942
 8507TIP3    H125485   0.101   2.062   3.019 -1.4631  0.1012  0.0602
 8507TIP3    H225486   0.060   1.947   3.108  1.3577 -0.7617  0.3548
 8508TIP3   OH225487   4.346   1.234   2.917 -0.1579  0.0005  0.3021
 8508TIP3    H125488   4.434   1.261   2.890  0.0396 -0.6882  0.2398
 8508TIP3    H225489   4.291   1.309   2.897  0.3022  0.1903 -0.2853
 8509TIP3   OH225490   0.662   3.986   3.325 -0.5090 -0.3347  0.4448
 8509TIP3    H125491   0.639   4.009   3.415  0.5543  0.3465  0.5524
 8509TIP3    H225492   0.579   3.990   3.277 -0.9556  0.0284  1.2315
 8510TIP3   OH225493   0.954   5.581   5.662 -0.0574 -0.2662  0.5841
 8510TIP3    H125494   1.038   5.552   5.628  0.1667 -1.1757  1.8496
 8510TIP3    H225495   0.891   5.557   5.594  0.6969  0.4888 -0.4020
 8511TIP3   OH225496   2.248   6.650   0.967 -0.0509  0.4346 -0.0455
 8511TIP3    H125497   2.213   6.663   1.055 -0.8002 -0.7786 -0.1354
 8511TIP3    H225498   2.195   6.706   0.911 -1.8273 -1.2257 -0.1516
 8512TIP3   OH225499   1.208   1.950   4.751  0.5073  0.0038  0.3874
 8512TIP3    H125500   1.118   1.920   4.744  0.2677  0.8599 -0.4352
 8512TIP3    H225501   1.233   1.932   4.842 -0.4515 -0.3210  0.5955
 8513TIP3   OH225502   4.377   0.258   1.750 -0.5474  0.7872 -0.1341
 8513TIP3    H125503   4.413   0.185   1.698 -1.0989  1.7859 -2.0191
 8513TIP3    H225504   4.338   0.216   1.826 -0.2961 -0.8389 -0.8568
 8514TIP3   OH225505   4.354   6.199   1.242 -0.0715  0.4875  0.3401
 8514TIP3    H125506   4.397   6.277   1.276 -0.0404  0.6359 -0.0413
 8514TIP3    H225507   4.361   6.207   1.147 -0.1434  0.0634  0.2996
 8515TIP3   OH225508   1.969   1.220   1.573  0.0836  0.3066  0.0794
 8515TIP3    H125509   1.962   1.163   1.649 -0.6514  0.6658  0.2925
 8515TIP3    H225510   1.993   1.162   1.501 -1.8020 -0.4880  0.0379
 8516TIP3   OH225511   3.648   5.869   0.398 -0.3662 -0.2491  0.0560
 8516TIP3    H125512   3.660   5.836   0.487  0.8506  1.4725  0.5793
 8516TIP3    H225513   3.666   5.963   0.404 -0.7622 -0.0024 -1.9151
 8517TIP3   OH225514   0.659   5.300   2.814 -0.2523  0.1691  0.1951
 8517TIP3    H125515   0.728   5.287   2.879 -0.1252  0.6917  0.1693
 8517TIP3    H225516   0.705   5.299   2.730 -0.2826  0.4454  0.1738
 8518TIP3   OH225517   1.614   3.192   2.382  0.4423 -0.0470  0.0434
 8518TIP3    H125518   1.525   3.166   2.358  0.6742 -0.7798 -0.0636
 8518TIP3    H225519   1.604   3.240   2.464  0.2274 -3.2489  2.0912
 8519TIP3   OH225520   4.244   6.038   5.775 -0.4302 -0.2489  0.4624
 8519TIP3    H125521   4.229   5.995   5.859 -2.2856 -0.3750  0.1061
 8519TIP3    H225522   4.240   6.131   5.795  1.2870 -0.2160  0.8383
 8520TIP3   OH225523   0.533   1.572   3.431 -0.2958  0.1927  0.2966
 8520TIP3    H125524   0.620   1.564   3.470 -0.4232  1.3111  0.8626
 8520TIP3    H225525   0.529   1.663   3.401 -1.0514 -0.0136 -0.2480
 8521TIP3   OH225526   6.312   5.021   0.484 -0.5237 -0.4743  0.6046
 8521TIP3    H125527   6.309   5.114   0.463 -3.1550 -0.1541  2.0643
 8521TIP3    H225528   6.296   4.977   0.401  1.8220  0.2442 -0.3225
 8522TIP3   OH225529   2.509   1.860   1.593 -0.1434 -0.3565  0.4343
 8522TIP3    H125530   2.564   1.799   1.545  1.7246  1.3104  0.3234
 8522TIP3    H225531   2.562   1.939   1.601 -1.9771  0.8345  1.6587
 8523TIP3   OH225532   5.594   3.355   3.258 -0.6467 -0.7269 -0.3779
 8523TIP3    H125533   5.607   3.449   3.243  1.7924 -1.0540 -0.6268
 8523TIP3    H225534   5.499   3.344   3.258 -1.0154  1.8624  0.5300
 8524TIP3   OH225535   4.739   6.466   4.237  0.0500  0.2101  0.1726
 8524TIP3    H125536   4.647   6.440   4.232  0.0698  0.3508 -3.3952
 8524TIP3    H225537   4.736   6.560   4.253 -0.3618  0.0580  1.0673
 8525TIP3   OH225538   6.634   4.322   4.724  0.2618 -0.6256  0.0158
 8525TIP3    H125539   6.730   4.320   4.715  0.6419  0.9708  2.6345
 8525TIP3    H225540   6.603   4.257   4.661  3.1311 -1.9320 -0.2254
 8526TIP3   OH225541   4.686   2.799   3.607 -0.1588 -0.3051 -0.6766
 8526TIP3    H125542   4.661   2.891   3.613  1.5175  0.3418 -2.6046
 8526TIP3    H225543   4.617   2.758   3.555  0.4708  0.5194 -2.2231
 8527TIP3   OH225544   0.174   2.638   2.797  0.1320  0.0610 -0.5355
 8527TIP3    H125545   0.214   2.723   2.815  0.3420 -0.2414  0.5363
 8527TIP3    H225546   0.155   2.602   2.884  0.5494 -1.2135 -0.9422
 8528TIP3   OH225547   3.427   1.919   5.252  0.0412 -0.1727 -0.2863
 8528TIP3    H125548   3.414   1.859   5.179 -0.2684 -1.5387  0.8428
 8528TIP3    H225549   3.503   1.971   5.227  0.7418 -1.4963 -1.0477
 8529TIP3   OH225550   6.142   0.970   4.356  0.4085 -0.5864 -0.5953
 8529TIP3    H125551   6.129   1.002   4.267  1.3752 -0.4826 -0.7159
 8529TIP3    H225552   6.196   0.892   4.345  0.4153 -0.6495 -0.1140
 8530TIP3   OH225553   2.678   4.323   3.075 -1.3962 -0.1456 -0.0863
 8530TIP3    H125554   2.601   4.364   3.112 -0.8873  0.1893  0.6278
 8530TIP3    H225555   2.653   4.300   2.985 -1.7172  1.6894 -0.5115
 8531TIP3   OH225556   2.766   0.440   3.835 -0.8372  0.1302 -0.2652
 8531TIP3    H125557   2.836   0.380   3.808 -0.5126  0.5011 -0.2622
 8531TIP3    H225558   2.686   0.397   3.807 -0.6509 -0.5894  0.2734
 8532TIP3   OH225559   6.759   4.604   0.827 -0.0563 -0.6486  0.2803
 8532TIP3    H125560   6.786   4.696   0.835  1.1938 -1.0614  1.0730
 8532TIP3    H225561   6.703   4.589   0.903 -1.7026 -0.0996 -0.7700
 8533TIP3   OH225562   0.393   3.092   1.110  0.3325  0.1473  0.2581
 8533TIP3    H125563   0.460   3.134   1.164  1.0263 -0.7705  0.1375
 8533TIP3    H225564   0.347   3.033   1.169  1.2258 -1.0125 -0.1573
 8534TIP3   OH225565   2.019   1.579   2.843  0.3914  0.0260 -0.1985
 8534TIP3    H125566   2.078   1.538   2.907  1.4770  0.4501 -0.9042
 8534TIP3    H225567   2.076   1.632   2.788 -0.7125  0.7784 -0.6605
 8535TIP3   OH225568   3.590   2.998   0.184  0.4786 -0.4182 -0.2299
 8535TIP3    H125569   3.600   3.062   0.255  1.1210 -0.3618 -0.3666
 8535TIP3    H225570   3.671   3.005   0.134  0.7453 -1.6466  0.0060
 8536TIP3   OH225571   5.864   5.026   5.786  0.3698 -0.1777  0.1403
 8536TIP3    H125572   5.922   5.019   5.862 -0.4791  0.2628  0.8523
 8536TIP3    H225573   5.798   5.090   5.813  0.2671  0.2678 -1.1197
 8537TIP3   OH225574   0.812   4.102   1.612 -0.4435  0.0062 -0.1162
 8537TIP3    H125575   0.810   4.127   1.705 -1.6639 -0.4310 -0.0093
 8537TIP3    H225576   0.725   4.126   1.579 -0.4150 -0.8984 -0.8669
 8538TIP3   OH225577   2.130   1.832   0.837  0.5652  0.3128 -0.0293
 8538TIP3    H125578   2.222   1.825   0.864  0.2223 -0.3951  1.0491
 8538TIP3    H225579   2.116   1.757   0.780  0.5639  0.2005  0.1173
 8539TIP3   OH225580   6.054   0.045   1.668 -0.3133 -0.6330 -0.0226
 8539TIP3    H125581   6.133   0.057   1.614 -0.1630 -1.5873 -0.0263
 8539TIP3    H225582   6.055   0.120   1.728 -1.1531  1.1721 -2.1255
 8540TIP3   OH225583   3.699   1.414   5.888 -0.1398  0.0878  0.0323
 8540TIP3    H125584   3.636   1.486   5.884  0.4737  0.6933  0.9177
 8540TIP3    H225585   3.654   1.341   5.846 -1.9112  0.1553  1.6611
 8541TIP3   OH225586   2.497   1.487   3.654 -0.0634  0.0410 -0.5490
 8541TIP3    H125587   2.422   1.482   3.713 -0.8444 -0.3934 -1.5487
 8541TIP3    H225588   2.517   1.580   3.647  1.0837  0.0237  1.6390
 8542TIP3   OH225589   1.807   3.077   3.452  0.0012 -0.0961  0.3550
 8542TIP3    H125590   1.785   3.137   3.523 -1.8763  0.8771 -0.9657
 8542TIP3    H225591   1.723   3.046   3.420  0.8587 -4.2225  1.5050
 8543TIP3   OH225592   2.270   0.525   2.194 -0.5232  0.6399  0.2193
 8543TIP3    H125593   2.278   0.436   2.228  0.2738 -0.2915 -2.2309
 8543TIP3    H225594   2.355   0.566   2.215 -0.1726  0.1977 -0.3326
 8544TIP3   OH225595   6.909   4.673   4.581 -0.0725  0.2405  0.1227
 8544TIP3    H125596   6.952   4.751   4.615  0.4748 -1.3250  3.4634
 8544TIP3    H225597   6.980   4.612   4.561 -0.5108  0.3088 -1.9586
 8545TIP3   OH225598   6.808   5.348   4.203  0.2713 -0.7777  0.0187
 8545TIP3    H125599   6.857   5.429   4.210 -1.4686  0.3141  0.2885
 8545TIP3    H225600   6.837   5.309   4.120  2.1377 -0.6269  0.5591
 8546TIP3   OH225601   5.787   1.955   3.977 -0.4175  0.1570 -0.0277
 8546TIP3    H125602   5.721   1.983   3.914 -1.2408 -2.6821 -0.5699
 8546TIP3    H225603   5.851   1.905   3.926  1.1372  1.1784  0.8122
 8547TIP3   OH225604   4.828   6.225   0.536  0.1025 -0.5627 -0.7699
 8547TIP3    H125605   4.877   6.153   0.497 -1.8534 -1.3800 -1.8848
 8547TIP3    H225606   4.796   6.275   0.461  0.5109  0.8594 -0.0367
 8548TIP3   OH225607   5.311   2.329   1.605 -0.1221 -0.1521  0.1583
 8548TIP3    H125608   5.354   2.277   1.538 -1.0006  0.6531 -1.0834
 8548TIP3    H225609   5.352   2.302   1.687  3.1082  0.9333 -0.9391
 8549TIP3   OH225610   1.084   6.145   1.185  0.3802 -0.4224  0.0849
 8549TIP3    H125611   1.146   6.086   1.228 -0.1518  0.1633  1.7439
 8549TIP3    H225612   1.001   6.098   1.188 -0.3877  0.8827  2.7739
 8550TIP3   OH225613   0.156   2.629   1.322 -0.4999 -0.0168 -0.0794
 8550TIP3    H125614   0.216   2.555   1.310  0.3427  0.7462 -0.7369
 8550TIP3    H225615   0.072   2.589   1.344  0.2734 -1.1248  1.0372
 8551TIP3   OH225616   0.331   3.171   4.018  0.5086  0.0082 -0.1431
 8551TIP3    H125617   0.284   3.198   4.097  1.7736 -0.6970  0.8898
 8551TIP3    H225618   0.323   3.076   4.017 -0.4353  0.0631 -1.5122
 8552TIP3   OH225619   3.096   6.535   0.368  0.1923 -0.2521 -0.2301
 8552TIP3    H125620   3.133   6.620   0.348  0.3510 -0.1465  0.4664
 8552TIP3    H225621   3.035   6.552   0.440  0.5838 -0.7954  0.2418
 8553TIP3   OH225622   0.319   6.797   3.767  0.4254  1.1593  0.4002
 8553TIP3    H125623   0.368   6.716   3.753  1.1933  1.7207 -0.2296
 8553TIP3    H225624   0.364   6.840   3.839 -0.0617  0.9833  0.8221
 8554TIP3   OH225625   4.811   1.296   5.889 -0.8286  0.2905 -0.0718
 8554TIP3    H125626   4.868   1.348   5.833  0.4918  0.1398  1.0477
 8554TIP3    H225627   4.754   1.248   5.829  1.1308 -0.5650 -1.3627
 8555TIP3   OH225628   2.488   3.441   2.076 -0.1786  0.6361  0.0632
 8555TIP3    H125629   2.497   3.453   1.981  3.8810  4.0747  0.5490
 8555TIP3    H225630   2.483   3.347   2.089 -1.4506  0.0765 -3.5413
 8556TIP3   OH225631   3.222   1.805   2.363  0.2185  0.7345  0.0223
 8556TIP3    H125632   3.301   1.814   2.417  0.7184 -1.3749 -0.2803
 8556TIP3    H225633   3.254   1.769   2.281 -1.0351  0.0363 -0.1751
 8557TIP3   OH225634   3.747   3.155   1.590  0.5230  0.3231  0.2046
 8557TIP3    H125635   3.781   3.183   1.504  0.0844  1.7413  0.4601
 8557TIP3    H225636   3.660   3.195   1.595  0.7721  0.7346  1.5404
 8558TIP3   OH225637   6.160   1.988   1.911  0.1936 -0.0776 -0.1742
 8558TIP3    H125638   6.135   2.043   1.986 -2.1418  1.1248 -1.7067
 8558TIP3    H225639   6.203   2.048   1.850 -1.2571 -0.1381 -1.3226
 8559TIP3   OH225640   1.703   4.726   3.311  0.2991  0.7729 -0.5815
 8559TIP3    H125641   1.698   4.727   3.406 -0.7500 -0.6103 -0.5870
 8559TIP3    H225642   1.625   4.774   3.282  0.1737  0.4809 -0.7337
 8560TIP3   OH225643   5.399   6.437   3.498  0.7235 -0.6770  0.0939
 8560TIP3    H125644   5.421   6.344   3.511  1.2033 -0.5024  0.5254
 8560TIP3    H225645   5.332   6.435   3.429  0.0983 -1.4109  0.7005
 8561TIP3   OH225646   5.794   6.558   1.877  0.1931 -0.0638  0.8428
 8561TIP3    H125647   5.853   6.493   1.916  0.0514 -0.8465 -0.1932
 8561TIP3    H225648   5.716   6.556   1.933  0.6580  0.0881  1.5069
 8562TIP3   OH225649   5.479   1.745   4.588 -0.3094  0.4735 -0.1220
 8562TIP3    H125650   5.458   1.816   4.649  0.6126  0.3749  0.3279
 8562TIP3    H225651   5.514   1.789   4.511 -0.4580  0.5488 -0.1460
 8563TIP3   OH225652   1.045   6.379   1.302 -0.5905 -0.2058 -0.1035
 8563TIP3    H125653   1.050   6.288   1.274 -0.4979 -0.0912 -0.4581
 8563TIP3    H225654   1.132   6.414   1.287 -0.9100  0.2390 -0.9968
 8564TIP3   OH225655   6.411   2.464   1.428 -0.5596 -0.1300  0.0905
 8564TIP3    H125656   6.431   2.400   1.360  0.2430  0.2128 -0.0124
 8564TIP3    H225657   6.382   2.542   1.380  1.6202  0.6940  0.0084
 8565TIP3   OH225658   5.485   0.321   5.264  0.1139 -0.0407 -0.2439
 8565TIP3    H125659   5.461   0.397   5.212 -1.3439  0.1086  0.5848
 8565TIP3    H225660   5.564   0.347   5.310 -1.0072  1.4465  0.9267
 8566TIP3   OH225661   6.324   0.358   1.758  0.1768  0.3961 -0.3219
 8566TIP3    H125662   6.264   0.422   1.797 -2.2076 -0.5168 -2.1733
 8566TIP3    H225663   6.374   0.323   1.832  0.8762  3.5907  0.8730
 8567TIP3   OH225664   4.842   0.167   5.690 -0.1656 -0.5001 -0.2169
 8567TIP3    H125665   4.803   0.140   5.773 -1.0150  0.8746 -0.1388
 8567TIP3    H225666   4.935   0.177   5.709 -0.1694 -1.3221  0.2643
 8568TIP3   OH225667   2.116   3.028   5.779 -0.3215 -0.2280 -0.4803
 8568TIP3    H125668   2.209   3.037   5.758 -0.4946  2.0954 -0.5020
 8568TIP3    H225669   2.114   3.009   5.873  0.1885  1.4149 -0.1005
 8569TIP3   OH225670   1.566   1.365   4.672 -0.5016  0.6086 -0.1666
 8569TIP3    H125671   1.522   1.423   4.610 -0.4740  0.3463 -0.4323
 8569TIP3    H225672   1.502   1.351   4.741  0.3679  3.0412  1.2528
 8570TIP3   OH225673   0.396   0.910   1.925  0.3946 -0.5678  0.0021
 8570TIP3    H125674   0.418   0.964   1.849  2.4942 -1.4925 -0.1135
 8570TIP3    H225675   0.458   0.938   1.993 -1.8901  0.7298  1.6840
 8571TIP3   OH225676   0.405   5.149   4.292  0.8363  0.4466 -0.1609
 8571TIP3    H125677   0.337   5.217   4.295  0.2244 -0.1588 -0.1580
 8571TIP3    H225678   0.476   5.189   4.242  0.1150  0.7619 -0.9592
 8572TIP3   OH225679   5.629   3.813   2.602  0.3746 -0.4604 -0.0437
 8572TIP3    H125680   5.657   3.732   2.644  1.7944 -0.4917 -0.9657
 8572TIP3    H225681   5.552   3.788   2.551 -1.3443 -0.4299  2.3798
 8573TIP3   OH225682   5.661   2.661   3.638  0.0720  0.3444  0.7720
 8573TIP3    H125683   5.669   2.621   3.724 -1.1555  3.2433  2.3917
 8573TIP3    H225684   5.571   2.642   3.611 -0.1057  0.9083  0.9579
 8574TIP3   OH225685   5.802   6.634   3.944  0.3521  0.4893  0.0080
 8574TIP3    H125686   5.717   6.590   3.935  0.4256  0.2743  0.3138
 8574TIP3    H225687   5.781   6.717   3.987  0.4665 -0.2560  1.5701
 8575TIP3   OH225688   1.498   5.886   0.108 -0.4991 -0.3186 -0.4178
 8575TIP3    H125689   1.548   5.822   0.057  0.0414 -0.8270  0.7118
 8575TIP3    H225690   1.540   5.886   0.194 -2.2243 -0.4986  0.4579
 8576TIP3   OH225691   1.016   2.900   1.038  1.3666  0.4609 -0.5454
 8576TIP3    H125692   0.978   2.982   1.069  0.2881  0.1847 -1.0806
 8576TIP3    H225693   0.949   2.863   0.980  1.6810 -0.9717 -0.0389
 8577TIP3   OH225694   2.151   5.386   2.292  1.0169  0.0098 -0.0193
 8577TIP3    H125695   2.123   5.464   2.245  0.8493  0.1368  0.2892
 8577TIP3    H225696   2.246   5.397   2.301  0.7993  0.9690  1.4300
 8578TIP3   OH225697   5.648   6.114   5.310 -0.0830 -0.5812  0.3892
 8578TIP3    H125698   5.683   6.148   5.227 -1.6728 -0.7134 -0.3705
 8578TIP3    H225699   5.623   6.192   5.359 -0.9524 -0.5369 -0.0989
 8579TIP3   OH225700   6.197   4.030   1.507  0.7828  0.2956 -0.5367
 8579TIP3    H125701   6.178   3.961   1.444  0.9225 -0.2617  0.0242
 8579TIP3    H225702   6.111   4.065   1.532  0.7710  1.5277 -2.1119
 8580TIP3   OH225703   0.173   6.769   1.547 -0.2396  0.0873 -0.1446
 8580TIP3    H125704   0.179   6.773   1.643  1.4560  2.9735 -0.2325
 8580TIP3    H225705   0.079   6.776   1.529 -0.4410  2.3241  1.3549
 8581TIP3   OH225706   1.933   0.904   3.952 -0.4604  0.0505  0.6107
 8581TIP3    H125707   1.910   0.829   3.896 -1.3698  0.8177 -0.0807
 8581TIP3    H225708   2.028   0.906   3.952 -0.4382 -0.6071 -0.0526
 8582TIP3   OH225709   7.170   2.138   2.089  0.1968 -0.1881  0.0176
 8582TIP3    H125710   7.215   2.221   2.074  0.8299 -0.7414 -1.3646
 8582TIP3    H225711   7.111   2.128   2.014  1.1953 -1.6344 -0.6243
 8583TIP3   OH225712   2.615   0.409   3.355 -0.9579  0.9169 -0.3551
 8583TIP3    H125713   2.567   0.432   3.275 -0.8276  1.3664 -0.3049
 8583TIP3    H225714   2.565   0.336   3.391 -1.1390  0.8458 -0.7368
 8584TIP3   OH225715   2.266   4.739   0.687  0.1413  0.3559 -0.3291
 8584TIP3    H125716   2.179   4.711   0.658  0.6359 -1.6628 -0.0152
 8584TIP3    H225717   2.295   4.669   0.746  2.0011  0.9705 -0.4599
 8585TIP3   OH225718   2.929   3.616   2.683  0.0535  0.1936  0.0162
 8585TIP3    H125719   2.980   3.645   2.607  0.5859  1.6487  0.9045
 8585TIP3    H225720   2.838   3.625   2.654  0.2221  1.6912 -0.1524
 8586TIP3   OH225721   6.892   1.687   0.257 -0.2369  0.2386 -0.0070
 8586TIP3    H125722   6.914   1.607   0.209  0.2079 -0.1674  0.8533
 8586TIP3    H225723   6.976   1.719   0.290 -0.3179  1.4169 -0.8555
 8587TIP3   OH225724   1.903   4.775   5.681  0.4309 -0.1761  0.1813
 8587TIP3    H125725   1.910   4.795   5.587 -0.2834  0.2865  0.2158
 8587TIP3    H225726   1.985   4.731   5.703  0.7195 -0.0394 -0.6008
 8588TIP3   OH225727   5.614   5.617   0.154  0.1021  0.5143 -0.4520
 8588TIP3    H125728   5.575   5.535   0.122 -0.7310  0.1653  1.3258
 8588TIP3    H225729   5.540   5.677   0.162  0.4114  0.8295  0.0689
 8589TIP3   OH225730   6.675   5.899   4.723 -0.1691  0.3073 -0.2277
 8589TIP3    H125731   6.680   5.993   4.705 -0.7366  0.5506  0.8283
 8589TIP3    H225732   6.683   5.858   4.636  0.1875  1.3132 -0.6898
 8590TIP3   OH225733   2.892   0.936   0.044  0.0687  0.2412 -0.2585
 8590TIP3    H125734   2.844   0.996  -0.014 -1.7016  1.9312  2.7259
 8590TIP3    H225735   2.975   0.922  -0.002 -1.7866  0.0230 -3.9940
 8591TIP3   OH225736   5.918   1.125   5.590 -0.2931 -0.4627  0.1401
 8591TIP3    H125737   5.983   1.130   5.660 -0.2747 -0.6183  0.1343
 8591TIP3    H225738   5.933   1.204   5.538  1.6350 -1.7152 -1.3819
 8592TIP3   OH225739   5.561   4.412   2.370  0.1969 -0.5665  0.0547
 8592TIP3    H125740   5.507   4.491   2.369  0.0855 -0.5597 -3.0454
 8592TIP3    H225741   5.499   4.339   2.371  0.1718 -0.5693 -0.9357
 8593TIP3   OH225742   1.975   4.810   4.780  0.1205 -0.2188 -0.2498
 8593TIP3    H125743   1.922   4.789   4.857  0.8138  0.0292  0.3062
 8593TIP3    H225744   1.979   4.727   4.732  0.8834 -0.7879  0.7361
 8594TIP3   OH225745   5.386   4.986   1.049 -0.0917  0.0709 -0.2372
 8594TIP3    H125746   5.358   4.900   1.080 -0.4647  0.1187 -0.4451
 8594TIP3    H225747   5.316   5.016   0.991 -0.5664  1.0733  0.8252
 8595TIP3   OH225748   6.734   3.543   5.198  0.1429  0.3601  0.3101
 8595TIP3    H125749   6.741   3.600   5.275 -0.7641  0.6967  0.1599
 8595TIP3    H225750   6.701   3.600   5.129  0.3347 -0.0889 -0.1612
 8596TIP3   OH225751   1.081   1.252   3.545  0.0605 -0.7417  0.4582
 8596TIP3    H125752   1.133   1.320   3.502  0.1034  0.1281  1.8159
 8596TIP3    H225753   1.096   1.267   3.639 -1.9126 -1.0365  0.8547
 8597TIP3   OH225754   0.285   6.231   1.115  0.2626  0.0863  0.3057
 8597TIP3    H125755   0.266   6.323   1.132  1.1329  0.5533 -1.0418
 8597TIP3    H225756   0.369   6.232   1.068  0.5271 -1.4328  0.6900
 8598TIP3   OH225757   5.180   5.193   2.772 -0.1823  0.1030  0.2229
 8598TIP3    H125758   5.240   5.201   2.846  1.0121 -0.2891 -0.6712
 8598TIP3    H225759   5.237   5.195   2.695 -1.4367  0.9713 -0.7113
 8599TIP3   OH225760   0.374   6.798   0.013 -0.2611 -0.4090 -0.4195
 8599TIP3    H125761   0.417   6.732   0.067  0.8287  1.3509  1.0109
 8599TIP3    H225762   0.443   6.831  -0.044 -0.9113 -0.8273 -1.4657
 8600TIP3   OH225763   6.697   6.462   3.950  0.2176 -0.3849  0.0045
 8600TIP3    H125764   6.662   6.413   3.876  1.1871  1.4406 -1.7499
 8600TIP3    H225765   6.785   6.428   3.963 -0.6422 -2.1337  1.7498
 8601TIP3   OH225766   1.114   6.160   0.020 -0.3704  0.2024  0.2753
 8601TIP3    H125767   1.113   6.244  -0.026  1.8233 -0.4844 -1.2285
 8601TIP3    H225768   1.043   6.166   0.083 -0.6652  2.9519 -0.1846
 8602TIP3   OH225769   6.458   1.347   3.410 -0.1137  0.0097  0.5715
 8602TIP3    H125770   6.389   1.308   3.356 -1.5015 -0.3480  2.4891
 8602TIP3    H225771   6.519   1.386   3.347 -1.8546  0.0003 -1.2200
 8603TIP3   OH225772   2.977   2.092   1.898 -0.6072  0.5066  0.8891
 8603TIP3    H125773   2.921   2.154   1.945  0.4993  0.8465  1.8165
 8603TIP3    H225774   2.955   2.007   1.936 -0.0076  0.7301  1.7844
 8604TIP3   OH225775   7.188   1.693   5.113 -0.1753 -0.4402  0.0673
 8604TIP3    H125776   7.112   1.688   5.055 -0.0323  0.7913 -0.2450
 8604TIP3    H225777   7.184   1.781   5.151  1.8658  0.2012 -1.0545
 8605TIP3   OH225778   3.732   4.883   0.846  0.4265 -0.6104 -0.2984
 8605TIP3    H125779   3.777   4.958   0.887 -0.8914  0.5626 -0.9134
 8605TIP3    H225780   3.750   4.892   0.753 -0.4925 -0.5177 -0.4747
 8606TIP3   OH225781   7.065   5.071   4.191 -0.1352 -0.1597 -0.6192
 8606TIP3    H125782   7.110   5.112   4.264  0.9931 -1.1650 -0.7241
 8606TIP3    H225783   7.132   5.060   4.123 -0.8447 -0.4399 -1.3004
 8607TIP3   OH225784   5.346   2.362   1.295 -0.8281  0.0580  0.1274
 8607TIP3    H125785   5.441   2.353   1.292 -0.8124  0.4130 -0.5858
 8607TIP3    H225786   5.327   2.437   1.239 -1.6122 -0.6608 -0.5928
 8608TIP3   OH225787   0.581   2.242   3.187  0.7101 -0.3156  0.0065
 8608TIP3    H125788   0.506   2.284   3.230  2.2891  1.7484  0.9521
 8608TIP3    H225789   0.636   2.315   3.158  1.8045 -1.7433 -1.7167
 8609TIP3   OH225790   0.760   1.857   0.007  0.5813 -0.1183 -0.3778
 8609TIP3    H125791   0.816   1.932  -0.014 -0.0615  0.5076  0.0658
 8609TIP3    H225792   0.748   1.862   0.102 -0.1498 -0.2890 -0.4526
 8610TIP3   OH225793   6.595   6.511   1.121  0.2404  0.1727 -0.4149
 8610TIP3    H125794   6.555   6.525   1.207 -0.4312  0.5322 -0.7822
 8610TIP3    H225795   6.675   6.461   1.140  0.3906  0.7266  0.4680
 8611TIP3   OH225796   5.305   1.119   4.529  0.1604 -0.2159 -0.0553
 8611TIP3    H125797   5.268   1.145   4.445  0.1393 -1.3786 -0.4288
 8611TIP3    H225798   5.397   1.102   4.510  0.1338 -0.5715  0.1341
 8612TIP3   OH225799   0.397   1.637   0.489 -0.1554  0.6398 -0.2335
 8612TIP3    H125800   0.412   1.605   0.400 -0.0541  0.4736 -0.1572
 8612TIP3    H225801   0.411   1.560   0.545 -1.0855  0.5262 -0.1415
 8613TIP3   OH225802   2.257   6.177   4.616  0.1496 -0.1596 -0.4894
 8613TIP3    H125803   2.221   6.162   4.704 -0.9735 -2.2449 -1.2303
 8613TIP3    H225804   2.190   6.229   4.572  1.5466  2.5650  0.3638
 8614TIP3   OH225805   5.313   0.955   1.128 -0.0422 -0.2582 -0.3502
 8614TIP3    H125806   5.346   0.883   1.183 -0.5325 -0.7370 -0.6742
 8614TIP3    H225807   5.220   0.936   1.117 -0.8760  1.9353  1.8925
 8615TIP3   OH225808   7.056   3.645   1.866  0.9901  0.2908  0.2213
 8615TIP3    H125809   7.020   3.609   1.948  0.3240  1.1276  0.3028
 8615TIP3    H225810   7.026   3.736   1.864  0.7995  0.2169 -1.0792
 8616TIP3   OH225811   5.136   5.065   0.979  0.0858  0.1063  0.0592
 8616TIP3    H125812   5.091   5.083   1.061 -0.5108 -1.1675  0.0294
 8616TIP3    H225813   5.086   4.994   0.939  1.3664 -0.4651 -0.5949
 8617TIP3   OH225814   6.675   1.404   1.737 -0.5737 -0.2829  0.3483
 8617TIP3    H125815   6.758   1.448   1.720 -0.4631 -0.1060  1.3215
 8617TIP3    H225816   6.687   1.359   1.821 -0.7471 -2.0517 -0.5268
 8618TIP3   OH225817   3.554   1.160   2.821 -0.0729  0.5037 -0.8682
 8618TIP3    H125818   3.534   1.113   2.740 -0.5254  0.6559 -0.8477
 8618TIP3    H225819   3.480   1.219   2.834 -0.0809  0.3732 -0.2655
 8619TIP3   OH225820   1.696   5.379   4.539  0.4790  0.4516 -0.0436
 8619TIP3    H125821   1.609   5.357   4.508 -0.1601 -1.8972  3.0323
 8619TIP3    H225822   1.684   5.460   4.590  0.3485  0.7708 -0.5744
 8620TIP3   OH225823   0.322   0.718   3.821 -0.3635 -0.1310  0.2943
 8620TIP3    H125824   0.365   0.748   3.901 -0.2213 -0.0104  0.1733
 8620TIP3    H225825   0.232   0.702   3.847 -1.2273  3.0898 -0.2259
 8621TIP3   OH225826   4.733   4.630   5.746  0.1479  0.2399  0.2093
 8621TIP3    H125827   4.728   4.657   5.654  0.1434 -0.1378  0.0974
 8621TIP3    H225828   4.821   4.656   5.774  0.2942 -0.0098 -0.0180
 8622TIP3   OH225829   0.221   0.298   0.037  0.2629  0.7415 -0.5147
 8622TIP3    H125830   0.277   0.316   0.112 -0.7333 -0.9923  0.7153
 8622TIP3    H225831   0.132   0.302   0.072 -0.2099 -0.4383 -1.5176
 8623TIP3   OH225832   3.878   4.748   2.075 -0.0503  0.1214  0.1060
 8623TIP3    H125833   3.959   4.720   2.118  0.0872  1.8490  1.0712
 8623TIP3    H225834   3.896   4.837   2.046 -1.3883  0.2894 -0.2743
 8624TIP3   OH225835   4.493   2.989   2.101 -0.7520 -0.1013 -0.1740
 8624TIP3    H125836   4.424   2.961   2.041 -0.4258  0.3451 -0.7774
 8624TIP3    H225837   4.548   2.912   2.112 -0.1003  0.1530 -1.4771
 8625TIP3   OH225838   5.952   0.608   4.002  0.1820 -0.0713 -0.1772
 8625TIP3    H125839   5.997   0.586   3.920  1.6740  0.4094  0.4673
 8625TIP3    H225840   5.997   0.555   4.068 -0.2745  0.3629  0.4858
 8626TIP3   OH225841   5.278   4.341   1.857 -0.2474 -0.3880  0.4928
 8626TIP3    H125842   5.248   4.367   1.944 -0.4334  1.2432 -0.0092
 8626TIP3    H225843   5.357   4.290   1.873 -0.1781  0.0326  1.6197
 8627TIP3   OH225844   1.971   1.240   3.673 -0.5278 -0.5424  0.0786
 8627TIP3    H125845   2.015   1.167   3.629  0.8871  1.0291 -1.2763
 8627TIP3    H225846   2.027   1.259   3.749 -1.5140 -1.5437  1.0910
 8628TIP3   OH225847   4.361   3.913   4.863  0.3339 -0.3056  0.0103
 8628TIP3    H125848   4.428   3.971   4.828  0.0545 -0.3583 -0.6327
 8628TIP3    H225849   4.291   3.972   4.893  0.4805 -0.2699  0.2856
 8629TIP3   OH225850   1.247   3.100   3.748 -0.3235 -0.4496 -0.1074
 8629TIP3    H125851   1.189   3.052   3.807  1.1728 -0.9903  1.0198
 8629TIP3    H225852   1.325   3.118   3.802  1.2246 -1.1750 -1.9895
 8630TIP3   OH225853   4.250   2.491   5.307 -0.2824 -0.4635 -0.1964
 8630TIP3    H125854   4.308   2.567   5.308 -0.0990 -0.5334  2.1988
 8630TIP3    H225855   4.200   2.500   5.227 -0.0123  1.9963 -0.1800
 8631TIP3   OH225856   2.312   0.893   2.210  0.4690 -0.0773 -0.2096
 8631TIP3    H125857   2.339   0.970   2.261 -2.6536  0.4167  0.8703
 8631TIP3    H225858   2.300   0.824   2.275  2.3520 -1.3079 -1.0732
 8632TIP3   OH225859   5.871   5.257   4.230 -0.6661  0.3975  0.1501
 8632TIP3    H125860   5.781   5.224   4.228 -1.1006  1.4881  0.9007
 8632TIP3    H225861   5.892   5.274   4.138 -1.1897  0.0509 -0.0395
 8633TIP3   OH225862   2.265   1.166   2.953 -0.1310  0.1038  0.5376
 8633TIP3    H125863   2.359   1.171   2.931 -0.5050  1.9407 -0.9301
 8633TIP3    H225864   2.255   1.227   3.026 -0.3368  0.7070  0.0130
 8634TIP3   OH225865   1.042   5.034   3.157 -0.8151  0.6677 -0.0682
 8634TIP3    H125866   1.010   5.055   3.069  0.2887  2.0862 -0.1776
 8634TIP3    H225867   0.965   5.048   3.214 -1.3445  0.4546 -0.7207
 8635TIP3   OH225868   6.911   3.987   0.085 -0.7501  0.4016  0.3486
 8635TIP3    H125869   6.892   3.935   0.163  0.5677  0.9409  1.0498
 8635TIP3    H225870   6.974   3.935   0.036  1.0062  1.5202  1.3269
 8636TIP3   OH225871   5.559   1.451   3.432  0.6295  0.1022 -0.4874
 8636TIP3    H125872   5.552   1.538   3.472 -0.1152 -0.6941  1.2334
 8636TIP3    H225873   5.585   1.394   3.505 -1.5213 -1.5615 -0.9251
 8637TIP3   OH225874   6.179   6.213   4.013  0.1507 -0.5625  0.6197
 8637TIP3    H125875   6.210   6.283   3.955  0.9883 -0.1573  1.5375
 8637TIP3    H225876   6.162   6.257   4.096 -1.6161 -1.0216  0.5490
 8638TIP3   OH225877   1.728   6.158   4.075 -0.2928 -0.6611  0.1052
 8638TIP3    H125878   1.739   6.240   4.123 -0.9308 -1.2633  1.3197
 8638TIP3    H225879   1.633   6.147   4.068 -0.2116 -1.1820 -0.2552
 8639TIP3   OH225880   3.896   4.395   2.535 -0.7133  0.1945  0.0550
 8639TIP3    H125881   3.968   4.457   2.547 -0.1195 -0.5933  0.7172
 8639TIP3    H225882   3.877   4.399   2.441  1.8567 -1.3163 -0.6391
 8640TIP3   OH225883   3.177   5.879   3.631 -0.8862 -0.5672  1.1514
 8640TIP3    H125884   3.170   5.874   3.727 -0.2661  0.6021  1.2786
 8640TIP3    H225885   3.271   5.893   3.615 -0.7179 -2.3355  0.2623
 8641TIP3   OH225886   2.143   2.475   3.061  0.2782  0.4900 -0.3272
 8641TIP3    H125887   2.111   2.393   3.024  0.3104  0.4037 -0.1665
 8641TIP3    H225888   2.148   2.536   2.987  1.8037 -0.1159 -0.7593
 8642TIP3   OH225889   3.617   4.130   2.241 -0.1995 -0.0981  0.0833
 8642TIP3    H125890   3.679   4.063   2.212  0.3642  0.0579  0.9166
 8642TIP3    H225891   3.535   4.082   2.254  0.4781 -0.8745  1.7760
 8643TIP3   OH225892   0.662   0.594   3.734 -0.2548 -0.1090 -0.0399
 8643TIP3    H125893   0.698   0.557   3.815  0.3393  0.9156  0.1715
 8643TIP3    H225894   0.634   0.517   3.683  1.8816 -0.9322 -0.0598
 8644TIP3   OH225895   5.777   4.655   0.858 -0.1425  0.3790 -0.1527
 8644TIP3    H125896   5.840   4.716   0.897  0.9394  0.5243 -2.0023
 8644TIP3    H225897   5.732   4.616   0.933  1.8717  0.5743  1.2512
 8645TIP3   OH225898   5.910   4.569   4.667  0.3775 -0.0998  0.4238
 8645TIP3    H125899   5.990   4.596   4.711  1.2152  0.2485 -1.2565
 8645TIP3    H225900   5.910   4.474   4.674  1.2473 -0.1435 -0.0820
 8646TIP3   OH225901   0.968   2.400   2.461 -0.0110 -0.0024 -0.5781
 8646TIP3    H125902   0.973   2.350   2.543 -2.2108  1.8632  0.8468
 8646TIP3    H225903   0.954   2.334   2.393  0.3384 -1.5257  0.7641
 8647TIP3   OH225904   1.486   2.709   2.948  0.3835  0.0103  0.0853
 8647TIP3    H125905   1.443   2.740   3.027  0.7957  0.2915  0.2075
 8647TIP3    H225906   1.578   2.734   2.960  0.3810  0.4064 -0.6497
 8648TIP3   OH225907   2.247   2.212   5.804 -0.0497  0.4542  0.0933
 8648TIP3    H125908   2.258   2.117   5.809  0.9579  0.5346 -0.4964
 8648TIP3    H225909   2.184   2.225   5.733  1.2463  0.3060 -1.1112
 8649TIP3   OH225910   1.142   2.181   4.404 -0.0738  0.1140  0.5651
 8649TIP3    H125911   1.050   2.160   4.415 -0.3492  0.6443 -0.5273
 8649TIP3    H225912   1.143   2.254   4.342  1.1284 -0.9273 -0.7425
 8650TIP3   OH225913   6.544   3.769   0.067 -0.1291  0.3037 -0.0408
 8650TIP3    H125914   6.477   3.837   0.062 -1.2317 -0.6230  1.2654
 8650TIP3    H225915   6.571   3.769   0.159  1.0520  0.0676 -0.3731
 8651TIP3   OH225916   3.954   4.339   4.240  0.4403  0.0303  0.2504
 8651TIP3    H125917   3.966   4.370   4.330 -0.7906  0.5004  0.2798
 8651TIP3    H225918   3.861   4.320   4.234  0.0563  2.0280 -1.5103
 8652TIP3   OH225919   0.416   0.649   3.563  0.3328 -0.2186 -0.6455
 8652TIP3    H125920   0.408   0.673   3.655 -2.3654  1.1149 -1.1305
 8652TIP3    H225921   0.457   0.725   3.522  2.0564 -1.0337 -0.5241
 8653TIP3   OH225922   0.298   4.130   1.042 -0.3165 -0.2356  0.2932
 8653TIP3    H125923   0.269   4.049   1.001 -0.8064  0.6503 -1.1725
 8653TIP3    H225924   0.218   4.181   1.055  0.0594  0.2968  0.5868
 8654TIP3   OH225925   4.491   2.891   3.922  0.2115  0.4298  0.2147
 8654TIP3    H125926   4.580   2.925   3.934  0.0322  0.3223  2.2411
 8654TIP3    H225927   4.436   2.969   3.918  0.0240  0.5468  2.8962
 8655TIP3   OH225928   2.036   2.691   5.177  0.3137  0.0803 -0.4235
 8655TIP3    H125929   2.025   2.629   5.250  1.0075 -0.9133 -1.1434
 8655TIP3    H225930   2.002   2.773   5.211 -2.0304 -1.0105  0.0742
 8656TIP3   OH225931   4.483   2.746   0.010 -0.1079 -0.2508  0.0816
 8656TIP3    H125932   4.448   2.667   0.051  0.9309 -0.5114  0.5145
 8656TIP3    H225933   4.578   2.730   0.006  0.0727  0.8236 -0.1462
 8657TIP3   OH225934   0.122   6.690   0.913 -0.1534  0.1177  0.2813
 8657TIP3    H125935   0.112   6.678   0.819  1.9207  0.8740 -0.0918
 8657TIP3    H225936   0.093   6.780   0.929  2.7573  1.2936 -0.3249
 8658TIP3   OH225937   3.422   1.618   2.994 -0.0273 -0.7787  0.4537
 8658TIP3    H125938   3.496   1.658   2.949 -0.5889  0.5550  0.6703
 8658TIP3    H225939   3.389   1.686   3.053 -1.1242 -1.5005  0.7177
 8659TIP3   OH225940   6.922   3.812   3.303 -0.4506  0.0411  0.1115
 8659TIP3    H125941   6.969   3.769   3.375  0.8527  1.0987 -0.0692
 8659TIP3    H225942   6.987   3.819   3.233 -0.9492  1.3085 -0.2408
 8660TIP3   OH225943   0.930   6.738   3.070  0.0595  0.0209  0.1420
 8660TIP3    H125944   0.994   6.770   3.134  0.5158  0.8298 -0.6963
 8660TIP3    H225945   0.960   6.650   3.048  0.7388  0.2933 -0.0470
 8661TIP3   OH225946   0.964   3.605   5.202 -0.5490  0.0459 -0.3794
 8661TIP3    H125947   0.918   3.595   5.285  1.6550 -2.3278  0.7214
 8661TIP3    H225948   1.054   3.628   5.228 -0.4192  1.9093 -2.2753
 8662TIP3   OH225949   5.771   6.176   2.381  0.1602  0.2835  0.2068
 8662TIP3    H125950   5.800   6.144   2.466 -0.5134 -1.1115 -0.0703
 8662TIP3    H225951   5.805   6.112   2.318 -2.4196 -0.7796 -0.2291
 8663TIP3   OH225952   1.974   4.102   4.049 -0.1751 -0.2900  0.4171
 8663TIP3    H125953   2.036   4.040   4.087 -0.9654 -1.0888  0.4348
 8663TIP3    H225954   1.958   4.069   3.961  0.8835  0.9989 -0.3045
 8664TIP3   OH225955   5.942   6.717   2.769  0.1160  0.1212  0.2417
 8664TIP3    H125956   5.958   6.796   2.821  0.8793 -0.6418  1.2076
 8664TIP3    H225957   5.924   6.750   2.681  1.0775  1.3476  0.4663
 8665TIP3   OH225958   6.524   0.043   4.996  0.2097 -0.5512  0.7803
 8665TIP3    H125959   6.472  -0.031   4.966 -0.9869 -0.0771  1.6110
 8665TIP3    H225960   6.493   0.060   5.084  0.2578  1.1183  0.5091
 8666TIP3   OH225961   5.791   4.353   4.168 -0.3881  0.3686 -0.3887
 8666TIP3    H125962   5.851   4.284   4.195 -2.6872 -1.5730  0.1379
 8666TIP3    H225963   5.763   4.395   4.249 -0.6968  0.4019 -0.5084
 8667TIP3   OH225964   5.137   6.151   1.573 -0.1368  0.0748  0.1456
 8667TIP3    H125965   5.137   6.233   1.622  0.4354  0.4009 -0.3832
 8667TIP3    H225966   5.228   6.120   1.578 -0.0673  0.1161 -0.6961
 8668TIP3   OH225967   1.887   1.055   5.064  0.2568  0.0725  0.1403
 8668TIP3    H125968   1.899   1.046   5.159  1.4843 -0.0425 -0.0102
 8668TIP3    H225969   1.955   0.998   5.027  0.4254  0.8885 -0.8116
 8669TIP3   OH225970   5.890   2.090   3.443 -0.3032  0.2502 -0.1968
 8669TIP3    H125971   5.910   2.117   3.533  0.8966  1.6679 -0.8420
 8669TIP3    H225972   5.800   2.118   3.429 -0.1340  1.0189  0.2165
 8670TIP3   OH225973   5.638   5.934   0.407 -0.5827 -0.0700  0.0171
 8670TIP3    H125974   5.592   5.996   0.464  0.8533 -0.3992  1.6282
 8670TIP3    H225975   5.585   5.855   0.409 -0.9937  0.2078  0.2181
 8671TIP3   OH225976   5.312   0.655   1.139  0.3978 -0.2901 -0.1934
 8671TIP3    H125977   5.360   0.583   1.097  0.6043 -1.1476  1.4469
 8671TIP3    H225978   5.224   0.621   1.152  0.2774  0.0499 -0.1154
 8672TIP3   OH225979   3.300   2.056   4.586 -0.0945  0.3183 -0.1374
 8672TIP3    H125980   3.390   2.029   4.569 -0.7984 -1.0764 -1.7988
 8672TIP3    H225981   3.278   2.113   4.512 -1.1316 -0.7386 -0.6532
 8673TIP3   OH225982   3.221   6.165   2.290  0.1219  0.1722  0.2260
 8673TIP3    H125983   3.209   6.076   2.257  1.1488  0.3398 -0.6694
 8673TIP3    H225984   3.268   6.153   2.373  0.9277 -0.1048 -0.2553
 8674TIP3   OH225985   1.198   4.823   4.456  0.0762 -0.0048 -0.2353
 8674TIP3    H125986   1.179   4.848   4.546 -0.4808  0.4225 -0.4604
 8674TIP3    H225987   1.113   4.797   4.420  0.4823 -1.2816 -0.3067
 8675TIP3   OH225988   1.080   0.975   4.365 -0.0812  0.1835  0.4625
 8675TIP3    H125989   1.098   0.892   4.408  1.1066 -0.3413 -0.9821
 8675TIP3    H225990   1.001   1.008   4.409  0.0637 -1.1474  1.8052
 8676TIP3   OH225991   0.889   5.540   5.372 -0.0302 -0.5114 -0.3209
 8676TIP3    H125992   0.982   5.523   5.359 -0.0215  0.2573 -1.3529
 8676TIP3    H225993   0.851   5.453   5.386  0.5153 -1.0693 -2.0699
 8677TIP3   OH225994   5.327   6.436   1.941 -0.0179  0.0342  0.2461
 8677TIP3    H125995   5.323   6.528   1.966  1.9400  0.3494 -0.4054
 8677TIP3    H225996   5.374   6.393   2.012 -0.1106 -0.2851  0.1172
 8678TIP3   OH225997   3.797   5.893   0.076 -0.0334 -0.3334  0.0896
 8678TIP3    H125998   3.760   5.847   0.001 -3.5488  1.0055  0.7995
 8678TIP3    H225999   3.791   5.986   0.053  0.1723  0.0398  1.4545
 8679TIP3   OH226000   2.010   4.001   1.997  0.6817  0.4359  0.1682
 8679TIP3    H126001   1.991   3.910   2.018  0.1622  0.5027  0.0108
 8679TIP3    H226002   1.942   4.025   1.933 -0.6978  1.6357  1.9867
 8680TIP3   OH226003   1.632   4.463   0.683  0.1262  0.0673  0.5560
 8680TIP3    H126004   1.725   4.457   0.703  0.1618  1.2794  0.7864
 8680TIP3    H226005   1.628   4.513   0.602 -0.3677  0.7376  0.9894
 8681TIP3   OH226006   5.626   1.316   2.545 -0.9128 -0.4133  0.2196
 8681TIP3    H126007   5.644   1.235   2.593  1.7899 -0.6682 -1.0399
 8681TIP3    H226008   5.592   1.376   2.610  0.4142 -1.4739  1.9750
 8682TIP3   OH226009   1.734   0.897   0.921 -0.9769  0.2945  0.0125
 8682TIP3    H126010   1.658   0.851   0.885  0.1761 -1.3123 -0.4927
 8682TIP3    H226011   1.757   0.847   0.999  0.6823 -0.4380 -0.8890
 8683TIP3   OH226012   4.633   3.715   1.923 -0.0132  0.5197 -0.0903
 8683TIP3    H126013   4.701   3.660   1.961 -1.1517 -0.8049  0.1174
 8683TIP3    H226014   4.680   3.783   1.876  1.4514 -0.6538 -0.3758
 8684TIP3   OH226015   4.328   1.921   4.447 -0.6588  0.3220  0.1044
 8684TIP3    H126016   4.388   1.986   4.484  2.3978 -1.2257 -1.7234
 8684TIP3    H226017   4.366   1.837   4.471 -2.6296 -0.7817 -0.4270
 8685TIP3   OH226018   4.353   1.729   4.177 -0.0530 -0.0761  0.4682
 8685TIP3    H126019   4.447   1.745   4.187 -0.2318  0.9158  0.6274
 8685TIP3    H226020   4.325   1.702   4.265  0.2256 -1.2209  0.2260
 8686TIP3   OH226021   6.171   0.764   4.000  0.0136 -0.3620  0.2157
 8686TIP3    H126022   6.130   0.703   4.062  1.7146 -2.3102 -0.4491
 8686TIP3    H226023   6.155   0.726   3.914  0.2654  0.6769 -0.3063
 8687TIP3   OH226024   6.171   3.145   5.247 -0.4894  0.3216  0.2992
 8687TIP3    H126025   6.255   3.099   5.252 -0.6626  0.0212  0.4753
 8687TIP3    H226026   6.149   3.145   5.154  0.8027  2.4025 -0.0659
 8688TIP3   OH226027   2.075   2.570   4.932  0.0417 -0.2018 -0.5105
 8688TIP3    H126028   2.164   2.540   4.915 -0.4234 -1.4447 -0.8411
 8688TIP3    H226029   2.071   2.583   5.027  1.0252  1.4416 -0.6462
 8689TIP3   OH226030   6.444   0.596   4.156  0.1343  0.3675  0.3519
 8689TIP3    H126031   6.492   0.670   4.119  1.3537 -0.6106 -0.0921
 8689TIP3    H226032   6.458   0.525   4.094 -3.0434  0.3514 -0.5259
 8690TIP3   OH226033   1.477   1.756   0.589 -0.2597 -0.0113  0.1082
 8690TIP3    H126034   1.440   1.695   0.525 -1.7152  2.3858 -1.5084
 8690TIP3    H226035   1.561   1.781   0.552 -0.4582  0.2942 -0.1383
 8691TIP3   OH226036   4.536   3.829   1.095 -0.1158 -0.0620 -0.4369
 8691TIP3    H126037   4.596   3.891   1.136 -1.6264  0.4577  1.1039
 8691TIP3    H226038   4.591   3.755   1.069  1.1120  0.1158  1.4684
 8692TIP3   OH226039   6.154   3.111   0.101 -0.0589  0.0604  0.0404
 8692TIP3    H126040   6.087   3.048   0.127  0.4206  0.1477  1.5677
 8692TIP3    H226041   6.237   3.066   0.119  0.2866  0.8447  0.4281
 8693TIP3   OH226042   4.345   4.327   3.245 -0.4146  0.3288 -0.6388
 8693TIP3    H126043   4.276   4.362   3.189  0.3429  1.2100 -1.0528
 8693TIP3    H226044   4.389   4.262   3.190  0.2631  1.1193 -1.0539
 8694TIP3   OH226045   1.335   0.958   1.740  0.1296  0.3730  0.4061
 8694TIP3    H126046   1.395   0.898   1.784 -2.3492 -1.8976  0.9683
 8694TIP3    H226047   1.319   1.028   1.803  0.9297  0.1432  0.8709
 8695TIP3   OH226048   0.402   4.377   0.479 -0.4196 -0.1352 -0.5833
 8695TIP3    H126049   0.427   4.447   0.539  0.8632 -0.3926 -0.8081
 8695TIP3    H226050   0.307   4.370   0.489 -0.5719  1.6086 -0.5275
 8696TIP3   OH226051   3.010   4.387   4.148  0.0174 -0.6956 -0.1892
 8696TIP3    H126052   2.919   4.374   4.175 -0.4045  1.7244 -0.2475
 8696TIP3    H226053   3.045   4.298   4.137 -2.4809 -1.6836 -0.7030
 8697TIP3   OH226054   2.229   0.408   0.466 -0.4389 -0.0128 -0.0019
 8697TIP3    H126055   2.297   0.355   0.424  0.7364  2.0980 -0.9280
 8697TIP3    H226056   2.272   0.444   0.543 -1.1181 -0.1221  0.4336
 8698TIP3   OH226057   2.569   5.236   3.801 -0.3657  0.0406  0.2636
 8698TIP3    H126058   2.645   5.295   3.808 -0.2770  0.0720 -0.8450
 8698TIP3    H226059   2.494   5.295   3.795 -0.2218  0.0857 -1.5234
 8699TIP3   OH226060   2.885   3.119   3.653 -0.0081  0.0623  0.3497
 8699TIP3    H126061   2.940   3.049   3.688  1.3401  0.5685 -0.6283
 8699TIP3    H226062   2.945   3.169   3.596 -0.7048  2.4442  1.5919
 8700TIP3   OH226063   1.768   1.758   3.123 -0.0126  0.3523  0.1615
 8700TIP3    H126064   1.699   1.819   3.148 -0.2320  0.2976 -0.3003
 8700TIP3    H226065   1.747   1.677   3.169 -0.0471  0.4481  0.3134
 8701TIP3   OH226066   0.324   4.703   2.667 -0.0234  0.2144  0.2507
 8701TIP3    H126067   0.358   4.613   2.661 -1.6210 -0.3486 -1.0679
 8701TIP3    H226068   0.252   4.698   2.729 -2.5168 -0.3206 -2.4533
 8702TIP3   OH226069   3.575   4.503   1.163 -0.2445 -0.1120  0.2113
 8702TIP3    H126070   3.638   4.519   1.094  1.5456  0.9159  1.9827
 8702TIP3    H226071   3.606   4.555   1.237 -1.5622 -1.8342  2.0928
 8703TIP3   OH226072   6.473   0.239   1.970  0.1440 -0.2866 -0.0534
 8703TIP3    H126073   6.567   0.249   1.952  0.3776 -0.7680  0.8214
 8703TIP3    H226074   6.459   0.144   1.971 -0.6700 -0.2138 -1.6594
 8704TIP3   OH226075   1.599   2.054   0.536 -0.2055  0.0914  0.2653
 8704TIP3    H126076   1.621   1.961   0.528  1.8620  0.6751 -2.1210
 8704TIP3    H226077   1.612   2.074   0.629 -0.6556 -1.9670  0.8197
 8705TIP3   OH226078   5.158   6.790   5.437  0.2297  0.6410  0.3428
 8705TIP3    H126079   5.142   6.697   5.457  0.1583  0.3090 -1.1913
 8705TIP3    H226080   5.184   6.827   5.521  0.4251 -0.8039  0.9638
 8706TIP3   OH226081   6.809   2.374   3.766  0.1095 -0.2746 -0.2948
 8706TIP3    H126082   6.836   2.365   3.675  0.0887  2.4447 -0.6452
 8706TIP3    H226083   6.836   2.462   3.791  0.1938 -0.9696  2.3842
 8707TIP3   OH226084   0.582   5.080   2.533  0.0066 -0.3439  0.0565
 8707TIP3    H126085   0.590   5.049   2.624  1.8161  1.5780  0.6209
 8707TIP3    H226086   0.489   5.101   2.523 -0.1346 -0.0798  1.6577
 8708TIP3   OH226087   4.838   6.347   2.937  0.3064 -0.4627  0.0320
 8708TIP3    H126088   4.794   6.410   2.993  2.0858 -0.2101  1.2304
 8708TIP3    H226089   4.930   6.375   2.936  0.6744 -1.5746 -1.4689
 8709TIP3   OH226090   0.515   4.235   2.016  0.5724 -0.1437 -0.7888
 8709TIP3    H126091   0.437   4.253   2.069  1.3334  1.4948 -0.1644
 8709TIP3    H226092   0.481   4.222   1.928 -0.5010 -0.5855 -0.3317
 8710TIP3   OH226093   4.122   0.143   4.727  0.2415  0.2291 -0.6184
 8710TIP3    H126094   4.147   0.113   4.815  2.2685  1.4319 -0.7279
 8710TIP3    H226095   4.043   0.195   4.741  1.4000  1.7209  0.7842
 8711TIP3   OH226096   5.594   6.048   3.957  0.2990  0.1113 -0.1669
 8711TIP3    H126097   5.524   6.102   3.920  0.1425  0.8336  1.1193
 8711TIP3    H226098   5.628   5.998   3.883 -1.6709 -0.3771 -0.7970
 8712TIP3   OH226099   5.712   5.772   4.272 -0.1941 -0.2356  0.0586
 8712TIP3    H126100   5.717   5.782   4.177 -0.7674 -0.4985  0.0026
 8712TIP3    H226101   5.734   5.859   4.306 -0.2913 -0.0617 -0.3189
 8713TIP3   OH226102   5.108   2.355   2.610 -0.7623 -0.3196 -0.1303
 8713TIP3    H126103   5.026   2.403   2.598  0.4168  1.2878 -2.4228
 8713TIP3    H226104   5.163   2.413   2.664 -0.3500 -0.3948 -0.4644
 8714TIP3   OH226105   5.625   3.505   2.645  0.1056 -0.5590 -0.4454
 8714TIP3    H126106   5.705   3.487   2.596  0.0646 -1.4001 -0.2170
 8714TIP3    H226107   5.568   3.430   2.626  0.0880 -0.9091  0.8926
 8715TIP3   OH226108   2.236   3.398   3.030 -0.0641  0.4140  0.0219
 8715TIP3    H126109   2.154   3.353   3.050  1.1085 -2.1505 -0.4438
 8715TIP3    H226110   2.285   3.335   2.977  2.0715  1.9854  0.0047
 8716TIP3   OH226111   3.156   2.848   0.113  0.6319 -0.4268 -0.3065
 8716TIP3    H126112   3.241   2.820   0.147  0.0566  0.0301  1.6320
 8716TIP3    H226113   3.174   2.932   0.069  1.3584 -0.9215 -0.9822
 8717TIP3   OH226114   2.885   6.557   4.176 -0.1120  0.1899 -0.1467
 8717TIP3    H126115   2.850   6.646   4.181  1.4585  0.7658  2.7938
 8717TIP3    H226116   2.841   6.510   4.247 -0.3682 -1.2159 -1.1886
 8718TIP3   OH226117   1.328   5.972   0.430 -0.2431  0.1377 -0.1525
 8718TIP3    H126118   1.312   6.066   0.419  0.6317  0.1304 -1.9407
 8718TIP3    H226119   1.413   5.968   0.474  0.1934  0.2134 -0.9623
 8719TIP3   OH226120   5.558   1.962   4.430  0.0628 -0.1971 -0.1277
 8719TIP3    H126121   5.626   1.922   4.375  0.0111 -3.1989  1.8046
 8719TIP3    H226122   5.597   2.045   4.458  1.9145 -0.6725 -1.0577
 8720TIP3   OH226123   6.554   3.264   1.526  0.0065  0.1928 -0.3202
 8720TIP3    H126124   6.566   3.208   1.450 -0.2253  0.3198 -0.4533
 8720TIP3    H226125   6.536   3.204   1.598 -2.1162  0.1443 -0.8144
 8721TIP3   OH226126   2.996   3.254   1.864  0.1263  0.4643 -0.1282
 8721TIP3    H126127   3.091   3.243   1.865  0.1886  0.7358  2.2465
 8721TIP3    H226128   2.981   3.338   1.908 -1.1863  1.1050 -1.6716
 8722TIP3   OH226129   0.160   0.744   2.565  0.1293 -0.2558 -0.0006
 8722TIP3    H126130   0.097   0.787   2.508 -0.6763  4.1279  3.6043
 8722TIP3    H226131   0.105   0.698   2.630  0.8655 -1.3298 -0.1152
 8723TIP3   OH226132   4.043   1.525   4.371 -0.5835  0.7997 -0.1915
 8723TIP3    H126133   4.117   1.465   4.360 -1.9806 -0.6864 -2.2334
 8723TIP3    H226134   3.983   1.479   4.429 -0.6615  1.2390  0.0774
 8724TIP3   OH226135   1.680   5.503   2.501 -0.2143  0.5378  0.4372
 8724TIP3    H126136   1.631   5.530   2.579  0.2444  0.4616  0.7553
 8724TIP3    H226137   1.615   5.502   2.431 -0.3520  1.9760  0.5217
 8725TIP3   OH226138   5.438   3.049   1.235 -0.0313 -0.3761 -0.0159
 8725TIP3    H126139   5.480   3.102   1.303  0.8839 -0.5089 -0.4648
 8725TIP3    H226140   5.488   2.967   1.234  1.5857  0.5331 -2.4876
 8726TIP3   OH226141   5.387   1.625   0.748 -0.4448 -0.0507 -0.3070
 8726TIP3    H126142   5.347   1.652   0.665 -1.8784 -1.6938 -0.2167
 8726TIP3    H226143   5.393   1.530   0.741 -0.5936 -0.2162  1.4828
 8727TIP3   OH226144   3.906   4.089   2.600  0.1152 -0.1098 -0.1754
 8727TIP3    H126145   3.881   4.030   2.671 -0.4990 -1.1291 -1.2166
 8727TIP3    H226146   3.823   4.123   2.566  0.3738 -0.1124 -0.8139
 8728TIP3   OH226147   2.759   1.167   2.512 -0.3950 -0.6346 -0.1231
 8728TIP3    H126148   2.852   1.166   2.489 -0.4939  0.0570 -0.5554
 8728TIP3    H226149   2.731   1.257   2.499 -0.7316 -0.4419  1.6437
 8729TIP3   OH226150   2.278   1.746   4.298  0.6208 -0.5530 -0.3031
 8729TIP3    H126151   2.280   1.660   4.340  1.4865 -0.0189  0.8059
 8729TIP3    H226152   2.191   1.780   4.317  0.4742 -0.9407 -0.2640
 8730TIP3   OH226153   3.694   0.532   3.759 -0.0599  0.2210 -0.7799
 8730TIP3    H126154   3.773   0.568   3.800 -0.1354  0.5199 -0.8986
 8730TIP3    H226155   3.625   0.592   3.784 -0.6377 -1.0594  0.9528
 8731TIP3   OH226156   1.299   3.554   3.690  0.2909 -0.1131  0.1865
 8731TIP3    H126157   1.288   3.476   3.636 -2.6889 -0.7377  1.4831
 8731TIP3    H226158   1.281   3.525   3.779  0.6697  1.7450  0.9240
 8732TIP3   OH226159   5.550   6.508   5.237 -0.2679  0.6985  0.4507
 8732TIP3    H126160   5.600   6.549   5.308  0.6582  1.0688 -0.3729
 8732TIP3    H226161   5.573   6.561   5.160  2.8216 -2.5926 -1.1954
 8733TIP3   OH226162   1.907   2.035   3.080  0.6893 -0.3319  0.5768
 8733TIP3    H126163   1.955   1.954   3.098 -0.4681 -0.7896  1.8077
 8733TIP3    H226164   1.881   2.066   3.167 -0.7198  0.2024 -0.0061
 8734TIP3   OH226165   0.518   3.024   0.685  0.8028 -0.0893 -0.5839
 8734TIP3    H126166   0.497   3.093   0.747 -0.7950  2.6374 -3.8254
 8734TIP3    H226167   0.601   3.050   0.646  1.6604 -1.6143  0.1419
 8735TIP3   OH226168   3.020   2.966   3.935 -0.0477 -0.5257  0.5671
 8735TIP3    H126169   3.100   2.960   3.988 -0.5899 -2.0741  1.2815
 8735TIP3    H226170   3.050   2.948   3.846  0.3918 -1.3458  0.8640
 8736TIP3   OH226171   6.326   0.377   5.397 -0.2924  0.6399 -0.5104
 8736TIP3    H126172   6.255   0.324   5.433 -0.1337  1.1046  0.5406
 8736TIP3    H226173   6.295   0.404   5.311 -1.8123  1.5979  0.2846
 8737TIP3   OH226174   4.779   6.308   5.009 -0.2993 -0.2828  0.5544
 8737TIP3    H126175   4.710   6.370   5.032 -1.6788 -1.8999  0.9640
 8737TIP3    H226176   4.734   6.225   4.998  1.4141 -1.1320 -0.5226
 8738TIP3   OH226177   0.939   1.493   5.522  0.2054  0.1551 -0.5128
 8738TIP3    H126178   0.913   1.427   5.457  1.5505 -1.3960  0.4391
 8738TIP3    H226179   0.856   1.527   5.555 -0.5195 -0.4447 -1.6392
 8739TIP3   OH226180   1.381   4.061   0.931  0.1581 -0.0133  0.2647
 8739TIP3    H126181   1.469   4.023   0.925  0.3792  0.7083 -1.4968
 8739TIP3    H226182   1.397   4.154   0.945 -0.2498  0.4277 -1.8860
 8740TIP3   OH226183   3.137   3.164   5.606 -0.0862 -0.0784 -0.0162
 8740TIP3    H126184   3.118   3.072   5.584 -1.6728  0.4626 -1.0889
 8740TIP3    H226185   3.082   3.182   5.682  0.0787  0.0282  0.0757
 8741TIP3   OH226186   4.611   5.572   3.997 -0.1951  0.0716 -0.2513
 8741TIP3    H126187   4.547   5.500   3.994 -0.2312 -0.1866  2.9842
 8741TIP3    H226188   4.689   5.532   4.035  0.0965  1.5110  0.7364
 8742TIP3   OH226189   0.582   6.717   4.778 -0.3529 -0.2551 -0.0710
 8742TIP3    H126190   0.487   6.705   4.781 -0.4536  0.7079  2.2107
 8742TIP3    H226191   0.594   6.802   4.736 -0.5199 -0.2395 -0.0877
 8743TIP3   OH226192   2.524   2.818   5.420  0.4656  0.0388 -0.0575
 8743TIP3    H126193   2.558   2.858   5.500  0.3039 -2.6377  1.4342
 8743TIP3    H226194   2.600   2.775   5.381 -0.0800 -1.4042  0.4219
 8744TIP3   OH226195   5.957   0.784   5.394  0.0508  0.5802 -0.1836
 8744TIP3    H126196   5.989   0.704   5.353  0.2651  0.8171 -0.4799
 8744TIP3    H226197   6.016   0.798   5.469 -0.6281 -0.1092  0.4963
 8745TIP3   OH226198   4.540   1.554   3.037 -0.0322  0.0133 -0.1222
 8745TIP3    H126199   4.469   1.609   3.070 -0.4756 -0.8440  0.3703
 8745TIP3    H226200   4.542   1.479   3.096  2.1506  0.6223  0.6976
 8746TIP3   OH226201   4.622   2.742   4.176 -0.4698 -0.3640 -0.1038
 8746TIP3    H126202   4.646   2.659   4.136  0.0299 -0.5166  0.4908
 8746TIP3    H226203   4.529   2.753   4.156 -0.4727 -0.9334 -0.4108
 8747TIP3   OH226204   5.344   0.192   3.459  0.1067  0.5399  0.6524
 8747TIP3    H126205   5.324   0.226   3.546 -1.6593  0.9301  0.1337
 8747TIP3    H226206   5.425   0.236   3.434 -1.0855  3.0106  0.7974
 8748TIP3   OH226207   3.817   3.231  -0.027  0.2374 -0.0542 -0.5511
 8748TIP3    H126208   3.810   3.143   0.011 -0.6555  1.6839  3.8716
 8748TIP3    H226209   3.886   3.274   0.023 -1.3350  2.6400 -0.5058
 8749TIP3   OH226210   6.730   6.422   0.536  0.1824  0.2944  0.0195
 8749TIP3    H126211   6.671   6.481   0.490  1.2732  1.8308  0.5279
 8749TIP3    H226212   6.673   6.368   0.591 -0.7559  1.6227  0.3857
 8750TIP3   OH226213   5.088   1.206   1.036  0.2024 -0.0006  0.2019
 8750TIP3    H126214   5.141   1.235   1.110  0.2585 -0.1444  0.2183
 8750TIP3    H226215   5.073   1.113   1.052 -0.6569  0.1931  0.5663
 8751TIP3   OH226216   6.433   3.383   3.655  0.0761 -0.2920 -0.4990
 8751TIP3    H126217   6.397   3.460   3.700  2.6444  0.1606  0.9689
 8751TIP3    H226218   6.522   3.408   3.632  0.7200 -2.5521 -0.7088
 8752TIP3   OH226219   1.074   5.642   3.226  0.5271  0.5213 -0.4536
 8752TIP3    H126220   1.037   5.633   3.138 -0.6751  0.6752  0.0211
 8752TIP3    H226221   1.091   5.736   3.235  0.3301  0.5529 -0.4016
 8753TIP3   OH226222   4.829   6.462   0.877 -0.4302 -0.2481 -0.1603
 8753TIP3    H126223   4.868   6.526   0.936  2.6802 -0.0027 -2.2558
 8753TIP3    H226224   4.855   6.377   0.914 -1.3165 -0.2353  0.5395
 8754TIP3   OH226225   2.868   1.649   2.417  0.1280  0.0355  0.9577
 8754TIP3    H126226   2.950   1.600   2.426 -0.2491 -0.8537 -0.1747
 8754TIP3    H226227   2.806   1.602   2.472  0.1098  0.0875  0.9821
 8755TIP3   OH226228   4.475   3.157   4.598  0.4482  0.5072 -0.0221
 8755TIP3    H126229   4.424   3.198   4.669  2.3945  1.2109  1.0332
 8755TIP3    H226230   4.420   3.084   4.569 -1.9590  2.2593 -0.1890
 8756TIP3   OH226231   2.128   6.005   0.973  0.2235  0.0306  0.1581
 8756TIP3    H126232   2.169   5.955   0.902 -2.0072 -1.2429 -0.3426
 8756TIP3    H226233   2.201   6.043   1.021  1.8541  0.5020 -2.4918
 8757TIP3   OH226234   5.388   4.451   1.147 -0.1772  0.2301 -0.0001
 8757TIP3    H126235   5.421   4.365   1.124  1.0642  1.0021 -1.2174
 8757TIP3    H226236   5.376   4.447   1.242 -2.6583 -2.0967 -0.2787
 8758TIP3   OH226237   0.874   5.381   1.988 -0.2244 -0.3942  0.1928
 8758TIP3    H126238   0.802   5.392   1.927 -0.9655  0.5839  1.1943
 8758TIP3    H226239   0.951   5.416   1.943 -0.3408 -1.4783 -0.8935
 8759TIP3   OH226240   5.398   2.700   0.572  0.3525  0.6753 -0.0358
 8759TIP3    H126241   5.427   2.689   0.663  0.0010 -1.1371 -0.1101
 8759TIP3    H226242   5.355   2.617   0.550 -0.8815  1.6296 -1.3884
 8760TIP3   OH226243   4.963   0.430   0.901 -0.2182  0.3879 -0.5132
 8760TIP3    H126244   4.990   0.393   0.985  2.5575 -0.7261 -1.7969
 8760TIP3    H226245   5.007   0.515   0.896  0.5296 -0.0367 -1.2907
 8761TIP3   OH226246   1.010   5.193   5.003  0.1334 -0.7233 -0.0138
 8761TIP3    H126247   1.003   5.124   4.937  1.8136 -0.1812 -0.7961
 8761TIP3    H226248   1.040   5.148   5.082 -1.2401 -1.2624  0.2343
 8762TIP3   OH226249   6.306   4.713   3.327  0.0960  0.2112 -0.4865
 8762TIP3    H126250   6.317   4.747   3.416  0.4820 -0.0308 -0.4409
 8762TIP3    H226251   6.310   4.618   3.337  0.9615  0.2042 -0.8720
 8763TIP3   OH226252   1.951   1.335   3.944  0.1072  0.1310 -0.4103
 8763TIP3    H126253   1.933   1.399   3.875 -1.0792 -0.2370 -0.4767
 8763TIP3    H226254   1.882   1.270   3.933 -1.6318  1.2700  2.5898
 8764TIP3   OH226255   2.833   0.076   2.932 -0.6479  0.0041  0.2957
 8764TIP3    H126256   2.839  -0.018   2.916 -1.7502 -0.1813  0.8655
 8764TIP3    H226257   2.845   0.085   3.026 -0.5209  0.4403  0.2403
 8765TIP3   OH226258   4.617   1.932   0.317  0.1723  0.6534 -0.7239
 8765TIP3    H126259   4.575   1.847   0.324  0.0827  0.7219 -0.4199
 8765TIP3    H226260   4.549   1.995   0.342  0.3823  0.7807 -0.4707
 8766TIP3   OH226261   6.387   0.705   5.814  0.7926 -0.2225  0.7886
 8766TIP3    H126262   6.346   0.632   5.768 -1.0262  1.0159  0.3312
 8766TIP3    H226263   6.336   0.714   5.895  1.7712 -0.1894  1.4287
 8767TIP3   OH226264   1.732   0.221   4.239  0.5005  0.2516  0.2691
 8767TIP3    H126265   1.759   0.130   4.241  1.0938  0.3615 -1.5721
 8767TIP3    H226266   1.695   0.234   4.152 -1.9534  1.1360  1.3445
 8768TIP3   OH226267   1.261   6.203   2.100 -0.5176  0.1423  0.2068
 8768TIP3    H126268   1.264   6.185   2.006 -0.3803  0.3662  0.1666
 8768TIP3    H226269   1.170   6.228   2.118 -0.3867  0.7950 -0.0009
 8769TIP3   OH226270   3.184   0.524   5.020 -0.0328 -1.1401  0.1714
 8769TIP3    H126271   3.114   0.574   4.978  2.2438  1.7917 -0.4868
 8769TIP3    H226272   3.219   0.468   4.951  0.7049  0.2525 -0.6210
 8770TIP3   OH226273   6.313   4.411   0.515  0.1579 -0.1246  0.0733
 8770TIP3    H126274   6.259   4.479   0.556 -0.1854 -0.4187  0.1138
 8770TIP3    H226275   6.381   4.460   0.468 -0.4386  0.2724 -0.3959
 8771TIP3   OH226276   2.155   4.111   3.706  0.0650  0.5441  0.0708
 8771TIP3    H126277   2.199   4.057   3.641 -0.4526  0.9285 -0.6125
 8771TIP3    H226278   2.095   4.051   3.751  0.3276  0.3066  0.1045
 8772TIP3   OH226279   1.362   1.306   5.536  0.5820 -0.1734 -0.5272
 8772TIP3    H126280   1.305   1.336   5.608 -0.5089 -1.5597 -0.7563
 8772TIP3    H226281   1.442   1.357   5.545 -0.6365  1.7378 -0.0712
 8773TIP3   OH226282   1.254   2.695   4.398  0.1050  0.1328 -0.3401
 8773TIP3    H126283   1.258   2.779   4.444  2.0804  0.0998 -0.3897
 8773TIP3    H226284   1.185   2.646   4.444  0.5686  0.8973  1.2418
 8774TIP3   OH226285   0.421   3.453   4.955 -0.3804  0.1496  0.2721
 8774TIP3    H126286   0.492   3.395   4.927  0.7394  0.5440  2.1153
 8774TIP3    H226287   0.452   3.541   4.935 -1.0093  0.2596 -0.2568
 8775TIP3   OH226288   0.676   1.472   2.402  0.3180 -0.1668  0.6137
 8775TIP3    H126289   0.711   1.433   2.482 -0.1696 -2.7951 -0.3673
 8775TIP3    H226290   0.753   1.496   2.350  0.6401 -1.1140  0.6518
 8776TIP3   OH226291   1.890   4.477   3.121 -0.3735  0.2038  0.1815
 8776TIP3    H126292   1.818   4.413   3.127  0.5112 -0.8560 -0.2695
 8776TIP3    H226293   1.941   4.462   3.200  0.0360  0.1022 -0.1008
 8777TIP3   OH226294   4.643   3.662   0.272  0.1300 -0.3648 -0.1660
 8777TIP3    H126295   4.614   3.672   0.182  0.7298  1.9963 -0.1791
 8777TIP3    H226296   4.728   3.618   0.265  0.6328  0.6616 -0.8846
 8778TIP3   OH226297   4.222   4.108   1.099 -0.3736 -1.1587 -0.6493
 8778TIP3    H126298   4.160   4.148   1.161  0.0185  2.5892 -2.3567
 8778TIP3    H226299   4.308   4.123   1.139 -0.1525  0.8565 -1.7541
 8779TIP3   OH226300   0.209   4.197   5.791  0.2134 -0.3697  0.1117
 8779TIP3    H126301   0.177   4.253   5.721 -1.3809 -0.6140  0.5819
 8779TIP3    H226302   0.216   4.255   5.867  1.9383 -0.1038 -0.2268
 8780TIP3   OH226303   3.022   1.875   5.105  0.2727  0.3069 -0.6193
 8780TIP3    H126304   3.051   1.948   5.160  2.4657  0.3627 -1.7358
 8780TIP3    H226305   2.938   1.904   5.069 -0.0467  1.2487  0.8130
 8781TIP3   OH226306   0.962   4.944   4.895 -1.0349  0.3478 -0.3047
 8781TIP3    H126307   0.894   4.955   4.828  0.2957 -1.7715 -2.1515
 8781TIP3    H226308   0.921   4.889   4.962 -1.2662 -0.7924 -1.3343
 8782TIP3   OH226309   4.540   6.183   1.752  0.0839  0.3130  0.2399
 8782TIP3    H126310   4.465   6.136   1.787  2.2032 -1.6506  2.5310
 8782TIP3    H226311   4.589   6.117   1.703  1.8026  0.6955  1.3484
 8783TIP3   OH226312   4.925   1.500   3.948 -0.0968  0.1973 -0.0690
 8783TIP3    H126313   4.967   1.452   3.877  0.8473  1.3898 -0.3617
 8783TIP3    H226314   4.833   1.506   3.922 -0.1319 -0.9731 -0.2648
 8784TIP3   OH226315   0.160   0.272   5.787  0.1138  0.3568 -0.1378
 8784TIP3    H126316   0.115   0.325   5.722 -0.0083  1.1820  0.5965
 8784TIP3    H226317   0.100   0.270   5.862 -0.4440 -1.8639 -0.5846
 8785TIP3   OH226318   5.736   0.554   3.633 -0.0496 -0.4270  0.0401
 8785TIP3    H126319   5.666   0.503   3.593  0.3226 -0.5822 -0.4330
 8785TIP3    H226320   5.805   0.556   3.566  0.5041 -0.5030  0.5989
 8786TIP3   OH226321   0.341   5.251   4.623  0.7610  0.1442 -0.9157
 8786TIP3    H126322   0.316   5.315   4.690  1.1974 -0.4173 -0.2030
 8786TIP3    H226323   0.258   5.211   4.597  0.6215  0.1040 -0.4283
 8787TIP3   OH226324   4.004   1.808   3.210 -0.2049 -0.1076  0.1526
 8787TIP3    H126325   3.928   1.844   3.165 -1.5150 -0.8600  1.6888
 8787TIP3    H226326   4.022   1.726   3.164  0.0214  0.3111 -0.5308
 8788TIP3   OH226327   2.092   6.261   3.940  0.0022  0.0006 -0.3790
 8788TIP3    H126328   2.155   6.270   3.868  0.3560  0.4676 -0.0211
 8788TIP3    H226329   2.080   6.351   3.972 -0.0421 -0.2197  0.2314
 8789TIP3   OH226330   2.772   1.407   0.407 -0.2383 -0.3059  0.2147
 8789TIP3    H126331   2.749   1.330   0.355 -1.1793  1.3020 -1.8851
 8789TIP3    H226332   2.847   1.445   0.361  1.5803 -1.0437  2.4166
 8790TIP3   OH226333   1.810   6.638   4.086 -0.1245  0.1962  0.0776
 8790TIP3    H126334   1.773   6.715   4.043 -1.0063 -0.3328 -0.1441
 8790TIP3    H226335   1.847   6.671   4.168  0.7128  1.0651 -0.6317
 8791TIP3   OH226336   3.748   1.697   0.948  0.0058  0.4039  0.1216
 8791TIP3    H126337   3.661   1.659   0.959 -0.0672  0.5732  0.1297
 8791TIP3    H226338   3.735   1.791   0.960 -0.0881  0.6074 -1.4347
 8792TIP3   OH226339   3.757   0.867   3.387  0.3924 -0.3580  0.4290
 8792TIP3    H126340   3.727   0.823   3.307 -0.7085  0.1382  0.5452
 8792TIP3    H226341   3.739   0.960   3.372  2.3326  0.0345  0.3465
 8793TIP3   OH226342   3.159   3.527   5.297 -0.5543  0.3138 -0.2172
 8793TIP3    H126343   3.157   3.619   5.271  0.1105  0.1008 -1.0682
 8793TIP3    H226344   3.085   3.487   5.251 -1.0255  0.4703  0.3879
 8794TIP3   OH226345   1.147   1.370   2.781 -0.2544 -0.4785  0.5232
 8794TIP3    H126346   1.207   1.438   2.750 -3.1735  1.8270 -0.6563
 8794TIP3    H226347   1.142   1.384   2.875 -0.4172  0.6705  0.3652
 8795TIP3   OH226348   5.434   3.510   1.107  0.0199 -0.0934  0.1956
 8795TIP3    H126349   5.341   3.493   1.119  0.0871  0.0059  0.8968
 8795TIP3    H226350   5.441   3.538   1.016 -0.8669  1.3767  0.5449
 8796TIP3   OH226351   5.509   6.658   0.475 -0.3565  0.1374  0.6527
 8796TIP3    H126352   5.455   6.676   0.551  0.5267 -0.8864  1.5549
 8796TIP3    H226353   5.598   6.659   0.508  0.0721  0.1308 -0.4665
 8797TIP3   OH226354   3.903   3.719   4.911 -0.1100  0.4043 -0.1094
 8797TIP3    H126355   3.970   3.659   4.944 -0.7585 -1.3706 -1.7892
 8797TIP3    H226356   3.850   3.741   4.987  0.6286 -0.5263  0.6994
 8798TIP3   OH226357   4.378   0.542   4.468  0.4608  0.5642  0.2486
 8798TIP3    H126358   4.459   0.588   4.490 -0.3041  0.5385  3.5192
 8798TIP3    H226359   4.320   0.558   4.542 -1.4891 -1.9103 -0.6117
 8799TIP3   OH226360   5.951   3.432   5.415 -0.2833  0.1136  0.1834
 8799TIP3    H126361   5.973   3.502   5.477  1.5686  0.3451 -0.6611
 8799TIP3    H226362   5.895   3.475   5.350 -0.5489  0.3775  0.5792
 8800TIP3   OH226363   2.330   4.682   2.390  0.0592 -0.1048  0.1353
 8800TIP3    H126364   2.284   4.641   2.317 -1.1468  1.1686  0.1457
 8800TIP3    H226365   2.406   4.626   2.404  0.8090  0.0473 -2.6372
 8801TIP3   OH226366   6.026   1.995   5.225 -0.4714 -0.4096 -0.6991
 8801TIP3    H126367   6.073   2.012   5.307 -1.8107 -0.4199  0.1013
 8801TIP3    H226368   5.978   2.076   5.207  0.3775 -0.1426 -1.8934
 8802TIP3   OH226369   0.981   6.322   0.712  0.7325 -0.6198  0.4138
 8802TIP3    H126370   1.025   6.237   0.714  1.5374 -0.2433 -0.6157
 8802TIP3    H226371   1.017   6.369   0.788  1.0809 -0.8108  0.3695
 8803TIP3   OH226372   2.566   4.031   1.036  0.1178 -0.1428  0.2847
 8803TIP3    H126373   2.519   4.098   0.987  1.2423  2.4308  2.4713
 8803TIP3    H226374   2.522   4.027   1.121  2.2746  0.5560  1.4973
 8804TIP3   OH226375   5.862   1.502   4.949  0.2692 -0.0905  0.0752
 8804TIP3    H126376   5.865   1.565   5.021 -0.1217 -0.2552  0.2411
 8804TIP3    H226377   5.775   1.514   4.911  0.7251  0.4765 -0.8110
 8805TIP3   OH226378   4.737   2.036   5.171  0.5318 -0.3659  0.1694
 8805TIP3    H126379   4.734   1.945   5.142  0.8684 -1.4006  3.0324
 8805TIP3    H226380   4.800   2.079   5.114 -0.6174 -1.5424 -2.0966
 8806TIP3   OH226381   6.304   6.320   4.460 -0.2009  0.1030 -0.0389
 8806TIP3    H126382   6.339   6.233   4.440 -1.2492 -0.5572  0.8706
 8806TIP3    H226383   6.285   6.359   4.375  1.6274  0.0381 -0.5171
 8807TIP3   OH226384   5.158   0.171   0.290  0.2805 -0.3466  0.3485
 8807TIP3    H126385   5.181   0.079   0.294  0.7979 -0.2813 -0.7095
 8807TIP3    H226386   5.235   0.217   0.322  0.9672 -0.2098 -1.3751
 8808TIP3   OH226387   2.148   0.253   3.228  0.1781  0.0199  0.3721
 8808TIP3    H126388   2.124   0.296   3.146 -0.0688 -0.5231  0.1588
 8808TIP3    H226389   2.091   0.294   3.294 -1.4756 -1.3444 -0.1480
 8809TIP3   OH226390   1.430   5.367   4.553 -0.1630 -0.5606 -0.0539
 8809TIP3    H126391   1.342   5.370   4.516 -0.6549 -0.2695  1.1000
 8809TIP3    H226392   1.421   5.316   4.633  0.5947 -0.0496  0.3723
 8810TIP3   OH226393   3.690   1.691   5.100 -0.1848 -0.1349 -0.0784
 8810TIP3    H126394   3.648   1.777   5.101  0.0885  0.0079  1.7084
 8810TIP3    H226395   3.679   1.658   5.189  0.0770 -1.7884 -0.6222
 8811TIP3   OH226396   2.499   2.949   3.066  0.0415  0.2461  0.4493
 8811TIP3    H126397   2.589   2.927   3.040 -0.1853 -1.0026  0.6550
 8811TIP3    H226398   2.508   2.991   3.151  0.2877 -2.6189  1.9861
 8812TIP3   OH226399   3.787   5.028   0.612  0.0697 -0.0960 -0.3571
 8812TIP3    H126400   3.820   5.005   0.526 -1.6308 -1.1090 -0.7890
 8812TIP3    H226401   3.787   5.124   0.614  2.2579 -0.0567 -0.5790
 8813TIP3   OH226402   6.598   0.036   3.508 -0.0573 -0.3967  0.0676
 8813TIP3    H126403   6.559   0.119   3.481  0.1447  0.1716  1.4486
 8813TIP3    H226404   6.650   0.008   3.433 -1.0821  0.1084 -0.8603
 8814TIP3   OH226405   0.953   5.272   0.587 -0.3464 -0.0036 -0.3273
 8814TIP3    H126406   1.012   5.252   0.514  0.7224  0.8455  0.2795
 8814TIP3    H226407   0.935   5.186   0.626  0.3216 -0.3083 -0.6596
 8815TIP3   OH226408   0.393   3.828   4.124  0.0201 -0.5721  0.5381
 8815TIP3    H126409   0.482   3.860   4.136 -0.1350  1.1288 -2.0823
 8815TIP3    H226410   0.337   3.903   4.142 -1.0109 -1.7365  2.6039
 8816TIP3   OH226411   0.649   0.243   3.079  0.1111 -0.0839 -0.2595
 8816TIP3    H126412   0.719   0.185   3.046  1.5240  0.9568  0.7953
 8816TIP3    H226413   0.655   0.321   3.024  0.8086  0.6292  0.8090
 8817TIP3   OH226414   0.289   4.234   1.309 -0.0291  0.1480  0.0352
 8817TIP3    H126415   0.296   4.190   1.224  0.0670  1.8604 -0.8755
 8817TIP3    H226416   0.366   4.290   1.313  0.3320 -0.4263  1.5913
 8818TIP3   OH226417   4.852   1.744   5.801  0.1607 -0.0923  0.1507
 8818TIP3    H126418   4.826   1.822   5.752 -0.2530 -1.0871 -1.2694
 8818TIP3    H226419   4.863   1.775   5.891  1.8537  2.0098 -0.6742
 8819TIP3   OH226420   2.555   4.090   5.607  0.1011  0.1481 -0.3332
 8819TIP3    H126421   2.486   4.151   5.580 -0.2671  0.3575  0.9981
 8819TIP3    H226422   2.617   4.090   5.534  0.3855  2.5457 -0.1758
 8820TIP3   OH226423   1.799   2.423   2.951 -0.0432  0.0193  0.0327
 8820TIP3    H126424   1.770   2.419   3.042 -1.0947  0.0188 -0.2883
 8820TIP3    H226425   1.797   2.516   2.929 -0.2723 -0.0211 -0.1288
 8821TIP3   OH226426   0.593   3.256   1.603  0.5228  0.2100  0.3841
 8821TIP3    H126427   0.603   3.163   1.626 -0.0497 -0.7500 -2.7396
 8821TIP3    H226428   0.642   3.303   1.670 -0.2009 -2.2182  2.8262
 8822TIP3   OH226429   3.911   4.812   1.652 -0.2681  0.0573  0.6301
 8822TIP3    H126430   3.930   4.740   1.712 -0.2761 -0.2212  0.2982
 8822TIP3    H226431   3.991   4.864   1.650 -0.5377  0.5433  1.5304
 8823TIP3   OH226432   3.285   2.934   0.643  0.4214 -0.3722  0.5732
 8823TIP3    H126433   3.238   2.850   0.645  0.1117 -0.2316 -0.1585
 8823TIP3    H226434   3.216   3.000   0.657  0.6460 -0.2322  1.0344
 8824TIP3   OH226435   2.356   1.753   0.977 -0.3900  0.8914  0.4740
 8824TIP3    H126436   2.358   1.741   1.072  0.0168  1.2138  0.5100
 8824TIP3    H226437   2.408   1.832   0.962  0.0647  0.4999 -0.0683
 8825TIP3   OH226438   7.136   0.767   1.458 -0.3151  0.0778  0.4498
 8825TIP3    H126439   7.110   0.687   1.505 -0.3054 -0.3959 -0.3369
 8825TIP3    H226440   7.226   0.783   1.486 -0.0645 -0.6090  0.0531
 8826TIP3   OH226441   4.712   5.367   5.192  0.1388  0.1784  0.5419
 8826TIP3    H126442   4.770   5.416   5.251  0.0897  0.5536  0.2811
 8826TIP3    H226443   4.638   5.341   5.248  0.1075  0.5078  0.6566
 8827TIP3   OH226444   4.418   2.717   5.280 -0.3698  0.2292  0.6856
 8827TIP3    H126445   4.420   2.779   5.206 -1.6292 -1.1294 -0.5613
 8827TIP3    H226446   4.441   2.770   5.356  0.5369  1.7940 -0.5958
 8828TIP3   OH226447   4.286   3.244   0.264  0.4766  0.3596  0.0085
 8828TIP3    H126448   4.358   3.187   0.288 -0.4246 -1.4668 -1.4014
 8828TIP3    H226449   4.224   3.237   0.336  0.6798  0.1061  0.1584
 8829TIP3   OH226450   0.323   2.955   1.741  0.2790  0.6236  0.5350
 8829TIP3    H126451   0.265   2.902   1.687 -1.1496 -1.4110  3.7463
 8829TIP3    H226452   0.294   3.045   1.727 -2.1834 -0.1446  0.2812
 8830TIP3   OH226453   0.028   1.027   4.638  0.2840 -0.3667  0.6158
 8830TIP3    H126454   0.061   1.038   4.728 -1.0797  1.6701  0.9111
 8830TIP3    H226455   0.082   1.086   4.586  0.8859 -1.3450  0.0844
 8831TIP3   OH226456   5.543   0.306   5.870 -0.2048  0.1387  0.5845
 8831TIP3    H126457   5.565   0.399   5.872 -0.0751  0.3569 -3.1472
 8831TIP3    H226458   5.628   0.262   5.870 -0.2555  0.0160  1.8660
 8832TIP3   OH226459   6.622   2.876   5.750 -0.3791  0.4389 -0.3884
 8832TIP3    H126460   6.703   2.887   5.799  0.1569 -0.0092 -1.1549
 8832TIP3    H226461   6.558   2.849   5.815  0.1321  0.6251  0.1955
 8833TIP3   OH226462   3.713   1.384   0.001  0.9224  0.1178  0.1509
 8833TIP3    H126463   3.620   1.361  -0.001  1.3894 -2.0976 -2.2765
 8833TIP3    H226464   3.752   1.322   0.062  0.7758  1.5347  1.7548
 8834TIP3   OH226465   0.719   3.146   4.314 -0.3011 -0.3776  0.4978
 8834TIP3    H126466   0.769   3.174   4.237 -0.5632 -0.8009  0.1730
 8834TIP3    H226467   0.767   3.184   4.388  0.2388 -0.3920  0.1612
 8835TIP3   OH226468   1.436   0.964   5.219  0.5569 -0.5745 -0.6715
 8835TIP3    H126469   1.530   0.978   5.219  0.8777 -1.9666  1.9858
 8835TIP3    H226470   1.414   0.955   5.312 -2.5062  1.4592 -1.0478
 8836TIP3   OH226471   2.677   0.268   2.834  0.1125 -0.3921  0.3771
 8836TIP3    H126472   2.733   0.198   2.868 -1.3124 -1.3895  0.7510
 8836TIP3    H226473   2.660   0.243   2.743  0.1110 -0.1749  0.3148
 8837TIP3   OH226474   5.141   4.007   3.077  0.3973  0.6786 -0.4585
 8837TIP3    H126475   5.177   4.091   3.105 -0.9864  1.4523 -0.9068
 8837TIP3    H226476   5.142   4.011   2.982 -0.2190  0.4345 -0.4786
 8838TIP3   OH226477   2.807   2.256   4.371  0.3315 -0.4376 -0.2812
 8838TIP3    H126478   2.816   2.227   4.462 -0.5346  1.1860  0.3733
 8838TIP3    H226479   2.729   2.312   4.372  0.7051  0.1591 -1.8788
 8839TIP3   OH226480   1.308   1.526   0.693  0.0922 -0.0828 -0.1258
 8839TIP3    H126481   1.379   1.505   0.633 -0.2107  0.6177 -0.7370
 8839TIP3    H226482   1.235   1.551   0.636  0.2812  2.1638  0.5438
 8840TIP3   OH226483   4.139   1.210   4.246  0.0823  0.1050 -0.9041
 8840TIP3    H126484   4.129   1.129   4.196 -0.3997 -1.1505  1.0751
 8840TIP3    H226485   4.225   1.243   4.222  0.7607 -1.6090 -0.9893
 8841TIP3   OH226486   6.485   4.806   1.038 -0.6834  0.6914  0.0032
 8841TIP3    H126487   6.552   4.810   0.970  0.3869  0.2901  1.0003
 8841TIP3    H226488   6.520   4.745   1.103 -2.1449  0.2593  0.4194
 8842TIP3   OH226489   3.120   0.433   5.281 -0.5395 -0.5291  0.0564
 8842TIP3    H126490   3.029   0.460   5.292 -0.0315  0.9361  0.9427
 8842TIP3    H226491   3.145   0.467   5.195 -0.7664 -0.8130 -0.1268
 8843TIP3   OH226492   3.025   0.357   4.442 -0.1924 -1.0817 -0.4679
 8843TIP3    H126493   3.114   0.381   4.419 -0.2357  1.1497  1.4037
 8843TIP3    H226494   2.970   0.412   4.385 -0.3954 -1.7315 -0.9150
 8844TIP3   OH226495   6.103   6.591   3.467  0.4656  0.1344  0.1964
 8844TIP3    H126496   6.087   6.498   3.482  1.7130  0.1135  1.6518
 8844TIP3    H226497   6.019   6.633   3.488 -0.1304 -0.6496 -0.5554
 8845TIP3   OH226498   2.961   0.211   1.167  0.2232 -0.0015  0.3117
 8845TIP3    H126499   3.047   0.252   1.178  0.5560 -0.4946 -0.3791
 8845TIP3    H226500   2.913   0.271   1.110  0.2744  0.0415  0.3134
 8846TIP3   OH226501   5.634   1.692   1.901 -0.5001  0.0698  0.1276
 8846TIP3    H126502   5.668   1.724   1.985  0.6791  0.1983 -0.3807
 8846TIP3    H226503   5.690   1.618   1.879 -0.8070  0.0337 -0.5458
 8847TIP3   OH226504   5.427   5.024   3.471 -0.0470 -0.3656  0.5352
 8847TIP3    H126505   5.368   4.959   3.434 -1.0309  0.8340 -0.1158
 8847TIP3    H226506   5.435   5.001   3.563 -0.6608 -1.1898  0.3875
 8848TIP3   OH226507   0.686   1.341   4.131 -0.3424  0.4649  0.7530
 8848TIP3    H126508   0.714   1.427   4.099  0.2446  0.2182  0.6036
 8848TIP3    H226509   0.595   1.333   4.101 -0.2170  0.7923  0.2758
 8849TIP3   OH226510   3.347   5.668   3.099  0.0803 -0.6074  0.1097
 8849TIP3    H126511   3.328   5.594   3.043 -1.5255  0.1761 -0.4486
 8849TIP3    H226512   3.440   5.687   3.085  0.5372 -2.5129  0.3244
 8850TIP3   OH226513   3.538   2.075   5.459  0.3643  0.2206 -0.0022
 8850TIP3    H126514   3.472   2.018   5.419 -0.9946  1.7847 -0.0832
 8850TIP3    H226515   3.595   2.101   5.387  2.4898 -2.8144  0.3899
 8851TIP3   OH226516   0.233   0.083   1.893 -0.2971  0.1269  0.4808
 8851TIP3    H126517   0.139   0.084   1.875 -0.3491 -1.7112  0.4527
 8851TIP3    H226518   0.250   0.167   1.936 -1.2543  2.1346 -2.7262
 8852TIP3   OH226519   6.599   0.997   4.213  0.2717  0.0506 -0.9247
 8852TIP3    H126520   6.606   0.961   4.302 -0.7951  0.2150 -0.7638
 8852TIP3    H226521   6.541   0.937   4.167 -1.0973  1.2360 -0.8075
 8853TIP3   OH226522   2.790   0.084   5.888 -0.1023 -0.1174 -0.2654
 8853TIP3    H126523   2.878   0.090   5.852 -0.3403 -0.9501 -1.0187
 8853TIP3    H226524   2.733   0.121   5.820 -0.3179  0.7838  0.3756
 8854TIP3   OH226525   3.188   2.909   4.671 -0.1781 -0.4957  0.0277
 8854TIP3    H126526   3.282   2.922   4.681 -0.1433 -0.6793 -0.0504
 8854TIP3    H226527   3.174   2.910   4.577 -0.4552  0.9028  0.0684
 8855TIP3   OH226528   2.362   3.670   3.086  0.3154  0.0988  0.4411
 8855TIP3    H126529   2.456   3.653   3.080  0.0950 -1.2442  0.4465
 8855TIP3    H226530   2.322   3.583   3.084 -1.0078  0.6965 -0.8181
 8856TIP3   OH226531   0.189   0.715   1.920  0.5414  0.1529 -0.5001
 8856TIP3    H126532   0.263   0.774   1.914  1.2962 -0.8852 -2.4274
 8856TIP3    H226533   0.118   0.761   1.874  0.6333  0.2374 -0.5567
 8857TIP3   OH226534   1.600   3.812   2.942  0.0654 -0.1811 -0.4765
 8857TIP3    H126535   1.652   3.732   2.951 -1.0744 -1.1290 -1.9076
 8857TIP3    H226536   1.606   3.833   2.849 -0.9835  0.4678 -0.4078
 8858TIP3   OH226537   1.739   3.307   3.920 -0.2060  0.3542  0.2169
 8858TIP3    H126538   1.801   3.292   3.991  1.3032  2.1973 -0.6266
 8858TIP3    H226539   1.710   3.398   3.931 -0.5947  0.4033 -1.0309
 8859TIP3   OH226540   6.944   1.184   1.563 -0.2971  0.0548  0.2569
 8859TIP3    H126541   6.905   1.266   1.532  0.4431 -0.1658 -1.3852
 8859TIP3    H226542   6.977   1.142   1.483 -0.4069 -1.7139  1.0940
 8860TIP3   OH226543   0.870   0.406   0.569  0.1874  0.0504 -0.2395
 8860TIP3    H126544   0.806   0.349   0.526  1.5913 -1.7980 -0.0273
 8860TIP3    H226545   0.862   0.384   0.662  0.2158  0.7991 -0.0565
 8861TIP3   OH226546   3.629   1.044   1.042 -0.4313 -0.0173 -0.1537
 8861TIP3    H126547   3.601   1.085   1.124 -0.0213  0.3007 -0.1709
 8861TIP3    H226548   3.700   0.985   1.067  2.4621  2.9151 -0.7097
 8862TIP3   OH226549   1.057   1.593   2.610  0.1332 -0.3556 -0.1044
 8862TIP3    H126550   1.070   1.590   2.705  2.0126 -1.7243 -0.3506
 8862TIP3    H226551   1.050   1.502   2.583  1.8332 -0.1362 -1.5028
 8863TIP3   OH226552   2.490   3.976   4.371  0.7969  0.2631 -0.7062
 8863TIP3    H126553   2.571   3.981   4.320 -0.3923  0.5519 -2.6989
 8863TIP3    H226554   2.439   4.052   4.342  0.2338  0.7298  1.3475
 8864TIP3   OH226555   5.235   5.852   3.477 -0.1900  0.1284 -0.2346
 8864TIP3    H126556   5.213   5.781   3.537  1.6179  1.0754  1.6680
 8864TIP3    H226557   5.202   5.822   3.392 -2.4819 -1.4623  1.0847
 8865TIP3   OH226558   0.043   4.934   1.117 -0.3045  0.1515  0.1510
 8865TIP3    H126559   0.101   4.874   1.165 -0.9391 -0.2761  0.4037
 8865TIP3    H226560   0.097   5.010   1.097 -0.0666  0.4212  1.7064
 8866TIP3   OH226561   0.262   3.864   4.825 -0.5859  0.2252 -0.2385
 8866TIP3    H126562   0.267   3.791   4.763 -0.4887 -0.6394  0.7674
 8866TIP3    H226563   0.214   3.829   4.899 -0.0135  0.9984  0.5088
 8867TIP3   OH226564   1.967   6.184   0.856  0.4689  0.4635 -0.3698
 8867TIP3    H126565   2.030   6.118   0.885  0.9453  0.2470 -1.7893
 8867TIP3    H226566   1.956   6.166   0.763 -0.9284  1.1470 -0.3549
 8868TIP3   OH226567   7.121   5.814   4.033 -0.2279  0.2444 -0.3804
 8868TIP3    H126568   7.168   5.735   4.057 -0.6393  0.7446  2.3539
 8868TIP3    H226569   7.186   5.884   4.037 -0.2677  0.3272 -0.9881
 8869TIP3   OH226570   3.948   1.623   5.774 -0.1931 -0.2410  0.2313
 8869TIP3    H126571   3.896   1.693   5.733 -0.8834  1.4346  3.5649
 8869TIP3    H226572   3.884   1.554   5.793 -0.6098  0.4028  1.3203
 8870TIP3   OH226573   5.920   3.061   0.772 -0.0833 -0.2588 -0.2825
 8870TIP3    H126574   5.897   3.041   0.863  2.3772 -1.2281  0.1959
 8870TIP3    H226575   5.887   2.987   0.722  0.0514 -0.5563  0.0661
 8871TIP3   OH226576   5.743   1.545   0.523 -0.1651  0.4810 -0.2443
 8871TIP3    H126577   5.657   1.523   0.487  0.4941 -1.0020 -1.0218
 8871TIP3    H226578   5.766   1.471   0.578  0.8762  0.5613 -0.5469
 8872TIP3   OH226579   3.423   0.126   2.125  0.9755  0.1647  0.0626
 8872TIP3    H126580   3.347   0.181   2.107  0.4686 -0.5854 -0.1492
 8872TIP3    H226581   3.437   0.134   2.219  0.3712 -0.0313  0.1699
 8873TIP3   OH226582   4.167   6.065   5.284  0.4561  0.0515  0.2723
 8873TIP3    H126583   4.229   6.002   5.249  0.1081 -1.3628  2.0286
 8873TIP3    H226584   4.219   6.143   5.303  1.4672 -0.6748  0.5591
 8874TIP3   OH226585   4.572   4.601   1.684  0.0503  0.2751 -1.1149
 8874TIP3    H126586   4.575   4.598   1.588  1.1010 -1.0126 -1.0792
 8874TIP3    H226587   4.534   4.517   1.709  0.7141  0.1737 -0.3949
 8875TIP3   OH226588   2.144   2.803   5.493 -0.2149 -0.2702  0.0156
 8875TIP3    H126589   2.228   2.848   5.494 -1.2436  1.7585  1.5261
 8875TIP3    H226590   2.093   2.848   5.426 -1.2580  0.9282  1.5501
 8876TIP3   OH226591   4.127   0.966   1.973  0.3488  0.4985 -0.1889
 8876TIP3    H126592   4.095   0.891   2.024 -0.8750  0.8259 -0.4340
 8876TIP3    H226593   4.196   0.930   1.918  0.2406 -0.3099  0.1835
 8877TIP3   OH226594   2.949   1.192   4.657  0.0876 -0.5607  0.4851
 8877TIP3    H126595   2.892   1.176   4.582 -0.8505 -1.7481  1.4264
 8877TIP3    H226596   3.019   1.127   4.649  1.6590  1.1777 -0.9176
 8878TIP3   OH226597   1.221   1.819   0.666 -0.4970  0.1099  0.1930
 8878TIP3    H126598   1.173   1.749   0.622  0.8041 -0.6822 -0.0461
 8878TIP3    H226599   1.307   1.818   0.624 -1.3274  3.9834 -2.0448
 8879TIP3   OH226600   6.849   1.877   3.936 -0.3000 -0.0391 -0.6914
 8879TIP3    H126601   6.897   1.955   3.910  0.5105 -1.0960 -2.5624
 8879TIP3    H226602   6.760   1.891   3.904 -0.8973  1.2021  1.3212
 8880TIP3   OH226603   2.640   6.042   1.347 -0.2347 -0.5273  0.5509
 8880TIP3    H126604   2.580   6.066   1.276 -1.2071 -1.4828  1.0248
 8880TIP3    H226605   2.709   6.108   1.343 -0.8857  0.1182 -0.5407
 8881TIP3   OH226606   7.045   6.158   2.459 -0.2425 -0.0931  0.2145
 8881TIP3    H126607   7.062   6.233   2.516 -0.4164 -0.7546  1.1497
 8881TIP3    H226608   6.977   6.189   2.399  1.9441  1.5828 -1.5894
 8882TIP3   OH226609   7.177   5.289   5.179  0.2756  0.3460  0.4245
 8882TIP3    H126610   7.138   5.222   5.123  0.2846  0.5508  0.1691
 8882TIP3    H226611   7.128   5.369   5.158 -1.8096 -0.1655  2.8821
 8883TIP3   OH226612   3.233   4.177   1.592 -0.4194 -0.2054 -0.1265
 8883TIP3    H126613   3.295   4.245   1.565 -1.5895 -0.2013 -3.1920
 8883TIP3    H226614   3.240   4.175   1.687  3.1673  0.7888 -0.2222
 8884TIP3   OH226615   5.486   0.717   4.902  0.2596  0.1814  0.3147
 8884TIP3    H126616   5.463   0.798   4.856 -0.8938 -1.1795 -1.6664
 8884TIP3    H226617   5.539   0.668   4.839  1.1157 -0.5432  1.5558
 8885TIP3   OH226618   5.621   2.232   1.278 -0.0764 -0.5509  0.3322
 8885TIP3    H126619   5.678   2.292   1.327  0.1234 -1.2655  0.9970
 8885TIP3    H226620   5.645   2.145   1.311 -2.8488 -0.7684  2.0618
 8886TIP3   OH226621   0.828   1.990   1.574 -0.1742  0.2382 -0.0666
 8886TIP3    H126622   0.902   2.051   1.569  0.4766 -0.5202  0.0844
 8886TIP3    H226623   0.761   2.038   1.622  0.3600  0.8115  0.1256
 8887TIP3   OH226624   5.995   0.152   2.614 -0.2333  1.0884  0.2919
 8887TIP3    H126625   6.019   0.072   2.566 -0.7074 -0.6036  2.7263
 8887TIP3    H226626   6.061   0.159   2.683 -1.9966  1.0133  2.0371
 8888TIP3   OH226627   1.356   5.681   5.243 -0.4341 -0.3788 -0.2004
 8888TIP3    H126628   1.349   5.768   5.281 -1.3791  1.3413 -3.8657
 8888TIP3    H226629   1.450   5.664   5.238 -0.2018  0.8763 -0.3188
 8889TIP3   OH226630   4.129   2.620   5.100  0.3587  0.8653 -0.2449
 8889TIP3    H126631   4.054   2.618   5.160  0.9440  2.4015  0.6031
 8889TIP3    H226632   4.099   2.571   5.024 -0.6472 -0.5886  1.0088
 8890TIP3   OH226633   2.874   1.460   0.662  0.6288  0.0705 -0.3475
 8890TIP3    H126634   2.823   1.456   0.581 -0.1751 -0.0107  0.1497
 8890TIP3    H226635   2.856   1.377   0.705  0.9461  0.1696 -0.0198
 8891TIP3   OH226636   6.887   1.531   5.735 -0.0472  0.2245  0.2645
 8891TIP3    H126637   6.893   1.579   5.818  2.0558 -1.1887  0.9993
 8891TIP3    H226638   6.950   1.459   5.744 -1.6250 -1.5057 -1.5633
 8892TIP3   OH226639   6.291   0.171   2.290 -0.4139 -0.1462 -0.0350
 8892TIP3    H126640   6.237   0.098   2.321 -0.5408 -0.5217 -1.0889
 8892TIP3    H226641   6.281   0.169   2.194  0.6893  0.3823 -0.1814
 8893TIP3   OH226642   0.823   1.548   3.376  0.3419  0.5029 -0.5094
 8893TIP3    H126643   0.833   1.454   3.391  0.0475  0.1973 -2.0148
 8893TIP3    H226644   0.900   1.587   3.417  1.0336 -0.5123 -0.7984
 8894TIP3   OH226645   3.602   0.167   3.539 -0.8008 -0.0497 -0.7172
 8894TIP3    H126646   3.678   0.144   3.484  0.1818  1.7111 -0.1507
 8894TIP3    H226647   3.599   0.262   3.538 -2.4517 -0.0599  0.0685
 8895TIP3   OH226648   6.687   1.491   0.390  0.1606  0.2389  0.7326
 8895TIP3    H126649   6.759   1.538   0.348  0.0927 -0.9168 -0.7809
 8895TIP3    H226650   6.618   1.488   0.323 -0.2965 -0.9113  1.2356
 8896TIP3   OH226651   1.703   2.447   4.342  0.4407 -0.3015  0.2881
 8896TIP3    H126652   1.787   2.404   4.357  0.3181 -0.2118  1.3129
 8896TIP3    H226653   1.640   2.391   4.387 -0.0553 -0.3548 -0.4553
 8897TIP3   OH226654   0.106   3.485   1.232 -0.5207 -0.4502 -0.7385
 8897TIP3    H126655   0.155   3.457   1.154 -2.9368 -1.9120 -1.8514
 8897TIP3    H226656   0.071   3.570   1.207  0.5778  0.1531 -0.3077
 8898TIP3   OH226657   0.598   5.527   0.658  0.0099 -0.1715  0.2972
 8898TIP3    H126658   0.573   5.444   0.617 -1.3061  0.0331  0.6426
 8898TIP3    H226659   0.521   5.553   0.708  0.4123  1.2546  0.2109
 8899TIP3   OH226660   3.971   5.314   2.112  0.3758 -0.7215  0.7327
 8899TIP3    H126661   4.046   5.348   2.063  0.2278  0.8314  1.5269
 8899TIP3    H226662   3.908   5.287   2.045  0.9981 -0.5502  0.0717
 8900TIP3   OH226663   1.942   3.068   1.787 -0.2673 -0.1945  0.1152
 8900TIP3    H126664   1.942   3.013   1.708  1.9101 -1.5154  0.9523
 8900TIP3    H226665   1.864   3.039   1.835  0.0732 -1.6210 -0.1252
 8901TIP3   OH226666   3.928   6.044   0.748 -0.3183 -0.6614 -0.2710
 8901TIP3    H126667   4.019   6.019   0.732  0.2530 -0.4394  2.2759
 8901TIP3    H226668   3.917   6.126   0.699 -0.2978 -2.4054 -3.4647
 8902TIP3   OH226669   4.682   1.106   2.776 -0.3985  0.4731  0.4809
 8902TIP3    H126670   4.629   1.111   2.856  0.4224  0.3070  1.0468
 8902TIP3    H226671   4.653   1.026   2.733 -1.6710  1.1678  0.0009
 8903TIP3   OH226672   3.675   4.185   3.777  0.1735 -0.3454  0.1020
 8903TIP3    H126673   3.743   4.186   3.710  1.0197 -1.5544  0.9096
 8903TIP3    H226674   3.638   4.097   3.773 -0.5113 -0.0817  0.4890
 8904TIP3   OH226675   4.444   1.685   0.837  0.5363  0.2277 -0.1550
 8904TIP3    H126676   4.356   1.649   0.851  0.7547  0.3210  1.7198
 8904TIP3    H226677   4.443   1.714   0.746 -1.1194 -0.4606 -0.4071
 8905TIP3   OH226678   2.931   5.844   0.796 -0.0322 -0.3976 -0.5547
 8905TIP3    H126679   2.847   5.797   0.796 -0.4689  0.2080  2.0233
 8905TIP3    H226680   2.992   5.784   0.752 -1.6266 -1.1592 -1.8616
 8906TIP3   OH226681   6.997   6.493   0.485 -0.3287 -0.7752 -0.4326
 8906TIP3    H126682   6.919   6.444   0.508 -2.0297  1.0746 -1.8555
 8906TIP3    H226683   6.967   6.583   0.474  2.2345  0.2441  0.0644
 8907TIP3   OH226684   1.432   3.422   1.175  0.1367 -0.2182  0.1724
 8907TIP3    H126685   1.424   3.327   1.188  1.2111 -0.8847 -3.1209
 8907TIP3    H226686   1.389   3.438   1.090  0.0516  2.2646  0.6073
 8908TIP3   OH226687   1.144   0.688   3.854 -0.4152 -0.0939 -0.1247
 8908TIP3    H126688   1.178   0.765   3.899  0.8127 -0.0116 -1.1684
 8908TIP3    H226689   1.140   0.621   3.922 -0.3046  0.5306  0.5114
 8909TIP3   OH226690   4.520   4.559   3.265  0.4694  0.0253 -0.4748
 8909TIP3    H126691   4.465   4.481   3.279  2.9666 -1.6258  0.9587
 8909TIP3    H226692   4.514   4.607   3.347  0.2157  0.4929 -0.7666
 8910TIP3   OH226693   6.433   6.085   1.517 -0.5602 -0.0156 -0.9928
 8910TIP3    H126694   6.481   6.006   1.495  2.5430  1.4652 -0.0942
 8910TIP3    H226695   6.397   6.115   1.434 -1.4942 -2.0922 -1.4076
 8911TIP3   OH226696   4.624   1.548   3.473  0.1742 -0.3644 -0.2358
 8911TIP3    H126697   4.673   1.598   3.408 -0.7993  1.9178  0.6979
 8911TIP3    H226698   4.680   1.546   3.550 -0.6644  1.2870  0.4624
 8912TIP3   OH226699   2.742   2.939   3.927 -0.0313 -0.7373 -0.2793
 8912TIP3    H126700   2.821   2.985   3.955 -0.6563  0.0097  0.3010
 8912TIP3    H226701   2.774   2.866   3.874  1.0227 -0.1267 -0.5089
 8913TIP3   OH226702   1.098   4.029   2.848 -0.1502  0.1096 -0.4482
 8913TIP3    H126703   1.096   3.976   2.768  0.8798 -1.3246  0.4158
 8913TIP3    H226704   1.168   4.092   2.834  1.0283 -1.0947 -0.1459
 8914TIP3   OH226705   5.183   6.265   2.629  0.1025  0.3839 -0.3237
 8914TIP3    H126706   5.104   6.283   2.577  0.0566 -0.2102 -0.4654
 8914TIP3    H226707   5.255   6.292   2.573 -0.0356  2.6281  0.4875
 8915TIP3   OH226708   4.847   3.871   2.517 -0.1043 -0.1174 -0.3291
 8915TIP3    H126709   4.846   3.889   2.424  0.3229  1.0835 -0.1159
 8915TIP3    H226710   4.755   3.876   2.544 -0.1812 -0.0558 -0.6036
 8916TIP3   OH226711   6.927   2.211   0.668  0.0780  0.6620 -0.4970
 8916TIP3    H126712   6.908   2.122   0.698  0.6050  0.8691  0.4870
 8916TIP3    H226713   6.870   2.267   0.721  0.8835  1.0175  0.0198
 8917TIP3   OH226714   1.128   3.552   0.228 -0.0385 -0.0870  0.0376
 8917TIP3    H126715   1.137   3.514   0.315 -1.2226 -0.1200  0.1563
 8917TIP3    H226716   1.218   3.565   0.198  0.3785 -0.0552  1.2673
 8918TIP3   OH226717   1.087   2.130   5.028  0.5819  0.3667 -0.0808
 8918TIP3    H126718   1.023   2.060   5.031  0.4638  0.5016  2.1101
 8918TIP3    H226719   1.080   2.165   4.939 -0.1169 -1.6535 -0.8770
 8919TIP3   OH226720   7.048   4.039   3.200 -0.0371 -0.2982  0.4146
 8919TIP3    H126721   7.139   4.011   3.209  0.2729  0.2484 -0.8154
 8919TIP3    H226722   7.031   4.091   3.279  0.8733 -0.0117  0.4379
 8920TIP3   OH226723   4.068   5.705   4.948  0.4163  0.1318 -0.4399
 8920TIP3    H126724   4.115   5.622   4.941  2.6335  1.3854 -1.3237
 8920TIP3    H226725   4.033   5.719   4.860  1.0927  0.7006 -0.6238
 8921TIP3   OH226726   5.112   5.367   5.702 -0.4905  0.4959  0.7262
 8921TIP3    H126727   5.178   5.394   5.638 -1.5195  1.9050  0.1804
 8921TIP3    H226728   5.094   5.276   5.681  0.2330  0.5193 -0.0647
 8922TIP3   OH226729   3.901   1.726   4.216 -0.8294 -0.1272  0.5252
 8922TIP3    H126730   3.933   1.643   4.251  0.7783 -0.1195 -0.8451
 8922TIP3    H226731   3.949   1.793   4.266 -0.1439 -0.0832 -0.1784
 8923TIP3   OH226732   3.916   1.611   0.200 -0.0732 -0.5239  0.3205
 8923TIP3    H126733   3.913   1.516   0.214 -0.0681 -0.4384  0.9335
 8923TIP3    H226734   3.901   1.648   0.287 -2.5509  0.0714 -0.2710
 8924TIP3   OH226735   1.013   0.321   4.268 -0.2552 -0.3738 -0.2779
 8924TIP3    H126736   1.062   0.240   4.281 -0.0842 -0.5448 -1.8157
 8924TIP3    H226737   0.973   0.311   4.181  0.3283  1.4681 -0.7979
 8925TIP3   OH226738   2.054   3.545   0.908  0.2658 -0.5528 -0.1379
 8925TIP3    H126739   2.118   3.554   0.837 -1.3140 -0.8713 -1.6672
 8925TIP3    H226740   2.099   3.491   0.974  2.3031  0.9872 -0.1781
 8926TIP3   OH226741   5.031   2.421   4.260  0.4036 -0.2132 -0.9031
 8926TIP3    H126742   5.067   2.509   4.256  1.2253 -0.4835  0.1308
 8926TIP3    H226743   5.093   2.372   4.313 -0.9767 -0.9674  0.0773
 8927TIP3   OH226744   0.318   1.172   5.040 -0.2431 -0.3087 -0.0510
 8927TIP3    H126745   0.399   1.151   4.993 -0.5013 -0.5495 -0.3976
 8927TIP3    H226746   0.328   1.263   5.065  0.1577 -0.3504 -0.0522
 8928TIP3   OH226747   0.717   3.246   3.207 -0.0839  0.5281  0.7760
 8928TIP3    H126748   0.707   3.153   3.187 -0.0592  0.6284  0.2778
 8928TIP3    H226749   0.630   3.274   3.233  0.1221  0.1402  1.9202
 8929TIP3   OH226750   4.223   5.526   2.260 -0.2445 -0.1645  0.0166
 8929TIP3    H126751   4.266   5.608   2.236  0.1101 -0.7057 -1.2558
 8929TIP3    H226752   4.248   5.464   2.192  1.0951 -1.8928  1.9646
 8930TIP3   OH226753   3.492   3.887   3.283 -0.1701 -0.7712 -0.1043
 8930TIP3    H126754   3.510   3.981   3.294 -0.8697 -0.4547 -1.3879
 8930TIP3    H226755   3.500   3.850   3.371  0.0292  0.5087  0.4384
 8931TIP3   OH226756   4.083   0.223   5.704 -0.0195  0.4243  0.2921
 8931TIP3    H126757   4.053   0.202   5.793  0.2491 -0.7209  0.1282
 8931TIP3    H226758   4.116   0.313   5.711  3.0829 -0.6978  2.2083
 8932TIP3   OH226759   0.796   5.316   5.127  0.1337 -0.4328  0.5012
 8932TIP3    H126760   0.877   5.294   5.081 -0.2019 -0.8487  0.0962
 8932TIP3    H226761   0.802   5.270   5.210 -0.4809 -1.9659 -0.2661
 8933TIP3   OH226762   5.205   2.209   4.698  0.0666  0.3546 -0.2531
 8933TIP3    H126763   5.129   2.242   4.651  0.0614 -1.6020 -1.7764
 8933TIP3    H226764   5.170   2.174   4.779 -0.5709  0.0587 -0.6494
 8934TIP3   OH226765   3.435   2.830   1.374 -0.1097 -0.0016 -0.3155
 8934TIP3    H126766   3.358   2.785   1.341  0.3930 -0.1448 -1.3517
 8934TIP3    H226767   3.434   2.816   1.468 -2.1888  1.3189 -0.0879
 8935TIP3   OH226768   4.403   3.014  -0.007 -0.5968  0.4117  0.5526
 8935TIP3    H126769   4.394   3.034   0.087  3.2320  1.1243  0.9451
 8935TIP3    H226770   4.402   2.918  -0.011 -0.8393  0.3711  1.3279
 8936TIP3   OH226771   1.896   3.233   2.812 -0.4926 -0.4555  0.1284
 8936TIP3    H126772   1.885   3.230   2.717 -1.7715 -0.1649  0.2517
 8936TIP3    H226773   1.954   3.308   2.826 -2.3303  1.1274 -0.3025
 8937TIP3   OH226774   3.988   5.773   0.296  0.3823 -0.1966 -0.2135
 8937TIP3    H126775   3.898   5.804   0.306  0.8825  1.1137  0.4667
 8937TIP3    H226776   4.014   5.802   0.209 -0.6284 -2.7453 -1.4553
 8938TIP3   OH226777   0.081   3.516   3.785  0.0121 -0.3271  0.3303
 8938TIP3    H126778  -0.012   3.501   3.774  0.0348  0.2643 -0.8427
 8938TIP3    H226779   0.091   3.541   3.877 -1.4958  2.9089 -0.2520
 8939TIP3   OH226780   0.497   1.916   3.916 -0.5318  0.1965 -0.5445
 8939TIP3    H126781   0.440   1.872   3.979 -0.2929  1.1700  0.3899
 8939TIP3    H226782   0.580   1.869   3.922 -0.1753  0.9425  0.6862
 8940TIP3   OH226783   0.372   6.473   2.407  0.3168 -0.0330  0.5076
 8940TIP3    H126784   0.386   6.471   2.502 -2.4728  1.6891  1.0589
 8940TIP3    H226785   0.431   6.541   2.375  1.5736 -0.9013  0.8838
 8941TIP3   OH226786   5.479   2.943   0.756 -0.5094  0.1669 -0.0148
 8941TIP3    H126787   5.453   2.881   0.824  0.1942 -0.8100 -0.6184
 8941TIP3    H226788   5.557   2.905   0.716 -0.8164  0.7966 -1.2784
 8942TIP3   OH226789   5.556   1.363   0.994  0.3027  0.2406  0.1079
 8942TIP3    H126790   5.498   1.324   0.929  1.6671  0.3984 -1.2630
 8942TIP3    H226791   5.558   1.456   0.971  0.9596  0.2642  0.2417
 8943TIP3   OH226792   4.631   3.671   2.299 -0.1018  0.7723 -0.2883
 8943TIP3    H126793   4.686   3.719   2.237  0.7303  0.6138  0.3235
 8943TIP3    H226794   4.682   3.593   2.321 -0.8305  0.3167 -0.1700
 8944TIP3   OH226795   4.805   3.309   2.535 -0.3005 -0.1146  0.0338
 8944TIP3    H126796   4.825   3.308   2.441  1.7893 -2.3910  0.4107
 8944TIP3    H226797   4.777   3.220   2.555  0.8037 -0.1249  1.8097
 8945TIP3   OH226798   2.700   5.111   3.100 -0.3625  0.1767  0.0583
 8945TIP3    H126799   2.660   5.025   3.115 -0.0947  0.5563  3.8972
 8945TIP3    H226800   2.794   5.094   3.104 -0.3072  0.6226  0.6397
 8946TIP3   OH226801   3.808   2.193   5.016  0.0534 -0.4809  0.2443
 8946TIP3    H126802   3.839   2.211   4.928 -0.6898  1.1352  0.2857
 8946TIP3    H226803   3.850   2.259   5.071  0.4966 -1.4548  1.1213
 8947TIP3   OH226804   4.543   0.405   5.399  0.9407  0.4281  1.0018
 8947TIP3    H126805   4.553   0.328   5.453  2.9984  1.3703  2.0725
 8947TIP3    H226806   4.537   0.371   5.309  0.4125 -1.0008  1.5538
 8948TIP3   OH226807   3.140   1.545   0.646  0.2392  0.0093  0.0017
 8948TIP3    H126808   3.063   1.490   0.657  0.2415 -0.1621 -0.7564
 8948TIP3    H226809   3.105   1.630   0.619  0.0560  1.2024  3.5424
 8949TIP3   OH226810   2.730   0.656   4.821  0.1844  0.4726 -0.4126
 8949TIP3    H126811   2.749   0.562   4.820 -1.8210  0.0224  0.2265
 8949TIP3    H226812   2.645   0.664   4.779  0.3805  2.0440 -0.5707
 8950TIP3   OH226813   1.060   4.556   5.664 -0.0300 -0.0157  0.0267
 8950TIP3    H126814   0.988   4.520   5.612 -1.3489 -1.5918  2.7331
 8950TIP3    H226815   1.050   4.651   5.657 -0.0536 -0.1279 -2.5666
 8951TIP3   OH226816   5.908   2.121   2.459 -0.1866 -0.3296  0.1579
 8951TIP3    H126817   5.842   2.186   2.482  0.1854  1.1440 -2.4770
 8951TIP3    H226818   5.977   2.131   2.525 -1.0194  0.5615  0.9143
 8952TIP3   OH226819   0.401   0.700   5.146 -0.4124  0.6954  0.3048
 8952TIP3    H126820   0.461   0.761   5.103  0.1476  0.4676  0.7633
 8952TIP3    H226821   0.321   0.704   5.092  0.3261  0.2876 -0.8631
 8953TIP3   OH226822   5.422   4.899   5.235  0.0561 -0.4060  0.3333
 8953TIP3    H126823   5.335   4.938   5.228  0.1229 -0.2638  0.2842
 8953TIP3    H226824   5.412   4.830   5.300 -0.9967 -2.9072 -2.2394
 8954TIP3   OH226825   4.503   5.189   2.674 -0.3268 -0.2667 -0.1080
 8954TIP3    H126826   4.460   5.180   2.589 -0.5836 -0.2479  0.0192
 8954TIP3    H226827   4.439   5.157   2.737 -0.6796  1.0282  0.2148
 8955TIP3   OH226828   1.471   0.810   4.804 -0.1130  0.5376  0.2731
 8955TIP3    H126829   1.404   0.842   4.744 -0.6963 -0.3373  0.4379
 8955TIP3    H226830   1.519   0.889   4.831 -0.5179  1.0665 -0.5102
 8956TIP3   OH226831   6.071   0.403   2.356  0.1376 -0.2317  0.0603
 8956TIP3    H126832   6.096   0.336   2.293  0.4638  0.1624 -0.2334
 8956TIP3    H226833   5.984   0.377   2.386  0.6333 -1.2877  0.6291
 8957TIP3   OH226834   6.805   3.828   0.287  0.7303  0.1954 -0.4197
 8957TIP3    H126835   6.822   3.780   0.368  0.7789  0.8341 -0.0472
 8957TIP3    H226836   6.710   3.842   0.287  0.7803  0.5246 -0.2900
 8958TIP3   OH226837   3.495   0.675   3.569  0.3562 -0.3075  0.1224
 8958TIP3    H126838   3.434   0.717   3.509  1.6078  3.0474  0.9535
 8958TIP3    H226839   3.548   0.618   3.513 -0.8699 -0.1326 -1.2852
 8959TIP3   OH226840   2.209   4.715   1.586 -0.1421  0.0372 -0.7535
 8959TIP3    H126841   2.116   4.707   1.565 -0.6908  1.3309  0.9388
 8959TIP3    H226842   2.211   4.767   1.666  2.1439  1.6945 -1.7655
 8960TIP3   OH226843   1.239   2.274   1.068  0.3982 -0.5104 -0.5664
 8960TIP3    H126844   1.204   2.213   1.133  0.9986  0.8383  1.1073
 8960TIP3    H226845   1.234   2.360   1.111  2.3375  0.2113 -1.6720
 8961TIP3   OH226846   6.493   5.093   1.136  0.0532 -0.9566  0.6213
 8961TIP3    H126847   6.513   5.009   1.095 -0.9684 -0.3097 -1.3118
 8961TIP3    H226848   6.471   5.151   1.063  1.9594  1.3906  1.7736
 8962TIP3   OH226849   2.278   0.470   4.724  0.5030  0.0395 -0.0108
 8962TIP3    H126850   2.215   0.410   4.685 -0.9641  1.5563 -0.0891
 8962TIP3    H226851   2.360   0.452   4.677 -0.5995  0.1089 -2.0919
 8963TIP3   OH226852   2.465   1.528   5.556 -0.4836 -0.4274  0.0002
 8963TIP3    H126853   2.403   1.487   5.616 -1.3817 -0.6583 -1.0700
 8963TIP3    H226854   2.448   1.621   5.563  0.7259 -0.2676  1.5089
 8964TIP3   OH226855   2.848   6.423   1.767 -0.0939  0.4191 -0.0058
 8964TIP3    H126856   2.898   6.429   1.849  0.4509  0.0481 -0.3080
 8964TIP3    H226857   2.759   6.402   1.795  0.3229 -0.8263  0.4423
 8965TIP3   OH226858   6.391   3.779   4.865 -0.0329  0.0223 -0.6978
 8965TIP3    H126859   6.377   3.830   4.944  1.2150 -0.4142 -0.1810
 8965TIP3    H226860   6.367   3.839   4.794  1.2295  1.2921 -0.1048
 8966TIP3   OH226861   1.261   4.914   1.205 -0.2046  0.4701  0.1400
 8966TIP3    H126862   1.221   4.850   1.264  0.1183 -0.5613 -0.7166
 8966TIP3    H226863   1.302   4.978   1.263  2.9433 -2.2272  1.2478
 8967TIP3   OH226864   2.067   1.002   2.553  0.4344  0.4320  0.2053
 8967TIP3    H126865   1.973   0.996   2.568  0.4807  2.5097  1.7192
 8967TIP3    H226866   2.096   0.911   2.547 -1.4566 -0.2850  1.1950
 8968TIP3   OH226867   2.427   6.593   5.498 -0.0873  0.2722  0.3242
 8968TIP3    H126868   2.500   6.602   5.560  0.0974  0.0068  0.1483
 8968TIP3    H226869   2.403   6.683   5.476  1.4290  0.3888 -1.0682
 8969TIP3   OH226870   2.460   0.569   1.495 -0.2581 -0.0843  0.8655
 8969TIP3    H126871   2.457   0.474   1.509  4.0151 -1.0117 -2.3324
 8969TIP3    H226872   2.411   0.583   1.414  1.3001 -0.1066 -0.1232
 8970TIP3   OH226873   4.919   5.758   2.043  0.7752 -0.1329  0.4104
 8970TIP3    H126874   4.830   5.794   2.041  0.2737 -1.1573  2.1597
 8970TIP3    H226875   4.954   5.785   2.128  1.1504 -1.9126  0.8657
 8971TIP3   OH226876   0.050   4.478   2.407  0.3513 -1.2114  0.4219
 8971TIP3    H126877   0.119   4.545   2.399  0.0060 -0.8927  0.0234
 8971TIP3    H226878   0.051   4.454   2.499 -0.5633  0.4989  0.9322
 8972TIP3   OH226879   0.827   5.183   3.265 -0.1537  0.1734 -0.1024
 8972TIP3    H126880   0.847   5.227   3.347 -0.4739  1.6760 -0.7847
 8972TIP3    H226881   0.829   5.253   3.200 -1.1348 -0.7591 -1.1765
 8973TIP3   OH226882   0.060   3.736   4.994  0.1191 -0.4587  0.1360
 8973TIP3    H126883   0.041   3.765   5.082 -0.5996  3.4450 -1.1320
 8973TIP3    H226884  -0.018   3.688   4.966 -1.7537  2.4193  0.0975
 8974TIP3   OH226885   0.439   4.022   2.483 -0.6092 -0.6277  0.2627
 8974TIP3    H126886   0.496   4.069   2.422 -1.1031 -0.5692 -0.1660
 8974TIP3    H226887   0.483   4.030   2.567 -0.3539  0.0610  0.0785
 8975TIP3   OH226888   0.419   0.938   4.400 -0.3296 -0.2698  0.4108
 8975TIP3    H126889   0.395   0.893   4.480 -2.0255  0.1665  0.1874
 8975TIP3    H226890   0.474   1.011   4.429  0.1258 -0.8525  1.0370
 8976TIP3   OH226891   4.048   4.400   3.799  0.0183 -0.2021 -0.0432
 8976TIP3    H126892   4.135   4.393   3.760 -0.4759 -1.1722 -1.0482
 8976TIP3    H226893   4.037   4.318   3.847  0.7079  1.0704  2.4347
 8977TIP3   OH226894   7.112   3.471   1.668  0.2537 -0.2599 -0.0569
 8977TIP3    H126895   7.073   3.517   1.743  2.0961 -0.8756  1.3367
 8977TIP3    H226896   7.049   3.484   1.597 -1.5404  0.3936  1.5686
 8978TIP3   OH226897   0.734   1.906   1.273 -0.2827 -0.5417 -0.1771
 8978TIP3    H126898   0.772   1.888   1.359  0.8352 -0.9215 -0.7322
 8978TIP3    H226899   0.748   2.000   1.260  1.4728 -0.8490 -0.8107
 8979TIP3   OH226900   2.508   5.294   2.581 -0.2225 -0.3424 -0.0421
 8979TIP3    H126901   2.592   5.278   2.539 -0.3374 -0.5529 -0.1960
 8979TIP3    H226902   2.523   5.273   2.673  0.3095  1.1300  0.2311
 8980TIP3   OH226903   0.485   2.590   2.384 -0.0252 -0.1337 -0.0802
 8980TIP3    H126904   0.507   2.563   2.473 -2.3660 -1.4857  0.1752
 8980TIP3    H226905   0.567   2.585   2.336  0.7985 -1.9616  1.4124
 8981TIP3   OH226906   5.195   2.409   2.178  0.2916  0.1642  0.6048
 8981TIP3    H126907   5.286   2.423   2.205  0.5127  0.3311 -0.2244
 8981TIP3    H226908   5.167   2.492   2.141  0.3854 -0.4174 -0.8155
 8982TIP3   OH226909   1.825   4.702   4.410 -0.6340  0.0703 -0.3010
 8982TIP3    H126910   1.807   4.619   4.366 -1.9316 -0.3578  0.9589
 8982TIP3    H226911   1.855   4.676   4.497  0.7541  0.9192 -0.5012
 8983TIP3   OH226912   5.403   4.469   4.942 -0.0917 -0.2109 -0.3003
 8983TIP3    H126913   5.390   4.513   4.858 -2.0327  1.0799  0.5866
 8983TIP3    H226914   5.359   4.526   5.006 -1.2487 -2.6025  1.1820
 8984TIP3   OH226915   1.830   5.956   0.097  0.5357 -0.5431 -0.6038
 8984TIP3    H126916   1.789   5.950   0.184  0.6487 -0.0539 -0.5101
 8984TIP3    H226917   1.767   6.007   0.045  0.0995 -1.5050 -1.0461
 8985TIP3   OH226918   1.990   1.577   1.705 -0.0845  0.4636  0.6861
 8985TIP3    H126919   2.085   1.582   1.703 -0.0233  0.2574  2.2297
 8985TIP3    H226920   1.968   1.519   1.631  0.9185  1.0522 -0.1031
 8986TIP3   OH226921   5.995   6.720   1.535  0.1192  0.3139  0.0951
 8986TIP3    H126922   6.031   6.706   1.447  0.3741  0.4536  0.1751
 8986TIP3    H226923   5.927   6.654   1.544 -1.9823  2.1147 -1.3503
 8987TIP3   OH226924   2.643   6.106   2.683 -0.1221 -0.1372 -0.2262
 8987TIP3    H126925   2.717   6.101   2.623  0.8757  1.7362  0.7497
 8987TIP3    H226926   2.684   6.122   2.769 -1.6146  0.1449  0.4546
 8988TIP3   OH226927   4.378   5.589   2.746 -0.0960 -0.5461 -0.2961
 8988TIP3    H126928   4.324   5.665   2.768  0.3118 -0.7445  1.5249
 8988TIP3    H226929   4.466   5.612   2.776  0.3405 -1.1617 -1.0776
 8989TIP3   OH226930   0.766   5.877   2.859  0.2074  0.1347 -0.2220
 8989TIP3    H126931   0.712   5.956   2.865 -1.1082 -0.8048  0.7682
 8989TIP3    H226932   0.762   5.853   2.766  0.1815  0.9114 -0.4374
 8990TIP3   OH226933   3.405   3.179   4.900 -0.8063 -0.3919 -0.3654
 8990TIP3    H126934   3.326   3.130   4.880 -0.7918 -0.3952 -0.4161
 8990TIP3    H226935   3.379   3.240   4.969 -1.3243  0.8179 -1.5726
 8991TIP3   OH226936   6.028   3.413   5.074 -0.4292  0.2905 -0.5614
 8991TIP3    H126937   6.027   3.460   5.157 -0.2786 -0.3121 -0.2135
 8991TIP3    H226938   6.049   3.480   5.009 -0.0519  0.6708 -0.0554
 8992TIP3   OH226939   5.849   3.415   2.462  0.2665 -0.1633 -0.2851
 8992TIP3    H126940   5.781   3.418   2.395 -0.7469 -0.5663  0.6936
 8992TIP3    H226941   5.931   3.421   2.413 -0.4734  1.0391 -1.4345
 8993TIP3   OH226942   2.502   5.886   5.254 -0.3219  0.4897  0.0954
 8993TIP3    H126943   2.434   5.942   5.217 -0.5760 -0.6194 -1.1784
 8993TIP3    H226944   2.456   5.829   5.315 -0.4995 -0.0137 -0.4949
 8994TIP3   OH226945   0.349   3.055   1.447  0.4521  0.2416  0.2216
 8994TIP3    H126946   0.318   3.136   1.407 -0.3705 -1.0913 -2.0253
 8994TIP3    H226947   0.271   3.000   1.455  1.0474 -0.4821  1.3906
 8995TIP3   OH226948   6.073   3.804   3.412  0.5982 -0.3210  0.2732
 8995TIP3    H126949   5.979   3.800   3.392  0.7467 -0.2463 -0.4597
 8995TIP3    H226950   6.077   3.848   3.497 -0.1193 -1.7216  1.0627
 8996TIP3   OH226951   1.761   6.807   1.100  0.4830 -0.7578  0.0954
 8996TIP3    H126952   1.813   6.775   1.173  1.1582  1.4819  0.6693
 8996TIP3    H226953   1.807   6.777   1.022  0.4979 -2.0200  0.5763
 8997TIP3   OH226954   5.950   1.809   1.874  0.4337 -0.2348 -0.4788
 8997TIP3    H126955   5.974   1.770   1.790 -0.4193  0.5757 -1.1180
 8997TIP3    H226956   6.018   1.875   1.890 -0.5616  1.1509 -1.6505
 8998TIP3   OH226957   2.715   0.091   1.965  0.0439 -0.3170 -0.7243
 8998TIP3    H126958   2.805   0.060   1.976  0.8840  2.1932  0.2179
 8998TIP3    H226959   2.671   0.067   2.046  0.3980 -0.0107 -0.4343
 8999TIP3   OH226960   6.292   4.732   4.664 -0.1014 -0.2466 -0.0388
 8999TIP3    H126961   6.364   4.786   4.697  2.4471 -2.6253 -1.3155
 8999TIP3    H226962   6.263   4.777   4.584  0.8706  0.0903 -0.2150
 9000TIP3   OH226963   5.778   3.321   0.271 -0.5692 -0.2609  0.0116
 9000TIP3    H126964   5.815   3.398   0.228  0.1447  0.7921  2.3381
 9000TIP3    H226965   5.738   3.355   0.352  0.4061 -2.3777  1.4929
 9001TIP3   OH226966   5.451   4.135   2.063 -0.4795 -0.3330  0.8138
 9001TIP3    H126967   5.432   4.115   1.971 -1.7349  2.2735  0.4161
 9001TIP3    H226968   5.471   4.050   2.103 -0.2321 -1.5813 -1.7682
 9002TIP3   OH226969   4.936   5.113   2.907  0.5529  0.0376  0.2709
 9002TIP3    H126970   5.012   5.150   2.863  0.9631  0.6860  1.4780
 9002TIP3    H226971   4.973   5.051   2.970  0.0641  0.0544  0.5830
 9003TIP3   OH226972   0.862  -0.004   2.748  0.2151  0.1427 -0.5198
 9003TIP3    H126973   0.925   0.027   2.684  0.7972 -0.8829 -0.4773
 9003TIP3    H226974   0.777   0.009   2.707  0.5873 -0.6435 -1.5824
 9004TIP3   OH226975   0.705   4.673   3.641 -0.2479  0.1511  0.1018
 9004TIP3    H126976   0.798   4.678   3.662  0.1774 -1.2384 -1.2853
 9004TIP3    H226977   0.698   4.708   3.553 -1.0629  0.3196  0.2252
 9005TIP3   OH226978   1.327   2.281   4.873 -0.5786 -0.1909 -0.0284
 9005TIP3    H126979   1.368   2.356   4.831 -1.3133  1.0957  1.4582
 9005TIP3    H226980   1.324   2.214   4.804 -0.4960  1.3491 -1.5989
 9006TIP3   OH226981   0.597   2.199   1.118  0.2675 -0.0774  0.0901
 9006TIP3    H126982   0.513   2.230   1.085 -0.2761  0.1358  1.6273
 9006TIP3    H226983   0.621   2.261   1.187  0.9665 -0.9768  0.6835
 9007TIP3   OH226984   6.932   4.716   0.486 -0.0997 -0.6491 -0.8517
 9007TIP3    H126985   6.954   4.796   0.438  1.2011 -1.4830 -1.6987
 9007TIP3    H226986   6.848   4.689   0.451 -0.5536  0.3402 -0.5580
 9008TIP3   OH226987   2.030   4.475   5.532 -0.3533  0.4390 -0.0242
 9008TIP3    H126988   2.080   4.545   5.572  2.0757 -1.5522  0.6633
 9008TIP3    H226989   2.060   4.473   5.441 -1.0822  0.8155 -0.2850
 9009TIP3   OH226990   1.808   3.995   1.617  0.2977 -0.5695 -0.2057
 9009TIP3    H126991   1.854   3.919   1.652 -1.5002 -2.0988 -0.9841
 9009TIP3    H226992   1.753   4.026   1.689 -0.4000 -1.2128 -0.4561
 9010TIP3   OH226993   5.938   5.497   2.917 -1.1389  0.3778 -0.5065
 9010TIP3    H126994   5.907   5.411   2.944 -0.1253  0.6110  1.5915
 9010TIP3    H226995   5.861   5.554   2.924 -1.5281 -0.1087 -0.7635
 9011TIP3   OH226996   6.274   1.145   3.897 -0.4091  0.1179 -0.2301
 9011TIP3    H126997   6.210   1.190   3.952 -0.5585  2.6120 -2.2567
 9011TIP3    H226998   6.358   1.160   3.942 -0.4909  2.3395 -0.6837
 9012TIP3   OH226999   6.144   3.655   4.930  0.1684 -0.2436  0.0522
 9012TIP3    H127000   6.096   3.716   4.987 -2.5674 -0.4903 -1.7993
 9012TIP3    H227001   6.226   3.700   4.911 -0.5688  1.5906  0.9699
 9013TIP3   OH227002   2.738   3.952   2.520  0.0915  0.3630 -0.4623
 9013TIP3    H127003   2.703   3.967   2.608 -1.4512 -0.4390 -0.9133
 9013TIP3    H227004   2.832   3.969   2.529  0.1007 -0.4580  1.5148
 9014TIP3   OH227005   6.810   2.807   0.073 -0.4105  0.2545  0.3313
 9014TIP3    H127006   6.751   2.882   0.061 -1.5290 -0.9123 -2.1351
 9014TIP3    H227007   6.752   2.731   0.073  0.8682 -0.7566  0.9107
 9015TIP3   OH227008   4.623   3.764   5.054 -0.6468 -0.1213 -0.2559
 9015TIP3    H127009   4.701   3.801   5.012 -1.2836 -0.4358 -1.7935
 9015TIP3    H227010   4.657   3.701   5.118  0.3660 -0.7044 -1.3274
 9016TIP3   OH227011   0.362   4.280   4.671 -0.1668  0.2204 -0.4192
 9016TIP3    H127012   0.437   4.228   4.700  0.3519  1.5020  0.5959
 9016TIP3    H227013   0.363   4.272   4.575  0.7297 -0.4709 -0.3650
 9017TIP3   OH227014   3.765   6.092   3.843  0.3477  0.2017 -0.4442
 9017TIP3    H127015   3.684   6.099   3.893  0.4432  0.7770 -0.3569
 9017TIP3    H227016   3.739   6.109   3.752  0.4851  1.1707 -0.3122
 9018TIP3   OH227017   1.404   0.820  -0.004 -0.2911  0.4449  0.5768
 9018TIP3    H127018   1.378   0.789   0.083 -0.6590  0.1731  0.3747
 9018TIP3    H227019   1.334   0.881  -0.029  0.0394  0.8564  0.6540
 9019TIP3   OH227020   0.030   0.387   1.336 -0.3774 -0.4332 -1.0535
 9019TIP3    H127021  -0.011   0.380   1.249 -1.5155  1.2491 -0.6777
 9019TIP3    H227022   0.115   0.427   1.318  0.0130 -1.4152 -1.5216
 9020TIP3   OH227023   1.654   1.055   5.580 -0.6394  0.2339 -0.0460
 9020TIP3    H127024   1.642   1.118   5.651 -0.4261  1.5859 -1.1785
 9020TIP3    H227025   1.744   1.026   5.588 -0.9827 -0.6213  1.0029
 9021TIP3   OH227026   2.846   3.569   0.437 -0.3248 -0.1513 -0.0613
 9021TIP3    H127027   2.886   3.488   0.408  1.5132  0.8116 -0.3471
 9021TIP3    H227028   2.882   3.636   0.379  0.6995  1.3200  2.1479
 9022TIP3   OH227029   4.858   4.485   2.558  0.9247  0.0488  0.0745
 9022TIP3    H127030   4.766   4.472   2.581  1.2635  0.1674  1.5816
 9022TIP3    H227031   4.879   4.572   2.591  1.8454 -0.3747  0.6368
 9023TIP3   OH227032   4.042   6.750   1.969 -0.0698 -0.8296 -0.6420
 9023TIP3    H127033   4.128   6.709   1.967 -0.1941 -1.0910 -0.7818
 9023TIP3    H227034   3.985   6.684   2.009 -0.2272 -0.7045 -0.6586
 9024TIP3   OH227035   7.010   3.099   3.969  0.0740 -0.4327  0.3588
 9024TIP3    H127036   7.065   3.021   3.980 -1.5872 -1.4633  1.8338
 9024TIP3    H227037   7.056   3.167   4.018  1.2265 -0.6232 -0.4200
 9025TIP3   OH227038   0.816   3.406   0.554  0.3425  0.0205  0.3131
 9025TIP3    H127039   0.900   3.360   0.556 -0.6898 -2.1008  3.1390
 9025TIP3    H227040   0.763   3.356   0.492 -0.0237 -1.2662  1.5931
 9026TIP3   OH227041   0.015   6.776   3.694 -0.2973  0.9353  0.0098
 9026TIP3    H127042   0.010   6.681   3.682 -1.0405  0.6617  2.1645
 9026TIP3    H227043   0.108   6.796   3.688 -0.1995  0.2437 -1.3783
 9027TIP3   OH227044   4.764   3.611   5.793 -0.2167 -0.2510  0.2773
 9027TIP3    H127045   4.701   3.553   5.750  0.6820 -0.3835 -0.9029
 9027TIP3    H227046   4.728   3.699   5.781 -1.0599 -0.4439  1.1818
 9028TIP3   OH227047   0.349   5.494   4.131 -0.0257 -0.1870  0.2003
 9028TIP3    H127048   0.300   5.432   4.185 -2.4985  1.5284  0.1069
 9028TIP3    H227049   0.345   5.457   4.043 -0.3387 -0.5565  0.3656
 9029TIP3   OH227050   5.274   1.629   2.405 -1.3289 -0.4644  0.3417
 9029TIP3    H127051   5.288   1.712   2.360 -0.8128 -0.6735  0.1016
 9029TIP3    H227052   5.256   1.566   2.335 -3.8053 -0.1814  0.6469
 9030TIP3   OH227053   5.493   3.789   0.915 -0.1182  0.3309  0.1264
 9030TIP3    H127054   5.462   3.717   0.859 -0.9064  0.0396  0.9098
 9030TIP3    H227055   5.587   3.774   0.923 -0.2352 -0.4794  0.0917
 9031TIP3   OH227056   0.520   5.217   1.775  0.7438  0.1803  0.0039
 9031TIP3    H127057   0.607   5.177   1.783  0.6055  0.1538  1.6457
 9031TIP3    H227058   0.483   5.212   1.863 -1.6275 -1.3981 -0.9701
 9032TIP3   OH227059   0.863   0.370   3.475  0.3751  0.6393  0.4400
 9032TIP3    H127060   0.784   0.410   3.438  0.7984  1.3051  0.2572
 9032TIP3    H227061   0.906   0.440   3.523  0.6782  0.1875  0.8407
 9033TIP3   OH227062   1.933   4.719   1.546 -0.1082  0.6500 -0.1182
 9033TIP3    H127063   1.901   4.782   1.480 -2.0622  0.8610  0.9584
 9033TIP3    H227064   1.867   4.650   1.547  1.2185 -0.6625 -0.1512
 9034TIP3   OH227065   4.730   4.274   1.733  0.1379 -0.1270  0.2675
 9034TIP3    H127066   4.648   4.323   1.736  1.2790  1.8598  0.2316
 9034TIP3    H227067   4.771   4.289   1.818  0.7467 -0.6340  0.0761
 9035TIP3   OH227068   4.800   6.487   1.761 -1.1161  0.6151 -0.3483
 9035TIP3    H127069   4.850   6.410   1.788 -1.6082  0.5879  0.5466
 9035TIP3    H227070   4.772   6.468   1.672  0.1512  0.4789 -0.7317
 9036TIP3   OH227071   6.987   0.592   0.552 -0.2268 -0.0265 -0.3532
 9036TIP3    H127072   7.043   0.660   0.590 -0.7980 -0.1540  0.7517
 9036TIP3    H227073   6.902   0.634   0.540 -0.1906 -0.1345 -1.0515
 9037TIP3   OH227074   4.197   1.091   3.792 -0.1306 -0.4641  0.5907
 9037TIP3    H127075   4.282   1.079   3.836 -1.2158  0.2091  3.0464
 9037TIP3    H227076   4.174   1.004   3.761  0.8398 -0.9254  1.1066
 9038TIP3   OH227077   3.881   2.449   2.114 -0.5012  0.5572  0.1650
 9038TIP3    H127078   3.976   2.435   2.118  0.0577  2.9622 -2.0512
 9038TIP3    H227079   3.870   2.516   2.047 -3.7734  0.6762  0.6888
 9039TIP3   OH227080   2.623   0.257   1.781  0.0718  0.0827  0.7672
 9039TIP3    H127081   2.528   0.252   1.792 -0.1567  0.5837 -0.7793
 9039TIP3    H227082   2.656   0.186   1.836 -1.4742 -2.7133 -1.5620
 9040TIP3   OH227083   0.564   3.305  -0.033 -0.1479  0.7806  0.0414
 9040TIP3    H127084   0.572   3.212  -0.011 -1.1310  0.0612 -2.3481
 9040TIP3    H227085   0.581   3.350   0.050  0.9842 -1.4784  1.1418
 9041TIP3   OH227086   3.568   2.395   3.111 -0.6077 -0.1799 -0.7082
 9041TIP3    H127087   3.539   2.432   3.195 -0.0109  2.2289 -1.4921
 9041TIP3    H227088   3.660   2.422   3.104  0.3240 -3.0085 -0.7841
 9042TIP3   OH227089   4.394   2.561   0.655  0.2155  0.5189 -0.0466
 9042TIP3    H127090   4.481   2.601   0.653 -0.2693  1.6983  1.0589
 9042TIP3    H227091   4.396   2.499   0.728  0.2925  0.1310 -0.3746
 9043TIP3   OH227092   5.661   2.843   5.686  0.2410  0.0928  0.2100
 9043TIP3    H127093   5.639   2.873   5.774 -0.1264  0.9094 -0.1488
 9043TIP3    H227094   5.635   2.915   5.629  0.8612 -0.2545 -0.5312
 9044TIP3   OH227095   2.932   5.800   3.585  0.0337 -0.0908 -0.2401
 9044TIP3    H127096   2.914   5.714   3.548 -0.6639  0.2461 -0.7058
 9044TIP3    H227097   3.025   5.815   3.565 -0.5668  0.5624 -2.9553
 9045TIP3   OH227098   6.841   1.191   4.613  0.3026 -0.2648  0.2988
 9045TIP3    H127099   6.827   1.138   4.535  1.6153 -1.2319  0.6963
 9045TIP3    H227100   6.876   1.130   4.678  0.1798  0.7330  1.3344
 9046TIP3   OH227101   0.085   6.289   3.977  0.1223 -0.7701 -0.2961
 9046TIP3    H127102   0.136   6.363   3.944 -0.3637 -0.4569 -0.3573
 9046TIP3    H227103   0.047   6.249   3.898 -2.6099  1.1159 -0.0934
 9047TIP3   OH227104   5.261   4.297   0.119 -0.1052 -0.1373  0.4811
 9047TIP3    H127105   5.227   4.304   0.030  1.4433  0.5810 -0.0798
 9047TIP3    H227106   5.224   4.215   0.152 -0.9508 -0.2578 -0.6961
 9048TIP3   OH227107   2.579   4.555   0.173 -0.0896 -0.4714  0.3434
 9048TIP3    H127108   2.669   4.586   0.169  0.2560 -1.4959 -0.1589
 9048TIP3    H227109   2.572   4.492   0.101 -1.4394  0.1740 -0.1260
 9049TIP3   OH227110   4.968   1.462   1.937 -0.3346 -0.2136 -0.2120
 9049TIP3    H127111   4.873   1.454   1.945 -0.2495 -1.0874  0.0268
 9049TIP3    H227112   4.994   1.388   1.882  0.4937 -1.6113  1.9404
 9050TIP3   OH227113   0.348   4.381   4.994 -0.1576  0.0334  0.3119
 9050TIP3    H127114   0.295   4.444   5.043 -0.3437  0.0426  0.0973
 9050TIP3    H227115   0.290   4.348   4.926 -0.4698 -1.2852  1.1753
 9051TIP3   OH227116   2.804   5.095   1.061 -0.2964 -0.2898 -0.4602
 9051TIP3    H127117   2.792   5.190   1.053  0.3732 -0.2536 -1.1150
 9051TIP3    H227118   2.897   5.081   1.046 -0.4181 -1.0694 -0.5272
 9052TIP3   OH227119   4.292   0.730   3.222 -0.3272 -0.2101  0.1734
 9052TIP3    H127120   4.243   0.778   3.290 -0.4072  0.7700 -0.5529
 9052TIP3    H227121   4.224   0.692   3.166 -0.2595  0.0392 -0.0787
 9053TIP3   OH227122   3.017   5.171   1.327  0.3133  0.0428  0.1187
 9053TIP3    H127123   3.100   5.164   1.279 -0.0662 -0.7505 -0.4523
 9053TIP3    H227124   2.998   5.265   1.329  1.2329  0.2364  0.2806
 9054TIP3   OH227125   4.833   1.605   3.656 -0.0109  0.1319  0.3387
 9054TIP3    H127126   4.803   1.673   3.717  2.2941  0.1199  1.5931
 9054TIP3    H227127   4.912   1.642   3.616  1.0104 -1.5931  0.6741
 9055TIP3   OH227128   5.238   3.254   2.394  0.1149  0.6585  0.3357
 9055TIP3    H127129   5.175   3.293   2.455  0.3933  1.8002 -0.0896
 9055TIP3    H227130   5.198   3.263   2.308  0.6227  0.8893  0.1225
 9056TIP3   OH227131   4.712   6.326   3.423  0.2335 -0.3128 -0.1194
 9056TIP3    H127132   4.647   6.263   3.392 -2.8604  1.3860  2.2990
 9056TIP3    H227133   4.707   6.321   3.519  1.4132  2.1131  0.1508
 9057TIP3   OH227134   6.853   4.303   1.130  0.0934 -0.5551  0.0134
 9057TIP3    H127135   6.822   4.225   1.086 -1.3351  0.4003 -0.7280
 9057TIP3    H227136   6.776   4.340   1.173  0.5285  0.9365 -0.4082
 9058TIP3   OH227137   1.557   0.044   0.287 -0.1593 -0.3446 -0.3579
 9058TIP3    H127138   1.569   0.060   0.381  1.9207  0.1708 -0.6454
 9058TIP3    H227139   1.507  -0.037   0.283 -2.0886  0.6867  1.1680
 9059TIP3   OH227140   5.754   6.683   0.613  0.2340  0.5104  0.4918
 9059TIP3    H127141   5.694   6.657   0.683  0.7528 -0.6840  0.5135
 9059TIP3    H227142   5.762   6.778   0.622 -1.4613  0.6570  0.6272
 9060TIP3   OH227143   4.060   1.332   2.854 -0.3182  0.0862 -0.0823
 9060TIP3    H127144   4.064   1.427   2.867 -1.8175  0.5608 -2.4066
 9060TIP3    H227145   4.009   1.300   2.929  0.2234  1.0810  0.7403
 9061TIP3   OH227146   0.923   2.321   2.116  0.5929 -0.5752  0.0938
 9061TIP3    H127147   0.841   2.286   2.150  0.7846 -0.8291  0.2977
 9061TIP3    H227148   0.897   2.399   2.067  0.3220 -0.1195  0.9306
 9062TIP3   OH227149   7.154   2.181   1.659 -0.1692 -0.1287  0.0413
 9062TIP3    H127150   7.239   2.183   1.702 -0.5150  1.9172  0.7515
 9062TIP3    H227151   7.092   2.207   1.728 -0.6797  3.9441 -1.6737
 9063TIP3   OH227152   0.372   4.009   0.423 -0.4743  0.4778  0.1508
 9063TIP3    H127153   0.370   4.076   0.491 -1.4632 -0.9247  1.5858
 9063TIP3    H227154   0.447   3.954   0.445  0.3519  1.0708 -1.0362
 9064TIP3   OH227155   1.100   3.955   3.096 -0.1112  0.2718  0.7135
 9064TIP3    H127156   1.015   3.964   3.138  0.8565  0.5747  2.7372
 9064TIP3    H227157   1.092   4.002   3.013 -1.9636  0.0737  0.7503
 9065TIP3   OH227158   0.360   5.700   3.940 -0.4846  0.6563 -0.2713
 9065TIP3    H127159   0.366   5.633   4.009 -2.8168  0.7973  0.1322
 9065TIP3    H227160   0.367   5.783   3.986  1.1919  0.7660 -0.6401
 9066TIP3   OH227161   3.930   0.877   4.348  0.7903 -0.3901  0.3314
 9066TIP3    H127162   3.980   0.892   4.428 -1.7982 -0.2303  2.0354
 9066TIP3    H227163   3.926   0.963   4.305  2.8037 -0.6268 -0.4291
 9067TIP3   OH227164   2.420   6.451   5.257 -0.6880 -0.2251 -0.2453
 9067TIP3    H127165   2.442   6.484   5.344  1.7380  1.3716 -1.3409
 9067TIP3    H227166   2.478   6.376   5.245 -0.2680  0.1757 -0.8136
 9068TIP3   OH227167   1.530   1.437   0.546  0.2224 -0.1220 -0.5320
 9068TIP3    H127168   1.539   1.418   0.640 -0.5947  0.4202 -0.3321
 9068TIP3    H227169   1.529   1.351   0.505 -0.5260 -0.4165  0.0733
 9069TIP3   OH227170   6.357   3.844   5.147 -0.1473 -0.0981 -0.1569
 9069TIP3    H127171   6.327   3.799   5.226  2.0441 -0.9969  0.2339
 9069TIP3    H227172   6.335   3.936   5.162 -1.0857 -0.4624  0.8301
 9070TIP3   OH227173   7.048   5.451   1.716  0.5050 -0.0230 -0.2768
 9070TIP3    H127174   6.992   5.396   1.662  2.2112 -1.6518 -0.4999
 9070TIP3    H227175   7.065   5.528   1.662 -0.1398 -0.2993 -0.8795
 9071TIP3   OH227176   1.848   3.108   3.126 -0.1744 -0.4251 -0.1695
 9071TIP3    H127177   1.883   3.197   3.134 -0.0158 -0.5600  0.7262
 9071TIP3    H227178   1.782   3.102   3.195  0.0844 -1.1295  0.0224
 9072TIP3   OH227179   3.745   2.533   4.006  0.3217 -0.2449 -0.0442
 9072TIP3    H127180   3.693   2.597   4.054  2.4378 -0.5076  2.8620
 9072TIP3    H227181   3.681   2.469   3.974 -1.5240  1.7638 -0.5630
 9073TIP3   OH227182   5.764   5.295   0.609  0.3294  0.1087  0.2723
 9073TIP3    H127183   5.847   5.268   0.649  0.1505 -1.7633 -0.5134
 9073TIP3    H227184   5.713   5.214   0.602 -1.9307  1.3317  1.4885
 9074TIP3   OH227185   1.067   0.420   0.367  0.8025 -0.2087  0.5010
 9074TIP3    H127186   1.133   0.359   0.401 -0.0862 -1.3870  0.1983
 9074TIP3    H227187   1.008   0.434   0.440  0.0732 -1.0601  0.0927
 9075TIP3   OH227188   2.709   1.651   2.768  0.0802  0.3628 -0.0513
 9075TIP3    H127189   2.794   1.614   2.744 -0.5023  0.1627 -1.9876
 9075TIP3    H227190   2.727   1.741   2.793  1.0689 -0.1874  1.3310
 9076TIP3   OH227191   6.599   6.498   3.530 -0.1665  0.1376  0.3566
 9076TIP3    H127192   6.514   6.496   3.484  1.0230 -1.5397 -2.0103
 9076TIP3    H227193   6.585   6.444   3.608 -1.7711  1.5270  1.0964
 9077TIP3   OH227194   3.977   0.428   0.734 -0.1175 -0.7736  0.1672
 9077TIP3    H127195   4.022   0.356   0.690 -0.2882 -0.8378  0.0960
 9077TIP3    H227196   4.047   0.478   0.776  0.0718 -0.5500 -0.4142
 9078TIP3   OH227197   1.175   5.687   4.475 -0.1997  0.1051 -0.0421
 9078TIP3    H127198   1.133   5.668   4.559  0.2530 -0.6956  0.0196
 9078TIP3    H227199   1.130   5.630   4.412 -0.2412  0.3778 -0.2612
 9079TIP3   OH227200   0.675   3.837   4.139 -0.1891 -0.1791  0.1663
 9079TIP3    H127201   0.633   3.891   4.072 -2.4095  0.4716  1.9403
 9079TIP3    H227202   0.737   3.895   4.182 -1.2891  0.5128  0.8904
 9080TIP3   OH227203   4.326   1.327   0.357  0.0794 -0.0561 -0.0542
 9080TIP3    H127204   4.386   1.399   0.377  0.9144 -0.6123 -0.4993
 9080TIP3    H227205   4.258   1.334   0.424 -0.5221  1.8734 -0.8095
 9081TIP3   OH227206   4.145   5.901   0.716 -0.4745  0.2411 -0.2269
 9081TIP3    H127207   4.180   5.854   0.791  0.7758  2.9637  1.0515
 9081TIP3    H227208   4.180   5.856   0.639 -0.1425 -1.3973  0.8543
 9082TIP3   OH227209   2.702   2.830   1.427  0.1800 -0.0933 -0.0450
 9082TIP3    H127210   2.739   2.802   1.511 -0.6111  0.6863  0.5892
 9082TIP3    H227211   2.761   2.897   1.395 -1.1623  1.9571  1.5033
 9083TIP3   OH227212   0.157   5.310   5.843 -0.0136  0.2702 -0.2264
 9083TIP3    H127213   0.079   5.302   5.789 -0.2812 -0.2907  0.2311
 9083TIP3    H227214   0.130   5.278   5.929  0.7864 -0.1652 -0.1292
 9084TIP3   OH227215   6.487   0.639   5.344  0.0061  0.5201  0.7449
 9084TIP3    H127216   6.462   0.564   5.397 -1.1234  0.7996  0.6279
 9084TIP3    H227217   6.406   0.688   5.331  0.8183  2.1332  1.3856
 9085TIP3   OH227218   0.438   5.480   2.237 -0.1743 -0.6434 -0.3705
 9085TIP3    H127219   0.454   5.563   2.192 -1.0983  0.0616  0.5476
 9085TIP3    H227220   0.447   5.414   2.169 -2.3565  0.4386 -1.8451
 9086TIP3   OH227221   5.442   2.540   2.627  0.0160 -0.0524  0.1185
 9086TIP3    H127222   5.382   2.532   2.701  0.3376 -0.8661  0.2979
 9086TIP3    H227223   5.451   2.450   2.594  2.5383 -0.2940  1.2083
 9087TIP3   OH227224   6.184   0.390   5.153 -0.1192  0.3009  0.2010
 9087TIP3    H127225   6.195   0.295   5.146 -2.4519 -0.1463  1.6892
 9087TIP3    H227226   6.175   0.420   5.062  1.9858 -0.6479 -0.3838
 9088TIP3   OH227227   1.153   1.121   4.879 -0.4055 -0.0496  0.1027
 9088TIP3    H127228   1.248   1.134   4.881 -0.5337  0.9878  0.0781
 9088TIP3    H227229   1.122   1.162   4.960 -0.7694 -0.9959  0.4491
 9089TIP3   OH227230   5.231   6.480   4.451  0.0370  0.1474 -0.2993
 9089TIP3    H127231   5.172   6.535   4.399 -0.5348 -1.3103 -1.2546
 9089TIP3    H227232   5.184   6.397   4.462  1.3589 -0.5867  0.0514
 9090TIP3   OH227233   5.205   2.571   4.501  0.3161 -0.5471  0.2699
 9090TIP3    H127234   5.224   2.478   4.488  1.6337 -0.1729 -0.7087
 9090TIP3    H227235   5.189   2.604   4.413 -1.7475 -0.1294  0.7481
 9091TIP3   OH227236   0.819   1.293   4.576 -0.5616  0.4295 -0.6004
 9091TIP3    H127237   0.844   1.204   4.599  0.4138  0.7642 -0.3065
 9091TIP3    H227238   0.901   1.337   4.558 -1.1143  0.9148 -2.1259
 9092TIP3   OH227239   1.257   0.218   0.476  0.4278  0.0082 -0.1495
 9092TIP3    H127240   1.326   0.195   0.539 -0.0654 -0.2577  0.3070
 9092TIP3    H227241   1.302   0.225   0.392  0.9487 -0.5321  0.0777
 9093TIP3   OH227242   4.680   2.961   2.997 -0.3576 -0.4558  0.0357
 9093TIP3    H127243   4.659   2.928   2.910  0.9861  1.6913 -1.2026
 9093TIP3    H227244   4.671   2.885   3.054 -0.8626 -2.0509 -2.0287
 9094TIP3   OH227245   1.625   3.931   4.799  0.3868  0.7275  0.2868
 9094TIP3    H127246   1.548   3.896   4.843  0.6935 -1.3986 -0.7826
 9094TIP3    H227247   1.685   3.954   4.871 -0.3995  0.4607  1.0534
 9095TIP3   OH227248   2.298   2.842   0.076 -0.4095 -0.3162 -0.2568
 9095TIP3    H127249   2.210   2.821   0.044 -0.6776  0.1616  0.1364
 9095TIP3    H227250   2.351   2.767   0.052 -0.8500 -0.4614 -0.8114
 9096TIP3   OH227251   3.680   3.157   4.179  0.0720 -0.0184 -0.0551
 9096TIP3    H127252   3.730   3.159   4.260 -0.3163  0.8103  0.1776
 9096TIP3    H227253   3.614   3.226   4.190  0.7893  0.9646 -1.5600
 9097TIP3   OH227254   3.386   0.270   0.209 -0.0170  0.5372  0.0314
 9097TIP3    H127255   3.390   0.240   0.299 -0.2608  1.9426  0.5324
 9097TIP3    H227256   3.344   0.198   0.162 -1.7617  0.5797  1.4153
 9098TIP3   OH227257   6.443   1.397   2.005  0.2913 -0.0047 -0.1609
 9098TIP3    H127258   6.474   1.484   1.981 -0.6042  0.8128  1.4322
 9098TIP3    H227259   6.353   1.394   1.972  0.0220  0.0327  0.5534
 9099TIP3   OH227260   6.561   3.328   5.156  0.0906 -0.2636 -0.0710
 9099TIP3    H127261   6.626   3.396   5.170 -0.6357 -0.0046  2.7826
 9099TIP3    H227262   6.493   3.345   5.222 -1.1821 -2.4760 -0.6822
 9100TIP3   OH227263   6.959   5.545   2.139  0.2015  0.8183  0.3912
 9100TIP3    H127264   6.907   5.600   2.198 -0.0568  0.0178  0.9198
 9100TIP3    H227265   6.941   5.455   2.167 -1.0080  0.2955 -1.7471
 9101TIP3   OH227266   2.522   5.941   5.610 -0.0002 -0.0815  0.2186
 9101TIP3    H127267   2.452   5.941   5.675 -0.0553 -1.1817  0.1806
 9101TIP3    H227268   2.493   5.877   5.544  0.6790  0.0297 -0.1962
 9102TIP3   OH227269   6.282   0.973   0.622 -0.1922 -0.1477 -0.2690
 9102TIP3    H127270   6.234   1.019   0.553 -1.4309 -1.1284 -0.1067
 9102TIP3    H227271   6.228   0.986   0.700 -0.5648 -1.8205 -0.2211
 9103TIP3   OH227272   1.635   0.179   3.698 -0.0047 -0.4866 -0.1793
 9103TIP3    H127273   1.720   0.139   3.681  0.3977 -0.0237  0.6876
 9103TIP3    H227274   1.578   0.104   3.719  0.7676 -0.6503  1.5187
 9104TIP3   OH227275   6.641   1.971   1.461 -0.3149 -0.0661  0.6089
 9104TIP3    H127276   6.735   1.973   1.440 -0.6584 -1.1379 -1.3232
 9104TIP3    H227277   6.598   1.991   1.378 -1.8090 -1.3201  1.0392
 9105TIP3   OH227278   2.212   1.018   5.771  0.6364  0.0458  0.3104
 9105TIP3    H127279   2.156   1.088   5.805  0.9186 -0.0003  0.8782
 9105TIP3    H227280   2.165   0.985   5.695  0.8943  1.4102 -0.4804
 9106TIP3   OH227281   1.298   0.003   1.753  0.0490  0.4045 -0.1668
 9106TIP3    H127282   1.255  -0.014   1.669  1.2022  2.5138 -1.2391
 9106TIP3    H227283   1.225   0.017   1.814 -0.7964 -0.6949 -0.8697
 9107TIP3   OH227284   1.056   0.413   2.308  0.1277  0.2694  0.3574
 9107TIP3    H127285   1.027   0.402   2.399 -1.5937 -1.7457 -0.3593
 9107TIP3    H227286   1.073   0.507   2.300 -0.2565  0.5805  2.5953
 9108TIP3   OH227287   2.222   6.467   3.049  0.4496 -0.1992  0.4435
 9108TIP3    H127288   2.138   6.485   3.005  0.4772 -2.9036 -0.9424
 9108TIP3    H227289   2.196   6.432   3.135  0.2714  1.3558  1.0463
 9109TIP3   OH227290   0.682   1.595   1.530 -0.1769 -0.2430 -0.1660
 9109TIP3    H127291   0.710   1.510   1.566  1.0525  0.5338  0.8201
 9109TIP3    H227292   0.735   1.659   1.577 -0.5806  1.0414 -1.3912
 9110TIP3   OH227293   2.283   4.390   3.741 -0.2042 -0.8737 -0.8413
 9110TIP3    H127294   2.240   4.312   3.776 -0.7536 -0.5801 -0.8699
 9110TIP3    H227295   2.235   4.410   3.661 -0.8376  0.2184 -0.1979
 9111TIP3   OH227296   2.384   6.179   3.816 -0.6389  0.5563 -0.4729
 9111TIP3    H127297   2.371   6.225   3.899  2.1482 -1.8228  1.5209
 9111TIP3    H227298   2.434   6.239   3.762 -0.7662  1.4291  0.3601
 9112TIP3   OH227299   6.898   1.935   2.613  0.0953 -0.0349 -0.1467
 9112TIP3    H127300   6.949   1.876   2.558  0.2601  1.1206 -1.2827
 9112TIP3    H227301   6.942   1.933   2.698  1.0161 -0.3492 -0.6150
 9113TIP3   OH227302   4.108   0.863   4.587  0.5375  0.2911 -0.0365
 9113TIP3    H127303   4.198   0.893   4.598  1.0187 -0.5833 -1.3520
 9113TIP3    H227304   4.114   0.768   4.584 -0.5725  0.1716  0.9206
 9114TIP3   OH227305   2.932   6.693   2.028  0.0563 -1.0879 -0.5016
 9114TIP3    H127306   2.865   6.680   1.961 -1.2677 -1.3186  0.8176
 9114TIP3    H227307   2.963   6.605   2.048 -0.3308 -1.1262 -0.0539
 9115TIP3   OH227308   1.717   6.708   3.658 -0.4457 -0.1147 -0.3070
 9115TIP3    H127309   1.764   6.767   3.717 -1.2545 -0.2143  0.4443
 9115TIP3    H227310   1.753   6.622   3.677 -0.8856 -0.1848  0.2398
 9116TIP3   OH227311   5.814   0.727   0.869  0.0318  0.0771  0.5891
 9116TIP3    H127312   5.838   0.767   0.952  0.9494 -2.4902  1.6424
 9116TIP3    H227313   5.862   0.644   0.867 -2.7827 -1.6664 -0.7930
 9117TIP3   OH227314   3.005   1.684   4.308  0.0767 -0.1318  0.0569
 9117TIP3    H127315   3.096   1.711   4.308  0.4907 -1.3979 -0.7172
 9117TIP3    H227316   2.959   1.751   4.357  1.4722  0.3739  0.7105
 9118TIP3   OH227317   6.633   3.844   0.887 -0.1855  0.5055  0.0634
 9118TIP3    H127318   6.615   3.854   0.794 -0.7771  0.6289  0.1912
 9118TIP3    H227319   6.567   3.782   0.919  1.1951 -1.0623  0.0208
 9119TIP3   OH227320   0.339   2.345   3.310  0.3773 -0.0166  0.7018
 9119TIP3    H127321   0.246   2.330   3.293  0.2080  1.4640  0.2027
 9119TIP3    H227322   0.357   2.295   3.390 -1.0932  0.4514  1.3604
 9120TIP3   OH227323   0.412   5.130   3.111 -0.2865  0.3824 -0.4156
 9120TIP3    H127324   0.445   5.074   3.041 -0.3245  0.7641 -0.7478
 9120TIP3    H227325   0.404   5.073   3.187  4.4752  0.8948  0.7787
 9121TIP3   OH227326   2.826   5.282   4.738 -0.0318  0.8618  0.2265
 9121TIP3    H127327   2.804   5.370   4.709 -1.8230  0.5434  0.4468
 9121TIP3    H227328   2.896   5.294   4.802  2.2157  1.7754 -2.2191
 9122TIP3   OH227329   0.841   0.540   2.026 -0.3367 -0.3667 -0.3499
 9122TIP3    H127330   0.825   0.498   2.110 -0.8779  0.8074  0.1591
 9122TIP3    H227331   0.907   0.607   2.044 -1.8973  1.2803 -0.3539
 9123TIP3   OH227332   5.233   0.468   3.992 -0.0958  0.6753  0.2401
 9123TIP3    H127333   5.216   0.559   4.017 -1.7298  0.6262 -0.5641
 9123TIP3    H227334   5.248   0.472   3.897  2.0831  0.3560  0.5168
 9124TIP3   OH227335   5.306   2.168   2.049  0.1206  0.2817  0.4013
 9124TIP3    H127336   5.251   2.092   2.032  0.1817  0.2844  0.1896
 9124TIP3    H227337   5.249   2.228   2.098 -0.2124  0.4791 -0.2203
 9125TIP3   OH227338   5.032   6.534   5.547 -0.5114 -0.2209 -0.1661
 9125TIP3    H127339   5.125   6.517   5.529 -0.3991  1.5535 -1.5591
 9125TIP3    H227340   4.987   6.505   5.468 -1.1803 -1.1131  0.5245
 9126TIP3   OH227341   0.453   0.863   2.263 -0.3960 -0.1171  0.0951
 9126TIP3    H127342   0.469   0.789   2.322  0.8178 -0.1636 -0.2649
 9126TIP3    H227343   0.392   0.829   2.198 -1.2380 -0.2617  0.9306
 9127TIP3   OH227344   4.021   6.440   0.094  0.1275  0.5533 -0.1666
 9127TIP3    H127345   3.966   6.487   0.030  0.5295  0.8336 -0.3068
 9127TIP3    H227346   4.071   6.378   0.041  0.6495  0.9642 -0.1522
 9128TIP3   OH227347   0.252   1.339   4.734 -0.4038 -0.1053 -0.2613
 9128TIP3    H127348   0.213   1.316   4.818 -0.7466 -1.0431 -0.6506
 9128TIP3    H227349   0.341   1.304   4.738 -0.2377  0.3317 -0.0903
 9129TIP3   OH227350   5.243   3.299   0.821 -0.2019  0.0010 -0.1602
 9129TIP3    H127351   5.233   3.263   0.910 -0.4278 -0.7632 -0.4906
 9129TIP3    H227352   5.325   3.262   0.789  0.6240  1.3966  0.2383
 9130TIP3   OH227353   2.237   2.781   1.269 -0.1999  0.3574  0.4705
 9130TIP3    H127354   2.208   2.828   1.191  0.1319  1.2606  0.8657
 9130TIP3    H227355   2.326   2.814   1.285 -0.6338  0.9583  1.7927
 9131TIP3   OH227356   5.713   5.849   5.278 -0.3185  0.0316  0.4842
 9131TIP3    H127357   5.809   5.855   5.279 -0.2621  0.5124 -1.7369
 9131TIP3    H227358   5.684   5.940   5.275 -0.7004 -0.1140 -1.4832
 9132TIP3   OH227359   0.726   5.585   0.350  0.1836 -0.4575 -0.4003
 9132TIP3    H127360   0.671   5.659   0.375  0.4329 -0.5318  0.3717
 9132TIP3    H227361   0.708   5.573   0.256 -0.3312  0.1731 -0.3889
 9133TIP3   OH227362   3.749   3.773   0.449  0.1322 -0.0710 -0.0530
 9133TIP3    H127363   3.789   3.730   0.374  0.5320 -0.9769  0.6679
 9133TIP3    H227364   3.682   3.830   0.411 -1.5021 -2.4410 -0.9682
 9134TIP3   OH227365   3.654   3.091   5.253 -0.7561  0.0052  0.2431
 9134TIP3    H127366   3.645   3.058   5.343 -1.5951 -2.4741 -0.6772
 9134TIP3    H227367   3.740   3.132   5.252  1.7861 -4.6185  0.9160
 9135TIP3   OH227368   3.009   3.832   1.001  0.7280  0.0486 -0.0386
 9135TIP3    H127369   3.033   3.746   1.037 -1.5669  0.5351  3.0533
 9135TIP3    H227370   2.984   3.813   0.910 -0.1241 -2.6534  0.6643
 9136TIP3   OH227371   5.171   1.606   1.187 -0.1681 -0.6312 -0.5579
 9136TIP3    H127372   5.196   1.513   1.192 -0.2524 -0.7074 -1.4536
 9136TIP3    H227373   5.192   1.632   1.097 -0.6896  0.0641 -0.4865
 9137TIP3   OH227374   0.337   6.244   3.399 -0.2351  0.0334 -0.5212
 9137TIP3    H127375   0.380   6.322   3.434 -0.0923 -0.2170 -0.1212
 9137TIP3    H227376   0.410   6.185   3.378 -0.3566 -0.1295 -0.4835
 9138TIP3   OH227377   6.707   4.729   4.356 -0.1868 -0.2950 -0.2482
 9138TIP3    H127378   6.749   4.795   4.301  1.0095 -1.3015 -0.6015
 9138TIP3    H227379   6.780   4.686   4.401 -1.0456 -0.4452  1.0446
 9139TIP3   OH227380   4.411   5.054   3.962 -0.0413 -0.3529  0.2662
 9139TIP3    H127381   4.335   5.002   3.989 -0.6515  0.4375  0.1220
 9139TIP3    H227382   4.373   5.138   3.934  0.8714 -0.0235 -0.0024
 9140TIP3   OH227383   0.446   3.738   5.118 -0.3188  0.2862 -0.6683
 9140TIP3    H127384   0.467   3.748   5.025  1.2149  0.2103 -0.3558
 9140TIP3    H227385   0.425   3.827   5.147  0.2198  0.4880 -0.8710
 9141TIP3   OH227386   1.096   5.923   5.195  0.1436 -0.0173 -0.5541
 9141TIP3    H127387   1.035   5.911   5.267 -1.6546  0.3050 -1.9539
 9141TIP3    H227388   1.182   5.932   5.237 -0.6886 -0.9286  1.4435
 9142TIP3   OH227389   6.280   6.422   0.596 -0.5994 -0.1473 -0.2374
 9142TIP3    H127390   6.328   6.348   0.635  0.8724  1.1342  0.4815
 9142TIP3    H227391   6.326   6.500   0.628 -1.6857  1.0739 -1.5363
 9143TIP3   OH227392   5.993   1.061   3.753 -0.0094 -0.0281  0.9063
 9143TIP3    H127393   6.029   0.982   3.712  1.7209  0.8498  0.6437
 9143TIP3    H227394   6.065   1.124   3.749 -2.1990  2.5613 -1.5120
 9144TIP3   OH227395   0.859   6.188   4.235 -0.3173  0.0205  0.4411
 9144TIP3    H127396   0.937   6.205   4.287 -1.2320 -0.8026  2.1454
 9144TIP3    H227397   0.893   6.153   4.152  1.1301 -2.1086  1.8137
 9145TIP3   OH227398   1.351   2.992   0.640  0.2322 -0.2593 -0.1951
 9145TIP3    H127399   1.322   2.979   0.731  1.0791  0.0570  0.1333
 9145TIP3    H227400   1.305   2.924   0.591  1.8678 -2.2726  0.9065
 9146TIP3   OH227401   5.778   1.970   4.267  0.1255  0.1533  0.1262
 9146TIP3    H127402   5.794   1.924   4.184 -0.2090 -0.4593  0.3967
 9146TIP3    H227403   5.857   1.955   4.318  0.7348  1.3230 -0.4210
 9147TIP3   OH227404   1.755   1.170   1.784  0.1949  0.2765  0.2452
 9147TIP3    H127405   1.718   1.213   1.707 -1.6463 -1.4707  0.0876
 9147TIP3    H227406   1.792   1.088   1.751  2.1694  0.8720  0.8014
 9148TIP3   OH227407   5.435   5.240   2.305  0.5732 -0.4571  0.2044
 9148TIP3    H127408   5.480   5.313   2.263  0.8147 -1.6701 -1.7535
 9148TIP3    H227409   5.505   5.189   2.346  0.7157 -0.9719 -0.6608
 9149TIP3   OH227410   2.975   0.722   4.968 -0.3252  0.0335  0.0241
 9149TIP3    H127411   2.945   0.791   5.027  0.0119  1.5214 -1.4976
 9149TIP3    H227412   2.894   0.684   4.933 -0.5152  1.2244 -0.8808
 9150TIP3   OH227413   0.813   2.352   4.164 -0.0153  0.2698  0.2654
 9150TIP3    H127414   0.819   2.399   4.081 -1.7773 -0.8785 -0.5597
 9150TIP3    H227415   0.748   2.401   4.214 -0.1367  0.0435  0.3297
 9151TIP3   OH227416   2.895   1.284   4.346  0.5277  0.1079 -0.0598
 9151TIP3    H127417   2.971   1.227   4.337 -0.1671 -0.8630  0.0449
 9151TIP3    H227418   2.870   1.305   4.255  0.0002 -0.8446 -0.1464
 9152TIP3   OH227419   3.908   0.092   3.663 -0.0195  0.1338  0.1373
 9152TIP3    H127420   3.859   0.094   3.580  0.3355  0.7641 -0.0604
 9152TIP3    H227421   3.981   0.033   3.646  0.4334  0.7839 -0.2215
 9153TIP3   OH227422   7.092   0.488   5.302  0.0441  0.3652  0.4127
 9153TIP3    H127423   7.180   0.505   5.337  0.1490  2.8640 -0.9041
 9153TIP3    H227424   7.091   0.393   5.288  2.8498  0.3284 -0.3062
 9154TIP3   OH227425   6.945   0.401   2.452 -0.4389 -0.1823 -0.0337
 9154TIP3    H127426   6.930   0.459   2.526 -1.3473  0.7993 -0.9519
 9154TIP3    H227427   6.983   0.322   2.490  0.5415  0.8893  1.2776
 9155TIP3   OH227428   4.372   5.826   1.737  0.4048  0.5485 -0.0223
 9155TIP3    H127429   4.435   5.865   1.676  0.2504  0.8206 -0.0059
 9155TIP3    H227430   4.373   5.732   1.715  1.1122  0.4832  0.2428
 9156TIP3   OH227431   6.636   4.991   0.417  0.1021 -0.0213  0.0368
 9156TIP3    H127432   6.567   5.056   0.402 -1.5634 -1.4788  0.9060
 9156TIP3    H227433   6.717   5.037   0.397 -1.0689  1.9671 -0.4740
 9157TIP3   OH227434   3.466   3.398   0.190 -0.4214 -0.3718  0.3444
 9157TIP3    H127435   3.391   3.443   0.151 -1.0939 -0.7947  1.1122
 9157TIP3    H227436   3.486   3.327   0.130 -1.5343 -1.1026  0.8089
 9158TIP3   OH227437   2.955   1.042   0.902 -0.3737 -0.1137  0.1847
 9158TIP3    H127438   2.992   1.077   0.821 -0.6631 -1.1992 -0.4337
 9158TIP3    H227439   3.022   0.981   0.935 -0.6315 -0.3497  0.2763
 9159TIP3   OH227440   6.268   3.539   0.076 -0.1004  0.2012 -0.2782
 9159TIP3    H127441   6.233   3.482   0.145 -0.6366 -0.6553 -1.2261
 9159TIP3    H227442   6.228   3.624   0.093  0.2225  0.1594  0.7932
 9160TIP3   OH227443   4.674   2.481   1.767  0.2489  0.1588  0.4061
 9160TIP3    H127444   4.660   2.387   1.780 -1.2218  0.1133 -1.1325
 9160TIP3    H227445   4.611   2.524   1.825 -2.2949  0.0492 -2.0699
 9161TIP3   OH227446   0.991   4.683   4.680  0.7691 -0.2272 -0.1151
 9161TIP3    H127447   0.923   4.643   4.735  1.0633 -1.4456 -0.5909
 9161TIP3    H227448   0.988   4.776   4.701  0.5684 -0.5901  1.6319
 9162TIP3   OH227449   6.809   2.751   4.271  0.6456  0.8223  0.1043
 9162TIP3    H127450   6.819   2.681   4.206  1.2805  1.8424 -0.9607
 9162TIP3    H227451   6.715   2.764   4.279  0.5603  0.8182 -0.7888
 9163TIP3   OH227452   1.315   4.050   0.656  0.6497 -0.2879 -0.3172
 9163TIP3    H127453   1.331   4.044   0.751  0.2473 -0.2815 -0.2470
 9163TIP3    H227454   1.285   3.963   0.632 -1.0080  0.1924 -0.0978
 9164TIP3   OH227455   6.592   1.189   5.613  0.4281  0.5884 -0.6494
 9164TIP3    H127456   6.513   1.241   5.630 -0.8442 -1.8435  1.6029
 9164TIP3    H227457   6.561   1.112   5.566  1.0254 -1.2606  1.7587
 9165TIP3   OH227458   7.081   3.111   3.710  0.1362 -0.1558  0.2115
 9165TIP3    H127459   7.076   3.072   3.798  0.3749  1.6104  1.0499
 9165TIP3    H227460   7.163   3.160   3.710 -0.6650  1.2498 -0.3923
 9166TIP3   OH227461   3.754   1.911   2.209 -0.2318 -0.2637  0.2303
 9166TIP3    H127462   3.689   1.889   2.142 -1.0298 -0.5656  1.0822
 9166TIP3    H227463   3.837   1.912   2.162 -0.8775  0.4906 -0.9646
 9167TIP3   OH227464   3.381   2.138   2.495  0.3917 -0.7293 -0.0161
 9167TIP3    H127465   3.462   2.110   2.538  0.5134 -1.2707 -0.5784
 9167TIP3    H227466   3.396   2.119   2.402  0.0850  0.2971 -0.2879
 9168TIP3   OH227467   0.830   3.261   2.002 -0.5554  0.4857 -0.1171
 9168TIP3    H127468   0.918   3.287   1.972 -0.9758  0.2825 -1.6512
 9168TIP3    H227469   0.824   3.168   1.977 -0.9367  0.2990  0.6597
 9169TIP3   OH227470   0.412   0.109   4.510  0.4862 -0.0004 -0.3739
 9169TIP3    H127471   0.446   0.198   4.521 -1.6629  0.5878  2.9213
 9169TIP3    H227472   0.456   0.058   4.578  0.2309 -1.0044 -0.9345
 9170TIP3   OH227473   6.801   4.165   1.817 -0.4606  0.3135  0.4996
 9170TIP3    H127474   6.875   4.223   1.832  0.1835 -0.3726  0.0609
 9170TIP3    H227475   6.746   4.175   1.895  0.9132 -0.3854  1.5890
 9171TIP3   OH227476   3.872   4.306   1.819  0.0653 -0.4221 -0.5272
 9171TIP3    H127477   3.961   4.312   1.784 -0.1374 -0.7338 -1.1264
 9171TIP3    H227478   3.821   4.268   1.747 -0.4272 -0.8228  0.0203
 9172TIP3   OH227479   2.090   0.582   5.829 -0.2513 -0.4806  0.1196
 9172TIP3    H127480   2.127   0.635   5.898  0.1776 -1.5414  0.7356
 9172TIP3    H227481   2.156   0.581   5.760  0.5633 -1.7005  0.8771
 9173TIP3   OH227482   0.909   6.639   2.161 -0.3231 -0.3696  0.3977
 9173TIP3    H127483   0.822   6.640   2.121 -0.1396 -2.4161 -0.1932
 9173TIP3    H227484   0.954   6.715   2.124 -1.1713 -0.4940 -0.9631
 9174TIP3   OH227485   0.042   1.956   3.852 -0.1875 -0.3647 -0.3146
 9174TIP3    H127486   0.028   1.965   3.946 -1.4787 -2.1041 -0.2864
 9174TIP3    H227487   0.053   1.862   3.838 -2.4116 -0.4304 -2.1491
 9175TIP3   OH227488   4.305   3.306   3.838 -0.2421  0.3980 -0.2306
 9175TIP3    H127489   4.320   3.339   3.926  1.8254 -1.7328  0.3238
 9175TIP3    H227490   4.381   3.336   3.787  1.6272 -3.0049  0.2537
 9176TIP3   OH227491   1.207   3.639   4.875  0.5227 -0.0341  0.1118
 9176TIP3    H127492   1.189   3.558   4.921  0.4499  0.6300  1.2916
 9176TIP3    H227493   1.303   3.646   4.875  0.5760 -0.5630 -0.8182
 9177TIP3   OH227494   3.904   5.481   3.425 -0.3292 -0.5626 -0.5123
 9177TIP3    H127495   3.822   5.520   3.396 -0.3622 -0.7284 -0.6420
 9177TIP3    H227496   3.968   5.552   3.419 -0.0341 -0.9422 -2.3066
 9178TIP3   OH227497   4.275   4.878   2.500  0.0677  0.7689 -0.0642
 9178TIP3    H127498   4.263   4.837   2.415  0.2857  0.5060  0.0301
 9178TIP3    H227499   4.369   4.895   2.506  0.3082 -0.6531  0.7705
 9179TIP3   OH227500   5.881   5.591   3.220  0.0913  0.5831 -0.4573
 9179TIP3    H127501   5.859   5.570   3.311 -1.8013  1.3668 -0.6697
 9179TIP3    H227502   5.976   5.587   3.216  0.1949 -4.1654  0.3831
 9180TIP3   OH227503   6.007   4.567   3.086  0.5189 -0.1996 -0.3274
 9180TIP3    H127504   6.047   4.566   2.999  0.5494 -1.3284 -0.3167
 9180TIP3    H227505   6.059   4.505   3.137  0.9335  0.9465  0.7192
 9181TIP3   OH227506   1.465   4.106   3.413 -0.9621  0.6312  0.0878
 9181TIP3    H127507   1.438   4.150   3.333 -0.7665  0.3190 -0.1503
 9181TIP3    H227508   1.464   4.013   3.392 -1.7750  0.4835  0.7121
 9182TIP3   OH227509   0.795   1.739   1.726  0.4318 -0.0257  0.2808
 9182TIP3    H127510   0.732   1.728   1.796  1.9176 -0.6418  1.5785
 9182TIP3    H227511   0.792   1.833   1.705  0.2355  0.2375  1.4263
 9183TIP3   OH227512   7.015   2.830   4.609 -0.0621  0.4344  0.0895
 9183TIP3    H127513   7.075   2.883   4.661 -0.6666  0.5761  0.6413
 9183TIP3    H227514   7.053   2.831   4.521 -0.0538  1.7620  0.0974
 9184TIP3   OH227515   5.445   4.669   0.586 -0.1453 -0.5945  0.3159
 9184TIP3    H127516   5.509   4.710   0.529 -1.2504  1.0023  0.1544
 9184TIP3    H227517   5.475   4.688   0.674  0.1316 -0.7024  0.2437
 9185TIP3   OH227518   2.470   4.757   4.433  0.1657  0.3286 -0.1764
 9185TIP3    H127519   2.390   4.807   4.417 -0.2577 -0.0506  0.6688
 9185TIP3    H227520   2.442   4.666   4.433  0.5971  0.1915  0.1020
 9186TIP3   OH227521   3.423   5.600   1.257 -0.3085 -0.0859  0.6225
 9186TIP3    H127522   3.496   5.538   1.259 -0.1758  0.0654  0.5339
 9186TIP3    H227523   3.398   5.605   1.165  0.8488  1.3304  0.3469
 9187TIP3   OH227524   1.394   5.732   1.541 -0.1740  0.0937  0.1954
 9187TIP3    H127525   1.361   5.693   1.622 -0.8770  2.1956  0.9740
 9187TIP3    H227526   1.359   5.676   1.471 -1.0407 -0.7236  1.2543
 9188TIP3   OH227527   3.890   2.265   1.221 -0.5807 -0.5779  0.1627
 9188TIP3    H127528   3.919   2.178   1.249 -0.6524 -0.0228  2.1731
 9188TIP3    H227529   3.799   2.253   1.194 -0.8747 -1.0035  1.2753
 9189TIP3   OH227530   2.106   1.697   4.011 -0.4552  0.2866  0.2190
 9189TIP3    H127531   2.184   1.720   3.961 -2.2628  1.1834 -2.3819
 9189TIP3    H227532   2.117   1.605   4.032  0.9277  0.2041 -0.7714
 9190TIP3   OH227533   1.269   4.111   5.463 -0.2888 -0.1987  0.5470
 9190TIP3    H127534   1.252   4.204   5.450 -0.0227 -0.2812 -0.4411
 9190TIP3    H227535   1.363   4.106   5.480  0.1858 -0.4847 -1.7809
 9191TIP3   OH227536   1.696   5.268   2.891  0.6452  0.3162  0.0653
 9191TIP3    H127537   1.693   5.178   2.924 -0.8600  0.4911  0.5139
 9191TIP3    H227538   1.758   5.265   2.819  2.1731 -0.6241  1.3474
 9192TIP3   OH227539   2.401   3.144   1.560 -0.0205 -0.4816  0.1568
 9192TIP3    H127540   2.344   3.136   1.637  1.0035  0.4602  1.0332
 9192TIP3    H227541   2.359   3.211   1.506 -0.5953 -0.9444  0.0238
 9193TIP3   OH227542   5.029   2.809   2.374  0.1521  0.3900 -0.4280
 9193TIP3    H127543   4.995   2.757   2.302 -1.0592 -0.8951  1.0130
 9193TIP3    H227544   5.071   2.745   2.432 -1.6079  0.9168  1.5245
 9194TIP3   OH227545   1.291   6.159   1.824  0.1278  0.2379 -0.5271
 9194TIP3    H127546   1.333   6.078   1.796  0.2526  0.4349 -0.9199
 9194TIP3    H227547   1.238   6.186   1.748  0.3766  0.7146 -0.5374
 9195TIP3   OH227548   6.745   5.383   2.594  0.0659 -0.4842 -0.2370
 9195TIP3    H127549   6.697   5.339   2.664  1.9236 -0.3278  1.1937
 9195TIP3    H227550   6.731   5.476   2.610 -1.9113 -0.4172 -1.8775
 9196TIP3   OH227551   3.281   0.390   2.728  0.0052 -0.3876 -0.3227
 9196TIP3    H127552   3.267   0.467   2.674  1.4067  0.0483 -0.1042
 9196TIP3    H227553   3.200   0.339   2.720 -1.4558  1.6902  0.5226
 9197TIP3   OH227554   6.039   5.522   2.026 -0.2219 -0.3091 -1.3220
 9197TIP3    H127555   6.130   5.492   2.032  0.2412  1.2825  0.5246
 9197TIP3    H227556   5.987   5.450   2.061  0.5950 -0.1753  0.2055
 9198TIP3   OH227557   1.670   1.486   5.270  0.5095 -0.7004  0.4763
 9198TIP3    H127558   1.613   1.469   5.195 -0.8400  1.9244  0.8342
 9198TIP3    H227559   1.613   1.479   5.346  1.2906 -0.7270  1.0719
 9199TIP3   OH227560   4.603   3.025   4.232  0.3333  0.3642  0.4396
 9199TIP3    H127561   4.605   2.940   4.188 -1.0690  0.8596 -0.6800
 9199TIP3    H227562   4.637   3.008   4.320  2.3994 -0.8428 -0.5306
 9200TIP3   OH227563   3.112   5.257   3.048  0.1707  0.8177 -0.0679
 9200TIP3    H127564   3.079   5.293   3.131 -3.5200  0.7973 -1.3430
 9200TIP3    H227565   3.078   5.167   3.046  0.8320  0.5783 -1.3115
 9201TIP3   OH227566   5.014   0.699   2.338  0.6295  0.2423 -0.0151
 9201TIP3    H127567   5.049   0.786   2.358  0.7559  0.0816  0.4835
 9201TIP3    H227568   4.919   0.709   2.342  0.6333  0.4568 -0.4033
 9202TIP3   OH227569   3.446   0.920   0.861  0.5806 -0.9464 -0.2832
 9202TIP3    H127570   3.453   0.837   0.907  0.3739 -0.9733 -0.2990
 9202TIP3    H227571   3.510   0.977   0.904 -0.0040 -0.7976  0.4163
 9203TIP3   OH227572   0.670   2.279   4.919  0.2701 -0.0378 -0.1557
 9203TIP3    H127573   0.634   2.367   4.929 -2.7153 -1.3763  2.9865
 9203TIP3    H227574   0.710   2.259   5.004  1.2464 -1.6169 -0.9294
 9204TIP3   OH227575   1.747   0.076   4.537  0.4219 -0.8893 -0.2050
 9204TIP3    H127576   1.835   0.114   4.538 -0.1486  0.5339 -0.3440
 9204TIP3    H227577   1.707   0.108   4.618 -0.1211 -1.1228 -0.3795
 9205TIP3   OH227578   6.045   3.182   2.287 -0.0366  0.4787 -0.3783
 9205TIP3    H127579   5.967   3.126   2.287 -0.4485  1.0400 -0.8699
 9205TIP3    H227580   6.015   3.265   2.250  0.7590  0.7618 -0.4083
 9206TIP3   OH227581   2.823   4.601   3.719  0.3107 -0.3570  0.3853
 9206TIP3    H127582   2.775   4.604   3.801  0.7920 -1.0798  0.6984
 9206TIP3    H227583   2.787   4.673   3.667  0.4152  0.4827  1.4516
 9207TIP3   OH227584   2.686   2.104   1.610  0.1707  0.0437  0.3541
 9207TIP3    H127585   2.775   2.140   1.615 -0.1165  0.6666  0.9738
 9207TIP3    H227586   2.631   2.167   1.657 -1.1579  1.3245 -2.6896
 9208TIP3   OH227587   2.727   2.320   3.914  0.3881 -0.1335  0.0525
 9208TIP3    H127588   2.788   2.278   3.974  0.2995 -1.2886 -0.6337
 9208TIP3    H227589   2.641   2.305   3.954  0.4292  0.2516  0.2938
 9209TIP3   OH227590   2.932   5.560   0.975  0.4398 -0.1729  0.0351
 9209TIP3    H127591   2.985   5.592   1.048 -0.5559 -0.6061  0.9639
 9209TIP3    H227592   2.981   5.587   0.897  1.8102 -0.1784  0.8509
 9210TIP3   OH227593   2.398   2.875   1.840  0.0253 -0.1910 -0.2212
 9210TIP3    H127594   2.319   2.910   1.798 -0.4216 -0.3432  0.4694
 9210TIP3    H227595   2.459   2.949   1.840 -0.8781  0.5986  1.1372
 9211TIP3   OH227596   0.683   1.810   2.319 -0.5300  0.0283 -0.0404
 9211TIP3    H127597   0.774   1.781   2.329 -0.2978  0.9908  0.9049
 9211TIP3    H227598   0.642   1.789   2.403 -1.0203  0.1192 -0.2534
 9212TIP3   OH227599   5.072   6.357   3.197 -0.1015  0.3997 -0.6497
 9212TIP3    H127600   5.122   6.393   3.270 -0.7967 -0.7356  0.4155
 9212TIP3    H227601   5.109   6.270   3.184  0.6772  0.9270 -2.3293
 9213TIP3   OH227602   7.183   0.598   5.868 -0.0218 -0.5172 -1.0074
 9213TIP3    H127603   7.110   0.659   5.864  0.4426  0.1495  0.2700
 9213TIP3    H227604   7.239   0.623   5.794 -1.3093 -1.4012 -2.3540
 9214TIP3   OH227605   2.162   0.460   5.342 -0.1731 -0.1941  0.0251
 9214TIP3    H127606   2.082   0.463   5.289 -0.3903 -1.1941  0.2722
 9214TIP3    H227607   2.221   0.402   5.293  0.1882  0.0851  0.1270
 9215TIP3   OH227608   4.322   1.002   4.147  0.6841  0.0296 -0.1974
 9215TIP3    H127609   4.258   0.961   4.089 -1.3134  2.0436  0.4502
 9215TIP3    H227610   4.369   0.929   4.187 -1.3411 -1.5567 -0.5803
 9216TIP3   OH227611   3.909   5.347   5.076  0.6591  0.1155 -0.4287
 9216TIP3    H127612   3.905   5.439   5.101  0.4511 -0.4563  1.8851
 9216TIP3    H227613   3.940   5.302   5.155 -1.1209 -2.0255 -0.8428
 9217TIP3   OH227614   0.099   2.562   2.311 -0.1491 -0.0343 -0.2257
 9217TIP3    H127615   0.020   2.611   2.287 -0.5394 -0.7734 -0.4514
 9217TIP3    H227616   0.101   2.567   2.407 -2.1859 -2.5918  0.0518
 9218TIP3   OH227617   4.603   4.002   4.747 -0.3283 -0.2591 -0.0649
 9218TIP3    H127618   4.657   3.979   4.822 -0.2029  0.1812 -0.0216
 9218TIP3    H227619   4.596   3.920   4.697 -1.3221 -0.8543  0.9829
 9219TIP3   OH227620   4.916   1.760   2.769  0.0887 -0.2620 -0.2041
 9219TIP3    H127621   4.877   1.798   2.848  0.6115 -0.7188  0.2777
 9219TIP3    H227622   4.920   1.666   2.787 -2.0973 -0.7266 -1.7594
 9220TIP3   OH227623   4.036   1.849   3.500  0.5645  0.6604 -0.1137
 9220TIP3    H127624   4.018   1.757   3.517  0.2011  0.7917  0.2317
 9220TIP3    H227625   4.048   1.855   3.405 -0.6203  0.4615 -0.2910
 9221TIP3   OH227626   1.716   5.182   5.090 -0.2898 -0.4059  0.3309
 9221TIP3    H127627   1.791   5.183   5.030 -0.6967  0.5484 -0.1867
 9221TIP3    H227628   1.672   5.266   5.074 -1.6428 -1.0846  0.3842
 9222TIP3   OH227629   0.273   4.902   4.303  0.2809 -0.4408  0.1714
 9222TIP3    H127630   0.335   4.968   4.271 -0.4691  0.8542  1.2719
 9222TIP3    H227631   0.192   4.920   4.255  0.0617 -0.5353  0.5023
 9223TIP3   OH227632   0.582   0.408   1.370  0.7209 -0.5554  0.2374
 9223TIP3    H127633   0.601   0.419   1.277  0.1746 -0.3122  0.1494
 9223TIP3    H227634   0.657   0.359   1.404  1.1092 -0.3082 -0.2481
 9224TIP3   OH227635   6.309   4.547   4.385  0.5598  0.5377 -0.5048
 9224TIP3    H127636   6.384   4.595   4.422  0.9790 -0.3461 -0.1839
 9224TIP3    H227637   6.290   4.592   4.303  0.5278  1.6540  0.1008
 9225TIP3   OH227638   3.863   6.099   3.303 -0.1667  0.3345 -0.4351
 9225TIP3    H127639   3.904   6.017   3.330  3.7087  2.1590 -0.0757
 9225TIP3    H227640   3.805   6.121   3.375  0.0002 -1.2500  0.2330
 9226TIP3   OH227641   4.845   5.409   4.522 -0.7366 -0.1653  0.4773
 9226TIP3    H127642   4.891   5.332   4.490 -1.2464 -0.6514  0.8995
 9226TIP3    H227643   4.884   5.428   4.607  0.3431  0.8875 -0.2262
 9227TIP3   OH227644   1.237   5.823   4.250  0.4086 -0.0396  0.2870
 9227TIP3    H127645   1.217   5.770   4.327  1.0987  0.8753  1.1219
 9227TIP3    H227646   1.153   5.831   4.204  0.0694 -0.9198  0.7309
 9228TIP3   OH227647   4.438   0.091   5.866  0.4553 -0.1941  0.1782
 9228TIP3    H127648   4.482   0.009   5.890 -1.2630 -1.2237 -0.0664
 9228TIP3    H227649   4.346   0.077   5.888 -0.3698  0.6278 -2.4166
 9229TIP3   OH227650   5.521   5.666   5.732 -0.1599 -0.0118  0.6438
 9229TIP3    H127651   5.513   5.686   5.639  2.5050 -0.2564  0.2709
 9229TIP3    H227652   5.543   5.573   5.735  0.8438  0.2259  1.4159
 9230TIP3   OH227653   1.468   0.611   1.941  0.4201 -0.2989  0.3675
 9230TIP3    H127654   1.464   0.697   1.983  1.3266 -0.2663  0.4081
 9230TIP3    H227655   1.393   0.609   1.883 -0.0059  0.2471  0.8863
 9231TIP3   OH227656   5.156   2.128   2.764  0.0343  0.3984 -0.2461
 9231TIP3    H127657   5.144   2.183   2.686 -1.1689 -0.8837 -1.0051
 9231TIP3    H227658   5.125   2.183   2.836  1.7556  1.8416 -0.5392
 9232TIP3   OH227659   2.030   2.676   1.771 -0.6087 -0.0700 -0.4397
 9232TIP3    H127660   2.103   2.660   1.711  0.3290  0.2717  0.5877
 9232TIP3    H227661   2.013   2.770   1.764  0.9522  0.4062  1.3910
 9233TIP3   OH227662   1.489   5.159   4.310  0.0991 -0.2537  0.3766
 9233TIP3    H127663   1.463   5.179   4.400  0.8510 -0.6354  0.6846
 9233TIP3    H227664   1.490   5.063   4.306  0.2204 -0.2388  0.0000
 9234TIP3   OH227665   5.616   3.781   5.875  0.0429 -0.4769 -0.1527
 9234TIP3    H127666   5.612   3.876   5.866 -1.1526 -0.6687 -2.4556
 9234TIP3    H227667   5.701   3.764   5.916  1.3363  1.4979 -1.8442
 9235TIP3   OH227668   1.884   0.715   3.185 -0.0860 -0.1024  0.5386
 9235TIP3    H127669   1.957   0.740   3.241  0.8698 -0.8311 -0.3326
 9235TIP3    H227670   1.859   0.628   3.217  1.4098 -1.1667 -0.9972
 9236TIP3   OH227671   3.683   4.324   0.626 -0.3734  0.1600 -0.0533
 9236TIP3    H127672   3.728   4.279   0.554 -1.6150 -2.1755  0.5223
 9236TIP3    H227673   3.712   4.277   0.705 -1.7755  0.3141  0.5832
 9237TIP3   OH227674   6.070   1.682   1.655 -0.0799 -0.7971 -0.4613
 9237TIP3    H127675   6.165   1.680   1.660 -0.0971 -2.3422 -0.4163
 9237TIP3    H227676   6.050   1.686   1.562  0.0108 -0.2191 -0.4634
 9238TIP3   OH227677   1.605   3.033   2.993 -0.1954  0.7691  0.3668
 9238TIP3    H127678   1.685   3.075   3.025  0.6410  0.2751 -0.9891
 9238TIP3    H227679   1.590   2.960   3.053 -0.0226  1.2552  1.0147
 9239TIP3   OH227680   1.203   4.007   1.375 -0.3119  0.2647  0.2729
 9239TIP3    H127681   1.202   4.072   1.446 -0.2050 -0.9520  1.4203
 9239TIP3    H227682   1.124   4.025   1.325 -1.3619  0.0293  1.7651
 9240TIP3   OH227683   3.099   0.658   3.679  0.2301  0.4295 -0.1587
 9240TIP3    H127684   3.113   0.586   3.618  1.0392  0.9236 -0.5844
 9240TIP3    H227685   3.152   0.634   3.755  0.6920  0.6736 -0.3957
 9241TIP3   OH227686   0.637   5.022   2.039 -0.0836  0.2622 -0.1653
 9241TIP3    H127687   0.661   5.010   1.947 -0.1772 -0.4281 -0.1088
 9241TIP3    H227688   0.556   4.972   2.049  0.3413 -0.3217  0.4708
 9242TIP3   OH227689   4.104   0.422   2.059 -0.0289  0.1531 -0.2331
 9242TIP3    H127690   4.038   0.364   2.096 -1.5769  0.9338 -1.6289
 9242TIP3    H227691   4.105   0.400   1.966  1.7546  0.1361 -0.2477
 9243TIP3   OH227692   6.544   4.527   4.547  0.2488 -0.4754 -0.3356
 9243TIP3    H127693   6.529   4.467   4.620  1.4056 -0.0982  0.2330
 9243TIP3    H227694   6.587   4.603   4.586  1.5260 -0.5569 -1.4831
 9244TIP3   OH227695   5.756   3.520   0.545  0.2761 -0.1074 -0.5889
 9244TIP3    H127696   5.837   3.565   0.519  1.1943 -0.7545  1.0002
 9244TIP3    H227697   5.784   3.431   0.564 -0.5050  0.0480  1.4977
 9245TIP3   OH227698   4.469   0.819   4.956 -0.0967  0.0869 -0.4782
 9245TIP3    H127699   4.374   0.809   4.947 -0.3062  0.7643  0.8366
 9245TIP3    H227700   4.487   0.800   5.048  1.1581 -0.7457 -0.8621
 9246TIP3   OH227701   1.208   0.888   5.116 -0.2626  0.3212  0.4104
 9246TIP3    H127702   1.289   0.931   5.142  2.5386 -3.7477 -0.6245
 9246TIP3    H227703   1.177   0.938   5.041  1.5496  1.7186  0.5329
 9247TIP3   OH227704   3.209   1.647   4.741 -0.3185 -0.3445  0.1904
 9247TIP3    H127705   3.215   1.731   4.787  1.0170 -0.4443  0.2417
 9247TIP3    H227706   3.158   1.591   4.799 -1.3120  0.4491  0.1108
 9248TIP3   OH227707   5.619   1.448   5.219  0.9289 -0.1448  0.3764
 9248TIP3    H127708   5.646   1.361   5.190  0.4843 -0.6070  1.3218
 9248TIP3    H227709   5.543   1.469   5.165  1.1276 -0.2696  0.0443
 9249TIP3   OH227710   1.094   6.731   3.313  0.2162 -0.1251  0.5292
 9249TIP3    H127711   1.126   6.752   3.401  1.5618 -1.3211  0.3753
 9249TIP3    H227712   1.161   6.672   3.278  0.3413  1.2843 -1.7647
 9250TIP3   OH227713   0.455   4.163   0.696 -0.3415  0.0768  0.6415
 9250TIP3    H127714   0.421   4.086   0.742 -0.1099  0.0761  0.8135
 9250TIP3    H227715   0.386   4.229   0.704 -0.2010  0.1613  1.2091
 9251TIP3   OH227716   1.396   5.349   0.041 -0.2465 -0.3800  0.2658
 9251TIP3    H127717   1.356   5.421   0.089 -0.1010  0.0878 -0.2992
 9251TIP3    H227718   1.323   5.295   0.012 -0.5693  0.8817 -1.4217
 9252TIP3   OH227719   4.115   5.315   0.504  0.1124 -0.2304  0.2601
 9252TIP3    H127720   4.047   5.382   0.512 -0.6826 -0.8215 -1.1556
 9252TIP3    H227721   4.104   5.260   0.581 -0.0884  0.4936  0.7553
 9253TIP3   OH227722   4.762   6.745   4.232 -0.0173  0.1933  0.6909
 9253TIP3    H127723   4.767   6.701   4.147 -1.0267  0.1162  0.6517
 9253TIP3    H227724   4.794   6.834   4.215  0.4032 -0.0149  0.3801
 9254TIP3   OH227725   4.336   3.556   0.894  0.4101  0.2497  0.1528
 9254TIP3    H127726   4.271   3.493   0.863  0.6858  0.0839 -0.0941
 9254TIP3    H227727   4.298   3.592   0.975 -0.1730  0.4524 -0.2007
 9255TIP3   OH227728   6.991   5.583   1.224 -0.2293 -0.6870 -0.6378
 9255TIP3    H127729   6.984   5.679   1.226  0.4699 -0.6373  0.5871
 9255TIP3    H227730   6.945   5.558   1.144 -2.0789  0.5366 -0.0505
 9256TIP3   OH227731   4.080   1.280   3.643 -0.4559 -0.2952  0.7818
 9256TIP3    H127732   4.111   1.218   3.709 -0.6613 -2.8559 -1.3848
 9256TIP3    H227733   3.986   1.264   3.638 -0.9918  2.0550  1.9258
 9257TIP3   OH227734   0.513   0.914   2.843  0.2112  0.5404  0.0653
 9257TIP3    H127735   0.496   0.956   2.927 -1.0019  0.4230 -0.0997
 9257TIP3    H227736   0.553   0.983   2.790 -0.5682  1.1120  0.2093
 9258TIP3   OH227737   0.802   3.654   2.297 -0.4212  0.4764  0.1646
 9258TIP3    H127738   0.842   3.720   2.241  1.4146 -0.2000  0.5756
 9258TIP3    H227739   0.712   3.682   2.308 -0.1469  1.9609 -1.0727
 9259TIP3   OH227740   0.133   1.688   3.086 -0.5480 -0.3140 -0.1431
 9259TIP3    H127741   0.148   1.781   3.067  0.7961 -0.5283 -0.2722
 9259TIP3    H227742   0.130   1.646   3.000 -1.7098 -0.3324 -0.1063
 9260TIP3   OH227743   3.423   0.204   0.771 -0.2242 -0.2018 -0.2615
 9260TIP3    H127744   3.332   0.186   0.749 -0.5132  1.0976 -0.2011
 9260TIP3    H227745   3.456   0.121   0.805 -0.7435 -1.3029 -2.2934
 9261TIP3   OH227746   4.916   5.752   3.981  0.2490 -0.5890  0.0909
 9261TIP3    H127747   4.841   5.808   4.004 -0.2161 -0.7636 -0.9196
 9261TIP3    H227748   4.993   5.805   4.001 -0.1481 -0.2929  0.8748
 9262TIP3   OH227749   6.652   6.432   1.967 -0.1409  0.1790 -0.0648
 9262TIP3    H127750   6.705   6.357   1.994 -1.1506 -0.2037  0.9086
 9262TIP3    H227751   6.563   6.408   1.990 -0.4472  1.8224  0.5955
 9263TIP3   OH227752   2.456   2.050   0.948 -0.1259 -0.5217 -0.2436
 9263TIP3    H127753   2.539   2.050   0.995 -0.1237  0.8525 -0.2141
 9263TIP3    H227754   2.478   2.085   0.862 -1.0138  1.9521  0.4713
 9264TIP3   OH227755   1.072   1.898   2.105  0.6885  0.1147  0.1867
 9264TIP3    H127756   1.158   1.934   2.080  0.3390  1.0209  0.2575
 9264TIP3    H227757   1.085   1.803   2.103  0.6132  0.0142 -3.8925
 9265TIP3   OH227758   3.007   2.071   1.627 -0.0334 -0.3265 -0.4582
 9265TIP3    H127759   3.100   2.074   1.602 -0.1394  2.1363 -0.8475
 9265TIP3    H227760   3.004   2.108   1.715 -0.4938 -2.0633  0.2925
 9266TIP3   OH227761   5.185   0.931   2.648  0.0971 -0.4335 -0.1408
 9266TIP3    H127762   5.260   0.906   2.701  1.1625  2.2494 -0.2242
 9266TIP3    H227763   5.204   0.898   2.561  1.1491  0.1248 -0.1312
 9267TIP3   OH227764   5.413   0.295   2.815 -0.1410 -0.3324  0.2862
 9267TIP3    H127765   5.396   0.210   2.855 -2.7801  0.5479  1.2409
 9267TIP3    H227766   5.329   0.321   2.777  0.1815  2.4121  1.1867
 9268TIP3   OH227767   5.415   3.978   0.112  0.3027 -0.3773 -0.2646
 9268TIP3    H127768   5.388   3.907   0.053  1.5601 -2.8372  1.9186
 9268TIP3    H227769   5.336   3.998   0.162 -0.3783  0.6981 -1.6902
 9269TIP3   OH227770   2.716   2.527   2.378  0.3200 -0.7281 -0.3569
 9269TIP3    H127771   2.621   2.531   2.363  0.1399 -0.7139  0.7353
 9269TIP3    H227772   2.726   2.533   2.473  1.4683  0.2261 -0.5076
 9270TIP3   OH227773   0.193   3.849   4.419 -0.1120  0.0288  0.4523
 9270TIP3    H127774   0.274   3.896   4.437  0.1843  0.2794 -1.3433
 9270TIP3    H227775   0.159   3.825   4.505  1.2465  0.9593  1.2771
 9271TIP3   OH227776   4.333   1.258   3.507 -0.6148 -0.3004  0.9153
 9271TIP3    H127777   4.246   1.289   3.534 -1.1863  0.2208 -1.2907
 9271TIP3    H227778   4.319   1.165   3.487 -0.4653 -0.4190  1.3687
 9272TIP3   OH227779   1.476   2.179   5.424  0.2254 -0.2645 -0.1127
 9272TIP3    H127780   1.483   2.087   5.446  1.2129 -0.2361 -0.2871
 9272TIP3    H227781   1.398   2.185   5.369  1.0170 -1.2592 -1.4007
 9273TIP3   OH227782   5.959   4.844   1.543 -0.4695 -0.3276 -0.2939
 9273TIP3    H127783   6.041   4.884   1.570  0.0381 -1.0422 -0.7321
 9273TIP3    H227784   5.923   4.806   1.623  0.2631 -1.1089 -0.3249
 9274TIP3   OH227785   4.008   6.729   3.060 -0.5021  0.0899  0.1926
 9274TIP3    H127786   4.029   6.749   2.968 -0.6862  0.6068  0.2615
 9274TIP3    H227787   3.968   6.809   3.093 -0.2337 -0.0189  0.7895
 9275TIP3   OH227788   1.059  -0.005   4.974 -0.2704  0.3782  0.4692
 9275TIP3    H127789   1.059   0.067   4.910 -1.9255 -0.3508 -0.4199
 9275TIP3    H227790   1.142  -0.049   4.960 -0.3136  0.6254 -0.7567
 9276TIP3   OH227791   5.655   2.384   3.073  0.6107 -0.4576 -0.1203
 9276TIP3    H127792   5.743   2.354   3.048  0.7568 -1.0638  1.0300
 9276TIP3    H227793   5.607   2.303   3.092 -0.8440 -0.2682 -2.5935
 9277TIP3   OH227794   1.429   4.160   3.671  0.5634  0.5531 -0.0543
 9277TIP3    H127795   1.397   4.250   3.663 -1.1046 -0.0932 -1.1718
 9277TIP3    H227796   1.437   4.129   3.581  0.2510 -0.7012  0.3285
 9278TIP3   OH227797   2.771   2.466   1.080  0.0388  0.3777  0.0011
 9278TIP3    H127798   2.739   2.399   1.141 -2.9047  0.2809 -1.4705
 9278TIP3    H227799   2.710   2.463   1.007  3.9750 -0.3581 -3.6831
 9279TIP3   OH227800   7.077   0.620   2.325  0.2327 -0.3866 -0.2862
 9279TIP3    H127801   7.137   0.559   2.281 -1.0782 -1.1294 -1.1540
 9279TIP3    H227802   7.015   0.563   2.371  0.0318  0.3493  0.3713
 9280TIP3   OH227803   2.640   4.653   5.393  0.7912  0.2321 -0.0327
 9280TIP3    H127804   2.569   4.676   5.453  1.5311 -0.1700  1.0279
 9280TIP3    H227805   2.713   4.629   5.450  3.0540  4.1056 -0.9525
 9281TIP3   OH227806   0.989   6.756   1.397  0.4485  0.0467  0.4200
 9281TIP3    H127807   0.943   6.673   1.390  2.1090 -0.7806 -1.3736
 9281TIP3    H227808   1.046   6.745   1.474  0.9629 -0.6444 -0.0512
 9282TIP3   OH227809   3.560   5.965   4.600 -0.1087  0.4400 -0.0627
 9282TIP3    H127810   3.594   6.014   4.525  0.4597 -1.3619 -1.0323
 9282TIP3    H227811   3.465   5.967   4.589 -0.0474  0.5828 -0.5754
 9283TIP3   OH227812   1.119   2.585   4.043 -0.4243  0.2612 -0.4250
 9283TIP3    H127813   1.145   2.677   4.041  2.9057 -0.4876  0.9799
 9283TIP3    H227814   1.177   2.543   3.979  2.3011 -1.5765  2.9495
 9284TIP3   OH227815   4.492   0.672   1.654  0.9938  0.5814  0.2479
 9284TIP3    H127816   4.580   0.696   1.623  0.9049  0.4312 -0.1271
 9284TIP3    H227817   4.505   0.650   1.746  1.5966 -0.7359 -0.1303
 9285TIP3   OH227818   1.789   6.174   2.033 -0.3684  0.2057  0.0701
 9285TIP3    H127819   1.884   6.164   2.039 -0.5623 -2.2437  0.2793
 9285TIP3    H227820   1.760   6.183   2.124 -0.4428 -0.5988  0.1316
 9286TIP3   OH227821   5.377   1.865   3.338  0.1934  0.1326 -0.2420
 9286TIP3    H127822   5.284   1.867   3.315 -0.3804  0.2078  1.8688
 9286TIP3    H227823   5.397   1.772   3.352 -0.1042  0.2766  1.2298
 9287TIP3   OH227824   0.289   4.202   3.149 -0.0188 -0.2590 -0.0448
 9287TIP3    H127825   0.226   4.259   3.104 -0.2820 -0.6871 -0.2267
 9287TIP3    H227826   0.321   4.255   3.222 -0.3399  0.0835 -0.1470
 9288TIP3   OH227827   0.560   1.064   5.339  0.5071 -0.2029 -0.2840
 9288TIP3    H127828   0.466   1.082   5.334  0.7613  1.2610 -0.1125
 9288TIP3    H227829   0.593   1.082   5.250  1.3527  4.0607  0.6508
 9289TIP3   OH227830   4.113   1.832   1.117  0.4121 -0.2616  0.0665
 9289TIP3    H127831   4.193   1.845   1.168  0.0868  1.0526  0.2772
 9289TIP3    H227832   4.093   1.918   1.082 -1.9398 -0.1408  1.5226
 9290TIP3   OH227833   4.074   5.518   2.685 -0.6871 -0.1552  0.2544
 9290TIP3    H127834   4.028   5.471   2.614 -0.6660  0.0574  0.1004
 9290TIP3    H227835   4.004   5.562   2.733 -0.6546  0.0847  0.0821
 9291TIP3   OH227836   1.233   6.481   0.607 -0.1230  0.2034 -0.0481
 9291TIP3    H127837   1.206   6.522   0.690 -0.7719  0.1372 -0.2262
 9291TIP3    H227838   1.315   6.526   0.584  1.7925 -1.8240  2.1869
 9292TIP3   OH227839   3.392   5.966   5.632  0.1026  0.5123 -0.0624
 9292TIP3    H127840   3.322   5.954   5.697  1.3622  1.2084  1.4878
 9292TIP3    H227841   3.447   5.888   5.640  0.2876  0.6212 -0.2619
 9293TIP3   OH227842   7.041   0.095   4.726 -0.4912 -0.1272 -0.2985
 9293TIP3    H127843   7.098   0.043   4.783  0.0036  1.4326  0.6810
 9293TIP3    H227844   7.086   0.095   4.641  0.9063  0.8935  0.4053
 9294TIP3   OH227845   2.805   0.388   3.058 -0.4782 -0.0815  0.6856
 9294TIP3    H127846   2.755   0.364   2.980  0.7221 -1.8430  0.3861
 9294TIP3    H227847   2.786   0.318   3.121  1.1211 -0.4981  0.7606
 9295TIP3   OH227848   4.558   4.791   4.291 -0.5418 -0.0100 -0.5072
 9295TIP3    H127849   4.476   4.813   4.247  1.3074  3.5423 -2.5935
 9295TIP3    H227850   4.621   4.782   4.220  0.9224 -3.2566  0.9789
 9296TIP3   OH227851   4.513   2.133   4.555 -0.5051 -0.6994 -0.6921
 9296TIP3    H127852   4.545   2.068   4.618 -0.7904 -0.8792 -0.7278
 9296TIP3    H227853   4.514   2.216   4.603 -2.8289 -1.1684  0.3137
 9297TIP3   OH227854   0.180   3.921   5.803 -0.2851 -0.6521  0.0788
 9297TIP3    H127855   0.235   3.879   5.869  0.3742  1.4830  0.9806
 9297TIP3    H227856   0.187   4.014   5.822 -2.8086 -0.1762 -0.9231
 9298TIP3   OH227857   1.554   3.995   3.868 -0.2677 -0.0343 -0.0606
 9298TIP3    H127858   1.627   3.959   3.818 -0.9962 -1.6897  0.0081
 9298TIP3    H227859   1.495   4.030   3.802 -0.0467  0.0665 -0.2054
 9299TIP3   OH227860   2.415   6.716   1.711 -0.1555  0.1743 -0.2369
 9299TIP3    H127861   2.463   6.798   1.699 -0.3186  0.0586 -1.9290
 9299TIP3    H227862   2.420   6.699   1.805  1.1302  1.3575 -0.0545
 9300TIP3   OH227863   2.090   2.361   1.653 -0.3548 -0.4775  0.2670
 9300TIP3    H127864   2.167   2.379   1.599 -0.8407  0.4584 -0.1229
 9300TIP3    H227865   2.064   2.273   1.628 -0.6360 -0.0308 -1.1219
 9301TIP3   OH227866   3.178   5.534   3.766  0.4823  0.0343  0.1823
 9301TIP3    H127867   3.265   5.570   3.752  0.6222  0.6239  2.2363
 9301TIP3    H227868   3.193   5.448   3.804  0.2082  0.5603  1.5348
 9302TIP3   OH227869   4.565   4.709   3.486  0.0425  0.1093 -0.1174
 9302TIP3    H127870   4.589   4.655   3.561 -1.5352 -0.5023 -0.0063
 9302TIP3    H227871   4.622   4.785   3.491  1.1988 -0.7772  0.6589
 9303TIP3   OH227872   2.093   0.119   5.155  0.0674  0.3178 -0.1195
 9303TIP3    H127873   2.142   0.195   5.126 -0.3045  0.3097 -0.8045
 9303TIP3    H227874   2.003   0.151   5.165 -0.2552 -0.1923 -1.1919
 9304TIP3   OH227875   5.161   2.046   4.434  0.1118  0.1450  0.0487
 9304TIP3    H127876   5.223   2.041   4.361 -1.3585  2.2215 -1.4801
 9304TIP3    H227877   5.089   1.989   4.407  0.0406  0.0456  0.4410
 9305TIP3   OH227878   6.190   6.430   4.227 -0.2146  0.7480 -0.4537
 9305TIP3    H127879   6.222   6.512   4.189 -0.7493  0.5405 -1.3949
 9305TIP3    H227880   6.095   6.438   4.224 -0.2760  0.6901  0.8245
 9306TIP3   OH227881   3.407   6.480   0.431 -0.8551  0.3748 -0.0974
 9306TIP3    H127882   3.408   6.433   0.514 -2.2722 -0.0757 -0.2999
 9306TIP3    H227883   3.433   6.415   0.366 -0.3466  0.5631 -0.0864
 9307TIP3   OH227884   1.773   5.664   5.597  0.1240 -0.3027  0.0466
 9307TIP3    H127885   1.862   5.639   5.623  0.5852  1.1312 -0.0308
 9307TIP3    H227886   1.786   5.737   5.535 -1.1008 -0.2805 -0.2154
 9308TIP3   OH227887   6.309   2.410   2.251  0.0374 -0.2366  0.1233
 9308TIP3    H127888   6.303   2.331   2.305 -0.1231  0.4448  1.1319
 9308TIP3    H227889   6.233   2.462   2.276  0.3445  0.4063 -0.2606
 9309TIP3   OH227890   5.747   0.960   5.509  0.1710 -0.9786  0.1494
 9309TIP3    H127891   5.780   0.910   5.434  1.6030  0.0608  0.0540
 9309TIP3    H227892   5.820   1.017   5.534 -0.7916 -0.2569  1.4178
 9310TIP3   OH227893   1.657   3.221   4.832  0.5263  0.0811 -0.1543
 9310TIP3    H127894   1.714   3.224   4.755  1.2880 -1.5588  0.3015
 9310TIP3    H227895   1.698   3.157   4.890 -0.1218  1.1387  1.5608
 9311TIP3   OH227896   7.062   6.082   2.733 -0.2828  0.0006  0.2115
 9311TIP3    H127897   7.106   6.001   2.757 -0.3455 -0.1579 -0.2036
 9311TIP3    H227898   7.056   6.079   2.638 -0.4090  0.4288  0.2024
 9312TIP3   OH227899   4.108   5.118   0.720  0.3890 -0.3989 -0.0987
 9312TIP3    H127900   4.191   5.165   0.726  1.7515 -2.3867 -2.0920
 9312TIP3    H227901   4.123   5.036   0.768 -0.2046 -1.0436 -0.9891
 9313TIP3   OH227902   0.181   2.490   4.195 -0.0377  0.2854 -0.3097
 9313TIP3    H127903   0.132   2.476   4.114 -0.4728  0.7490 -0.1330
 9313TIP3    H227904   0.192   2.585   4.201  2.1514  0.1308 -1.0729
 9314TIP3   OH227905   5.470   2.304   0.687  0.3421 -0.7084 -0.6609
 9314TIP3    H127906   5.487   2.335   0.776 -0.7929  0.0455 -0.6800
 9314TIP3    H227907   5.427   2.219   0.700 -0.8298 -0.1053 -0.4238
 9315TIP3   OH227908   0.505   1.032   5.860 -0.3269 -0.4519  0.3527
 9315TIP3    H127909   0.535   0.941   5.869  1.3499  0.0549  0.1485
 9315TIP3    H227910   0.584   1.085   5.872 -0.9205  0.9048 -1.3589
 9316TIP3   OH227911   3.896   2.519   5.693 -0.5555  0.2238 -0.1399
 9316TIP3    H127912   3.972   2.530   5.636 -0.0403  2.0381  0.8135
 9316TIP3    H227913   3.837   2.591   5.668 -1.0180  0.0921  0.5425
 9317TIP3   OH227914   2.216   5.318   1.803 -0.1743  0.5450  0.0858
 9317TIP3    H127915   2.182   5.266   1.730  2.2612 -2.0910  0.6611
 9317TIP3    H227916   2.302   5.347   1.775  0.7298 -0.3587  1.7674
 9318TIP3   OH227917   0.098   1.721   1.499  0.3128 -0.0495 -0.1062
 9318TIP3    H127918   0.050   1.668   1.563  1.8911  0.0948  1.2879
 9318TIP3    H227919   0.170   1.759   1.550 -0.5333  3.1974 -1.1031
 9319TIP3   OH227920   5.739   1.547   3.891 -0.4528  0.5431 -0.5160
 9319TIP3    H127921   5.831   1.557   3.866  0.0412 -0.5947  0.7149
 9319TIP3    H227922   5.725   1.452   3.894 -1.9569  0.6860 -1.6023
 9320TIP3   OH227923   0.309   1.293   2.149 -0.5480 -0.5932 -0.6710
 9320TIP3    H127924   0.257   1.317   2.226 -0.4161  0.4945 -0.8965
 9320TIP3    H227925   0.244   1.271   2.082 -0.6650 -1.4160 -0.2961
 9321TIP3   OH227926   6.358   4.428   0.953  0.0733 -1.0555 -0.2941
 9321TIP3    H127927   6.345   4.504   0.895  0.1104 -0.9931 -0.2213
 9321TIP3    H227928   6.319   4.455   1.036  1.2203 -0.6221  0.1171
 9322TIP3   OH227929   3.106   0.978   3.930  0.1916 -0.3020 -0.4161
 9322TIP3    H127930   3.105   0.907   3.994 -0.3012 -0.3971 -0.5196
 9322TIP3    H227931   3.161   0.945   3.859  1.8575  0.3369  0.5288
 9323TIP3   OH227932   0.853   4.991   4.192  0.9202 -0.1643 -0.1957
 9323TIP3    H127933   0.915   5.053   4.229  1.1299 -0.7093  0.3639
 9323TIP3    H227934   0.857   4.914   4.248  0.9518 -0.8493 -1.1065
 9324TIP3   OH227935   0.828   3.890   3.726  0.0212 -0.1201  0.8437
 9324TIP3    H127936   0.845   3.805   3.766  2.1059 -0.7589 -1.1463
 9324TIP3    H227937   0.896   3.947   3.762 -0.3507  0.2626  0.9408
 9325TIP3   OH227938   6.266   6.126   5.297 -0.0368  0.3330  0.2581
 9325TIP3    H127939   6.251   6.046   5.246 -0.0643 -0.2465  1.1455
 9325TIP3    H227940   6.179   6.149   5.331  0.0434  0.4981  0.3497
 9326TIP3   OH227941   4.340   2.340   4.393 -0.7312 -0.7183 -1.0555
 9326TIP3    H127942   4.373   2.269   4.448 -0.5598 -0.0978 -0.3472
 9326TIP3    H227943   4.256   2.307   4.361 -0.3811 -1.4801 -1.2233
 9327TIP3   OH227944   2.427   3.205   3.527 -0.1226 -0.4186  0.0514
 9327TIP3    H127945   2.417   3.145   3.602  0.6879 -1.3352 -0.5531
 9327TIP3    H227946   2.418   3.292   3.566 -1.1364 -0.9037  0.9862
 9328TIP3   OH227947   5.318   5.283   4.531 -0.2604  0.2589 -0.3397
 9328TIP3    H127948   5.258   5.218   4.494 -0.2090 -0.4953  0.8683
 9328TIP3    H227949   5.290   5.292   4.622  2.2258 -1.0363  0.6162
 9329TIP3   OH227950   3.289   1.901   3.524  0.2764  0.2816  0.0244
 9329TIP3    H127951   3.211   1.858   3.491  0.1469  1.1779 -0.8965
 9329TIP3    H227952   3.327   1.839   3.586 -1.6539  0.2039  1.1946
 9330TIP3   OH227953   4.560   0.250   5.169 -0.1399  0.2058  0.1271
 9330TIP3    H127954   4.599   0.174   5.212  0.0441  0.3480  0.2113
 9330TIP3    H227955   4.522   0.214   5.088  1.4013  0.2879 -0.6767
 9331TIP3   OH227956   6.506   6.392   4.159 -0.3986 -0.4230  0.3130
 9331TIP3    H127957   6.567   6.419   4.091  1.6910 -0.4309  2.0811
 9331TIP3    H227958   6.448   6.467   4.171  0.0975  0.1056 -0.5000
 9332TIP3   OH227959   0.958   5.531   2.699 -0.5047 -0.1348  0.8077
 9332TIP3    H127960   0.986   5.447   2.662 -1.7911 -0.4854  0.5822
 9332TIP3    H227961   0.998   5.596   2.641  1.7094 -0.4957  1.8132
 9333TIP3   OH227962   6.541   3.890   0.337 -0.3017  0.2538  0.1187
 9333TIP3    H127963   6.446   3.898   0.345 -0.9536 -0.6493 -4.0699
 9333TIP3    H227964   6.575   3.979   0.347 -1.3906  0.4520  2.6155
 9334TIP3   OH227965  -0.001   1.803   4.504  0.3197  0.6829  0.4992
 9334TIP3    H127966  -0.013   1.718   4.462  0.7792  0.3545  1.0233
 9334TIP3    H227967   0.083   1.835   4.472  0.5411  0.5566  0.9387
 9335TIP3   OH227968   4.474   5.231   0.199 -0.2850  0.6269 -0.1557
 9335TIP3    H127969   4.565   5.218   0.224 -0.4735  0.2749  0.3689
 9335TIP3    H227970   4.432   5.146   0.215 -0.3938  0.3297 -1.8351
 9336TIP3   OH227971   2.794   0.979   1.109 -0.1811  0.2707 -0.2058
 9336TIP3    H127972   2.723   0.926   1.073  0.0703 -0.2396  0.0443
 9336TIP3    H227973   2.838   1.015   1.032  1.1933 -1.9075 -0.5265
 9337TIP3   OH227974   7.008   1.482   0.851 -0.3937  0.0860  0.4052
 9337TIP3    H127975   7.080   1.526   0.806 -0.0926 -1.0475 -0.2353
 9337TIP3    H227976   7.049   1.439   0.926 -0.6587  0.6953  0.9143
 9338TIP3   OH227977   2.163   2.458   4.528  0.1585  0.1167  0.4580
 9338TIP3    H127978   2.130   2.376   4.564 -2.0765  1.4214  1.5970
 9338TIP3    H227979   2.087   2.498   4.486  1.6101  0.8643 -1.5984
 9339TIP3   OH227980   1.716   6.084   1.325 -0.2741 -0.0876  0.2179
 9339TIP3    H127981   1.738   5.994   1.351  1.8702  0.1794 -0.4331
 9339TIP3    H227982   1.659   6.116   1.395 -0.6255 -1.7695  0.7483
 9340TIP3   OH227983   2.708   5.702   1.693 -0.6229 -0.2885 -0.2020
 9340TIP3    H127984   2.640   5.757   1.654 -1.5660 -0.3861  1.2312
 9340TIP3    H227985   2.673   5.676   1.778  0.8600 -1.0522  0.2241
 9341TIP3   OH227986   1.842   3.451   0.567  0.4127  0.2232 -0.5875
 9341TIP3    H127987   1.761   3.400   0.566  0.1035  0.6292  1.0047
 9341TIP3    H227988   1.912   3.385   0.571  0.0251 -0.1428  1.2178
 9342TIP3   OH227989   1.192   5.313   4.430  0.1752  0.1505 -0.1293
 9342TIP3    H127990   1.118   5.374   4.426  0.4261  0.4378 -2.8832
 9342TIP3    H227991   1.164   5.238   4.376  1.6435  0.0215 -0.7750
 9343TIP3   OH227992   0.768   6.644   0.011 -0.6622 -0.2085 -0.0285
 9343TIP3    H127993   0.817   6.589  -0.049  0.1688 -0.6176  0.9869
 9343TIP3    H227994   0.767   6.594   0.093  1.1550  1.7429  1.2840
 9344TIP3   OH227995   4.121   3.938   2.492 -1.0344 -0.0070  0.0490
 9344TIP3    H127996   4.044   3.982   2.530 -1.0578 -0.5016  0.5870
 9344TIP3    H227997   4.157   3.888   2.565  0.0096  0.5055 -0.1065
 9345TIP3   OH227998   3.997   1.519   2.166 -0.1453 -0.3276  0.1946
 9345TIP3    H127999   3.958   1.606   2.178  0.3694  0.0045 -0.5413
 9345TIP3    H228000   4.007   1.509   2.072  2.9912  0.2460  0.3664
 9346TIP3   OH228001   4.953   5.450   2.530 -0.2573  0.1015  0.0881
 9346TIP3    H128002   4.999   5.527   2.561  1.4395 -0.6937 -0.3219
 9346TIP3    H228003   4.863   5.462   2.559  0.6635  0.6236  3.0121
 9347TIP3   OH228004   1.894   5.356   3.238 -0.1047  0.0754 -0.2952
 9347TIP3    H128005   1.801   5.377   3.248 -0.7279 -2.5271  0.2096
 9347TIP3    H228006   1.895   5.279   3.182  1.5063 -1.5674  1.8460
 9348TIP3   OH228007   1.135   1.566   4.787 -0.4467  0.5011  0.4731
 9348TIP3    H128008   1.223   1.592   4.815 -0.4850  1.2991 -0.1119
 9348TIP3    H228009   1.113   1.628   4.718 -1.0736 -0.3131 -0.0715
 9349TIP3   OH228010   2.007   6.691   5.064  0.8921  0.2742  0.5580
 9349TIP3    H128011   2.055   6.687   5.147  0.6240  0.1635  0.7085
 9349TIP3    H228012   1.980   6.601   5.047  0.0456  0.4565  0.8871
 9350TIP3   OH228013   3.382   4.323   4.456  0.0808  0.4837 -0.0064
 9350TIP3    H128014   3.310   4.334   4.519  0.2050  1.0420  0.0358
 9350TIP3    H228015   3.461   4.337   4.508  0.2517 -0.5269  0.0391
 9351TIP3   OH228016   3.999   6.524   5.190 -0.3505  0.4896 -0.2502
 9351TIP3    H128017   4.000   6.528   5.094 -1.4524 -2.0432 -0.4368
 9351TIP3    H228018   3.912   6.490   5.212 -0.2287  1.2864  1.6996
 9352TIP3   OH228019   1.523   4.040   2.050 -0.2064  0.1744  0.5857
 9352TIP3    H128020   1.526   4.018   2.143  1.2201 -0.8465  0.3311
 9352TIP3    H228021   1.488   4.129   2.047 -2.2821 -0.5328  1.9357
 9353TIP3   OH228022   5.554   0.037   5.706  0.0022  0.0274 -0.3620
 9353TIP3    H128023   5.494  -0.008   5.766  0.4382 -0.3343 -0.1944
 9353TIP3    H228024   5.595   0.104   5.759 -1.9457  1.8462 -1.0289
 9354TIP3   OH228025   0.540   6.229   0.370  0.2510 -0.2596 -0.3229
 9354TIP3    H128026   0.499   6.150   0.404 -0.4921  0.1460 -0.2435
 9354TIP3    H228027   0.630   6.203   0.350 -0.4300 -1.5748 -1.9072
 9355TIP3   OH228028   6.498   6.624   2.175 -0.2096  0.1773  0.2027
 9355TIP3    H128029   6.453   6.619   2.091  2.7491 -0.3326 -1.5012
 9355TIP3    H228030   6.450   6.562   2.231 -2.7392  1.1200 -0.7650
 9356TIP3   OH228031   4.202   1.599   3.971  0.1863  0.0671  0.2299
 9356TIP3    H128032   4.221   1.638   4.056  1.8921  0.8516 -0.4768
 9356TIP3    H228033   4.288   1.584   3.931 -0.5592 -0.7980 -1.1384
 9357TIP3   OH228034   0.438   0.213   0.430  0.1453  0.0901 -0.6460
 9357TIP3    H128035   0.400   0.286   0.382  0.9028  0.9069 -0.0344
 9357TIP3    H228036   0.427   0.138   0.371 -0.9910  0.5969 -1.1242
 9358TIP3   OH228037   6.943   4.768   5.723 -0.0044 -0.0492 -0.7167
 9358TIP3    H128038   6.873   4.706   5.742  0.6104 -1.5456 -2.9347
 9358TIP3    H228039   7.005   4.718   5.670  2.1181  1.5902  0.0832
 9359TIP3   OH228040   6.974   0.620   4.675 -0.6485 -0.1733 -0.3874
 9359TIP3    H128041   7.020   0.669   4.743  1.5159 -1.0665 -1.1224
 9359TIP3    H228042   6.951   0.537   4.717  2.3623 -1.5141 -1.1248
 9360TIP3   OH228043   6.144   3.912   4.276  0.2839  0.1308 -0.1249
 9360TIP3    H128044   6.235   3.882   4.276  0.5735  0.9702 -0.8172
 9360TIP3    H228045   6.137   3.966   4.197 -0.6222  0.6734  0.3191
 9361TIP3   OH228046   4.791   1.301   5.156 -0.5068 -0.4200 -0.2664
 9361TIP3    H128047   4.747   1.237   5.100 -0.9965  1.4991 -2.2161
 9361TIP3    H228048   4.882   1.303   5.124 -0.6088  0.1695 -0.5359
 9362TIP3   OH228049   2.497   5.061   3.592 -0.2251  0.6108  0.2762
 9362TIP3    H128050   2.478   5.037   3.682  0.3677 -0.4662  0.1355
 9362TIP3    H228051   2.551   5.140   3.599  1.0515 -0.2793  0.9492
 9363TIP3   OH228052   0.283   4.021   3.498  0.4876  0.0758 -0.1248
 9363TIP3    H128053   0.355   4.053   3.444 -1.1894 -0.3967 -2.8088
 9363TIP3    H228054   0.245   4.101   3.536  1.6926  0.4132  0.4403
 9364TIP3   OH228055   3.473   1.840   4.979 -0.7682 -0.6669 -0.0142
 9364TIP3    H128056   3.505   1.786   4.907  0.2122  0.3172 -0.3536
 9364TIP3    H228057   3.394   1.882   4.945 -0.5559 -0.5503 -0.3644
 9365TIP3   OH228058   5.250   1.096   3.401  0.4323 -0.6514 -0.0505
 9365TIP3    H128059   5.286   1.016   3.363 -0.3050 -0.9801 -0.0720
 9365TIP3    H228060   5.309   1.165   3.370 -0.0049 -0.9336 -1.6202
 9366TIP3   OH228061   3.082   4.672   4.681  0.8984  0.3851 -0.1352
 9366TIP3    H128062   2.996   4.646   4.646  0.1686  1.4231  0.8165
 9366TIP3    H228063   3.133   4.591   4.681  0.2338 -0.0775 -1.5527
 9367TIP3   OH228064   4.153   3.610   4.181 -0.2457 -0.0429  0.2089
 9367TIP3    H128065   4.113   3.638   4.264  1.1622 -0.5003  1.0773
 9367TIP3    H228066   4.236   3.658   4.177  0.8819 -1.8837  0.3266
 9368TIP3   OH228067   2.981   0.265   0.108  0.0236  0.5737  0.4577
 9368TIP3    H128068   2.911   0.315   0.148 -1.0842 -1.0028  0.6007
 9368TIP3    H228069   3.053   0.327   0.097 -0.5054  1.6523  2.5840
 9369TIP3   OH228070   0.557   5.671   2.669 -0.1336 -0.6567 -1.0709
 9369TIP3    H128071   0.529   5.755   2.632 -0.8991 -0.4389 -0.0598
 9369TIP3    H228072   0.593   5.623   2.595  0.3941  0.5949 -1.6635
 9370TIP3   OH228073   1.963   5.906   4.413  0.2713  0.3938 -0.3913
 9370TIP3    H128074   1.949   5.949   4.329 -0.2970  0.4116 -0.2890
 9370TIP3    H228075   1.889   5.845   4.422  1.3578 -1.0518 -0.8108
 9371TIP3   OH228076   0.183   3.395   5.085  0.0524 -0.1771 -0.2262
 9371TIP3    H128077   0.265   3.430   5.050 -1.1794  1.7071 -1.4097
 9371TIP3    H228078   0.170   3.444   5.167 -0.4517  0.3715 -0.6296
 9372TIP3   OH228079   2.575   2.502   1.337  0.1920 -0.3776  0.1358
 9372TIP3    H128080   2.644   2.442   1.309  0.0434 -0.4762 -0.0167
 9372TIP3    H228081   2.619   2.563   1.396  0.3199 -0.6993  0.3743
 9373TIP3   OH228082   4.686   3.608   1.633 -0.5009 -0.4776  0.4844
 9373TIP3    H128083   4.776   3.625   1.605  0.0168 -2.3415  0.8669
 9373TIP3    H228084   4.632   3.628   1.557 -0.0757  3.0308  0.9714
 9374TIP3   OH228085   5.428   6.342   2.457  0.3554  0.7815 -0.0505
 9374TIP3    H128086   5.423   6.390   2.374  2.2551  0.1489 -0.5849
 9374TIP3    H228087   5.469   6.404   2.518  0.5190  0.6771 -0.0535
 9375TIP3   OH228088   1.742   5.654   1.268 -0.4275 -0.0581 -0.4707
 9375TIP3    H128089   1.807   5.697   1.212  3.0996 -2.5821  1.2566
 9375TIP3    H228090   1.725   5.717   1.337 -0.3434  0.8964 -1.2944
 9376TIP3   OH228091   5.852   0.867   3.001  0.1080 -0.3174  0.0148
 9376TIP3    H128092   5.837   0.787   3.052 -1.7915 -0.8447 -1.2533
 9376TIP3    H228093   5.775   0.921   3.017  0.6238  0.5674 -0.3944
 9377TIP3   OH228094   4.111   2.010   4.807 -0.2950 -0.7407 -0.2864
 9377TIP3    H128095   4.195   1.965   4.813 -0.0823 -0.4782 -1.1751
 9377TIP3    H228096   4.076   2.007   4.896  1.2905  0.3369  0.4303
 9378TIP3   OH228097   1.160   4.693   0.851  0.2480  0.6845 -0.2097
 9378TIP3    H128098   1.142   4.609   0.809  2.9646 -0.6432  1.0171
 9378TIP3    H228099   1.255   4.704   0.843  0.8480  0.7991  4.6044
 9379TIP3   OH228100   7.119   6.584   4.259 -0.1693  0.2892  0.4067
 9379TIP3    H128101   7.200   6.621   4.297 -1.5160  1.2831  2.5440
 9379TIP3    H228102   7.085   6.654   4.203 -0.5339  0.6578  1.0753
 9380TIP3   OH228103   4.272   6.191   0.060  0.6341 -0.1768 -0.4302
 9380TIP3    H128104   4.180   6.213   0.047  1.2203  1.7323 -1.7530
 9380TIP3    H228105   4.301   6.158  -0.025  0.3512 -4.4001  0.8954
 9381TIP3   OH228106   1.027   4.349   0.980 -0.1492  0.0695  0.2948
 9381TIP3    H128107   0.950   4.293   0.976 -0.5763  0.5872  0.9136
 9381TIP3    H228108   1.067   4.328   1.064 -1.0294  1.5606  1.1404
 9382TIP3   OH228109   4.609   3.823   5.689 -0.3533 -0.2661 -0.1344
 9382TIP3    H128110   4.611   3.893   5.624  1.0376  0.1955  0.3659
 9382TIP3    H228111   4.518   3.794   5.690 -0.6613  0.5683 -1.3686
 9383TIP3   OH228112   1.621   2.680   1.855  0.0490 -0.2846  0.1172
 9383TIP3    H128113   1.621   2.773   1.877 -0.8517 -0.3673  0.5493
 9383TIP3    H228114   1.560   2.641   1.918 -0.0307 -1.0754 -0.4328
 9384TIP3   OH228115   6.390   0.461   3.213 -0.6037  0.0457 -0.4711
 9384TIP3    H128116   6.325   0.493   3.150 -0.0812 -0.1713 -1.1365
 9384TIP3    H228117   6.342   0.452   3.295 -0.8203  2.4308 -0.2652
 9385TIP3   OH228118   2.033   2.851   2.058  0.3181  0.0901  0.1069
 9385TIP3    H128119   2.127   2.865   2.060  0.3596 -0.0941 -0.3883
 9385TIP3    H228120   2.020   2.764   2.098  0.4983 -0.5308 -1.1443
 9386TIP3   OH228121   4.008   2.286   3.137  0.0158  0.0937 -0.0321
 9386TIP3    H128122   3.969   2.222   3.077 -1.3545  0.1280  0.7738
 9386TIP3    H228123   3.967   2.267   3.222 -0.3987  1.9785  0.2400
 9387TIP3   OH228124   6.908   6.654   5.209  0.1560  0.0093  0.2572
 9387TIP3    H128125   6.878   6.745   5.205  0.3943  0.0902  0.2831
 9387TIP3    H228126   6.976   6.654   5.276 -0.3468 -0.3406  0.7739
 9388TIP3   OH228127   3.645   2.000   1.247 -0.2446 -0.8294  0.2049
 9388TIP3    H128128   3.560   2.032   1.218  0.2593  0.6041  0.2083
 9388TIP3    H228129   3.662   2.048   1.328  0.8034 -0.7000 -0.0812
 9389TIP3   OH228130   3.586   4.995   4.806 -0.1530  0.1243 -0.4475
 9389TIP3    H128131   3.662   4.980   4.749 -0.4999 -1.0451 -0.6231
 9389TIP3    H228132   3.541   5.069   4.766  0.9571  0.9140 -0.2755
 9390TIP3   OH228133   1.314   0.375   1.854 -0.9743 -0.5953  0.1672
 9390TIP3    H128134   1.373   0.417   1.916 -0.4284  2.0166 -1.9217
 9390TIP3    H228135   1.233   0.363   1.903 -0.8585  2.1863  1.2343
 9391TIP3   OH228136   6.983   2.736   3.452 -0.5516 -0.1636 -0.5120
 9391TIP3    H128137   7.057   2.753   3.393  1.2990  1.5815  2.0611
 9391TIP3    H228138   6.956   2.823   3.482 -0.6126 -0.9682  2.0285
 9392TIP3   OH228139   2.677   3.275   5.105  0.2738  0.2235 -0.1172
 9392TIP3    H128140   2.758   3.325   5.116  0.2336  0.0325  1.2249
 9392TIP3    H228141   2.666   3.230   5.188 -0.2614 -1.1878 -0.9238
 9393TIP3   OH228142   7.133   3.570   4.275 -0.0752  0.7523  0.7505
 9393TIP3    H128143   7.195   3.513   4.320  1.1677  2.3297  1.1410
 9393TIP3    H228144   7.050   3.557   4.320  0.3916 -0.0594  1.3981
 9394TIP3   OH228145   2.190   4.598   2.163 -1.1527 -0.3204  0.3197
 9394TIP3    H128146   2.100   4.631   2.161 -0.4331  1.9433  1.6051
 9394TIP3    H228147   2.237   4.656   2.103 -0.2302 -0.3904  0.9683
 9395TIP3   OH228148   1.360   1.289   5.249  0.0751 -0.2387 -0.3583
 9395TIP3    H128149   1.423   1.231   5.293  0.4448  0.4076 -0.0321
 9395TIP3    H228150   1.326   1.345   5.319  2.2472  2.2726 -1.1536
 9396TIP3   OH228151   3.899   2.942   1.610  0.0116  0.0316  0.0546
 9396TIP3    H128152   3.824   3.000   1.619  1.3690  2.1487 -1.3024
 9396TIP3    H228153   3.942   2.971   1.529  1.9142 -1.5188  0.4449
 9397TIP3   OH228154   2.158   6.098   1.826 -0.3258  0.4760 -0.2616
 9397TIP3    H128155   2.073   6.064   1.801  0.0268 -1.4903  1.0065
 9397TIP3    H228156   2.141   6.153   1.902 -0.3196 -1.1912  0.9813
 9398TIP3   OH228157   2.154   1.038   3.540  0.2440  0.8429 -0.0645
 9398TIP3    H128158   2.159   1.050   3.635  0.1844  1.3657 -0.1243
 9398TIP3    H228159   2.243   1.018   3.514  0.1537  0.0761  0.1776
 9399TIP3   OH228160   6.711   3.211   0.575 -0.2113 -0.1189 -0.3631
 9399TIP3    H128161   6.793   3.221   0.527 -1.3013  0.0316 -2.2894
 9399TIP3    H228162   6.736   3.168   0.656  1.8634  0.5616 -0.5865
 9400TIP3   OH228163   1.057   1.408   0.782  0.2176 -0.4883  0.3442
 9400TIP3    H128164   1.146   1.443   0.783 -0.2505  0.7756  1.3783
 9400TIP3    H228165   1.001   1.486   0.782 -0.8851 -1.2563  1.0148
 9401TIP3   OH228166   5.529   1.743   5.559  0.0780  0.3402  0.0488
 9401TIP3    H128167   5.495   1.656   5.579 -1.9630  0.6497 -1.7493
 9401TIP3    H228168   5.601   1.727   5.498  1.3408 -0.1514  1.5833
 9402TIP3   OH228169   6.255   5.628   2.989 -0.3360  0.0602  0.2464
 9402TIP3    H128170   6.226   5.576   2.914  0.1026  0.3929 -0.1611
 9402TIP3    H228171   6.245   5.719   2.961 -0.2036  0.1870  0.6029
 9403TIP3   OH228172   1.737   5.554   3.493 -0.3614  0.5532  0.0791
 9403TIP3    H128173   1.644   5.549   3.512 -0.1781  1.6319  1.4064
 9403TIP3    H228174   1.770   5.465   3.507 -1.1968  0.1274 -0.5776
 9404TIP3   OH228175   0.245   2.125   1.109 -0.1845 -1.0604  0.6497
 9404TIP3    H128176   0.241   2.086   1.196  0.2949 -0.1249  1.1012
 9404TIP3    H228177   0.182   2.074   1.058  0.5616 -2.5576  1.1445
 9405TIP3   OH228178   4.292   3.647   5.046  0.5015  0.0650 -0.1412
 9405TIP3    H128179   4.204   3.621   5.072  1.0500 -1.1598  0.6268
 9405TIP3    H228180   4.318   3.712   5.111  0.9015 -1.0934  0.9121
 9406TIP3   OH228181   3.294   6.199   5.131  0.2309 -0.5874  0.1520
 9406TIP3    H128182   3.288   6.211   5.226  0.9100 -1.7838  0.3616
 9406TIP3    H228183   3.251   6.116   5.114  2.1349 -1.5578 -0.2563
 9407TIP3   OH228184   0.533   4.432   3.515  0.4819  0.4802  0.4803
 9407TIP3    H128185   0.570   4.520   3.518  2.2613 -0.1972 -0.2367
 9407TIP3    H228186   0.564   4.391   3.596  1.2046 -0.0388 -0.0445
 9408TIP3   OH228187   7.043   3.406   3.741  0.4050  0.1572 -0.2844
 9408TIP3    H128188   6.969   3.448   3.784  0.5176  0.2974 -0.2256
 9408TIP3    H228189   7.012   3.318   3.719  0.7294 -0.3489  1.1602
 9409TIP3   OH228190   1.454   3.700   5.499 -0.0666 -0.4402  0.6012
 9409TIP3    H128191   1.443   3.780   5.551 -0.0122  0.6715 -1.0198
 9409TIP3    H228192   1.545   3.675   5.512  0.8040  1.5276 -1.2246
 9410TIP3   OH228193   6.228   5.894   4.377 -0.5686 -0.0513 -0.1701
 9410TIP3    H128194   6.174   5.965   4.413 -0.3316 -0.0774  0.2475
 9410TIP3    H228195   6.164   5.833   4.339 -0.8401 -0.0750  0.3100
 9411TIP3   OH228196   2.023   2.858   4.878 -0.1396 -0.1044 -0.0479
 9411TIP3    H128197   2.068   2.902   4.950 -1.4262 -1.0772  1.4429
 9411TIP3    H228198   2.035   2.764   4.896  1.8152 -0.4455 -2.6628
 9412TIP3   OH228199   6.739   2.827   4.583  0.2199 -0.3121  0.3472
 9412TIP3    H128200   6.833   2.825   4.601  0.4138  0.4015 -0.4898
 9412TIP3    H228201   6.733   2.856   4.492 -0.8189 -0.2181  0.4315
 9413TIP3   OH228202   6.026   1.868   4.833 -0.2803 -0.2688 -0.3158
 9413TIP3    H128203   6.084   1.883   4.758 -0.8235 -0.2434 -0.7358
 9413TIP3    H228204   6.029   1.774   4.848  0.6778 -0.1569  0.3332
 9414TIP3   OH228205   2.463   6.021   4.505 -0.2243  0.2121  0.1604
 9414TIP3    H128206   2.462   6.064   4.420 -1.1887  0.4100  0.2583
 9414TIP3    H228207   2.388   6.058   4.551  1.9145  2.3626  2.2263
 9415TIP3   OH228208   5.402   4.762   2.663 -0.1403 -0.8687  0.3246
 9415TIP3    H128209   5.392   4.698   2.734 -1.3340 -0.7762  0.2687
 9415TIP3    H228210   5.324   4.817   2.670  0.2451 -0.2129 -0.4187
 9416TIP3   OH228211   5.535   2.414   4.882  0.1662  0.5044 -0.4178
 9416TIP3    H128212   5.618   2.461   4.878  0.2234  0.4650  0.1643
 9416TIP3    H228213   5.550   2.344   4.945  0.0765 -0.3020 -1.2777
 9417TIP3   OH228214   6.995   5.438   2.455 -0.7146  0.3568  0.2667
 9417TIP3    H128215   6.999   5.342   2.452 -0.9415  0.3746 -2.0119
 9417TIP3    H228216   6.914   5.457   2.502 -1.4184 -0.6046 -0.5184
 9418TIP3   OH228217   1.842   5.484   5.392 -0.0207  0.3017  0.6020
 9418TIP3    H128218   1.865   5.417   5.456 -3.0008 -1.3130  0.2061
 9418TIP3    H228219   1.746   5.482   5.390 -0.1502  3.1831 -0.9562
 9419TIP3   OH228220   6.878   6.105   3.868  0.0218  0.1111  0.5319
 9419TIP3    H128221   6.910   6.047   3.799  0.7818  0.2142  0.7912
 9419TIP3    H228222   6.844   6.181   3.821  0.0421 -0.0566  0.2435
 9420TIP3   OH228223   1.026   1.924   4.176  0.3576  0.2902  0.1462
 9420TIP3    H128224   0.967   1.982   4.224 -0.6624 -1.0328  0.5522
 9420TIP3    H228225   0.996   1.835   4.199  0.3448 -0.4032 -2.2983
 9421TIP3   OH228226   2.475   0.648   4.322  0.3029  0.5135 -0.4009
 9421TIP3    H128227   2.459   0.579   4.258 -1.6793  1.0853 -0.5906
 9421TIP3    H228228   2.553   0.694   4.290  0.6987 -0.6403 -1.1212
 9422TIP3   OH228229   4.672   5.652   0.703  0.7111  0.3051  0.2257
 9422TIP3    H128230   4.749   5.645   0.759  1.1154 -2.3965 -0.5503
 9422TIP3    H228231   4.707   5.650   0.614 -0.2326 -0.7801 -0.1386
 9423TIP3   OH228232   6.005   2.542   4.682  0.8853  0.6258 -0.2219
 9423TIP3    H128233   5.994   2.633   4.654 -0.5338  0.4560 -0.2639
 9423TIP3    H228234   5.992   2.544   4.777  0.8684  0.4706 -0.2211
 9424TIP3   OH228235   5.253   3.215   3.658  0.0260  0.0263 -0.0286
 9424TIP3    H128236   5.259   3.236   3.751  0.7230 -0.0512 -0.0539
 9424TIP3    H228237   5.303   3.134   3.648 -2.0893 -1.3492 -0.0468
 9425TIP3   OH228238   2.314   4.182   1.208 -0.0210 -0.9256  0.5591
 9425TIP3    H128239   2.406   4.171   1.234  0.3969  0.3616 -0.2480
 9425TIP3    H228240   2.279   4.243   1.274 -0.0682 -0.8023  0.4209
 9426TIP3   OH228241   1.584   3.060   4.180  0.9353 -0.4349  0.0417
 9426TIP3    H128242   1.638   3.050   4.259  0.7215  0.2226  0.2804
 9426TIP3    H228243   1.600   3.151   4.153 -0.2903 -0.1292  0.2934
 9427TIP3   OH228244   2.376   2.379   3.503 -0.2380  0.2582 -0.1188
 9427TIP3    H128245   2.417   2.464   3.489  1.2501 -0.2436  0.9379
 9427TIP3    H228246   2.412   2.323   3.435  0.9498 -0.2086  0.8676
 9428TIP3   OH228247   5.650   1.748   2.197  0.2451  0.3054 -0.8391
 9428TIP3    H128248   5.596   1.820   2.230 -0.6572  1.0136 -3.5632
 9428TIP3    H228249   5.736   1.762   2.237 -0.6419  1.2129  0.8858
 9429TIP3   OH228250   1.660   3.944   4.132 -0.1506 -0.4367  0.0444
 9429TIP3    H128251   1.693   3.866   4.087 -1.3963  0.1312 -2.0085
 9429TIP3    H228252   1.602   3.985   4.068  0.1510  1.9718  1.2140
 9430TIP3   OH228253   0.046   2.056   3.375 -0.0626 -0.5101  0.0980
 9430TIP3    H128254   0.045   2.143   3.335  0.3978 -1.2227 -1.5276
 9430TIP3    H228255  -0.010   2.003   3.319  0.5175 -1.5175  0.4507
 9431TIP3   OH228256   2.846   0.127   3.960 -0.0771 -0.1728  0.0522
 9431TIP3    H128257   2.884   0.083   4.037 -0.5080 -1.1818 -0.2964
 9431TIP3    H228258   2.914   0.187   3.931  1.0117 -1.4277 -0.1305
 9432TIP3   OH228259   3.836   4.363   2.809 -0.0839 -0.6865  0.0810
 9432TIP3    H128260   3.882   4.444   2.830 -0.2333 -0.3737 -0.7705
 9432TIP3    H228261   3.852   4.349   2.716 -0.4044 -1.4140  0.1275
 9433TIP3   OH228262   0.657   0.318   4.186 -0.2160  0.2269 -0.5795
 9433TIP3    H128263   0.638   0.409   4.207 -3.4139 -0.3184 -0.6968
 9433TIP3    H228264   0.639   0.271   4.268  2.2442 -0.2943 -0.2550
 9434TIP3   OH228265   3.859   5.296   1.380 -0.0069  0.2455 -0.3203
 9434TIP3    H128266   3.904   5.213   1.364 -1.2973 -0.3441 -0.9924
 9434TIP3    H228267   3.930   5.360   1.390  0.9969 -0.4394 -2.5296
 9435TIP3   OH228268   0.097   5.989   5.292  0.7984 -0.5106  0.0904
 9435TIP3    H128269   0.041   6.009   5.218 -2.0686  0.0054  2.2140
 9435TIP3    H228270   0.102   6.071   5.341  1.9766 -1.0119  0.8564
 9436TIP3   OH228271   4.096   1.209   2.621  0.2855 -0.2720  0.7927
 9436TIP3    H128272   4.022   1.214   2.560  1.1888 -1.1486 -0.4304
 9436TIP3    H228273   4.059   1.233   2.706 -1.0300  0.9832 -0.0781
 9437TIP3   OH228274   1.755   2.515   2.654 -0.6474 -0.5761 -0.4692
 9437TIP3    H128275   1.851   2.522   2.658 -0.7940  2.6963  0.4677
 9437TIP3    H228276   1.736   2.425   2.679  2.1890 -1.5856 -1.5550
 9438TIP3   OH228277   3.996   2.903   3.725  0.5955 -0.0983  0.1306
 9438TIP3    H128278   3.979   2.977   3.784 -1.7428 -0.7328  0.3241
 9438TIP3    H228279   3.928   2.839   3.746  1.9542 -1.9050 -0.7419
 9439TIP3   OH228280   6.032   0.317   1.550  0.2806 -0.6087  0.2817
 9439TIP3    H128281   6.119   0.278   1.549  0.0171 -1.2301 -0.2380
 9439TIP3    H228282   5.987   0.273   1.622  0.7130  0.4802  1.2386
 9440TIP3   OH228283   4.018   1.376   2.403  0.6264  0.1422  0.1594
 9440TIP3    H128284   4.110   1.350   2.402  1.1379  1.5359  2.6881
 9440TIP3    H228285   4.012   1.444   2.336  1.3996 -0.0412 -0.1117
 9441TIP3   OH228286   5.231   2.753   2.575 -0.1459 -0.0525  0.3571
 9441TIP3    H128287   5.288   2.683   2.606 -0.3782 -0.5802 -0.3937
 9441TIP3    H228288   5.185   2.783   2.654 -0.1229 -0.8141  0.6666
 9442TIP3   OH228289   4.127   5.317   1.672  0.2894 -0.2815 -0.4204
 9442TIP3    H128290   4.167   5.232   1.657  2.6462  0.8939 -1.4179
 9442TIP3    H228291   4.131   5.361   1.587  0.7078  1.4129  0.4128
 9443TIP3   OH228292   3.556   2.654   0.798 -0.4449 -0.2783  0.4894
 9443TIP3    H128293   3.543   2.745   0.824  1.2986  1.4998 -3.8300
 9443TIP3    H228294   3.624   2.621   0.857 -0.8719  1.2991  1.9366
 9444TIP3   OH228295   2.377   5.487   3.227 -0.4020  0.1400  0.7121
 9444TIP3    H128296   2.308   5.533   3.275 -0.4431  0.4052  0.4013
 9444TIP3    H228297   2.456   5.503   3.278 -0.7155 -0.9253  1.5708
 9445TIP3   OH228298   2.135   0.163   4.862 -0.0113  0.0327 -0.1385
 9445TIP3    H128299   2.223   0.139   4.892 -0.6614 -2.1129  0.2745
 9445TIP3    H228300   2.084   0.082   4.873 -1.8343  0.9948 -1.1285
 9446TIP3   OH228301   5.950   3.405   2.729  0.4302  0.5362  0.0571
 9446TIP3    H128302   5.967   3.449   2.645  1.2589 -1.6454 -1.0080
 9446TIP3    H228303   6.034   3.410   2.776  0.2017  1.0467  0.4182
 9447TIP3   OH228304   1.232   3.988   5.235 -0.0091 -0.0923 -0.2695
 9447TIP3    H128305   1.239   4.034   5.318  2.2710 -0.3525 -0.2482
 9447TIP3    H228306   1.205   4.055   5.172  0.3540  0.6007  0.2990
 9448TIP3   OH228307   1.682   1.258   2.278 -0.5630  0.5020  0.0825
 9448TIP3    H128308   1.721   1.289   2.360  2.4510  3.5055 -2.2066
 9448TIP3    H228309   1.752   1.207   2.236 -1.8626 -0.5448 -0.8832
 9449TIP3   OH228310   4.122   6.040   4.218 -0.0753  0.2449  0.4553
 9449TIP3    H128311   4.085   6.042   4.306 -2.3934 -0.8492 -0.3927
 9449TIP3    H228312   4.046   6.053   4.160  1.3289  0.6847 -1.4034
 9450TIP3   OH228313   4.405   3.352   5.051 -0.2984  0.1926 -0.4983
 9450TIP3    H128314   4.448   3.331   5.133  0.8984  1.0515 -0.8849
 9450TIP3    H228315   4.399   3.448   5.050 -0.0956  0.2135 -1.5072
 9451TIP3   OH228316   2.984   6.226   4.696  0.2590  0.0356  0.0823
 9451TIP3    H128317   3.041   6.268   4.760  0.2347  0.1446  0.0337
 9451TIP3    H228318   2.923   6.295   4.670 -1.6393 -0.7660  2.1202
 9452TIP3   OH228319   5.175   5.257   1.221  0.6068 -0.2094 -0.1512
 9452TIP3    H128320   5.260   5.236   1.261  1.7673  1.6254 -1.4859
 9452TIP3    H228321   5.197   5.306   1.142 -1.7422  1.7146  0.2800
 9453TIP3   OH228322   1.378   5.447   4.007  0.0076 -0.3220 -0.0382
 9453TIP3    H128323   1.287   5.476   4.016  0.3272  1.2716 -1.4546
 9453TIP3    H228324   1.372   5.351   4.006 -1.5985 -0.2528  0.3031
 9454TIP3   OH228325   0.744   5.590   3.635  0.0865 -0.1279 -0.6678
 9454TIP3    H128326   0.696   5.509   3.620 -1.1325  0.6087 -0.7977
 9454TIP3    H228327   0.820   5.583   3.576 -1.4515  0.0359 -2.7540
 9455TIP3   OH228328   6.981   0.800   5.791 -0.3827 -0.2271 -0.1323
 9455TIP3    H128329   6.897   0.779   5.750 -1.7765  2.3560  1.2032
 9455TIP3    H228330   7.026   0.856   5.727 -0.6195  0.1707  0.0511
 9456TIP3   OH228331   3.346   1.330   1.064  0.4353  0.1271 -0.1104
 9456TIP3    H128332   3.416   1.330   1.000 -0.2518 -0.6454 -0.8846
 9456TIP3    H228333   3.378   1.274   1.135  0.1768 -1.1441 -0.9636
 9457TIP3   OH228334   0.264   0.842   4.918 -0.3618  0.5050  0.4167
 9457TIP3    H128335   0.198   0.901   4.883 -0.9824 -0.7143 -0.5173
 9457TIP3    H228336   0.216   0.786   4.979 -0.0890 -0.0258  0.1487
 9458TIP3   OH228337   0.937   3.986   3.321 -0.0456 -0.3383  0.0730
 9458TIP3    H128338   0.940   4.080   3.336 -0.5928 -0.0110 -1.5878
 9458TIP3    H228339   0.845   3.968   3.299  0.3383 -0.9650 -1.1444
 9459TIP3   OH228340   3.234   3.317   4.509 -0.2055 -0.1939  0.1549
 9459TIP3    H128341   3.240   3.411   4.525  1.6254 -0.3172  0.3715
 9459TIP3    H228342   3.200   3.309   4.420  0.3167  0.6888 -0.1281
 9460TIP3   OH228343   4.386   6.356   2.077 -0.4306  0.0710  0.4610
 9460TIP3    H128344   4.399   6.401   1.994 -0.5610 -1.1137 -0.2360
 9460TIP3    H228345   4.291   6.344   2.082 -0.4392  0.3068  0.8790
 9461TIP3   OH228346   4.603   0.586   3.971 -0.4158  0.2886  0.0269
 9461TIP3    H128347   4.527   0.625   4.014 -1.4662 -1.3551 -0.2654
 9461TIP3    H228348   4.617   0.503   4.017  0.8978  0.3352 -0.2561
 9462TIP3   OH228349   5.361   5.082   3.808 -0.1767  0.0354 -0.6174
 9462TIP3    H128350   5.326   5.153   3.753 -0.1919  0.8762  0.4429
 9462TIP3    H228351   5.448   5.065   3.772 -0.4780  0.0440 -1.3698
 9463TIP3   OH228352   1.215   1.225   1.793  0.3584  0.5526 -0.5624
 9463TIP3    H128353   1.138   1.170   1.804  1.4128 -1.5813 -2.7935
 9463TIP3    H228354   1.191   1.309   1.833 -1.9437 -0.9623  1.5405
 9464TIP3   OH228355   6.011   2.990   2.907 -0.2687 -0.8908  0.0480
 9464TIP3    H128356   6.106   2.981   2.905 -0.3155 -1.4869  0.2758
 9464TIP3    H228357   5.982   2.923   2.968 -0.6450  0.9167  1.9946
 9465TIP3   OH228358   1.722   2.330   4.936  0.0967  0.1267 -0.2319
 9465TIP3    H128359   1.652   2.363   4.880  1.7143 -0.8802 -3.0024
 9465TIP3    H228360   1.702   2.237   4.946  0.2420  0.1461  0.2565
 9466TIP3   OH228361   0.570   5.263   0.576 -0.1364  0.2610  0.8117
 9466TIP3    H128362   0.491   5.230   0.532 -0.4057  1.1312  0.6241
 9466TIP3    H228363   0.603   5.188   0.624 -0.8804 -0.2181  0.6016
 9467TIP3   OH228364   0.103   6.385   4.530 -0.2383 -0.2774 -0.0395
 9467TIP3    H128365   0.079   6.380   4.438  0.7400  0.9777 -0.3977
 9467TIP3    H228366   0.039   6.331   4.576 -1.4290  0.0182 -1.3308
 9468TIP3   OH228367   2.999   0.997   2.825  0.1526  0.3609  0.2497
 9468TIP3    H128368   2.999   0.906   2.852 -0.0216  0.5327  0.8422
 9468TIP3    H228369   3.078   1.007   2.772  1.0711  0.2816  1.5823
 9469TIP3   OH228370   3.307   1.917   0.878 -0.0566  0.0684 -0.2935
 9469TIP3    H128371   3.251   1.884   0.948  0.2982 -2.1144 -0.9763
 9469TIP3    H228372   3.245   1.943   0.809 -0.3245  0.0325 -0.0691
 9470TIP3   OH228373   2.904   1.760   3.245 -0.0815  0.4687 -0.0252
 9470TIP3    H128374   2.840   1.829   3.257  0.8314  1.2247  0.6331
 9470TIP3    H228375   2.959   1.763   3.323  0.6558 -0.2697 -0.4865
 9471TIP3   OH228376   2.662   5.691   4.405 -0.6088 -0.0890  0.0816
 9471TIP3    H128377   2.697   5.601   4.407 -0.0694  0.1279  1.0478
 9471TIP3    H228378   2.652   5.710   4.312  1.1496 -0.4521 -0.2167
 9472TIP3   OH228379   5.858   1.957   1.404  0.1380 -0.3598 -0.7011
 9472TIP3    H128380   5.809   1.881   1.436 -0.5423 -0.3155 -1.5904
 9472TIP3    H228381   5.948   1.941   1.431  0.1911 -2.0012 -1.7362
 9473TIP3   OH228382   0.794   4.294   0.577 -0.0297 -0.6359 -0.4637
 9473TIP3    H128383   0.800   4.296   0.672  1.3367  1.2887 -0.5269
 9473TIP3    H228384   0.702   4.312   0.558 -0.0392  0.4568  0.5153
 9474TIP3   OH228385   6.910   1.692   5.070 -0.2858  0.5080 -0.0836
 9474TIP3    H128386   6.938   1.780   5.043  0.7751 -0.0164 -0.7476
 9474TIP3    H228387   6.821   1.685   5.037 -0.0755  1.0229 -0.7902
 9475TIP3   OH228388   5.444   0.097   5.048  0.2956  0.3047  0.3101
 9475TIP3    H128389   5.418   0.185   5.076  1.1995  0.2046  1.5566
 9475TIP3    H228390   5.438   0.044   5.128  2.6292 -0.0811  0.2847
 9476TIP3   OH228391   6.472   5.818   4.947 -0.3525  0.0807  0.0121
 9476TIP3    H128392   6.517   5.852   4.869  0.1524  0.6690  0.5513
 9476TIP3    H228393   6.456   5.725   4.927  1.9250 -0.4041  0.1359
 9477TIP3   OH228394   0.779   3.984   2.492  0.1969 -0.2111  0.2537
 9477TIP3    H128395   0.867   3.949   2.506  0.0925 -1.1867 -1.3851
 9477TIP3    H228396   0.742   3.931   2.422 -0.8208  1.7244 -0.7435
 9478TIP3   OH228397   0.904   2.190   1.334  0.0933  0.5875  0.0049
 9478TIP3    H128398   0.910   2.211   1.427 -0.1704 -0.3967  0.2569
 9478TIP3    H228399   0.976   2.129   1.318 -0.0376  0.5293 -0.3662
 9479TIP3   OH228400   1.949   0.707   0.050 -0.1872 -1.0379 -0.5920
 9479TIP3    H128401   2.026   0.667   0.092 -0.2149 -0.4628  0.0499
 9479TIP3    H228402   1.894   0.634   0.024 -0.2447 -1.4247  0.5558
 9480TIP3   OH228403   1.950   2.729   5.714  0.3638  1.0608 -0.4990
 9480TIP3    H128404   1.920   2.808   5.669  0.7697  0.1109 -2.6007
 9480TIP3    H228405   2.043   2.722   5.691  0.3531  0.0292 -0.2841
 9481TIP3   OH228406   7.019   0.357   0.424  0.0430 -0.2529  0.3178
 9481TIP3    H128407   6.927   0.334   0.435  0.0872 -0.3907  0.3947
 9481TIP3    H228408   7.021   0.452   0.436 -0.2284 -0.1198 -0.6383
 9482TIP3   OH228409   1.501   1.624   4.109 -0.7249 -0.0461 -0.3474
 9482TIP3    H128410   1.582   1.653   4.067 -1.6699  2.1164 -0.7938
 9482TIP3    H228411   1.507   1.657   4.198 -1.1302  0.1749 -0.4000
 9483TIP3   OH228412   3.590   6.257   5.076  0.0760 -0.5028 -0.1169
 9483TIP3    H128413   3.604   6.197   5.003  1.1023  1.2603 -1.4584
 9483TIP3    H228414   3.515   6.220   5.123 -1.3222 -1.2003 -2.6509
 9484TIP3   OH228415   2.311   3.791   2.845 -0.3555 -0.0587  0.1319
 9484TIP3    H128416   2.295   3.716   2.787 -0.7773  0.6683 -0.6992
 9484TIP3    H228417   2.317   3.752   2.932 -1.4404 -0.9692 -0.1741
 9485TIP3   OH228418   2.226   4.517   1.858 -0.3204  0.3960  0.6586
 9485TIP3    H128419   2.157   4.560   1.909 -1.2304 -2.0878  1.6654
 9485TIP3    H228420   2.178   4.468   1.791  0.3542 -1.8471  1.7337
 9486TIP3   OH228421   2.528   3.008   3.338  0.7114 -0.1662  0.1050
 9486TIP3    H128422   2.487   3.040   3.419  1.0043  1.1574 -0.2450
 9486TIP3    H228423   2.617   3.043   3.341  0.4199  0.7741 -1.2544
 9487TIP3   OH228424   4.710   6.739   0.073 -0.1646  0.3020 -0.6571
 9487TIP3    H128425   4.750   6.717   0.157  0.9529  3.0058 -0.3942
 9487TIP3    H228426   4.779   6.721   0.009 -0.7156 -0.9303 -0.9155
 9488TIP3   OH228427   5.301   2.788   5.347 -0.6287  0.4566  0.3434
 9488TIP3    H128428   5.322   2.742   5.428 -1.1273 -0.2300  0.0910
 9488TIP3    H228429   5.254   2.866   5.375 -1.1615  0.0135  0.6982
 9489TIP3   OH228430   1.138   6.514   4.344  0.5289  0.2424 -0.2024
 9489TIP3    H128431   1.191   6.512   4.265  0.1247  0.6886 -0.4935
 9489TIP3    H228432   1.057   6.558   4.317  0.7938  1.3458  0.7056
 9490TIP3   OH228433   3.097   2.390   0.117  0.1003 -0.5978  0.1100
 9490TIP3    H128434   3.103   2.360   0.026  1.0486 -1.9387  0.5875
 9490TIP3    H228435   3.096   2.310   0.169 -4.4038 -0.1056  1.1983
 9491TIP3   OH228436   4.184   0.838   3.436  0.6912  0.1917  0.5024
 9491TIP3    H128437   4.137   0.756   3.453 -0.9225  0.7152 -1.0307
 9491TIP3    H228438   4.178   0.887   3.518  0.3107 -0.5907  0.9518
 9492TIP3   OH228439   4.184   5.287   3.037 -0.1235 -0.3419 -0.3766
 9492TIP3    H128440   4.278   5.300   3.053  0.6632 -2.8647 -2.2757
 9492TIP3    H228441   4.174   5.295   2.942 -1.8192 -0.2492 -0.2214
 9493TIP3   OH228442   0.180   6.055   3.593  0.0848 -0.5484 -0.1168
 9493TIP3    H128443   0.199   6.109   3.516  0.2711 -1.6809 -0.8846
 9493TIP3    H228444   0.266   6.038   3.632  0.1091 -0.9792 -0.3551
 9494TIP3   OH228445   6.237   4.914   2.451  0.3228  0.2594  0.4757
 9494TIP3    H128446   6.207   4.993   2.406  0.8533 -0.1598 -0.6373
 9494TIP3    H228447   6.332   4.915   2.442  0.3393 -0.4714  0.5067
 9495TIP3   OH228448   0.510   2.008   2.682 -0.3821  0.6395 -0.2885
 9495TIP3    H128449   0.593   2.051   2.660 -0.5783  0.1955 -2.0487
 9495TIP3    H228450   0.512   2.000   2.777  3.0370 -2.1604 -0.4035
 9496TIP3   OH228451   4.177   1.611   0.702  0.1494  0.5702  0.7246
 9496TIP3    H128452   4.103   1.661   0.736 -1.9919 -0.7654 -1.5876
 9496TIP3    H228453   4.171   1.527   0.746  0.2019  0.4144  0.4340
 9497TIP3   OH228454   1.741   4.529   1.510  0.4068  0.3636  0.1297
 9497TIP3    H128455   1.805   4.532   1.440 -0.1083  0.1078 -0.3637
 9497TIP3    H228456   1.692   4.447   1.495  1.0019 -0.2585  1.4255
 9498TIP3   OH228457   2.976   4.762   0.755 -0.0361 -0.3465  0.9723
 9498TIP3    H128458   3.034   4.687   0.770  0.1297 -0.1969  1.0981
 9498TIP3    H228459   2.899   4.726   0.713  0.0240 -0.5945  1.0763
 9499TIP3   OH228460   1.780   1.467   2.484  0.5206  0.2743  0.4145
 9499TIP3    H128461   1.778   1.504   2.572 -0.3507 -0.2886  0.6514
 9499TIP3    H228462   1.870   1.478   2.454  0.1923  3.1662  0.2015
 9500TIP3   OH228463   4.216   2.992   4.821  0.2127 -0.3211 -0.1630
 9500TIP3    H128464   4.152   2.929   4.788 -0.1482 -0.3213  0.5119
 9500TIP3    H228465   4.298   2.943   4.827  0.3914 -0.2092 -1.4299
 9501TIP3   OH228466   3.068   4.786   1.573 -0.5019 -0.7631  0.2102
 9501TIP3    H128467   2.985   4.828   1.549  0.8057  0.9581 -1.5548
 9501TIP3    H228468   3.132   4.822   1.512  1.0138 -4.4530 -0.6870
 9502TIP3   OH228469   3.825   4.145   0.464 -0.3589  0.3321  0.5545
 9502TIP3    H128470   3.762   4.073   0.456  0.1810 -0.0842 -0.0266
 9502TIP3    H228471   3.903   4.106   0.502 -0.4893  0.8853  1.4343
 9503TIP3   OH228472   0.236   4.332   5.554  0.2520  0.4477 -0.1790
 9503TIP3    H128473   0.313   4.387   5.542 -0.3994  1.2160 -1.0058
 9503TIP3    H228474   0.167   4.377   5.505 -0.5451 -0.5923 -0.0417
 9504TIP3   OH228475   5.142   6.666   2.480 -0.1372  0.0445  0.1406
 9504TIP3    H128476   5.182   6.660   2.566  0.6943  0.4599 -0.2058
 9504TIP3    H228477   5.207   6.629   2.420 -1.8124 -2.9781 -0.0420
 9505TIP3   OH228478   6.809   5.302   3.170  0.3780 -0.3741 -0.1906
 9505TIP3    H128479   6.838   5.391   3.189  1.4150 -0.3834 -1.5293
 9505TIP3    H228480   6.890   5.251   3.167 -0.2897 -1.6818  1.8984
 9506TIP3   OH228481   2.865   0.461   1.068  0.0038  0.0551  0.2814
 9506TIP3    H128482   2.910   0.536   1.107 -1.2117 -0.3712  2.6695
 9506TIP3    H228483   2.861   0.482   0.975 -0.6195  3.1753  0.8786
 9507TIP3   OH228484   6.362   3.423   3.383  0.1919 -0.3181  0.0944
 9507TIP3    H128485   6.391   3.449   3.470  0.2346  0.4902 -0.1518
 9507TIP3    H228486   6.320   3.338   3.396 -0.0996 -0.0524  0.9587
 9508TIP3   OH228487   6.401   4.269   2.764  0.1394 -0.1721 -0.4174
 9508TIP3    H128488   6.451   4.229   2.692  0.0058  1.3594 -1.4051
 9508TIP3    H228489   6.451   4.347   2.788  0.1180 -0.5983  1.1074
 9509TIP3   OH228490   4.121   1.008   2.292  0.3141  0.0856  0.5478
 9509TIP3    H128491   4.199   0.959   2.320  0.0319 -0.9801 -0.4310
 9509TIP3    H228492   4.150   1.057   2.216  0.4317  0.9830  1.1572
 9510TIP3   OH228493   5.228   0.263   3.158  0.1476  0.0652 -0.1784
 9510TIP3    H128494   5.306   0.214   3.184  0.5864  1.1438  0.6388
 9510TIP3    H228495   5.160   0.236   3.219  0.4375  0.5846  0.3854
 9511TIP3   OH228496   4.514   0.537   3.189 -0.0044  0.2553  0.4687
 9511TIP3    H128497   4.491   0.465   3.247 -0.9308  0.1299 -0.0411
 9511TIP3    H228498   4.431   0.576   3.164  0.3914  0.5052 -0.5137
 9512TIP3   OH228499   1.768   0.328   0.455  0.2277  0.9015  0.0571
 9512TIP3    H128500   1.745   0.415   0.488 -0.9509  0.8836 -0.6274
 9512TIP3    H228501   1.738   0.329   0.364 -0.9990 -0.6421  0.4065
 9513TIP3   OH228502   6.186   1.618   4.986  0.3771  0.2149 -0.4811
 9513TIP3    H128503   6.176   1.523   4.989  1.6714  0.0766  0.0241
 9513TIP3    H228504   6.260   1.632   4.927  0.3991  0.8973 -0.2927
 9514TIP3   OH228505   6.908   2.358   5.317  0.0215  0.2289 -0.4107
 9514TIP3    H128506   6.967   2.292   5.353  0.9668  1.5557  0.5856
 9514TIP3    H228507   6.842   2.371   5.385  0.2310  0.7824 -0.3099
 9515TIP3   OH228508   3.051   3.375   1.496 -0.1545 -0.0157  0.3184
 9515TIP3    H128509   3.108   3.370   1.572  1.7081 -1.1935 -1.0735
 9515TIP3    H228510   3.053   3.288   1.457  0.3769  0.9570 -2.0324
 9516TIP3   OH228511   5.453   1.568   2.170  0.7500  0.2500  0.3238
 9516TIP3    H128512   5.514   1.499   2.196  2.2500  1.0251 -0.9458
 9516TIP3    H228513   5.509   1.641   2.142 -0.7675  1.8405  1.1709
 9517TIP3   OH228514   4.386   0.106   5.414  0.1098  0.4850 -0.2027
 9517TIP3    H128515   4.427   0.128   5.498  0.7745  1.6351 -0.8011
 9517TIP3    H228516   4.443   0.039   5.377 -1.6873 -2.1222  1.4385
 9518TIP3   OH228517   4.812   4.350   4.854 -0.0569 -0.2306 -0.2505
 9518TIP3    H128518   4.793   4.443   4.845  0.0922 -0.2348 -0.6196
 9518TIP3    H228519   4.743   4.306   4.803 -0.0066 -0.3137 -0.2479
 9519TIP3   OH228520   2.900   2.606   1.992 -0.3837 -0.4619 -0.0026
 9519TIP3    H128521   2.820   2.617   2.044  0.1300  2.1146  0.3844
 9519TIP3    H228522   2.924   2.695   1.966  1.8125 -1.2696 -0.9895
 9520TIP3   OH228523   5.351   5.879   5.316  0.0588  0.2561  0.2663
 9520TIP3    H128524   5.266   5.888   5.358  0.1636  0.3481  0.4581
 9520TIP3    H228525   5.331   5.877   5.222 -0.1004  0.8808  0.2837
 9521TIP3   OH228526   4.664   3.074   2.616  0.2573  0.3570  0.0794
 9521TIP3    H128527   4.742   3.046   2.665  1.1001  1.3226 -0.6698
 9521TIP3    H228528   4.639   2.997   2.565 -0.4334 -0.5579  1.7199
 9522TIP3   OH228529   2.997   4.475   3.525 -0.0364  0.6398  0.3347
 9522TIP3    H128530   3.006   4.389   3.567 -0.6474  0.3544 -0.1105
 9522TIP3    H228531   2.933   4.521   3.578  0.4094  0.8890  0.6672
 9523TIP3   OH228532   5.823   1.597   3.381 -0.2494 -0.6654  0.0337
 9523TIP3    H128533   5.780   1.682   3.370  1.4032  0.1509 -0.3833
 9523TIP3    H228534   5.758   1.534   3.350 -1.2455  0.4830 -0.3131
 9524TIP3   OH228535   2.804   2.492   0.694  0.1007  0.2365  0.3116
 9524TIP3    H128536   2.751   2.498   0.774 -0.7735 -2.9231  0.0775
 9524TIP3    H228537   2.886   2.536   0.717 -0.7495  0.9093  2.3588
 9525TIP3   OH228538   3.243   4.944   1.744 -0.2919 -0.1819 -0.3491
 9525TIP3    H128539   3.190   5.009   1.699  2.0671  0.5528 -2.2702
 9525TIP3    H228540   3.212   4.860   1.710  0.2552  0.2768 -2.0428
 9526TIP3   OH228541   0.910   2.647   5.408  0.3639 -0.1041 -0.0919
 9526TIP3    H128542   0.878   2.591   5.337 -0.0660  0.7670 -0.6026
 9526TIP3    H228543   0.835   2.654   5.468  0.1950  0.4450 -0.3610
 9527TIP3   OH228544   2.549   2.911   4.619 -0.2256  0.1350 -0.0948
 9527TIP3    H128545   2.528   3.003   4.602 -0.2492  0.0264 -0.6611
 9527TIP3    H228546   2.493   2.862   4.559 -2.1237 -0.3871  1.9319
 9528TIP3   OH228547   2.889   1.648   4.992  0.3008 -0.0686  0.0002
 9528TIP3    H128548   2.860   1.603   5.071 -0.7799  2.4723  1.1536
 9528TIP3    H228549   2.959   1.706   5.021  0.7565 -0.0262 -1.1510
 9529TIP3   OH228550   6.467   0.437   0.520  0.1161  0.1319 -0.0809
 9529TIP3    H128551   6.413   0.498   0.469 -0.9644 -1.7108 -1.2574
 9529TIP3    H228552   6.405   0.375   0.558  1.1771 -0.2962  1.0376
 9530TIP3   OH228553   1.600   4.916   5.479  0.2949 -0.1249  0.2645
 9530TIP3    H128554   1.655   4.976   5.429 -0.0200  0.1169  0.2047
 9530TIP3    H228555   1.639   4.914   5.566  0.3721  0.0761  0.2341
 9531TIP3   OH228556   1.625   3.462   3.579  0.2269  0.0130  0.1464
 9531TIP3    H128557   1.607   3.550   3.611 -0.8516 -0.2870  0.4097
 9531TIP3    H228558   1.548   3.439   3.527  0.4233 -0.8278  0.2157
 9532TIP3   OH228559   4.106   0.965   1.201 -0.0280  0.0982  0.2576
 9532TIP3    H128560   4.156   1.044   1.220  0.7501  0.0232 -1.3498
 9532TIP3    H228561   4.161   0.894   1.235  0.1015  0.1344  0.1248
 9533TIP3   OH228562   6.033   1.672   1.115 -0.3476 -0.2033 -0.1493
 9533TIP3    H128563   5.964   1.630   1.064  0.1638 -0.7034 -0.4271
 9533TIP3    H228564   5.992   1.754   1.146 -1.4481 -1.0207  0.6532
 9534TIP3   OH228565   3.876   4.749   2.649  0.6187  0.1533 -0.3322
 9534TIP3    H128566   3.869   4.732   2.555 -1.2705 -1.6979  0.0883
 9534TIP3    H228567   3.787   4.739   2.682  1.1791  1.1580  1.6233
 9535TIP3   OH228568   2.384   0.998   5.469  0.0564 -0.0478 -0.4935
 9535TIP3    H128569   2.322   1.070   5.481 -0.8239 -0.5726 -1.6332
 9535TIP3    H228570   2.355   0.954   5.389  0.2653 -1.9731  0.4143
 9536TIP3   OH228571   5.198   5.014   5.094  0.5781  0.0203  0.2380
 9536TIP3    H128572   5.194   5.041   5.002  1.8558  2.7300  0.8967
 9536TIP3    H228573   5.123   4.955   5.105  0.3331 -0.2975 -2.4779
 9537TIP3   OH228574   2.907   0.518   1.415 -0.3558  0.6229 -0.2453
 9537TIP3    H128575   2.989   0.495   1.370 -1.1867  0.2858 -1.6836
 9537TIP3    H228576   2.865   0.433   1.431 -0.2494  0.7702  0.8611
 9538TIP3   OH228577   6.780   6.565   2.190  0.4958 -0.3396 -0.2273
 9538TIP3    H128578   6.694   6.549   2.229 -0.6236  0.3239 -2.2692
 9538TIP3    H228579   6.778   6.519   2.106  1.8894  0.2029 -0.6013
 9539TIP3   OH228580   5.773   3.562   5.242 -0.4904 -0.4455 -0.7833
 9539TIP3    H128581   5.739   3.533   5.158 -2.9428 -1.0018  0.3109
 9539TIP3    H228582   5.777   3.658   5.235 -0.0755 -0.5226 -1.7145
 9540TIP3   OH228583   6.931   3.116   4.903 -0.0817 -0.1847 -0.4100
 9540TIP3    H128584   7.002   3.112   4.839  0.0924 -1.0992 -0.1807
 9540TIP3    H228585   6.951   3.192   4.957  0.3292 -0.0107 -0.8000
 9541TIP3   OH228586   5.693   3.392   4.321  0.1495  0.6828  0.1729
 9541TIP3    H128587   5.744   3.435   4.252  0.9485  1.0165  0.9498
 9541TIP3    H228588   5.719   3.437   4.402  2.3312 -2.3089  1.3020
 9542TIP3   OH228589   0.002   0.671   1.219  0.5283 -0.2055 -0.3123
 9542TIP3    H128590  -0.020   0.687   1.310  1.9401 -0.3267  0.0806
 9542TIP3    H228591   0.093   0.640   1.221  0.2063 -1.3723 -1.6546
 9543TIP3   OH228592   3.145   3.726   4.192  0.5875  0.3536 -0.3442
 9543TIP3    H128593   3.149   3.741   4.098 -1.4323  0.9144 -0.3884
 9543TIP3    H228594   3.052   3.709   4.210  1.1711 -1.5570  1.2939
 9544TIP3   OH228595   1.523  -0.017   1.165  0.3611  0.3470  0.2284
 9544TIP3    H128596   1.516  -0.019   1.070 -1.6167 -1.3802  0.3094
 9544TIP3    H228597   1.559   0.069   1.186  0.3304  0.9675 -2.0427
 9545TIP3   OH228598   0.373   5.874   5.799 -0.3482 -0.5724 -0.5133
 9545TIP3    H128599   0.465   5.849   5.795  0.9572  3.5245 -0.9837
 9545TIP3    H228600   0.338   5.851   5.713  1.3031  0.9526 -1.6674
 9546TIP3   OH228601   5.377   1.966   1.431  0.4568  0.0923 -0.5828
 9546TIP3    H128602   5.403   1.999   1.517  2.1042  0.4832 -1.1955
 9546TIP3    H228603   5.349   1.876   1.447  2.0960 -0.3169  0.1869
 9547TIP3   OH228604   5.394   2.118   3.253  0.0382 -0.5315  0.1152
 9547TIP3    H128605   5.404   2.036   3.302  2.1216  0.1890  1.0128
 9547TIP3    H228606   5.462   2.113   3.185  1.1226  1.0109  1.0423
 9548TIP3   OH228607   5.563   5.169   0.943 -0.0048  0.0114 -0.0439
 9548TIP3    H128608   5.526   5.083   0.966  0.1061 -0.3413 -1.1211
 9548TIP3    H228609   5.567   5.168   0.848  0.4873  1.0215 -0.0425
 9549TIP3   OH228610   4.289   1.169   5.147  0.1625  0.0280  0.3944
 9549TIP3    H128611   4.337   1.097   5.188 -1.2615 -0.2262  1.7329
 9549TIP3    H228612   4.279   1.143   5.056  3.6473  0.7167 -0.3351
 9550TIP3   OH228613   1.634   3.366   4.534  0.2928 -0.3437  0.0129
 9550TIP3    H128614   1.730   3.357   4.529  0.3856  1.0292 -1.2542
 9550TIP3    H228615   1.620   3.452   4.572 -0.4202  0.0518 -1.1167
 9551TIP3   OH228616   4.230   5.344   4.550 -0.0294  0.2189 -0.5401
 9551TIP3    H128617   4.239   5.407   4.621 -1.1136 -0.1977 -0.0017
 9551TIP3    H228618   4.180   5.391   4.483  1.6991  0.8877 -1.4124
 9552TIP3   OH228619   4.585   0.649   0.178 -0.2459  0.0195  0.2439
 9552TIP3    H128620   4.551   0.605   0.100 -1.5129  0.6347  0.4242
 9552TIP3    H228621   4.677   0.622   0.183 -0.6105 -1.4282 -0.4613
 9553TIP3   OH228622   3.614   4.171   0.087  0.3194  0.3801  0.4349
 9553TIP3    H128623   3.583   4.257   0.114 -0.3013  0.5233 -0.6844
 9553TIP3    H228624   3.708   4.182   0.074  0.1685  1.0216 -0.1623
 9554TIP3   OH228625   1.198   1.081   2.554  0.1862  0.1122 -0.0207
 9554TIP3    H128626   1.158   1.075   2.641 -1.0576  1.4704 -0.4657
 9554TIP3    H228627   1.191   0.993   2.519  1.9098 -0.7971  1.7325
 9555TIP3   OH228628   0.926   0.164   1.664 -0.5607  0.2191 -0.1014
 9555TIP3    H128629   0.890   0.236   1.717 -0.8468  0.5054 -0.6809
 9555TIP3    H228630   0.963   0.103   1.728 -1.6627  0.1426  0.4711
 9556TIP3   OH228631   4.712   6.410   2.203  0.3924  0.0150 -0.3926
 9556TIP3    H128632   4.737   6.502   2.213 -0.4810  0.2801 -0.5138
 9556TIP3    H228633   4.652   6.410   2.128  1.9918 -0.9775 -1.7329
 9557TIP3   OH228634   5.036   3.416   4.842  0.2417 -0.1097 -0.1360
 9557TIP3    H128635   5.081   3.470   4.908 -0.3524 -0.9924  1.0373
 9557TIP3    H228636   5.103   3.357   4.809  0.6819  0.7240 -0.7660
 9558TIP3   OH228637   1.989   0.671   2.569  0.5891 -0.4035 -0.0166
 9558TIP3    H128638   1.969   0.578   2.577 -1.9735 -0.0936 -1.7559
 9558TIP3    H228639   1.997   0.702   2.659  2.3815 -2.3943  0.6031
 9559TIP3   OH228640   4.363   5.875   0.919  0.5892 -0.4382 -0.2468
 9559TIP3    H128641   4.396   5.935   0.852 -1.3022  0.0954 -0.7458
 9559TIP3    H228642   4.418   5.797   0.910  3.1306  1.1334  0.4213
 9560TIP3   OH228643   3.776   1.239   2.941  0.4099 -0.8240  0.2353
 9560TIP3    H128644   3.782   1.334   2.934  1.1593 -0.9090 -0.4585
 9560TIP3    H228645   3.692   1.217   2.902  0.0373 -0.4163  0.7897
 9561TIP3   OH228646   2.383   3.874   1.630 -0.8376 -0.4293 -0.2949
 9561TIP3    H128647   2.362   3.957   1.672 -1.2391 -0.7764  0.2030
 9561TIP3    H228648   2.300   3.842   1.596 -0.5965 -0.3813 -0.9436
 9562TIP3   OH228649   3.253   3.373   5.023 -0.3405  0.1253  0.0000
 9562TIP3    H128650   3.165   3.362   5.060 -0.4813  0.2292 -0.3008
 9562TIP3    H228651   3.311   3.339   5.090 -0.5576  0.8143  0.5412
 9563TIP3   OH228652   2.839   6.261   0.651 -0.3126 -0.6770 -0.4206
 9563TIP3    H128653   2.891   6.232   0.726 -1.7417  0.5974  1.1354
 9563TIP3    H228654   2.751   6.229   0.668 -1.4301  2.3670  0.2139
 9564TIP3   OH228655   6.193   5.728   1.419  0.0355 -0.5237 -0.1854
 9564TIP3    H128656   6.226   5.802   1.369  0.5796 -2.1581 -2.4334
 9564TIP3    H228657   6.270   5.695   1.466 -0.0499 -0.0687  0.2711
 9565TIP3   OH228658   3.914   4.682   4.450 -0.2596  0.1903 -0.4432
 9565TIP3    H128659   3.831   4.667   4.495  0.6647  0.4714  1.4650
 9565TIP3    H228660   3.896   4.660   4.359 -2.6497  1.0468 -0.2591
 9566TIP3   OH228661   4.479   5.549   0.883 -0.1853 -0.6711 -0.4473
 9566TIP3    H128662   4.530   5.587   0.812 -2.0446 -0.7255 -1.9189
 9566TIP3    H228663   4.388   5.552   0.850 -1.2252  0.0261  2.2500
 9567TIP3   OH228664   1.614   4.259   1.478  0.9056 -0.1612  0.6782
 9567TIP3    H128665   1.633   4.170   1.448 -0.9409 -0.7095  1.0019
 9567TIP3    H228666   1.535   4.284   1.430  1.0273  1.0583  1.0760
 9568TIP3   OH228667   4.881   3.658   4.708  1.3496 -0.4049 -0.0125
 9568TIP3    H128668   4.919   3.605   4.639  2.4692 -1.4795  1.3603
 9568TIP3    H228669   4.947   3.658   4.778 -0.1002 -0.1679  1.4391
 9569TIP3   OH228670   1.536   5.928   0.631  0.2515 -0.1787 -0.1409
 9569TIP3    H128671   1.629   5.905   0.633 -0.2315 -2.3211 -0.3996
 9569TIP3    H228672   1.496   5.872   0.698 -0.9638  0.2072 -0.5271
 9570TIP3   OH228673   5.454   4.182   1.049  0.4265  0.6422  0.0838
 9570TIP3    H128674   5.547   4.204   1.039  0.3032  0.5489 -1.5442
 9570TIP3    H228675   5.414   4.215   0.969 -0.7902 -0.2133  0.3273
 9571TIP3   OH228676   1.168   3.065   0.120  0.3946  0.3022  0.0503
 9571TIP3    H128677   1.197   3.054   0.030  1.2242  0.4006  0.2993
 9571TIP3    H228678   1.224   3.134   0.155 -0.5774  0.9501  0.3564
 9572TIP3   OH228679   4.715   3.135   3.351  0.1248 -0.1578 -0.1726
 9572TIP3    H128680   4.745   3.089   3.272 -0.9255  0.2888 -0.8556
 9572TIP3    H228681   4.765   3.216   3.352 -0.2051  0.0577 -0.6626
 9573TIP3   OH228682   1.217   2.811   5.334  0.3486 -0.3093  0.0900
 9573TIP3    H128683   1.256   2.746   5.274 -2.5035  0.6219 -3.0939
 9573TIP3    H228684   1.252   2.895   5.304 -0.7238  0.1253  0.0116
 9574TIP3   OH228685   0.513   3.929   5.347 -0.0778 -0.1241 -0.9685
 9574TIP3    H128686   0.596   3.953   5.306  0.1932 -0.7403 -0.7920
 9574TIP3    H228687   0.474   4.012   5.374  1.0040  0.0917 -0.0501
 9575TIP3   OH228688   4.545   1.033   3.786 -0.0059 -0.0215 -0.6276
 9575TIP3    H128689   4.636   1.006   3.797 -0.1188 -0.0500  0.3101
 9575TIP3    H228690   4.499   0.952   3.761  0.3238  0.1238 -1.7646
 9576TIP3   OH228691   3.105   2.692   3.418  0.0416 -0.8611  0.1432
 9576TIP3    H128692   3.076   2.764   3.362  0.8281  0.8853  1.8492
 9576TIP3    H228693   3.144   2.628   3.358 -0.9481 -0.0216 -1.4569
 9577TIP3   OH228694   6.882   0.915   5.387  0.0380  0.8861  0.1922
 9577TIP3    H128695   6.953   0.863   5.423 -0.2423  1.1473  1.1424
 9577TIP3    H228696   6.803   0.867   5.410 -0.1230  0.7671 -0.5762
 9578TIP3   OH228697   6.914   4.977   3.445 -0.0521  0.0815  0.0741
 9578TIP3    H128698   6.995   4.933   3.420  0.7296  1.8101 -0.5937
 9578TIP3    H228699   6.864   4.984   3.363 -0.1241  0.5008  0.1514
 9579TIP3   OH228700   4.129   0.213   2.389  0.2983  0.1130  0.0875
 9579TIP3    H128701   4.077   0.235   2.312  2.5749  0.9671 -1.3101
 9579TIP3    H228702   4.065   0.199   2.458 -1.7416  1.6594 -1.3725
 9580TIP3   OH228703   3.271   6.413   5.666 -0.1367  0.2592  0.1267
 9580TIP3    H128704   3.182   6.377   5.669 -1.0124  2.2746  3.0396
 9580TIP3    H228705   3.327   6.339   5.691 -1.1123 -0.7227 -0.4924
 9581TIP3   OH228706   6.668   4.262   5.667 -0.2721  0.3080 -0.2649
 9581TIP3    H128707   6.651   4.354   5.646 -0.7305  0.7227  1.7158
 9581TIP3    H228708   6.756   4.261   5.703  0.8947 -0.5478 -2.8925
 9582TIP3   OH228709   6.966   2.991   4.292  0.1521  0.0250  0.4149
 9582TIP3    H128710   6.912   2.917   4.266  0.4716 -0.6792  1.6701
 9582TIP3    H228711   6.916   3.068   4.267 -1.0458 -0.6203  0.7725
 9583TIP3   OH228712   0.571   6.087   4.440 -0.0984  0.6144 -0.0339
 9583TIP3    H128713   0.477   6.092   4.422 -0.5010 -2.4968  0.7520
 9583TIP3    H228714   0.581   6.129   4.525 -1.0575 -0.4013  0.6001
 9584TIP3   OH228715   3.078   4.469   2.315  0.5368 -0.5387  0.0223
 9584TIP3    H128716   3.075   4.555   2.358 -0.4011 -0.6010  0.0973
 9584TIP3    H228717   3.170   4.443   2.321  0.4986 -0.3906  1.6804
 9585TIP3   OH228718   5.578   1.197   1.529 -0.4618  0.4004  0.0309
 9585TIP3    H128719   5.576   1.132   1.600  0.3405  0.0422 -0.2701
 9585TIP3    H228720   5.518   1.163   1.463  0.5936 -0.4618 -0.4913
 9586TIP3   OH228721   2.870   6.751   5.586 -0.5020 -0.3559  0.3525
 9586TIP3    H128722   2.950   6.766   5.537 -0.4296  1.5058  0.9759
 9586TIP3    H228723   2.896   6.757   5.678 -1.5659  1.7976  0.5652
 9587TIP3   OH228724   5.440   5.395   0.038  0.2071 -0.7514 -0.1820
 9587TIP3    H128725   5.520   5.360  -0.003  0.0520 -0.6382 -0.5911
 9587TIP3    H228726   5.376   5.324   0.028 -0.0447 -0.4449 -0.8143
 9588TIP3   OH228727   0.219   0.735   0.854 -0.2229 -0.1118  0.0169
 9588TIP3    H128728   0.143   0.741   0.912 -0.5372 -2.5756 -0.0346
 9588TIP3    H228729   0.185   0.693   0.775  1.0131 -0.4008 -0.3745
 9589TIP3   OH228730   3.636   0.782   5.042  0.4679  0.4247  0.4251
 9589TIP3    H128731   3.542   0.760   5.047  0.1509  1.6223 -0.0652
 9589TIP3    H228732   3.680   0.697   5.050 -0.6974 -0.3429 -0.8678
 9590TIP3   OH228733   5.838   3.756   1.667  0.2379 -0.4581  0.1774
 9590TIP3    H128734   5.910   3.693   1.665  0.8573  0.2518 -0.8602
 9590TIP3    H228735   5.844   3.802   1.583 -0.3630  0.7999  0.7957
 9591TIP3   OH228736   0.414   1.687   5.383  0.0231 -0.1489 -0.5993
 9591TIP3    H128737   0.457   1.768   5.357  0.1938 -0.1585 -0.3516
 9591TIP3    H228738   0.322   1.710   5.394  0.3717  0.4825  1.3982
 9592TIP3   OH228739   3.393   1.959   0.292 -0.6209 -0.7543 -0.0167
 9592TIP3    H128740   3.382   1.932   0.383  0.5130  0.1096  0.3952
 9592TIP3    H228741   3.322   2.021   0.277 -0.4698 -0.4551  0.4718
 9593TIP3   OH228742   2.646   1.895   0.529 -0.7125  0.2547  0.7324
 9593TIP3    H128743   2.701   1.843   0.587 -0.2228  0.3257  0.3355
 9593TIP3    H228744   2.658   1.857   0.442  2.4241  3.0740 -0.2903
 9594TIP3   OH228745   1.923   1.595   5.262 -0.8389  0.0411  0.4288
 9594TIP3    H128746   1.838   1.552   5.271 -0.3035 -1.2986 -0.6183
 9594TIP3    H228747   1.965   1.583   5.348 -1.2757 -0.2407  0.6058
 9595TIP3   OH228748   4.132   5.538   3.994  0.0401  0.4361  0.0322
 9595TIP3    H128749   4.146   5.597   4.068 -1.1950  2.1136 -0.9920
 9595TIP3    H228750   4.039   5.516   3.997  0.0813  0.1150 -0.7047
 9596TIP3   OH228751   1.608   4.916   5.068  0.2507 -0.2013 -0.0911
 9596TIP3    H128752   1.628   5.001   5.107  0.6602 -0.5953  0.5711
 9596TIP3    H228753   1.632   4.925   4.976  2.6650 -0.3581  0.4720
 9597TIP3   OH228754   6.511   3.955   2.091 -0.2613 -0.7587 -0.3042
 9597TIP3    H128755   6.493   3.862   2.096  1.0441 -1.1423 -1.7755
 9597TIP3    H228756   6.465   3.993   2.166 -2.7869 -2.2242 -0.9932
 9598TIP3   OH228757   0.960   2.909   4.730  0.0917 -0.4416 -0.4049
 9598TIP3    H128758   0.873   2.944   4.749  0.3662 -0.4660  1.0047
 9598TIP3    H228759   0.943   2.823   4.691 -0.5323  0.2689 -1.7767
 9599TIP3   OH228760   6.036   3.455   2.204  0.5516  0.0407 -0.0373
 9599TIP3    H128761   5.999   3.544   2.201 -1.6480 -0.8335 -0.1541
 9599TIP3    H228762   6.127   3.469   2.232  0.8961  2.4830 -1.9495
 9600TIP3   OH228763   3.254   6.521   5.140  0.5986  0.4137  0.3442
 9600TIP3    H128764   3.286   6.441   5.183  0.4743 -0.0533 -0.4231
 9600TIP3    H228765   3.159   6.508   5.134  0.6434  0.3716 -0.2897
 9601TIP3   OH228766   3.148   5.495   2.215 -0.9648  0.0596  0.1995
 9601TIP3    H128767   3.110   5.513   2.129 -1.9273 -0.0974  0.5708
 9601TIP3    H228768   3.235   5.534   2.212 -1.1594  0.4515 -0.6890
 9602TIP3   OH228769   5.596   1.051   4.027  0.7013 -0.9674  0.2006
 9602TIP3    H128770   5.618   1.067   3.936  2.2843 -0.9411  0.5678
 9602TIP3    H228771   5.635   0.966   4.046 -1.6047 -2.1156  0.2411
 9603TIP3   OH228772   6.275   6.044   1.195  0.2257  0.6424 -0.1059
 9603TIP3    H128773   6.360   6.082   1.172  0.1130  1.4448  0.7264
 9603TIP3    H228774   6.263   5.972   1.132  0.2380  2.2504 -2.0253
 9604TIP3   OH228775   5.006   4.039   1.889 -0.0175  0.1670  0.3067
 9604TIP3    H128776   5.053   3.958   1.907 -0.7801 -0.6232 -1.0865
 9604TIP3    H228777   4.920   4.010   1.858 -1.0306  1.5521  1.6932
 9605TIP3   OH228778   3.017   6.333   2.479 -0.2558 -0.0504  0.5118
 9605TIP3    H128779   2.964   6.396   2.429  0.4246 -0.8785 -1.3684
 9605TIP3    H228780   3.001   6.355   2.570 -1.5701  1.5730 -0.0552
 9606TIP3   OH228781   5.399   2.413   3.323 -0.0829  0.3690  0.0303
 9606TIP3    H128782   5.368   2.324   3.310  0.3407 -0.1282  2.0380
 9606TIP3    H228783   5.368   2.461   3.247  0.9241 -1.7862 -1.8640
 9607TIP3   OH228784   3.748   1.173   2.129 -0.0152 -0.5726  0.3840
 9607TIP3    H128785   3.819   1.196   2.068 -1.2432 -0.2983 -1.0043
 9607TIP3    H228786   3.792   1.155   2.212  1.4815  2.0039  0.2459
 9608TIP3   OH228787   1.705   6.456   0.815  0.3734  0.0883 -0.0363
 9608TIP3    H128788   1.673   6.399   0.885  2.0787  0.5114  1.1645
 9608TIP3    H228789   1.674   6.416   0.734 -0.8253 -0.9715  0.9163
 9609TIP3   OH228790   5.079   0.004   5.155 -0.0330 -0.0274  0.0558
 9609TIP3    H128791   5.089  -0.041   5.240 -1.0895  0.2602  0.3432
 9609TIP3    H228792   5.080   0.097   5.178 -2.6372  0.0506  0.0668
 9610TIP3   OH228793   0.638   3.564   3.109 -0.0099  0.0223 -0.2315
 9610TIP3    H128794   0.589   3.486   3.082 -1.1450  0.1403  1.3012
 9610TIP3    H228795   0.686   3.536   3.187 -0.5178  0.8573  0.4019
 9611TIP3   OH228796   4.953   3.014   1.578  0.4025 -0.5048  0.4045
 9611TIP3    H128797   4.908   3.018   1.662  0.5805 -2.0091  0.6013
 9611TIP3    H228798   4.971   3.105   1.556 -0.1210 -0.0553  1.7343
 9612TIP3   OH228799   6.592   4.551   0.578 -0.1970  0.3606 -0.1302
 9612TIP3    H128800   6.658   4.547   0.646 -0.7392 -0.7759  0.3600
 9612TIP3    H228801   6.549   4.636   0.590 -0.3653  0.1272  1.0285
 9613TIP3   OH228802   7.130   6.057   5.088 -0.0639  0.4951 -0.1468
 9613TIP3    H128803   7.181   6.069   5.008  0.6905 -0.7217  0.1296
 9613TIP3    H228804   7.039   6.059   5.059  0.2004  0.1834 -1.0212
 9614TIP3   OH228805   2.543   2.198   2.489  0.1088 -0.3217 -0.3332
 9614TIP3    H128806   2.495   2.136   2.435  0.4674  1.1273 -2.4518
 9614TIP3    H228807   2.633   2.164   2.490 -0.5835 -2.4737  2.7786
 9615TIP3   OH228808   0.667   6.609   3.808  0.2538 -0.2311  0.3447
 9615TIP3    H128809   0.608   6.547   3.851 -2.9519  2.4200  0.2461
 9615TIP3    H228810   0.683   6.571   3.721 -1.2662 -1.1289  0.4179
 9616TIP3   OH228811   6.477   4.125   1.859  0.1870  0.6381  0.5031
 9616TIP3    H128812   6.450   4.100   1.947 -1.5237  3.4187  0.8922
 9616TIP3    H228813   6.544   4.192   1.872  0.4575  0.5471 -0.3350
 9617TIP3   OH228814   3.999   5.629   1.908 -0.4186  0.2858 -0.4809
 9617TIP3    H128815   3.920   5.593   1.868 -0.1940  0.6847 -1.2846
 9617TIP3    H228816   4.066   5.623   1.840  0.7292 -1.6446  0.7064
 9618TIP3   OH228817   0.486   4.606   0.067  0.0763  0.3860  0.0749
 9618TIP3    H128818   0.457   4.553   0.141  0.8570  1.6054  1.3100
 9618TIP3    H228819   0.570   4.567   0.042  0.2981  0.5745  0.5057
 9619TIP3   OH228820   3.753   0.381   0.928  0.0639  0.0667  0.0933
 9619TIP3    H128821   3.759   0.413   1.018 -0.6649 -0.4295  0.3216
 9619TIP3    H228822   3.843   0.386   0.896  0.4148 -0.1854  0.9953
 9620TIP3   OH228823   0.431   4.967   2.724 -0.2427  0.1091  0.0788
 9620TIP3    H128824   0.449   4.878   2.694  1.1578  0.1631  0.7014
 9620TIP3    H228825   0.335   4.973   2.724 -0.3423 -1.0630 -0.9010
 9621TIP3   OH228826   1.481   1.403   3.724 -0.0586 -0.8602  0.0045
 9621TIP3    H128827   1.477   1.389   3.818 -0.0957 -0.6060  0.0412
 9621TIP3    H228828   1.391   1.427   3.700 -0.2197 -1.6343 -0.2112
 9622TIP3   OH228829   5.311   4.878   1.652  0.9989 -0.2320 -0.1351
 9622TIP3    H128830   5.277   4.966   1.667 -1.0984 -0.6146 -2.0497
 9622TIP3    H228831   5.278   4.826   1.726 -1.8994 -0.3362 -1.3372
 9623TIP3   OH228832   6.630   1.084   4.971 -0.5615 -0.1139  0.1610
 9623TIP3    H128833   6.639   1.178   4.959 -2.4889  0.1824  0.6521
 9623TIP3    H228834   6.665   1.067   5.058  2.4951 -0.3786 -1.0127
 9624TIP3   OH228835   7.014   3.597   3.994  0.0668  0.0202  0.0373
 9624TIP3    H128836   7.101   3.599   4.034  0.4794 -1.7337 -0.6481
 9624TIP3    H228837   6.961   3.546   4.056 -0.5963  1.3643  0.6151
 9625TIP3   OH228838   2.674   4.024   1.780 -0.1061  0.3323 -0.7666
 9625TIP3    H128839   2.684   4.038   1.685  1.1423 -0.2028 -0.7358
 9625TIP3    H228840   2.691   4.110   1.818 -0.5812  0.5447 -1.0182
 9626TIP3   OH228841   1.046   0.708   2.009  0.5106 -0.0145 -0.3115
 9626TIP3    H128842   1.005   0.791   1.984  0.5312 -0.0585 -0.4906
 9626TIP3    H228843   1.100   0.685   1.934  0.9355  0.0895 -0.0370
 9627TIP3   OH228844   1.823   4.610   2.593  0.0415 -0.5947 -0.5119
 9627TIP3    H128845   1.912   4.579   2.575  0.7056  0.3906  0.9024
 9627TIP3    H228846   1.804   4.581   2.682  0.6980  2.8092  0.8985
 9628TIP3   OH228847   2.297   4.391   2.899 -0.3293  0.0909 -0.0850
 9628TIP3    H128848   2.243   4.421   2.826  0.7400  1.4869 -0.3448
 9628TIP3    H228849   2.248   4.319   2.937 -2.4733  1.4173 -0.1710
 9629TIP3   OH228850   5.567   1.932   5.305  0.0851 -0.2004  0.3275
 9629TIP3    H128851   5.603   1.933   5.216  1.4394  3.2475  0.7868
 9629TIP3    H228852   5.565   1.839   5.328 -0.5531 -1.2668 -3.3362
 9630TIP3   OH228853   2.284   5.863   2.399 -0.7908 -0.2068 -0.6971
 9630TIP3    H128854   2.341   5.940   2.389  1.0585 -1.4338 -0.0254
 9630TIP3    H228855   2.214   5.877   2.336  0.2144  1.4014 -1.5176
 9631TIP3   OH228856   3.980   5.258   3.585  0.6776  0.2889  0.1892
 9631TIP3    H128857   4.062   5.234   3.542  0.3786 -0.2658 -0.0788
 9631TIP3    H228858   3.949   5.334   3.535  0.7358  0.1391 -0.0806
 9632TIP3   OH228859   1.717   4.095   1.847 -0.4896 -0.1240 -0.0259
 9632TIP3    H128860   1.730   4.189   1.861 -1.2077  0.3720 -2.2759
 9632TIP3    H228861   1.641   4.073   1.901 -0.7270  0.7415  0.0100
 9633TIP3   OH228862   6.882   2.677   5.815 -0.0138 -0.0442 -0.3666
 9633TIP3    H128863   6.802   2.629   5.838 -0.1801  0.5986  0.4710
 9633TIP3    H228864   6.913   2.635   5.735 -0.0319 -1.6706  0.4381
 9634TIP3   OH228865   1.599   1.309   0.777  0.0657  0.4031 -0.4549
 9634TIP3    H128866   1.602   1.231   0.834  2.4794  1.2526  0.7291
 9634TIP3    H228867   1.677   1.301   0.721 -0.7945  0.9599 -1.7797
 9635TIP3   OH228868   0.456   0.441   1.856  0.5848 -0.3023  0.0182
 9635TIP3    H128869   0.498   0.377   1.798  0.4028  0.4221 -0.9453
 9635TIP3    H228870   0.435   0.514   1.798 -1.3059 -0.3151  0.6313
 9636TIP3   OH228871   6.139   4.230   0.403 -0.1124  0.1196  0.2777
 9636TIP3    H128872   6.203   4.296   0.430 -1.0532  1.7974 -1.4371
 9636TIP3    H228873   6.118   4.252   0.313 -1.6368 -1.6098  0.1551
 9637TIP3   OH228874  -0.023   4.735   4.609  0.2616  0.0069  0.1333
 9637TIP3    H128875  -0.002   4.643   4.626 -1.0415 -0.1918  0.8138
 9637TIP3    H228876   0.059   4.773   4.576  0.3762 -1.7713 -1.8284
 9638TIP3   OH228877   0.734   4.370   3.169 -0.2422 -0.1896 -0.1939
 9638TIP3    H128878   0.738   4.291   3.115 -1.5125  0.2579 -0.9731
 9638TIP3    H228879   0.783   4.346   3.248 -0.8871 -1.8880 -0.2513
 9639TIP3   OH228880   6.076   5.042   1.923  0.0213  0.0287  0.3842
 9639TIP3    H128881   6.081   5.080   2.011  1.1876  1.0687 -0.0945
 9639TIP3    H228882   6.152   4.984   1.917  0.5188  0.7292 -0.2617
 9640TIP3   OH228883   4.176   1.135   0.880  0.1429 -0.1442  0.0093
 9640TIP3    H128884   4.238   1.063   0.869 -0.8039 -0.7603 -1.6186
 9640TIP3    H228885   4.161   1.168   0.791 -0.6165  1.0662  0.5568
 9641TIP3   OH228886   5.330   4.604   3.550 -0.5368  0.8871  0.3860
 9641TIP3    H128887   5.375   4.588   3.467  1.7870 -0.0387  1.7448
 9641TIP3    H228888   5.257   4.542   3.550 -0.9837  1.3526 -1.2047
 9642TIP3   OH228889   2.249   1.926   0.370 -0.4008 -0.6426 -0.1572
 9642TIP3    H128890   2.260   2.021   0.366  0.2597 -0.6946  0.2882
 9642TIP3    H228891   2.276   1.902   0.458 -2.0970 -1.0632  0.2743
 9643TIP3   OH228892   4.716   0.265   3.855 -0.1102 -0.1025 -0.1745
 9643TIP3    H128893   4.688   0.260   3.947 -1.5994 -0.6025 -0.6278
 9643TIP3    H228894   4.808   0.240   3.857  0.1091  0.6671  1.2762
 9644TIP3   OH228895   4.478   1.882   0.626 -0.4571  0.0105  0.8263
 9644TIP3    H128896   4.532   1.959   0.638  1.7071 -1.2730 -0.0639
 9644TIP3    H228897   4.423   1.902   0.550  1.3986  0.0630 -0.5700
 9645TIP3   OH228898   4.977   1.543   3.022 -0.2397  0.6063 -0.0710
 9645TIP3    H128899   4.968   1.466   2.966 -1.9702  1.4926 -1.0919
 9645TIP3    H228900   5.035   1.602   2.973  0.1946  0.4192  0.2071
 9646TIP3   OH228901   6.011   1.445   2.708 -0.1576  0.3932 -0.1341
 9646TIP3    H128902   5.949   1.419   2.775 -0.8437  0.6478 -0.6579
 9646TIP3    H228903   6.016   1.370   2.649 -0.8369  0.7856 -0.7083
 9647TIP3   OH228904   3.125   6.690   4.493 -0.3179 -0.4284  0.6321
 9647TIP3    H128905   3.038   6.730   4.482  0.4693  1.3763  0.6485
 9647TIP3    H228906   3.130   6.671   4.587 -0.7195 -0.6457  0.6155
 9648TIP3   OH228907   0.219   2.766   1.552  0.2684 -0.1714  0.0228
 9648TIP3    H128908   0.265   2.684   1.571 -1.4336 -1.1077  0.2811
 9648TIP3    H228909   0.143   2.740   1.500 -0.0569  1.3092 -0.2849
 9649TIP3   OH228910   1.179   4.831   1.467  0.3513 -0.1962 -0.1708
 9649TIP3    H128911   1.193   4.781   1.547  3.3520 -0.5241 -0.7872
 9649TIP3    H228912   1.143   4.915   1.496 -0.9397 -1.1860  1.2261
 9650TIP3   OH228913   6.069   2.339   2.023 -0.2302 -0.0767 -0.0135
 9650TIP3    H128914   6.032   2.347   1.935  2.1871 -0.1187 -1.1174
 9650TIP3    H228915   6.092   2.429   2.047 -0.9787 -0.0492  0.6701
 9651TIP3   OH228916   1.942   3.947   3.804 -0.4115  0.2426  0.1165
 9651TIP3    H128917   1.881   3.957   3.731  1.0215  1.1236 -1.0119
 9651TIP3    H228918   1.910   3.870   3.851 -0.9350 -0.8279 -1.8852
 9652TIP3   OH228919   5.148   5.646   3.651  0.2626  0.8062  0.0533
 9652TIP3    H128920   5.056   5.665   3.668 -0.2208 -1.5275  0.4285
 9652TIP3    H228921   5.160   5.556   3.680  1.8782 -0.0705 -2.8818
 9653TIP3   OH228922   7.118   4.463   2.166 -0.5327 -0.2524  0.2310
 9653TIP3    H128923   7.180   4.482   2.236 -0.9686  3.1338 -0.1154
 9653TIP3    H228924   7.034   4.495   2.199 -1.0833 -0.1202 -1.2043
 9654TIP3   OH228925   1.127   2.846   2.954  0.3995 -0.1034 -0.1265
 9654TIP3    H128926   1.124   2.784   3.027 -2.9700  1.0890  0.9271
 9654TIP3    H228927   1.181   2.918   2.987  0.9541 -0.6579  0.2049
 9655TIP3   OH228928   1.981   3.770   0.771 -0.0652  0.5875  0.0329
 9655TIP3    H128929   1.970   3.842   0.834  0.7992  0.9621 -0.2302
 9655TIP3    H228930   2.007   3.695   0.825 -1.1908  0.3868  0.3369
 9656TIP3   OH228931   0.585   1.263   2.236 -0.0958  0.3910  0.5988
 9656TIP3    H128932   0.496   1.288   2.212  1.4437  3.0913 -3.2983
 9656TIP3    H228933   0.609   1.324   2.306 -1.3585 -0.7193  2.0729
 9657TIP3   OH228934   7.028   2.275   3.438  0.0751 -0.1618  0.4837
 9657TIP3    H128935   7.001   2.214   3.507  0.4758 -0.2614  0.5564
 9657TIP3    H228936   7.047   2.357   3.484  0.3322 -0.2252  0.4946
 9658TIP3   OH228937   5.833   0.573   0.280  0.6944 -0.0663 -0.4299
 9658TIP3    H128938   5.795   0.658   0.257  1.0663  0.0118 -0.7666
 9658TIP3    H228939   5.775   0.509   0.239  0.2619  0.0110  0.0469
 9659TIP3   OH228940   0.393   4.956   0.951  0.2732  0.0252  0.1385
 9659TIP3    H128941   0.312   4.905   0.953  0.2428  0.0823  0.4265
 9659TIP3    H228942   0.454   4.905   1.005  0.3656  0.0903  0.0965
 9660TIP3   OH228943   0.894   4.135   5.673  0.0511  0.0805 -0.1280
 9660TIP3    H128944   0.902   4.198   5.744 -0.5876 -1.7392  1.6922
 9660TIP3    H228945   0.828   4.172   5.614 -0.3502  1.0777  0.9206
 9661TIP3   OH228946   1.565   5.622   0.423 -0.4927 -0.1526  0.8350
 9661TIP3    H128947   1.578   5.579   0.339 -0.5997  0.9877  0.2140
 9661TIP3    H228948   1.479   5.593   0.452 -0.6951 -0.1174  0.2786
 9662TIP3   OH228949   1.427   4.436   1.359 -0.6341  0.2879  0.2440
 9662TIP3    H128950   1.492   4.504   1.348 -0.3422 -0.2645 -1.8475
 9662TIP3    H228951   1.348   4.482   1.387 -0.1506  1.3320 -0.0775
 9663TIP3   OH228952   4.558   6.362   2.702  0.3930  0.8279  0.2907
 9663TIP3    H128953   4.513   6.295   2.753  0.8694  0.2767 -0.0090
 9663TIP3    H228954   4.506   6.441   2.715 -0.0227  0.4633  0.8602
 9664TIP3   OH228955   6.902   3.048   5.522  0.3222  0.0748 -0.2637
 9664TIP3    H128956   6.926   2.963   5.486  0.8860 -0.4695  1.2954
 9664TIP3    H228957   6.833   3.080   5.464  0.1091 -1.4375 -0.8995
 9665TIP3   OH228958   4.048   5.271   0.179  0.0385 -0.0290  0.9274
 9665TIP3    H128959   3.982   5.288   0.246  0.4164  1.0357  1.0476
 9665TIP3    H228960   4.069   5.357   0.143 -1.8006 -0.7040 -2.1813
 9666TIP3   OH228961   5.273   3.873   1.389  0.0853 -0.5191 -0.6685
 9666TIP3    H128962   5.352   3.841   1.345  0.4731 -0.4146 -0.0556
 9666TIP3    H228963   5.203   3.855   1.327  0.3937 -1.8661 -0.6730
 9667TIP3   OH228964   1.677   3.229   0.441 -0.0714  0.0364  0.1255
 9667TIP3    H128965   1.594   3.192   0.471 -1.0369  1.7305 -0.2983
 9667TIP3    H228966   1.737   3.155   0.436 -1.6145 -1.2574  0.2675
 9668TIP3   OH228967   5.977   3.377   3.246 -0.0090 -0.3055  0.1109
 9668TIP3    H128968   6.061   3.373   3.200 -0.1915  2.9746 -0.7913
 9668TIP3    H228969   5.925   3.306   3.208  1.8616 -1.5315 -0.2972
 9669TIP3   OH228970   6.493   6.138   4.008  0.6293 -0.5709 -0.1443
 9669TIP3    H128971   6.478   6.074   4.077  1.7740 -0.0801  0.5956
 9669TIP3    H228972   6.463   6.221   4.044 -0.5620 -0.6188 -0.9827
 9670TIP3   OH228973   4.217   6.496   3.537 -0.1902 -0.0211  0.6731
 9670TIP3    H128974   4.299   6.472   3.494 -0.6619  0.0762 -0.3140
 9670TIP3    H228975   4.204   6.588   3.516 -0.6851 -0.1049  0.5870
 9671TIP3   OH228976   6.444   3.374   4.870  0.3689 -0.4404 -0.1012
 9671TIP3    H128977   6.531   3.340   4.852  0.4745  0.0236 -0.4866
 9671TIP3    H228978   6.432   3.362   4.964  0.9743 -0.2216  0.0053
 9672TIP3   OH228979   3.117   4.631   5.092 -0.1868  0.2312  0.3824
 9672TIP3    H128980   3.050   4.670   5.035  0.1583  0.0152 -0.1779
 9672TIP3    H228981   3.104   4.537   5.084  0.4532  0.1780 -0.0585
 9673TIP3   OH228982   2.095   4.015   1.556 -0.3833 -0.2750  0.0145
 9673TIP3    H128983   2.104   3.923   1.581 -0.7174 -0.8349 -1.7442
 9673TIP3    H228984   2.181   4.040   1.524 -0.8808 -0.7747 -1.8412
 9674TIP3   OH228985   6.439   0.033   4.422  0.2291  0.1693  0.1708
 9674TIP3    H128986   6.435   0.019   4.327  0.3085 -0.2098  0.2198
 9674TIP3    H228987   6.358   0.079   4.443 -0.1594 -0.4296  0.0267
 9675TIP3   OH228988   5.956   4.066   1.208  0.5370 -0.1098 -0.0938
 9675TIP3    H128989   5.961   4.031   1.119 -1.4687  3.1526 -1.6767
 9675TIP3    H228990   6.046   4.092   1.228  0.8512  0.2011 -1.7212
 9676TIP3   OH228991   0.010   6.300   0.697 -0.3780 -0.2164  1.1022
 9676TIP3    H128992   0.062   6.314   0.775  0.0162  0.2917  0.7560
 9676TIP3    H228993  -0.009   6.206   0.697 -1.3211 -0.0507  2.3767
 9677TIP3   OH228994   0.993   1.187   1.402  0.0376  0.3219 -0.2374
 9677TIP3    H128995   0.965   1.268   1.360  1.0475  1.5980  1.4085
 9677TIP3    H228996   0.978   1.119   1.337 -0.3215  1.9071 -1.8787
 9678TIP3   OH228997   1.700   4.425   3.637  0.0060  0.0056 -0.0174
 9678TIP3    H128998   1.792   4.424   3.612 -0.0178  0.4711 -0.1303
 9678TIP3    H228999   1.695   4.369   3.714  0.2197 -0.7967 -0.5790
 9679TIP3   OH229000   2.075   2.221   4.574  0.2018  0.2046  0.0878
 9679TIP3    H129001   2.154   2.166   4.574 -0.4367 -0.7617  1.2672
 9679TIP3    H229002   2.040   2.213   4.663 -1.4557  0.2758 -0.5233
 9680TIP3   OH229003   0.128   5.032   1.668  0.0517 -0.2175  0.1464
 9680TIP3    H129004   0.106   5.032   1.575 -0.9265  0.1493  0.3657
 9680TIP3    H229005   0.121   5.124   1.693 -0.0798 -0.3718  0.6709
 9681TIP3   OH229006   5.620   5.215   5.669 -0.1780  0.1184  0.3146
 9681TIP3    H129007   5.649   5.263   5.747  1.1174 -0.4807  0.2218
 9681TIP3    H229008   5.612   5.283   5.601  2.0536  0.2198  0.0714
 9682TIP3   OH229009   3.336   4.530   2.011  0.0750  0.0525  0.3546
 9682TIP3    H129010   3.312   4.479   2.089 -0.6077 -0.4523 -0.1768
 9682TIP3    H229011   3.273   4.601   2.009 -0.3005 -0.2865 -0.0751
 9683TIP3   OH229012   2.059   2.280   2.008  0.1717  0.1319  0.3467
 9683TIP3    H129013   1.996   2.282   2.080  1.7337 -0.0877  1.7708
 9683TIP3    H229014   2.117   2.207   2.029  0.7515  0.1625 -1.0666
 9684TIP3   OH229015   3.420   3.939   2.331  0.4165  0.6400  0.4572
 9684TIP3    H129016   3.455   3.903   2.412  1.9982 -0.0627 -0.4935
 9684TIP3    H229017   3.381   3.864   2.286 -1.2388  1.1832  0.9245
 9685TIP3   OH229018   0.179   0.627   1.603  0.1690 -0.8217  0.5540
 9685TIP3    H129019   0.187   0.696   1.537  0.0335  0.7663  2.1041
 9685TIP3    H229020   0.230   0.660   1.677 -2.1697 -1.0602  2.3783
 9686TIP3   OH229021   5.631   2.235   5.097 -0.1396 -0.1071 -0.1528
 9686TIP3    H129022   5.649   2.146   5.067  0.4243 -0.6459  1.6435
 9686TIP3    H229023   5.556   2.226   5.156  0.8028  0.3507  1.1521
 9687TIP3   OH229024   0.024   6.759   2.820 -0.1907  0.4724 -0.3611
 9687TIP3    H129025   0.095   6.725   2.765  0.9889  3.0430 -0.5258
 9687TIP3    H229026  -0.046   6.780   2.758  0.4481  1.6755 -0.6844
 9688TIP3   OH229027   2.223   6.768   4.905 -0.2029  0.1871  0.0391
 9688TIP3    H129028   2.295   6.787   4.965 -0.3903  0.8994  0.0429
 9688TIP3    H229029   2.155   6.730   4.960 -0.0254 -0.0255  0.1157
 9689TIP3   OH229030   6.161   2.672   1.339  0.2631  0.0137 -0.2608
 9689TIP3    H129031   6.229   2.665   1.272  0.3355 -0.7777 -0.1259
 9689TIP3    H229032   6.098   2.602   1.316  1.0351 -1.2602  1.3019
 9690TIP3   OH229033   1.690   1.084   3.656 -0.1618  0.0542  0.0264
 9690TIP3    H129034   1.750   1.143   3.610 -0.2402  1.4032  1.5500
 9690TIP3    H229035   1.721   1.086   3.747 -0.2798 -2.1557  0.1580
 9691TIP3   OH229036   1.450   5.882   4.084  0.2892 -0.8156  0.0491
 9691TIP3    H129037   1.407   5.862   4.167 -3.4122 -0.4058 -1.5941
 9691TIP3    H229038   1.442   5.802   4.033 -0.3108 -0.1284 -0.9703
 9692TIP3   OH229039   4.543   3.964   3.251 -0.0388 -0.8922  0.1078
 9692TIP3    H129040   4.597   4.043   3.237 -2.1736  0.6917  0.3675
 9692TIP3    H229041   4.568   3.934   3.338  0.3361 -0.1234  0.2811
 9693TIP3   OH229042   6.134   6.751   5.609 -0.3158  0.7572 -0.0210
 9693TIP3    H129043   6.149   6.695   5.685  3.3147  2.1431  0.5052
 9693TIP3    H229044   6.080   6.823   5.642 -0.1269  0.5221  0.8240
 9694TIP3   OH229045   6.624   2.660   2.630 -0.0772 -0.0213 -0.0978
 9694TIP3    H129046   6.640   2.696   2.543  3.6589 -0.1609  0.3669
 9694TIP3    H229047   6.663   2.724   2.690 -2.1722 -0.1431  1.5151
 9695TIP3   OH229048   6.058   3.583   1.719 -0.5117  0.1485  0.0192
 9695TIP3    H129049   6.150   3.606   1.706 -0.5002 -0.3789 -0.8740
 9695TIP3    H229050   6.058   3.521   1.792 -0.0183 -0.8231 -0.7937
 9696TIP3   OH229051   2.997   1.510   0.241 -0.3612  0.0010  0.4512
 9696TIP3    H129052   3.092   1.520   0.246 -0.3239 -0.8384  2.1417
 9696TIP3    H229053   2.967   1.587   0.191  1.3741 -1.0782 -2.4585
 9697TIP3   OH229054   7.036   2.985   5.142 -0.2072 -0.6622  0.0103
 9697TIP3    H129055   7.017   2.980   5.049 -0.5553  1.5564 -0.0828
 9697TIP3    H229056   7.117   3.037   5.147 -0.8126  0.2240  0.9699
 9698TIP3   OH229057   2.013   2.483   2.513 -0.2309 -0.5160  0.3463
 9698TIP3    H129058   2.075   2.446   2.576  2.0294 -1.3582 -2.1692
 9698TIP3    H229059   1.966   2.408   2.477 -0.5905 -0.1884  0.1186
 9699TIP3   OH229060   0.807   3.060   0.566 -0.5245 -0.2945 -0.4155
 9699TIP3    H129061   0.818   3.138   0.620  0.2191 -1.0992  0.6360
 9699TIP3    H229062   0.841   3.085   0.480 -0.8236  0.7012 -0.2581
 9700TIP3   OH229063   4.514   0.366   3.403 -0.3815  0.3036  0.1641
 9700TIP3    H129064   4.582   0.320   3.453  0.4250  0.9736 -0.2947
 9700TIP3    H229065   4.471   0.296   3.352 -0.2571 -0.1719  0.7030
 9701TIP3   OH229066   1.702   4.437   4.804 -0.4715 -0.1777  0.1184
 9701TIP3    H129067   1.701   4.435   4.899 -1.2112  0.6617  0.1374
 9701TIP3    H229068   1.635   4.375   4.777 -0.9468  0.3122  0.1648
 9702TIP3   OH229069   0.061   6.427   0.461  0.1792  0.6753  0.6935
 9702TIP3    H129070   0.045   6.374   0.540 -1.7164 -0.1084 -0.1653
 9702TIP3    H229071  -0.016   6.483   0.454  0.7238  1.3348 -0.1608
 9703TIP3   OH229072   5.771   3.406   0.991 -0.3025 -0.6944 -0.2700
 9703TIP3    H129073   5.758   3.442   0.903  0.8823 -1.0824 -0.6207
 9703TIP3    H229074   5.707   3.334   0.996 -1.7721  0.5779 -0.0424
 9704TIP3   OH229075   0.698   6.000   5.644 -0.2964 -0.1896  0.7902
 9704TIP3    H129076   0.667   6.080   5.688  1.1869  0.7340  0.2017
 9704TIP3    H229077   0.768   5.968   5.700  0.2823 -0.1037  0.1217
 9705TIP3   OH229078   7.114   6.531   0.154  0.2736 -0.3172  0.3056
 9705TIP3    H129079   7.109   6.623   0.181 -0.3020 -0.1759 -0.2651
 9705TIP3    H229080   7.074   6.483   0.227  0.6197 -0.1226  0.6274
 9706TIP3   OH229081   5.383   3.222   5.308  0.7643 -0.0010 -0.1901
 9706TIP3    H129082   5.441   3.299   5.309  1.1377 -0.2643 -0.7755
 9706TIP3    H229083   5.363   3.209   5.216  1.3317 -1.0625 -0.1790
 9707TIP3   OH229084   3.957   5.141   4.591 -0.1682  0.1991 -0.8379
 9707TIP3    H129085   3.879   5.087   4.609  0.7266 -0.7189  0.5228
 9707TIP3    H229086   3.977   5.124   4.500 -1.1445 -0.1128 -1.0127
 9708TIP3   OH229087   2.218   6.238   0.103  0.2938 -0.3035 -0.3603
 9708TIP3    H129088   2.190   6.164   0.049 -0.6069  0.1371 -0.5109
 9708TIP3    H229089   2.301   6.209   0.143 -0.2571 -1.5485 -0.0866
 9709TIP3   OH229090   1.084   1.247   3.833  0.6631 -0.7616 -0.6199
 9709TIP3    H129091   1.099   1.342   3.833 -1.2414 -0.4064 -1.5010
 9709TIP3    H229092   1.020   1.234   3.903 -0.5655 -1.0854 -1.7730
 9710TIP3   OH229093   6.540   3.243   4.356  0.8471 -0.1358  0.3316
 9710TIP3    H129094   6.541   3.339   4.351  1.9411 -0.2039 -1.3389
 9710TIP3    H229095   6.472   3.216   4.294  2.3756 -0.4938 -1.2392
 9711TIP3   OH229096   6.549   5.936   0.226  0.0294 -0.4220 -0.3745
 9711TIP3    H129097   6.458   5.906   0.229  0.7502 -2.8173 -0.5198
 9711TIP3    H229098   6.564   5.959   0.134  0.0824 -1.8384 -0.7370
 9712TIP3   OH229099   3.819   2.938   0.655  0.2546 -0.1591 -0.4863
 9712TIP3    H129100   3.724   2.930   0.642 -0.1328  2.1870  0.2984
 9712TIP3    H229101   3.837   2.884   0.732 -0.8632  0.9612  0.6112
 9713TIP3   OH229102   5.128   4.931   1.275 -0.0899 -0.3249  0.3023
 9713TIP3    H129103   5.185   5.006   1.296 -1.5704  1.7200 -2.3228
 9713TIP3    H229104   5.189   4.862   1.249  1.3067  0.9228  0.1029
 9714TIP3   OH229105   0.746   6.150   2.492  0.0855 -0.5461 -0.3177
 9714TIP3    H129106   0.675   6.189   2.441 -0.8221 -0.3452  1.0619
 9714TIP3    H229107   0.702   6.090   2.553  1.1332 -0.7277  0.2824
 9715TIP3   OH229108   4.980   0.880   1.456 -0.3338  0.9755  0.8844
 9715TIP3    H129109   5.046   0.814   1.477  0.6176  1.8486  0.7469
 9715TIP3    H229110   4.973   0.878   1.361  0.0678  1.3978  0.8394
 9716TIP3   OH229111   6.236   1.079   0.355 -0.1380  0.4801  0.4939
 9716TIP3    H129112   6.206   1.153   0.303  2.4161  0.1052 -1.7387
 9716TIP3    H229113   6.194   1.003   0.315  1.5424  0.2298 -0.9014
 9717TIP3   OH229114   2.469   1.666   2.626  0.0484 -0.1047 -0.8221
 9717TIP3    H129115   2.476   1.760   2.609 -2.8880  0.7180  1.6462
 9717TIP3    H229116   2.555   1.642   2.660  0.5546  1.9523 -0.4620
 9718TIP3   OH229117   3.639   5.545   0.526 -0.1601  0.3355 -0.3272
 9718TIP3    H129118   3.662   5.463   0.569  0.0995  0.2225 -0.6839
 9718TIP3    H229119   3.666   5.613   0.588 -0.4501  0.1509  0.0019
 9719TIP3   OH229120   5.869   5.905   4.660 -0.0805 -0.7304  0.4836
 9719TIP3    H129121   5.864   5.881   4.752 -0.7017 -1.4036  0.2893
 9719TIP3    H229122   5.778   5.902   4.630 -0.0761  1.0511  0.2241
 9720TIP3   OH229123   3.976   2.055   0.706 -0.5751  0.3779 -0.0332
 9720TIP3    H129124   4.049   2.104   0.669  0.4924  0.0637  1.5524
 9720TIP3    H229125   3.898   2.096   0.669  0.3762  1.0891 -1.3181
 9721TIP3   OH229126   3.695   0.506   5.673 -0.9753 -0.7306  0.3885
 9721TIP3    H129127   3.769   0.486   5.615 -0.4210 -0.3957  0.9655
 9721TIP3    H229128   3.620   0.463   5.632 -0.3928 -1.3739 -0.0215
 9722TIP3   OH229129   1.081   1.634   2.141 -0.0003  0.1017 -0.9058
 9722TIP3    H129130   1.064   1.574   2.068 -0.9355  0.1573 -0.7445
 9722TIP3    H229131   1.015   1.612   2.206  0.8019  0.0865 -0.0855
 9723TIP3   OH229132   3.996   4.277   4.544  0.1573 -0.3619  0.2500
 9723TIP3    H129133   3.913   4.228   4.537  0.1671 -0.2355 -0.8274
 9723TIP3    H229134   3.975   4.350   4.603 -0.7750  0.2148 -0.7633
 9724TIP3   OH229135   0.616   0.674   2.458  0.2704 -0.5158 -0.2235
 9724TIP3    H129136   0.607   0.688   2.553 -0.1808  1.5194 -0.5150
 9724TIP3    H229137   0.546   0.614   2.436 -0.4673  0.0317  0.5544
 9725TIP3   OH229138   4.624   3.921   3.869  0.3258  0.4148 -0.1719
 9725TIP3    H129139   4.619   3.868   3.948  1.3737 -0.4275 -0.6398
 9725TIP3    H229140   4.533   3.932   3.841 -0.0847  1.0747  1.3543
 9726TIP3   OH229141   3.008   1.310   5.161  0.0654 -0.3877 -0.2567
 9726TIP3    H129142   2.955   1.382   5.125  0.0656 -1.1231 -1.8089
 9726TIP3    H229143   3.083   1.353   5.201 -1.3590  0.6456  1.4441
 9727TIP3   OH229144   2.792   2.164   0.794 -0.9093  0.2138 -0.3678
 9727TIP3    H129145   2.780   2.080   0.839  0.5999  0.5246  0.7019
 9727TIP3    H229146   2.712   2.213   0.814 -1.5945 -0.7740 -0.5876
 9728TIP3   OH229147   3.193   5.064   4.951  0.0874 -0.0483  0.1843
 9728TIP3    H129148   3.245   4.985   4.967  1.0556  0.7063  0.8446
 9728TIP3    H229149   3.107   5.031   4.927  0.8644 -1.3395 -0.9925
 9729TIP3   OH229150   4.876   1.833   0.205  0.2231  0.1705 -0.0900
 9729TIP3    H129151   4.781   1.833   0.195  0.2432  0.4483 -0.2650
 9729TIP3    H229152   4.892   1.898   0.274  0.1638 -0.9987  1.0787
 9730TIP3   OH229153   2.075   4.665   2.848  0.2594 -0.1782  0.4795
 9730TIP3    H129154   2.025   4.704   2.920 -0.1169 -0.1783  0.2217
 9730TIP3    H229155   2.084   4.736   2.784  1.5048  0.1370  0.9752
 9731TIP3   OH229156   6.541   0.617   1.746 -0.3082  0.4344 -0.0572
 9731TIP3    H129157   6.484   0.687   1.776  1.2059  0.9101  1.9098
 9731TIP3    H229158   6.518   0.542   1.802  1.2896  0.7851  1.1218
 9732TIP3   OH229159   2.434   5.274   0.241  0.3298  0.0983  0.2927
 9732TIP3    H129160   2.406   5.320   0.161  3.0473  0.8910 -0.3105
 9732TIP3    H229161   2.484   5.339   0.290 -0.4417 -0.6756  2.2083
 9733TIP3   OH229162   1.706   6.544   5.606  0.6890 -0.1716  0.1791
 9733TIP3    H129163   1.700   6.630   5.563 -2.0362 -1.4480 -2.3477
 9733TIP3    H229164   1.637   6.545   5.672 -0.7898 -1.0341 -1.2781
 9734TIP3   OH229165   6.764   4.082   0.988 -0.3341  0.1041 -0.2327
 9734TIP3    H129166   6.702   4.050   0.922  0.7914  0.5100 -1.5382
 9734TIP3    H229167   6.745   4.030   1.066 -0.9209 -1.2441 -1.2320
 9735TIP3   OH229168   1.341   6.640   3.394  0.7203  0.2429 -0.0091
 9735TIP3    H129169   1.378   6.570   3.341 -0.5388  0.1929 -0.8525
 9735TIP3    H229170   1.324   6.599   3.479 -0.6237 -0.7015 -0.6881
 9736TIP3   OH229171   2.292   5.333   1.130 -0.2496  0.3188  0.2230
 9736TIP3    H129172   2.214   5.298   1.089  0.4359 -0.8124 -0.1584
 9736TIP3    H229173   2.271   5.339   1.223  0.0980 -2.6264  0.5692
 9737TIP3   OH229174   3.724   0.506   2.891  0.2317 -0.1613 -0.0843
 9737TIP3    H129175   3.798   0.554   2.927  0.2984  0.3524 -0.8744
 9737TIP3    H229176   3.664   0.575   2.860 -0.8234 -0.5525  1.0184
 9738TIP3   OH229177   1.994   5.865   5.818 -0.2529 -0.6809  0.4474
 9738TIP3    H129178   1.917   5.898   5.865  0.0419 -1.0238  1.1702
 9738TIP3    H229179   2.055   5.838   5.887  0.3496 -0.7997 -0.1262
 9739TIP3   OH229180   2.010   5.035   5.652  0.5700 -0.4374 -0.1874
 9739TIP3    H129181   2.016   4.947   5.615 -0.8313  0.2324 -2.2070
 9739TIP3    H229182   2.095   5.076   5.634  0.2617 -0.4687 -1.8727
 9740TIP3   OH229183   0.594   3.029   1.732 -0.0173 -0.0074 -0.3156
 9740TIP3    H129184   0.504   2.997   1.738 -0.5770  1.5934  0.5944
 9740TIP3    H229185   0.615   3.060   1.821  0.6502  1.5497 -0.9673
 9741TIP3   OH229186   2.776   1.935   4.071  0.1473 -0.3138 -0.4822
 9741TIP3    H129187   2.740   1.888   4.147 -0.4400  0.7322 -0.1014
 9741TIP3    H229188   2.714   1.917   4.001 -1.0589  1.2825  0.1108
 9742TIP3   OH229189   2.554   4.446   0.603  0.4994 -0.0884 -0.0386
 9742TIP3    H129190   2.533   4.481   0.516  0.0867 -0.5675 -0.1343
 9742TIP3    H229191   2.575   4.523   0.655 -2.8526  0.6093  0.4717
 9743TIP3   OH229192   3.278   4.873   1.405 -0.2197  0.2982  0.0622
 9743TIP3    H129193   3.276   4.901   1.313 -0.6632  1.2225  0.3479
 9743TIP3    H229194   3.318   4.945   1.452  0.3321 -0.3172  0.5626
 9744TIP3   OH229195   5.892   6.460   2.415  0.0372  0.2894  0.2323
 9744TIP3    H129196   5.963   6.438   2.476  0.3385 -2.0421 -0.8375
 9744TIP3    H229197   5.831   6.386   2.424 -1.2917  1.2956 -0.2946
 9745TIP3   OH229198   2.181   3.889   4.752  0.1247  0.2357  0.0354
 9745TIP3    H129199   2.233   3.950   4.803  1.9515 -2.3819  1.5129
 9745TIP3    H229200   2.234   3.869   4.676 -0.3854  0.3137 -0.3508
 9746TIP3   OH229201   6.681   5.542   4.499 -0.1029 -0.1861 -0.4772
 9746TIP3    H129202   6.696   5.469   4.559  0.7657 -0.5264 -1.0851
 9746TIP3    H229203   6.626   5.504   4.430 -0.8771  0.1332 -0.0458
 9747TIP3   OH229204   1.702   0.166   1.664 -0.0708 -0.0874 -0.2673
 9747TIP3    H129205   1.673   0.113   1.739  0.2112 -1.4261 -1.0674
 9747TIP3    H229206   1.682   0.111   1.588  2.5685 -0.1525 -0.9929
 9748TIP3   OH229207   4.132   0.041   3.401 -0.1556  0.7674  0.0340
 9748TIP3    H129208   4.104  -0.032   3.346 -1.1444  1.5999 -0.6207
 9748TIP3    H229209   4.152   0.002   3.486  2.0558 -0.6604 -1.0423
 9749TIP3   OH229210   2.659   5.239   2.264  0.2754 -0.1844 -0.1108
 9749TIP3    H129211   2.687   5.283   2.345  2.0767 -0.2280 -0.6551
 9749TIP3    H229212   2.641   5.149   2.290  2.0859 -0.5275  0.0555
   7.20930   6.79700   5.88636   0.00000   0.00000  -2.40311   0.00000  -2.40311  -3.39850
