Title t= 417.00000 step= 208500
19942
    1ASP      N    1   1.139   2.238   3.201
    1ASP    HT1    2   1.120   2.260   3.101
    1ASP    HT2    3   1.131   2.328   3.252
    1ASP    HT3    4   1.069   2.170   3.239
    1ASP     CA    5   1.278   2.172   3.217
    1ASP     HA    6   1.349   2.253   3.223
    1ASP     CB    7   1.285   2.091   3.354
    1ASP    HB1    8   1.253   1.985   3.351
    1ASP    HB2    9   1.227   2.155   3.424
    1ASP     CG   10   1.428   2.085   3.410
    1ASP    OD1   11   1.445   2.011   3.509
    1ASP    OD2   12   1.517   2.156   3.364
    1ASP      C   13   1.325   2.096   3.096
    1ASP      O   14   1.364   2.153   2.993
    2ALA      N   15   1.303   1.960   3.101
    2ALA     HN   16   1.283   1.910   3.185
    2ALA     CA   17   1.312   1.875   2.977
    2ALA     HA   18   1.408   1.893   2.931
    2ALA     CB   19   1.321   1.727   3.016
    2ALA    HB1   20   1.218   1.709   3.055
    2ALA    HB2   21   1.395   1.726   3.099
    2ALA    HB3   22   1.339   1.651   2.937
    2ALA      C   23   1.203   1.913   2.881
    2ALA      O   24   1.098   1.960   2.924
    3ASP      N   25   1.228   1.898   2.754
    3ASP     HN   26   1.317   1.870   2.720
    3ASP     CA   27   1.130   1.932   2.652
    3ASP     HA   28   1.103   2.036   2.662
    3ASP     CB   29   1.199   1.918   2.508
    3ASP    HB1   30   1.136   1.944   2.420
    3ASP    HB2   31   1.234   1.813   2.495
    3ASP     CG   32   1.327   1.987   2.498
    3ASP    OD1   33   1.417   1.946   2.413
    3ASP    OD2   34   1.358   2.080   2.574
    3ASP      C   35   1.002   1.862   2.646
    3ASP      O   36   0.977   1.766   2.726
    4GLY      N   37   0.907   1.893   2.555
    4GLY     HN   38   0.926   1.971   2.495
    4GLY     CA   39   0.777   1.828   2.553
    4GLY    HA1   40   0.714   1.872   2.477
    4GLY    HA2   41   0.738   1.829   2.653
    4GLY      C   42   0.785   1.683   2.509
    4GLY      O   43   0.892   1.640   2.472
    5PRO      N   44   0.670   1.606   2.514
    5PRO     CD   45   0.542   1.661   2.552
    5PRO    HD1   46   0.503   1.751   2.500
    5PRO    HD2   47   0.554   1.687   2.659
    5PRO     CA   48   0.657   1.468   2.473
    5PRO     HA   49   0.702   1.421   2.560
    5PRO     CB   50   0.506   1.449   2.451
    5PRO    HB1   51   0.463   1.347   2.465
    5PRO    HB2   52   0.484   1.480   2.346
    5PRO     CG   53   0.438   1.546   2.552
    5PRO    HG1   54   0.336   1.581   2.524
    5PRO    HG2   55   0.434   1.507   2.656
    5PRO      C   56   0.740   1.416   2.358
    5PRO      O   57   0.751   1.479   2.258
    6GLY      N   58   0.808   1.297   2.383
    6GLY     HN   59   0.813   1.255   2.474
    6GLY     CA   60   0.897   1.233   2.289
    6GLY    HA1   61   0.936   1.160   2.358
    6GLY    HA2   62   0.965   1.306   2.248
    6GLY      C   63   0.832   1.164   2.178
    6GLY      O   64   0.715   1.177   2.148
    7ASP      N   65   0.905   1.073   2.111
    7ASP     HN   66   0.999   1.061   2.142
    7ASP     CA   67   0.851   0.975   2.011
    7ASP     HA   68   0.813   1.031   1.927
    7ASP     CB   69   0.966   0.882   1.955
    7ASP    HB1   70   0.928   0.808   1.882
    7ASP    HB2   71   1.017   0.822   2.033
    7ASP     CG   72   1.068   0.969   1.891
    7ASP    OD1   73   1.190   0.938   1.886
    7ASP    OD2   74   1.030   1.069   1.825
    7ASP      C   75   0.736   0.894   2.068
    7ASP      O   76   0.743   0.864   2.186
    8PRO      N   77   0.627   0.853   1.996
    8PRO     CD   78   0.588   0.897   1.865
    8PRO    HD1   79   0.672   0.884   1.794
    8PRO    HD2   80   0.565   1.006   1.865
    8PRO     CA   81   0.515   0.780   2.062
    8PRO     HA   82   0.496   0.833   2.155
    8PRO     CB   83   0.394   0.786   1.963
    8PRO    HB1   84   0.343   0.882   1.985
    8PRO    HB2   85   0.325   0.699   1.965
    8PRO     CG   86   0.464   0.816   1.830
    8PRO    HG1   87   0.497   0.722   1.782
    8PRO    HG2   88   0.392   0.867   1.763
    8PRO      C   89   0.546   0.631   2.087
    8PRO      O   90   0.481   0.574   2.174
    9ASP      N   91   0.649   0.573   2.025
    9ASP     HN   92   0.713   0.636   1.981
    9ASP     CA   93   0.680   0.432   2.047
    9ASP     HA   94   0.586   0.379   2.045
    9ASP     CB   95   0.782   0.391   1.936
    9ASP    HB1   96   0.810   0.284   1.953
    9ASP    HB2   97   0.873   0.455   1.940
    9ASP     CG   98   0.710   0.395   1.801
    9ASP    OD1   99   0.777   0.409   1.692
    9ASP    OD2  100   0.587   0.376   1.798
    9ASP      C  101   0.758   0.421   2.177
    9ASP      O  102   0.776   0.315   2.235
   10ALA      N  103   0.810   0.536   2.228
   10ALA     HN  104   0.791   0.623   2.184
   10ALA     CA  105   0.881   0.541   2.356
   10ALA     HA  106   0.929   0.445   2.365
   10ALA     CB  107   0.981   0.653   2.356
   10ALA    HB1  108   1.047   0.639   2.444
   10ALA    HB2  109   0.936   0.753   2.372
   10ALA    HB3  110   1.048   0.644   2.268
   10ALA      C  111   0.774   0.554   2.467
   10ALA      O  112   0.653   0.581   2.451
   11GLY      N  113   0.820   0.515   2.584
   11GLY     HN  114   0.907   0.471   2.603
   11GLY     CA  115   0.749   0.530   2.710
   11GLY    HA1  116   0.667   0.600   2.701
   11GLY    HA2  117   0.824   0.560   2.782
   11GLY      C  118   0.670   0.408   2.758
   11GLY    OT1  119   0.674   0.307   2.692
   11GLY    OT2  120   0.613   0.413   2.870
   12LIT    LIT  121   2.202   2.215   1.020
   13LIT    LIT  122   2.246   2.756   2.122
   14LIT    LIT  123   4.936   5.805   3.970
   15LIT    LIT  124   2.728   1.690   2.247
   16LIT    LIT  125   4.329   5.310   2.544
   17LIT    LIT  126   1.648   4.162   2.042
   18LIT    LIT  127   0.052   5.441   2.425
   19LIT    LIT  128   0.100   0.106   0.420
   20LIT    LIT  129   2.443   0.751   4.733
   21LIT    LIT  130   2.955   4.612   4.030
   22LIT    LIT  131   3.697   3.101   1.216
   23LIT    LIT  132   2.232   2.830   3.463
   24LIT    LIT  133   2.689   5.743   4.059
   25LIT    LIT  134   5.349   0.272   1.358
   26LIT    LIT  135   4.468   4.088   0.262
   27LIT    LIT  136   0.976   0.396   3.468
   28LIT    LIT  137   1.624   2.082   3.514
   29LIT    LIT  138   1.873   4.710   3.638
   30LIT    LIT  139   1.159   1.866   2.128
   31LIT    LIT  140   0.670   4.541   0.153
   32LIT    LIT  141   3.836   3.424   1.798
   33LIT    LIT  142   4.530   1.429   2.617
   34CLA    CLA  143   5.925   3.255   2.009
   35CLA    CLA  144   2.541   5.888   4.578
   36CLA    CLA  145   3.158   1.111   5.031
   37CLA    CLA  146   1.521   0.632   3.245
   38CLA    CLA  147   1.684   3.577   4.676
   39CLA    CLA  148   1.489   3.170   1.369
   40CLA    CLA  149   1.311   1.462   4.490
   41CLA    CLA  150   1.185   2.263   1.573
   42CLA    CLA  151   2.493   3.561   0.736
   43CLA    CLA  152   1.754   3.889   2.374
   44CLA    CLA  153   4.710   4.472   4.579
   45CLA    CLA  154   0.328   5.823   2.201
   46CLA    CLA  155   5.693   0.168   2.688
   47CLA    CLA  156   4.383   4.062   0.472
   48CLA    CLA  157   2.999   4.236   3.742
   49CLA    CLA  158   5.472   5.181   0.408
   50CLA    CLA  159   3.354   2.534   3.450
   51CLA    CLA  160   1.505   1.081   1.107
   52TIP3   OH2  161   5.230   0.330   2.591
   52TIP3    H1  162   5.250   0.334   2.684
   52TIP3    H2  163   5.290   0.393   2.550
   53TIP3   OH2  164   5.754   0.392   0.778
   53TIP3    H1  165   5.701   0.458   0.822
   53TIP3    H2  166   5.840   0.398   0.819
   54TIP3   OH2  167   1.146   3.167   0.941
   54TIP3    H1  168   1.083   3.220   0.990
   54TIP3    H2  169   1.229   3.215   0.948
   55TIP3   OH2  170   5.115   5.727   4.387
   55TIP3    H1  171   5.170   5.803   4.370
   55TIP3    H2  172   5.028   5.764   4.401
   56TIP3   OH2  173   5.291   0.701   1.438
   56TIP3    H1  174   5.386   0.695   1.435
   56TIP3    H2  175   5.274   0.776   1.496
   57TIP3   OH2  176   1.299   3.686   2.205
   57TIP3    H1  177   1.365   3.617   2.210
   57TIP3    H2  178   1.346   3.767   2.224
   58TIP3   OH2  179   0.035   3.449   3.698
   58TIP3    H1  180   0.113   3.403   3.667
   58TIP3    H2  181   0.069   3.527   3.742
   59TIP3   OH2  182   1.205   4.795   0.874
   59TIP3    H1  183   1.197   4.831   0.962
   59TIP3    H2  184   1.265   4.854   0.828
   60TIP3   OH2  185   6.330   5.691   3.468
   60TIP3    H1  186   6.239   5.715   3.449
   60TIP3    H2  187   6.382   5.752   3.415
   61TIP3   OH2  188   5.300   2.837   1.677
   61TIP3    H1  189   5.351   2.864   1.600
   61TIP3    H2  190   5.327   2.898   1.746
   62TIP3   OH2  191   4.893   3.412   1.497
   62TIP3    H1  192   4.967   3.460   1.535
   62TIP3    H2  193   4.891   3.330   1.546
   63TIP3   OH2  194   3.924   1.669   4.299
   63TIP3    H1  195   3.843   1.662   4.248
   63TIP3    H2  196   3.903   1.729   4.371
   64TIP3   OH2  197   2.481   4.811   2.017
   64TIP3    H1  198   2.420   4.867   1.969
   64TIP3    H2  199   2.566   4.826   1.975
   65TIP3   OH2  200   4.946   3.922   4.321
   65TIP3    H1  201   4.970   3.842   4.274
   65TIP3    H2  202   4.860   3.903   4.358
   66TIP3   OH2  203   2.977   1.371   2.705
   66TIP3    H1  204   3.021   1.297   2.662
   66TIP3    H2  205   2.969   1.344   2.796
   67TIP3   OH2  206   1.010   5.348   0.064
   67TIP3    H1  207   1.080   5.321   0.005
   67TIP3    H2  208   0.935   5.365   0.006
   68TIP3   OH2  209   3.171   2.351   1.808
   68TIP3    H1  210   3.129   2.266   1.820
   68TIP3    H2  211   3.099   2.412   1.792
   69TIP3   OH2  212   2.266   5.810   3.750
   69TIP3    H1  213   2.269   5.858   3.668
   69TIP3    H2  214   2.355   5.780   3.764
   70TIP3   OH2  215   3.064   5.902   3.320
   70TIP3    H1  216   3.105   5.925   3.236
   70TIP3    H2  217   3.036   5.812   3.309
   71TIP3   OH2  218   4.893   4.317   3.726
   71TIP3    H1  219   4.898   4.409   3.701
   71TIP3    H2  220   4.974   4.279   3.693
   72TIP3   OH2  221   1.902   5.562   4.989
   72TIP3    H1  222   1.943   5.580   5.074
   72TIP3    H2  223   1.811   5.588   5.000
   73TIP3   OH2  224   0.945   5.773   2.217
   73TIP3    H1  225   0.911   5.791   2.304
   73TIP3    H2  226   0.868   5.778   2.160
   74TIP3   OH2  227   5.064   2.422   5.054
   74TIP3    H1  228   4.976   2.445   5.083
   74TIP3    H2  229   5.055   2.406   4.960
   75TIP3   OH2  230   5.089   2.021   4.823
   75TIP3    H1  231   5.129   1.965   4.757
   75TIP3    H2  232   5.004   2.045   4.786
   76TIP3   OH2  233   1.147   0.324   1.454
   76TIP3    H1  234   1.068   0.298   1.405
   76TIP3    H2  235   1.114   0.348   1.540
   77TIP3   OH2  236   0.659   0.979   3.083
   77TIP3    H1  237   0.665   0.884   3.069
   77TIP3    H2  238   0.709   0.994   3.164
   78TIP3   OH2  239   0.626   3.408   4.299
   78TIP3    H1  240   0.706   3.459   4.285
   78TIP3    H2  241   0.649   3.320   4.271
   79TIP3   OH2  242   5.912   1.691   2.098
   79TIP3    H1  243   5.819   1.710   2.082
   79TIP3    H2  244   5.958   1.758   2.048
   80TIP3   OH2  245   4.686   0.169   4.745
   80TIP3    H1  246   4.651   0.231   4.681
   80TIP3    H2  247   4.693   0.087   4.696
   81TIP3   OH2  248   0.315   2.897   3.170
   81TIP3    H1  249   0.270   2.910   3.253
   81TIP3    H2  250   0.331   2.803   3.166
   82TIP3   OH2  251   1.144   0.344   2.232
   82TIP3    H1  252   1.139   0.427   2.184
   82TIP3    H2  253   1.216   0.357   2.294
   83TIP3   OH2  254   5.567   2.079   3.986
   83TIP3    H1  255   5.536   2.131   3.912
   83TIP3    H2  256   5.656   2.054   3.962
   84TIP3   OH2  257   4.011   1.091   4.800
   84TIP3    H1  258   4.034   1.181   4.822
   84TIP3    H2  259   4.034   1.041   4.878
   85TIP3   OH2  260   2.304   2.949   2.651
   85TIP3    H1  261   2.347   2.954   2.565
   85TIP3    H2  262   2.243   2.876   2.643
   86TIP3   OH2  263   0.228   2.497   0.290
   86TIP3    H1  264   0.303   2.439   0.292
   86TIP3    H2  265   0.152   2.440   0.304
   87TIP3   OH2  266   1.864   3.101   3.962
   87TIP3    H1  267   1.779   3.125   3.999
   87TIP3    H2  268   1.901   3.041   4.026
   88TIP3   OH2  269   0.480   1.951   1.077
   88TIP3    H1  270   0.562   1.994   1.051
   88TIP3    H2  271   0.500   1.912   1.162
   89TIP3   OH2  272   5.117   3.160   3.824
   89TIP3    H1  273   5.069   3.114   3.892
   89TIP3    H2  274   5.179   3.096   3.790
   90TIP3   OH2  275   4.535   5.931   2.806
   90TIP3    H1  276   4.460   5.942   2.748
   90TIP3    H2  277   4.583   6.013   2.798
   91TIP3   OH2  278   4.913   4.704   3.354
   91TIP3    H1  279   4.885   4.653   3.431
   91TIP3    H2  280   4.846   4.771   3.344
   92TIP3   OH2  281   5.488   2.646   0.209
   92TIP3    H1  282   5.506   2.674   0.119
   92TIP3    H2  283   5.392   2.644   0.215
   93TIP3   OH2  284   3.249   2.669   2.196
   93TIP3    H1  285   3.158   2.689   2.173
   93TIP3    H2  286   3.280   2.748   2.241
   94TIP3   OH2  287   3.698   5.271   3.362
   94TIP3    H1  288   3.625   5.284   3.301
   94TIP3    H2  289   3.740   5.357   3.367
   95TIP3   OH2  290   2.267   3.009   1.232
   95TIP3    H1  291   2.192   3.067   1.217
   95TIP3    H2  292   2.239   2.923   1.201
   96TIP3   OH2  293   2.472   0.287   4.796
   96TIP3    H1  294   2.445   0.201   4.764
   96TIP3    H2  295   2.556   0.271   4.839
   97TIP3   OH2  296   3.005   1.605   4.475
   97TIP3    H1  297   3.025   1.661   4.550
   97TIP3    H2  298   2.942   1.654   4.424
   98TIP3   OH2  299   2.850   0.818   4.735
   98TIP3    H1  300   2.882   0.867   4.659
   98TIP3    H2  301   2.902   0.851   4.808
   99TIP3   OH2  302   2.788   1.014   4.479
   99TIP3    H1  303   2.802   1.068   4.557
   99TIP3    H2  304   2.859   1.037   4.420
  100TIP3   OH2  305   4.601   1.027   3.661
  100TIP3    H1  306   4.695   1.009   3.665
  100TIP3    H2  307   4.570   1.015   3.751
  101TIP3   OH2  308   2.132   0.639   0.144
  101TIP3    H1  309   2.226   0.620   0.146
  101TIP3    H2  310   2.096   0.571   0.087
  102TIP3   OH2  311   6.013   2.289   5.100
  102TIP3    H1  312   6.064   2.263   5.177
  102TIP3    H2  313   5.993   2.381   5.115
  103TIP3   OH2  314   3.326   2.821   3.967
  103TIP3    H1  315   3.383   2.745   3.952
  103TIP3    H2  316   3.369   2.892   3.920
  104TIP3   OH2  317   4.345   1.486   3.029
  104TIP3    H1  318   4.301   1.461   2.948
  104TIP3    H2  319   4.374   1.403   3.067
  105TIP3   OH2  320   6.080   3.999   1.615
  105TIP3    H1  321   6.171   4.019   1.592
  105TIP3    H2  322   6.046   4.080   1.651
  106TIP3   OH2  323   1.252   4.588   2.343
  106TIP3    H1  324   1.259   4.555   2.253
  106TIP3    H2  325   1.171   4.549   2.376
  107TIP3   OH2  326   4.184   2.696   0.402
  107TIP3    H1  327   4.274   2.669   0.417
  107TIP3    H2  328   4.150   2.632   0.339
  108TIP3   OH2  329   6.102   3.033   3.614
  108TIP3    H1  330   6.023   3.000   3.657
  108TIP3    H2  331   6.096   2.998   3.524
  109TIP3   OH2  332   1.938   5.490   4.730
  109TIP3    H1  333   1.922   5.502   4.823
  109TIP3    H2  334   1.984   5.569   4.703
  110TIP3   OH2  335   2.311   0.846   1.495
  110TIP3    H1  336   2.337   0.873   1.583
  110TIP3    H2  337   2.218   0.869   1.489
  111TIP3   OH2  338   2.100   3.231   1.244
  111TIP3    H1  339   2.013   3.203   1.271
  111TIP3    H2  340   2.097   3.326   1.246
  112TIP3   OH2  341   1.696   1.198   3.130
  112TIP3    H1  342   1.607   1.191   3.095
  112TIP3    H2  343   1.692   1.272   3.191
  113TIP3   OH2  344   0.517   1.888   0.420
  113TIP3    H1  345   0.574   1.812   0.430
  113TIP3    H2  346   0.434   1.852   0.386
  114TIP3   OH2  347   1.691   3.966   0.766
  114TIP3    H1  348   1.685   3.900   0.836
  114TIP3    H2  349   1.676   4.049   0.811
  115TIP3   OH2  350   5.826   1.819   3.552
  115TIP3    H1  351   5.900   1.830   3.493
  115TIP3    H2  352   5.845   1.738   3.599
  116TIP3   OH2  353   5.763   5.774   0.730
  116TIP3    H1  354   5.696   5.710   0.752
  116TIP3    H2  355   5.785   5.815   0.813
  117TIP3   OH2  356   2.450   4.769   0.676
  117TIP3    H1  357   2.509   4.694   0.670
  117TIP3    H2  358   2.402   4.769   0.593
  118TIP3   OH2  359   2.453   3.798   2.799
  118TIP3    H1  360   2.520   3.864   2.785
  118TIP3    H2  361   2.426   3.771   2.711
  119TIP3   OH2  362   4.261   5.109   2.501
  119TIP3    H1  363   4.321   5.045   2.540
  119TIP3    H2  364   4.205   5.057   2.443
  120TIP3   OH2  365   5.807   2.827   0.097
  120TIP3    H1  366   5.742   2.831   0.027
  120TIP3    H2  367   5.837   2.736   0.097
  121TIP3   OH2  368   5.137   1.224   3.174
  121TIP3    H1  369   5.048   1.225   3.209
  121TIP3    H2  370   5.154   1.132   3.154
  122TIP3   OH2  371   1.275   0.770   2.822
  122TIP3    H1  372   1.201   0.749   2.765
  122TIP3    H2  373   1.236   0.824   2.891
  123TIP3   OH2  374   4.479   0.344   1.877
  123TIP3    H1  375   4.414   0.403   1.837
  123TIP3    H2  376   4.509   0.391   1.955
  124TIP3   OH2  377   1.603   4.644   1.068
  124TIP3    H1  378   1.529   4.705   1.064
  124TIP3    H2  379   1.631   4.633   0.977
  125TIP3   OH2  380   3.729   4.037   1.134
  125TIP3    H1  381   3.801   4.005   1.189
  125TIP3    H2  382   3.771   4.099   1.075
  126TIP3   OH2  383   6.253   1.465   0.668
  126TIP3    H1  384   6.281   1.505   0.586
  126TIP3    H2  385   6.291   1.520   0.736
  127TIP3   OH2  386   1.771   3.624   3.388
  127TIP3    H1  387   1.722   3.600   3.466
  127TIP3    H2  388   1.750   3.716   3.373
  128TIP3   OH2  389   2.365   1.525   4.633
  128TIP3    H1  390   2.303   1.454   4.616
  128TIP3    H2  391   2.448   1.493   4.599
  129TIP3   OH2  392   1.025   2.099   0.838
  129TIP3    H1  393   1.085   2.091   0.764
  129TIP3    H2  394   1.075   2.070   0.914
  130TIP3   OH2  395   0.758   4.132   4.868
  130TIP3    H1  396   0.717   4.213   4.838
  130TIP3    H2  397   0.735   4.126   4.961
  131TIP3   OH2  398   0.595   5.091   3.925
  131TIP3    H1  399   0.586   5.166   3.984
  131TIP3    H2  400   0.505   5.065   3.906
  132TIP3   OH2  401   2.467   4.256   0.988
  132TIP3    H1  402   2.551   4.240   1.030
  132TIP3    H2  403   2.449   4.349   1.004
  133TIP3   OH2  404   1.593   0.831   3.470
  133TIP3    H1  405   1.567   0.775   3.397
  133TIP3    H2  406   1.648   0.898   3.431
  134TIP3   OH2  407   4.263   4.153   1.364
  134TIP3    H1  408   4.200   4.158   1.435
  134TIP3    H2  409   4.278   4.060   1.350
  135TIP3   OH2  410   0.269   3.262   3.309
  135TIP3    H1  411   0.301   3.217   3.231
  135TIP3    H2  412   0.189   3.305   3.280
  136TIP3   OH2  413   5.356   2.704   2.242
  136TIP3    H1  414   5.405   2.686   2.322
  136TIP3    H2  415   5.414   2.759   2.190
  137TIP3   OH2  416   5.455   1.857   0.244
  137TIP3    H1  417   5.427   1.773   0.281
  137TIP3    H2  418   5.434   1.921   0.312
  138TIP3   OH2  419   4.072   4.482   0.883
  138TIP3    H1  420   4.146   4.448   0.833
  138TIP3    H2  421   4.112   4.528   0.956
  139TIP3   OH2  422   5.188   3.056   2.172
  139TIP3    H1  423   5.148   3.000   2.239
  139TIP3    H2  424   5.281   3.057   2.194
  140TIP3   OH2  425   6.247   4.759   2.689
  140TIP3    H1  426   6.168   4.746   2.742
  140TIP3    H2  427   6.318   4.764   2.753
  141TIP3   OH2  428   4.603   2.733   2.546
  141TIP3    H1  429   4.610   2.818   2.588
  141TIP3    H2  430   4.688   2.722   2.502
  142TIP3   OH2  431   0.204   5.097   0.776
  142TIP3    H1  432   0.190   5.179   0.729
  142TIP3    H2  433   0.129   5.043   0.752
  143TIP3   OH2  434   6.132   1.082   2.632
  143TIP3    H1  435   6.145   1.105   2.724
  143TIP3    H2  436   6.180   1.000   2.621
  144TIP3   OH2  437   1.792   2.894   0.028
  144TIP3    H1  438   1.825   2.818  -0.020
  144TIP3    H2  439   1.869   2.926   0.076
  145TIP3   OH2  440   0.440   3.922   1.810
  145TIP3    H1  441   0.503   3.987   1.779
  145TIP3    H2  442   0.446   3.851   1.746
  146TIP3   OH2  443   3.142   4.528   4.379
  146TIP3    H1  444   3.079   4.496   4.443
  146TIP3    H2  445   3.228   4.510   4.419
  147TIP3   OH2  446   3.301   2.747   0.640
  147TIP3    H1  447   3.262   2.807   0.577
  147TIP3    H2  448   3.249   2.666   0.632
  148TIP3   OH2  449   5.767   4.773   2.800
  148TIP3    H1  450   5.686   4.741   2.839
  148TIP3    H2  451   5.771   4.866   2.822
  149TIP3   OH2  452   1.597   0.517   2.743
  149TIP3    H1  453   1.586   0.594   2.688
  149TIP3    H2  454   1.691   0.502   2.745
  150TIP3   OH2  455   1.323   5.824   2.971
  150TIP3    H1  456   1.252   5.834   3.034
  150TIP3    H2  457   1.396   5.872   3.010
  151TIP3   OH2  458   5.290   0.722   1.025
  151TIP3    H1  459   5.302   0.813   0.999
  151TIP3    H2  460   5.376   0.681   1.012
  152TIP3   OH2  461   2.535   0.256   2.501
  152TIP3    H1  462   2.442   0.236   2.513
  152TIP3    H2  463   2.580   0.174   2.522
  153TIP3   OH2  464   5.311   5.398   4.762
  153TIP3    H1  465   5.329   5.483   4.723
  153TIP3    H2  466   5.244   5.416   4.829
  154TIP3   OH2  467   2.063   5.573   0.144
  154TIP3    H1  468   2.138   5.590   0.202
  154TIP3    H2  469   2.087   5.494   0.096
  155TIP3   OH2  470   0.349   5.226   2.928
  155TIP3    H1  471   0.327   5.310   2.888
  155TIP3    H2  472   0.400   5.180   2.862
  156TIP3   OH2  473   2.700   4.982   0.358
  156TIP3    H1  474   2.699   4.886   0.356
  156TIP3    H2  475   2.779   5.007   0.311
  157TIP3   OH2  476   3.406   5.333   1.184
  157TIP3    H1  477   3.400   5.373   1.271
  157TIP3    H2  478   3.485   5.280   1.187
  158TIP3   OH2  479   3.622   5.764   3.927
  158TIP3    H1  480   3.598   5.855   3.940
  158TIP3    H2  481   3.717   5.766   3.910
  159TIP3   OH2  482   3.504   5.047   1.963
  159TIP3    H1  483   3.560   5.102   1.908
  159TIP3    H2  484   3.441   5.008   1.902
  160TIP3   OH2  485   0.790   2.749   1.568
  160TIP3    H1  486   0.783   2.834   1.612
  160TIP3    H2  487   0.869   2.756   1.515
  161TIP3   OH2  488   4.021   5.422   1.270
  161TIP3    H1  489   3.961   5.480   1.222
  161TIP3    H2  490   3.975   5.337   1.272
  162TIP3   OH2  491   5.939   4.980   0.059
  162TIP3    H1  492   5.993   4.918   0.011
  162TIP3    H2  493   5.977   4.982   0.147
  163TIP3   OH2  494   3.873   4.271   4.059
  163TIP3    H1  495   3.910   4.328   4.127
  163TIP3    H2  496   3.818   4.330   4.006
  164TIP3   OH2  497   0.674   2.897   0.349
  164TIP3    H1  498   0.708   2.971   0.400
  164TIP3    H2  499   0.663   2.827   0.413
  165TIP3   OH2  500   3.301   2.919   3.508
  165TIP3    H1  501   3.206   2.917   3.500
  165TIP3    H2  502   3.320   2.861   3.582
  166TIP3   OH2  503   1.624   3.159   4.121
  166TIP3    H1  504   1.661   3.094   4.180
  166TIP3    H2  505   1.609   3.236   4.176
  167TIP3   OH2  506   6.102   2.276   1.668
  167TIP3    H1  507   6.100   2.198   1.612
  167TIP3    H2  508   6.182   2.322   1.642
  168TIP3   OH2  509   3.429   0.558   4.953
  168TIP3    H1  510   3.415   0.602   4.869
  168TIP3    H2  511   3.492   0.488   4.934
  169TIP3   OH2  512   3.945   0.645   4.105
  169TIP3    H1  513   3.922   0.713   4.042
  169TIP3    H2  514   3.876   0.651   4.172
  170TIP3   OH2  515   1.882   5.503   4.159
  170TIP3    H1  516   1.944   5.458   4.101
  170TIP3    H2  517   1.911   5.481   4.247
  171TIP3   OH2  518   2.191   3.511   1.325
  171TIP3    H1  519   2.224   3.590   1.367
  171TIP3    H2  520   2.207   3.526   1.231
  172TIP3   OH2  521   0.398   4.497   4.881
  172TIP3    H1  522   0.331   4.469   4.943
  172TIP3    H2  523   0.357   4.567   4.830
  173TIP3   OH2  524   2.893   4.012   3.543
  173TIP3    H1  525   2.844   4.059   3.476
  173TIP3    H2  526   2.899   4.073   3.617
  174TIP3   OH2  527   0.148   5.811   0.179
  174TIP3    H1  528   0.166   5.786   0.088
  174TIP3    H2  529   0.075   5.872   0.173
  175TIP3   OH2  530   3.338   2.701   1.576
  175TIP3    H1  531   3.285   2.633   1.535
  175TIP3    H2  532   3.389   2.655   1.643
  176TIP3   OH2  533   2.110   2.367   2.214
  176TIP3    H1  534   2.022   2.390   2.247
  176TIP3    H2  535   2.159   2.343   2.293
  177TIP3   OH2  536   5.462   2.256   3.763
  177TIP3    H1  537   5.527   2.326   3.762
  177TIP3    H2  538   5.414   2.270   3.845
  178TIP3   OH2  539   1.121   5.152   5.022
  178TIP3    H1  540   1.203   5.197   5.045
  178TIP3    H2  541   1.146   5.091   4.953
  179TIP3   OH2  542   4.644   0.920   5.120
  179TIP3    H1  543   4.587   0.992   5.094
  179TIP3    H2  544   4.624   0.850   5.058
  180TIP3   OH2  545   1.753   3.916   0.286
  180TIP3    H1  546   1.842   3.888   0.308
  180TIP3    H2  547   1.700   3.836   0.292
  181TIP3   OH2  548   1.882   1.203   2.163
  181TIP3    H1  549   1.871   1.168   2.074
  181TIP3    H2  550   1.808   1.168   2.212
  182TIP3   OH2  551   6.135   5.301   0.556
  182TIP3    H1  552   6.072   5.244   0.512
  182TIP3    H2  553   6.220   5.261   0.538
  183TIP3   OH2  554   3.111   5.835   1.415
  183TIP3    H1  555   3.094   5.827   1.509
  183TIP3    H2  556   3.162   5.757   1.393
  184TIP3   OH2  557   4.280   3.288   5.129
  184TIP3    H1  558   4.200   3.310   5.080
  184TIP3    H2  559   4.351   3.326   5.078
  185TIP3   OH2  560   2.897   5.246   2.877
  185TIP3    H1  561   2.850   5.327   2.856
  185TIP3    H2  562   2.971   5.245   2.817
  186TIP3   OH2  563   3.948   5.642   3.518
  186TIP3    H1  564   3.869   5.643   3.573
  186TIP3    H2  565   4.006   5.706   3.559
  187TIP3   OH2  566   2.301   2.001   4.282
  187TIP3    H1  567   2.351   1.926   4.250
  187TIP3    H2  568   2.338   2.076   4.236
  188TIP3   OH2  569   5.292   5.652   2.880
  188TIP3    H1  570   5.219   5.714   2.872
  188TIP3    H2  571   5.324   5.641   2.790
  189TIP3   OH2  572   5.540   1.210   0.128
  189TIP3    H1  573   5.514   1.300   0.146
  189TIP3    H2  574   5.630   1.203   0.161
  190TIP3   OH2  575   2.344   4.433   0.696
  190TIP3    H1  576   2.333   4.366   0.764
  190TIP3    H2  577   2.399   4.500   0.737
  191TIP3   OH2  578   5.333   0.061   1.720
  191TIP3    H1  579   5.247   0.028   1.694
  191TIP3    H2  580   5.314   0.131   1.783
  192TIP3   OH2  581   5.341   4.868   5.125
  192TIP3    H1  582   5.261   4.852   5.075
  192TIP3    H2  583   5.379   4.782   5.138
  193TIP3   OH2  584   5.865   1.730   4.374
  193TIP3    H1  585   5.826   1.803   4.326
  193TIP3    H2  586   5.794   1.698   4.431
  194TIP3   OH2  587   0.166   0.463   0.921
  194TIP3    H1  588   0.202   0.551   0.909
  194TIP3    H2  589   0.225   0.406   0.872
  195TIP3   OH2  590   4.402   1.849   0.502
  195TIP3    H1  591   4.311   1.832   0.478
  195TIP3    H2  592   4.453   1.813   0.429
  196TIP3   OH2  593   4.367   0.727   1.528
  196TIP3    H1  594   4.326   0.814   1.532
  196TIP3    H2  595   4.417   0.728   1.446
  197TIP3   OH2  596   3.954   2.960   3.608
  197TIP3    H1  597   3.885   2.994   3.551
  197TIP3    H2  598   3.942   3.006   3.691
  198TIP3   OH2  599   5.929   5.510   3.888
  198TIP3    H1  600   5.897   5.428   3.852
  198TIP3    H2  601   5.861   5.574   3.867
  199TIP3   OH2  602   6.315   5.350   4.537
  199TIP3    H1  603   6.251   5.292   4.578
  199TIP3    H2  604   6.289   5.354   4.445
  200TIP3   OH2  605   5.036   1.039   0.228
  200TIP3    H1  606   5.011   0.958   0.184
  200TIP3    H2  607   5.132   1.041   0.222
  201TIP3   OH2  608   0.524   2.591   3.858
  201TIP3    H1  609   0.545   2.509   3.903
  201TIP3    H2  610   0.441   2.619   3.895
  202TIP3   OH2  611   0.878   4.771   1.618
  202TIP3    H1  612   0.894   4.689   1.570
  202TIP3    H2  613   0.965   4.806   1.635
  203TIP3   OH2  614   2.901   3.277   1.812
  203TIP3    H1  615   2.828   3.245   1.760
  203TIP3    H2  616   2.913   3.211   1.880
  204TIP3   OH2  617   1.863   2.252   4.926
  204TIP3    H1  618   1.873   2.169   4.878
  204TIP3    H2  619   1.802   2.303   4.872
  205TIP3   OH2  620   1.955   2.384   4.397
  205TIP3    H1  621   1.892   2.326   4.355
  205TIP3    H2  622   2.027   2.326   4.424
  206TIP3   OH2  623   2.955   5.775   2.095
  206TIP3    H1  624   2.933   5.777   2.188
  206TIP3    H2  625   3.047   5.750   2.093
  207TIP3   OH2  626   2.501   1.630   0.491
  207TIP3    H1  627   2.506   1.586   0.406
  207TIP3    H2  628   2.437   1.700   0.478
  208TIP3   OH2  629   3.953   1.453   0.197
  208TIP3    H1  630   3.863   1.484   0.193
  208TIP3    H2  631   3.947   1.365   0.235
  209TIP3   OH2  632   0.568   5.936   1.845
  209TIP3    H1  633   0.566   5.947   1.750
  209TIP3    H2  634   0.507   6.002   1.878
  210TIP3   OH2  635   3.307   5.417   0.690
  210TIP3    H1  636   3.354   5.367   0.623
  210TIP3    H2  637   3.359   5.405   0.770
  211TIP3   OH2  638   4.439   0.172   0.347
  211TIP3    H1  639   4.458   0.240   0.283
  211TIP3    H2  640   4.396   0.102   0.297
  212TIP3   OH2  641   4.384   5.524   2.931
  212TIP3    H1  642   4.458   5.558   2.880
  212TIP3    H2  643   4.339   5.602   2.963
  213TIP3   OH2  644   0.975   2.265   3.461
  213TIP3    H1  645   0.916   2.189   3.464
  213TIP3    H2  646   1.041   2.247   3.528
  214TIP3   OH2  647   5.900   0.231   2.404
  214TIP3    H1  648   5.936   0.257   2.488
  214TIP3    H2  649   5.805   0.230   2.417
  215TIP3   OH2  650   2.337   2.883   0.763
  215TIP3    H1  651   2.274   2.821   0.800
  215TIP3    H2  652   2.378   2.923   0.839
  216TIP3   OH2  653   1.174   0.012   4.917
  216TIP3    H1  654   1.237  -0.050   4.954
  216TIP3    H2  655   1.212   0.098   4.933
  217TIP3   OH2  656   4.712   4.103   3.425
  217TIP3    H1  657   4.621   4.076   3.432
  217TIP3    H2  658   4.747   4.053   3.351
  218TIP3   OH2  659   5.937   5.637   0.340
  218TIP3    H1  660   5.878   5.563   0.343
  218TIP3    H2  661   5.988   5.625   0.260
  219TIP3   OH2  662   3.495   0.556   2.507
  219TIP3    H1  663   3.573   0.601   2.476
  219TIP3    H2  664   3.431   0.568   2.436
  220TIP3   OH2  665   5.285   3.344   4.126
  220TIP3    H1  666   5.377   3.317   4.119
  220TIP3    H2  667   5.274   3.364   4.219
  221TIP3   OH2  668   6.282   3.459   4.695
  221TIP3    H1  669   6.298   3.547   4.729
  221TIP3    H2  670   6.193   3.438   4.722
  222TIP3   OH2  671   5.957   2.338   4.138
  222TIP3    H1  672   5.863   2.320   4.137
  222TIP3    H2  673   5.968   2.409   4.074
  223TIP3   OH2  674   0.324   0.404   1.761
  223TIP3    H1  675   0.286   0.330   1.807
  223TIP3    H2  676   0.419   0.389   1.766
  224TIP3   OH2  677   4.851   1.739   2.465
  224TIP3    H1  678   4.910   1.711   2.536
  224TIP3    H2  679   4.849   1.664   2.405
  225TIP3   OH2  680   5.319   3.678   3.548
  225TIP3    H1  681   5.343   3.605   3.491
  225TIP3    H2  682   5.232   3.704   3.519
  226TIP3   OH2  683   1.930   2.415   3.638
  226TIP3    H1  684   1.936   2.505   3.604
  226TIP3    H2  685   1.898   2.425   3.727
  227TIP3   OH2  686   0.755   0.442   1.299
  227TIP3    H1  687   0.676   0.469   1.347
  227TIP3    H2  688   0.810   0.520   1.299
  228TIP3   OH2  689   0.665   1.200   4.464
  228TIP3    H1  690   0.751   1.161   4.480
  228TIP3    H2  691   0.648   1.181   4.372
  229TIP3   OH2  692   2.014   0.677   1.405
  229TIP3    H1  693   2.058   0.652   1.486
  229TIP3    H2  694   2.020   0.773   1.403
  230TIP3   OH2  695   2.804   4.710   3.548
  230TIP3    H1  696   2.863   4.783   3.527
  230TIP3    H2  697   2.728   4.752   3.589
  231TIP3   OH2  698   4.686   4.836   2.974
  231TIP3    H1  699   4.751   4.866   2.911
  231TIP3    H2  700   4.723   4.757   3.012
  232TIP3   OH2  701   0.603   4.195   2.782
  232TIP3    H1  702   0.648   4.249   2.717
  232TIP3    H2  703   0.606   4.247   2.863
  233TIP3   OH2  704   4.920   1.880   2.160
  233TIP3    H1  705   4.884   1.963   2.129
  233TIP3    H2  706   4.844   1.834   2.196
  234TIP3   OH2  707   2.336   4.481   4.603
  234TIP3    H1  708   2.358   4.545   4.670
  234TIP3    H2  709   2.324   4.533   4.523
  235TIP3   OH2  710   2.582   1.616   4.943
  235TIP3    H1  711   2.636   1.644   5.017
  235TIP3    H2  712   2.501   1.666   4.952
  236TIP3   OH2  713   0.791   3.660   3.542
  236TIP3    H1  714   0.815   3.593   3.477
  236TIP3    H2  715   0.722   3.710   3.500
  237TIP3   OH2  716   2.003   5.295   5.052
  237TIP3    H1  717   2.099   5.302   5.052
  237TIP3    H2  718   1.973   5.374   5.006
  238TIP3   OH2  719   5.684   3.025   2.544
  238TIP3    H1  720   5.670   2.948   2.489
  238TIP3    H2  721   5.737   3.084   2.490
  239TIP3   OH2  722   6.154   5.070   2.856
  239TIP3    H1  723   6.206   5.087   2.935
  239TIP3    H2  724   6.108   4.988   2.876
  240TIP3   OH2  725   4.319   0.057   2.466
  240TIP3    H1  726   4.318   0.004   2.386
  240TIP3    H2  727   4.263   0.132   2.445
  241TIP3   OH2  728   4.559   0.798   0.756
  241TIP3    H1  729   4.467   0.808   0.733
  241TIP3    H2  730   4.580   0.707   0.733
  242TIP3   OH2  731   5.173   4.981   2.637
  242TIP3    H1  732   5.269   4.978   2.639
  242TIP3    H2  733   5.145   4.925   2.709
  243TIP3   OH2  734   2.183   0.593   3.815
  243TIP3    H1  735   2.168   0.575   3.723
  243TIP3    H2  736   2.183   0.689   3.821
  244TIP3   OH2  737   0.252   3.580   4.803
  244TIP3    H1  738   0.174   3.635   4.811
  244TIP3    H2  739   0.263   3.542   4.890
  245TIP3   OH2  740   2.901   3.899   5.098
  245TIP3    H1  741   2.821   3.882   5.148
  245TIP3    H2  742   2.869   3.930   5.013
  246TIP3   OH2  743   0.734   5.740   1.232
  246TIP3    H1  744   0.711   5.759   1.323
  246TIP3    H2  745   0.677   5.667   1.208
  247TIP3   OH2  746   1.560   1.919   4.557
  247TIP3    H1  747   1.479   1.904   4.605
  247TIP3    H2  748   1.535   1.973   4.483
  248TIP3   OH2  749   5.650   3.822   4.945
  248TIP3    H1  750   5.579   3.882   4.968
  248TIP3    H2  751   5.661   3.768   5.023
  249TIP3   OH2  752   5.602   0.937   1.663
  249TIP3    H1  753   5.610   0.924   1.569
  249TIP3    H2  754   5.644   0.860   1.702
  250TIP3   OH2  755   0.315   4.701   2.195
  250TIP3    H1  756   0.361   4.648   2.261
  250TIP3    H2  757   0.280   4.775   2.243
  251TIP3   OH2  758   3.656   2.370   0.749
  251TIP3    H1  759   3.601   2.402   0.821
  251TIP3    H2  760   3.617   2.408   0.671
  252TIP3   OH2  761   3.914   5.293   2.643
  252TIP3    H1  762   3.937   5.278   2.552
  252TIP3    H2  763   3.873   5.211   2.672
  253TIP3   OH2  764   2.993   1.869   0.788
  253TIP3    H1  765   3.065   1.911   0.834
  253TIP3    H2  766   2.946   1.820   0.856
  254TIP3   OH2  767   4.507   0.521   2.464
  254TIP3    H1  768   4.529   0.591   2.403
  254TIP3    H2  769   4.589   0.501   2.508
  255TIP3   OH2  770   1.402   2.482   4.124
  255TIP3    H1  771   1.463   2.495   4.197
  255TIP3    H2  772   1.354   2.403   4.147
  256TIP3   OH2  773   2.503   0.045   2.807
  256TIP3    H1  774   2.559   0.107   2.854
  256TIP3    H2  775   2.550   0.028   2.725
  257TIP3   OH2  776   1.019   4.219   3.969
  257TIP3    H1  777   0.950   4.278   3.942
  257TIP3    H2  778   0.993   4.189   4.056
  258TIP3   OH2  779   3.177   2.041   4.491
  258TIP3    H1  780   3.145   2.057   4.580
  258TIP3    H2  781   3.106   1.993   4.449
  259TIP3   OH2  782   4.420   3.441   1.271
  259TIP3    H1  783   4.478   3.452   1.196
  259TIP3    H2  784   4.415   3.346   1.283
  260TIP3   OH2  785   2.930   5.992   1.901
  260TIP3    H1  786   2.917   5.929   1.972
  260TIP3    H2  787   2.981   6.063   1.941
  261TIP3   OH2  788   3.185   1.986   2.108
  261TIP3    H1  789   3.241   2.045   2.058
  261TIP3    H2  790   3.121   2.045   2.150
  262TIP3   OH2  791   1.095   4.706   1.837
  262TIP3    H1  792   1.108   4.744   1.924
  262TIP3    H2  793   1.120   4.775   1.776
  263TIP3   OH2  794   2.394   2.359   3.507
  263TIP3    H1  795   2.471   2.314   3.543
  263TIP3    H2  796   2.320   2.303   3.529
  264TIP3   OH2  797   5.432   5.870   2.101
  264TIP3    H1  798   5.362   5.824   2.055
  264TIP3    H2  799   5.494   5.894   2.033
  265TIP3   OH2  800   1.002   5.617   0.408
  265TIP3    H1  801   0.914   5.636   0.376
  265TIP3    H2  802   1.026   5.695   0.459
  266TIP3   OH2  803   0.408   1.973   3.849
  266TIP3    H1  804   0.367   2.042   3.797
  266TIP3    H2  805   0.497   2.004   3.864
  267TIP3   OH2  806   4.735   5.817   0.295
  267TIP3    H1  807   4.757   5.851   0.381
  267TIP3    H2  808   4.776   5.877   0.233
  268TIP3   OH2  809   2.616   4.269   4.082
  268TIP3    H1  810   2.591   4.271   4.175
  268TIP3    H2  811   2.623   4.361   4.057
  269TIP3   OH2  812   1.740   4.595   3.560
  269TIP3    H1  813   1.678   4.534   3.599
  269TIP3    H2  814   1.720   4.593   3.466
  270TIP3   OH2  815   0.440   0.343   2.283
  270TIP3    H1  816   0.457   0.364   2.375
  270TIP3    H2  817   0.470   0.421   2.235
  271TIP3   OH2  818   3.365   5.547   3.164
  271TIP3    H1  819   3.287   5.602   3.162
  271TIP3    H2  820   3.434   5.604   3.196
  272TIP3   OH2  821   4.039   4.059   1.553
  272TIP3    H1  822   4.080   4.078   1.638
  272TIP3    H2  823   3.988   4.137   1.532
  273TIP3   OH2  824   6.012   4.312   2.077
  273TIP3    H1  825   6.087   4.271   2.034
  273TIP3    H2  826   5.954   4.338   2.006
  274TIP3   OH2  827   5.219   5.141   0.748
  274TIP3    H1  828   5.313   5.159   0.746
  274TIP3    H2  829   5.191   5.165   0.836
  275TIP3   OH2  830   1.790   0.164   2.021
  275TIP3    H1  831   1.866   0.188   1.968
  275TIP3    H2  832   1.721   0.147   1.957
  276TIP3   OH2  833   2.920   1.264   4.098
  276TIP3    H1  834   2.952   1.217   4.021
  276TIP3    H2  835   2.991   1.323   4.121
  277TIP3   OH2  836   5.039   4.815   1.260
  277TIP3    H1  837   4.960   4.776   1.299
  277TIP3    H2  838   5.039   4.905   1.292
  278TIP3   OH2  839   5.693   2.993   1.727
  278TIP3    H1  840   5.694   2.919   1.667
  278TIP3    H2  841   5.624   3.050   1.694
  279TIP3   OH2  842   5.732   4.851   1.765
  279TIP3    H1  843   5.676   4.850   1.842
  279TIP3    H2  844   5.819   4.873   1.799
  280TIP3   OH2  845   1.538   5.453   0.108
  280TIP3    H1  846   1.470   5.478   0.045
  280TIP3    H2  847   1.514   5.497   0.189
  281TIP3   OH2  848   1.914   4.821   4.688
  281TIP3    H1  849   1.958   4.870   4.619
  281TIP3    H2  850   1.872   4.748   4.643
  282TIP3   OH2  851   1.908   3.512   0.518
  282TIP3    H1  852   1.855   3.590   0.531
  282TIP3    H2  853   1.998   3.545   0.513
  283TIP3   OH2  854   1.790   5.901   2.248
  283TIP3    H1  855   1.749   5.814   2.247
  283TIP3    H2  856   1.823   5.911   2.337
  284TIP3   OH2  857   2.980   4.079   0.030
  284TIP3    H1  858   3.009   3.989   0.014
  284TIP3    H2  859   2.886   4.077   0.015
  285TIP3   OH2  860   5.784   3.550  -0.015
  285TIP3    H1  861   5.826   3.567   0.069
  285TIP3    H2  862   5.726   3.475   0.002
  286TIP3   OH2  863   5.084   0.061   2.905
  286TIP3    H1  864   5.100   0.011   2.826
  286TIP3    H2  865   4.988   0.068   2.910
  287TIP3   OH2  866   1.205   4.980   1.069
  287TIP3    H1  867   1.271   5.042   1.101
  287TIP3    H2  868   1.121   5.021   1.090
  288TIP3   OH2  869   5.087   3.952   2.550
  288TIP3    H1  870   5.023   3.972   2.619
  288TIP3    H2  871   5.037   3.960   2.469
  289TIP3   OH2  872   5.541   3.259   2.448
  289TIP3    H1  873   5.466   3.318   2.440
  289TIP3    H2  874   5.550   3.246   2.542
  290TIP3   OH2  875   4.022   2.031   3.532
  290TIP3    H1  876   4.061   2.043   3.445
  290TIP3    H2  877   3.931   2.057   3.521
  291TIP3   OH2  878   6.267   3.141   2.598
  291TIP3    H1  879   6.202   3.210   2.584
  291TIP3    H2  880   6.249   3.108   2.685
  292TIP3   OH2  881   1.718   0.351   2.493
  292TIP3    H1  882   1.793   0.387   2.541
  292TIP3    H2  883   1.754   0.323   2.410
  293TIP3   OH2  884   3.980   0.985   0.260
  293TIP3    H1  885   4.057   0.941   0.224
  293TIP3    H2  886   3.922   0.913   0.286
  294TIP3   OH2  887   6.199   5.487   2.420
  294TIP3    H1  888   6.126   5.438   2.458
  294TIP3    H2  889   6.159   5.564   2.380
  295TIP3   OH2  890   6.064   0.661   2.157
  295TIP3    H1  891   6.021   0.704   2.231
  295TIP3    H2  892   6.158   0.672   2.173
  296TIP3   OH2  893   2.396   2.015   4.829
  296TIP3    H1  894   2.387   1.940   4.770
  296TIP3    H2  895   2.486   2.046   4.813
  297TIP3   OH2  896   4.772   5.791   1.380
  297TIP3    H1  897   4.856   5.788   1.334
  297TIP3    H2  898   4.728   5.868   1.345
  298TIP3   OH2  899   5.179   0.072   2.430
  298TIP3    H1  900   5.269   0.039   2.431
  298TIP3    H2  901   5.189   0.166   2.414
  299TIP3   OH2  902   0.954   1.167   1.190
  299TIP3    H1  903   0.900   1.220   1.248
  299TIP3    H2  904   0.914   1.080   1.193
  300TIP3   OH2  905   4.303   2.134   1.105
  300TIP3    H1  906   4.207   2.143   1.107
  300TIP3    H2  907   4.322   2.105   1.016
  301TIP3   OH2  908   0.547   4.633   2.491
  301TIP3    H1  909   0.511   4.627   2.580
  301TIP3    H2  910   0.593   4.717   2.490
  302TIP3   OH2  911   1.573   4.741   3.984
  302TIP3    H1  912   1.500   4.774   3.932
  302TIP3    H2  913   1.532   4.707   4.064
  303TIP3   OH2  914   5.723   1.209   3.192
  303TIP3    H1  915   5.716   1.198   3.097
  303TIP3    H2  916   5.672   1.288   3.211
  304TIP3   OH2  917   1.781   3.442   2.275
  304TIP3    H1  918   1.805   3.507   2.209
  304TIP3    H2  919   1.694   3.470   2.305
  305TIP3   OH2  920   0.727   1.481   0.195
  305TIP3    H1  921   0.714   1.389   0.171
  305TIP3    H2  922   0.776   1.518   0.122
  306TIP3   OH2  923   0.211   3.515   3.034
  306TIP3    H1  924   0.147   3.527   2.964
  306TIP3    H2  925   0.158   3.495   3.111
  307TIP3   OH2  926   4.147   5.950   1.590
  307TIP3    H1  927   4.117   5.927   1.503
  307TIP3    H2  928   4.139   6.045   1.594
  308TIP3   OH2  929   0.971   5.976   1.662
  308TIP3    H1  930   0.958   6.001   1.754
  308TIP3    H2  931   1.023   5.896   1.665
  309TIP3   OH2  932   3.045   5.770   2.382
  309TIP3    H1  933   3.019   5.862   2.389
  309TIP3    H2  934   3.132   5.767   2.422
  310TIP3   OH2  935   5.820   4.078   3.450
  310TIP3    H1  936   5.779   4.150   3.402
  310TIP3    H2  937   5.749   4.039   3.500
  311TIP3   OH2  938   0.489   5.841   4.397
  311TIP3    H1  939   0.435   5.856   4.475
  311TIP3    H2  940   0.472   5.917   4.341
  312TIP3   OH2  941   6.243   5.796   0.506
  312TIP3    H1  942   6.159   5.769   0.543
  312TIP3    H2  943   6.253   5.887   0.534
  313TIP3   OH2  944   3.312   4.362   1.570
  313TIP3    H1  945   3.256   4.284   1.580
  313TIP3    H2  946   3.304   4.408   1.653
  314TIP3   OH2  947   3.764   4.402   0.934
  314TIP3    H1  948   3.786   4.448   1.015
  314TIP3    H2  949   3.826   4.329   0.932
  315TIP3   OH2  950   5.432   3.168   1.676
  315TIP3    H1  951   5.358   3.162   1.736
  315TIP3    H2  952   5.396   3.149   1.590
  316TIP3   OH2  953   4.446   2.940   3.142
  316TIP3    H1  954   4.358   2.958   3.173
  316TIP3    H2  955   4.501   2.945   3.220
  317TIP3   OH2  956   5.233   0.057   0.241
  317TIP3    H1  957   5.246  -0.025   0.288
  317TIP3    H2  958   5.290   0.120   0.286
  318TIP3   OH2  959   4.308   0.138   2.077
  318TIP3    H1  960   4.265   0.190   2.145
  318TIP3    H2  961   4.289   0.184   1.996
  319TIP3   OH2  962   3.167   2.817   1.178
  319TIP3    H1  963   3.256   2.822   1.213
  319TIP3    H2  964   3.147   2.724   1.175
  320TIP3   OH2  965   0.502   3.494   2.485
  320TIP3    H1  966   0.545   3.490   2.399
  320TIP3    H2  967   0.466   3.406   2.498
  321TIP3   OH2  968   4.457   3.759   2.263
  321TIP3    H1  969   4.546   3.786   2.243
  321TIP3    H2  970   4.452   3.668   2.235
  322TIP3   OH2  971   2.354   1.753   4.999
  322TIP3    H1  972   2.303   1.781   5.074
  322TIP3    H2  973   2.355   1.829   4.940
  323TIP3   OH2  974   5.949   3.458   2.751
  323TIP3    H1  975   5.981   3.406   2.677
  323TIP3    H2  976   5.969   3.404   2.828
  324TIP3   OH2  977   5.119   3.235   2.521
  324TIP3    H1  978   5.074   3.214   2.603
  324TIP3    H2  979   5.188   3.168   2.514
  325TIP3   OH2  980   5.028   5.167   2.216
  325TIP3    H1  981   5.111   5.157   2.170
  325TIP3    H2  982   5.032   5.102   2.287
  326TIP3   OH2  983   1.901   5.660   3.067
  326TIP3    H1  984   1.929   5.747   3.099
  326TIP3    H2  985   1.837   5.679   2.999
  327TIP3   OH2  986   4.888   4.407   0.013
  327TIP3    H1  987   4.825   4.387   0.082
  327TIP3    H2  988   4.898   4.503   0.018
  328TIP3   OH2  989   1.368   2.286   3.828
  328TIP3    H1  990   1.400   2.357   3.772
  328TIP3    H2  991   1.413   2.298   3.911
  329TIP3   OH2  992   2.670   4.154   0.773
  329TIP3    H1  993   2.706   4.149   0.862
  329TIP3    H2  994   2.747   4.161   0.717
  330TIP3   OH2  995   0.711   4.938   1.471
  330TIP3    H1  996   0.750   5.013   1.516
  330TIP3    H2  997   0.760   4.863   1.504
  331TIP3   OH2  998   3.973   1.624   1.287
  331TIP3    H1  999   3.954   1.666   1.203
  331TIP3    H2 1000   4.010   1.539   1.263
  332TIP3   OH2 1001   2.610   0.484   2.916
  332TIP3    H1 1002   2.627   0.577   2.932
  332TIP3    H2 1003   2.631   0.471   2.824
  333TIP3   OH2 1004   1.445   5.851   1.240
  333TIP3    H1 1005   1.381   5.923   1.237
  333TIP3    H2 1006   1.433   5.806   1.156
  334TIP3   OH2 1007   4.413   3.126   0.088
  334TIP3    H1 1008   4.330   3.144   0.043
  334TIP3    H2 1009   4.475   3.106   0.017
  335TIP3   OH2 1010   3.738   3.029   1.397
  335TIP3    H1 1011   3.683   3.063   1.468
  335TIP3    H2 1012   3.798   2.968   1.441
  336TIP3   OH2 1013   2.598   5.783   1.007
  336TIP3    H1 1014   2.528   5.824   0.956
  336TIP3    H2 1015   2.611   5.698   0.966
  337TIP3   OH2 1016   4.183   3.675   2.831
  337TIP3    H1 1017   4.275   3.697   2.844
  337TIP3    H2 1018   4.185   3.600   2.772
  338TIP3   OH2 1019   6.185   1.775   1.506
  338TIP3    H1 1020   6.090   1.768   1.500
  338TIP3    H2 1021   6.216   1.685   1.494
  339TIP3   OH2 1022   3.107   0.402   0.501
  339TIP3    H1 1023   3.088   0.397   0.407
  339TIP3    H2 1024   3.194   0.361   0.509
  340TIP3   OH2 1025   3.509   1.022   3.847
  340TIP3    H1 1026   3.421   1.000   3.876
  340TIP3    H2 1027   3.567   0.985   3.914
  341TIP3   OH2 1028   4.219   3.265   2.588
  341TIP3    H1 1029   4.144   3.243   2.532
  341TIP3    H2 1030   4.295   3.234   2.539
  342TIP3   OH2 1031   0.420   1.981   2.250
  342TIP3    H1 1032   0.430   1.893   2.214
  342TIP3    H2 1033   0.327   2.002   2.235
  343TIP3   OH2 1034   1.006   1.382   4.542
  343TIP3    H1 1035   1.098   1.383   4.517
  343TIP3    H2 1036   0.999   1.443   4.615
  344TIP3   OH2 1037   0.610   5.259   5.035
  344TIP3    H1 1038   0.652   5.292   4.955
  344TIP3    H2 1039   0.641   5.168   5.042
  345TIP3   OH2 1040   0.247   1.636   0.667
  345TIP3    H1 1041   0.322   1.689   0.694
  345TIP3    H2 1042   0.242   1.566   0.731
  346TIP3   OH2 1043   0.826   0.305   0.086
  346TIP3    H1 1044   0.842   0.304   0.180
  346TIP3    H2 1045   0.911   0.283   0.047
  347TIP3   OH2 1046   1.801   5.316   2.768
  347TIP3    H1 1047   1.823   5.274   2.851
  347TIP3    H2 1048   1.706   5.312   2.764
  348TIP3   OH2 1049   0.937   0.067   2.150
  348TIP3    H1 1050   0.984   0.144   2.183
  348TIP3    H2 1051   1.002  -0.002   2.147
  349TIP3   OH2 1052   0.888   0.111   3.195
  349TIP3    H1 1053   0.817   0.148   3.144
  349TIP3    H2 1054   0.880   0.016   3.184
  350TIP3   OH2 1055   5.082   2.018   1.558
  350TIP3    H1 1056   5.159   2.035   1.612
  350TIP3    H2 1057   5.117   1.979   1.477
  351TIP3   OH2 1058   3.999   0.155   2.730
  351TIP3    H1 1059   3.960   0.230   2.774
  351TIP3    H2 1060   4.038   0.192   2.651
  352TIP3   OH2 1061   0.967   2.009   3.203
  352TIP3    H1 1062   0.981   1.965   3.118
  352TIP3    H2 1063   0.983   1.940   3.268
  353TIP3   OH2 1064   3.984   1.847   1.100
  353TIP3    H1 1065   3.889   1.856   1.110
  353TIP3    H2 1066   4.017   1.937   1.105
  354TIP3   OH2 1067   5.738   0.229   5.121
  354TIP3    H1 1068   5.750   0.317   5.087
  354TIP3    H2 1069   5.687   0.184   5.054
  355TIP3   OH2 1070   2.826   4.054   2.051
  355TIP3    H1 1071   2.757   3.988   2.063
  355TIP3    H2 1072   2.905   4.002   2.033
  356TIP3   OH2 1073   4.867   2.817   4.601
  356TIP3    H1 1074   4.926   2.824   4.677
  356TIP3    H2 1075   4.925   2.825   4.525
  357TIP3   OH2 1076   3.341   5.351   3.863
  357TIP3    H1 1077   3.411   5.304   3.907
  357TIP3    H2 1078   3.264   5.295   3.874
  358TIP3   OH2 1079   1.629   5.248   5.154
  358TIP3    H1 1080   1.711   5.215   5.191
  358TIP3    H2 1081   1.620   5.203   5.070
  359TIP3   OH2 1082   1.871   0.205   4.354
  359TIP3    H1 1083   1.899   0.293   4.380
  359TIP3    H2 1084   1.931   0.181   4.283
  360TIP3   OH2 1085   2.029   4.710   0.942
  360TIP3    H1 1086   2.003   4.643   0.879
  360TIP3    H2 1087   1.993   4.681   1.025
  361TIP3   OH2 1088   2.916   3.258   3.321
  361TIP3    H1 1089   2.966   3.338   3.303
  361TIP3    H2 1090   2.882   3.271   3.410
  362TIP3   OH2 1091   2.824   4.944   1.502
  362TIP3    H1 1092   2.747   4.891   1.482
  362TIP3    H2 1093   2.857   4.910   1.585
  363TIP3   OH2 1094   4.111   4.967   3.167
  363TIP3    H1 1095   4.054   4.932   3.099
  363TIP3    H2 1096   4.084   5.058   3.177
  364TIP3   OH2 1097   1.465   3.945   3.281
  364TIP3    H1 1098   1.421   3.877   3.332
  364TIP3    H2 1099   1.476   4.017   3.343
  365TIP3   OH2 1100   2.848   3.341   0.489
  365TIP3    H1 1101   2.808   3.289   0.559
  365TIP3    H2 1102   2.861   3.427   0.528
  366TIP3   OH2 1103   3.720   3.287   1.203
  366TIP3    H1 1104   3.759   3.323   1.283
  366TIP3    H2 1105   3.752   3.343   1.133
  367TIP3   OH2 1106   2.713   3.285   4.730
  367TIP3    H1 1107   2.758   3.365   4.707
  367TIP3    H2 1108   2.622   3.312   4.744
  368TIP3   OH2 1109   3.822   3.978   2.241
  368TIP3    H1 1110   3.752   3.974   2.177
  368TIP3    H2 1111   3.892   3.925   2.203
  369TIP3   OH2 1112   2.894   4.273   0.640
  369TIP3    H1 1113   2.945   4.348   0.669
  369TIP3    H2 1114   2.855   4.301   0.557
  370TIP3   OH2 1115   3.066   2.126   2.442
  370TIP3    H1 1116   3.126   2.194   2.411
  370TIP3    H2 1117   3.121   2.065   2.490
  371TIP3   OH2 1118   3.137   5.652   4.904
  371TIP3    H1 1119   3.098   5.740   4.904
  371TIP3    H2 1120   3.063   5.594   4.921
  372TIP3   OH2 1121   4.585   2.829   0.589
  372TIP3    H1 1122   4.542   2.797   0.668
  372TIP3    H2 1123   4.572   2.924   0.592
  373TIP3   OH2 1124   1.431   5.668   2.781
  373TIP3    H1 1125   1.416   5.739   2.843
  373TIP3    H2 1126   1.393   5.591   2.823
  374TIP3   OH2 1127   2.511   0.068   5.075
  374TIP3    H1 1128   2.474   0.024   4.998
  374TIP3    H2 1129   2.553  -0.002   5.124
  375TIP3   OH2 1130   3.898   2.234   5.081
  375TIP3    H1 1131   3.870   2.144   5.096
  375TIP3    H2 1132   3.846   2.286   5.143
  376TIP3   OH2 1133   6.231   1.595   2.047
  376TIP3    H1 1134   6.278   1.512   2.051
  376TIP3    H2 1135   6.144   1.573   2.014
  377TIP3   OH2 1136   3.078   4.211   4.667
  377TIP3    H1 1137   3.022   4.143   4.629
  377TIP3    H2 1138   3.045   4.293   4.629
  378TIP3   OH2 1139   4.323   0.483   1.709
  378TIP3    H1 1140   4.258   0.424   1.672
  378TIP3    H2 1141   4.332   0.552   1.644
  379TIP3   OH2 1142   3.167   4.135   1.281
  379TIP3    H1 1143   3.136   4.200   1.218
  379TIP3    H2 1144   3.151   4.175   1.366
  380TIP3   OH2 1145   5.060   4.182   3.573
  380TIP3    H1 1146   5.152   4.199   3.552
  380TIP3    H2 1147   5.051   4.087   3.568
  381TIP3   OH2 1148   4.983   4.548   1.480
  381TIP3    H1 1149   4.980   4.500   1.397
  381TIP3    H2 1150   4.997   4.480   1.546
  382TIP3   OH2 1151   2.390   1.537   2.884
  382TIP3    H1 1152   2.392   1.515   2.791
  382TIP3    H2 1153   2.297   1.538   2.907
  383TIP3   OH2 1154   0.328   5.886   1.266
  383TIP3    H1 1155   0.414   5.927   1.280
  383TIP3    H2 1156   0.281   5.902   1.348
  384TIP3   OH2 1157   2.734   3.000   3.443
  384TIP3    H1 1158   2.727   3.006   3.538
  384TIP3    H2 1159   2.815   3.047   3.421
  385TIP3   OH2 1160   1.472   1.094   2.985
  385TIP3    H1 1161   1.440   1.006   3.007
  385TIP3    H2 1162   1.526   1.080   2.907
  386TIP3   OH2 1163   2.842   2.292   5.184
  386TIP3    H1 1164   2.934   2.316   5.170
  386TIP3    H2 1165   2.820   2.237   5.109
  387TIP3   OH2 1166   4.128   0.232   4.761
  387TIP3    H1 1167   4.107   0.257   4.671
  387TIP3    H2 1168   4.222   0.214   4.760
  388TIP3   OH2 1169   1.303   5.780   0.462
  388TIP3    H1 1170   1.224   5.826   0.491
  388TIP3    H2 1171   1.348   5.842   0.406
  389TIP3   OH2 1172   3.348   4.840   1.169
  389TIP3    H1 1173   3.317   4.816   1.256
  389TIP3    H2 1174   3.429   4.889   1.185
  390TIP3   OH2 1175   4.573   5.441   0.797
  390TIP3    H1 1176   4.584   5.429   0.891
  390TIP3    H2 1177   4.516   5.369   0.769
  391TIP3   OH2 1178   0.475   5.037   1.375
  391TIP3    H1 1179   0.451   5.119   1.418
  391TIP3    H2 1180   0.560   5.013   1.413
  392TIP3   OH2 1181   3.278   5.247   4.618
  392TIP3    H1 1182   3.321   5.198   4.689
  392TIP3    H2 1183   3.252   5.330   4.658
  393TIP3   OH2 1184   2.055   0.498   0.852
  393TIP3    H1 1185   2.067   0.510   0.946
  393TIP3    H2 1186   2.125   0.438   0.826
  394TIP3   OH2 1187   6.063   2.157   4.531
  394TIP3    H1 1188   6.109   2.230   4.490
  394TIP3    H2 1189   5.976   2.158   4.491
  395TIP3   OH2 1190   0.086   2.347   0.728
  395TIP3    H1 1191   0.004   2.328   0.773
  395TIP3    H2 1192   0.092   2.443   0.727
  396TIP3   OH2 1193   5.263   3.508   4.371
  396TIP3    H1 1194   5.203   3.542   4.436
  396TIP3    H2 1195   5.303   3.585   4.331
  397TIP3   OH2 1196   3.192   2.448   3.020
  397TIP3    H1 1197   3.101   2.427   3.002
  397TIP3    H2 1198   3.190   2.491   3.106
  398TIP3   OH2 1199   2.052   3.061   1.974
  398TIP3    H1 1200   2.146   3.047   1.985
  398TIP3    H2 1201   2.025   3.101   2.057
  399TIP3   OH2 1202   2.964   1.542   0.653
  399TIP3    H1 1203   2.918   1.624   0.637
  399TIP3    H2 1204   2.968   1.500   0.567
  400TIP3   OH2 1205   3.589   5.688   1.237
  400TIP3    H1 1206   3.513   5.690   1.178
  400TIP3    H2 1207   3.658   5.732   1.187
  401TIP3   OH2 1208   0.387   4.222   0.393
  401TIP3    H1 1209   0.359   4.211   0.483
  401TIP3    H2 1210   0.338   4.299   0.362
  402TIP3   OH2 1211   0.614   4.544   0.371
  402TIP3    H1 1212   0.542   4.574   0.426
  402TIP3    H2 1213   0.692   4.583   0.410
  403TIP3   OH2 1214   6.267   5.958   0.143
  403TIP3    H1 1215   6.175   5.934   0.149
  403TIP3    H2 1216   6.268   6.053   0.149
  404TIP3   OH2 1217   3.634   4.548   0.304
  404TIP3    H1 1218   3.577   4.584   0.236
  404TIP3    H2 1219   3.718   4.593   0.291
  405TIP3   OH2 1220   0.820   5.470   2.545
  405TIP3    H1 1221   0.867   5.439   2.622
  405TIP3    H2 1222   0.833   5.565   2.545
  406TIP3   OH2 1223   1.084   2.538   1.172
  406TIP3    H1 1224   1.079   2.587   1.254
  406TIP3    H2 1225   1.088   2.605   1.104
  407TIP3   OH2 1226   3.738   4.286   3.045
  407TIP3    H1 1227   3.683   4.354   3.006
  407TIP3    H2 1228   3.679   4.236   3.102
  408TIP3   OH2 1229   0.792   5.806   3.108
  408TIP3    H1 1230   0.733   5.877   3.134
  408TIP3    H2 1231   0.879   5.836   3.135
  409TIP3   OH2 1232   1.504   3.936   1.197
  409TIP3    H1 1233   1.472   3.979   1.118
  409TIP3    H2 1234   1.426   3.925   1.252
  410TIP3   OH2 1235   3.540   2.709   1.836
  410TIP3    H1 1236   3.541   2.616   1.812
  410TIP3    H2 1237   3.454   2.722   1.876
  411TIP3   OH2 1238   1.865   1.363   4.449
  411TIP3    H1 1239   1.770   1.355   4.439
  411TIP3    H2 1240   1.895   1.273   4.460
  412TIP3   OH2 1241   1.967   2.804   3.782
  412TIP3    H1 1242   1.999   2.875   3.837
  412TIP3    H2 1243   1.895   2.842   3.733
  413TIP3   OH2 1244   1.536   5.284   2.815
  413TIP3    H1 1245   1.456   5.263   2.767
  413TIP3    H2 1246   1.511   5.278   2.907
  414TIP3   OH2 1247   5.566   2.138   0.561
  414TIP3    H1 1248   5.623   2.084   0.615
  414TIP3    H2 1249   5.506   2.076   0.519
  415TIP3   OH2 1250   3.024   3.954   0.702
  415TIP3    H1 1251   3.041   4.039   0.743
  415TIP3    H2 1252   3.016   3.973   0.609
  416TIP3   OH2 1253   3.089   2.409   5.127
  416TIP3    H1 1254   3.136   2.382   5.047
  416TIP3    H2 1255   3.148   2.385   5.198
  417TIP3   OH2 1256   2.810   1.146   4.729
  417TIP3    H1 1257   2.879   1.206   4.755
  417TIP3    H2 1258   2.814   1.074   4.792
  418TIP3   OH2 1259   5.453   3.272   0.300
  418TIP3    H1 1260   5.364   3.271   0.336
  418TIP3    H2 1261   5.491   3.189   0.329
  419TIP3   OH2 1262   3.133   5.193   0.037
  419TIP3    H1 1263   3.215   5.148   0.057
  419TIP3    H2 1264   3.153   5.286   0.047
  420TIP3   OH2 1265   5.546   0.995   3.114
  420TIP3    H1 1266   5.508   1.034   3.035
  420TIP3    H2 1267   5.613   1.058   3.140
  421TIP3   OH2 1268   5.503   5.124   0.717
  421TIP3    H1 1269   5.503   5.145   0.624
  421TIP3    H2 1270   5.570   5.057   0.726
  422TIP3   OH2 1271   4.052   3.826   4.217
  422TIP3    H1 1272   4.036   3.757   4.152
  422TIP3    H2 1273   4.092   3.897   4.166
  423TIP3   OH2 1274   1.907   5.415   1.001
  423TIP3    H1 1275   1.863   5.331   0.988
  423TIP3    H2 1276   1.956   5.404   1.083
  424TIP3   OH2 1277   2.051   3.226   4.450
  424TIP3    H1 1278   2.085   3.234   4.540
  424TIP3    H2 1279   2.031   3.316   4.424
  425TIP3   OH2 1280   3.749   2.395   3.684
  425TIP3    H1 1281   3.785   2.306   3.679
  425TIP3    H2 1282   3.720   2.415   3.595
  426TIP3   OH2 1283   5.166   0.612   1.924
  426TIP3    H1 1284   5.164   0.557   2.003
  426TIP3    H2 1285   5.200   0.555   1.856
  427TIP3   OH2 1286   0.841   5.700   0.950
  427TIP3    H1 1287   0.892   5.781   0.953
  427TIP3    H2 1288   0.837   5.671   1.042
  428TIP3   OH2 1289   3.656   4.716   2.107
  428TIP3    H1 1290   3.590   4.784   2.121
  428TIP3    H2 1291   3.614   4.635   2.136
  429TIP3   OH2 1292   1.541   5.516   2.307
  429TIP3    H1 1293   1.492   5.553   2.234
  429TIP3    H2 1294   1.624   5.487   2.268
  430TIP3   OH2 1295   3.210   4.339   2.479
  430TIP3    H1 1296   3.124   4.312   2.446
  430TIP3    H2 1297   3.209   4.314   2.571
  431TIP3   OH2 1298   3.072   0.660   0.588
  431TIP3    H1 1299   3.079   0.568   0.563
  431TIP3    H2 1300   3.003   0.661   0.655
  432TIP3   OH2 1301   1.979   5.757   1.726
  432TIP3    H1 1302   1.904   5.704   1.753
  432TIP3    H2 1303   2.040   5.695   1.686
  433TIP3   OH2 1304   3.321   0.839   5.036
  433TIP3    H1 1305   3.241   0.884   5.062
  433TIP3    H2 1306   3.312   0.751   5.070
  434TIP3   OH2 1307   2.312   2.480   0.680
  434TIP3    H1 1308   2.296   2.390   0.652
  434TIP3    H2 1309   2.287   2.533   0.604
  435TIP3   OH2 1310   1.341   3.643   0.030
  435TIP3    H1 1311   1.275   3.597   0.081
  435TIP3    H2 1312   1.323   3.736   0.045
  436TIP3   OH2 1313   0.950   2.931   3.584
  436TIP3    H1 1314   0.972   2.840   3.602
  436TIP3    H2 1315   0.973   2.944   3.492
  437TIP3   OH2 1316   5.826   2.977   3.715
  437TIP3    H1 1317   5.851   2.889   3.686
  437TIP3    H2 1318   5.731   2.979   3.704
  438TIP3   OH2 1319   3.778   0.337   1.034
  438TIP3    H1 1320   3.732   0.351   0.951
  438TIP3    H2 1321   3.724   0.380   1.100
  439TIP3   OH2 1322   4.914   0.816   4.146
  439TIP3    H1 1323   4.953   0.833   4.060
  439TIP3    H2 1324   4.985   0.831   4.208
  440TIP3   OH2 1325   1.124   4.826   4.956
  440TIP3    H1 1326   1.030   4.838   4.939
  440TIP3    H2 1327   1.140   4.734   4.938
  441TIP3   OH2 1328   3.603   2.972   0.485
  441TIP3    H1 1329   3.673   2.942   0.543
  441TIP3    H2 1330   3.584   3.061   0.514
  442TIP3   OH2 1331   2.388   5.341   2.886
  442TIP3    H1 1332   2.317   5.364   2.946
  442TIP3    H2 1333   2.359   5.259   2.845
  443TIP3   OH2 1334   1.692   4.321   5.170
  443TIP3    H1 1335   1.701   4.416   5.156
  443TIP3    H2 1336   1.638   4.291   5.097
  444TIP3   OH2 1337   1.203   2.542   2.220
  444TIP3    H1 1338   1.172   2.492   2.296
  444TIP3    H2 1339   1.195   2.634   2.248
  445TIP3   OH2 1340   0.870   3.498   3.318
  445TIP3    H1 1341   0.828   3.416   3.346
  445TIP3    H2 1342   0.961   3.473   3.304
  446TIP3   OH2 1343   6.195   1.057   0.996
  446TIP3    H1 1344   6.285   1.079   1.023
  446TIP3    H2 1345   6.161   1.005   1.069
  447TIP3   OH2 1346   2.528   5.814   4.171
  447TIP3    H1 1347   2.508   5.762   4.248
  447TIP3    H2 1348   2.443   5.846   4.140
  448TIP3   OH2 1349   2.580   1.423   3.633
  448TIP3    H1 1350   2.554   1.492   3.694
  448TIP3    H2 1351   2.530   1.440   3.554
  449TIP3   OH2 1352   4.687   3.200   2.500
  449TIP3    H1 1353   4.708   3.262   2.430
  449TIP3    H2 1354   4.710   3.246   2.580
  450TIP3   OH2 1355   3.617   0.868   3.404
  450TIP3    H1 1356   3.684   0.878   3.337
  450TIP3    H2 1357   3.618   0.951   3.452
  451TIP3   OH2 1358   4.893   4.782   3.987
  451TIP3    H1 1359   4.853   4.701   4.017
  451TIP3    H2 1360   4.823   4.847   3.993
  452TIP3   OH2 1361   1.529   4.976   0.096
  452TIP3    H1 1362   1.532   5.006   0.005
  452TIP3    H2 1363   1.446   5.011   0.129
  453TIP3   OH2 1364   4.275   2.049   1.485
  453TIP3    H1 1365   4.321   2.132   1.471
  453TIP3    H2 1366   4.265   2.012   1.397
  454TIP3   OH2 1367   5.064   2.400   4.245
  454TIP3    H1 1368   5.114   2.473   4.282
  454TIP3    H2 1369   5.035   2.431   4.159
  455TIP3   OH2 1370   0.340   4.546   1.801
  455TIP3    H1 1371   0.382   4.490   1.866
  455TIP3    H2 1372   0.398   4.622   1.793
  456TIP3   OH2 1373   6.338   1.465   0.235
  456TIP3    H1 1374   6.326   1.494   0.326
  456TIP3    H2 1375   6.257   1.490   0.191
  457TIP3   OH2 1376   0.698   2.013   0.923
  457TIP3    H1 1377   0.715   2.106   0.906
  457TIP3    H2 1378   0.770   1.986   0.981
  458TIP3   OH2 1379   0.298   5.748   2.784
  458TIP3    H1 1380   0.309   5.782   2.695
  458TIP3    H2 1381   0.317   5.823   2.840
  459TIP3   OH2 1382   5.547   4.596   2.890
  459TIP3    H1 1383   5.471   4.551   2.853
  459TIP3    H2 1384   5.592   4.529   2.941
  460TIP3   OH2 1385   6.325   2.355   4.767
  460TIP3    H1 1386   6.417   2.338   4.748
  460TIP3    H2 1387   6.278   2.321   4.691
  461TIP3   OH2 1388   1.176   3.740   4.416
  461TIP3    H1 1389   1.264   3.722   4.451
  461TIP3    H2 1390   1.129   3.778   4.490
  462TIP3   OH2 1391   4.525   3.889   3.380
  462TIP3    H1 1392   4.463   3.850   3.442
  462TIP3    H2 1393   4.477   3.894   3.297
  463TIP3   OH2 1394   5.197   5.631   4.627
  463TIP3    H1 1395   5.170   5.632   4.535
  463TIP3    H2 1396   5.187   5.722   4.657
  464TIP3   OH2 1397   4.813   1.515   2.301
  464TIP3    H1 1398   4.857   1.431   2.287
  464TIP3    H2 1399   4.742   1.516   2.238
  465TIP3   OH2 1400   3.100   5.835   1.134
  465TIP3    H1 1401   3.056   5.766   1.086
  465TIP3    H2 1402   3.090   5.811   1.226
  466TIP3   OH2 1403   0.792   5.232   2.767
  466TIP3    H1 1404   0.875   5.269   2.797
  466TIP3    H2 1405   0.727   5.298   2.791
  467TIP3   OH2 1406   3.432   1.659   1.669
  467TIP3    H1 1407   3.433   1.691   1.579
  467TIP3    H2 1408   3.443   1.737   1.722
  468TIP3   OH2 1409   5.176   4.446   0.755
  468TIP3    H1 1410   5.132   4.383   0.698
  468TIP3    H2 1411   5.165   4.530   0.712
  469TIP3   OH2 1412   4.704   5.199   0.519
  469TIP3    H1 1413   4.688   5.141   0.594
  469TIP3    H2 1414   4.618   5.237   0.500
  470TIP3   OH2 1415   5.473   2.277   1.742
  470TIP3    H1 1416   5.539   2.211   1.721
  470TIP3    H2 1417   5.435   2.249   1.825
  471TIP3   OH2 1418   1.742   1.063   1.271
  471TIP3    H1 1419   1.792   1.143   1.256
  471TIP3    H2 1420   1.659   1.077   1.226
  472TIP3   OH2 1421   1.678   2.178   0.089
  472TIP3    H1 1422   1.676   2.089   0.052
  472TIP3    H2 1423   1.661   2.164   0.183
  473TIP3   OH2 1424   2.971   0.365   2.963
  473TIP3    H1 1425   3.049   0.418   2.946
  473TIP3    H2 1426   2.911   0.385   2.891
  474TIP3   OH2 1427   4.404   1.785   3.505
  474TIP3    H1 1428   4.468   1.852   3.528
  474TIP3    H2 1429   4.430   1.757   3.417
  475TIP3   OH2 1430   3.895   5.325   0.670
  475TIP3    H1 1431   3.863   5.306   0.582
  475TIP3    H2 1432   3.839   5.396   0.701
  476TIP3   OH2 1433   3.332   1.323   2.513
  476TIP3    H1 1434   3.276   1.282   2.580
  476TIP3    H2 1435   3.421   1.296   2.536
  477TIP3   OH2 1436   5.180   5.463   0.557
  477TIP3    H1 1437   5.274   5.461   0.537
  477TIP3    H2 1438   5.144   5.387   0.512
  478TIP3   OH2 1439   5.147   3.317   3.422
  478TIP3    H1 1440   5.109   3.332   3.509
  478TIP3    H2 1441   5.231   3.363   3.425
  479TIP3   OH2 1442   0.349   3.867   2.141
  479TIP3    H1 1443   0.289   3.830   2.206
  479TIP3    H2 1444   0.293   3.913   2.079
  480TIP3   OH2 1445   1.569   1.783   5.204
  480TIP3    H1 1446   1.605   1.862   5.244
  480TIP3    H2 1447   1.591   1.789   5.112
  481TIP3   OH2 1448   0.665   2.546   4.484
  481TIP3    H1 1449   0.728   2.498   4.431
  481TIP3    H2 1450   0.592   2.563   4.424
  482TIP3   OH2 1451   4.887   5.600   1.931
  482TIP3    H1 1452   4.821   5.644   1.877
  482TIP3    H2 1453   4.861   5.508   1.931
  483TIP3   OH2 1454   3.752   3.271   1.718
  483TIP3    H1 1455   3.735   3.210   1.790
  483TIP3    H2 1456   3.693   3.241   1.648
  484TIP3   OH2 1457  -0.001   2.583   4.585
  484TIP3    H1 1458   0.044   2.630   4.654
  484TIP3    H2 1459   0.042   2.498   4.581
  485TIP3   OH2 1460   2.255   0.877   0.352
  485TIP3    H1 1461   2.177   0.893   0.299
  485TIP3    H2 1462   2.252   0.946   0.419
  486TIP3   OH2 1463   2.130   1.764   2.406
  486TIP3    H1 1464   2.167   1.845   2.440
  486TIP3    H2 1465   2.057   1.793   2.351
  487TIP3   OH2 1466   5.065   5.307   2.455
  487TIP3    H1 1467   5.159   5.308   2.472
  487TIP3    H2 1468   5.058   5.309   2.360
  488TIP3   OH2 1469   0.237   5.435   1.895
  488TIP3    H1 1470   0.250   5.441   1.801
  488TIP3    H2 1471   0.142   5.446   1.907
  489TIP3   OH2 1472   1.554   5.356   4.698
  489TIP3    H1 1473   1.522   5.290   4.636
  489TIP3    H2 1474   1.563   5.435   4.645
  490TIP3   OH2 1475   2.701   1.821   2.400
  490TIP3    H1 1476   2.617   1.859   2.427
  490TIP3    H2 1477   2.757   1.896   2.384
  491TIP3   OH2 1478   2.107   5.505   1.651
  491TIP3    H1 1479   2.177   5.521   1.588
  491TIP3    H2 1480   2.035   5.468   1.600
  492TIP3   OH2 1481   3.381   5.590   2.881
  492TIP3    H1 1482   3.354   5.539   2.957
  492TIP3    H2 1483   3.332   5.551   2.808
  493TIP3   OH2 1484   5.411   2.939   1.464
  493TIP3    H1 1485   5.355   2.925   1.387
  493TIP3    H2 1486   5.434   3.032   1.460
  494TIP3   OH2 1487   1.479   4.809   2.256
  494TIP3    H1 1488   1.569   4.838   2.271
  494TIP3    H2 1489   1.425   4.874   2.301
  495TIP3   OH2 1490   3.577   3.701   1.901
  495TIP3    H1 1491   3.543   3.756   1.830
  495TIP3    H2 1492   3.519   3.719   1.975
  496TIP3   OH2 1493   1.281   2.901   1.579
  496TIP3    H1 1494   1.240   2.935   1.658
  496TIP3    H2 1495   1.375   2.916   1.592
  497TIP3   OH2 1496   4.916   1.817   4.285
  497TIP3    H1 1497   4.957   1.731   4.274
  497TIP3    H2 1498   4.822   1.800   4.277
  498TIP3   OH2 1499   2.769   1.710   0.537
  498TIP3    H1 1500   2.677   1.690   0.522
  498TIP3    H2 1501   2.787   1.786   0.481
  499TIP3   OH2 1502   4.931   0.438   1.127
  499TIP3    H1 1503   4.995   0.463   1.061
  499TIP3    H2 1504   4.952   0.494   1.202
  500TIP3   OH2 1505   3.206   5.436   0.138
  500TIP3    H1 1506   3.144   5.506   0.118
  500TIP3    H2 1507   3.271   5.477   0.195
  501TIP3   OH2 1508   2.395   1.227   0.857
  501TIP3    H1 1509   2.312   1.189   0.830
  501TIP3    H2 1510   2.459   1.191   0.796
  502TIP3   OH2 1511   2.833   1.559   3.630
  502TIP3    H1 1512   2.750   1.512   3.626
  502TIP3    H2 1513   2.898   1.492   3.652
  503TIP3   OH2 1514   0.852   3.373   0.309
  503TIP3    H1 1515   0.918   3.345   0.246
  503TIP3    H2 1516   0.890   3.449   0.352
  504TIP3   OH2 1517   0.467   4.797   1.777
  504TIP3    H1 1518   0.493   4.867   1.716
  504TIP3    H2 1519   0.507   4.823   1.860
  505TIP3   OH2 1520   1.977   3.368   3.727
  505TIP3    H1 1521   2.023   3.297   3.772
  505TIP3    H2 1522   2.034   3.444   3.736
  506TIP3   OH2 1523   3.904   0.403   3.915
  506TIP3    H1 1524   3.931   0.316   3.947
  506TIP3    H2 1525   3.900   0.456   3.994
  507TIP3   OH2 1526   2.969   0.802   1.622
  507TIP3    H1 1527   3.062   0.807   1.601
  507TIP3    H2 1528   2.925   0.842   1.548
  508TIP3   OH2 1529   3.920   1.874   4.463
  508TIP3    H1 1530   3.852   1.932   4.494
  508TIP3    H2 1531   4.002   1.922   4.477
  509TIP3   OH2 1532   0.730   2.667   2.146
  509TIP3    H1 1533   0.636   2.656   2.156
  509TIP3    H2 1534   0.741   2.756   2.112
  510TIP3   OH2 1535   2.879   2.441   1.310
  510TIP3    H1 1536   2.826   2.373   1.353
  510TIP3    H2 1537   2.863   2.520   1.361
  511TIP3   OH2 1538   2.745   2.294   0.583
  511TIP3    H1 1539   2.680   2.263   0.519
  511TIP3    H2 1540   2.702   2.369   0.625
  512TIP3   OH2 1541   1.337   2.960   2.008
  512TIP3    H1 1542   1.366   3.039   2.052
  512TIP3    H2 1543   1.418   2.917   1.979
  513TIP3   OH2 1544   2.579   4.921   3.683
  513TIP3    H1 1545   2.541   4.929   3.596
  513TIP3    H2 1546   2.640   4.995   3.690
  514TIP3   OH2 1547   2.650   3.422   3.181
  514TIP3    H1 1548   2.569   3.391   3.221
  514TIP3    H2 1549   2.686   3.345   3.136
  515TIP3   OH2 1550   1.985   1.959   2.172
  515TIP3    H1 1551   1.940   2.008   2.104
  515TIP3    H2 1552   1.956   1.999   2.254
  516TIP3   OH2 1553   6.294   5.437   1.916
  516TIP3    H1 1554   6.215   5.385   1.929
  516TIP3    H2 1555   6.286   5.508   1.979
  517TIP3   OH2 1556   3.226   1.338   2.831
  517TIP3    H1 1557   3.149   1.365   2.781
  517TIP3    H2 1558   3.190   1.299   2.911
  518TIP3   OH2 1559   4.930   5.085   1.888
  518TIP3    H1 1560   4.931   5.135   1.969
  518TIP3    H2 1561   5.012   5.037   1.887
  519TIP3   OH2 1562   1.589   2.673   3.426
  519TIP3    H1 1563   1.659   2.728   3.461
  519TIP3    H2 1564   1.582   2.600   3.488
  520TIP3   OH2 1565   5.361   3.926   3.371
  520TIP3    H1 1566   5.409   3.989   3.425
  520TIP3    H2 1567   5.370   3.843   3.418
  521TIP3   OH2 1568   4.481   0.370   0.156
  521TIP3    H1 1569   4.449   0.332   0.074
  521TIP3    H2 1570   4.440   0.456   0.161
  522TIP3   OH2 1571   4.819   4.547   4.074
  522TIP3    H1 1572   4.742   4.492   4.082
  522TIP3    H2 1573   4.850   4.560   4.164
  523TIP3   OH2 1574   0.083   0.282   0.515
  523TIP3    H1 1575   0.054   0.373   0.505
  523TIP3    H2 1576   0.160   0.288   0.572
  524TIP3   OH2 1577   1.903   4.468   3.325
  524TIP3    H1 1578   1.942   4.556   3.324
  524TIP3    H2 1579   1.927   4.432   3.411
  525TIP3   OH2 1580   2.042   3.408   0.146
  525TIP3    H1 1581   1.980   3.368   0.207
  525TIP3    H2 1582   2.124   3.415   0.195
  526TIP3   OH2 1583   1.221   0.666   3.234
  526TIP3    H1 1584   1.195   0.728   3.302
  526TIP3    H2 1585   1.310   0.692   3.211
  527TIP3   OH2 1586   3.206   2.394   4.874
  527TIP3    H1 1587   3.199   2.405   4.780
  527TIP3    H2 1588   3.293   2.356   4.887
  528TIP3   OH2 1589   0.333   5.236   0.344
  528TIP3    H1 1590   0.337   5.312   0.403
  528TIP3    H2 1591   0.286   5.268   0.268
  529TIP3   OH2 1592   2.932   4.932   4.485
  529TIP3    H1 1593   2.992   4.927   4.560
  529TIP3    H2 1594   2.880   4.852   4.491
  530TIP3   OH2 1595   3.689   5.984   4.774
  530TIP3    H1 1596   3.736   5.911   4.734
  530TIP3    H2 1597   3.748   6.059   4.764
  531TIP3   OH2 1598   1.832   0.196   1.211
  531TIP3    H1 1599   1.921   0.226   1.230
  531TIP3    H2 1600   1.817   0.223   1.120
  532TIP3   OH2 1601   3.682   2.759   1.032
  532TIP3    H1 1602   3.743   2.747   0.960
  532TIP3    H2 1603   3.598   2.776   0.989
  533TIP3   OH2 1604   2.558   0.179   0.678
  533TIP3    H1 1605   2.504   0.246   0.636
  533TIP3    H2 1606   2.527   0.096   0.643
  534TIP3   OH2 1607   0.517   4.137   1.623
  534TIP3    H1 1608   0.552   4.082   1.553
  534TIP3    H2 1609   0.536   4.226   1.596
  535TIP3   OH2 1610   0.991   4.522   2.486
  535TIP3    H1 1611   0.984   4.617   2.485
  535TIP3    H2 1612   1.007   4.499   2.578
  536TIP3   OH2 1613   2.107   5.092   2.044
  536TIP3    H1 1614   2.130   5.071   2.134
  536TIP3    H2 1615   2.043   5.025   2.019
  537TIP3   OH2 1616   1.073   2.427   2.418
  537TIP3    H1 1617   1.096   2.452   2.508
  537TIP3    H2 1618   0.991   2.474   2.401
  538TIP3   OH2 1619   5.363   0.322   1.168
  538TIP3    H1 1620   5.341   0.255   1.102
  538TIP3    H2 1621   5.412   0.388   1.119
  539TIP3   OH2 1622   5.071   2.906   2.377
  539TIP3    H1 1623   5.011   2.929   2.448
  539TIP3    H2 1624   5.072   2.810   2.376
  540TIP3   OH2 1625   5.024   0.664   1.615
  540TIP3    H1 1626   5.021   0.609   1.537
  540TIP3    H2 1627   5.077   0.614   1.677
  541TIP3   OH2 1628   3.465   3.305   4.115
  541TIP3    H1 1629   3.493   3.315   4.206
  541TIP3    H2 1630   3.546   3.289   4.067
  542TIP3   OH2 1631   2.727   1.334   0.207
  542TIP3    H1 1632   2.725   1.375   0.120
  542TIP3    H2 1633   2.800   1.376   0.251
  543TIP3   OH2 1634   1.038   4.146   3.005
  543TIP3    H1 1635   1.118   4.125   3.054
  543TIP3    H2 1636   0.982   4.190   3.068
  544TIP3   OH2 1637   0.674   4.590   1.900
  544TIP3    H1 1638   0.754   4.538   1.902
  544TIP3    H2 1639   0.606   4.531   1.933
  545TIP3   OH2 1640   4.209   3.284   3.524
  545TIP3    H1 1641   4.188   3.334   3.444
  545TIP3    H2 1642   4.296   3.314   3.548
  546TIP3   OH2 1643   0.451   4.559   3.304
  546TIP3    H1 1644   0.395   4.545   3.227
  546TIP3    H2 1645   0.482   4.472   3.328
  547TIP3   OH2 1646   1.867   3.236   3.449
  547TIP3    H1 1647   1.774   3.258   3.437
  547TIP3    H2 1648   1.886   3.262   3.539
  548TIP3   OH2 1649   1.246   2.920   3.846
  548TIP3    H1 1650   1.297   2.886   3.919
  548TIP3    H2 1651   1.162   2.873   3.852
  549TIP3   OH2 1652   0.181   4.313   2.974
  549TIP3    H1 1653   0.244   4.250   3.008
  549TIP3    H2 1654   0.098   4.265   2.971
  550TIP3   OH2 1655   2.462   5.880   2.394
  550TIP3    H1 1656   2.526   5.934   2.346
  550TIP3    H2 1657   2.399   5.943   2.428
  551TIP3   OH2 1658   2.690   1.990   1.274
  551TIP3    H1 1659   2.679   1.933   1.197
  551TIP3    H2 1660   2.601   2.007   1.304
  552TIP3   OH2 1661   0.590   3.153   2.667
  552TIP3    H1 1662   0.529   3.210   2.620
  552TIP3    H2 1663   0.632   3.101   2.599
  553TIP3   OH2 1664   0.923   4.448   4.921
  553TIP3    H1 1665   0.995   4.476   4.865
  553TIP3    H2 1666   0.964   4.389   4.985
  554TIP3   OH2 1667   0.627   3.437   2.244
  554TIP3    H1 1668   0.619   3.452   2.150
  554TIP3    H2 1669   0.721   3.429   2.259
  555TIP3   OH2 1670   0.149   5.590   4.230
  555TIP3    H1 1671   0.222   5.533   4.205
  555TIP3    H2 1672   0.165   5.609   4.323
  556TIP3   OH2 1673   0.807   5.445   2.233
  556TIP3    H1 1674   0.739   5.378   2.235
  556TIP3    H2 1675   0.776   5.512   2.293
  557TIP3   OH2 1676   4.817   2.773   2.215
  557TIP3    H1 1677   4.817   2.842   2.282
  557TIP3    H2 1678   4.907   2.774   2.181
  558TIP3   OH2 1679   5.241   0.097   2.098
  558TIP3    H1 1680   5.215   0.153   2.172
  558TIP3    H2 1681   5.292   0.027   2.138
  559TIP3   OH2 1682   5.763   5.067   2.833
  559TIP3    H1 1683   5.689   5.127   2.833
  559TIP3    H2 1684   5.819   5.096   2.760
  560TIP3   OH2 1685   0.108   5.520   3.204
  560TIP3    H1 1686   0.123   5.611   3.178
  560TIP3    H2 1687   0.097   5.524   3.299
  561TIP3   OH2 1688   4.305   3.089   0.977
  561TIP3    H1 1689   4.223   3.132   0.950
  561TIP3    H2 1690   4.358   3.088   0.897
  562TIP3   OH2 1691   1.433   3.697   2.614
  562TIP3    H1 1692   1.484   3.778   2.617
  562TIP3    H2 1693   1.393   3.691   2.700
  563TIP3   OH2 1694   5.645   4.896   0.697
  563TIP3    H1 1695   5.653   4.836   0.771
  563TIP3    H2 1696   5.670   4.844   0.621
  564TIP3   OH2 1697   2.405   1.018   1.314
  564TIP3    H1 1698   2.366   0.957   1.377
  564TIP3    H2 1699   2.413   1.100   1.362
  565TIP3   OH2 1700   0.259   1.151   2.083
  565TIP3    H1 1701   0.334   1.131   2.139
  565TIP3    H2 1702   0.298   1.181   2.001
  566TIP3   OH2 1703   2.764   0.267   0.440
  566TIP3    H1 1704   2.778   0.361   0.441
  566TIP3    H2 1705   2.810   0.234   0.517
  567TIP3   OH2 1706   3.687   5.002   0.744
  567TIP3    H1 1707   3.710   4.917   0.780
  567TIP3    H2 1708   3.623   5.038   0.805
  568TIP3   OH2 1709   0.037   4.228   4.470
  568TIP3    H1 1710   0.008   4.195   4.385
  568TIP3    H2 1711   0.124   4.264   4.454
  569TIP3   OH2 1712   3.064   1.121   1.929
  569TIP3    H1 1713   3.039   1.164   2.011
  569TIP3    H2 1714   3.091   1.193   1.872
  570TIP3   OH2 1715   3.324   2.377   0.391
  570TIP3    H1 1716   3.260   2.409   0.328
  570TIP3    H2 1717   3.332   2.283   0.372
  571TIP3   OH2 1718   3.430   3.803   3.750
  571TIP3    H1 1719   3.469   3.727   3.708
  571TIP3    H2 1720   3.395   3.856   3.678
  572TIP3   OH2 1721   1.785   1.568   5.009
  572TIP3    H1 1722   1.766   1.493   4.954
  572TIP3    H2 1723   1.709   1.626   4.999
  573TIP3   OH2 1724   5.690   2.341   0.930
  573TIP3    H1 1725   5.746   2.312   0.858
  573TIP3    H2 1726   5.729   2.301   1.008
  574TIP3   OH2 1727   2.264   5.505   4.802
  574TIP3    H1 1728   2.298   5.532   4.887
  574TIP3    H2 1729   2.182   5.555   4.792
  575TIP3   OH2 1730   5.317   3.271   0.006
  575TIP3    H1 1731   5.371   3.298   0.081
  575TIP3    H2 1732   5.353   3.185  -0.019
  576TIP3   OH2 1733   0.273   0.710   2.976
  576TIP3    H1 1734   0.290   0.722   3.070
  576TIP3    H2 1735   0.333   0.771   2.933
  577TIP3   OH2 1736   0.798   2.045   1.273
  577TIP3    H1 1737   0.819   1.992   1.196
  577TIP3    H2 1738   0.878   2.094   1.292
  578TIP3   OH2 1739   5.319   1.451   1.955
  578TIP3    H1 1740   5.284   1.492   2.034
  578TIP3    H2 1741   5.413   1.462   1.962
  579TIP3   OH2 1742   1.054   0.273   2.571
  579TIP3    H1 1743   0.980   0.252   2.514
  579TIP3    H2 1744   1.082   0.188   2.606
  580TIP3   OH2 1745   1.073   5.191   3.754
  580TIP3    H1 1746   1.065   5.263   3.816
  580TIP3    H2 1747   0.983   5.160   3.742
  581TIP3   OH2 1748   4.711   3.674   2.942
  581TIP3    H1 1749   4.765   3.695   3.017
  581TIP3    H2 1750   4.717   3.751   2.886
  582TIP3   OH2 1751   1.178   1.022   2.214
  582TIP3    H1 1752   1.245   1.085   2.240
  582TIP3    H2 1753   1.225   0.956   2.164
  583TIP3   OH2 1754   5.311   0.822   5.024
  583TIP3    H1 1755   5.257   0.899   5.005
  583TIP3    H2 1756   5.401   0.855   5.028
  584TIP3   OH2 1757   0.141   1.060   3.205
  584TIP3    H1 1758   0.087   1.118   3.150
  584TIP3    H2 1759   0.165   1.115   3.280
  585TIP3   OH2 1760   0.806   2.293   4.101
  585TIP3    H1 1761   0.867   2.304   4.028
  585TIP3    H2 1762   0.823   2.369   4.157
  586TIP3   OH2 1763   0.093   2.027   4.429
  586TIP3    H1 1764   0.124   1.975   4.503
  586TIP3    H2 1765   0.015   1.982   4.398
  587TIP3   OH2 1766   2.699   5.153   3.401
  587TIP3    H1 1767   2.747   5.163   3.483
  587TIP3    H2 1768   2.763   5.177   3.333
  588TIP3   OH2 1769   5.234   0.247   3.298
  588TIP3    H1 1770   5.143   0.231   3.274
  588TIP3    H2 1771   5.259   0.169   3.348
  589TIP3   OH2 1772   4.142   5.794   3.627
  589TIP3    H1 1773   4.132   5.845   3.707
  589TIP3    H2 1774   4.223   5.744   3.640
  590TIP3   OH2 1775   2.737   2.542   0.905
  590TIP3    H1 1776   2.807   2.496   0.859
  590TIP3    H2 1777   2.682   2.577   0.835
  591TIP3   OH2 1778   2.275   4.602   4.289
  591TIP3    H1 1779   2.285   4.658   4.212
  591TIP3    H2 1780   2.198   4.548   4.270
  592TIP3   OH2 1781   5.978   0.133   1.458
  592TIP3    H1 1782   6.034   0.100   1.388
  592TIP3    H2 1783   5.987   0.228   1.453
  593TIP3   OH2 1784   6.207   1.851   3.996
  593TIP3    H1 1785   6.175   1.797   4.068
  593TIP3    H2 1786   6.193   1.941   4.026
  594TIP3   OH2 1787   0.480   1.552   4.521
  594TIP3    H1 1788   0.573   1.562   4.541
  594TIP3    H2 1789   0.454   1.636   4.486
  595TIP3   OH2 1790   4.944   3.303   3.106
  595TIP3    H1 1791   4.999   3.299   3.028
  595TIP3    H2 1792   4.964   3.222   3.154
  596TIP3   OH2 1793   5.629   5.372   1.859
  596TIP3    H1 1794   5.690   5.298   1.858
  596TIP3    H2 1795   5.562   5.347   1.922
  597TIP3   OH2 1796   3.881   5.445   4.222
  597TIP3    H1 1797   3.818   5.470   4.156
  597TIP3    H2 1798   3.952   5.403   4.173
  598TIP3   OH2 1799   5.710   3.539   2.589
  598TIP3    H1 1800   5.771   3.507   2.655
  598TIP3    H2 1801   5.628   3.551   2.636
  599TIP3   OH2 1802   3.079   5.546   1.837
  599TIP3    H1 1803   3.049   5.494   1.911
  599TIP3    H2 1804   2.999   5.585   1.801
  600TIP3   OH2 1805   3.041   0.487   0.257
  600TIP3    H1 1806   2.963   0.431   0.260
  600TIP3    H2 1807   3.007   0.575   0.239
  601TIP3   OH2 1808   5.430   2.361   0.616
  601TIP3    H1 1809   5.477   2.281   0.592
  601TIP3    H2 1810   5.428   2.412   0.536
  602TIP3   OH2 1811   2.078   4.666   1.878
  602TIP3    H1 1812   2.166   4.630   1.868
  602TIP3    H2 1813   2.034   4.606   1.938
  603TIP3   OH2 1814   3.425   1.777   0.954
  603TIP3    H1 1815   3.412   1.824   0.872
  603TIP3    H2 1816   3.475   1.699   0.929
  604TIP3   OH2 1817   2.754   3.876   3.955
  604TIP3    H1 1818   2.812   3.856   3.882
  604TIP3    H2 1819   2.743   3.793   4.001
  605TIP3   OH2 1820   5.359   1.289   0.696
  605TIP3    H1 1821   5.404   1.358   0.648
  605TIP3    H2 1822   5.330   1.330   0.777
  606TIP3   OH2 1823   0.468   2.119   0.602
  606TIP3    H1 1824   0.467   2.045   0.541
  606TIP3    H2 1825   0.549   2.166   0.581
  607TIP3   OH2 1826   5.342   1.749   3.593
  607TIP3    H1 1827   5.286   1.728   3.668
  607TIP3    H2 1828   5.380   1.834   3.615
  608TIP3   OH2 1829   1.847   2.949   1.160
  608TIP3    H1 1830   1.803   3.032   1.178
  608TIP3    H2 1831   1.892   2.963   1.076
  609TIP3   OH2 1832   0.936   1.023   0.217
  609TIP3    H1 1833   0.990   1.038   0.295
  609TIP3    H2 1834   0.997   1.034   0.144
  610TIP3   OH2 1835   6.165   0.265   2.344
  610TIP3    H1 1836   6.172   0.314   2.262
  610TIP3    H2 1837   6.070   0.256   2.358
  611TIP3   OH2 1838   3.174   5.167   1.267
  611TIP3    H1 1839   3.098   5.180   1.211
  611TIP3    H2 1840   3.246   5.210   1.220
  612TIP3   OH2 1841   3.913   0.566   1.884
  612TIP3    H1 1842   3.866   0.601   1.960
  612TIP3    H2 1843   3.918   0.472   1.900
  613TIP3   OH2 1844   6.034   3.505   0.814
  613TIP3    H1 1845   6.089   3.456   0.752
  613TIP3    H2 1846   5.967   3.443   0.840
  614TIP3   OH2 1847   4.824   5.103   0.936
  614TIP3    H1 1848   4.889   5.075   0.872
  614TIP3    H2 1849   4.849   5.192   0.959
  615TIP3   OH2 1850   1.924   1.882   2.655
  615TIP3    H1 1851   1.905   1.799   2.699
  615TIP3    H2 1852   1.989   1.925   2.711
  616TIP3   OH2 1853   2.435   0.190   2.252
  616TIP3    H1 1854   2.463   0.214   2.341
  616TIP3    H2 1855   2.452   0.096   2.246
  617TIP3   OH2 1856   5.564   0.793   1.108
  617TIP3    H1 1857   5.574   0.732   1.181
  617TIP3    H2 1858   5.590   0.878   1.144
  618TIP3   OH2 1859   2.923   0.924   4.970
  618TIP3    H1 1860   2.998   0.980   4.989
  618TIP3    H2 1861   2.886   0.904   5.055
  619TIP3   OH2 1862   2.475   3.370   0.982
  619TIP3    H1 1863   2.386   3.399   0.998
  619TIP3    H2 1864   2.512   3.434   0.922
  620TIP3   OH2 1865   2.143   1.225   3.911
  620TIP3    H1 1866   2.188   1.264   3.836
  620TIP3    H2 1867   2.212   1.204   3.973
  621TIP3   OH2 1868   5.814   4.419   4.825
  621TIP3    H1 1869   5.813   4.323   4.827
  621TIP3    H2 1870   5.891   4.440   4.771
  622TIP3   OH2 1871   6.120   2.850   0.623
  622TIP3    H1 1872   6.169   2.773   0.592
  622TIP3    H2 1873   6.188   2.907   0.659
  623TIP3   OH2 1874   1.010   4.031   0.419
  623TIP3    H1 1875   1.063   3.964   0.463
  623TIP3    H2 1876   0.996   4.098   0.486
  624TIP3   OH2 1877   3.850   5.248   0.403
  624TIP3    H1 1878   3.778   5.185   0.405
  624TIP3    H2 1879   3.929   5.194   0.408
  625TIP3   OH2 1880   1.207   0.795   5.155
  625TIP3    H1 1881   1.196   0.700   5.149
  625TIP3    H2 1882   1.280   0.814   5.097
  626TIP3   OH2 1883   1.859   3.994   1.212
  626TIP3    H1 1884   1.871   4.055   1.140
  626TIP3    H2 1885   1.815   4.045   1.280
  627TIP3   OH2 1886   1.853   2.463   5.121
  627TIP3    H1 1887   1.887   2.374   5.115
  627TIP3    H2 1888   1.797   2.462   5.199
  628TIP3   OH2 1889   6.207   0.370   0.060
  628TIP3    H1 1890   6.288   0.381   0.109
  628TIP3    H2 1891   6.214   0.433  -0.012
  629TIP3   OH2 1892   1.654   2.714   2.811
  629TIP3    H1 1893   1.635   2.737   2.902
  629TIP3    H2 1894   1.568   2.713   2.768
  630TIP3   OH2 1895   3.012   4.549   1.066
  630TIP3    H1 1896   2.945   4.610   1.037
  630TIP3    H2 1897   3.068   4.536   0.990
  631TIP3   OH2 1898   1.408   4.942   3.898
  631TIP3    H1 1899   1.357   5.022   3.887
  631TIP3    H2 1900   1.480   4.950   3.837
  632TIP3   OH2 1901   0.437   0.253   2.566
  632TIP3    H1 1902   0.514   0.289   2.611
  632TIP3    H2 1903   0.377   0.227   2.636
  633TIP3   OH2 1904   2.137   3.000   3.405
  633TIP3    H1 1905   2.189   3.049   3.341
  633TIP3    H2 1906   2.057   2.978   3.358
  634TIP3   OH2 1907   0.270   0.887   4.337
  634TIP3    H1 1908   0.344   0.890   4.397
  634TIP3    H2 1909   0.204   0.835   4.383
  635TIP3   OH2 1910   4.159   3.402   0.494
  635TIP3    H1 1911   4.161   3.469   0.563
  635TIP3    H2 1912   4.105   3.332   0.531
  636TIP3   OH2 1913   3.723   3.259   4.021
  636TIP3    H1 1914   3.771   3.337   4.050
  636TIP3    H2 1915   3.781   3.186   4.042
  637TIP3   OH2 1916   4.667   1.122   2.439
  637TIP3    H1 1917   4.579   1.101   2.470
  637TIP3    H2 1918   4.722   1.114   2.518
  638TIP3   OH2 1919   0.260   4.448   1.562
  638TIP3    H1 1920   0.342   4.479   1.523
  638TIP3    H2 1921   0.262   4.481   1.652
  639TIP3   OH2 1922   3.720   2.914   3.861
  639TIP3    H1 1923   3.733   2.979   3.793
  639TIP3    H2 1924   3.748   2.831   3.821
  640TIP3   OH2 1925   2.322   3.254   4.966
  640TIP3    H1 1926   2.413   3.223   4.967
  640TIP3    H2 1927   2.330   3.349   4.974
  641TIP3   OH2 1928   4.759   3.385   2.703
  641TIP3    H1 1929   4.826   3.453   2.703
  641TIP3    H2 1930   4.697   3.412   2.772
  642TIP3   OH2 1931   2.493   5.219   1.448
  642TIP3    H1 1932   2.495   5.248   1.357
  642TIP3    H2 1933   2.584   5.227   1.478
  643TIP3   OH2 1934   1.761   5.173   1.323
  643TIP3    H1 1935   1.854   5.169   1.303
  643TIP3    H2 1936   1.754   5.239   1.392
  644TIP3   OH2 1937   3.733   5.115   3.885
  644TIP3    H1 1938   3.771   5.045   3.833
  644TIP3    H2 1939   3.807   5.153   3.932
  645TIP3   OH2 1940   3.612   1.397   2.065
  645TIP3    H1 1941   3.554   1.378   2.139
  645TIP3    H2 1942   3.553   1.418   1.993
  646TIP3   OH2 1943   5.264   3.699   2.514
  646TIP3    H1 1944   5.344   3.708   2.462
  646TIP3    H2 1945   5.220   3.784   2.505
  647TIP3   OH2 1946   5.074   4.144   0.778
  647TIP3    H1 1947   5.156   4.110   0.813
  647TIP3    H2 1948   5.024   4.172   0.855
  648TIP3   OH2 1949   0.118   3.712   5.120
  648TIP3    H1 1950   0.160   3.713   5.206
  648TIP3    H2 1951   0.082   3.801   5.111
  649TIP3   OH2 1952   1.209   0.888   3.420
  649TIP3    H1 1953   1.253   0.971   3.404
  649TIP3    H2 1954   1.118   0.911   3.436
  650TIP3   OH2 1955   4.775   2.954   2.443
  650TIP3    H1 1956   4.819   2.970   2.526
  650TIP3    H2 1957   4.725   3.033   2.426
  651TIP3   OH2 1958   5.581   5.809   5.044
  651TIP3    H1 1959   5.650   5.762   5.090
  651TIP3    H2 1960   5.501   5.759   5.063
  652TIP3   OH2 1961   0.306   3.774   3.149
  652TIP3    H1 1962   0.221   3.741   3.121
  652TIP3    H2 1963   0.355   3.786   3.067
  653TIP3   OH2 1964   0.266   4.351   1.030
  653TIP3    H1 1965   0.311   4.268   1.046
  653TIP3    H2 1966   0.277   4.400   1.112
  654TIP3   OH2 1967   0.541   4.407   3.694
  654TIP3    H1 1968   0.448   4.419   3.676
  654TIP3    H2 1969   0.543   4.361   3.778
  655TIP3   OH2 1970   2.937   1.363   2.262
  655TIP3    H1 1971   2.853   1.407   2.276
  655TIP3    H2 1972   3.000   1.415   2.312
  656TIP3   OH2 1973   3.959   5.010   2.544
  656TIP3    H1 1974   3.981   5.037   2.455
  656TIP3    H2 1975   3.942   4.916   2.537
  657TIP3   OH2 1976   2.022   5.929   0.464
  657TIP3    H1 1977   2.017   5.980   0.545
  657TIP3    H2 1978   2.112   5.943   0.433
  658TIP3   OH2 1979   4.130   3.319   2.841
  658TIP3    H1 1980   4.170   3.280   2.763
  658TIP3    H2 1981   4.038   3.293   2.836
  659TIP3   OH2 1982   0.820   0.991   0.810
  659TIP3    H1 1983   0.827   0.913   0.756
  659TIP3    H2 1984   0.899   0.990   0.864
  660TIP3   OH2 1985   2.049   0.450   0.369
  660TIP3    H1 1986   2.137   0.485   0.387
  660TIP3    H2 1987   2.011   0.511   0.307
  661TIP3   OH2 1988   2.317   4.495   2.382
  661TIP3    H1 1989   2.298   4.414   2.429
  661TIP3    H2 1990   2.404   4.522   2.414
  662TIP3   OH2 1991   5.659   1.483   2.388
  662TIP3    H1 1992   5.694   1.429   2.459
  662TIP3    H2 1993   5.701   1.448   2.309
  663TIP3   OH2 1994   4.360   0.076   4.713
  663TIP3    H1 1995   4.320   0.021   4.645
  663TIP3    H2 1996   4.443   0.032   4.733
  664TIP3   OH2 1997   3.725   0.746   3.801
  664TIP3    H1 1998   3.679   0.662   3.804
  664TIP3    H2 1999   3.740   0.763   3.708
  665TIP3   OH2 2000   4.362   1.491   1.403
  665TIP3    H1 2001   4.322   1.574   1.428
  665TIP3    H2 2002   4.313   1.425   1.453
  666TIP3   OH2 2003   6.081   4.078   1.233
  666TIP3    H1 2004   6.081   4.170   1.259
  666TIP3    H2 2005   6.033   4.034   1.303
  667TIP3   OH2 2006   2.321   4.513   5.079
  667TIP3    H1 2007   2.315   4.419   5.062
  667TIP3    H2 2008   2.395   4.522   5.139
  668TIP3   OH2 2009   1.198   2.946   2.553
  668TIP3    H1 2010   1.126   2.985   2.602
  668TIP3    H2 2011   1.245   3.021   2.516
  669TIP3   OH2 2012   1.019   1.746   2.197
  669TIP3    H1 2013   0.973   1.715   2.274
  669TIP3    H2 2014   0.982   1.697   2.124
  670TIP3   OH2 2015   3.029   2.049   4.037
  670TIP3    H1 2016   3.047   2.138   4.007
  670TIP3    H2 2017   3.042   2.052   4.132
  671TIP3   OH2 2018   2.194   5.491   0.869
  671TIP3    H1 2019   2.203   5.398   0.848
  671TIP3    H2 2020   2.121   5.520   0.815
  672TIP3   OH2 2021   0.981   4.509   4.151
  672TIP3    H1 2022   0.949   4.599   4.152
  672TIP3    H2 2023   0.946   4.472   4.070
  673TIP3   OH2 2024   4.225   5.153   4.403
  673TIP3    H1 2025   4.213   5.196   4.487
  673TIP3    H2 2026   4.304   5.192   4.366
  674TIP3   OH2 2027   6.253   2.090   2.193
  674TIP3    H1 2028   6.185   2.054   2.250
  674TIP3    H2 2029   6.256   2.030   2.118
  675TIP3   OH2 2030   5.889   3.600   1.302
  675TIP3    H1 2031   5.949   3.631   1.234
  675TIP3    H2 2032   5.808   3.649   1.285
  676TIP3   OH2 2033   2.235   3.314   0.679
  676TIP3    H1 2034   2.213   3.283   0.766
  676TIP3    H2 2035   2.253   3.408   0.691
  677TIP3   OH2 2036   0.740   3.038   1.199
  677TIP3    H1 2037   0.673   2.994   1.251
  677TIP3    H2 2038   0.783   3.098   1.260
  678TIP3   OH2 2039   5.838   1.338   4.802
  678TIP3    H1 2040   5.817   1.339   4.895
  678TIP3    H2 2041   5.898   1.264   4.792
  679TIP3   OH2 2042   0.003   3.067   1.276
  679TIP3    H1 2043  -0.032   3.147   1.317
  679TIP3    H2 2044  -0.013   2.999   1.342
  680TIP3   OH2 2045   0.839   1.156   0.581
  680TIP3    H1 2046   0.766   1.217   0.590
  680TIP3    H2 2047   0.814   1.080   0.635
  681TIP3   OH2 2048   5.816   1.353   4.259
  681TIP3    H1 2049   5.819   1.323   4.350
  681TIP3    H2 2050   5.908   1.370   4.236
  682TIP3   OH2 2051   4.353   4.688   3.793
  682TIP3    H1 2052   4.284   4.737   3.838
  682TIP3    H2 2053   4.338   4.707   3.700
  683TIP3   OH2 2054   4.294   4.222   2.367
  683TIP3    H1 2055   4.314   4.293   2.428
  683TIP3    H2 2056   4.199   4.226   2.355
  684TIP3   OH2 2057   4.347   4.359   2.573
  684TIP3    H1 2058   4.351   4.452   2.593
  684TIP3    H2 2059   4.426   4.322   2.612
  685TIP3   OH2 2060   4.156   1.429   3.325
  685TIP3    H1 2061   4.243   1.403   3.294
  685TIP3    H2 2062   4.171   1.458   3.415
  686TIP3   OH2 2063   1.032   4.491   0.608
  686TIP3    H1 2064   1.017   4.577   0.648
  686TIP3    H2 2065   1.111   4.502   0.556
  687TIP3   OH2 2066   0.536   4.959   1.120
  687TIP3    H1 2067   0.499   4.988   1.203
  687TIP3    H2 2068   0.512   5.027   1.058
  688TIP3   OH2 2069   5.936   4.445   4.555
  688TIP3    H1 2070   5.913   4.387   4.483
  688TIP3    H2 2071   6.031   4.458   4.546
  689TIP3   OH2 2072   6.069   1.299   1.033
  689TIP3    H1 2073   6.096   1.218   0.991
  689TIP3    H2 2074   5.999   1.333   0.978
  690TIP3   OH2 2075   0.055   3.025   3.631
  690TIP3    H1 2076  -0.025   2.973   3.640
  690TIP3    H2 2077   0.063   3.073   3.713
  691TIP3   OH2 2078   3.921   2.452   3.054
  691TIP3    H1 2079   3.941   2.538   3.091
  691TIP3    H2 2080   3.988   2.439   2.987
  692TIP3   OH2 2081   5.440   4.607   5.171
  692TIP3    H1 2082   5.501   4.564   5.111
  692TIP3    H2 2083   5.488   4.614   5.253
  693TIP3   OH2 2084   4.313   1.861   1.275
  693TIP3    H1 2085   4.408   1.862   1.288
  693TIP3    H2 2086   4.297   1.789   1.214
  694TIP3   OH2 2087   4.180   3.938   3.977
  694TIP3    H1 2088   4.207   3.860   4.026
  694TIP3    H2 2089   4.261   3.988   3.967
  695TIP3   OH2 2090   3.969   2.702   3.142
  695TIP3    H1 2091   4.003   2.721   3.230
  695TIP3    H2 2092   4.038   2.732   3.083
  696TIP3   OH2 2093   5.471   1.822   2.726
  696TIP3    H1 2094   5.419   1.876   2.667
  696TIP3    H2 2095   5.531   1.775   2.669
  697TIP3   OH2 2096   2.060   4.577   5.141
  697TIP3    H1 2097   2.152   4.555   5.128
  697TIP3    H2 2098   2.051   4.665   5.103
  698TIP3   OH2 2099   4.747   5.391   2.789
  698TIP3    H1 2100   4.673   5.430   2.743
  698TIP3    H2 2101   4.711   5.356   2.870
  699TIP3   OH2 2102   0.126   4.664   4.155
  699TIP3    H1 2103   0.068   4.697   4.224
  699TIP3    H2 2104   0.200   4.626   4.202
  700TIP3   OH2 2105   2.676   2.521   4.976
  700TIP3    H1 2106   2.681   2.438   4.929
  700TIP3    H2 2107   2.637   2.499   5.060
  701TIP3   OH2 2108   2.134   1.567   1.788
  701TIP3    H1 2109   2.184   1.537   1.863
  701TIP3    H2 2110   2.048   1.591   1.825
  702TIP3   OH2 2111   3.531   5.812   2.293
  702TIP3    H1 2112   3.608   5.760   2.267
  702TIP3    H2 2113   3.546   5.832   2.386
  703TIP3   OH2 2114   3.821   1.727   3.035
  703TIP3    H1 2115   3.869   1.647   3.056
  703TIP3    H2 2116   3.773   1.748   3.115
  704TIP3   OH2 2117   0.376   0.225   1.368
  704TIP3    H1 2118   0.446   0.256   1.426
  704TIP3    H2 2119   0.299   0.217   1.425
  705TIP3   OH2 2120   0.995   0.170   0.686
  705TIP3    H1 2121   1.062   0.214   0.634
  705TIP3    H2 2122   0.962   0.237   0.745
  706TIP3   OH2 2123   1.781   3.225   1.289
  706TIP3    H1 2124   1.760   3.299   1.232
  706TIP3    H2 2125   1.697   3.188   1.313
  707TIP3   OH2 2126   4.004   0.793   0.995
  707TIP3    H1 2127   3.946   0.835   1.058
  707TIP3    H2 2128   4.064   0.741   1.049
  708TIP3   OH2 2129   1.672   2.265   3.169
  708TIP3    H1 2130   1.761   2.294   3.192
  708TIP3    H2 2131   1.639   2.224   3.249
  709TIP3   OH2 2132   4.792   0.569   4.409
  709TIP3    H1 2133   4.755   0.612   4.332
  709TIP3    H2 2134   4.833   0.639   4.458
  710TIP3   OH2 2135   4.143   1.284   3.893
  710TIP3    H1 2136   4.200   1.359   3.874
  710TIP3    H2 2137   4.130   1.242   3.808
  711TIP3   OH2 2138   5.532   0.500   0.234
  711TIP3    H1 2139   5.446   0.526   0.202
  711TIP3    H2 2140   5.591   0.517   0.161
  712TIP3   OH2 2141   5.633   5.905   0.536
  712TIP3    H1 2142   5.544   5.892   0.570
  712TIP3    H2 2143   5.689   5.859   0.598
  713TIP3   OH2 2144   5.656   4.220   4.516
  713TIP3    H1 2145   5.678   4.137   4.475
  713TIP3    H2 2146   5.656   4.201   4.610
  714TIP3   OH2 2147   6.101   3.574   4.038
  714TIP3    H1 2148   6.098   3.490   3.993
  714TIP3    H2 2149   6.162   3.627   3.987
  715TIP3   OH2 2150   5.901   1.130   3.417
  715TIP3    H1 2151   5.848   1.063   3.459
  715TIP3    H2 2152   5.844   1.167   3.350
  716TIP3   OH2 2153   2.745   4.933   4.234
  716TIP3    H1 2154   2.653   4.912   4.250
  716TIP3    H2 2155   2.794   4.877   4.295
  717TIP3   OH2 2156   2.847   4.589   0.638
  717TIP3    H1 2157   2.897   4.567   0.560
  717TIP3    H2 2158   2.887   4.670   0.670
  718TIP3   OH2 2159   0.446   5.480   4.242
  718TIP3    H1 2160   0.442   5.528   4.159
  718TIP3    H2 2161   0.398   5.399   4.225
  719TIP3   OH2 2162   4.452   2.663   3.278
  719TIP3    H1 2163   4.540   2.625   3.275
  719TIP3    H2 2164   4.428   2.675   3.186
  720TIP3   OH2 2165   6.248   4.535   2.324
  720TIP3    H1 2166   6.304   4.486   2.264
  720TIP3    H2 2167   6.309   4.575   2.386
  721TIP3   OH2 2168   5.579   2.427   2.802
  721TIP3    H1 2169   5.514   2.444   2.734
  721TIP3    H2 2170   5.546   2.350   2.848
  722TIP3   OH2 2171   1.583   5.036   2.431
  722TIP3    H1 2172   1.612   5.124   2.406
  722TIP3    H2 2173   1.652   5.003   2.488
  723TIP3   OH2 2174   4.061   3.013   1.786
  723TIP3    H1 2175   4.098   3.016   1.698
  723TIP3    H2 2176   4.129   3.051   1.842
  724TIP3   OH2 2177   1.563   5.090   0.406
  724TIP3    H1 2178   1.577   5.001   0.376
  724TIP3    H2 2179   1.546   5.082   0.500
  725TIP3   OH2 2180   2.359   4.341   0.070
  725TIP3    H1 2181   2.295   4.352  -0.001
  725TIP3    H2 2182   2.357   4.247   0.089
  726TIP3   OH2 2183   6.321   4.686   4.781
  726TIP3    H1 2184   6.376   4.611   4.756
  726TIP3    H2 2185   6.354   4.713   4.867
  727TIP3   OH2 2186   3.256   2.054   4.914
  727TIP3    H1 2187   3.302   2.133   4.941
  727TIP3    H2 2188   3.322   1.985   4.919
  728TIP3   OH2 2189   3.480   5.837   3.023
  728TIP3    H1 2190   3.539   5.793   3.084
  728TIP3    H2 2191   3.446   5.768   2.967
  729TIP3   OH2 2192   3.388   3.686   4.300
  729TIP3    H1 2193   3.329   3.610   4.298
  729TIP3    H2 2194   3.414   3.698   4.208
  730TIP3   OH2 2195   5.448   5.699   3.962
  730TIP3    H1 2196   5.452   5.605   3.979
  730TIP3    H2 2197   5.536   5.731   3.980
  731TIP3   OH2 2198   5.669   1.382   3.692
  731TIP3    H1 2199   5.754   1.370   3.735
  731TIP3    H2 2200   5.605   1.353   3.756
  732TIP3   OH2 2201   1.408   1.687   4.777
  732TIP3    H1 2202   1.439   1.647   4.695
  732TIP3    H2 2203   1.314   1.671   4.777
  733TIP3   OH2 2204   0.659   3.639   3.140
  733TIP3    H1 2205   0.591   3.578   3.168
  733TIP3    H2 2206   0.731   3.623   3.200
  734TIP3   OH2 2207   5.689   5.791   4.319
  734TIP3    H1 2208   5.634   5.841   4.379
  734TIP3    H2 2209   5.704   5.851   4.246
  735TIP3   OH2 2210   6.316   1.493   3.780
  735TIP3    H1 2211   6.293   1.404   3.803
  735TIP3    H2 2212   6.384   1.483   3.713
  736TIP3   OH2 2213   5.113   0.084   3.678
  736TIP3    H1 2214   5.154   0.168   3.699
  736TIP3    H2 2215   5.121   0.032   3.758
  737TIP3   OH2 2216   3.757   2.372   3.965
  737TIP3    H1 2217   3.741   2.409   3.878
  737TIP3    H2 2218   3.747   2.446   4.025
  738TIP3   OH2 2219   4.404   0.924   3.160
  738TIP3    H1 2220   4.470   0.993   3.154
  738TIP3    H2 2221   4.414   0.890   3.249
  739TIP3   OH2 2222   0.519   1.422   2.874
  739TIP3    H1 2223   0.595   1.434   2.931
  739TIP3    H2 2224   0.529   1.333   2.839
  740TIP3   OH2 2225   3.081   4.821   0.042
  740TIP3    H1 2226   3.134   4.743   0.024
  740TIP3    H2 2227   3.006   4.813  -0.016
  741TIP3   OH2 2228   2.661   1.816   0.770
  741TIP3    H1 2229   2.688   1.880   0.704
  741TIP3    H2 2230   2.664   1.732   0.724
  742TIP3   OH2 2231   2.930   4.036   2.532
  742TIP3    H1 2232   2.930   4.108   2.469
  742TIP3    H2 2233   2.884   3.965   2.488
  743TIP3   OH2 2234   0.364   1.994   2.525
  743TIP3    H1 2235   0.377   2.001   2.430
  743TIP3    H2 2236   0.275   1.959   2.535
  744TIP3   OH2 2237   0.378   2.165   4.093
  744TIP3    H1 2238   0.373   2.134   4.183
  744TIP3    H2 2239   0.329   2.099   4.043
  745TIP3   OH2 2240   5.953   4.653   0.075
  745TIP3    H1 2241   5.933   4.578   0.018
  745TIP3    H2 2242   6.020   4.702   0.028
  746TIP3   OH2 2243   4.416   3.980   1.607
  746TIP3    H1 2244   4.497   4.014   1.570
  746TIP3    H2 2245   4.373   4.057   1.645
  747TIP3   OH2 2246   3.379   5.033   1.421
  747TIP3    H1 2247   3.339   5.108   1.379
  747TIP3    H2 2248   3.305   4.976   1.444
  748TIP3   OH2 2249   6.110   4.967   0.295
  748TIP3    H1 2250   6.115   4.906   0.368
  748TIP3    H2 2251   6.115   5.054   0.335
  749TIP3   OH2 2252   2.867   1.189   0.493
  749TIP3    H1 2253   2.935   1.197   0.559
  749TIP3    H2 2254   2.786   1.209   0.539
  750TIP3   OH2 2255   5.835   1.768   2.448
  750TIP3    H1 2256   5.796   1.828   2.385
  750TIP3    H2 2257   5.903   1.723   2.399
  751TIP3   OH2 2258   1.392   3.927   0.435
  751TIP3    H1 2259   1.363   3.954   0.348
  751TIP3    H2 2260   1.469   3.982   0.452
  752TIP3   OH2 2261   4.689   4.166   4.492
  752TIP3    H1 2262   4.649   4.138   4.410
  752TIP3    H2 2263   4.733   4.249   4.470
  753TIP3   OH2 2264   3.947   3.666   1.832
  753TIP3    H1 2265   4.034   3.629   1.817
  753TIP3    H2 2266   3.929   3.718   1.754
  754TIP3   OH2 2267   3.323   2.341   4.368
  754TIP3    H1 2268   3.322   2.333   4.273
  754TIP3    H2 2269   3.416   2.350   4.391
  755TIP3   OH2 2270   0.145   0.254   1.502
  755TIP3    H1 2271   0.067   0.302   1.472
  755TIP3    H2 2272   0.156   0.280   1.593
  756TIP3   OH2 2273   3.786   0.392   2.293
  756TIP3    H1 2274   3.749   0.475   2.323
  756TIP3    H2 2275   3.801   0.405   2.199
  757TIP3   OH2 2276   1.225   2.041   3.984
  757TIP3    H1 2277   1.160   1.971   3.980
  757TIP3    H2 2278   1.251   2.056   3.893
  758TIP3   OH2 2279   3.076   2.377   0.895
  758TIP3    H1 2280   2.998   2.324   0.876
  758TIP3    H2 2281   3.147   2.312   0.904
  759TIP3   OH2 2282   0.897   3.666   4.566
  759TIP3    H1 2283   0.959   3.730   4.603
  759TIP3    H2 2284   0.816   3.682   4.613
  760TIP3   OH2 2285   1.393   0.279   2.792
  760TIP3    H1 2286   1.403   0.371   2.820
  760TIP3    H2 2287   1.315   0.249   2.839
  761TIP3   OH2 2288   2.510   1.203   3.185
  761TIP3    H1 2289   2.458   1.154   3.122
  761TIP3    H2 2290   2.601   1.192   3.155
  762TIP3   OH2 2291   5.263   2.411   2.015
  762TIP3    H1 2292   5.340   2.385   2.066
  762TIP3    H2 2293   5.298   2.436   1.930
  763TIP3   OH2 2294   2.590   1.945   0.427
  763TIP3    H1 2295   2.584   2.040   0.415
  763TIP3    H2 2296   2.516   1.924   0.484
  764TIP3   OH2 2297   1.407   1.352   3.002
  764TIP3    H1 2298   1.422   1.258   2.995
  764TIP3    H2 2299   1.435   1.387   2.917
  765TIP3   OH2 2300   5.695   0.855   4.534
  765TIP3    H1 2301   5.628   0.801   4.492
  765TIP3    H2 2302   5.721   0.917   4.466
  766TIP3   OH2 2303   5.113   5.382   1.974
  766TIP3    H1 2304   5.180   5.420   2.032
  766TIP3    H2 2305   5.162   5.353   1.897
  767TIP3   OH2 2306   5.489   1.776   1.460
  767TIP3    H1 2307   5.497   1.681   1.468
  767TIP3    H2 2308   5.397   1.791   1.438
  768TIP3   OH2 2309   3.707   5.440   2.986
  768TIP3    H1 2310   3.674   5.427   2.898
  768TIP3    H2 2311   3.747   5.356   3.010
  769TIP3   OH2 2312   3.215   4.282   2.787
  769TIP3    H1 2313   3.283   4.280   2.855
  769TIP3    H2 2314   3.165   4.202   2.801
  770TIP3   OH2 2315   4.417   1.034   1.743
  770TIP3    H1 2316   4.410   1.069   1.654
  770TIP3    H2 2317   4.462   0.949   1.732
  771TIP3   OH2 2318   0.482   0.034   3.670
  771TIP3    H1 2319   0.486   0.127   3.692
  771TIP3    H2 2320   0.549   0.022   3.603
  772TIP3   OH2 2321   2.259   2.717   1.115
  772TIP3    H1 2322   2.295   2.653   1.177
  772TIP3    H2 2323   2.167   2.693   1.106
  773TIP3   OH2 2324   4.822   3.953   1.694
  773TIP3    H1 2325   4.756   4.022   1.684
  773TIP3    H2 2326   4.792   3.901   1.769
  774TIP3   OH2 2327   0.654   1.323   4.035
  774TIP3    H1 2328   0.598   1.373   4.096
  774TIP3    H2 2329   0.620   1.346   3.948
  775TIP3   OH2 2330   3.261   5.758   1.861
  775TIP3    H1 2331   3.187   5.806   1.824
  775TIP3    H2 2332   3.222   5.684   1.907
  776TIP3   OH2 2333   1.334   0.489   1.469
  776TIP3    H1 2334   1.257   0.434   1.455
  776TIP3    H2 2335   1.390   0.472   1.393
  777TIP3   OH2 2336   1.694   4.814   4.832
  777TIP3    H1 2337   1.787   4.821   4.809
  777TIP3    H2 2338   1.691   4.830   4.926
  778TIP3   OH2 2339   2.554   0.007   0.417
  778TIP3    H1 2340   2.560   0.099   0.394
  778TIP3    H2 2341   2.633  -0.010   0.469
  779TIP3   OH2 2342   5.484   3.610   2.715
  779TIP3    H1 2343   5.424   3.549   2.672
  779TIP3    H2 2344   5.464   3.602   2.809
  780TIP3   OH2 2345   3.818   5.946   0.075
  780TIP3    H1 2346   3.890   5.942   0.012
  780TIP3    H2 2347   3.754   5.882   0.043
  781TIP3   OH2 2348   0.048   5.568   1.367
  781TIP3    H1 2349   0.076   5.560   1.459
  781TIP3    H2 2350  -0.025   5.506   1.359
  782TIP3   OH2 2351   5.770   3.328   1.746
  782TIP3    H1 2352   5.791   3.242   1.709
  782TIP3    H2 2353   5.820   3.331   1.828
  783TIP3   OH2 2354   2.335   3.241   3.647
  783TIP3    H1 2355   2.276   3.232   3.572
  783TIP3    H2 2356   2.322   3.162   3.698
  784TIP3   OH2 2357   3.580   3.020   3.597
  784TIP3    H1 2358   3.503   2.972   3.570
  784TIP3    H2 2359   3.549   3.079   3.666
  785TIP3   OH2 2360   6.234   0.551   3.613
  785TIP3    H1 2361   6.297   0.576   3.545
  785TIP3    H2 2362   6.204   0.635   3.649
  786TIP3   OH2 2363   5.290   4.504   3.648
  786TIP3    H1 2364   5.373   4.547   3.627
  786TIP3    H2 2365   5.236   4.574   3.685
  787TIP3   OH2 2366   5.681   0.756   4.114
  787TIP3    H1 2367   5.658   0.841   4.077
  787TIP3    H2 2368   5.731   0.713   4.045
  788TIP3   OH2 2369   5.861   0.974   2.589
  788TIP3    H1 2370   5.862   0.947   2.681
  788TIP3    H2 2371   5.946   1.018   2.577
  789TIP3   OH2 2372   6.062   0.540   5.125
  789TIP3    H1 2373   6.142   0.518   5.174
  789TIP3    H2 2374   6.017   0.604   5.181
  790TIP3   OH2 2375   0.318   2.781   4.470
  790TIP3    H1 2376   0.293   2.694   4.500
  790TIP3    H2 2377   0.403   2.798   4.512
  791TIP3   OH2 2378   5.830   2.127   4.359
  791TIP3    H1 2379   5.810   2.194   4.294
  791TIP3    H2 2380   5.751   2.121   4.413
  792TIP3   OH2 2381   1.248   4.501   1.724
  792TIP3    H1 2382   1.212   4.563   1.788
  792TIP3    H2 2383   1.176   4.442   1.705
  793TIP3   OH2 2384   3.097   2.182   3.573
  793TIP3    H1 2385   3.130   2.166   3.485
  793TIP3    H2 2386   3.003   2.160   3.569
  794TIP3   OH2 2387   5.283   2.547   1.751
  794TIP3    H1 2388   5.326   2.492   1.685
  794TIP3    H2 2389   5.288   2.635   1.715
  795TIP3   OH2 2390   5.425   4.951   2.413
  795TIP3    H1 2391   5.463   4.987   2.493
  795TIP3    H2 2392   5.384   4.869   2.440
  796TIP3   OH2 2393   0.563   5.452   3.863
  796TIP3    H1 2394   0.493   5.503   3.903
  796TIP3    H2 2395   0.551   5.465   3.769
  797TIP3   OH2 2396   0.493   1.655   1.689
  797TIP3    H1 2397   0.555   1.635   1.760
  797TIP3    H2 2398   0.547   1.696   1.622
  798TIP3   OH2 2399   1.709   0.572   4.694
  798TIP3    H1 2400   1.650   0.556   4.767
  798TIP3    H2 2401   1.760   0.491   4.686
  799TIP3   OH2 2402   5.575   4.164   1.835
  799TIP3    H1 2403   5.597   4.224   1.764
  799TIP3    H2 2404   5.659   4.138   1.872
  800TIP3   OH2 2405   0.657   3.963   0.077
  800TIP3    H1 2406   0.575   3.942   0.031
  800TIP3    H2 2407   0.630   3.977   0.168
  801TIP3   OH2 2408   1.349   1.041   4.047
  801TIP3    H1 2409   1.410   0.980   4.087
  801TIP3    H2 2410   1.328   1.104   4.116
  802TIP3   OH2 2411   0.210   4.981   1.737
  802TIP3    H1 2412   0.274   5.052   1.733
  802TIP3    H2 2413   0.244   4.923   1.805
  803TIP3   OH2 2414   2.992   1.975   3.776
  803TIP3    H1 2415   3.082   1.984   3.743
  803TIP3    H2 2416   3.000   1.995   3.870
  804TIP3   OH2 2417   0.641   3.908   2.734
  804TIP3    H1 2418   0.588   3.925   2.813
  804TIP3    H2 2419   0.593   3.839   2.688
  805TIP3   OH2 2420   6.116   1.184   4.639
  805TIP3    H1 2421   6.134   1.125   4.712
  805TIP3    H2 2422   6.126   1.130   4.561
  806TIP3   OH2 2423   3.911   5.174   1.272
  806TIP3    H1 2424   3.969   5.107   1.235
  806TIP3    H2 2425   3.892   5.143   1.360
  807TIP3   OH2 2426   5.719   0.441   3.598
  807TIP3    H1 2427   5.721   0.372   3.664
  807TIP3    H2 2428   5.758   0.401   3.520
  808TIP3   OH2 2429   3.648   5.219   1.258
  808TIP3    H1 2430   3.646   5.209   1.353
  808TIP3    H2 2431   3.740   5.207   1.235
  809TIP3   OH2 2432   4.649   5.350   3.979
  809TIP3    H1 2433   4.681   5.424   3.928
  809TIP3    H2 2434   4.623   5.285   3.913
  810TIP3   OH2 2435   5.589   1.696   0.492
  810TIP3    H1 2436   5.538   1.681   0.572
  810TIP3    H2 2437   5.622   1.610   0.468
  811TIP3   OH2 2438   0.171   1.255   3.987
  811TIP3    H1 2439   0.101   1.242   3.922
  811TIP3    H2 2440   0.251   1.261   3.935
  812TIP3   OH2 2441   2.483   5.794   4.910
  812TIP3    H1 2442   2.455   5.783   4.819
  812TIP3    H2 2443   2.537   5.873   4.910
  813TIP3   OH2 2444   4.176   0.753   3.165
  813TIP3    H1 2445   4.257   0.803   3.156
  813TIP3    H2 2446   4.164   0.743   3.260
  814TIP3   OH2 2447   4.197   4.218   3.102
  814TIP3    H1 2448   4.138   4.284   3.137
  814TIP3    H2 2449   4.160   4.135   3.131
  815TIP3   OH2 2450   0.309   4.037   3.964
  815TIP3    H1 2451   0.330   3.945   3.950
  815TIP3    H2 2452   0.300   4.045   4.059
  816TIP3   OH2 2453   2.561   2.602   3.309
  816TIP3    H1 2454   2.555   2.640   3.396
  816TIP3    H2 2455   2.546   2.675   3.249
  817TIP3   OH2 2456   0.707   1.629   0.876
  817TIP3    H1 2457   0.735   1.614   0.966
  817TIP3    H2 2458   0.704   1.542   0.836
  818TIP3   OH2 2459   5.462   4.733   3.306
  818TIP3    H1 2460   5.381   4.751   3.354
  818TIP3    H2 2461   5.458   4.640   3.287
  819TIP3   OH2 2462   3.859   0.250   1.622
  819TIP3    H1 2463   3.803   0.199   1.562
  819TIP3    H2 2464   3.847   0.208   1.707
  820TIP3   OH2 2465   4.940   3.653   2.714
  820TIP3    H1 2466   4.965   3.613   2.630
  820TIP3    H2 2467   4.955   3.746   2.701
  821TIP3   OH2 2468   6.125   5.136   4.465
  821TIP3    H1 2469   6.132   5.167   4.375
  821TIP3    H2 2470   6.056   5.070   4.463
  822TIP3   OH2 2471   0.164   0.853   1.590
  822TIP3    H1 2472   0.161   0.770   1.638
  822TIP3    H2 2473   0.255   0.860   1.561
  823TIP3   OH2 2474   1.019   1.431   3.187
  823TIP3    H1 2475   1.030   1.409   3.094
  823TIP3    H2 2476   0.984   1.520   3.187
  824TIP3   OH2 2477   3.141   5.179   3.978
  824TIP3    H1 2478   3.180   5.227   4.050
  824TIP3    H2 2479   3.119   5.093   4.015
  825TIP3   OH2 2480   3.662   2.842   4.110
  825TIP3    H1 2481   3.671   2.862   4.016
  825TIP3    H2 2482   3.738   2.882   4.151
  826TIP3   OH2 2483   1.084   3.391   3.462
  826TIP3    H1 2484   1.082   3.351   3.375
  826TIP3    H2 2485   1.050   3.324   3.520
  827TIP3   OH2 2486   0.006   5.657   1.067
  827TIP3    H1 2487   0.090   5.681   1.029
  827TIP3    H2 2488   0.023   5.573   1.111
  828TIP3   OH2 2489   4.112   3.829   1.188
  828TIP3    H1 2490   4.097   3.739   1.215
  828TIP3    H2 2491   4.197   3.852   1.226
  829TIP3   OH2 2492   2.720   4.534   4.607
  829TIP3    H1 2493   2.674   4.460   4.646
  829TIP3    H2 2494   2.672   4.611   4.638
  830TIP3   OH2 2495   5.382   3.923   1.865
  830TIP3    H1 2496   5.476   3.940   1.865
  830TIP3    H2 2497   5.350   3.969   1.943
  831TIP3   OH2 2498   4.441   5.575   3.947
  831TIP3    H1 2499   4.477   5.639   3.886
  831TIP3    H2 2500   4.420   5.499   3.893
  832TIP3   OH2 2501   4.911   5.874   3.539
  832TIP3    H1 2502   5.002   5.899   3.526
  832TIP3    H2 2503   4.870   5.887   3.453
  833TIP3   OH2 2504   4.483   1.613   2.616
  833TIP3    H1 2505   4.514   1.684   2.673
  833TIP3    H2 2506   4.413   1.653   2.565
  834TIP3   OH2 2507   5.994   2.939   1.448
  834TIP3    H1 2508   5.990   2.982   1.362
  834TIP3    H2 2509   6.017   3.010   1.508
  835TIP3   OH2 2510   5.344   2.244   2.489
  835TIP3    H1 2511   5.428   2.255   2.533
  835TIP3    H2 2512   5.357   2.282   2.402
  836TIP3   OH2 2513   1.361   1.278   1.338
  836TIP3    H1 2514   1.341   1.205   1.279
  836TIP3    H2 2515   1.438   1.319   1.299
  837TIP3   OH2 2516   2.332   3.491   3.770
  837TIP3    H1 2517   2.344   3.408   3.723
  837TIP3    H2 2518   2.258   3.533   3.727
  838TIP3   OH2 2519   3.220   1.210   3.071
  838TIP3    H1 2520   3.214   1.114   3.075
  838TIP3    H2 2521   3.300   1.231   3.118
  839TIP3   OH2 2522   2.946   1.264   2.957
  839TIP3    H1 2523   2.996   1.230   3.032
  839TIP3    H2 2524   2.869   1.304   2.997
  840TIP3   OH2 2525   5.600   4.088   0.281
  840TIP3    H1 2526   5.689   4.054   0.270
  840TIP3    H2 2527   5.556   4.070   0.198
  841TIP3   OH2 2528   4.086   0.315   4.160
  841TIP3    H1 2529   3.994   0.295   4.179
  841TIP3    H2 2530   4.135   0.247   4.205
  842TIP3   OH2 2531   4.524   0.110   2.942
  842TIP3    H1 2532   4.457   0.177   2.928
  842TIP3    H2 2533   4.494   0.035   2.890
  843TIP3   OH2 2534   3.163   5.213   0.326
  843TIP3    H1 2535   3.232   5.204   0.260
  843TIP3    H2 2536   3.152   5.308   0.335
  844TIP3   OH2 2537   3.171   1.367   1.927
  844TIP3    H1 2538   3.262   1.382   1.901
  844TIP3    H2 2539   3.176   1.349   2.021
  845TIP3   OH2 2540   4.830   4.275   1.429
  845TIP3    H1 2541   4.880   4.313   1.356
  845TIP3    H2 2542   4.896   4.238   1.487
  846TIP3   OH2 2543   2.961   5.029   0.221
  846TIP3    H1 2544   3.007   5.006   0.140
  846TIP3    H2 2545   3.024   5.083   0.269
  847TIP3   OH2 2546   5.908   4.965   4.467
  847TIP3    H1 2547   5.880   4.878   4.494
  847TIP3    H2 2548   5.831   5.002   4.423
  848TIP3   OH2 2549   2.485   0.265   3.390
  848TIP3    H1 2550   2.446   0.283   3.476
  848TIP3    H2 2551   2.574   0.237   3.411
  849TIP3   OH2 2552   2.936   3.585   3.581
  849TIP3    H1 2553   2.964   3.673   3.604
  849TIP3    H2 2554   2.870   3.597   3.513
  850TIP3   OH2 2555   2.943   0.178   0.617
  850TIP3    H1 2556   2.922   0.147   0.705
  850TIP3    H2 2557   3.016   0.240   0.631
  851TIP3   OH2 2558   6.304   4.986   1.293
  851TIP3    H1 2559   6.270   5.043   1.224
  851TIP3    H2 2560   6.228   4.963   1.346
  852TIP3   OH2 2561   0.563   2.084   0.227
  852TIP3    H1 2562   0.568   2.036   0.309
  852TIP3    H2 2563   0.537   2.173   0.252
  853TIP3   OH2 2564   2.500   5.023   0.734
  853TIP3    H1 2565   2.531   5.025   0.825
  853TIP3    H2 2566   2.479   4.931   0.718
  854TIP3   OH2 2567   2.387   3.508   2.358
  854TIP3    H1 2568   2.363   3.469   2.442
  854TIP3    H2 2569   2.461   3.565   2.378
  855TIP3   OH2 2570   3.762   2.076   4.579
  855TIP3    H1 2571   3.683   2.110   4.538
  855TIP3    H2 2572   3.731   2.037   4.661
  856TIP3   OH2 2573   6.326   4.852   4.355
  856TIP3    H1 2574   6.287   4.898   4.429
  856TIP3    H2 2575   6.265   4.866   4.283
  857TIP3   OH2 2576   6.134   1.474   4.840
  857TIP3    H1 2577   6.092   1.560   4.835
  857TIP3    H2 2578   6.201   1.477   4.771
  858TIP3   OH2 2579   3.324   2.216   2.022
  858TIP3    H1 2580   3.400   2.270   2.039
  858TIP3    H2 2581   3.275   2.263   1.954
  859TIP3   OH2 2582   1.796   1.644   1.145
  859TIP3    H1 2583   1.728   1.635   1.078
  859TIP3    H2 2584   1.874   1.604   1.106
  860TIP3   OH2 2585   6.199   4.580   1.148
  860TIP3    H1 2586   6.253   4.509   1.114
  860TIP3    H2 2587   6.144   4.605   1.074
  861TIP3   OH2 2588   4.048   1.368   1.236
  861TIP3    H1 2589   4.047   1.289   1.291
  861TIP3    H2 2590   4.117   1.351   1.172
  862TIP3   OH2 2591   2.152   4.511   0.526
  862TIP3    H1 2592   2.210   4.477   0.593
  862TIP3    H2 2593   2.180   4.467   0.445
  863TIP3   OH2 2594   5.232   0.119   1.321
  863TIP3    H1 2595   5.163   0.115   1.255
  863TIP3    H2 2596   5.212   0.045   1.380
  864TIP3   OH2 2597   4.934   1.384   0.411
  864TIP3    H1 2598   4.999   1.372   0.481
  864TIP3    H2 2599   4.858   1.334   0.441
  865TIP3   OH2 2600   4.894   2.451   2.653
  865TIP3    H1 2601   4.916   2.363   2.684
  865TIP3    H2 2602   4.826   2.437   2.587
  866TIP3   OH2 2603   3.767   0.010   2.777
  866TIP3    H1 2604   3.835   0.078   2.770
  866TIP3    H2 2605   3.775  -0.041   2.697
  867TIP3   OH2 2606   4.486   0.643   3.997
  867TIP3    H1 2607   4.528   0.688   4.070
  867TIP3    H2 2608   4.397   0.625   4.027
  868TIP3   OH2 2609   2.066   3.690   3.470
  868TIP3    H1 2610   1.989   3.686   3.413
  868TIP3    H2 2611   2.119   3.761   3.433
  869TIP3   OH2 2612   1.790  -0.052   4.489
  869TIP3    H1 2613   1.790   0.025   4.433
  869TIP3    H2 2614   1.749  -0.023   4.570
  870TIP3   OH2 2615   3.690   1.742   3.932
  870TIP3    H1 2616   3.640   1.662   3.917
  870TIP3    H2 2617   3.655   1.777   4.014
  871TIP3   OH2 2618   3.133   3.918   4.865
  871TIP3    H1 2619   3.144   3.845   4.805
  871TIP3    H2 2620   3.041   3.914   4.891
  872TIP3   OH2 2621   2.809   2.858   2.353
  872TIP3    H1 2622   2.776   2.947   2.370
  872TIP3    H2 2623   2.878   2.845   2.418
  873TIP3   OH2 2624   1.146   4.889   1.641
  873TIP3    H1 2625   1.145   4.907   1.547
  873TIP3    H2 2626   1.177   4.970   1.682
  874TIP3   OH2 2627   4.219   4.296   4.204
  874TIP3    H1 2628   4.148   4.349   4.239
  874TIP3    H2 2629   4.194   4.278   4.114
  875TIP3   OH2 2630   2.129   1.746   4.462
  875TIP3    H1 2631   2.104   1.695   4.539
  875TIP3    H2 2632   2.047   1.784   4.431
  876TIP3   OH2 2633   4.081   2.447   2.140
  876TIP3    H1 2634   4.052   2.359   2.114
  876TIP3    H2 2635   4.004   2.502   2.123
  877TIP3   OH2 2636   2.070   3.973   2.207
  877TIP3    H1 2637   2.027   3.997   2.289
  877TIP3    H2 2638   2.083   3.878   2.213
  878TIP3   OH2 2639   4.625   4.786   0.293
  878TIP3    H1 2640   4.530   4.786   0.284
  878TIP3    H2 2641   4.640   4.755   0.382
  879TIP3   OH2 2642   3.009   0.136   2.482
  879TIP3    H1 2643   3.065   0.173   2.414
  879TIP3    H2 2644   3.034   0.183   2.562
  880TIP3   OH2 2645   3.528   5.246   4.033
  880TIP3    H1 2646   3.496   5.163   4.070
  880TIP3    H2 2647   3.620   5.228   4.013
  881TIP3   OH2 2648   6.008   0.765   4.936
  881TIP3    H1 2649   6.010   0.679   4.977
  881TIP3    H2 2650   5.994   0.746   4.843
  882TIP3   OH2 2651   2.592   2.398   1.079
  882TIP3    H1 2652   2.579   2.442   1.164
  882TIP3    H2 2653   2.615   2.468   1.019
  883TIP3   OH2 2654   1.277   1.167   3.788
  883TIP3    H1 2655   1.357   1.127   3.756
  883TIP3    H2 2656   1.259   1.124   3.871
  884TIP3   OH2 2657   6.141   2.538   3.974
  884TIP3    H1 2658   6.183   2.459   3.940
  884TIP3    H2 2659   6.177   2.609   3.921
  885TIP3   OH2 2660   1.454   0.298   2.464
  885TIP3    H1 2661   1.548   0.287   2.475
  885TIP3    H2 2662   1.417   0.272   2.548
  886TIP3   OH2 2663   0.841   3.674   2.344
  886TIP3    H1 2664   0.834   3.685   2.439
  886TIP3    H2 2665   0.762   3.717   2.310
  887TIP3   OH2 2666   5.489   4.889   3.651
  887TIP3    H1 2667   5.577   4.923   3.639
  887TIP3    H2 2668   5.498   4.794   3.640
  888TIP3   OH2 2669   1.859   3.097   2.869
  888TIP3    H1 2670   1.790   3.139   2.922
  888TIP3    H2 2671   1.811   3.039   2.810
  889TIP3   OH2 2672   3.480   5.068   3.770
  889TIP3    H1 2673   3.569   5.101   3.782
  889TIP3    H2 2674   3.479   4.985   3.818
  890TIP3   OH2 2675   0.566   4.038   0.340
  890TIP3    H1 2676   0.512   4.116   0.360
  890TIP3    H2 2677   0.599   4.010   0.426
  891TIP3   OH2 2678   0.371   2.712   3.654
  891TIP3    H1 2679   0.296   2.658   3.679
  891TIP3    H2 2680   0.447   2.661   3.681
  892TIP3   OH2 2681   3.375   2.259   3.285
  892TIP3    H1 2682   3.366   2.347   3.321
  892TIP3    H2 2683   3.299   2.249   3.227
  893TIP3   OH2 2684   1.709   1.159   3.822
  893TIP3    H1 2685   1.619   1.133   3.841
  893TIP3    H2 2686   1.755   1.150   3.905
  894TIP3   OH2 2687   6.211   3.579   1.976
  894TIP3    H1 2688   6.256   3.626   2.046
  894TIP3    H2 2689   6.202   3.642   1.905
  895TIP3   OH2 2690   5.208   3.834   0.990
  895TIP3    H1 2691   5.112   3.839   0.997
  895TIP3    H2 2692   5.224   3.752   0.944
  896TIP3   OH2 2693   2.377   0.545   2.475
  896TIP3    H1 2694   2.405   0.516   2.388
  896TIP3    H2 2695   2.290   0.508   2.486
  897TIP3   OH2 2696   5.494   5.630   4.463
  897TIP3    H1 2697   5.462   5.648   4.552
  897TIP3    H2 2698   5.548   5.706   4.442
  898TIP3   OH2 2699   3.115   1.341   1.546
  898TIP3    H1 2700   3.137   1.270   1.606
  898TIP3    H2 2701   3.150   1.420   1.588
  899TIP3   OH2 2702   4.945   2.222   3.861
  899TIP3    H1 2703   4.984   2.299   3.903
  899TIP3    H2 2704   4.990   2.215   3.777
  900TIP3   OH2 2705   0.798   3.277   3.053
  900TIP3    H1 2706   0.717   3.289   3.102
  900TIP3    H2 2707   0.777   3.212   2.986
  901TIP3   OH2 2708   4.354   5.842   0.849
  901TIP3    H1 2709   4.418   5.787   0.804
  901TIP3    H2 2710   4.269   5.812   0.816
  902TIP3   OH2 2711   0.709   5.407   4.797
  902TIP3    H1 2712   0.650   5.470   4.757
  902TIP3    H2 2713   0.759   5.457   4.862
  903TIP3   OH2 2714   3.058   3.952   0.401
  903TIP3    H1 2715   3.015   3.872   0.372
  903TIP3    H2 2716   3.146   3.946   0.364
  904TIP3   OH2 2717   3.570   2.722   0.603
  904TIP3    H1 2718   3.563   2.816   0.587
  904TIP3    H2 2719   3.479   2.694   0.618
  905TIP3   OH2 2720   5.680   4.488   3.844
  905TIP3    H1 2721   5.746   4.489   3.913
  905TIP3    H2 2722   5.609   4.436   3.881
  906TIP3   OH2 2723   1.621   0.178   3.563
  906TIP3    H1 2724   1.701   0.167   3.613
  906TIP3    H2 2725   1.646   0.232   3.488
  907TIP3   OH2 2726   5.936   0.592   4.228
  907TIP3    H1 2727   6.026   0.594   4.196
  907TIP3    H2 2728   5.889   0.652   4.170
  908TIP3   OH2 2729   1.500   2.280   4.595
  908TIP3    H1 2730   1.445   2.201   4.605
  908TIP3    H2 2731   1.449   2.350   4.636
  909TIP3   OH2 2732   2.880   3.314   3.612
  909TIP3    H1 2733   2.792   3.302   3.647
  909TIP3    H2 2734   2.914   3.392   3.655
  910TIP3   OH2 2735   4.347   3.915   1.281
  910TIP3    H1 2736   4.366   3.833   1.327
  910TIP3    H2 2737   4.433   3.948   1.256
  911TIP3   OH2 2738   0.601   1.902   3.375
  911TIP3    H1 2739   0.560   1.856   3.449
  911TIP3    H2 2740   0.560   1.864   3.298
  912TIP3   OH2 2741   2.344   1.281   3.714
  912TIP3    H1 2742   2.286   1.300   3.640
  912TIP3    H2 2743   2.432   1.286   3.677
  913TIP3   OH2 2744   0.516   4.231   5.044
  913TIP3    H1 2745   0.448   4.164   5.042
  913TIP3    H2 2746   0.490   4.293   4.976
  914TIP3   OH2 2747   5.981   1.224   4.022
  914TIP3    H1 2748   6.060   1.264   4.058
  914TIP3    H2 2749   5.963   1.149   4.079
  915TIP3   OH2 2750   3.963   4.806   4.517
  915TIP3    H1 2751   3.935   4.840   4.601
  915TIP3    H2 2752   3.897   4.836   4.455
  916TIP3   OH2 2753   3.236   3.471   1.085
  916TIP3    H1 2754   3.144   3.449   1.100
  916TIP3    H2 2755   3.234   3.549   1.030
  917TIP3   OH2 2756   2.235   5.928   0.206
  917TIP3    H1 2757   2.230   5.948   0.112
  917TIP3    H2 2758   2.220   5.834   0.212
  918TIP3   OH2 2759   0.625   3.100   1.909
  918TIP3    H1 2760   0.684   3.123   1.981
  918TIP3    H2 2761   0.577   3.024   1.940
  919TIP3   OH2 2762   5.176   5.192   0.489
  919TIP3    H1 2763   5.267   5.176   0.463
  919TIP3    H2 2764   5.176   5.178   0.584
  920TIP3   OH2 2765   4.352   3.748   0.491
  920TIP3    H1 2766   4.352   3.844   0.492
  920TIP3    H2 2767   4.260   3.724   0.483
  921TIP3   OH2 2768   3.219   4.649   3.145
  921TIP3    H1 2769   3.161   4.585   3.104
  921TIP3    H2 2770   3.228   4.619   3.235
  922TIP3   OH2 2771   0.972   0.375   4.144
  922TIP3    H1 2772   1.038   0.335   4.201
  922TIP3    H2 2773   0.965   0.314   4.070
  923TIP3   OH2 2774   0.992   4.070   4.201
  923TIP3    H1 2775   0.943   3.992   4.173
  923TIP3    H2 2776   0.940   4.107   4.272
  924TIP3   OH2 2777   3.213   1.571   3.535
  924TIP3    H1 2778   3.223   1.479   3.513
  924TIP3    H2 2779   3.139   1.601   3.482
  925TIP3   OH2 2780   6.011   2.960   2.079
  925TIP3    H1 2781   5.977   2.963   2.168
  925TIP3    H2 2782   6.021   3.051   2.053
  926TIP3   OH2 2783   3.292   0.526   0.250
  926TIP3    H1 2784   3.341   0.449   0.222
  926TIP3    H2 2785   3.203   0.493   0.267
  927TIP3   OH2 2786   4.186   0.029   2.941
  927TIP3    H1 2787   4.108   0.033   2.885
  927TIP3    H2 2788   4.247   0.091   2.901
  928TIP3   OH2 2789   4.855   3.268   4.187
  928TIP3    H1 2790   4.893   3.236   4.269
  928TIP3    H2 2791   4.761   3.263   4.201
  929TIP3   OH2 2792   1.488   0.459   0.964
  929TIP3    H1 2793   1.571   0.507   0.966
  929TIP3    H2 2794   1.496   0.400   0.889
  930TIP3   OH2 2795   4.032   4.661   0.045
  930TIP3    H1 2796   4.074   4.580   0.017
  930TIP3    H2 2797   3.949   4.663  -0.003
  931TIP3   OH2 2798   1.944   0.581   1.680
  931TIP3    H1 2799   1.882   0.651   1.661
  931TIP3    H2 2800   1.890   0.505   1.700
  932TIP3   OH2 2801   5.089   3.573   4.558
  932TIP3    H1 2802   5.000   3.592   4.528
  932TIP3    H2 2803   5.082   3.487   4.600
  933TIP3   OH2 2804   4.778   5.740   2.480
  933TIP3    H1 2805   4.838   5.804   2.442
  933TIP3    H2 2806   4.704   5.792   2.510
  934TIP3   OH2 2807   2.681   1.771   1.721
  934TIP3    H1 2808   2.750   1.714   1.685
  934TIP3    H2 2809   2.614   1.710   1.752
  935TIP3   OH2 2810   2.296   5.201   1.644
  935TIP3    H1 2811   2.360   5.184   1.574
  935TIP3    H2 2812   2.265   5.290   1.626
  936TIP3   OH2 2813   3.564   2.436   1.448
  936TIP3    H1 2814   3.501   2.378   1.407
  936TIP3    H2 2815   3.599   2.489   1.376
  937TIP3   OH2 2816   1.568   3.776   3.905
  937TIP3    H1 2817   1.492   3.835   3.902
  937TIP3    H2 2818   1.602   3.786   3.994
  938TIP3   OH2 2819   0.884   5.032   0.786
  938TIP3    H1 2820   0.876   5.127   0.787
  938TIP3    H2 2821   0.856   5.005   0.874
  939TIP3   OH2 2822   6.219   2.442   3.014
  939TIP3    H1 2823   6.194   2.421   3.104
  939TIP3    H2 2824   6.273   2.368   2.986
  940TIP3   OH2 2825   4.879   1.206   3.277
  940TIP3    H1 2826   4.842   1.293   3.289
  940TIP3    H2 2827   4.892   1.173   3.366
  941TIP3   OH2 2828   1.128   1.287   2.947
  941TIP3    H1 2829   1.146   1.249   2.861
  941TIP3    H2 2830   1.210   1.331   2.971
  942TIP3   OH2 2831   1.806   0.570   4.358
  942TIP3    H1 2832   1.867   0.534   4.293
  942TIP3    H2 2833   1.762   0.493   4.394
  943TIP3   OH2 2834   2.779   2.434   3.407
  943TIP3    H1 2835   2.821   2.466   3.488
  943TIP3    H2 2836   2.703   2.490   3.396
  944TIP3   OH2 2837   2.152   1.608   0.100
  944TIP3    H1 2838   2.073   1.563   0.069
  944TIP3    H2 2839   2.221   1.577   0.042
  945TIP3   OH2 2840   2.040   3.572   5.072
  945TIP3    H1 2841   2.063   3.527   4.991
  945TIP3    H2 2842   1.971   3.633   5.048
  946TIP3   OH2 2843   0.750   4.523   4.413
  946TIP3    H1 2844   0.767   4.430   4.430
  946TIP3    H2 2845   0.801   4.543   4.335
  947TIP3   OH2 2846   1.852   0.938   4.064
  947TIP3    H1 2847   1.926   0.892   4.103
  947TIP3    H2 2848   1.817   0.878   3.999
  948TIP3   OH2 2849   2.739   0.029   4.622
  948TIP3    H1 2850   2.679  -0.036   4.586
  948TIP3    H2 2851   2.766   0.081   4.546
  949TIP3   OH2 2852   4.164   3.267   1.282
  949TIP3    H1 2853   4.257   3.241   1.281
  949TIP3    H2 2854   4.132   3.245   1.195
  950TIP3   OH2 2855   4.521   0.742   2.234
  950TIP3    H1 2856   4.587   0.784   2.289
  950TIP3    H2 2857   4.463   0.814   2.208
  951TIP3   OH2 2858   2.151   2.681   0.804
  951TIP3    H1 2859   2.190   2.595   0.786
  951TIP3    H2 2860   2.071   2.660   0.853
  952TIP3   OH2 2861   3.636   0.310   2.926
  952TIP3    H1 2862   3.573   0.241   2.947
  952TIP3    H2 2863   3.636   0.314   2.830
  953TIP3   OH2 2864   0.320   1.236   0.163
  953TIP3    H1 2865   0.378   1.201   0.231
  953TIP3    H2 2866   0.361   1.209   0.081
  954TIP3   OH2 2867   4.788   2.879   3.708
  954TIP3    H1 2868   4.699   2.895   3.676
  954TIP3    H2 2869   4.794   2.783   3.714
  955TIP3   OH2 2870   3.747   1.684   4.952
  955TIP3    H1 2871   3.736   1.605   4.899
  955TIP3    H2 2872   3.683   1.675   5.023
  956TIP3   OH2 2873   2.598   2.509   0.650
  956TIP3    H1 2874   2.611   2.583   0.591
  956TIP3    H2 2875   2.505   2.512   0.671
  957TIP3   OH2 2876   2.071   5.498   2.464
  957TIP3    H1 2877   2.143   5.448   2.501
  957TIP3    H2 2878   2.012   5.513   2.537
  958TIP3   OH2 2879   4.254   3.704   4.055
  958TIP3    H1 2880   4.240   3.642   4.127
  958TIP3    H2 2881   4.262   3.650   3.977
  959TIP3   OH2 2882   0.906   2.913   0.082
  959TIP3    H1 2883   0.834   2.975   0.072
  959TIP3    H2 2884   0.950   2.915  -0.002
  960TIP3   OH2 2885   1.707   4.594   5.134
  960TIP3    H1 2886   1.643   4.652   5.093
  960TIP3    H2 2887   1.791   4.638   5.122
  961TIP3   OH2 2888   2.262   5.141   2.731
  961TIP3    H1 2889   2.295   5.057   2.701
  961TIP3    H2 2890   2.167   5.129   2.738
  962TIP3   OH2 2891   5.344   0.784   0.081
  962TIP3    H1 2892   5.307   0.722   0.145
  962TIP3    H2 2893   5.430   0.807   0.116
  963TIP3   OH2 2894   5.883   2.412   1.478
  963TIP3    H1 2895   5.914   2.477   1.541
  963TIP3    H2 2896   5.938   2.335   1.495
  964TIP3   OH2 2897   3.507   3.654   4.817
  964TIP3    H1 2898   3.469   3.738   4.793
  964TIP3    H2 2899   3.500   3.651   4.913
  965TIP3   OH2 2900   3.963   4.414   4.285
  965TIP3    H1 2901   3.923   4.387   4.368
  965TIP3    H2 2902   4.006   4.497   4.306
  966TIP3   OH2 2903   4.934   4.854   0.479
  966TIP3    H1 2904   4.840   4.867   0.464
  966TIP3    H2 2905   4.977   4.910   0.414
  967TIP3   OH2 2906   2.662   5.611   4.693
  967TIP3    H1 2907   2.614   5.684   4.655
  967TIP3    H2 2908   2.628   5.534   4.648
  968TIP3   OH2 2909   5.557   0.663   4.334
  968TIP3    H1 2910   5.594   0.700   4.254
  968TIP3    H2 2911   5.518   0.580   4.307
  969TIP3   OH2 2912   4.261   3.575   3.813
  969TIP3    H1 2913   4.187   3.632   3.792
  969TIP3    H2 2914   4.336   3.616   3.770
  970TIP3   OH2 2915  -0.030   0.332   3.316
  970TIP3    H1 2916   0.040   0.298   3.372
  970TIP3    H2 2917   0.012   0.401   3.264
  971TIP3   OH2 2918   3.619   1.877   4.183
  971TIP3    H1 2919   3.687   1.944   4.188
  971TIP3    H2 2920   3.537   1.925   4.195
  972TIP3   OH2 2921   0.587   0.046   5.146
  972TIP3    H1 2922   0.533  -0.029   5.171
  972TIP3    H2 2923   0.627   0.021   5.063
  973TIP3   OH2 2924   6.026   5.070   1.525
  973TIP3    H1 2925   6.111   5.107   1.547
  973TIP3    H2 2926   6.026   4.984   1.567
  974TIP3   OH2 2927   5.554   0.248   2.103
  974TIP3    H1 2928   5.636   0.198   2.101
  974TIP3    H2 2929   5.562   0.306   2.179
  975TIP3   OH2 2930   3.022   3.482   1.973
  975TIP3    H1 2931   3.099   3.437   2.008
  975TIP3    H2 2932   2.994   3.428   1.900
  976TIP3   OH2 2933   3.573   3.450   2.348
  976TIP3    H1 2934   3.555   3.363   2.382
  976TIP3    H2 2935   3.574   3.506   2.425
  977TIP3   OH2 2936   5.533   2.369   4.477
  977TIP3    H1 2937   5.541   2.383   4.572
  977TIP3    H2 2938   5.623   2.367   4.446
  978TIP3   OH2 2939   5.300   5.283   2.723
  978TIP3    H1 2940   5.286   5.243   2.638
  978TIP3    H2 2941   5.300   5.377   2.706
  979TIP3   OH2 2942   2.306   5.564   0.305
  979TIP3    H1 2943   2.396   5.532   0.305
  979TIP3    H2 2944   2.281   5.566   0.397
  980TIP3   OH2 2945   4.810   3.569   4.197
  980TIP3    H1 2946   4.788   3.483   4.162
  980TIP3    H2 2947   4.730   3.621   4.184
  981TIP3   OH2 2948   6.267   5.645   0.256
  981TIP3    H1 2949   6.235   5.676   0.341
  981TIP3    H2 2950   6.316   5.719   0.220
  982TIP3   OH2 2951   0.388   3.236   1.800
  982TIP3    H1 2952   0.454   3.172   1.828
  982TIP3    H2 2953   0.390   3.233   1.705
  983TIP3   OH2 2954   1.214   4.692   3.827
  983TIP3    H1 2955   1.223   4.666   3.919
  983TIP3    H2 2956   1.175   4.779   3.831
  984TIP3   OH2 2957   0.718   1.895   2.145
  984TIP3    H1 2958   0.632   1.856   2.130
  984TIP3    H2 2959   0.749   1.920   2.058
  985TIP3   OH2 2960   2.229   4.973   0.094
  985TIP3    H1 2961   2.301   5.032   0.115
  985TIP3    H2 2962   2.175   4.972   0.173
  986TIP3   OH2 2963   4.586   5.965   1.243
  986TIP3    H1 2964   4.560   5.970   1.151
  986TIP3    H2 2965   4.594   6.056   1.271
  987TIP3   OH2 2966   1.010   3.313   4.524
  987TIP3    H1 2967   0.979   3.339   4.611
  987TIP3    H2 2968   0.936   3.333   4.466
  988TIP3   OH2 2969   2.339   5.658   2.041
  988TIP3    H1 2970   2.256   5.682   2.082
  988TIP3    H2 2971   2.350   5.565   2.061
  989TIP3   OH2 2972   2.888   5.741   2.941
  989TIP3    H1 2973   2.803   5.742   2.896
  989TIP3    H2 2974   2.917   5.832   2.939
  990TIP3   OH2 2975   0.578   5.854   1.004
  990TIP3    H1 2976   0.648   5.877   1.065
  990TIP3    H2 2977   0.610   5.776   0.959
  991TIP3   OH2 2978   2.741   0.555   1.986
  991TIP3    H1 2979   2.730   0.639   2.031
  991TIP3    H2 2980   2.742   0.490   2.057
  992TIP3   OH2 2981   1.995   4.548   2.463
  992TIP3    H1 2982   2.059   4.620   2.469
  992TIP3    H2 2983   1.976   4.526   2.554
  993TIP3   OH2 2984   5.984   4.117   3.040
  993TIP3    H1 2985   6.006   4.026   3.023
  993TIP3    H2 2986   5.891   4.116   3.063
  994TIP3   OH2 2987   4.921   4.817   1.016
  994TIP3    H1 2988   4.952   4.887   0.958
  994TIP3    H2 2989   4.975   4.825   1.095
  995TIP3   OH2 2990   2.968   2.023   5.041
  995TIP3    H1 2991   2.990   1.934   5.070
  995TIP3    H2 2992   3.052   2.062   5.018
  996TIP3   OH2 2993   1.529   1.421   0.332
  996TIP3    H1 2994   1.621   1.448   0.342
  996TIP3    H2 2995   1.507   1.446   0.242
  997TIP3   OH2 2996   4.598   2.259   5.088
  997TIP3    H1 2997   4.536   2.308   5.034
  997TIP3    H2 2998   4.682   2.302   5.075
  998TIP3   OH2 2999   2.768   0.871   3.621
  998TIP3    H1 3000   2.776   0.961   3.590
  998TIP3    H2 3001   2.857   0.845   3.643
  999TIP3   OH2 3002   0.454   3.207   0.831
  999TIP3    H1 3003   0.527   3.156   0.866
  999TIP3    H2 3004   0.492   3.293   0.813
 1000TIP3   OH2 3005   3.025   2.275   2.713
 1000TIP3    H1 3006   2.976   2.284   2.795
 1000TIP3    H2 3007   2.958   2.272   2.645
 1001TIP3   OH2 3008   1.392   1.396   3.949
 1001TIP3    H1 3009   1.346   1.331   3.897
 1001TIP3    H2 3010   1.467   1.349   3.986
 1002TIP3   OH2 3011   1.961   1.046   1.005
 1002TIP3    H1 3012   1.928   1.129   1.040
 1002TIP3    H2 3013   2.055   1.049   1.018
 1003TIP3   OH2 3014   6.113   5.651   3.991
 1003TIP3    H1 3015   6.052   5.674   4.060
 1003TIP3    H2 3016   6.070   5.579   3.944
 1004TIP3   OH2 3017   5.499   1.903   5.024
 1004TIP3    H1 3018   5.578   1.956   5.011
 1004TIP3    H2 3019   5.452   1.948   5.095
 1005TIP3   OH2 3020   4.177   2.387   1.674
 1005TIP3    H1 3021   4.198   2.394   1.767
 1005TIP3    H2 3022   4.122   2.309   1.667
 1006TIP3   OH2 3023   2.810   0.259   0.892
 1006TIP3    H1 3024   2.832   0.318   0.820
 1006TIP3    H2 3025   2.716   0.273   0.907
 1007TIP3   OH2 3026   2.909   1.083   3.197
 1007TIP3    H1 3027   2.991   1.043   3.170
 1007TIP3    H2 3028   2.843   1.017   3.180
 1008TIP3   OH2 3029   3.349   3.662   2.375
 1008TIP3    H1 3030   3.309   3.708   2.449
 1008TIP3    H2 3031   3.429   3.624   2.411
 1009TIP3   OH2 3032   3.932   3.964   0.558
 1009TIP3    H1 3033   3.860   3.952   0.495
 1009TIP3    H2 3034   3.924   4.055   0.586
 1010TIP3   OH2 3035   6.265   5.971   2.190
 1010TIP3    H1 3036   6.206   5.906   2.154
 1010TIP3    H2 3037   6.254   6.048   2.135
 1011TIP3   OH2 3038   3.150   4.489   4.850
 1011TIP3    H1 3039   3.151   4.577   4.888
 1011TIP3    H2 3040   3.240   4.474   4.823
 1012TIP3   OH2 3041   1.223   2.436   3.000
 1012TIP3    H1 3042   1.173   2.387   2.934
 1012TIP3    H2 3043   1.228   2.525   2.965
 1013TIP3   OH2 3044   4.383   2.210   0.286
 1013TIP3    H1 3045   4.437   2.227   0.208
 1013TIP3    H2 3046   4.446   2.203   0.358
 1014TIP3   OH2 3047   5.355   4.879   4.571
 1014TIP3    H1 3048   5.268   4.881   4.530
 1014TIP3    H2 3049   5.407   4.939   4.519
 1015TIP3   OH2 3050   5.643   3.934   3.599
 1015TIP3    H1 3051   5.561   3.898   3.633
 1015TIP3    H2 3052   5.698   3.945   3.677
 1016TIP3   OH2 3053   3.702   4.678   3.055
 1016TIP3    H1 3054   3.695   4.640   2.967
 1016TIP3    H2 3055   3.622   4.729   3.066
 1017TIP3   OH2 3056   0.020   0.091   4.888
 1017TIP3    H1 3057   0.038   0.005   4.926
 1017TIP3    H2 3058  -0.002   0.146   4.962
 1018TIP3   OH2 3059   5.706   4.888   2.374
 1018TIP3    H1 3060   5.618   4.867   2.343
 1018TIP3    H2 3061   5.747   4.931   2.299
 1019TIP3   OH2 3062   4.395   4.063   4.592
 1019TIP3    H1 3063   4.337   4.078   4.667
 1019TIP3    H2 3064   4.448   4.142   4.586
 1020TIP3   OH2 3065   5.472   4.964   2.702
 1020TIP3    H1 3066   5.538   5.020   2.660
 1020TIP3    H2 3067   5.478   4.985   2.795
 1021TIP3   OH2 3068   4.037   5.124   3.868
 1021TIP3    H1 3069   4.007   5.200   3.818
 1021TIP3    H2 3070   4.130   5.140   3.884
 1022TIP3   OH2 3071   2.261   2.596   1.632
 1022TIP3    H1 3072   2.283   2.539   1.705
 1022TIP3    H2 3073   2.337   2.654   1.621
 1023TIP3   OH2 3074   1.782   4.695   3.061
 1023TIP3    H1 3075   1.846   4.624   3.053
 1023TIP3    H2 3076   1.834   4.774   3.071
 1024TIP3   OH2 3077   5.242   0.332   2.255
 1024TIP3    H1 3078   5.331   0.366   2.271
 1024TIP3    H2 3079   5.196   0.404   2.212
 1025TIP3   OH2 3080   0.248   4.108  -0.024
 1025TIP3    H1 3081   0.219   4.080   0.062
 1025TIP3    H2 3082   0.295   4.190  -0.008
 1026TIP3   OH2 3083   4.332   3.576   4.745
 1026TIP3    H1 3084   4.411   3.527   4.723
 1026TIP3    H2 3085   4.337   3.590   4.839
 1027TIP3   OH2 3086   3.904   5.044   4.109
 1027TIP3    H1 3087   3.964   5.076   4.041
 1027TIP3    H2 3088   3.962   4.999   4.171
 1028TIP3   OH2 3089   5.202   1.783   1.855
 1028TIP3    H1 3090   5.135   1.783   1.787
 1028TIP3    H2 3091   5.170   1.721   1.920
 1029TIP3   OH2 3092   3.168   1.130   3.719
 1029TIP3    H1 3093   3.252   1.107   3.679
 1029TIP3    H2 3094   3.110   1.056   3.701
 1030TIP3   OH2 3095   4.413   1.070   2.495
 1030TIP3    H1 3096   4.390   1.073   2.403
 1030TIP3    H2 3097   4.343   1.019   2.536
 1031TIP3   OH2 3098   4.376   0.323   4.581
 1031TIP3    H1 3099   4.394   0.233   4.609
 1031TIP3    H2 3100   4.405   0.377   4.655
 1032TIP3   OH2 3101   5.245   4.226   2.334
 1032TIP3    H1 3102   5.164   4.271   2.309
 1032TIP3    H2 3103   5.314   4.273   2.288
 1033TIP3   OH2 3104   4.836   1.653   4.881
 1033TIP3    H1 3105   4.784   1.575   4.863
 1033TIP3    H2 3106   4.810   1.716   4.813
 1034TIP3   OH2 3107   5.122   0.213   0.827
 1034TIP3    H1 3108   5.054   0.151   0.850
 1034TIP3    H2 3109   5.075   0.291   0.798
 1035TIP3   OH2 3110   6.079   3.733   4.603
 1035TIP3    H1 3111   6.071   3.690   4.688
 1035TIP3    H2 3112   6.088   3.826   4.624
 1036TIP3   OH2 3113   4.300   0.898   2.139
 1036TIP3    H1 3114   4.242   0.903   2.063
 1036TIP3    H2 3115   4.281   0.977   2.189
 1037TIP3   OH2 3116   5.819   5.533   2.487
 1037TIP3    H1 3117   5.790   5.599   2.423
 1037TIP3    H2 3118   5.829   5.582   2.568
 1038TIP3   OH2 3119   4.952   3.186   2.079
 1038TIP3    H1 3120   4.987   3.238   2.006
 1038TIP3    H2 3121   5.019   3.120   2.096
 1039TIP3   OH2 3122   3.156   4.204   3.487
 1039TIP3    H1 3123   3.119   4.140   3.425
 1039TIP3    H2 3124   3.094   4.206   3.560
 1040TIP3   OH2 3125   4.573   4.709   1.097
 1040TIP3    H1 3126   4.522   4.705   1.178
 1040TIP3    H2 3127   4.563   4.799   1.067
 1041TIP3   OH2 3128   2.547   4.174   5.062
 1041TIP3    H1 3129   2.597   4.099   5.029
 1041TIP3    H2 3130   2.455   4.144   5.059
 1042TIP3   OH2 3131   3.212   1.266   1.275
 1042TIP3    H1 3132   3.226   1.185   1.325
 1042TIP3    H2 3133   3.180   1.329   1.340
 1043TIP3   OH2 3134   2.298   2.758   1.928
 1043TIP3    H1 3135   2.379   2.790   1.890
 1043TIP3    H2 3136   2.283   2.673   1.887
 1044TIP3   OH2 3137   5.073   5.000   3.928
 1044TIP3    H1 3138   5.034   4.920   3.962
 1044TIP3    H2 3139   5.152   4.971   3.881
 1045TIP3   OH2 3140   5.638   2.603   4.644
 1045TIP3    H1 3141   5.547   2.633   4.640
 1045TIP3    H2 3142   5.671   2.637   4.727
 1046TIP3   OH2 3143   3.663   2.983   1.846
 1046TIP3    H1 3144   3.595   2.919   1.865
 1046TIP3    H2 3145   3.716   2.942   1.777
 1047TIP3   OH2 3146   4.144   1.653   3.081
 1047TIP3    H1 3147   4.190   1.572   3.104
 1047TIP3    H2 3148   4.130   1.647   2.987
 1048TIP3   OH2 3149   4.455   4.220   4.315
 1048TIP3    H1 3150   4.442   4.128   4.340
 1048TIP3    H2 3151   4.375   4.245   4.269
 1049TIP3   OH2 3152   5.667   4.214   4.183
 1049TIP3    H1 3153   5.672   4.222   4.088
 1049TIP3    H2 3154   5.574   4.218   4.202
 1050TIP3   OH2 3155   4.486   0.452   3.216
 1050TIP3    H1 3156   4.538   0.373   3.226
 1050TIP3    H2 3157   4.419   0.430   3.151
 1051TIP3   OH2 3158   4.237   1.508   4.166
 1051TIP3    H1 3159   4.146   1.483   4.180
 1051TIP3    H2 3160   4.233   1.597   4.132
 1052TIP3   OH2 3161   3.432   0.750   4.393
 1052TIP3    H1 3162   3.396   0.839   4.395
 1052TIP3    H2 3163   3.430   0.721   4.484
 1053TIP3   OH2 3164   3.738   5.057   2.287
 1053TIP3    H1 3165   3.717   5.150   2.279
 1053TIP3    H2 3166   3.831   5.051   2.264
 1054TIP3   OH2 3167   4.239   5.121   4.726
 1054TIP3    H1 3168   4.253   5.027   4.718
 1054TIP3    H2 3169   4.327   5.159   4.727
 1055TIP3   OH2 3170   1.890   4.453   1.963
 1055TIP3    H1 3171   1.852   4.463   2.050
 1055TIP3    H2 3172   1.855   4.370   1.931
 1056TIP3   OH2 3173   1.422   5.706   0.028
 1056TIP3    H1 3174   1.413   5.729   0.121
 1056TIP3    H2 3175   1.332   5.694  -0.002
 1057TIP3   OH2 3176   1.872   4.299   3.929
 1057TIP3    H1 3177   1.881   4.216   3.882
 1057TIP3    H2 3178   1.955   4.309   3.976
 1058TIP3   OH2 3179   3.275   4.836   0.691
 1058TIP3    H1 3180   3.230   4.813   0.772
 1058TIP3    H2 3181   3.331   4.761   0.673
 1059TIP3   OH2 3182   5.483   2.662   3.234
 1059TIP3    H1 3183   5.460   2.755   3.234
 1059TIP3    H2 3184   5.519   2.646   3.147
 1060TIP3   OH2 3185   1.608   3.026   4.703
 1060TIP3    H1 3186   1.654   3.086   4.644
 1060TIP3    H2 3187   1.518   3.024   4.669
 1061TIP3   OH2 3188   2.206   2.145   1.488
 1061TIP3    H1 3189   2.132   2.189   1.530
 1061TIP3    H2 3190   2.231   2.076   1.550
 1062TIP3   OH2 3191   6.104   3.843   2.252
 1062TIP3    H1 3192   6.076   3.754   2.229
 1062TIP3    H2 3193   6.197   3.846   2.230
 1063TIP3   OH2 3194   4.013   5.420   3.980
 1063TIP3    H1 3195   3.988   5.390   3.892
 1063TIP3    H2 3196   4.054   5.505   3.966
 1064TIP3   OH2 3197   1.632   5.538   2.568
 1064TIP3    H1 3198   1.601   5.511   2.481
 1064TIP3    H2 3199   1.558   5.522   2.626
 1065TIP3   OH2 3200   2.688   3.763   4.745
 1065TIP3    H1 3201   2.594   3.777   4.732
 1065TIP3    H2 3202   2.715   3.836   4.801
 1066TIP3   OH2 3203   3.826   2.651   4.989
 1066TIP3    H1 3204   3.732   2.670   4.990
 1066TIP3    H2 3205   3.832   2.566   4.944
 1067TIP3   OH2 3206   6.341   3.689   4.849
 1067TIP3    H1 3207   6.331   3.696   4.944
 1067TIP3    H2 3208   6.304   3.771   4.815
 1068TIP3   OH2 3209   3.589   0.633   0.200
 1068TIP3    H1 3210   3.494   0.631   0.212
 1068TIP3    H2 3211   3.621   0.557   0.248
 1069TIP3   OH2 3212   2.969   3.836   3.734
 1069TIP3    H1 3213   2.946   3.895   3.662
 1069TIP3    H2 3214   3.059   3.860   3.757
 1070TIP3   OH2 3215   3.683   1.885   3.219
 1070TIP3    H1 3216   3.588   1.894   3.209
 1070TIP3    H2 3217   3.694   1.840   3.303
 1071TIP3   OH2 3218   5.294   0.889   3.296
 1071TIP3    H1 3219   5.282   0.835   3.219
 1071TIP3    H2 3220   5.315   0.976   3.261
 1072TIP3   OH2 3221   0.240   2.007   3.118
 1072TIP3    H1 3222   0.230   2.024   3.024
 1072TIP3    H2 3223   0.189   2.076   3.160
 1073TIP3   OH2 3224   6.101   3.434   4.291
 1073TIP3    H1 3225   6.158   3.356   4.288
 1073TIP3    H2 3226   6.119   3.479   4.208
 1074TIP3   OH2 3227   5.017   3.705   3.940
 1074TIP3    H1 3228   5.096   3.682   3.890
 1074TIP3    H2 3229   5.023   3.652   4.019
 1075TIP3   OH2 3230   3.083   4.034   2.805
 1075TIP3    H1 3231   3.127   3.951   2.819
 1075TIP3    H2 3232   3.039   4.024   2.721
 1076TIP3   OH2 3233   4.398   5.632   2.562
 1076TIP3    H1 3234   4.359   5.675   2.638
 1076TIP3    H2 3235   4.382   5.693   2.490
 1077TIP3   OH2 3236   4.483   4.930   4.530
 1077TIP3    H1 3237   4.389   4.919   4.544
 1077TIP3    H2 3238   4.524   4.882   4.602
 1078TIP3   OH2 3239   3.948   0.251   3.309
 1078TIP3    H1 3240   3.897   0.306   3.250
 1078TIP3    H2 3241   3.897   0.170   3.318
 1079TIP3   OH2 3242   1.326   5.256   2.668
 1079TIP3    H1 3243   1.231   5.260   2.679
 1079TIP3    H2 3244   1.341   5.291   2.580
 1080TIP3   OH2 3245   6.007   0.919   1.182
 1080TIP3    H1 3246   5.981   0.827   1.176
 1080TIP3    H2 3247   6.080   0.920   1.244
 1081TIP3   OH2 3248   4.424   2.457   4.080
 1081TIP3    H1 3249   4.486   2.447   4.152
 1081TIP3    H2 3250   4.442   2.382   4.022
 1082TIP3   OH2 3251   0.184   2.600   1.536
 1082TIP3    H1 3252   0.165   2.634   1.448
 1082TIP3    H2 3253   0.206   2.678   1.587
 1083TIP3   OH2 3254   3.432   2.272   4.974
 1083TIP3    H1 3255   3.502   2.298   4.915
 1083TIP3    H2 3256   3.476   2.231   5.049
 1084TIP3   OH2 3257   3.822   0.155   4.081
 1084TIP3    H1 3258   3.748   0.097   4.065
 1084TIP3    H2 3259   3.782   0.234   4.118
 1085TIP3   OH2 3260   0.965   2.139   2.382
 1085TIP3    H1 3261   1.015   2.218   2.402
 1085TIP3    H2 3262   0.878   2.171   2.358
 1086TIP3   OH2 3263   3.514   5.298   3.162
 1086TIP3    H1 3264   3.464   5.373   3.131
 1086TIP3    H2 3265   3.585   5.288   3.098
 1087TIP3   OH2 3266   5.483   4.172   2.949
 1087TIP3    H1 3267   5.501   4.092   2.900
 1087TIP3    H2 3268   5.390   4.168   2.970
 1088TIP3   OH2 3269   6.267   1.155   0.501
 1088TIP3    H1 3270   6.342   1.215   0.493
 1088TIP3    H2 3271   6.225   1.180   0.583
 1089TIP3   OH2 3272   4.300   0.732   0.736
 1089TIP3    H1 3273   4.309   0.700   0.826
 1089TIP3    H2 3274   4.214   0.774   0.734
 1090TIP3   OH2 3275   0.564   5.388   2.754
 1090TIP3    H1 3276   0.549   5.305   2.710
 1090TIP3    H2 3277   0.477   5.426   2.766
 1091TIP3   OH2 3278   3.648   5.650   3.162
 1091TIP3    H1 3279   3.680   5.592   3.094
 1091TIP3    H2 3280   3.664   5.602   3.244
 1092TIP3   OH2 3281   0.203   1.900   3.387
 1092TIP3    H1 3282   0.149   1.978   3.389
 1092TIP3    H2 3283   0.226   1.889   3.294
 1093TIP3   OH2 3284   5.224   0.272   4.109
 1093TIP3    H1 3285   5.304   0.291   4.061
 1093TIP3    H2 3286   5.180   0.356   4.118
 1094TIP3   OH2 3287   3.670   0.953   4.053
 1094TIP3    H1 3288   3.751   0.994   4.022
 1094TIP3    H2 3289   3.699   0.889   4.118
 1095TIP3   OH2 3290   5.122   0.697   3.496
 1095TIP3    H1 3291   5.080   0.708   3.581
 1095TIP3    H2 3292   5.213   0.724   3.510
 1096TIP3   OH2 3293   6.127   1.325   2.516
 1096TIP3    H1 3294   6.128   1.234   2.544
 1096TIP3    H2 3295   6.159   1.323   2.425
 1097TIP3   OH2 3296   5.321   0.487   0.040
 1097TIP3    H1 3297   5.256   0.513  -0.025
 1097TIP3    H2 3298   5.283   0.411   0.084
 1098TIP3   OH2 3299   4.883   5.009   4.337
 1098TIP3    H1 3300   4.797   4.970   4.323
 1098TIP3    H2 3301   4.879   5.093   4.293
 1099TIP3   OH2 3302   3.801   2.698   0.364
 1099TIP3    H1 3303   3.746   2.695   0.286
 1099TIP3    H2 3304   3.881   2.651   0.339
 1100TIP3   OH2 3305   0.276   2.252   2.195
 1100TIP3    H1 3306   0.258   2.182   2.133
 1100TIP3    H2 3307   0.368   2.274   2.181
 1101TIP3   OH2 3308   4.887   3.994   1.319
 1101TIP3    H1 3309   4.805   3.949   1.339
 1101TIP3    H2 3310   4.869   4.086   1.339
 1102TIP3   OH2 3311   4.822   3.978   0.028
 1102TIP3    H1 3312   4.844   3.885   0.038
 1102TIP3    H2 3313   4.839   4.016   0.114
 1103TIP3   OH2 3314   2.789   0.533   0.434
 1103TIP3    H1 3315   2.877   0.530   0.471
 1103TIP3    H2 3316   2.762   0.624   0.442
 1104TIP3   OH2 3317   3.447   5.970   0.527
 1104TIP3    H1 3318   3.539   5.994   0.522
 1104TIP3    H2 3319   3.424   5.944   0.437
 1105TIP3   OH2 3320   2.273   3.625   0.559
 1105TIP3    H1 3321   2.341   3.598   0.621
 1105TIP3    H2 3322   2.258   3.718   0.578
 1106TIP3   OH2 3323   0.220   2.632   3.038
 1106TIP3    H1 3324   0.163   2.577   2.984
 1106TIP3    H2 3325   0.308   2.614   3.006
 1107TIP3   OH2 3326   4.233   3.619   1.611
 1107TIP3    H1 3327   4.155   3.665   1.582
 1107TIP3    H2 3328   4.209   3.526   1.606
 1108TIP3   OH2 3329   2.385   5.515   3.509
 1108TIP3    H1 3330   2.423   5.481   3.429
 1108TIP3    H2 3331   2.426   5.600   3.522
 1109TIP3   OH2 3332   5.807   0.137   2.148
 1109TIP3    H1 3333   5.876   0.085   2.107
 1109TIP3    H2 3334   5.844   0.167   2.231
 1110TIP3   OH2 3335   3.136   1.104   2.653
 1110TIP3    H1 3336   3.067   1.050   2.692
 1110TIP3    H2 3337   3.217   1.055   2.669
 1111TIP3   OH2 3338   3.068   5.933   4.952
 1111TIP3    H1 3339   3.139   5.969   4.899
 1111TIP3    H2 3340   2.988   5.966   4.911
 1112TIP3   OH2 3341   1.243   0.329   4.971
 1112TIP3    H1 3342   1.179   0.400   4.967
 1112TIP3    H2 3343   1.324   0.372   4.998
 1113TIP3   OH2 3344   3.886   5.783   3.877
 1113TIP3    H1 3345   3.928   5.830   3.805
 1113TIP3    H2 3346   3.958   5.735   3.918
 1114TIP3   OH2 3347   2.743   4.748   2.497
 1114TIP3    H1 3348   2.753   4.837   2.465
 1114TIP3    H2 3349   2.763   4.754   2.591
 1115TIP3   OH2 3350   3.714   3.553   1.705
 1115TIP3    H1 3351   3.692   3.620   1.771
 1115TIP3    H2 3352   3.630   3.525   1.670
 1116TIP3   OH2 3353   3.223   1.676   3.108
 1116TIP3    H1 3354   3.159   1.648   3.043
 1116TIP3    H2 3355   3.303   1.629   3.086
 1117TIP3   OH2 3356   1.961   2.693   4.257
 1117TIP3    H1 3357   1.899   2.661   4.191
 1117TIP3    H2 3358   2.017   2.619   4.276
 1118TIP3   OH2 3359   0.323   2.552   4.654
 1118TIP3    H1 3360   0.397   2.501   4.687
 1118TIP3    H2 3361   0.291   2.601   4.730
 1119TIP3   OH2 3362   4.640   4.644   3.774
 1119TIP3    H1 3363   4.548   4.618   3.773
 1119TIP3    H2 3364   4.643   4.715   3.838
 1120TIP3   OH2 3365   1.127   4.781   2.102
 1120TIP3    H1 3366   1.065   4.730   2.155
 1120TIP3    H2 3367   1.206   4.786   2.155
 1121TIP3   OH2 3368   6.252   1.435   4.580
 1121TIP3    H1 3369   6.201   1.376   4.635
 1121TIP3    H2 3370   6.312   1.378   4.532
 1122TIP3   OH2 3371   4.740   5.682   1.691
 1122TIP3    H1 3372   4.733   5.587   1.691
 1122TIP3    H2 3373   4.716   5.709   1.603
 1123TIP3   OH2 3374   5.527   5.216   2.867
 1123TIP3    H1 3375   5.460   5.162   2.910
 1123TIP3    H2 3376   5.479   5.265   2.800
 1124TIP3   OH2 3377   2.441   2.490   2.560
 1124TIP3    H1 3378   2.487   2.407   2.573
 1124TIP3    H2 3379   2.504   2.557   2.588
 1125TIP3   OH2 3380   3.417   5.566   0.294
 1125TIP3    H1 3381   3.359   5.570   0.370
 1125TIP3    H2 3382   3.457   5.653   0.288
 1126TIP3   OH2 3383   3.084   4.527   1.339
 1126TIP3    H1 3384   3.047   4.523   1.251
 1126TIP3    H2 3385   3.049   4.450   1.383
 1127TIP3   OH2 3386   5.602   2.636   1.688
 1127TIP3    H1 3387   5.617   2.727   1.663
 1127TIP3    H2 3388   5.570   2.594   1.608
 1128TIP3   OH2 3389   4.983   5.600   5.147
 1128TIP3    H1 3390   4.956   5.657   5.219
 1128TIP3    H2 3391   4.921   5.526   5.151
 1129TIP3   OH2 3392   0.275   1.813   1.708
 1129TIP3    H1 3393   0.359   1.776   1.682
 1129TIP3    H2 3394   0.283   1.906   1.688
 1130TIP3   OH2 3395   1.619   1.163   4.374
 1130TIP3    H1 3396   1.580   1.164   4.287
 1130TIP3    H2 3397   1.633   1.070   4.393
 1131TIP3   OH2 3398   0.431   5.536   3.606
 1131TIP3    H1 3399   0.413   5.476   3.534
 1131TIP3    H2 3400   0.348   5.579   3.624
 1132TIP3   OH2 3401   1.163   0.492   2.945
 1132TIP3    H1 3402   1.249   0.490   2.986
 1132TIP3    H2 3403   1.131   0.581   2.961
 1133TIP3   OH2 3404   0.177   0.518   2.032
 1133TIP3    H1 3405   0.205   0.431   2.005
 1133TIP3    H2 3406   0.200   0.523   2.125
 1134TIP3   OH2 3407   3.598   5.786   0.306
 1134TIP3    H1 3408   3.654   5.744   0.241
 1134TIP3    H2 3409   3.573   5.870   0.265
 1135TIP3   OH2 3410   0.072   1.016   4.174
 1135TIP3    H1 3411   0.078   1.039   4.081
 1135TIP3    H2 3412   0.116   0.932   4.181
 1136TIP3   OH2 3413   2.724   2.218   0.112
 1136TIP3    H1 3414   2.727   2.130   0.074
 1136TIP3    H2 3415   2.658   2.264   0.061
 1137TIP3   OH2 3416   2.428   4.759   0.968
 1137TIP3    H1 3417   2.460   4.848   0.978
 1137TIP3    H2 3418   2.418   4.747   0.874
 1138TIP3   OH2 3419   1.147   5.617   1.568
 1138TIP3    H1 3420   1.088   5.680   1.526
 1138TIP3    H2 3421   1.232   5.631   1.525
 1139TIP3   OH2 3422   5.720   2.263   3.585
 1139TIP3    H1 3423   5.672   2.262   3.502
 1139TIP3    H2 3424   5.713   2.174   3.618
 1140TIP3   OH2 3425   4.732   3.674   1.093
 1140TIP3    H1 3426   4.703   3.704   1.007
 1140TIP3    H2 3427   4.695   3.586   1.101
 1141TIP3   OH2 3428   2.677   0.051   1.331
 1141TIP3    H1 3429   2.752   0.026   1.277
 1141TIP3    H2 3430   2.645   0.131   1.290
 1142TIP3   OH2 3431   0.054   0.217   2.521
 1142TIP3    H1 3432  -0.006   0.178   2.585
 1142TIP3    H2 3433  -0.002   0.270   2.465
 1143TIP3   OH2 3434   5.245   2.676   0.854
 1143TIP3    H1 3435   5.244   2.639   0.943
 1143TIP3    H2 3436   5.325   2.642   0.815
 1144TIP3   OH2 3437   4.843   5.309   1.163
 1144TIP3    H1 3438   4.862   5.327   1.255
 1144TIP3    H2 3439   4.750   5.287   1.162
 1145TIP3   OH2 3440   1.620   2.702   1.729
 1145TIP3    H1 3441   1.643   2.730   1.817
 1145TIP3    H2 3442   1.614   2.783   1.678
 1146TIP3   OH2 3443   1.647   3.619   2.979
 1146TIP3    H1 3444   1.584   3.680   3.017
 1146TIP3    H2 3445   1.733   3.659   2.995
 1147TIP3   OH2 3446   0.604   1.887   4.490
 1147TIP3    H1 3447   0.655   1.964   4.467
 1147TIP3    H2 3448   0.667   1.827   4.529
 1148TIP3   OH2 3449   6.213   0.158   2.697
 1148TIP3    H1 3450   6.134   0.207   2.674
 1148TIP3    H2 3451   6.185   0.102   2.770
 1149TIP3   OH2 3452   5.583   3.698   0.183
 1149TIP3    H1 3453   5.510   3.743   0.226
 1149TIP3    H2 3454   5.541   3.633   0.127
 1150TIP3   OH2 3455   2.529   1.561   1.781
 1150TIP3    H1 3456   2.494   1.477   1.752
 1150TIP3    H2 3457   2.482   1.580   1.862
 1151TIP3   OH2 3458   4.685   3.828   4.383
 1151TIP3    H1 3459   4.608   3.885   4.379
 1151TIP3    H2 3460   4.701   3.802   4.293
 1152TIP3   OH2 3461   1.580   5.397   1.888
 1152TIP3    H1 3462   1.543   5.342   1.818
 1152TIP3    H2 3463   1.532   5.371   1.967
 1153TIP3   OH2 3464   2.972   5.615   1.028
 1153TIP3    H1 3465   3.051   5.574   0.994
 1153TIP3    H2 3466   2.932   5.657   0.952
 1154TIP3   OH2 3467   1.959   4.945   0.741
 1154TIP3    H1 3468   1.883   4.912   0.695
 1154TIP3    H2 3469   1.944   4.921   0.832
 1155TIP3   OH2 3470   3.485   5.714   0.951
 1155TIP3    H1 3471   3.562   5.762   0.921
 1155TIP3    H2 3472   3.414   5.744   0.895
 1156TIP3   OH2 3473   4.771   0.153   1.266
 1156TIP3    H1 3474   4.837   0.088   1.243
 1156TIP3    H2 3475   4.777   0.160   1.361
 1157TIP3   OH2 3476   0.680   1.971   2.970
 1157TIP3    H1 3477   0.629   1.932   3.041
 1157TIP3    H2 3478   0.619   1.978   2.897
 1158TIP3   OH2 3479   4.702   2.894   4.135
 1158TIP3    H1 3480   4.731   2.815   4.182
 1158TIP3    H2 3481   4.631   2.863   4.079
 1159TIP3   OH2 3482   5.318   0.270   1.912
 1159TIP3    H1 3483   5.279   0.240   1.994
 1159TIP3    H2 3484   5.413   0.270   1.928
 1160TIP3   OH2 3485   6.171   2.556   0.091
 1160TIP3    H1 3486   6.096   2.612   0.109
 1160TIP3    H2 3487   6.140   2.467   0.109
 1161TIP3   OH2 3488   5.303   0.516   4.834
 1161TIP3    H1 3489   5.375   0.470   4.791
 1161TIP3    H2 3490   5.344   0.594   4.871
 1162TIP3   OH2 3491   2.576   2.501   2.288
 1162TIP3    H1 3492   2.611   2.499   2.377
 1162TIP3    H2 3493   2.602   2.417   2.250
 1163TIP3   OH2 3494   3.512   3.418   4.367
 1163TIP3    H1 3495   3.517   3.508   4.333
 1163TIP3    H2 3496   3.553   3.423   4.453
 1164TIP3   OH2 3497   2.324   2.618   2.243
 1164TIP3    H1 3498   2.410   2.579   2.263
 1164TIP3    H2 3499   2.264   2.544   2.243
 1165TIP3   OH2 3500   0.937   1.384   3.454
 1165TIP3    H1 3501   1.004   1.362   3.518
 1165TIP3    H2 3502   0.985   1.401   3.373
 1166TIP3   OH2 3503   0.254   1.420   2.180
 1166TIP3    H1 3504   0.234   1.327   2.192
 1166TIP3    H2 3505   0.350   1.424   2.182
 1167TIP3   OH2 3506   3.191   1.461   3.968
 1167TIP3    H1 3507   3.147   1.475   4.052
 1167TIP3    H2 3508   3.139   1.510   3.905
 1168TIP3   OH2 3509   3.591   4.830   1.416
 1168TIP3    H1 3510   3.629   4.888   1.482
 1168TIP3    H2 3511   3.501   4.861   1.406
 1169TIP3   OH2 3512   0.024   0.970   0.318
 1169TIP3    H1 3513   0.026   1.039   0.252
 1169TIP3    H2 3514   0.006   1.017   0.400
 1170TIP3   OH2 3515   4.106   2.689   4.679
 1170TIP3    H1 3516   4.019   2.694   4.638
 1170TIP3    H2 3517   4.166   2.722   4.612
 1171TIP3   OH2 3518   3.532   2.786   2.793
 1171TIP3    H1 3519   3.497   2.844   2.861
 1171TIP3    H2 3520   3.587   2.724   2.841
 1172TIP3   OH2 3521   4.550   0.113   0.953
 1172TIP3    H1 3522   4.605   0.177   0.998
 1172TIP3    H2 3523   4.500   0.071   1.023
 1173TIP3   OH2 3524   1.119   2.281   4.679
 1173TIP3    H1 3525   1.074   2.292   4.596
 1173TIP3    H2 3526   1.148   2.369   4.703
 1174TIP3   OH2 3527   0.828   4.076   0.791
 1174TIP3    H1 3528   0.908   4.108   0.749
 1174TIP3    H2 3529   0.843   3.982   0.801
 1175TIP3   OH2 3530   2.862   0.550   3.987
 1175TIP3    H1 3531   2.843   0.643   3.982
 1175TIP3    H2 3532   2.798   0.515   4.049
 1176TIP3   OH2 3533   5.840   4.341   3.690
 1176TIP3    H1 3534   5.818   4.408   3.755
 1176TIP3    H2 3535   5.936   4.341   3.688
 1177TIP3   OH2 3536   6.280   0.855   2.499
 1177TIP3    H1 3537   6.342   0.787   2.526
 1177TIP3    H2 3538   6.269   0.841   2.405
 1178TIP3   OH2 3539   4.677   4.456   1.595
 1178TIP3    H1 3540   4.686   4.387   1.661
 1178TIP3    H2 3541   4.725   4.423   1.519
 1179TIP3   OH2 3542   0.669   2.963   3.152
 1179TIP3    H1 3543   0.588   3.013   3.159
 1179TIP3    H2 3544   0.662   2.916   3.069
 1180TIP3   OH2 3545   4.589   1.822   1.264
 1180TIP3    H1 3546   4.575   1.731   1.290
 1180TIP3    H2 3547   4.678   1.823   1.228
 1181TIP3   OH2 3548   4.271   3.798   5.110
 1181TIP3    H1 3549   4.181   3.814   5.080
 1181TIP3    H2 3550   4.261   3.762   5.198
 1182TIP3   OH2 3551   6.141   3.714   5.111
 1182TIP3    H1 3552   6.222   3.744   5.151
 1182TIP3    H2 3553   6.076   3.779   5.135
 1183TIP3   OH2 3554   2.553   1.569   1.399
 1183TIP3    H1 3555   2.564   1.540   1.489
 1183TIP3    H2 3556   2.519   1.658   1.407
 1184TIP3   OH2 3557   5.596   3.160   3.139
 1184TIP3    H1 3558   5.520   3.158   3.197
 1184TIP3    H2 3559   5.671   3.141   3.196
 1185TIP3   OH2 3560   3.071   4.884   0.471
 1185TIP3    H1 3561   3.071   4.978   0.485
 1185TIP3    H2 3562   3.140   4.851   0.529
 1186TIP3   OH2 3563   6.317   3.801   3.278
 1186TIP3    H1 3564   6.367   3.780   3.356
 1186TIP3    H2 3565   6.347   3.888   3.253
 1187TIP3   OH2 3566   1.260   4.485   2.092
 1187TIP3    H1 3567   1.217   4.422   2.034
 1187TIP3    H2 3568   1.350   4.490   2.058
 1188TIP3   OH2 3569   1.810   5.591   0.274
 1188TIP3    H1 3570   1.902   5.598   0.250
 1188TIP3    H2 3571   1.774   5.526   0.214
 1189TIP3   OH2 3572   2.295   3.355   2.122
 1189TIP3    H1 3573   2.235   3.415   2.078
 1189TIP3    H2 3574   2.320   3.401   2.202
 1190TIP3   OH2 3575   4.110   3.663   0.337
 1190TIP3    H1 3576   4.037   3.665   0.275
 1190TIP3    H2 3577   4.092   3.587   0.392
 1191TIP3   OH2 3578   0.806   3.080   0.560
 1191TIP3    H1 3579   0.731   3.128   0.595
 1191TIP3    H2 3580   0.842   3.034   0.636
 1192TIP3   OH2 3581   5.113   0.567   4.048
 1192TIP3    H1 3582   5.067   0.538   4.127
 1192TIP3    H2 3583   5.159   0.646   4.075
 1193TIP3   OH2 3584   4.705   5.046   4.002
 1193TIP3    H1 3585   4.756   5.081   3.928
 1193TIP3    H2 3586   4.739   5.091   4.079
 1194TIP3   OH2 3587   4.141   2.982   4.354
 1194TIP3    H1 3588   4.101   2.978   4.267
 1194TIP3    H2 3589   4.096   3.054   4.398
 1195TIP3   OH2 3590   0.649   4.600   2.834
 1195TIP3    H1 3591   0.557   4.616   2.816
 1195TIP3    H2 3592   0.679   4.679   2.880
 1196TIP3   OH2 3593   0.723   5.524   3.153
 1196TIP3    H1 3594   0.628   5.516   3.162
 1196TIP3    H2 3595   0.738   5.617   3.137
 1197TIP3   OH2 3596   4.043   2.093   1.664
 1197TIP3    H1 3597   4.038   2.033   1.739
 1197TIP3    H2 3598   4.115   2.059   1.610
 1198TIP3   OH2 3599   3.382   4.156   4.339
 1198TIP3    H1 3600   3.468   4.162   4.296
 1198TIP3    H2 3601   3.374   4.065   4.366
 1199TIP3   OH2 3602   4.915   0.840   2.744
 1199TIP3    H1 3603   4.881   0.764   2.792
 1199TIP3    H2 3604   4.914   0.911   2.809
 1200TIP3   OH2 3605   3.477   4.971   2.228
 1200TIP3    H1 3606   3.482   5.024   2.148
 1200TIP3    H2 3607   3.565   4.978   2.267
 1201TIP3   OH2 3608   3.228   5.102   2.827
 1201TIP3    H1 3609   3.189   5.030   2.877
 1201TIP3    H2 3610   3.165   5.119   2.757
 1202TIP3   OH2 3611   6.234   5.918   1.658
 1202TIP3    H1 3612   6.161   5.949   1.604
 1202TIP3    H2 3613   6.211   5.827   1.679
 1203TIP3   OH2 3614   0.253   3.015   1.139
 1203TIP3    H1 3615   0.174   3.037   1.187
 1203TIP3    H2 3616   0.228   3.018   1.047
 1204TIP3   OH2 3617   0.347   3.179   1.493
 1204TIP3    H1 3618   0.335   3.211   1.404
 1204TIP3    H2 3619   0.258   3.175   1.529
 1205TIP3   OH2 3620   0.720   5.567   3.615
 1205TIP3    H1 3621   0.630   5.599   3.613
 1205TIP3    H2 3622   0.711   5.473   3.630
 1206TIP3   OH2 3623   0.001   2.956   0.758
 1206TIP3    H1 3624   0.007   3.002   0.841
 1206TIP3    H2 3625   0.044   3.015   0.695
 1207TIP3   OH2 3626   2.964   5.197   1.069
 1207TIP3    H1 3627   2.891   5.136   1.066
 1207TIP3    H2 3628   3.032   5.155   1.016
 1208TIP3   OH2 3629   1.813   5.884   4.183
 1208TIP3    H1 3630   1.838   5.970   4.218
 1208TIP3    H2 3631   1.749   5.904   4.115
 1209TIP3   OH2 3632   4.260   1.582   1.767
 1209TIP3    H1 3633   4.251   1.650   1.835
 1209TIP3    H2 3634   4.232   1.625   1.686
 1210TIP3   OH2 3635   2.612   4.774   1.410
 1210TIP3    H1 3636   2.631   4.706   1.345
 1210TIP3    H2 3637   2.577   4.847   1.360
 1211TIP3   OH2 3638   4.753   3.774   3.206
 1211TIP3    H1 3639   4.712   3.769   3.292
 1211TIP3    H2 3640   4.789   3.687   3.191
 1212TIP3   OH2 3641   3.724   4.844   4.063
 1212TIP3    H1 3642   3.760   4.932   4.072
 1212TIP3    H2 3643   3.743   4.819   3.973
 1213TIP3   OH2 3644   5.009   4.730   1.678
 1213TIP3    H1 3645   4.955   4.705   1.753
 1213TIP3    H2 3646   4.978   4.672   1.607
 1214TIP3   OH2 3647   0.721   3.059   4.469
 1214TIP3    H1 3648   0.778   2.983   4.479
 1214TIP3    H2 3649   0.687   3.052   4.380
 1215TIP3   OH2 3650   2.577   4.319   1.419
 1215TIP3    H1 3651   2.512   4.362   1.474
 1215TIP3    H2 3652   2.604   4.242   1.469
 1216TIP3   OH2 3653   0.747   4.182   2.352
 1216TIP3    H1 3654   0.729   4.257   2.408
 1216TIP3    H2 3655   0.677   4.184   2.286
 1217TIP3   OH2 3656   5.758   5.497   3.465
 1217TIP3    H1 3657   5.811   5.432   3.512
 1217TIP3    H2 3658   5.758   5.574   3.522
 1218TIP3   OH2 3659   6.361   2.115   3.292
 1218TIP3    H1 3660   6.308   2.105   3.213
 1218TIP3    H2 3661   6.305   2.082   3.362
 1219TIP3   OH2 3662   1.542   5.068   0.688
 1219TIP3    H1 3663   1.521   5.160   0.703
 1219TIP3    H2 3664   1.537   5.028   0.775
 1220TIP3   OH2 3665   4.903   0.550   4.828
 1220TIP3    H1 3666   4.917   0.459   4.802
 1220TIP3    H2 3667   4.830   0.547   4.889
 1221TIP3   OH2 3668   4.104   0.332   0.539
 1221TIP3    H1 3669   4.137   0.417   0.568
 1221TIP3    H2 3670   4.130   0.326   0.447
 1222TIP3   OH2 3671   0.604   0.001   0.514
 1222TIP3    H1 3672   0.563  -0.007   0.600
 1222TIP3    H2 3673   0.692  -0.034   0.526
 1223TIP3   OH2 3674   4.674   2.639   4.522
 1223TIP3    H1 3675   4.587   2.677   4.514
 1223TIP3    H2 3676   4.729   2.711   4.553
 1224TIP3   OH2 3677   4.864   0.136   4.446
 1224TIP3    H1 3678   4.832   0.134   4.356
 1224TIP3    H2 3679   4.834   0.053   4.483
 1225TIP3   OH2 3680   6.074   0.963   1.634
 1225TIP3    H1 3681   6.106   0.923   1.715
 1225TIP3    H2 3682   6.120   1.047   1.629
 1226TIP3   OH2 3683   4.885   5.628   4.046
 1226TIP3    H1 3684   4.850   5.575   3.974
 1226TIP3    H2 3685   4.935   5.566   4.098
 1227TIP3   OH2 3686   5.191   4.705   1.888
 1227TIP3    H1 3687   5.119   4.744   1.838
 1227TIP3    H2 3688   5.188   4.747   1.973
 1228TIP3   OH2 3689   5.388   2.921   1.159
 1228TIP3    H1 3690   5.384   2.932   1.064
 1228TIP3    H2 3691   5.297   2.915   1.186
 1229TIP3   OH2 3692   1.416   2.433   4.794
 1229TIP3    H1 3693   1.415   2.529   4.799
 1229TIP3    H2 3694   1.426   2.405   4.885
 1230TIP3   OH2 3695   1.911   1.652   2.778
 1230TIP3    H1 3696   1.988   1.605   2.808
 1230TIP3    H2 3697   1.844   1.585   2.768
 1231TIP3   OH2 3698   2.835   1.729   2.634
 1231TIP3    H1 3699   2.777   1.800   2.605
 1231TIP3    H2 3700   2.919   1.749   2.592
 1232TIP3   OH2 3701   3.349   4.423   3.446
 1232TIP3    H1 3702   3.316   4.432   3.535
 1232TIP3    H2 3703   3.401   4.343   3.446
 1233TIP3   OH2 3704   6.057   5.385   3.610
 1233TIP3    H1 3705   6.143   5.369   3.571
 1233TIP3    H2 3706   6.050   5.480   3.615
 1234TIP3   OH2 3707   3.269   1.305   3.464
 1234TIP3    H1 3708   3.304   1.224   3.501
 1234TIP3    H2 3709   3.337   1.335   3.404
 1235TIP3   OH2 3710   0.780   2.242   1.598
 1235TIP3    H1 3711   0.799   2.333   1.622
 1235TIP3    H2 3712   0.751   2.246   1.507
 1236TIP3   OH2 3713   5.004   4.362   1.677
 1236TIP3    H1 3714   4.987   4.268   1.676
 1236TIP3    H2 3715   5.020   4.383   1.769
 1237TIP3   OH2 3716   3.664   0.460   3.750
 1237TIP3    H1 3717   3.753   0.464   3.785
 1237TIP3    H2 3718   3.675   0.464   3.655
 1238TIP3   OH2 3719   5.562   2.392   2.363
 1238TIP3    H1 3720   5.652   2.423   2.374
 1238TIP3    H2 3721   5.508   2.468   2.384
 1239TIP3   OH2 3722   2.074   5.707   4.755
 1239TIP3    H1 3723   2.075   5.781   4.817
 1239TIP3    H2 3724   2.139   5.731   4.689
 1240TIP3   OH2 3725   2.768   0.032   2.175
 1240TIP3    H1 3726   2.800   0.004   2.261
 1240TIP3    H2 3727   2.694  -0.025   2.157
 1241TIP3   OH2 3728   4.511   0.343   3.978
 1241TIP3    H1 3729   4.440   0.344   3.914
 1241TIP3    H2 3730   4.574   0.406   3.945
 1242TIP3   OH2 3731   5.303   2.226   2.852
 1242TIP3    H1 3732   5.341   2.163   2.913
 1242TIP3    H2 3733   5.275   2.299   2.907
 1243TIP3   OH2 3734   2.407   0.503   2.187
 1243TIP3    H1 3735   2.407   0.445   2.111
 1243TIP3    H2 3736   2.377   0.587   2.154
 1244TIP3   OH2 3737   3.123   0.932   3.065
 1244TIP3    H1 3738   3.070   0.881   3.004
 1244TIP3    H2 3739   3.120   0.883   3.147
 1245TIP3   OH2 3740   2.417   4.986   1.250
 1245TIP3    H1 3741   2.338   4.986   1.304
 1245TIP3    H2 3742   2.478   5.044   1.295
 1246TIP3   OH2 3743   5.147   5.787   2.089
 1246TIP3    H1 3744   5.083   5.775   2.159
 1246TIP3    H2 3745   5.096   5.814   2.013
 1247TIP3   OH2 3746   4.006   3.778   1.570
 1247TIP3    H1 3747   4.004   3.873   1.579
 1247TIP3    H2 3748   3.929   3.758   1.516
 1248TIP3   OH2 3749   1.815   5.627   2.037
 1248TIP3    H1 3750   1.852   5.542   2.061
 1248TIP3    H2 3751   1.783   5.614   1.947
 1249TIP3   OH2 3752   0.369   4.656   2.723
 1249TIP3    H1 3753   0.340   4.710   2.796
 1249TIP3    H2 3754   0.289   4.620   2.685
 1250TIP3   OH2 3755   2.574   2.602   1.326
 1250TIP3    H1 3756   2.636   2.629   1.394
 1250TIP3    H2 3757   2.592   2.661   1.253
 1251TIP3   OH2 3758   5.545   0.847   0.470
 1251TIP3    H1 3759   5.617   0.859   0.531
 1251TIP3    H2 3760   5.493   0.927   0.479
 1252TIP3   OH2 3761   1.431   0.825   0.952
 1252TIP3    H1 3762   1.443   0.919   0.968
 1252TIP3    H2 3763   1.454   0.783   1.035
 1253TIP3   OH2 3764   4.678   3.406   2.308
 1253TIP3    H1 3765   4.602   3.444   2.264
 1253TIP3    H2 3766   4.745   3.404   2.239
 1254TIP3   OH2 3767   0.482   4.239   1.252
 1254TIP3    H1 3768   0.450   4.325   1.279
 1254TIP3    H2 3769   0.574   4.239   1.277
 1255TIP3   OH2 3770   4.957   3.124   3.314
 1255TIP3    H1 3771   4.964   3.062   3.387
 1255TIP3    H2 3772   4.990   3.207   3.349
 1256TIP3   OH2 3773   4.819   2.311   4.319
 1256TIP3    H1 3774   4.832   2.216   4.311
 1256TIP3    H2 3775   4.896   2.349   4.277
 1257TIP3   OH2 3776   3.052   2.943   2.506
 1257TIP3    H1 3777   3.008   2.898   2.579
 1257TIP3    H2 3778   3.036   3.036   2.522
 1258TIP3   OH2 3779   2.584   3.528   4.448
 1258TIP3    H1 3780   2.676   3.546   4.434
 1258TIP3    H2 3781   2.538   3.594   4.395
 1259TIP3   OH2 3782   3.559   4.677   1.810
 1259TIP3    H1 3783   3.630   4.724   1.767
 1259TIP3    H2 3784   3.590   4.663   1.899
 1260TIP3   OH2 3785   5.707   3.974   3.040
 1260TIP3    H1 3786   5.650   3.929   2.977
 1260TIP3    H2 3787   5.770   3.906   3.067
 1261TIP3   OH2 3788   2.223   3.897   3.386
 1261TIP3    H1 3789   2.288   3.929   3.324
 1261TIP3    H2 3790   2.219   3.964   3.454
 1262TIP3   OH2 3791   0.034   3.374   3.210
 1262TIP3    H1 3792  -0.028   3.335   3.150
 1262TIP3    H2 3793  -0.012   3.379   3.294
 1263TIP3   OH2 3794   1.316   3.399   2.632
 1263TIP3    H1 3795   1.301   3.481   2.679
 1263TIP3    H2 3796   1.409   3.380   2.646
 1264TIP3   OH2 3797   2.436   2.390   0.240
 1264TIP3    H1 3798   2.492   2.448   0.188
 1264TIP3    H2 3799   2.422   2.314   0.184
 1265TIP3   OH2 3800   3.233   5.581   4.445
 1265TIP3    H1 3801   3.155   5.576   4.391
 1265TIP3    H2 3802   3.259   5.673   4.444
 1266TIP3   OH2 3803   4.979   2.325   0.887
 1266TIP3    H1 3804   5.027   2.333   0.969
 1266TIP3    H2 3805   4.893   2.363   0.906
 1267TIP3   OH2 3806   0.954   4.195   1.431
 1267TIP3    H1 3807   0.892   4.191   1.358
 1267TIP3    H2 3808   0.917   4.136   1.497
 1268TIP3   OH2 3809   4.765   2.028   2.774
 1268TIP3    H1 3810   4.691   1.984   2.732
 1268TIP3    H2 3811   4.753   2.120   2.752
 1269TIP3   OH2 3812   1.321   0.844   2.082
 1269TIP3    H1 3813   1.285   0.883   2.003
 1269TIP3    H2 3814   1.394   0.790   2.052
 1270TIP3   OH2 3815   1.326   2.743   3.538
 1270TIP3    H1 3816   1.406   2.723   3.490
 1270TIP3    H2 3817   1.328   2.838   3.551
 1271TIP3   OH2 3818   4.988   2.817   4.363
 1271TIP3    H1 3819   4.917   2.762   4.331
 1271TIP3    H2 3820   5.052   2.818   4.292
 1272TIP3   OH2 3821   3.364   3.746   4.008
 1272TIP3    H1 3822   3.271   3.727   4.023
 1272TIP3    H2 3823   3.369   3.767   3.915
 1273TIP3   OH2 3824   3.377   3.650   2.829
 1273TIP3    H1 3825   3.398   3.628   2.919
 1273TIP3    H2 3826   3.440   3.719   2.805
 1274TIP3   OH2 3827   5.891   5.066   2.549
 1274TIP3    H1 3828   5.942   4.987   2.568
 1274TIP3    H2 3829   5.830   5.039   2.480
 1275TIP3   OH2 3830   1.835   3.448   1.598
 1275TIP3    H1 3831   1.740   3.462   1.594
 1275TIP3    H2 3832   1.847   3.386   1.670
 1276TIP3   OH2 3833   5.769   2.892   4.706
 1276TIP3    H1 3834   5.675   2.903   4.690
 1276TIP3    H2 3835   5.782   2.926   4.795
 1277TIP3   OH2 3836   1.610   4.204   1.347
 1277TIP3    H1 3837   1.583   4.270   1.283
 1277TIP3    H2 3838   1.555   4.129   1.329
 1278TIP3   OH2 3839   1.946   1.834   3.026
 1278TIP3    H1 3840   1.915   1.773   2.959
 1278TIP3    H2 3841   1.867   1.877   3.057
 1279TIP3   OH2 3842   1.760   2.714   1.980
 1279TIP3    H1 3843   1.798   2.776   2.042
 1279TIP3    H2 3844   1.833   2.657   1.955
 1280TIP3   OH2 3845   1.090   4.412   4.383
 1280TIP3    H1 3846   1.056   4.459   4.307
 1280TIP3    H2 3847   1.163   4.361   4.349
 1281TIP3   OH2 3848   2.690   1.107   0.986
 1281TIP3    H1 3849   2.675   1.146   0.900
 1281TIP3    H2 3850   2.656   1.018   0.979
 1282TIP3   OH2 3851   1.411   0.576   2.345
 1282TIP3    H1 3852   1.441   0.539   2.262
 1282TIP3    H2 3853   1.435   0.510   2.410
 1283TIP3   OH2 3854   5.475   5.761   4.714
 1283TIP3    H1 3855   5.562   5.724   4.728
 1283TIP3    H2 3856   5.425   5.736   4.791
 1284TIP3   OH2 3857  -0.002   3.797   2.116
 1284TIP3    H1 3858   0.064   3.797   2.185
 1284TIP3    H2 3859   0.033   3.857   2.049
 1285TIP3   OH2 3860   1.623   1.265   3.555
 1285TIP3    H1 3861   1.615   1.201   3.626
 1285TIP3    H2 3862   1.559   1.333   3.576
 1286TIP3   OH2 3863   3.718   4.044   4.758
 1286TIP3    H1 3864   3.626   4.048   4.785
 1286TIP3    H2 3865   3.767   4.074   4.835
 1287TIP3   OH2 3866   6.166   1.372   4.206
 1287TIP3    H1 3867   6.235   1.340   4.265
 1287TIP3    H2 3868   6.178   1.467   4.207
 1288TIP3   OH2 3869   2.592   5.424   3.349
 1288TIP3    H1 3870   2.646   5.358   3.392
 1288TIP3    H2 3871   2.634   5.438   3.264
 1289TIP3   OH2 3872   4.856   4.581   3.618
 1289TIP3    H1 3873   4.775   4.606   3.665
 1289TIP3    H2 3874   4.926   4.598   3.681
 1290TIP3   OH2 3875   0.607   4.113   0.632
 1290TIP3    H1 3876   0.690   4.136   0.674
 1290TIP3    H2 3877   0.544   4.174   0.671
 1291TIP3   OH2 3878   4.644   1.559   0.456
 1291TIP3    H1 3879   4.644   1.651   0.483
 1291TIP3    H2 3880   4.726   1.524   0.489
 1292TIP3   OH2 3881   2.829   4.511   1.662
 1292TIP3    H1 3882   2.864   4.593   1.696
 1292TIP3    H2 3883   2.744   4.501   1.705
 1293TIP3   OH2 3884   5.733   1.615   2.657
 1293TIP3    H1 3885   5.785   1.534   2.651
 1293TIP3    H2 3886   5.746   1.658   2.573
 1294TIP3   OH2 3887   1.874   1.692   3.745
 1294TIP3    H1 3888   1.841   1.641   3.818
 1294TIP3    H2 3889   1.918   1.767   3.785
 1295TIP3   OH2 3890   2.814   2.049   2.302
 1295TIP3    H1 3891   2.888   2.100   2.332
 1295TIP3    H2 3892   2.760   2.111   2.253
 1296TIP3   OH2 3893   0.382   3.378   2.029
 1296TIP3    H1 3894   0.349   3.354   1.942
 1296TIP3    H2 3895   0.467   3.418   2.013
 1297TIP3   OH2 3896   5.083   2.936   4.719
 1297TIP3    H1 3897   5.124   2.985   4.649
 1297TIP3    H2 3898   5.065   3.002   4.787
 1298TIP3   OH2 3899   0.801   2.954   4.847
 1298TIP3    H1 3900   0.749   2.942   4.926
 1298TIP3    H2 3901   0.795   2.871   4.801
 1299TIP3   OH2 3902   1.195   4.433   3.005
 1299TIP3    H1 3903   1.117   4.382   2.983
 1299TIP3    H2 3904   1.212   4.486   2.927
 1300TIP3   OH2 3905   1.661   5.982   4.571
 1300TIP3    H1 3906   1.705   5.901   4.597
 1300TIP3    H2 3907   1.585   5.987   4.630
 1301TIP3   OH2 3908   3.478   3.577   3.596
 1301TIP3    H1 3909   3.454   3.545   3.509
 1301TIP3    H2 3910   3.559   3.531   3.617
 1302TIP3   OH2 3911   5.502   0.258   0.084
 1302TIP3    H1 3912   5.536   0.334   0.132
 1302TIP3    H2 3913   5.500   0.286  -0.008
 1303TIP3   OH2 3914   0.806   5.123   3.739
 1303TIP3    H1 3915   0.748   5.103   3.812
 1303TIP3    H2 3916   0.788   5.215   3.718
 1304TIP3   OH2 3917   2.530   3.519   1.216
 1304TIP3    H1 3918   2.545   3.464   1.139
 1304TIP3    H2 3919   2.596   3.589   1.209
 1305TIP3   OH2 3920   1.534   1.655   3.318
 1305TIP3    H1 3921   1.439   1.665   3.325
 1305TIP3    H2 3922   1.568   1.682   3.403
 1306TIP3   OH2 3923   1.614   5.056   3.077
 1306TIP3    H1 3924   1.682   5.120   3.056
 1306TIP3    H2 3925   1.583   5.025   2.992
 1307TIP3   OH2 3926   0.839   2.469   0.995
 1307TIP3    H1 3927   0.925   2.439   1.023
 1307TIP3    H2 3928   0.855   2.557   0.959
 1308TIP3   OH2 3929   0.597   5.243   2.209
 1308TIP3    H1 3930   0.538   5.294   2.153
 1308TIP3    H2 3931   0.652   5.193   2.148
 1309TIP3   OH2 3932   5.030   1.762   0.965
 1309TIP3    H1 3933   5.019   1.761   0.870
 1309TIP3    H2 3934   5.057   1.673   0.988
 1310TIP3   OH2 3935   1.717   3.748   1.594
 1310TIP3    H1 3936   1.780   3.678   1.612
 1310TIP3    H2 3937   1.675   3.721   1.512
 1311TIP3   OH2 3938   2.246   3.392   0.390
 1311TIP3    H1 3939   2.267   3.473   0.438
 1311TIP3    H2 3940   2.214   3.332   0.457
 1312TIP3   OH2 3941   2.323   0.618   1.331
 1312TIP3    H1 3942   2.253   0.577   1.381
 1312TIP3    H2 3943   2.327   0.708   1.364
 1313TIP3   OH2 3944   2.277   0.037   3.340
 1313TIP3    H1 3945   2.310   0.007   3.425
 1313TIP3    H2 3946   2.283   0.132   3.344
 1314TIP3   OH2 3947   3.364   0.133   2.963
 1314TIP3    H1 3948   3.427   0.061   2.960
 1314TIP3    H2 3949   3.310   0.121   2.885
 1315TIP3   OH2 3950   4.411   4.357   4.569
 1315TIP3    H1 3951   4.372   4.322   4.489
 1315TIP3    H2 3952   4.482   4.413   4.538
 1316TIP3   OH2 3953   4.818   2.087   0.516
 1316TIP3    H1 3954   4.909   2.101   0.543
 1316TIP3    H2 3955   4.772   2.066   0.597
 1317TIP3   OH2 3956   6.143   1.165   3.556
 1317TIP3    H1 3957   6.056   1.146   3.521
 1317TIP3    H2 3958   6.201   1.102   3.513
 1318TIP3   OH2 3959   4.938   5.480   4.276
 1318TIP3    H1 3960   5.031   5.500   4.278
 1318TIP3    H2 3961   4.896   5.555   4.317
 1319TIP3   OH2 3962   2.054   1.251   0.251
 1319TIP3    H1 3963   2.047   1.159   0.278
 1319TIP3    H2 3964   1.995   1.298   0.310
 1320TIP3   OH2 3965   4.429   3.157   4.629
 1320TIP3    H1 3966   4.481   3.098   4.574
 1320TIP3    H2 3967   4.387   3.100   4.693
 1321TIP3   OH2 3968   5.543   1.141   4.958
 1321TIP3    H1 3969   5.586   1.110   4.879
 1321TIP3    H2 3970   5.450   1.141   4.937
 1322TIP3   OH2 3971   2.947   5.833   0.492
 1322TIP3    H1 3972   3.024   5.809   0.442
 1322TIP3    H2 3973   2.957   5.927   0.507
 1323TIP3   OH2 3974   3.260   1.473   0.434
 1323TIP3    H1 3975   3.268   1.493   0.340
 1323TIP3    H2 3976   3.306   1.545   0.478
 1324TIP3   OH2 3977   1.731   5.918   4.906
 1324TIP3    H1 3978   1.723   6.011   4.884
 1324TIP3    H2 3979   1.762   5.877   4.825
 1325TIP3   OH2 3980   5.863   4.361   0.892
 1325TIP3    H1 3981   5.887   4.402   0.809
 1325TIP3    H2 3982   5.767   4.362   0.893
 1326TIP3   OH2 3983   5.708   2.068   5.024
 1326TIP3    H1 3984   5.769   2.023   4.966
 1326TIP3    H2 3985   5.713   2.160   4.998
 1327TIP3   OH2 3986   3.206   3.181   0.617
 1327TIP3    H1 3987   3.247   3.263   0.589
 1327TIP3    H2 3988   3.142   3.207   0.683
 1328TIP3   OH2 3989   6.039   1.246   3.198
 1328TIP3    H1 3990   5.953   1.287   3.199
 1328TIP3    H2 3991   6.043   1.197   3.281
 1329TIP3   OH2 3992   0.208   2.626   2.336
 1329TIP3    H1 3993   0.150   2.606   2.261
 1329TIP3    H2 3994   0.148   2.659   2.403
 1330TIP3   OH2 3995   2.640   0.922   3.841
 1330TIP3    H1 3996   2.667   0.929   3.749
 1330TIP3    H2 3997   2.626   1.012   3.869
 1331TIP3   OH2 3998   1.577   2.445   3.689
 1331TIP3    H1 3999   1.663   2.411   3.715
 1331TIP3    H2 4000   1.550   2.500   3.763
 1332TIP3   OH2 4001   5.949   0.851   4.002
 1332TIP3    H1 4002   5.951   0.907   4.080
 1332TIP3    H2 4003   5.935   0.911   3.929
 1333TIP3   OH2 4004   0.453   2.938   0.576
 1333TIP3    H1 4005   0.380   2.955   0.636
 1333TIP3    H2 4006   0.423   2.970   0.491
 1334TIP3   OH2 4007   3.591   4.598   1.257
 1334TIP3    H1 4008   3.572   4.688   1.284
 1334TIP3    H2 4009   3.507   4.553   1.265
 1335TIP3   OH2 4010   5.893   5.394   0.782
 1335TIP3    H1 4011   5.916   5.486   0.770
 1335TIP3    H2 4012   5.977   5.348   0.785
 1336TIP3   OH2 4013   5.708   5.229   3.622
 1336TIP3    H1 4014   5.671   5.217   3.535
 1336TIP3    H2 4015   5.643   5.191   3.682
 1337TIP3   OH2 4016   4.408   5.947   0.525
 1337TIP3    H1 4017   4.399   5.858   0.490
 1337TIP3    H2 4018   4.457   5.936   0.606
 1338TIP3   OH2 4019   0.700   2.752   2.878
 1338TIP3    H1 4020   0.767   2.741   2.945
 1338TIP3    H2 4021   0.748   2.774   2.799
 1339TIP3   OH2 4022   0.673   1.080   4.206
 1339TIP3    H1 4023   0.686   1.158   4.153
 1339TIP3    H2 4024   0.714   1.009   4.156
 1340TIP3   OH2 4025   2.736   2.083   4.053
 1340TIP3    H1 4026   2.787   2.016   4.097
 1340TIP3    H2 4027   2.737   2.158   4.113
 1341TIP3   OH2 4028   2.902   1.867   4.617
 1341TIP3    H1 4029   2.839   1.838   4.682
 1341TIP3    H2 4030   2.950   1.938   4.659
 1342TIP3   OH2 4031   4.952   5.917   2.304
 1342TIP3    H1 4032   4.885   5.985   2.301
 1342TIP3    H2 4033   5.028   5.956   2.260
 1343TIP3   OH2 4034   0.647   3.501   1.981
 1343TIP3    H1 4035   0.718   3.533   1.926
 1343TIP3    H2 4036   0.568   3.539   1.943
 1344TIP3   OH2 4037   2.499   2.758   3.774
 1344TIP3    H1 4038   2.507   2.752   3.679
 1344TIP3    H2 4039   2.584   2.730   3.807
 1345TIP3   OH2 4040   1.450   0.509   2.046
 1345TIP3    H1 4041   1.498   0.582   2.008
 1345TIP3    H2 4042   1.453   0.441   1.978
 1346TIP3   OH2 4043   1.075   5.916   0.501
 1346TIP3    H1 4044   1.088   5.989   0.561
 1346TIP3    H2 4045   1.014   5.950   0.435
 1347TIP3   OH2 4046   1.553   0.168   1.205
 1347TIP3    H1 4047   1.526   0.175   1.114
 1347TIP3    H2 4048   1.647   0.186   1.204
 1348TIP3   OH2 4049   1.744   2.726   4.752
 1348TIP3    H1 4050   1.785   2.656   4.702
 1348TIP3    H2 4051   1.763   2.805   4.701
 1349TIP3   OH2 4052   4.127   0.715   1.253
 1349TIP3    H1 4053   4.067   0.647   1.285
 1349TIP3    H2 4054   4.116   0.788   1.314
 1350TIP3   OH2 4055   2.969   0.012   5.073
 1350TIP3    H1 4056   2.888  -0.024   5.110
 1350TIP3    H2 4057   2.943   0.049   4.989
 1351TIP3   OH2 4058   1.708   0.672   3.663
 1351TIP3    H1 4059   1.635   0.667   3.725
 1351TIP3    H2 4060   1.673   0.718   3.587
 1352TIP3   OH2 4061   4.158   3.298   0.217
 1352TIP3    H1 4062   4.177   3.323   0.308
 1352TIP3    H2 4063   4.133   3.206   0.222
 1353TIP3   OH2 4064   3.045   0.810   3.631
 1353TIP3    H1 4065   3.064   0.730   3.581
 1353TIP3    H2 4066   3.075   0.790   3.720
 1354TIP3   OH2 4067   6.373   3.586   2.824
 1354TIP3    H1 4068   6.327   3.664   2.794
 1354TIP3    H2 4069   6.307   3.534   2.870
 1355TIP3   OH2 4070   0.455   5.648   1.964
 1355TIP3    H1 4071   0.448   5.570   2.019
 1355TIP3    H2 4072   0.400   5.713   2.008
 1356TIP3   OH2 4073   0.847   2.741   2.399
 1356TIP3    H1 4074   0.789   2.815   2.415
 1356TIP3    H2 4075   0.815   2.702   2.317
 1357TIP3   OH2 4076   4.349   5.768   0.132
 1357TIP3    H1 4077   4.396   5.850   0.118
 1357TIP3    H2 4078   4.261   5.785   0.099
 1358TIP3   OH2 4079   6.337   2.853   3.022
 1358TIP3    H1 4080   6.274   2.782   3.030
 1358TIP3    H2 4081   6.411   2.826   3.075
 1359TIP3   OH2 4082   0.330   2.812   1.697
 1359TIP3    H1 4083   0.368   2.874   1.759
 1359TIP3    H2 4084   0.404   2.764   1.661
 1360TIP3   OH2 4085   2.233   0.482   4.545
 1360TIP3    H1 4086   2.278   0.483   4.629
 1360TIP3    H2 4087   2.244   0.570   4.510
 1361TIP3   OH2 4088   4.229   1.399   2.802
 1361TIP3    H1 4089   4.134   1.408   2.801
 1361TIP3    H2 4090   4.256   1.418   2.712
 1362TIP3   OH2 4091   1.051   4.313   5.149
 1362TIP3    H1 4092   1.024   4.225   5.176
 1362TIP3    H2 4093   1.000   4.372   5.203
 1363TIP3   OH2 4094   5.711   0.120   1.622
 1363TIP3    H1 4095   5.786   0.065   1.600
 1363TIP3    H2 4096   5.677   0.082   1.703
 1364TIP3   OH2 4097   4.803   2.455   5.099
 1364TIP3    H1 4098   4.788   2.510   5.023
 1364TIP3    H2 4099   4.764   2.503   5.172
 1365TIP3   OH2 4100   2.882   4.785   1.742
 1365TIP3    H1 4101   2.937   4.790   1.820
 1365TIP3    H2 4102   2.796   4.815   1.772
 1366TIP3   OH2 4103   1.098   3.589   4.210
 1366TIP3    H1 4104   1.132   3.643   4.282
 1366TIP3    H2 4105   1.145   3.507   4.217
 1367TIP3   OH2 4106   0.169   3.831   2.358
 1367TIP3    H1 4107   0.087   3.871   2.387
 1367TIP3    H2 4108   0.184   3.760   2.420
 1368TIP3   OH2 4109   6.363   0.014   4.408
 1368TIP3    H1 4110   6.410   0.094   4.388
 1368TIP3    H2 4111   6.352  -0.029   4.323
 1369TIP3   OH2 4112   1.640   4.443   2.849
 1369TIP3    H1 4113   1.617   4.535   2.854
 1369TIP3    H2 4114   1.579   4.399   2.908
 1370TIP3   OH2 4115   5.906   2.333   0.765
 1370TIP3    H1 4116   5.967   2.269   0.729
 1370TIP3    H2 4117   5.954   2.415   0.766
 1371TIP3   OH2 4118   2.640   2.789   0.583
 1371TIP3    H1 4119   2.730   2.757   0.588
 1371TIP3    H2 4120   2.622   2.823   0.670
 1372TIP3   OH2 4121   0.190   0.745   0.842
 1372TIP3    H1 4122   0.104   0.787   0.835
 1372TIP3    H2 4123   0.247   0.798   0.787
 1373TIP3   OH2 4124   6.220   0.840   2.887
 1373TIP3    H1 4125   6.217   0.771   2.821
 1373TIP3    H2 4126   6.206   0.795   2.970
 1374TIP3   OH2 4127   2.657   1.500   4.336
 1374TIP3    H1 4128   2.683   1.459   4.419
 1374TIP3    H2 4129   2.609   1.578   4.362
 1375TIP3   OH2 4130   4.673   0.754   4.217
 1375TIP3    H1 4131   4.642   0.822   4.278
 1375TIP3    H2 4132   4.761   0.783   4.192
 1376TIP3   OH2 4133   1.983   2.548   1.885
 1376TIP3    H1 4134   1.933   2.486   1.939
 1376TIP3    H2 4135   2.023   2.494   1.817
 1377TIP3   OH2 4136   1.263   2.342   5.034
 1377TIP3    H1 4137   1.190   2.313   4.979
 1377TIP3    H2 4138   1.292   2.264   5.080
 1378TIP3   OH2 4139   5.760   5.310   1.043
 1378TIP3    H1 4140   5.677   5.300   0.998
 1378TIP3    H2 4141   5.817   5.352   0.978
 1379TIP3   OH2 4142   5.876   3.893   1.458
 1379TIP3    H1 4143   5.826   3.815   1.483
 1379TIP3    H2 4144   5.948   3.896   1.521
 1380TIP3   OH2 4145   6.262   0.156   0.734
 1380TIP3    H1 4146   6.238   0.070   0.699
 1380TIP3    H2 4147   6.282   0.209   0.657
 1381TIP3   OH2 4148   5.350   2.039   3.061
 1381TIP3    H1 4149   5.443   2.029   3.038
 1381TIP3    H2 4150   5.346   2.021   3.155
 1382TIP3   OH2 4151   2.619   3.965   2.461
 1382TIP3    H1 4152   2.615   4.004   2.549
 1382TIP3    H2 4153   2.588   4.035   2.403
 1383TIP3   OH2 4154   1.302   4.043   2.492
 1383TIP3    H1 4155   1.229   3.983   2.506
 1383TIP3    H2 4156   1.264   4.130   2.507
 1384TIP3   OH2 4157   2.615   2.036   3.804
 1384TIP3    H1 4158   2.655   1.954   3.775
 1384TIP3    H2 4159   2.663   2.058   3.884
 1385TIP3   OH2 4160   1.500   2.775   5.153
 1385TIP3    H1 4161   1.436   2.711   5.123
 1385TIP3    H2 4162   1.523   2.825   5.074
 1386TIP3   OH2 4163   4.710   0.891   1.500
 1386TIP3    H1 4164   4.650   0.870   1.572
 1386TIP3    H2 4165   4.792   0.914   1.543
 1387TIP3   OH2 4166   2.421   1.830   1.439
 1387TIP3    H1 4167   2.334   1.806   1.471
 1387TIP3    H2 4168   2.457   1.887   1.507
 1388TIP3   OH2 4169   3.973   3.208   0.492
 1388TIP3    H1 4170   3.914   3.266   0.443
 1388TIP3    H2 4171   3.985   3.132   0.434
 1389TIP3   OH2 4172   2.528   1.563   3.855
 1389TIP3    H1 4173   2.619   1.536   3.869
 1389TIP3    H2 4174   2.525   1.654   3.883
 1390TIP3   OH2 4175   4.370   2.862   2.813
 1390TIP3    H1 4176   4.399   2.948   2.845
 1390TIP3    H2 4177   4.447   2.826   2.770
 1391TIP3   OH2 4178   3.371   2.353   0.705
 1391TIP3    H1 4179   3.447   2.314   0.662
 1391TIP3    H2 4180   3.296   2.312   0.661
 1392TIP3   OH2 4181   0.900   3.864   3.674
 1392TIP3    H1 4182   0.895   3.836   3.766
 1392TIP3    H2 4183   0.875   3.786   3.624
 1393TIP3   OH2 4184   2.983   2.371   0.450
 1393TIP3    H1 4185   2.898   2.362   0.493
 1393TIP3    H2 4186   2.962   2.406   0.363
 1394TIP3   OH2 4187   2.543   5.698   2.563
 1394TIP3    H1 4188   2.515   5.760   2.496
 1394TIP3    H2 4189   2.638   5.694   2.554
 1395TIP3   OH2 4190   3.520   1.711   2.459
 1395TIP3    H1 4191   3.487   1.714   2.549
 1395TIP3    H2 4192   3.451   1.753   2.407
 1396TIP3   OH2 4193   5.657   3.114   1.179
 1396TIP3    H1 4194   5.566   3.090   1.162
 1396TIP3    H2 4195   5.656   3.210   1.179
 1397TIP3   OH2 4196   3.703   5.978   2.924
 1397TIP3    H1 4197   3.676   6.033   2.851
 1397TIP3    H2 4198   3.621   5.946   2.962
 1398TIP3   OH2 4199   1.946   1.048   0.383
 1398TIP3    H1 4200   1.988   0.991   0.448
 1398TIP3    H2 4201   1.861   1.070   0.421
 1399TIP3   OH2 4202   5.917   0.504   3.149
 1399TIP3    H1 4203   5.912   0.444   3.075
 1399TIP3    H2 4204   5.873   0.457   3.220
 1400TIP3   OH2 4205   4.484   3.710   2.600
 1400TIP3    H1 4206   4.564   3.658   2.601
 1400TIP3    H2 4207   4.414   3.646   2.585
 1401TIP3   OH2 4208   1.661   5.141   4.826
 1401TIP3    H1 4209   1.623   5.225   4.802
 1401TIP3    H2 4210   1.595   5.076   4.802
 1402TIP3   OH2 4211   5.911   4.468   2.497
 1402TIP3    H1 4212   5.945   4.478   2.408
 1402TIP3    H2 4213   5.867   4.552   2.514
 1403TIP3   OH2 4214   3.831   0.472   1.460
 1403TIP3    H1 4215   3.910   0.491   1.410
 1403TIP3    H2 4216   3.849   0.388   1.503
 1404TIP3   OH2 4217   4.834   0.208   3.874
 1404TIP3    H1 4218   4.826   0.233   3.782
 1404TIP3    H2 4219   4.808   0.286   3.922
 1405TIP3   OH2 4220   5.737   5.036   1.102
 1405TIP3    H1 4221   5.712   5.008   1.190
 1405TIP3    H2 4222   5.742   5.131   1.108
 1406TIP3   OH2 4223   1.231   0.619   4.900
 1406TIP3    H1 4224   1.138   0.637   4.894
 1406TIP3    H2 4225   1.273   0.700   4.870
 1407TIP3   OH2 4226   2.767   2.734   3.855
 1407TIP3    H1 4227   2.772   2.822   3.892
 1407TIP3    H2 4228   2.787   2.676   3.929
 1408TIP3   OH2 4229   5.669   1.977   1.269
 1408TIP3    H1 4230   5.704   2.059   1.235
 1408TIP3    H2 4231   5.575   1.992   1.277
 1409TIP3   OH2 4232   5.918   0.034   3.471
 1409TIP3    H1 4233   5.962   0.097   3.528
 1409TIP3    H2 4234   5.987  -0.026   3.443
 1410TIP3   OH2 4235   2.402   2.630   2.906
 1410TIP3    H1 4236   2.448   2.566   2.961
 1410TIP3    H2 4237   2.472   2.679   2.862
 1411TIP3   OH2 4238   5.037   4.001   0.539
 1411TIP3    H1 4239   5.023   4.054   0.616
 1411TIP3    H2 4240   5.119   3.954   0.557
 1412TIP3   OH2 4241   1.561   4.283   4.435
 1412TIP3    H1 4242   1.569   4.188   4.430
 1412TIP3    H2 4243   1.506   4.299   4.511
 1413TIP3   OH2 4244   6.249   4.838   3.102
 1413TIP3    H1 4245   6.298   4.770   3.148
 1413TIP3    H2 4246   6.178   4.860   3.162
 1414TIP3   OH2 4247   6.142   5.918   5.014
 1414TIP3    H1 4248   6.107   5.839   5.053
 1414TIP3    H2 4249   6.107   5.989   5.068
 1415TIP3   OH2 4250   5.874   3.949   2.360
 1415TIP3    H1 4251   5.960   3.917   2.331
 1415TIP3    H2 4252   5.818   3.872   2.356
 1416TIP3   OH2 4253   4.689   2.077   1.370
 1416TIP3    H1 4254   4.701   1.994   1.323
 1416TIP3    H2 4255   4.655   2.137   1.305
 1417TIP3   OH2 4256   2.607   0.869   1.203
 1417TIP3    H1 4257   2.625   0.799   1.266
 1417TIP3    H2 4258   2.538   0.921   1.244
 1418TIP3   OH2 4259   3.648   5.421   0.172
 1418TIP3    H1 4260   3.623   5.329   0.176
 1418TIP3    H2 4261   3.565   5.469   0.184
 1419TIP3   OH2 4262   0.900   4.717   3.037
 1419TIP3    H1 4263   0.851   4.794   3.007
 1419TIP3    H2 4264   0.989   4.748   3.048
 1420TIP3   OH2 4265   0.497   2.596   4.263
 1420TIP3    H1 4266   0.405   2.618   4.249
 1420TIP3    H2 4267   0.528   2.565   4.178
 1421TIP3   OH2 4268   6.351   5.639   0.723
 1421TIP3    H1 4269   6.340   5.685   0.640
 1421TIP3    H2 4270   6.270   5.656   0.771
 1422TIP3   OH2 4271   0.621   1.102   0.939
 1422TIP3    H1 4272   0.575   1.029   0.981
 1422TIP3    H2 4273   0.671   1.061   0.868
 1423TIP3   OH2 4274   0.184   0.539   1.337
 1423TIP3    H1 4275   0.197   0.458   1.288
 1423TIP3    H2 4276   0.227   0.606   1.285
 1424TIP3   OH2 4277   4.080   3.545   3.399
 1424TIP3    H1 4278   4.174   3.557   3.389
 1424TIP3    H2 4279   4.043   3.563   3.313
 1425TIP3   OH2 4280   4.783   0.603   2.991
 1425TIP3    H1 4281   4.766   0.526   2.936
 1425TIP3    H2 4282   4.862   0.580   3.039
 1426TIP3   OH2 4283   3.908   4.745   2.579
 1426TIP3    H1 4284   3.851   4.695   2.521
 1426TIP3    H2 4285   3.884   4.716   2.667
 1427TIP3   OH2 4286   3.554   4.028   3.788
 1427TIP3    H1 4287   3.483   3.964   3.784
 1427TIP3    H2 4288   3.547   4.066   3.876
 1428TIP3   OH2 4289   6.051   1.568   2.586
 1428TIP3    H1 4290   6.091   1.482   2.576
 1428TIP3    H2 4291   6.027   1.594   2.496
 1429TIP3   OH2 4292   0.848   3.703   2.626
 1429TIP3    H1 4293   0.819   3.795   2.627
 1429TIP3    H2 4294   0.829   3.671   2.714
 1430TIP3   OH2 4295   6.045   3.574   3.522
 1430TIP3    H1 4296   5.979   3.505   3.531
 1430TIP3    H2 4297   6.090   3.552   3.440
 1431TIP3   OH2 4298   1.182   0.978   2.526
 1431TIP3    H1 4299   1.201   0.886   2.544
 1431TIP3    H2 4300   1.165   0.981   2.432
 1432TIP3   OH2 4301   3.982   0.556   3.286
 1432TIP3    H1 4302   4.018   0.625   3.342
 1432TIP3    H2 4303   4.043   0.483   3.295
 1433TIP3   OH2 4304   2.514   4.440   3.410
 1433TIP3    H1 4305   2.604   4.466   3.429
 1433TIP3    H2 4306   2.511   4.346   3.428
 1434TIP3   OH2 4307   6.011   0.805   4.656
 1434TIP3    H1 4308   6.076   0.779   4.591
 1434TIP3    H2 4309   5.927   0.785   4.616
 1435TIP3   OH2 4310   3.628   4.161   4.507
 1435TIP3    H1 4311   3.588   4.083   4.469
 1435TIP3    H2 4312   3.641   4.140   4.599
 1436TIP3   OH2 4313   2.540   0.124   0.032
 1436TIP3    H1 4314   2.598   0.164  -0.033
 1436TIP3    H2 4315   2.556   0.174   0.112
 1437TIP3   OH2 4316   2.429   3.540   4.903
 1437TIP3    H1 4317   2.431   3.486   4.824
 1437TIP3    H2 4318   2.386   3.621   4.876
 1438TIP3   OH2 4319   4.152   2.676   4.950
 1438TIP3    H1 4320   4.069   2.633   4.970
 1438TIP3    H2 4321   4.156   2.678   4.855
 1439TIP3   OH2 4322   0.357   4.965   3.995
 1439TIP3    H1 4323   0.339   4.875   3.969
 1439TIP3    H2 4324   0.406   4.957   4.077
 1440TIP3   OH2 4325   0.195   3.818   4.478
 1440TIP3    H1 4326   0.129   3.749   4.473
 1440TIP3    H2 4327   0.274   3.774   4.509
 1441TIP3   OH2 4328   2.427   3.432   2.624
 1441TIP3    H1 4329   2.357   3.419   2.688
 1441TIP3    H2 4330   2.507   3.435   2.677
 1442TIP3   OH2 4331   5.545   0.117   4.588
 1442TIP3    H1 4332   5.534   0.209   4.612
 1442TIP3    H2 4333   5.636   0.097   4.606
 1443TIP3   OH2 4334   2.290   2.922   2.220
 1443TIP3    H1 4335   2.338   2.926   2.303
 1443TIP3    H2 4336   2.334   2.986   2.164
 1444TIP3   OH2 4337   5.172   4.119   3.007
 1444TIP3    H1 4338   5.198   4.033   3.039
 1444TIP3    H2 4339   5.104   4.148   3.068
 1445TIP3   OH2 4340   1.920   0.740   3.872
 1445TIP3    H1 4341   1.861   0.769   3.804
 1445TIP3    H2 4342   1.980   0.813   3.885
 1446TIP3   OH2 4343   6.141   0.356   3.921
 1446TIP3    H1 4344   6.152   0.314   4.006
 1446TIP3    H2 4345   6.118   0.447   3.941
 1447TIP3   OH2 4346   2.706   3.722   2.647
 1447TIP3    H1 4347   2.780   3.676   2.609
 1447TIP3    H2 4348   2.637   3.718   2.581
 1448TIP3   OH2 4349   0.577   4.154   3.129
 1448TIP3    H1 4350   0.619   4.223   3.078
 1448TIP3    H2 4351   0.626   4.075   3.108
 1449TIP3   OH2 4352   3.334   5.073   2.432
 1449TIP3    H1 4353   3.252   5.026   2.446
 1449TIP3    H2 4354   3.386   5.013   2.377
 1450TIP3   OH2 4355   5.917   4.494   0.333
 1450TIP3    H1 4356   5.837   4.442   0.328
 1450TIP3    H2 4357   5.924   4.536   0.248
 1451TIP3   OH2 4358   1.043   2.236   2.935
 1451TIP3    H1 4359   1.001   2.262   2.853
 1451TIP3    H2 4360   1.047   2.140   2.930
 1452TIP3   OH2 4361   2.756   5.441   3.119
 1452TIP3    H1 4362   2.814   5.376   3.158
 1452TIP3    H2 4363   2.797   5.465   3.036
 1453TIP3   OH2 4364   2.794   4.535   2.356
 1453TIP3    H1 4365   2.714   4.490   2.383
 1453TIP3    H2 4366   2.795   4.616   2.407
 1454TIP3   OH2 4367   0.267   5.674   0.674
 1454TIP3    H1 4368   0.180   5.669   0.712
 1454TIP3    H2 4369   0.257   5.732   0.599
 1455TIP3   OH2 4370   1.515   0.533   4.898
 1455TIP3    H1 4371   1.428   0.519   4.860
 1455TIP3    H2 4372   1.498   0.561   4.988
 1456TIP3   OH2 4373   0.120   3.972   2.656
 1456TIP3    H1 4374   0.056   4.035   2.689
 1456TIP3    H2 4375   0.076   3.930   2.582
 1457TIP3   OH2 4376   0.180   4.883   2.377
 1457TIP3    H1 4377   0.119   4.815   2.406
 1457TIP3    H2 4378   0.203   4.930   2.457
 1458TIP3   OH2 4379   4.310   3.080   2.206
 1458TIP3    H1 4380   4.352   2.994   2.216
 1458TIP3    H2 4381   4.247   3.085   2.277
 1459TIP3   OH2 4382   2.903   3.578   0.616
 1459TIP3    H1 4383   2.887   3.576   0.710
 1459TIP3    H2 4384   2.840   3.641   0.582
 1460TIP3   OH2 4385   3.916   1.416   5.147
 1460TIP3    H1 4386   4.004   1.384   5.164
 1460TIP3    H2 4387   3.867   1.339   5.118
 1461TIP3   OH2 4388   3.391   3.900   4.788
 1461TIP3    H1 4389   3.440   3.979   4.810
 1461TIP3    H2 4390   3.301   3.919   4.813
 1462TIP3   OH2 4391   1.331   5.150   3.675
 1462TIP3    H1 4392   1.238   5.156   3.698
 1462TIP3    H2 4393   1.372   5.223   3.721
 1463TIP3   OH2 4394   6.031   3.285   3.508
 1463TIP3    H1 4395   6.121   3.318   3.507
 1463TIP3    H2 4396   6.035   3.204   3.557
 1464TIP3   OH2 4397   4.289   2.774   4.466
 1464TIP3    H1 4398   4.260   2.865   4.453
 1464TIP3    H2 4399   4.269   2.730   4.384
 1465TIP3   OH2 4400   1.568   0.794   1.229
 1465TIP3    H1 4401   1.569   0.883   1.194
 1465TIP3    H2 4402   1.536   0.804   1.319
 1466TIP3   OH2 4403   4.589   5.356   1.305
 1466TIP3    H1 4404   4.647   5.361   1.381
 1466TIP3    H2 4405   4.507   5.322   1.340
 1467TIP3   OH2 4406   4.553   1.097   4.678
 1467TIP3    H1 4407   4.525   1.182   4.643
 1467TIP3    H2 4408   4.472   1.051   4.696
 1468TIP3   OH2 4409   1.707   3.341   1.027
 1468TIP3    H1 4410   1.695   3.434   1.008
 1468TIP3    H2 4411   1.618   3.304   1.021
 1469TIP3   OH2 4412   1.270   4.960   0.317
 1469TIP3    H1 4413   1.210   4.990   0.385
 1469TIP3    H2 4414   1.330   5.033   0.303
 1470TIP3   OH2 4415   1.865   0.828   0.043
 1470TIP3    H1 4416   1.887   0.751   0.097
 1470TIP3    H2 4417   1.772   0.817   0.023
 1471TIP3   OH2 4418   2.053   4.785   4.184
 1471TIP3    H1 4419   1.983   4.809   4.124
 1471TIP3    H2 4420   2.009   4.736   4.254
 1472TIP3   OH2 4421   4.387   4.636   0.434
 1472TIP3    H1 4422   4.426   4.569   0.377
 1472TIP3    H2 4423   4.448   4.643   0.508
 1473TIP3   OH2 4424   1.341   1.827   2.193
 1473TIP3    H1 4425   1.409   1.764   2.169
 1473TIP3    H2 4426   1.372   1.866   2.274
 1474TIP3   OH2 4427   1.318   3.525   0.405
 1474TIP3    H1 4428   1.247   3.508   0.468
 1474TIP3    H2 4429   1.274   3.531   0.320
 1475TIP3   OH2 4430   3.038   4.346   0.085
 1475TIP3    H1 4431   3.007   4.261   0.053
 1475TIP3    H2 4432   3.018   4.345   0.179
 1476TIP3   OH2 4433   1.749   1.497   1.795
 1476TIP3    H1 4434   1.659   1.469   1.774
 1476TIP3    H2 4435   1.802   1.462   1.724
 1477TIP3   OH2 4436   4.459   1.716   3.261
 1477TIP3    H1 4437   4.442   1.736   3.169
 1477TIP3    H2 4438   4.555   1.722   3.269
 1478TIP3   OH2 4439   1.995   4.387   4.929
 1478TIP3    H1 4440   1.980   4.440   4.851
 1478TIP3    H2 4441   1.990   4.449   5.002
 1479TIP3   OH2 4442   0.731   1.196   3.311
 1479TIP3    H1 4443   0.786   1.235   3.378
 1479TIP3    H2 4444   0.768   1.226   3.228
 1480TIP3   OH2 4445   0.725   3.090   2.880
 1480TIP3    H1 4446   0.652   3.108   2.821
 1480TIP3    H2 4447   0.784   3.034   2.829
 1481TIP3   OH2 4448   4.211   0.545   4.085
 1481TIP3    H1 4449   4.142   0.609   4.103
 1481TIP3    H2 4450   4.180   0.465   4.128
 1482TIP3   OH2 4451   4.950   1.973   3.459
 1482TIP3    H1 4452   4.997   1.895   3.431
 1482TIP3    H2 4453   4.858   1.951   3.448
 1483TIP3   OH2 4454   3.692   5.937   4.372
 1483TIP3    H1 4455   3.603   5.902   4.374
 1483TIP3    H2 4456   3.691   5.998   4.298
 1484TIP3   OH2 4457   3.493   1.258   2.795
 1484TIP3    H1 4458   3.411   1.302   2.820
 1484TIP3    H2 4459   3.561   1.312   2.835
 1485TIP3   OH2 4460   6.242   4.669   0.764
 1485TIP3    H1 4461   6.191   4.620   0.829
 1485TIP3    H2 4462   6.300   4.603   0.725
 1486TIP3   OH2 4463   2.187   4.215   3.332
 1486TIP3    H1 4464   2.207   4.194   3.423
 1486TIP3    H2 4465   2.192   4.311   3.328
 1487TIP3   OH2 4466   3.776   0.880   1.772
 1487TIP3    H1 4467   3.746   0.799   1.729
 1487TIP3    H2 4468   3.753   0.868   1.864
 1488TIP3   OH2 4469   3.332   2.126   0.310
 1488TIP3    H1 4470   3.324   2.030   0.308
 1488TIP3    H2 4471   3.282   2.155   0.233
 1489TIP3   OH2 4472   0.713   3.783   0.987
 1489TIP3    H1 4473   0.657   3.852   1.024
 1489TIP3    H2 4474   0.788   3.830   0.952
 1490TIP3   OH2 4475   1.538   4.089   4.694
 1490TIP3    H1 4476   1.565   4.181   4.700
 1490TIP3    H2 4477   1.527   4.061   4.785
 1491TIP3   OH2 4478   1.055   3.835   2.265
 1491TIP3    H1 4479   0.978   3.782   2.282
 1491TIP3    H2 4480   1.127   3.772   2.257
 1492TIP3   OH2 4481   3.563   5.444   1.792
 1492TIP3    H1 4482   3.579   5.535   1.816
 1492TIP3    H2 4483   3.470   5.442   1.768
 1493TIP3   OH2 4484   4.587   2.220   4.486
 1493TIP3    H1 4485   4.650   2.148   4.479
 1493TIP3    H2 4486   4.584   2.240   4.580
 1494TIP3   OH2 4487   2.480   2.923   4.801
 1494TIP3    H1 4488   2.462   2.954   4.712
 1494TIP3    H2 4489   2.396   2.892   4.833
 1495TIP3   OH2 4490   5.015   4.105   1.582
 1495TIP3    H1 4491   4.933   4.059   1.603
 1495TIP3    H2 4492   5.067   4.041   1.534
 1496TIP3   OH2 4493   5.225   1.605   0.107
 1496TIP3    H1 4494   5.182   1.675   0.058
 1496TIP3    H2 4495   5.154   1.547   0.134
 1497TIP3   OH2 4496   2.596   4.494   1.831
 1497TIP3    H1 4497   2.623   4.499   1.923
 1497TIP3    H2 4498   2.511   4.538   1.828
 1498TIP3   OH2 4499   5.346   2.318   4.031
 1498TIP3    H1 4500   5.308   2.251   4.087
 1498TIP3    H2 4501   5.392   2.377   4.091
 1499TIP3   OH2 4502   5.703   2.353   5.035
 1499TIP3    H1 4503   5.749   2.407   4.971
 1499TIP3    H2 4504   5.757   2.358   5.113
 1500TIP3   OH2 4505   5.837   0.179   0.219
 1500TIP3    H1 4506   5.911   0.228   0.253
 1500TIP3    H2 4507   5.875   0.125   0.149
 1501TIP3   OH2 4508   5.727   5.086   0.281
 1501TIP3    H1 4509   5.652   5.115   0.332
 1501TIP3    H2 4510   5.749   5.000   0.319
 1502TIP3   OH2 4511   5.545   0.457   4.650
 1502TIP3    H1 4512   5.548   0.546   4.615
 1502TIP3    H2 4513   5.637   0.433   4.661
 1503TIP3   OH2 4514   4.654   5.427   0.007
 1503TIP3    H1 4515   4.620   5.471   0.086
 1503TIP3    H2 4516   4.672   5.337   0.036
 1504TIP3   OH2 4517   0.767   3.907   4.702
 1504TIP3    H1 4518   0.846   3.904   4.647
 1504TIP3    H2 4519   0.757   4.000   4.723
 1505TIP3   OH2 4520   6.088   2.500   3.633
 1505TIP3    H1 4521   6.140   2.429   3.669
 1505TIP3    H2 4522   5.997   2.477   3.654
 1506TIP3   OH2 4523   1.235   4.492   0.439
 1506TIP3    H1 4524   1.281   4.409   0.426
 1506TIP3    H2 4525   1.303   4.554   0.466
 1507TIP3   OH2 4526   3.301   0.417  -0.031
 1507TIP3    H1 4527   3.369   0.395   0.033
 1507TIP3    H2 4528   3.245   0.340  -0.034
 1508TIP3   OH2 4529   4.256   2.210   2.502
 1508TIP3    H1 4530   4.188   2.276   2.505
 1508TIP3    H2 4531   4.210   2.129   2.482
 1509TIP3   OH2 4532   4.088   3.323   3.180
 1509TIP3    H1 4533   4.062   3.400   3.128
 1509TIP3    H2 4534   4.008   3.272   3.189
 1510TIP3   OH2 4535   1.075   2.554   1.490
 1510TIP3    H1 4536   1.141   2.487   1.512
 1510TIP3    H2 4537   1.009   2.546   1.559
 1511TIP3   OH2 4538   6.074   0.630   3.957
 1511TIP3    H1 4539   6.165   0.659   3.949
 1511TIP3    H2 4540   6.025   0.711   3.968
 1512TIP3   OH2 4541   1.600   2.415   1.650
 1512TIP3    H1 4542   1.656   2.492   1.656
 1512TIP3    H2 4543   1.540   2.423   1.724
 1513TIP3   OH2 4544   0.708   3.908   3.047
 1513TIP3    H1 4545   0.779   3.918   2.984
 1513TIP3    H2 4546   0.685   3.815   3.044
 1514TIP3   OH2 4547   3.849   2.382   4.856
 1514TIP3    H1 4548   3.860   2.319   4.928
 1514TIP3    H2 4549   3.771   2.352   4.809
 1515TIP3   OH2 4550   6.091   2.612   0.891
 1515TIP3    H1 4551   6.053   2.620   0.978
 1515TIP3    H2 4552   6.062   2.691   0.845
 1516TIP3   OH2 4553   4.684   0.174   2.427
 1516TIP3    H1 4554   4.738   0.253   2.422
 1516TIP3    H2 4555   4.621   0.184   2.356
 1517TIP3   OH2 4556   5.925   5.112   0.519
 1517TIP3    H1 4557   5.842   5.099   0.473
 1517TIP3    H2 4558   5.899   5.130   0.609
 1518TIP3   OH2 4559   0.351   2.058   4.363
 1518TIP3    H1 4560   0.275   2.009   4.392
 1518TIP3    H2 4561   0.367   2.122   4.433
 1519TIP3   OH2 4562   1.343   1.619   1.190
 1519TIP3    H1 4563   1.316   1.658   1.107
 1519TIP3    H2 4564   1.343   1.692   1.252
 1520TIP3   OH2 4565   5.334   1.506   4.211
 1520TIP3    H1 4566   5.360   1.581   4.158
 1520TIP3    H2 4567   5.408   1.446   4.205
 1521TIP3   OH2 4568   6.058   0.663   0.844
 1521TIP3    H1 4569   6.029   0.573   0.859
 1521TIP3    H2 4570   5.996   0.717   0.893
 1522TIP3   OH2 4571   5.135   5.219   1.539
 1522TIP3    H1 4572   5.198   5.274   1.586
 1522TIP3    H2 4573   5.123   5.142   1.595
 1523TIP3   OH2 4574   3.736   2.046   3.560
 1523TIP3    H1 4575   3.670   2.088   3.504
 1523TIP3    H2 4576   3.685   1.989   3.617
 1524TIP3   OH2 4577   6.059   0.089   2.009
 1524TIP3    H1 4578   6.047   0.117   1.919
 1524TIP3    H2 4579   6.136   0.137   2.040
 1525TIP3   OH2 4580   2.247   5.416   0.529
 1525TIP3    H1 4581   2.155   5.392   0.540
 1525TIP3    H2 4582   2.295   5.333   0.532
 1526TIP3   OH2 4583   3.937   1.740   0.844
 1526TIP3    H1 4584   3.982   1.658   0.861
 1526TIP3    H2 4585   3.966   1.798   0.914
 1527TIP3   OH2 4586   3.778   0.570   2.889
 1527TIP3    H1 4587   3.856   0.520   2.864
 1527TIP3    H2 4588   3.712   0.504   2.908
 1528TIP3   OH2 4589   4.860   2.997   1.192
 1528TIP3    H1 4590   4.883   3.083   1.228
 1528TIP3    H2 4591   4.926   2.982   1.124
 1529TIP3   OH2 4592   4.022   4.940   1.854
 1529TIP3    H1 4593   4.023   5.033   1.833
 1529TIP3    H2 4594   4.114   4.915   1.861
 1530TIP3   OH2 4595   3.801   1.188   1.118
 1530TIP3    H1 4596   3.779   1.257   1.181
 1530TIP3    H2 4597   3.719   1.171   1.072
 1531TIP3   OH2 4598   6.222   4.208   3.589
 1531TIP3    H1 4599   6.308   4.170   3.606
 1531TIP3    H2 4600   6.160   4.148   3.631
 1532TIP3   OH2 4601   2.933   5.605   4.663
 1532TIP3    H1 4602   2.949   5.511   4.662
 1532TIP3    H2 4603   2.847   5.614   4.704
 1533TIP3   OH2 4604   5.428   3.413   1.257
 1533TIP3    H1 4605   5.459   3.382   1.172
 1533TIP3    H2 4606   5.377   3.492   1.237
 1534TIP3   OH2 4607   1.254   2.542   3.746
 1534TIP3    H1 4608   1.261   2.636   3.732
 1534TIP3    H2 4609   1.164   2.528   3.776
 1535TIP3   OH2 4610   0.529   2.333   2.856
 1535TIP3    H1 4611   0.451   2.294   2.896
 1535TIP3    H2 4612   0.575   2.260   2.817
 1536TIP3   OH2 4613   5.526   1.243   1.334
 1536TIP3    H1 4614   5.460   1.257   1.266
 1536TIP3    H2 4615   5.562   1.156   1.315
 1537TIP3   OH2 4616   3.203   2.450   4.601
 1537TIP3    H1 4617   3.295   2.473   4.613
 1537TIP3    H2 4618   3.201   2.400   4.520
 1538TIP3   OH2 4619   5.059   1.141   5.165
 1538TIP3    H1 4620   5.037   1.159   5.074
 1538TIP3    H2 4621   4.994   1.077   5.193
 1539TIP3   OH2 4622   2.174   4.736   2.502
 1539TIP3    H1 4623   2.154   4.807   2.440
 1539TIP3    H2 4624   2.258   4.702   2.472
 1540TIP3   OH2 4625   3.979   5.630   5.071
 1540TIP3    H1 4626   3.927   5.569   5.124
 1540TIP3    H2 4627   3.999   5.581   4.992
 1541TIP3   OH2 4628   2.027   4.867   5.114
 1541TIP3    H1 4629   2.107   4.918   5.124
 1541TIP3    H2 4630   1.960   4.932   5.092
 1542TIP3   OH2 4631   4.542   4.172   2.712
 1542TIP3    H1 4632   4.481   4.154   2.784
 1542TIP3    H2 4633   4.518   4.108   2.645
 1543TIP3   OH2 4634   0.609   0.296   1.523
 1543TIP3    H1 4635   0.682   0.349   1.554
 1543TIP3    H2 4636   0.597   0.229   1.590
 1544TIP3   OH2 4637   6.204   4.947   4.105
 1544TIP3    H1 4638   6.202   4.887   4.031
 1544TIP3    H2 4639   6.205   5.034   4.066
 1545TIP3   OH2 4640   0.618   2.662   4.983
 1545TIP3    H1 4641   0.681   2.595   5.006
 1545TIP3    H2 4642   0.653   2.743   5.022
 1546TIP3   OH2 4643   5.491   5.715   3.067
 1546TIP3    H1 4644   5.412   5.726   3.015
 1546TIP3    H2 4645   5.461   5.678   3.150
 1547TIP3   OH2 4646   0.694   5.021   5.121
 1547TIP3    H1 4647   0.698   4.931   5.088
 1547TIP3    H2 4648   0.617   5.024   5.177
 1548TIP3   OH2 4649   1.166   2.757   3.167
 1548TIP3    H1 4650   1.227   2.831   3.171
 1548TIP3    H2 4651   1.080   2.797   3.178
 1549TIP3   OH2 4652   5.964   2.587   2.049
 1549TIP3    H1 4653   6.046   2.615   2.089
 1549TIP3    H2 4654   5.932   2.665   2.003
 1550TIP3   OH2 4655   1.715   5.396   3.947
 1550TIP3    H1 4656   1.762   5.435   3.873
 1550TIP3    H2 4657   1.784   5.365   4.006
 1551TIP3   OH2 4658   6.201   3.786   4.354
 1551TIP3    H1 4659   6.159   3.763   4.437
 1551TIP3    H2 4660   6.266   3.716   4.340
 1552TIP3   OH2 4661   3.023   4.989   4.131
 1552TIP3    H1 4662   3.076   4.932   4.187
 1552TIP3    H2 4663   2.952   5.019   4.187
 1553TIP3   OH2 4664   4.403   0.286   2.613
 1553TIP3    H1 4665   4.412   0.213   2.552
 1553TIP3    H2 4666   4.433   0.362   2.564
 1554TIP3   OH2 4667   3.734   3.992   0.352
 1554TIP3    H1 4668   3.804   4.039   0.307
 1554TIP3    H2 4669   3.667   4.058   0.369
 1555TIP3   OH2 4670   2.007   3.799   0.497
 1555TIP3    H1 4671   2.051   3.878   0.528
 1555TIP3    H2 4672   2.067   3.762   0.432
 1556TIP3   OH2 4673   6.141   1.173   0.056
 1556TIP3    H1 4674   6.077   1.243   0.044
 1556TIP3    H2 4675   6.201   1.207   0.123
 1557TIP3   OH2 4676   1.655   2.850   1.350
 1557TIP3    H1 4677   1.568   2.881   1.326
 1557TIP3    H2 4678   1.712   2.880   1.279
 1558TIP3   OH2 4679   6.295   5.193   3.117
 1558TIP3    H1 4680   6.293   5.179   3.212
 1558TIP3    H2 4681   6.387   5.188   3.094
 1559TIP3   OH2 4682   2.749   0.588   3.625
 1559TIP3    H1 4683   2.759   0.683   3.638
 1559TIP3    H2 4684   2.677   0.579   3.563
 1560TIP3   OH2 4685   1.056   2.810   4.128
 1560TIP3    H1 4686   1.045   2.816   4.033
 1560TIP3    H2 4687   0.984   2.862   4.164
 1561TIP3   OH2 4688   6.031   2.787   3.739
 1561TIP3    H1 4689   6.013   2.707   3.690
 1561TIP3    H2 4690   6.120   2.775   3.772
 1562TIP3   OH2 4691   3.559   0.943   4.885
 1562TIP3    H1 4692   3.561   0.893   4.804
 1562TIP3    H2 4693   3.520   0.883   4.949
 1563TIP3   OH2 4694   4.920   1.663   0.379
 1563TIP3    H1 4695   4.927   1.568   0.392
 1563TIP3    H2 4696   4.907   1.674   0.285
 1564TIP3   OH2 4697   0.911   1.020   2.574
 1564TIP3    H1 4698   1.004   1.035   2.558
 1564TIP3    H2 4699   0.884   1.094   2.629
 1565TIP3   OH2 4700   4.119   0.313   1.595
 1565TIP3    H1 4701   4.162   0.228   1.604
 1565TIP3    H2 4702   4.028   0.297   1.619
 1566TIP3   OH2 4703   5.765   0.585   0.551
 1566TIP3    H1 4704   5.770   0.676   0.581
 1566TIP3    H2 4705   5.710   0.541   0.615
 1567TIP3   OH2 4706   4.238   0.503   2.351
 1567TIP3    H1 4707   4.221   0.586   2.307
 1567TIP3    H2 4708   4.329   0.510   2.381
 1568TIP3   OH2 4709   1.664   0.903   4.422
 1568TIP3    H1 4710   1.613   0.822   4.418
 1568TIP3    H2 4711   1.755   0.874   4.423
 1569TIP3   OH2 4712   3.141   3.808   4.372
 1569TIP3    H1 4713   3.221   3.765   4.342
 1569TIP3    H2 4714   3.111   3.860   4.298
 1570TIP3   OH2 4715   1.330   4.279   4.290
 1570TIP3    H1 4716   1.424   4.293   4.303
 1570TIP3    H2 4717   1.322   4.184   4.277
 1571TIP3   OH2 4718   0.261   5.692   5.057
 1571TIP3    H1 4719   0.185   5.639   5.081
 1571TIP3    H2 4720   0.326   5.629   5.027
 1572TIP3   OH2 4721   4.679   4.107   4.077
 1572TIP3    H1 4722   4.689   4.172   4.007
 1572TIP3    H2 4723   4.690   4.023   4.034
 1573TIP3   OH2 4724   5.502   0.470   2.324
 1573TIP3    H1 4725   5.563   0.544   2.334
 1573TIP3    H2 4726   5.485   0.442   2.414
 1574TIP3   OH2 4727   3.213   3.145   0.171
 1574TIP3    H1 4728   3.210   3.237   0.197
 1574TIP3    H2 4729   3.161   3.099   0.236
 1575TIP3   OH2 4730   1.041   2.735   1.792
 1575TIP3    H1 4731   0.991   2.731   1.874
 1575TIP3    H2 4732   1.045   2.828   1.771
 1576TIP3   OH2 4733   3.936   4.987   0.417
 1576TIP3    H1 4734   3.895   4.904   0.440
 1576TIP3    H2 4735   4.024   4.982   0.453
 1577TIP3   OH2 4736   3.804   4.646   1.099
 1577TIP3    H1 4737   3.875   4.608   1.151
 1577TIP3    H2 4738   3.725   4.610   1.138
 1578TIP3   OH2 4739   5.210   0.976   2.465
 1578TIP3    H1 4740   5.244   1.022   2.389
 1578TIP3    H2 4741   5.284   0.925   2.498
 1579TIP3   OH2 4742   5.834   3.410   4.131
 1579TIP3    H1 4743   5.855   3.347   4.200
 1579TIP3    H2 4744   5.900   3.479   4.140
 1580TIP3   OH2 4745   1.434   3.584   3.661
 1580TIP3    H1 4746   1.401   3.501   3.628
 1580TIP3    H2 4747   1.529   3.577   3.653
 1581TIP3   OH2 4748   5.172   2.105   2.129
 1581TIP3    H1 4749   5.097   2.045   2.128
 1581TIP3    H2 4750   5.146   2.178   2.073
 1582TIP3   OH2 4751   1.314   2.597   0.735
 1582TIP3    H1 4752   1.341   2.579   0.825
 1582TIP3    H2 4753   1.370   2.670   0.708
 1583TIP3   OH2 4754   6.063   3.475   1.456
 1583TIP3    H1 4755   6.014   3.510   1.382
 1583TIP3    H2 4756   6.022   3.514   1.533
 1584TIP3   OH2 4757   3.023   3.567   1.285
 1584TIP3    H1 4758   3.062   3.564   1.372
 1584TIP3    H2 4759   2.953   3.502   1.288
 1585TIP3   OH2 4760   0.605   2.563   2.516
 1585TIP3    H1 4761   0.605   2.494   2.582
 1585TIP3    H2 4762   0.674   2.539   2.455
 1586TIP3   OH2 4763   1.638   2.597   0.294
 1586TIP3    H1 4764   1.687   2.520   0.324
 1586TIP3    H2 4765   1.674   2.670   0.345
 1587TIP3   OH2 4766   2.428   3.691   1.845
 1587TIP3    H1 4767   2.425   3.648   1.930
 1587TIP3    H2 4768   2.346   3.667   1.803
 1588TIP3   OH2 4769   4.546   3.924   1.017
 1588TIP3    H1 4770   4.459   3.964   1.020
 1588TIP3    H2 4771   4.604   3.994   0.985
 1589TIP3   OH2 4772   0.771   2.400   3.818
 1589TIP3    H1 4773   0.749   2.308   3.800
 1589TIP3    H2 4774   0.806   2.433   3.735
 1590TIP3   OH2 4775   1.529   4.036   3.764
 1590TIP3    H1 4776   1.449   4.064   3.719
 1590TIP3    H2 4777   1.499   4.011   3.852
 1591TIP3   OH2 4778   1.577   0.964   4.160
 1591TIP3    H1 4779   1.671   0.964   4.144
 1591TIP3    H2 4780   1.568   0.945   4.253
 1592TIP3   OH2 4781   5.315   2.007   3.333
 1592TIP3    H1 4782   5.295   2.061   3.410
 1592TIP3    H2 4783   5.246   1.941   3.331
 1593TIP3   OH2 4784   4.014   5.051   2.271
 1593TIP3    H1 4785   4.055   5.088   2.193
 1593TIP3    H2 4786   4.015   4.957   2.257
 1594TIP3   OH2 4787   4.156   4.299   0.554
 1594TIP3    H1 4788   4.190   4.347   0.630
 1594TIP3    H2 4789   4.235   4.273   0.505
 1595TIP3   OH2 4790   6.165   5.110   3.863
 1595TIP3    H1 4791   6.090   5.085   3.809
 1595TIP3    H2 4792   6.234   5.130   3.800
 1596TIP3   OH2 4793   4.906   5.988   1.554
 1596TIP3    H1 4794   4.888   5.896   1.569
 1596TIP3    H2 4795   4.884   6.002   1.462
 1597TIP3   OH2 4796   3.933   5.162   1.535
 1597TIP3    H1 4797   3.868   5.098   1.564
 1597TIP3    H2 4798   3.892   5.247   1.549
 1598TIP3   OH2 4799   0.562   2.838   1.966
 1598TIP3    H1 4800   0.497   2.868   2.029
 1598TIP3    H2 4801   0.544   2.745   1.955
 1599TIP3   OH2 4802   1.899   1.733   4.101
 1599TIP3    H1 4803   1.882   1.721   4.194
 1599TIP3    H2 4804   1.951   1.813   4.096
 1600TIP3   OH2 4805   3.624   0.428   1.250
 1600TIP3    H1 4806   3.589   0.348   1.288
 1600TIP3    H2 4807   3.674   0.468   1.322
 1601TIP3   OH2 4808   3.355   5.095   0.644
 1601TIP3    H1 4809   3.421   5.087   0.576
 1601TIP3    H2 4810   3.337   5.005   0.671
 1602TIP3   OH2 4811   5.347   5.627   1.851
 1602TIP3    H1 4812   5.263   5.657   1.816
 1602TIP3    H2 4813   5.408   5.699   1.834
 1603TIP3   OH2 4814   2.268   5.324   2.516
 1603TIP3    H1 4815   2.251   5.267   2.591
 1603TIP3    H2 4816   2.275   5.265   2.441
 1604TIP3   OH2 4817   3.726   2.760   3.267
 1604TIP3    H1 4818   3.814   2.770   3.232
 1604TIP3    H2 4819   3.731   2.797   3.355
 1605TIP3   OH2 4820   2.693   5.579   4.164
 1605TIP3    H1 4821   2.730   5.551   4.248
 1605TIP3    H2 4822   2.687   5.499   4.113
 1606TIP3   OH2 4823   0.157   5.134   1.426
 1606TIP3    H1 4824   0.114   5.089   1.353
 1606TIP3    H2 4825   0.230   5.076   1.450
 1607TIP3   OH2 4826   2.059   0.211   1.986
 1607TIP3    H1 4827   2.114   0.286   1.967
 1607TIP3    H2 4828   2.088   0.143   1.925
 1608TIP3   OH2 4829   6.259   1.226   3.783
 1608TIP3    H1 4830   6.209   1.215   3.702
 1608TIP3    H2 4831   6.305   1.143   3.794
 1609TIP3   OH2 4832   5.756   3.801   4.422
 1609TIP3    H1 4833   5.824   3.770   4.361
 1609TIP3    H2 4834   5.791   3.781   4.509
 1610TIP3   OH2 4835   0.846   4.804   4.864
 1610TIP3    H1 4836   0.786   4.763   4.801
 1610TIP3    H2 4837   0.845   4.897   4.842
 1611TIP3   OH2 4838   0.247   5.775   1.043
 1611TIP3    H1 4839   0.291   5.826   1.111
 1611TIP3    H2 4840   0.297   5.793   0.963
 1612TIP3   OH2 4841   3.100   4.407   5.173
 1612TIP3    H1 4842   3.052   4.331   5.140
 1612TIP3    H2 4843   3.127   4.454   5.094
 1613TIP3   OH2 4844   2.888   2.879   0.098
 1613TIP3    H1 4845   2.973   2.895   0.058
 1613TIP3    H2 4846   2.840   2.960   0.084
 1614TIP3   OH2 4847   2.333   0.941   2.521
 1614TIP3    H1 4848   2.266   0.874   2.536
 1614TIP3    H2 4849   2.296   0.996   2.452
 1615TIP3   OH2 4850   4.663   5.516   3.389
 1615TIP3    H1 4851   4.625   5.572   3.321
 1615TIP3    H2 4852   4.655   5.427   3.354
 1616TIP3   OH2 4853   4.491   2.171   2.667
 1616TIP3    H1 4854   4.408   2.199   2.627
 1616TIP3    H2 4855   4.464   2.119   2.743
 1617TIP3   OH2 4856   5.472   1.707   2.431
 1617TIP3    H1 4857   5.525   1.750   2.364
 1617TIP3    H2 4858   5.502   1.616   2.432
 1618TIP3   OH2 4859   1.596   1.166   5.089
 1618TIP3    H1 4860   1.542   1.232   5.133
 1618TIP3    H2 4861   1.663   1.216   5.043
 1619TIP3   OH2 4862   3.073   2.808   4.121
 1619TIP3    H1 4863   3.155   2.810   4.072
 1619TIP3    H2 4864   3.007   2.788   4.054
 1620TIP3   OH2 4865   4.044   1.903   0.116
 1620TIP3    H1 4866   4.079   1.816   0.135
 1620TIP3    H2 4867   3.996   1.893   0.034
 1621TIP3   OH2 4868   2.132   0.951   4.877
 1621TIP3    H1 4869   2.050   0.906   4.856
 1621TIP3    H2 4870   2.108   1.010   4.949
 1622TIP3   OH2 4871   0.869   1.764   3.749
 1622TIP3    H1 4872   0.799   1.735   3.808
 1622TIP3    H2 4873   0.858   1.859   3.745
 1623TIP3   OH2 4874   5.495   5.812   1.445
 1623TIP3    H1 4875   5.507   5.827   1.351
 1623TIP3    H2 4876   5.404   5.784   1.454
 1624TIP3   OH2 4877   2.462   3.391   4.033
 1624TIP3    H1 4878   2.459   3.398   3.938
 1624TIP3    H2 4879   2.501   3.306   4.051
 1625TIP3   OH2 4880   0.740   3.926   4.163
 1625TIP3    H1 4881   0.701   3.851   4.208
 1625TIP3    H2 4882   0.669   3.989   4.155
 1626TIP3   OH2 4883   0.853   1.814   4.154
 1626TIP3    H1 4884   0.785   1.784   4.093
 1626TIP3    H2 4885   0.835   1.907   4.167
 1627TIP3   OH2 4886   0.369   5.162   4.523
 1627TIP3    H1 4887   0.348   5.223   4.593
 1627TIP3    H2 4888   0.291   5.106   4.515
 1628TIP3   OH2 4889   6.306   4.004   0.594
 1628TIP3    H1 4890   6.314   4.098   0.604
 1628TIP3    H2 4891   6.275   3.973   0.679
 1629TIP3   OH2 4892   3.325   3.245   3.542
 1629TIP3    H1 4893   3.272   3.322   3.525
 1629TIP3    H2 4894   3.362   3.260   3.630
 1630TIP3   OH2 4895   2.944   2.830   2.745
 1630TIP3    H1 4896   2.890   2.833   2.824
 1630TIP3    H2 4897   2.998   2.752   2.757
 1631TIP3   OH2 4898   5.543   3.461   1.788
 1631TIP3    H1 4899   5.589   3.382   1.815
 1631TIP3    H2 4900   5.550   3.461   1.692
 1632TIP3   OH2 4901   1.748   3.362   4.916
 1632TIP3    H1 4902   1.706   3.424   4.856
 1632TIP3    H2 4903   1.770   3.414   4.993
 1633TIP3   OH2 4904   1.905   5.032   1.687
 1633TIP3    H1 4905   1.925   5.125   1.691
 1633TIP3    H2 4906   1.910   5.003   1.778
 1634TIP3   OH2 4907   0.287   1.276   3.598
 1634TIP3    H1 4908   0.347   1.348   3.577
 1634TIP3    H2 4909   0.218   1.283   3.532
 1635TIP3   OH2 4910   0.643   3.899   3.497
 1635TIP3    H1 4911   0.637   3.966   3.564
 1635TIP3    H2 4912   0.717   3.926   3.443
 1636TIP3   OH2 4913   5.994   4.519   2.245
 1636TIP3    H1 4914   5.982   4.430   2.213
 1636TIP3    H2 4915   6.088   4.531   2.251
 1637TIP3   OH2 4916   5.256   1.278   1.448
 1637TIP3    H1 4917   5.249   1.370   1.473
 1637TIP3    H2 4918   5.292   1.234   1.525
 1638TIP3   OH2 4919   4.108   3.972   0.291
 1638TIP3    H1 4920   4.083   3.885   0.323
 1638TIP3    H2 4921   4.192   3.990   0.333
 1639TIP3   OH2 4922   0.908   2.559   4.967
 1639TIP3    H1 4923   0.886   2.466   4.972
 1639TIP3    H2 4924   0.952   2.568   4.883
 1640TIP3   OH2 4925   1.404   2.847   4.052
 1640TIP3    H1 4926   1.482   2.863   4.104
 1640TIP3    H2 4927   1.384   2.754   4.067
 1641TIP3   OH2 4928   0.498   0.255   4.443
 1641TIP3    H1 4929   0.555   0.328   4.468
 1641TIP3    H2 4930   0.410   0.285   4.466
 1642TIP3   OH2 4931   0.769   4.374   0.119
 1642TIP3    H1 4932   0.764   4.294   0.068
 1642TIP3    H2 4933   0.826   4.352   0.193
 1643TIP3   OH2 4934   4.156   2.343   5.116
 1643TIP3    H1 4935   4.075   2.300   5.089
 1643TIP3    H2 4936   4.165   2.320   5.209
 1644TIP3   OH2 4937   3.986   1.077   3.711
 1644TIP3    H1 4938   4.074   1.082   3.675
 1644TIP3    H2 4939   3.945   1.159   3.685
 1645TIP3   OH2 4940   3.701   2.287   1.827
 1645TIP3    H1 4941   3.722   2.211   1.881
 1645TIP3    H2 4942   3.728   2.362   1.881
 1646TIP3   OH2 4943   2.967   3.198   2.537
 1646TIP3    H1 4944   2.909   3.208   2.612
 1646TIP3    H2 4945   2.991   3.288   2.514
 1647TIP3   OH2 4946   1.577   0.249   1.489
 1647TIP3    H1 4947   1.504   0.198   1.523
 1647TIP3    H2 4948   1.576   0.235   1.395
 1648TIP3   OH2 4949   4.199   0.420   1.084
 1648TIP3    H1 4950   4.143   0.402   1.010
 1648TIP3    H2 4951   4.139   0.438   1.157
 1649TIP3   OH2 4952   4.880   0.644   1.325
 1649TIP3    H1 4953   4.824   0.659   1.249
 1649TIP3    H2 4954   4.955   0.702   1.312
 1650TIP3   OH2 4955   4.469   1.870   4.681
 1650TIP3    H1 4956   4.548   1.925   4.684
 1650TIP3    H2 4957   4.426   1.895   4.599
 1651TIP3   OH2 4958   2.171   4.372   3.771
 1651TIP3    H1 4959   2.131   4.351   3.856
 1651TIP3    H2 4960   2.247   4.314   3.765
 1652TIP3   OH2 4961   1.377   3.929   4.933
 1652TIP3    H1 4962   1.286   3.940   4.960
 1652TIP3    H2 4963   1.398   3.839   4.957
 1653TIP3   OH2 4964   1.244   4.268   2.313
 1653TIP3    H1 4965   1.217   4.350   2.271
 1653TIP3    H2 4966   1.174   4.248   2.374
 1654TIP3   OH2 4967   2.182   4.913   1.086
 1654TIP3    H1 4968   2.248   4.866   1.137
 1654TIP3    H2 4969   2.129   4.843   1.047
 1655TIP3   OH2 4970   5.963   1.903   3.317
 1655TIP3    H1 4971   6.016   1.824   3.312
 1655TIP3    H2 4972   6.018   1.966   3.363
 1656TIP3   OH2 4973   0.043   5.367   0.837
 1656TIP3    H1 4974   0.099   5.324   0.772
 1656TIP3    H2 4975   0.052   5.461   0.818
 1657TIP3   OH2 4976   1.020   2.017   4.453
 1657TIP3    H1 4977   0.980   2.100   4.427
 1657TIP3    H2 4978   0.985   1.953   4.390
 1658TIP3   OH2 4979   2.182   0.687   0.678
 1658TIP3    H1 4980   2.217   0.754   0.737
 1658TIP3    H2 4981   2.164   0.612   0.736
 1659TIP3   OH2 4982   0.177   2.806   5.109
 1659TIP3    H1 4983   0.228   2.843   5.036
 1659TIP3    H2 4984   0.176   2.712   5.092
 1660TIP3   OH2 4985   3.785   3.075   3.420
 1660TIP3    H1 4986   3.776   3.159   3.466
 1660TIP3    H2 4987   3.716   3.020   3.458
 1661TIP3   OH2 4988   2.565   4.430   2.494
 1661TIP3    H1 4989   2.540   4.345   2.457
 1661TIP3    H2 4990   2.558   4.418   2.589
 1662TIP3   OH2 4991   3.703   4.025   3.187
 1662TIP3    H1 4992   3.790   4.013   3.150
 1662TIP3    H2 4993   3.710   3.991   3.276
 1663TIP3   OH2 4994   5.162   0.677   2.627
 1663TIP3    H1 4995   5.125   0.662   2.540
 1663TIP3    H2 4996   5.091   0.717   2.677
 1664TIP3   OH2 4997   0.770   3.281   1.702
 1664TIP3    H1 4998   0.721   3.353   1.661
 1664TIP3    H2 4999   0.723   3.263   1.783
 1665TIP3   OH2 5000   1.853   2.895   2.149
 1665TIP3    H1 5001   1.803   2.911   2.229
 1665TIP3    H2 5002   1.897   2.977   2.131
 1666TIP3   OH2 5003   5.685   3.371   2.988
 1666TIP3    H1 5004   5.665   3.290   3.035
 1666TIP3    H2 5005   5.777   3.389   3.009
 1667TIP3   OH2 5006   4.869   5.873   4.419
 1667TIP3    H1 5007   4.788   5.824   4.435
 1667TIP3    H2 5008   4.849   5.928   4.344
 1668TIP3   OH2 5009   3.550   2.201   2.994
 1668TIP3    H1 5010   3.573   2.233   3.081
 1668TIP3    H2 5011   3.586   2.267   2.934
 1669TIP3   OH2 5012   3.203   3.580   4.969
 1669TIP3    H1 5013   3.284   3.534   4.945
 1669TIP3    H2 5014   3.133   3.522   4.937
 1670TIP3   OH2 5015   2.239   1.363   4.268
 1670TIP3    H1 5016   2.276   1.439   4.224
 1670TIP3    H2 5017   2.144   1.370   4.254
 1671TIP3   OH2 5018   3.858   0.766   3.530
 1671TIP3    H1 5019   3.834   0.850   3.492
 1671TIP3    H2 5020   3.953   0.771   3.540
 1672TIP3   OH2 5021   0.032   1.504   4.068
 1672TIP3    H1 5022   0.043   1.516   3.974
 1672TIP3    H2 5023   0.049   1.410   4.082
 1673TIP3   OH2 5024   5.300   3.166   0.700
 1673TIP3    H1 5025   5.242   3.147   0.626
 1673TIP3    H2 5026   5.385   3.185   0.659
 1674TIP3   OH2 5027   1.553   3.194   3.430
 1674TIP3    H1 5028   1.500   3.245   3.368
 1674TIP3    H2 5029   1.541   3.103   3.403
 1675TIP3   OH2 5030   1.964   5.861   2.502
 1675TIP3    H1 5031   2.015   5.794   2.548
 1675TIP3    H2 5032   2.030   5.918   2.462
 1676TIP3   OH2 5033   4.422   3.469   2.178
 1676TIP3    H1 5034   4.430   3.480   2.084
 1676TIP3    H2 5035   4.343   3.416   2.190
 1677TIP3   OH2 5036   3.292   5.654   5.119
 1677TIP3    H1 5037   3.259   5.631   5.032
 1677TIP3    H2 5038   3.277   5.748   5.126
 1678TIP3   OH2 5039   4.884   2.192   4.658
 1678TIP3    H1 5040   4.848   2.281   4.657
 1678TIP3    H2 5041   4.975   2.203   4.630
 1679TIP3   OH2 5042   1.984   1.134   1.627
 1679TIP3    H1 5043   1.907   1.079   1.615
 1679TIP3    H2 5044   1.957   1.221   1.596
 1680TIP3   OH2 5045   0.268   3.554   1.731
 1680TIP3    H1 5046   0.338   3.564   1.795
 1680TIP3    H2 5047   0.211   3.487   1.768
 1681TIP3   OH2 5048   1.201   2.569   0.472
 1681TIP3    H1 5049   1.282   2.538   0.430
 1681TIP3    H2 5050   1.223   2.573   0.565
 1682TIP3   OH2 5051   5.533   0.648   3.851
 1682TIP3    H1 5052   5.523   0.741   3.830
 1682TIP3    H2 5053   5.628   0.637   3.863
 1683TIP3   OH2 5054   5.241   3.094   1.886
 1683TIP3    H1 5055   5.160   3.050   1.859
 1683TIP3    H2 5056   5.257   3.063   1.975
 1684TIP3   OH2 5057   5.854   5.679   2.736
 1684TIP3    H1 5058   5.865   5.766   2.774
 1684TIP3    H2 5059   5.791   5.636   2.794
 1685TIP3   OH2 5060   2.269   1.512   2.360
 1685TIP3    H1 5061   2.250   1.605   2.351
 1685TIP3    H2 5062   2.201   1.468   2.309
 1686TIP3   OH2 5063   3.278   5.930   2.258
 1686TIP3    H1 5064   3.299   6.016   2.293
 1686TIP3    H2 5065   3.360   5.882   2.258
 1687TIP3   OH2 5066   2.248  -0.030   3.792
 1687TIP3    H1 5067   2.209  -0.102   3.841
 1687TIP3    H2 5068   2.179   0.037   3.790
 1688TIP3   OH2 5069   3.037   3.049   3.939
 1688TIP3    H1 5070   2.947   3.051   3.908
 1688TIP3    H2 5071   3.030   3.067   4.033
 1689TIP3   OH2 5072   4.882   2.172   2.129
 1689TIP3    H1 5073   4.914   2.223   2.055
 1689TIP3    H2 5074   4.888   2.230   2.204
 1690TIP3   OH2 5075   4.588   3.712   4.100
 1690TIP3    H1 5076   4.627   3.786   4.053
 1690TIP3    H2 5077   4.502   3.701   4.060
 1691TIP3   OH2 5078   5.856   3.041   2.768
 1691TIP3    H1 5079   5.806   3.029   2.687
 1691TIP3    H2 5080   5.945   3.013   2.745
 1692TIP3   OH2 5081   1.820   3.519   2.767
 1692TIP3    H1 5082   1.809   3.597   2.712
 1692TIP3    H2 5083   1.786   3.545   2.853
 1693TIP3   OH2 5084   2.989   4.631   0.399
 1693TIP3    H1 5085   3.003   4.725   0.397
 1693TIP3    H2 5086   3.077   4.594   0.410
 1694TIP3   OH2 5087   3.054   1.222   0.028
 1694TIP3    H1 5088   2.967   1.249   0.000
 1694TIP3    H2 5089   3.058   1.128   0.008
 1695TIP3   OH2 5090   2.769   4.426   3.567
 1695TIP3    H1 5091   2.837   4.383   3.619
 1695TIP3    H2 5092   2.797   4.517   3.562
 1696TIP3   OH2 5093   1.796   1.151   4.711
 1696TIP3    H1 5094   1.729   1.142   4.643
 1696TIP3    H2 5095   1.762   1.219   4.769
 1697TIP3   OH2 5096   4.445   3.074   5.059
 1697TIP3    H1 5097   4.377   3.133   5.091
 1697TIP3    H2 5098   4.516   3.084   5.122
 1698TIP3   OH2 5099   2.384   3.277   1.311
 1698TIP3    H1 5100   2.291   3.265   1.289
 1698TIP3    H2 5101   2.402   3.368   1.287
 1699TIP3   OH2 5102   6.250   4.884   4.616
 1699TIP3    H1 5103   6.155   4.875   4.620
 1699TIP3    H2 5104   6.282   4.831   4.688
 1700TIP3   OH2 5105   0.916   3.944   2.857
 1700TIP3    H1 5106   0.961   4.025   2.884
 1700TIP3    H2 5107   0.876   3.965   2.773
 1701TIP3   OH2 5108   6.068   1.642   2.319
 1701TIP3    H1 5109   6.017   1.623   2.240
 1701TIP3    H2 5110   6.159   1.633   2.292
 1702TIP3   OH2 5111   5.115   0.753   1.233
 1702TIP3    H1 5112   5.178   0.750   1.305
 1702TIP3    H2 5113   5.166   0.727   1.156
 1703TIP3   OH2 5114   1.896   4.642   4.405
 1703TIP3    H1 5115   1.882   4.601   4.491
 1703TIP3    H2 5116   1.828   4.605   4.349
 1704TIP3   OH2 5117   2.260   3.039   0.294
 1704TIP3    H1 5118   2.337   2.985   0.310
 1704TIP3    H2 5119   2.213   3.038   0.378
 1705TIP3   OH2 5120   5.214   1.202   2.642
 1705TIP3    H1 5121   5.198   1.143   2.568
 1705TIP3    H2 5122   5.144   1.266   2.638
 1706TIP3   OH2 5123   5.947   5.850   2.406
 1706TIP3    H1 5124   6.004   5.849   2.482
 1706TIP3    H2 5125   5.860   5.870   2.441
 1707TIP3   OH2 5126   0.920   1.365   1.552
 1707TIP3    H1 5127   1.012   1.390   1.547
 1707TIP3    H2 5128   0.921   1.279   1.595
 1708TIP3   OH2 5129   4.245   3.329   1.987
 1708TIP3    H1 5130   4.318   3.367   1.938
 1708TIP3    H2 5131   4.276   3.243   2.013
 1709TIP3   OH2 5132   0.103   5.325   2.268
 1709TIP3    H1 5133   0.198   5.320   2.271
 1709TIP3    H2 5134   0.077   5.254   2.209
 1710TIP3   OH2 5135   4.066   3.601   3.081
 1710TIP3    H1 5136   4.106   3.622   2.996
 1710TIP3    H2 5137   4.036   3.685   3.114
 1711TIP3   OH2 5138   0.070   0.946   2.102
 1711TIP3    H1 5139   0.133   1.017   2.117
 1711TIP3    H2 5140   0.081   0.923   2.010
 1712TIP3   OH2 5141   1.110   3.583   2.000
 1712TIP3    H1 5142   1.182   3.636   2.033
 1712TIP3    H2 5143   1.053   3.568   2.075
 1713TIP3   OH2 5144   2.331   0.264   2.852
 1713TIP3    H1 5145   2.365   0.260   2.942
 1713TIP3    H2 5146   2.375   0.192   2.806
 1714TIP3   OH2 5147   3.548   3.207   3.804
 1714TIP3    H1 5148   3.461   3.175   3.826
 1714TIP3    H2 5149   3.586   3.232   3.889
 1715TIP3   OH2 5150   2.959   4.862   0.728
 1715TIP3    H1 5151   2.892   4.929   0.741
 1715TIP3    H2 5152   2.987   4.874   0.637
 1716TIP3   OH2 5153   0.447   4.496   4.542
 1716TIP3    H1 5154   0.530   4.479   4.587
 1716TIP3    H2 5155   0.445   4.592   4.531
 1717TIP3   OH2 5156   5.104   5.747   1.775
 1717TIP3    H1 5157   5.072   5.833   1.803
 1717TIP3    H2 5158   5.038   5.686   1.808
 1718TIP3   OH2 5159   5.216   2.933   3.684
 1718TIP3    H1 5160   5.296   2.925   3.736
 1718TIP3    H2 5161   5.188   2.843   3.669
 1719TIP3   OH2 5162   4.616   1.755   4.360
 1719TIP3    H1 5163   4.552   1.814   4.400
 1719TIP3    H2 5164   4.663   1.717   4.434
 1720TIP3   OH2 5165   0.946   5.419   1.600
 1720TIP3    H1 5166   0.913   5.470   1.673
 1720TIP3    H2 5167   1.031   5.457   1.580
 1721TIP3   OH2 5168   1.705   3.231   3.048
 1721TIP3    H1 5169   1.730   3.314   3.090
 1721TIP3    H2 5170   1.611   3.223   3.065
 1722TIP3   OH2 5171   4.685   5.683   3.606
 1722TIP3    H1 5172   4.701   5.622   3.534
 1722TIP3    H2 5173   4.758   5.745   3.601
 1723TIP3   OH2 5174   1.600   2.820   3.803
 1723TIP3    H1 5175   1.630   2.852   3.888
 1723TIP3    H2 5176   1.547   2.743   3.822
 1724TIP3   OH2 5177   4.610   2.319   1.612
 1724TIP3    H1 5178   4.660   2.396   1.637
 1724TIP3    H2 5179   4.668   2.245   1.631
 1725TIP3   OH2 5180   3.771   0.517   3.507
 1725TIP3    H1 5181   3.798   0.608   3.513
 1725TIP3    H2 5182   3.825   0.481   3.435
 1726TIP3   OH2 5183   4.964   3.655   0.826
 1726TIP3    H1 5184   4.873   3.682   0.837
 1726TIP3    H2 5185   4.983   3.672   0.734
 1727TIP3   OH2 5186   5.027   1.065   0.512
 1727TIP3    H1 5187   5.010   0.975   0.541
 1727TIP3    H2 5188   5.014   1.062   0.417
 1728TIP3   OH2 5189   3.457   4.470   0.894
 1728TIP3    H1 5190   3.463   4.551   0.945
 1728TIP3    H2 5191   3.545   4.434   0.895
 1729TIP3   OH2 5192   5.315   3.405   2.357
 1729TIP3    H1 5193   5.244   3.366   2.408
 1729TIP3    H2 5194   5.270   3.458   2.291
 1730TIP3   OH2 5195   0.764   3.219   4.688
 1730TIP3    H1 5196   0.791   3.160   4.758
 1730TIP3    H2 5197   0.751   3.161   4.612
 1731TIP3   OH2 5198   1.663   4.436   0.075
 1731TIP3    H1 5199   1.638   4.383  -0.001
 1731TIP3    H2 5200   1.703   4.514   0.037
 1732TIP3   OH2 5201   1.036   0.719   3.032
 1732TIP3    H1 5202   0.954   0.743   3.075
 1732TIP3    H2 5203   1.099   0.712   3.104
 1733TIP3   OH2 5204   1.122   1.918  -0.027
 1733TIP3    H1 5205   1.054   1.910   0.039
 1733TIP3    H2 5206   1.186   1.977   0.012
 1734TIP3   OH2 5207   4.627   1.473   4.952
 1734TIP3    H1 5208   4.606   1.564   4.934
 1734TIP3    H2 5209   4.574   1.423   4.890
 1735TIP3   OH2 5210   5.965   1.027   3.783
 1735TIP3    H1 5211   5.898   1.016   3.716
 1735TIP3    H2 5212   5.996   1.117   3.772
 1736TIP3   OH2 5213   5.582   1.732   0.976
 1736TIP3    H1 5214   5.613   1.822   0.990
 1736TIP3    H2 5215   5.630   1.680   1.040
 1737TIP3   OH2 5216   0.053   0.407   3.850
 1737TIP3    H1 5217  -0.042   0.395   3.852
 1737TIP3    H2 5218   0.088   0.327   3.889
 1738TIP3   OH2 5219   2.325   0.237   4.447
 1738TIP3    H1 5220   2.289   0.317   4.484
 1738TIP3    H2 5221   2.274   0.167   4.487
 1739TIP3   OH2 5222   0.402   3.046   0.320
 1739TIP3    H1 5223   0.494   3.070   0.303
 1739TIP3    H2 5224   0.394   2.957   0.286
 1740TIP3   OH2 5225   6.199   5.686   4.809
 1740TIP3    H1 5226   6.234   5.730   4.732
 1740TIP3    H2 5227   6.111   5.723   4.819
 1741TIP3   OH2 5228   5.138   4.163   1.933
 1741TIP3    H1 5229   5.087   4.165   2.014
 1741TIP3    H2 5230   5.151   4.255   1.910
 1742TIP3   OH2 5231   0.827   4.653   0.221
 1742TIP3    H1 5232   0.905   4.682   0.174
 1742TIP3    H2 5233   0.829   4.701   0.304
 1743TIP3   OH2 5234   4.863   3.497   2.124
 1743TIP3    H1 5235   4.880   3.492   2.030
 1743TIP3    H2 5236   4.947   3.477   2.165
 1744TIP3   OH2 5237   6.034   4.844   2.515
 1744TIP3    H1 5238   5.996   4.774   2.461
 1744TIP3    H2 5239   6.101   4.800   2.568
 1745TIP3   OH2 5240   2.282   2.112   3.210
 1745TIP3    H1 5241   2.340   2.088   3.282
 1745TIP3    H2 5242   2.225   2.036   3.198
 1746TIP3   OH2 5243   2.895   0.153   3.627
 1746TIP3    H1 5244   2.808   0.115   3.615
 1746TIP3    H2 5245   2.881   0.230   3.682
 1747TIP3   OH2 5246   1.522   4.034   2.117
 1747TIP3    H1 5247   1.505   4.053   2.210
 1747TIP3    H2 5248   1.436   4.012   2.082
 1748TIP3   OH2 5249   1.950   2.871   1.742
 1748TIP3    H1 5250   1.873   2.842   1.791
 1748TIP3    H2 5251   2.013   2.897   1.809
 1749TIP3   OH2 5252   1.173   2.494   3.308
 1749TIP3    H1 5253   1.221   2.539   3.238
 1749TIP3    H2 5254   1.240   2.477   3.375
 1750TIP3   OH2 5255   4.693   2.953   0.955
 1750TIP3    H1 5256   4.632   2.886   0.984
 1750TIP3    H2 5257   4.757   2.960   1.026
 1751TIP3   OH2 5258   4.955   2.512   0.644
 1751TIP3    H1 5259   4.945   2.442   0.579
 1751TIP3    H2 5260   5.014   2.474   0.710
 1752TIP3   OH2 5261   5.402   3.114   4.416
 1752TIP3    H1 5262   5.490   3.090   4.447
 1752TIP3    H2 5263   5.419   3.174   4.343
 1753TIP3   OH2 5264   2.742   1.615   1.208
 1753TIP3    H1 5265   2.811   1.652   1.263
 1753TIP3    H2 5266   2.677   1.582   1.270
 1754TIP3   OH2 5267   1.436   4.292   0.446
 1754TIP3    H1 5268   1.492   4.349   0.499
 1754TIP3    H2 5269   1.480   4.208   0.445
 1755TIP3   OH2 5270   1.946   1.784   0.491
 1755TIP3    H1 5271   1.938   1.735   0.573
 1755TIP3    H2 5272   1.996   1.862   0.515
 1756TIP3   OH2 5273   5.989   4.239   1.704
 1756TIP3    H1 5274   6.030   4.316   1.744
 1756TIP3    H2 5275   5.926   4.275   1.642
 1757TIP3   OH2 5276   0.218   5.827   4.069
 1757TIP3    H1 5277   0.201   5.743   4.111
 1757TIP3    H2 5278   0.216   5.890   4.141
 1758TIP3   OH2 5279   0.351   4.865   3.437
 1758TIP3    H1 5280   0.301   4.788   3.465
 1758TIP3    H2 5281   0.414   4.880   3.508
 1759TIP3   OH2 5282   1.366   2.250   1.840
 1759TIP3    H1 5283   1.301   2.224   1.905
 1759TIP3    H2 5284   1.316   2.262   1.759
 1760TIP3   OH2 5285   3.867   1.378   2.869
 1760TIP3    H1 5286   3.911   1.304   2.828
 1760TIP3    H2 5287   3.888   1.370   2.962
 1761TIP3   OH2 5288   3.884   4.655   0.320
 1761TIP3    H1 5289   3.916   4.715   0.251
 1761TIP3    H2 5290   3.962   4.606   0.346
 1762TIP3   OH2 5291   1.510   0.939   2.416
 1762TIP3    H1 5292   1.433   0.890   2.388
 1762TIP3    H2 5293   1.579   0.914   2.354
 1763TIP3   OH2 5294   1.466   5.930   4.807
 1763TIP3    H1 5295   1.407   5.854   4.805
 1763TIP3    H2 5296   1.545   5.899   4.851
 1764TIP3   OH2 5297   4.821   0.122   2.945
 1764TIP3    H1 5298   4.845   0.203   2.899
 1764TIP3    H2 5299   4.726   0.124   2.948
 1765TIP3   OH2 5300   0.609   0.451   4.201
 1765TIP3    H1 5301   0.518   0.472   4.179
 1765TIP3    H2 5302   0.607   0.358   4.226
 1766TIP3   OH2 5303   5.881   2.546   0.084
 1766TIP3    H1 5304   5.868   2.526   0.177
 1766TIP3    H2 5305   5.856   2.466   0.038
 1767TIP3   OH2 5306   5.570   0.552   2.914
 1767TIP3    H1 5307   5.575   0.467   2.958
 1767TIP3    H2 5308   5.477   0.563   2.893
 1768TIP3   OH2 5309   1.752   4.272   1.586
 1768TIP3    H1 5310   1.774   4.179   1.593
 1768TIP3    H2 5311   1.695   4.278   1.509
 1769TIP3   OH2 5312   3.153   0.290   4.061
 1769TIP3    H1 5313   3.145   0.371   4.112
 1769TIP3    H2 5314   3.198   0.230   4.120
 1770TIP3   OH2 5315   2.588   1.796   0.159
 1770TIP3    H1 5316   2.561   1.804   0.250
 1770TIP3    H2 5317   2.590   1.702   0.143
 1771TIP3   OH2 5318   1.590   4.319   2.140
 1771TIP3    H1 5319   1.523   4.381   2.169
 1771TIP3    H2 5320   1.659   4.325   2.207
 1772TIP3   OH2 5321   6.004   5.349   2.551
 1772TIP3    H1 5322   5.935   5.415   2.543
 1772TIP3    H2 5323   5.960   5.266   2.534
 1773TIP3   OH2 5324   2.677   1.400   4.623
 1773TIP3    H1 5325   2.688   1.305   4.623
 1773TIP3    H2 5326   2.749   1.432   4.679
 1774TIP3   OH2 5327   5.352   2.503   4.308
 1774TIP3    H1 5328   5.397   2.448   4.373
 1774TIP3    H2 5329   5.288   2.552   4.360
 1775TIP3   OH2 5330   1.552   0.082   3.823
 1775TIP3    H1 5331   1.605   0.003   3.829
 1775TIP3    H2 5332   1.614   0.149   3.793
 1776TIP3   OH2 5333   2.284   3.683   5.152
 1776TIP3    H1 5334   2.253   3.682   5.243
 1776TIP3    H2 5335   2.236   3.613   5.109
 1777TIP3   OH2 5336   5.182   3.253   5.172
 1777TIP3    H1 5337   5.104   3.233   5.223
 1777TIP3    H2 5338   5.153   3.320   5.109
 1778TIP3   OH2 5339   0.628   2.099   3.651
 1778TIP3    H1 5340   0.619   2.162   3.579
 1778TIP3    H2 5341   0.558   2.123   3.712
 1779TIP3   OH2 5342   3.493   5.532   2.540
 1779TIP3    H1 5343   3.574   5.533   2.591
 1779TIP3    H2 5344   3.497   5.450   2.490
 1780TIP3   OH2 5345   5.966   4.485   2.890
 1780TIP3    H1 5346   5.937   4.549   2.824
 1780TIP3    H2 5347   5.941   4.400   2.853
 1781TIP3   OH2 5348   0.754   1.775   0.135
 1781TIP3    H1 5349   0.735   1.748   0.225
 1781TIP3    H2 5350   0.795   1.861   0.145
 1782TIP3   OH2 5351   5.206   0.443   1.695
 1782TIP3    H1 5352   5.133   0.413   1.641
 1782TIP3    H2 5353   5.249   0.363   1.723
 1783TIP3   OH2 5354   4.778   3.858   2.390
 1783TIP3    H1 5355   4.845   3.845   2.323
 1783TIP3    H2 5356   4.753   3.770   2.417
 1784TIP3   OH2 5357   2.831   5.258   4.348
 1784TIP3    H1 5358   2.798   5.168   4.347
 1784TIP3    H2 5359   2.922   5.249   4.376
 1785TIP3   OH2 5360   0.472   0.186   2.844
 1785TIP3    H1 5361   0.385   0.226   2.844
 1785TIP3    H2 5362   0.532   0.259   2.830
 1786TIP3   OH2 5363   2.538   2.878   1.941
 1786TIP3    H1 5364   2.509   2.955   1.989
 1786TIP3    H2 5365   2.574   2.819   2.008
 1787TIP3   OH2 5366   1.623   3.289   4.584
 1787TIP3    H1 5367   1.670   3.272   4.502
 1787TIP3    H2 5368   1.651   3.377   4.610
 1788TIP3   OH2 5369   4.592   2.305   4.761
 1788TIP3    H1 5370   4.534   2.362   4.711
 1788TIP3    H2 5371   4.617   2.356   4.837
 1789TIP3   OH2 5372   4.421   0.641   5.118
 1789TIP3    H1 5373   4.470   0.577   5.170
 1789TIP3    H2 5374   4.487   0.679   5.060
 1790TIP3   OH2 5375   5.036   5.921   0.661
 1790TIP3    H1 5376   5.035   5.826   0.675
 1790TIP3    H2 5377   5.127   5.941   0.639
 1791TIP3   OH2 5378   0.418   4.436   2.303
 1791TIP3    H1 5379   0.467   4.494   2.361
 1791TIP3    H2 5380   0.448   4.348   2.326
 1792TIP3   OH2 5381   2.442   0.567   4.795
 1792TIP3    H1 5382   2.413   0.571   4.886
 1792TIP3    H2 5383   2.476   0.478   4.784
 1793TIP3   OH2 5384   1.407   0.417   3.032
 1793TIP3    H1 5385   1.436   0.334   3.070
 1793TIP3    H2 5386   1.443   0.484   3.090
 1794TIP3   OH2 5387   5.115   0.649   3.792
 1794TIP3    H1 5388   5.117   0.602   3.876
 1794TIP3    H2 5389   5.160   0.591   3.731
 1795TIP3   OH2 5390   1.700   5.039   3.872
 1795TIP3    H1 5391   1.663   5.101   3.808
 1795TIP3    H2 5392   1.732   5.095   3.943
 1796TIP3   OH2 5393   3.110   2.460   3.662
 1796TIP3    H1 5394   3.184   2.489   3.609
 1796TIP3    H2 5395   3.100   2.367   3.641
 1797TIP3   OH2 5396   3.383   3.724   0.438
 1797TIP3    H1 5397   3.379   3.785   0.511
 1797TIP3    H2 5398   3.299   3.679   0.439
 1798TIP3   OH2 5399   4.032   1.430   2.531
 1798TIP3    H1 5400   4.011   1.345   2.571
 1798TIP3    H2 5401   3.969   1.439   2.460
 1799TIP3   OH2 5402   4.752   0.515   0.213
 1799TIP3    H1 5403   4.843   0.519   0.245
 1799TIP3    H2 5404   4.735   0.421   0.204
 1800TIP3   OH2 5405   5.213   1.819   1.393
 1800TIP3    H1 5406   5.134   1.767   1.377
 1800TIP3    H2 5407   5.236   1.855   1.307
 1801TIP3   OH2 5408   2.592   5.797   3.143
 1801TIP3    H1 5409   2.513   5.746   3.129
 1801TIP3    H2 5410   2.625   5.815   3.055
 1802TIP3   OH2 5411   2.871   1.602   1.591
 1802TIP3    H1 5412   2.934   1.570   1.656
 1802TIP3    H2 5413   2.859   1.528   1.532
 1803TIP3   OH2 5414   5.017   1.168   4.861
 1803TIP3    H1 5415   4.981   1.245   4.906
 1803TIP3    H2 5416   4.954   1.151   4.790
 1804TIP3   OH2 5417   4.116   0.557   3.814
 1804TIP3    H1 5418   4.172   0.578   3.889
 1804TIP3    H2 5419   4.042   0.509   3.852
 1805TIP3   OH2 5420   1.222   0.982   0.626
 1805TIP3    H1 5421   1.256   1.029   0.702
 1805TIP3    H2 5422   1.266   0.897   0.629
 1806TIP3   OH2 5423   1.669   4.200   0.953
 1806TIP3    H1 5424   1.653   4.294   0.940
 1806TIP3    H2 5425   1.751   4.196   1.002
 1807TIP3   OH2 5426   0.814   0.667   1.741
 1807TIP3    H1 5427   0.806   0.574   1.722
 1807TIP3    H2 5428   0.903   0.690   1.716
 1808TIP3   OH2 5429  -0.043   4.903   1.800
 1808TIP3    H1 5430   0.042   4.941   1.777
 1808TIP3    H2 5431  -0.030   4.809   1.792
 1809TIP3   OH2 5432   0.127   3.271   4.633
 1809TIP3    H1 5433   0.064   3.342   4.647
 1809TIP3    H2 5434   0.074   3.192   4.634
 1810TIP3   OH2 5435   6.245   2.611   2.092
 1810TIP3    H1 5436   6.238   2.547   2.162
 1810TIP3    H2 5437   6.335   2.600   2.059
 1811TIP3   OH2 5438   5.576   2.945   0.730
 1811TIP3    H1 5439   5.518   2.949   0.806
 1811TIP3    H2 5440   5.552   3.022   0.678
 1812TIP3   OH2 5441   2.676   4.433   5.052
 1812TIP3    H1 5442   2.665   4.345   5.087
 1812TIP3    H2 5443   2.650   4.491   5.124
 1813TIP3   OH2 5444   5.721   4.428   3.278
 1813TIP3    H1 5445   5.669   4.405   3.201
 1813TIP3    H2 5446   5.805   4.457   3.242
 1814TIP3   OH2 5447   2.539   2.050   3.059
 1814TIP3    H1 5448   2.489   2.063   3.140
 1814TIP3    H2 5449   2.474   2.059   2.989
 1815TIP3   OH2 5450   4.512   4.164   4.883
 1815TIP3    H1 5451   4.573   4.114   4.828
 1815TIP3    H2 5452   4.434   4.174   4.828
 1816TIP3   OH2 5453   0.611   5.109   2.946
 1816TIP3    H1 5454   0.674   5.154   2.889
 1816TIP3    H2 5455   0.616   5.156   3.029
 1817TIP3   OH2 5456   3.112   3.731   2.766
 1817TIP3    H1 5457   3.175   3.664   2.791
 1817TIP3    H2 5458   3.026   3.692   2.784
 1818TIP3   OH2 5459   5.715   3.688   1.724
 1818TIP3    H1 5460   5.645   3.626   1.742
 1818TIP3    H2 5461   5.680   3.745   1.656
 1819TIP3   OH2 5462   5.527   4.572   1.531
 1819TIP3    H1 5463   5.466   4.627   1.481
 1819TIP3    H2 5464   5.485   4.562   1.617
 1820TIP3   OH2 5465   6.211   1.488   1.471
 1820TIP3    H1 5466   6.238   1.479   1.563
 1820TIP3    H2 5467   6.126   1.444   1.466
 1821TIP3   OH2 5468   2.621   5.067   4.024
 1821TIP3    H1 5469   2.675   5.043   3.949
 1821TIP3    H2 5470   2.633   4.995   4.087
 1822TIP3   OH2 5471   3.574   0.984   0.169
 1822TIP3    H1 5472   3.653   0.964   0.220
 1822TIP3    H2 5473   3.505   0.932   0.210
 1823TIP3   OH2 5474   0.987   5.602   3.670
 1823TIP3    H1 5475   0.897   5.585   3.644
 1823TIP3    H2 5476   0.990   5.583   3.763
 1824TIP3   OH2 5477   3.131   1.445   0.164
 1824TIP3    H1 5478   3.220   1.410   0.171
 1824TIP3    H2 5479   3.094   1.402   0.087
 1825TIP3   OH2 5480   2.268   0.908   3.252
 1825TIP3    H1 5481   2.266   0.969   3.179
 1825TIP3    H2 5482   2.184   0.921   3.297
 1826TIP3   OH2 5483   5.301   1.165   4.069
 1826TIP3    H1 5484   5.252   1.243   4.043
 1826TIP3    H2 5485   5.295   1.107   3.993
 1827TIP3   OH2 5486   3.000   2.136   1.878
 1827TIP3    H1 5487   2.934   2.068   1.892
 1827TIP3    H2 5488   3.015   2.173   1.966
 1828TIP3   OH2 5489   5.344   2.956   4.163
 1828TIP3    H1 5490   5.344   2.991   4.252
 1828TIP3    H2 5491   5.269   2.896   4.161
 1829TIP3   OH2 5492   3.039   2.808   1.828
 1829TIP3    H1 5493   3.127   2.770   1.829
 1829TIP3    H2 5494   3.050   2.891   1.782
 1830TIP3   OH2 5495   4.946   0.191   4.916
 1830TIP3    H1 5496   5.006   0.263   4.936
 1830TIP3    H2 5497   4.904   0.217   4.834
 1831TIP3   OH2 5498   3.108   1.947   0.548
 1831TIP3    H1 5499   3.032   1.944   0.490
 1831TIP3    H2 5500   3.076   1.908   0.630
 1832TIP3   OH2 5501   0.142   5.485   0.130
 1832TIP3    H1 5502   0.060   5.510   0.172
 1832TIP3    H2 5503   0.134   5.391   0.114
 1833TIP3   OH2 5504   1.245   2.918   0.846
 1833TIP3    H1 5505   1.327   2.875   0.871
 1833TIP3    H2 5506   1.236   2.990   0.909
 1834TIP3   OH2 5507   5.863   2.715   5.056
 1834TIP3    H1 5508   5.785   2.697   5.108
 1834TIP3    H2 5509   5.936   2.686   5.111
 1835TIP3   OH2 5510   0.588   0.109   0.125
 1835TIP3    H1 5511   0.564   0.178   0.064
 1835TIP3    H2 5512   0.660   0.063   0.082
 1836TIP3   OH2 5513   1.132   1.470   0.233
 1836TIP3    H1 5514   1.070   1.445   0.164
 1836TIP3    H2 5515   1.202   1.406   0.227
 1837TIP3   OH2 5516   1.140   4.856   2.988
 1837TIP3    H1 5517   1.137   4.876   2.894
 1837TIP3    H2 5518   1.233   4.863   3.011
 1838TIP3   OH2 5519   0.529   0.931   4.440
 1838TIP3    H1 5520   0.597   0.863   4.450
 1838TIP3    H2 5521   0.561   0.985   4.368
 1839TIP3   OH2 5522   3.821   0.354   4.256
 1839TIP3    H1 5523   3.843   0.274   4.304
 1839TIP3    H2 5524   3.766   0.404   4.318
 1840TIP3   OH2 5525   0.236   5.116   3.134
 1840TIP3    H1 5526   0.262   5.184   3.072
 1840TIP3    H2 5527   0.263   5.034   3.093
 1841TIP3   OH2 5528   4.737   5.217   2.217
 1841TIP3    H1 5529   4.729   5.313   2.212
 1841TIP3    H2 5530   4.831   5.201   2.220
 1842TIP3   OH2 5531   1.018   3.490   2.655
 1842TIP3    H1 5532   0.979   3.506   2.741
 1842TIP3    H2 5533   1.013   3.575   2.610
 1843TIP3   OH2 5534   1.164   2.485   1.793
 1843TIP3    H1 5535   1.118   2.568   1.778
 1843TIP3    H2 5536   1.160   2.440   1.709
 1844TIP3   OH2 5537   1.747   4.702   2.648
 1844TIP3    H1 5538   1.678   4.715   2.713
 1844TIP3    H2 5539   1.703   4.657   2.576
 1845TIP3   OH2 5540   0.383   4.101   2.659
 1845TIP3    H1 5541   0.468   4.120   2.699
 1845TIP3    H2 5542   0.329   4.068   2.731
 1846TIP3   OH2 5543   4.204   1.216   3.094
 1846TIP3    H1 5544   4.110   1.226   3.106
 1846TIP3    H2 5545   4.217   1.216   3.000
 1847TIP3   OH2 5546   2.986   0.851   1.902
 1847TIP3    H1 5547   3.017   0.942   1.906
 1847TIP3    H2 5548   3.003   0.824   1.811
 1848TIP3   OH2 5549   5.306   4.519   2.227
 1848TIP3    H1 5550   5.229   4.505   2.171
 1848TIP3    H2 5551   5.272   4.573   2.299
 1849TIP3   OH2 5552   1.377   2.466   0.246
 1849TIP3    H1 5553   1.434   2.542   0.240
 1849TIP3    H2 5554   1.327   2.467   0.164
 1850TIP3   OH2 5555   3.850   0.986   0.588
 1850TIP3    H1 5556   3.804   1.052   0.536
 1850TIP3    H2 5557   3.788   0.963   0.657
 1851TIP3   OH2 5558   1.215   3.792   4.054
 1851TIP3    H1 5559   1.238   3.766   3.965
 1851TIP3    H2 5560   1.134   3.745   4.073
 1852TIP3   OH2 5561   2.248   4.066   3.606
 1852TIP3    H1 5562   2.233   3.998   3.671
 1852TIP3    H2 5563   2.314   4.123   3.645
 1853TIP3   OH2 5564   5.883   2.238   4.841
 1853TIP3    H1 5565   5.913   2.278   4.923
 1853TIP3    H2 5566   5.951   2.174   4.819
 1854TIP3   OH2 5567   2.880   4.913   1.036
 1854TIP3    H1 5568   2.829   4.834   1.015
 1854TIP3    H2 5569   2.945   4.919   0.967
 1855TIP3   OH2 5570   6.130   1.854   0.625
 1855TIP3    H1 5571   6.113   1.895   0.540
 1855TIP3    H2 5572   6.225   1.861   0.636
 1856TIP3   OH2 5573   0.470   1.102   2.266
 1856TIP3    H1 5574   0.538   1.122   2.201
 1856TIP3    H2 5575   0.518   1.064   2.339
 1857TIP3   OH2 5576   3.980   2.999   3.252
 1857TIP3    H1 5577   3.892   3.025   3.278
 1857TIP3    H2 5578   4.014   2.952   3.329
 1858TIP3   OH2 5579   4.962   0.427   4.231
 1858TIP3    H1 5580   4.913   0.467   4.303
 1858TIP3    H2 5581   4.910   0.350   4.206
 1859TIP3   OH2 5582   0.517   1.903   4.183
 1859TIP3    H1 5583   0.592   1.925   4.238
 1859TIP3    H2 5584   0.441   1.921   4.237
 1860TIP3   OH2 5585   2.271   3.798   3.044
 1860TIP3    H1 5586   2.288   3.827   2.954
 1860TIP3    H2 5587   2.272   3.878   3.096
 1861TIP3   OH2 5588   5.685   0.518   4.978
 1861TIP3    H1 5589   5.608   0.472   4.944
 1861TIP3    H2 5590   5.651   0.578   5.044
 1862TIP3   OH2 5591   0.778   2.243   4.714
 1862TIP3    H1 5592   0.751   2.202   4.797
 1862TIP3    H2 5593   0.873   2.254   4.722
 1863TIP3   OH2 5594   5.550   4.995   4.961
 1863TIP3    H1 5595   5.476   4.978   5.020
 1863TIP3    H2 5596   5.525   5.074   4.913
 1864TIP3   OH2 5597   3.774   5.794   1.063
 1864TIP3    H1 5598   3.861   5.802   1.101
 1864TIP3    H2 5599   3.783   5.829   0.974
 1865TIP3   OH2 5600   4.575   2.724   3.579
 1865TIP3    H1 5601   4.588   2.786   3.507
 1865TIP3    H2 5602   4.607   2.641   3.546
 1866TIP3   OH2 5603   5.126   0.092   0.559
 1866TIP3    H1 5604   5.121   0.184   0.583
 1866TIP3    H2 5605   5.127   0.045   0.642
 1867TIP3   OH2 5606   2.729   3.100   1.686
 1867TIP3    H1 5607   2.706   3.007   1.675
 1867TIP3    H2 5608   2.665   3.147   1.633
 1868TIP3   OH2 5609   5.798   5.656   1.470
 1868TIP3    H1 5610   5.717   5.629   1.513
 1868TIP3    H2 5611   5.820   5.584   1.412
 1869TIP3   OH2 5612   4.958   5.741   4.827
 1869TIP3    H1 5613   5.021   5.812   4.842
 1869TIP3    H2 5614   5.006   5.661   4.851
 1870TIP3   OH2 5615   5.744   2.022   3.716
 1870TIP3    H1 5616   5.775   1.955   3.656
 1870TIP3    H2 5617   5.808   2.022   3.787
 1871TIP3   OH2 5618   4.348   1.832   2.158
 1871TIP3    H1 5619   4.310   1.920   2.154
 1871TIP3    H2 5620   4.405   1.834   2.235
 1872TIP3   OH2 5621   4.795   4.845   2.126
 1872TIP3    H1 5622   4.885   4.854   2.158
 1872TIP3    H2 5623   4.744   4.903   2.184
 1873TIP3   OH2 5624   2.322   4.157   4.409
 1873TIP3    H1 5625   2.337   4.072   4.452
 1873TIP3    H2 5626   2.248   4.141   4.351
 1874TIP3   OH2 5627   5.474   1.721   1.855
 1874TIP3    H1 5628   5.403   1.773   1.817
 1874TIP3    H2 5629   5.441   1.695   1.941
 1875TIP3   OH2 5630   6.164   0.127   4.710
 1875TIP3    H1 5631   6.251   0.129   4.750
 1875TIP3    H2 5632   6.106   0.164   4.777
 1876TIP3   OH2 5633   1.926   5.083   4.893
 1876TIP3    H1 5634   1.849   5.119   4.847
 1876TIP3    H2 5635   1.943   5.146   4.963
 1877TIP3   OH2 5636   4.655   0.658   1.039
 1877TIP3    H1 5637   4.590   0.593   1.009
 1877TIP3    H2 5638   4.602   0.729   1.074
 1878TIP3   OH2 5639   2.840   3.537   4.667
 1878TIP3    H1 5640   2.816   3.626   4.694
 1878TIP3    H2 5641   2.872   3.547   4.577
 1879TIP3   OH2 5642   0.326   5.500   1.244
 1879TIP3    H1 5643   0.294   5.573   1.190
 1879TIP3    H2 5644   0.251   5.477   1.299
 1880TIP3   OH2 5645   5.722   5.568   4.718
 1880TIP3    H1 5646   5.719   5.490   4.774
 1880TIP3    H2 5647   5.747   5.535   4.632
 1881TIP3   OH2 5648   3.531   2.093   2.274
 1881TIP3    H1 5649   3.466   2.025   2.295
 1881TIP3    H2 5650   3.494   2.173   2.309
 1882TIP3   OH2 5651   5.563   4.761   4.804
 1882TIP3    H1 5652   5.469   4.747   4.791
 1882TIP3    H2 5653   5.569   4.853   4.832
 1883TIP3   OH2 5654   4.744   0.248   0.189
 1883TIP3    H1 5655   4.772   0.233   0.279
 1883TIP3    H2 5656   4.658   0.208   0.184
 1884TIP3   OH2 5657   1.081   4.240   0.016
 1884TIP3    H1 5658   1.074   4.289   0.098
 1884TIP3    H2 5659   0.996   4.198   0.006
 1885TIP3   OH2 5660   4.897   5.622   0.406
 1885TIP3    H1 5661   4.902   5.564   0.331
 1885TIP3    H2 5662   4.831   5.687   0.382
 1886TIP3   OH2 5663   2.685   0.750   2.869
 1886TIP3    H1 5664   2.777   0.747   2.841
 1886TIP3    H2 5665   2.685   0.804   2.947
 1887TIP3   OH2 5666   3.714   1.410   3.506
 1887TIP3    H1 5667   3.736   1.465   3.582
 1887TIP3    H2 5668   3.674   1.470   3.443
 1888TIP3   OH2 5669   5.822   1.736   3.965
 1888TIP3    H1 5670   5.786   1.648   3.970
 1888TIP3    H2 5671   5.795   1.778   4.047
 1889TIP3   OH2 5672   5.254   4.936   4.202
 1889TIP3    H1 5673   5.201   4.971   4.130
 1889TIP3    H2 5674   5.196   4.938   4.278
 1890TIP3   OH2 5675   2.011   4.972   3.051
 1890TIP3    H1 5676   1.978   5.062   3.053
 1890TIP3    H2 5677   2.068   4.970   2.974
 1891TIP3   OH2 5678   1.413   5.771   4.445
 1891TIP3    H1 5679   1.495   5.741   4.484
 1891TIP3    H2 5680   1.411   5.865   4.460
 1892TIP3   OH2 5681   0.211   4.098   0.871
 1892TIP3    H1 5682   0.217   4.008   0.904
 1892TIP3    H2 5683   0.299   4.133   0.883
 1893TIP3   OH2 5684   4.777   4.030   3.716
 1893TIP3    H1 5685   4.814   4.053   3.631
 1893TIP3    H2 5686   4.778   4.111   3.766
 1894TIP3   OH2 5687   1.353   5.541   4.970
 1894TIP3    H1 5688   1.338   5.486   4.894
 1894TIP3    H2 5689   1.347   5.482   5.045
 1895TIP3   OH2 5690   2.108   0.030   3.025
 1895TIP3    H1 5691   2.176   0.074   3.077
 1895TIP3    H2 5692   2.027   0.045   3.074
 1896TIP3   OH2 5693   2.657   3.568  -0.028
 1896TIP3    H1 5694   2.621   3.562   0.060
 1896TIP3    H2 5695   2.661   3.478  -0.059
 1897TIP3   OH2 5696   3.332   4.031   3.989
 1897TIP3    H1 5697   3.381   4.073   4.060
 1897TIP3    H2 5698   3.346   3.937   4.003
 1898TIP3   OH2 5699   3.996   3.452   2.127
 1898TIP3    H1 5700   4.077   3.418   2.091
 1898TIP3    H2 5701   3.988   3.410   2.213
 1899TIP3   OH2 5702   3.614   4.681   3.569
 1899TIP3    H1 5703   3.688   4.626   3.542
 1899TIP3    H2 5704   3.563   4.693   3.489
 1900TIP3   OH2 5705   2.856   5.015   3.877
 1900TIP3    H1 5706   2.859   5.044   3.786
 1900TIP3    H2 5707   2.945   5.030   3.910
 1901TIP3   OH2 5708   3.753   5.724   0.544
 1901TIP3    H1 5709   3.714   5.793   0.489
 1901TIP3    H2 5710   3.706   5.644   0.518
 1902TIP3   OH2 5711   6.072   4.883   3.308
 1902TIP3    H1 5712   6.058   4.968   3.266
 1902TIP3    H2 5713   6.036   4.894   3.396
 1903TIP3   OH2 5714   4.181   4.398   0.292
 1903TIP3    H1 5715   4.234   4.469   0.256
 1903TIP3    H2 5716   4.161   4.426   0.381
 1904TIP3   OH2 5717   1.385   2.137   1.257
 1904TIP3    H1 5718   1.387   2.219   1.208
 1904TIP3    H2 5719   1.421   2.159   1.343
 1905TIP3   OH2 5720   4.483   1.425   4.143
 1905TIP3    H1 5721   4.396   1.465   4.142
 1905TIP3    H2 5722   4.513   1.436   4.233
 1906TIP3   OH2 5723   4.522   2.718   4.021
 1906TIP3    H1 5724   4.512   2.738   3.928
 1906TIP3    H2 5725   4.497   2.627   4.029
 1907TIP3   OH2 5726   2.032   5.975   1.119
 1907TIP3    H1 5727   1.965   5.936   1.064
 1907TIP3    H2 5728   2.072   5.901   1.165
 1908TIP3   OH2 5729   5.303   4.558   1.017
 1908TIP3    H1 5730   5.321   4.509   1.097
 1908TIP3    H2 5731   5.323   4.496   0.947
 1909TIP3   OH2 5732   1.336   4.350   2.627
 1909TIP3    H1 5733   1.268   4.284   2.637
 1909TIP3    H2 5734   1.311   4.419   2.689
 1910TIP3   OH2 5735   1.253   4.003   4.259
 1910TIP3    H1 5736   1.251   3.907   4.261
 1910TIP3    H2 5737   1.163   4.029   4.240
 1911TIP3   OH2 5738   6.290   3.276   0.480
 1911TIP3    H1 5739   6.236   3.197   0.481
 1911TIP3    H2 5740   6.357   3.258   0.414
 1912TIP3   OH2 5741   5.186   1.833   2.882
 1912TIP3    H1 5742   5.275   1.862   2.862
 1912TIP3    H2 5743   5.134   1.867   2.809
 1913TIP3   OH2 5744   5.122   3.319   0.827
 1913TIP3    H1 5745   5.201   3.273   0.800
 1913TIP3    H2 5746   5.065   3.316   0.750
 1914TIP3   OH2 5747   0.526   0.475   3.489
 1914TIP3    H1 5748   0.506   0.553   3.438
 1914TIP3    H2 5749   0.492   0.402   3.437
 1915TIP3   OH2 5750   4.772   4.546   5.185
 1915TIP3    H1 5751   4.709   4.476   5.167
 1915TIP3    H2 5752   4.833   4.542   5.111
 1916TIP3   OH2 5753   0.630   2.696   0.143
 1916TIP3    H1 5754   0.718   2.671   0.174
 1916TIP3    H2 5755   0.599   2.759   0.208
 1917TIP3   OH2 5756   0.186   2.238   3.466
 1917TIP3    H1 5757   0.135   2.227   3.385
 1917TIP3    H2 5758   0.261   2.291   3.440
 1918TIP3   OH2 5759   5.103   1.612   4.863
 1918TIP3    H1 5760   5.014   1.645   4.877
 1918TIP3    H2 5761   5.108   1.599   4.768
 1919TIP3   OH2 5762   2.276   1.349   0.109
 1919TIP3    H1 5763   2.204   1.335   0.171
 1919TIP3    H2 5764   2.271   1.273   0.050
 1920TIP3   OH2 5765   1.543   4.326   3.095
 1920TIP3    H1 5766   1.637   4.319   3.111
 1920TIP3    H2 5767   1.504   4.340   3.182
 1921TIP3   OH2 5768   3.386   2.256   2.413
 1921TIP3    H1 5769   3.373   2.351   2.406
 1921TIP3    H2 5770   3.354   2.234   2.501
 1922TIP3   OH2 5771   4.564   5.935   4.623
 1922TIP3    H1 5772   4.572   6.009   4.683
 1922TIP3    H2 5773   4.473   5.907   4.631
 1923TIP3   OH2 5774   3.699   2.092   2.029
 1923TIP3    H1 5775   3.772   2.108   2.088
 1923TIP3    H2 5776   3.621   2.112   2.081
 1924TIP3   OH2 5777   5.389   4.528   4.466
 1924TIP3    H1 5778   5.362   4.437   4.470
 1924TIP3    H2 5779   5.482   4.527   4.489
 1925TIP3   OH2 5780   4.438   1.604   0.870
 1925TIP3    H1 5781   4.425   1.536   0.804
 1925TIP3    H2 5782   4.529   1.593   0.899
 1926TIP3   OH2 5783   0.372   3.132   4.464
 1926TIP3    H1 5784   0.428   3.072   4.513
 1926TIP3    H2 5785   0.362   3.208   4.521
 1927TIP3   OH2 5786   1.613   3.937   2.697
 1927TIP3    H1 5787   1.652   4.014   2.657
 1927TIP3    H2 5788   1.652   3.933   2.784
 1928TIP3   OH2 5789   0.898   0.462   0.546
 1928TIP3    H1 5790   0.845   0.475   0.625
 1928TIP3    H2 5791   0.882   0.541   0.494
 1929TIP3   OH2 5792   4.845   4.631   2.816
 1929TIP3    H1 5793   4.939   4.649   2.803
 1929TIP3    H2 5794   4.843   4.573   2.893
 1930TIP3   OH2 5795   3.313   5.032   0.151
 1930TIP3    H1 5796   3.367   5.042   0.072
 1930TIP3    H2 5797   3.252   4.961   0.129
 1931TIP3   OH2 5798   4.593   2.623   0.821
 1931TIP3    H1 5799   4.671   2.642   0.768
 1931TIP3    H2 5800   4.615   2.655   0.908
 1932TIP3   OH2 5801   2.636   1.283   1.197
 1932TIP3    H1 5802   2.626   1.210   1.135
 1932TIP3    H2 5803   2.573   1.263   1.267
 1933TIP3   OH2 5804   0.632   4.197   4.419
 1933TIP3    H1 5805   0.624   4.229   4.509
 1933TIP3    H2 5806   0.726   4.203   4.400
 1934TIP3   OH2 5807   3.660   2.522   3.414
 1934TIP3    H1 5808   3.566   2.537   3.420
 1934TIP3    H2 5809   3.698   2.609   3.399
 1935TIP3   OH2 5810   1.563   3.385   1.617
 1935TIP3    H1 5811   1.578   3.312   1.677
 1935TIP3    H2 5812   1.521   3.347   1.541
 1936TIP3   OH2 5813   3.897   0.902   4.642
 1936TIP3    H1 5814   3.941   0.966   4.698
 1936TIP3    H2 5815   3.929   0.817   4.673
 1937TIP3   OH2 5816   5.589   0.835   0.203
 1937TIP3    H1 5817   5.681   0.809   0.195
 1937TIP3    H2 5818   5.579   0.858   0.295
 1938TIP3   OH2 5819   6.197   3.500   2.998
 1938TIP3    H1 5820   6.167   3.544   3.078
 1938TIP3    H2 5821   6.174   3.408   3.012
 1939TIP3   OH2 5822   4.806   2.662   4.228
 1939TIP3    H1 5823   4.754   2.617   4.295
 1939TIP3    H2 5824   4.848   2.592   4.179
 1940TIP3   OH2 5825   5.497   1.231   1.781
 1940TIP3    H1 5826   5.575   1.222   1.725
 1940TIP3    H2 5827   5.521   1.297   1.845
 1941TIP3   OH2 5828   4.174   0.752   5.162
 1941TIP3    H1 5829   4.115   0.678   5.170
 1941TIP3    H2 5830   4.261   0.713   5.153
 1942TIP3   OH2 5831   6.247   1.817   2.492
 1942TIP3    H1 5832   6.170   1.843   2.543
 1942TIP3    H2 5833   6.228   1.845   2.403
 1943TIP3   OH2 5834   1.313   0.230   0.588
 1943TIP3    H1 5835   1.383   0.178   0.549
 1943TIP3    H2 5836   1.288   0.292   0.520
 1944TIP3   OH2 5837   5.514   5.236   1.582
 1944TIP3    H1 5838   5.524   5.143   1.563
 1944TIP3    H2 5839   5.572   5.280   1.520
 1945TIP3   OH2 5840   3.456   0.208   1.281
 1945TIP3    H1 5841   3.403   0.161   1.346
 1945TIP3    H2 5842   3.407   0.199   1.199
 1946TIP3   OH2 5843   2.170   3.464   4.577
 1946TIP3    H1 5844   2.232   3.469   4.505
 1946TIP3    H2 5845   2.169   3.552   4.614
 1947TIP3   OH2 5846   1.417   2.687   0.092
 1947TIP3    H1 5847   1.484   2.732   0.041
 1947TIP3    H2 5848   1.334   2.710   0.050
 1948TIP3   OH2 5849   5.582   4.866   3.105
 1948TIP3    H1 5850   5.504   4.852   3.158
 1948TIP3    H2 5851   5.577   4.799   3.037
 1949TIP3   OH2 5852   5.936   4.876   3.541
 1949TIP3    H1 5853   5.869   4.902   3.478
 1949TIP3    H2 5854   5.955   4.956   3.590
 1950TIP3   OH2 5855   6.070   5.959   2.622
 1950TIP3    H1 5856   6.018   6.007   2.687
 1950TIP3    H2 5857   6.132   5.908   2.673
 1951TIP3   OH2 5858   1.391   4.340   3.989
 1951TIP3    H1 5859   1.335   4.267   4.016
 1951TIP3    H2 5860   1.480   4.308   4.002
 1952TIP3   OH2 5861   1.781   3.235   0.053
 1952TIP3    H1 5862   1.788   3.278   0.138
 1952TIP3    H2 5863   1.686   3.229   0.037
 1953TIP3   OH2 5864   0.949   0.600   4.866
 1953TIP3    H1 5865   0.921   0.508   4.872
 1953TIP3    H2 5866   0.869   0.650   4.873
 1954TIP3   OH2 5867   0.748   5.117   3.415
 1954TIP3    H1 5868   0.817   5.074   3.364
 1954TIP3    H2 5869   0.699   5.045   3.454
 1955TIP3   OH2 5870   0.377   4.485   1.240
 1955TIP3    H1 5871   0.450   4.535   1.204
 1955TIP3    H2 5872   0.319   4.552   1.278
 1956TIP3   OH2 5873   2.417   1.850   3.857
 1956TIP3    H1 5874   2.356   1.858   3.784
 1956TIP3    H2 5875   2.478   1.922   3.845
 1957TIP3   OH2 5876   5.831   2.926   4.269
 1957TIP3    H1 5877   5.807   2.956   4.181
 1957TIP3    H2 5878   5.821   2.831   4.265
 1958TIP3   OH2 5879   0.065   4.699   3.815
 1958TIP3    H1 5880   0.036   4.610   3.834
 1958TIP3    H2 5881   0.041   4.749   3.892
 1959TIP3   OH2 5882   6.111   1.703   4.238
 1959TIP3    H1 5883   6.160   1.700   4.321
 1959TIP3    H2 5884   6.020   1.691   4.264
 1960TIP3   OH2 5885   5.015   3.560   2.460
 1960TIP3    H1 5886   5.106   3.590   2.472
 1960TIP3    H2 5887   5.016   3.516   2.375
 1961TIP3   OH2 5888   1.364   3.960  -0.025
 1961TIP3    H1 5889   1.351   4.034  -0.084
 1961TIP3    H2 5890   1.316   3.985   0.054
 1962TIP3   OH2 5891   6.016   2.050   2.336
 1962TIP3    H1 5892   6.033   2.024   2.426
 1962TIP3    H2 5893   5.937   2.003   2.311
 1963TIP3   OH2 5894   3.353   3.354   1.399
 1963TIP3    H1 5895   3.261   3.360   1.423
 1963TIP3    H2 5896   3.365   3.419   1.331
 1964TIP3   OH2 5897   4.585   2.275   0.097
 1964TIP3    H1 5898   4.633   2.206   0.142
 1964TIP3    H2 5899   4.619   2.273   0.007
 1965TIP3   OH2 5900   5.558   5.122   0.048
 1965TIP3    H1 5901   5.507   5.183   0.100
 1965TIP3    H2 5902   5.627   5.092   0.107
 1966TIP3   OH2 5903   0.805   2.495   1.962
 1966TIP3    H1 5904   0.882   2.440   1.975
 1966TIP3    H2 5905   0.805   2.554   2.037
 1967TIP3   OH2 5906   5.362   4.954   0.242
 1967TIP3    H1 5907   5.269   4.959   0.265
 1967TIP3    H2 5908   5.401   5.031   0.282
 1968TIP3   OH2 5909   0.447   1.627   0.986
 1968TIP3    H1 5910   0.521   1.667   0.940
 1968TIP3    H2 5911   0.388   1.700   1.005
 1969TIP3   OH2 5912   1.465   2.804   0.969
 1969TIP3    H1 5913   1.450   2.712   0.990
 1969TIP3    H2 5914   1.478   2.846   1.054
 1970TIP3   OH2 5915   3.227   0.340   4.916
 1970TIP3    H1 5916   3.299   0.278   4.907
 1970TIP3    H2 5917   3.223   0.360   5.010
 1971TIP3   OH2 5918   4.091   2.543   0.196
 1971TIP3    H1 5919   4.115   2.621   0.146
 1971TIP3    H2 5920   4.014   2.509   0.151
 1972TIP3   OH2 5921   3.271   5.490   4.714
 1972TIP3    H1 5922   3.249   5.517   4.625
 1972TIP3    H2 5923   3.215   5.543   4.770
 1973TIP3   OH2 5924   4.913   0.818   4.846
 1973TIP3    H1 5925   4.929   0.724   4.851
 1973TIP3    H2 5926   4.983   0.857   4.897
 1974TIP3   OH2 5927   3.118   2.545   0.652
 1974TIP3    H1 5928   3.086   2.482   0.587
 1974TIP3    H2 5929   3.130   2.494   0.732
 1975TIP3   OH2 5930   2.430   1.416   2.623
 1975TIP3    H1 5931   2.415   1.372   2.540
 1975TIP3    H2 5932   2.502   1.476   2.606
 1976TIP3   OH2 5933   1.653   5.431   4.340
 1976TIP3    H1 5934   1.700   5.391   4.413
 1976TIP3    H2 5935   1.722   5.468   4.284
 1977TIP3   OH2 5936   1.970   1.003   3.707
 1977TIP3    H1 5937   1.983   1.069   3.775
 1977TIP3    H2 5938   2.051   0.953   3.705
 1978TIP3   OH2 5939   2.145   3.717   4.069
 1978TIP3    H1 5940   2.074   3.778   4.053
 1978TIP3    H2 5941   2.144   3.703   4.163
 1979TIP3   OH2 5942   5.882   2.587   4.021
 1979TIP3    H1 5943   5.976   2.570   4.013
 1979TIP3    H2 5944   5.869   2.601   4.115
 1980TIP3   OH2 5945   1.381   0.152   0.976
 1980TIP3    H1 5946   1.383   0.198   0.892
 1980TIP3    H2 5947   1.407   0.062   0.955
 1981TIP3   OH2 5948   3.731   3.688   3.779
 1981TIP3    H1 5949   3.670   3.758   3.756
 1981TIP3    H2 5950   3.773   3.664   3.697
 1982TIP3   OH2 5951   0.083   5.364   1.104
 1982TIP3    H1 5952   0.103   5.273   1.126
 1982TIP3    H2 5953   0.115   5.374   1.015
 1983TIP3   OH2 5954   0.340   0.503   2.784
 1983TIP3    H1 5955   0.338   0.578   2.844
 1983TIP3    H2 5956   0.433   0.479   2.779
 1984TIP3   OH2 5957   5.624   1.700   4.528
 1984TIP3    H1 5958   5.576   1.764   4.581
 1984TIP3    H2 5959   5.670   1.646   4.592
 1985TIP3   OH2 5960   1.170   4.932   2.709
 1985TIP3    H1 5961   1.194   4.882   2.631
 1985TIP3    H2 5962   1.116   5.004   2.676
 1986TIP3   OH2 5963   2.393   3.898   4.574
 1986TIP3    H1 5964   2.339   3.862   4.644
 1986TIP3    H2 5965   2.462   3.948   4.619
 1987TIP3   OH2 5966   4.545   3.345   1.508
 1987TIP3    H1 5967   4.575   3.413   1.568
 1987TIP3    H2 5968   4.492   3.393   1.444
 1988TIP3   OH2 5969   4.790   3.636   3.500
 1988TIP3    H1 5970   4.822   3.610   3.587
 1988TIP3    H2 5971   4.759   3.554   3.461
 1989TIP3   OH2 5972   3.878   1.386   2.038
 1989TIP3    H1 5973   3.784   1.385   2.055
 1989TIP3    H2 5974   3.886   1.431   1.954
 1990TIP3   OH2 5975   2.557   5.004   1.012
 1990TIP3    H1 5976   2.490   5.021   1.078
 1990TIP3    H2 5977   2.636   4.986   1.063
 1991TIP3   OH2 5978   2.918   2.943   4.743
 1991TIP3    H1 5979   3.001   2.914   4.704
 1991TIP3    H2 5980   2.876   2.863   4.774
 1992TIP3   OH2 5981   1.657   2.333   1.013
 1992TIP3    H1 5982   1.714   2.391   1.064
 1992TIP3    H2 5983   1.645   2.257   1.069
 1993TIP3   OH2 5984   1.510   3.485   3.913
 1993TIP3    H1 5985   1.490   3.458   3.824
 1993TIP3    H2 5986   1.509   3.581   3.910
 1994TIP3   OH2 5987   1.562   2.922   1.583
 1994TIP3    H1 5988   1.530   3.005   1.548
 1994TIP3    H2 5989   1.609   2.882   1.510
 1995TIP3   OH2 5990   0.138   1.552   3.559
 1995TIP3    H1 5991   0.227   1.528   3.584
 1995TIP3    H2 5992   0.146   1.581   3.468
 1996TIP3   OH2 5993   3.127   2.777   0.904
 1996TIP3    H1 5994   3.107   2.724   0.827
 1996TIP3    H2 5995   3.099   2.723   0.978
 1997TIP3   OH2 5996   4.163   0.299   0.254
 1997TIP3    H1 5997   4.131   0.253   0.176
 1997TIP3    H2 5998   4.211   0.375   0.218
 1998TIP3   OH2 5999   0.679   0.169   4.235
 1998TIP3    H1 6000   0.761   0.217   4.247
 1998TIP3    H2 6001   0.631   0.183   4.316
 1999TIP3   OH2 6002   3.489   5.157   4.356
 1999TIP3    H1 6003   3.575   5.199   4.361
 1999TIP3    H2 6004   3.467   5.137   4.447
 2000TIP3   OH2 6005   5.835   4.212   2.264
 2000TIP3    H1 6006   5.892   4.239   2.192
 2000TIP3    H2 6007   5.859   4.120   2.280
 2001TIP3   OH2 6008   4.944   1.238   2.431
 2001TIP3    H1 6009   4.947   1.149   2.466
 2001TIP3    H2 6010   4.898   1.230   2.347
 2002TIP3   OH2 6011   5.187   0.325   3.719
 2002TIP3    H1 6012   5.254   0.393   3.729
 2002TIP3    H2 6013   5.152   0.313   3.807
 2003TIP3   OH2 6014   2.634   5.261   0.492
 2003TIP3    H1 6015   2.549   5.233   0.524
 2003TIP3    H2 6016   2.661   5.192   0.431
 2004TIP3   OH2 6017   0.951   4.995   2.341
 2004TIP3    H1 6018   0.973   4.998   2.247
 2004TIP3    H2 6019   0.896   5.072   2.355
 2005TIP3   OH2 6020   5.938   0.285   2.971
 2005TIP3    H1 6021   6.022   0.258   3.008
 2005TIP3    H2 6022   5.873   0.235   3.021
 2006TIP3   OH2 6023   3.117   4.193   4.037
 2006TIP3    H1 6024   3.198   4.169   3.992
 2006TIP3    H2 6025   3.051   4.196   3.968
 2007TIP3   OH2 6026   6.053   4.653   4.356
 2007TIP3    H1 6027   6.077   4.572   4.312
 2007TIP3    H2 6028   6.137   4.692   4.381
 2008TIP3   OH2 6029   1.251   0.458   0.420
 2008TIP3    H1 6030   1.179   0.520   0.430
 2008TIP3    H2 6031   1.330   0.509   0.434
 2009TIP3   OH2 6032   4.556   4.108   1.249
 2009TIP3    H1 6033   4.556   4.204   1.245
 2009TIP3    H2 6034   4.559   4.080   1.157
 2010TIP3   OH2 6035   5.416   4.381   4.716
 2010TIP3    H1 6036   5.511   4.378   4.728
 2010TIP3    H2 6037   5.387   4.450   4.776
 2011TIP3   OH2 6038   2.062   4.703   4.880
 2011TIP3    H1 6039   2.047   4.792   4.913
 2011TIP3    H2 6040   2.006   4.697   4.803
 2012TIP3   OH2 6041   4.307   5.356   5.070
 2012TIP3    H1 6042   4.266   5.418   5.131
 2012TIP3    H2 6043   4.254   5.277   5.078
 2013TIP3   OH2 6044   4.265   0.909   4.164
 2013TIP3    H1 6045   4.291   1.000   4.155
 2013TIP3    H2 6046   4.185   0.912   4.217
 2014TIP3   OH2 6047   0.272   5.193   4.949
 2014TIP3    H1 6048   0.301   5.248   4.876
 2014TIP3    H2 6049   0.182   5.169   4.926
 2015TIP3   OH2 6050   6.046   0.133   4.364
 2015TIP3    H1 6051   6.080   0.129   4.453
 2015TIP3    H2 6052   6.004   0.048   4.351
 2016TIP3   OH2 6053   0.527   3.975   1.114
 2016TIP3    H1 6054   0.444   3.930   1.094
 2016TIP3    H2 6055   0.500   4.052   1.164
 2017TIP3   OH2 6056   4.894   5.487   0.175
 2017TIP3    H1 6057   4.926   5.421   0.114
 2017TIP3    H2 6058   4.824   5.532   0.127
 2018TIP3   OH2 6059   4.864   1.236   0.980
 2018TIP3    H1 6060   4.832   1.230   1.070
 2018TIP3    H2 6061   4.806   1.178   0.930
 2019TIP3   OH2 6062   1.453   5.008   2.823
 2019TIP3    H1 6063   1.360   4.986   2.813
 2019TIP3    H2 6064   1.466   5.083   2.765
 2020TIP3   OH2 6065   4.991   0.451   3.085
 2020TIP3    H1 6066   4.964   0.369   3.126
 2020TIP3    H2 6067   5.022   0.505   3.157
 2021TIP3   OH2 6068   1.847   3.699   2.130
 2021TIP3    H1 6069   1.815   3.751   2.204
 2021TIP3    H2 6070   1.783   3.715   2.060
 2022TIP3   OH2 6071   2.611   0.707   4.010
 2022TIP3    H1 6072   2.631   0.771   3.942
 2022TIP3    H2 6073   2.577   0.631   3.962
 2023TIP3   OH2 6074   5.892   3.761   0.179
 2023TIP3    H1 6075   5.799   3.762   0.205
 2023TIP3    H2 6076   5.925   3.847   0.207
 2024TIP3   OH2 6077   5.948   2.660   0.342
 2024TIP3    H1 6078   5.925   2.572   0.371
 2024TIP3    H2 6079   5.923   2.716   0.415
 2025TIP3   OH2 6080   1.580   1.926   3.958
 2025TIP3    H1 6081   1.523   1.898   4.029
 2025TIP3    H2 6082   1.529   1.910   3.879
 2026TIP3   OH2 6083   3.191   4.066   5.144
 2026TIP3    H1 6084   3.121   4.003   5.125
 2026TIP3    H2 6085   3.204   4.113   5.062
 2027TIP3   OH2 6086   3.130   5.652   3.117
 2027TIP3    H1 6087   3.138   5.727   3.058
 2027TIP3    H2 6088   3.060   5.677   3.177
 2028TIP3   OH2 6089   2.379   2.152   0.127
 2028TIP3    H1 6090   2.387   2.057   0.137
 2028TIP3    H2 6091   2.382   2.167   0.033
 2029TIP3   OH2 6092   0.416   2.607   0.648
 2029TIP3    H1 6093   0.424   2.525   0.697
 2029TIP3    H2 6094   0.445   2.674   0.710
 2030TIP3   OH2 6095   0.134   0.726   4.512
 2030TIP3    H1 6096   0.174   0.640   4.501
 2030TIP3    H2 6097   0.152   0.750   4.603
 2031TIP3   OH2 6098   2.245   4.895   3.477
 2031TIP3    H1 6099   2.200   4.956   3.419
 2031TIP3    H2 6100   2.330   4.881   3.436
 2032TIP3   OH2 6101   3.177   4.287   0.639
 2032TIP3    H1 6102   3.170   4.224   0.711
 2032TIP3    H2 6103   3.228   4.241   0.572
 2033TIP3   OH2 6104   1.642   1.739   0.228
 2033TIP3    H1 6105   1.564   1.683   0.235
 2033TIP3    H2 6106   1.715   1.678   0.221
 2034TIP3   OH2 6107   0.340   0.656   3.700
 2034TIP3    H1 6108   0.278   0.713   3.745
 2034TIP3    H2 6109   0.427   0.687   3.729
 2035TIP3   OH2 6110   2.896   2.662   3.617
 2035TIP3    H1 6111   2.900   2.736   3.677
 2035TIP3    H2 6112   2.953   2.596   3.656
 2036TIP3   OH2 6113   4.378   2.124   3.690
 2036TIP3    H1 6114   4.427   2.064   3.634
 2036TIP3    H2 6115   4.316   2.068   3.737
 2037TIP3   OH2 6116   3.969   5.551   0.459
 2037TIP3    H1 6117   4.007   5.506   0.534
 2037TIP3    H2 6118   3.934   5.633   0.495
 2038TIP3   OH2 6119   0.787   4.394   1.200
 2038TIP3    H1 6120   0.786   4.443   1.117
 2038TIP3    H2 6121   0.812   4.305   1.174
 2039TIP3   OH2 6122   1.858   3.713   4.899
 2039TIP3    H1 6123   1.908   3.772   4.843
 2039TIP3    H2 6124   1.802   3.664   4.839
 2040TIP3   OH2 6125   0.656   2.903   5.089
 2040TIP3    H1 6126   0.746   2.907   5.120
 2040TIP3    H2 6127   0.605   2.946   5.157
 2041TIP3   OH2 6128   0.847   2.023   0.440
 2041TIP3    H1 6129   0.807   1.973   0.511
 2041TIP3    H2 6130   0.793   2.102   0.432
 2042TIP3   OH2 6131   3.113   4.882   3.035
 2042TIP3    H1 6132   3.063   4.818   2.985
 2042TIP3    H2 6133   3.169   4.830   3.092
 2043TIP3   OH2 6134   0.293   2.076   1.643
 2043TIP3    H1 6135   0.368   2.129   1.672
 2043TIP3    H2 6136   0.219   2.109   1.693
 2044TIP3   OH2 6137   3.629   5.563   3.471
 2044TIP3    H1 6138   3.620   5.627   3.542
 2044TIP3    H2 6139   3.569   5.493   3.494
 2045TIP3   OH2 6140   3.968   1.023   2.460
 2045TIP3    H1 6141   3.917   0.952   2.499
 2045TIP3    H2 6142   3.917   1.102   2.479
 2046TIP3   OH2 6143   3.752   5.214   4.292
 2046TIP3    H1 6144   3.787   5.303   4.297
 2046TIP3    H2 6145   3.796   5.175   4.217
 2047TIP3   OH2 6146   5.340   4.880   0.559
 2047TIP3    H1 6147   5.420   4.831   0.540
 2047TIP3    H2 6148   5.369   4.954   0.613
 2048TIP3   OH2 6149   3.592   0.890   2.011
 2048TIP3    H1 6150   3.505   0.925   1.990
 2048TIP3    H2 6151   3.575   0.799   2.035
 2049TIP3   OH2 6152   2.482   1.803   2.774
 2049TIP3    H1 6153   2.550   1.789   2.840
 2049TIP3    H2 6154   2.403   1.764   2.812
 2050TIP3   OH2 6155   4.984   0.776   0.509
 2050TIP3    H1 6156   4.904   0.792   0.459
 2050TIP3    H2 6157   4.968   0.692   0.553
 2051TIP3   OH2 6158   0.460   3.739   2.624
 2051TIP3    H1 6159   0.365   3.738   2.632
 2051TIP3    H2 6160   0.481   3.660   2.573
 2052TIP3   OH2 6161   5.822   3.500   3.668
 2052TIP3    H1 6162   5.830   3.437   3.739
 2052TIP3    H2 6163   5.890   3.565   3.686
 2053TIP3   OH2 6164   3.030   4.437   3.380
 2053TIP3    H1 6165   3.000   4.483   3.459
 2053TIP3    H2 6166   3.100   4.380   3.411
 2054TIP3   OH2 6167   2.852   3.594   4.369
 2054TIP3    H1 6168   2.898   3.673   4.341
 2054TIP3    H2 6169   2.865   3.533   4.297
 2055TIP3   OH2 6170   4.215   5.246   0.321
 2055TIP3    H1 6171   4.219   5.341   0.308
 2055TIP3    H2 6172   4.176   5.213   0.241
 2056TIP3   OH2 6173   1.484   1.407   2.468
 2056TIP3    H1 6174   1.433   1.452   2.535
 2056TIP3    H2 6175   1.571   1.449   2.473
 2057TIP3   OH2 6176   1.379   3.327   3.706
 2057TIP3    H1 6177   1.399   3.321   3.612
 2057TIP3    H2 6178   1.429   3.256   3.746
 2058TIP3   OH2 6179   0.358   4.778   4.797
 2058TIP3    H1 6180   0.399   4.865   4.791
 2058TIP3    H2 6181   0.353   4.748   4.706
 2059TIP3   OH2 6182   0.664   2.151   4.468
 2059TIP3    H1 6183   0.582   2.200   4.463
 2059TIP3    H2 6184   0.699   2.172   4.555
 2060TIP3   OH2 6185   2.494   4.207   2.346
 2060TIP3    H1 6186   2.515   4.199   2.253
 2060TIP3    H2 6187   2.399   4.220   2.348
 2061TIP3   OH2 6188   0.817   3.622   0.625
 2061TIP3    H1 6189   0.737   3.670   0.647
 2061TIP3    H2 6190   0.841   3.654   0.538
 2062TIP3   OH2 6191   4.204   2.057   0.785
 2062TIP3    H1 6192   4.120   2.064   0.740
 2062TIP3    H2 6193   4.264   2.108   0.730
 2063TIP3   OH2 6194   5.175   1.681   2.484
 2063TIP3    H1 6195   5.169   1.753   2.547
 2063TIP3    H2 6196   5.260   1.694   2.441
 2064TIP3   OH2 6197   5.026   2.126   0.238
 2064TIP3    H1 6198   5.092   2.164   0.180
 2064TIP3    H2 6199   5.040   2.032   0.231
 2065TIP3   OH2 6200   5.426   2.153   1.970
 2065TIP3    H1 6201   5.360   2.168   2.038
 2065TIP3    H2 6202   5.508   2.147   2.018
 2066TIP3   OH2 6203   5.203   0.997   3.544
 2066TIP3    H1 6204   5.110   1.003   3.522
 2066TIP3    H2 6205   5.239   0.937   3.480
 2067TIP3   OH2 6206   5.551   5.356   3.122
 2067TIP3    H1 6207   5.602   5.282   3.089
 2067TIP3    H2 6208   5.471   5.355   3.070
 2068TIP3   OH2 6209   0.061   3.429   5.122
 2068TIP3    H1 6210   0.020   3.479   5.192
 2068TIP3    H2 6211   0.126   3.489   5.085
 2069TIP3   OH2 6212   4.651   1.838   2.199
 2069TIP3    H1 6213   4.605   1.919   2.174
 2069TIP3    H2 6214   4.630   1.827   2.292
 2070TIP3   OH2 6215   4.185   2.947   0.525
 2070TIP3    H1 6216   4.116   2.990   0.475
 2070TIP3    H2 6217   4.182   2.856   0.497
 2071TIP3   OH2 6218   5.776   5.779   0.016
 2071TIP3    H1 6219   5.741   5.791   0.105
 2071TIP3    H2 6220   5.730   5.845  -0.036
 2072TIP3   OH2 6221   0.396   2.772   0.305
 2072TIP3    H1 6222   0.406   2.678   0.317
 2072TIP3    H2 6223   0.375   2.781   0.212
 2073TIP3   OH2 6224   4.398   2.475   4.685
 2073TIP3    H1 6225   4.398   2.570   4.694
 2073TIP3    H2 6226   4.326   2.456   4.624
 2074TIP3   OH2 6227   0.222   5.447   1.598
 2074TIP3    H1 6228   0.223   5.384   1.526
 2074TIP3    H2 6229   0.303   5.497   1.588
 2075TIP3   OH2 6230   3.336   4.645   1.665
 2075TIP3    H1 6231   3.326   4.663   1.571
 2075TIP3    H2 6232   3.430   4.634   1.677
 2076TIP3   OH2 6233   1.244   0.429   4.483
 2076TIP3    H1 6234   1.307   0.492   4.449
 2076TIP3    H2 6235   1.292   0.382   4.552
 2077TIP3   OH2 6236   2.513   0.422   4.259
 2077TIP3    H1 6237   2.463   0.504   4.258
 2077TIP3    H2 6238   2.602   0.448   4.236
 2078TIP3   OH2 6239   3.541   2.190   3.956
 2078TIP3    H1 6240   3.499   2.217   3.875
 2078TIP3    H2 6241   3.632   2.216   3.946
 2079TIP3   OH2 6242   1.663   1.601   0.665
 2079TIP3    H1 6243   1.595   1.635   0.607
 2079TIP3    H2 6244   1.617   1.543   0.725
 2080TIP3   OH2 6245   4.757   0.239   4.189
 2080TIP3    H1 6246   4.688   0.195   4.239
 2080TIP3    H2 6247   4.711   0.297   4.129
 2081TIP3   OH2 6248   3.100   4.250   4.307
 2081TIP3    H1 6249   3.176   4.203   4.341
 2081TIP3    H2 6250   3.099   4.231   4.213
 2082TIP3   OH2 6251   0.509   0.808   0.073
 2082TIP3    H1 6252   0.570   0.814   0.147
 2082TIP3    H2 6253   0.429   0.771   0.111
 2083TIP3   OH2 6254   5.171   5.852   2.573
 2083TIP3    H1 6255   5.141   5.932   2.530
 2083TIP3    H2 6256   5.127   5.782   2.526
 2084TIP3   OH2 6257   3.107   1.278   0.556
 2084TIP3    H1 6258   3.159   1.353   0.529
 2084TIP3    H2 6259   3.055   1.256   0.479
 2085TIP3   OH2 6260   2.126   5.149   3.316
 2085TIP3    H1 6261   2.216   5.181   3.311
 2085TIP3    H2 6262   2.074   5.218   3.274
 2086TIP3   OH2 6263   3.127   1.345   4.529
 2086TIP3    H1 6264   3.171   1.347   4.444
 2086TIP3    H2 6265   3.069   1.422   4.527
 2087TIP3   OH2 6266   0.135   1.323   1.495
 2087TIP3    H1 6267   0.125   1.255   1.562
 2087TIP3    H2 6268   0.187   1.391   1.537
 2088TIP3   OH2 6269   4.090   0.721   1.714
 2088TIP3    H1 6270   4.169   0.703   1.764
 2088TIP3    H2 6271   4.018   0.698   1.773
 2089TIP3   OH2 6272   3.758   1.944   4.895
 2089TIP3    H1 6273   3.703   1.972   4.967
 2089TIP3    H2 6274   3.753   1.848   4.896
 2090TIP3   OH2 6275   5.003   1.142   4.014
 2090TIP3    H1 6276   5.034   1.211   4.073
 2090TIP3    H2 6277   4.915   1.122   4.046
 2091TIP3   OH2 6278   0.759   0.209   3.414
 2091TIP3    H1 6279   0.675   0.210   3.369
 2091TIP3    H2 6280   0.822   0.184   3.346
 2092TIP3   OH2 6281   2.659   1.145   0.666
 2092TIP3    H1 6282   2.598   1.102   0.606
 2092TIP3    H2 6283   2.723   1.077   0.687
 2093TIP3   OH2 6284   5.326   1.759   0.874
 2093TIP3    H1 6285   5.298   1.850   0.866
 2093TIP3    H2 6286   5.418   1.764   0.900
 2094TIP3   OH2 6287   3.175   3.880   1.206
 2094TIP3    H1 6288   3.169   3.970   1.239
 2094TIP3    H2 6289   3.097   3.837   1.241
 2095TIP3   OH2 6290   1.454   3.422   2.926
 2095TIP3    H1 6291   1.497   3.399   2.843
 2095TIP3    H2 6292   1.489   3.508   2.948
 2096TIP3   OH2 6293   1.303   2.994   5.070
 2096TIP3    H1 6294   1.252   3.074   5.082
 2096TIP3    H2 6295   1.393   3.020   5.086
 2097TIP3   OH2 6296   3.889   4.190   3.488
 2097TIP3    H1 6297   3.976   4.204   3.525
 2097TIP3    H2 6298   3.830   4.190   3.564
 2098TIP3   OH2 6299   3.046   0.590   5.119
 2098TIP3    H1 6300   2.981   0.619   5.056
 2098TIP3    H2 6301   2.996   0.561   5.195
 2099TIP3   OH2 6302   2.988   2.530   1.718
 2099TIP3    H1 6303   3.012   2.620   1.739
 2099TIP3    H2 6304   2.940   2.537   1.635
 2100TIP3   OH2 6305   2.696   5.929   1.719
 2100TIP3    H1 6306   2.671   5.852   1.772
 2100TIP3    H2 6307   2.745   5.984   1.780
 2101TIP3   OH2 6308   1.754   0.618   0.224
 2101TIP3    H1 6309   1.766   0.653   0.312
 2101TIP3    H2 6310   1.668   0.575   0.226
 2102TIP3   OH2 6311   3.713   1.880   1.501
 2102TIP3    H1 6312   3.703   1.861   1.594
 2102TIP3    H2 6313   3.763   1.962   1.499
 2103TIP3   OH2 6314   5.736   2.807   1.518
 2103TIP3    H1 6315   5.773   2.882   1.472
 2103TIP3    H2 6316   5.720   2.742   1.449
 2104TIP3   OH2 6317   4.443   2.182   0.679
 2104TIP3    H1 6318   4.466   2.091   0.697
 2104TIP3    H2 6319   4.509   2.211   0.616
 2105TIP3   OH2 6320   5.755   1.026   1.155
 2105TIP3    H1 6321   5.762   1.119   1.176
 2105TIP3    H2 6322   5.845   0.994   1.160
 2106TIP3   OH2 6323   0.938   5.665   4.507
 2106TIP3    H1 6324   1.029   5.640   4.520
 2106TIP3    H2 6325   0.889   5.584   4.523
 2107TIP3   OH2 6326   5.921   1.912   1.047
 2107TIP3    H1 6327   5.890   1.836   1.096
 2107TIP3    H2 6328   5.925   1.882   0.956
 2108TIP3   OH2 6329   2.012   0.890   3.360
 2108TIP3    H1 6330   1.979   0.963   3.411
 2108TIP3    H2 6331   1.934   0.848   3.324
 2109TIP3   OH2 6332   1.816   4.351   4.527
 2109TIP3    H1 6333   1.734   4.346   4.477
 2109TIP3    H2 6334   1.839   4.261   4.546
 2110TIP3   OH2 6335   3.160   3.607   1.524
 2110TIP3    H1 6336   3.166   3.644   1.613
 2110TIP3    H2 6337   3.244   3.627   1.484
 2111TIP3   OH2 6338   4.396   4.942   4.104
 2111TIP3    H1 6339   4.487   4.913   4.101
 2111TIP3    H2 6340   4.357   4.890   4.174
 2112TIP3   OH2 6341   4.250   5.236   0.033
 2112TIP3    H1 6342   4.265   5.325   0.000
 2112TIP3    H2 6343   4.326   5.186   0.004
 2113TIP3   OH2 6344   5.996   3.892   3.389
 2113TIP3    H1 6345   6.034   3.875   3.475
 2113TIP3    H2 6346   5.930   3.960   3.405
 2114TIP3   OH2 6347   5.197   0.706   2.277
 2114TIP3    H1 6348   5.274   0.703   2.333
 2114TIP3    H2 6349   5.204   0.789   2.229
 2115TIP3   OH2 6350   2.636   2.845   1.678
 2115TIP3    H1 6351   2.645   2.820   1.770
 2115TIP3    H2 6352   2.545   2.871   1.669
 2116TIP3   OH2 6353   0.228   4.840   1.008
 2116TIP3    H1 6354   0.173   4.914   1.035
 2116TIP3    H2 6355   0.206   4.770   1.070
 2117TIP3   OH2 6356   1.868   0.315   0.490
 2117TIP3    H1 6357   1.937   0.367   0.450
 2117TIP3    H2 6358   1.835   0.369   0.562
 2118TIP3   OH2 6359   2.937   5.279   1.995
 2118TIP3    H1 6360   2.848   5.295   2.027
 2118TIP3    H2 6361   2.926   5.262   1.902
 2119TIP3   OH2 6362   1.642   4.013   2.997
 2119TIP3    H1 6363   1.583   3.946   3.032
 2119TIP3    H2 6364   1.588   4.093   2.995
 2120TIP3   OH2 6365   4.635   1.179   0.258
 2120TIP3    H1 6366   4.625   1.266   0.220
 2120TIP3    H2 6367   4.630   1.194   0.353
 2121TIP3   OH2 6368   0.301   5.474   2.812
 2121TIP3    H1 6369   0.298   5.569   2.802
 2121TIP3    H2 6370   0.213   5.450   2.842
 2122TIP3   OH2 6371   4.062   2.817   1.093
 2122TIP3    H1 6372   4.101   2.729   1.098
 2122TIP3    H2 6373   4.056   2.834   0.999
 2123TIP3   OH2 6374   5.385   2.266   0.305
 2123TIP3    H1 6375   5.451   2.321   0.263
 2123TIP3    H2 6376   5.333   2.231   0.232
 2124TIP3   OH2 6377   0.564   3.260   0.547
 2124TIP3    H1 6378   0.581   3.313   0.625
 2124TIP3    H2 6379   0.477   3.288   0.518
 2125TIP3   OH2 6380   2.156   2.746   2.506
 2125TIP3    H1 6381   2.110   2.731   2.589
 2125TIP3    H2 6382   2.181   2.659   2.476
 2126TIP3   OH2 6383   2.529   3.897   3.758
 2126TIP3    H1 6384   2.551   3.875   3.667
 2126TIP3    H2 6385   2.614   3.907   3.801
 2127TIP3   OH2 6386   5.210   5.926   3.567
 2127TIP3    H1 6387   5.272   5.879   3.512
 2127TIP3    H2 6388   5.230   5.897   3.656
 2128TIP3   OH2 6389   0.849   4.584   3.405
 2128TIP3    H1 6390   0.820   4.641   3.476
 2128TIP3    H2 6391   0.824   4.496   3.433
 2129TIP3   OH2 6392   5.080   5.141   2.891
 2129TIP3    H1 6393   5.021   5.215   2.877
 2129TIP3    H2 6394   5.155   5.159   2.833
 2130TIP3   OH2 6395   1.900   3.695   3.046
 2130TIP3    H1 6396   1.990   3.666   3.061
 2130TIP3    H2 6397   1.909   3.781   3.006
 2131TIP3   OH2 6398   5.044   2.886   1.566
 2131TIP3    H1 6399   5.111   2.879   1.634
 2131TIP3    H2 6400   4.965   2.851   1.606
 2132TIP3   OH2 6401   6.041   1.582   1.155
 2132TIP3    H1 6402   6.017   1.503   1.107
 2132TIP3    H2 6403   5.959   1.617   1.187
 2133TIP3   OH2 6404   1.734   5.395   1.507
 2133TIP3    H1 6405   1.796   5.441   1.450
 2133TIP3    H2 6406   1.724   5.452   1.583
 2134TIP3   OH2 6407   1.485   1.012   3.656
 2134TIP3    H1 6408   1.459   0.934   3.705
 2134TIP3    H2 6409   1.504   0.980   3.568
 2135TIP3   OH2 6410   4.114   4.825   3.895
 2135TIP3    H1 6411   4.156   4.808   3.979
 2135TIP3    H2 6412   4.094   4.918   3.895
 2136TIP3   OH2 6413   3.640   1.262   0.786
 2136TIP3    H1 6414   3.547   1.273   0.764
 2136TIP3    H2 6415   3.658   1.170   0.766
 2137TIP3   OH2 6416   6.031   5.385   4.786
 2137TIP3    H1 6417   6.060   5.297   4.766
 2137TIP3    H2 6418   6.089   5.414   4.857
 2138TIP3   OH2 6419   4.668   1.771   4.108
 2138TIP3    H1 6420   4.628   1.790   4.193
 2138TIP3    H2 6421   4.714   1.688   4.120
 2139TIP3   OH2 6422   5.305   2.492   3.347
 2139TIP3    H1 6423   5.369   2.543   3.298
 2139TIP3    H2 6424   5.318   2.402   3.316
 2140TIP3   OH2 6425   0.323   1.681   4.725
 2140TIP3    H1 6426   0.330   1.611   4.660
 2140TIP3    H2 6427   0.358   1.643   4.805
 2141TIP3   OH2 6428   4.716   1.728   3.334
 2141TIP3    H1 6429   4.800   1.730   3.287
 2141TIP3    H2 6430   4.741   1.730   3.426
 2142TIP3   OH2 6431   0.253   0.979   0.569
 2142TIP3    H1 6432   0.228   0.902   0.519
 2142TIP3    H2 6433   0.272   1.045   0.503
 2143TIP3   OH2 6434   0.048   1.862   0.680
 2143TIP3    H1 6435   0.049   1.948   0.721
 2143TIP3    H2 6436   0.140   1.837   0.674
 2144TIP3   OH2 6437   2.658   2.750   1.097
 2144TIP3    H1 6438   2.718   2.821   1.072
 2144TIP3    H2 6439   2.623   2.718   1.014
 2145TIP3   OH2 6440   5.206   3.969   2.233
 2145TIP3    H1 6441   5.301   3.964   2.222
 2145TIP3    H2 6442   5.187   4.062   2.236
 2146TIP3   OH2 6443   3.080   5.458   0.828
 2146TIP3    H1 6444   3.159   5.456   0.774
 2146TIP3    H2 6445   3.037   5.374   0.811
 2147TIP3   OH2 6446   3.786   3.552   1.136
 2147TIP3    H1 6447   3.733   3.620   1.095
 2147TIP3    H2 6448   3.801   3.584   1.225
 2148TIP3   OH2 6449   1.219   5.974   1.419
 2148TIP3    H1 6450   1.159   5.900   1.420
 2148TIP3    H2 6451   1.280   5.957   1.490
 2149TIP3   OH2 6452   1.120   3.902   3.496
 2149TIP3    H1 6453   1.113   3.837   3.426
 2149TIP3    H2 6454   1.053   3.875   3.559
 2150TIP3   OH2 6455   2.601   4.203   2.086
 2150TIP3    H1 6456   2.675   4.142   2.077
 2150TIP3    H2 6457   2.533   4.167   2.029
 2151TIP3   OH2 6458   5.998   2.681   2.584
 2151TIP3    H1 6459   6.023   2.745   2.651
 2151TIP3    H2 6460   6.074   2.623   2.576
 2152TIP3   OH2 6461   3.685   4.244   3.679
 2152TIP3    H1 6462   3.736   4.306   3.731
 2152TIP3    H2 6463   3.649   4.183   3.744
 2153TIP3   OH2 6464   2.736   3.259   1.031
 2153TIP3    H1 6465   2.779   3.336   0.995
 2153TIP3    H2 6466   2.643   3.281   1.030
 2154TIP3   OH2 6467   5.584   1.483   1.962
 2154TIP3    H1 6468   5.617   1.539   1.892
 2154TIP3    H2 6469   5.662   1.456   2.010
 2155TIP3   OH2 6470   4.401   1.996   4.134
 2155TIP3    H1 6471   4.314   2.031   4.115
 2155TIP3    H2 6472   4.405   1.914   4.085
 2156TIP3   OH2 6473   4.508   0.771   1.766
 2156TIP3    H1 6474   4.571   0.702   1.743
 2156TIP3    H2 6475   4.436   0.759   1.704
 2157TIP3   OH2 6476   4.133   5.703   0.741
 2157TIP3    H1 6477   4.168   5.635   0.683
 2157TIP3    H2 6478   4.110   5.656   0.821
 2158TIP3   OH2 6479   3.417   4.434   4.202
 2158TIP3    H1 6480   3.426   4.346   4.238
 2158TIP3    H2 6481   3.392   4.488   4.277
 2159TIP3   OH2 6482   2.732   2.436   3.932
 2159TIP3    H1 6483   2.758   2.403   4.019
 2159TIP3    H2 6484   2.638   2.451   3.940
 2160TIP3   OH2 6485   6.179   4.277   2.957
 2160TIP3    H1 6486   6.168   4.362   3.000
 2160TIP3    H2 6487   6.092   4.237   2.962
 2161TIP3   OH2 6488   6.298   2.435   0.352
 2161TIP3    H1 6489   6.233   2.460   0.286
 2161TIP3    H2 6490   6.301   2.510   0.411
 2162TIP3   OH2 6491   2.129   0.066   4.879
 2162TIP3    H1 6492   2.043   0.057   4.920
 2162TIP3    H2 6493   2.158   0.154   4.903
 2163TIP3   OH2 6494   4.231   5.405   1.880
 2163TIP3    H1 6495   4.317   5.412   1.921
 2163TIP3    H2 6496   4.234   5.467   1.807
 2164TIP3   OH2 6497   2.682   2.688   2.907
 2164TIP3    H1 6498   2.731   2.633   2.968
 2164TIP3    H2 6499   2.699   2.778   2.936
 2165TIP3   OH2 6500   5.289   5.553   2.599
 2165TIP3    H1 6501   5.345   5.630   2.586
 2165TIP3    H2 6502   5.214   5.568   2.542
 2166TIP3   OH2 6503   0.269   1.505   1.630
 2166TIP3    H1 6504   0.215   1.545   1.698
 2166TIP3    H2 6505   0.353   1.552   1.635
 2167TIP3   OH2 6506   5.012   4.922   4.758
 2167TIP3    H1 6507   5.050   4.998   4.715
 2167TIP3    H2 6508   4.969   4.873   4.688
 2168TIP3   OH2 6509   2.161   5.838   2.294
 2168TIP3    H1 6510   2.202   5.753   2.312
 2168TIP3    H2 6511   2.141   5.836   2.200
 2169TIP3   OH2 6512   5.417   1.387   2.292
 2169TIP3    H1 6513   5.448   1.378   2.202
 2169TIP3    H2 6514   5.486   1.435   2.337
 2170TIP3   OH2 6515   0.752   2.013   4.895
 2170TIP3    H1 6516   0.789   1.961   4.967
 2170TIP3    H2 6517   0.810   1.996   4.821
 2171TIP3   OH2 6518   6.365   2.709   2.523
 2171TIP3    H1 6519   6.407   2.665   2.597
 2171TIP3    H2 6520   6.308   2.642   2.485
 2172TIP3   OH2 6521   1.718   5.724   2.874
 2172TIP3    H1 6522   1.696   5.813   2.844
 2172TIP3    H2 6523   1.644   5.670   2.846
 2173TIP3   OH2 6524   5.844   0.036   0.472
 2173TIP3    H1 6525   5.861   0.069   0.383
 2173TIP3    H2 6526   5.902   0.089   0.528
 2174TIP3   OH2 6527   1.025   1.685   0.369
 2174TIP3    H1 6528   1.053   1.610   0.317
 2174TIP3    H2 6529   1.063   1.760   0.325
 2175TIP3   OH2 6530   1.845   1.843   4.632
 2175TIP3    H1 6531   1.761   1.872   4.669
 2175TIP3    H2 6532   1.879   1.782   4.697
 2176TIP3   OH2 6533   4.110   3.667   2.423
 2176TIP3    H1 6534   4.181   3.729   2.441
 2176TIP3    H2 6535   4.133   3.627   2.340
 2177TIP3   OH2 6536   0.887   2.624   3.077
 2177TIP3    H1 6537   0.972   2.649   3.040
 2177TIP3    H2 6538   0.907   2.588   3.163
 2178TIP3   OH2 6539   3.767   0.861   1.412
 2178TIP3    H1 6540   3.757   0.780   1.462
 2178TIP3    H2 6541   3.861   0.878   1.412
 2179TIP3   OH2 6542   4.694   2.837   3.358
 2179TIP3    H1 6543   4.717   2.926   3.329
 2179TIP3    H2 6544   4.759   2.781   3.315
 2180TIP3   OH2 6545   3.915   5.782   1.992
 2180TIP3    H1 6546   4.005   5.757   1.969
 2180TIP3    H2 6547   3.921   5.876   2.012
 2181TIP3   OH2 6548   0.724   5.844   2.762
 2181TIP3    H1 6549   0.660   5.790   2.809
 2181TIP3    H2 6550   0.739   5.918   2.820
 2182TIP3   OH2 6551   6.326   5.143   2.091
 2182TIP3    H1 6552   6.271   5.145   2.013
 2182TIP3    H2 6553   6.316   5.055   2.126
 2183TIP3   OH2 6554   3.513   0.310   3.926
 2183TIP3    H1 6555   3.512   0.225   3.881
 2183TIP3    H2 6556   3.565   0.366   3.869
 2184TIP3   OH2 6557   1.829   4.040   3.842
 2184TIP3    H1 6558   1.848   3.981   3.770
 2184TIP3    H2 6559   1.735   4.053   3.839
 2185TIP3   OH2 6560   4.964   3.025   3.574
 2185TIP3    H1 6561   4.906   2.976   3.633
 2185TIP3    H2 6562   5.050   2.985   3.586
 2186TIP3   OH2 6563   0.208   1.607   1.890
 2186TIP3    H1 6564   0.228   1.693   1.853
 2186TIP3    H2 6565   0.285   1.586   1.944
 2187TIP3   OH2 6566   3.038   2.223   4.309
 2187TIP3    H1 6567   3.081   2.294   4.260
 2187TIP3    H2 6568   3.109   2.183   4.360
 2188TIP3   OH2 6569   3.005   0.057   1.403
 2188TIP3    H1 6570   3.044   0.043   1.489
 2188TIP3    H2 6571   2.951   0.136   1.413
 2189TIP3   OH2 6572   5.631   5.699   2.229
 2189TIP3    H1 6573   5.546   5.741   2.215
 2189TIP3    H2 6574   5.694   5.770   2.219
 2190TIP3   OH2 6575   3.629   1.597   0.457
 2190TIP3    H1 6576   3.713   1.608   0.502
 2190TIP3    H2 6577   3.566   1.585   0.527
 2191TIP3   OH2 6578   4.138   4.285   3.613
 2191TIP3    H1 6579   4.098   4.372   3.613
 2191TIP3    H2 6580   4.216   4.295   3.559
 2192TIP3   OH2 6581   5.424   1.793   4.782
 2192TIP3    H1 6582   5.407   1.700   4.799
 2192TIP3    H2 6583   5.446   1.830   4.867
 2193TIP3   OH2 6584   0.190   1.682   4.238
 2193TIP3    H1 6585   0.151   1.651   4.319
 2193TIP3    H2 6586   0.163   1.617   4.172
 2194TIP3   OH2 6587   1.077   2.744   0.651
 2194TIP3    H1 6588   1.065   2.831   0.689
 2194TIP3    H2 6589   1.155   2.709   0.692
 2195TIP3   OH2 6590   4.659   5.940   0.733
 2195TIP3    H1 6591   4.653   5.847   0.756
 2195TIP3    H2 6592   4.711   5.979   0.804
 2196TIP3   OH2 6593   0.671   0.475   0.988
 2196TIP3    H1 6594   0.679   0.548   1.049
 2196TIP3    H2 6595   0.632   0.405   1.040
 2197TIP3   OH2 6596   0.942   4.239   0.600
 2197TIP3    H1 6597   0.988   4.322   0.613
 2197TIP3    H2 6598   0.858   4.264   0.562
 2198TIP3   OH2 6599   0.359   3.141   3.072
 2198TIP3    H1 6600   0.363   3.046   3.085
 2198TIP3    H2 6601   0.316   3.153   2.988
 2199TIP3   OH2 6602   5.263   4.847   3.807
 2199TIP3    H1 6603   5.339   4.841   3.749
 2199TIP3    H2 6604   5.288   4.795   3.884
 2200TIP3   OH2 6605   3.128   2.231   0.644
 2200TIP3    H1 6606   3.059   2.268   0.589
 2200TIP3    H2 6607   3.103   2.139   0.656
 2201TIP3   OH2 6608   0.485   4.418   2.003
 2201TIP3    H1 6609   0.479   4.323   1.989
 2201TIP3    H2 6610   0.439   4.433   2.085
 2202TIP3   OH2 6611   5.978   5.740   4.225
 2202TIP3    H1 6612   5.920   5.727   4.300
 2202TIP3    H2 6613   6.022   5.823   4.242
 2203TIP3   OH2 6614   1.319   5.704   4.048
 2203TIP3    H1 6615   1.230   5.730   4.071
 2203TIP3    H2 6616   1.351   5.659   4.126
 2204TIP3   OH2 6617   1.786   5.178   0.995
 2204TIP3    H1 6618   1.810   5.127   1.072
 2204TIP3    H2 6619   1.771   5.113   0.927
 2205TIP3   OH2 6620   6.143   0.988   2.235
 2205TIP3    H1 6621   6.138   1.065   2.293
 2205TIP3    H2 6622   6.235   0.984   2.207
 2206TIP3   OH2 6623   3.052   4.274   1.076
 2206TIP3    H1 6624   2.981   4.222   1.038
 2206TIP3    H2 6625   3.018   4.364   1.076
 2207TIP3   OH2 6626   1.800   5.292   4.507
 2207TIP3    H1 6627   1.797   5.300   4.602
 2207TIP3    H2 6628   1.841   5.207   4.491
 2208TIP3   OH2 6629   3.929   4.180   0.937
 2208TIP3    H1 6630   3.968   4.092   0.934
 2208TIP3    H2 6631   4.005   4.238   0.946
 2209TIP3   OH2 6632   6.073   2.875   2.764
 2209TIP3    H1 6633   6.075   2.826   2.846
 2209TIP3    H2 6634   6.165   2.890   2.742
 2210TIP3   OH2 6635   3.679   5.215   1.824
 2210TIP3    H1 6636   3.771   5.224   1.848
 2210TIP3    H2 6637   3.643   5.303   1.834
 2211TIP3   OH2 6638   1.335   1.690   4.068
 2211TIP3    H1 6639   1.318   1.675   4.161
 2211TIP3    H2 6640   1.257   1.734   4.037
 2212TIP3   OH2 6641   6.167   5.120   1.866
 2212TIP3    H1 6642   6.138   5.174   1.792
 2212TIP3    H2 6643   6.227   5.057   1.826
 2213TIP3   OH2 6644   1.823   4.938   2.531
 2213TIP3    H1 6645   1.793   4.859   2.577
 2213TIP3    H2 6646   1.823   4.913   2.439
 2214TIP3   OH2 6647   1.577   4.949   0.960
 2214TIP3    H1 6648   1.648   4.888   0.980
 2214TIP3    H2 6649   1.534   4.965   1.044
 2215TIP3   OH2 6650   2.467   3.370   4.665
 2215TIP3    H1 6651   2.376   3.341   4.668
 2215TIP3    H2 6652   2.483   3.390   4.572
 2216TIP3   OH2 6653   1.271   2.291   2.725
 2216TIP3    H1 6654   1.295   2.246   2.806
 2216TIP3    H2 6655   1.301   2.233   2.655
 2217TIP3   OH2 6656   1.879   3.689   3.911
 2217TIP3    H1 6657   1.787   3.707   3.894
 2217TIP3    H2 6658   1.878   3.607   3.961
 2218TIP3   OH2 6659   1.654   1.261   0.878
 2218TIP3    H1 6660   1.614   1.198   0.938
 2218TIP3    H2 6661   1.589   1.331   0.869
 2219TIP3   OH2 6662   0.106   4.517   0.665
 2219TIP3    H1 6663   0.180   4.517   0.725
 2219TIP3    H2 6664   0.146   4.509   0.578
 2220TIP3   OH2 6665   3.767   3.395   1.975
 2220TIP3    H1 6666   3.832   3.416   2.042
 2220TIP3    H2 6667   3.684   3.389   2.023
 2221TIP3   OH2 6668   3.554   3.418   0.409
 2221TIP3    H1 6669   3.636   3.449   0.371
 2221TIP3    H2 6670   3.577   3.337   0.454
 2222TIP3   OH2 6671   5.434   4.395   0.669
 2222TIP3    H1 6672   5.396   4.323   0.619
 2222TIP3    H2 6673   5.359   4.446   0.699
 2223TIP3   OH2 6674   3.795   5.525   1.130
 2223TIP3    H1 6675   3.734   5.558   1.197
 2223TIP3    H2 6676   3.789   5.589   1.059
 2224TIP3   OH2 6677   2.133   3.679   2.443
 2224TIP3    H1 6678   2.125   3.605   2.503
 2224TIP3    H2 6679   2.050   3.726   2.452
 2225TIP3   OH2 6680   2.800   3.354   1.320
 2225TIP3    H1 6681   2.722   3.371   1.374
 2225TIP3    H2 6682   2.776   3.277   1.268
 2226TIP3   OH2 6683   2.755   3.874   1.556
 2226TIP3    H1 6684   2.676   3.900   1.509
 2226TIP3    H2 6685   2.756   3.779   1.552
 2227TIP3   OH2 6686   5.241   5.252   4.497
 2227TIP3    H1 6687   5.269   5.322   4.438
 2227TIP3    H2 6688   5.322   5.221   4.537
 2228TIP3   OH2 6689   1.315   4.188   3.650
 2228TIP3    H1 6690   1.266   4.270   3.652
 2228TIP3    H2 6691   1.258   4.125   3.693
 2229TIP3   OH2 6692   1.749   3.971  -0.021
 2229TIP3    H1 6693   1.813   3.902  -0.039
 2229TIP3    H2 6694   1.735   3.965   0.074
 2230TIP3   OH2 6695   2.131   0.529   1.117
 2230TIP3    H1 6696   2.064   0.561   1.178
 2230TIP3    H2 6697   2.132   0.434   1.131
 2231TIP3   OH2 6698   2.858   5.974   0.891
 2231TIP3    H1 6699   2.898   5.896   0.855
 2231TIP3    H2 6700   2.764   5.960   0.881
 2232TIP3   OH2 6701   2.250   3.157   2.461
 2232TIP3    H1 6702   2.195   3.235   2.464
 2232TIP3    H2 6703   2.189   3.085   2.444
 2233TIP3   OH2 6704   2.052   3.912   4.869
 2233TIP3    H1 6705   2.013   3.990   4.829
 2233TIP3    H2 6706   2.021   3.913   4.959
 2234TIP3   OH2 6707   6.303   3.940   5.113
 2234TIP3    H1 6708   6.209   3.946   5.129
 2234TIP3    H2 6709   6.334   4.031   5.114
 2235TIP3   OH2 6710   4.064   1.772   3.569
 2235TIP3    H1 6711   4.051   1.866   3.573
 2235TIP3    H2 6712   4.119   1.758   3.492
 2236TIP3   OH2 6713   0.487   2.157   4.902
 2236TIP3    H1 6714   0.567   2.115   4.935
 2236TIP3    H2 6715   0.468   2.110   4.820
 2237TIP3   OH2 6716   4.866   1.219   3.817
 2237TIP3    H1 6717   4.920   1.187   3.889
 2237TIP3    H2 6718   4.800   1.275   3.859
 2238TIP3   OH2 6719   0.079   4.448   2.668
 2238TIP3    H1 6720   0.085   4.403   2.752
 2238TIP3    H2 6721   0.025   4.390   2.614
 2239TIP3   OH2 6722   0.526   4.198   4.688
 2239TIP3    H1 6723   0.555   4.284   4.719
 2239TIP3    H2 6724   0.447   4.179   4.739
 2240TIP3   OH2 6725   5.867   3.171   4.610
 2240TIP3    H1 6726   5.779   3.183   4.645
 2240TIP3    H2 6727   5.924   3.170   4.687
 2241TIP3   OH2 6728   3.581   2.186   4.365
 2241TIP3    H1 6729   3.642   2.139   4.308
 2241TIP3    H2 6730   3.497   2.142   4.351
 2242TIP3   OH2 6731   3.319   2.593   0.134
 2242TIP3    H1 6732   3.249   2.529   0.147
 2242TIP3    H2 6733   3.394   2.542   0.105
 2243TIP3   OH2 6734   2.544   3.853   3.452
 2243TIP3    H1 6735   2.606   3.782   3.433
 2243TIP3    H2 6736   2.465   3.808   3.482
 2244TIP3   OH2 6737   0.312   5.130   3.406
 2244TIP3    H1 6738   0.324   5.038   3.432
 2244TIP3    H2 6739   0.262   5.126   3.325
 2245TIP3   OH2 6740   2.671   3.171   0.332
 2245TIP3    H1 6741   2.714   3.199   0.413
 2245TIP3    H2 6742   2.589   3.221   0.330
 2246TIP3   OH2 6743   3.046   5.161   2.631
 2246TIP3    H1 6744   3.041   5.094   2.563
 2246TIP3    H2 6745   3.041   5.244   2.583
 2247TIP3   OH2 6746   4.861   4.758   4.583
 2247TIP3    H1 6747   4.871   4.787   4.492
 2247TIP3    H2 6748   4.830   4.668   4.576
 2248TIP3   OH2 6749   4.131   4.247   2.708
 2248TIP3    H1 6750   4.179   4.289   2.637
 2248TIP3    H2 6751   4.149   4.154   2.698
 2249TIP3   OH2 6752   0.662   3.446   2.716
 2249TIP3    H1 6753   0.602   3.460   2.643
 2249TIP3    H2 6754   0.606   3.436   2.793
 2250TIP3   OH2 6755   4.435   3.954   3.734
 2250TIP3    H1 6756   4.482   3.948   3.817
 2250TIP3    H2 6757   4.473   3.885   3.680
 2251TIP3   OH2 6758   4.880   2.540   1.092
 2251TIP3    H1 6759   4.822   2.467   1.113
 2251TIP3    H2 6760   4.957   2.527   1.148
 2252TIP3   OH2 6761   0.110   4.548   4.466
 2252TIP3    H1 6762   0.075   4.496   4.395
 2252TIP3    H2 6763   0.034   4.572   4.519
 2253TIP3   OH2 6764   2.563   4.863   2.767
 2253TIP3    H1 6765   2.652   4.831   2.752
 2253TIP3    H2 6766   2.571   4.958   2.762
 2254TIP3   OH2 6767   1.957   4.490   0.753
 2254TIP3    H1 6768   1.994   4.496   0.665
 2254TIP3    H2 6769   1.991   4.408   0.788
 2255TIP3   OH2 6770   2.539   0.539   1.818
 2255TIP3    H1 6771   2.574   0.572   1.735
 2255TIP3    H2 6772   2.615   0.531   1.875
 2256TIP3   OH2 6773   5.547   4.129   3.237
 2256TIP3    H1 6774   5.522   4.178   3.158
 2256TIP3    H2 6775   5.608   4.063   3.205
 2257TIP3   OH2 6776   5.353   5.783   3.348
 2257TIP3    H1 6777   5.406   5.707   3.369
 2257TIP3    H2 6778   5.321   5.766   3.259
 2258TIP3   OH2 6779   0.888   3.254   2.585
 2258TIP3    H1 6780   0.929   3.341   2.588
 2258TIP3    H2 6781   0.805   3.266   2.631
 2259TIP3   OH2 6782   3.357   0.525   2.232
 2259TIP3    H1 6783   3.275   0.534   2.280
 2259TIP3    H2 6784   3.348   0.584   2.157
 2260TIP3   OH2 6785   4.457   1.046   1.448
 2260TIP3    H1 6786   4.436   1.112   1.382
 2260TIP3    H2 6787   4.481   0.968   1.397
 2261TIP3   OH2 6788   0.532   2.542   0.403
 2261TIP3    H1 6789   0.482   2.565   0.482
 2261TIP3    H2 6790   0.623   2.537   0.434
 2262TIP3   OH2 6791   5.791   1.625   1.825
 2262TIP3    H1 6792   5.848   1.702   1.828
 2262TIP3    H2 6793   5.792   1.597   1.734
 2263TIP3   OH2 6794   1.637   0.705   3.992
 2263TIP3    H1 6795   1.564   0.688   3.932
 2263TIP3    H2 6796   1.595   0.727   4.075
 2264TIP3   OH2 6797   5.504   0.420   2.607
 2264TIP3    H1 6798   5.562   0.492   2.631
 2264TIP3    H2 6799   5.551   0.342   2.636
 2265TIP3   OH2 6800   3.815   2.077   4.221
 2265TIP3    H1 6801   3.806   2.153   4.163
 2265TIP3    H2 6802   3.893   2.097   4.274
 2266TIP3   OH2 6803   0.364   1.833   4.983
 2266TIP3    H1 6804   0.390   1.832   4.891
 2266TIP3    H2 6805   0.277   1.873   4.983
 2267TIP3   OH2 6806   0.417   3.519   3.280
 2267TIP3    H1 6807   0.385   3.604   3.308
 2267TIP3    H2 6808   0.341   3.462   3.285
 2268TIP3   OH2 6809   4.791   1.769   3.611
 2268TIP3    H1 6810   4.800   1.834   3.680
 2268TIP3    H2 6811   4.742   1.698   3.651
 2269TIP3   OH2 6812   1.897   5.941   1.460
 2269TIP3    H1 6813   1.906   6.032   1.431
 2269TIP3    H2 6814   1.833   5.903   1.399
 2270TIP3   OH2 6815   1.484   5.257   0.863
 2270TIP3    H1 6816   1.391   5.255   0.886
 2270TIP3    H2 6817   1.525   5.197   0.926
 2271TIP3   OH2 6818   2.025   3.366   2.451
 2271TIP3    H1 6819   1.988   3.333   2.532
 2271TIP3    H2 6820   1.955   3.417   2.411
 2272TIP3   OH2 6821   2.414   5.569   0.989
 2272TIP3    H1 6822   2.340   5.538   0.937
 2272TIP3    H2 6823   2.399   5.532   1.076
 2273TIP3   OH2 6824   4.349   2.000   1.742
 2273TIP3    H1 6825   4.342   2.024   1.650
 2273TIP3    H2 6826   4.360   2.083   1.788
 2274TIP3   OH2 6827   4.581   3.392   2.927
 2274TIP3    H1 6828   4.619   3.464   2.977
 2274TIP3    H2 6829   4.487   3.394   2.949
 2275TIP3   OH2 6830   3.611   3.434   4.604
 2275TIP3    H1 6831   3.620   3.528   4.619
 2275TIP3    H2 6832   3.693   3.397   4.636
 2276TIP3   OH2 6833   0.505   5.676   0.350
 2276TIP3    H1 6834   0.463   5.762   0.354
 2276TIP3    H2 6835   0.473   5.637   0.270
 2277TIP3   OH2 6836   3.648   1.111   0.449
 2277TIP3    H1 6837   3.689   1.183   0.401
 2277TIP3    H2 6838   3.561   1.144   0.472
 2278TIP3   OH2 6839   0.869   4.195   3.241
 2278TIP3    H1 6840   0.854   4.284   3.208
 2278TIP3    H2 6841   0.921   4.208   3.321
 2279TIP3   OH2 6842   1.362   3.412   3.449
 2279TIP3    H1 6843   1.274   3.375   3.452
 2279TIP3    H2 6844   1.355   3.486   3.390
 2280TIP3   OH2 6845   0.178   1.887   4.638
 2280TIP3    H1 6846   0.097   1.853   4.677
 2280TIP3    H2 6847   0.242   1.817   4.651
 2281TIP3   OH2 6848   4.662   3.993   5.082
 2281TIP3    H1 6849   4.612   3.946   5.016
 2281TIP3    H2 6850   4.734   4.034   5.034
 2282TIP3   OH2 6851   5.335   1.975   2.528
 2282TIP3    H1 6852   5.350   1.953   2.436
 2282TIP3    H2 6853   5.314   2.069   2.528
 2283TIP3   OH2 6854   2.913   5.721   0.749
 2283TIP3    H1 6855   2.905   5.747   0.657
 2283TIP3    H2 6856   2.921   5.626   0.746
 2284TIP3   OH2 6857   2.466   1.486   0.257
 2284TIP3    H1 6858   2.548   1.447   0.228
 2284TIP3    H2 6859   2.399   1.446   0.202
 2285TIP3   OH2 6860   0.501   1.121   1.471
 2285TIP3    H1 6861   0.430   1.155   1.416
 2285TIP3    H2 6862   0.490   1.026   1.469
 2286TIP3   OH2 6863   3.233   5.574   0.480
 2286TIP3    H1 6864   3.268   5.545   0.564
 2286TIP3    H2 6865   3.149   5.529   0.472
 2287TIP3   OH2 6866   1.398   0.168   0.108
 2287TIP3    H1 6867   1.303   0.152   0.106
 2287TIP3    H2 6868   1.425   0.140   0.195
 2288TIP3   OH2 6869   2.528   3.525   2.898
 2288TIP3    H1 6870   2.505   3.618   2.895
 2288TIP3    H2 6871   2.610   3.522   2.947
 2289TIP3   OH2 6872   5.519   2.973   3.569
 2289TIP3    H1 6873   5.562   3.056   3.590
 2289TIP3    H2 6874   5.434   2.998   3.534
 2290TIP3   OH2 6875   4.886   2.986   0.572
 2290TIP3    H1 6876   4.794   3.014   0.565
 2290TIP3    H2 6877   4.885   2.917   0.638
 2291TIP3   OH2 6878   5.639   2.739   3.941
 2291TIP3    H1 6879   5.724   2.697   3.927
 2291TIP3    H2 6880   5.661   2.826   3.973
 2292TIP3   OH2 6881   4.216   4.599   1.709
 2292TIP3    H1 6882   4.160   4.661   1.663
 2292TIP3    H2 6883   4.286   4.579   1.646
 2293TIP3   OH2 6884   4.728   0.842   2.352
 2293TIP3    H1 6885   4.768   0.861   2.437
 2293TIP3    H2 6886   4.718   0.928   2.310
 2294TIP3   OH2 6887   6.004   4.081   3.684
 2294TIP3    H1 6888   5.934   4.023   3.715
 2294TIP3    H2 6889   5.967   4.126   3.608
 2295TIP3   OH2 6890   3.348   4.001   2.915
 2295TIP3    H1 6891   3.368   3.945   2.990
 2295TIP3    H2 6892   3.433   4.032   2.885
 2296TIP3   OH2 6893   4.074   2.786   0.819
 2296TIP3    H1 6894   4.133   2.840   0.767
 2296TIP3    H2 6895   4.109   2.697   0.811
 2297TIP3   OH2 6896   6.089   3.078   0.409
 2297TIP3    H1 6897   6.110   3.001   0.356
 2297TIP3    H2 6898   6.016   3.050   0.464
 2298TIP3   OH2 6899   1.072   3.747   1.753
 2298TIP3    H1 6900   1.103   3.686   1.686
 2298TIP3    H2 6901   1.088   3.702   1.836
 2299TIP3   OH2 6902   5.125   4.842   2.126
 2299TIP3    H1 6903   5.133   4.762   2.178
 2299TIP3    H2 6904   5.119   4.912   2.191
 2300TIP3   OH2 6905   1.707   4.778   1.373
 2300TIP3    H1 6906   1.776   4.741   1.319
 2300TIP3    H2 6907   1.644   4.707   1.385
 2301TIP3   OH2 6908   5.009   5.794   1.255
 2301TIP3    H1 6909   5.067   5.728   1.293
 2301TIP3    H2 6910   5.063   5.873   1.250
 2302TIP3   OH2 6911   1.657   5.006   3.410
 2302TIP3    H1 6912   1.636   4.949   3.336
 2302TIP3    H2 6913   1.753   5.006   3.415
 2303TIP3   OH2 6914   3.095   5.855   4.312
 2303TIP3    H1 6915   3.156   5.927   4.296
 2303TIP3    H2 6916   3.080   5.857   4.407
 2304TIP3   OH2 6917   4.163   2.404   4.155
 2304TIP3    H1 6918   4.125   2.351   4.085
 2304TIP3    H2 6919   4.257   2.400   4.140
 2305TIP3   OH2 6920   5.327   0.800   3.024
 2305TIP3    H1 6921   5.420   0.824   3.027
 2305TIP3    H2 6922   5.324   0.723   2.968
 2306TIP3   OH2 6923   6.152   2.662   3.425
 2306TIP3    H1 6924   6.248   2.661   3.424
 2306TIP3    H2 6925   6.128   2.613   3.504
 2307TIP3   OH2 6926   0.789   0.860   4.057
 2307TIP3    H1 6927   0.816   0.769   4.069
 2307TIP3    H2 6928   0.846   0.894   3.989
 2308TIP3   OH2 6929   3.802   5.762   4.573
 2308TIP3    H1 6930   3.746   5.685   4.562
 2308TIP3    H2 6931   3.766   5.826   4.511
 2309TIP3   OH2 6932   4.409   3.175   1.216
 2309TIP3    H1 6933   4.360   3.159   1.135
 2309TIP3    H2 6934   4.450   3.090   1.235
 2310TIP3   OH2 6935   3.286   5.630   3.470
 2310TIP3    H1 6936   3.342   5.701   3.500
 2310TIP3    H2 6937   3.335   5.550   3.491
 2311TIP3   OH2 6938   5.854   3.698   1.962
 2311TIP3    H1 6939   5.795   3.690   1.886
 2311TIP3    H2 6940   5.823   3.631   2.023
 2312TIP3   OH2 6941   4.426   5.086   3.104
 2312TIP3    H1 6942   4.406   5.038   3.185
 2312TIP3    H2 6943   4.399   5.027   3.034
 2313TIP3   OH2 6944   4.729   0.611   1.713
 2313TIP3    H1 6945   4.786   0.641   1.642
 2313TIP3    H2 6946   4.789   0.583   1.782
 2314TIP3   OH2 6947   2.312   5.597   2.309
 2314TIP3    H1 6948   2.362   5.516   2.297
 2314TIP3    H2 6949   2.230   5.569   2.350
 2315TIP3   OH2 6950   6.234   4.562   0.373
 2315TIP3    H1 6951   6.274   4.568   0.286
 2315TIP3    H2 6952   6.161   4.501   0.362
 2316TIP3   OH2 6953   3.402   3.868   1.740
 2316TIP3    H1 6954   3.357   3.784   1.735
 2316TIP3    H2 6955   3.420   3.891   1.648
 2317TIP3   OH2 6956   5.581   1.507   2.851
 2317TIP3    H1 6957   5.561   1.435   2.792
 2317TIP3    H2 6958   5.619   1.575   2.795
 2318TIP3   OH2 6959   0.530   2.402   4.072
 2318TIP3    H1 6960   0.480   2.322   4.090
 2318TIP3    H2 6961   0.622   2.375   4.076
 2319TIP3   OH2 6962   6.131   0.562   1.296
 2319TIP3    H1 6963   6.041   0.544   1.269
 2319TIP3    H2 6964   6.184   0.496   1.250
 2320TIP3   OH2 6965   4.422   4.542   1.536
 2320TIP3    H1 6966   4.414   4.476   1.468
 2320TIP3    H2 6967   4.514   4.540   1.562
 2321TIP3   OH2 6968   2.781   5.695   4.440
 2321TIP3    H1 6969   2.811   5.632   4.506
 2321TIP3    H2 6970   2.690   5.713   4.463
 2322TIP3   OH2 6971   4.974   5.759   3.789
 2322TIP3    H1 6972   5.042   5.694   3.772
 2322TIP3    H2 6973   4.949   5.791   3.702
 2323TIP3   OH2 6974   5.054   0.174   1.118
 2323TIP3    H1 6975   4.994   0.243   1.145
 2323TIP3    H2 6976   5.086   0.203   1.033
 2324TIP3   OH2 6977   5.691   1.458   0.440
 2324TIP3    H1 6978   5.754   1.443   0.511
 2324TIP3    H2 6979   5.745   1.475   0.363
 2325TIP3   OH2 6980   0.211   4.537   0.147
 2325TIP3    H1 6981   0.131   4.516   0.098
 2325TIP3    H2 6982   0.229   4.628   0.125
 2326TIP3   OH2 6983   4.624   1.555   1.420
 2326TIP3    H1 6984   4.689   1.501   1.377
 2326TIP3    H2 6985   4.540   1.512   1.401
 2327TIP3   OH2 6986   3.720   2.570   4.154
 2327TIP3    H1 6987   3.699   2.661   4.177
 2327TIP3    H2 6988   3.722   2.525   4.238
 2328TIP3   OH2 6989   3.667   3.343   3.607
 2328TIP3    H1 6990   3.761   3.323   3.613
 2328TIP3    H2 6991   3.626   3.290   3.675
 2329TIP3   OH2 6992   3.645   0.511   4.421
 2329TIP3    H1 6993   3.675   0.433   4.466
 2329TIP3    H2 6994   3.585   0.553   4.483
 2330TIP3   OH2 6995   3.884   5.523   1.819
 2330TIP3    H1 6996   3.950   5.542   1.753
 2330TIP3    H2 6997   3.857   5.608   1.852
 2331TIP3   OH2 6998   1.573   1.589   0.973
 2331TIP3    H1 6999   1.544   1.508   1.016
 2331TIP3    H2 7000   1.544   1.579   0.882
 2332TIP3   OH2 7001   4.198   1.766   4.071
 2332TIP3    H1 7002   4.134   1.828   4.106
 2332TIP3    H2 7003   4.160   1.736   3.989
 2333TIP3   OH2 7004   3.672   4.945   2.538
 2333TIP3    H1 7005   3.683   4.987   2.453
 2333TIP3    H2 7006   3.665   4.852   2.519
 2334TIP3   OH2 7007   0.939   5.298   0.802
 2334TIP3    H1 7008   0.920   5.380   0.756
 2334TIP3    H2 7009   0.905   5.311   0.890
 2335TIP3   OH2 7010   0.967   3.001   0.775
 2335TIP3    H1 7011   0.938   2.948   0.849
 2335TIP3    H2 7012   1.044   3.048   0.808
 2336TIP3   OH2 7013   5.930   2.230   3.007
 2336TIP3    H1 7014   5.929   2.305   2.948
 2336TIP3    H2 7015   5.928   2.269   3.095
 2337TIP3   OH2 7016   3.077   1.454   4.207
 2337TIP3    H1 7017   3.164   1.424   4.234
 2337TIP3    H2 7018   3.053   1.520   4.272
 2338TIP3   OH2 7019   0.631   3.516   0.999
 2338TIP3    H1 7020   0.643   3.485   1.089
 2338TIP3    H2 7021   0.662   3.607   1.000
 2339TIP3   OH2 7022   4.222   3.482   4.208
 2339TIP3    H1 7023   4.256   3.410   4.155
 2339TIP3    H2 7024   4.127   3.479   4.194
 2340TIP3   OH2 7025   4.748   0.862   3.414
 2340TIP3    H1 7026   4.738   0.784   3.360
 2340TIP3    H2 7027   4.743   0.829   3.504
 2341TIP3   OH2 7028   4.359   0.472   4.897
 2341TIP3    H1 7029   4.419   0.409   4.936
 2341TIP3    H2 7030   4.340   0.534   4.968
 2342TIP3   OH2 7031   3.250   1.973   2.597
 2342TIP3    H1 7032   3.252   2.065   2.620
 2342TIP3    H2 7033   3.302   1.930   2.665
 2343TIP3   OH2 7034   3.538   1.604   4.262
 2343TIP3    H1 7035   3.590   1.682   4.240
 2343TIP3    H2 7036   3.549   1.595   4.357
 2344TIP3   OH2 7037   5.466   5.285   2.062
 2344TIP3    H1 7038   5.492   5.323   2.146
 2344TIP3    H2 7039   5.454   5.192   2.081
 2345TIP3   OH2 7040   1.227   4.427   3.753
 2345TIP3    H1 7041   1.207   4.512   3.792
 2345TIP3    H2 7042   1.281   4.383   3.819
 2346TIP3   OH2 7043   0.750   4.971   4.131
 2346TIP3    H1 7044   0.784   5.040   4.188
 2346TIP3    H2 7045   0.699   5.017   4.065
 2347TIP3   OH2 7046   4.982   3.231   0.044
 2347TIP3    H1 7047   4.981   3.186   0.128
 2347TIP3    H2 7048   5.059   3.196  -0.001
 2348TIP3   OH2 7049   2.198   2.759   3.637
 2348TIP3    H1 7050   2.236   2.681   3.678
 2348TIP3    H2 7051   2.126   2.784   3.695
 2349TIP3   OH2 7052   0.532   5.547   1.430
 2349TIP3    H1 7053   0.454   5.548   1.376
 2349TIP3    H2 7054   0.531   5.631   1.475
 2350TIP3   OH2 7055   5.360   3.147   2.752
 2350TIP3    H1 7056   5.344   3.111   2.665
 2350TIP3    H2 7057   5.427   3.214   2.739
 2351TIP3   OH2 7058   3.761   1.595   1.466
 2351TIP3    H1 7059   3.727   1.684   1.460
 2351TIP3    H2 7060   3.834   1.592   1.404
 2352TIP3   OH2 7061   2.320   5.018   1.882
 2352TIP3    H1 7062   2.242   5.025   1.937
 2352TIP3    H2 7063   2.295   5.058   1.799
 2353TIP3   OH2 7064   2.234   0.278   1.157
 2353TIP3    H1 7065   2.206   0.265   1.248
 2353TIP3    H2 7066   2.330   0.279   1.161
 2354TIP3   OH2 7067   1.200   0.248   1.193
 2354TIP3    H1 7068   1.284   0.221   1.156
 2354TIP3    H2 7069   1.211   0.236   1.288
 2355TIP3   OH2 7070   5.517   3.581   3.028
 2355TIP3    H1 7071   5.595   3.630   3.001
 2355TIP3    H2 7072   5.548   3.491   3.037
 2356TIP3   OH2 7073   3.916   5.099   3.482
 2356TIP3    H1 7074   3.996   5.108   3.430
 2356TIP3    H2 7075   3.846   5.121   3.421
 2357TIP3   OH2 7076   3.168   4.736   3.545
 2357TIP3    H1 7077   3.153   4.657   3.596
 2357TIP3    H2 7078   3.089   4.788   3.558
 2358TIP3   OH2 7079   4.708   4.668   0.533
 2358TIP3    H1 7080   4.771   4.607   0.574
 2358TIP3    H2 7081   4.640   4.679   0.600
 2359TIP3   OH2 7082   2.891   2.166   0.829
 2359TIP3    H1 7083   2.866   2.166   0.737
 2359TIP3    H2 7084   2.808   2.165   0.876
 2360TIP3   OH2 7085   4.265   0.562   0.190
 2360TIP3    H1 7086   4.341   0.614   0.213
 2360TIP3    H2 7087   4.191   0.609   0.229
 2361TIP3   OH2 7088   1.687   1.993   3.698
 2361TIP3    H1 7089   1.779   2.000   3.672
 2361TIP3    H2 7090   1.689   2.000   3.793
 2362TIP3   OH2 7091   5.909   3.700   2.877
 2362TIP3    H1 7092   5.926   3.627   2.817
 2362TIP3    H2 7093   5.988   3.755   2.871
 2363TIP3   OH2 7094   5.989   0.461   1.535
 2363TIP3    H1 7095   6.027   0.539   1.574
 2363TIP3    H2 7096   5.993   0.395   1.604
 2364TIP3   OH2 7097   5.916   4.413   4.009
 2364TIP3    H1 7098   5.952   4.325   3.994
 2364TIP3    H2 7099   5.986   4.459   4.056
 2365TIP3   OH2 7100   0.435   1.221   4.658
 2365TIP3    H1 7101   0.462   1.299   4.706
 2365TIP3    H2 7102   0.501   1.211   4.589
 2366TIP3   OH2 7103   6.186   0.324   4.221
 2366TIP3    H1 7104   6.267   0.281   4.248
 2366TIP3    H2 7105   6.117   0.279   4.270
 2367TIP3   OH2 7106   2.831   5.615   1.715
 2367TIP3    H1 7107   2.855   5.558   1.642
 2367TIP3    H2 7108   2.749   5.578   1.748
 2368TIP3   OH2 7109   0.057   1.616   2.266
 2368TIP3    H1 7110   0.016   1.636   2.181
 2368TIP3    H2 7111   0.133   1.563   2.243
 2369TIP3   OH2 7112   3.410   0.886   2.991
 2369TIP3    H1 7113   3.431   0.793   3.001
 2369TIP3    H2 7114   3.315   0.890   3.001
 2370TIP3   OH2 7115   5.589   0.949   4.761
 2370TIP3    H1 7116   5.634   0.940   4.677
 2370TIP3    H2 7117   5.642   0.898   4.823
 2371TIP3   OH2 7118   5.727   1.938   0.242
 2371TIP3    H1 7119   5.794   1.871   0.257
 2371TIP3    H2 7120   5.644   1.890   0.248
 2372TIP3   OH2 7121   5.872   1.504   3.196
 2372TIP3    H1 7122   5.794   1.555   3.175
 2372TIP3    H2 7123   5.861   1.479   3.288
 2373TIP3   OH2 7124   4.194   1.685   4.426
 2373TIP3    H1 7125   4.237   1.771   4.429
 2373TIP3    H2 7126   4.102   1.705   4.408
 2374TIP3   OH2 7127   1.160   3.868   0.964
 2374TIP3    H1 7128   1.116   3.942   1.007
 2374TIP3    H2 7129   1.253   3.887   0.973
 2375TIP3   OH2 7130   2.903   1.986   3.515
 2375TIP3    H1 7131   2.913   1.959   3.606
 2375TIP3    H2 7132   2.848   1.919   3.476
 2376TIP3   OH2 7133   1.691   0.492   1.459
 2376TIP3    H1 7134   1.639   0.412   1.462
 2376TIP3    H2 7135   1.651   0.544   1.389
 2377TIP3   OH2 7136   5.187   0.362   0.529
 2377TIP3    H1 7137   5.273   0.320   0.524
 2377TIP3    H2 7138   5.202   0.442   0.580
 2378TIP3   OH2 7139   3.498   1.675   4.733
 2378TIP3    H1 7140   3.568   1.623   4.694
 2378TIP3    H2 7141   3.425   1.613   4.743
 2379TIP3   OH2 7142   4.700   4.296   2.099
 2379TIP3    H1 7143   4.650   4.377   2.099
 2379TIP3    H2 7144   4.667   4.247   2.175
 2380TIP3   OH2 7145   3.850   3.312   4.686
 2380TIP3    H1 7146   3.868   3.246   4.753
 2380TIP3    H2 7147   3.919   3.378   4.698
 2381TIP3   OH2 7148   0.947   1.925   4.699
 2381TIP3    H1 7149   0.964   1.955   4.610
 2381TIP3    H2 7150   1.008   1.851   4.711
 2382TIP3   OH2 7151   3.735   2.020   1.016
 2382TIP3    H1 7152   3.730   2.115   1.027
 2382TIP3    H2 7153   3.693   1.984   1.094
 2383TIP3   OH2 7154   3.368   4.447   1.319
 2383TIP3    H1 7155   3.293   4.461   1.261
 2383TIP3    H2 7156   3.329   4.423   1.403
 2384TIP3   OH2 7157   6.242   2.185   4.972
 2384TIP3    H1 7158   6.156   2.223   4.986
 2384TIP3    H2 7159   6.268   2.216   4.885
 2385TIP3   OH2 7160   3.963   4.855   4.787
 2385TIP3    H1 7161   3.932   4.939   4.820
 2385TIP3    H2 7162   3.948   4.794   4.859
 2386TIP3   OH2 7163   6.325   3.068   0.087
 2386TIP3    H1 7164   6.236   3.051   0.056
 2386TIP3    H2 7165   6.346   2.993   0.142
 2387TIP3   OH2 7166   4.262   3.526   2.607
 2387TIP3    H1 7167   4.179   3.555   2.567
 2387TIP3    H2 7168   4.250   3.432   2.621
 2388TIP3   OH2 7169   5.345   4.469   1.293
 2388TIP3    H1 7170   5.398   4.390   1.284
 2388TIP3    H2 7171   5.295   4.455   1.373
 2389TIP3   OH2 7172   4.197   1.805   3.299
 2389TIP3    H1 7173   4.139   1.750   3.246
 2389TIP3    H2 7174   4.285   1.769   3.284
 2390TIP3   OH2 7175   2.848   1.371   0.808
 2390TIP3    H1 7176   2.881   1.450   0.764
 2390TIP3    H2 7177   2.753   1.377   0.799
 2391TIP3   OH2 7178   4.648   5.513   2.529
 2391TIP3    H1 7179   4.562   5.552   2.547
 2391TIP3    H2 7180   4.704   5.589   2.512
 2392TIP3   OH2 7181   0.096   4.758   5.017
 2392TIP3    H1 7182   0.071   4.829   5.076
 2392TIP3    H2 7183   0.168   4.713   5.062
 2393TIP3   OH2 7184   5.417   5.971   0.064
 2393TIP3    H1 7185   5.398   5.892   0.014
 2393TIP3    H2 7186   5.370   5.959   0.147
 2394TIP3   OH2 7187   6.049   1.878   3.020
 2394TIP3    H1 7188   6.075   1.824   3.095
 2394TIP3    H2 7189   5.976   1.831   2.981
 2395TIP3   OH2 7190   2.116   0.530   4.078
 2395TIP3    H1 7191   2.150   0.533   3.989
 2395TIP3    H2 7192   2.022   0.517   4.067
 2396TIP3   OH2 7193   1.073   3.251   4.151
 2396TIP3    H1 7194   1.150   3.231   4.205
 2396TIP3    H2 7195   1.102   3.321   4.093
 2397TIP3   OH2 7196   1.802   0.707   0.476
 2397TIP3    H1 7197   1.831   0.654   0.550
 2397TIP3    H2 7198   1.864   0.779   0.473
 2398TIP3   OH2 7199   4.886   2.478   4.037
 2398TIP3    H1 7200   4.807   2.427   4.019
 2398TIP3    H2 7201   4.920   2.501   3.951
 2399TIP3   OH2 7202   6.114   2.295   0.150
 2399TIP3    H1 7203   6.204   2.294   0.116
 2399TIP3    H2 7204   6.089   2.203   0.155
 2400TIP3   OH2 7205   6.018   2.900   3.386
 2400TIP3    H1 7206   5.929   2.866   3.401
 2400TIP3    H2 7207   6.075   2.825   3.401
 2401TIP3   OH2 7208   1.446   3.520   5.177
 2401TIP3    H1 7209   1.463   3.588   5.111
 2401TIP3    H2 7210   1.529   3.473   5.184
 2402TIP3   OH2 7211   4.419   5.382   3.763
 2402TIP3    H1 7212   4.362   5.381   3.686
 2402TIP3    H2 7213   4.505   5.406   3.728
 2403TIP3   OH2 7214   2.761   5.300   4.087
 2403TIP3    H1 7215   2.781   5.291   4.180
 2403TIP3    H2 7216   2.714   5.219   4.065
 2404TIP3   OH2 7217   2.560   0.130   0.960
 2404TIP3    H1 7218   2.543   0.149   0.868
 2404TIP3    H2 7219   2.591   0.040   0.961
 2405TIP3   OH2 7220   2.941   3.075   0.664
 2405TIP3    H1 7221   2.966   2.984   0.645
 2405TIP3    H2 7222   2.846   3.076   0.652
 2406TIP3   OH2 7223   3.124   3.604   4.034
 2406TIP3    H1 7224   3.068   3.582   3.959
 2406TIP3    H2 7225   3.086   3.556   4.107
 2407TIP3   OH2 7226   1.929   1.102   0.012
 2407TIP3    H1 7227   1.917   1.011   0.038
 2407TIP3    H2 7228   1.934   1.151   0.095
 2408TIP3   OH2 7229   0.072   0.705   1.860
 2408TIP3    H1 7230   0.113   0.658   1.932
 2408TIP3    H2 7231   0.100   0.658   1.781
 2409TIP3   OH2 7232   1.269   0.715   4.477
 2409TIP3    H1 7233   1.258   0.789   4.537
 2409TIP3    H2 7234   1.357   0.682   4.496
 2410TIP3   OH2 7235   5.410   0.238   0.546
 2410TIP3    H1 7236   5.410   0.142   0.548
 2410TIP3    H2 7237   5.482   0.261   0.488
 2411TIP3   OH2 7238   4.701   1.488   2.776
 2411TIP3    H1 7239   4.792   1.461   2.788
 2411TIP3    H2 7240   4.697   1.575   2.818
 2412TIP3   OH2 7241   0.763   4.864   1.838
 2412TIP3    H1 7242   0.736   4.775   1.862
 2412TIP3    H2 7243   0.821   4.852   1.763
 2413TIP3   OH2 7244   2.114   5.597   3.874
 2413TIP3    H1 7245   2.180   5.649   3.828
 2413TIP3    H2 7246   2.056   5.662   3.914
 2414TIP3   OH2 7247   3.951   5.336   2.359
 2414TIP3    H1 7248   3.977   5.257   2.310
 2414TIP3    H2 7249   3.913   5.393   2.294
 2415TIP3   OH2 7250   3.002   2.444   2.324
 2415TIP3    H1 7251   3.036   2.479   2.407
 2415TIP3    H2 7252   2.914   2.480   2.318
 2416TIP3   OH2 7253   2.013   4.174   4.781
 2416TIP3    H1 7254   2.002   4.245   4.845
 2416TIP3    H2 7255   2.058   4.215   4.707
 2417TIP3   OH2 7256   2.603   3.327   3.685
 2417TIP3    H1 7257   2.629   3.417   3.665
 2417TIP3    H2 7258   2.510   3.323   3.664
 2418TIP3   OH2 7259   0.186   4.517   3.160
 2418TIP3    H1 7260   0.095   4.544   3.170
 2418TIP3    H2 7261   0.183   4.445   3.097
 2419TIP3   OH2 7262   5.884   0.890   0.196
 2419TIP3    H1 7263   5.910   0.842   0.117
 2419TIP3    H2 7264   5.966   0.904   0.243
 2420TIP3   OH2 7265   1.706   5.685   3.944
 2420TIP3    H1 7266   1.768   5.702   4.015
 2420TIP3    H2 7267   1.686   5.592   3.951
 2421TIP3   OH2 7268   5.810   2.467   4.472
 2421TIP3    H1 7269   5.768   2.515   4.543
 2421TIP3    H2 7270   5.893   2.437   4.508
 2422TIP3   OH2 7271   1.434   5.264   3.071
 2422TIP3    H1 7272   1.447   5.327   3.141
 2422TIP3    H2 7273   1.462   5.180   3.108
 2423TIP3   OH2 7274   0.306   4.100   3.090
 2423TIP3    H1 7275   0.312   4.040   3.016
 2423TIP3    H2 7276   0.396   4.127   3.107
 2424TIP3   OH2 7277   0.347   0.531   4.266
 2424TIP3    H1 7278   0.376   0.597   4.330
 2424TIP3    H2 7279   0.314   0.459   4.320
 2425TIP3   OH2 7280   3.674   0.910   2.315
 2425TIP3    H1 7281   3.732   0.972   2.270
 2425TIP3    H2 7282   3.588   0.925   2.276
 2426TIP3   OH2 7283   0.816   4.583   1.403
 2426TIP3    H1 7284   0.803   4.499   1.359
 2426TIP3    H2 7285   0.744   4.589   1.466
 2427TIP3   OH2 7286   4.416   5.024   0.727
 2427TIP3    H1 7287   4.509   5.002   0.720
 2427TIP3    H2 7288   4.375   4.942   0.754
 2428TIP3   OH2 7289   5.242   3.594   1.182
 2428TIP3    H1 7290   5.152   3.607   1.213
 2428TIP3    H2 7291   5.238   3.612   1.088
 2429TIP3   OH2 7292   3.255   2.774   3.258
 2429TIP3    H1 7293   3.291   2.690   3.284
 2429TIP3    H2 7294   3.287   2.836   3.323
 2430TIP3   OH2 7295   3.040   1.723   5.123
 2430TIP3    H1 7296   3.076   1.687   5.042
 2430TIP3    H2 7297   3.019   1.646   5.176
 2431TIP3   OH2 7298   1.064   2.604   4.739
 2431TIP3    H1 7299   1.081   2.618   4.646
 2431TIP3    H2 7300   1.116   2.670   4.783
 2432TIP3   OH2 7301   1.330   1.997   4.380
 2432TIP3    H1 7302   1.284   1.914   4.363
 2432TIP3    H2 7303   1.308   2.019   4.470
 2433TIP3   OH2 7304   4.188   1.077   2.332
 2433TIP3    H1 7305   4.170   1.152   2.276
 2433TIP3    H2 7306   4.116   1.076   2.395
 2434TIP3   OH2 7307   2.648   0.315   5.050
 2434TIP3    H1 7308   2.589   0.240   5.059
 2434TIP3    H2 7309   2.730   0.287   5.090
 2435TIP3   OH2 7310   2.290   0.807   2.953
 2435TIP3    H1 7311   2.260   0.897   2.969
 2435TIP3    H2 7312   2.365   0.817   2.895
 2436TIP3   OH2 7313   5.586   2.748   4.886
 2436TIP3    H1 7314   5.546   2.705   4.962
 2436TIP3    H2 7315   5.671   2.779   4.917
 2437TIP3   OH2 7316   1.641   5.765   3.671
 2437TIP3    H1 7317   1.580   5.691   3.671
 2437TIP3    H2 7318   1.678   5.765   3.759
 2438TIP3   OH2 7319   0.655   5.588   5.112
 2438TIP3    H1 7320   0.563   5.574   5.089
 2438TIP3    H2 7321   0.654   5.610   5.205
 2439TIP3   OH2 7322   3.640   0.983   0.763
 2439TIP3    H1 7323   3.656   0.938   0.846
 2439TIP3    H2 7324   3.550   0.960   0.740
 2440TIP3   OH2 7325   4.106   0.315   4.484
 2440TIP3    H1 7326   4.086   0.404   4.454
 2440TIP3    H2 7327   4.201   0.308   4.474
 2441TIP3   OH2 7328   0.401   5.831   3.130
 2441TIP3    H1 7329   0.435   5.919   3.146
 2441TIP3    H2 7330   0.314   5.831   3.170
 2442TIP3   OH2 7331   2.162   3.040   1.509
 2442TIP3    H1 7332   2.114   3.121   1.529
 2442TIP3    H2 7333   2.170   3.040   1.413
 2443TIP3   OH2 7334   5.182   3.460   1.661
 2443TIP3    H1 7335   5.222   3.492   1.742
 2443TIP3    H2 7336   5.225   3.509   1.591
 2444TIP3   OH2 7337   3.396   3.168   3.289
 2444TIP3    H1 7338   3.306   3.149   3.260
 2444TIP3    H2 7339   3.389   3.180   3.384
 2445TIP3   OH2 7340   1.143   4.529   4.614
 2445TIP3    H1 7341   1.075   4.596   4.624
 2445TIP3    H2 7342   1.124   4.489   4.528
 2446TIP3   OH2 7343   5.467   5.417   3.918
 2446TIP3    H1 7344   5.529   5.345   3.919
 2446TIP3    H2 7345   5.463   5.445   3.827
 2447TIP3   OH2 7346   1.197   2.419   0.051
 2447TIP3    H1 7347   1.203   2.507   0.015
 2447TIP3    H2 7348   1.252   2.365  -0.007
 2448TIP3   OH2 7349   1.203   4.236   1.240
 2448TIP3    H1 7350   1.290   4.276   1.230
 2448TIP3    H2 7351   1.170   4.270   1.323
 2449TIP3   OH2 7352   1.382   4.045   0.968
 2449TIP3    H1 7353   1.299   4.089   0.951
 2449TIP3    H2 7354   1.448   4.105   0.933
 2450TIP3   OH2 7355   1.582   1.902   0.003
 2450TIP3    H1 7356   1.598   1.838   0.072
 2450TIP3    H2 7357   1.488   1.919   0.006
 2451TIP3   OH2 7358   2.040   0.223   5.118
 2451TIP3    H1 7359   2.038   0.294   5.054
 2451TIP3    H2 7360   2.005   0.263   5.198
 2452TIP3   OH2 7361   4.281   0.002   3.939
 2452TIP3    H1 7362   4.310  -0.037   3.857
 2452TIP3    H2 7363   4.269   0.095   3.920
 2453TIP3   OH2 7364   4.406   0.040   5.074
 2453TIP3    H1 7365   4.329   0.051   5.129
 2453TIP3    H2 7366   4.377  -0.017   5.003
 2454TIP3   OH2 7367   0.935   5.029   3.017
 2454TIP3    H1 7368   0.906   5.032   3.108
 2454TIP3    H2 7369   1.026   5.001   3.021
 2455TIP3   OH2 7370   1.656   2.671   2.481
 2455TIP3    H1 7371   1.720   2.634   2.541
 2455TIP3    H2 7372   1.587   2.605   2.475
 2456TIP3   OH2 7373   3.041   0.474   0.903
 2456TIP3    H1 7374   2.972   0.458   0.968
 2456TIP3    H2 7375   2.995   0.504   0.825
 2457TIP3   OH2 7376   2.009   0.539   3.170
 2457TIP3    H1 7377   1.946   0.468   3.155
 2457TIP3    H2 7378   1.956   0.611   3.204
 2458TIP3   OH2 7379   4.652   0.392   4.557
 2458TIP3    H1 7380   4.688   0.460   4.499
 2458TIP3    H2 7381   4.635   0.318   4.499
 2459TIP3   OH2 7382   4.055   5.474   4.864
 2459TIP3    H1 7383   4.008   5.427   4.796
 2459TIP3    H2 7384   4.138   5.499   4.823
 2460TIP3   OH2 7385   6.290   3.948   1.118
 2460TIP3    H1 7386   6.293   4.005   1.042
 2460TIP3    H2 7387   6.208   3.971   1.162
 2461TIP3   OH2 7388   2.862   5.805   4.180
 2461TIP3    H1 7389   2.949   5.836   4.204
 2461TIP3    H2 7390   2.810   5.815   4.259
 2462TIP3   OH2 7391   0.843   3.916   3.294
 2462TIP3    H1 7392   0.883   4.002   3.281
 2462TIP3    H2 7393   0.786   3.905   3.218
 2463TIP3   OH2 7394   1.863   1.466   2.187
 2463TIP3    H1 7395   1.876   1.516   2.106
 2463TIP3    H2 7396   1.902   1.381   2.170
 2464TIP3   OH2 7397   3.001   0.763   1.177
 2464TIP3    H1 7398   2.942   0.823   1.221
 2464TIP3    H2 7399   3.088   0.800   1.191
 2465TIP3   OH2 7400   2.033   4.978   0.301
 2465TIP3    H1 7401   1.977   4.900   0.303
 2465TIP3    H2 7402   2.079   4.977   0.385
 2466TIP3   OH2 7403   3.141   4.800   4.344
 2466TIP3    H1 7404   3.076   4.827   4.409
 2466TIP3    H2 7405   3.136   4.704   4.344
 2467TIP3   OH2 7406   2.597   6.017   0.752
 2467TIP3    H1 7407   2.521   6.047   0.802
 2467TIP3    H2 7408   2.562   5.949   0.695
 2468TIP3   OH2 7409   0.383   3.350   4.678
 2468TIP3    H1 7410   0.294   3.318   4.696
 2468TIP3    H2 7411   0.416   3.379   4.764
 2469TIP3   OH2 7412   3.827   2.678   1.876
 2469TIP3    H1 7413   3.878   2.758   1.887
 2469TIP3    H2 7414   3.762   2.700   1.810
 2470TIP3   OH2 7415   4.201   5.813   4.970
 2470TIP3    H1 7416   4.107   5.796   4.975
 2470TIP3    H2 7417   4.239   5.732   4.937
 2471TIP3   OH2 7418   2.807   5.406   0.639
 2471TIP3    H1 7419   2.747   5.358   0.582
 2471TIP3    H2 7420   2.755   5.427   0.716
 2472TIP3   OH2 7421   4.000   2.262   4.331
 2472TIP3    H1 7422   3.937   2.321   4.372
 2472TIP3    H2 7423   4.052   2.318   4.274
 2473TIP3   OH2 7424   0.272   0.104   5.051
 2473TIP3    H1 7425   0.277   0.009   5.039
 2473TIP3    H2 7426   0.272   0.139   4.962
 2474TIP3   OH2 7427   2.163   3.143   4.752
 2474TIP3    H1 7428   2.117   3.070   4.795
 2474TIP3    H2 7429   2.201   3.193   4.824
 2475TIP3   OH2 7430   5.215   3.926   1.408
 2475TIP3    H1 7431   5.288   3.959   1.461
 2475TIP3    H2 7432   5.168   3.866   1.467
 2476TIP3   OH2 7433   2.497   5.276   1.872
 2476TIP3    H1 7434   2.438   5.204   1.849
 2476TIP3    H2 7435   2.502   5.329   1.792
 2477TIP3   OH2 7436   2.519   3.203   2.493
 2477TIP3    H1 7437   2.423   3.206   2.492
 2477TIP3    H2 7438   2.543   3.256   2.568
 2478TIP3   OH2 7439   1.633   1.356   2.097
 2478TIP3    H1 7440   1.608   1.306   2.174
 2478TIP3    H2 7441   1.715   1.399   2.122
 2479TIP3   OH2 7442   4.826   5.237   4.178
 2479TIP3    H1 7443   4.852   5.310   4.234
 2479TIP3    H2 7444   4.779   5.278   4.106
 2480TIP3   OH2 7445   6.040   2.317   2.266
 2480TIP3    H1 7446   6.023   2.226   2.290
 2480TIP3    H2 7447   6.049   2.316   2.171
 2481TIP3   OH2 7448   4.582   5.917   1.803
 2481TIP3    H1 7449   4.520   5.950   1.738
 2481TIP3    H2 7450   4.611   5.833   1.769
 2482TIP3   OH2 7451   5.374   2.430   1.529
 2482TIP3    H1 7452   5.409   2.358   1.581
 2482TIP3    H2 7453   5.446   2.453   1.469
 2483TIP3   OH2 7454   0.490   4.000   3.717
 2483TIP3    H1 7455   0.454   3.995   3.806
 2483TIP3    H2 7456   0.417   4.032   3.664
 2484TIP3   OH2 7457   6.239   2.933   2.422
 2484TIP3    H1 7458   6.245   3.003   2.487
 2484TIP3    H2 7459   6.283   2.858   2.462
 2485TIP3   OH2 7460   1.317   1.975   3.730
 2485TIP3    H1 7461   1.358   1.985   3.644
 2485TIP3    H2 7462   1.328   1.883   3.752
 2486TIP3   OH2 7463   0.736   1.984   1.881
 2486TIP3    H1 7464   0.659   2.026   1.842
 2486TIP3    H2 7465   0.808   2.044   1.861
 2487TIP3   OH2 7466   2.902   4.439   3.951
 2487TIP3    H1 7467   2.886   4.383   4.027
 2487TIP3    H2 7468   2.936   4.381   3.884
 2488TIP3   OH2 7469   4.230   5.183   1.575
 2488TIP3    H1 7470   4.140   5.154   1.566
 2488TIP3    H2 7471   4.224   5.278   1.587
 2489TIP3   OH2 7472   5.255   4.294   4.448
 2489TIP3    H1 7473   5.167   4.319   4.477
 2489TIP3    H2 7474   5.285   4.232   4.515
 2490TIP3   OH2 7475   1.474   2.595   3.898
 2490TIP3    H1 7476   1.394   2.569   3.853
 2490TIP3    H2 7477   1.465   2.557   3.986
 2491TIP3   OH2 7478   0.980   2.858   3.849
 2491TIP3    H1 7479   0.893   2.820   3.866
 2491TIP3    H2 7480   0.963   2.932   3.791
 2492TIP3   OH2 7481   4.062   0.953   2.992
 2492TIP3    H1 7482   4.026   0.866   2.976
 2492TIP3    H2 7483   4.120   0.942   3.067
 2493TIP3   OH2 7484   3.492   1.589   3.382
 2493TIP3    H1 7485   3.406   1.610   3.419
 2493TIP3    H2 7486   3.477   1.579   3.289
 2494TIP3   OH2 7487   2.532   3.014   1.385
 2494TIP3    H1 7488   2.461   2.994   1.325
 2494TIP3    H2 7489   2.523   3.107   1.404
 2495TIP3   OH2 7490   2.012   2.952   4.161
 2495TIP3    H1 7491   1.955   3.015   4.205
 2495TIP3    H2 7492   1.991   2.868   4.202
 2496TIP3   OH2 7493   1.605   5.595   4.563
 2496TIP3    H1 7494   1.611   5.538   4.486
 2496TIP3    H2 7495   1.683   5.650   4.560
 2497TIP3   OH2 7496   3.485   4.140   4.854
 2497TIP3    H1 7497   3.540   4.217   4.872
 2497TIP3    H2 7498   3.396   4.175   4.848
 2498TIP3   OH2 7499   2.704   1.842   3.369
 2498TIP3    H1 7500   2.676   1.891   3.292
 2498TIP3    H2 7501   2.622   1.818   3.413
 2499TIP3   OH2 7502   1.158   1.573   4.944
 2499TIP3    H1 7503   1.119   1.498   4.899
 2499TIP3    H2 7504   1.149   1.554   5.037
 2500TIP3   OH2 7505   4.319   4.582   4.733
 2500TIP3    H1 7506   4.344   4.498   4.695
 2500TIP3    H2 7507   4.232   4.567   4.770
 2501TIP3   OH2 7508   0.550   4.175   0.914
 2501TIP3    H1 7509   0.552   4.131   0.998
 2501TIP3    H2 7510   0.637   4.215   0.905
 2502TIP3   OH2 7511   1.597   2.482   5.022
 2502TIP3    H1 7512   1.684   2.458   5.054
 2502TIP3    H2 7513   1.561   2.539   5.090
 2503TIP3   OH2 7514   1.919   5.295   1.777
 2503TIP3    H1 7515   1.884   5.301   1.866
 2503TIP3    H2 7516   2.007   5.330   1.783
 2504TIP3   OH2 7517   0.097   2.055   0.858
 2504TIP3    H1 7518   0.103   2.142   0.820
 2504TIP3    H2 7519   0.022   2.059   0.917
 2505TIP3   OH2 7520   5.982   3.579   1.697
 2505TIP3    H1 7521   6.040   3.593   1.772
 2505TIP3    H2 7522   5.894   3.593   1.733
 2506TIP3   OH2 7523   4.294   0.133   4.277
 2506TIP3    H1 7524   4.246   0.060   4.317
 2506TIP3    H2 7525   4.366   0.091   4.229
 2507TIP3   OH2 7526   3.435   1.823   2.698
 2507TIP3    H1 7527   3.490   1.900   2.708
 2507TIP3    H2 7528   3.450   1.772   2.777
 2508TIP3   OH2 7529   5.995   4.464   3.161
 2508TIP3    H1 7530   5.987   4.483   3.067
 2508TIP3    H2 7531   5.994   4.369   3.166
 2509TIP3   OH2 7532   0.370   5.187   3.660
 2509TIP3    H1 7533   0.337   5.116   3.715
 2509TIP3    H2 7534   0.355   5.157   3.571
 2510TIP3   OH2 7535   4.186   4.487   1.175
 2510TIP3    H1 7536   4.224   4.559   1.225
 2510TIP3    H2 7537   4.245   4.413   1.191
 2511TIP3   OH2 7538   3.787   5.501   3.821
 2511TIP3    H1 7539   3.706   5.486   3.869
 2511TIP3    H2 7540   3.796   5.596   3.818
 2512TIP3   OH2 7541   2.795   4.681   4.098
 2512TIP3    H1 7542   2.783   4.774   4.115
 2512TIP3    H2 7543   2.709   4.651   4.069
 2513TIP3   OH2 7544   1.944   1.652   0.726
 2513TIP3    H1 7545   1.852   1.629   0.713
 2513TIP3    H2 7546   1.985   1.573   0.759
 2514TIP3   OH2 7547   2.698   1.522   2.309
 2514TIP3    H1 7548   2.732   1.490   2.392
 2514TIP3    H2 7549   2.631   1.459   2.284
 2515TIP3   OH2 7550   0.508   2.977   4.646
 2515TIP3    H1 7551   0.585   3.033   4.640
 2515TIP3    H2 7552   0.542   2.891   4.671
 2516TIP3   OH2 7553   0.065   4.664   2.503
 2516TIP3    H1 7554  -0.003   4.701   2.559
 2516TIP3    H2 7555   0.106   4.596   2.555
 2517TIP3   OH2 7556   5.280   2.949   2.906
 2517TIP3    H1 7557   5.348   2.882   2.900
 2517TIP3    H2 7558   5.308   3.016   2.843
 2518TIP3   OH2 7559   3.378   0.986   0.657
 2518TIP3    H1 7560   3.287   0.964   0.636
 2518TIP3    H2 7561   3.387   1.078   0.632
 2519TIP3   OH2 7562   4.274   1.876   3.757
 2519TIP3    H1 7563   4.284   1.844   3.668
 2519TIP3    H2 7564   4.200   1.826   3.792
 2520TIP3   OH2 7565   2.384   1.603   2.063
 2520TIP3    H1 7566   2.341   1.519   2.047
 2520TIP3    H2 7567   2.313   1.663   2.086
 2521TIP3   OH2 7568   3.453   3.143   4.462
 2521TIP3    H1 7569   3.424   3.125   4.373
 2521TIP3    H2 7570   3.462   3.239   4.465
 2522TIP3   OH2 7571   4.235   1.739   0.248
 2522TIP3    H1 7572   4.311   1.794   0.231
 2522TIP3    H2 7573   4.269   1.649   0.242
 2523TIP3   OH2 7574   4.472   4.561   0.157
 2523TIP3    H1 7575   4.436   4.635   0.109
 2523TIP3    H2 7576   4.463   4.487   0.097
 2524TIP3   OH2 7577   5.081   2.700   3.683
 2524TIP3    H1 7578   5.131   2.622   3.658
 2524TIP3    H2 7579   4.990   2.677   3.667
 2525TIP3   OH2 7580   1.628   5.587   4.898
 2525TIP3    H1 7581   1.550   5.532   4.891
 2525TIP3    H2 7582   1.596   5.670   4.934
 2526TIP3   OH2 7583   4.876   4.919   2.789
 2526TIP3    H1 7584   4.932   4.843   2.803
 2526TIP3    H2 7585   4.937   4.993   2.787
 2527TIP3   OH2 7586   6.106   4.543   1.643
 2527TIP3    H1 7587   6.053   4.529   1.564
 2527TIP3    H2 7588   6.190   4.503   1.623
 2528TIP3   OH2 7589   3.985   1.325   3.600
 2528TIP3    H1 7590   3.970   1.413   3.635
 2528TIP3    H2 7591   3.987   1.336   3.505
 2529TIP3   OH2 7592   4.781   3.262   3.906
 2529TIP3    H1 7593   4.874   3.277   3.920
 2529TIP3    H2 7594   4.745   3.248   3.994
 2530TIP3   OH2 7595   2.248   2.264   1.962
 2530TIP3    H1 7596   2.212   2.300   2.043
 2530TIP3    H2 7597   2.228   2.170   1.966
 2531TIP3   OH2 7598   5.844   1.721   2.900
 2531TIP3    H1 7599   5.818   1.677   2.818
 2531TIP3    H2 7600   5.880   1.650   2.954
 2532TIP3   OH2 7601   1.286   0.951   1.639
 2532TIP3    H1 7602   1.328   1.036   1.623
 2532TIP3    H2 7603   1.259   0.956   1.731
 2533TIP3   OH2 7604   0.581   5.384   1.708
 2533TIP3    H1 7605   0.574   5.479   1.695
 2533TIP3    H2 7606   0.671   5.370   1.738
 2534TIP3   OH2 7607   2.223   2.268   1.211
 2534TIP3    H1 7608   2.250   2.350   1.253
 2534TIP3    H2 7609   2.163   2.227   1.274
 2535TIP3   OH2 7610   4.892   1.393   5.001
 2535TIP3    H1 7611   4.798   1.411   5.001
 2535TIP3    H2 7612   4.932   1.475   5.029
 2536TIP3   OH2 7613   5.050   5.649   2.426
 2536TIP3    H1 7614   5.042   5.616   2.337
 2536TIP3    H2 7615   4.960   5.655   2.458
 2537TIP3   OH2 7616   0.027   1.619   0.852
 2537TIP3    H1 7617   0.052   1.708   0.826
 2537TIP3    H2 7618   0.090   1.596   0.921
 2538TIP3   OH2 7619   4.984   4.807   0.154
 2538TIP3    H1 7620   4.996   4.892   0.197
 2538TIP3    H2 7621   5.055   4.802   0.091
 2539TIP3   OH2 7622   3.112   4.895   1.552
 2539TIP3    H1 7623   3.024   4.861   1.569
 2539TIP3    H2 7624   3.153   4.897   1.638
 2540TIP3   OH2 7625   5.764   4.697   1.531
 2540TIP3    H1 7626   5.673   4.668   1.531
 2540TIP3    H2 7627   5.766   4.769   1.593
 2541TIP3   OH2 7628   1.850   0.008   0.853
 2541TIP3    H1 7629   1.935   0.022   0.811
 2541TIP3    H2 7630   1.841   0.082   0.913
 2542TIP3   OH2 7631   5.120   5.001   4.455
 2542TIP3    H1 7632   5.147   5.090   4.480
 2542TIP3    H2 7633   5.035   5.013   4.413
 2543TIP3   OH2 7634   1.621   3.769   5.087
 2543TIP3    H1 7635   1.706   3.748   5.048
 2543TIP3    H2 7636   1.558   3.715   5.039
 2544TIP3   OH2 7637   2.308   0.380   1.924
 2544TIP3    H1 7638   2.275   0.320   1.857
 2544TIP3    H2 7639   2.386   0.418   1.885
 2545TIP3   OH2 7640   3.064   1.885   4.273
 2545TIP3    H1 7641   3.141   1.830   4.281
 2545TIP3    H2 7642   2.993   1.825   4.251
 2546TIP3   OH2 7643   0.166   5.221   0.117
 2546TIP3    H1 7644   0.099   5.154   0.132
 2546TIP3    H2 7645   0.207   5.196   0.034
 2547TIP3   OH2 7646   1.767   3.295   0.669
 2547TIP3    H1 7647   1.790   3.385   0.643
 2547TIP3    H2 7648   1.694   3.306   0.730
 2548TIP3   OH2 7649   1.660   1.053   2.768
 2548TIP3    H1 7650   1.752   1.074   2.752
 2548TIP3    H2 7651   1.660   0.960   2.790
 2549TIP3   OH2 7652   5.680   5.118   3.127
 2549TIP3    H1 7653   5.772   5.109   3.104
 2549TIP3    H2 7654   5.638   5.039   3.092
 2550TIP3   OH2 7655   1.566   1.052   2.089
 2550TIP3    H1 7656   1.565   1.104   2.169
 2550TIP3    H2 7657   1.486   1.076   2.043
 2551TIP3   OH2 7658   0.474   1.576   4.961
 2551TIP3    H1 7659   0.441   1.654   5.006
 2551TIP3    H2 7660   0.546   1.545   5.015
 2552TIP3   OH2 7661   2.702   0.857   3.162
 2552TIP3    H1 7662   2.639   0.891   3.225
 2552TIP3    H2 7663   2.703   0.762   3.177
 2553TIP3   OH2 7664   3.841   4.726   3.841
 2553TIP3    H1 7665   3.799   4.781   3.774
 2553TIP3    H2 7666   3.935   4.747   3.832
 2554TIP3   OH2 7667   0.135   0.831   3.645
 2554TIP3    H1 7668   0.109   0.756   3.590
 2554TIP3    H2 7669   0.205   0.873   3.595
 2555TIP3   OH2 7670   3.177   4.490   3.702
 2555TIP3    H1 7671   3.104   4.428   3.705
 2555TIP3    H2 7672   3.215   4.487   3.789
 2556TIP3   OH2 7673   4.909   1.354   1.582
 2556TIP3    H1 7674   4.839   1.407   1.621
 2556TIP3    H2 7675   4.940   1.299   1.654
 2557TIP3   OH2 7676   1.433   1.485   0.766
 2557TIP3    H1 7677   1.405   1.466   0.676
 2557TIP3    H2 7678   1.373   1.435   0.821
 2558TIP3   OH2 7679   2.532   4.386   2.767
 2558TIP3    H1 7680   2.438   4.379   2.754
 2558TIP3    H2 7681   2.542   4.423   2.855
 2559TIP3   OH2 7682   0.495   0.306   5.087
 2559TIP3    H1 7683   0.406   0.295   5.120
 2559TIP3    H2 7684   0.540   0.225   5.112
 2560TIP3   OH2 7685   2.670   0.068   1.604
 2560TIP3    H1 7686   2.676   0.067   1.508
 2560TIP3    H2 7687   2.683   0.159   1.628
 2561TIP3   OH2 7688   2.286   2.475   3.284
 2561TIP3    H1 7689   2.366   2.476   3.233
 2561TIP3    H2 7690   2.311   2.433   3.367
 2562TIP3   OH2 7691   0.644   3.026   0.082
 2562TIP3    H1 7692   0.649   2.943   0.129
 2562TIP3    H2 7693   0.645   3.093   0.151
 2563TIP3   OH2 7694   2.164   0.811   0.933
 2563TIP3    H1 7695   2.096   0.767   0.985
 2563TIP3    H2 7696   2.151   0.904   0.952
 2564TIP3   OH2 7697   5.125   1.537   3.067
 2564TIP3    H1 7698   5.115   1.476   3.140
 2564TIP3    H2 7699   5.219   1.554   3.064
 2565TIP3   OH2 7700   0.329   0.871   3.219
 2565TIP3    H1 7701   0.279   0.931   3.163
 2565TIP3    H2 7702   0.312   0.901   3.308
 2566TIP3   OH2 7703   1.034   5.305   2.378
 2566TIP3    H1 7704   1.052   5.399   2.369
 2566TIP3    H2 7705   0.938   5.299   2.379
 2567TIP3   OH2 7706   1.463   2.788   0.605
 2567TIP3    H1 7707   1.558   2.784   0.590
 2567TIP3    H2 7708   1.429   2.842   0.534
 2568TIP3   OH2 7709   4.358   4.564   2.951
 2568TIP3    H1 7710   4.376   4.607   3.035
 2568TIP3    H2 7711   4.278   4.515   2.966
 2569TIP3   OH2 7712   0.322   1.009   2.741
 2569TIP3    H1 7713   0.318   1.051   2.656
 2569TIP3    H2 7714   0.238   1.028   2.782
 2570TIP3   OH2 7715   1.989   1.172   3.041
 2570TIP3    H1 7716   1.930   1.125   3.100
 2570TIP3    H2 7717   2.004   1.256   3.084
 2571TIP3   OH2 7718   6.078   2.061   0.424
 2571TIP3    H1 7719   6.159   2.099   0.459
 2571TIP3    H2 7720   6.008   2.101   0.476
 2572TIP3   OH2 7721   3.185   2.820   0.239
 2572TIP3    H1 7722   3.232   2.739   0.223
 2572TIP3    H2 7723   3.156   2.849   0.152
 2573TIP3   OH2 7724   1.040   3.229   4.932
 2573TIP3    H1 7725   0.991   3.238   5.014
 2573TIP3    H2 7726   1.117   3.285   4.942
 2574TIP3   OH2 7727   1.792   3.638   4.388
 2574TIP3    H1 7728   1.822   3.549   4.370
 2574TIP3    H2 7729   1.763   3.635   4.479
 2575TIP3   OH2 7730   3.900   5.424   2.105
 2575TIP3    H1 7731   3.896   5.475   2.025
 2575TIP3    H2 7732   3.987   5.385   2.104
 2576TIP3   OH2 7733   2.831   0.746   0.926
 2576TIP3    H1 7734   2.886   0.771   1.001
 2576TIP3    H2 7735   2.744   0.777   0.948
 2577TIP3   OH2 7736   3.351   0.563   3.875
 2577TIP3    H1 7737   3.361   0.492   3.938
 2577TIP3    H2 7738   3.361   0.520   3.790
 2578TIP3   OH2 7739   1.886   5.677   4.438
 2578TIP3    H1 7740   1.861   5.745   4.375
 2578TIP3    H2 7741   1.976   5.655   4.415
 2579TIP3   OH2 7742   2.344   5.393   1.185
 2579TIP3    H1 7743   2.435   5.366   1.175
 2579TIP3    H2 7744   2.293   5.314   1.164
 2580TIP3   OH2 7745   3.009   1.700   0.248
 2580TIP3    H1 7746   3.064   1.639   0.199
 2580TIP3    H2 7747   2.954   1.644   0.303
 2581TIP3   OH2 7748   3.402   0.922   2.221
 2581TIP3    H1 7749   3.376   0.832   2.244
 2581TIP3    H2 7750   3.333   0.977   2.258
 2582TIP3   OH2 7751   0.618   2.181   2.617
 2582TIP3    H1 7752   0.620   2.096   2.661
 2582TIP3    H2 7753   0.626   2.160   2.524
 2583TIP3   OH2 7754   6.003   3.648   4.899
 2583TIP3    H1 7755   5.921   3.652   4.948
 2583TIP3    H2 7756   6.069   3.677   4.963
 2584TIP3   OH2 7757   4.116   1.749   2.781
 2584TIP3    H1 7758   4.033   1.723   2.740
 2584TIP3    H2 7759   4.110   1.844   2.790
 2585TIP3   OH2 7760   4.965   2.161   3.209
 2585TIP3    H1 7761   4.983   2.099   3.280
 2585TIP3    H2 7762   4.974   2.247   3.249
 2586TIP3   OH2 7763   2.727   1.053   2.581
 2586TIP3    H1 7764   2.810   1.053   2.629
 2586TIP3    H2 7765   2.700   0.961   2.580
 2587TIP3   OH2 7766   0.046   0.985   3.843
 2587TIP3    H1 7767   0.028   0.903   3.888
 2587TIP3    H2 7768   0.092   0.959   3.763
 2588TIP3   OH2 7769   1.141   2.575   4.236
 2588TIP3    H1 7770   1.108   2.664   4.227
 2588TIP3    H2 7771   1.215   2.571   4.175
 2589TIP3   OH2 7772   5.317   1.005   4.295
 2589TIP3    H1 7773   5.374   1.046   4.361
 2589TIP3    H2 7774   5.316   1.066   4.222
 2590TIP3   OH2 7775   4.630   0.166   3.219
 2590TIP3    H1 7776   4.717   0.127   3.231
 2590TIP3    H2 7777   4.590   0.115   3.149
 2591TIP3   OH2 7778   6.330   2.849   1.072
 2591TIP3    H1 7779   6.238   2.825   1.064
 2591TIP3    H2 7780   6.337   2.892   1.158
 2592TIP3   OH2 7781   4.045   5.901   3.360
 2592TIP3    H1 7782   4.101   5.872   3.432
 2592TIP3    H2 7783   4.037   5.824   3.304
 2593TIP3   OH2 7784   2.067   3.417   4.847
 2593TIP3    H1 7785   2.087   3.429   4.754
 2593TIP3    H2 7786   2.040   3.326   4.855
 2594TIP3   OH2 7787   4.246   1.067   3.648
 2594TIP3    H1 7788   4.336   1.072   3.616
 2594TIP3    H2 7789   4.255   1.034   3.737
 2595TIP3   OH2 7790   4.540   0.988   0.548
 2595TIP3    H1 7791   4.630   1.003   0.518
 2595TIP3    H2 7792   4.548   0.919   0.614
 2596TIP3   OH2 7793   3.479   5.152   2.699
 2596TIP3    H1 7794   3.388   5.154   2.727
 2596TIP3    H2 7795   3.487   5.072   2.647
 2597TIP3   OH2 7796   5.514   5.101   3.823
 2597TIP3    H1 7797   5.521   5.079   3.916
 2597TIP3    H2 7798   5.488   5.019   3.781
 2598TIP3   OH2 7799   4.746   1.417   3.955
 2598TIP3    H1 7800   4.729   1.431   4.048
 2598TIP3    H2 7801   4.829   1.462   3.938
 2599TIP3   OH2 7802   3.854   4.569   3.433
 2599TIP3    H1 7803   3.828   4.496   3.376
 2599TIP3    H2 7804   3.861   4.644   3.374
 2600TIP3   OH2 7805   0.028   3.958   0.195
 2600TIP3    H1 7806  -0.034   3.916   0.136
 2600TIP3    H2 7807   0.026   3.905   0.274
 2601TIP3   OH2 7808   0.342   5.584   3.984
 2601TIP3    H1 7809   0.285   5.659   4.002
 2601TIP3    H2 7810   0.291   5.528   3.926
 2602TIP3   OH2 7811   0.845   2.036   3.792
 2602TIP3    H1 7812   0.810   2.047   3.881
 2602TIP3    H2 7813   0.780   2.077   3.735
 2603TIP3   OH2 7814   1.201   5.414   4.233
 2603TIP3    H1 7815   1.275   5.474   4.245
 2603TIP3    H2 7816   1.199   5.397   4.139
 2604TIP3   OH2 7817   4.482   1.161   2.226
 2604TIP3    H1 7818   4.559   1.107   2.246
 2604TIP3    H2 7819   4.498   1.242   2.275
 2605TIP3   OH2 7820   2.699   4.186   3.833
 2605TIP3    H1 7821   2.793   4.195   3.819
 2605TIP3    H2 7822   2.685   4.220   3.921
 2606TIP3   OH2 7823   3.160   0.524   4.214
 2606TIP3    H1 7824   3.132   0.605   4.257
 2606TIP3    H2 7825   3.242   0.546   4.171
 2607TIP3   OH2 7826   5.101   4.518   5.109
 2607TIP3    H1 7827   5.133   4.590   5.056
 2607TIP3    H2 7828   5.104   4.551   5.199
 2608TIP3   OH2 7829   4.678   5.485   2.232
 2608TIP3    H1 7830   4.760   5.533   2.233
 2608TIP3    H2 7831   4.641   5.499   2.320
 2609TIP3   OH2 7832   1.778   5.774   4.691
 2609TIP3    H1 7833   1.847   5.751   4.629
 2609TIP3    H2 7834   1.766   5.696   4.745
 2610TIP3   OH2 7835   4.512   5.685   0.683
 2610TIP3    H1 7836   4.466   5.635   0.615
 2610TIP3    H2 7837   4.542   5.619   0.745
 2611TIP3   OH2 7838   2.743   1.166   3.614
 2611TIP3    H1 7839   2.675   1.204   3.669
 2611TIP3    H2 7840   2.817   1.226   3.622
 2612TIP3   OH2 7841   4.098   3.982   2.639
 2612TIP3    H1 7842   4.148   3.957   2.562
 2612TIP3    H2 7843   4.007   3.984   2.609
 2613TIP3   OH2 7844   4.435   2.239   1.841
 2613TIP3    H1 7845   4.390   2.309   1.889
 2613TIP3    H2 7846   4.499   2.285   1.786
 2614TIP3   OH2 7847   5.393   4.741   2.569
 2614TIP3    H1 7848   5.419   4.811   2.628
 2614TIP3    H2 7849   5.466   4.679   2.571
 2615TIP3   OH2 7850   2.519   5.392   3.727
 2615TIP3    H1 7851   2.514   5.470   3.671
 2615TIP3    H2 7852   2.465   5.327   3.683
 2616TIP3   OH2 7853   6.307   2.568   4.995
 2616TIP3    H1 7854   6.360   2.632   4.946
 2616TIP3    H2 7855   6.267   2.514   4.927
 2617TIP3   OH2 7856   4.466   1.562   3.891
 2617TIP3    H1 7857   4.507   1.521   3.968
 2617TIP3    H2 7858   4.530   1.549   3.821
 2618TIP3   OH2 7859   3.284   0.852   1.149
 2618TIP3    H1 7860   3.341   0.775   1.141
 2618TIP3    H2 7861   3.300   0.902   1.069
 2619TIP3   OH2 7862   5.711   0.704   1.774
 2619TIP3    H1 7863   5.703   0.616   1.812
 2619TIP3    H2 7864   5.784   0.696   1.712
 2620TIP3   OH2 7865   4.143   1.311   1.557
 2620TIP3    H1 7866   4.140   1.359   1.640
 2620TIP3    H2 7867   4.074   1.245   1.565
 2621TIP3   OH2 7868   4.563   5.286   5.032
 2621TIP3    H1 7869   4.471   5.312   5.039
 2621TIP3    H2 7870   4.606   5.360   4.989
 2622TIP3   OH2 7871   2.680   2.157   1.002
 2622TIP3    H1 7872   2.672   2.249   1.027
 2622TIP3    H2 7873   2.703   2.112   1.083
 2623TIP3   OH2 7874   2.979   1.536   3.350
 2623TIP3    H1 7875   2.937   1.547   3.265
 2623TIP3    H2 7876   2.973   1.442   3.368
 2624TIP3   OH2 7877   6.001   4.038   4.623
 2624TIP3    H1 7878   6.036   4.107   4.679
 2624TIP3    H2 7879   5.946   3.985   4.680
 2625TIP3   OH2 7880   1.398   4.343   0.841
 2625TIP3    H1 7881   1.331   4.411   0.843
 2625TIP3    H2 7882   1.364   4.278   0.779
 2626TIP3   OH2 7883   4.060   0.562   4.388
 2626TIP3    H1 7884   4.002   0.562   4.312
 2626TIP3    H2 7885   4.134   0.616   4.361
 2627TIP3   OH2 7886   6.222   2.656   1.814
 2627TIP3    H1 7887   6.227   2.628   1.905
 2627TIP3    H2 7888   6.251   2.747   1.815
 2628TIP3   OH2 7889   4.160   5.085   5.131
 2628TIP3    H1 7890   4.224   5.014   5.120
 2628TIP3    H2 7891   4.150   5.094   5.226
 2629TIP3   OH2 7892   5.163   4.409   3.360
 2629TIP3    H1 7893   5.098   4.360   3.311
 2629TIP3    H2 7894   5.141   4.393   3.452
 2630TIP3   OH2 7895   5.718   5.465   0.328
 2630TIP3    H1 7896   5.632   5.488   0.293
 2630TIP3    H2 7897   5.702   5.444   0.420
 2631TIP3   OH2 7898   3.881   0.498   0.356
 2631TIP3    H1 7899   3.869   0.405   0.340
 2631TIP3    H2 7900   3.797   0.527   0.392
 2632TIP3   OH2 7901   1.289   5.014   4.438
 2632TIP3    H1 7902   1.366   5.070   4.425
 2632TIP3    H2 7903   1.325   4.926   4.447
 2633TIP3   OH2 7904   0.100   2.604   0.072
 2633TIP3    H1 7905   0.136   2.576   0.156
 2633TIP3    H2 7906   0.011   2.570   0.071
 2634TIP3   OH2 7907   5.210   0.893   0.691
 2634TIP3    H1 7908   5.223   0.942   0.610
 2634TIP3    H2 7909   5.128   0.928   0.726
 2635TIP3   OH2 7910   0.637   2.071   3.993
 2635TIP3    H1 7911   0.689   2.126   4.052
 2635TIP3    H2 7912   0.546   2.089   4.018
 2636TIP3   OH2 7913   5.377   1.658   3.026
 2636TIP3    H1 7914   5.428   1.620   2.954
 2636TIP3    H2 7915   5.323   1.725   2.984
 2637TIP3   OH2 7916   1.316   3.325   4.972
 2637TIP3    H1 7917   1.310   3.330   4.876
 2637TIP3    H2 7918   1.326   3.415   5.000
 2638TIP3   OH2 7919   3.607   4.116   5.175
 2638TIP3    H1 7920   3.544   4.127   5.104
 2638TIP3    H2 7921   3.654   4.035   5.154
 2639TIP3   OH2 7922   5.995   0.399   0.919
 2639TIP3    H1 7923   6.082   0.388   0.958
 2639TIP3    H2 7924   5.958   0.310   0.919
 2640TIP3   OH2 7925   1.839   0.515   0.683
 2640TIP3    H1 7926   1.908   0.514   0.750
 2640TIP3    H2 7927   1.761   0.547   0.730
 2641TIP3   OH2 7928   1.683   5.851   2.537
 2641TIP3    H1 7929   1.778   5.856   2.523
 2641TIP3    H2 7930   1.663   5.758   2.535
 2642TIP3   OH2 7931   4.336   0.712   4.777
 2642TIP3    H1 7932   4.379   0.696   4.693
 2642TIP3    H2 7933   4.327   0.625   4.816
 2643TIP3   OH2 7934   0.243   0.304   4.367
 2643TIP3    H1 7935   0.230   0.299   4.272
 2643TIP3    H2 7936   0.155   0.313   4.403
 2644TIP3   OH2 7937   0.987   0.517   4.606
 2644TIP3    H1 7938   1.063   0.515   4.547
 2644TIP3    H2 7939   1.015   0.571   4.680
 2645TIP3   OH2 7940   2.245   0.153   0.405
 2645TIP3    H1 7941   2.204   0.131   0.489
 2645TIP3    H2 7942   2.174   0.149   0.342
 2646TIP3   OH2 7943   5.723   4.564   4.201
 2646TIP3    H1 7944   5.759   4.498   4.142
 2646TIP3    H2 7945   5.723   4.522   4.287
 2647TIP3   OH2 7946   1.544   0.423   0.143
 2647TIP3    H1 7947   1.626   0.374   0.137
 2647TIP3    H2 7948   1.476   0.357   0.126
 2648TIP3   OH2 7949   1.522   1.724   2.671
 2648TIP3    H1 7950   1.451   1.659   2.672
 2648TIP3    H2 7951   1.574   1.700   2.594
 2649TIP3   OH2 7952   5.749   5.152   5.105
 2649TIP3    H1 7953   5.793   5.144   5.190
 2649TIP3    H2 7954   5.687   5.079   5.103
 2650TIP3   OH2 7955   1.705   4.636   0.800
 2650TIP3    H1 7956   1.788   4.592   0.782
 2650TIP3    H2 7957   1.708   4.716   0.748
 2651TIP3   OH2 7958   5.017   2.393   3.355
 2651TIP3    H1 7959   4.980   2.465   3.303
 2651TIP3    H2 7960   5.112   2.404   3.347
 2652TIP3   OH2 7961   3.024   0.659   3.132
 2652TIP3    H1 7962   2.959   0.600   3.170
 2652TIP3    H2 7963   3.070   0.697   3.207
 2653TIP3   OH2 7964   5.920   1.287   1.281
 2653TIP3    H1 7965   6.014   1.293   1.263
 2653TIP3    H2 7966   5.878   1.303   1.197
 2654TIP3   OH2 7967   3.797   0.314   4.828
 2654TIP3    H1 7968   3.870   0.366   4.861
 2654TIP3    H2 7969   3.741   0.299   4.904
 2655TIP3   OH2 7970   5.228   4.827   1.017
 2655TIP3    H1 7971   5.252   4.735   1.024
 2655TIP3    H2 7972   5.241   4.848   0.925
 2656TIP3   OH2 7973   3.034   5.362   2.449
 2656TIP3    H1 7974   2.943   5.386   2.430
 2656TIP3    H2 7975   3.061   5.309   2.374
 2657TIP3   OH2 7976   4.965   3.848   2.171
 2657TIP3    H1 7977   4.945   3.895   2.090
 2657TIP3    H2 7978   5.053   3.877   2.194
 2658TIP3   OH2 7979   3.078   1.582   1.780
 2658TIP3    H1 7980   3.111   1.654   1.834
 2658TIP3    H2 7981   3.094   1.503   1.832
 2659TIP3   OH2 7982   1.991   1.562   4.647
 2659TIP3    H1 7983   1.911   1.530   4.605
 2659TIP3    H2 7984   2.059   1.501   4.619
 2660TIP3   OH2 7985   4.867   2.825   3.134
 2660TIP3    H1 7986   4.917   2.901   3.164
 2660TIP3    H2 7987   4.821   2.856   3.056
 2661TIP3   OH2 7988   3.474   5.870   1.482
 2661TIP3    H1 7989   3.393   5.879   1.532
 2661TIP3    H2 7990   3.461   5.925   1.405
 2662TIP3   OH2 7991   4.388   3.183   1.668
 2662TIP3    H1 7992   4.461   3.204   1.608
 2662TIP3    H2 7993   4.425   3.196   1.755
 2663TIP3   OH2 7994   5.916   5.860   3.242
 2663TIP3    H1 7995   5.846   5.835   3.182
 2663TIP3    H2 7996   5.870   5.902   3.316
 2664TIP3   OH2 7997   3.576   5.027   0.478
 2664TIP3    H1 7998   3.630   5.012   0.556
 2664TIP3    H2 7999   3.556   4.939   0.445
 2665TIP3   OH2 8000   3.559   3.192   2.471
 2665TIP3    H1 8001   3.639   3.142   2.463
 2665TIP3    H2 8002   3.515   3.155   2.548
 2666TIP3   OH2 8003   2.298   4.059   0.960
 2666TIP3    H1 8004   2.360   4.131   0.973
 2666TIP3    H2 8005   2.349   3.980   0.975
 2667TIP3   OH2 8006   1.524   0.738   1.928
 2667TIP3    H1 8007   1.586   0.804   1.895
 2667TIP3    H2 8008   1.493   0.693   1.850
 2668TIP3   OH2 8009   1.202   3.274   1.444
 2668TIP3    H1 8010   1.154   3.242   1.520
 2668TIP3    H2 8011   1.291   3.240   1.456
 2669TIP3   OH2 8012   3.441   0.391   1.549
 2669TIP3    H1 8013   3.401   0.475   1.530
 2669TIP3    H2 8014   3.447   0.347   1.464
 2670TIP3   OH2 8015   1.321   5.196   3.986
 2670TIP3    H1 8016   1.381   5.240   4.045
 2670TIP3    H2 8017   1.236   5.203   4.028
 2671TIP3   OH2 8018   2.626   4.245   1.689
 2671TIP3    H1 8019   2.609   4.332   1.726
 2671TIP3    H2 8020   2.551   4.192   1.717
 2672TIP3   OH2 8021   4.547   5.618   1.974
 2672TIP3    H1 8022   4.498   5.652   1.899
 2672TIP3    H2 8023   4.604   5.691   2.000
 2673TIP3   OH2 8024   4.511   2.645   1.399
 2673TIP3    H1 8025   4.502   2.670   1.490
 2673TIP3    H2 8026   4.493   2.551   1.398
 2674TIP3   OH2 8027   0.256   5.279   4.129
 2674TIP3    H1 8028   0.283   5.270   4.037
 2674TIP3    H2 8029   0.163   5.256   4.129
 2675TIP3   OH2 8030   3.589   5.567   4.544
 2675TIP3    H1 8031   3.539   5.574   4.463
 2675TIP3    H2 8032   3.524   5.577   4.613
 2676TIP3   OH2 8033   4.157   6.017   0.394
 2676TIP3    H1 8034   4.108   6.053   0.320
 2676TIP3    H2 8035   4.090   5.976   0.448
 2677TIP3   OH2 8036   5.227   1.827   4.336
 2677TIP3    H1 8037   5.238   1.844   4.429
 2677TIP3    H2 8038   5.143   1.782   4.329
 2678TIP3   OH2 8039   0.071   1.113   0.808
 2678TIP3    H1 8040   0.084   1.030   0.763
 2678TIP3    H2 8041   0.105   1.179   0.747
 2679TIP3   OH2 8042   5.484   2.753   2.846
 2679TIP3    H1 8043   5.540   2.818   2.889
 2679TIP3    H2 8044   5.534   2.723   2.771
 2680TIP3   OH2 8045   4.731   4.934   3.232
 2680TIP3    H1 8046   4.683   4.905   3.155
 2680TIP3    H2 8047   4.814   4.967   3.198
 2681TIP3   OH2 8048   5.458   2.376   1.149
 2681TIP3    H1 8049   5.509   2.347   1.074
 2681TIP3    H2 8050   5.426   2.296   1.190
 2682TIP3   OH2 8051   3.022   5.620   3.542
 2682TIP3    H1 8052   3.056   5.650   3.626
 2682TIP3    H2 8053   3.097   5.622   3.483
 2683TIP3   OH2 8054   4.447   5.318   4.696
 2683TIP3    H1 8055   4.538   5.288   4.697
 2683TIP3    H2 8056   4.452   5.413   4.684
 2684TIP3   OH2 8057   3.811   4.752   0.856
 2684TIP3    H1 8058   3.800   4.724   0.948
 2684TIP3    H2 8059   3.786   4.675   0.805
 2685TIP3   OH2 8060   4.999   0.510   0.341
 2685TIP3    H1 8061   5.073   0.458   0.371
 2685TIP3    H2 8062   4.953   0.536   0.421
 2686TIP3   OH2 8063   5.005   1.446   2.625
 2686TIP3    H1 8064   4.986   1.380   2.559
 2686TIP3    H2 8065   5.062   1.509   2.581
 2687TIP3   OH2 8066   3.177   0.254   2.328
 2687TIP3    H1 8067   3.126   0.247   2.247
 2687TIP3    H2 8068   3.251   0.195   2.315
 2688TIP3   OH2 8069   0.970   2.034   1.556
 2688TIP3    H1 8070   0.892   2.084   1.582
 2688TIP3    H2 8071   1.038   2.100   1.546
 2689TIP3   OH2 8072   6.013   4.921   1.038
 2689TIP3    H1 8073   6.057   4.878   1.110
 2689TIP3    H2 8074   5.920   4.916   1.060
 2690TIP3   OH2 8075   1.413   4.756   2.552
 2690TIP3    H1 8076   1.440   4.837   2.509
 2690TIP3    H2 8077   1.337   4.727   2.502
 2691TIP3   OH2 8078   3.430   0.019   2.225
 2691TIP3    H1 8079   3.415   0.042   2.134
 2691TIP3    H2 8080   3.439   0.104   2.269
 2692TIP3   OH2 8081   6.208   5.480   1.628
 2692TIP3    H1 8082   6.198   5.397   1.582
 2692TIP3    H2 8083   6.253   5.458   1.709
 2693TIP3   OH2 8084   2.614   4.499   0.793
 2693TIP3    H1 8085   2.691   4.531   0.745
 2693TIP3    H2 8086   2.598   4.412   0.757
 2694TIP3   OH2 8087   3.868   1.371   4.521
 2694TIP3    H1 8088   3.959   1.342   4.514
 2694TIP3    H2 8089   3.871   1.440   4.588
 2695TIP3   OH2 8090   2.918   3.588   2.492
 2695TIP3    H1 8091   2.946   3.665   2.443
 2695TIP3    H2 8092   2.995   3.531   2.495
 2696TIP3   OH2 8093   2.377   1.849   1.159
 2696TIP3    H1 8094   2.456   1.849   1.106
 2696TIP3    H2 8095   2.409   1.853   1.249
 2697TIP3   OH2 8096   2.846   1.905   1.883
 2697TIP3    H1 8097   2.908   1.832   1.883
 2697TIP3    H2 8098   2.779   1.880   1.819
 2698TIP3   OH2 8099   2.903   5.674   3.268
 2698TIP3    H1 8100   2.842   5.656   3.196
 2698TIP3    H2 8101   2.856   5.646   3.346
 2699TIP3   OH2 8102   5.574   4.101   0.557
 2699TIP3    H1 8103   5.591   4.101   0.462
 2699TIP3    H2 8104   5.661   4.094   0.596
 2700TIP3   OH2 8105   2.163   4.291   1.193
 2700TIP3    H1 8106   2.212   4.363   1.231
 2700TIP3    H2 8107   2.229   4.228   1.166
 2701TIP3   OH2 8108   0.313   1.826   0.210
 2701TIP3    H1 8109   0.332   1.734   0.195
 2701TIP3    H2 8110   0.357   1.872   0.139
 2702TIP3   OH2 8111   0.134   3.312   2.464
 2702TIP3    H1 8112   0.078   3.264   2.525
 2702TIP3    H2 8113   0.110   3.279   2.378
 2703TIP3   OH2 8114   2.726   2.517   4.366
 2703TIP3    H1 8115   2.637   2.534   4.397
 2703TIP3    H2 8116   2.783   2.547   4.438
 2704TIP3   OH2 8117   4.605   5.659   2.815
 2704TIP3    H1 8118   4.582   5.752   2.810
 2704TIP3    H2 8119   4.701   5.658   2.812
 2705TIP3   OH2 8120   5.398   1.720   2.114
 2705TIP3    H1 8121   5.304   1.737   2.109
 2705TIP3    H2 8122   5.432   1.789   2.171
 2706TIP3   OH2 8123   5.551   0.076   4.896
 2706TIP3    H1 8124   5.500   0.004   4.933
 2706TIP3    H2 8125   5.609   0.035   4.833
 2707TIP3   OH2 8126   5.037   5.044   0.311
 2707TIP3    H1 8127   5.099   5.085   0.372
 2707TIP3    H2 8128   4.988   5.118   0.275
 2708TIP3   OH2 8129   4.039   5.675   3.132
 2708TIP3    H1 8130   3.987   5.750   3.104
 2708TIP3    H2 8131   4.048   5.622   3.053
 2709TIP3   OH2 8132   1.643   3.732   4.161
 2709TIP3    H1 8133   1.720   3.691   4.200
 2709TIP3    H2 8134   1.569   3.684   4.199
 2710TIP3   OH2 8135   2.836   3.118   4.503
 2710TIP3    H1 8136   2.929   3.096   4.509
 2710TIP3    H2 8137   2.808   3.130   4.594
 2711TIP3   OH2 8138   2.235   5.793   4.562
 2711TIP3    H1 8139   2.203   5.739   4.490
 2711TIP3    H2 8140   2.326   5.810   4.541
 2712TIP3   OH2 8141   2.313   3.903   0.592
 2712TIP3    H1 8142   2.305   3.964   0.518
 2712TIP3    H2 8143   2.254   3.938   0.658
 2713TIP3   OH2 8144   4.564   0.157   3.496
 2713TIP3    H1 8145   4.585   0.169   3.404
 2713TIP3    H2 8146   4.646   0.132   3.537
 2714TIP3   OH2 8147   3.220   0.732   2.771
 2714TIP3    H1 8148   3.262   0.808   2.729
 2714TIP3    H2 8149   3.292   0.673   2.792
 2715TIP3   OH2 8150   3.844   3.095   4.854
 2715TIP3    H1 8151   3.778   3.145   4.903
 2715TIP3    H2 8152   3.890   3.044   4.921
 2716TIP3   OH2 8153   3.872   4.249   2.112
 2716TIP3    H1 8154   3.861   4.161   2.077
 2716TIP3    H2 8155   3.790   4.267   2.158
 2717TIP3   OH2 8156   4.010   2.677   4.384
 2717TIP3    H1 8157   4.010   2.725   4.302
 2717TIP3    H2 8158   3.952   2.728   4.442
 2718TIP3   OH2 8159   2.122   0.099   0.923
 2718TIP3    H1 8160   2.163   0.184   0.935
 2718TIP3    H2 8161   2.127   0.057   1.009
 2719TIP3   OH2 8162   0.231   3.897   0.573
 2719TIP3    H1 8163   0.281   3.958   0.517
 2719TIP3    H2 8164   0.148   3.942   0.588
 2720TIP3   OH2 8165   3.140   3.373   4.580
 2720TIP3    H1 8166   3.098   3.345   4.661
 2720TIP3    H2 8167   3.183   3.294   4.547
 2721TIP3   OH2 8168   1.809   4.079   2.107
 2721TIP3    H1 8169   1.800   4.050   2.198
 2721TIP3    H2 8170   1.896   4.050   2.081
 2722TIP3   OH2 8171   5.299   2.493   4.834
 2722TIP3    H1 8172   5.273   2.527   4.920
 2722TIP3    H2 8173   5.280   2.399   4.839
 2723TIP3   OH2 8174   5.936   4.534   1.420
 2723TIP3    H1 8175   5.870   4.599   1.443
 2723TIP3    H2 8176   5.888   4.452   1.410
 2724TIP3   OH2 8177   0.419   1.981  -0.001
 2724TIP3    H1 8178   0.469   2.044   0.050
 2724TIP3    H2 8179   0.483   1.944  -0.063
 2725TIP3   OH2 8180   1.956   2.266   2.647
 2725TIP3    H1 8181   1.995   2.271   2.734
 2725TIP3    H2 8182   1.861   2.269   2.662
 2726TIP3   OH2 8183   1.194   1.468   1.420
 2726TIP3    H1 8184   1.244   1.387   1.415
 2726TIP3    H2 8185   1.196   1.503   1.331
 2727TIP3   OH2 8186   3.291   2.911   2.378
 2727TIP3    H1 8187   3.207   2.924   2.421
 2727TIP3    H2 8188   3.331   2.998   2.375
 2728TIP3   OH2 8189   4.593   2.439   2.000
 2728TIP3    H1 8190   4.562   2.350   2.015
 2728TIP3    H2 8191   4.649   2.458   2.075
 2729TIP3   OH2 8192   4.430   2.556   0.416
 2729TIP3    H1 8193   4.516   2.577   0.454
 2729TIP3    H2 8194   4.451   2.516   0.332
 2730TIP3   OH2 8195   5.347   4.101   4.629
 2730TIP3    H1 8196   5.436   4.072   4.608
 2730TIP3    H2 8197   5.360   4.170   4.694
 2731TIP3   OH2 8198   5.605   0.046   0.210
 2731TIP3    H1 8199   5.692   0.075   0.236
 2731TIP3    H2 8200   5.567   0.121   0.164
 2732TIP3   OH2 8201   4.132   4.312   3.933
 2732TIP3    H1 8202   4.083   4.388   3.964
 2732TIP3    H2 8203   4.089   4.287   3.851
 2733TIP3   OH2 8204   4.325   4.768   4.310
 2733TIP3    H1 8205   4.262   4.705   4.346
 2733TIP3    H2 8206   4.410   4.727   4.325
 2734TIP3   OH2 8207   1.550   3.568   0.883
 2734TIP3    H1 8208   1.536   3.522   0.801
 2734TIP3    H2 8209   1.472   3.549   0.935
 2735TIP3   OH2 8210   1.702   5.783   1.305
 2735TIP3    H1 8211   1.749   5.751   1.229
 2735TIP3    H2 8212   1.612   5.798   1.273
 2736TIP3   OH2 8213   1.643   0.395   3.786
 2736TIP3    H1 8214   1.588   0.473   3.797
 2736TIP3    H2 8215   1.649   0.358   3.874
 2737TIP3   OH2 8216   3.220   4.528   1.881
 2737TIP3    H1 8217   3.282   4.568   1.820
 2737TIP3    H2 8218   3.274   4.483   1.946
 2738TIP3   OH2 8219   4.660   1.461   0.182
 2738TIP3    H1 8220   4.657   1.489   0.274
 2738TIP3    H2 8221   4.730   1.514   0.143
 2739TIP3   OH2 8222   5.249   2.233   0.796
 2739TIP3    H1 8223   5.200   2.298   0.847
 2739TIP3    H2 8224   5.315   2.284   0.750
 2740TIP3   OH2 8225   1.878   5.502   3.750
 2740TIP3    H1 8226   1.850   5.550   3.672
 2740TIP3    H2 8227   1.966   5.535   3.768
 2741TIP3   OH2 8228   2.806   0.414   4.746
 2741TIP3    H1 8229   2.891   0.422   4.704
 2741TIP3    H2 8230   2.744   0.405   4.674
 2742TIP3   OH2 8231   1.493   3.991   4.411
 2742TIP3    H1 8232   1.430   4.022   4.346
 2742TIP3    H2 8233   1.458   3.907   4.440
 2743TIP3   OH2 8234   2.609   2.154   1.796
 2743TIP3    H1 8235   2.631   2.244   1.822
 2743TIP3    H2 8236   2.692   2.117   1.765
 2744TIP3   OH2 8237   0.098   0.223   1.173
 2744TIP3    H1 8238   0.143   0.201   1.255
 2744TIP3    H2 8239   0.140   0.167   1.108
 2745TIP3   OH2 8240   2.661   3.637   1.442
 2745TIP3    H1 8241   2.608   3.713   1.415
 2745TIP3    H2 8242   2.612   3.562   1.410
 2746TIP3   OH2 8243   2.463   3.672   3.203
 2746TIP3    H1 8244   2.410   3.702   3.129
 2746TIP3    H2 8245   2.553   3.697   3.180
 2747TIP3   OH2 8246   0.137   4.205   2.016
 2747TIP3    H1 8247   0.045   4.207   1.990
 2747TIP3    H2 8248   0.158   4.297   2.034
 2748TIP3   OH2 8249   2.116   1.452   2.923
 2748TIP3    H1 8250   2.138   1.395   2.849
 2748TIP3    H2 8251   2.021   1.452   2.927
 2749TIP3   OH2 8252   1.576   5.472   0.526
 2749TIP3    H1 8253   1.637   5.412   0.484
 2749TIP3    H2 8254   1.511   5.493   0.458
 2750TIP3   OH2 8255   0.171   2.388   2.904
 2750TIP3    H1 8256   0.209   2.323   2.963
 2750TIP3    H2 8257   0.107   2.339   2.852
 2751TIP3   OH2 8258   3.359   1.310   0.777
 2751TIP3    H1 8259   3.291   1.262   0.823
 2751TIP3    H2 8260   3.332   1.401   0.783
 2752TIP3   OH2 8261   2.356   0.022   1.517
 2752TIP3    H1 8262   2.374   0.106   1.474
 2752TIP3    H2 8263   2.372   0.039   1.610
 2753TIP3   OH2 8264   4.549   0.062   4.010
 2753TIP3    H1 8265   4.458   0.048   3.985
 2753TIP3    H2 8266   4.567   0.154   3.989
 2754TIP3   OH2 8267   0.855   2.469   3.298
 2754TIP3    H1 8268   0.791   2.421   3.245
 2754TIP3    H2 8269   0.899   2.402   3.350
 2755TIP3   OH2 8270   4.168   5.994   4.123
 2755TIP3    H1 8271   4.078   6.004   4.154
 2755TIP3    H2 8272   4.190   5.903   4.142
 2756TIP3   OH2 8273   2.658   4.402   0.197
 2756TIP3    H1 8274   2.667   4.492   0.227
 2756TIP3    H2 8275   2.565   4.384   0.202
 2757TIP3   OH2 8276  -0.009   2.213   1.265
 2757TIP3    H1 8277  -0.005   2.122   1.296
 2757TIP3    H2 8278   0.079   2.230   1.231
 2758TIP3   OH2 8279   0.649   5.846   5.153
 2758TIP3    H1 8280   0.680   5.833   5.243
 2758TIP3    H2 8281   0.651   5.758   5.114
 2759TIP3   OH2 8282   2.697   3.502   0.282
 2759TIP3    H1 8283   2.641   3.509   0.359
 2759TIP3    H2 8284   2.751   3.424   0.299
 2760TIP3   OH2 8285   5.409   3.851   0.318
 2760TIP3    H1 8286   5.398   3.881   0.408
 2760TIP3    H2 8287   5.393   3.929   0.265
 2761TIP3   OH2 8288   3.495   1.662   0.220
 2761TIP3    H1 8289   3.429   1.724   0.252
 2761TIP3    H2 8290   3.535   1.627   0.299
 2762TIP3   OH2 8291   0.678   0.721   1.116
 2762TIP3    H1 8292   0.745   0.780   1.149
 2762TIP3    H2 8293   0.620   0.777   1.065
 2763TIP3   OH2 8294   0.453   0.825   4.729
 2763TIP3    H1 8295   0.511   0.875   4.671
 2763TIP3    H2 8296   0.387   0.888   4.757
 2764TIP3   OH2 8297   3.174   1.163   0.295
 2764TIP3    H1 8298   3.152   1.170   0.202
 2764TIP3    H2 8299   3.186   1.069   0.310
 2765TIP3   OH2 8300   1.319   5.338   2.399
 2765TIP3    H1 8301   1.274   5.422   2.410
 2765TIP3    H2 8302   1.379   5.353   2.325
 2766TIP3   OH2 8303   2.874   0.491   1.107
 2766TIP3    H1 8304   2.780   0.496   1.122
 2766TIP3    H2 8305   2.903   0.583   1.108
 2767TIP3   OH2 8306   1.804   3.734   2.622
 2767TIP3    H1 8307   1.806   3.773   2.534
 2767TIP3    H2 8308   1.746   3.792   2.671
 2768TIP3   OH2 8309   4.610   2.110   2.096
 2768TIP3    H1 8310   4.604   2.076   2.007
 2768TIP3    H2 8311   4.703   2.129   2.108
 2769TIP3   OH2 8312   2.328   4.926   3.835
 2769TIP3    H1 8313   2.333   4.831   3.822
 2769TIP3    H2 8314   2.387   4.962   3.769
 2770TIP3   OH2 8315   2.057   5.470   1.224
 2770TIP3    H1 8316   2.008   5.494   1.302
 2770TIP3    H2 8317   2.147   5.498   1.242
 2771TIP3   OH2 8318   2.707   4.678   0.370
 2771TIP3    H1 8319   2.625   4.650   0.411
 2771TIP3    H2 8320   2.770   4.684   0.443
 2772TIP3   OH2 8321   6.081   2.578   4.698
 2772TIP3    H1 8322   6.172   2.575   4.670
 2772TIP3    H2 8323   6.037   2.633   4.632
 2773TIP3   OH2 8324   0.482   1.416   4.239
 2773TIP3    H1 8325   0.472   1.442   4.331
 2773TIP3    H2 8326   0.433   1.334   4.232
 2774TIP3   OH2 8327   1.611   4.750   1.829
 2774TIP3    H1 8328   1.558   4.791   1.761
 2774TIP3    H2 8329   1.677   4.699   1.782
 2775TIP3   OH2 8330   4.234   4.367   5.042
 2775TIP3    H1 8331   4.323   4.390   5.016
 2775TIP3    H2 8332   4.245   4.300   5.110
 2776TIP3   OH2 8333   2.427   3.178   0.134
 2776TIP3    H1 8334   2.430   3.127   0.053
 2776TIP3    H2 8335   2.364   3.133   0.190
 2777TIP3   OH2 8336   5.158   1.384   4.438
 2777TIP3    H1 8337   5.184   1.299   4.473
 2777TIP3    H2 8338   5.241   1.425   4.411
 2778TIP3   OH2 8339   4.529   4.730   1.975
 2778TIP3    H1 8340   4.605   4.787   1.990
 2778TIP3    H2 8341   4.519   4.728   1.880
 2779TIP3   OH2 8342   0.816   0.752   0.644
 2779TIP3    H1 8343   0.743   0.740   0.583
 2779TIP3    H2 8344   0.891   0.768   0.588
 2780TIP3   OH2 8345   5.139   5.270   3.878
 2780TIP3    H1 8346   5.157   5.312   3.962
 2780TIP3    H2 8347   5.128   5.177   3.899
 2781TIP3   OH2 8348   2.147   1.042   2.329
 2781TIP3    H1 8349   2.074   1.066   2.386
 2781TIP3    H2 8350   2.107   0.993   2.258
 2782TIP3   OH2 8351   5.586   5.735   3.568
 2782TIP3    H1 8352   5.601   5.814   3.515
 2782TIP3    H2 8353   5.497   5.745   3.600
 2783TIP3   OH2 8354   1.203   1.732   4.332
 2783TIP3    H1 8355   1.228   1.654   4.381
 2783TIP3    H2 8356   1.107   1.735   4.340
 2784TIP3   OH2 8357   5.380   5.853   0.592
 2784TIP3    H1 8358   5.384   5.831   0.685
 2784TIP3    H2 8359   5.327   5.784   0.552
 2785TIP3   OH2 8360   2.808   0.596   4.929
 2785TIP3    H1 8361   2.818   0.510   4.888
 2785TIP3    H2 8362   2.769   0.651   4.861
 2786TIP3   OH2 8363   4.566   0.397   3.689
 2786TIP3    H1 8364   4.544   0.462   3.622
 2786TIP3    H2 8365   4.590   0.319   3.640
 2787TIP3   OH2 8366   5.001   3.592   1.888
 2787TIP3    H1 8367   5.076   3.651   1.876
 2787TIP3    H2 8368   4.926   3.643   1.857
 2788TIP3   OH2 8369   1.972   3.295   2.719
 2788TIP3    H1 8370   1.986   3.246   2.800
 2788TIP3    H2 8371   1.912   3.365   2.744
 2789TIP3   OH2 8372   1.494   3.597   4.915
 2789TIP3    H1 8373   1.564   3.582   4.852
 2789TIP3    H2 8374   1.414   3.595   4.863
 2790TIP3   OH2 8375   2.810   2.138   3.101
 2790TIP3    H1 8376   2.813   2.114   3.194
 2790TIP3    H2 8377   2.722   2.114   3.072
 2791TIP3   OH2 8378   4.351   5.457   3.473
 2791TIP3    H1 8379   4.294   5.394   3.518
 2791TIP3    H2 8380   4.372   5.414   3.390
 2792TIP3   OH2 8381   6.272   0.858   0.801
 2792TIP3    H1 8382   6.220   0.935   0.825
 2792TIP3    H2 8383   6.220   0.784   0.832
 2793TIP3   OH2 8384   2.655   1.302   4.979
 2793TIP3    H1 8385   2.644   1.390   4.942
 2793TIP3    H2 8386   2.725   1.311   5.043
 2794TIP3   OH2 8387   6.011   1.451   1.886
 2794TIP3    H1 8388   5.971   1.372   1.924
 2794TIP3    H2 8389   5.937   1.498   1.848
 2795TIP3   OH2 8390   4.821   5.500   0.683
 2795TIP3    H1 8391   4.827   5.495   0.588
 2795TIP3    H2 8392   4.730   5.476   0.702
 2796TIP3   OH2 8393   5.578   3.297   4.068
 2796TIP3    H1 8394   5.555   3.347   3.989
 2796TIP3    H2 8395   5.666   3.328   4.090
 2797TIP3   OH2 8396   3.848   3.419   3.106
 2797TIP3    H1 8397   3.803   3.457   3.182
 2797TIP3    H2 8398   3.886   3.495   3.061
 2798TIP3   OH2 8399   6.254   0.576   4.219
 2798TIP3    H1 8400   6.247   0.482   4.203
 2798TIP3    H2 8401   6.313   0.608   4.151
 2799TIP3   OH2 8402   2.010   2.462   1.555
 2799TIP3    H1 8403   1.955   2.540   1.549
 2799TIP3    H2 8404   2.099   2.494   1.539
 2800TIP3   OH2 8405   5.212   1.924   1.134
 2800TIP3    H1 8406   5.137   1.879   1.095
 2800TIP3    H2 8407   5.261   1.958   1.059
 2801TIP3   OH2 8408   2.825   5.734   2.565
 2801TIP3    H1 8409   2.900   5.716   2.509
 2801TIP3    H2 8410   2.862   5.767   2.646
 2802TIP3   OH2 8411   5.483   0.360   3.321
 2802TIP3    H1 8412   5.498   0.302   3.396
 2802TIP3    H2 8413   5.402   0.327   3.281
 2803TIP3   OH2 8414   3.307   2.560   4.142
 2803TIP3    H1 8415   3.232   2.577   4.084
 2803TIP3    H2 8416   3.331   2.470   4.124
 2804TIP3   OH2 8417   4.429   5.394   2.078
 2804TIP3    H1 8418   4.387   5.472   2.114
 2804TIP3    H2 8419   4.514   5.424   2.046
 2805TIP3   OH2 8420   1.122   5.539   1.054
 2805TIP3    H1 8421   1.154   5.597   0.985
 2805TIP3    H2 8422   1.188   5.546   1.123
 2806TIP3   OH2 8423   3.867   1.455   2.314
 2806TIP3    H1 8424   3.845   1.539   2.354
 2806TIP3    H2 8425   3.869   1.474   2.220
 2807TIP3   OH2 8426   2.253   5.169   1.056
 2807TIP3    H1 8427   2.236   5.075   1.054
 2807TIP3    H2 8428   2.269   5.193   0.965
 2808TIP3   OH2 8429   1.300   2.067   4.630
 2808TIP3    H1 8430   1.313   2.015   4.709
 2808TIP3    H2 8431   1.228   2.126   4.651
 2809TIP3   OH2 8432   0.410   2.290   4.533
 2809TIP3    H1 8433   0.350   2.364   4.527
 2809TIP3    H2 8434   0.453   2.301   4.618
 2810TIP3   OH2 8435   2.709   5.285   5.016
 2810TIP3    H1 8436   2.649   5.358   5.030
 2810TIP3    H2 8437   2.758   5.278   5.098
 2811TIP3   OH2 8438   1.782   2.821   4.407
 2811TIP3    H1 8439   1.833   2.876   4.466
 2811TIP3    H2 8440   1.847   2.775   4.354
 2812TIP3   OH2 8441   0.061   3.885   4.047
 2812TIP3    H1 8442   0.090   3.803   4.086
 2812TIP3    H2 8443  -0.029   3.867   4.018
 2813TIP3   OH2 8444   3.042   3.315   1.500
 2813TIP3    H1 8445   2.983   3.329   1.425
 2813TIP3    H2 8446   2.993   3.256   1.557
 2814TIP3   OH2 8447   3.695   0.671   1.606
 2814TIP3    H1 8448   3.755   0.596   1.602
 2814TIP3    H2 8449   3.628   0.644   1.669
 2815TIP3   OH2 8450   3.380   1.203   0.459
 2815TIP3    H1 8451   3.368   1.297   0.473
 2815TIP3    H2 8452   3.300   1.175   0.414
 2816TIP3   OH2 8453   2.968   3.405   4.142
 2816TIP3    H1 8454   2.899   3.407   4.076
 2816TIP3    H2 8455   2.984   3.312   4.157
 2817TIP3   OH2 8456   4.227   2.212   2.920
 2817TIP3    H1 8457   4.189   2.288   2.875
 2817TIP3    H2 8458   4.235   2.240   3.011
 2818TIP3   OH2 8459   2.858   4.374   4.233
 2818TIP3    H1 8460   2.814   4.405   4.312
 2818TIP3    H2 8461   2.924   4.311   4.264
 2819TIP3   OH2 8462   0.383   3.699   0.710
 2819TIP3    H1 8463   0.341   3.747   0.640
 2819TIP3    H2 8464   0.476   3.722   0.704
 2820TIP3   OH2 8465   6.147   1.218   0.737
 2820TIP3    H1 8466   6.184   1.306   0.741
 2820TIP3    H2 8467   6.197   1.168   0.802
 2821TIP3   OH2 8468   2.750   2.686   0.245
 2821TIP3    H1 8469   2.795   2.765   0.216
 2821TIP3    H2 8470   2.697   2.715   0.320
 2822TIP3   OH2 8471   2.171   3.460   4.044
 2822TIP3    H1 8472   2.166   3.555   4.038
 2822TIP3    H2 8473   2.234   3.435   3.977
 2823TIP3   OH2 8474   0.987   4.744   4.541
 2823TIP3    H1 8475   1.010   4.837   4.538
 2823TIP3    H2 8476   0.891   4.743   4.548
 2824TIP3   OH2 8477   1.684   5.819   1.591
 2824TIP3    H1 8478   1.695   5.818   1.496
 2824TIP3    H2 8479   1.763   5.862   1.624
 2825TIP3   OH2 8480   1.961   1.436   1.573
 2825TIP3    H1 8481   2.032   1.432   1.509
 2825TIP3    H2 8482   1.899   1.498   1.535
 2826TIP3   OH2 8483   0.094   1.137   1.117
 2826TIP3    H1 8484   0.142   1.140   1.034
 2826TIP3    H2 8485   0.161   1.142   1.185
 2827TIP3   OH2 8486   3.250   5.775   2.551
 2827TIP3    H1 8487   3.339   5.810   2.544
 2827TIP3    H2 8488   3.262   5.681   2.561
 2828TIP3   OH2 8489   5.356   3.197   1.417
 2828TIP3    H1 8490   5.410   3.270   1.388
 2828TIP3    H2 8491   5.292   3.185   1.347
 2829TIP3   OH2 8492   3.763   3.684   1.418
 2829TIP3    H1 8493   3.688   3.728   1.459
 2829TIP3    H2 8494   3.801   3.751   1.360
 2830TIP3   OH2 8495   4.319   1.390   2.510
 2830TIP3    H1 8496   4.249   1.453   2.495
 2830TIP3    H2 8497   4.313   1.330   2.436
 2831TIP3   OH2 8498   5.020   4.097   4.945
 2831TIP3    H1 8499   5.013   4.007   4.914
 2831TIP3    H2 8500   4.987   4.150   4.872
 2832TIP3   OH2 8501   1.287   0.430   3.361
 2832TIP3    H1 8502   1.341   0.508   3.348
 2832TIP3    H2 8503   1.226   0.431   3.287
 2833TIP3   OH2 8504   5.794   1.976   4.745
 2833TIP3    H1 8505   5.750   2.027   4.677
 2833TIP3    H2 8506   5.829   1.900   4.699
 2834TIP3   OH2 8507   4.065   0.948   5.026
 2834TIP3    H1 8508   3.973   0.930   5.042
 2834TIP3    H2 8509   4.112   0.880   5.075
 2835TIP3   OH2 8510   5.768   5.118   1.824
 2835TIP3    H1 8511   5.739   5.058   1.755
 2835TIP3    H2 8512   5.791   5.062   1.898
 2836TIP3   OH2 8513   0.762   5.268   1.895
 2836TIP3    H1 8514   0.768   5.187   1.945
 2836TIP3    H2 8515   0.809   5.332   1.948
 2837TIP3   OH2 8516   5.575   1.013   4.056
 2837TIP3    H1 8517   5.512   1.084   4.069
 2837TIP3    H2 8518   5.566   0.990   3.964
 2838TIP3   OH2 8519   0.958   0.446   3.284
 2838TIP3    H1 8520   1.029   0.509   3.293
 2838TIP3    H2 8521   0.893   0.490   3.229
 2839TIP3   OH2 8522   4.193   5.302   3.608
 2839TIP3    H1 8523   4.104   5.318   3.639
 2839TIP3    H2 8524   4.200   5.206   3.605
 2840TIP3   OH2 8525   3.307   1.491   4.734
 2840TIP3    H1 8526   3.246   1.476   4.661
 2840TIP3    H2 8527   3.354   1.409   4.743
 2841TIP3   OH2 8528   1.766   2.300   1.406
 2841TIP3    H1 8529   1.677   2.274   1.431
 2841TIP3    H2 8530   1.765   2.395   1.409
 2842TIP3   OH2 8531   5.714   1.211   0.782
 2842TIP3    H1 8532   5.642   1.150   0.762
 2842TIP3    H2 8533   5.774   1.203   0.708
 2843TIP3   OH2 8534   0.562   4.610   1.576
 2843TIP3    H1 8535   0.497   4.668   1.536
 2843TIP3    H2 8536   0.598   4.662   1.648
 2844TIP3   OH2 8537   3.145   0.885   0.869
 2844TIP3    H1 8538   3.174   0.959   0.816
 2844TIP3    H2 8539   3.076   0.920   0.924
 2845TIP3   OH2 8540   1.851   3.326   0.315
 2845TIP3    H1 8541   1.814   3.245   0.353
 2845TIP3    H2 8542   1.862   3.384   0.390
 2846TIP3   OH2 8543   0.558   5.548   2.504
 2846TIP3    H1 8544   0.509   5.514   2.579
 2846TIP3    H2 8545   0.642   5.502   2.508
 2847TIP3   OH2 8546   5.256   3.159   3.182
 2847TIP3    H1 8547   5.232   3.230   3.242
 2847TIP3    H2 8548   5.250   3.198   3.095
 2848TIP3   OH2 8549   3.234   0.361   2.002
 2848TIP3    H1 8550   3.155   0.400   2.040
 2848TIP3    H2 8551   3.214   0.356   1.908
 2849TIP3   OH2 8552   4.764   2.044   0.176
 2849TIP3    H1 8553   4.839   2.098   0.202
 2849TIP3    H2 8554   4.760   1.976   0.244
 2850TIP3   OH2 8555   4.636   1.627   3.028
 2850TIP3    H1 8556   4.645   1.720   3.047
 2850TIP3    H2 8557   4.542   1.611   3.028
 2851TIP3   OH2 8558   0.260   4.955   0.307
 2851TIP3    H1 8559   0.191   4.933   0.369
 2851TIP3    H2 8560   0.279   5.047   0.323
 2852TIP3   OH2 8561   3.834   3.986   2.534
 2852TIP3    H1 8562   3.760   4.036   2.568
 2852TIP3    H2 8563   3.803   3.951   2.450
 2853TIP3   OH2 8564   3.427   1.941   1.677
 2853TIP3    H1 8565   3.419   1.999   1.601
 2853TIP3    H2 8566   3.338   1.935   1.713
 2854TIP3   OH2 8567   1.575   0.885   0.210
 2854TIP3    H1 8568   1.531   0.970   0.202
 2854TIP3    H2 8569   1.595   0.860   0.120
 2855TIP3   OH2 8570   5.634   1.890   2.950
 2855TIP3    H1 8571   5.582   1.864   2.874
 2855TIP3    H2 8572   5.705   1.825   2.954
 2856TIP3   OH2 8573   0.461   0.790   2.791
 2856TIP3    H1 8574   0.481   0.769   2.700
 2856TIP3    H2 8575   0.392   0.857   2.785
 2857TIP3   OH2 8576   0.139   3.865   3.754
 2857TIP3    H1 8577   0.135   3.902   3.842
 2857TIP3    H2 8578   0.152   3.771   3.768
 2858TIP3   OH2 8579   4.627   5.161   3.434
 2858TIP3    H1 8580   4.651   5.238   3.381
 2858TIP3    H2 8581   4.553   5.122   3.388
 2859TIP3   OH2 8582   1.837   0.786   1.071
 2859TIP3    H1 8583   1.783   0.826   1.138
 2859TIP3    H2 8584   1.893   0.857   1.039
 2860TIP3   OH2 8585   5.510   5.563   3.304
 2860TIP3    H1 8586   5.509   5.482   3.254
 2860TIP3    H2 8587   5.601   5.573   3.332
 2861TIP3   OH2 8588   2.742   3.209   2.740
 2861TIP3    H1 8589   2.801   3.274   2.779
 2861TIP3    H2 8590   2.677   3.192   2.809
 2862TIP3   OH2 8591   4.677   1.523   3.694
 2862TIP3    H1 8592   4.770   1.500   3.693
 2862TIP3    H2 8593   4.633   1.449   3.652
 2863TIP3   OH2 8594   4.723   4.022   4.731
 2863TIP3    H1 8595   4.734   4.057   4.642
 2863TIP3    H2 8596   4.721   3.927   4.719
 2864TIP3   OH2 8597   1.686   1.856   2.034
 2864TIP3    H1 8598   1.753   1.923   2.021
 2864TIP3    H2 8599   1.620   1.876   1.968
 2865TIP3   OH2 8600   5.625   1.664   4.980
 2865TIP3    H1 8601   5.582   1.742   5.013
 2865TIP3    H2 8602   5.586   1.592   5.031
 2866TIP3   OH2 8603   1.512   1.606   2.139
 2866TIP3    H1 8604   1.553   1.520   2.130
 2866TIP3    H2 8605   1.578   1.668   2.107
 2867TIP3   OH2 8606   3.240   2.798   5.012
 2867TIP3    H1 8607   3.198   2.774   4.929
 2867TIP3    H2 8608   3.212   2.730   5.074
 2868TIP3   OH2 8609   2.132   4.640   2.182
 2868TIP3    H1 8610   2.079   4.606   2.254
 2868TIP3    H2 8611   2.215   4.593   2.189
 2869TIP3   OH2 8612   5.752   3.933   1.039
 2869TIP3    H1 8613   5.805   3.859   1.009
 2869TIP3    H2 8614   5.814   4.005   1.047
 2870TIP3   OH2 8615   3.273   0.634   4.608
 2870TIP3    H1 8616   3.357   0.599   4.639
 2870TIP3    H2 8617   3.267   0.720   4.650
 2871TIP3   OH2 8618   5.531   1.540   0.091
 2871TIP3    H1 8619   5.555   1.631   0.074
 2871TIP3    H2 8620   5.436   1.541   0.095
 2872TIP3   OH2 8621   5.621   5.410   2.662
 2872TIP3    H1 8622   5.622   5.457   2.745
 2872TIP3    H2 8623   5.668   5.468   2.601
 2873TIP3   OH2 8624   5.073   1.676   2.104
 2873TIP3    H1 8625   5.062   1.624   2.184
 2873TIP3    H2 8626   5.016   1.751   2.117
 2874TIP3   OH2 8627   4.338   4.864   0.290
 2874TIP3    H1 8628   4.339   4.801   0.363
 2874TIP3    H2 8629   4.277   4.932   0.319
 2875TIP3   OH2 8630   2.171   5.106   3.958
 2875TIP3    H1 8631   2.232   5.037   3.933
 2875TIP3    H2 8632   2.203   5.137   4.043
 2876TIP3   OH2 8633   3.196   5.948   3.559
 2876TIP3    H1 8634   3.125   6.007   3.584
 2876TIP3    H2 8635   3.170   5.913   3.474
 2877TIP3   OH2 8636   3.631   3.042   2.929
 2877TIP3    H1 8637   3.588   2.988   2.995
 2877TIP3    H2 8638   3.724   3.021   2.937
 2878TIP3   OH2 8639   3.223   0.181   3.815
 2878TIP3    H1 8640   3.318   0.195   3.808
 2878TIP3    H2 8641   3.197   0.230   3.893
 2879TIP3   OH2 8642   4.182   5.515   0.297
 2879TIP3    H1 8643   4.093   5.496   0.328
 2879TIP3    H2 8644   4.171   5.541   0.206
 2880TIP3   OH2 8645   5.312   1.035   0.224
 2880TIP3    H1 8646   5.395   1.077   0.201
 2880TIP3    H2 8647   5.318   0.948   0.184
 2881TIP3   OH2 8648   2.172   2.968   0.547
 2881TIP3    H1 8649   2.209   2.919   0.620
 2881TIP3    H2 8650   2.086   2.996   0.578
 2882TIP3   OH2 8651   6.332   5.416   3.478
 2882TIP3    H1 8652   6.317   5.511   3.485
 2882TIP3    H2 8653   6.290   5.391   3.396
 2883TIP3   OH2 8654   6.184   0.895  -0.035
 2883TIP3    H1 8655   6.167   0.970   0.022
 2883TIP3    H2 8656   6.255   0.848   0.009
 2884TIP3   OH2 8657   1.997   0.683   2.888
 2884TIP3    H1 8658   2.087   0.696   2.856
 2884TIP3    H2 8659   2.007   0.637   2.971
 2885TIP3   OH2 8660   2.993   1.351   3.656
 2885TIP3    H1 8661   3.051   1.296   3.708
 2885TIP3    H2 8662   2.994   1.311   3.569
 2886TIP3   OH2 8663   1.618   1.779   4.929
 2886TIP3    H1 8664   1.638   1.860   4.883
 2886TIP3    H2 8665   1.548   1.739   4.878
 2887TIP3   OH2 8666   6.029   1.948   2.580
 2887TIP3    H1 8667   6.031   1.995   2.663
 2887TIP3    H2 8668   5.939   1.915   2.573
 2888TIP3   OH2 8669   4.695   1.338   3.082
 2888TIP3    H1 8670   4.786   1.322   3.055
 2888TIP3    H2 8671   4.686   1.434   3.078
 2889TIP3   OH2 8672   4.106   0.931   0.772
 2889TIP3    H1 8673   4.075   0.885   0.850
 2889TIP3    H2 8674   4.026   0.963   0.729
 2890TIP3   OH2 8675   2.998   4.443   2.839
 2890TIP3    H1 8676   3.000   4.462   2.933
 2890TIP3    H2 8677   3.081   4.397   2.822
 2891TIP3   OH2 8678   0.869   2.702   2.673
 2891TIP3    H1 8679   0.919   2.620   2.679
 2891TIP3    H2 8680   0.849   2.710   2.580
 2892TIP3   OH2 8681   0.635   3.069   4.195
 2892TIP3    H1 8682   0.543   3.047   4.206
 2892TIP3    H2 8683   0.636   3.138   4.129
 2893TIP3   OH2 8684   3.494   5.165   4.766
 2893TIP3    H1 8685   3.542   5.248   4.760
 2893TIP3    H2 8686   3.557   5.104   4.805
 2894TIP3   OH2 8687   4.437   5.955   3.715
 2894TIP3    H1 8688   4.407   5.878   3.667
 2894TIP3    H2 8689   4.532   5.949   3.713
 2895TIP3   OH2 8690   5.357   4.239   3.555
 2895TIP3    H1 8691   5.436   4.272   3.512
 2895TIP3    H2 8692   5.324   4.313   3.605
 2896TIP3   OH2 8693   3.805   2.980   0.673
 2896TIP3    H1 8694   3.887   3.002   0.717
 2896TIP3    H2 8695   3.737   2.997   0.739
 2897TIP3   OH2 8696   4.018   5.752   2.257
 2897TIP3    H1 8697   3.977   5.777   2.175
 2897TIP3    H2 8698   4.049   5.835   2.295
 2898TIP3   OH2 8699   2.102   4.953   4.519
 2898TIP3    H1 8700   2.122   5.005   4.597
 2898TIP3    H2 8701   2.182   4.901   4.505
 2899TIP3   OH2 8702   2.262   4.056   4.043
 2899TIP3    H1 8703   2.252   4.031   3.951
 2899TIP3    H2 8704   2.342   4.012   4.072
 2900TIP3   OH2 8705   5.788   0.123   0.858
 2900TIP3    H1 8706   5.739   0.160   0.932
 2900TIP3    H2 8707   5.791   0.193   0.794
 2901TIP3   OH2 8708   2.744   0.723   5.160
 2901TIP3    H1 8709   2.771   0.691   5.074
 2901TIP3    H2 8710   2.729   0.643   5.212
 2902TIP3   OH2 8711   5.690   3.901   4.036
 2902TIP3    H1 8712   5.712   3.872   4.125
 2902TIP3    H2 8713   5.599   3.930   4.042
 2903TIP3   OH2 8714   6.248   3.198   4.283
 2903TIP3    H1 8715   6.316   3.140   4.318
 2903TIP3    H2 8716   6.167   3.168   4.324
 2904TIP3   OH2 8717   0.590   0.502   0.344
 2904TIP3    H1 8718   0.577   0.408   0.357
 2904TIP3    H2 8719   0.668   0.508   0.289
 2905TIP3   OH2 8720   5.769   1.602   4.745
 2905TIP3    H1 8721   5.804   1.515   4.765
 2905TIP3    H2 8722   5.726   1.630   4.827
 2906TIP3   OH2 8723   1.730   2.702   0.770
 2906TIP3    H1 8724   1.653   2.663   0.812
 2906TIP3    H2 8725   1.722   2.796   0.787
 2907TIP3   OH2 8726   0.207   3.619   0.964
 2907TIP3    H1 8727   0.238   3.656   0.881
 2907TIP3    H2 8728   0.215   3.525   0.953
 2908TIP3   OH2 8729   3.102   3.625   0.445
 2908TIP3    H1 8730   3.028   3.598   0.500
 2908TIP3    H2 8731   3.063   3.674   0.374
 2909TIP3   OH2 8732   3.285   2.341   1.567
 2909TIP3    H1 8733   3.228   2.362   1.641
 2909TIP3    H2 8734   3.351   2.282   1.604
 2910TIP3   OH2 8735   3.830   4.437   2.460
 2910TIP3    H1 8736   3.795   4.368   2.404
 2910TIP3    H2 8737   3.884   4.391   2.524
 2911TIP3   OH2 8738   6.186   2.895   4.170
 2911TIP3    H1 8739   6.148   2.950   4.238
 2911TIP3    H2 8740   6.281   2.911   4.176
 2912TIP3   OH2 8741   1.383   2.626   1.514
 2912TIP3    H1 8742   1.305   2.680   1.499
 2912TIP3    H2 8743   1.408   2.644   1.604
 2913TIP3   OH2 8744   5.925   3.955   0.745
 2913TIP3    H1 8745   5.923   3.866   0.710
 2913TIP3    H2 8746   5.900   3.945   0.837
 2914TIP3   OH2 8747   5.762   5.568   1.997
 2914TIP3    H1 8748   5.705   5.510   1.947
 2914TIP3    H2 8749   5.709   5.596   2.072
 2915TIP3   OH2 8750   1.989   3.976   4.065
 2915TIP3    H1 8751   2.081   3.997   4.050
 2915TIP3    H2 8752   1.945   4.005   3.986
 2916TIP3   OH2 8753   2.596   3.928   0.632
 2916TIP3    H1 8754   2.502   3.915   0.621
 2916TIP3    H2 8755   2.604   4.013   0.673
 2917TIP3   OH2 8756   1.111   0.514   3.556
 2917TIP3    H1 8757   1.093   0.537   3.647
 2917TIP3    H2 8758   1.205   0.528   3.545
 2918TIP3   OH2 8759   5.939   2.538   3.223
 2918TIP3    H1 8760   6.007   2.574   3.280
 2918TIP3    H2 8761   5.939   2.445   3.242
 2919TIP3   OH2 8762   6.189   0.101   1.021
 2919TIP3    H1 8763   6.211   0.185   1.060
 2919TIP3    H2 8764   6.225   0.106   0.932
 2920TIP3   OH2 8765   5.192   2.471   2.285
 2920TIP3    H1 8766   5.168   2.437   2.199
 2920TIP3    H2 8767   5.240   2.552   2.267
 2921TIP3   OH2 8768   2.149   4.304   4.566
 2921TIP3    H1 8769   2.198   4.251   4.503
 2921TIP3    H2 8770   2.214   4.363   4.604
 2922TIP3   OH2 8771   3.821   3.556   2.860
 2922TIP3    H1 8772   3.776   3.501   2.797
 2922TIP3    H2 8773   3.851   3.632   2.809
 2923TIP3   OH2 8774   0.830   0.700   3.219
 2923TIP3    H1 8775   0.735   0.686   3.219
 2923TIP3    H2 8776   0.843   0.782   3.266
 2924TIP3   OH2 8777   0.471   0.819   0.951
 2924TIP3    H1 8778   0.383   0.780   0.945
 2924TIP3    H2 8779   0.487   0.855   0.864
 2925TIP3   OH2 8780   6.026   5.154   3.233
 2925TIP3    H1 8781   6.045   5.184   3.144
 2925TIP3    H2 8782   6.068   5.219   3.289
 2926TIP3   OH2 8783   5.281   4.379   1.549
 2926TIP3    H1 8784   5.188   4.371   1.571
 2926TIP3    H2 8785   5.321   4.421   1.625
 2927TIP3   OH2 8786   2.128   1.307   2.233
 2927TIP3    H1 8787   2.041   1.268   2.226
 2927TIP3    H2 8788   2.181   1.240   2.278
 2928TIP3   OH2 8789   3.643   4.858   4.682
 2928TIP3    H1 8790   3.687   4.892   4.760
 2928TIP3    H2 8791   3.665   4.920   4.613
 2929TIP3   OH2 8792   3.669   4.233   2.308
 2929TIP3    H1 8793   3.706   4.145   2.308
 2929TIP3    H2 8794   3.590   4.226   2.362
 2930TIP3   OH2 8795   4.637   0.975   1.166
 2930TIP3    H1 8796   4.731   0.959   1.157
 2930TIP3    H2 8797   4.611   1.010   1.080
 2931TIP3   OH2 8798   2.986   1.311   4.854
 2931TIP3    H1 8799   3.033   1.387   4.886
 2931TIP3    H2 8800   3.006   1.242   4.916
 2932TIP3   OH2 8801   1.987   3.190   0.865
 2932TIP3    H1 8802   1.980   3.095   0.856
 2932TIP3    H2 8803   1.928   3.224   0.798
 2933TIP3   OH2 8804   2.574   1.214   3.852
 2933TIP3    H1 8805   2.483   1.233   3.834
 2933TIP3    H2 8806   2.592   1.256   3.936
 2934TIP3   OH2 8807   1.751   0.062   4.088
 2934TIP3    H1 8808   1.757   0.005   4.012
 2934TIP3    H2 8809   1.837   0.057   4.129
 2935TIP3   OH2 8810   2.213   4.700   0.187
 2935TIP3    H1 8811   2.211   4.770   0.121
 2935TIP3    H2 8812   2.126   4.703   0.227
 2936TIP3   OH2 8813   6.097   4.423   3.668
 2936TIP3    H1 8814   6.066   4.477   3.596
 2936TIP3    H2 8815   6.157   4.361   3.628
 2937TIP3   OH2 8816   0.815   4.718   0.478
 2937TIP3    H1 8817   0.889   4.703   0.537
 2937TIP3    H2 8818   0.782   4.805   0.502
 2938TIP3   OH2 8819   2.343   2.199   0.625
 2938TIP3    H1 8820   2.310   2.112   0.602
 2938TIP3    H2 8821   2.428   2.181   0.666
 2939TIP3   OH2 8822   3.102   0.940   0.579
 2939TIP3    H1 8823   3.099   0.844   0.584
 2939TIP3    H2 8824   3.108   0.959   0.486
 2940TIP3   OH2 8825   4.651   3.102   0.579
 2940TIP3    H1 8826   4.595   3.156   0.524
 2940TIP3    H2 8827   4.705   3.165   0.627
 2941TIP3   OH2 8828   1.786   4.494   0.336
 2941TIP3    H1 8829   1.746   4.458   0.257
 2941TIP3    H2 8830   1.713   4.505   0.397
 2942TIP3   OH2 8831   5.044   3.379   3.654
 2942TIP3    H1 8832   4.986   3.444   3.695
 2942TIP3    H2 8833   5.055   3.311   3.721
 2943TIP3   OH2 8834   2.353   1.938   0.563
 2943TIP3    H1 8835   2.302   1.919   0.484
 2943TIP3    H2 8836   2.297   1.906   0.635
 2944TIP3   OH2 8837   5.410   1.965   2.248
 2944TIP3    H1 8838   5.484   2.020   2.224
 2944TIP3    H2 8839   5.333   2.013   2.217
 2945TIP3   OH2 8840   4.610   0.085   1.868
 2945TIP3    H1 8841   4.562   0.167   1.854
 2945TIP3    H2 8842   4.565   0.021   1.813
 2946TIP3   OH2 8843   0.838   1.320   4.943
 2946TIP3    H1 8844   0.825   1.237   4.897
 2946TIP3    H2 8845   0.926   1.313   4.980
 2947TIP3   OH2 8846   1.710   0.103   0.522
 2947TIP3    H1 8847   1.785   0.161   0.520
 2947TIP3    H2 8848   1.747   0.015   0.534
 2948TIP3   OH2 8849   3.670   2.969   2.245
 2948TIP3    H1 8850   3.749   2.963   2.297
 2948TIP3    H2 8851   3.676   3.054   2.201
 2949TIP3   OH2 8852   3.674   1.941   1.780
 2949TIP3    H1 8853   3.670   1.983   1.865
 2949TIP3    H2 8854   3.587   1.953   1.742
 2950TIP3   OH2 8855   4.880   1.450   1.295
 2950TIP3    H1 8856   4.918   1.429   1.381
 2950TIP3    H2 8857   4.832   1.371   1.271
 2951TIP3   OH2 8858   2.053   0.419   4.335
 2951TIP3    H1 8859   2.122   0.455   4.391
 2951TIP3    H2 8860   2.073   0.451   4.247
 2952TIP3   OH2 8861   2.277   0.136   2.557
 2952TIP3    H1 8862   2.271   0.044   2.533
 2952TIP3    H2 8863   2.186   0.166   2.562
 2953TIP3   OH2 8864   2.463   4.879   4.333
 2953TIP3    H1 8865   2.403   4.850   4.402
 2953TIP3    H2 8866   2.410   4.875   4.253
 2954TIP3   OH2 8867   6.147   0.677   0.600
 2954TIP3    H1 8868   6.117   0.689   0.690
 2954TIP3    H2 8869   6.233   0.636   0.609
 2955TIP3   OH2 8870   0.119   1.927   4.149
 2955TIP3    H1 8871   0.165   1.856   4.194
 2955TIP3    H2 8872   0.043   1.884   4.110
 2956TIP3   OH2 8873   4.253   3.277   4.020
 2956TIP3    H1 8874   4.202   3.339   3.966
 2956TIP3    H2 8875   4.231   3.191   3.984
 2957TIP3   OH2 8876   5.782   0.312   1.173
 2957TIP3    H1 8877   5.700   0.271   1.145
 2957TIP3    H2 8878   5.847   0.241   1.169
 2958TIP3   OH2 8879   5.406   5.812   1.111
 2958TIP3    H1 8880   5.373   5.888   1.062
 2958TIP3    H2 8881   5.499   5.829   1.121
 2959TIP3   OH2 8882   0.281   1.221   1.303
 2959TIP3    H1 8883   0.335   1.298   1.285
 2959TIP3    H2 8884   0.225   1.247   1.375
 2960TIP3   OH2 8885   1.260   0.102   3.785
 2960TIP3    H1 8886   1.269   0.159   3.709
 2960TIP3    H2 8887   1.349   0.078   3.808
 2961TIP3   OH2 8888   5.610   5.163   2.567
 2961TIP3    H1 8889   5.643   5.184   2.480
 2961TIP3    H2 8890   5.619   5.245   2.616
 2962TIP3   OH2 8891   0.638   3.939   1.466
 2962TIP3    H1 8892   0.560   3.882   1.470
 2962TIP3    H2 8893   0.703   3.887   1.419
 2963TIP3   OH2 8894   4.042   4.773   0.705
 2963TIP3    H1 8895   4.019   4.863   0.682
 2963TIP3    H2 8896   3.960   4.734   0.737
 2964TIP3   OH2 8897   2.842   3.008   1.089
 2964TIP3    H1 8898   2.806   3.096   1.080
 2964TIP3    H2 8899   2.934   3.017   1.063
 2965TIP3   OH2 8900   4.675   0.628   3.807
 2965TIP3    H1 8901   4.659   0.543   3.766
 2965TIP3    H2 8902   4.606   0.636   3.874
 2966TIP3   OH2 8903   5.725   5.388   0.582
 2966TIP3    H1 8904   5.781   5.397   0.660
 2966TIP3    H2 8905   5.731   5.296   0.559
 2967TIP3   OH2 8906   4.228   4.803   1.107
 2967TIP3    H1 8907   4.282   4.882   1.114
 2967TIP3    H2 8908   4.208   4.780   1.198
 2968TIP3   OH2 8909   2.950   2.633   5.000
 2968TIP3    H1 8910   2.863   2.615   4.963
 2968TIP3    H2 8911   2.990   2.547   5.010
 2969TIP3   OH2 8912   1.557   5.893   4.038
 2969TIP3    H1 8913   1.465   5.874   4.054
 2969TIP3    H2 8914   1.583   5.830   3.970
 2970TIP3   OH2 8915   4.671   5.276   3.690
 2970TIP3    H1 8916   4.747   5.226   3.722
 2970TIP3    H2 8917   4.644   5.230   3.610
 2971TIP3   OH2 8918   4.553   5.929   2.074
 2971TIP3    H1 8919   4.559   5.934   1.979
 2971TIP3    H2 8920   4.640   5.957   2.105
 2972TIP3   OH2 8921   1.603   5.702   3.322
 2972TIP3    H1 8922   1.570   5.615   3.343
 2972TIP3    H2 8923   1.529   5.761   3.337
 2973TIP3   OH2 8924   6.303   0.320   2.090
 2973TIP3    H1 8925   6.367   0.262   2.132
 2973TIP3    H2 8926   6.356   0.373   2.031
 2974TIP3   OH2 8927   0.868   0.927   3.401
 2974TIP3    H1 8928   0.881   1.011   3.445
 2974TIP3    H2 8929   0.797   0.885   3.450
 2975TIP3   OH2 8930   3.326   5.939   5.124
 2975TIP3    H1 8931   3.287   6.021   5.154
 2975TIP3    H2 8932   3.420   5.957   5.120
 2976TIP3   OH2 8933   3.485   1.558   5.183
 2976TIP3    H1 8934   3.415   1.613   5.149
 2976TIP3    H2 8935   3.495   1.585   5.274
 2977TIP3   OH2 8936   0.938   3.891   0.186
 2977TIP3    H1 8937   0.866   3.939   0.145
 2977TIP3    H2 8938   0.962   3.945   0.261
 2978TIP3   OH2 8939   3.057   5.903   2.687
 2978TIP3    H1 8940   3.052   5.953   2.605
 2978TIP3    H2 8941   3.139   5.855   2.681
 2979TIP3   OH2 8942   1.025   5.897   1.023
 2979TIP3    H1 8943   0.977   5.977   1.046
 2979TIP3    H2 8944   1.029   5.848   1.105
 2980TIP3   OH2 8945   1.462   2.697   4.736
 2980TIP3    H1 8946   1.554   2.713   4.755
 2980TIP3    H2 8947   1.452   2.717   4.642
 2981TIP3   OH2 8948   4.927   4.065   0.292
 2981TIP3    H1 8949   4.969   4.026   0.369
 2981TIP3    H2 8950   4.989   4.132   0.263
 2982TIP3   OH2 8951   1.194   5.771   2.103
 2982TIP3    H1 8952   1.214   5.834   2.172
 2982TIP3    H2 8953   1.104   5.743   2.122
 2983TIP3   OH2 8954   2.370   1.352   5.139
 2983TIP3    H1 8955   2.465   1.353   5.129
 2983TIP3    H2 8956   2.336   1.378   5.054
 2984TIP3   OH2 8957   6.089   3.427   5.092
 2984TIP3    H1 8958   6.063   3.519   5.098
 2984TIP3    H2 8959   6.184   3.431   5.081
 2985TIP3   OH2 8960   5.132   4.749   4.944
 2985TIP3    H1 8961   5.082   4.810   4.890
 2985TIP3    H2 8962   5.188   4.703   4.883
 2986TIP3   OH2 8963   2.009   2.417   0.132
 2986TIP3    H1 8964   1.926   2.458   0.156
 2986TIP3    H2 8965   1.989   2.323   0.132
 2987TIP3   OH2 8966   5.202   3.887   3.161
 2987TIP3    H1 8967   5.231   3.795   3.161
 2987TIP3    H2 8968   5.254   3.928   3.229
 2988TIP3   OH2 8969   6.145   3.880   3.006
 2988TIP3    H1 8970   6.155   3.807   3.067
 2988TIP3    H2 8971   6.182   3.955   3.053
 2989TIP3   OH2 8972   0.952   0.353   5.133
 2989TIP3    H1 8973   0.883   0.378   5.072
 2989TIP3    H2 8974   0.917   0.277   5.180
 2990TIP3   OH2 8975   5.430   3.521   0.017
 2990TIP3    H1 8976   5.336   3.528  -0.002
 2990TIP3    H2 8977   5.473   3.543  -0.066
 2991TIP3   OH2 8978   0.901   2.283   0.674
 2991TIP3    H1 8979   0.913   2.231   0.754
 2991TIP3    H2 8980   0.817   2.327   0.686
 2992TIP3   OH2 8981   4.772   1.456   3.369
 2992TIP3    H1 8982   4.797   1.459   3.461
 2992TIP3    H2 8983   4.751   1.546   3.347
 2993TIP3   OH2 8984   4.913   0.308   4.674
 2993TIP3    H1 8985   4.939   0.242   4.609
 2993TIP3    H2 8986   4.818   0.302   4.676
 2994TIP3   OH2 8987   2.746   3.124   2.374
 2994TIP3    H1 8988   2.676   3.176   2.414
 2994TIP3    H2 8989   2.826   3.175   2.392
 2995TIP3   OH2 8990   2.470   5.647   0.528
 2995TIP3    H1 8991   2.458   5.560   0.566
 2995TIP3    H2 8992   2.552   5.641   0.478
 2996TIP3   OH2 8993   3.101   5.166   4.413
 2996TIP3    H1 8994   3.162   5.203   4.478
 2996TIP3    H2 8995   3.060   5.092   4.458
 2997TIP3   OH2 8996   2.477   1.104   4.748
 2997TIP3    H1 8997   2.467   1.089   4.843
 2997TIP3    H2 8998   2.544   1.172   4.742
 2998TIP3   OH2 8999   3.550   0.253   1.785
 2998TIP3    H1 9000   3.498   0.290   1.714
 2998TIP3    H2 9001   3.621   0.206   1.740
 2999TIP3   OH2 9002   3.098   5.131   0.589
 2999TIP3    H1 9003   3.078   5.178   0.508
 2999TIP3    H2 9004   3.193   5.138   0.598
 3000TIP3   OH2 9005   6.123   0.186   3.699
 3000TIP3    H1 9006   6.101   0.215   3.611
 3000TIP3    H2 9007   6.109   0.262   3.755
 3001TIP3   OH2 9008   4.302   2.100   2.095
 3001TIP3    H1 9009   4.221   2.151   2.090
 3001TIP3    H2 9010   4.371   2.163   2.074
 3002TIP3   OH2 9011   5.820   1.159   0.194
 3002TIP3    H1 9012   5.850   1.069   0.189
 3002TIP3    H2 9013   5.848   1.199   0.111
 3003TIP3   OH2 9014   4.692   5.145   4.715
 3003TIP3    H1 9015   4.663   5.104   4.633
 3003TIP3    H2 9016   4.728   5.229   4.688
 3004TIP3   OH2 9017   0.800   3.375   3.822
 3004TIP3    H1 9018   0.879   3.405   3.867
 3004TIP3    H2 9019   0.781   3.443   3.758
 3005TIP3   OH2 9020   5.934   4.109   4.063
 3005TIP3    H1 9021   5.900   4.066   4.142
 3005TIP3    H2 9022   5.856   4.131   4.012
 3006TIP3   OH2 9023   5.448   1.359   1.085
 3006TIP3    H1 9024   5.469   1.286   1.026
 3006TIP3    H2 9025   5.376   1.404   1.041
 3007TIP3   OH2 9026   0.642   3.368   4.887
 3007TIP3    H1 9027   0.654   3.314   4.808
 3007TIP3    H2 9028   0.670   3.456   4.861
 3008TIP3   OH2 9029   3.104   5.582   3.798
 3008TIP3    H1 9030   3.191   5.615   3.778
 3008TIP3    H2 9031   3.119   5.494   3.832
 3009TIP3   OH2 9032   0.971   3.650   0.041
 3009TIP3    H1 9033   1.000   3.692  -0.040
 3009TIP3    H2 9034   0.945   3.723   0.098
 3010TIP3   OH2 9035   4.843   2.512   1.440
 3010TIP3    H1 9036   4.879   2.520   1.528
 3010TIP3    H2 9037   4.811   2.599   1.418
 3011TIP3   OH2 9038   4.106   0.121   0.715
 3011TIP3    H1 9039   4.201   0.113   0.722
 3011TIP3    H2 9040   4.092   0.197   0.658
 3012TIP3   OH2 9041   2.059   2.360   3.057
 3012TIP3    H1 9042   2.007   2.441   3.059
 3012TIP3    H2 9043   2.149   2.388   3.069
 3013TIP3   OH2 9044   0.111   3.037   4.357
 3013TIP3    H1 9045   0.113   2.953   4.404
 3013TIP3    H2 9046   0.186   3.085   4.391
 3014TIP3   OH2 9047   4.839   0.239   0.440
 3014TIP3    H1 9048   4.835   0.250   0.535
 3014TIP3    H2 9049   4.926   0.203   0.423
 3015TIP3   OH2 9050   1.398   5.954   1.636
 3015TIP3    H1 9051   1.460   5.882   1.651
 3015TIP3    H2 9052   1.325   5.934   1.695
 3016TIP3   OH2 9053   3.288   0.696   2.031
 3016TIP3    H1 9054   3.208   0.666   1.987
 3016TIP3    H2 9055   3.306   0.782   1.992
 3017TIP3   OH2 9056   2.482   1.259   1.427
 3017TIP3    H1 9057   2.562   1.221   1.463
 3017TIP3    H2 9058   2.431   1.284   1.504
 3018TIP3   OH2 9059   5.215   2.077   4.235
 3018TIP3    H1 9060   5.221   1.985   4.262
 3018TIP3    H2 9061   5.126   2.086   4.201
 3019TIP3   OH2 9062   4.181   5.419   2.518
 3019TIP3    H1 9063   4.093   5.394   2.489
 3019TIP3    H2 9064   4.179   5.514   2.523
 3020TIP3   OH2 9065   3.337   2.525   0.936
 3020TIP3    H1 9066   3.323   2.475   0.856
 3020TIP3    H2 9067   3.363   2.612   0.906
 3021TIP3   OH2 9068   5.181   1.123   4.567
 3021TIP3    H1 9069   5.223   1.055   4.619
 3021TIP3    H2 9070   5.128   1.075   4.503
 3022TIP3   OH2 9071   6.088   2.721   1.144
 3022TIP3    H1 9072   6.005   2.770   1.140
 3022TIP3    H2 9073   6.100   2.703   1.237
 3023TIP3   OH2 9074   4.301   2.410   0.599
 3023TIP3    H1 9075   4.339   2.464   0.529
 3023TIP3    H2 9076   4.351   2.328   0.595
 3024TIP3   OH2 9077   1.806   1.072   1.936
 3024TIP3    H1 9078   1.722   1.048   1.975
 3024TIP3    H2 9079   1.783   1.135   1.868
 3025TIP3   OH2 9080   0.351   3.197   5.120
 3025TIP3    H1 9081   0.302   3.215   5.039
 3025TIP3    H2 9082   0.394   3.280   5.141
 3026TIP3   OH2 9083   5.504   3.484   0.659
 3026TIP3    H1 9084   5.447   3.532   0.599
 3026TIP3    H2 9085   5.578   3.543   0.674
 3027TIP3   OH2 9086   1.348   1.862   1.310
 3027TIP3    H1 9087   1.254   1.857   1.328
 3027TIP3    H2 9088   1.363   1.954   1.288
 3028TIP3   OH2 9089   3.984   1.431   0.951
 3028TIP3    H1 9090   3.893   1.451   0.976
 3028TIP3    H2 9091   4.023   1.396   1.031
 3029TIP3   OH2 9092   1.844   5.681   3.469
 3029TIP3    H1 9093   1.773   5.696   3.407
 3029TIP3    H2 9094   1.818   5.730   3.547
 3030TIP3   OH2 9095   5.530   1.143   2.708
 3030TIP3    H1 9096   5.525   1.117   2.616
 3030TIP3    H2 9097   5.439   1.141   2.738
 3031TIP3   OH2 9098   3.317   4.842   2.813
 3031TIP3    H1 9099   3.316   4.938   2.809
 3031TIP3    H2 9100   3.329   4.822   2.906
 3032TIP3   OH2 9101   3.553   4.460   2.200
 3032TIP3    H1 9102   3.503   4.491   2.275
 3032TIP3    H2 9103   3.604   4.386   2.233
 3033TIP3   OH2 9104   6.206   1.213   1.547
 3033TIP3    H1 9105   6.267   1.275   1.588
 3033TIP3    H2 9106   6.230   1.214   1.455
 3034TIP3   OH2 9107   1.907   3.398   4.223
 3034TIP3    H1 9108   1.996   3.405   4.187
 3034TIP3    H2 9109   1.850   3.407   4.147
 3035TIP3   OH2 9110   0.585   3.355   0.080
 3035TIP3    H1 9111   0.578   3.310   0.164
 3035TIP3    H2 9112   0.679   3.366   0.066
 3036TIP3   OH2 9113   1.610   3.784   1.974
 3036TIP3    H1 9114   1.585   3.844   2.045
 3036TIP3    H2 9115   1.603   3.836   1.894
 3037TIP3   OH2 9116   5.366   5.041   2.154
 3037TIP3    H1 9117   5.383   4.969   2.093
 3037TIP3    H2 9118   5.396   5.008   2.238
 3038TIP3   OH2 9119   1.054   1.229   4.031
 3038TIP3    H1 9120   1.030   1.283   4.106
 3038TIP3    H2 9121   1.103   1.287   3.973
 3039TIP3   OH2 9122   5.317   4.662   4.734
 3039TIP3    H1 9123   5.304   4.749   4.697
 3039TIP3    H2 9124   5.317   4.603   4.658
 3040TIP3   OH2 9125   0.577   5.220   0.235
 3040TIP3    H1 9126   0.531   5.200   0.316
 3040TIP3    H2 9127   0.507   5.242   0.173
 3041TIP3   OH2 9128   5.325   1.984   1.734
 3041TIP3    H1 9129   5.374   2.029   1.802
 3041TIP3    H2 9130   5.260   1.932   1.781
 3042TIP3   OH2 9131   6.140   3.194   4.825
 3042TIP3    H1 9132   6.094   3.278   4.824
 3042TIP3    H2 9133   6.096   3.143   4.892
 3043TIP3   OH2 9134   2.008   3.849   0.025
 3043TIP3    H1 9135   2.037   3.940   0.024
 3043TIP3    H2 9136   2.046   3.811   0.104
 3044TIP3   OH2 9137   5.711   3.218   1.494
 3044TIP3    H1 9138   5.690   3.299   1.540
 3044TIP3    H2 9139   5.708   3.241   1.401
 3045TIP3   OH2 9140   5.860   2.475   2.396
 3045TIP3    H1 9141   5.922   2.544   2.421
 3045TIP3    H2 9142   5.904   2.428   2.325
 3046TIP3   OH2 9143   3.302   1.577   2.184
 3046TIP3    H1 9144   3.364   1.650   2.183
 3046TIP3    H2 9145   3.354   1.501   2.156
 3047TIP3   OH2 9146   1.758   0.949   3.061
 3047TIP3    H1 9147   1.740   1.043   3.069
 3047TIP3    H2 9148   1.681   0.914   3.015
 3048TIP3   OH2 9149   4.396   0.163   0.721
 3048TIP3    H1 9150   4.449   0.093   0.684
 3048TIP3    H2 9151   4.416   0.162   0.815
 3049TIP3   OH2 9152   5.264   3.643   4.739
 3049TIP3    H1 9153   5.205   3.647   4.664
 3049TIP3    H2 9154   5.253   3.727   4.783
 3050TIP3   OH2 9155   1.132   0.324   1.926
 3050TIP3    H1 9156   1.092   0.373   1.855
 3050TIP3    H2 9157   1.109   0.373   2.005
 3051TIP3   OH2 9158   1.921   2.218   1.674
 3051TIP3    H1 9159   1.929   2.312   1.659
 3051TIP3    H2 9160   1.868   2.187   1.601
 3052TIP3   OH2 9161   1.259   3.335   4.401
 3052TIP3    H1 9162   1.169   3.338   4.431
 3052TIP3    H2 9163   1.311   3.364   4.476
 3053TIP3   OH2 9164   3.013   1.635   3.817
 3053TIP3    H1 9165   3.088   1.676   3.774
 3053TIP3    H2 9166   2.944   1.635   3.751
 3054TIP3   OH2 9167   4.706   4.443   0.263
 3054TIP3    H1 9168   4.633   4.491   0.226
 3054TIP3    H2 9169   4.728   4.490   0.343
 3055TIP3   OH2 9170   3.647   5.813   3.622
 3055TIP3    H1 9171   3.556   5.839   3.632
 3055TIP3    H2 9172   3.684   5.875   3.559
 3056TIP3   OH2 9173   0.783   3.623   4.863
 3056TIP3    H1 9174   0.821   3.707   4.888
 3056TIP3    H2 9175   0.691   3.643   4.843
 3057TIP3   OH2 9176   0.711   2.995   1.657
 3057TIP3    H1 9177   0.692   2.988   1.751
 3057TIP3    H2 9178   0.741   3.085   1.646
 3058TIP3   OH2 9179   2.658   1.305   4.107
 3058TIP3    H1 9180   2.664   1.372   4.175
 3058TIP3    H2 9181   2.749   1.287   4.083
 3059TIP3   OH2 9182   5.051   5.647   0.725
 3059TIP3    H1 9183   5.073   5.565   0.680
 3059TIP3    H2 9184   4.960   5.635   0.752
 3060TIP3   OH2 9185   4.705   4.340   2.869
 3060TIP3    H1 9186   4.672   4.420   2.829
 3060TIP3    H2 9187   4.653   4.270   2.829
 3061TIP3   OH2 9188   3.895   1.233   0.356
 3061TIP3    H1 9189   3.873   1.142   0.337
 3061TIP3    H2 9190   3.968   1.228   0.418
 3062TIP3   OH2 9191   1.048   2.246   3.964
 3062TIP3    H1 9192   1.004   2.188   3.901
 3062TIP3    H2 9193   1.128   2.200   3.988
 3063TIP3   OH2 9194   4.896   5.791   1.002
 3063TIP3    H1 9195   4.918   5.702   0.975
 3063TIP3    H2 9196   4.913   5.793   1.096
 3064TIP3   OH2 9197   3.902   0.537   0.696
 3064TIP3    H1 9198   3.997   0.527   0.695
 3064TIP3    H2 9199   3.869   0.448   0.688
 3065TIP3   OH2 9200   6.281   1.878   3.562
 3065TIP3    H1 9201   6.266   1.807   3.624
 3065TIP3    H2 9202   6.376   1.893   3.564
 3066TIP3   OH2 9203   1.471   3.150   3.887
 3066TIP3    H1 9204   1.411   3.075   3.876
 3066TIP3    H2 9205   1.514   3.133   3.970
 3067TIP3   OH2 9206   1.234   5.351   4.772
 3067TIP3    H1 9207   1.258   5.264   4.803
 3067TIP3    H2 9208   1.282   5.361   4.689
 3068TIP3   OH2 9209   6.250   3.608   0.967
 3068TIP3    H1 9210   6.301   3.673   0.919
 3068TIP3    H2 9211   6.193   3.568   0.901
 3069TIP3   OH2 9212   0.318   4.165   3.518
 3069TIP3    H1 9213   0.389   4.171   3.454
 3069TIP3    H2 9214   0.320   4.249   3.564
 3070TIP3   OH2 9215   0.928   1.102   4.513
 3070TIP3    H1 9216   0.945   1.083   4.421
 3070TIP3    H2 9217   0.957   1.193   4.524
 3071TIP3   OH2 9218   6.095   0.352   3.473
 3071TIP3    H1 9219   6.137   0.428   3.514
 3071TIP3    H2 9220   6.159   0.319   3.410
 3072TIP3   OH2 9221  -0.012   2.909   1.769
 3072TIP3    H1 9222  -0.078   2.977   1.785
 3072TIP3    H2 9223   0.069   2.958   1.753
 3073TIP3   OH2 9224   4.812   1.026   2.053
 3073TIP3    H1 9225   4.736   0.998   2.002
 3073TIP3    H2 9226   4.859   0.945   2.072
 3074TIP3   OH2 9227   1.179   1.784   1.942
 3074TIP3    H1 9228   1.206   1.699   1.976
 3074TIP3    H2 9229   1.180   1.773   1.846
 3075TIP3   OH2 9230   3.824   2.863   1.646
 3075TIP3    H1 9231   3.917   2.883   1.651
 3075TIP3    H2 9232   3.820   2.779   1.602
 3076TIP3   OH2 9233   5.530   5.337   0.895
 3076TIP3    H1 9234   5.531   5.267   0.828
 3076TIP3    H2 9235   5.466   5.307   0.959
 3077TIP3   OH2 9236   2.932   3.738   2.001
 3077TIP3    H1 9237   2.842   3.742   1.969
 3077TIP3    H2 9238   2.963   3.652   1.974
 3078TIP3   OH2 9239   3.658   4.384   4.924
 3078TIP3    H1 9240   3.650   4.458   4.984
 3078TIP3    H2 9241   3.751   4.363   4.924
 3079TIP3   OH2 9242   6.057   1.602   3.862
 3079TIP3    H1 9243   5.993   1.662   3.901
 3079TIP3    H2 9244   6.141   1.647   3.872
 3080TIP3   OH2 9245   0.988   3.503   3.949
 3080TIP3    H1 9246   1.080   3.477   3.955
 3080TIP3    H2 9247   0.978   3.574   4.013
 3081TIP3   OH2 9248   0.589   4.925   0.033
 3081TIP3    H1 9249   0.637   4.850  -0.002
 3081TIP3    H2 9250   0.552   4.893   0.116
 3082TIP3   OH2 9251   1.653   2.848   4.157
 3082TIP3    H1 9252   1.696   2.866   4.241
 3082TIP3    H2 9253   1.710   2.784   4.115
 3083TIP3   OH2 9254   6.150   5.186   5.148
 3083TIP3    H1 9255   6.094   5.110   5.133
 3083TIP3    H2 9256   6.167   5.187   5.242
 3084TIP3   OH2 9257   6.073   2.031   4.776
 3084TIP3    H1 9258   6.090   2.066   4.689
 3084TIP3    H2 9259   6.015   1.956   4.761
 3085TIP3   OH2 9260   4.980   1.523   3.850
 3085TIP3    H1 9261   4.950   1.510   3.760
 3085TIP3    H2 9262   5.021   1.610   3.849
 3086TIP3   OH2 9263   2.130   2.690   3.351
 3086TIP3    H1 9264   2.083   2.726   3.275
 3086TIP3    H2 9265   2.163   2.605   3.321
 3087TIP3   OH2 9266   1.959   4.090   3.230
 3087TIP3    H1 9267   1.888   4.050   3.280
 3087TIP3    H2 9268   2.016   4.129   3.297
 3088TIP3   OH2 9269   2.755   5.053   1.214
 3088TIP3    H1 9270   2.817   5.018   1.150
 3088TIP3    H2 9271   2.800   5.045   1.298
 3089TIP3   OH2 9272   5.049   2.728   4.931
 3089TIP3    H1 9273   5.071   2.764   4.846
 3089TIP3    H2 9274   5.017   2.639   4.912
 3090TIP3   OH2 9275   0.549   2.002   5.170
 3090TIP3    H1 9276   0.577   1.915   5.198
 3090TIP3    H2 9277   0.467   1.988   5.124
 3091TIP3   OH2 9278   0.600   3.274   3.996
 3091TIP3    H1 9279   0.517   3.278   3.948
 3091TIP3    H2 9280   0.664   3.312   3.936
 3092TIP3   OH2 9281   4.291   3.053   1.948
 3092TIP3    H1 9282   4.364   2.998   1.922
 3092TIP3    H2 9283   4.294   3.053   2.044
 3093TIP3   OH2 9284   6.282   2.878   1.449
 3093TIP3    H1 9285   6.193   2.862   1.480
 3093TIP3    H2 9286   6.332   2.894   1.529
 3094TIP3   OH2 9287   3.300   5.662   1.346
 3094TIP3    H1 9288   3.312   5.571   1.375
 3094TIP3    H2 9289   3.376   5.708   1.380
 3095TIP3   OH2 9290   2.031   5.949   4.936
 3095TIP3    H1 9291   1.964   5.952   5.003
 3095TIP3    H2 9292   2.020   6.030   4.886
 3096TIP3   OH2 9293   2.582   3.705   2.402
 3096TIP3    H1 9294   2.617   3.792   2.420
 3096TIP3    H2 9295   2.654   3.658   2.360
 3097TIP3   OH2 9296   5.939   3.261   2.931
 3097TIP3    H1 9297   5.919   3.182   2.881
 3097TIP3    H2 9298   5.981   3.229   3.011
 3098TIP3   OH2 9299   3.715   4.540   4.013
 3098TIP3    H1 9300   3.785   4.605   4.007
 3098TIP3    H2 9301   3.677   4.553   4.100
 3099TIP3   OH2 9302   5.610   3.246   2.749
 3099TIP3    H1 9303   5.673   3.178   2.726
 3099TIP3    H2 9304   5.649   3.289   2.825
 3100TIP3   OH2 9305   3.732   2.633   2.568
 3100TIP3    H1 9306   3.646   2.672   2.554
 3100TIP3    H2 9307   3.714   2.552   2.616
 3101TIP3   OH2 9308   3.098   4.055   3.265
 3101TIP3    H1 9309   3.171   3.996   3.285
 3101TIP3    H2 9310   3.137   4.126   3.214
 3102TIP3   OH2 9311   5.533   4.077   1.027
 3102TIP3    H1 9312   5.474   4.019   1.075
 3102TIP3    H2 9313   5.618   4.033   1.031
 3103TIP3   OH2 9314   6.027   5.674   3.642
 3103TIP3    H1 9315   6.082   5.730   3.698
 3103TIP3    H2 9316   5.939   5.681   3.681
 3104TIP3   OH2 9317   5.153   2.390   3.844
 3104TIP3    H1 9318   5.177   2.438   3.765
 3104TIP3    H2 9319   5.236   2.366   3.884
 3105TIP3   OH2 9320   3.688   4.055   0.798
 3105TIP3    H1 9321   3.651   4.072   0.712
 3105TIP3    H2 9322   3.775   4.096   0.795
 3106TIP3   OH2 9323   4.111   1.051   3.363
 3106TIP3    H1 9324   4.093   1.138   3.328
 3106TIP3    H2 9325   4.172   1.066   3.436
 3107TIP3   OH2 9326   3.122   1.852   1.047
 3107TIP3    H1 9327   3.101   1.928   1.102
 3107TIP3    H2 9328   3.216   1.857   1.035
 3108TIP3   OH2 9329   5.043   2.461   1.723
 3108TIP3    H1 9330   5.126   2.503   1.745
 3108TIP3    H2 9331   5.059   2.417   1.640
 3109TIP3   OH2 9332   0.054   5.332   2.575
 3109TIP3    H1 9333   0.009   5.247   2.581
 3109TIP3    H2 9334   0.072   5.356   2.666
 3110TIP3   OH2 9335   2.045   4.420   4.269
 3110TIP3    H1 9336   1.979   4.486   4.293
 3110TIP3    H2 9337   2.009   4.338   4.302
 3111TIP3   OH2 9338   5.437   2.006   3.625
 3111TIP3    H1 9339   5.405   2.096   3.631
 3111TIP3    H2 9340   5.522   2.009   3.669
 3112TIP3   OH2 9341   3.374   0.989   2.710
 3112TIP3    H1 9342   3.444   1.048   2.682
 3112TIP3    H2 9343   3.380   0.989   2.806
 3113TIP3   OH2 9344   5.712   1.346   5.046
 3113TIP3    H1 9345   5.665   1.266   5.021
 3113TIP3    H2 9346   5.644   1.410   5.066
 3114TIP3   OH2 9347   2.179   2.227   4.437
 3114TIP3    H1 9348   2.204   2.143   4.399
 3114TIP3    H2 9349   2.245   2.244   4.505
 3115TIP3   OH2 9350   5.446   0.278   0.802
 3115TIP3    H1 9351   5.368   0.229   0.827
 3115TIP3    H2 9352   5.458   0.257   0.709
 3116TIP3   OH2 9353   2.718   3.770   0.824
 3116TIP3    H1 9354   2.641   3.719   0.797
 3116TIP3    H2 9355   2.710   3.852   0.776
 3117TIP3   OH2 9356   5.441   5.631   0.306
 3117TIP3    H1 9357   5.450   5.617   0.400
 3117TIP3    H2 9358   5.358   5.679   0.297
 3118TIP3   OH2 9359   4.198   1.976   4.944
 3118TIP3    H1 9360   4.276   2.022   4.911
 3118TIP3    H2 9361   4.134   1.984   4.873
 3119TIP3   OH2 9362   5.828   2.535   3.538
 3119TIP3    H1 9363   5.806   2.457   3.487
 3119TIP3    H2 9364   5.796   2.608   3.485
 3120TIP3   OH2 9365   4.451   3.729   1.436
 3120TIP3    H1 9366   4.406   3.647   1.414
 3120TIP3    H2 9367   4.411   3.758   1.518
 3121TIP3   OH2 9368   3.442   4.625   0.633
 3121TIP3    H1 9369   3.429   4.594   0.723
 3121TIP3    H2 9370   3.515   4.572   0.600
 3122TIP3   OH2 9371   3.551   2.467   0.514
 3122TIP3    H1 9372   3.470   2.451   0.466
 3122TIP3    H2 9373   3.565   2.561   0.507
 3123TIP3   OH2 9374   5.256   1.086   3.802
 3123TIP3    H1 9375   5.210   1.170   3.796
 3123TIP3    H2 9376   5.226   1.037   3.726
 3124TIP3   OH2 9377   3.454   1.270   4.656
 3124TIP3    H1 9378   3.386   1.214   4.694
 3124TIP3    H2 9379   3.535   1.223   4.674
 3125TIP3   OH2 9380   3.434   3.868   0.659
 3125TIP3    H1 9381   3.441   3.952   0.613
 3125TIP3    H2 9382   3.457   3.889   0.750
 3126TIP3   OH2 9383   0.293   3.146   2.799
 3126TIP3    H1 9384   0.354   3.205   2.754
 3126TIP3    H2 9385   0.333   3.060   2.794
 3127TIP3   OH2 9386   1.346   2.071   0.053
 3127TIP3    H1 9387   1.342   2.150   0.000
 3127TIP3    H2 9388   1.384   2.098   0.136
 3128TIP3   OH2 9389   0.074   5.608   3.915
 3128TIP3    H1 9390   0.000   5.658   3.949
 3128TIP3    H2 9391   0.060   5.519   3.949
 3129TIP3   OH2 9392  -0.023   4.206   2.308
 3129TIP3    H1 9393   0.029   4.191   2.229
 3129TIP3    H2 9394   0.038   4.249   2.368
 3130TIP3   OH2 9395   3.101   4.727   2.664
 3130TIP3    H1 9396   3.177   4.774   2.698
 3130TIP3    H2 9397   3.120   4.635   2.682
 3131TIP3   OH2 9398   2.165   1.341   4.562
 3131TIP3    H1 9399   2.152   1.336   4.467
 3131TIP3    H2 9400   2.168   1.249   4.590
 3132TIP3   OH2 9401   3.511   0.058   3.782
 3132TIP3    H1 9402   3.490  -0.035   3.781
 3132TIP3    H2 9403   3.564   0.071   3.703
 3133TIP3   OH2 9404   1.942   4.508   4.697
 3133TIP3    H1 9405   1.865   4.477   4.649
 3133TIP3    H2 9406   2.013   4.451   4.668
 3134TIP3   OH2 9407   5.181   3.285   2.925
 3134TIP3    H1 9408   5.099   3.271   2.876
 3134TIP3    H2 9409   5.248   3.245   2.870
 3135TIP3   OH2 9410   6.207   1.239   1.260
 3135TIP3    H1 9411   6.295   1.275   1.244
 3135TIP3    H2 9412   6.166   1.238   1.174
 3136TIP3   OH2 9413   4.157   5.571   4.628
 3136TIP3    H1 9414   4.113   5.558   4.545
 3136TIP3    H2 9415   4.161   5.667   4.638
 3137TIP3   OH2 9416   4.170   5.415   0.648
 3137TIP3    H1 9417   4.101   5.363   0.689
 3137TIP3    H2 9418   4.251   5.370   0.672
 3138TIP3   OH2 9419   0.739   4.304   0.433
 3138TIP3    H1 9420   0.678   4.369   0.399
 3138TIP3    H2 9421   0.689   4.222   0.433
 3139TIP3   OH2 9422   2.509   1.143   2.434
 3139TIP3    H1 9423   2.590   1.124   2.483
 3139TIP3    H2 9424   2.455   1.066   2.448
 3140TIP3   OH2 9425   6.162   4.194   3.885
 3140TIP3    H1 9426   6.125   4.178   3.799
 3140TIP3    H2 9427   6.103   4.149   3.946
 3141TIP3   OH2 9428   2.665   5.916   3.948
 3141TIP3    H1 9429   2.718   5.993   3.927
 3141TIP3    H2 9430   2.580   5.951   3.973
 3142TIP3   OH2 9431   3.964   4.045   3.888
 3142TIP3    H1 9432   3.936   4.113   3.949
 3142TIP3    H2 9433   4.058   4.036   3.905
 3143TIP3   OH2 9434   2.160   3.726   4.665
 3143TIP3    H1 9435   2.103   3.762   4.597
 3143TIP3    H2 9436   2.150   3.786   4.739
 3144TIP3   OH2 9437   1.845   5.957   5.149
 3144TIP3    H1 9438   1.802   5.918   5.225
 3144TIP3    H2 9439   1.798   5.921   5.074
 3145TIP3   OH2 9440   2.407   4.888   2.268
 3145TIP3    H1 9441   2.427   4.827   2.339
 3145TIP3    H2 9442   2.448   4.848   2.191
 3146TIP3   OH2 9443   3.326   3.023   1.592
 3146TIP3    H1 9444   3.288   3.037   1.506
 3146TIP3    H2 9445   3.340   2.929   1.598
 3147TIP3   OH2 9446   2.943   4.949   3.536
 3147TIP3    H1 9447   2.971   4.996   3.458
 3147TIP3    H2 9448   2.971   5.004   3.609
 3148TIP3   OH2 9449   1.339   4.342   4.993
 3148TIP3    H1 9450   1.392   4.263   4.984
 3148TIP3    H2 9451   1.314   4.344   5.085
 3149TIP3   OH2 9452   2.623   4.273   0.502
 3149TIP3    H1 9453   2.560   4.204   0.482
 3149TIP3    H2 9454   2.642   4.263   0.595
 3150TIP3   OH2 9455   0.398   4.782   1.458
 3150TIP3    H1 9456   0.429   4.855   1.405
 3150TIP3    H2 9457   0.307   4.804   1.479
 3151TIP3   OH2 9458   1.662   1.194   2.325
 3151TIP3    H1 9459   1.718   1.131   2.370
 3151TIP3    H2 9460   1.629   1.251   2.394
 3152TIP3   OH2 9461   6.149   3.392   2.173
 3152TIP3    H1 9462   6.072   3.353   2.132
 3152TIP3    H2 9463   6.156   3.479   2.131
 3153TIP3   OH2 9464   4.754   4.689   0.050
 3153TIP3    H1 9465   4.829   4.744   0.074
 3153TIP3    H2 9466   4.690   4.705   0.118
 3154TIP3   OH2 9467   4.881   0.959   1.703
 3154TIP3    H1 9468   4.894   0.900   1.777
 3154TIP3    H2 9469   4.893   1.047   1.740
 3155TIP3   OH2 9470   1.920   2.629   0.947
 3155TIP3    H1 9471   1.842   2.641   0.894
 3155TIP3    H2 9472   1.893   2.570   1.018
 3156TIP3   OH2 9473   4.905   2.516   4.810
 3156TIP3    H1 9474   4.926   2.525   4.717
 3156TIP3    H2 9475   4.824   2.566   4.822
 3157TIP3   OH2 9476   4.935   3.445   1.017
 3157TIP3    H1 9477   4.918   3.513   0.952
 3157TIP3    H2 9478   5.020   3.408   0.991
 3158TIP3   OH2 9479   2.319   0.512   2.768
 3158TIP3    H1 9480   2.315   0.551   2.855
 3158TIP3    H2 9481   2.326   0.418   2.785
 3159TIP3   OH2 9482   3.743   5.648   2.193
 3159TIP3    H1 9483   3.792   5.691   2.123
 3159TIP3    H2 9484   3.798   5.573   2.218
 3160TIP3   OH2 9485   1.404   3.107   2.406
 3160TIP3    H1 9486   1.439   3.018   2.401
 3160TIP3    H2 9487   1.477   3.161   2.435
 3161TIP3   OH2 9488   1.216   5.807   2.444
 3161TIP3    H1 9489   1.246   5.878   2.387
 3161TIP3    H2 9490   1.252   5.828   2.530
 3162TIP3   OH2 9491   5.852   2.790   0.554
 3162TIP3    H1 9492   5.910   2.791   0.630
 3162TIP3    H2 9493   5.782   2.728   0.577
 3163TIP3   OH2 9494   2.108   0.046   0.640
 3163TIP3    H1 9495   2.175  -0.022   0.638
 3163TIP3    H2 9496   2.110   0.080   0.729
 3164TIP3   OH2 9497   4.870   1.480   0.728
 3164TIP3    H1 9498   4.922   1.560   0.726
 3164TIP3    H2 9499   4.931   1.410   0.702
 3165TIP3   OH2 9500   5.242   3.903   4.803
 3165TIP3    H1 9501   5.273   3.915   4.893
 3165TIP3    H2 9502   5.278   3.977   4.755
 3166TIP3   OH2 9503   5.192   2.731   3.244
 3166TIP3    H1 9504   5.277   2.767   3.222
 3166TIP3    H2 9505   5.211   2.647   3.287
 3167TIP3   OH2 9506   6.233   5.342   1.343
 3167TIP3    H1 9507   6.150   5.361   1.299
 3167TIP3    H2 9508   6.286   5.299   1.276
 3168TIP3   OH2 9509   2.548   4.593   4.275
 3168TIP3    H1 9510   2.467   4.622   4.316
 3168TIP3    H2 9511   2.531   4.599   4.181
 3169TIP3   OH2 9512   1.251   5.807   3.729
 3169TIP3    H1 9513   1.211   5.755   3.659
 3169TIP3    H2 9514   1.201   5.784   3.807
 3170TIP3   OH2 9515   0.153   5.754   1.808
 3170TIP3    H1 9516   0.153   5.668   1.851
 3170TIP3    H2 9517   0.150   5.817   1.880
 3171TIP3   OH2 9518   3.108   2.483   3.275
 3171TIP3    H1 9519   3.190   2.506   3.319
 3171TIP3    H2 9520   3.063   2.426   3.338
 3172TIP3   OH2 9521   4.365   4.998   3.391
 3172TIP3    H1 9522   4.360   4.903   3.379
 3172TIP3    H2 9523   4.316   5.015   3.471
 3173TIP3   OH2 9524   0.887   5.559   0.704
 3173TIP3    H1 9525   0.829   5.581   0.631
 3173TIP3    H2 9526   0.859   5.617   0.775
 3174TIP3   OH2 9527   2.963   0.752   2.878
 3174TIP3    H1 9528   2.972   0.690   2.950
 3174TIP3    H2 9529   3.045   0.744   2.829
 3175TIP3   OH2 9530   1.487   4.863   3.234
 3175TIP3    H1 9531   1.500   4.945   3.185
 3175TIP3    H2 9532   1.419   4.817   3.185
 3176TIP3   OH2 9533   4.455   3.726   2.892
 3176TIP3    H1 9534   4.527   3.665   2.909
 3176TIP3    H2 9535   4.485   3.777   2.816
 3177TIP3   OH2 9536   5.466   1.508   3.488
 3177TIP3    H1 9537   5.429   1.576   3.544
 3177TIP3    H2 9538   5.503   1.444   3.549
 3178TIP3   OH2 9539   4.724   3.125   4.891
 3178TIP3    H1 9540   4.764   3.038   4.899
 3178TIP3    H2 9541   4.631   3.110   4.906
 3179TIP3   OH2 9542   4.579   5.435   1.694
 3179TIP3    H1 9543   4.522   5.429   1.617
 3179TIP3    H2 9544   4.630   5.354   1.693
 3180TIP3   OH2 9545   0.640   5.336   4.104
 3180TIP3    H1 9546   0.637   5.356   4.010
 3180TIP3    H2 9547   0.609   5.417   4.146
 3181TIP3   OH2 9548   4.407   5.842   1.584
 3181TIP3    H1 9549   4.426   5.806   1.497
 3181TIP3    H2 9550   4.327   5.893   1.572
 3182TIP3   OH2 9551   4.236   4.151   4.797
 3182TIP3    H1 9552   4.168   4.094   4.833
 3182TIP3    H2 9553   4.208   4.239   4.821
 3183TIP3   OH2 9554   5.978   2.264   3.289
 3183TIP3    H1 9555   5.897   2.246   3.335
 3183TIP3    H2 9556   6.040   2.200   3.323
 3184TIP3   OH2 9557   4.993   1.475   1.048
 3184TIP3    H1 9558   4.938   1.405   1.014
 3184TIP3    H2 9559   4.974   1.478   1.141
 3185TIP3   OH2 9560   0.132   0.844   5.058
 3185TIP3    H1 9561   0.131   0.755   5.094
 3185TIP3    H2 9562   0.040   0.871   5.058
 3186TIP3   OH2 9563   3.793   2.148   0.457
 3186TIP3    H1 9564   3.879   2.184   0.478
 3186TIP3    H2 9565   3.789   2.065   0.506
 3187TIP3   OH2 9566   1.781   2.390   3.873
 3187TIP3    H1 9567   1.856   2.366   3.928
 3187TIP3    H2 9568   1.711   2.331   3.900
 3188TIP3   OH2 9569   3.344   3.959   3.552
 3188TIP3    H1 9570   3.275   4.010   3.596
 3188TIP3    H2 9571   3.300   3.920   3.477
 3189TIP3   OH2 9572   2.174   3.747   0.255
 3189TIP3    H1 9573   2.257   3.792   0.273
 3189TIP3    H2 9574   2.195   3.654   0.261
 3190TIP3   OH2 9575   2.238   1.040   1.085
 3190TIP3    H1 9576   2.297   1.009   1.154
 3190TIP3    H2 9577   2.240   1.135   1.093
 3191TIP3   OH2 9578   6.105   2.090   4.129
 3191TIP3    H1 9579   6.062   2.175   4.142
 3191TIP3    H2 9580   6.123   2.060   4.218
 3192TIP3   OH2 9581   2.762   0.249   1.853
 3192TIP3    H1 9582   2.811   0.170   1.875
 3192TIP3    H2 9583   2.671   0.228   1.874
 3193TIP3   OH2 9584   5.488   5.005   4.081
 3193TIP3    H1 9585   5.531   4.961   4.154
 3193TIP3    H2 9586   5.395   4.999   4.102
 3194TIP3   OH2 9587   0.680   1.480   3.687
 3194TIP3    H1 9588   0.728   1.397   3.692
 3194TIP3    H2 9589   0.748   1.544   3.668
 3195TIP3   OH2 9590   2.005   1.873   1.468
 3195TIP3    H1 9591   2.080   1.864   1.408
 3195TIP3    H2 9592   1.929   1.873   1.411
 3196TIP3   OH2 9593   1.101   0.046   0.934
 3196TIP3    H1 9594   1.077   0.062   0.843
 3196TIP3    H2 9595   1.181   0.098   0.947
 3197TIP3   OH2 9596   3.292   5.778   0.087
 3197TIP3    H1 9597   3.355   5.848   0.066
 3197TIP3    H2 9598   3.323   5.703   0.038
 3198TIP3   OH2 9599   0.805   1.846   0.692
 3198TIP3    H1 9600   0.749   1.777   0.726
 3198TIP3    H2 9601   0.794   1.919   0.754
 3199TIP3   OH2 9602   5.570   5.602   0.848
 3199TIP3    H1 9603   5.483   5.638   0.831
 3199TIP3    H2 9604   5.556   5.508   0.857
 3200TIP3   OH2 9605   4.924   1.088   2.881
 3200TIP3    H1 9606   4.929   1.183   2.893
 3200TIP3    H2 9607   4.996   1.054   2.933
 3201TIP3   OH2 9608   4.962   4.161   2.143
 3201TIP3    H1 9609   4.905   4.237   2.140
 3201TIP3    H2 9610   4.952   4.127   2.233
 3202TIP3   OH2 9611   3.252   4.146   2.155
 3202TIP3    H1 9612   3.230   4.064   2.200
 3202TIP3    H2 9613   3.168   4.180   2.124
 3203TIP3   OH2 9614   3.856   4.816   3.330
 3203TIP3    H1 9615   3.905   4.874   3.273
 3203TIP3    H2 9616   3.781   4.868   3.360
 3204TIP3   OH2 9617   4.932   3.666   5.070
 3204TIP3    H1 9618   4.938   3.748   5.021
 3204TIP3    H2 9619   4.861   3.618   5.028
 3205TIP3   OH2 9620   6.011   2.113   1.995
 3205TIP3    H1 9621   6.002   2.207   1.978
 3205TIP3    H2 9622   6.094   2.104   2.041
 3206TIP3   OH2 9623   4.848   2.565   3.210
 3206TIP3    H1 9624   4.862   2.650   3.167
 3206TIP3    H2 9625   4.863   2.501   3.140
 3207TIP3   OH2 9626   4.065   3.568   0.994
 3207TIP3    H1 9627   3.974   3.575   1.021
 3207TIP3    H2 9628   4.115   3.598   1.070
 3208TIP3   OH2 9629   5.046   5.941   0.306
 3208TIP3    H1 9630   5.037   5.981   0.219
 3208TIP3    H2 9631   5.036   6.014   0.367
 3209TIP3   OH2 9632   4.440   1.368   4.762
 3209TIP3    H1 9633   4.380   1.311   4.809
 3209TIP3    H2 9634   4.386   1.416   4.700
 3210TIP3   OH2 9635   3.671   3.791   1.029
 3210TIP3    H1 9636   3.692   3.882   1.050
 3210TIP3    H2 9637   3.642   3.793   0.938
 3211TIP3   OH2 9638   0.387   1.802   3.554
 3211TIP3    H1 9639   0.322   1.829   3.489
 3211TIP3    H2 9640   0.335   1.781   3.632
 3212TIP3   OH2 9641   3.659   4.638   2.508
 3212TIP3    H1 9642   3.574   4.605   2.477
 3212TIP3    H2 9643   3.718   4.563   2.501
 3213TIP3   OH2 9644   5.022   4.436   2.310
 3213TIP3    H1 9645   5.049   4.495   2.380
 3213TIP3    H2 9646   4.928   4.424   2.324
 3214TIP3   OH2 9647   4.734   2.330   2.460
 3214TIP3    H1 9648   4.654   2.316   2.409
 3214TIP3    H2 9649   4.789   2.254   2.440
 3215TIP3   OH2 9650   1.409   0.279   4.701
 3215TIP3    H1 9651   1.329   0.302   4.747
 3215TIP3    H2 9652   1.480   0.306   4.760
 3216TIP3   OH2 9653   3.202   1.039   2.380
 3216TIP3    H1 9654   3.183   1.084   2.463
 3216TIP3    H2 9655   3.170   0.950   2.393
 3217TIP3   OH2 9656   2.501   2.943   0.392
 3217TIP3    H1 9657   2.571   2.995   0.353
 3217TIP3    H2 9658   2.547   2.878   0.446
 3218TIP3   OH2 9659   2.121   0.648   4.917
 3218TIP3    H1 9660   2.105   0.716   4.983
 3218TIP3    H2 9661   2.214   0.625   4.929
 3219TIP3   OH2 9662   2.874   0.941   1.374
 3219TIP3    H1 9663   2.779   0.929   1.381
 3219TIP3    H2 9664   2.884   1.024   1.328
 3220TIP3   OH2 9665   1.350   2.986   3.177
 3220TIP3    H1 9666   1.425   2.990   3.236
 3220TIP3    H2 9667   1.388   2.992   3.089
 3221TIP3   OH2 9668   5.711   3.479   4.788
 3221TIP3    H1 9669   5.669   3.551   4.741
 3221TIP3    H2 9670   5.690   3.401   4.737
 3222TIP3   OH2 9671   5.358   5.960   4.033
 3222TIP3    H1 9672   5.399   5.993   3.953
 3222TIP3    H2 9673   5.362   5.864   4.024
 3223TIP3   OH2 9674   5.274   0.153   4.713
 3223TIP3    H1 9675   5.222   0.165   4.634
 3223TIP3    H2 9676   5.344   0.094   4.687
 3224TIP3   OH2 9677   5.857   1.172   0.501
 3224TIP3    H1 9678   5.911   1.095   0.520
 3224TIP3    H2 9679   5.830   1.160   0.410
 3225TIP3   OH2 9680   4.727   1.604   1.686
 3225TIP3    H1 9681   4.667   1.598   1.761
 3225TIP3    H2 9682   4.669   1.618   1.611
 3226TIP3   OH2 9683   2.338   3.083   2.027
 3226TIP3    H1 9684   2.349   3.171   2.062
 3226TIP3    H2 9685   2.350   3.093   1.933
 3227TIP3   OH2 9686   0.813   0.329   4.678
 3227TIP3    H1 9687   0.822   0.238   4.650
 3227TIP3    H2 9688   0.890   0.373   4.641
 3228TIP3   OH2 9689   1.767   0.280   0.170
 3228TIP3    H1 9690   1.771   0.185   0.164
 3228TIP3    H2 9691   1.802   0.300   0.257
 3229TIP3   OH2 9692   1.612   2.042   2.603
 3229TIP3    H1 9693   1.517   2.042   2.602
 3229TIP3    H2 9694   1.638   2.018   2.514
 3230TIP3   OH2 9695   4.514   4.641   0.750
 3230TIP3    H1 9696   4.595   4.656   0.798
 3230TIP3    H2 9697   4.446   4.683   0.803
 3231TIP3   OH2 9698   1.038   5.157   2.606
 3231TIP3    H1 9699   1.051   5.181   2.514
 3231TIP3    H2 9700   1.024   5.241   2.650
 3232TIP3   OH2 9701   3.855   4.429   3.786
 3232TIP3    H1 9702   3.921   4.482   3.742
 3232TIP3    H2 9703   3.792   4.492   3.820
 3233TIP3   OH2 9704   5.454   4.691   0.297
 3233TIP3    H1 9705   5.439   4.783   0.278
 3233TIP3    H2 9706   5.525   4.690   0.361
 3234TIP3   OH2 9707   5.042   4.388   1.252
 3234TIP3    H1 9708   5.111   4.322   1.257
 3234TIP3    H2 9709   5.067   4.444   1.179
 3235TIP3   OH2 9710   1.130   4.725   0.260
 3235TIP3    H1 9711   1.182   4.805   0.267
 3235TIP3    H2 9712   1.174   4.662   0.316
 3236TIP3   OH2 9713   0.024   5.412   2.866
 3236TIP3    H1 9714  -0.003   5.371   2.948
 3236TIP3    H2 9715  -0.039   5.483   2.852
 3237TIP3   OH2 9716   5.994   5.998   0.105
 3237TIP3    H1 9717   5.990   5.976   0.012
 3237TIP3    H2 9718   5.924   5.946   0.145
 3238TIP3   OH2 9719   5.830   1.236   1.926
 3238TIP3    H1 9720   5.862   1.147   1.914
 3238TIP3    H2 9721   5.763   1.247   1.859
 3239TIP3   OH2 9722   4.694   5.523   4.946
 3239TIP3    H1 9723   4.688   5.617   4.931
 3239TIP3    H2 9724   4.735   5.489   4.866
 3240TIP3   OH2 9725   3.297   0.060   4.536
 3240TIP3    H1 9726   3.244   0.123   4.488
 3240TIP3    H2 9727   3.387   0.093   4.528
 3241TIP3   OH2 9728   3.168   3.467   3.614
 3241TIP3    H1 9729   3.162   3.461   3.709
 3241TIP3    H2 9730   3.081   3.494   3.585
 3242TIP3   OH2 9731   0.044   1.210   0.174
 3242TIP3    H1 9732   0.016   1.297   0.204
 3242TIP3    H2 9733   0.138   1.208   0.192
 3243TIP3   OH2 9734   1.441   4.567   0.188
 3243TIP3    H1 9735   1.359   4.556   0.140
 3243TIP3    H2 9736   1.503   4.508   0.145
 3244TIP3   OH2 9737   4.079   4.782   1.565
 3244TIP3    H1 9738   4.060   4.862   1.614
 3244TIP3    H2 9739   3.995   4.754   1.530
 3245TIP3   OH2 9740   2.648   2.750   3.526
 3245TIP3    H1 9741   2.726   2.710   3.565
 3245TIP3    H2 9742   2.681   2.829   3.483
 3246TIP3   OH2 9743   3.193   3.934   2.316
 3246TIP3    H1 9744   3.116   3.880   2.301
 3246TIP3    H2 9745   3.223   3.910   2.403
 3247TIP3   OH2 9746   3.230   1.986   1.411
 3247TIP3    H1 9747   3.173   1.948   1.344
 3247TIP3    H2 9748   3.193   2.073   1.427
 3248TIP3   OH2 9749   5.147   4.782   2.814
 3248TIP3    H1 9750   5.199   4.710   2.778
 3248TIP3    H2 9751   5.169   4.783   2.907
 3249TIP3   OH2 9752   4.534   1.720   4.915
 3249TIP3    H1 9753   4.565   1.786   4.978
 3249TIP3    H2 9754   4.511   1.770   4.837
 3250TIP3   OH2 9755   2.622   3.790   1.099
 3250TIP3    H1 9756   2.696   3.779   1.040
 3250TIP3    H2 9757   2.651   3.855   1.163
 3251TIP3   OH2 9758   4.611   4.349   5.039
 3251TIP3    H1 9759   4.563   4.270   5.014
 3251TIP3    H2 9760   4.687   4.350   4.980
 3252TIP3   OH2 9761   4.202   2.715   3.016
 3252TIP3    H1 9762   4.227   2.788   2.959
 3252TIP3    H2 9763   4.267   2.646   2.996
 3253TIP3   OH2 9764   2.937   1.641   0.974
 3253TIP3    H1 9765   3.006   1.707   0.985
 3253TIP3    H2 9766   2.888   1.643   1.056
 3254TIP3   OH2 9767   5.887   2.394   0.318
 3254TIP3    H1 9768   5.957   2.342   0.278
 3254TIP3    H2 9769   5.832   2.329   0.362
 3255TIP3   OH2 9770   3.910   0.995   2.187
 3255TIP3    H1 9771   3.902   1.060   2.117
 3255TIP3    H2 9772   3.997   1.011   2.224
 3256TIP3   OH2 9773   2.130   2.666   4.542
 3256TIP3    H1 9774   2.121   2.761   4.549
 3256TIP3    H2 9775   2.044   2.632   4.568
 3257TIP3   OH2 9776   2.777   0.505   3.205
 3257TIP3    H1 9777   2.779   0.443   3.279
 3257TIP3    H2 9778   2.725   0.461   3.138
 3258TIP3   OH2 9779   3.495   3.816   1.234
 3258TIP3    H1 9780   3.468   3.907   1.227
 3258TIP3    H2 9781   3.555   3.802   1.160
 3259TIP3   OH2 9782   3.791   1.731   1.905
 3259TIP3    H1 9783   3.785   1.647   1.861
 3259TIP3    H2 9784   3.748   1.793   1.846
 3260TIP3   OH2 9785   3.886   2.097   3.200
 3260TIP3    H1 9786   3.814   2.043   3.232
 3260TIP3    H2 9787   3.849   2.185   3.193
 3261TIP3   OH2 9788   5.349   2.182   4.560
 3261TIP3    H1 9789   5.403   2.248   4.518
 3261TIP3    H2 9790   5.345   2.209   4.652
 3262TIP3   OH2 9791   3.150   2.072   3.317
 3262TIP3    H1 9792   3.176   2.073   3.225
 3262TIP3    H2 9793   3.108   1.988   3.330
 3263TIP3   OH2 9794   1.854   5.907   0.885
 3263TIP3    H1 9795   1.918   5.950   0.828
 3263TIP3    H2 9796   1.802   5.853   0.826
 3264TIP3   OH2 9797   1.951   5.540   0.761
 3264TIP3    H1 9798   1.931   5.489   0.840
 3264TIP3    H2 9799   1.866   5.577   0.735
 3265TIP3   OH2 9800   5.197   2.764   1.985
 3265TIP3    H1 9801   5.224   2.675   1.960
 3265TIP3    H2 9802   5.270   2.798   2.036
 3266TIP3   OH2 9803   5.868   4.803   1.252
 3266TIP3    H1 9804   5.924   4.840   1.320
 3266TIP3    H2 9805   5.779   4.807   1.289
 3267TIP3   OH2 9806   3.790   2.113   2.698
 3267TIP3    H1 9807   3.765   2.034   2.745
 3267TIP3    H2 9808   3.749   2.104   2.612
 3268TIP3   OH2 9809   1.898   0.465   2.714
 3268TIP3    H1 9810   1.940   0.539   2.757
 3268TIP3    H2 9811   1.951   0.389   2.739
 3269TIP3   OH2 9812   4.578   1.284   3.567
 3269TIP3    H1 9813   4.578   1.190   3.583
 3269TIP3    H2 9814   4.582   1.292   3.472
 3270TIP3   OH2 9815   4.646   4.152   0.870
 3270TIP3    H1 9816   4.617   4.207   0.797
 3270TIP3    H2 9817   4.717   4.202   0.910
 3271TIP3   OH2 9818   2.060   2.979   0.111
 3271TIP3    H1 9819   2.069   3.017   0.024
 3271TIP3    H2 9820   2.113   3.037   0.167
 3272TIP3   OH2 9821   2.126   0.814   4.115
 3272TIP3    H1 9822   2.118   0.720   4.100
 3272TIP3    H2 9823   2.194   0.842   4.053
 3273TIP3   OH2 9824   4.676   2.361   1.023
 3273TIP3    H1 9825   4.604   2.381   0.963
 3273TIP3    H2 9826   4.633   2.324   1.100
 3274TIP3   OH2 9827   4.693   5.746   4.760
 3274TIP3    H1 9828   4.679   5.832   4.719
 3274TIP3    H2 9829   4.788   5.740   4.772
 3275TIP3   OH2 9830   4.901   1.100   3.565
 3275TIP3    H1 9831   4.864   1.011   3.567
 3275TIP3    H2 9832   4.878   1.137   3.650
 3276TIP3   OH2 9833   3.156   3.044   1.372
 3276TIP3    H1 9834   3.110   2.979   1.318
 3276TIP3    H2 9835   3.111   3.041   1.457
 3277TIP3   OH2 9836   3.345   1.918   2.335
 3277TIP3    H1 9837   3.309   1.944   2.419
 3277TIP3    H2 9838   3.284   1.953   2.270
 3278TIP3   OH2 9839   1.820   4.570   1.714
 3278TIP3    H1 9840   1.836   4.544   1.804
 3278TIP3    H2 9841   1.799   4.488   1.669
 3279TIP3   OH2 9842   1.185   5.939   3.182
 3279TIP3    H1 9843   1.144   5.981   3.258
 3279TIP3    H2 9844   1.210   6.012   3.126
 3280TIP3   OH2 9845   1.078   4.679   1.351
 3280TIP3    H1 9846   0.999   4.625   1.344
 3280TIP3    H2 9847   1.053   4.763   1.315
 3281TIP3   OH2 9848   3.402   5.894   3.732
 3281TIP3    H1 9849   3.328   5.879   3.674
 3281TIP3    H2 9850   3.377   5.855   3.815
 3282TIP3   OH2 9851   1.959   1.720   4.857
 3282TIP3    H1 9852   2.002   1.658   4.798
 3282TIP3    H2 9853   1.899   1.667   4.908
 3283TIP3   OH2 9854   2.744   5.275   1.497
 3283TIP3    H1 9855   2.761   5.363   1.464
 3283TIP3    H2 9856   2.825   5.226   1.482
 3284TIP3   OH2 9857   5.053   0.194   1.655
 3284TIP3    H1 9858   4.976   0.175   1.602
 3284TIP3    H2 9859   5.035   0.153   1.740
 3285TIP3   OH2 9860   4.316   3.103   0.697
 3285TIP3    H1 9861   4.270   3.045   0.637
 3285TIP3    H2 9862   4.354   3.171   0.641
 3286TIP3   OH2 9863   4.266   1.386   1.058
 3286TIP3    H1 9864   4.278   1.481   1.059
 3286TIP3    H2 9865   4.294   1.359   0.971
 3287TIP3   OH2 9866   1.463   5.547   3.629
 3287TIP3    H1 9867   1.433   5.522   3.717
 3287TIP3    H2 9868   1.386   5.588   3.589
 3288TIP3   OH2 9869   1.052   3.710   3.009
 3288TIP3    H1 9870   1.001   3.637   2.974
 3288TIP3    H2 9871   1.030   3.785   2.954
 3289TIP3   OH2 9872   2.594   1.738   2.126
 3289TIP3    H1 9873   2.518   1.686   2.101
 3289TIP3    H2 9874   2.581   1.822   2.081
 3290TIP3   OH2 9875   3.372   4.785   4.696
 3290TIP3    H1 9876   3.464   4.808   4.707
 3290TIP3    H2 9877   3.365   4.698   4.735
 3291TIP3   OH2 9878   5.072   4.449   1.935
 3291TIP3    H1 9879   4.991   4.487   1.971
 3291TIP3    H2 9880   5.136   4.520   1.940
 3292TIP3   OH2 9881   2.084   0.197   3.873
 3292TIP3    H1 9882   2.028   0.274   3.884
 3292TIP3    H2 9883   2.139   0.197   3.951
 3293TIP3   OH2 9884   3.663   2.634   2.991
 3293TIP3    H1 9885   3.657   2.672   3.079
 3293TIP3    H2 9886   3.742   2.580   2.994
 3294TIP3   OH2 9887   4.259   5.995   1.887
 3294TIP3    H1 9888   4.287   5.919   1.938
 3294TIP3    H2 9889   4.218   5.957   1.809
 3295TIP3   OH2 9890   1.547   1.821   1.576
 3295TIP3    H1 9891   1.589   1.875   1.643
 3295TIP3    H2 9892   1.470   1.872   1.549
 3296TIP3   OH2 9893   5.334   2.841   0.458
 3296TIP3    H1 9894   5.276   2.857   0.532
 3296TIP3    H2 9895   5.318   2.749   0.435
 3297TIP3   OH2 9896   1.822   1.447   2.465
 3297TIP3    H1 9897   1.791   1.535   2.485
 3297TIP3    H2 9898   1.838   1.447   2.370
 3298TIP3   OH2 9899   1.999   1.115   4.464
 3298TIP3    H1 9900   2.092   1.116   4.486
 3298TIP3    H2 9901   1.979   1.022   4.448
 3299TIP3   OH2 9902   1.775   5.819   0.429
 3299TIP3    H1 9903   1.860   5.863   0.426
 3299TIP3    H2 9904   1.783   5.746   0.368
 3300TIP3   OH2 9905   4.978   3.942   1.919
 3300TIP3    H1 9906   5.049   4.004   1.902
 3300TIP3    H2 9907   4.911   3.965   1.854
 3301TIP3   OH2 9908   2.576   1.186   2.812
 3301TIP3    H1 9909   2.537   1.100   2.805
 3301TIP3    H2 9910   2.646   1.186   2.746
 3302TIP3   OH2 9911   5.253   2.992   0.203
 3302TIP3    H1 9912   5.263   2.958   0.291
 3302TIP3    H2 9913   5.203   3.073   0.213
 3303TIP3   OH2 9914   0.113   4.016   4.637
 3303TIP3    H1 9915   0.089   4.099   4.596
 3303TIP3    H2 9916   0.131   3.958   4.563
 3304TIP3   OH2 9917   5.814   3.629   3.141
 3304TIP3    H1 9918   5.872   3.647   3.067
 3304TIP3    H2 9919   5.848   3.547   3.178
 3305TIP3   OH2 9920   6.018   4.683   4.700
 3305TIP3    H1 9921   6.087   4.633   4.744
 3305TIP3    H2 9922   6.017   4.648   4.611
 3306TIP3   OH2 9923   1.413   3.266   1.067
 3306TIP3    H1 9924   1.369   3.350   1.058
 3306TIP3    H2 9925   1.424   3.255   1.162
 3307TIP3   OH2 9926   5.552   3.503   1.498
 3307TIP3    H1 9927   5.549   3.467   1.409
 3307TIP3    H2 9928   5.477   3.563   1.502
 3308TIP3   OH2 9929   1.592   5.238   3.731
 3308TIP3    H1 9930   1.602   5.287   3.650
 3308TIP3    H2 9931   1.589   5.305   3.799
 3309TIP3   OH2 9932   5.935   1.369   3.802
 3309TIP3    H1 9933   5.975   1.450   3.835
 3309TIP3    H2 9934   5.966   1.302   3.863
 3310TIP3   OH2 9935   2.245   1.111   0.486
 3310TIP3    H1 9936   2.238   1.206   0.478
 3310TIP3    H2 9937   2.339   1.094   0.483
 3311TIP3   OH2 9938   4.631   2.004   1.840
 3311TIP3    H1 9939   4.678   2.010   1.757
 3311TIP3    H2 9940   4.538   2.010   1.815
 3312TIP3   OH2 9941   5.312   3.572   0.460
 3312TIP3    H1 9942   5.287   3.497   0.406
 3312TIP3    H2 9943   5.332   3.641   0.397
 3313TIP3   OH2 9944   5.310   4.752   1.348
 3313TIP3    H1 9945   5.219   4.773   1.326
 3313TIP3    H2 9946   5.329   4.673   1.298
 3314TIP3   OH2 9947   3.264   4.893   1.778
 3314TIP3    H1 9948   3.309   4.814   1.747
 3314TIP3    H2 9949   3.208   4.861   1.849
 3315TIP3   OH2 9950   2.211   1.406   1.983
 3315TIP3    H1 9951   2.201   1.320   1.941
 3315TIP3    H2 9952   2.169   1.397   2.068
 3316TIP3   OH2 9953   4.884   2.693   1.721
 3316TIP3    H1 9954   4.802   2.666   1.761
 3316TIP3    H2 9955   4.935   2.612   1.713
 3317TIP3   OH2 9956   4.588   0.763   4.913
 3317TIP3    H1 9957   4.664   0.752   4.855
 3317TIP3    H2 9958   4.513   0.764   4.854
 3318TIP3   OH2 9959   2.506   3.900   4.078
 3318TIP3    H1 9960   2.466   3.823   4.037
 3318TIP3    H2 9961   2.589   3.911   4.032
 3319TIP3   OH2 9962   2.744   2.996   3.942
 3319TIP3    H1 9963   2.718   3.045   3.864
 3319TIP3    H2 9964   2.688   3.030   4.012
 3320TIP3   OH2 9965   0.571   5.785   3.380
 3320TIP3    H1 9966   0.666   5.769   3.381
 3320TIP3    H2 9967   0.534   5.708   3.338
 3321TIP3   OH2 9968   3.558   1.835   5.138
 3321TIP3    H1 9969   3.603   1.897   5.196
 3321TIP3    H2 9970   3.465   1.852   5.153
 3322TIP3   OH2 9971   2.729   0.942   1.970
 3322TIP3    H1 9972   2.724   0.973   2.060
 3322TIP3    H2 9973   2.821   0.954   1.946
 3323TIP3   OH2 9974   1.788   5.652   1.080
 3323TIP3    H1 9975   1.736   5.681   1.005
 3323TIP3    H2 9976   1.851   5.590   1.043
 3324TIP3   OH2 9977   5.633   2.085   4.543
 3324TIP3    H1 9978   5.610   2.168   4.586
 3324TIP3    H2 9979   5.552   2.055   4.503
 3325TIP3   OH2 9980   3.737   1.254   4.299
 3325TIP3    H1 9981   3.776   1.282   4.217
 3325TIP3    H2 9982   3.807   1.259   4.363
 3326TIP3   OH2 9983   4.286   3.005   3.941
 3326TIP3    H1 9984   4.367   3.041   3.903
 3326TIP3    H2 9985   4.287   2.913   3.917
 3327TIP3   OH2 9986   2.615   0.737   1.441
 3327TIP3    H1 9987   2.539   0.769   1.489
 3327TIP3    H2 9988   2.668   0.691   1.506
 3328TIP3   OH2 9989   2.855   0.572   0.730
 3328TIP3    H1 9990   2.857   0.628   0.807
 3328TIP3    H2 9991   2.773   0.594   0.685
 3329TIP3   OH2 9992   2.381   5.924   0.554
 3329TIP3    H1 9993   2.415   5.855   0.498
 3329TIP3    H2 9994   2.381   6.002   0.499
 3330TIP3   OH2 9995   1.095   2.999   1.837
 3330TIP3    H1 9996   1.056   2.953   1.911
 3330TIP3    H2 9997   1.169   3.047   1.874
 3331TIP3   OH2 9998   5.534   4.942   1.597
 3331TIP3    H1 9999   5.459   4.890   1.627
 3331TIP3    H210000   5.599   4.931   1.667
 3332TIP3   OH210001   3.583   4.035   4.145
 3332TIP3    H110002   3.663   4.082   4.119
 3332TIP3    H210003   3.614   3.961   4.197
 3333TIP3   OH210004   1.814   1.737   4.365
 3333TIP3    H110005   1.718   1.741   4.361
 3333TIP3    H210006   1.835   1.749   4.457
 3334TIP3   OH210007   1.165   0.062   2.709
 3334TIP3    H110008   1.150  -0.032   2.698
 3334TIP3    H210009   1.182   0.073   2.803
 3335TIP3   OH210010   2.026   0.042   4.208
 3335TIP3    H110011   2.104   0.074   4.162
 3335TIP3    H210012   2.054  -0.041   4.247
 3336TIP3   OH210013   3.695   3.848   4.567
 3336TIP3    H110014   3.688   3.866   4.473
 3336TIP3    H210015   3.734   3.928   4.603
 3337TIP3   OH210016   1.424   0.156   3.166
 3337TIP3    H110017   1.443   0.069   3.131
 3337TIP3    H210018   1.336   0.148   3.203
 3338TIP3   OH210019   2.165   3.862   1.880
 3338TIP3    H110020   2.177   3.837   1.972
 3338TIP3    H210021   2.166   3.779   1.832
 3339TIP3   OH210022   2.836   1.393   1.437
 3339TIP3    H110023   2.922   1.369   1.403
 3339TIP3    H210024   2.776   1.375   1.365
 3340TIP3   OH210025   3.176   3.819   2.001
 3340TIP3    H110026   3.083   3.803   2.020
 3340TIP3    H210027   3.183   3.913   1.990
 3341TIP3   OH210028   3.112   1.784   3.341
 3341TIP3    H110029   3.141   1.742   3.260
 3341TIP3    H210030   3.024   1.749   3.356
 3342TIP3   OH210031   5.415   0.821   2.383
 3342TIP3    H110032   5.402   0.900   2.331
 3342TIP3    H210033   5.503   0.792   2.361
 3343TIP3   OH210034   1.142   2.742   4.510
 3343TIP3    H110035   1.228   2.715   4.479
 3343TIP3    H210036   1.120   2.819   4.457
 3344TIP3   OH210037   5.441   5.798   2.546
 3344TIP3    H110038   5.392   5.856   2.487
 3344TIP3    H210039   5.532   5.825   2.534
 3345TIP3   OH210040   5.380   3.878   1.202
 3345TIP3    H110041   5.310   3.870   1.137
 3345TIP3    H210042   5.334   3.903   1.283
 3346TIP3   OH210043   0.102   4.447   4.757
 3346TIP3    H110044   0.159   4.453   4.681
 3346TIP3    H210045   0.154   4.401   4.823
 3347TIP3   OH210046   3.152   3.170   5.097
 3347TIP3    H110047   3.213   3.107   5.136
 3347TIP3    H210048   3.068   3.125   5.097
 3348TIP3   OH210049   1.478   0.138   0.384
 3348TIP3    H110050   1.436   0.053   0.399
 3348TIP3    H210051   1.567   0.128   0.417
 3349TIP3   OH210052   0.910   4.199   4.425
 3349TIP3    H110053   0.967   4.274   4.408
 3349TIP3    H210054   0.948   4.157   4.502
 3350TIP3   OH210055   0.084   0.485   3.115
 3350TIP3    H110056   0.166   0.437   3.131
 3350TIP3    H210057   0.091   0.514   3.024
 3351TIP3   OH210058   3.278   3.456   3.127
 3351TIP3    H110059   3.374   3.461   3.123
 3351TIP3    H210060   3.252   3.436   3.037
 3352TIP3   OH210061   4.064   3.754   3.726
 3352TIP3    H110062   3.969   3.748   3.712
 3352TIP3    H210063   4.084   3.847   3.715
 3353TIP3   OH210064   4.989   4.342   4.494
 3353TIP3    H110065   4.943   4.286   4.431
 3353TIP3    H210066   4.921   4.397   4.532
 3354TIP3   OH210067   3.281   3.833   2.568
 3354TIP3    H110068   3.323   3.898   2.623
 3354TIP3    H210069   3.235   3.776   2.629
 3355TIP3   OH210070   1.769   0.774   2.790
 3355TIP3    H110071   1.683   0.739   2.816
 3355TIP3    H210072   1.829   0.744   2.859
 3356TIP3   OH210073   3.501   3.713   1.530
 3356TIP3    H110074   3.490   3.620   1.548
 3356TIP3    H210075   3.458   3.727   1.446
 3357TIP3   OH210076   1.899   4.272   2.783
 3357TIP3    H110077   1.811   4.259   2.820
 3357TIP3    H210078   1.910   4.199   2.722
 3358TIP3   OH210079   2.758   5.943   3.309
 3358TIP3    H110080   2.707   5.892   3.246
 3358TIP3    H210081   2.849   5.917   3.292
 3359TIP3   OH210082   3.283   2.240   2.664
 3359TIP3    H110083   3.196   2.278   2.677
 3359TIP3    H210084   3.343   2.300   2.708
 3360TIP3   OH210085   2.408   0.327   3.141
 3360TIP3    H110086   2.412   0.302   3.233
 3360TIP3    H210087   2.376   0.417   3.142
 3361TIP3   OH210088   1.317   0.563   4.196
 3361TIP3    H110089   1.288   0.611   4.273
 3361TIP3    H210090   1.236   0.537   4.151
 3362TIP3   OH210091   1.609   5.041   4.195
 3362TIP3    H110092   1.683   5.094   4.167
 3362TIP3    H210093   1.571   5.007   4.114
 3363TIP3   OH210094   3.720   1.186   5.134
 3363TIP3    H110095   3.650   1.207   5.072
 3363TIP3    H210096   3.733   1.092   5.124
 3364TIP3   OH210097   3.343   0.750   3.480
 3364TIP3    H110098   3.432   0.767   3.452
 3364TIP3    H210099   3.349   0.672   3.536
 3365TIP3   OH210100   6.159   3.736   3.732
 3365TIP3    H110101   6.238   3.771   3.692
 3365TIP3    H210102   6.126   3.672   3.669
 3366TIP3   OH210103   3.646   3.350   2.701
 3366TIP3    H110104   3.727   3.305   2.724
 3366TIP3    H210105   3.577   3.285   2.714
 3367TIP3   OH210106   4.655   4.248   3.860
 3367TIP3    H110107   4.590   4.300   3.909
 3367TIP3    H210108   4.710   4.313   3.817
 3368TIP3   OH210109   1.719   4.872   0.629
 3368TIP3    H110110   1.673   4.954   0.648
 3368TIP3    H210111   1.666   4.829   0.562
 3369TIP3   OH210112   4.492   3.867   4.920
 3369TIP3    H110113   4.421   3.895   4.862
 3369TIP3    H210114   4.449   3.819   4.990
 3370TIP3   OH210115   3.057   2.233   1.412
 3370TIP3    H110116   3.020   2.303   1.358
 3370TIP3    H210117   3.125   2.276   1.463
 3371TIP3   OH210118   3.601   2.874   4.796
 3371TIP3    H110119   3.556   2.799   4.835
 3371TIP3    H210120   3.615   2.934   4.870
 3372TIP3   OH210121   4.015   3.921   0.950
 3372TIP3    H110122   4.003   3.848   0.889
 3372TIP3    H210123   4.054   3.881   1.028
 3373TIP3   OH210124   4.868   4.245   4.252
 3373TIP3    H110125   4.786   4.223   4.209
 3373TIP3    H210126   4.923   4.167   4.240
 3374TIP3   OH210127   1.017   5.307   4.476
 3374TIP3    H110128   1.038   5.320   4.384
 3374TIP3    H210129   0.924   5.330   4.483
 3375TIP3   OH210130   6.295   3.430   3.458
 3375TIP3    H110131   6.340   3.431   3.542
 3375TIP3    H210132   6.281   3.522   3.437
 3376TIP3   OH210133   2.496   4.522   3.074
 3376TIP3    H110134   2.530   4.496   3.159
 3376TIP3    H210135   2.413   4.566   3.093
 3377TIP3   OH210136   5.309   5.698   0.853
 3377TIP3    H110137   5.216   5.689   0.829
 3377TIP3    H210138   5.310   5.766   0.920
 3378TIP3   OH210139   6.293   4.233   5.083
 3378TIP3    H110140   6.208   4.248   5.041
 3378TIP3    H210141   6.316   4.317   5.122
 3379TIP3   OH210142   1.934   4.718   0.306
 3379TIP3    H110143   1.902   4.634   0.338
 3379TIP3    H210144   1.884   4.733   0.226
 3380TIP3   OH210145   4.356   1.184   1.959
 3380TIP3    H110146   4.377   1.134   1.880
 3380TIP3    H210147   4.436   1.179   2.012
 3381TIP3   OH210148   4.180   0.972   4.496
 3381TIP3    H110149   4.117   0.932   4.556
 3381TIP3    H210150   4.141   0.962   4.409
 3382TIP3   OH210151   3.938   4.812   2.197
 3382TIP3    H110152   3.889   4.731   2.216
 3382TIP3    H210153   3.909   4.836   2.109
 3383TIP3   OH210154   4.669   2.918   0.349
 3383TIP3    H110155   4.592   2.975   0.349
 3383TIP3    H210156   4.662   2.869   0.431
 3384TIP3   OH210157   3.878   0.922   3.297
 3384TIP3    H110158   3.881   0.846   3.239
 3384TIP3    H210159   3.930   0.988   3.252
 3385TIP3   OH210160   2.401   2.715   4.124
 3385TIP3    H110161   2.454   2.638   4.103
 3385TIP3    H210162   2.341   2.684   4.192
 3386TIP3   OH210163   3.808   0.277   0.613
 3386TIP3    H110164   3.847   0.309   0.531
 3386TIP3    H210165   3.808   0.182   0.603
 3387TIP3   OH210166   2.893   1.096   1.164
 3387TIP3    H110167   2.823   1.104   1.099
 3387TIP3    H210168   2.940   1.179   1.159
 3388TIP3   OH210169   1.400   4.800   1.185
 3388TIP3    H110170   1.315   4.843   1.177
 3388TIP3    H210171   1.443   4.844   1.258
 3389TIP3   OH210172   2.594   1.517   0.734
 3389TIP3    H110173   2.553   1.430   0.731
 3389TIP3    H210174   2.565   1.560   0.654
 3390TIP3   OH210175   6.061   5.888   1.119
 3390TIP3    H110176   6.150   5.918   1.140
 3390TIP3    H210177   6.013   5.902   1.201
 3391TIP3   OH210178   2.088   5.720   2.694
 3391TIP3    H110179   2.012   5.670   2.723
 3391TIP3    H210180   2.162   5.659   2.702
 3392TIP3   OH210181   3.859   1.593   0.604
 3392TIP3    H110182   3.937   1.569   0.554
 3392TIP3    H210183   3.893   1.648   0.675
 3393TIP3   OH210184   2.875   3.216   0.142
 3393TIP3    H110185   2.930   3.206   0.219
 3393TIP3    H210186   2.786   3.197   0.172
 3394TIP3   OH210187   4.359   4.120   0.988
 3394TIP3    H110188   4.430   4.147   0.929
 3394TIP3    H210189   4.279   4.132   0.937
 3395TIP3   OH210190   2.451   5.077   0.276
 3395TIP3    H110191   2.529   5.021   0.277
 3395TIP3    H210192   2.443   5.107   0.367
 3396TIP3   OH210193   2.665   5.119   3.010
 3396TIP3    H110194   2.649   5.202   3.055
 3396TIP3    H210195   2.757   5.123   2.984
 3397TIP3   OH210196   4.455   5.606   4.636
 3397TIP3    H110197   4.383   5.666   4.614
 3397TIP3    H210198   4.527   5.664   4.662
 3398TIP3   OH210199   4.994   3.954   2.803
 3398TIP3    H110200   4.920   3.947   2.864
 3398TIP3    H210201   5.067   3.913   2.849
 3399TIP3   OH210202   0.638   0.059   0.886
 3399TIP3    H110203   0.649  -0.001   0.960
 3399TIP3    H210204   0.714   0.044   0.831
 3400TIP3   OH210205   4.726   1.964   4.703
 3400TIP3    H110206   4.781   1.897   4.663
 3400TIP3    H210207   4.783   2.041   4.708
 3401TIP3   OH210208   6.240   4.869   3.602
 3401TIP3    H110209   6.320   4.816   3.598
 3401TIP3    H210210   6.174   4.811   3.641
 3402TIP3   OH210211   2.839   2.594   3.128
 3402TIP3    H110212   2.794   2.536   3.190
 3402TIP3    H210213   2.889   2.654   3.184
 3403TIP3   OH210214   2.117   1.391   3.567
 3403TIP3    H110215   2.045   1.372   3.627
 3403TIP3    H210216   2.098   1.340   3.489
 3404TIP3   OH210217   1.475   1.518   1.647
 3404TIP3    H110218   1.411   1.558   1.706
 3404TIP3    H210219   1.484   1.581   1.576
 3405TIP3   OH210220   0.155   2.972   3.383
 3405TIP3    H110221   0.127   2.994   3.471
 3405TIP3    H210222   0.112   3.036   3.326
 3406TIP3   OH210223   2.041   1.457   5.116
 3406TIP3    H110224   2.107   1.456   5.046
 3406TIP3    H210225   1.959   1.435   5.071
 3407TIP3   OH210226   3.654   5.385   2.726
 3407TIP3    H110227   3.730   5.361   2.672
 3407TIP3    H210228   3.592   5.313   2.712
 3408TIP3   OH210229   3.098   0.424   4.689
 3408TIP3    H110230   3.142   0.405   4.773
 3408TIP3    H210231   3.149   0.496   4.652
 3409TIP3   OH210232   4.125   1.254   4.565
 3409TIP3    H110233   4.159   1.171   4.530
 3409TIP3    H210234   4.108   1.236   4.657
 3410TIP3   OH210235   3.359   0.458   3.558
 3410TIP3    H110236   3.419   0.414   3.498
 3410TIP3    H210237   3.274   0.417   3.543
 3411TIP3   OH210238   4.934   3.989   3.222
 3411TIP3    H110239   4.868   3.935   3.178
 3411TIP3    H210240   5.017   3.944   3.204
 3412TIP3   OH210241   5.939   1.024   4.236
 3412TIP3    H110242   5.855   1.038   4.279
 3412TIP3    H210243   6.003   1.022   4.307
 3413TIP3   OH210244   1.665   4.908   4.432
 3413TIP3    H110245   1.638   4.928   4.342
 3413TIP3    H210246   1.742   4.964   4.446
 3414TIP3   OH210247   5.231   2.228   0.097
 3414TIP3    H110248   5.286   2.191   0.029
 3414TIP3    H210249   5.179   2.295   0.053
 3415TIP3   OH210250   4.365   5.628   1.760
 3415TIP3    H110251   4.369   5.699   1.695
 3415TIP3    H210252   4.401   5.552   1.715
 3416TIP3   OH210253   3.204   4.106   0.852
 3416TIP3    H110254   3.284   4.056   0.866
 3416TIP3    H210255   3.183   4.141   0.939
 3417TIP3   OH210256   3.011   5.611   0.049
 3417TIP3    H110257   3.024   5.579  -0.040
 3417TIP3    H210258   3.030   5.704   0.045
 3418TIP3   OH210259   0.499   2.348   0.243
 3418TIP3    H110260   0.563   2.356   0.173
 3418TIP3    H210261   0.502   2.432   0.288
 3419TIP3   OH210262   1.990   2.699   1.227
 3419TIP3    H110263   2.002   2.706   1.322
 3419TIP3    H210264   1.954   2.784   1.202
 3420TIP3   OH210265   5.293   2.527   3.622
 3420TIP3    H110266   5.310   2.509   3.530
 3420TIP3    H210267   5.355   2.596   3.645
 3421TIP3   OH210268   6.118   5.279   0.856
 3421TIP3    H110269   6.117   5.286   0.761
 3421TIP3    H210270   6.202   5.317   0.882
 3422TIP3   OH210271   4.547   0.977   3.915
 3422TIP3    H110272   4.559   0.882   3.920
 3422TIP3    H210273   4.614   1.012   3.974
 3423TIP3   OH210274   2.157   1.785   3.690
 3423TIP3    H110275   2.179   1.712   3.747
 3423TIP3    H210276   2.194   1.761   3.605
 3424TIP3   OH210277   3.621   1.430   2.473
 3424TIP3    H110278   3.619   1.504   2.412
 3424TIP3    H210279   3.568   1.459   2.547
 3425TIP3   OH210280   3.131   0.262   3.567
 3425TIP3    H110281   3.039   0.235   3.563
 3425TIP3    H210282   3.160   0.232   3.653
 3426TIP3   OH210283   2.493   2.002   1.977
 3426TIP3    H110284   2.556   2.028   1.910
 3426TIP3    H210285   2.424   1.956   1.929
 3427TIP3   OH210286   5.328   5.367   1.708
 3427TIP3    H110287   5.345   5.442   1.764
 3427TIP3    H210288   5.414   5.339   1.676
 3428TIP3   OH210289   4.833   2.409   2.956
 3428TIP3    H110290   4.822   2.456   2.874
 3428TIP3    H210291   4.756   2.353   2.963
 3429TIP3   OH210292   2.710   3.380   5.166
 3429TIP3    H110293   2.729   3.433   5.088
 3429TIP3    H210294   2.793   3.337   5.187
 3430TIP3   OH210295   0.164   4.959   3.751
 3430TIP3    H110296   0.164   4.973   3.845
 3430TIP3    H210297   0.105   4.885   3.736
 3431TIP3   OH210298   4.949   4.410   3.021
 3431TIP3    H110299   4.916   4.358   2.948
 3431TIP3    H210300   4.943   4.352   3.097
 3432TIP3   OH210301   3.579   0.334   2.655
 3432TIP3    H110302   3.648   0.297   2.600
 3432TIP3    H210303   3.530   0.392   2.596
 3433TIP3   OH210304   5.675   2.111   1.639
 3433TIP3    H110305   5.738   2.118   1.568
 3433TIP3    H210306   5.662   2.017   1.651
 3434TIP3   OH210307   5.123   2.345   1.487
 3434TIP3    H110308   5.085   2.265   1.450
 3434TIP3    H210309   5.218   2.331   1.483
 3435TIP3   OH210310   5.861   5.189   1.356
 3435TIP3    H110311   5.913   5.240   1.294
 3435TIP3    H210312   5.925   5.140   1.408
 3436TIP3   OH210313   0.969   4.120   4.698
 3436TIP3    H110314   1.047   4.175   4.700
 3436TIP3    H210315   0.919   4.145   4.775
 3437TIP3   OH210316   5.776   4.812   5.016
 3437TIP3    H110317   5.725   4.882   4.975
 3437TIP3    H210318   5.733   4.731   4.986
 3438TIP3   OH210319   0.278   5.721   1.581
 3438TIP3    H110320   0.250   5.805   1.544
 3438TIP3    H210321   0.227   5.711   1.661
 3439TIP3   OH210322   1.495   1.675   0.489
 3439TIP3    H110323   1.493   1.609   0.420
 3439TIP3    H210324   1.417   1.728   0.474
 3440TIP3   OH210325   0.121   4.669   1.221
 3440TIP3    H110326   0.134   4.667   1.316
 3440TIP3    H210327   0.029   4.645   1.209
 3441TIP3   OH210328   0.145   0.869   4.779
 3441TIP3    H110329   0.064   0.916   4.800
 3441TIP3    H210330   0.179   0.840   4.863
 3442TIP3   OH210331   2.101   3.643   3.736
 3442TIP3    H110332   2.032   3.693   3.781
 3442TIP3    H210333   2.086   3.660   3.643
 3443TIP3   OH210334   5.873   3.714   0.949
 3443TIP3    H110335   5.954   3.663   0.954
 3443TIP3    H210336   5.805   3.649   0.932
 3444TIP3   OH210337   0.351   5.898   4.627
 3444TIP3    H110338   0.318   5.882   4.715
 3444TIP3    H210339   0.273   5.924   4.577
 3445TIP3   OH210340   1.271   1.188   4.641
 3445TIP3    H110341   1.274   1.269   4.589
 3445TIP3    H210342   1.363   1.171   4.663
 3446TIP3   OH210343   2.465   0.137   4.239
 3446TIP3    H110344   2.498   0.226   4.253
 3446TIP3    H210345   2.393   0.129   4.302
 3447TIP3   OH210346   4.652   2.555   1.737
 3447TIP3    H110347   4.637   2.532   1.829
 3447TIP3    H210348   4.565   2.571   1.702
 3448TIP3   OH210349   0.057   1.759   3.779
 3448TIP3    H110350   0.142   1.727   3.809
 3448TIP3    H210351  -0.001   1.683   3.787
 3449TIP3   OH210352   5.717   2.007   3.208
 3449TIP3    H110353   5.669   1.950   3.147
 3449TIP3    H210354   5.801   1.963   3.219
 3450TIP3   OH210355   0.158   3.207   0.292
 3450TIP3    H110356   0.120   3.192   0.205
 3450TIP3    H210357   0.214   3.131   0.307
 3451TIP3   OH210358   3.008   5.450   0.451
 3451TIP3    H110359   2.941   5.428   0.517
 3451TIP3    H210360   2.961   5.447   0.368
 3452TIP3   OH210361   5.777   0.630   2.590
 3452TIP3    H110362   5.783   0.610   2.684
 3452TIP3    H210363   5.853   0.685   2.573
 3453TIP3   OH210364   1.327   0.871   4.860
 3453TIP3    H110365   1.258   0.905   4.804
 3453TIP3    H210366   1.376   0.948   4.888
 3454TIP3   OH210367   1.240   5.509   1.869
 3454TIP3    H110368   1.209   5.539   1.784
 3454TIP3    H210369   1.170   5.532   1.930
 3455TIP3   OH210370   5.212   2.637   3.943
 3455TIP3    H110371   5.192   2.549   3.911
 3455TIP3    H210372   5.188   2.695   3.871
 3456TIP3   OH210373   0.188   4.202   2.498
 3456TIP3    H110374   0.280   4.219   2.478
 3456TIP3    H210375   0.189   4.133   2.564
 3457TIP3   OH210376   3.858   3.263   2.874
 3457TIP3    H110377   3.903   3.188   2.914
 3457TIP3    H210378   3.850   3.326   2.945
 3458TIP3   OH210379   1.501   3.342   4.285
 3458TIP3    H110380   1.491   3.437   4.286
 3458TIP3    H210381   1.415   3.309   4.313
 3459TIP3   OH210382   4.264   1.068   2.824
 3459TIP3    H110383   4.353   1.052   2.855
 3459TIP3    H210384   4.208   1.019   2.884
 3460TIP3   OH210385   0.620   3.093   2.239
 3460TIP3    H110386   0.628   3.186   2.218
 3460TIP3    H210387   0.544   3.064   2.189
 3461TIP3   OH210388   2.668   3.609   3.991
 3461TIP3    H110389   2.619   3.641   3.915
 3461TIP3    H210390   2.605   3.553   4.037
 3462TIP3   OH210391   3.629   3.216   0.589
 3462TIP3    H110392   3.648   3.161   0.665
 3462TIP3    H210393   3.659   3.304   0.615
 3463TIP3   OH210394   1.642   3.235   2.442
 3463TIP3    H110395   1.662   3.320   2.404
 3463TIP3    H210396   1.704   3.175   2.401
 3464TIP3   OH210397   0.746   2.138   3.321
 3464TIP3    H110398   0.683   2.068   3.340
 3464TIP3    H210399   0.805   2.099   3.255
 3465TIP3   OH210400   6.086   5.515   0.091
 3465TIP3    H110401   6.162   5.552   0.137
 3465TIP3    H210402   6.114   5.511   0.000
 3466TIP3   OH210403   5.690   1.701   3.321
 3466TIP3    H110404   5.595   1.696   3.328
 3466TIP3    H210405   5.718   1.743   3.402
 3467TIP3   OH210406   0.450   4.146   1.977
 3467TIP3    H110407   0.362   4.158   2.013
 3467TIP3    H210408   0.450   4.057   1.942
 3468TIP3   OH210409   0.796   0.493   3.893
 3468TIP3    H110410   0.735   0.458   3.828
 3468TIP3    H210411   0.763   0.462   3.977
 3469TIP3   OH210412   3.392   0.133   4.870
 3469TIP3    H110413   3.456   0.067   4.845
 3469TIP3    H210414   3.309   0.101   4.835
 3470TIP3   OH210415   1.891   2.584   3.020
 3470TIP3    H110416   1.911   2.658   3.079
 3470TIP3    H210417   1.795   2.584   3.014
 3471TIP3   OH210418   2.883   4.256   5.010
 3471TIP3    H110419   2.829   4.317   4.960
 3471TIP3    H210420   2.908   4.188   4.947
 3472TIP3   OH210421   1.244   3.459   1.248
 3472TIP3    H110422   1.226   3.391   1.313
 3472TIP3    H210423   1.158   3.488   1.219
 3473TIP3   OH210424   2.430   5.578   4.333
 3473TIP3    H110425   2.444   5.508   4.269
 3473TIP3    H210426   2.439   5.535   4.418
 3474TIP3   OH210427   4.661   0.338   1.655
 3474TIP3    H110428   4.586   0.312   1.709
 3474TIP3    H210429   4.669   0.432   1.668
 3475TIP3   OH210430   3.481   1.264   1.314
 3475TIP3    H110431   3.527   1.212   1.248
 3475TIP3    H210432   3.393   1.275   1.278
 3476TIP3   OH210433   3.443   2.434   2.775
 3476TIP3    H110434   3.433   2.491   2.852
 3476TIP3    H210435   3.455   2.494   2.702
 3477TIP3   OH210436   4.153   5.669   3.970
 3477TIP3    H110437   4.248   5.659   3.961
 3477TIP3    H210438   4.140   5.703   4.059
 3478TIP3   OH210439   2.598   3.339   2.051
 3478TIP3    H110440   2.585   3.245   2.063
 3478TIP3    H210441   2.690   3.354   2.076
 3479TIP3   OH210442   2.328   0.699   1.900
 3479TIP3    H110443   2.405   0.658   1.859
 3479TIP3    H210444   2.290   0.629   1.953
 3480TIP3   OH210445   1.153   5.225   0.622
 3480TIP3    H110446   1.215   5.268   0.682
 3480TIP3    H210447   1.069   5.231   0.667
 3481TIP3   OH210448   0.424   5.604   0.110
 3481TIP3    H110449   0.336   5.567   0.109
 3481TIP3    H210450   0.416   5.688   0.065
 3482TIP3   OH210451   3.577   4.505   3.222
 3482TIP3    H110452   3.622   4.570   3.168
 3482TIP3    H210453   3.548   4.553   3.299
 3483TIP3   OH210454   4.063   0.698   0.291
 3483TIP3    H110455   3.998   0.639   0.253
 3483TIP3    H210456   4.041   0.702   0.384
 3484TIP3   OH210457   3.812   3.961   3.660
 3484TIP3    H110458   3.888   3.986   3.712
 3484TIP3    H210459   3.738   3.969   3.720
 3485TIP3   OH210460   2.586   5.675   2.201
 3485TIP3    H110461   2.499   5.636   2.195
 3485TIP3    H210462   2.576   5.747   2.264
 3486TIP3   OH210463   0.805   5.741   0.227
 3486TIP3    H110464   0.729   5.791   0.256
 3486TIP3    H210465   0.774   5.651   0.220
 3487TIP3   OH210466   5.976   5.798   0.558
 3487TIP3    H110467   5.941   5.739   0.491
 3487TIP3    H210468   5.927   5.775   0.637
 3488TIP3   OH210469   1.987   0.215   2.491
 3488TIP3    H110470   1.954   0.212   2.402
 3488TIP3    H210471   1.927   0.160   2.541
 3489TIP3   OH210472   2.284   4.660   3.147
 3489TIP3    H110473   2.319   4.723   3.084
 3489TIP3    H210474   2.207   4.702   3.184
 3490TIP3   OH210475   0.484   1.600   0.070
 3490TIP3    H110476   0.438   1.563   0.146
 3490TIP3    H210477   0.571   1.620   0.103
 3491TIP3   OH210478   1.112   2.351   4.376
 3491TIP3    H110479   1.110   2.443   4.350
 3491TIP3    H210480   1.185   2.313   4.328
 3492TIP3   OH210481   2.485   4.522   0.475
 3492TIP3    H110482   2.543   4.446   0.473
 3492TIP3    H210483   2.414   4.497   0.534
 3493TIP3   OH210484   2.051   1.937   5.003
 3493TIP3    H110485   2.102   1.878   5.059
 3493TIP3    H210486   2.000   1.879   4.947
 3494TIP3   OH210487   0.863   4.730   4.021
 3494TIP3    H110488   0.846   4.803   4.080
 3494TIP3    H210489   0.915   4.769   3.950
 3495TIP3   OH210490   1.652   4.267   4.097
 3495TIP3    H110491   1.671   4.188   4.147
 3495TIP3    H210492   1.723   4.273   4.033
 3496TIP3   OH210493   0.313   3.237   2.242
 3496TIP3    H110494   0.322   3.304   2.174
 3496TIP3    H210495   0.222   3.209   2.237
 3497TIP3   OH210496   2.610   2.024   4.643
 3497TIP3    H110497   2.656   2.045   4.562
 3497TIP3    H210498   2.657   1.949   4.679
 3498TIP3   OH210499   6.239   3.911   4.727
 3498TIP3    H110500   6.206   3.997   4.750
 3498TIP3    H210501   6.326   3.928   4.690
 3499TIP3   OH210502   1.199   5.593   4.548
 3499TIP3    H110503   1.236   5.507   4.527
 3499TIP3    H210504   1.258   5.656   4.504
 3500TIP3   OH210505   4.559   2.867   1.887
 3500TIP3    H110506   4.564   2.885   1.793
 3500TIP3    H210507   4.639   2.906   1.923
 3501TIP3   OH210508   4.043   2.887   2.751
 3501TIP3    H110509   4.047   2.819   2.683
 3501TIP3    H210510   4.134   2.914   2.764
 3502TIP3   OH210511   0.058   4.365   3.408
 3502TIP3    H110512  -0.010   4.334   3.469
 3502TIP3    H210513   0.104   4.285   3.382
 3503TIP3   OH210514   3.807   4.824   1.747
 3503TIP3    H110515   3.778   4.887   1.681
 3503TIP3    H210516   3.886   4.862   1.784
 3504TIP3   OH210517   2.238   1.381   0.476
 3504TIP3    H110518   2.281   1.415   0.398
 3504TIP3    H210519   2.240   1.454   0.538
 3505TIP3   OH210520   3.823   1.541   3.226
 3505TIP3    H110521   3.901   1.496   3.259
 3505TIP3    H210522   3.795   1.597   3.299
 3506TIP3   OH210523   1.666   0.222   4.804
 3506TIP3    H110524   1.593   0.170   4.837
 3506TIP3    H210525   1.738   0.160   4.794
 3507TIP3   OH210526   1.070   1.087   0.448
 3507TIP3    H110527   1.129   1.035   0.502
 3507TIP3    H210528   0.992   1.099   0.502
 3508TIP3   OH210529   3.021   5.834   1.686
 3508TIP3    H110530   2.979   5.891   1.751
 3508TIP3    H210531   2.958   5.764   1.671
 3509TIP3   OH210532   3.822   2.273   1.336
 3509TIP3    H110533   3.796   2.240   1.422
 3509TIP3    H210534   3.916   2.289   1.344
 3510TIP3   OH210535   1.330   3.953   2.852
 3510TIP3    H110536   1.387   3.952   2.775
 3510TIP3    H210537   1.243   3.970   2.816
 3511TIP3   OH210538   3.286   1.982   3.733
 3511TIP3    H110539   3.303   1.889   3.714
 3511TIP3    H210540   3.330   2.029   3.662
 3512TIP3   OH210541   4.472   4.738   1.712
 3512TIP3    H110542   4.464   4.811   1.651
 3512TIP3    H210543   4.450   4.661   1.661
 3513TIP3   OH210544   0.925   3.397   2.279
 3513TIP3    H110545   0.922   3.480   2.327
 3513TIP3    H210546   0.998   3.350   2.318
 3514TIP3   OH210547   1.356   0.404   1.761
 3514TIP3    H110548   1.342   0.394   1.667
 3514TIP3    H210549   1.279   0.365   1.801
 3515TIP3   OH210550   4.839   0.011   2.598
 3515TIP3    H110551   4.756   0.050   2.572
 3515TIP3    H210552   4.905   0.074   2.571
 3516TIP3   OH210553   3.643   1.118   3.589
 3516TIP3    H110554   3.707   1.185   3.614
 3516TIP3    H210555   3.640   1.059   3.663
 3517TIP3   OH210556   6.204   0.250   3.055
 3517TIP3    H110557   6.271   0.316   3.033
 3517TIP3    H210558   6.213   0.239   3.150
 3518TIP3   OH210559   3.897   3.940   3.404
 3518TIP3    H110560   3.862   3.894   3.480
 3518TIP3    H210561   3.904   4.031   3.432
 3519TIP3   OH210562   0.276   3.360   0.488
 3519TIP3    H110563   0.258   3.453   0.474
 3519TIP3    H210564   0.218   3.314   0.427
 3520TIP3   OH210565   3.991   1.056   1.651
 3520TIP3    H110566   3.905   1.024   1.678
 3520TIP3    H210567   4.027   1.098   1.730
 3521TIP3   OH210568   3.715   5.025   2.808
 3521TIP3    H110569   3.645   5.090   2.819
 3521TIP3    H210570   3.704   4.994   2.718
 3522TIP3   OH210571   4.815   5.219   0.263
 3522TIP3    H110572   4.829   5.313   0.255
 3522TIP3    H210573   4.791   5.205   0.354
 3523TIP3   OH210574   1.643   1.913   0.529
 3523TIP3    H110575   1.678   1.825   0.513
 3523TIP3    H210576   1.569   1.899   0.588
 3524TIP3   OH210577   5.457   4.030   2.406
 3524TIP3    H110578   5.397   4.085   2.457
 3524TIP3    H210579   5.454   3.945   2.450
 3525TIP3   OH210580   5.310   3.395   4.658
 3525TIP3    H110581   5.320   3.412   4.564
 3525TIP3    H210582   5.281   3.478   4.695
 3526TIP3   OH210583   1.782   1.550   3.958
 3526TIP3    H110584   1.838   1.612   4.004
 3526TIP3    H210585   1.700   1.550   4.008
 3527TIP3   OH210586   0.028   3.219   2.222
 3527TIP3    H110587  -0.004   3.134   2.194
 3527TIP3    H210588  -0.044   3.279   2.202
 3528TIP3   OH210589   5.473   4.393   1.947
 3528TIP3    H110590   5.499   4.382   2.039
 3528TIP3    H210591   5.481   4.306   1.909
 3529TIP3   OH210592   3.439   1.266   3.253
 3529TIP3    H110593   3.488   1.330   3.202
 3529TIP3    H210594   3.492   1.186   3.248
 3530TIP3   OH210595   0.462   3.401   2.933
 3530TIP3    H110596   0.527   3.375   2.998
 3530TIP3    H210597   0.381   3.413   2.983
 3531TIP3   OH210598   4.335   1.176   4.150
 3531TIP3    H110599   4.417   1.221   4.132
 3531TIP3    H210600   4.268   1.244   4.139
 3532TIP3   OH210601   0.852   2.837   4.571
 3532TIP3    H110602   0.811   2.759   4.608
 3532TIP3    H210603   0.930   2.805   4.527
 3533TIP3   OH210604   4.652   3.710   0.847
 3533TIP3    H110605   4.602   3.682   0.771
 3533TIP3    H210606   4.616   3.797   0.868
 3534TIP3   OH210607   6.284   4.652   3.312
 3534TIP3    H110608   6.310   4.581   3.371
 3534TIP3    H210609   6.195   4.673   3.338
 3535TIP3   OH210610   2.009   3.646   1.520
 3535TIP3    H110611   1.956   3.573   1.553
 3535TIP3    H210612   2.023   3.625   1.428
 3536TIP3   OH210613   3.089   4.234   0.357
 3536TIP3    H110614   3.051   4.150   0.328
 3536TIP3    H210615   3.013   4.290   0.371
 3537TIP3   OH210616   0.738   3.909   1.720
 3537TIP3    H110617   0.704   3.976   1.780
 3537TIP3    H210618   0.720   3.944   1.633
 3538TIP3   OH210619   0.740   1.460   4.511
 3538TIP3    H110620   0.713   1.369   4.504
 3538TIP3    H210621   0.830   1.457   4.544
 3539TIP3   OH210622   3.592   0.067   3.492
 3539TIP3    H110623   3.528   0.007   3.454
 3539TIP3    H210624   3.564   0.153   3.461
 3540TIP3   OH210625   4.179   4.112   1.829
 3540TIP3    H110626   4.235   4.051   1.876
 3540TIP3    H210627   4.211   4.199   1.854
 3541TIP3   OH210628   0.032   5.913   1.145
 3541TIP3    H110629  -0.007   5.826   1.154
 3541TIP3    H210630   0.124   5.901   1.166
 3542TIP3   OH210631   6.230   1.765   1.063
 3542TIP3    H110632   6.253   1.715   0.985
 3542TIP3    H210633   6.159   1.716   1.104
 3543TIP3   OH210634   4.042   5.571   2.822
 3543TIP3    H110635   4.025   5.519   2.744
 3543TIP3    H210636   4.003   5.657   2.803
 3544TIP3   OH210637   4.752   3.750   0.509
 3544TIP3    H110638   4.706   3.821   0.552
 3544TIP3    H210639   4.844   3.775   0.512
 3545TIP3   OH210640   5.984   1.783   4.684
 3545TIP3    H110641   5.913   1.730   4.721
 3545TIP3    H210642   5.973   1.775   4.589
 3546TIP3   OH210643   1.017   5.697   2.863
 3546TIP3    H110644   0.930   5.658   2.876
 3546TIP3    H210645   1.078   5.631   2.897
 3547TIP3   OH210646   1.266   4.928   0.630
 3547TIP3    H110647   1.320   5.000   0.597
 3547TIP3    H210648   1.176   4.954   0.611
 3548TIP3   OH210649   4.087   2.611   3.769
 3548TIP3    H110650   4.098   2.527   3.724
 3548TIP3    H210651   4.176   2.633   3.799
 3549TIP3   OH210652   5.325   5.297   2.441
 3549TIP3    H110653   5.366   5.218   2.408
 3549TIP3    H210654   5.389   5.366   2.425
 3550TIP3   OH210655   0.093   1.040   2.888
 3550TIP3    H110656   0.059   1.115   2.937
 3550TIP3    H210657   0.028   0.971   2.902
 3551TIP3   OH210658   4.859   3.226   0.829
 3551TIP3    H110659   4.849   3.297   0.893
 3551TIP3    H210660   4.771   3.193   0.816
 3552TIP3   OH210661   1.544   2.054   0.336
 3552TIP3    H110662   1.610   2.000   0.379
 3552TIP3    H210663   1.518   2.118   0.402
 3553TIP3   OH210664   0.822   2.871   0.966
 3553TIP3    H110665   0.752   2.892   0.903
 3553TIP3    H210666   0.800   2.921   1.044
 3554TIP3   OH210667   3.839   4.512   0.706
 3554TIP3    H110668   3.827   4.486   0.798
 3554TIP3    H210669   3.934   4.519   0.696
 3555TIP3   OH210670   1.748   4.483   1.254
 3555TIP3    H110671   1.704   4.532   1.185
 3555TIP3    H210672   1.693   4.497   1.331
 3556TIP3   OH210673   1.479   0.533   1.247
 3556TIP3    H110674   1.492   0.493   1.161
 3556TIP3    H210675   1.492   0.627   1.232
 3557TIP3   OH210676   3.413   0.131   1.989
 3557TIP3    H110677   3.350   0.202   1.986
 3557TIP3    H210678   3.474   0.150   1.917
 3558TIP3   OH210679   2.989   3.943   4.169
 3558TIP3    H110680   3.043   4.012   4.130
 3558TIP3    H210681   2.903   3.983   4.179
 3559TIP3   OH210682   5.763   5.288   3.915
 3559TIP3    H110683   5.772   5.204   3.960
 3559TIP3    H210684   5.723   5.266   3.830
 3560TIP3   OH210685   2.282   0.583   0.438
 3560TIP3    H110686   2.273   0.583   0.533
 3560TIP3    H210687   2.279   0.676   0.414
 3561TIP3   OH210688   4.274   3.809   3.456
 3561TIP3    H110689   4.218   3.776   3.527
 3561TIP3    H210690   4.219   3.872   3.410
 3562TIP3   OH210691   1.786   4.101   4.994
 3562TIP3    H110692   1.843   4.175   5.012
 3562TIP3    H210693   1.823   4.028   5.045
 3563TIP3   OH210694   0.438   0.810   0.673
 3563TIP3    H110695   0.478   0.784   0.590
 3563TIP3    H210696   0.373   0.876   0.649
 3564TIP3   OH210697   4.552   0.930   2.003
 3564TIP3    H110698   4.541   0.885   1.919
 3564TIP3    H210699   4.469   0.915   2.049
 3565TIP3   OH210700   4.608   0.503   0.687
 3565TIP3    H110701   4.574   0.478   0.774
 3565TIP3    H210702   4.542   0.470   0.626
 3566TIP3   OH210703   2.065   2.699   2.120
 3566TIP3    H110704   2.041   2.625   2.066
 3566TIP3    H210705   1.982   2.731   2.156
 3567TIP3   OH210706   5.673   1.026   4.301
 3567TIP3    H110707   5.657   1.010   4.208
 3567TIP3    H210708   5.593   1.068   4.332
 3568TIP3   OH210709   2.148   0.065   4.587
 3568TIP3    H110710   2.069   0.034   4.544
 3568TIP3    H210711   2.132   0.051   4.680
 3569TIP3   OH210712   6.282   3.947   2.464
 3569TIP3    H110713   6.244   4.013   2.406
 3569TIP3    H210714   6.214   3.932   2.530
 3570TIP3   OH210715   3.382   1.068   3.550
 3570TIP3    H110716   3.386   0.983   3.506
 3570TIP3    H210717   3.474   1.091   3.565
 3571TIP3   OH210718   4.561   3.961   2.522
 3571TIP3    H110719   4.643   3.924   2.489
 3571TIP3    H210720   4.508   3.885   2.546
 3572TIP3   OH210721   2.980   4.349   1.826
 3572TIP3    H110722   3.043   4.418   1.849
 3572TIP3    H210723   2.919   4.392   1.766
 3573TIP3   OH210724   5.772   5.426   4.485
 3573TIP3    H110725   5.865   5.435   4.507
 3573TIP3    H210726   5.760   5.479   4.407
 3574TIP3   OH210727   1.897   0.884   4.757
 3574TIP3    H110728   1.812   0.843   4.774
 3574TIP3    H210729   1.875   0.970   4.722
 3575TIP3   OH210730   2.114   1.212   1.276
 3575TIP3    H110731   2.183   1.258   1.229
 3575TIP3    H210732   2.033   1.257   1.251
 3576TIP3   OH210733   4.383   5.310   2.734
 3576TIP3    H110734   4.436   5.232   2.751
 3576TIP3    H210735   4.375   5.352   2.820
 3577TIP3   OH210736   4.630   3.962   0.663
 3577TIP3    H110737   4.561   4.012   0.620
 3577TIP3    H210738   4.645   4.008   0.746
 3578TIP3   OH210739   3.711   4.941   4.418
 3578TIP3    H110740   3.713   5.033   4.393
 3578TIP3    H210741   3.668   4.897   4.345
 3579TIP3   OH210742   3.168   0.599   1.762
 3579TIP3    H110743   3.125   0.638   1.686
 3579TIP3    H210744   3.107   0.533   1.794
 3580TIP3   OH210745   1.857   2.094   4.177
 3580TIP3    H110746   1.771   2.135   4.185
 3580TIP3    H210747   1.862   2.034   4.251
 3581TIP3   OH210748   5.294   0.680   4.510
 3581TIP3    H110749   5.248   0.606   4.551
 3581TIP3    H210750   5.343   0.641   4.438
 3582TIP3   OH210751   1.475   4.651   4.254
 3582TIP3    H110752   1.444   4.685   4.338
 3582TIP3    H210753   1.397   4.645   4.200
 3583TIP3   OH210754   2.940   0.256   4.513
 3583TIP3    H110755   2.883   0.219   4.580
 3583TIP3    H210756   2.998   0.315   4.561
 3584TIP3   OH210757   3.822   2.447   2.028
 3584TIP3    H110758   3.820   2.524   1.971
 3584TIP3    H210759   3.773   2.474   2.105
 3585TIP3   OH210760   3.340   0.342   4.441
 3585TIP3    H110761   3.381   0.307   4.362
 3585TIP3    H210762   3.264   0.391   4.409
 3586TIP3   OH210763   3.130   2.392   0.148
 3586TIP3    H110764   3.040   2.422   0.160
 3586TIP3    H210765   3.122   2.297   0.139
 3587TIP3   OH210766   1.059   4.093   1.065
 3587TIP3    H110767   1.101   4.150   1.129
 3587TIP3    H210768   1.051   4.146   0.986
 3588TIP3   OH210769   1.479   3.294   0.413
 3588TIP3    H110770   1.392   3.310   0.450
 3588TIP3    H210771   1.463   3.241   0.335
 3589TIP3   OH210772   2.729   2.275   1.454
 3589TIP3    H110773   2.663   2.209   1.432
 3589TIP3    H210774   2.768   2.244   1.535
 3590TIP3   OH210775   0.600   3.477   4.540
 3590TIP3    H110776   0.564   3.397   4.579
 3590TIP3    H210777   0.616   3.454   4.449
 3591TIP3   OH210778   4.824   2.767   2.828
 3591TIP3    H110779   4.860   2.687   2.865
 3591TIP3    H210780   4.735   2.772   2.864
 3592TIP3   OH210781   2.845   4.636   3.016
 3592TIP3    H110782   2.868   4.648   3.108
 3592TIP3    H210783   2.751   4.653   3.012
 3593TIP3   OH210784   0.115   3.803   1.647
 3593TIP3    H110785   0.172   3.755   1.708
 3593TIP3    H210786   0.075   3.736   1.592
 3594TIP3   OH210787   3.631   3.628   4.032
 3594TIP3    H110788   3.552   3.682   4.037
 3594TIP3    H210789   3.652   3.624   3.939
 3595TIP3   OH210790   3.130   2.113   0.127
 3595TIP3    H110791   3.161   2.027   0.100
 3595TIP3    H210792   3.051   2.128   0.074
 3596TIP3   OH210793   3.617   3.422   3.335
 3596TIP3    H110794   3.614   3.385   3.423
 3596TIP3    H210795   3.562   3.364   3.283
 3597TIP3   OH210796   5.693   5.252   2.305
 3597TIP3    H110797   5.636   5.328   2.304
 3597TIP3    H210798   5.771   5.280   2.258
 3598TIP3   OH210799   0.138   1.350   2.441
 3598TIP3    H110800   0.192   1.274   2.465
 3598TIP3    H210801   0.114   1.390   2.524
 3599TIP3   OH210802   0.291   4.803   0.083
 3599TIP3    H110803   0.304   4.845  -0.002
 3599TIP3    H210804   0.276   4.875   0.144
 3600TIP3   OH210805   1.116   0.694   0.231
 3600TIP3    H110806   1.075   0.729   0.152
 3600TIP3    H210807   1.210   0.692   0.211
 3601TIP3   OH210808   1.021   3.383   1.059
 3601TIP3    H110809   0.950   3.376   0.996
 3601TIP3    H210810   1.023   3.475   1.084
 3602TIP3   OH210811   2.863   0.088   1.099
 3602TIP3    H110812   2.927   0.155   1.121
 3602TIP3    H210813   2.824   0.118   1.017
 3603TIP3   OH210814   6.011   3.376   1.141
 3603TIP3    H110815   6.002   3.289   1.102
 3603TIP3    H210816   6.103   3.399   1.127
 3604TIP3   OH210817   3.290   3.347   2.005
 3604TIP3    H110818   3.375   3.388   2.015
 3604TIP3    H210819   3.296   3.300   1.922
 3605TIP3   OH210820   1.450   5.838   0.707
 3605TIP3    H110821   1.369   5.858   0.754
 3605TIP3    H210822   1.421   5.796   0.626
 3606TIP3   OH210823   6.022   0.780   3.304
 3606TIP3    H110824   6.055   0.713   3.243
 3606TIP3    H210825   5.977   0.730   3.372
 3607TIP3   OH210826   2.748   3.512   0.948
 3607TIP3    H110827   2.841   3.508   0.926
 3607TIP3    H210828   2.706   3.546   0.869
 3608TIP3   OH210829   4.735   1.913   3.062
 3608TIP3    H110830   4.721   1.947   2.973
 3608TIP3    H210831   4.830   1.919   3.075
 3609TIP3   OH210832   5.569   3.806   2.552
 3609TIP3    H110833   5.531   3.731   2.598
 3609TIP3    H210834   5.634   3.767   2.493
 3610TIP3   OH210835   5.743   0.165   3.702
 3610TIP3    H110836   5.694   0.161   3.620
 3610TIP3    H210837   5.729   0.079   3.743
 3611TIP3   OH210838   1.631   2.199   1.972
 3611TIP3    H110839   1.574   2.193   1.895
 3611TIP3    H210840   1.587   2.147   2.039
 3612TIP3   OH210841   1.481   4.848   1.606
 3612TIP3    H110842   1.456   4.928   1.561
 3612TIP3    H210843   1.434   4.778   1.560
 3613TIP3   OH210844   3.899   2.931   1.992
 3613TIP3    H110845   3.948   2.956   1.914
 3613TIP3    H210846   3.807   2.949   1.970
 3614TIP3   OH210847   6.118   2.083   3.469
 3614TIP3    H110848   6.151   2.002   3.506
 3614TIP3    H210849   6.160   2.152   3.520
 3615TIP3   OH210850   1.854   3.123   4.309
 3615TIP3    H110851   1.854   3.204   4.258
 3615TIP3    H210852   1.913   3.142   4.382
 3616TIP3   OH210853   0.405   3.786   3.412
 3616TIP3    H110854   0.493   3.819   3.430
 3616TIP3    H210855   0.394   3.798   3.318
 3617TIP3   OH210856   5.213   5.194   3.614
 3617TIP3    H110857   5.193   5.208   3.707
 3617TIP3    H210858   5.224   5.099   3.606
 3618TIP3   OH210859   4.691   1.787   0.667
 3618TIP3    H110860   4.704   1.717   0.730
 3618TIP3    H210861   4.611   1.831   0.696
 3619TIP3   OH210862   3.268   3.724   0.987
 3619TIP3    H110863   3.266   3.787   1.059
 3619TIP3    H210864   3.218   3.766   0.917
 3620TIP3   OH210865   4.900   2.482   4.539
 3620TIP3    H110866   4.913   2.402   4.487
 3620TIP3    H210867   4.815   2.515   4.511
 3621TIP3   OH210868   3.294   3.180   2.310
 3621TIP3    H110869   3.386   3.188   2.335
 3621TIP3    H210870   3.266   3.270   2.295
 3622TIP3   OH210871   2.755   2.500   2.497
 3622TIP3    H110872   2.697   2.432   2.531
 3622TIP3    H210873   2.728   2.580   2.543
 3623TIP3   OH210874   0.045   0.604   2.849
 3623TIP3    H110875   0.043   0.633   2.759
 3623TIP3    H210876   0.129   0.636   2.883
 3624TIP3   OH210877   4.957   4.579   4.317
 3624TIP3    H110878   5.028   4.643   4.309
 3624TIP3    H210879   4.983   4.524   4.391
 3625TIP3   OH210880   1.823   4.491   2.239
 3625TIP3    H110881   1.878   4.511   2.314
 3625TIP3    H210882   1.735   4.483   2.275
 3626TIP3   OH210883   4.033   3.564   0.668
 3626TIP3    H110884   4.042   3.539   0.760
 3626TIP3    H210885   4.068   3.653   0.664
 3627TIP3   OH210886   3.162   0.029   4.768
 3627TIP3    H110887   3.079   0.076   4.774
 3627TIP3    H210888   3.199   0.058   4.684
 3628TIP3   OH210889   2.291   0.796   4.599
 3628TIP3    H110890   2.269   0.886   4.623
 3628TIP3    H210891   2.269   0.790   4.506
 3629TIP3   OH210892   1.075   0.723   1.661
 3629TIP3    H110893   1.098   0.780   1.735
 3629TIP3    H210894   1.101   0.772   1.583
 3630TIP3   OH210895   1.216   2.779   4.871
 3630TIP3    H110896   1.307   2.762   4.849
 3630TIP3    H210897   1.217   2.862   4.919
 3631TIP3   OH210898   1.169   1.625   1.686
 3631TIP3    H110899   1.211   1.554   1.637
 3631TIP3    H210900   1.136   1.684   1.618
 3632TIP3   OH210901   2.396   3.701   3.943
 3632TIP3    H110902   2.314   3.718   3.989
 3632TIP3    H210903   2.383   3.616   3.901
 3633TIP3   OH210904   0.791   3.271   2.067
 3633TIP3    H110905   0.747   3.339   2.016
 3633TIP3    H210906   0.858   3.317   2.117
 3634TIP3   OH210907   5.923   0.731   1.509
 3634TIP3    H110908   5.963   0.669   1.447
 3634TIP3    H210909   5.990   0.798   1.520
 3635TIP3   OH210910   2.387   5.784   1.210
 3635TIP3    H110911   2.310   5.754   1.162
 3635TIP3    H210912   2.461   5.750   1.160
 3636TIP3   OH210913   2.449   3.444   5.160
 3636TIP3    H110914   2.541   3.422   5.174
 3636TIP3    H210915   2.452   3.521   5.103
 3637TIP3   OH210916   3.377   1.662   0.608
 3637TIP3    H110917   3.442   1.710   0.660
 3637TIP3    H210918   3.314   1.629   0.672
 3638TIP3   OH210919   6.248   4.202   4.725
 3638TIP3    H110920   6.288   4.244   4.802
 3638TIP3    H210921   6.320   4.195   4.662
 3639TIP3   OH210922   4.164   0.771   3.438
 3639TIP3    H110923   4.202   0.771   3.526
 3639TIP3    H210924   4.153   0.863   3.417
 3640TIP3   OH210925   1.117   2.782   2.340
 3640TIP3    H110926   1.154   2.833   2.412
 3640TIP3    H210927   1.026   2.769   2.364
 3641TIP3   OH210928   1.638   3.709   1.335
 3641TIP3    H110929   1.608   3.622   1.311
 3641TIP3    H210930   1.588   3.768   1.278
 3642TIP3   OH210931   2.297   2.592   3.835
 3642TIP3    H110932   2.363   2.662   3.837
 3642TIP3    H210933   2.348   2.511   3.830
 3643TIP3   OH210934   2.807   5.090   0.715
 3643TIP3    H110935   2.728   5.141   0.694
 3643TIP3    H210936   2.879   5.145   0.684
 3644TIP3   OH210937   0.904   3.081   2.333
 3644TIP3    H110938   0.910   3.149   2.400
 3644TIP3    H210939   0.810   3.074   2.314
 3645TIP3   OH210940   0.024   3.021   5.063
 3645TIP3    H110941   0.073   2.940   5.074
 3645TIP3    H210942   0.058   3.058   4.981
 3646TIP3   OH210943   4.733   2.240   3.526
 3646TIP3    H110944   4.717   2.183   3.601
 3646TIP3    H210945   4.757   2.181   3.455
 3647TIP3   OH210946   1.084   3.532   0.606
 3647TIP3    H110947   1.087   3.438   0.625
 3647TIP3    H210948   0.999   3.560   0.641
 3648TIP3   OH210949   4.777   2.023   3.751
 3648TIP3    H110950   4.707   2.021   3.817
 3648TIP3    H210951   4.842   2.083   3.787
 3649TIP3   OH210952   3.214   0.300   1.723
 3649TIP3    H110953   3.205   0.221   1.669
 3649TIP3    H210954   3.276   0.355   1.676
 3650TIP3   OH210955   5.440   3.350   0.905
 3650TIP3    H110956   5.525   3.309   0.921
 3650TIP3    H210957   5.447   3.386   0.816
 3651TIP3   OH210958   4.049   2.217   2.004
 3651TIP3    H110959   4.042   2.127   1.972
 3651TIP3    H210960   3.965   2.257   1.980
 3652TIP3   OH210961   4.278   5.091   1.262
 3652TIP3    H110962   4.367   5.064   1.283
 3652TIP3    H210963   4.233   5.094   1.347
 3653TIP3   OH210964   3.342   0.930   4.019
 3653TIP3    H110965   3.288   0.879   3.960
 3653TIP3    H210966   3.297   1.014   4.028
 3654TIP3   OH210967   4.775   5.913   3.928
 3654TIP3    H110968   4.707   5.904   3.994
 3654TIP3    H210969   4.734   5.961   3.857
 3655TIP3   OH210970   1.818   4.299   3.135
 3655TIP3    H110971   1.840   4.362   3.204
 3655TIP3    H210972   1.871   4.222   3.156
 3656TIP3   OH210973   1.790   2.975   2.413
 3656TIP3    H110974   1.769   2.954   2.504
 3656TIP3    H210975   1.882   3.001   2.414
 3657TIP3   OH210976   6.136   0.821   3.605
 3657TIP3    H110977   6.117   0.902   3.654
 3657TIP3    H210978   6.186   0.851   3.529
 3658TIP3   OH210979   3.895   3.772   3.991
 3658TIP3    H110980   3.915   3.854   3.947
 3658TIP3    H210981   3.811   3.745   3.954
 3659TIP3   OH210982   6.133   2.696   5.141
 3659TIP3    H110983   6.170   2.665   5.223
 3659TIP3    H210984   6.188   2.657   5.073
 3660TIP3   OH210985   3.280   0.372   3.101
 3660TIP3    H110986   3.330   0.303   3.056
 3660TIP3    H210987   3.190   0.361   3.069
 3661TIP3   OH210988   3.301   2.213   0.919
 3661TIP3    H110989   3.293   2.131   0.870
 3661TIP3    H210990   3.349   2.272   0.860
 3662TIP3   OH210991   4.700   1.285   0.549
 3662TIP3    H110992   4.643   1.361   0.534
 3662TIP3    H210993   4.709   1.281   0.644
 3663TIP3   OH210994   3.105   2.582   3.937
 3663TIP3    H110995   3.014   2.563   3.959
 3663TIP3    H210996   3.116   2.548   3.848
 3664TIP3   OH210997   2.930   1.430   0.365
 3664TIP3    H110998   2.895   1.348   0.401
 3664TIP3    H210999   3.008   1.402   0.315
 3665TIP3   OH211000   0.347   3.314   1.185
 3665TIP3    H111001   0.329   3.221   1.169
 3665TIP3    H211002   0.275   3.361   1.144
 3666TIP3   OH211003   5.312   0.577   2.844
 3666TIP3    H111004   5.276   0.618   2.765
 3666TIP3    H211005   5.262   0.496   2.854
 3667TIP3   OH211006   2.954   1.889   1.585
 3667TIP3    H111007   2.906   1.808   1.569
 3667TIP3    H211008   2.954   1.934   1.500
 3668TIP3   OH211009   3.857   2.478   0.982
 3668TIP3    H111010   3.819   2.547   0.928
 3668TIP3    H211011   3.933   2.448   0.932
 3669TIP3   OH211012   0.759   3.517   1.268
 3669TIP3    H111013   0.670   3.523   1.302
 3669TIP3    H211014   0.804   3.458   1.328
 3670TIP3   OH211015   4.165   4.014   3.661
 3670TIP3    H111016   4.257   4.011   3.686
 3670TIP3    H211017   4.150   4.105   3.635
 3671TIP3   OH211018   3.183   3.494   4.323
 3671TIP3    H111019   3.105   3.479   4.269
 3671TIP3    H211020   3.172   3.434   4.397
 3672TIP3   OH211021   2.508   2.059   3.369
 3672TIP3    H111022   2.457   2.075   3.448
 3672TIP3    H211023   2.599   2.076   3.395
 3673TIP3   OH211024   1.154   5.973   5.130
 3673TIP3    H111025   1.087   5.957   5.064
 3673TIP3    H211026   1.106   5.971   5.213
 3674TIP3   OH211027   4.144   4.843   2.871
 3674TIP3    H111028   4.143   4.928   2.827
 3674TIP3    H211029   4.232   4.837   2.910
 3675TIP3   OH211030   4.879   3.577   3.751
 3675TIP3    H111031   4.789   3.569   3.780
 3675TIP3    H211032   4.924   3.621   3.823
 3676TIP3   OH211033   4.280   2.707   3.479
 3676TIP3    H111034   4.347   2.698   3.412
 3676TIP3    H211035   4.292   2.796   3.513
 3677TIP3   OH211036   0.021   3.765   0.774
 3677TIP3    H111037   0.105   3.795   0.739
 3677TIP3    H211038  -0.006   3.696   0.714
 3678TIP3   OH211039   3.250   0.278   0.961
 3678TIP3    H111040   3.202   0.244   1.037
 3678TIP3    H211041   3.203   0.358   0.937
 3679TIP3   OH211042   4.707   2.351   3.850
 3679TIP3    H111043   4.646   2.285   3.883
 3679TIP3    H211044   4.790   2.304   3.840
 3680TIP3   OH211045   1.398   1.200   1.627
 3680TIP3    H111046   1.482   1.230   1.662
 3680TIP3    H211047   1.401   1.222   1.534
 3681TIP3   OH211048   1.461   1.920   1.881
 3681TIP3    H111049   1.417   1.935   1.797
 3681TIP3    H211050   1.390   1.918   1.945
 3682TIP3   OH211051   1.873   1.439   3.081
 3682TIP3    H111052   1.819   1.421   3.003
 3682TIP3    H211053   1.811   1.431   3.154
 3683TIP3   OH211054   5.689   3.146   4.388
 3683TIP3    H111055   5.759   3.154   4.452
 3683TIP3    H211056   5.724   3.085   4.322
 3684TIP3   OH211057   4.067   4.470   2.232
 3684TIP3    H111058   4.005   4.452   2.302
 3684TIP3    H211059   4.019   4.450   2.151
 3685TIP3   OH211060   3.169   5.957   3.060
 3685TIP3    H111061   3.110   6.008   3.004
 3685TIP3    H211062   3.244   5.937   3.004
 3686TIP3   OH211063   4.949   1.434   3.577
 3686TIP3    H111064   4.936   1.341   3.598
 3686TIP3    H211065   5.026   1.434   3.520
 3687TIP3   OH211066   0.438   2.970   3.586
 3687TIP3    H111067   0.414   2.897   3.642
 3687TIP3    H211068   0.364   2.982   3.527
 3688TIP3   OH211069   4.208   1.602   3.838
 3688TIP3    H111070   4.205   1.576   3.745
 3688TIP3    H211071   4.300   1.595   3.861
 3689TIP3   OH211072   5.317   1.004   0.985
 3689TIP3    H111073   5.304   1.031   1.076
 3689TIP3    H211074   5.241   1.041   0.939
 3690TIP3   OH211075   3.767   3.929   0.063
 3690TIP3    H111076   3.855   3.909   0.096
 3690TIP3    H211077   3.770   4.022   0.040
 3691TIP3   OH211078   4.753   4.539   2.297
 3691TIP3    H111079   4.669   4.583   2.278
 3691TIP3    H211080   4.788   4.515   2.211
 3692TIP3   OH211081   5.882   1.275   4.506
 3692TIP3    H111082   5.836   1.323   4.574
 3692TIP3    H211083   5.968   1.257   4.543
 3693TIP3   OH211084   4.412   3.307   4.317
 3693TIP3    H111085   4.390   3.215   4.333
 3693TIP3    H211086   4.328   3.352   4.315
 3694TIP3   OH211087   4.826   1.056   4.685
 3694TIP3    H111088   4.850   0.971   4.720
 3694TIP3    H211089   4.731   1.060   4.695
 3695TIP3   OH211090   0.164   1.846   2.346
 3695TIP3    H111091   0.117   1.769   2.313
 3695TIP3    H211092   0.142   1.850   2.439
 3696TIP3   OH211093   6.135   4.717   1.391
 3696TIP3    H111094   6.069   4.668   1.439
 3696TIP3    H211095   6.126   4.689   1.300
 3697TIP3   OH211096   1.817   3.663   1.142
 3697TIP3    H111097   1.777   3.682   1.227
 3697TIP3    H211098   1.775   3.724   1.082
 3698TIP3   OH211099   1.735   1.685   2.505
 3698TIP3    H111100   1.760   1.741   2.578
 3698TIP3    H211101   1.725   1.745   2.431
 3699TIP3   OH211102   3.183   3.986   3.786
 3699TIP3    H111103   3.238   4.009   3.861
 3699TIP3    H211104   3.131   4.064   3.769
 3700TIP3   OH211105   5.995   1.992   5.015
 3700TIP3    H111106   6.034   2.048   5.082
 3700TIP3    H211107   6.035   2.021   4.933
 3701TIP3   OH211108   2.410   5.436   4.587
 3701TIP3    H111109   2.417   5.340   4.582
 3701TIP3    H211110   2.344   5.451   4.655
 3702TIP3   OH211111   1.931   0.795   4.463
 3702TIP3    H111112   1.967   0.772   4.548
 3702TIP3    H211113   1.918   0.711   4.419
 3703TIP3   OH211114   1.195   4.512   0.909
 3703TIP3    H111115   1.164   4.603   0.906
 3703TIP3    H211116   1.239   4.505   0.993
 3704TIP3   OH211117   2.493   3.424   1.766
 3704TIP3    H111118   2.502   3.519   1.766
 3704TIP3    H211119   2.518   3.398   1.855
 3705TIP3   OH211120   3.038   2.478   4.213
 3705TIP3    H111121   2.965   2.539   4.209
 3705TIP3    H211122   3.109   2.528   4.252
 3706TIP3   OH211123   1.909   2.989   0.639
 3706TIP3    H111124   1.855   3.054   0.594
 3706TIP3    H211125   1.852   2.954   0.708
 3707TIP3   OH211126   3.789   5.549   0.785
 3707TIP3    H111127   3.766   5.634   0.749
 3707TIP3    H211128   3.727   5.536   0.857
 3708TIP3   OH211129   4.255   4.853   4.693
 3708TIP3    H111130   4.160   4.866   4.693
 3708TIP3    H211131   4.266   4.758   4.693
 3709TIP3   OH211132   4.065   2.965   4.784
 3709TIP3    H111133   3.995   3.027   4.766
 3709TIP3    H211134   4.031   2.880   4.757
 3710TIP3   OH211135   4.584   3.281   0.300
 3710TIP3    H111136   4.520   3.352   0.302
 3710TIP3    H211137   4.532   3.201   0.298
 3711TIP3   OH211138   1.029  -0.037   5.145
 3711TIP3    H111139   1.062  -0.038   5.055
 3711TIP3    H211140   1.074   0.035   5.187
 3712TIP3   OH211141   3.349   5.906   0.782
 3712TIP3    H111142   3.308   5.983   0.821
 3712TIP3    H211143   3.392   5.939   0.703
 3713TIP3   OH211144   1.149   3.182   2.724
 3713TIP3    H111145   1.073   3.206   2.671
 3713TIP3    H211146   1.201   3.262   2.729
 3714TIP3   OH211147   3.292   0.174   3.370
 3714TIP3    H111148   3.332   0.260   3.353
 3714TIP3    H211149   3.212   0.194   3.419
 3715TIP3   OH211150   5.778   3.661   2.357
 3715TIP3    H111151   5.776   3.585   2.416
 3715TIP3    H211152   5.724   3.635   2.283
 3716TIP3   OH211153   2.304   4.499   1.856
 3716TIP3    H111154   2.282   4.405   1.860
 3716TIP3    H211155   2.325   4.522   1.946
 3717TIP3   OH211156   3.673   3.343   4.990
 3717TIP3    H111157   3.603   3.295   4.947
 3717TIP3    H211158   3.641   3.358   5.079
 3718TIP3   OH211159   2.162   5.290   0.058
 3718TIP3    H111160   2.257   5.300   0.063
 3718TIP3    H211161   2.148   5.229  -0.015
 3719TIP3   OH211162   0.953   1.830   3.451
 3719TIP3    H111163   1.005   1.821   3.530
 3719TIP3    H211164   0.876   1.775   3.466
 3720TIP3   OH211165   2.949   2.953   1.571
 3720TIP3    H111166   2.899   3.022   1.614
 3720TIP3    H211167   2.896   2.928   1.496
 3721TIP3   OH211168   0.206   3.630   2.553
 3721TIP3    H111169   0.229   3.541   2.524
 3721TIP3    H211170   0.139   3.616   2.621
 3722TIP3   OH211171   5.078   4.283   2.784
 3722TIP3    H111172   5.020   4.227   2.733
 3722TIP3    H211173   5.101   4.232   2.861
 3723TIP3   OH211174   2.242   1.552   3.798
 3723TIP3    H111175   2.335   1.540   3.816
 3723TIP3    H211176   2.226   1.500   3.719
 3724TIP3   OH211177   0.790   0.148   3.738
 3724TIP3    H111178   0.827   0.143   3.650
 3724TIP3    H211179   0.711   0.200   3.729
 3725TIP3   OH211180   3.041   3.182   0.384
 3725TIP3    H111181   3.105   3.158   0.452
 3725TIP3    H211182   2.969   3.221   0.433
 3726TIP3   OH211183   5.459   4.157   3.807
 3726TIP3    H111184   5.428   4.085   3.862
 3726TIP3    H211185   5.433   4.132   3.718
 3727TIP3   OH211186   2.547   5.109   4.840
 3727TIP3    H111187   2.525   5.051   4.912
 3727TIP3    H211188   2.612   5.170   4.876
 3728TIP3   OH211189   0.845   0.222   0.413
 3728TIP3    H111190   0.877   0.305   0.448
 3728TIP3    H211191   0.828   0.168   0.489
 3729TIP3   OH211192   0.829   0.077   4.555
 3729TIP3    H111193   0.738   0.048   4.551
 3729TIP3    H211194   0.873   0.030   4.484
 3730TIP3   OH211195   3.214   1.540   0.778
 3730TIP3    H111196   3.125   1.546   0.745
 3730TIP3    H211197   3.205   1.539   0.873
 3731TIP3   OH211198   5.111   1.840   5.037
 3731TIP3    H111199   5.090   1.881   4.953
 3731TIP3    H211200   5.131   1.913   5.095
 3732TIP3   OH211201   0.394   2.389   5.007
 3732TIP3    H111202   0.417   2.297   4.996
 3732TIP3    H211203   0.350   2.393   5.091
 3733TIP3   OH211204   2.249   1.072   4.635
 3733TIP3    H111205   2.214   1.029   4.713
 3733TIP3    H211206   2.328   1.116   4.667
 3734TIP3   OH211207   5.172   3.947   3.850
 3734TIP3    H111208   5.127   3.900   3.920
 3734TIP3    H211209   5.140   4.037   3.856
 3735TIP3   OH211210   0.193   0.594   1.650
 3735TIP3    H111211   0.169   0.571   1.560
 3735TIP3    H211212   0.225   0.512   1.687
 3736TIP3   OH211213   1.720   5.959   3.252
 3736TIP3    H111214   1.733   5.866   3.233
 3736TIP3    H211215   1.717   5.964   3.347
 3737TIP3   OH211216   1.748   0.459   5.060
 3737TIP3    H111217   1.676   0.488   5.004
 3737TIP3    H211218   1.813   0.423   4.999
 3738TIP3   OH211219   1.128   1.827   1.484
 3738TIP3    H111220   1.083   1.777   1.417
 3738TIP3    H211221   1.069   1.900   1.503
 3739TIP3   OH211222   1.422   5.145   1.141
 3739TIP3    H111223   1.452   5.100   1.220
 3739TIP3    H211224   1.425   5.238   1.165
 3740TIP3   OH211225   4.909   0.925   1.107
 3740TIP3    H111226   4.977   0.891   1.165
 3740TIP3    H211227   4.924   0.880   1.023
 3741TIP3   OH211228   3.827   2.794   4.582
 3741TIP3    H111229   3.760   2.852   4.547
 3741TIP3    H211230   3.823   2.805   4.677
 3742TIP3   OH211231   5.886   4.285   4.332
 3742TIP3    H111232   5.800   4.276   4.290
 3742TIP3    H211233   5.916   4.195   4.345
 3743TIP3   OH211234   3.409   4.466   4.778
 3743TIP3    H111235   3.498   4.440   4.803
 3743TIP3    H211236   3.387   4.407   4.706
 3744TIP3   OH211237   1.733   5.313   0.377
 3744TIP3    H111238   1.684   5.232   0.360
 3744TIP3    H211239   1.807   5.309   0.317
 3745TIP3   OH211240   4.155   2.050   3.207
 3745TIP3    H111241   4.060   2.059   3.200
 3745TIP3    H211242   4.168   1.963   3.244
 3746TIP3   OH211243   5.633   2.511   3.763
 3746TIP3    H111244   5.632   2.599   3.802
 3746TIP3    H211245   5.659   2.525   3.672
 3747TIP3   OH211246   0.349   4.221   0.656
 3747TIP3    H111247   0.351   4.305   0.702
 3747TIP3    H211248   0.281   4.170   0.700
 3748TIP3   OH211249   1.829   2.536   2.640
 3748TIP3    H111250   1.815   2.442   2.628
 3748TIP3    H211251   1.763   2.562   2.704
 3749TIP3   OH211252   2.211   2.382   4.023
 3749TIP3    H111253   2.213   2.412   4.114
 3749TIP3    H211254   2.186   2.459   3.973
 3750TIP3   OH211255   2.336   3.034   2.909
 3750TIP3    H111256   2.253   3.080   2.917
 3750TIP3    H211257   2.337   3.002   2.818
 3751TIP3   OH211258   1.054   1.339   0.641
 3751TIP3    H111259   1.006   1.261   0.612
 3751TIP3    H211260   1.140   1.331   0.599
 3752TIP3   OH211261   4.411   0.376   0.556
 3752TIP3    H111262   4.415   0.325   0.475
 3752TIP3    H211263   4.364   0.319   0.617
 3753TIP3   OH211264   5.325   2.472   2.669
 3753TIP3    H111265   5.306   2.387   2.709
 3753TIP3    H211266   5.275   2.535   2.721
 3754TIP3   OH211267   2.656   2.991   2.997
 3754TIP3    H111268   2.602   3.069   2.986
 3754TIP3    H211269   2.730   3.019   3.052
 3755TIP3   OH211270   3.938   5.299   3.683
 3755TIP3    H111271   3.871   5.367   3.678
 3755TIP3    H211272   3.904   5.227   3.632
 3756TIP3   OH211273   4.317   1.176   4.932
 3756TIP3    H111274   4.369   1.132   4.999
 3756TIP3    H211275   4.305   1.110   4.863
 3757TIP3   OH211276   3.860   0.088   1.092
 3757TIP3    H111277   3.868   0.019   1.026
 3757TIP3    H211278   3.810   0.158   1.049
 3758TIP3   OH211279   0.925   4.493   1.890
 3758TIP3    H111280   0.994   4.556   1.870
 3758TIP3    H211281   0.961   4.439   1.961
 3759TIP3   OH211282   3.073   4.812   1.973
 3759TIP3    H111283   3.101   4.725   2.000
 3759TIP3    H211284   3.068   4.862   2.054
 3760TIP3   OH211285   4.790   4.366   2.546
 3760TIP3    H111286   4.716   4.382   2.604
 3760TIP3    H211287   4.762   4.399   2.461
 3761TIP3   OH211288   2.267   1.635   1.036
 3761TIP3    H111289   2.353   1.603   1.007
 3761TIP3    H211290   2.287   1.709   1.093
 3762TIP3   OH211291   1.224   4.993   2.399
 3762TIP3    H111292   1.235   5.087   2.413
 3762TIP3    H211293   1.134   4.984   2.367
 3763TIP3   OH211294   2.501   4.963   3.425
 3763TIP3    H111295   2.487   4.944   3.332
 3763TIP3    H211296   2.580   5.017   3.427
 3764TIP3   OH211297   0.547   3.788   4.861
 3764TIP3    H111298   0.621   3.841   4.832
 3764TIP3    H211299   0.546   3.798   4.956
 3765TIP3   OH211300   3.730   5.343   4.963
 3765TIP3    H111301   3.756   5.332   4.871
 3765TIP3    H211302   3.810   5.324   5.012
 3766TIP3   OH211303   0.198   1.410   1.029
 3766TIP3    H111304   0.139   1.417   1.105
 3766TIP3    H211305   0.282   1.442   1.061
 3767TIP3   OH211306   3.525   4.743   3.847
 3767TIP3    H111307   3.594   4.706   3.902
 3767TIP3    H211308   3.553   4.724   3.757
 3768TIP3   OH211309   0.434   0.080   3.115
 3768TIP3    H111310   0.450   0.098   3.022
 3768TIP3    H211311   0.488   0.004   3.135
 3769TIP3   OH211312   2.339   3.863   4.949
 3769TIP3    H111313   2.256   3.906   4.929
 3769TIP3    H211314   2.318   3.804   5.021
 3770TIP3   OH211315   4.718   3.746   4.706
 3770TIP3    H111316   4.662   3.670   4.717
 3770TIP3    H211317   4.750   3.740   4.616
 3771TIP3   OH211318   2.472   4.870   1.616
 3771TIP3    H111319   2.521   4.814   1.556
 3771TIP3    H211320   2.386   4.879   1.575
 3772TIP3   OH211321   5.452   4.005   0.079
 3772TIP3    H111322   5.486   3.925   0.040
 3772TIP3    H211323   5.379   4.031   0.023
 3773TIP3   OH211324   1.186   5.298   2.143
 3773TIP3    H111325   1.162   5.293   2.235
 3773TIP3    H211326   1.280   5.314   2.143
 3774TIP3   OH211327   4.450   2.857   2.237
 3774TIP3    H111328   4.540   2.842   2.266
 3774TIP3    H211329   4.429   2.781   2.183
 3775TIP3   OH211330   1.048   2.413   2.036
 3775TIP3    H111331   1.115   2.401   1.969
 3775TIP3    H211332   1.091   2.465   2.104
 3776TIP3   OH211333   2.679   0.434   2.219
 3776TIP3    H111334   2.735   0.446   2.295
 3776TIP3    H211335   2.590   0.446   2.252
 3777TIP3   OH211336   4.267   0.750   3.686
 3777TIP3    H111337   4.286   0.827   3.740
 3777TIP3    H211338   4.216   0.693   3.743
 3778TIP3   OH211339   4.634   4.352   3.154
 3778TIP3    H111340   4.682   4.381   3.232
 3778TIP3    H211341   4.680   4.394   3.081
 3779TIP3   OH211342   2.361   4.851   2.934
 3779TIP3    H111343   2.440   4.846   2.880
 3779TIP3    H211344   2.291   4.821   2.876
 3780TIP3   OH211345   3.495   0.456   4.653
 3780TIP3    H111346   3.437   0.408   4.593
 3780TIP3    H211347   3.560   0.392   4.681
 3781TIP3   OH211348   0.940   0.231   1.320
 3781TIP3    H111349   0.880   0.305   1.312
 3781TIP3    H211350   0.924   0.178   1.242
 3782TIP3   OH211351   0.522   2.640   1.600
 3782TIP3    H111352   0.469   2.571   1.560
 3782TIP3    H211353   0.582   2.667   1.531
 3783TIP3   OH211354   1.150   0.130   1.706
 3783TIP3    H111355   1.159   0.172   1.791
 3783TIP3    H211356   1.058   0.103   1.702
 3784TIP3   OH211357   4.037   5.030   1.048
 3784TIP3    H111358   4.079   4.944   1.054
 3784TIP3    H211359   4.015   5.039   0.955
 3785TIP3   OH211360   2.615   0.753   4.634
 3785TIP3    H111361   2.638   0.740   4.542
 3785TIP3    H211362   2.696   0.786   4.674
 3786TIP3   OH211363  -0.005   4.365   1.063
 3786TIP3    H111364  -0.032   4.282   1.023
 3786TIP3    H211365   0.083   4.380   1.028
 3787TIP3   OH211366   5.756   2.167   0.381
 3787TIP3    H111367   5.698   2.185   0.455
 3787TIP3    H211368   5.729   2.081   0.349
 3788TIP3   OH211369   4.313   4.441   0.750
 3788TIP3    H111370   4.378   4.372   0.758
 3788TIP3    H211371   4.364   4.522   0.750
 3789TIP3   OH211372   2.146   5.001   0.555
 3789TIP3    H111373   2.182   4.915   0.531
 3789TIP3    H211374   2.077   4.981   0.619
 3790TIP3   OH211375   6.006   5.538   4.551
 3790TIP3    H111376   6.096   5.568   4.535
 3790TIP3    H211377   6.007   5.507   4.641
 3791TIP3   OH211378   3.690   2.297   1.105
 3791TIP3    H111379   3.737   2.291   1.188
 3791TIP3    H211380   3.745   2.353   1.050
 3792TIP3   OH211381   0.904   1.656   4.368
 3792TIP3    H111382   0.873   1.706   4.293
 3792TIP3    H211383   0.826   1.613   4.402
 3793TIP3   OH211384   6.005   5.369   1.231
 3793TIP3    H111385   5.980   5.461   1.228
 3793TIP3    H211386   6.012   5.343   1.139
 3794TIP3   OH211387   1.469   4.393   3.354
 3794TIP3    H111388   1.386   4.438   3.371
 3794TIP3    H211389   1.534   4.462   3.349
 3795TIP3   OH211390   0.345   3.526   5.094
 3795TIP3    H111391   0.440   3.523   5.090
 3795TIP3    H211392   0.324   3.620   5.091
 3796TIP3   OH211393   2.936   2.356   2.960
 3796TIP3    H111394   2.900   2.287   3.016
 3796TIP3    H211395   2.877   2.430   2.973
 3797TIP3   OH211396   5.377   2.671   4.633
 3797TIP3    H111397   5.343   2.619   4.706
 3797TIP3    H211398   5.323   2.644   4.558
 3798TIP3   OH211399   0.222   3.352   0.897
 3798TIP3    H111400   0.294   3.295   0.870
 3798TIP3    H211401   0.149   3.292   0.914
 3799TIP3   OH211402   1.390   1.388   4.861
 3799TIP3    H111403   1.317   1.424   4.811
 3799TIP3    H211404   1.368   1.405   4.953
 3800TIP3   OH211405   2.111   3.163   2.966
 3800TIP3    H111406   2.085   3.227   3.033
 3800TIP3    H211407   2.029   3.133   2.928
 3801TIP3   OH211408   3.019   5.857   3.878
 3801TIP3    H111409   3.065   5.798   3.938
 3801TIP3    H211410   2.968   5.914   3.935
 3802TIP3   OH211411   2.511   0.864   0.193
 3802TIP3    H111412   2.432   0.866   0.248
 3802TIP3    H211413   2.518   0.953   0.159
 3803TIP3   OH211414   5.014   0.432   3.513
 3803TIP3    H111415   5.044   0.519   3.484
 3803TIP3    H211416   5.087   0.398   3.564
 3804TIP3   OH211417   1.967   1.430   4.178
 3804TIP3    H111418   1.914   1.366   4.131
 3804TIP3    H211419   1.912   1.459   4.250
 3805TIP3   OH211420   0.202   3.594   0.246
 3805TIP3    H111421   0.217   3.522   0.184
 3805TIP3    H211422   0.259   3.664   0.215
 3806TIP3   OH211423   5.941   0.948   2.858
 3806TIP3    H111424   5.891   0.951   2.940
 3806TIP3    H211425   6.027   0.916   2.884
 3807TIP3   OH211426   2.775   2.310   4.209
 3807TIP3    H111427   2.739   2.390   4.246
 3807TIP3    H211428   2.863   2.305   4.245
 3808TIP3   OH211429   1.331   4.690   3.110
 3808TIP3    H111430   1.317   4.597   3.090
 3808TIP3    H211431   1.270   4.708   3.182
 3809TIP3   OH211432   1.379   1.691   3.783
 3809TIP3    H111433   1.473   1.675   3.774
 3809TIP3    H211434   1.352   1.637   3.858
 3810TIP3   OH211435   5.440   0.399   3.991
 3810TIP3    H111436   5.535   0.407   3.986
 3810TIP3    H211437   5.406   0.486   3.969
 3811TIP3   OH211438   5.958   2.999   3.958
 3811TIP3    H111439   6.016   2.929   3.988
 3811TIP3    H211440   5.921   2.966   3.876
 3812TIP3   OH211441   3.084   2.547   2.563
 3812TIP3    H111442   3.175   2.568   2.546
 3812TIP3    H211443   3.065   2.587   2.648
 3813TIP3   OH211444   4.327   1.243   0.315
 3813TIP3    H111445   4.231   1.238   0.314
 3813TIP3    H211446   4.355   1.158   0.283
 3814TIP3   OH211447   2.235   2.022   2.504
 3814TIP3    H111448   2.236   2.025   2.600
 3814TIP3    H211449   2.170   2.087   2.478
 3815TIP3   OH211450   0.716   2.771   3.916
 3815TIP3    H111451   0.711   2.767   4.011
 3815TIP3    H211452   0.648   2.711   3.885
 3816TIP3   OH211453   5.554   3.224   0.636
 3816TIP3    H111454   5.587   3.212   0.547
 3816TIP3    H211455   5.549   3.318   0.648
 3817TIP3   OH211456   4.860   4.596   2.006
 3817TIP3    H111457   4.831   4.674   2.052
 3817TIP3    H211458   4.820   4.603   1.919
 3818TIP3   OH211459  -0.003   2.461   1.682
 3818TIP3    H111460  -0.045   2.522   1.742
 3818TIP3    H211461   0.055   2.515   1.629
 3819TIP3   OH211462   4.321   0.674   4.319
 3819TIP3    H111463   4.318   0.742   4.252
 3819TIP3    H211464   4.345   0.595   4.272
 3820TIP3   OH211465   5.679   4.914   3.415
 3820TIP3    H111466   5.617   4.842   3.405
 3820TIP3    H211467   5.625   4.993   3.404
 3821TIP3   OH211468   1.066   3.055   4.715
 3821TIP3    H111469   1.008   2.984   4.743
 3821TIP3    H211470   1.065   3.117   4.788
 3822TIP3   OH211471   3.636   0.611   3.213
 3822TIP3    H111472   3.704   0.674   3.187
 3822TIP3    H211473   3.554   0.660   3.206
 3823TIP3   OH211474   1.968   1.367   0.505
 3823TIP3    H111475   2.062   1.379   0.502
 3823TIP3    H211476   1.950   1.341   0.596
 3824TIP3   OH211477   5.577   5.562   1.131
 3824TIP3    H111478   5.599   5.542   1.040
 3824TIP3    H211479   5.484   5.539   1.138
 3825TIP3   OH211480   3.266   3.102   1.836
 3825TIP3    H111481   3.277   3.038   1.907
 3825TIP3    H211482   3.237   3.050   1.761
 3826TIP3   OH211483   1.069   3.643   1.104
 3826TIP3    H111484   1.092   3.716   1.046
 3826TIP3    H211485   1.054   3.683   1.189
 3827TIP3   OH211486   1.471   5.228   4.332
 3827TIP3    H111487   1.528   5.303   4.315
 3827TIP3    H211488   1.509   5.157   4.280
 3828TIP3   OH211489   0.176   2.595   2.048
 3828TIP3    H111490   0.215   2.674   2.010
 3828TIP3    H211491   0.247   2.530   2.045
 3829TIP3   OH211492   4.714   0.634   3.275
 3829TIP3    H111493   4.660   0.555   3.283
 3829TIP3    H211494   4.731   0.642   3.182
 3830TIP3   OH211495   0.337   0.208   4.799
 3830TIP3    H111496   0.250   0.229   4.764
 3830TIP3    H211497   0.378   0.293   4.814
 3831TIP3   OH211498   2.611   2.215   0.359
 3831TIP3    H111499   2.658   2.197   0.278
 3831TIP3    H211500   2.552   2.287   0.338
 3832TIP3   OH211501   5.452   1.191   4.490
 3832TIP3    H111502   5.393   1.170   4.562
 3832TIP3    H211503   5.517   1.250   4.528
 3833TIP3   OH211504   5.272   0.613   0.663
 3833TIP3    H111505   5.255   0.706   0.675
 3833TIP3    H211506   5.315   0.608   0.578
 3834TIP3   OH211507   3.698   5.607   4.971
 3834TIP3    H111508   3.710   5.513   4.978
 3834TIP3    H211509   3.786   5.641   4.953
 3835TIP3   OH211510   4.571   3.517   4.431
 3835TIP3    H111511   4.501   3.572   4.397
 3835TIP3    H211512   4.565   3.436   4.379
 3836TIP3   OH211513   0.512   2.329   3.261
 3836TIP3    H111514   0.541   2.399   3.202
 3836TIP3    H211515   0.583   2.264   3.258
 3837TIP3   OH211516   2.866   0.379   3.773
 3837TIP3    H111517   2.807   0.443   3.734
 3837TIP3    H211518   2.901   0.423   3.851
 3838TIP3   OH211519   0.668   5.944   0.550
 3838TIP3    H111520   0.680   5.905   0.637
 3838TIP3    H211521   0.743   6.003   0.540
 3839TIP3   OH211522   2.481   5.464   3.992
 3839TIP3    H111523   2.430   5.544   3.980
 3839TIP3    H211524   2.510   5.440   3.904
 3840TIP3   OH211525   4.320   3.635   4.422
 3840TIP3    H111526   4.270   3.608   4.499
 3840TIP3    H211527   4.296   3.571   4.354
 3841TIP3   OH211528   4.653   4.743   2.659
 3841TIP3    H111529   4.709   4.728   2.582
 3841TIP3    H211530   4.708   4.721   2.734
 3842TIP3   OH211531   6.067   4.821   1.666
 3842TIP3    H111532   6.143   4.846   1.718
 3842TIP3    H211533   6.074   4.726   1.656
 3843TIP3   OH211534   4.124   3.806   0.654
 3843TIP3    H111535   4.170   3.880   0.694
 3843TIP3    H211536   4.054   3.846   0.603
 3844TIP3   OH211537   1.686   2.411   4.738
 3844TIP3    H111538   1.659   2.469   4.810
 3844TIP3    H211539   1.605   2.372   4.706
 3845TIP3   OH211540   1.050   4.315   2.052
 3845TIP3    H111541   1.078   4.254   1.984
 3845TIP3    H211542   1.013   4.260   2.120
 3846TIP3   OH211543   3.694   0.983   4.383
 3846TIP3    H111544   3.724   1.065   4.345
 3846TIP3    H211545   3.752   0.968   4.458
 3847TIP3   OH211546   3.747   5.167   3.057
 3847TIP3    H111547   3.820   5.154   3.118
 3847TIP3    H211548   3.761   5.099   2.990
 3848TIP3   OH211549   4.612   0.942   0.146
 3848TIP3    H111550   4.537   0.919   0.201
 3848TIP3    H211551   4.634   1.031   0.173
 3849TIP3   OH211552   5.747   2.054   0.746
 3849TIP3    H111553   5.819   2.116   0.754
 3849TIP3    H211554   5.782   1.983   0.691
 3850TIP3   OH211555   3.838   0.661   2.125
 3850TIP3    H111556   3.747   0.655   2.151
 3850TIP3    H211557   3.876   0.728   2.182
 3851TIP3   OH211558   1.322   4.697   4.489
 3851TIP3    H111559   1.315   4.608   4.525
 3851TIP3    H211560   1.234   4.719   4.460
 3852TIP3   OH211561   0.871   0.542   0.228
 3852TIP3    H111562   0.955   0.585   0.214
 3852TIP3    H211563   0.849   0.503   0.143
 3853TIP3   OH211564   0.597   5.350   0.699
 3853TIP3    H111565   0.640   5.422   0.654
 3853TIP3    H211566   0.548   5.392   0.770
 3854TIP3   OH211567   1.629   2.066   1.168
 3854TIP3    H111568   1.545   2.067   1.213
 3854TIP3    H211569   1.611   2.022   1.085
 3855TIP3   OH211570   4.697   2.569   0.510
 3855TIP3    H111571   4.759   2.547   0.579
 3855TIP3    H211572   4.690   2.664   0.513
 3856TIP3   OH211573   1.421   1.380   1.010
 3856TIP3    H111574   1.441   1.292   1.043
 3856TIP3    H211575   1.337   1.402   1.050
 3857TIP3   OH211576   3.365   1.039   4.504
 3857TIP3    H111577   3.350   0.999   4.589
 3857TIP3    H211578   3.397   1.127   4.524
 3858TIP3   OH211579   2.359   5.169   0.552
 3858TIP3    H111580   2.418   5.117   0.606
 3858TIP3    H211581   2.280   5.116   0.543
 3859TIP3   OH211582   5.667   0.440   1.847
 3859TIP3    H111583   5.592   0.398   1.804
 3859TIP3    H211584   5.667   0.404   1.936
 3860TIP3   OH211585   1.666   1.325   0.042
 3860TIP3    H111586   1.721   1.273  -0.017
 3860TIP3    H211587   1.579   1.288   0.032
 3861TIP3   OH211588   1.600   2.911   3.232
 3861TIP3    H111589   1.595   2.818   3.254
 3861TIP3    H211590   1.694   2.929   3.224
 3862TIP3   OH211591   3.938   2.989   4.102
 3862TIP3    H111592   3.950   2.894   4.104
 3862TIP3    H211593   3.943   3.013   4.009
 3863TIP3   OH211594   0.632   4.925   2.302
 3863TIP3    H111595   0.589   4.905   2.219
 3863TIP3    H211596   0.719   4.956   2.277
 3864TIP3   OH211597   0.139   1.768   1.221
 3864TIP3    H111598   0.087   1.688   1.212
 3864TIP3    H211599   0.167   1.788   1.132
 3865TIP3   OH211600   3.069   2.834   3.762
 3865TIP3    H111601   3.143   2.776   3.779
 3865TIP3    H211602   3.079   2.905   3.825
 3866TIP3   OH211603   3.936   0.611   4.625
 3866TIP3    H111604   3.992   0.590   4.550
 3866TIP3    H211605   3.938   0.533   4.680
 3867TIP3   OH211606   0.070   5.876   2.403
 3867TIP3    H111607   0.008   5.932   2.357
 3867TIP3    H211608   0.146   5.872   2.344
 3868TIP3   OH211609   2.479   1.922   2.512
 3868TIP3    H111610   2.472   1.892   2.603
 3868TIP3    H211611   2.391   1.956   2.492
 3869TIP3   OH211612   0.514   4.820   0.267
 3869TIP3    H111613   0.418   4.826   0.270
 3869TIP3    H211614   0.535   4.759   0.337
 3870TIP3   OH211615   5.948   5.686   5.131
 3870TIP3    H111616   5.876   5.656   5.187
 3870TIP3    H211617   5.999   5.607   5.114
 3871TIP3   OH211618   0.366   3.623   4.562
 3871TIP3    H111619   0.452   3.581   4.565
 3871TIP3    H211620   0.318   3.584   4.634
 3872TIP3   OH211621   0.271   1.523   0.235
 3872TIP3    H111622   0.178   1.502   0.228
 3872TIP3    H211623   0.315   1.446   0.201
 3873TIP3   OH211624   3.845   3.606   3.539
 3873TIP3    H111625   3.939   3.604   3.521
 3873TIP3    H211626   3.807   3.544   3.476
 3874TIP3   OH211627   6.025   4.583   3.437
 3874TIP3    H111628   6.002   4.576   3.344
 3874TIP3    H211629   6.020   4.677   3.455
 3875TIP3   OH211630   4.973   2.899   2.644
 3875TIP3    H111631   5.038   2.832   2.660
 3875TIP3    H211632   4.898   2.874   2.697
 3876TIP3   OH211633   3.463   1.883   4.887
 3876TIP3    H111634   3.475   1.804   4.833
 3876TIP3    H211635   3.506   1.862   4.970
 3877TIP3   OH211636   3.505   0.274   4.203
 3877TIP3    H111637   3.494   0.270   4.108
 3877TIP3    H211638   3.523   0.366   4.222
 3878TIP3   OH211639   5.303   5.560   2.136
 3878TIP3    H111640   5.296   5.578   2.042
 3878TIP3    H211641   5.250   5.628   2.178
 3879TIP3   OH211642   0.924   3.837   0.828
 3879TIP3    H111643   0.915   3.763   0.769
 3879TIP3    H211644   1.006   3.822   0.874
 3880TIP3   OH211645   2.094   0.509   2.481
 3880TIP3    H111646   2.102   0.462   2.398
 3880TIP3    H211647   2.051   0.447   2.540
 3881TIP3   OH211648   4.328   0.984   0.999
 3881TIP3    H111649   4.299   0.902   0.960
 3881TIP3    H211650   4.266   1.002   1.070
 3882TIP3   OH211651   1.218   3.473   1.756
 3882TIP3    H111652   1.166   3.491   1.834
 3882TIP3    H211653   1.278   3.403   1.784
 3883TIP3   OH211654   2.819   0.788   2.320
 3883TIP3    H111655   2.756   0.789   2.392
 3883TIP3    H211656   2.800   0.867   2.270
 3884TIP3   OH211657   6.239   1.698   4.471
 3884TIP3    H111658   6.272   1.735   4.553
 3884TIP3    H211659   6.241   1.603   4.486
 3885TIP3   OH211660   1.186   1.864   4.943
 3885TIP3    H111661   1.177   1.771   4.963
 3885TIP3    H211662   1.159   1.871   4.851
 3886TIP3   OH211663   3.305   1.808   0.347
 3886TIP3    H111664   3.210   1.809   0.335
 3886TIP3    H211665   3.316   1.797   0.442
 3887TIP3   OH211666   3.218   3.466   2.228
 3887TIP3    H111667   3.250   3.430   2.145
 3887TIP3    H211668   3.284   3.531   2.253
 3888TIP3   OH211669   4.868   3.201   1.681
 3888TIP3    H111670   4.922   3.240   1.750
 3888TIP3    H211671   4.890   3.108   1.683
 3889TIP3   OH211672   2.755   5.899   2.328
 3889TIP3    H111673   2.754   5.869   2.419
 3889TIP3    H211674   2.778   5.991   2.333
 3890TIP3   OH211675   0.480   1.862   3.119
 3890TIP3    H111676   0.431   1.935   3.156
 3890TIP3    H211677   0.418   1.818   3.061
 3891TIP3   OH211678   6.067   5.669   3.367
 3891TIP3    H111679   6.037   5.673   3.458
 3891TIP3    H211680   6.035   5.749   3.327
 3892TIP3   OH211681   6.346   2.097   2.627
 3892TIP3    H111682   6.326   2.041   2.551
 3892TIP3    H211683   6.382   2.177   2.588
 3893TIP3   OH211684   5.432   2.254   5.062
 3893TIP3    H111685   5.517   2.291   5.038
 3893TIP3    H211686   5.451   2.197   5.137
 3894TIP3   OH211687   4.718   2.085   0.767
 3894TIP3    H111688   4.659   2.016   0.796
 3894TIP3    H211689   4.756   2.120   0.847
 3895TIP3   OH211690   0.831   3.564   5.103
 3895TIP3    H111691   0.817   3.586   5.011
 3895TIP3    H211692   0.790   3.479   5.115
 3896TIP3   OH211693   0.312   2.976   3.937
 3896TIP3    H111694   0.328   2.992   4.030
 3896TIP3    H211695   0.241   3.036   3.915
 3897TIP3   OH211696   4.725   3.730   2.131
 3897TIP3    H111697   4.750   3.638   2.141
 3897TIP3    H211698   4.808   3.777   2.122
 3898TIP3   OH211699   0.916   0.427   2.993
 3898TIP3    H111700   1.011   0.428   3.008
 3898TIP3    H211701   0.891   0.519   2.993
 3899TIP3   OH211702   1.608   2.456   2.276
 3899TIP3    H111703   1.563   2.518   2.219
 3899TIP3    H211704   1.537   2.415   2.326
 3900TIP3   OH211705   1.322   4.626   1.492
 3900TIP3    H111706   1.290   4.573   1.565
 3900TIP3    H211707   1.243   4.654   1.447
 3901TIP3   OH211708   0.120   5.617   2.075
 3901TIP3    H111709   0.177   5.540   2.067
 3901TIP3    H211710   0.167   5.676   2.133
 3902TIP3   OH211711   4.321   0.289   2.878
 3902TIP3    H111712   4.321   0.275   2.784
 3902TIP3    H211713   4.233   0.321   2.899
 3903TIP3   OH211714   2.232   3.193   0.960
 3903TIP3    H111715   2.210   3.230   1.045
 3903TIP3    H211716   2.148   3.174   0.919
 3904TIP3   OH211717   1.529   0.773   2.640
 3904TIP3    H111718   1.562   0.831   2.570
 3904TIP3    H211719   1.437   0.760   2.618
 3905TIP3   OH211720   1.947   4.661   1.258
 3905TIP3    H111721   1.892   4.590   1.290
 3905TIP3    H211722   2.028   4.654   1.310
 3906TIP3   OH211723   0.172   5.279   0.589
 3906TIP3    H111724   0.228   5.345   0.547
 3906TIP3    H211725   0.138   5.227   0.516
 3907TIP3   OH211726   5.580   3.251   3.489
 3907TIP3    H111727   5.485   3.249   3.475
 3907TIP3    H211728   5.599   3.342   3.509
 3908TIP3   OH211729   4.420   0.385   4.273
 3908TIP3    H111730   4.451   0.328   4.344
 3908TIP3    H211731   4.370   0.327   4.216
 3909TIP3   OH211732   4.084   4.384   1.516
 3909TIP3    H111733   3.998   4.344   1.506
 3909TIP3    H211734   4.091   4.403   1.609
 3910TIP3   OH211735   3.154   2.631   2.833
 3910TIP3    H111736   3.173   2.553   2.885
 3910TIP3    H211737   3.206   2.701   2.874
 3911TIP3   OH211738   2.944   3.780   3.315
 3911TIP3    H111739   2.941   3.847   3.384
 3911TIP3    H211740   3.021   3.804   3.262
 3912TIP3   OH211741   1.730   1.956   3.394
 3912TIP3    H111742   1.698   1.917   3.313
 3912TIP3    H211743   1.808   1.906   3.416
 3913TIP3   OH211744   1.646   0.340   4.057
 3913TIP3    H111745   1.552   0.337   4.073
 3913TIP3    H211746   1.672   0.248   4.046
 3914TIP3   OH211747   3.860   2.426   0.064
 3914TIP3    H111748   3.877   2.345   0.015
 3914TIP3    H211749   3.814   2.396   0.143
 3915TIP3   OH211750   0.596   4.913   3.587
 3915TIP3    H111751   0.589   4.824   3.621
 3915TIP3    H211752   0.647   4.961   3.653
 3916TIP3   OH211753   5.511   0.594   3.468
 3916TIP3    H111754   5.596   0.576   3.509
 3916TIP3    H211755   5.510   0.540   3.390
 3917TIP3   OH211756   2.281   2.162   3.892
 3917TIP3    H111757   2.245   2.232   3.947
 3917TIP3    H211758   2.206   2.133   3.839
 3918TIP3   OH211759   0.210   0.237   2.788
 3918TIP3    H111760   0.156   0.226   2.710
 3918TIP3    H211761   0.230   0.331   2.791
 3919TIP3   OH211762   5.731   0.931   3.524
 3919TIP3    H111763   5.642   0.905   3.499
 3919TIP3    H211764   5.781   0.849   3.523
 3920TIP3   OH211765   6.090   5.789   2.064
 3920TIP3    H111766   6.002   5.792   2.102
 3920TIP3    H211767   6.077   5.814   1.973
 3921TIP3   OH211768   0.828   4.113   1.203
 3921TIP3    H111769   0.909   4.111   1.151
 3921TIP3    H211770   0.806   4.021   1.215
 3922TIP3   OH211771   1.424   2.319   2.447
 3922TIP3    H111772   1.338   2.352   2.421
 3922TIP3    H211773   1.407   2.230   2.480
 3923TIP3   OH211774   2.916   1.680   2.203
 3923TIP3    H111775   2.976   1.648   2.270
 3923TIP3    H211776   2.967   1.678   2.122
 3924TIP3   OH211777   2.178   1.583   4.074
 3924TIP3    H111778   2.183   1.577   3.978
 3924TIP3    H211779   2.090   1.552   4.095
 3925TIP3   OH211780   4.558   4.151   2.295
 3925TIP3    H111781   4.464   4.169   2.305
 3925TIP3    H211782   4.579   4.093   2.368
 3926TIP3   OH211783   2.795   4.182   3.353
 3926TIP3    H111784   2.819   4.198   3.261
 3926TIP3    H211785   2.823   4.261   3.399
 3927TIP3   OH211786   6.220  -0.043   3.852
 3927TIP3    H111787   6.246  -0.023   3.942
 3927TIP3    H211788   6.196   0.042   3.815
 3928TIP3   OH211789   1.356   0.289   4.151
 3928TIP3    H111790   1.371   0.360   4.214
 3928TIP3    H211791   1.326   0.334   4.072
 3929TIP3   OH211792   5.226   0.419   1.391
 3929TIP3    H111793   5.134   0.417   1.417
 3929TIP3    H211794   5.257   0.505   1.418
 3930TIP3   OH211795   3.397   2.108   3.514
 3930TIP3    H111796   3.387   2.159   3.434
 3930TIP3    H211797   3.352   2.025   3.495
 3931TIP3   OH211798   4.613   4.973   2.309
 3931TIP3    H111799   4.523   4.993   2.282
 3931TIP3    H211800   4.667   5.037   2.262
 3932TIP3   OH211801   6.184   1.592   3.536
 3932TIP3    H111802   6.107   1.591   3.593
 3932TIP3    H211803   6.257   1.570   3.594
 3933TIP3   OH211804   3.018   0.289   3.233
 3933TIP3    H111805   3.072   0.368   3.238
 3933TIP3    H211806   2.991   0.283   3.141
 3934TIP3   OH211807   0.540   4.809   2.060
 3934TIP3    H111808   0.595   4.749   2.110
 3934TIP3    H211809   0.453   4.769   2.062
 3935TIP3   OH211810   2.402   4.120   0.430
 3935TIP3    H111811   2.402   4.078   0.344
 3935TIP3    H211812   2.327   4.181   0.427
 3936TIP3   OH211813   2.129   4.293   4.054
 3936TIP3    H111814   2.187   4.221   4.080
 3936TIP3    H211815   2.111   4.339   4.135
 3937TIP3   OH211816   5.887   4.463   0.627
 3937TIP3    H111817   5.912   4.494   0.540
 3937TIP3    H211818   5.792   4.453   0.621
 3938TIP3   OH211819   3.947   4.196   0.247
 3938TIP3    H111820   4.023   4.252   0.229
 3938TIP3    H211821   3.984   4.108   0.256
 3939TIP3   OH211822   5.763   1.302   2.544
 3939TIP3    H111823   5.858   1.293   2.542
 3939TIP3    H211824   5.731   1.212   2.541
 3940TIP3   OH211825   5.842   4.096   1.881
 3940TIP3    H111826   5.870   4.161   1.817
 3940TIP3    H211827   5.919   4.041   1.894
 3941TIP3   OH211828   0.990   5.939   3.535
 3941TIP3    H111829   0.931   6.010   3.559
 3941TIP3    H211830   1.055   5.937   3.605
 3942TIP3   OH211831   3.416   2.812   0.913
 3942TIP3    H111832   3.412   2.832   0.819
 3942TIP3    H211833   3.325   2.795   0.937
 3943TIP3   OH211834   3.557   3.039   0.087
 3943TIP3    H111835   3.502   2.985   0.144
 3943TIP3    H211836   3.555   3.126   0.127
 3944TIP3   OH211837   3.008   2.588   1.075
 3944TIP3    H111838   3.056   2.515   1.035
 3944TIP3    H211839   2.932   2.546   1.116
 3945TIP3   OH211840   2.621   3.080   2.105
 3945TIP3    H111841   2.660   3.059   2.190
 3945TIP3    H211842   2.664   3.021   2.043
 3946TIP3   OH211843   6.196   3.762   1.767
 3946TIP3    H111844   6.133   3.815   1.719
 3946TIP3    H211845   6.280   3.783   1.727
 3947TIP3   OH211846   2.848   2.315   3.720
 3947TIP3    H111847   2.824   2.361   3.800
 3947TIP3    H211848   2.932   2.273   3.741
 3948TIP3   OH211849   3.112   1.746   2.003
 3948TIP3    H111850   3.181   1.710   2.059
 3948TIP3    H211851   3.119   1.841   2.014
 3949TIP3   OH211852   5.525   1.177   2.109
 3949TIP3    H111853   5.551   1.094   2.069
 3949TIP3    H211854   5.430   1.177   2.104
 3950TIP3   OH211855   3.533   3.547   3.030
 3950TIP3    H111856   3.522   3.452   3.021
 3950TIP3    H211857   3.624   3.558   3.055
 3951TIP3   OH211858   1.498   3.162   0.831
 3951TIP3    H111859   1.473   3.230   0.768
 3951TIP3    H211860   1.455   3.187   0.912
 3952TIP3   OH211861   2.799   0.398   4.208
 3952TIP3    H111862   2.839   0.329   4.155
 3952TIP3    H211863   2.873   0.449   4.241
 3953TIP3   OH211864   4.598   4.396   4.145
 3953TIP3    H111865   4.572   4.332   4.211
 3953TIP3    H211866   4.519   4.410   4.093
 3954TIP3   OH211867   5.638   4.468   0.518
 3954TIP3    H111868   5.639   4.426   0.432
 3954TIP3    H211869   5.552   4.446   0.554
 3955TIP3   OH211870   2.868   2.440   0.219
 3955TIP3    H111871   2.802   2.509   0.210
 3955TIP3    H211872   2.825   2.361   0.187
 3956TIP3   OH211873   0.952   0.616   1.124
 3956TIP3    H111874   1.007   0.537   1.123
 3956TIP3    H211875   0.917   0.622   1.035
 3957TIP3   OH211876   4.808   0.149   1.543
 3957TIP3    H111877   4.778   0.072   1.590
 3957TIP3    H211878   4.756   0.221   1.579
 3958TIP3   OH211879   4.568   1.096   0.923
 3958TIP3    H111880   4.541   1.183   0.894
 3958TIP3    H211881   4.491   1.061   0.968
 3959TIP3   OH211882   2.105   4.621   1.485
 3959TIP3    H111883   2.078   4.545   1.535
 3959TIP3    H211884   2.098   4.694   1.546
 3960TIP3   OH211885   1.175   3.494   0.166
 3960TIP3    H111886   1.091   3.525   0.133
 3960TIP3    H211887   1.167   3.398   0.166
 3961TIP3   OH211888   4.618   4.361   1.100
 3961TIP3    H111889   4.707   4.333   1.078
 3961TIP3    H211890   4.617   4.454   1.081
 3962TIP3   OH211891   2.143   5.203   4.734
 3962TIP3    H111892   2.065   5.160   4.769
 3962TIP3    H211893   2.120   5.295   4.728
 3963TIP3   OH211894   1.837   3.098   4.846
 3963TIP3    H111895   1.830   3.185   4.884
 3963TIP3    H211896   1.748   3.079   4.814
 3964TIP3   OH211897   0.713   2.769   4.214
 3964TIP3    H111898   0.653   2.703   4.249
 3964TIP3    H211899   0.670   2.853   4.233
 3965TIP3   OH211900   0.512   1.943   2.752
 3965TIP3    H111901   0.465   1.970   2.673
 3965TIP3    H211902   0.447   1.895   2.803
 3966TIP3   OH211903   2.408   2.692   4.446
 3966TIP3    H111904   2.447   2.643   4.519
 3966TIP3    H211905   2.315   2.696   4.466
 3967TIP3   OH211906   0.535   0.093   2.172
 3967TIP3    H111907   0.518   0.172   2.223
 3967TIP3    H211908   0.548   0.125   2.082
 3968TIP3   OH211909   4.520   4.511   2.733
 3968TIP3    H111910   4.560   4.597   2.718
 3968TIP3    H211911   4.445   4.529   2.790
 3969TIP3   OH211912   4.980   4.068   4.603
 3969TIP3    H111913   4.957   4.037   4.515
 3969TIP3    H211914   4.995   4.162   4.592
 3970TIP3   OH211915   5.652   0.282   0.420
 3970TIP3    H111916   5.728   0.224   0.407
 3970TIP3    H211917   5.654   0.342   0.346
 3971TIP3   OH211918   1.646   0.897   4.934
 3971TIP3    H111919   1.601   0.959   4.877
 3971TIP3    H211920   1.575   0.841   4.968
 3972TIP3   OH211921   5.609   3.231   4.703
 3972TIP3    H111922   5.573   3.159   4.755
 3972TIP3    H211923   5.543   3.246   4.635
 3973TIP3   OH211924   0.185   0.168   3.427
 3973TIP3    H111925   0.179   0.120   3.510
 3973TIP3    H211926   0.157   0.105   3.361
 3974TIP3   OH211927   0.595   4.813   4.391
 3974TIP3    H111928   0.581   4.740   4.330
 3974TIP3    H211929   0.563   4.890   4.344
 3975TIP3   OH211930   0.278   4.980   5.133
 3975TIP3    H111931   0.277   5.034   5.054
 3975TIP3    H211932   0.200   5.008   5.181
 3976TIP3   OH211933   5.672   0.235   3.117
 3976TIP3    H111934   5.666   0.310   3.176
 3976TIP3    H211935   5.609   0.253   3.048
 3977TIP3   OH211936   5.516   2.461   2.072
 3977TIP3    H111937   5.542   2.552   2.066
 3977TIP3    H211938   5.598   2.412   2.079
 3978TIP3   OH211939   0.376   3.780   4.059
 3978TIP3    H111940   0.459   3.739   4.033
 3978TIP3    H211941   0.389   3.801   4.152
 3979TIP3   OH211942   4.554   3.403   4.685
 3979TIP3    H111943   4.517   3.317   4.666
 3979TIP3    H211944   4.545   3.451   4.602
 3980TIP3   OH211945   4.520   0.495   2.106
 3980TIP3    H111946   4.435   0.453   2.113
 3980TIP3    H211947   4.505   0.586   2.131
 3981TIP3   OH211948   3.634   0.545   0.460
 3981TIP3    H111949   3.629   0.640   0.476
 3981TIP3    H211950   3.550   0.512   0.491
 3982TIP3   OH211951   1.345   5.304   5.121
 3982TIP3    H111952   1.418   5.244   5.109
 3982TIP3    H211953   1.337   5.315   5.216
 3983TIP3   OH211954   6.107   3.878   3.946
 3983TIP3    H111955   6.128   3.815   3.878
 3983TIP3    H211956   6.034   3.929   3.910
 3984TIP3   OH211957   5.148   2.325   1.108
 3984TIP3    H111958   5.192   2.259   1.161
 3984TIP3    H211959   5.119   2.391   1.171
 3985TIP3   OH211960   0.278   5.921   3.571
 3985TIP3    H111961   0.216   5.944   3.640
 3985TIP3    H211962   0.308   5.833   3.594
 3986TIP3   OH211963   4.983   0.875   3.268
 3986TIP3    H111964   4.900   0.888   3.313
 3986TIP3    H211965   5.032   0.815   3.324
 3987TIP3   OH211966   5.815   4.285   1.484
 3987TIP3    H111967   5.761   4.323   1.554
 3987TIP3    H211968   5.767   4.206   1.457
 3988TIP3   OH211969   5.209   1.714   3.884
 3988TIP3    H111970   5.267   1.727   3.959
 3988TIP3    H211971   5.181   1.803   3.860
 3989TIP3   OH211972   5.586   4.226   5.047
 3989TIP3    H111973   5.543   4.311   5.049
 3989TIP3    H211974   5.649   4.230   5.120
 3990TIP3   OH211975   2.484   1.368   2.268
 3990TIP3    H111976   2.441   1.283   2.276
 3990TIP3    H211977   2.427   1.428   2.315
 3991TIP3   OH211978   4.502   5.282   2.451
 3991TIP3    H111979   4.558   5.357   2.469
 3991TIP3    H211980   4.539   5.242   2.372
 3992TIP3   OH211981   5.016   5.415   2.803
 3992TIP3    H111982   5.061   5.400   2.720
 3992TIP3    H211983   4.924   5.428   2.779
 3993TIP3   OH211984   5.934   2.743   4.532
 3993TIP3    H111985   5.894   2.783   4.455
 3993TIP3    H211986   5.889   2.783   4.606
 3994TIP3   OH211987   0.207   1.364   0.755
 3994TIP3    H111988   0.299   1.345   0.774
 3994TIP3    H211989   0.171   1.393   0.839
 3995TIP3   OH211990   5.037   3.926   3.583
 3995TIP3    H111991   5.043   3.852   3.522
 3995TIP3    H211992   5.009   3.887   3.666
 3996TIP3   OH211993   0.347   1.695   1.417
 3996TIP3    H111994   0.304   1.622   1.461
 3996TIP3    H211995   0.292   1.713   1.341
 3997TIP3   OH211996   1.093   3.808   4.987
 3997TIP3    H111997   0.999   3.816   4.977
 3997TIP3    H211998   1.106   3.776   5.076
 3998TIP3   OH211999   0.387   2.223   3.722
 3998TIP3    H112000   0.398   2.265   3.637
 3998TIP3    H212001   0.322   2.277   3.767
 3999TIP3   OH212002   1.371   1.499   3.556
 3999TIP3    H112003   1.440   1.554   3.593
 3999TIP3    H212004   1.317   1.559   3.506
 4000TIP3   OH212005   4.655   3.454   3.314
 4000TIP3    H112006   4.609   3.371   3.309
 4000TIP3    H212007   4.733   3.443   3.260
 4001TIP3   OH212008   2.819   0.188   0.181
 4001TIP3    H112009   2.794   0.200   0.273
 4001TIP3    H212010   2.756   0.239   0.132
 4002TIP3   OH212011   5.732   3.325   0.406
 4002TIP3    H112012   5.761   3.414   0.424
 4002TIP3    H212013   5.654   3.336   0.351
 4003TIP3   OH212014   4.061   2.550   1.415
 4003TIP3    H112015   4.082   2.481   1.352
 4003TIP3    H212016   4.092   2.516   1.499
 4004TIP3   OH212017   4.314   2.184   4.452
 4004TIP3    H112018   4.279   2.272   4.462
 4004TIP3    H212019   4.409   2.197   4.448
 4005TIP3   OH212020   4.728   0.502   5.026
 4005TIP3    H112021   4.678   0.431   4.985
 4005TIP3    H212022   4.760   0.466   5.108
 4006TIP3   OH212023   5.049   0.928   4.402
 4006TIP3    H112024   5.045   0.845   4.451
 4006TIP3    H212025   5.136   0.926   4.361
 4007TIP3   OH212026   1.024   3.468   1.484
 4007TIP3    H112027   1.113   3.432   1.485
 4007TIP3    H212028   0.974   3.411   1.543
 4008TIP3   OH212029   0.178   0.392   4.658
 4008TIP3    H112030   0.252   0.451   4.642
 4008TIP3    H212031   0.155   0.406   4.749
 4009TIP3   OH212032   3.711   1.860   1.232
 4009TIP3    H112033   3.667   1.776   1.217
 4009TIP3    H212034   3.736   1.858   1.324
 4010TIP3   OH212035   2.935   5.327   3.907
 4010TIP3    H112036   3.020   5.295   3.937
 4010TIP3    H212037   2.879   5.324   3.984
 4011TIP3   OH212038   0.890   4.164   3.628
 4011TIP3    H112039   0.981   4.189   3.616
 4011TIP3    H212040   0.888   4.070   3.607
 4012TIP3   OH212041   3.483   3.876   3.103
 4012TIP3    H112042   3.541   3.941   3.143
 4012TIP3    H212043   3.541   3.804   3.079
 4013TIP3   OH212044   2.493   2.951   2.437
 4013TIP3    H112045   2.555   2.920   2.502
 4013TIP3    H212046   2.500   3.046   2.440
 4014TIP3   OH212047   1.850   3.059   1.588
 4014TIP3    H112048   1.805   3.020   1.513
 4014TIP3    H212049   1.898   2.987   1.628
 4015TIP3   OH212050   3.114   4.555   4.116
 4015TIP3    H112051   3.137   4.547   4.209
 4015TIP3    H212052   3.160   4.481   4.075
 4016TIP3   OH212053   6.232   0.292   1.663
 4016TIP3    H112054   6.171   0.253   1.726
 4016TIP3    H212055   6.217   0.387   1.670
 4017TIP3   OH212056   4.276   4.178   3.378
 4017TIP3    H112057   4.244   4.102   3.329
 4017TIP3    H212058   4.300   4.242   3.312
 4018TIP3   OH212059   3.060   2.075   4.743
 4018TIP3    H112060   3.127   2.082   4.811
 4018TIP3    H212061   3.016   2.160   4.745
 4019TIP3   OH212062   3.507   5.198   0.259
 4019TIP3    H112063   3.535   5.133   0.324
 4019TIP3    H212064   3.419   5.168   0.233
 4020TIP3   OH212065   5.255   0.932   2.147
 4020TIP3    H112066   5.218   1.012   2.109
 4020TIP3    H212067   5.334   0.915   2.096
 4021TIP3   OH212068   5.819   2.171   1.104
 4021TIP3    H112069   5.870   2.090   1.106
 4021TIP3    H212070   5.885   2.240   1.101
 4022TIP3   OH212071   6.248   1.960   1.708
 4022TIP3    H112072   6.273   1.892   1.646
 4022TIP3    H212073   6.256   2.042   1.659
 4023TIP3   OH212074   3.969   0.359   2.903
 4023TIP3    H112075   3.935   0.343   2.991
 4023TIP3    H212076   4.034   0.428   2.914
 4024TIP3   OH212077   4.593   5.842   4.108
 4024TIP3    H112078   4.552   5.756   4.107
 4024TIP3    H212079   4.582   5.873   4.197
 4025TIP3   OH212080   5.566   0.629   1.434
 4025TIP3    H112081   5.608   0.596   1.513
 4025TIP3    H212082   5.596   0.568   1.365
 4026TIP3   OH212083   5.760   3.367   1.263
 4026TIP3    H112084   5.787   3.444   1.314
 4026TIP3    H212085   5.822   3.364   1.190
 4027TIP3   OH212086   5.046   4.927   3.604
 4027TIP3    H112087   5.086   4.868   3.667
 4027TIP3    H212088   4.976   4.876   3.563
 4028TIP3   OH212089   1.077   3.158   2.120
 4028TIP3    H112090   0.995   3.177   2.074
 4028TIP3    H212091   1.050   3.113   2.200
 4029TIP3   OH212092   1.295   5.332   4.515
 4029TIP3    H112093   1.216   5.288   4.547
 4029TIP3    H212094   1.287   5.329   4.419
 4030TIP3   OH212095   6.172   5.136   1.096
 4030TIP3    H112096   6.186   5.193   1.020
 4030TIP3    H212097   6.118   5.064   1.062
 4031TIP3   OH212098   0.540   0.291   3.701
 4031TIP3    H112099   0.563   0.343   3.624
 4031TIP3    H212100   0.457   0.329   3.731
 4032TIP3   OH212101   3.811   0.382   3.126
 4032TIP3    H112102   3.779   0.465   3.161
 4032TIP3    H212103   3.758   0.366   3.048
 4033TIP3   OH212104   3.946   2.727   2.418
 4033TIP3    H112105   3.865   2.714   2.468
 4033TIP3    H212106   3.999   2.651   2.439
 4034TIP3   OH212107   0.659   1.661   0.401
 4034TIP3    H112108   0.680   1.596   0.334
 4034TIP3    H212109   0.698   1.626   0.482
 4035TIP3   OH212110   1.724   5.612   1.790
 4035TIP3    H112111   1.653   5.663   1.751
 4035TIP3    H212112   1.680   5.540   1.835
 4036TIP3   OH212113   0.274   4.050   5.085
 4036TIP3    H112114   0.290   3.981   5.021
 4036TIP3    H212115   0.236   4.005   5.160
 4037TIP3   OH212116   3.559   4.646   2.779
 4037TIP3    H112117   3.605   4.640   2.695
 4037TIP3    H212118   3.496   4.717   2.767
 4038TIP3   OH212119   2.532   2.046   0.779
 4038TIP3    H112120   2.556   1.962   0.739
 4038TIP3    H212121   2.585   2.051   0.859
 4039TIP3   OH212122   6.047   1.344   0.285
 4039TIP3    H112123   6.035   1.339   0.379
 4039TIP3    H212124   6.006   1.265   0.251
 4040TIP3   OH212125   1.790   2.617   4.045
 4040TIP3    H112126   1.719   2.556   4.027
 4040TIP3    H212127   1.861   2.589   3.987
 4041TIP3   OH212128   3.570   3.823   2.753
 4041TIP3    H112129   3.591   3.899   2.697
 4041TIP3    H212130   3.638   3.824   2.820
 4042TIP3   OH212131   0.684   1.694   1.879
 4042TIP3    H112132   0.693   1.783   1.845
 4042TIP3    H212133   0.765   1.650   1.851
 4043TIP3   OH212134   0.953   5.490   3.297
 4043TIP3    H112135   0.886   5.490   3.229
 4043TIP3    H212136   0.915   5.543   3.367
 4044TIP3   OH212137   1.562   1.668   4.432
 4044TIP3    H112138   1.494   1.604   4.456
 4044TIP3    H212139   1.576   1.719   4.512
 4045TIP3   OH212140   5.884   2.863   0.974
 4045TIP3    H112141   5.830   2.785   0.964
 4045TIP3    H212142   5.863   2.916   0.898
 4046TIP3   OH212143   0.695   1.495   5.114
 4046TIP3    H112144   0.736   1.415   5.081
 4046TIP3    H212145   0.664   1.472   5.201
 4047TIP3   OH212146   2.057   4.691   3.539
 4047TIP3    H112147   2.115   4.623   3.504
 4047TIP3    H212148   2.113   4.769   3.545
 4048TIP3   OH212149   1.902   1.746   3.488
 4048TIP3    H112150   1.904   1.725   3.581
 4048TIP3    H212151   1.990   1.777   3.469
 4049TIP3   OH212152   0.517   3.790   5.125
 4049TIP3    H112153   0.474   3.850   5.185
 4049TIP3    H212154   0.590   3.754   5.176
 4050TIP3   OH212155   4.537   3.052   3.795
 4050TIP3    H112156   4.607   3.027   3.855
 4050TIP3    H212157   4.579   3.108   3.730
 4051TIP3   OH212158   5.365   3.217   4.902
 4051TIP3    H112159   5.278   3.245   4.930
 4051TIP3    H212160   5.387   3.276   4.830
 4052TIP3   OH212161   0.183   1.301   0.493
 4052TIP3    H112162   0.183   1.340   0.580
 4052TIP3    H212163   0.232   1.362   0.439
 4053TIP3   OH212164   2.682   5.406   2.832
 4053TIP3    H112165   2.651   5.446   2.750
 4053TIP3    H212166   2.613   5.424   2.895
 4054TIP3   OH212167   2.785   5.005   2.447
 4054TIP3    H112168   2.776   5.071   2.378
 4054TIP3    H212169   2.735   5.040   2.520
 4055TIP3   OH212170   0.506   2.708   0.960
 4055TIP3    H112171   0.513   2.747   1.048
 4055TIP3    H212172   0.556   2.767   0.904
 4056TIP3   OH212173   2.386   0.855   3.581
 4056TIP3    H112174   2.415   0.935   3.538
 4056TIP3    H212175   2.437   0.785   3.539
 4057TIP3   OH212176   5.367   3.460   3.362
 4057TIP3    H112177   5.463   3.465   3.365
 4057TIP3    H212178   5.342   3.516   3.289
 4058TIP3   OH212179   2.911   3.738   1.090
 4058TIP3    H112180   2.870   3.673   1.032
 4058TIP3    H212181   2.952   3.686   1.159
 4059TIP3   OH212182   0.277   1.323   2.982
 4059TIP3    H112183   0.311   1.357   2.899
 4059TIP3    H212184   0.353   1.324   3.041
 4060TIP3   OH212185   3.614   1.980   2.855
 4060TIP3    H112186   3.671   1.919   2.902
 4060TIP3    H212187   3.612   2.059   2.909
 4061TIP3   OH212188  -0.001   4.398   1.606
 4061TIP3    H112189  -0.030   4.317   1.563
 4061TIP3    H212190   0.091   4.406   1.582
 4062TIP3   OH212191   1.133   2.040   0.530
 4062TIP3    H112192   1.142   2.133   0.506
 4062TIP3    H212193   1.046   2.015   0.497
 4063TIP3   OH212194   2.386   4.567   2.106
 4063TIP3    H112195   2.467   4.523   2.128
 4063TIP3    H212196   2.410   4.660   2.099
 4064TIP3   OH212197   3.646   1.528   0.045
 4064TIP3    H112198   3.598   1.594   0.096
 4064TIP3    H212199   3.597   1.520  -0.037
 4065TIP3   OH212200   5.204   3.321   0.404
 4065TIP3    H112201   5.135   3.262   0.371
 4065TIP3    H212202   5.165   3.362   0.481
 4066TIP3   OH212203   4.386   5.452   1.513
 4066TIP3    H112204   4.297   5.447   1.480
 4066TIP3    H212205   4.422   5.532   1.474
 4067TIP3   OH212206   2.736   3.497   4.926
 4067TIP3    H112207   2.800   3.496   4.855
 4067TIP3    H212208   2.658   3.537   4.888
 4068TIP3   OH212209   1.087   2.318   0.481
 4068TIP3    H112210   1.117   2.408   0.489
 4068TIP3    H212211   1.019   2.308   0.548
 4069TIP3   OH212212   4.711   3.776   1.871
 4069TIP3    H112213   4.690   3.787   1.963
 4069TIP3    H212214   4.626   3.759   1.829
 4070TIP3   OH212215   2.800   1.513   3.149
 4070TIP3    H112216   2.735   1.564   3.198
 4070TIP3    H212217   2.754   1.487   3.069
 4071TIP3   OH212218   4.386   2.696   5.089
 4071TIP3    H112219   4.381   2.609   5.129
 4071TIP3    H212220   4.306   2.704   5.039
 4072TIP3   OH212221   3.654   4.982   3.356
 4072TIP3    H112222   3.563   4.973   3.328
 4072TIP3    H212223   3.671   5.076   3.352
 4073TIP3   OH212224   4.961   3.217   2.749
 4073TIP3    H112225   4.937   3.125   2.761
 4073TIP3    H212226   4.878   3.263   2.741
 4074TIP3   OH212227   4.603   1.117   3.187
 4074TIP3    H112228   4.627   1.199   3.142
 4074TIP3    H212229   4.683   1.092   3.234
 4075TIP3   OH212230   4.187   2.569   1.032
 4075TIP3    H112231   4.214   2.632   0.966
 4075TIP3    H212232   4.141   2.501   0.984
 4076TIP3   OH212233   6.337   5.139   0.447
 4076TIP3    H112234   6.322   5.045   0.461
 4076TIP3    H212235   6.379   5.144   0.361
 4077TIP3   OH212236   4.345   5.280   0.812
 4077TIP3    H112237   4.343   5.296   0.907
 4077TIP3    H212238   4.363   5.186   0.804
 4078TIP3   OH212239   4.231   3.105   3.188
 4078TIP3    H112240   4.156   3.049   3.169
 4078TIP3    H212241   4.194   3.193   3.194
 4079TIP3   OH212242   4.081   4.512   4.844
 4079TIP3    H112243   4.120   4.477   4.924
 4079TIP3    H212244   4.006   4.563   4.873
 4080TIP3   OH212245   1.875   3.056   3.230
 4080TIP3    H112246   1.857   3.106   3.310
 4080TIP3    H212247   1.831   3.105   3.161
 4081TIP3   OH212248   2.098   0.939   2.057
 4081TIP3    H112249   2.018   0.901   2.022
 4081TIP3    H212250   2.127   1.001   1.991
 4082TIP3   OH212251   1.796   2.915   2.691
 4082TIP3    H112252   1.727   2.849   2.703
 4082TIP3    H212253   1.875   2.874   2.724
 4083TIP3   OH212254   1.305   1.887   0.315
 4083TIP3    H112255   1.374   1.952   0.318
 4083TIP3    H212256   1.253   1.902   0.393
 4084TIP3   OH212257   6.262   4.137   0.927
 4084TIP3    H112258   6.237   4.174   0.842
 4084TIP3    H212259   6.349   4.100   0.912
 4085TIP3   OH212260   2.652   5.580   5.042
 4085TIP3    H112261   2.625   5.646   4.978
 4085TIP3    H212262   2.643   5.623   5.127
 4086TIP3   OH212263   4.268   2.036   0.075
 4086TIP3    H112264   4.283   2.112   0.131
 4086TIP3    H212265   4.184   2.001   0.103
 4087TIP3   OH212266   3.617   4.004   2.067
 4087TIP3    H112267   3.552   3.943   2.101
 4087TIP3    H212268   3.575   4.043   1.990
 4088TIP3   OH212269   1.496   2.233   1.483
 4088TIP3    H112270   1.521   2.309   1.535
 4088TIP3    H212271   1.404   2.218   1.506
 4089TIP3   OH212272   5.542   4.615   3.629
 4089TIP3    H112273   5.610   4.614   3.697
 4089TIP3    H212274   5.558   4.537   3.577
 4090TIP3   OH212275   5.686   1.845   2.028
 4090TIP3    H112276   5.619   1.811   1.969
 4090TIP3    H212277   5.719   1.924   1.985
 4091TIP3   OH212278   4.168   0.623   2.683
 4091TIP3    H112279   4.247   0.594   2.729
 4091TIP3    H212280   4.118   0.544   2.669
 4092TIP3   OH212281   2.139   1.105   0.735
 4092TIP3    H112282   2.164   1.101   0.643
 4092TIP3    H212283   2.053   1.064   0.738
 4093TIP3   OH212284   1.479   3.412   0.660
 4093TIP3    H112285   1.512   3.349   0.596
 4093TIP3    H212286   1.415   3.465   0.612
 4094TIP3   OH212287   0.942   2.920   3.148
 4094TIP3    H112288   0.849   2.938   3.158
 4094TIP3    H212289   0.985   2.979   3.210
 4095TIP3   OH212290   0.801   1.245   3.049
 4095TIP3    H112291   0.883   1.195   3.044
 4095TIP3    H212292   0.734   1.185   3.016
 4096TIP3   OH212293   1.162   5.909   0.062
 4096TIP3    H112294   1.205   5.957  -0.009
 4096TIP3    H212295   1.097   5.854   0.017
 4097TIP3   OH212296   0.862   1.830   1.085
 4097TIP3    H112297   0.830   1.741   1.099
 4097TIP3    H212298   0.952   1.819   1.054
 4098TIP3   OH212299   1.053   1.719   0.791
 4098TIP3    H112300   1.000   1.652   0.833
 4098TIP3    H212301   0.993   1.765   0.733
 4099TIP3   OH212302   4.055   3.379   3.802
 4099TIP3    H112303   4.008   3.407   3.881
 4099TIP3    H212304   4.125   3.443   3.791
 4100TIP3   OH212305   5.176   1.876   0.136
 4100TIP3    H112306   5.186   1.928   0.056
 4100TIP3    H212307   5.266   1.858   0.164
 4101TIP3   OH212308   6.198   0.997   3.344
 4101TIP3    H112309   6.277   0.956   3.309
 4101TIP3    H212310   6.127   0.937   3.320
 4102TIP3   OH212311   1.590   1.478   1.255
 4102TIP3    H112312   1.644   1.557   1.260
 4102TIP3    H212313   1.505   1.509   1.225
 4103TIP3   OH212314   1.457   2.535   0.975
 4103TIP3    H112315   1.533   2.477   0.982
 4103TIP3    H212316   1.417   2.533   1.062
 4104TIP3   OH212317   3.177   2.825   4.397
 4104TIP3    H112318   3.122   2.833   4.319
 4104TIP3    H212319   3.265   2.806   4.362
 4105TIP3   OH212320   1.258   3.126   0.588
 4105TIP3    H112321   1.239   3.078   0.507
 4105TIP3    H212322   1.259   3.058   0.655
 4106TIP3   OH212323   0.388   3.806   0.200
 4106TIP3    H112324   0.417   3.874   0.261
 4106TIP3    H212325   0.407   3.842   0.114
 4107TIP3   OH212326   5.887   1.390   2.837
 4107TIP3    H112327   5.903   1.296   2.837
 4107TIP3    H212328   5.973   1.429   2.855
 4108TIP3   OH212329   1.566   3.586   2.390
 4108TIP3    H112330   1.604   3.666   2.354
 4108TIP3    H212331   1.514   3.616   2.465
 4109TIP3   OH212332   1.035   5.025   2.075
 4109TIP3    H112333   1.064   4.934   2.069
 4109TIP3    H212334   1.104   5.075   2.033
 4110TIP3   OH212335   1.594   1.565   4.171
 4110TIP3    H112336   1.583   1.576   4.266
 4110TIP3    H212337   1.509   1.590   4.135
 4111TIP3   OH212338   0.723   0.747   4.464
 4111TIP3    H112339   0.786   0.784   4.527
 4111TIP3    H212340   0.778   0.712   4.394
 4112TIP3   OH212341   2.602   2.500   0.043
 4112TIP3    H112342   2.609   2.593   0.067
 4112TIP3    H212343   2.585   2.502  -0.051
 4113TIP3   OH212344   5.566   0.147   3.498
 4113TIP3    H112345   5.571   0.099   3.415
 4113TIP3    H212346   5.495   0.104   3.546
 4114TIP3   OH212347   2.992   4.466   4.603
 4114TIP3    H112348   3.025   4.512   4.680
 4114TIP3    H212349   2.900   4.493   4.596
 4115TIP3   OH212350   1.094   0.893   1.459
 4115TIP3    H112351   1.110   0.898   1.365
 4115TIP3    H212352   1.166   0.942   1.499
 4116TIP3   OH212353   4.750   3.615   2.494
 4116TIP3    H112354   4.710   3.533   2.465
 4116TIP3    H212355   4.843   3.606   2.469
 4117TIP3   OH212356   5.265   3.682   1.850
 4117TIP3    H112357   5.304   3.768   1.863
 4117TIP3    H212358   5.310   3.625   1.912
 4118TIP3   OH212359   1.302   1.218   4.261
 4118TIP3    H112360   1.309   1.265   4.345
 4118TIP3    H212361   1.346   1.275   4.198
 4119TIP3   OH212362   5.937   4.100   0.996
 4119TIP3    H112363   5.943   4.187   0.958
 4119TIP3    H212364   6.011   4.096   1.058
 4120TIP3   OH212365   4.319   2.622   0.780
 4120TIP3    H112366   4.411   2.626   0.803
 4120TIP3    H212367   4.313   2.550   0.717
 4121TIP3   OH212368   5.405   2.984   3.878
 4121TIP3    H112369   5.457   3.061   3.854
 4121TIP3    H212370   5.407   2.983   3.974
 4122TIP3   OH212371   3.413   4.169   2.403
 4122TIP3    H112372   3.338   4.227   2.417
 4122TIP3    H212373   3.384   4.107   2.336
 4123TIP3   OH212374   2.720   2.767   4.844
 4123TIP3    H112375   2.692   2.699   4.905
 4123TIP3    H212376   2.643   2.823   4.834
 4124TIP3   OH212377   5.755   2.654   4.269
 4124TIP3    H112378   5.762   2.590   4.340
 4124TIP3    H212379   5.681   2.624   4.217
 4125TIP3   OH212380   2.644   4.933   1.812
 4125TIP3    H112381   2.612   5.021   1.828
 4125TIP3    H212382   2.577   4.893   1.756
 4126TIP3   OH212383   5.388   4.544   1.747
 4126TIP3    H112384   5.323   4.602   1.786
 4126TIP3    H212385   5.433   4.505   1.822
 4127TIP3   OH212386   4.765   0.019   4.993
 4127TIP3    H112387   4.768   0.023   5.089
 4127TIP3    H212388   4.828   0.084   4.964
 4128TIP3   OH212389   5.397   3.872   3.716
 4128TIP3    H112390   5.325   3.898   3.772
 4128TIP3    H212391   5.362   3.801   3.663
 4129TIP3   OH212392   3.977   0.734   0.538
 4129TIP3    H112393   3.914   0.676   0.581
 4129TIP3    H212394   3.941   0.821   0.549
 4130TIP3   OH212395   5.881   4.258   2.797
 4130TIP3    H112396   5.816   4.235   2.731
 4130TIP3    H212397   5.921   4.175   2.822
 4131TIP3   OH212398   2.863   0.985   0.287
 4131TIP3    H112399   2.878   1.011   0.196
 4131TIP3    H212400   2.876   1.065   0.337
 4132TIP3   OH212401   1.594   1.887   0.969
 4132TIP3    H112402   1.531   1.909   0.900
 4132TIP3    H212403   1.608   1.792   0.959
 4133TIP3   OH212404   2.242   5.230   0.787
 4133TIP3    H112405   2.169   5.174   0.760
 4133TIP3    H212406   2.301   5.229   0.712
 4134TIP3   OH212407   4.040   5.050   0.032
 4134TIP3    H112408   4.060   5.007  -0.051
 4134TIP3    H212409   4.119   5.101   0.052
 4135TIP3   OH212410   4.568   0.281   4.982
 4135TIP3    H112411   4.599   0.241   4.900
 4135TIP3    H212412   4.540   0.207   5.035
 4136TIP3   OH212413   4.601   1.953   5.050
 4136TIP3    H112414   4.581   2.044   5.029
 4136TIP3    H212415   4.688   1.956   5.088
 4137TIP3   OH212416   3.849   3.406   2.478
 4137TIP3    H112417   3.781   3.359   2.526
 4137TIP3    H212418   3.834   3.498   2.500
 4138TIP3   OH212419   5.390   3.740   4.259
 4138TIP3    H112420   5.483   3.717   4.269
 4138TIP3    H212421   5.381   3.824   4.303
 4139TIP3   OH212422   5.887   5.740   4.865
 4139TIP3    H112423   5.870   5.662   4.812
 4139TIP3    H212424   5.864   5.714   4.954
 4140TIP3   OH212425   5.768   2.597   1.155
 4140TIP3    H112426   5.742   2.571   1.067
 4140TIP3    H212427   5.706   2.665   1.180
 4141TIP3   OH212428   3.100   1.557   2.374
 4141TIP3    H112429   3.184   1.552   2.328
 4141TIP3    H212430   3.115   1.619   2.445
 4142TIP3   OH212431   2.505   1.086   0.449
 4142TIP3    H112432   2.536   1.144   0.379
 4142TIP3    H212433   2.531   0.999   0.420
 4143TIP3   OH212434   2.390   1.226   4.090
 4143TIP3    H112435   2.327   1.251   4.158
 4143TIP3    H212436   2.476   1.233   4.133
 4144TIP3   OH212437   3.929   3.261   3.588
 4144TIP3    H112438   3.988   3.309   3.646
 4144TIP3    H212439   3.983   3.238   3.512
 4145TIP3   OH212440   0.569   5.568   1.114
 4145TIP3    H112441   0.485   5.555   1.159
 4145TIP3    H212442   0.607   5.480   1.109
 4146TIP3   OH212443   5.490   1.469   5.172
 4146TIP3    H112444   5.426   1.540   5.160
 4146TIP3    H212445   5.440   1.389   5.156
 4147TIP3   OH212446   4.447   1.943   2.386
 4147TIP3    H112447   4.410   2.026   2.355
 4147TIP3    H212448   4.391   1.918   2.459
 4148TIP3   OH212449   5.600   0.153   1.062
 4148TIP3    H112450   5.521   0.158   1.009
 4148TIP3    H212451   5.583   0.082   1.124
 4149TIP3   OH212452   1.801   1.389   2.819
 4149TIP3    H112453   1.729   1.326   2.826
 4149TIP3    H212454   1.879   1.335   2.807
 4150TIP3   OH212455   2.355   2.488   1.848
 4150TIP3    H112456   2.436   2.442   1.829
 4150TIP3    H212457   2.306   2.429   1.905
 4151TIP3   OH212458   4.779   4.365   3.425
 4151TIP3    H112459   4.731   4.288   3.453
 4151TIP3    H212460   4.800   4.412   3.506
 4152TIP3   OH212461   0.362   4.597   4.266
 4152TIP3    H112462   0.351   4.559   4.353
 4152TIP3    H212463   0.456   4.591   4.248
 4153TIP3   OH212464   2.482   5.707   1.820
 4153TIP3    H112465   2.574   5.722   1.841
 4153TIP3    H212466   2.443   5.676   1.901
 4154TIP3   OH212467   4.086   1.996   2.469
 4154TIP3    H112468   4.040   1.915   2.445
 4154TIP3    H212469   4.062   2.011   2.561
 4155TIP3   OH212470   5.952   0.293   1.782
 4155TIP3    H112471   5.975   0.357   1.850
 4155TIP3    H212472   5.864   0.318   1.755
 4156TIP3   OH212473   4.371   3.505   3.408
 4156TIP3    H112474   4.358   3.597   3.431
 4156TIP3    H212475   4.461   3.500   3.376
 4157TIP3   OH212476   1.588   2.207   4.007
 4157TIP3    H112477   1.592   2.113   3.993
 4157TIP3    H212478   1.517   2.218   4.070
 4158TIP3   OH212479   5.168   3.482   4.975
 4158TIP3    H112480   5.238   3.536   4.938
 4158TIP3    H212481   5.100   3.544   5.001
 4159TIP3   OH212482   5.626   2.618   0.461
 4159TIP3    H112483   5.564   2.664   0.517
 4159TIP3    H212484   5.607   2.649   0.373
 4160TIP3   OH212485   1.065   4.921   3.870
 4160TIP3    H112486   1.087   4.994   3.812
 4160TIP3    H212487   1.078   4.955   3.958
 4161TIP3   OH212488   4.277   1.529   3.581
 4161TIP3    H112489   4.341   1.463   3.555
 4161TIP3    H212490   4.317   1.612   3.557
 4162TIP3   OH212491   1.333   0.227   3.544
 4162TIP3    H112492   1.424   0.224   3.572
 4162TIP3    H212493   1.328   0.302   3.485
 4163TIP3   OH212494   0.805   0.192   2.517
 4163TIP3    H112495   0.760   0.237   2.588
 4163TIP3    H212496   0.776   0.237   2.438
 4164TIP3   OH212497   3.040   3.093   2.224
 4164TIP3    H112498   3.131   3.097   2.251
 4164TIP3    H212499   2.995   3.052   2.298
 4165TIP3   OH212500   4.047   0.357   2.543
 4165TIP3    H112501   4.124   0.386   2.493
 4165TIP3    H212502   3.973   0.377   2.486
 4166TIP3   OH212503   2.422   4.509   1.053
 4166TIP3    H112504   2.378   4.517   1.138
 4166TIP3    H212505   2.422   4.599   1.018
 4167TIP3   OH212506   5.049   2.294   1.946
 4167TIP3    H112507   5.005   2.334   1.871
 4167TIP3    H212508   5.130   2.344   1.956
 4168TIP3   OH212509   3.972   2.969   2.275
 4168TIP3    H112510   3.976   2.878   2.306
 4168TIP3    H212511   3.979   2.962   2.180
 4169TIP3   OH212512   0.311   2.960   4.894
 4169TIP3    H112513   0.343   3.048   4.913
 4169TIP3    H212514   0.351   2.938   4.810
 4170TIP3   OH212515   6.170   0.845   1.862
 4170TIP3    H112516   6.148   0.787   1.935
 4170TIP3    H212517   6.257   0.817   1.835
 4171TIP3   OH212518   3.494   2.457   1.723
 4171TIP3    H112519   3.515   2.461   1.629
 4171TIP3    H212520   3.555   2.391   1.757
 4172TIP3   OH212521   4.936   2.908   3.981
 4172TIP3    H112522   4.865   2.909   4.045
 4172TIP3    H212523   4.892   2.903   3.896
 4173TIP3   OH212524   0.376   2.371   0.789
 4173TIP3    H112525   0.314   2.308   0.751
 4173TIP3    H212526   0.337   2.396   0.873
 4174TIP3   OH212527   3.284   3.407   3.930
 4174TIP3    H112528   3.337   3.365   3.997
 4174TIP3    H212529   3.257   3.490   3.969
 4175TIP3   OH212530   3.498   0.766   1.429
 4175TIP3    H112531   3.557   0.707   1.476
 4175TIP3    H212532   3.554   0.837   1.398
 4176TIP3   OH212533   6.248   0.099   0.100
 4176TIP3    H112534   6.230   0.192   0.086
 4176TIP3    H212535   6.280   0.068   0.014
 4177TIP3   OH212536   0.950   3.205   1.306
 4177TIP3    H112537   0.985   3.277   1.254
 4177TIP3    H212538   1.022   3.180   1.365
 4178TIP3   OH212539   4.928   0.771   1.933
 4178TIP3    H112540   5.014   0.731   1.941
 4178TIP3    H212541   4.874   0.725   1.998
 4179TIP3   OH212542   5.959   2.399   1.099
 4179TIP3    H112543   5.902   2.472   1.124
 4179TIP3    H212544   6.039   2.412   1.151
 4180TIP3   OH212545   0.980   5.102   1.208
 4180TIP3    H112546   0.956   5.183   1.162
 4180TIP3    H212547   0.921   5.036   1.173
 4181TIP3   OH212548   0.897   2.246   2.711
 4181TIP3    H112549   0.934   2.331   2.688
 4181TIP3    H212550   0.827   2.231   2.647
 4182TIP3   OH212551   3.289   1.177   1.686
 4182TIP3    H112552   3.335   1.256   1.660
 4182TIP3    H212553   3.331   1.107   1.635
 4183TIP3   OH212554   4.486   2.942   1.337
 4183TIP3    H112555   4.553   2.983   1.391
 4183TIP3    H212556   4.466   2.860   1.382
 4184TIP3   OH212557   6.229   5.723   4.526
 4184TIP3    H112558   6.252   5.702   4.435
 4184TIP3    H212559   6.150   5.775   4.520
 4185TIP3   OH212560   3.013   3.119   4.185
 4185TIP3    H112561   3.092   3.079   4.222
 4185TIP3    H212562   2.943   3.059   4.207
 4186TIP3   OH212563   5.551   2.156   3.386
 4186TIP3    H112564   5.606   2.146   3.308
 4186TIP3    H212565   5.492   2.080   3.384
 4187TIP3   OH212566   0.764   5.379   4.522
 4187TIP3    H112567   0.705   5.304   4.526
 4187TIP3    H212568   0.779   5.403   4.613
 4188TIP3   OH212569   0.396   2.749   2.538
 4188TIP3    H112570   0.345   2.723   2.461
 4188TIP3    H212571   0.457   2.676   2.552
 4189TIP3   OH212572   0.197   0.228   1.920
 4189TIP3    H112573   0.128   0.173   1.884
 4189TIP3    H212574   0.210   0.194   2.009
 4190TIP3   OH212575   4.975   1.135  -0.024
 4190TIP3    H112576   4.884   1.162  -0.036
 4190TIP3    H212577   4.989   1.141   0.071
 4191TIP3   OH212578   6.196   3.794   2.716
 4191TIP3    H112579   6.111   3.833   2.695
 4191TIP3    H212580   6.218   3.830   2.802
 4192TIP3   OH212581   2.817   2.687   1.494
 4192TIP3    H112582   2.832   2.753   1.426
 4192TIP3    H212583   2.758   2.730   1.556
 4193TIP3   OH212584   4.531   0.843   2.619
 4193TIP3    H112585   4.569   0.930   2.623
 4193TIP3    H212586   4.439   0.857   2.596
 4194TIP3   OH212587   3.861   1.507   1.720
 4194TIP3    H112588   3.785   1.452   1.739
 4194TIP3    H212589   3.868   1.507   1.625
 4195TIP3   OH212590   2.909   4.288   2.394
 4195TIP3    H112591   2.881   4.293   2.302
 4195TIP3    H212592   2.896   4.376   2.428
 4196TIP3   OH212593   1.579   4.719   2.870
 4196TIP3    H112594   1.616   4.711   2.958
 4196TIP3    H212595   1.585   4.812   2.850
 4197TIP3   OH212596   6.325   0.680   1.484
 4197TIP3    H112597   6.249   0.673   1.426
 4197TIP3    H212598   6.386   0.737   1.438
 4198TIP3   OH212599   0.219   4.617   3.443
 4198TIP3    H112600   0.298   4.604   3.390
 4198TIP3    H212601   0.151   4.567   3.398
 4199TIP3   OH212602   3.722   1.095   2.886
 4199TIP3    H112603   3.667   1.129   2.815
 4199TIP3    H212604   3.736   1.003   2.864
 4200TIP3   OH212605   4.485   3.222   3.306
 4200TIP3    H112606   4.414   3.217   3.243
 4200TIP3    H212607   4.449   3.185   3.386
 4201TIP3   OH212608   0.466   1.863   0.786
 4201TIP3    H112609   0.445   1.943   0.738
 4201TIP3    H212610   0.542   1.887   0.839
 4202TIP3   OH212611   0.773   1.632   3.457
 4202TIP3    H112612   0.796   1.539   3.450
 4202TIP3    H212613   0.706   1.645   3.390
 4203TIP3   OH212614   5.627   2.303   4.731
 4203TIP3    H112615   5.714   2.270   4.754
 4203TIP3    H212616   5.598   2.353   4.807
 4204TIP3   OH212617   5.018   2.217   2.733
 4204TIP3    H112618   4.984   2.133   2.763
 4204TIP3    H212619   5.112   2.201   2.719
 4205TIP3   OH212620   4.637   4.177   0.285
 4205TIP3    H112621   4.721   4.135   0.268
 4205TIP3    H212622   4.660   4.266   0.313
 4206TIP3   OH212623   1.128   0.117   2.977
 4206TIP3    H112624   1.153   0.099   3.067
 4206TIP3    H212625   1.034   0.135   2.981
 4207TIP3   OH212626   1.961   5.307   2.059
 4207TIP3    H112627   2.022   5.233   2.059
 4207TIP3    H212628   2.009   5.379   2.019
 4208TIP3   OH212629   1.051   5.172   4.120
 4208TIP3    H112630   0.980   5.206   4.174
 4208TIP3    H212631   1.056   5.079   4.141
 4209TIP3   OH212632   5.824   5.785   1.801
 4209TIP3    H112633   5.900   5.764   1.747
 4209TIP3    H212634   5.817   5.711   1.862
 4210TIP3   OH212635   1.047   5.788   4.086
 4210TIP3    H112636   0.995   5.811   4.163
 4210TIP3    H212637   1.016   5.847   4.018
 4211TIP3   OH212638   5.141   1.806   0.480
 4211TIP3    H112639   5.212   1.755   0.443
 4211TIP3    H212640   5.063   1.776   0.433
 4212TIP3   OH212641   4.055   5.554   0.950
 4212TIP3    H112642   4.102   5.470   0.962
 4212TIP3    H212643   3.966   5.528   0.929
 4213TIP3   OH212644   1.947   5.092   4.368
 4213TIP3    H112645   1.986   5.023   4.422
 4213TIP3    H212646   2.022   5.139   4.331
 4214TIP3   OH212647   6.120   0.648   0.289
 4214TIP3    H112648   6.058   0.576   0.304
 4214TIP3    H212649   6.127   0.691   0.374
 4215TIP3   OH212650   5.552   3.989   2.153
 4215TIP3    H112651   5.532   4.006   2.245
 4215TIP3    H212652   5.628   4.044   2.135
 4216TIP3   OH212653   5.812   1.838   0.563
 4216TIP3    H112654   5.877   1.797   0.506
 4216TIP3    H212655   5.732   1.790   0.546
 4217TIP3   OH212656   5.553   1.320   4.248
 4217TIP3    H112657   5.639   1.354   4.273
 4217TIP3    H212658   5.522   1.273   4.326
 4218TIP3   OH212659   1.149   5.417   0.302
 4218TIP3    H112660   1.082   5.389   0.240
 4218TIP3    H212661   1.103   5.476   0.362
 4219TIP3   OH212662   1.399   3.062   2.901
 4219TIP3    H112663   1.306   3.042   2.908
 4219TIP3    H212664   1.417   3.055   2.807
 4220TIP3   OH212665   3.106   3.076   4.554
 4220TIP3    H112666   3.155   3.008   4.509
 4220TIP3    H212667   3.149   3.085   4.639
 4221TIP3   OH212668   4.881   0.522   0.592
 4221TIP3    H112669   4.913   0.440   0.630
 4221TIP3    H212670   4.790   0.528   0.619
 4222TIP3   OH212671   5.049   3.313   1.857
 4222TIP3    H112672   5.055   3.404   1.828
 4222TIP3    H212673   5.140   3.283   1.862
 4223TIP3   OH212674   0.741   1.521   3.015
 4223TIP3    H112675   0.806   1.578   2.976
 4223TIP3    H212676   0.785   1.436   3.023
 4224TIP3   OH212677   6.272   1.805   4.750
 4224TIP3    H112678   6.301   1.838   4.836
 4224TIP3    H212679   6.178   1.823   4.749
 4225TIP3   OH212680   2.874   5.466   0.217
 4225TIP3    H112681   2.919   5.515   0.148
 4225TIP3    H212682   2.868   5.377   0.184
 4226TIP3   OH212683   3.479   4.112   1.160
 4226TIP3    H112684   3.572   4.116   1.136
 4226TIP3    H212685   3.466   4.187   1.219
 4227TIP3   OH212686   4.757   4.660   1.769
 4227TIP3    H112687   4.695   4.732   1.763
 4227TIP3    H212688   4.718   4.591   1.714
 4228TIP3   OH212689   4.432   5.799   2.335
 4228TIP3    H112690   4.457   5.807   2.243
 4228TIP3    H212691   4.494   5.856   2.382
 4229TIP3   OH212692   5.122   0.236   4.449
 4229TIP3    H112693   5.041   0.188   4.428
 4229TIP3    H212694   5.091   0.321   4.481
 4230TIP3   OH212695   1.265   3.493   0.928
 4230TIP3    H112696   1.195   3.492   0.863
 4230TIP3    H212697   1.219   3.484   1.012
 4231TIP3   OH212698   0.142   2.245   1.816
 4231TIP3    H112699   0.062   2.289   1.786
 4231TIP3    H212700   0.160   2.285   1.902
 4232TIP3   OH212701   4.734   2.520   2.223
 4232TIP3    H112702   4.783   2.475   2.292
 4232TIP3    H212703   4.762   2.611   2.230
 4233TIP3   OH212704   5.609   4.338   2.215
 4233TIP3    H112705   5.583   4.388   2.292
 4233TIP3    H212706   5.696   4.304   2.236
 4234TIP3   OH212707   4.562   1.397   4.422
 4234TIP3    H112708   4.535   1.309   4.397
 4234TIP3    H212709   4.485   1.434   4.466
 4235TIP3   OH212710   1.215   0.062   2.361
 4235TIP3    H112711   1.253   0.080   2.274
 4235TIP3    H212712   1.200   0.149   2.398
 4236TIP3   OH212713   3.988   5.644   2.500
 4236TIP3    H112714   3.967   5.665   2.409
 4236TIP3    H212715   4.007   5.728   2.540
 4237TIP3   OH212716   4.506   5.366   0.414
 4237TIP3    H112717   4.505   5.432   0.345
 4237TIP3    H212718   4.417   5.331   0.415
 4238TIP3   OH212719   3.396   1.991   4.321
 4238TIP3    H112720   3.339   2.014   4.248
 4238TIP3    H212721   3.340   2.001   4.398
 4239TIP3   OH212722   4.493   1.268   2.713
 4239TIP3    H112723   4.439   1.220   2.651
 4239TIP3    H212724   4.505   1.208   2.786
 4240TIP3   OH212725   2.057   0.946   1.417
 4240TIP3    H112726   2.052   1.006   1.342
 4240TIP3    H212727   2.059   1.004   1.493
 4241TIP3   OH212728   1.436   3.869   2.349
 4241TIP3    H112729   1.388   3.927   2.408
 4241TIP3    H212730   1.528   3.883   2.372
 4242TIP3   OH212731   1.048   2.239   0.189
 4242TIP3    H112732   1.076   2.248   0.280
 4242TIP3    H212733   1.111   2.290   0.139
 4243TIP3   OH212734   1.043   5.068   0.423
 4243TIP3    H112735   0.952   5.091   0.407
 4243TIP3    H212736   1.083   5.149   0.456
 4244TIP3   OH212737   5.058   3.675   3.454
 4244TIP3    H112738   5.070   3.624   3.374
 4244TIP3    H212739   4.964   3.674   3.470
 4245TIP3   OH212740   5.678   3.693   0.695
 4245TIP3    H112741   5.668   3.788   0.691
 4245TIP3    H212742   5.758   3.675   0.647
 4246TIP3   OH212743   5.293   2.217   4.823
 4246TIP3    H112744   5.207   2.177   4.833
 4246TIP3    H212745   5.343   2.184   4.898
 4247TIP3   OH212746   5.334   4.974   3.434
 4247TIP3    H112747   5.398   4.960   3.504
 4247TIP3    H212748   5.275   4.899   3.441
 4248TIP3   OH212749   6.208   0.561   1.718
 4248TIP3    H112750   6.246   0.603   1.641
 4248TIP3    H212751   6.216   0.627   1.787
 4249TIP3   OH212752   0.137   5.605   2.440
 4249TIP3    H112753   0.219   5.597   2.490
 4249TIP3    H212754   0.119   5.699   2.438
 4250TIP3   OH212755   0.787   2.194   2.103
 4250TIP3    H112756   0.709   2.244   2.077
 4250TIP3    H212757   0.821   2.160   2.020
 4251TIP3   OH212758   0.324   3.419   0.093
 4251TIP3    H112759   0.300   3.369   0.015
 4251TIP3    H212760   0.419   3.409   0.101
 4252TIP3   OH212761   4.544   5.747   3.256
 4252TIP3    H112762   4.461   5.730   3.300
 4252TIP3    H212763   4.524   5.740   3.163
 4253TIP3   OH212764   5.729   3.474   2.111
 4253TIP3    H112765   5.642   3.447   2.083
 4253TIP3    H212766   5.787   3.406   2.078
 4254TIP3   OH212767   0.305   3.909   4.859
 4254TIP3    H112768   0.262   3.903   4.773
 4254TIP3    H212769   0.370   3.839   4.858
 4255TIP3   OH212770   5.419   3.529   2.015
 4255TIP3    H112771   5.392   3.459   2.074
 4255TIP3    H212772   5.455   3.484   1.939
 4256TIP3   OH212773   1.225   3.399   3.946
 4256TIP3    H112774   1.319   3.386   3.942
 4256TIP3    H212775   1.200   3.419   3.856
 4257TIP3   OH212776   4.379   5.607   4.332
 4257TIP3    H112777   4.432   5.530   4.310
 4257TIP3    H212778   4.354   5.593   4.423
 4258TIP3   OH212779   2.459   2.367   3.808
 4258TIP3    H112780   2.532   2.334   3.756
 4258TIP3    H212781   2.381   2.335   3.762
 4259TIP3   OH212782   6.209   0.764   4.456
 4259TIP3    H112783   6.173   0.716   4.381
 4259TIP3    H212784   6.299   0.733   4.463
 4260TIP3   OH212785   5.979   1.016   0.744
 4260TIP3    H112786   6.000   0.974   0.660
 4260TIP3    H212787   6.038   1.090   0.749
 4261TIP3   OH212788   2.192   2.342   2.464
 4261TIP3    H112789   2.128   2.332   2.535
 4261TIP3    H212790   2.257   2.403   2.499
 4262TIP3   OH212791   2.534   4.498   3.717
 4262TIP3    H112792   2.491   4.413   3.711
 4262TIP3    H212793   2.623   4.482   3.686
 4263TIP3   OH212794   5.021   3.412   3.975
 4263TIP3    H112795   5.089   3.424   3.909
 4263TIP3    H212796   5.067   3.378   4.051
 4264TIP3   OH212797   4.074   2.799   0.105
 4264TIP3    H112798   4.148   2.813   0.046
 4264TIP3    H212799   4.076   2.873   0.165
 4265TIP3   OH212800   4.947   0.969   2.526
 4265TIP3    H112801   4.940   0.915   2.605
 4265TIP3    H212802   5.037   0.955   2.496
 4266TIP3   OH212803   4.170   4.809   2.442
 4266TIP3    H112804   4.242   4.792   2.502
 4266TIP3    H212805   4.093   4.775   2.487
 4267TIP3   OH212806   2.430   3.738   0.342
 4267TIP3    H112807   2.520   3.732   0.375
 4267TIP3    H212808   2.378   3.761   0.420
 4268TIP3   OH212809   1.971   4.362   3.593
 4268TIP3    H112810   2.044   4.362   3.655
 4268TIP3    H212811   1.908   4.423   3.631
 4269TIP3   OH212812   2.420   5.124   4.581
 4269TIP3    H112813   2.446   5.115   4.673
 4269TIP3    H212814   2.413   5.034   4.550
 4270TIP3   OH212815   5.391   1.570   4.476
 4270TIP3    H112816   5.398   1.560   4.381
 4270TIP3    H212817   5.481   1.585   4.505
 4271TIP3   OH212818   4.632   1.402   2.470
 4271TIP3    H112819   4.655   1.314   2.441
 4271TIP3    H212820   4.704   1.457   2.440
 4272TIP3   OH212821   2.047   3.802   1.194
 4272TIP3    H112822   1.984   3.873   1.201
 4272TIP3    H212823   1.994   3.725   1.171
 4273TIP3   OH212824   2.623   0.092   3.636
 4273TIP3    H112825   2.582   0.156   3.694
 4273TIP3    H212826   2.552   0.030   3.615
 4274TIP3   OH212827   1.129   3.213   0.208
 4274TIP3    H112828   1.213   3.170   0.194
 4274TIP3    H212829   1.075   3.147   0.253
 4275TIP3   OH212830   6.137   4.426   4.206
 4275TIP3    H112831   6.085   4.364   4.257
 4275TIP3    H212832   6.225   4.389   4.204
 4276TIP3   OH212833   3.179   1.474   1.041
 4276TIP3    H112834   3.235   1.497   1.115
 4276TIP3    H212835   3.105   1.427   1.080
 4277TIP3   OH212836   0.410   4.697   0.831
 4277TIP3    H112837   0.467   4.709   0.907
 4277TIP3    H212838   0.337   4.757   0.846
 4278TIP3   OH212839   0.903   5.343   1.073
 4278TIP3    H112840   0.842   5.350   1.147
 4278TIP3    H212841   0.941   5.431   1.066
 4279TIP3   OH212842   1.854   5.250   3.065
 4279TIP3    H112843   1.941   5.289   3.074
 4279TIP3    H212844   1.794   5.320   3.092
 4280TIP3   OH212845   2.153   4.754   2.784
 4280TIP3    H112846   2.096   4.676   2.788
 4280TIP3    H212847   2.175   4.762   2.692
 4281TIP3   OH212848   4.337   4.737   3.528
 4281TIP3    H112849   4.267   4.723   3.465
 4281TIP3    H212850   4.394   4.660   3.518
 4282TIP3   OH212851   4.083   1.243   2.139
 4282TIP3    H112852   4.148   1.309   2.163
 4282TIP3    H212853   4.003   1.294   2.121
 4283TIP3   OH212854   3.720   0.311   0.182
 4283TIP3    H112855   3.777   0.308   0.105
 4283TIP3    H212856   3.759   0.251   0.244
 4284TIP3   OH212857   0.688   0.313   3.106
 4284TIP3    H112858   0.628   0.372   3.152
 4284TIP3    H212859   0.674   0.332   3.013
 4285TIP3   OH212860   4.031   0.383   0.886
 4285TIP3    H112861   3.939   0.391   0.911
 4285TIP3    H212862   4.039   0.294   0.851
 4286TIP3   OH212863   6.171   1.045   4.425
 4286TIP3    H112864   6.229   0.971   4.447
 4286TIP3    H212865   6.206   1.078   4.342
 4287TIP3   OH212866   0.234   2.094   0.446
 4287TIP3    H112867   0.280   2.132   0.522
 4287TIP3    H212868   0.301   2.042   0.402
 4288TIP3   OH212869   3.095   3.034   1.024
 4288TIP3    H112870   3.162   3.059   1.087
 4288TIP3    H212871   3.114   2.943   1.003
 4289TIP3   OH212872   0.663   3.122   3.574
 4289TIP3    H112873   0.577   3.081   3.584
 4289TIP3    H212874   0.725   3.050   3.584
 4290TIP3   OH212875   0.599   3.706   3.854
 4290TIP3    H112876   0.546   3.642   3.806
 4290TIP3    H212877   0.599   3.784   3.798
 4291TIP3   OH212878   3.295   3.516   0.044
 4291TIP3    H112879   3.263   3.526   0.133
 4291TIP3    H212880   3.253   3.436   0.012
 4292TIP3   OH212881   3.347   5.953   1.246
 4292TIP3    H112882   3.317   5.864   1.228
 4292TIP3    H212883   3.269   6.000   1.275
 4293TIP3   OH212884   5.617   2.507   1.408
 4293TIP3    H112885   5.705   2.475   1.429
 4293TIP3    H212886   5.609   2.492   1.313
 4294TIP3   OH212887   4.004   5.688   1.640
 4294TIP3    H112888   4.072   5.748   1.610
 4294TIP3    H212889   3.924   5.719   1.598
 4295TIP3   OH212890   4.982   0.718   4.561
 4295TIP3    H112891   4.922   0.746   4.630
 4295TIP3    H212892   5.009   0.630   4.588
 4296TIP3   OH212893   1.059   0.569   3.844
 4296TIP3    H112894   0.972   0.534   3.864
 4296TIP3    H212895   1.041   0.654   3.803
 4297TIP3   OH212896   2.712   4.539   1.225
 4297TIP3    H112897   2.705   4.512   1.317
 4297TIP3    H212898   2.773   4.476   1.187
 4298TIP3   OH212899   4.949   0.652   2.435
 4298TIP3    H112900   4.876   0.665   2.375
 4298TIP3    H212901   5.025   0.687   2.388
 4299TIP3   OH212902   1.045   5.413   2.716
 4299TIP3    H112903   1.104   5.443   2.784
 4299TIP3    H212904   1.091   5.432   2.634
 4300TIP3   OH212905   6.076   1.191   2.936
 4300TIP3    H112906   6.017   1.116   2.934
 4300TIP3    H212907   6.071   1.224   3.025
 4301TIP3   OH212908   6.188   3.124   3.850
 4301TIP3    H112909   6.151   3.099   3.765
 4301TIP3    H212910   6.120   3.102   3.913
 4302TIP3   OH212911   2.618   3.907   4.999
 4302TIP3    H112912   2.605   3.855   5.078
 4302TIP3    H212913   2.534   3.900   4.952
 4303TIP3   OH212914   6.001   4.613   0.927
 4303TIP3    H112915   5.967   4.699   0.950
 4303TIP3    H212916   5.927   4.554   0.935
 4304TIP3   OH212917   0.512   2.581   1.864
 4304TIP3    H112918   0.481   2.588   1.774
 4304TIP3    H212919   0.606   2.565   1.855
 4305TIP3   OH212920   4.413   2.612   3.787
 4305TIP3    H112921   4.437   2.522   3.764
 4305TIP3    H212922   4.453   2.666   3.719
 4306TIP3   OH212923   6.173   3.168   5.184
 4306TIP3    H112924   6.227   3.095   5.152
 4306TIP3    H212925   6.170   3.230   5.111
 4307TIP3   OH212926   5.149   5.202   1.009
 4307TIP3    H112927   5.189   5.130   1.059
 4307TIP3    H212928   5.065   5.217   1.052
 4308TIP3   OH212929   3.684   1.594   2.811
 4308TIP3    H112930   3.749   1.604   2.742
 4308TIP3    H212931   3.726   1.626   2.890
 4309TIP3   OH212932   0.684   3.147   0.959
 4309TIP3    H112933   0.737   3.225   0.943
 4309TIP3    H212934   0.712   3.116   1.045
 4310TIP3   OH212935   5.611   3.519   3.493
 4310TIP3    H112936   5.602   3.594   3.435
 4310TIP3    H212937   5.695   3.531   3.536
 4311TIP3   OH212938   2.227   1.636   3.464
 4311TIP3    H112939   2.196   1.554   3.501
 4311TIP3    H212940   2.185   1.640   3.377
 4312TIP3   OH212941   5.042   1.297   0.644
 4312TIP3    H112942   5.030   1.214   0.596
 4312TIP3    H212943   5.122   1.284   0.695
 4313TIP3   OH212944   6.296   3.711   0.303
 4313TIP3    H112945   6.384   3.674   0.311
 4313TIP3    H212946   6.251   3.652   0.242
 4314TIP3   OH212947   2.126   3.279   3.401
 4314TIP3    H112948   2.053   3.246   3.454
 4314TIP3    H212949   2.097   3.266   3.310
 4315TIP3   OH212950   1.274   1.680   3.362
 4315TIP3    H112951   1.219   1.725   3.427
 4315TIP3    H212952   1.214   1.620   3.318
 4316TIP3   OH212953   2.184   2.030   1.027
 4316TIP3    H112954   2.235   1.974   1.086
 4316TIP3    H212955   2.122   1.971   0.986
 4317TIP3   OH212956   4.020   4.220   2.347
 4317TIP3    H112957   3.988   4.130   2.357
 4317TIP3    H212958   3.995   4.245   2.258
 4318TIP3   OH212959   3.199   3.058   2.801
 4318TIP3    H112960   3.190   2.985   2.863
 4318TIP3    H212961   3.129   3.044   2.738
 4319TIP3   OH212962   0.964   0.607   0.829
 4319TIP3    H112963   1.030   0.667   0.863
 4319TIP3    H212964   0.916   0.658   0.763
 4320TIP3   OH212965   3.501   4.183   3.465
 4320TIP3    H112966   3.435   4.125   3.502
 4320TIP3    H212967   3.565   4.196   3.535
 4321TIP3   OH212968   1.480   2.350   0.487
 4321TIP3    H112969   1.423   2.371   0.413
 4321TIP3    H212970   1.545   2.421   0.488
 4322TIP3   OH212971   6.067   4.211   2.510
 4322TIP3    H112972   6.010   4.286   2.496
 4322TIP3    H212973   6.129   4.213   2.437
 4323TIP3   OH212974   2.454   3.765   4.341
 4323TIP3    H112975   2.470   3.826   4.412
 4323TIP3    H212976   2.501   3.802   4.266
 4324TIP3   OH212977   3.872   2.207   0.802
 4324TIP3    H112978   3.806   2.275   0.787
 4324TIP3    H212979   3.853   2.140   0.737
 4325TIP3   OH212980   0.797   2.076   4.263
 4325TIP3    H112981   0.752   2.109   4.340
 4325TIP3    H212982   0.806   2.152   4.206
 4326TIP3   OH212983   4.412   3.316   0.563
 4326TIP3    H112984   4.486   3.376   0.557
 4326TIP3    H212985   4.344   3.356   0.510
 4327TIP3   OH212986   6.223   0.957   4.818
 4327TIP3    H112987   6.184   0.922   4.738
 4327TIP3    H212988   6.171   0.920   4.889
 4328TIP3   OH212989   0.837   3.699   0.345
 4328TIP3    H112990   0.766   3.649   0.303
 4328TIP3    H212991   0.863   3.763   0.279
 4329TIP3   OH212992   1.784   2.212   3.515
 4329TIP3    H112993   1.822   2.285   3.562
 4329TIP3    H212994   1.839   2.202   3.437
 4330TIP3   OH212995   5.833   5.294   0.131
 4330TIP3    H112996   5.800   5.363   0.189
 4330TIP3    H212997   5.813   5.213   0.178
 4331TIP3   OH212998   1.848   0.100   1.500
 4331TIP3    H112999   1.806   0.185   1.502
 4331TIP3    H213000   1.841   0.072   1.409
 4332TIP3   OH213001   5.585   3.705   3.848
 4332TIP3    H113002   5.603   3.743   3.934
 4332TIP3    H213003   5.522   3.765   3.808
 4333TIP3   OH213004   4.583   5.107   2.672
 4333TIP3    H113005   4.623   5.075   2.753
 4333TIP3    H213006   4.656   5.116   2.611
 4334TIP3   OH213007   0.202   0.215   2.207
 4334TIP3    H113008   0.285   0.258   2.228
 4334TIP3    H213009   0.204   0.133   2.256
 4335TIP3   OH213010   4.542   4.074   1.900
 4335TIP3    H113011   4.483   4.010   1.940
 4335TIP3    H213012   4.561   4.136   1.971
 4336TIP3   OH213013   3.999   4.612   2.879
 4336TIP3    H113014   4.050   4.690   2.857
 4336TIP3    H213015   4.030   4.587   2.967
 4337TIP3   OH213016   2.210   0.874   3.788
 4337TIP3    H113017   2.280   0.878   3.723
 4337TIP3    H213018   2.248   0.911   3.867
 4338TIP3   OH213019   1.839   5.149   4.107
 4338TIP3    H113020   1.913   5.183   4.058
 4338TIP3    H213021   1.875   5.125   4.193
 4339TIP3   OH213022   3.778   2.712   0.783
 4339TIP3    H113023   3.713   2.717   0.713
 4339TIP3    H213024   3.835   2.787   0.769
 4340TIP3   OH213025   4.157   1.685   1.480
 4340TIP3    H113026   4.088   1.643   1.429
 4340TIP3    H213027   4.190   1.754   1.422
 4341TIP3   OH213028   0.055   1.213   3.416
 4341TIP3    H113029   0.009   1.287   3.377
 4341TIP3    H213030  -0.007   1.140   3.409
 4342TIP3   OH213031   1.252   5.094   3.393
 4342TIP3    H113032   1.269   5.102   3.487
 4342TIP3    H213033   1.223   5.003   3.382
 4343TIP3   OH213034   2.771   1.481   2.554
 4343TIP3    H113035   2.776   1.574   2.574
 4343TIP3    H213036   2.843   1.442   2.604
 4344TIP3   OH213037   4.613   5.028   4.950
 4344TIP3    H113038   4.655   5.057   4.870
 4344TIP3    H213039   4.588   5.109   4.995
 4345TIP3   OH213040   0.381   1.230   1.850
 4345TIP3    H113041   0.464   1.277   1.839
 4345TIP3    H213042   0.334   1.245   1.767
 4346TIP3   OH213043   4.231   5.035   3.658
 4346TIP3    H113044   4.239   4.939   3.664
 4346TIP3    H213045   4.275   5.067   3.736
 4347TIP3   OH213046   2.832   4.728   2.747
 4347TIP3    H113047   2.923   4.733   2.721
 4347TIP3    H213048   2.833   4.674   2.826
 4348TIP3   OH213049   1.645   1.883   2.840
 4348TIP3    H113050   1.605   1.807   2.797
 4348TIP3    H213051   1.665   1.943   2.768
 4349TIP3   OH213052   3.729   1.327   1.354
 4349TIP3    H113053   3.752   1.400   1.412
 4349TIP3    H213054   3.634   1.326   1.353
 4350TIP3   OH213055   0.146   5.966   2.002
 4350TIP3    H113056   0.093   5.997   2.075
 4350TIP3    H213057   0.229   5.939   2.042
 4351TIP3   OH213058   1.914   3.187   2.199
 4351TIP3    H113059   1.859   3.266   2.199
 4351TIP3    H213060   1.967   3.196   2.278
 4352TIP3   OH213061   2.518   3.403   0.474
 4352TIP3    H113062   2.474   3.321   0.494
 4352TIP3    H213063   2.504   3.458   0.551
 4353TIP3   OH213064   4.618   2.266   0.441
 4353TIP3    H113065   4.694   2.211   0.458
 4353TIP3    H213066   4.648   2.355   0.458
 4354TIP3   OH213067   3.785   3.414   1.415
 4354TIP3    H113068   3.771   3.507   1.435
 4354TIP3    H213069   3.792   3.372   1.501
 4355TIP3   OH213070   4.003   1.811   5.078
 4355TIP3    H113071   3.966   1.785   4.993
 4355TIP3    H213072   4.078   1.867   5.055
 4356TIP3   OH213073   0.758   1.590   1.436
 4356TIP3    H113074   0.792   1.522   1.494
 4356TIP3    H213075   0.734   1.662   1.494
 4357TIP3   OH213076   0.923   2.610   0.364
 4357TIP3    H113077   1.018   2.609   0.377
 4357TIP3    H213078   0.911   2.569   0.278
 4358TIP3   OH213079   5.031   2.706   0.438
 4358TIP3    H113080   5.037   2.615   0.467
 4358TIP3    H213081   5.059   2.757   0.513
 4359TIP3   OH213082   5.904   0.877   2.332
 4359TIP3    H113083   5.897   0.903   2.424
 4359TIP3    H213084   5.985   0.919   2.301
 4360TIP3   OH213085   3.269   1.166   1.023
 4360TIP3    H113086   3.255   1.209   1.108
 4360TIP3    H213087   3.194   1.192   0.970
 4361TIP3   OH213088   1.258   0.714   2.561
 4361TIP3    H113089   1.289   0.672   2.481
 4361TIP3    H213090   1.197   0.651   2.599
 4362TIP3   OH213091   0.459   5.285   1.480
 4362TIP3    H113092   0.531   5.304   1.539
 4362TIP3    H213093   0.441   5.368   1.436
 4363TIP3   OH213094   1.204   5.608   3.510
 4363TIP3    H113095   1.123   5.585   3.555
 4363TIP3    H213096   1.216   5.538   3.445
 4364TIP3   OH213097   3.491   2.725   2.514
 4364TIP3    H113098   3.498   2.753   2.605
 4364TIP3    H213099   3.425   2.783   2.476
 4365TIP3   OH213100   6.010   5.205   4.177
 4365TIP3    H113101   5.966   5.124   4.203
 4365TIP3    H213102   6.000   5.209   4.082
 4366TIP3   OH213103   1.272   4.155   1.519
 4366TIP3    H113104   1.184   4.157   1.556
 4366TIP3    H213105   1.301   4.064   1.533
 4367TIP3   OH213106   1.733   0.324   1.720
 4367TIP3    H113107   1.669   0.259   1.750
 4367TIP3    H213108   1.694   0.364   1.643
 4368TIP3   OH213109   4.247   1.673   1.051
 4368TIP3    H113110   4.311   1.660   0.981
 4368TIP3    H213111   4.193   1.746   1.021
 4369TIP3   OH213112   5.024   5.413   4.646
 4369TIP3    H113113   5.038   5.507   4.641
 4369TIP3    H213114   5.111   5.375   4.634
 4370TIP3   OH213115   4.750   3.354   0.494
 4370TIP3    H113116   4.699   3.314   0.424
 4370TIP3    H213117   4.705   3.436   0.513
 4371TIP3   OH213118   1.918   2.929   4.624
 4371TIP3    H113119   1.896   3.007   4.676
 4371TIP3    H213120   2.008   2.944   4.597
 4372TIP3   OH213121   5.938   1.078   4.894
 4372TIP3    H113122   5.885   1.002   4.872
 4372TIP3    H213123   5.944   1.077   4.989
 4373TIP3   OH213124   4.516   2.758   1.091
 4373TIP3    H113125   4.520   2.675   1.138
 4373TIP3    H213126   4.455   2.812   1.142
 4374TIP3   OH213127   5.430   3.996   4.031
 4374TIP3    H113128   5.403   4.070   4.086
 4374TIP3    H213129   5.373   3.924   4.058
 4375TIP3   OH213130   0.265   3.892   1.034
 4375TIP3    H113131   0.272   3.801   1.005
 4375TIP3    H213132   0.202   3.890   1.107
 4376TIP3   OH213133   5.206   5.005   1.873
 4376TIP3    H113134   5.272   4.996   1.804
 4376TIP3    H213135   5.256   5.026   1.951
 4377TIP3   OH213136   1.438   5.636   2.081
 4377TIP3    H113137   1.413   5.583   2.005
 4377TIP3    H213138   1.358   5.685   2.104
 4378TIP3   OH213139   1.060   4.337   1.637
 4378TIP3    H113140   0.971   4.326   1.671
 4378TIP3    H213141   1.051   4.319   1.543
 4379TIP3   OH213142   1.216   0.444   0.985
 4379TIP3    H113143   1.176   0.377   1.040
 4379TIP3    H213144   1.309   0.440   1.007
 4380TIP3   OH213145   6.147   4.741   3.926
 4380TIP3    H113146   6.069   4.716   3.976
 4380TIP3    H213147   6.180   4.658   3.892
 4381TIP3   OH213148   1.204   5.355   3.346
 4381TIP3    H113149   1.113   5.354   3.317
 4381TIP3    H213150   1.223   5.264   3.367
 4382TIP3   OH213151   0.422   5.164   1.765
 4382TIP3    H113152   0.467   5.237   1.722
 4382TIP3    H213153   0.383   5.203   1.843
 4383TIP3   OH213154   5.239   5.779   1.526
 4383TIP3    H113155   5.218   5.780   1.620
 4383TIP3    H213156   5.228   5.869   1.498
 4384TIP3   OH213157   0.509   4.181   2.243
 4384TIP3    H113158   0.481   4.148   2.158
 4384TIP3    H213159   0.471   4.119   2.306
 4385TIP3   OH213160   5.133   2.799   4.137
 4385TIP3    H113161   5.162   2.751   4.059
 4385TIP3    H213162   5.073   2.865   4.104
 4386TIP3   OH213163   0.872   3.498   4.346
 4386TIP3    H113164   0.931   3.507   4.271
 4386TIP3    H213165   0.891   3.574   4.401
 4387TIP3   OH213166   0.579   1.142   2.895
 4387TIP3    H113167   0.601   1.082   2.967
 4387TIP3    H213168   0.505   1.099   2.851
 4388TIP3   OH213169   5.022   0.527   2.146
 4388TIP3    H113170   4.938   0.571   2.132
 4388TIP3    H213171   5.079   0.596   2.182
 4389TIP3   OH213172   4.103   0.277   1.922
 4389TIP3    H113173   4.126   0.236   1.838
 4389TIP3    H213174   4.067   0.205   1.975
 4390TIP3   OH213175   4.384   5.022   1.925
 4390TIP3    H113176   4.335   4.939   1.930
 4390TIP3    H213177   4.461   5.001   1.873
 4391TIP3   OH213178   0.821   4.653   5.092
 4391TIP3    H113179   0.807   4.569   5.049
 4391TIP3    H213180   0.860   4.708   5.024
 4392TIP3   OH213181   2.982   1.065   4.298
 4392TIP3    H113182   3.065   1.024   4.273
 4392TIP3    H213183   2.970   1.134   4.232
 4393TIP3   OH213184   2.994   3.527   0.874
 4393TIP3    H113185   3.015   3.435   0.856
 4393TIP3    H213186   3.071   3.576   0.843
 4394TIP3   OH213187   0.988   0.242   3.896
 4394TIP3    H113188   0.908   0.226   3.845
 4394TIP3    H213189   1.041   0.163   3.883
 4395TIP3   OH213190   1.063   5.964   2.783
 4395TIP3    H113191   0.967   5.961   2.788
 4395TIP3    H213192   1.092   5.881   2.820
 4396TIP3   OH213193   5.422   2.074   1.493
 4396TIP3    H113194   5.386   2.037   1.573
 4396TIP3    H213195   5.501   2.120   1.521
 4397TIP3   OH213196  -0.020   2.160   0.535
 4397TIP3    H113197   0.057   2.136   0.484
 4397TIP3    H213198   0.012   2.220   0.602
 4398TIP3   OH213199   4.262   3.907   2.371
 4398TIP3    H113200   4.263   3.993   2.330
 4398TIP3    H213201   4.347   3.869   2.346
 4399TIP3   OH213202   0.137   4.117   3.304
 4399TIP3    H113203   0.199   4.090   3.237
 4399TIP3    H213204   0.178   4.090   3.386
 4400TIP3   OH213205   6.027   4.997   2.217
 4400TIP3    H113206   6.115   4.961   2.203
 4400TIP3    H213207   6.037   5.053   2.294
 4401TIP3   OH213208   1.054   2.468   2.714
 4401TIP3    H113209   1.110   2.391   2.723
 4401TIP3    H213210   1.095   2.534   2.769
 4402TIP3   OH213211   3.461   5.429   0.926
 4402TIP3    H113212   3.482   5.522   0.932
 4402TIP3    H213213   3.407   5.411   1.003
 4403TIP3   OH213214   6.020   0.497   4.481
 4403TIP3    H113215   5.970   0.516   4.402
 4403TIP3    H213216   6.100   0.454   4.449
 4404TIP3   OH213217   1.001   3.198   3.613
 4404TIP3    H113218   0.985   3.104   3.614
 4404TIP3    H213219   0.946   3.232   3.684
 4405TIP3   OH213220   5.664   4.349   3.007
 4405TIP3    H113221   5.727   4.333   2.937
 4405TIP3    H213222   5.590   4.292   2.987
 4406TIP3   OH213223   4.470   2.218   3.942
 4406TIP3    H113224   4.410   2.208   3.868
 4406TIP3    H213225   4.493   2.129   3.967
 4407TIP3   OH213226   1.120   2.052   2.173
 4407TIP3    H113227   1.058   2.065   2.245
 4407TIP3    H213228   1.152   2.140   2.153
 4408TIP3   OH213229   5.154   5.624   0.106
 4408TIP3    H113230   5.087   5.589   0.165
 4408TIP3    H213231   5.161   5.559   0.037
 4409TIP3   OH213232   4.848   5.749   2.806
 4409TIP3    H113233   4.916   5.767   2.871
 4409TIP3    H213234   4.859   5.818   2.741
 4410TIP3   OH213235   0.785   4.412   3.968
 4410TIP3    H113236   0.790   4.463   3.887
 4410TIP3    H213237   0.692   4.395   3.981
 4411TIP3   OH213238   6.147   3.404   3.844
 4411TIP3    H113239   6.218   3.430   3.785
 4411TIP3    H213240   6.154   3.309   3.850
 4412TIP3   OH213241   6.201   1.210   4.959
 4412TIP3    H113242   6.166   1.290   4.918
 4412TIP3    H213243   6.179   1.140   4.898
 4413TIP3   OH213244   1.252   5.754   4.774
 4413TIP3    H113245   1.245   5.683   4.710
 4413TIP3    H213246   1.182   5.814   4.750
 4414TIP3   OH213247   3.396   2.809   1.312
 4414TIP3    H113248   3.466   2.750   1.284
 4414TIP3    H213249   3.383   2.789   1.404
 4415TIP3   OH213250   0.818   5.049   4.764
 4415TIP3    H113251   0.746   5.086   4.712
 4415TIP3    H213252   0.893   5.050   4.705
 4416TIP3   OH213253   3.142   3.098   3.252
 4416TIP3    H113254   3.129   3.009   3.283
 4416TIP3    H213255   3.076   3.149   3.299
 4417TIP3   OH213256   5.754   1.949   2.276
 4417TIP3    H113257   5.759   1.903   2.192
 4417TIP3    H213258   5.686   2.015   2.263
 4418TIP3   OH213259   4.519   2.253   1.224
 4418TIP3    H113260   4.449   2.218   1.170
 4418TIP3    H213261   4.475   2.308   1.289
 4419TIP3   OH213262   2.936   0.740   0.168
 4419TIP3    H113263   2.926   0.829   0.201
 4419TIP3    H213264   2.879   0.736   0.091
 4420TIP3   OH213265   1.997   1.559   1.013
 4420TIP3    H113266   2.008   1.493   0.944
 4420TIP3    H213267   2.083   1.598   1.023
 4421TIP3   OH213268   2.640   0.231   2.972
 4421TIP3    H113269   2.606   0.202   3.056
 4421TIP3    H213270   2.609   0.321   2.962
 4422TIP3   OH213271   0.445   3.746   1.597
 4422TIP3    H113272   0.394   3.667   1.612
 4422TIP3    H213273   0.406   3.785   1.518
 4423TIP3   OH213274   4.410   1.293   3.260
 4423TIP3    H113275   4.353   1.241   3.205
 4423TIP3    H213276   4.496   1.250   3.254
 4424TIP3   OH213277   4.519   5.807   4.945
 4424TIP3    H113278   4.565   5.786   4.863
 4424TIP3    H213279   4.446   5.745   4.948
 4425TIP3   OH213280   5.739   1.892   4.215
 4425TIP3    H113281   5.796   1.967   4.231
 4425TIP3    H213282   5.651   1.928   4.220
 4426TIP3   OH213283   3.478   2.172   1.223
 4426TIP3    H113284   3.430   2.120   1.159
 4426TIP3    H213285   3.508   2.249   1.173
 4427TIP3   OH213286   5.745   4.750   4.536
 4427TIP3    H113287   5.749   4.658   4.509
 4427TIP3    H213288   5.682   4.751   4.608
 4428TIP3   OH213289   3.154   4.068   1.558
 4428TIP3    H113290   3.201   4.093   1.638
 4428TIP3    H213291   3.065   4.048   1.588
 4429TIP3   OH213292   5.779   1.494   0.185
 4429TIP3    H113293   5.686   1.517   0.177
 4429TIP3    H213294   5.801   1.454   0.101
 4430TIP3   OH213295   3.364   3.410   0.600
 4430TIP3    H113296   3.373   3.469   0.675
 4430TIP3    H213297   3.448   3.416   0.555
 4431TIP3   OH213298   4.495   5.164   4.258
 4431TIP3    H113299   4.489   5.123   4.172
 4431TIP3    H213300   4.550   5.104   4.309
 4432TIP3   OH213301   0.447   3.212   3.786
 4432TIP3    H113302   0.514   3.246   3.727
 4432TIP3    H213303   0.445   3.118   3.768
 4433TIP3   OH213304   5.473   1.127   2.376
 4433TIP3    H113305   5.437   1.216   2.382
 4433TIP3    H213306   5.507   1.121   2.287
 4434TIP3   OH213307   5.058   1.592   4.183
 4434TIP3    H113308   5.149   1.565   4.194
 4434TIP3    H213309   5.008   1.512   4.196
 4435TIP3   OH213310   0.759   5.890   2.400
 4435TIP3    H113311   0.762   5.814   2.459
 4435TIP3    H213312   0.829   5.948   2.432
 4436TIP3   OH213313   3.894   1.644   2.651
 4436TIP3    H113314   3.855   1.682   2.573
 4436TIP3    H213315   3.933   1.562   2.621
 4437TIP3   OH213316   5.406   4.180   4.218
 4437TIP3    H113317   5.365   4.128   4.288
 4437TIP3    H213318   5.355   4.260   4.214
 4438TIP3   OH213319   2.021   4.301   2.380
 4438TIP3    H113320   1.934   4.262   2.391
 4438TIP3    H213321   2.012   4.391   2.412
 4439TIP3   OH213322   0.855   5.425   5.157
 4439TIP3    H113323   0.769   5.461   5.135
 4439TIP3    H213324   0.902   5.425   5.074
 4440TIP3   OH213325   1.043   2.881   2.896
 4440TIP3    H113326   0.995   2.914   2.972
 4440TIP3    H213327   0.988   2.904   2.821
 4441TIP3   OH213328   3.161   5.335   4.186
 4441TIP3    H113329   3.120   5.420   4.197
 4441TIP3    H213330   3.133   5.284   4.263
 4442TIP3   OH213331   4.315   0.201   1.204
 4442TIP3    H113332   4.271   0.279   1.171
 4442TIP3    H213333   4.265   0.128   1.168
 4443TIP3   OH213334   5.684   2.667   2.655
 4443TIP3    H113335   5.770   2.676   2.614
 4443TIP3    H213336   5.703   2.660   2.749
 4444TIP3   OH213337   4.303   1.470   4.544
 4444TIP3    H113338   4.241   1.400   4.522
 4444TIP3    H213339   4.267   1.548   4.502
 4445TIP3   OH213340   1.959   2.155   1.281
 4445TIP3    H113341   1.929   2.226   1.337
 4445TIP3    H213342   1.886   2.141   1.220
 4446TIP3   OH213343   5.032   1.444   0.144
 4446TIP3    H113344   4.948   1.436   0.100
 4446TIP3    H213345   5.021   1.395   0.226
 4447TIP3   OH213346   2.597   5.787   2.847
 4447TIP3    H113347   2.527   5.762   2.907
 4447TIP3    H213348   2.552   5.810   2.766
 4448TIP3   OH213349   0.410   3.653   1.971
 4448TIP3    H113350   0.428   3.733   2.021
 4448TIP3    H213351   0.353   3.602   2.029
 4449TIP3   OH213352   3.911   4.384   2.779
 4449TIP3    H113353   3.992   4.333   2.765
 4449TIP3    H213354   3.942   4.471   2.803
 4450TIP3   OH213355   3.283   3.859   3.302
 4450TIP3    H113356   3.269   3.765   3.317
 4450TIP3    H213357   3.354   3.862   3.238
 4451TIP3   OH213358   1.261   4.780   3.558
 4451TIP3    H113359   1.272   4.726   3.636
 4451TIP3    H213360   1.333   4.844   3.563
 4452TIP3   OH213361   2.178   3.555   3.093
 4452TIP3    H113362   2.220   3.640   3.101
 4452TIP3    H213363   2.202   3.524   3.006
 4453TIP3   OH213364   4.740   5.204   1.640
 4453TIP3    H113365   4.819   5.214   1.692
 4453TIP3    H213366   4.772   5.190   1.550
 4454TIP3   OH213367   4.943   5.606   3.268
 4454TIP3    H113368   4.933   5.550   3.345
 4454TIP3    H213369   4.972   5.547   3.199
 4455TIP3   OH213370   0.258   4.186   1.599
 4455TIP3    H113371   0.349   4.181   1.628
 4455TIP3    H213372   0.241   4.279   1.588
 4456TIP3   OH213373   1.331   0.720   0.582
 4456TIP3    H113374   1.355   0.645   0.637
 4456TIP3    H213375   1.414   0.754   0.551
 4457TIP3   OH213376   1.232   3.715   3.786
 4457TIP3    H113377   1.150   3.694   3.739
 4457TIP3    H213378   1.300   3.669   3.737
 4458TIP3   OH213379   2.313   5.953   1.419
 4458TIP3    H113380   2.320   6.041   1.382
 4458TIP3    H213381   2.327   5.895   1.344
 4459TIP3   OH213382   4.276   5.692   3.296
 4459TIP3    H113383   4.277   5.602   3.328
 4459TIP3    H213384   4.216   5.690   3.221
 4460TIP3   OH213385   4.185   1.706   4.753
 4460TIP3    H113386   4.270   1.724   4.713
 4460TIP3    H213387   4.146   1.792   4.766
 4461TIP3   OH213388   0.077   1.583   0.468
 4461TIP3    H113389   0.143   1.589   0.537
 4461TIP3    H213390   0.057   1.674   0.445
 4462TIP3   OH213391   3.322   1.708   3.756
 4462TIP3    H113392   3.363   1.638   3.807
 4462TIP3    H213393   3.286   1.663   3.680
 4463TIP3   OH213394   0.382   5.792   2.514
 4463TIP3    H113395   0.377   5.828   2.425
 4463TIP3    H213396   0.462   5.739   2.515
 4464TIP3   OH213397   2.112   5.495   1.933
 4464TIP3    H113398   2.184   5.553   1.960
 4464TIP3    H213399   2.118   5.493   1.837
 4465TIP3   OH213400   0.433   1.427   3.236
 4465TIP3    H113401   0.481   1.507   3.257
 4465TIP3    H213402   0.343   1.456   3.220
 4466TIP3   OH213403   1.134   0.233   4.357
 4466TIP3    H113404   1.216   0.195   4.325
 4466TIP3    H213405   1.162   0.311   4.405
 4467TIP3   OH213406   1.512   0.735   5.136
 4467TIP3    H113407   1.567   0.812   5.145
 4467TIP3    H213408   1.492   0.709   5.226
 4468TIP3   OH213409   4.984   1.684   1.353
 4468TIP3    H113410   4.940   1.600   1.338
 4468TIP3    H213411   4.923   1.749   1.316
 4469TIP3   OH213412   5.023   4.655   3.096
 4469TIP3    H113413   4.977   4.667   3.180
 4469TIP3    H213414   5.012   4.562   3.076
 4470TIP3   OH213415   1.639   0.317   4.467
 4470TIP3    H113416   1.585   0.280   4.537
 4470TIP3    H213417   1.715   0.259   4.463
 4471TIP3   OH213418   1.425   2.813   2.695
 4471TIP3    H113419   1.363   2.871   2.651
 4471TIP3    H213420   1.446   2.746   2.630
 4472TIP3   OH213421   1.180   5.616   3.144
 4472TIP3    H113422   1.244   5.647   3.208
 4472TIP3    H213423   1.123   5.558   3.193
 4473TIP3   OH213424   1.079   0.746   4.271
 4473TIP3    H113425   1.001   0.699   4.300
 4473TIP3    H213426   1.139   0.741   4.345
 4474TIP3   OH213427   1.291   3.885   1.612
 4474TIP3    H113428   1.316   3.793   1.623
 4474TIP3    H213429   1.214   3.896   1.667
 4475TIP3   OH213430   2.548   1.005   3.415
 4475TIP3    H113431   2.535   1.082   3.360
 4475TIP3    H213432   2.621   1.028   3.473
 4476TIP3   OH213433   3.750   3.258   0.069
 4476TIP3    H113434   3.746   3.169   0.036
 4476TIP3    H213435   3.786   3.309  -0.003
 4477TIP3   OH213436   5.757   1.459   4.011
 4477TIP3    H113437   5.809   1.403   3.953
 4477TIP3    H213438   5.773   1.423   4.098
 4478TIP3   OH213439   4.083   2.319   1.275
 4478TIP3    H113440   4.160   2.263   1.264
 4478TIP3    H213441   4.081   2.373   1.196
 4479TIP3   OH213442   2.596   0.329   4.520
 4479TIP3    H113443   2.519   0.279   4.548
 4479TIP3    H213444   2.571   0.366   4.435
 4480TIP3   OH213445   5.073   0.417   5.186
 4480TIP3    H113446   5.132   0.372   5.124
 4480TIP3    H213447   5.090   0.510   5.172
 4481TIP3   OH213448   0.706   5.972   3.850
 4481TIP3    H113449   0.648   5.922   3.909
 4481TIP3    H213450   0.648   6.003   3.781
 4482TIP3   OH213451   0.111   2.332   2.537
 4482TIP3    H113452   0.141   2.403   2.594
 4482TIP3    H213453   0.101   2.373   2.451
 4483TIP3   OH213454   3.940   4.447   1.266
 4483TIP3    H113455   3.965   4.449   1.359
 4483TIP3    H213456   4.024   4.449   1.219
 4484TIP3   OH213457   5.197   5.895   4.771
 4484TIP3    H113458   5.160   5.963   4.716
 4484TIP3    H213459   5.286   5.925   4.791
 4485TIP3   OH213460   4.743   4.257   1.806
 4485TIP3    H113461   4.792   4.283   1.885
 4485TIP3    H213462   4.678   4.194   1.838
 4486TIP3   OH213463   4.280   4.815   5.092
 4486TIP3    H113464   4.324   4.779   5.015
 4486TIP3    H213465   4.284   4.744   5.157
 4487TIP3   OH213466   4.989   1.673   1.674
 4487TIP3    H113467   4.902   1.643   1.702
 4487TIP3    H213468   4.977   1.700   1.583
 4488TIP3   OH213469   4.408   4.892   2.884
 4488TIP3    H113470   4.400   4.892   2.789
 4488TIP3    H213471   4.501   4.877   2.900
 4489TIP3   OH213472   6.124   4.770   0.510
 4489TIP3    H113473   6.094   4.781   0.601
 4489TIP3    H213474   6.157   4.680   0.507
 4490TIP3   OH213475   3.056   3.797   0.044
 4490TIP3    H113476   3.041   3.715   0.093
 4490TIP3    H213477   3.150   3.797   0.026
 4491TIP3   OH213478   2.190   4.216   1.494
 4491TIP3    H113479   2.211   4.214   1.401
 4491TIP3    H213480   2.167   4.126   1.516
 4492TIP3   OH213481   0.726   1.197   0.124
 4492TIP3    H113482   0.746   1.191   0.031
 4492TIP3    H213483   0.798   1.151   0.167
 4493TIP3   OH213484   0.579   5.710   2.967
 4493TIP3    H113485   0.506   5.766   2.996
 4493TIP3    H213486   0.655   5.743   3.014
 4494TIP3   OH213487   4.348   1.927   4.406
 4494TIP3    H113488   4.319   2.009   4.445
 4494TIP3    H213489   4.363   1.948   4.314
 4495TIP3   OH213490   3.403   2.313   3.691
 4495TIP3    H113491   3.399   2.241   3.628
 4495TIP3    H213492   3.403   2.392   3.638
 4496TIP3   OH213493   4.693   3.121   1.489
 4496TIP3    H113494   4.638   3.199   1.481
 4496TIP3    H213495   4.772   3.151   1.532
 4497TIP3   OH213496   2.305   5.890   1.715
 4497TIP3    H113497   2.362   5.816   1.734
 4497TIP3    H213498   2.329   5.917   1.626
 4498TIP3   OH213499   3.714   4.317   0.145
 4498TIP3    H113500   3.799   4.274   0.147
 4498TIP3    H213501   3.712   4.371   0.223
 4499TIP3   OH213502   1.564   3.170   5.017
 4499TIP3    H113503   1.497   3.237   5.002
 4499TIP3    H213504   1.647   3.219   5.014
 4500TIP3   OH213505   0.128   0.343   0.151
 4500TIP3    H113506   0.203   0.364   0.095
 4500TIP3    H213507   0.148   0.257   0.186
 4501TIP3   OH213508   3.901   0.956  -0.005
 4501TIP3    H113509   3.916   0.977   0.087
 4501TIP3    H213510   3.844   1.027  -0.037
 4502TIP3   OH213511   0.856   5.569   4.093
 4502TIP3    H113512   0.790   5.605   4.152
 4502TIP3    H213513   0.926   5.634   4.093
 4503TIP3   OH213514   0.036   0.619   0.185
 4503TIP3    H113515   0.045   0.530   0.151
 4503TIP3    H213516  -0.051   0.621   0.225
 4504TIP3   OH213517   0.187   2.344   3.889
 4504TIP3    H113518   0.123   2.281   3.922
 4504TIP3    H213519   0.241   2.366   3.965
 4505TIP3   OH213520   6.200   3.235   3.061
 4505TIP3    H113521   6.254   3.218   2.984
 4505TIP3    H213522   6.155   3.152   3.077
 4506TIP3   OH213523   4.076   2.008   4.143
 4506TIP3    H113524   3.988   1.979   4.167
 4506TIP3    H213525   4.068   2.103   4.134
 4507TIP3   OH213526   5.704   4.208   3.908
 4507TIP3    H113527   5.721   4.240   3.819
 4507TIP3    H213528   5.609   4.200   3.912
 4508TIP3   OH213529   3.729   1.174   4.757
 4508TIP3    H113530   3.711   1.104   4.819
 4508TIP3    H213531   3.812   1.150   4.716
 4509TIP3   OH213532   1.896   4.272   1.133
 4509TIP3    H113533   1.980   4.298   1.171
 4509TIP3    H213534   1.832   4.330   1.174
 4510TIP3   OH213535   1.888   4.038   2.623
 4510TIP3    H113536   1.855   3.971   2.564
 4510TIP3    H213537   1.979   4.013   2.641
 4511TIP3   OH213538   5.704   3.603   0.432
 4511TIP3    H113539   5.643   3.618   0.359
 4511TIP3    H213540   5.747   3.688   0.444
 4512TIP3   OH213541   6.020   3.060   4.370
 4512TIP3    H113542   5.989   3.110   4.445
 4512TIP3    H213543   5.945   3.007   4.344
 4513TIP3   OH213544   2.321   2.528   1.357
 4513TIP3    H113545   2.316   2.553   1.449
 4513TIP3    H213546   2.413   2.541   1.333
 4514TIP3   OH213547   5.801   5.485   3.161
 4514TIP3    H113548   5.726   5.426   3.161
 4514TIP3    H213549   5.833   5.484   3.252
 4515TIP3   OH213550   1.141   1.371   1.092
 4515TIP3    H113551   1.087   1.297   1.119
 4515TIP3    H213552   1.097   1.406   1.014
 4516TIP3   OH213553   3.636   0.768   4.688
 4516TIP3    H113554   3.677   0.691   4.728
 4516TIP3    H213555   3.708   0.829   4.673
 4517TIP3   OH213556   3.684   2.710   2.117
 4517TIP3    H113557   3.738   2.716   2.037
 4517TIP3    H213558   3.673   2.800   2.145
 4518TIP3   OH213559   5.604   4.535   4.968
 4518TIP3    H113560   5.581   4.613   4.919
 4518TIP3    H213561   5.678   4.498   4.920
 4519TIP3   OH213562   4.681   5.607   4.443
 4519TIP3    H113563   4.695   5.549   4.368
 4519TIP3    H213564   4.587   5.601   4.461
 4520TIP3   OH213565   6.045   0.963   0.430
 4520TIP3    H113566   6.074   0.894   0.489
 4520TIP3    H213567   6.123   1.018   0.418
 4521TIP3   OH213568   4.938   3.995   5.199
 4521TIP3    H113569   4.843   3.988   5.189
 4521TIP3    H213570   4.968   4.035   5.117
 4522TIP3   OH213571   0.680   4.367   3.004
 4522TIP3    H113572   0.752   4.401   3.057
 4522TIP3    H213573   0.642   4.445   2.962
 4523TIP3   OH213574   6.301   2.651   0.563
 4523TIP3    H113575   6.377   2.706   0.542
 4523TIP3    H213576   6.323   2.611   0.648
 4524TIP3   OH213577   0.597   3.913   4.451
 4524TIP3    H113578   0.594   4.008   4.439
 4524TIP3    H213579   0.652   3.900   4.529
 4525TIP3   OH213580   1.310   1.098   0.869
 4525TIP3    H113581   1.356   1.126   0.948
 4525TIP3    H213582   1.220   1.085   0.897
 4526TIP3   OH213583   1.924   2.911   0.348
 4526TIP3    H113584   1.889   3.000   0.360
 4526TIP3    H213585   1.973   2.915   0.266
 4527TIP3   OH213586   1.768   2.087   2.983
 4527TIP3    H113587   1.698   2.043   2.934
 4527TIP3    H213588   1.723   2.127   3.058
 4528TIP3   OH213589   6.007   4.943   5.041
 4528TIP3    H113590   5.927   4.891   5.039
 4528TIP3    H213591   6.012   4.981   4.953
 4529TIP3   OH213592   5.471   2.958   4.751
 4529TIP3    H113593   5.507   2.900   4.818
 4529TIP3    H213594   5.404   2.905   4.707
 4530TIP3   OH213595   3.604   2.506   5.135
 4530TIP3    H113596   3.604   2.429   5.192
 4530TIP3    H213597   3.660   2.569   5.181
 4531TIP3   OH213598   3.239   1.377   5.157
 4531TIP3    H113599   3.221   1.288   5.126
 4531TIP3    H213600   3.334   1.378   5.172
 4532TIP3   OH213601   2.517   0.159   1.959
 4532TIP3    H113602   2.515   0.212   2.038
 4532TIP3    H213603   2.425   0.149   1.934
 4533TIP3   OH213604   1.167   0.932   4.619
 4533TIP3    H113605   1.198   1.020   4.640
 4533TIP3    H213606   1.072   0.938   4.623
 4534TIP3   OH213607   0.874   3.496   2.880
 4534TIP3    H113608   0.859   3.470   2.971
 4534TIP3    H213609   0.816   3.440   2.829
 4535TIP3   OH213610   3.570   1.466   3.126
 4535TIP3    H113611   3.551   1.512   3.044
 4535TIP3    H213612   3.663   1.478   3.140
 4536TIP3   OH213613   1.984   0.916   2.662
 4536TIP3    H113614   1.926   0.881   2.730
 4536TIP3    H213615   2.057   0.854   2.658
 4537TIP3   OH213616   1.043   0.747   0.501
 4537TIP3    H113617   1.127   0.763   0.544
 4537TIP3    H213618   1.060   0.764   0.408
 4538TIP3   OH213619   2.858   4.050   0.945
 4538TIP3    H113620   2.849   4.003   1.028
 4538TIP3    H213621   2.875   3.980   0.881
 4539TIP3   OH213622   2.595   1.802   1.034
 4539TIP3    H113623   2.640   1.723   1.066
 4539TIP3    H213624   2.626   1.812   0.944
 4540TIP3   OH213625   0.715   5.576   0.495
 4540TIP3    H113626   0.647   5.627   0.451
 4540TIP3    H213627   0.757   5.526   0.425
 4541TIP3   OH213628   4.140   1.953   0.426
 4541TIP3    H113629   4.178   2.036   0.397
 4541TIP3    H213630   4.143   1.897   0.348
 4542TIP3   OH213631   0.832   4.038   2.591
 4542TIP3    H113632   0.793   4.071   2.510
 4542TIP3    H213633   0.763   4.050   2.656
 4543TIP3   OH213634   3.347   3.077   4.209
 4543TIP3    H113635   3.388   3.135   4.145
 4543TIP3    H213636   3.393   2.994   4.199
 4544TIP3   OH213637   4.393   2.604   1.651
 4544TIP3    H113638   4.327   2.541   1.679
 4544TIP3    H213639   4.351   2.689   1.664
 4545TIP3   OH213640   0.630   0.016   2.647
 4545TIP3    H113641   0.606   0.070   2.722
 4545TIP3    H213642   0.669   0.078   2.585
 4546TIP3   OH213643   6.043   5.964   4.773
 4546TIP3    H113644   5.973   5.898   4.774
 4546TIP3    H213645   6.087   5.954   4.857
 4547TIP3   OH213646   2.052   1.313   2.558
 4547TIP3    H113647   1.990   1.261   2.609
 4547TIP3    H213648   1.998   1.371   2.505
 4548TIP3   OH213649   5.254   1.058   4.933
 4548TIP3    H113650   5.256   1.004   4.854
 4548TIP3    H213651   5.174   1.110   4.925
 4549TIP3   OH213652   3.151   5.297   3.059
 4549TIP3    H113653   3.184   5.230   2.999
 4549TIP3    H213654   3.096   5.353   3.004
 4550TIP3   OH213655   5.187   3.594   2.220
 4550TIP3    H113656   5.132   3.628   2.150
 4550TIP3    H213657   5.259   3.657   2.227
 4551TIP3   OH213658   4.755   0.087   2.101
 4551TIP3    H113659   4.716   0.071   2.015
 4551TIP3    H213660   4.794   0.004   2.126
 4552TIP3   OH213661   0.424   0.260   0.853
 4552TIP3    H113662   0.514   0.231   0.865
 4552TIP3    H213663   0.418   0.284   0.761
 4553TIP3   OH213664   4.277   2.457   1.946
 4553TIP3    H113665   4.357   2.499   1.980
 4553TIP3    H213666   4.208   2.489   2.004
 4554TIP3   OH213667   0.766   5.045   2.069
 4554TIP3    H113668   0.758   4.970   2.011
 4554TIP3    H213669   0.861   5.061   2.075
 4555TIP3   OH213670   5.665   3.339   0.108
 4555TIP3    H113671   5.655   3.244   0.103
 4555TIP3    H213672   5.586   3.369   0.153
 4556TIP3   OH213673   5.102   1.438   2.279
 4556TIP3    H113674   5.166   1.467   2.344
 4556TIP3    H213675   5.040   1.384   2.328
 4557TIP3   OH213676   1.940   4.053   1.840
 4557TIP3    H113677   1.984   3.984   1.889
 4557TIP3    H213678   1.883   4.007   1.778
 4558TIP3   OH213679   3.838   2.491   0.558
 4558TIP3    H113680   3.792   2.514   0.639
 4558TIP3    H213681   3.796   2.546   0.491
 4559TIP3   OH213682   2.040   5.143   1.242
 4559TIP3    H113683   2.084   5.227   1.230
 4559TIP3    H213684   2.095   5.080   1.196
 4560TIP3   OH213685   4.951   0.408   1.452
 4560TIP3    H113686   4.913   0.323   1.475
 4560TIP3    H213687   4.876   0.460   1.424
 4561TIP3   OH213688   0.201   2.537   2.696
 4561TIP3    H113689   0.267   2.604   2.714
 4561TIP3    H213690   0.200   2.482   2.774
 4562TIP3   OH213691   3.349   1.862   3.414
 4562TIP3    H113692   3.270   1.810   3.406
 4562TIP3    H213693   3.358   1.907   3.330
 4563TIP3   OH213694   2.414   4.117   1.865
 4563TIP3    H113695   2.337   4.172   1.878
 4563TIP3    H213696   2.389   4.031   1.898
 4564TIP3   OH213697   3.194   5.395   3.310
 4564TIP3    H113698   3.186   5.347   3.227
 4564TIP3    H213699   3.247   5.472   3.288
 4565TIP3   OH213700   4.721   1.089   2.699
 4565TIP3    H113701   4.676   1.101   2.782
 4565TIP3    H213702   4.813   1.077   2.723
 4566TIP3   OH213703   2.412   2.890   3.400
 4566TIP3    H113704   2.405   2.944   3.321
 4566TIP3    H213705   2.492   2.920   3.442
 4567TIP3   OH213706   4.483   2.549   0.109
 4567TIP3    H113707   4.531   2.479   0.066
 4567TIP3    H213708   4.531   2.629   0.087
 4568TIP3   OH213709   5.039   1.044   0.867
 4568TIP3    H113710   4.956   1.035   0.820
 4568TIP3    H213711   5.019   1.103   0.939
 4569TIP3   OH213712   0.391   1.656   2.922
 4569TIP3    H113713   0.306   1.623   2.891
 4569TIP3    H213714   0.454   1.591   2.891
 4570TIP3   OH213715   2.156   0.645   3.528
 4570TIP3    H113716   2.167   0.740   3.528
 4570TIP3    H213717   2.210   0.614   3.454
 4571TIP3   OH213718   1.718   0.866   2.260
 4571TIP3    H113719   1.714   0.774   2.234
 4571TIP3    H213720   1.727   0.914   2.178
 4572TIP3   OH213721   3.172   0.412   2.683
 4572TIP3    H113722   3.088   0.374   2.657
 4572TIP3    H213723   3.236   0.344   2.664
 4573TIP3   OH213724   6.197   2.849   4.512
 4573TIP3    H113725   6.211   2.756   4.531
 4573TIP3    H213726   6.104   2.863   4.532
 4574TIP3   OH213727   6.278   4.075   3.127
 4574TIP3    H113728   6.231   4.154   3.098
 4574TIP3    H213729   6.337   4.106   3.196
 4575TIP3   OH213730   2.239   5.744   3.283
 4575TIP3    H113731   2.169   5.781   3.229
 4575TIP3    H213732   2.248   5.803   3.357
 4576TIP3   OH213733   0.570   1.392   1.761
 4576TIP3    H113734   0.637   1.336   1.721
 4576TIP3    H213735   0.517   1.422   1.688
 4577TIP3   OH213736   0.543   5.128   0.567
 4577TIP3    H113737   0.552   5.211   0.614
 4577TIP3    H213738   0.453   5.129   0.535
 4578TIP3   OH213739   0.594   4.969   2.579
 4578TIP3    H113740   0.666   4.933   2.630
 4578TIP3    H213741   0.618   4.952   2.488
 4579TIP3   OH213742   2.371   3.371   3.254
 4579TIP3    H113743   2.332   3.427   3.188
 4579TIP3    H213744   2.312   3.377   3.330
 4580TIP3   OH213745   4.014   2.716   4.110
 4580TIP3    H113746   4.017   2.623   4.131
 4580TIP3    H213747   4.106   2.744   4.111
 4581TIP3   OH213748   1.669   1.858   3.147
 4581TIP3    H113749   1.621   1.784   3.184
 4581TIP3    H213750   1.646   1.858   3.055
 4582TIP3   OH213751   3.210   0.195   0.692
 4582TIP3    H113752   3.295   0.178   0.652
 4582TIP3    H213753   3.230   0.248   0.769
 4583TIP3   OH213754   3.074   0.778   2.431
 4583TIP3    H113755   2.979   0.785   2.426
 4583TIP3    H213756   3.090   0.683   2.434
 4584TIP3   OH213757   2.199   1.722   1.573
 4584TIP3    H113758   2.182   1.675   1.654
 4584TIP3    H213759   2.123   1.778   1.561
 4585TIP3   OH213760   3.632   4.096   1.566
 4585TIP3    H113761   3.576   4.172   1.551
 4585TIP3    H213762   3.580   4.021   1.537
 4586TIP3   OH213763   1.195   4.547   4.881
 4586TIP3    H113764   1.285   4.537   4.912
 4586TIP3    H213765   1.201   4.533   4.786
 4587TIP3   OH213766   0.012   1.492   1.226
 4587TIP3    H113767   0.003   1.487   1.322
 4587TIP3    H213768  -0.073   1.526   1.196
 4588TIP3   OH213769   5.952   5.294   1.697
 4588TIP3    H113770   5.966   5.278   1.604
 4588TIP3    H213771   5.877   5.240   1.720
 4589TIP3   OH213772   5.853   3.910   4.799
 4589TIP3    H113773   5.920   3.848   4.828
 4589TIP3    H213774   5.770   3.868   4.821
 4590TIP3   OH213775   6.344   3.178   0.967
 4590TIP3    H113776   6.254   3.176   0.934
 4590TIP3    H213777   6.341   3.125   1.047
 4591TIP3   OH213778   0.451   5.548   3.243
 4591TIP3    H113779   0.394   5.528   3.317
 4591TIP3    H213780   0.391   5.562   3.170
 4592TIP3   OH213781   4.189   1.422   0.622
 4592TIP3    H113782   4.135   1.355   0.579
 4592TIP3    H213783   4.165   1.503   0.579
 4593TIP3   OH213784   1.986   0.140   3.452
 4593TIP3    H113785   2.080   0.152   3.441
 4593TIP3    H213786   1.948   0.224   3.426
 4594TIP3   OH213787   2.411   2.596   4.943
 4594TIP3    H113788   2.380   2.540   4.872
 4594TIP3    H213789   2.500   2.565   4.961
 4595TIP3   OH213790   2.249   5.850   4.165
 4595TIP3    H113791   2.193   5.773   4.173
 4595TIP3    H213792   2.229   5.885   4.078
 4596TIP3   OH213793   1.930   1.148   2.777
 4596TIP3    H113794   1.941   1.151   2.872
 4596TIP3    H213795   1.990   1.079   2.748
 4597TIP3   OH213796   3.652   2.351   2.569
 4597TIP3    H113797   3.610   2.309   2.645
 4597TIP3    H213798   3.690   2.279   2.520
 4598TIP3   OH213799   4.756   5.063   1.399
 4598TIP3    H113800   4.809   5.111   1.335
 4598TIP3    H213801   4.818   5.029   1.462
 4599TIP3   OH213802   3.393   5.419   1.453
 4599TIP3    H113803   3.339   5.396   1.529
 4599TIP3    H213804   3.461   5.477   1.489
 4600TIP3   OH213805   5.247   5.445   4.096
 4600TIP3    H113806   5.320   5.418   4.041
 4600TIP3    H213807   5.282   5.445   4.185
 4601TIP3   OH213808   2.887   0.104   2.889
 4601TIP3    H113809   2.811   0.138   2.937
 4601TIP3    H213810   2.957   0.168   2.907
 4602TIP3   OH213811   0.294   0.040   2.466
 4602TIP3    H113812   0.357   0.099   2.507
 4602TIP3    H213813   0.212   0.090   2.465
 4603TIP3   OH213814   5.380   1.482   4.805
 4603TIP3    H113815   5.353   1.503   4.895
 4603TIP3    H213816   5.309   1.429   4.770
 4604TIP3   OH213817   5.891   2.500   4.906
 4604TIP3    H113818   5.940   2.510   4.824
 4604TIP3    H213819   5.875   2.590   4.935
 4605TIP3   OH213820   5.504   5.239   4.841
 4605TIP3    H113821   5.429   5.299   4.835
 4605TIP3    H213822   5.576   5.293   4.874
 4606TIP3   OH213823   1.044   1.047   4.265
 4606TIP3    H113824   1.061   0.959   4.229
 4606TIP3    H213825   1.128   1.092   4.255
 4607TIP3   OH213826   0.324   3.826   1.350
 4607TIP3    H113827   0.300   3.919   1.345
 4607TIP3    H213828   0.245   3.780   1.322
 4608TIP3   OH213829   1.815   0.740   3.220
 4608TIP3    H113830   1.748   0.672   3.218
 4608TIP3    H213831   1.785   0.806   3.157
 4609TIP3   OH213832   0.534   5.910   4.078
 4609TIP3    H113833   0.536   6.004   4.093
 4609TIP3    H213834   0.443   5.884   4.093
 4610TIP3   OH213835   4.111   2.254   0.235
 4610TIP3    H113836   4.190   2.255   0.288
 4610TIP3    H213837   4.104   2.344   0.201
 4611TIP3   OH213838   0.020   0.048   3.255
 4611TIP3    H113839   0.061  -0.020   3.201
 4611TIP3    H213840  -0.042   0.001   3.310
 4612TIP3   OH213841   6.169   1.976   4.369
 4612TIP3    H113842   6.121   2.035   4.428
 4612TIP3    H213843   6.131   1.890   4.386
 4613TIP3   OH213844   2.513   5.749   3.468
 4613TIP3    H113845   2.604   5.778   3.465
 4613TIP3    H213846   2.470   5.798   3.398
 4614TIP3   OH213847   0.753   4.355   3.520
 4614TIP3    H113848   0.786   4.283   3.573
 4614TIP3    H213849   0.668   4.377   3.558
 4615TIP3   OH213850   2.250   4.251   2.520
 4615TIP3    H113851   2.252   4.174   2.577
 4615TIP3    H213852   2.166   4.246   2.475
 4616TIP3   OH213853   3.604   0.806   0.533
 4616TIP3    H113854   3.646   0.852   0.605
 4616TIP3    H213855   3.511   0.829   0.541
 4617TIP3   OH213856   4.020   1.931   4.744
 4617TIP3    H113857   3.937   1.933   4.793
 4617TIP3    H213858   4.007   1.992   4.673
 4618TIP3   OH213859   0.171   5.863   4.357
 4618TIP3    H113860   0.204   5.794   4.413
 4618TIP3    H213861   0.075   5.857   4.365
 4619TIP3   OH213862   3.739   0.658   2.399
 4619TIP3    H113863   3.721   0.741   2.356
 4619TIP3    H213864   3.808   0.679   2.463
 4620TIP3   OH213865   0.560   1.073   4.875
 4620TIP3    H113866   0.542   1.125   4.797
 4620TIP3    H213867   0.478   1.027   4.893
 4621TIP3   OH213868   1.455   5.466   3.322
 4621TIP3    H113869   1.495   5.415   3.393
 4621TIP3    H213870   1.363   5.437   3.321
 4622TIP3   OH213871   3.901   0.233   5.108
 4622TIP3    H113872   3.805   0.231   5.113
 4622TIP3    H213873   3.928   0.145   5.135
 4623TIP3   OH213874   3.454   5.472   4.305
 4623TIP3    H113875   3.370   5.494   4.346
 4623TIP3    H213876   3.452   5.376   4.299
 4624TIP3   OH213877   5.010   3.341   2.284
 4624TIP3    H113878   5.038   3.291   2.361
 4624TIP3    H213879   4.986   3.274   2.220
 4625TIP3   OH213880   1.526   4.582   2.058
 4625TIP3    H113881   1.533   4.635   1.978
 4625TIP3    H213882   1.531   4.646   2.129
 4626TIP3   OH213883   2.155   4.028   2.669
 4626TIP3    H113884   2.167   4.067   2.756
 4626TIP3    H213885   2.222   3.959   2.664
 4627TIP3   OH213886   4.640   3.740   0.241
 4627TIP3    H113887   4.650   3.649   0.211
 4627TIP3    H213888   4.676   3.739   0.330
 4628TIP3   OH213889   3.137   2.923   0.520
 4628TIP3    H113890   3.179   2.998   0.561
 4628TIP3    H213891   3.118   2.953   0.430
 4629TIP3   OH213892   2.071   4.890   2.288
 4629TIP3    H113893   2.124   4.836   2.228
 4629TIP3    H213894   1.982   4.882   2.254
 4630TIP3   OH213895   5.219   3.569   0.913
 4630TIP3    H113896   5.241   3.477   0.924
 4630TIP3    H213897   5.141   3.569   0.858
 4631TIP3   OH213898   0.966   1.391   4.218
 4631TIP3    H113899   1.033   1.428   4.274
 4631TIP3    H213900   0.884   1.411   4.262
 4632TIP3   OH213901   2.607   4.359   4.810
 4632TIP3    H113902   2.513   4.355   4.791
 4632TIP3    H213903   2.611   4.373   4.905
 4633TIP3   OH213904   1.661   0.684   0.798
 4633TIP3    H113905   1.697   0.773   0.791
 4633TIP3    H213906   1.574   0.697   0.837
 4634TIP3   OH213907   1.511   5.906   0.275
 4634TIP3    H113908   1.530   5.972   0.209
 4634TIP3    H213909   1.596   5.884   0.313
 4635TIP3   OH213910   3.939   0.135   4.380
 4635TIP3    H113911   3.873   0.116   4.446
 4635TIP3    H213912   4.008   0.181   4.427
 4636TIP3   OH213913   4.142   4.593   4.426
 4636TIP3    H113914   4.140   4.531   4.499
 4636TIP3    H213915   4.086   4.665   4.454
 4637TIP3   OH213916   3.415   0.627   4.145
 4637TIP3    H113917   3.397   0.698   4.083
 4637TIP3    H213918   3.437   0.672   4.227
 4638TIP3   OH213919   0.598   5.650   2.250
 4638TIP3    H113920   0.522   5.697   2.216
 4638TIP3    H213921   0.568   5.611   2.331
 4639TIP3   OH213922   2.562   2.238   2.184
 4639TIP3    H113923   2.538   2.147   2.169
 4639TIP3    H213924   2.556   2.279   2.098
 4640TIP3   OH213925   5.383   2.907   3.237
 4640TIP3    H113926   5.368   2.978   3.174
 4640TIP3    H213927   5.379   2.951   3.323
 4641TIP3   OH213928   2.277   0.351   0.838
 4641TIP3    H113929   2.345   0.356   0.905
 4641TIP3    H213930   2.321   0.308   0.763
 4642TIP3   OH213931   5.586   3.700   4.695
 4642TIP3    H113932   5.497   3.668   4.704
 4642TIP3    H213933   5.604   3.745   4.778
 4643TIP3   OH213934   5.401   4.057   1.611
 4643TIP3    H113935   5.389   3.974   1.657
 4643TIP3    H213936   5.406   4.123   1.680
 4644TIP3   OH213937   3.824   1.239   2.519
 4644TIP3    H113938   3.770   1.214   2.594
 4644TIP3    H213939   3.774   1.307   2.475
 4645TIP3   OH213940   2.354   2.840   1.531
 4645TIP3    H113941   2.408   2.884   1.466
 4645TIP3    H213942   2.295   2.909   1.563
 4646TIP3   OH213943   3.496   1.763   2.156
 4646TIP3    H113944   3.583   1.776   2.117
 4646TIP3    H213945   3.470   1.850   2.186
 4647TIP3   OH213946   1.322   1.962   1.641
 4647TIP3    H113947   1.309   2.052   1.609
 4647TIP3    H213948   1.251   1.912   1.600
 4648TIP3   OH213949   1.071   4.213   2.535
 4648TIP3    H113950   1.018   4.292   2.526
 4648TIP3    H213951   1.008   4.141   2.539
 4649TIP3   OH213952   0.312   4.715   3.952
 4649TIP3    H113953   0.279   4.682   4.035
 4649TIP3    H213954   0.246   4.690   3.887
 4650TIP3   OH213955   0.576   3.394   1.532
 4650TIP3    H113956   0.556   3.471   1.480
 4650TIP3    H213957   0.514   3.327   1.501
 4651TIP3   OH213958   2.456   0.232   3.814
 4651TIP3    H113959   2.515   0.266   3.881
 4651TIP3    H213960   2.402   0.167   3.859
 4652TIP3   OH213961   1.730   0.521   1.034
 4652TIP3    H113962   1.751   0.612   1.014
 4652TIP3    H213963   1.775   0.503   1.117
 4653TIP3   OH213964   0.280   5.405   3.406
 4653TIP3    H113965   0.305   5.313   3.402
 4653TIP3    H213966   0.196   5.409   3.360
 4654TIP3   OH213967   2.161   1.858   3.192
 4654TIP3    H113968   2.085   1.833   3.141
 4654TIP3    H213969   2.232   1.801   3.161
 4655TIP3   OH213970   4.015   0.452   4.918
 4655TIP3    H113971   4.093   0.407   4.883
 4655TIP3    H213972   4.007   0.418   5.007
 4656TIP3   OH213973   4.796   0.466   3.975
 4656TIP3    H113974   4.762   0.531   3.913
 4656TIP3    H213975   4.855   0.516   4.032
 4657TIP3   OH213976   4.134   0.908   1.924
 4657TIP3    H113977   4.171   0.992   1.899
 4657TIP3    H213978   4.086   0.878   1.847
 4658TIP3   OH213979   5.264   5.138   3.218
 4658TIP3    H113980   5.309   5.077   3.276
 4658TIP3    H213981   5.283   5.225   3.255
 4659TIP3   OH213982   0.739   5.771   2.000
 4659TIP3    H113983   0.694   5.854   1.982
 4659TIP3    H213984   0.668   5.709   2.017
 4660TIP3   OH213985   2.453   5.001   2.536
 4660TIP3    H113986   2.433   5.014   2.444
 4660TIP3    H213987   2.514   5.072   2.558
 4661TIP3   OH213988   3.925   4.115   2.944
 4661TIP3    H113989   3.874   4.193   2.964
 4661TIP3    H213990   4.006   4.148   2.905
 4662TIP3   OH213991   3.640   5.528   4.095
 4662TIP3    H113992   3.612   5.614   4.065
 4662TIP3    H213993   3.567   5.496   4.149
 4663TIP3   OH213994   3.719   0.166   2.481
 4663TIP3    H113995   3.731   0.233   2.413
 4663TIP3    H213996   3.716   0.083   2.432
 4664TIP3   OH213997   2.000   0.329   4.617
 4664TIP3    H113998   2.033   0.253   4.569
 4664TIP3    H213999   2.047   0.403   4.578
 4665TIP3   OH214000   1.396   3.984   3.999
 4665TIP3    H114001   1.420   4.003   4.090
 4665TIP3    H214002   1.313   3.937   4.005
 4666TIP3   OH214003   1.450   2.187   0.695
 4666TIP3    H114004   1.418   2.249   0.629
 4666TIP3    H214005   1.517   2.236   0.743
 4667TIP3   OH214006   1.451   4.316   1.711
 4667TIP3    H114007   1.427   4.269   1.631
 4667TIP3    H214008   1.389   4.389   1.715
 4668TIP3   OH214009   4.681   2.078   4.095
 4668TIP3    H114010   4.678   2.086   4.191
 4668TIP3    H214011   4.682   1.983   4.079
 4669TIP3   OH214012   2.760   1.057   2.233
 4669TIP3    H114013   2.670   1.080   2.258
 4669TIP3    H214014   2.814   1.124   2.274
 4670TIP3   OH214015   6.010   2.084   0.723
 4670TIP3    H114016   6.058   2.013   0.681
 4670TIP3    H214017   6.065   2.111   0.796
 4671TIP3   OH214018   5.014   4.952   0.745
 4671TIP3    H114019   5.016   4.923   0.654
 4671TIP3    H214020   5.080   5.021   0.750
 4672TIP3   OH214021   4.535   3.307   3.575
 4672TIP3    H114022   4.576   3.365   3.510
 4672TIP3    H214023   4.601   3.239   3.591
 4673TIP3   OH214024   3.554   3.418  -0.030
 4673TIP3    H114025   3.485   3.479  -0.007
 4673TIP3    H214026   3.611   3.415   0.047
 4674TIP3   OH214027   4.987   5.034   3.133
 4674TIP3    H114028   4.992   5.073   3.045
 4674TIP3    H214029   5.078   5.015   3.156
 4675TIP3   OH214030   0.533   2.191   1.737
 4675TIP3    H114031   0.488   2.271   1.708
 4675TIP3    H214032   0.581   2.162   1.659
 4676TIP3   OH214033   3.523   3.048   1.162
 4676TIP3    H114034   3.456   3.101   1.119
 4676TIP3    H214035   3.473   2.978   1.205
 4677TIP3   OH214036   3.957   5.821   0.308
 4677TIP3    H114037   4.019   5.777   0.250
 4677TIP3    H214038   3.919   5.891   0.254
 4678TIP3   OH214039   4.310   1.087   0.668
 4678TIP3    H114040   4.389   1.045   0.635
 4678TIP3    H214041   4.261   1.016   0.711
 4679TIP3   OH214042   2.718   0.049   2.600
 4679TIP3    H114043   2.781   0.052   2.528
 4679TIP3    H214044   2.744  -0.027   2.652
 4680TIP3   OH214045   0.210   5.575   4.507
 4680TIP3    H114046   0.170   5.538   4.586
 4680TIP3    H214047   0.298   5.539   4.506
 4681TIP3   OH214048   4.511   3.118   2.885
 4681TIP3    H114049   4.531   3.211   2.884
 4681TIP3    H214050   4.465   3.103   2.968
 4682TIP3   OH214051   6.294   4.068   4.258
 4682TIP3    H114052   6.344   3.999   4.304
 4682TIP3    H214053   6.288   4.037   4.168
 4683TIP3   OH214054   5.630   1.504   1.216
 4683TIP3    H114055   5.621   1.487   1.310
 4683TIP3    H214056   5.547   1.474   1.178
 4684TIP3   OH214057   3.153   1.971   1.745
 4684TIP3    H114058   3.109   2.029   1.807
 4684TIP3    H214059   3.082   1.936   1.691
 4685TIP3   OH214060   5.608   0.129   4.289
 4685TIP3    H114061   5.633   0.183   4.363
 4685TIP3    H214062   5.512   0.127   4.292
 4686TIP3   OH214063   3.051   0.538   3.499
 4686TIP3    H114064   2.958   0.552   3.521
 4686TIP3    H214065   3.065   0.444   3.515
 4687TIP3   OH214066   3.280   0.883   4.746
 4687TIP3    H114067   3.229   0.960   4.772
 4687TIP3    H214068   3.306   0.843   4.829
 4688TIP3   OH214069   0.129   2.505   3.253
 4688TIP3    H114070   0.167   2.576   3.200
 4688TIP3    H214071   0.078   2.550   3.320
 4689TIP3   OH214072   5.693   2.283   4.195
 4689TIP3    H114073   5.640   2.215   4.155
 4689TIP3    H214074   5.646   2.364   4.179
 4690TIP3   OH214075   6.213   0.961   1.361
 4690TIP3    H114076   6.223   1.055   1.350
 4690TIP3    H214077   6.202   0.949   1.455
 4691TIP3   OH214078   0.540   3.001   1.435
 4691TIP3    H114079   0.615   2.993   1.493
 4691TIP3    H214080   0.470   3.036   1.490
 4692TIP3   OH214081   5.017   1.213   1.790
 4692TIP3    H114082   4.999   1.271   1.864
 4692TIP3    H214083   5.107   1.183   1.803
 4693TIP3   OH214084   3.482   0.122   0.541
 4693TIP3    H114085   3.470   0.101   0.448
 4693TIP3    H214086   3.560   0.074   0.567
 4694TIP3   OH214087   3.889   4.904   3.023
 4694TIP3    H114088   3.915   4.929   2.935
 4694TIP3    H214089   3.835   4.826   3.012
 4695TIP3   OH214090   2.080   5.445   3.107
 4695TIP3    H114091   2.005   5.503   3.093
 4695TIP3    H214092   2.120   5.477   3.188
 4696TIP3   OH214093   5.872   0.840   0.930
 4696TIP3    H114094   5.796   0.895   0.947
 4696TIP3    H214095   5.945   0.902   0.927
 4697TIP3   OH214096   1.651   0.213   2.735
 4697TIP3    H114097   1.678   0.293   2.691
 4697TIP3    H214098   1.558   0.226   2.753
 4698TIP3   OH214099   4.626   3.230   1.839
 4698TIP3    H114100   4.663   3.185   1.915
 4698TIP3    H214101   4.693   3.221   1.771
 4699TIP3   OH214102   1.438   0.243   2.193
 4699TIP3    H114103   1.452   0.249   2.287
 4699TIP3    H214104   1.450   0.332   2.161
 4700TIP3   OH214105   1.238   2.600   5.088
 4700TIP3    H114106   1.237   2.505   5.075
 4700TIP3    H214107   1.174   2.633   5.025
 4701TIP3   OH214108   5.936   0.101   1.156
 4701TIP3    H114109   5.883   0.022   1.140
 4701TIP3    H214110   6.013   0.090   1.100
 4702TIP3   OH214111   0.056   1.973   4.984
 4702TIP3    H114112   0.014   2.059   4.980
 4702TIP3    H214113   0.089   1.966   5.073
 4703TIP3   OH214114   4.008   1.947   1.919
 4703TIP3    H114115   4.085   1.890   1.916
 4703TIP3    H214116   3.934   1.887   1.917
 4704TIP3   OH214117   6.007   3.415   4.744
 4704TIP3    H114118   5.993   3.500   4.786
 4704TIP3    H214119   5.936   3.408   4.680
 4705TIP3   OH214120   3.444   2.505   2.079
 4705TIP3    H114121   3.523   2.526   2.129
 4705TIP3    H214122   3.372   2.533   2.134
 4706TIP3   OH214123   0.472   2.597   2.852
 4706TIP3    H114124   0.559   2.632   2.837
 4706TIP3    H214125   0.480   2.503   2.833
 4707TIP3   OH214126   0.639   4.846   2.965
 4707TIP3    H114127   0.626   4.940   2.952
 4707TIP3    H214128   0.628   4.832   3.059
 4708TIP3   OH214129   5.693   0.702   2.345
 4708TIP3    H114130   5.766   0.751   2.307
 4708TIP3    H214131   5.719   0.686   2.436
 4709TIP3   OH214132   1.164   0.138   3.242
 4709TIP3    H114133   1.134   0.050   3.264
 4709TIP3    H214134   1.094   0.196   3.272
 4710TIP3   OH214135   4.515   4.992   1.332
 4710TIP3    H114136   4.608   4.974   1.344
 4710TIP3    H214137   4.475   4.968   1.416
 4711TIP3   OH214138   0.078   2.854   0.249
 4711TIP3    H114139   0.122   2.831   0.331
 4711TIP3    H214140   0.105   2.785   0.188
 4712TIP3   OH214141   0.655   5.094   4.553
 4712TIP3    H114142   0.671   5.009   4.513
 4712TIP3    H214143   0.559   5.101   4.556
 4713TIP3   OH214144   1.376   3.324   4.681
 4713TIP3    H114145   1.351   3.254   4.621
 4713TIP3    H214146   1.472   3.326   4.677
 4714TIP3   OH214147   3.077   0.003   1.942
 4714TIP3    H114148   3.080   0.057   2.022
 4714TIP3    H214149   3.016  -0.067   1.963
 4715TIP3   OH214150   4.901   5.391   1.416
 4715TIP3    H114151   4.968   5.324   1.431
 4715TIP3    H214152   4.948   5.474   1.430
 4716TIP3   OH214153   2.149   2.625   0.010
 4716TIP3    H114154   2.082   2.563   0.038
 4716TIP3    H214155   2.100   2.700  -0.024
 4717TIP3   OH214156   4.753   3.424   4.891
 4717TIP3    H114157   4.690   3.439   4.821
 4717TIP3    H214158   4.794   3.341   4.869
 4718TIP3   OH214159   0.481   2.861   1.191
 4718TIP3    H114160   0.507   2.895   1.276
 4718TIP3    H214161   0.404   2.912   1.168
 4719TIP3   OH214162   1.629   3.179   1.786
 4719TIP3    H114163   1.675   3.136   1.714
 4719TIP3    H214164   1.698   3.204   1.847
 4720TIP3   OH214165   0.921   1.040   3.840
 4720TIP3    H114166   0.834   1.014   3.871
 4720TIP3    H214167   0.957   1.092   3.912
 4721TIP3   OH214168   2.943   2.876   5.207
 4721TIP3    H114169   2.959   2.799   5.262
 4721TIP3    H214170   2.921   2.839   5.121
 4722TIP3   OH214171   3.605   5.848   5.017
 4722TIP3    H114172   3.658   5.910   4.968
 4722TIP3    H214173   3.639   5.762   4.993
 4723TIP3   OH214174   0.083   0.578   0.572
 4723TIP3    H114175   0.134   0.610   0.497
 4723TIP3    H214176   0.141   0.589   0.647
 4724TIP3   OH214177   1.267   4.133   3.180
 4724TIP3    H114178   1.330   4.069   3.147
 4724TIP3    H214179   1.304   4.217   3.155
 4725TIP3   OH214180   3.473   3.086   2.711
 4725TIP3    H114181   3.386   3.059   2.741
 4725TIP3    H214182   3.531   3.068   2.785
 4726TIP3   OH214183   2.267   4.980   5.115
 4726TIP3    H114184   2.356   4.962   5.145
 4726TIP3    H214185   2.274   5.063   5.068
 4727TIP3   OH214186   0.828   0.580   4.245
 4727TIP3    H114187   0.751   0.524   4.240
 4727TIP3    H214188   0.902   0.523   4.224
 4728TIP3   OH214189   0.274   4.414   3.658
 4728TIP3    H114190   0.216   4.405   3.734
 4728TIP3    H214191   0.229   4.476   3.601
 4729TIP3   OH214192   1.309   1.334   0.491
 4729TIP3    H114193   1.391   1.341   0.441
 4729TIP3    H214194   1.241   1.326   0.425
 4730TIP3   OH214195   2.300   0.340   3.621
 4730TIP3    H114196   2.345   0.348   3.705
 4730TIP3    H214197   2.220   0.292   3.640
 4731TIP3   OH214198   3.041   1.620   2.918
 4731TIP3    H114199   2.984   1.563   2.866
 4731TIP3    H214200   2.981   1.679   2.963
 4732TIP3   OH214201   1.612   5.819   1.975
 4732TIP3    H114202   1.551   5.756   2.013
 4732TIP3    H214203   1.699   5.787   2.000
 4733TIP3   OH214204   6.318   1.944   1.340
 4733TIP3    H114205   6.274   1.898   1.411
 4733TIP3    H214206   6.357   1.875   1.286
 4734TIP3   OH214207   6.175   2.109   3.090
 4734TIP3    H114208   6.095   2.161   3.089
 4734TIP3    H214209   6.145   2.019   3.077
 4735TIP3   OH214210   2.622   2.698   2.641
 4735TIP3    H114211   2.650   2.691   2.732
 4735TIP3    H214212   2.605   2.792   2.628
 4736TIP3   OH214213   5.741   0.854   4.955
 4736TIP3    H114214   5.697   0.850   5.039
 4736TIP3    H214215   5.834   0.844   4.976
 4737TIP3   OH214216   3.755   2.080   2.439
 4737TIP3    H114217   3.824   2.060   2.376
 4737TIP3    H214218   3.674   2.076   2.389
 4738TIP3   OH214219   4.391   2.292   1.461
 4738TIP3    H114220   4.318   2.331   1.509
 4738TIP3    H214221   4.469   2.318   1.509
 4739TIP3   OH214222   3.285   5.397   1.707
 4739TIP3    H114223   3.225   5.463   1.744
 4739TIP3    H214224   3.266   5.317   1.757
 4740TIP3   OH214225   6.214   5.875   2.830
 4740TIP3    H114226   6.206   5.780   2.823
 4740TIP3    H214227   6.278   5.888   2.900
 4741TIP3   OH214228   1.414   2.918   1.248
 4741TIP3    H114229   1.319   2.909   1.259
 4741TIP3    H214230   1.432   3.010   1.266
 4742TIP3   OH214231   1.775   2.533   1.163
 4742TIP3    H114232   1.859   2.555   1.203
 4742TIP3    H214233   1.710   2.559   1.227
 4743TIP3   OH214234   4.448   3.020   4.316
 4743TIP3    H114235   4.532   3.018   4.360
 4743TIP3    H214236   4.434   2.931   4.286
 4744TIP3   OH214237   3.873   0.011   0.129
 4744TIP3    H114238   3.865  -0.054   0.060
 4744TIP3    H214239   3.941   0.071   0.098
 4745TIP3   OH214240   2.128   2.099   4.782
 4745TIP3    H114241   2.219   2.073   4.767
 4745TIP3    H214242   2.102   2.052   4.861
 4746TIP3   OH214243   5.914   3.025   1.204
 4746TIP3    H114244   5.894   2.951   1.147
 4746TIP3    H214245   5.832   3.073   1.211
 4747TIP3   OH214246   3.778   0.903   5.111
 4747TIP3    H114247   3.779   0.838   5.180
 4747TIP3    H214248   3.726   0.863   5.041
 4748TIP3   OH214249   5.736   4.206   2.539
 4748TIP3    H114250   5.704   4.165   2.459
 4748TIP3    H214251   5.782   4.284   2.509
 4749TIP3   OH214252   0.980   1.693   3.213
 4749TIP3    H114253   0.930   1.741   3.147
 4749TIP3    H214254   0.961   1.738   3.295
 4750TIP3   OH214255   5.439   4.433   3.244
 4750TIP3    H114256   5.493   4.375   3.297
 4750TIP3    H214257   5.349   4.412   3.268
 4751TIP3   OH214258   2.197   1.787   2.849
 4751TIP3    H114259   2.113   1.794   2.893
 4751TIP3    H214260   2.178   1.744   2.765
 4752TIP3   OH214261   3.477   0.538   0.725
 4752TIP3    H114262   3.543   0.607   0.724
 4752TIP3    H214263   3.399   0.580   0.764
 4753TIP3   OH214264   5.725   1.193   1.668
 4753TIP3    H114265   5.699   1.113   1.621
 4753TIP3    H214266   5.789   1.235   1.610
 4754TIP3   OH214267   1.353   0.689   3.572
 4754TIP3    H114268   1.292   0.731   3.511
 4754TIP3    H214269   1.439   0.698   3.531
 4755TIP3   OH214270   3.104   3.770   3.066
 4755TIP3    H114271   3.109   3.865   3.062
 4755TIP3    H214272   3.165   3.739   2.999
 4756TIP3   OH214273   5.044   5.936   4.055
 4756TIP3    H114274   5.003   6.017   4.085
 4756TIP3    H214275   5.135   5.942   4.086
 4757TIP3   OH214276   1.851   2.048   1.944
 4757TIP3    H114277   1.894   2.058   1.859
 4757TIP3    H214278   1.783   2.115   1.943
 4758TIP3   OH214279   1.008   5.406   4.926
 4758TIP3    H114280   1.030   5.316   4.953
 4758TIP3    H214281   1.089   5.440   4.888
 4759TIP3   OH214282   5.311   3.937   0.564
 4759TIP3    H114283   5.311   3.868   0.629
 4759TIP3    H214284   5.357   4.010   0.606
 4760TIP3   OH214285   0.622   0.500   4.560
 4760TIP3    H114286   0.688   0.450   4.608
 4760TIP3    H214287   0.663   0.585   4.544
 4761TIP3   OH214288   5.389   4.699   3.986
 4761TIP3    H114289   5.404   4.606   3.972
 4761TIP3    H214290   5.460   4.726   4.044
 4762TIP3   OH214291   4.103   5.445   1.540
 4762TIP3    H114292   4.079   5.428   1.449
 4762TIP3    H214293   4.058   5.527   1.562
 4763TIP3   OH214294   4.008   5.216   1.852
 4763TIP3    H114295   3.997   5.278   1.779
 4763TIP3    H214296   4.098   5.229   1.881
 4764TIP3   OH214297   2.286   1.881   1.846
 4764TIP3    H114298   2.233   1.832   1.910
 4764TIP3    H214299   2.229   1.889   1.769
 4765TIP3   OH214300   4.977   2.032   4.123
 4765TIP3    H114301   4.892   2.055   4.086
 4765TIP3    H214302   4.958   1.964   4.187
 4766TIP3   OH214303   3.104   3.716   5.172
 4766TIP3    H114304   3.037   3.774   5.135
 4766TIP3    H214305   3.136   3.666   5.097
 4767TIP3   OH214306   4.259   4.718   1.369
 4767TIP3    H114307   4.204   4.781   1.415
 4767TIP3    H214308   4.290   4.659   1.437
 4768TIP3   OH214309   2.223   1.573   0.690
 4768TIP3    H114310   2.299   1.570   0.747
 4768TIP3    H214311   2.171   1.647   0.723
 4769TIP3   OH214312   3.226   3.655   1.787
 4769TIP3    H114313   3.189   3.573   1.821
 4769TIP3    H214314   3.220   3.716   1.861
 4770TIP3   OH214315   0.178   1.520   3.261
 4770TIP3    H114316   0.086   1.495   3.263
 4770TIP3    H214317   0.180   1.599   3.208
 4771TIP3   OH214318   3.622   0.320   0.799
 4771TIP3    H114319   3.674   0.309   0.719
 4771TIP3    H214320   3.566   0.395   0.781
 4772TIP3   OH214321   1.838   1.188   0.699
 4772TIP3    H114322   1.759   1.204   0.750
 4772TIP3    H214323   1.808   1.176   0.609
 4773TIP3   OH214324   3.031   5.155   1.512
 4773TIP3    H114325   3.060   5.065   1.527
 4773TIP3    H214326   3.086   5.188   1.441
 4774TIP3   OH214327   3.499   2.587   3.926
 4774TIP3    H114328   3.460   2.500   3.922
 4774TIP3    H214329   3.573   2.578   3.986
 4775TIP3   OH214330   4.332   2.691   2.430
 4775TIP3    H114331   4.343   2.765   2.369
 4775TIP3    H214332   4.410   2.692   2.484
 4776TIP3   OH214333   4.153   0.540   3.009
 4776TIP3    H114334   4.230   0.579   2.967
 4776TIP3    H214335   4.148   0.583   3.094
 4777TIP3   OH214336   6.033   5.896   3.857
 4777TIP3    H114337   6.062   5.811   3.891
 4777TIP3    H214338   6.104   5.924   3.799
 4778TIP3   OH214339   0.228   5.801   0.441
 4778TIP3    H114340   0.262   5.888   0.419
 4778TIP3    H214341   0.183   5.771   0.362
 4779TIP3   OH214342   2.372   2.233   0.948
 4779TIP3    H114343   2.419   2.166   0.898
 4779TIP3    H214344   2.441   2.290   0.983
 4780TIP3   OH214345   2.162   5.650   4.327
 4780TIP3    H114346   2.125   5.562   4.334
 4780TIP3    H214347   2.255   5.636   4.314
 4781TIP3   OH214348   0.453   1.395   3.876
 4781TIP3    H114349   0.449   1.453   3.801
 4781TIP3    H214350   0.421   1.447   3.949
 4782TIP3   OH214351   4.076   3.492   4.733
 4782TIP3    H114352   4.151   3.433   4.727
 4782TIP3    H214353   4.115   3.579   4.736
 4783TIP3   OH214354   3.919   1.964   2.968
 4783TIP3    H114355   3.889   1.878   2.995
 4783TIP3    H214356   3.909   2.019   3.046
 4784TIP3   OH214357   1.932   5.013   3.459
 4784TIP3    H114358   1.958   5.019   3.551
 4784TIP3    H214359   2.011   5.039   3.410
 4785TIP3   OH214360   4.908   4.521   0.680
 4785TIP3    H114361   4.987   4.571   0.659
 4785TIP3    H214362   4.925   4.434   0.645
 4786TIP3   OH214363   1.746   4.844   3.693
 4786TIP3    H114364   1.754   4.916   3.757
 4786TIP3    H214365   1.652   4.833   3.681
 4787TIP3   OH214366   5.371   3.734   0.750
 4787TIP3    H114367   5.311   3.672   0.792
 4787TIP3    H214368   5.457   3.696   0.763
 4788TIP3   OH214369   1.565   4.801   0.322
 4788TIP3    H114370   1.556   4.707   0.305
 4788TIP3    H214371   1.540   4.842   0.239
 4789TIP3   OH214372   2.539   5.486   1.668
 4789TIP3    H114373   2.509   5.503   1.579
 4789TIP3    H214374   2.530   5.570   1.713
 4790TIP3   OH214375   0.190   5.033   2.637
 4790TIP3    H114376   0.176   4.988   2.720
 4790TIP3    H214377   0.105   5.073   2.616
 4791TIP3   OH214378   4.254   5.615   2.217
 4791TIP3    H114379   4.171   5.631   2.262
 4791TIP3    H214380   4.313   5.680   2.253
 4792TIP3   OH214381   3.407   4.557   2.432
 4792TIP3    H114382   3.345   4.492   2.466
 4792TIP3    H214383   3.352   4.628   2.400
 4793TIP3   OH214384   5.509   1.005   0.746
 4793TIP3    H114385   5.455   1.079   0.717
 4793TIP3    H214386   5.471   0.979   0.830
 4794TIP3   OH214387   1.224   5.459   2.918
 4794TIP3    H114388   1.278   5.393   2.962
 4794TIP3    H214389   1.204   5.523   2.987
 4795TIP3   OH214390   5.976   3.223   1.569
 4795TIP3    H114391   5.986   3.316   1.548
 4795TIP3    H214392   5.887   3.201   1.541
 4796TIP3   OH214393   2.830   3.140   4.921
 4796TIP3    H114394   2.798   3.203   4.857
 4796TIP3    H214395   2.848   3.061   4.871
 4797TIP3   OH214396   2.292   5.928   2.755
 4797TIP3    H114397   2.214   5.883   2.723
 4797TIP3    H214398   2.323   5.980   2.680
 4798TIP3   OH214399   0.812   4.377   0.897
 4798TIP3    H114400   0.876   4.306   0.890
 4798TIP3    H214401   0.765   4.377   0.814
 4799TIP3   OH214402   1.583   4.521   1.515
 4799TIP3    H114403   1.602   4.459   1.586
 4799TIP3    H214404   1.499   4.560   1.539
 4800TIP3   OH214405   1.389   5.662   1.440
 4800TIP3    H114406   1.394   5.630   1.350
 4800TIP3    H214407   1.431   5.748   1.437
 4801TIP3   OH214408   3.690   1.312   1.756
 4801TIP3    H114409   3.740   1.240   1.794
 4801TIP3    H214410   3.636   1.271   1.689
 4802TIP3   OH214411   5.729   2.694   0.813
 4802TIP3    H114412   5.662   2.626   0.822
 4802TIP3    H214413   5.681   2.769   0.778
 4803TIP3   OH214414   4.293   1.429   2.122
 4803TIP3    H114415   4.278   1.384   2.039
 4803TIP3    H214416   4.374   1.479   2.109
 4804TIP3   OH214417   5.016   1.934   2.691
 4804TIP3    H114418   4.926   1.914   2.718
 4804TIP3    H214419   5.006   1.973   2.604
 4805TIP3   OH214420   3.720   1.463   0.975
 4805TIP3    H114421   3.673   1.534   0.932
 4805TIP3    H214422   3.708   1.388   0.917
 4806TIP3   OH214423   2.694   5.397   2.061
 4806TIP3    H114424   2.689   5.492   2.052
 4806TIP3    H214425   2.630   5.364   1.997
 4807TIP3   OH214426   3.646   5.691   2.739
 4807TIP3    H114427   3.642   5.595   2.743
 4807TIP3    H214428   3.683   5.717   2.823
 4808TIP3   OH214429   2.624   0.314   4.006
 4808TIP3    H114430   2.709   0.300   3.965
 4808TIP3    H214431   2.642   0.309   4.100
 4809TIP3   OH214432   5.676   0.045   3.989
 4809TIP3    H114433   5.635   0.067   4.072
 4809TIP3    H214434   5.668   0.124   3.936
 4810TIP3   OH214435   4.386   5.383   3.170
 4810TIP3    H114436   4.341   5.300   3.158
 4810TIP3    H214437   4.391   5.421   3.082
 4811TIP3   OH214438   1.893   2.070   2.431
 4811TIP3    H114439   1.882   2.149   2.485
 4811TIP3    H214440   1.912   2.001   2.494
 4812TIP3   OH214441   5.555   1.461   1.511
 4812TIP3    H114442   5.489   1.469   1.580
 4812TIP3    H214443   5.531   1.380   1.465
 4813TIP3   OH214444   6.280   4.884   2.178
 4813TIP3    H114445   6.373   4.903   2.191
 4813TIP3    H214446   6.278   4.804   2.126
 4814TIP3   OH214447   3.860   4.833   1.322
 4814TIP3    H114448   3.775   4.825   1.366
 4814TIP3    H214449   3.838   4.842   1.230
 4815TIP3   OH214450   0.745   4.353   1.696
 4815TIP3    H114451   0.798   4.360   1.775
 4815TIP3    H214452   0.716   4.442   1.679
 4816TIP3   OH214453   0.551   0.524   0.720
 4816TIP3    H114454   0.606   0.521   0.798
 4816TIP3    H214455   0.517   0.614   0.719
 4817TIP3   OH214456   4.745   2.089   1.072
 4817TIP3    H114457   4.680   2.160   1.065
 4817TIP3    H214458   4.829   2.134   1.078
 4818TIP3   OH214459   6.197  -0.015   1.306
 4818TIP3    H114460   6.261   0.030   1.250
 4818TIP3    H214461   6.185  -0.100   1.263
 4819TIP3   OH214462   4.362   4.466   3.245
 4819TIP3    H114463   4.390   4.483   3.335
 4819TIP3    H214464   4.427   4.404   3.211
 4820TIP3   OH214465   5.550   3.939   4.511
 4820TIP3    H114466   5.531   3.889   4.590
 4820TIP3    H214467   5.593   3.877   4.452
 4821TIP3   OH214468   0.619   1.342   0.592
 4821TIP3    H114469   0.581   1.370   0.675
 4821TIP3    H214470   0.669   1.417   0.561
 4822TIP3   OH214471   5.324   2.237   3.515
 4822TIP3    H114472   5.345   2.289   3.593
 4822TIP3    H214473   5.409   2.221   3.474
 4823TIP3   OH214474   4.309   0.699   1.059
 4823TIP3    H114475   4.268   0.721   1.143
 4823TIP3    H214476   4.304   0.604   1.054
 4824TIP3   OH214477   1.730   2.217   4.434
 4824TIP3    H114478   1.647   2.234   4.478
 4824TIP3    H214479   1.791   2.194   4.504
 4825TIP3   OH214480   2.369   0.328   0.550
 4825TIP3    H114481   2.325   0.263   0.494
 4825TIP3    H214482   2.342   0.412   0.514
 4826TIP3   OH214483   4.280   4.729   0.850
 4826TIP3    H114484   4.208   4.777   0.809
 4826TIP3    H214485   4.276   4.754   0.942
 4827TIP3   OH214486   5.325   4.042   0.848
 4827TIP3    H114487   5.282   3.971   0.897
 4827TIP3    H214488   5.406   4.058   0.896
 4828TIP3   OH214489   3.461   2.546   4.645
 4828TIP3    H114490   3.488   2.578   4.731
 4828TIP3    H214491   3.505   2.605   4.583
 4829TIP3   OH214492   6.311   2.236   2.862
 4829TIP3    H114493   6.266   2.176   2.922
 4829TIP3    H214494   6.323   2.185   2.782
 4830TIP3   OH214495   2.168   4.097   2.971
 4830TIP3    H114496   2.099   4.037   2.998
 4830TIP3    H214497   2.235   4.090   3.039
 4831TIP3   OH214498   4.547   4.295   0.680
 4831TIP3    H114499   4.634   4.279   0.642
 4831TIP3    H214500   4.487   4.252   0.619
 4832TIP3   OH214501   1.858   4.812   3.964
 4832TIP3    H114502   1.767   4.783   3.957
 4832TIP3    H214503   1.858   4.900   3.927
 4833TIP3   OH214504   4.136   5.305   2.135
 4833TIP3    H114505   4.164   5.351   2.056
 4833TIP3    H214506   4.217   5.276   2.176
 4834TIP3   OH214507   3.255   4.879   3.905
 4834TIP3    H114508   3.336   4.840   3.874
 4834TIP3    H214509   3.283   4.954   3.958
 4835TIP3   OH214510   0.977   4.749   0.728
 4835TIP3    H114511   1.057   4.747   0.781
 4835TIP3    H214512   0.953   4.842   0.725
 4836TIP3   OH214513   2.325   4.651   3.824
 4836TIP3    H114514   2.397   4.605   3.781
 4836TIP3    H214515   2.252   4.588   3.824
 4837TIP3   OH214516   3.856   4.240   1.484
 4837TIP3    H114517   3.788   4.175   1.503
 4837TIP3    H214518   3.814   4.301   1.424
 4838TIP3   OH214519   2.338   2.289   2.756
 4838TIP3    H114520   2.369   2.309   2.844
 4838TIP3    H214521   2.304   2.199   2.763
 4839TIP3   OH214522   3.294   3.207   1.124
 4839TIP3    H114523   3.269   3.196   1.216
 4839TIP3    H214524   3.282   3.300   1.108
 4840TIP3   OH214525   3.961   1.970   0.685
 4840TIP3    H114526   3.952   1.886   0.731
 4840TIP3    H214527   4.023   1.953   0.615
 4841TIP3   OH214528   5.299   5.391   2.992
 4841TIP3    H114529   5.263   5.335   2.923
 4841TIP3    H214530   5.322   5.473   2.948
 4842TIP3   OH214531   4.266   2.326   3.188
 4842TIP3    H114532   4.221   2.242   3.203
 4842TIP3    H214533   4.299   2.351   3.274
 4843TIP3   OH214534   6.142   2.284   3.864
 4843TIP3    H114535   6.149   2.191   3.839
 4843TIP3    H214536   6.048   2.299   3.873
 4844TIP3   OH214537   0.722   5.785   1.488
 4844TIP3    H114538   0.710   5.749   1.576
 4844TIP3    H214539   0.677   5.869   1.491
 4845TIP3   OH214540   4.279   4.364   1.882
 4845TIP3    H114541   4.244   4.447   1.849
 4845TIP3    H214542   4.344   4.389   1.947
 4846TIP3   OH214543   1.992   0.727   2.336
 4846TIP3    H114544   1.899   0.718   2.315
 4846TIP3    H214545   2.013   0.646   2.383
 4847TIP3   OH214546   0.601   1.157   5.172
 4847TIP3    H114547   0.547   1.231   5.200
 4847TIP3    H214548   0.600   1.162   5.077
 4848TIP3   OH214549   1.484   5.280   2.149
 4848TIP3    H114550   1.479   5.187   2.128
 4848TIP3    H214551   1.577   5.301   2.145
 4849TIP3   OH214552   5.727   1.352   2.143
 4849TIP3    H114553   5.648   1.298   2.141
 4849TIP3    H214554   5.781   1.319   2.071
 4850TIP3   OH214555   1.675   4.361   3.699
 4850TIP3    H114556   1.728   4.316   3.765
 4850TIP3    H214557   1.587   4.323   3.710
 4851TIP3   OH214558   3.181   1.171   3.998
 4851TIP3    H114559   3.190   1.139   3.908
 4851TIP3    H214560   3.223   1.257   3.997
 4852TIP3   OH214561   2.709   4.748   0.087
 4852TIP3    H114562   2.707   4.753   0.183
 4852TIP3    H214563   2.622   4.714   0.064
 4853TIP3   OH214564   0.844   5.578   1.810
 4853TIP3    H114565   0.880   5.519   1.877
 4853TIP3    H214566   0.829   5.660   1.857
 4854TIP3   OH214567   3.087   4.943   2.473
 4854TIP3    H114568   3.003   4.921   2.431
 4854TIP3    H214569   3.102   4.873   2.536
 4855TIP3   OH214570   4.932   3.862   4.831
 4855TIP3    H114571   4.851   3.820   4.801
 4855TIP3    H214572   4.963   3.911   4.754
 4856TIP3   OH214573   4.560   4.100   3.055
 4856TIP3    H114574   4.570   4.175   3.113
 4856TIP3    H214575   4.475   4.114   3.013
 4857TIP3   OH214576   4.096   4.518   3.140
 4857TIP3    H114577   4.029   4.456   3.168
 4857TIP3    H214578   4.179   4.475   3.160
 4858TIP3   OH214579   2.058   2.055   3.716
 4858TIP3    H114580   2.052   1.985   3.650
 4858TIP3    H214581   2.004   2.024   3.789
 4859TIP3   OH214582   4.880   1.741   4.602
 4859TIP3    H114583   4.973   1.760   4.590
 4859TIP3    H214584   4.872   1.647   4.585
 4860TIP3   OH214585   5.968   4.952   4.749
 4860TIP3    H114586   5.974   4.857   4.745
 4860TIP3    H214587   5.923   4.977   4.668
 4861TIP3   OH214588   5.225   1.395   3.942
 4861TIP3    H114589   5.317   1.420   3.928
 4861TIP3    H214590   5.175   1.472   3.915
 4862TIP3   OH214591   0.835   2.500   1.663
 4862TIP3    H114592   0.835   2.515   1.757
 4862TIP3    H214593   0.791   2.577   1.627
 4863TIP3   OH214594   0.897   0.885   1.188
 4863TIP3    H114595   0.939   0.801   1.167
 4863TIP3    H214596   0.868   0.875   1.279
 4864TIP3   OH214597   4.785   1.029   0.794
 4864TIP3    H114598   4.790   0.933   0.789
 4864TIP3    H214599   4.693   1.047   0.816
 4865TIP3   OH214600   0.958   5.434   2.016
 4865TIP3    H114601   0.900   5.453   2.089
 4865TIP3    H214602   1.027   5.378   2.053
 4866TIP3   OH214603   5.360   1.761   4.105
 4866TIP3    H114604   5.456   1.771   4.101
 4866TIP3    H214605   5.335   1.807   4.185
 4867TIP3   OH214606   1.886   1.264   4.974
 4867TIP3    H114607   1.912   1.239   4.886
 4867TIP3    H214608   1.922   1.195   5.030
 4868TIP3   OH214609   4.970   1.758   0.710
 4868TIP3    H114610   5.027   1.769   0.634
 4868TIP3    H214611   4.884   1.787   0.681
 4869TIP3   OH214612   4.708   4.960   0.689
 4869TIP3    H114613   4.772   4.905   0.644
 4869TIP3    H214614   4.723   4.944   0.782
 4870TIP3   OH214615   4.771   3.007   1.982
 4870TIP3    H114616   4.807   3.048   2.061
 4870TIP3    H214617   4.847   2.971   1.937
 4871TIP3   OH214618   5.094   2.666   2.715
 4871TIP3    H114619   5.087   2.672   2.810
 4871TIP3    H214620   5.062   2.578   2.695
 4872TIP3   OH214621   1.105   2.727   0.993
 4872TIP3    H114622   1.154   2.776   0.927
 4872TIP3    H214623   1.076   2.794   1.055
 4873TIP3   OH214624   3.817   3.269   0.891
 4873TIP3    H114625   3.775   3.312   0.817
 4873TIP3    H214626   3.750   3.208   0.924
 4874TIP3   OH214627   5.334   0.064   0.974
 4874TIP3    H114628   5.245   0.066   0.939
 4874TIP3    H214629   5.333  -0.007   1.038
 4875TIP3   OH214630   4.863   0.202   3.578
 4875TIP3    H114631   4.925   0.139   3.616
 4875TIP3    H214632   4.916   0.280   3.560
 4876TIP3   OH214633   2.248   1.760   0.362
 4876TIP3    H114634   2.266   1.797   0.275
 4876TIP3    H214635   2.183   1.692   0.346
 4877TIP3   OH214636   4.001   0.203   1.290
 4877TIP3    H114637   3.928   0.193   1.228
 4877TIP3    H214638   4.074   0.159   1.247
 4878TIP3   OH214639   3.258   4.730   1.412
 4878TIP3    H114640   3.197   4.770   1.474
 4878TIP3    H214641   3.207   4.658   1.372
 4879TIP3   OH214642   5.605   5.558   1.627
 4879TIP3    H114643   5.591   5.475   1.672
 4879TIP3    H214644   5.577   5.625   1.690
 4880TIP3   OH214645   4.689   3.008   4.462
 4880TIP3    H114646   4.733   2.956   4.530
 4880TIP3    H214647   4.760   3.051   4.415
 4881TIP3   OH214648   5.115   0.984   3.053
 4881TIP3    H114649   5.078   0.953   3.136
 4881TIP3    H214650   5.183   0.920   3.032
 4882TIP3   OH214651   1.104   5.571   2.358
 4882TIP3    H114652   1.032   5.586   2.298
 4882TIP3    H214653   1.143   5.657   2.372
 4883TIP3   OH214654   5.679   3.025   4.064
 4883TIP3    H114655   5.736   3.088   4.020
 4883TIP3    H214656   5.600   3.075   4.085
 4884TIP3   OH214657   4.637   4.106   1.532
 4884TIP3    H114658   4.706   4.172   1.540
 4884TIP3    H214659   4.620   4.099   1.438
 4885TIP3   OH214660   6.307   3.012   4.681
 4885TIP3    H114661   6.277   2.953   4.611
 4885TIP3    H214662   6.240   3.079   4.686
 4886TIP3   OH214663   4.574   1.978   3.544
 4886TIP3    H114664   4.620   2.001   3.463
 4886TIP3    H214665   4.644   1.951   3.604
 4887TIP3   OH214666   5.477   2.840   2.029
 4887TIP3    H114667   5.550   2.795   1.988
 4887TIP3    H214668   5.485   2.931   2.000
 4888TIP3   OH214669   1.817   0.184   3.755
 4888TIP3    H114670   1.800   0.273   3.784
 4888TIP3    H214671   1.913   0.179   3.751
 4889TIP3   OH214672   5.691   5.904   2.585
 4889TIP3    H114673   5.769   5.943   2.625
 4889TIP3    H214674   5.622   5.968   2.601
 4890TIP3   OH214675   1.337   4.924   5.160
 4890TIP3    H114676   1.277   4.913   5.086
 4890TIP3    H214677   1.281   4.918   5.237
 4891TIP3   OH214678   4.125   1.221   5.146
 4891TIP3    H114679   4.097   1.132   5.169
 4891TIP3    H214680   4.184   1.209   5.072
 4892TIP3   OH214681   3.909   3.811   3.166
 4892TIP3    H114682   3.946   3.862   3.238
 4892TIP3    H214683   3.831   3.770   3.203
 4893TIP3   OH214684   1.752   1.618   1.494
 4893TIP3    H114685   1.786   1.673   1.424
 4893TIP3    H214686   1.701   1.678   1.549
 4894TIP3   OH214687   6.302   0.215   5.111
 4894TIP3    H114688   6.383   0.263   5.128
 4894TIP3    H214689   6.235   0.260   5.163
 4895TIP3   OH214690   4.482   5.668   1.342
 4895TIP3    H114691   4.571   5.704   1.346
 4895TIP3    H214692   4.442   5.713   1.267
 4896TIP3   OH214693   3.474   2.041   4.660
 4896TIP3    H114694   3.393   2.013   4.619
 4896TIP3    H214695   3.478   1.991   4.742
 4897TIP3   OH214696   3.664   4.684   4.275
 4897TIP3    H114697   3.575   4.709   4.298
 4897TIP3    H214698   3.681   4.732   4.193
 4898TIP3   OH214699   4.247   4.792   1.937
 4898TIP3    H114700   4.257   4.737   2.015
 4898TIP3    H214701   4.265   4.734   1.864
 4899TIP3   OH214702   4.787   5.307   3.261
 4899TIP3    H114703   4.842   5.362   3.205
 4899TIP3    H214704   4.847   5.243   3.299
 4900TIP3   OH214705   4.915   1.642   2.877
 4900TIP3    H114706   5.003   1.680   2.871
 4900TIP3    H214707   4.903   1.622   2.970
 4901TIP3   OH214708   4.412   4.040   4.076
 4901TIP3    H114709   4.504   4.063   4.088
 4901TIP3    H214710   4.390   3.987   4.153
 4902TIP3   OH214711   2.266   0.567   3.033
 4902TIP3    H114712   2.181   0.554   3.075
 4902TIP3    H214713   2.280   0.661   3.034
 4903TIP3   OH214714   1.779   4.812   2.281
 4903TIP3    H114715   1.743   4.834   2.195
 4903TIP3    H214716   1.786   4.716   2.280
 4904TIP3   OH214717   4.028   3.391   1.802
 4904TIP3    H114718   4.095   3.388   1.870
 4904TIP3    H214719   4.078   3.390   1.720
 4905TIP3   OH214720   5.370   5.422   4.329
 4905TIP3    H114721   5.454   5.411   4.286
 4905TIP3    H214722   5.384   5.494   4.390
 4906TIP3   OH214723   2.040   1.073   5.115
 4906TIP3    H114724   2.069   1.002   5.172
 4906TIP3    H214725   2.035   1.150   5.173
 4907TIP3   OH214726   0.305   2.698   3.977
 4907TIP3    H114727   0.245   2.708   4.051
 4907TIP3    H214728   0.306   2.784   3.934
 4908TIP3   OH214729   0.282   0.395   3.708
 4908TIP3    H114730   0.296   0.485   3.677
 4908TIP3    H214731   0.193   0.395   3.742
 4909TIP3   OH214732   0.542   1.797   1.281
 4909TIP3    H114733   0.615   1.748   1.319
 4909TIP3    H214734   0.470   1.784   1.342
 4910TIP3   OH214735   5.994   1.835   1.871
 4910TIP3    H114736   5.994   1.925   1.904
 4910TIP3    H214737   6.071   1.830   1.815
 4911TIP3   OH214738   1.590   4.484   0.554
 4911TIP3    H114739   1.528   4.554   0.533
 4911TIP3    H214740   1.626   4.508   0.639
 4912TIP3   OH214741   2.716   0.043   3.215
 4912TIP3    H114742   2.759   0.111   3.268
 4912TIP3    H214743   2.700  -0.029   3.276
 4913TIP3   OH214744   2.655   0.373   0.040
 4913TIP3    H114745   2.578   0.417   0.078
 4913TIP3    H214746   2.674   0.423  -0.039
 4914TIP3   OH214747   2.304   4.475   1.312
 4914TIP3    H114748   2.372   4.464   1.378
 4914TIP3    H214749   2.237   4.528   1.356
 4915TIP3   OH214750   4.501   5.403   1.056
 4915TIP3    H114751   4.415   5.440   1.075
 4915TIP3    H214752   4.548   5.406   1.139
 4916TIP3   OH214753   2.198   2.493   4.314
 4916TIP3    H114754   2.160   2.549   4.382
 4916TIP3    H214755   2.205   2.407   4.356
 4917TIP3   OH214756   5.514   5.451   2.268
 4917TIP3    H114757   5.440   5.488   2.221
 4917TIP3    H214758   5.567   5.526   2.294
 4918TIP3   OH214759   4.479   0.447   0.976
 4918TIP3    H114760   4.405   0.433   1.036
 4918TIP3    H214761   4.550   0.395   1.014
 4919TIP3   OH214762   0.395   1.627   4.062
 4919TIP3    H114763   0.425   1.566   4.130
 4919TIP3    H214764   0.362   1.702   4.111
 4920TIP3   OH214765   3.107   4.856   4.713
 4920TIP3    H114766   3.117   4.947   4.743
 4920TIP3    H214767   3.196   4.827   4.694
 4921TIP3   OH214768   3.681   3.693   3.258
 4921TIP3    H114769   3.649   3.611   3.297
 4921TIP3    H214770   3.627   3.761   3.298
 4922TIP3   OH214771   3.823   4.972   0.153
 4922TIP3    H114772   3.799   4.997   0.243
 4922TIP3    H214773   3.914   5.000   0.144
 4923TIP3   OH214774   5.678   4.349   0.288
 4923TIP3    H114775   5.696   4.346   0.194
 4923TIP3    H214776   5.650   4.260   0.309
 4924TIP3   OH214777   3.303   1.567   1.303
 4924TIP3    H114778   3.381   1.619   1.321
 4924TIP3    H214779   3.242   1.589   1.373
 4925TIP3   OH214780   3.762   2.150   1.593
 4925TIP3    H114781   3.729   2.192   1.672
 4925TIP3    H214782   3.848   2.115   1.618
 4926TIP3   OH214783   3.901   3.926   1.319
 4926TIP3    H114784   3.982   3.882   1.294
 4926TIP3    H214785   3.929   3.999   1.375
 4927TIP3   OH214786   3.388   5.081   3.258
 4927TIP3    H114787   3.385   5.133   3.338
 4927TIP3    H214788   3.417   5.142   3.190
 4928TIP3   OH214789   6.180  -0.031   2.437
 4928TIP3    H114790   6.192   0.058   2.405
 4928TIP3    H214791   6.114  -0.023   2.506
 4929TIP3   OH214792   4.412   4.877   2.586
 4929TIP3    H114793   4.460   4.795   2.578
 4929TIP3    H214794   4.480   4.945   2.583
 4930TIP3   OH214795   5.344   5.029   2.955
 4930TIP3    H114796   5.341   4.940   2.990
 4930TIP3    H214797   5.275   5.075   3.003
 4931TIP3   OH214798   1.419   3.280   3.197
 4931TIP3    H114799   1.337   3.240   3.167
 4931TIP3    H214800   1.409   3.373   3.178
 4932TIP3   OH214801   2.866   4.385   0.378
 4932TIP3    H114802   2.886   4.478   0.373
 4932TIP3    H214803   2.793   4.373   0.317
 4933TIP3   OH214804   3.457   2.866   0.276
 4933TIP3    H114805   3.510   2.896   0.350
 4933TIP3    H214806   3.368   2.859   0.311
 4934TIP3   OH214807   1.789   2.933   3.625
 4934TIP3    H114808   1.812   3.024   3.641
 4934TIP3    H214809   1.706   2.921   3.671
 4935TIP3   OH214810   2.181   0.450   1.521
 4935TIP3    H114811   2.166   0.441   1.615
 4935TIP3    H214812   2.123   0.384   1.482
 4936TIP3   OH214813   5.071   3.638   2.937
 4936TIP3    H114814   5.000   3.648   2.875
 4936TIP3    H214815   5.138   3.699   2.907
 4937TIP3   OH214816   0.202   2.742   0.490
 4937TIP3    H114817   0.251   2.699   0.559
 4937TIP3    H214818   0.268   2.774   0.429
 4938TIP3   OH214819   5.967   4.929   1.942
 4938TIP3    H114820   5.996   4.956   2.030
 4938TIP3    H214821   6.036   4.960   1.884
 4939TIP3   OH214822   1.525   5.988   3.048
 4939TIP3    H114823   1.575   6.013   2.970
 4939TIP3    H214824   1.583   6.009   3.121
 4940TIP3   OH214825   1.859   2.404   2.319
 4940TIP3    H114826   1.776   2.440   2.289
 4940TIP3    H214827   1.886   2.461   2.391
 4941TIP3   OH214828   4.969   1.418   1.994
 4941TIP3    H114829   4.880   1.439   1.966
 4941TIP3    H214830   5.004   1.500   2.028
 4942TIP3   OH214831   4.086   1.192   0.535
 4942TIP3    H114832   4.167   1.143   0.548
 4942TIP3    H214833   4.040   1.184   0.618
 4943TIP3   OH214834   2.793   5.765   3.514
 4943TIP3    H114835   2.873   5.715   3.532
 4943TIP3    H214836   2.823   5.845   3.472
 4944TIP3   OH214837   1.428   5.358   1.452
 4944TIP3    H114838   1.521   5.375   1.470
 4944TIP3    H214839   1.387   5.444   1.458
 4945TIP3   OH214840   6.040   4.771   2.874
 4945TIP3    H114841   5.953   4.765   2.836
 4945TIP3    H214842   6.026   4.783   2.968
 4946TIP3   OH214843   1.087   3.916   2.607
 4946TIP3    H114844   1.086   3.823   2.581
 4946TIP3    H214845   0.997   3.945   2.591
 4947TIP3   OH214846   5.236   4.206   0.361
 4947TIP3    H114847   5.198   4.193   0.274
 4947TIP3    H214848   5.311   4.147   0.363
 4948TIP3   OH214849   2.333   0.656   3.305
 4948TIP3    H114850   2.304   0.745   3.287
 4948TIP3    H214851   2.331   0.612   3.220
 4949TIP3   OH214852   2.092   3.948   1.537
 4949TIP3    H114853   2.070   3.861   1.503
 4949TIP3    H214854   2.176   3.935   1.580
 4950TIP3   OH214855   1.935   0.781   1.906
 4950TIP3    H114856   1.947   0.708   1.844
 4950TIP3    H214857   1.863   0.831   1.869
 4951TIP3   OH214858   4.743   3.870   3.931
 4951TIP3    H114859   4.773   3.923   3.857
 4951TIP3    H214860   4.789   3.787   3.922
 4952TIP3   OH214861   4.725   1.610   0.901
 4952TIP3    H114862   4.776   1.543   0.855
 4952TIP3    H214863   4.772   1.624   0.983
 4953TIP3   OH214864   0.068   1.868   0.349
 4953TIP3    H114865   0.151   1.859   0.304
 4953TIP3    H214866   0.043   1.959   0.336
 4954TIP3   OH214867   0.580   0.730   3.822
 4954TIP3    H114868   0.567   0.779   3.903
 4954TIP3    H214869   0.663   0.685   3.834
 4955TIP3   OH214870   1.596   3.594   0.119
 4955TIP3    H114871   1.503   3.612   0.105
 4955TIP3    H214872   1.612   3.617   0.211
 4956TIP3   OH214873   1.482  -0.024   3.442
 4956TIP3    H114874   1.515   0.041   3.504
 4956TIP3    H214875   1.436   0.029   3.376
 4957TIP3   OH214876   0.719   4.711   4.607
 4957TIP3    H114877   0.662   4.741   4.536
 4957TIP3    H214878   0.738   4.619   4.586
 4958TIP3   OH214879   4.837   5.186   2.601
 4958TIP3    H114880   4.812   5.268   2.645
 4958TIP3    H214881   4.924   5.204   2.565
 4959TIP3   OH214882   2.075   4.214   0.563
 4959TIP3    H114883   2.027   4.153   0.619
 4959TIP3    H214884   2.133   4.261   0.622
 4960TIP3   OH214885   3.913   1.197   3.085
 4960TIP3    H114886   3.866   1.229   3.162
 4960TIP3    H214887   3.879   1.109   3.071
 4961TIP3   OH214888   5.305   5.340   3.403
 4961TIP3    H114889   5.273   5.299   3.483
 4961TIP3    H214890   5.288   5.433   3.415
 4962TIP3   OH214891   4.337   5.596   4.904
 4962TIP3    H114892   4.379   5.555   4.829
 4962TIP3    H214893   4.301   5.523   4.955
 4963TIP3   OH214894   0.749   5.194   2.424
 4963TIP3    H114895   0.738   5.255   2.498
 4963TIP3    H214896   0.673   5.209   2.369
 4964TIP3   OH214897   5.565   0.037   3.256
 4964TIP3    H114898   5.617   0.097   3.203
 4964TIP3    H214899   5.535  -0.030   3.193
 4965TIP3   OH214900   3.643   1.646   0.787
 4965TIP3    H114901   3.641   1.738   0.810
 4965TIP3    H214902   3.720   1.637   0.730
 4966TIP3   OH214903   4.070   2.384   0.828
 4966TIP3    H114904   4.095   2.399   0.737
 4966TIP3    H214905   4.030   2.298   0.827
 4967TIP3   OH214906   4.589   0.084   4.349
 4967TIP3    H114907   4.590   0.031   4.430
 4967TIP3    H214908   4.593   0.019   4.279
 4968TIP3   OH214909   3.858   0.026   1.808
 4968TIP3    H114910   3.786  -0.031   1.834
 4968TIP3    H214911   3.927   0.007   1.872
 4969TIP3   OH214912   5.759   5.349   4.905
 4969TIP3    H114913   5.841   5.339   4.856
 4969TIP3    H214914   5.772   5.297   4.984
 4970TIP3   OH214915   2.034   2.833   3.113
 4970TIP3    H114916   2.070   2.849   3.026
 4970TIP3    H214917   1.975   2.907   3.128
 4971TIP3   OH214918   5.539   4.968   1.308
 4971TIP3    H114919   5.502   4.894   1.355
 4971TIP3    H214920   5.572   5.027   1.376
 4972TIP3   OH214921   2.427   2.017   1.636
 4972TIP3    H114922   2.396   1.972   1.714
 4972TIP3    H214923   2.491   2.081   1.669
 4973TIP3   OH214924   2.245   2.901   4.001
 4973TIP3    H114925   2.176   2.900   4.068
 4973TIP3    H214926   2.318   2.855   4.042
 4974TIP3   OH214927   1.783   3.451   3.192
 4974TIP3    H114928   1.734   3.520   3.147
 4974TIP3    H214929   1.788   3.481   3.283
 4975TIP3   OH214930   4.395   5.713   1.093
 4975TIP3    H114931   4.366   5.769   1.021
 4975TIP3    H214932   4.489   5.703   1.078
 4976TIP3   OH214933   4.447   3.735   1.746
 4976TIP3    H114934   4.365   3.699   1.712
 4976TIP3    H214935   4.441   3.829   1.726
 4977TIP3   OH214936   3.357   0.089   0.283
 4977TIP3    H114937   3.373   0.019   0.219
 4977TIP3    H214938   3.265   0.081   0.305
 4978TIP3   OH214939   4.961   0.288   2.549
 4978TIP3    H114940   5.050   0.322   2.554
 4978TIP3    H214941   4.933   0.306   2.459
 4979TIP3   OH214942   0.779   2.463   2.317
 4979TIP3    H114943   0.731   2.391   2.278
 4979TIP3    H214944   0.759   2.538   2.261
 4980TIP3   OH214945   4.360   5.804   2.979
 4980TIP3    H114946   4.426   5.831   2.916
 4980TIP3    H214947   4.293   5.872   2.975
 4981TIP3   OH214948   2.619   5.433   0.885
 4981TIP3    H114949   2.544   5.482   0.917
 4981TIP3    H214950   2.628   5.360   0.945
 4982TIP3   OH214951   3.998   4.719   5.051
 4982TIP3    H114952   4.085   4.757   5.046
 4982TIP3    H214953   3.989   4.692   5.143
 4983TIP3   OH214954   5.975   2.925   2.353
 4983TIP3    H114955   5.938   2.841   2.382
 4983TIP3    H214956   6.068   2.918   2.375
 4984TIP3   OH214957   1.498   2.507   2.683
 4984TIP3    H114958   1.467   2.435   2.629
 4984TIP3    H214959   1.523   2.467   2.766
 4985TIP3   OH214960   0.664   5.259   3.174
 4985TIP3    H114961   0.709   5.340   3.196
 4985TIP3    H214962   0.624   5.230   3.256
 4986TIP3   OH214963   5.826   0.372   4.660
 4986TIP3    H114964   5.865   0.361   4.747
 4986TIP3    H214965   5.867   0.451   4.626
 4987TIP3   OH214966   2.435   0.282   1.426
 4987TIP3    H114967   2.393   0.368   1.424
 4987TIP3    H214968   2.489   0.279   1.347
 4988TIP3   OH214969   1.639   1.321   1.514
 4988TIP3    H114970   1.592   1.381   1.571
 4988TIP3    H214971   1.633   1.360   1.427
 4989TIP3   OH214972   0.415   0.803   1.484
 4989TIP3    H114973   0.414   0.769   1.394
 4989TIP3    H214974   0.435   0.726   1.538
 4990TIP3   OH214975   3.995   2.321   2.612
 4990TIP3    H114976   3.980   2.328   2.518
 4990TIP3    H214977   3.943   2.246   2.640
 4991TIP3   OH214978   4.605   4.767   4.964
 4991TIP3    H114979   4.633   4.857   4.945
 4991TIP3    H214980   4.567   4.736   4.882
 4992TIP3   OH214981   5.553   3.707   3.273
 4992TIP3    H114982   5.550   3.794   3.234
 4992TIP3    H214983   5.633   3.668   3.238
 4993TIP3   OH214984   0.328   1.698   3.829
 4993TIP3    H114985   0.357   1.662   3.912
 4993TIP3    H214986   0.358   1.789   3.830
 4994TIP3   OH214987   4.647   0.421   2.791
 4994TIP3    H114988   4.564   0.379   2.769
 4994TIP3    H214989   4.675   0.462   2.709
 4995TIP3   OH214990   3.525   5.703   1.805
 4995TIP3    H114991   3.430   5.715   1.803
 4995TIP3    H214992   3.560   5.790   1.825
 4996TIP3   OH214993   2.777   5.454   2.336
 4996TIP3    H114994   2.783   5.539   2.381
 4996TIP3    H214995   2.736   5.474   2.252
 4997TIP3   OH214996   3.237   0.831   1.600
 4997TIP3    H114997   3.266   0.906   1.653
 4997TIP3    H214998   3.317   0.800   1.557
 4998TIP3   OH214999   0.791   5.425   1.325
 4998TIP3    H115000   0.862   5.454   1.382
 4998TIP3    H215001   0.711   5.456   1.368
 4999TIP3   OH215002   2.047   4.943   3.712
 4999TIP3    H115003   2.140   4.935   3.730
 4999TIP3    H215004   2.022   5.026   3.754
 5000TIP3   OH215005   4.243   1.812   1.905
 5000TIP3    H115006   4.297   1.859   1.842
 5000TIP3    H215007   4.290   1.818   1.988
 5001TIP3   OH215008   0.595   2.824   3.408
 5001TIP3    H115009   0.586   2.875   3.327
 5001TIP3    H215010   0.587   2.888   3.478
 5002TIP3   OH215011   3.907   5.922   3.082
 5002TIP3    H115012   3.887   5.943   3.173
 5002TIP3    H215013   3.823   5.930   3.036
 5003TIP3   OH215014   1.003   0.003   4.328
 5003TIP3    H115015   1.030   0.094   4.338
 5003TIP3    H215016   1.079  -0.041   4.287
 5004TIP3   OH215017   4.229   3.308   4.568
 5004TIP3    H115018   4.163   3.259   4.518
 5004TIP3    H215019   4.303   3.248   4.574
 5005TIP3   OH215020   0.310   5.346   4.729
 5005TIP3    H115021   0.231   5.399   4.723
 5005TIP3    H215022   0.372   5.389   4.670
 5006TIP3   OH215023   2.376   4.839   4.615
 5006TIP3    H115024   2.341   4.843   4.704
 5006TIP3    H215025   2.464   4.802   4.625
 5007TIP3   OH215026   3.753   5.381   4.701
 5007TIP3    H115027   3.817   5.359   4.634
 5007TIP3    H215028   3.706   5.457   4.666
 5008TIP3   OH215029   5.514   4.722   2.166
 5008TIP3    H115030   5.457   4.648   2.186
 5008TIP3    H215031   5.592   4.682   2.127
 5009TIP3   OH215032   4.197   5.737   1.949
 5009TIP3    H115033   4.218   5.685   2.027
 5009TIP3    H215034   4.267   5.716   1.887
 5010TIP3   OH215035   3.701   3.820   5.125
 5010TIP3    H115036   3.624   3.763   5.121
 5010TIP3    H215037   3.735   3.820   5.035
 5011TIP3   OH215038   2.607   4.108   3.109
 5011TIP3    H115039   2.632   4.183   3.163
 5011TIP3    H215040   2.683   4.093   3.052
 5012TIP3   OH215041   0.983   4.131   2.227
 5012TIP3    H115042   0.968   4.042   2.195
 5012TIP3    H215043   0.906   4.151   2.280
 5013TIP3   OH215044   3.704   4.616   5.083
 5013TIP3    H115045   3.623   4.665   5.094
 5013TIP3    H215046   3.773   4.681   5.091
 5014TIP3   OH215047   4.291   2.706   4.189
 5014TIP3    H115048   4.377   2.716   4.147
 5014TIP3    H215049   4.274   2.612   4.186
 5015TIP3   OH215050   3.504   4.721   0.977
 5015TIP3    H115051   3.426   4.776   0.981
 5015TIP3    H215052   3.569   4.768   1.029
 5016TIP3   OH215053   2.461   3.018   4.532
 5016TIP3    H115054   2.419   3.079   4.470
 5016TIP3    H215055   2.553   3.044   4.530
 5017TIP3   OH215056   1.040   2.678   3.546
 5017TIP3    H115057   1.135   2.690   3.552
 5017TIP3    H215058   1.028   2.614   3.476
 5018TIP3   OH215059   0.161   2.883   2.006
 5018TIP3    H115060   0.139   2.964   1.959
 5018TIP3    H215061   0.100   2.881   2.080
 5019TIP3   OH215062   6.055   3.433   0.534
 5019TIP3    H115063   6.131   3.376   0.525
 5019TIP3    H215064   6.017   3.436   0.447
 5020TIP3   OH215065   5.120   0.472   4.626
 5020TIP3    H115066   5.171   0.480   4.707
 5020TIP3    H215067   5.046   0.416   4.650
 5021TIP3   OH215068   3.692   1.011   2.601
 5021TIP3    H115069   3.684   0.920   2.630
 5021TIP3    H215070   3.669   1.010   2.508
 5022TIP3   OH215071   5.243   4.001   4.349
 5022TIP3    H115072   5.254   3.989   4.444
 5022TIP3    H215073   5.148   4.004   4.336
 5023TIP3   OH215074   3.520   5.277   2.438
 5023TIP3    H115075   3.554   5.275   2.349
 5023TIP3    H215076   3.461   5.202   2.442
 5024TIP3   OH215077   1.285   2.869   0.416
 5024TIP3    H115078   1.251   2.796   0.468
 5024TIP3    H215079   1.208   2.909   0.377
 5025TIP3   OH215080   4.243   5.315   1.100
 5025TIP3    H115081   4.275   5.239   1.149
 5025TIP3    H215082   4.154   5.328   1.132
 5026TIP3   OH215083   6.159   5.138   4.767
 5026TIP3    H115084   6.081   5.083   4.776
 5026TIP3    H215085   6.212   5.094   4.701
 5027TIP3   OH215086   0.796   0.954   4.920
 5027TIP3    H115087   0.716   0.987   4.880
 5027TIP3    H215088   0.770   0.872   4.963
 5028TIP3   OH215089   0.619   4.681   3.749
 5028TIP3    H115090   0.602   4.590   3.724
 5028TIP3    H215091   0.704   4.679   3.792
 5029TIP3   OH215092   2.969   4.326   1.491
 5029TIP3    H115093   2.970   4.238   1.528
 5029TIP3    H215094   2.948   4.383   1.566
 5030TIP3   OH215095   5.068   5.018   5.124
 5030TIP3    H115096   5.095   4.958   5.054
 5030TIP3    H215097   4.981   4.989   5.149
 5031TIP3   OH215098   4.988   2.892   1.874
 5031TIP3    H115099   5.056   2.854   1.930
 5031TIP3    H215100   4.942   2.817   1.837
 5032TIP3   OH215101   2.137   3.383   1.819
 5032TIP3    H115102   2.050   3.344   1.811
 5032TIP3    H215103   2.198   3.312   1.796
 5033TIP3   OH215104   5.256   1.148   1.700
 5033TIP3    H115105   5.259   1.060   1.661
 5033TIP3    H215106   5.342   1.158   1.742
 5034TIP3   OH215107   2.532   5.704   3.765
 5034TIP3    H115108   2.538   5.723   3.672
 5034TIP3    H215109   2.618   5.723   3.800
 5035TIP3   OH215110   1.615   5.157   1.686
 5035TIP3    H115111   1.629   5.199   1.601
 5035TIP3    H215112   1.682   5.088   1.689
 5036TIP3   OH215113   0.095   2.750   4.785
 5036TIP3    H115114   0.182   2.781   4.809
 5036TIP3    H215115   0.049   2.828   4.755
 5037TIP3   OH215116   3.026   5.514   2.865
 5037TIP3    H115117   2.975   5.584   2.905
 5037TIP3    H215118   3.058   5.552   2.783
 5038TIP3   OH215119   6.102   2.326   2.627
 5038TIP3    H115120   6.010   2.300   2.624
 5038TIP3    H215121   6.148   2.252   2.667
 5039TIP3   OH215122   2.744   2.229   4.920
 5039TIP3    H115123   2.732   2.260   4.830
 5039TIP3    H215124   2.743   2.133   4.913
 5040TIP3   OH215125   0.523   4.098   4.198
 5040TIP3    H115126   0.574   4.142   4.265
 5040TIP3    H215127   0.454   4.052   4.246
 5041TIP3   OH215128   2.990   3.748   2.256
 5041TIP3    H115129   2.930   3.766   2.184
 5041TIP3    H215130   3.025   3.661   2.239
 5042TIP3   OH215131   4.887   4.128   2.427
 5042TIP3    H115132   4.818   4.064   2.408
 5042TIP3    H215133   4.840   4.205   2.459
 5043TIP3   OH215134   4.978   5.326   0.810
 5043TIP3    H115135   5.056   5.314   0.755
 5043TIP3    H215136   4.917   5.375   0.755
 5044TIP3   OH215137   0.850   5.153   1.643
 5044TIP3    H115138   0.872   5.246   1.649
 5044TIP3    H215139   0.796   5.136   1.720
 5045TIP3   OH215140   0.135   4.836   1.506
 5045TIP3    H115141   0.044   4.852   1.484
 5045TIP3    H215142   0.148   4.876   1.592
 5046TIP3   OH215143   3.272   3.412   0.303
 5046TIP3    H115144   3.202   3.461   0.345
 5046TIP3    H215145   3.339   3.403   0.370
 5047TIP3   OH215146   1.245   3.962   1.300
 5047TIP3    H115147   1.238   4.056   1.317
 5047TIP3    H215148   1.168   3.924   1.342
 5048TIP3   OH215149   3.860   3.644   0.182
 5048TIP3    H115150   3.784   3.683   0.224
 5048TIP3    H215151   3.861   3.680   0.094
 5049TIP3   OH215152   4.521   0.659   0.214
 5049TIP3    H115153   4.517   0.675   0.308
 5049TIP3    H215154   4.596   0.601   0.203
 5050TIP3   OH215155   1.426   5.569   4.240
 5050TIP3    H115156   1.506   5.526   4.267
 5050TIP3    H215157   1.420   5.647   4.295
 5051TIP3   OH215158   3.463   1.773   1.428
 5051TIP3    H115159   3.398   1.839   1.408
 5051TIP3    H215160   3.546   1.821   1.429
 5052TIP3   OH215161   1.975   5.795   3.988
 5052TIP3    H115162   1.913   5.812   4.059
 5052TIP3    H215163   2.024   5.877   3.979
 5053TIP3   OH215164   3.623   4.422   0.569
 5053TIP3    H115165   3.632   4.455   0.480
 5053TIP3    H215166   3.697   4.459   0.617
 5054TIP3   OH215167   3.950   5.097   0.788
 5054TIP3    H115168   3.945   5.174   0.732
 5054TIP3    H215169   3.863   5.058   0.783
 5055TIP3   OH215170   1.074   2.824   2.060
 5055TIP3    H115171   1.059   2.814   2.154
 5055TIP3    H215172   1.169   2.832   2.051
 5056TIP3   OH215173   2.679   0.786   0.374
 5056TIP3    H115174   2.616   0.783   0.302
 5056TIP3    H215175   2.756   0.827   0.337
 5057TIP3   OH215176   5.210   0.289   4.959
 5057TIP3    H115177   5.243   0.373   4.926
 5057TIP3    H215178   5.228   0.227   4.888
 5058TIP3   OH215179   3.278   1.021   1.376
 5058TIP3    H115180   3.233   0.957   1.431
 5058TIP3    H215181   3.301   0.973   1.297
 5059TIP3   OH215182   4.512   4.484   3.488
 5059TIP3    H115183   4.597   4.463   3.448
 5059TIP3    H215184   4.493   4.409   3.544
 5060TIP3   OH215185   6.275   3.308   1.391
 5060TIP3    H115186   6.198   3.363   1.407
 5060TIP3    H215187   6.306   3.335   1.304
 5061TIP3   OH215188   4.053   5.754   1.128
 5061TIP3    H115189   4.047   5.713   1.042
 5061TIP3    H215190   4.142   5.736   1.158
 5062TIP3   OH215191   1.197   5.907   0.805
 5062TIP3    H115192   1.195   5.812   0.796
 5062TIP3    H215193   1.105   5.932   0.814
 5063TIP3   OH215194   3.734   0.725   4.266
 5063TIP3    H115195   3.707   0.800   4.319
 5063TIP3    H215196   3.710   0.649   4.320
 5064TIP3   OH215197   5.446   3.992   5.049
 5064TIP3    H115198   5.481   4.080   5.062
 5064TIP3    H215199   5.441   3.955   5.137
 5065TIP3   OH215200   3.093   0.913  -0.006
 5065TIP3    H115201   3.000   0.897  -0.024
 5065TIP3    H215202   3.131   0.826   0.002
 5066TIP3   OH215203   3.986   5.910   0.599
 5066TIP3    H115204   3.927   5.856   0.546
 5066TIP3    H215205   4.032   5.847   0.655
 5067TIP3   OH215206   1.162   4.034   3.807
 5067TIP3    H115207   1.090   4.080   3.848
 5067TIP3    H215208   1.133   3.943   3.803
 5068TIP3   OH215209   4.814   2.577   3.719
 5068TIP3    H115210   4.803   2.534   3.635
 5068TIP3    H215211   4.769   2.520   3.782
 5069TIP3   OH215212   4.621   2.854   5.152
 5069TIP3    H115213   4.528   2.863   5.129
 5069TIP3    H215214   4.638   2.929   5.209
 5070TIP3   OH215215   5.244   4.668   4.287
 5070TIP3    H115216   5.296   4.647   4.365
 5070TIP3    H215217   5.299   4.729   4.238
 5071TIP3   OH215218   2.945   0.468   1.819
 5071TIP3    H115219   2.925   0.375   1.833
 5071TIP3    H215220   2.873   0.515   1.862
 5072TIP3   OH215221   1.659   2.590   1.400
 5072TIP3    H115222   1.661   2.683   1.381
 5072TIP3    H215223   1.581   2.579   1.454
 5073TIP3   OH215224   6.047   0.494   1.941
 5073TIP3    H115225   6.050   0.541   2.025
 5073TIP3    H215226   6.138   0.490   1.912
 5074TIP3   OH215227   3.576   0.088   4.376
 5074TIP3    H115228   3.563   0.149   4.304
 5074TIP3    H215229   3.636   0.022   4.342
 5075TIP3   OH215230   3.345   3.600   1.317
 5075TIP3    H115231   3.295   3.564   1.244
 5075TIP3    H215232   3.399   3.669   1.277
 5076TIP3   OH215233   4.089   0.455   1.356
 5076TIP3    H115234   4.124   0.456   1.445
 5076TIP3    H215235   4.065   0.364   1.340
 5077TIP3   OH215236   3.531   3.457   2.088
 5077TIP3    H115237   3.561   3.459   2.178
 5077TIP3    H215238   3.569   3.535   2.048
 5078TIP3   OH215239   1.348   1.188   2.379
 5078TIP3    H115240   1.402   1.137   2.440
 5078TIP3    H215241   1.362   1.279   2.404
 5079TIP3   OH215242   5.040   4.493   2.624
 5079TIP3    H115243   4.960   4.448   2.598
 5079TIP3    H215244   5.085   4.432   2.683
 5080TIP3   OH215245   3.984   5.179   4.856
 5080TIP3    H115246   4.040   5.174   4.779
 5080TIP3    H215247   4.030   5.130   4.924
 5081TIP3   OH215248   4.766   0.467   2.531
 5081TIP3    H115249   4.814   0.401   2.581
 5081TIP3    H215250   4.835   0.525   2.497
 5082TIP3   OH215251   2.468   5.615   1.418
 5082TIP3    H115252   2.544   5.671   1.436
 5082TIP3    H215253   2.432   5.649   1.336
 5083TIP3   OH215254   2.343   5.592   5.025
 5083TIP3    H115255   2.390   5.674   5.010
 5083TIP3    H215256   2.303   5.604   5.112
 5084TIP3   OH215257   2.352   5.723   3.031
 5084TIP3    H115258   2.315   5.729   3.119
 5084TIP3    H215259   2.282   5.685   2.978
 5085TIP3   OH215260   5.935   1.771   0.809
 5085TIP3    H115261   6.020   1.807   0.782
 5085TIP3    H215262   5.884   1.766   0.728
 5086TIP3   OH215263   3.148   2.740   4.659
 5086TIP3    H115264   3.178   2.650   4.676
 5086TIP3    H215265   3.148   2.747   4.564
 5087TIP3   OH215266   1.464   3.811   3.060
 5087TIP3    H115267   1.475   3.858   3.142
 5087TIP3    H215268   1.413   3.870   3.004
 5088TIP3   OH215269   4.562   3.455   1.045
 5088TIP3    H115270   4.596   3.385   0.990
 5088TIP3    H215271   4.496   3.498   0.991
 5089TIP3   OH215272   0.698   0.687   4.972
 5089TIP3    H115273   0.664   0.665   5.058
 5089TIP3    H215274   0.652   0.627   4.912
 5090TIP3   OH215275   5.925   4.728   4.100
 5090TIP3    H115276   5.843   4.684   4.124
 5090TIP3    H215277   5.973   4.735   4.183
 5091TIP3   OH215278   3.890   5.487   0.207
 5091TIP3    H115279   3.902   5.518   0.297
 5091TIP3    H215280   3.796   5.474   0.198
 5092TIP3   OH215281   1.276   1.334   3.271
 5092TIP3    H115282   1.337   1.361   3.203
 5092TIP3    H215283   1.190   1.340   3.230
 5093TIP3   OH215284   5.099   3.085   4.948
 5093TIP3    H115285   5.175   3.031   4.972
 5093TIP3    H215286   5.095   3.152   5.016
 5094TIP3   OH215287   3.275   3.131   3.873
 5094TIP3    H115288   3.265   3.225   3.863
 5094TIP3    H215289   3.188   3.099   3.896
 5095TIP3   OH215290   2.165   4.250   1.849
 5095TIP3    H115291   2.106   4.178   1.870
 5095TIP3    H215292   2.120   4.298   1.779
 5096TIP3   OH215293   1.887   0.326   3.059
 5096TIP3    H115294   1.847   0.247   3.095
 5096TIP3    H215295   1.933   0.296   2.981
 5097TIP3   OH215296   2.370   5.241   3.319
 5097TIP3    H115297   2.415   5.172   3.271
 5097TIP3    H215298   2.431   5.314   3.320
 5098TIP3   OH215299   4.463   1.875   0.771
 5098TIP3    H115300   4.435   1.814   0.839
 5098TIP3    H215301   4.413   1.849   0.694
 5099TIP3   OH215302   0.902   5.739   2.581
 5099TIP3    H115303   0.995   5.750   2.599
 5099TIP3    H215304   0.859   5.765   2.663
 5100TIP3   OH215305   0.273   5.334   3.863
 5100TIP3    H115306   0.202   5.346   3.800
 5100TIP3    H215307   0.343   5.293   3.812
 5101TIP3   OH215308   0.578   2.058   1.485
 5101TIP3    H115309   0.493   2.054   1.441
 5101TIP3    H215310   0.641   2.073   1.415
 5102TIP3   OH215311   3.120   5.241   2.205
 5102TIP3    H115312   3.040   5.259   2.156
 5102TIP3    H215313   3.184   5.302   2.169
 5103TIP3   OH215314   1.292   5.084   4.780
 5103TIP3    H115315   1.228   5.037   4.727
 5103TIP3    H215316   1.377   5.063   4.740
 5104TIP3   OH215317   4.621   2.871   1.614
 5104TIP3    H115318   4.660   2.947   1.570
 5104TIP3    H215319   4.667   2.796   1.577
 5105TIP3   OH215320   2.202   2.555   2.745
 5105TIP3    H115321   2.227   2.466   2.721
 5105TIP3    H215322   2.262   2.579   2.816
 5106TIP3   OH215323   1.204   5.278   0.921
 5106TIP3    H115324   1.173   5.312   1.004
 5106TIP3    H215325   1.125   5.269   0.868
 5107TIP3   OH215326   4.814   0.867   3.699
 5107TIP3    H115327   4.870   0.897   3.771
 5107TIP3    H215328   4.772   0.787   3.732
 5108TIP3   OH215329   3.625   1.418   4.881
 5108TIP3    H115330   3.678   1.352   4.835
 5108TIP3    H215331   3.565   1.367   4.934
 5109TIP3   OH215332   5.226   4.819   3.081
 5109TIP3    H115333   5.139   4.779   3.091
 5109TIP3    H215334   5.276   4.785   3.155
 5110TIP3   OH215335   0.658   0.976   2.405
 5110TIP3    H115336   0.703   0.942   2.327
 5110TIP3    H215337   0.725   0.975   2.473
 5111TIP3   OH215338   3.607   3.050   0.847
 5111TIP3    H115339   3.522   3.092   0.839
 5111TIP3    H215340   3.608   3.014   0.935
 5112TIP3   OH215341   6.203   1.761   3.258
 5112TIP3    H115342   6.283   1.743   3.208
 5112TIP3    H215343   6.231   1.765   3.349
 5113TIP3   OH215344   4.072   4.394   4.599
 5113TIP3    H115345   4.086   4.442   4.680
 5113TIP3    H215346   3.976   4.389   4.590
 5114TIP3   OH215347   6.251   5.389   4.955
 5114TIP3    H115348   6.183   5.341   5.002
 5114TIP3    H215349   6.319   5.324   4.938
 5115TIP3   OH215350   3.484   2.651   4.933
 5115TIP3    H115351   3.503   2.579   4.993
 5115TIP3    H215352   3.417   2.703   4.978
 5116TIP3   OH215353   3.308   3.047   4.709
 5116TIP3    H115354   3.326   2.953   4.718
 5116TIP3    H215355   3.354   3.072   4.629
 5117TIP3   OH215356   5.480   0.268   2.908
 5117TIP3    H115357   5.387   0.249   2.893
 5117TIP3    H215358   5.525   0.231   2.833
 5118TIP3   OH215359   1.675   2.961   0.871
 5118TIP3    H115360   1.641   3.048   0.848
 5118TIP3    H215361   1.598   2.912   0.901
 5119TIP3   OH215362   1.445   5.742   0.967
 5119TIP3    H115363   1.480   5.831   0.973
 5119TIP3    H215364   1.434   5.727   0.873
 5120TIP3   OH215365   0.457   0.975   4.009
 5120TIP3    H115366   0.446   1.029   3.930
 5120TIP3    H215367   0.496   1.033   4.073
 5121TIP3   OH215368   0.662   2.346   0.804
 5121TIP3    H115369   0.577   2.317   0.840
 5121TIP3    H215370   0.691   2.414   0.865
 5122TIP3   OH215371   5.001   1.931   3.064
 5122TIP3    H115372   5.019   2.021   3.091
 5122TIP3    H215373   5.077   1.906   3.012
 5123TIP3   OH215374   5.608   5.980   4.591
 5123TIP3    H115375   5.615   6.067   4.631
 5123TIP3    H215376   5.553   5.930   4.652
 5124TIP3   OH215377   0.479   5.159   0.863
 5124TIP3    H115378   0.548   5.198   0.810
 5124TIP3    H215379   0.425   5.110   0.801
 5125TIP3   OH215380   0.476   5.022   4.808
 5125TIP3    H115381   0.549   5.060   4.857
 5125TIP3    H215382   0.405   5.085   4.819
 5126TIP3   OH215383   4.019   2.724   3.403
 5126TIP3    H115384   3.976   2.776   3.471
 5126TIP3    H215385   4.112   2.729   3.425
 5127TIP3   OH215386   6.254   4.481   3.886
 5127TIP3    H115387   6.272   4.411   3.949
 5127TIP3    H215388   6.184   4.445   3.830
 5128TIP3   OH215389   3.636   1.305   3.894
 5128TIP3    H115390   3.572   1.234   3.894
 5128TIP3    H215391   3.583   1.385   3.900
 5129TIP3   OH215392   1.197   1.514   1.946
 5129TIP3    H115393   1.198   1.468   1.862
 5129TIP3    H215394   1.107   1.506   1.977
 5130TIP3   OH215395   0.027   4.071   1.702
 5130TIP3    H115396   0.090   4.127   1.658
 5130TIP3    H215397   0.052   3.982   1.676
 5131TIP3   OH215398   2.215   0.099   1.752
 5131TIP3    H115399   2.229   0.035   1.823
 5131TIP3    H215400   2.129   0.076   1.716
 5132TIP3   OH215401   1.392   1.090   0.352
 5132TIP3    H115402   1.331   1.156   0.319
 5132TIP3    H215403   1.343   1.044   0.421
 5133TIP3   OH215404   4.815   1.201   1.270
 5133TIP3    H115405   4.885   1.155   1.316
 5133TIP3    H215406   4.749   1.133   1.253
 5134TIP3   OH215407   3.529   5.862   2.579
 5134TIP3    H115408   3.551   5.939   2.631
 5134TIP3    H215409   3.560   5.788   2.632
 5135TIP3   OH215410   3.860   0.713   3.109
 5135TIP3    H115411   3.835   0.673   3.025
 5135TIP3    H215412   3.919   0.649   3.149
 5136TIP3   OH215413   2.515   1.068   5.032
 5136TIP3    H115414   2.548   1.040   5.117
 5136TIP3    H215415   2.569   1.144   5.009
 5137TIP3   OH215416   0.487   4.808   5.085
 5137TIP3    H115417   0.448   4.807   4.997
 5137TIP3    H215418   0.420   4.847   5.140
 5138TIP3   OH215419   2.789   1.704   3.956
 5138TIP3    H115420   2.877   1.674   3.935
 5138TIP3    H215421   2.756   1.742   3.875
 5139TIP3   OH215422   1.742   4.745   0.081
 5139TIP3    H115423   1.705   4.833   0.083
 5139TIP3    H215424   1.749   4.723  -0.012
 5140TIP3   OH215425   5.391   1.074   0.487
 5140TIP3    H115426   5.358   1.145   0.544
 5140TIP3    H215427   5.337   1.080   0.408
 5141TIP3   OH215428   3.801   2.956   0.071
 5141TIP3    H115429   3.784   2.864   0.050
 5141TIP3    H215430   3.714   2.996   0.075
 5142TIP3   OH215431   3.162   1.203   2.188
 5142TIP3    H115432   3.082   1.238   2.227
 5142TIP3    H215433   3.182   1.126   2.242
 5143TIP3   OH215434   0.284   1.100   2.459
 5143TIP3    H115435   0.202   1.055   2.438
 5143TIP3    H215436   0.338   1.089   2.381
 5144TIP3   OH215437   4.757   0.805   0.347
 5144TIP3    H115438   4.719   0.869   0.287
 5144TIP3    H215439   4.779   0.730   0.291
 5145TIP3   OH215440   5.009   5.406   3.088
 5145TIP3    H115441   5.007   5.405   2.993
 5145TIP3    H215442   5.102   5.408   3.110
 5146TIP3   OH215443   1.516   4.949   4.654
 5146TIP3    H115444   1.555   4.925   4.570
 5146TIP3    H215445   1.557   4.891   4.718
 5147TIP3   OH215446   5.255   1.888   4.605
 5147TIP3    H115447   5.286   1.838   4.680
 5147TIP3    H215448   5.296   1.974   4.615
 5148TIP3   OH215449   4.862   1.255   2.175
 5148TIP3    H115450   4.819   1.184   2.127
 5148TIP3    H215451   4.908   1.305   2.108
 5149TIP3   OH215452   5.374   5.431   1.388
 5149TIP3    H115453   5.450   5.373   1.390
 5149TIP3    H215454   5.373   5.474   1.473
 5150TIP3   OH215455   6.195   2.557   2.755
 5150TIP3    H115456   6.212   2.522   2.842
 5150TIP3    H215457   6.168   2.482   2.703
 5151TIP3   OH215458   3.773   0.824   0.285
 5151TIP3    H115459   3.767   0.808   0.379
 5151TIP3    H215460   3.725   0.751   0.245
 5152TIP3   OH215461   1.585   0.110   1.856
 5152TIP3    H115462   1.587   0.024   1.815
 5152TIP3    H215463   1.507   0.109   1.912
 5153TIP3   OH215464   4.029   2.128   1.038
 5153TIP3    H115465   3.940   2.144   1.006
 5153TIP3    H215466   4.080   2.111   0.959
 5154TIP3   OH215467   3.469   1.373   1.574
 5154TIP3    H115468   3.489   1.347   1.484
 5154TIP3    H215469   3.459   1.468   1.570
 5155TIP3   OH215470   4.033   4.566   3.642
 5155TIP3    H115471   3.959   4.547   3.583
 5155TIP3    H215472   4.070   4.648   3.608
 5156TIP3   OH215473   2.332   2.575   0.427
 5156TIP3    H115474   2.296   2.643   0.371
 5156TIP3    H215475   2.393   2.527   0.370
 5157TIP3   OH215476   0.743   1.575   1.141
 5157TIP3    H115477   0.757   1.599   1.232
 5157TIP3    H215478   0.711   1.485   1.144
 5158TIP3   OH215479   1.136   5.023   0.039
 5158TIP3    H115480   1.143   5.033   0.133
 5158TIP3    H215481   1.050   5.058   0.017
 5159TIP3   OH215482   1.113   1.451   2.512
 5159TIP3    H115483   1.110   1.439   2.417
 5159TIP3    H215484   1.056   1.527   2.529
 5160TIP3   OH215485   5.564   5.157   3.388
 5160TIP3    H115486   5.574   5.158   3.293
 5160TIP3    H215487   5.497   5.223   3.406
 5161TIP3   OH215488   6.319   0.773   3.191
 5161TIP3    H115489   6.393   0.757   3.132
 5161TIP3    H215490   6.257   0.703   3.171
 5162TIP3   OH215491   4.468   0.840   3.493
 5162TIP3    H115492   4.522   0.909   3.532
 5162TIP3    H215493   4.401   0.823   3.559
 5163TIP3   OH215494   4.021   5.274   2.938
 5163TIP3    H115495   4.068   5.202   2.897
 5163TIP3    H215496   4.048   5.351   2.888
 5164TIP3   OH215497   0.650   1.754   3.980
 5164TIP3    H115498   0.612   1.841   3.965
 5164TIP3    H215499   0.578   1.702   4.015
 5165TIP3   OH215500   1.842   1.547   0.110
 5165TIP3    H115501   1.784   1.485   0.066
 5165TIP3    H215502   1.832   1.528   0.203
 5166TIP3   OH215503   4.458   4.582   5.080
 5166TIP3    H115504   4.506   4.501   5.066
 5166TIP3    H215505   4.519   4.651   5.049
 5167TIP3   OH215506   3.235   5.313   4.940
 5167TIP3    H115507   3.263   5.369   4.867
 5167TIP3    H215508   3.263   5.360   5.018
 5168TIP3   OH215509   5.065   2.549   1.290
 5168TIP3    H115510   4.987   2.554   1.344
 5168TIP3    H215511   5.132   2.510   1.347
 5169TIP3   OH215512   3.718   3.823   4.239
 5169TIP3    H115513   3.698   3.746   4.187
 5169TIP3    H215514   3.814   3.825   4.242
 5170TIP3   OH215515   4.045   1.114   1.276
 5170TIP3    H115516   4.047   1.023   1.304
 5170TIP3    H215517   3.961   1.124   1.232
 5171TIP3   OH215518   1.613   1.693   3.593
 5171TIP3    H115519   1.683   1.636   3.625
 5171TIP3    H215520   1.646   1.782   3.606
 5172TIP3   OH215521   0.930   0.345   0.948
 5172TIP3    H115522   0.983   0.410   0.902
 5172TIP3    H215523   0.854   0.394   0.980
 5173TIP3   OH215524   4.805   2.098   1.622
 5173TIP3    H115525   4.898   2.076   1.614
 5173TIP3    H215526   4.770   2.090   1.533
 5174TIP3   OH215527   1.689   1.417   3.290
 5174TIP3    H115528   1.684   1.369   3.372
 5174TIP3    H215529   1.628   1.489   3.300
 5175TIP3   OH215530   3.448   4.010   0.900
 5175TIP3    H115531   3.534   4.039   0.867
 5175TIP3    H215532   3.459   4.007   0.995
 5176TIP3   OH215533   6.041   5.313   2.830
 5176TIP3    H115534   6.032   5.332   2.737
 5176TIP3    H215535   6.085   5.228   2.834
 5177TIP3   OH215536   5.869   0.243   4.178
 5177TIP3    H115537   5.777   0.246   4.203
 5177TIP3    H215538   5.916   0.224   4.259
 5178TIP3   OH215539   3.304   0.959   1.914
 5178TIP3    H115540   3.217   0.994   1.933
 5178TIP3    H215541   3.325   0.994   1.827
 5179TIP3   OH215542   5.202   4.160   1.273
 5179TIP3    H115543   5.193   4.082   1.328
 5179TIP3    H215544   5.295   4.182   1.278
 5180TIP3   OH215545   4.842   4.315   0.985
 5180TIP3    H115546   4.885   4.401   0.983
 5180TIP3    H215547   4.911   4.254   1.007
 5181TIP3   OH215548   5.501   1.390   3.934
 5181TIP3    H115549   5.578   1.447   3.943
 5181TIP3    H215550   5.501   1.338   4.014
 5182TIP3   OH215551   2.818   2.958   4.285
 5182TIP3    H115552   2.732   2.919   4.299
 5182TIP3    H215553   2.829   3.019   4.357
 5183TIP3   OH215554   4.326   5.110   3.895
 5183TIP3    H115555   4.370   5.077   3.973
 5183TIP3    H215556   4.363   5.196   3.880
 5184TIP3   OH215557   0.542   4.683   1.095
 5184TIP3    H115558   0.632   4.661   1.072
 5184TIP3    H215559   0.545   4.775   1.119
 5185TIP3   OH215560   2.462   2.655   0.924
 5185TIP3    H115561   2.389   2.672   0.983
 5185TIP3    H215562   2.428   2.676   0.837
 5186TIP3   OH215563   2.204   1.157   1.794
 5186TIP3    H115564   2.122   1.146   1.746
 5186TIP3    H215565   2.248   1.072   1.784
 5187TIP3   OH215566   5.577   3.796   1.513
 5187TIP3    H115567   5.494   3.749   1.517
 5187TIP3    H215568   5.605   3.789   1.422
 5188TIP3   OH215569   1.432   1.259   2.733
 5188TIP3    H115570   1.359   1.220   2.685
 5188TIP3    H215571   1.504   1.197   2.724
 5189TIP3   OH215572   5.228   3.538   3.823
 5189TIP3    H115573   5.321   3.544   3.844
 5189TIP3    H215574   5.226   3.518   3.729
 5190TIP3   OH215575   5.506   3.449   3.758
 5190TIP3    H115576   5.534   3.534   3.791
 5190TIP3    H215577   5.509   3.457   3.663
 5191TIP3   OH215578   5.751   0.309   3.927
 5191TIP3    H115579   5.757   0.249   3.852
 5191TIP3    H215580   5.824   0.283   3.984
 5192TIP3   OH215581   4.383   0.969   0.313
 5192TIP3    H115582   4.354   0.889   0.357
 5192TIP3    H215583   4.438   1.014   0.378
 5193TIP3   OH215584   0.092   5.491   4.727
 5193TIP3    H115585   0.036   5.444   4.665
 5193TIP3    H215586   0.033   5.515   4.799
 5194TIP3   OH215587   4.397   4.448   3.950
 5194TIP3    H115588   4.337   4.380   3.921
 5194TIP3    H215589   4.364   4.528   3.908
 5195TIP3   OH215590   6.271   1.445   1.737
 5195TIP3    H115591   6.343   1.461   1.798
 5195TIP3    H215592   6.192   1.460   1.789
 5196TIP3   OH215593   2.218   3.390   2.781
 5196TIP3    H115594   2.127   3.397   2.751
 5196TIP3    H215595   2.227   3.298   2.808
 5197TIP3   OH215596   1.406   3.591   4.184
 5197TIP3    H115597   1.345   3.660   4.158
 5197TIP3    H215598   1.407   3.530   4.110
 5198TIP3   OH215599   5.585   1.465   3.124
 5198TIP3    H115600   5.496   1.499   3.138
 5198TIP3    H215601   5.608   1.495   3.036
 5199TIP3   OH215602   0.608   0.737   0.471
 5199TIP3    H115603   0.596   0.644   0.452
 5199TIP3    H215604   0.663   0.770   0.400
 5200TIP3   OH215605   1.348   1.146   1.951
 5200TIP3    H115606   1.331   1.061   1.909
 5200TIP3    H215607   1.262   1.187   1.958
 5201TIP3   OH215608   0.903   4.570   3.742
 5201TIP3    H115609   0.960   4.499   3.711
 5201TIP3    H215610   0.927   4.645   3.689
 5202TIP3   OH215611   4.164   0.045   1.660
 5202TIP3    H115612   4.104  -0.028   1.647
 5202TIP3    H215613   4.246   0.004   1.689
 5203TIP3   OH215614   2.998   1.257   3.397
 5203TIP3    H115615   3.090   1.279   3.383
 5203TIP3    H215616   2.976   1.199   3.324
 5204TIP3   OH215617   0.899   0.868   4.646
 5204TIP3    H115618   0.899   0.949   4.594
 5204TIP3    H215619   0.876   0.896   4.734
 5205TIP3   OH215620   1.893   5.598   1.429
 5205TIP3    H115621   1.834   5.672   1.412
 5205TIP3    H215622   1.981   5.637   1.429
 5206TIP3   OH215623   3.999   0.707   2.458
 5206TIP3    H115624   4.035   0.735   2.374
 5206TIP3    H215625   4.069   0.722   2.521
 5207TIP3   OH215626   1.517   4.145   3.479
 5207TIP3    H115627   1.509   4.229   3.435
 5207TIP3    H215628   1.459   4.152   3.555
 5208TIP3   OH215629   0.022   0.068   2.918
 5208TIP3    H115630  -0.041   0.121   2.967
 5208TIP3    H215631   0.093   0.129   2.897
 5209TIP3   OH215632   0.193   4.435   0.397
 5209TIP3    H115633   0.121   4.379   0.367
 5209TIP3    H215634   0.221   4.483   0.318
 5210TIP3   OH215635   5.848   3.883   3.809
 5210TIP3    H115636   5.848   3.789   3.824
 5210TIP3    H215637   5.789   3.918   3.875
 5211TIP3   OH215638   5.766   1.305   1.065
 5211TIP3    H115639   5.690   1.353   1.098
 5211TIP3    H215640   5.747   1.291   0.972
 5212TIP3   OH215641   1.173   3.662   2.496
 5212TIP3    H115642   1.184   3.574   2.459
 5212TIP3    H215643   1.258   3.684   2.532
 5213TIP3   OH215644   4.857   1.119   4.373
 5213TIP3    H115645   4.830   1.140   4.463
 5213TIP3    H215646   4.914   1.043   4.383
 5214TIP3   OH215647   2.088   4.830   1.669
 5214TIP3    H115648   2.076   4.763   1.736
 5214TIP3    H215649   2.009   4.884   1.675
 5215TIP3   OH215650   2.646   0.784   2.548
 5215TIP3    H115651   2.576   0.784   2.482
 5215TIP3    H215652   2.648   0.694   2.581
 5216TIP3   OH215653   0.773   4.979   0.538
 5216TIP3    H115654   0.818   5.012   0.616
 5216TIP3    H215655   0.690   5.026   0.537
 5217TIP3   OH215656   1.270   1.725   0.963
 5217TIP3    H115657   1.220   1.711   0.882
 5217TIP3    H215658   1.358   1.745   0.933
 5218TIP3   OH215659   5.136   5.596   1.377
 5218TIP3    H115660   5.149   5.654   1.452
 5218TIP3    H215661   5.221   5.553   1.365
 5219TIP3   OH215662   3.950   5.836   2.812
 5219TIP3    H115663   3.940   5.860   2.904
 5219TIP3    H215664   3.885   5.889   2.766
 5220TIP3   OH215665   5.581   3.182   3.786
 5220TIP3    H115666   5.513   3.248   3.777
 5220TIP3    H215667   5.661   3.232   3.807
 5221TIP3   OH215668   5.104   5.852   2.844
 5221TIP3    H115669   5.123   5.843   2.751
 5221TIP3    H215670   5.120   5.945   2.863
 5222TIP3   OH215671   5.619   3.085   0.103
 5222TIP3    H115672   5.654   3.021   0.164
 5222TIP3    H215673   5.542   3.043   0.065
 5223TIP3   OH215674   6.117   2.377   4.377
 5223TIP3    H115675   6.164   2.458   4.357
 5223TIP3    H215676   6.055   2.367   4.305
 5224TIP3   OH215677   2.800   5.212   0.098
 5224TIP3    H115678   2.861   5.159   0.149
 5224TIP3    H215679   2.742   5.148   0.056
 5225TIP3   OH215680   2.512   0.504   0.297
 5225TIP3    H115681   2.589   0.487   0.351
 5225TIP3    H215682   2.456   0.559   0.352
 5226TIP3   OH215683   4.498   2.362   3.666
 5226TIP3    H115684   4.468   2.271   3.672
 5226TIP3    H215685   4.593   2.355   3.663
 5227TIP3   OH215686   0.515   1.201   0.336
 5227TIP3    H115687   0.589   1.243   0.292
 5227TIP3    H215688   0.532   1.215   0.429
 5228TIP3   OH215689   3.460   4.125   0.345
 5228TIP3    H115690   3.377   4.077   0.347
 5228TIP3    H215691   3.456   4.176   0.264
 5229TIP3   OH215692   5.451   5.475   0.532
 5229TIP3    H115693   5.467   5.397   0.478
 5229TIP3    H215694   5.504   5.460   0.611
 5230TIP3   OH215695   1.984   4.147   4.299
 5230TIP3    H115696   1.991   4.123   4.207
 5230TIP3    H215697   1.907   4.099   4.330
 5231TIP3   OH215698   0.074   0.653   3.433
 5231TIP3    H115699   0.153   0.618   3.391
 5231TIP3    H215700   0.032   0.706   3.365
 5232TIP3   OH215701   1.845   0.515   4.084
 5232TIP3    H115702   1.819   0.580   4.019
 5232TIP3    H215703   1.770   0.454   4.088
 5233TIP3   OH215704   2.466   4.621   0.076
 5233TIP3    H115705   2.390   4.671   0.104
 5233TIP3    H215706   2.429   4.540   0.039
 5234TIP3   OH215707   2.453   1.784   3.563
 5234TIP3    H115708   2.406   1.865   3.581
 5234TIP3    H215709   2.384   1.719   3.548
 5235TIP3   OH215710   5.654   5.800   1.200
 5235TIP3    H115711   5.620   5.715   1.174
 5235TIP3    H215712   5.709   5.782   1.276
 5236TIP3   OH215713   2.166   0.338   3.307
 5236TIP3    H115714   2.113   0.390   3.245
 5236TIP3    H215715   2.178   0.395   3.383
 5237TIP3   OH215716   1.855   1.924   0.284
 5237TIP3    H115717   1.883   1.877   0.363
 5237TIP3    H215718   1.767   1.889   0.265
 5238TIP3   OH215719   4.458   2.344   2.353
 5238TIP3    H115720   4.400   2.296   2.411
 5238TIP3    H215721   4.453   2.435   2.384
 5239TIP3   OH215722   1.159   3.863   0.569
 5239TIP3    H115723   1.144   3.770   0.581
 5239TIP3    H215724   1.242   3.868   0.521
 5240TIP3   OH215725   4.570   4.726   4.696
 5240TIP3    H115726   4.508   4.653   4.689
 5240TIP3    H215727   4.655   4.685   4.710
 5241TIP3   OH215728   0.171   2.694   4.223
 5241TIP3    H115729   0.152   2.601   4.209
 5241TIP3    H215730   0.170   2.704   4.318
 5242TIP3   OH215731   0.194   3.286   4.917
 5242TIP3    H115732   0.123   3.314   4.974
 5242TIP3    H215733   0.153   3.272   4.832
 5243TIP3   OH215734   3.438   5.405   3.553
 5243TIP3    H115735   3.416   5.330   3.498
 5243TIP3    H215736   3.382   5.396   3.630
 5244TIP3   OH215737   5.283   4.131   2.593
 5244TIP3    H115738   5.258   4.175   2.512
 5244TIP3    H215739   5.211   4.071   2.611
 5245TIP3   OH215740   1.893   0.474   1.277
 5245TIP3    H115741   1.928   0.554   1.316
 5245TIP3    H215742   1.833   0.439   1.343
 5246TIP3   OH215743   0.629   2.728   4.705
 5246TIP3    H115744   0.599   2.695   4.790
 5246TIP3    H215745   0.617   2.655   4.645
 5247TIP3   OH215746   2.492   0.225   0.277
 5247TIP3    H115747   2.480   0.317   0.302
 5247TIP3    H215748   2.416   0.180   0.314
 5248TIP3   OH215749   3.895   5.948   4.108
 5248TIP3    H115750   3.878   5.917   4.019
 5248TIP3    H215751   3.841   6.026   4.117
 5249TIP3   OH215752   0.703   2.257   0.476
 5249TIP3    H115753   0.675   2.347   0.462
 5249TIP3    H215754   0.763   2.262   0.551
 5250TIP3   OH215755   6.086   2.965   5.028
 5250TIP3    H115756   6.171   2.976   4.985
 5250TIP3    H215757   6.094   2.882   5.076
 5251TIP3   OH215758   6.137   0.634   3.062
 5251TIP3    H115759   6.051   0.596   3.080
 5251TIP3    H215760   6.143   0.635   2.967
 5252TIP3   OH215761   4.406   3.159   2.444
 5252TIP3    H115762   4.390   3.150   2.350
 5252TIP3    H215763   4.502   3.166   2.451
 5253TIP3   OH215764   4.106   0.738   2.226
 5253TIP3    H115765   4.188   0.785   2.213
 5253TIP3    H215766   4.055   0.757   2.147
 5254TIP3   OH215767   0.258   5.907   4.895
 5254TIP3    H115768   0.168   5.935   4.912
 5254TIP3    H215769   0.274   5.837   4.958
 5255TIP3   OH215770   1.630   1.324   4.087
 5255TIP3    H115771   1.639   1.416   4.110
 5255TIP3    H215772   1.720   1.294   4.072
 5256TIP3   OH215773   0.231   0.112   0.275
 5256TIP3    H115774   0.316   0.141   0.305
 5256TIP3    H215775   0.246   0.078   0.187
 5257TIP3   OH215776   5.420   0.441   4.388
 5257TIP3    H115777   5.384   0.355   4.369
 5257TIP3    H215778   5.486   0.426   4.455
 5258TIP3   OH215779   2.360   3.806   2.539
 5258TIP3    H115780   2.437   3.801   2.481
 5258TIP3    H215781   2.302   3.737   2.507
 5259TIP3   OH215782   6.068   0.607   2.763
 5259TIP3    H115783   6.107   0.540   2.707
 5259TIP3    H215784   5.981   0.572   2.784
 5260TIP3   OH215785   2.911   1.052   2.792
 5260TIP3    H115786   2.908   1.128   2.849
 5260TIP3    H215787   2.851   0.989   2.833
 5261TIP3   OH215788   4.269   0.940   3.879
 5261TIP3    H115789   4.351   0.981   3.908
 5261TIP3    H215790   4.213   0.939   3.957
 5262TIP3   OH215791   4.823   2.872   4.963
 5262TIP3    H115792   4.907   2.829   4.982
 5262TIP3    H215793   4.767   2.849   5.036
 5263TIP3   OH215794   1.731   1.065   1.559
 5263TIP3    H115795   1.705   1.157   1.559
 5263TIP3    H215796   1.698   1.031   1.476
 5264TIP3   OH215797   1.366   3.746   3.440
 5264TIP3    H115798   1.310   3.820   3.465
 5264TIP3    H215799   1.385   3.702   3.523
 5265TIP3   OH215800   4.300   5.915   2.681
 5265TIP3    H115801   4.250   5.939   2.603
 5265TIP3    H215802   4.255   5.960   2.753
 5266TIP3   OH215803   0.914   4.490   2.769
 5266TIP3    H115804   0.834   4.524   2.808
 5266TIP3    H215805   0.965   4.457   2.843
 5267TIP3   OH215806   2.938   3.038   1.988
 5267TIP3    H115807   2.949   3.094   2.065
 5267TIP3    H215808   3.015   2.981   1.988
 5268TIP3   OH215809   0.461   0.204   3.377
 5268TIP3    H115810   0.373   0.179   3.403
 5268TIP3    H215811   0.475   0.161   3.293
 5269TIP3   OH215812   2.987   0.231   2.126
 5269TIP3    H115813   2.906   0.184   2.145
 5269TIP3    H215814   2.958   0.322   2.112
 5270TIP3   OH215815   0.859   5.063   0.016
 5270TIP3    H115816   0.845   5.066   0.110
 5270TIP3    H215817   0.771   5.065  -0.021
 5271TIP3   OH215818   0.094   2.710   3.432
 5271TIP3    H115819   0.102   2.797   3.393
 5271TIP3    H215820   0.175   2.698   3.480
 5272TIP3   OH215821   5.343   2.139   1.243
 5272TIP3    H115822   5.359   2.123   1.336
 5272TIP3    H215823   5.283   2.070   1.216
 5273TIP3   OH215824   5.480   0.926   3.771
 5273TIP3    H115825   5.509   0.924   3.680
 5273TIP3    H215826   5.421   1.001   3.777
 5274TIP3   OH215827   3.669   5.050   1.606
 5274TIP3    H115828   3.669   5.117   1.674
 5274TIP3    H215829   3.594   5.072   1.551
 5275TIP3   OH215830   3.593   3.731   0.234
 5275TIP3    H115831   3.529   3.720   0.304
 5275TIP3    H215832   3.633   3.816   0.250
 5276TIP3   OH215833   2.339   3.105   3.233
 5276TIP3    H115834   2.326   3.200   3.230
 5276TIP3    H215835   2.349   3.079   3.142
 5277TIP3   OH215836   2.515   2.468   4.566
 5277TIP3    H115837   2.448   2.399   4.570
 5277TIP3    H215838   2.597   2.422   4.584
 5278TIP3   OH215839   0.818   4.966   1.030
 5278TIP3    H115840   0.829   4.873   1.051
 5278TIP3    H215841   0.727   4.985   1.051
 5279TIP3   OH215842   1.939   4.900   1.957
 5279TIP3    H115843   1.851   4.875   1.982
 5279TIP3    H215844   1.980   4.818   1.927
 5280TIP3   OH215845   5.343   3.674   1.462
 5280TIP3    H115846   5.305   3.669   1.374
 5280TIP3    H215847   5.272   3.705   1.517
 5281TIP3   OH215848   1.370   2.526   1.245
 5281TIP3    H115849   1.288   2.488   1.215
 5281TIP3    H215850   1.348   2.570   1.327
 5282TIP3   OH215851  -0.014   1.256   4.355
 5282TIP3    H115852   0.059   1.240   4.415
 5282TIP3    H215853  -0.004   1.189   4.287
 5283TIP3   OH215854   1.841   0.724   5.120
 5283TIP3    H115855   1.802   0.643   5.088
 5283TIP3    H215856   1.786   0.793   5.083
 5284TIP3   OH215857   1.917   2.526   4.629
 5284TIP3    H115858   1.840   2.493   4.674
 5284TIP3    H215859   1.925   2.470   4.552
 5285TIP3   OH215860   0.885   2.995   2.653
 5285TIP3    H115861   0.906   3.074   2.603
 5285TIP3    H215862   0.816   2.952   2.603
 5286TIP3   OH215863   3.591   4.119   2.876
 5286TIP3    H115864   3.681   4.120   2.908
 5286TIP3    H215865   3.564   4.211   2.880
 5287TIP3   OH215866   4.485   4.498   2.099
 5287TIP3    H115867   4.398   4.499   2.139
 5287TIP3    H215868   4.493   4.583   2.056
 5288TIP3   OH215869   1.769   4.016   4.500
 5288TIP3    H115870   1.705   3.987   4.436
 5288TIP3    H215871   1.721   4.021   4.582
 5289TIP3   OH215872   5.276   5.031   1.172
 5289TIP3    H115873   5.263   4.941   1.142
 5289TIP3    H215874   5.361   5.029   1.216
 5290TIP3   OH215875   1.212   5.862   1.837
 5290TIP3    H115876   1.242   5.802   1.905
 5290TIP3    H215877   1.180   5.939   1.885
 5291TIP3   OH215878   5.907   0.982   1.855
 5291TIP3    H115879   5.919   0.948   1.766
 5291TIP3    H215880   5.960   0.923   1.910
 5292TIP3   OH215881   5.914   1.564   3.602
 5292TIP3    H115882   5.917   1.511   3.681
 5292TIP3    H215883   5.850   1.519   3.546
 5293TIP3   OH215884   3.899   1.596   3.654
 5293TIP3    H115885   3.952   1.663   3.610
 5293TIP3    H215886   3.895   1.625   3.745
 5294TIP3   OH215887   3.799   2.591   1.512
 5294TIP3    H115888   3.881   2.553   1.481
 5294TIP3    H215889   3.738   2.517   1.515
 5295TIP3   OH215890   1.648   4.201   1.858
 5295TIP3    H115891   1.675   4.134   1.795
 5295TIP3    H215892   1.586   4.256   1.810
 5296TIP3   OH215893   4.467   0.647   4.546
 5296TIP3    H115894   4.502   0.559   4.560
 5296TIP3    H215895   4.409   0.638   4.470
 5297TIP3   OH215896   3.837   3.626   4.454
 5297TIP3    H115897   3.930   3.640   4.474
 5297TIP3    H215898   3.794   3.707   4.483
 5298TIP3   OH215899   4.042   0.861   1.474
 5298TIP3    H115900   4.052   0.788   1.535
 5298TIP3    H215901   4.050   0.939   1.529
 5299TIP3   OH215902   1.846   0.326   3.334
 5299TIP3    H115903   1.864   0.409   3.378
 5299TIP3    H215904   1.762   0.340   3.289
 5300TIP3   OH215905   0.812   5.200   4.257
 5300TIP3    H115906   0.762   5.275   4.226
 5300TIP3    H215907   0.781   5.186   4.347
 5301TIP3   OH215908   5.838   5.892   2.181
 5301TIP3    H115909   5.854   5.968   2.124
 5301TIP3    H215910   5.909   5.896   2.246
 5302TIP3   OH215911   2.729   3.614   3.379
 5302TIP3    H115912   2.703   3.585   3.291
 5302TIP3    H215913   2.799   3.677   3.364
 5303TIP3   OH215914   1.267   0.410   3.912
 5303TIP3    H115915   1.235   0.322   3.890
 5303TIP3    H215916   1.196   0.468   3.885
 5304TIP3   OH215917   3.690   0.345   2.012
 5304TIP3    H115918   3.710   0.258   2.047
 5304TIP3    H215919   3.639   0.328   1.933
 5305TIP3   OH215920   4.389   2.389   4.945
 5305TIP3    H115921   4.366   2.403   4.853
 5305TIP3    H215922   4.306   2.370   4.988
 5306TIP3   OH215923   4.546   3.573   0.553
 5306TIP3    H115924   4.474   3.636   0.548
 5306TIP3    H215925   4.625   3.624   0.535
 5307TIP3   OH215926   5.348   2.956   0.895
 5307TIP3    H115927   5.275   2.894   0.892
 5307TIP3    H215928   5.319   3.028   0.840
 5308TIP3   OH215929   4.437   4.374   1.310
 5308TIP3    H115930   4.509   4.367   1.247
 5308TIP3    H215931   4.389   4.292   1.300
 5309TIP3   OH215932   1.733   5.686   0.671
 5309TIP3    H115933   1.779   5.724   0.596
 5309TIP3    H215934   1.659   5.639   0.632
 5310TIP3   OH215935   3.580   1.610   1.182
 5310TIP3    H115936   3.619   1.538   1.133
 5310TIP3    H215937   3.522   1.654   1.120
 5311TIP3   OH215938   1.381   5.820   5.082
 5311TIP3    H115939   1.353   5.749   5.025
 5311TIP3    H215940   1.308   5.882   5.080
 5312TIP3   OH215941   0.284   3.970   4.252
 5312TIP3    H115942   0.283   3.971   4.347
 5312TIP3    H215943   0.218   3.905   4.227
 5313TIP3   OH215944   4.978   5.520   2.183
 5313TIP3    H115945   4.983   5.575   2.105
 5313TIP3    H215946   4.981   5.431   2.150
 5314TIP3   OH215947   2.213   5.222   4.369
 5314TIP3    H115948   2.259   5.218   4.286
 5314TIP3    H215949   2.272   5.182   4.432
 5315TIP3   OH215950   1.369   0.075   1.556
 5315TIP3    H115951   1.334  -0.002   1.511
 5315TIP3    H215952   1.293   0.113   1.600
 5316TIP3   OH215953   3.342   5.833   4.496
 5316TIP3    H115954   3.385   5.913   4.524
 5316TIP3    H215955   3.251   5.843   4.524
 5317TIP3   OH215956   0.268   2.836   0.851
 5317TIP3    H115957   0.331   2.788   0.905
 5317TIP3    H215958   0.206   2.873   0.913
 5318TIP3   OH215959   0.200   5.643   3.669
 5318TIP3    H115960   0.148   5.624   3.591
 5318TIP3    H215961   0.138   5.637   3.741
 5319TIP3   OH215962   3.151   5.549   2.118
 5319TIP3    H115963   3.137   5.599   2.198
 5319TIP3    H215964   3.245   5.533   2.115
 5320TIP3   OH215965   3.448   4.841   3.106
 5320TIP3    H115966   3.412   4.776   3.167
 5320TIP3    H215967   3.448   4.922   3.156
 5321TIP3   OH215968   4.109   1.190   1.844
 5321TIP3    H115969   4.200   1.173   1.868
 5321TIP3    H215970   4.069   1.222   1.925
 5322TIP3   OH215971   3.302   4.155   1.774
 5322TIP3    H115972   3.341   4.222   1.832
 5322TIP3    H215973   3.372   4.091   1.761
 5323TIP3   OH215974   6.287   5.743   4.239
 5323TIP3    H115975   6.224   5.693   4.186
 5323TIP3    H215976   6.365   5.687   4.241
 5324TIP3   OH215977   0.634   2.847   0.759
 5324TIP3    H115978   0.595   2.888   0.682
 5324TIP3    H215979   0.678   2.768   0.725
 5325TIP3   OH215980   1.169   5.636   0.796
 5325TIP3    H115981   1.245   5.587   0.763
 5325TIP3    H215982   1.093   5.589   0.761
 5326TIP3   OH215983   2.334   1.890   0.127
 5326TIP3    H115984   2.292   1.888   0.041
 5326TIP3    H215985   2.401   1.822   0.123
 5327TIP3   OH215986   5.548   4.784   4.263
 5327TIP3    H115987   5.621   4.723   4.266
 5327TIP3    H215988   5.565   4.845   4.334
 5328TIP3   OH215989   4.390   3.481   0.294
 5328TIP3    H115990   4.305   3.471   0.251
 5328TIP3    H215991   4.380   3.558   0.350
 5329TIP3   OH215992   0.723   2.344   0.079
 5329TIP3    H115993   0.806   2.389   0.069
 5329TIP3    H215994   0.740   2.274   0.143
 5330TIP3   OH215995   0.662   1.713   4.735
 5330TIP3    H115996   0.716   1.780   4.777
 5330TIP3    H215997   0.589   1.699   4.795
 5331TIP3   OH215998   2.089   1.968   3.428
 5331TIP3    H115999   2.108   1.907   3.357
 5331TIP3    H216000   2.042   2.040   3.386
 5332TIP3   OH216001   4.592   0.886   4.477
 5332TIP3    H116002   4.572   0.933   4.558
 5332TIP3    H216003   4.574   0.795   4.497
 5333TIP3   OH216004   2.090   3.105   3.815
 5333TIP3    H116005   2.011   3.143   3.855
 5333TIP3    H216006   2.137   3.066   3.888
 5334TIP3   OH216007   2.364   1.802   4.664
 5334TIP3    H116008   2.387   1.710   4.655
 5334TIP3    H216009   2.301   1.818   4.594
 5335TIP3   OH216010   0.637   0.119   1.247
 5335TIP3    H116011   0.704   0.105   1.180
 5335TIP3    H216012   0.612   0.211   1.238
 5336TIP3   OH216013   0.325   1.034   5.022
 5336TIP3    H116014   0.249   0.976   5.012
 5336TIP3    H216015   0.361   1.011   5.108
 5337TIP3   OH216016   2.982   2.726   2.154
 5337TIP3    H116017   2.923   2.759   2.221
 5337TIP3    H216018   2.932   2.731   2.073
 5338TIP3   OH216019   0.909   1.038   1.598
 5338TIP3    H116020   0.952   1.037   1.684
 5338TIP3    H216021   0.966   0.986   1.542
 5339TIP3   OH216022   1.568   0.834   0.466
 5339TIP3    H116023   1.653   0.795   0.487
 5339TIP3    H216024   1.565   0.836   0.371
 5340TIP3   OH216025   1.684   1.131   0.449
 5340TIP3    H116026   1.622   1.063   0.423
 5340TIP3    H216027   1.630   1.210   0.459
 5341TIP3   OH216028   3.010   5.930   0.003
 5341TIP3    H116029   3.051   5.992  -0.058
 5341TIP3    H216030   3.066   5.932   0.081
 5342TIP3   OH216031   5.456   3.990   2.746
 5342TIP3    H116032   5.513   3.934   2.694
 5342TIP3    H216033   5.417   4.050   2.683
 5343TIP3   OH216034   5.098   4.202   0.090
 5343TIP3    H116035   5.157   4.179   0.019
 5343TIP3    H216036   5.067   4.290   0.068
 5344TIP3   OH216037   4.026   3.801   2.080
 5344TIP3    H116038   3.986   3.872   2.029
 5344TIP3    H216039   3.993   3.721   2.040
 5345TIP3   OH216040   1.174   1.211   2.662
 5345TIP3    H116041   1.188   1.128   2.616
 5345TIP3    H216042   1.147   1.272   2.593
 5346TIP3   OH216043   2.026   4.388   1.628
 5346TIP3    H116044   2.075   4.325   1.576
 5346TIP3    H216045   1.937   4.352   1.632
 5347TIP3   OH216046   6.036   4.377   5.025
 5347TIP3    H116047   6.046   4.459   5.073
 5347TIP3    H216048   5.946   4.349   5.042
 5348TIP3   OH216049   6.279   5.126   3.485
 5348TIP3    H116050   6.373   5.122   3.464
 5348TIP3    H216051   6.259   5.041   3.524
 5349TIP3   OH216052   1.202   3.255   2.991
 5349TIP3    H116053   1.293   3.266   2.964
 5349TIP3    H216054   1.158   3.219   2.914
 5350TIP3   OH216055   3.386   1.376   0.198
 5350TIP3    H116056   3.369   1.289   0.235
 5350TIP3    H216057   3.476   1.372   0.167
 5351TIP3   OH216058   2.702   1.972   5.018
 5351TIP3    H116059   2.667   2.005   5.101
 5351TIP3    H216060   2.797   1.978   5.028
 5352TIP3   OH216061   3.205   1.139   4.717
 5352TIP3    H116062   3.159   1.182   4.645
 5352TIP3    H216063   3.173   1.183   4.796
 5353TIP3   OH216064   2.514   0.711   4.270
 5353TIP3    H116065   2.589   0.754   4.312
 5353TIP3    H216066   2.526   0.726   4.176
 5354TIP3   OH216067   3.314   5.067   3.533
 5354TIP3    H116068   3.235   5.024   3.566
 5354TIP3    H216069   3.359   5.097   3.611
 5355TIP3   OH216070   2.066   4.790   3.265
 5355TIP3    H116071   2.042   4.864   3.209
 5355TIP3    H216072   2.034   4.814   3.352
 5356TIP3   OH216073   2.895   0.209   4.020
 5356TIP3    H116074   2.984   0.243   4.025
 5356TIP3    H216075   2.892   0.160   3.938
 5357TIP3   OH216076   1.023   3.276   0.628
 5357TIP3    H116077   0.967   3.230   0.565
 5357TIP3    H216078   1.103   3.225   0.631
 5358TIP3   OH216079   3.157   4.732   4.966
 5358TIP3    H116080   3.136   4.791   4.894
 5358TIP3    H216081   3.203   4.788   5.029
 5359TIP3   OH216082   5.029   1.071   1.411
 5359TIP3    H116083   5.061   1.139   1.470
 5359TIP3    H216084   5.001   1.000   1.469
 5360TIP3   OH216085   5.467   2.609   2.482
 5360TIP3    H116086   5.405   2.569   2.543
 5360TIP3    H216087   5.540   2.637   2.538
 5361TIP3   OH216088   2.709   1.809   4.808
 5361TIP3    H116089   2.644   1.741   4.827
 5361TIP3    H216090   2.709   1.865   4.885
 5362TIP3   OH216091   0.910   2.540   0.089
 5362TIP3    H116092   1.004   2.555   0.082
 5362TIP3    H216093   0.873   2.584   0.011
 5363TIP3   OH216094   1.695   5.446   3.169
 5363TIP3    H116095   1.743   5.528   3.160
 5363TIP3    H216096   1.613   5.470   3.211
 5364TIP3   OH216097   5.644   2.421   3.322
 5364TIP3    H116098   5.567   2.369   3.344
 5364TIP3    H216099   5.608   2.505   3.292
 5365TIP3   OH216100   6.135   3.536   0.130
 5365TIP3    H116101   6.165   3.452   0.166
 5365TIP3    H216102   6.039   3.530   0.130
 5366TIP3   OH216103   3.681   0.808   2.782
 5366TIP3    H116104   3.731   0.729   2.798
 5366TIP3    H216105   3.589   0.779   2.778
 5367TIP3   OH216106   0.211   1.992   2.854
 5367TIP3    H116107   0.227   2.071   2.801
 5367TIP3    H216108   0.175   1.929   2.793
 5368TIP3   OH216109   6.337   5.026   0.130
 5368TIP3    H116110   6.357   4.933   0.130
 5368TIP3    H216111   6.242   5.031   0.141
 5369TIP3   OH216112   0.429   4.638   0.537
 5369TIP3    H116113   0.341   4.600   0.538
 5369TIP3    H216114   0.439   4.678   0.623
 5370TIP3   OH216115   3.578   1.824   3.684
 5370TIP3    H116116   3.610   1.833   3.774
 5370TIP3    H216117   3.486   1.797   3.694
 5371TIP3   OH216118   4.512   3.397   5.061
 5371TIP3    H116119   4.524   3.481   5.107
 5371TIP3    H216120   4.581   3.396   4.995
 5372TIP3   OH216121   0.195   2.003   2.044
 5372TIP3    H116122   0.104   1.975   2.046
 5372TIP3    H216123   0.239   1.940   1.987
 5373TIP3   OH216124   5.976   0.315   2.707
 5373TIP3    H116125   5.977   0.311   2.803
 5373TIP3    H216126   5.888   0.287   2.683
 5374TIP3   OH216127   0.683   3.317   5.160
 5374TIP3    H116128   0.659   3.304   5.068
 5374TIP3    H216129   0.625   3.258   5.208
 5375TIP3   OH216130   0.601   0.661   2.993
 5375TIP3    H116131   0.626   0.580   2.950
 5375TIP3    H216132   0.550   0.709   2.927
 5376TIP3   OH216133   0.110   2.294   4.502
 5376TIP3    H116134   0.113   2.351   4.425
 5376TIP3    H216135   0.098   2.206   4.465
 5377TIP3   OH216136   3.221   0.908   0.296
 5377TIP3    H116137   3.182   0.883   0.213
 5377TIP3    H216138   3.256   0.827   0.332
 5378TIP3   OH216139   1.205   4.267   4.741
 5378TIP3    H116140   1.196   4.356   4.707
 5378TIP3    H216141   1.248   4.278   4.826
 5379TIP3   OH216142   4.593   2.451   4.302
 5379TIP3    H116143   4.672   2.398   4.304
 5379TIP3    H216144   4.564   2.456   4.393
 5380TIP3   OH216145   3.475   0.288   2.301
 5380TIP3    H116146   3.568   0.289   2.281
 5380TIP3    H216147   3.446   0.378   2.287
 5381TIP3   OH216148   6.319   5.629   5.041
 5381TIP3    H116149   6.300   5.536   5.024
 5381TIP3    H216150   6.278   5.676   4.969
 5382TIP3   OH216151   0.085   3.180   1.595
 5382TIP3    H116152   0.035   3.178   1.676
 5382TIP3    H216153   0.029   3.227   1.533
 5383TIP3   OH216154   0.337   4.889   2.997
 5383TIP3    H116155   0.406   4.949   2.968
 5383TIP3    H216156   0.381   4.827   3.055
 5384TIP3   OH216157   1.980   5.224   3.730
 5384TIP3    H116158   2.042   5.256   3.664
 5384TIP3    H216159   1.924   5.299   3.750
 5385TIP3   OH216160   4.206   0.407   3.609
 5385TIP3    H116161   4.289   0.451   3.591
 5385TIP3    H216162   4.158   0.467   3.666
 5386TIP3   OH216163   4.559   3.693   3.683
 5386TIP3    H116164   4.634   3.704   3.626
 5386TIP3    H216165   4.580   3.615   3.735
 5387TIP3   OH216166   3.736   1.133   1.964
 5387TIP3    H116167   3.700   1.048   1.989
 5387TIP3    H216168   3.721   1.188   2.041
 5388TIP3   OH216169   0.261   4.078   1.319
 5388TIP3    H116170   0.326   4.148   1.312
 5388TIP3    H216171   0.189   4.116   1.370
 5389TIP3   OH216172   5.429   2.618   5.095
 5389TIP3    H116173   5.404   2.536   5.136
 5389TIP3    H216174   5.349   2.670   5.094
 5390TIP3   OH216175   4.303   3.883   2.072
 5390TIP3    H116176   4.208   3.871   2.076
 5390TIP3    H216177   4.336   3.850   2.155
 5391TIP3   OH216178   3.799   4.772   0.541
 5391TIP3    H116179   3.764   4.718   0.612
 5391TIP3    H216180   3.826   4.709   0.474
 5392TIP3   OH216181   2.317   4.850   4.104
 5392TIP3    H116182   2.228   4.832   4.136
 5392TIP3    H216183   2.305   4.881   4.014
 5393TIP3   OH216184   3.886   4.212   0.641
 5393TIP3    H116185   3.954   4.263   0.597
 5393TIP3    H216186   3.809   4.269   0.639
 5394TIP3   OH216187   2.787   5.898   1.177
 5394TIP3    H116188   2.852   5.930   1.115
 5394TIP3    H216189   2.715   5.867   1.122
 5395TIP3   OH216190   4.763   4.697   0.823
 5395TIP3    H116191   4.797   4.743   0.900
 5395TIP3    H216192   4.836   4.644   0.792
 5396TIP3   OH216193   1.234   1.743   0.583
 5396TIP3    H116194   1.190   1.709   0.505
 5396TIP3    H216195   1.173   1.726   0.654
 5397TIP3   OH216196   2.523   3.254   2.920
 5397TIP3    H116197   2.436   3.224   2.895
 5397TIP3    H216198   2.527   3.344   2.888
 5398TIP3   OH216199   2.723   2.304   4.652
 5398TIP3    H116200   2.782   2.379   4.653
 5398TIP3    H216201   2.769   2.237   4.603
 5399TIP3   OH216202   4.949   3.876   1.067
 5399TIP3    H116203   4.887   3.804   1.057
 5399TIP3    H216204   4.929   3.914   1.152
 5400TIP3   OH216205   0.869   0.101   1.083
 5400TIP3    H116206   0.939   0.060   1.033
 5400TIP3    H216207   0.876   0.194   1.061
 5401TIP3   OH216208   4.663   2.626   4.939
 5401TIP3    H116209   4.620   2.668   5.013
 5401TIP3    H216210   4.601   2.636   4.867
 5402TIP3   OH216211   5.003   0.876   3.884
 5402TIP3    H116212   5.061   0.810   3.846
 5402TIP3    H216213   5.062   0.943   3.918
 5403TIP3   OH216214   2.745   5.226   3.701
 5403TIP3    H116215   2.680   5.285   3.739
 5403TIP3    H216216   2.824   5.240   3.753
 5404TIP3   OH216217   5.458   0.893   1.889
 5404TIP3    H116218   5.546   0.876   1.923
 5404TIP3    H216219   5.473   0.951   1.814
 5405TIP3   OH216220   5.054   4.536   0.306
 5405TIP3    H116221   5.132   4.506   0.260
 5405TIP3    H216222   5.012   4.598   0.246
 5406TIP3   OH216223   0.999   4.344   0.273
 5406TIP3    H116224   1.040   4.424   0.306
 5406TIP3    H216225   0.962   4.302   0.351
 5407TIP3   OH216226   5.335   5.384   1.115
 5407TIP3    H116227   5.326   5.391   1.210
 5407TIP3    H216228   5.247   5.362   1.084
 5408TIP3   OH216229   2.878   3.345   2.208
 5408TIP3    H116230   2.931   3.267   2.191
 5408TIP3    H216231   2.925   3.416   2.164
 5409TIP3   OH216232   3.906   4.029   1.951
 5409TIP3    H116233   3.961   4.066   1.882
 5409TIP3    H216234   3.816   4.045   1.922
 5410TIP3   OH216235   3.379   3.199   0.846
 5410TIP3    H116236   3.347   3.220   0.758
 5410TIP3    H216237   3.306   3.220   0.904
 5411TIP3   OH216238   3.388   3.378   5.138
 5411TIP3    H116239   3.333   3.332   5.075
 5411TIP3    H216240   3.346   3.364   5.223
 5412TIP3   OH216241   6.193   5.294   0.242
 5412TIP3    H116242   6.128   5.337   0.186
 5412TIP3    H216243   6.183   5.338   0.327
 5413TIP3   OH216244   3.853   0.022   3.535
 5413TIP3    H116245   3.842  -0.061   3.581
 5413TIP3    H216246   3.764   0.053   3.519
 5414TIP3   OH216247   3.384   5.628   3.839
 5414TIP3    H116248   3.468   5.666   3.864
 5414TIP3    H216249   3.399   5.534   3.838
 5415TIP3   OH216250   0.046   4.263   0.246
 5415TIP3    H116251  -0.029   4.276   0.188
 5415TIP3    H216252   0.065   4.169   0.240
 5416TIP3   OH216253   3.152   1.552   4.944
 5416TIP3    H116254   3.195   1.495   5.008
 5416TIP3    H216255   3.212   1.553   4.869
 5417TIP3   OH216256   4.417   3.879   3.127
 5417TIP3    H116257   4.407   3.810   3.062
 5417TIP3    H216258   4.489   3.933   3.094
 5418TIP3   OH216259   2.161   5.701   1.099
 5418TIP3    H116260   2.143   5.606   1.095
 5418TIP3    H216261   2.116   5.736   1.022
 5419TIP3   OH216262   5.648   2.587   3.028
 5419TIP3    H116263   5.729   2.537   3.037
 5419TIP3    H216264   5.613   2.561   2.943
 5420TIP3   OH216265   5.345   1.995   0.455
 5420TIP3    H116266   5.275   1.932   0.470
 5420TIP3    H216267   5.299   2.077   0.436
 5421TIP3   OH216268   0.466   2.611   2.205
 5421TIP3    H116269   0.389   2.643   2.252
 5421TIP3    H216270   0.472   2.518   2.228
 5422TIP3   OH216271   6.228   5.933   3.651
 5422TIP3    H116272   6.313   5.895   3.631
 5422TIP3    H216273   6.205   5.985   3.574
 5423TIP3   OH216274   1.908   3.241   1.789
 5423TIP3    H116275   1.895   3.181   1.716
 5423TIP3    H216276   1.969   3.195   1.847
 5424TIP3   OH216277   3.678   1.211   0.051
 5424TIP3    H116278   3.641   1.136   0.099
 5424TIP3    H216279   3.683   1.280   0.117
 5425TIP3   OH216280   5.717   0.853   0.681
 5425TIP3    H116281   5.643   0.896   0.723
 5425TIP3    H216282   5.794   0.898   0.716
 5426TIP3   OH216283   0.115   3.143   1.908
 5426TIP3    H116284   0.199   3.170   1.871
 5426TIP3    H216285   0.064   3.224   1.914
 5427TIP3   OH216286   3.690   2.342   0.272
 5427TIP3    H116287   3.723   2.260   0.309
 5427TIP3    H216288   3.680   2.400   0.348
 5428TIP3   OH216289   2.545   3.095   5.014
 5428TIP3    H116290   2.631   3.137   5.014
 5428TIP3    H216291   2.536   3.059   4.926
 5429TIP3   OH216292   2.091   0.209   1.413
 5429TIP3    H116293   2.127   0.127   1.379
 5429TIP3    H216294   2.029   0.181   1.481
 5430TIP3   OH216295   5.826   3.283   3.873
 5430TIP3    H116296   5.909   3.256   3.832
 5430TIP3    H216297   5.851   3.344   3.941
 5431TIP3   OH216298   0.036   2.055   3.894
 5431TIP3    H116299   0.074   2.035   3.980
 5431TIP3    H216300   0.025   1.969   3.853
 5432TIP3   OH216301   0.142   4.244   3.865
 5432TIP3    H116302   0.201   4.171   3.883
 5432TIP3    H216303   0.062   4.203   3.833
 5433TIP3   OH216304   5.034   5.124   1.321
 5433TIP3    H116305   5.092   5.155   1.392
 5433TIP3    H216306   5.094   5.101   1.250
 5434TIP3   OH216307   3.785   5.876   1.514
 5434TIP3    H116308   3.834   5.957   1.499
 5434TIP3    H216309   3.701   5.891   1.471
 5435TIP3   OH216310   0.749   0.819   1.435
 5435TIP3    H116311   0.751   0.879   1.510
 5435TIP3    H216312   0.675   0.761   1.452
 5436TIP3   OH216313   4.784   4.242   0.561
 5436TIP3    H116314   4.783   4.161   0.510
 5436TIP3    H216315   4.877   4.264   0.569
 5437TIP3   OH216316   1.450   1.109   4.869
 5437TIP3    H116317   1.402   1.191   4.855
 5437TIP3    H216318   1.500   1.124   4.949
 5438TIP3   OH216319   4.896   5.121   3.756
 5438TIP3    H116320   4.959   5.085   3.819
 5438TIP3    H216321   4.912   5.073   3.675
 5439TIP3   OH216322   1.549   0.604   1.692
 5439TIP3    H116323   1.605   0.589   1.616
 5439TIP3    H216324   1.481   0.537   1.685
 5440TIP3   OH216325   5.183   0.228   0.032
 5440TIP3    H116326   5.092   0.256   0.043
 5440TIP3    H216327   5.196   0.159   0.098
 5441TIP3   OH216328   2.925   5.285   3.299
 5441TIP3    H116329   2.989   5.228   3.256
 5441TIP3    H216330   2.978   5.338   3.359
 5442TIP3   OH216331   2.438   0.618   0.043
 5442TIP3    H116332   2.460   0.591   0.133
 5442TIP3    H216333   2.469   0.708   0.037
 5443TIP3   OH216334   4.632   3.502   3.890
 5443TIP3    H116335   4.562   3.456   3.938
 5443TIP3    H216336   4.699   3.436   3.876
 5444TIP3   OH216337   5.250   1.457   0.934
 5444TIP3    H116338   5.164   1.442   0.973
 5444TIP3    H216339   5.254   1.552   0.921
 5445TIP3   OH216340   3.412   4.846   0.334
 5445TIP3    H116341   3.377   4.921   0.286
 5445TIP3    H216342   3.442   4.786   0.266
 5446TIP3   OH216343   3.401   4.317   1.989
 5446TIP3    H116344   3.356   4.255   2.047
 5446TIP3    H216345   3.471   4.353   2.043
 5447TIP3   OH216346   2.322   4.650   4.832
 5447TIP3    H116347   2.228   4.657   4.816
 5447TIP3    H216348   2.328   4.611   4.919
 5448TIP3   OH216349   2.234   0.714   2.174
 5448TIP3    H116350   2.162   0.726   2.236
 5448TIP3    H216351   2.208   0.765   2.097
 5449TIP3   OH216352   2.196   4.217   5.077
 5449TIP3    H116353   2.112   4.244   5.040
 5449TIP3    H216354   2.179   4.211   5.172
 5450TIP3   OH216355   4.762   3.191   3.638
 5450TIP3    H116356   4.781   3.205   3.730
 5450TIP3    H216357   4.840   3.148   3.603
 5451TIP3   OH216358   3.761   0.612   4.918
 5451TIP3    H116359   3.831   0.559   4.882
 5451TIP3    H216360   3.753   0.582   5.009
 5452TIP3   OH216361   2.492   1.716   4.377
 5452TIP3    H116362   2.405   1.714   4.415
 5452TIP3    H216363   2.480   1.753   4.290
 5453TIP3   OH216364   2.000   4.271   0.302
 5453TIP3    H116365   2.029   4.269   0.393
 5453TIP3    H216366   1.913   4.309   0.305
 5454TIP3   OH216367   1.016   3.495   4.750
 5454TIP3    H116368   0.949   3.468   4.812
 5454TIP3    H216369   0.968   3.535   4.678
 5455TIP3   OH216370   3.628   2.653   1.291
 5455TIP3    H116371   3.667   2.677   1.207
 5455TIP3    H216372   3.701   2.655   1.353
 5456TIP3   OH216373   6.320   2.731   3.840
 5456TIP3    H116374   6.333   2.825   3.856
 5456TIP3    H216375   6.407   2.698   3.819
 5457TIP3   OH216376   5.813   4.455   1.885
 5457TIP3    H116377   5.757   4.456   1.963
 5457TIP3    H216378   5.880   4.521   1.903
 5458TIP3   OH216379   2.326   5.161   2.276
 5458TIP3    H116380   2.299   5.074   2.306
 5458TIP3    H216381   2.420   5.152   2.258
 5459TIP3   OH216382   5.857   4.140   0.569
 5459TIP3    H116383   5.880   4.228   0.600
 5459TIP3    H216384   5.895   4.080   0.632
 5460TIP3   OH216385   0.588   0.909   3.590
 5460TIP3    H116386   0.530   0.984   3.578
 5460TIP3    H216387   0.551   0.862   3.665
 5461TIP3   OH216388   1.069   0.831   3.719
 5461TIP3    H116389   1.156   0.848   3.684
 5461TIP3    H216390   1.044   0.913   3.762
 5462TIP3   OH216391   6.172   3.198   1.783
 5462TIP3    H116392   6.109   3.197   1.855
 5462TIP3    H216393   6.121   3.227   1.707
 5463TIP3   OH216394   1.895   4.591   3.812
 5463TIP3    H116395   1.877   4.516   3.868
 5463TIP3    H216396   1.876   4.667   3.866
 5464TIP3   OH216397   2.781   4.387   3.131
 5464TIP3    H116398   2.731   4.452   3.181
 5464TIP3    H216399   2.846   4.438   3.083
 5465TIP3   OH216400   5.695   4.133   4.799
 5465TIP3    H116401   5.649   4.130   4.883
 5465TIP3    H216402   5.756   4.059   4.802
 5466TIP3   OH216403   5.811   1.729   1.228
 5466TIP3    H116404   5.762   1.647   1.232
 5466TIP3    H216405   5.747   1.797   1.251
 5467TIP3   OH216406   2.240   4.311   2.164
 5467TIP3    H116407   2.169   4.310   2.227
 5467TIP3    H216408   2.275   4.400   2.169
 5468TIP3   OH216409   4.622   4.637   4.325
 5468TIP3    H116410   4.651   4.613   4.412
 5468TIP3    H216411   4.628   4.556   4.274
 5469TIP3   OH216412   3.261   0.678   0.037
 5469TIP3    H116413   3.250   0.596  -0.010
 5469TIP3    H216414   3.266   0.653   0.129
 5470TIP3   OH216415   3.272   2.633   1.887
 5470TIP3    H116416   3.289   2.619   1.980
 5470TIP3    H216417   3.327   2.569   1.842
 5471TIP3   OH216418   2.043   5.890   3.171
 5471TIP3    H116419   2.050   5.936   3.087
 5471TIP3    H216420   2.011   5.957   3.232
 5472TIP3   OH216421   2.231   4.957   1.473
 5472TIP3    H116422   2.214   5.048   1.497
 5472TIP3    H216423   2.180   4.905   1.534
 5473TIP3   OH216424   3.002   5.573   4.265
 5473TIP3    H116425   2.921   5.608   4.302
 5473TIP3    H216426   3.032   5.641   4.204
 5474TIP3   OH216427   3.069   5.844   4.601
 5474TIP3    H116428   3.041   5.756   4.627
 5474TIP3    H216429   3.001   5.901   4.637
 5475TIP3   OH216430   5.597   2.170   2.947
 5475TIP3    H116431   5.619   2.078   2.935
 5475TIP3    H216432   5.667   2.204   3.003
 5476TIP3   OH216433   4.596   1.589   2.118
 5476TIP3    H116434   4.594   1.684   2.124
 5476TIP3    H216435   4.562   1.570   2.030
 5477TIP3   OH216436   1.267   4.559   4.109
 5477TIP3    H116437   1.206   4.491   4.138
 5477TIP3    H216438   1.329   4.514   4.052
 5478TIP3   OH216439   4.713   2.502   3.469
 5478TIP3    H116440   4.709   2.408   3.486
 5478TIP3    H216441   4.786   2.512   3.408
 5479TIP3   OH216442   4.544   1.082   2.903
 5479TIP3    H116443   4.558   0.988   2.915
 5479TIP3    H216444   4.530   1.116   2.991
 5480TIP3   OH216445   5.500   2.536   0.813
 5480TIP3    H116446   5.561   2.486   0.867
 5480TIP3    H216447   5.470   2.473   0.747
 5481TIP3   OH216448   1.552   2.357   2.949
 5481TIP3    H116449   1.464   2.320   2.954
 5481TIP3    H216450   1.596   2.323   3.027
 5482TIP3   OH216451   1.081   3.787   3.264
 5482TIP3    H116452   1.082   3.770   3.170
 5482TIP3    H216453   0.992   3.817   3.282
 5483TIP3   OH216454   5.215   1.105   1.227
 5483TIP3    H116455   5.235   1.162   1.301
 5483TIP3    H216456   5.134   1.061   1.251
 5484TIP3   OH216457   2.038   5.414   4.372
 5484TIP3    H116458   1.977   5.371   4.432
 5484TIP3    H216459   2.113   5.356   4.368
 5485TIP3   OH216460   5.026   2.303   0.453
 5485TIP3    H116461   5.038   2.276   0.362
 5485TIP3    H216462   5.053   2.226   0.504
 5486TIP3   OH216463   5.144   1.792   3.394
 5486TIP3    H116464   5.104   1.717   3.351
 5486TIP3    H216465   5.200   1.753   3.461
 5487TIP3   OH216466   3.141   0.712   3.924
 5487TIP3    H116467   3.222   0.668   3.900
 5487TIP3    H216468   3.078   0.642   3.940
 5488TIP3   OH216469   2.608   2.223   3.625
 5488TIP3    H116470   2.617   2.142   3.676
 5488TIP3    H216471   2.693   2.266   3.635
 5489TIP3   OH216472   0.871   1.766   2.961
 5489TIP3    H116473   0.813   1.841   2.945
 5489TIP3    H216474   0.920   1.756   2.879
 5490TIP3   OH216475   3.498   0.610   1.775
 5490TIP3    H116476   3.404   0.589   1.779
 5490TIP3    H216477   3.524   0.616   1.867
 5491TIP3   OH216478   1.058   0.980   4.995
 5491TIP3    H116479   1.094   0.906   5.045
 5491TIP3    H216480   0.965   0.960   4.986
 5492TIP3   OH216481   0.816   3.887   4.999
 5492TIP3    H116482   0.801   3.931   5.082
 5492TIP3    H216483   0.814   3.957   4.934
 5493TIP3   OH216484   2.053   0.258   2.830
 5493TIP3    H116485   2.069   0.177   2.781
 5493TIP3    H216486   2.140   0.292   2.850
 5494TIP3   OH216487   5.035   3.698   0.570
 5494TIP3    H116488   5.127   3.720   0.561
 5494TIP3    H216489   5.023   3.619   0.517
 5495TIP3   OH216490   6.146   2.852   0.255
 5495TIP3    H116491   6.237   2.826   0.249
 5495TIP3    H216492   6.101   2.775   0.289
 5496TIP3   OH216493   2.733   1.741   2.884
 5496TIP3    H116494   2.766   1.724   2.795
 5496TIP3    H216495   2.800   1.796   2.924
 5497TIP3   OH216496   4.832   4.283   4.806
 5497TIP3    H116497   4.778   4.344   4.755
 5497TIP3    H216498   4.802   4.196   4.779
 5498TIP3   OH216499   0.093   3.737   1.225
 5498TIP3    H116500   0.105   3.691   1.142
 5498TIP3    H216501   0.038   3.812   1.202
 5499TIP3   OH216502   3.556   0.364   3.405
 5499TIP3    H116503   3.624   0.414   3.450
 5499TIP3    H216504   3.583   0.364   3.313
 5500TIP3   OH216505   4.575   3.203   0.835
 5500TIP3    H116506   4.519   3.166   0.767
 5500TIP3    H216507   4.585   3.132   0.899
 5501TIP3   OH216508   3.613   1.932   0.777
 5501TIP3    H116509   3.594   2.016   0.735
 5501TIP3    H216510   3.668   1.954   0.852
 5502TIP3   OH216511   5.470   0.849   3.500
 5502TIP3    H116512   5.404   0.879   3.437
 5502TIP3    H216513   5.486   0.758   3.477
 5503TIP3   OH216514   5.086   2.692   2.978
 5503TIP3    H116515   5.115   2.697   3.069
 5503TIP3    H216516   5.031   2.770   2.966
 5504TIP3   OH216517   4.616   5.246   2.978
 5504TIP3    H116518   4.647   5.305   3.047
 5504TIP3    H216519   4.557   5.185   3.024
 5505TIP3   OH216520   5.772   5.721   3.768
 5505TIP3    H116521   5.737   5.737   3.855
 5505TIP3    H216522   5.696   5.728   3.710
 5506TIP3   OH216523   5.821   3.216   2.341
 5506TIP3    H116524   5.846   3.217   2.249
 5506TIP3    H216525   5.746   3.274   2.347
 5507TIP3   OH216526   4.389   3.934   4.345
 5507TIP3    H116527   4.368   3.953   4.436
 5507TIP3    H216528   4.385   3.838   4.339
 5508TIP3   OH216529   6.022   5.427   1.927
 5508TIP3    H116530   5.987   5.383   1.850
 5508TIP3    H216531   5.954   5.491   1.950
 5509TIP3   OH216532   0.235   5.122   1.039
 5509TIP3    H116533   0.322   5.086   1.058
 5509TIP3    H216534   0.216   5.094   0.950
 5510TIP3   OH216535   5.678   0.953   2.042
 5510TIP3    H116536   5.744   0.935   1.976
 5510TIP3    H216537   5.723   0.944   2.125
 5511TIP3   OH216538   0.434   0.629   1.248
 5511TIP3    H116539   0.511   0.674   1.211
 5511TIP3    H216540   0.440   0.540   1.215
 5512TIP3   OH216541   1.178   0.720   0.944
 5512TIP3    H116542   1.255   0.753   0.899
 5512TIP3    H216543   1.195   0.627   0.957
 5513TIP3   OH216544   3.226   4.230   4.921
 5513TIP3    H116545   3.188   4.203   4.837
 5513TIP3    H216546   3.183   4.313   4.940
 5514TIP3   OH216547   0.772   0.372   4.937
 5514TIP3    H116548   0.706   0.318   4.980
 5514TIP3    H216549   0.772   0.343   4.846
 5515TIP3   OH216550   2.390   1.772   4.129
 5515TIP3    H116551   2.311   1.719   4.123
 5515TIP3    H216552   2.405   1.805   4.040
 5516TIP3   OH216553   2.189   0.320   2.273
 5516TIP3    H116554   2.235   0.236   2.279
 5516TIP3    H216555   2.258   0.384   2.257
 5517TIP3   OH216556   4.463   3.448   1.894
 5517TIP3    H116557   4.478   3.521   1.834
 5517TIP3    H216558   4.543   3.395   1.888
 5518TIP3   OH216559   5.260   3.437   2.714
 5518TIP3    H116560   5.196   3.401   2.653
 5518TIP3    H216561   5.208   3.485   2.778
 5519TIP3   OH216562   2.920   1.381   1.082
 5519TIP3    H116563   2.913   1.447   1.013
 5519TIP3    H216564   2.829   1.362   1.105
 5520TIP3   OH216565   0.879   5.849   4.308
 5520TIP3    H116566   0.799   5.808   4.275
 5520TIP3    H216567   0.892   5.811   4.395
 5521TIP3   OH216568   1.173   3.294   2.410
 5521TIP3    H116569   1.247   3.237   2.389
 5521TIP3    H216570   1.209   3.358   2.471
 5522TIP3   OH216571   5.443   2.754   3.703
 5522TIP3    H116572   5.478   2.835   3.666
 5522TIP3    H216573   5.434   2.772   3.797
 5523TIP3   OH216574   5.733   3.280   0.926
 5523TIP3    H116575   5.755   3.201   0.976
 5523TIP3    H216576   5.736   3.252   0.835
 5524TIP3   OH216577   4.445   2.676   2.050
 5524TIP3    H116578   4.520   2.617   2.047
 5524TIP3    H216579   4.479   2.758   2.012
 5525TIP3   OH216580   3.962   1.096   4.162
 5525TIP3    H116581   3.994   1.050   4.084
 5525TIP3    H216582   3.933   1.181   4.128
 5526TIP3   OH216583   0.008   1.358   2.053
 5526TIP3    H116584   0.091   1.364   2.100
 5526TIP3    H216585   0.026   1.298   1.981
 5527TIP3   OH216586   5.944   2.032   0.123
 5527TIP3    H116587   5.857   2.033   0.163
 5527TIP3    H216588   5.999   1.988   0.188
 5528TIP3   OH216589   0.490   5.126   4.252
 5528TIP3    H116590   0.503   5.213   4.214
 5528TIP3    H216591   0.447   5.142   4.336
 5529TIP3   OH216592   2.853   2.169   1.659
 5529TIP3    H116593   2.903   2.187   1.738
 5529TIP3    H216594   2.872   2.077   1.639
 5530TIP3   OH216595   3.720   2.318   3.186
 5530TIP3    H116596   3.784   2.377   3.147
 5530TIP3    H216597   3.690   2.364   3.265
 5531TIP3   OH216598   3.131   3.728   0.750
 5531TIP3    H116599   3.159   3.700   0.663
 5531TIP3    H216600   3.079   3.807   0.735
 5532TIP3   OH216601   0.160   1.203   4.551
 5532TIP3    H116602   0.183   1.157   4.632
 5532TIP3    H216603   0.233   1.263   4.536
 5533TIP3   OH216604   2.251   4.361   0.327
 5533TIP3    H116605   2.303   4.395   0.254
 5533TIP3    H216606   2.175   4.321   0.286
 5534TIP3   OH216607   0.426   2.369   1.334
 5534TIP3    H116608   0.519   2.375   1.353
 5534TIP3    H216609   0.420   2.380   1.239
 5535TIP3   OH216610   1.057   2.936   1.164
 5535TIP3    H116611   0.998   3.006   1.137
 5535TIP3    H216612   1.018   2.899   1.243
 5536TIP3   OH216613   5.679   1.215   2.932
 5536TIP3    H116614   5.642   1.185   2.849
 5536TIP3    H216615   5.713   1.303   2.913
 5537TIP3   OH216616   6.225   2.608   4.250
 5537TIP3    H116617   6.207   2.699   4.272
 5537TIP3    H216618   6.169   2.589   4.175
 5538TIP3   OH216619   4.090   1.342   4.842
 5538TIP3    H116620   4.155   1.356   4.911
 5538TIP3    H216621   4.023   1.408   4.858
 5539TIP3   OH216622   4.487   4.229   3.637
 5539TIP3    H116623   4.539   4.217   3.717
 5539TIP3    H216624   4.434   4.150   3.630
 5540TIP3   OH216625   6.009   0.060   4.969
 5540TIP3    H116626   6.022   0.150   5.001
 5540TIP3    H216627   5.990   0.009   5.048
 5541TIP3   OH216628   4.925   5.519   1.012
 5541TIP3    H116629   4.891   5.466   1.085
 5541TIP3    H216630   4.953   5.455   0.947
 5542TIP3   OH216631   3.042   0.745   4.386
 5542TIP3    H116632   3.080   0.822   4.345
 5542TIP3    H216633   3.094   0.732   4.465
 5543TIP3   OH216634   6.158   2.047   1.050
 5543TIP3    H116635   6.220   1.977   1.071
 5543TIP3    H216636   6.073   2.010   1.070
 5544TIP3   OH216637   1.861   1.966   3.912
 5544TIP3    H116638   1.883   2.053   3.944
 5544TIP3    H216639   1.785   1.940   3.964
 5545TIP3   OH216640   1.126   0.027   0.344
 5545TIP3    H116641   1.039  -0.011   0.352
 5545TIP3    H216642   1.172  -0.003   0.423
 5546TIP3   OH216643   1.273   3.642   2.817
 5546TIP3    H116644   1.196   3.692   2.843
 5546TIP3    H216645   1.291   3.584   2.892
 5547TIP3   OH216646   5.659   0.642   0.860
 5547TIP3    H116647   5.715   0.712   0.827
 5547TIP3    H216648   5.605   0.684   0.927
 5548TIP3   OH216649   2.910   4.008   4.543
 5548TIP3    H116650   2.871   4.057   4.470
 5548TIP3    H216651   2.965   3.942   4.501
 5549TIP3   OH216652   1.025   3.300   3.207
 5549TIP3    H116653   0.937   3.304   3.169
 5549TIP3    H216654   1.084   3.295   3.131
 5550TIP3   OH216655   1.611   2.489   4.321
 5550TIP3    H116656   1.694   2.444   4.338
 5550TIP3    H216657   1.582   2.519   4.407
 5551TIP3   OH216658   3.298   3.907   0.264
 5551TIP3    H116659   3.316   3.896   0.171
 5551TIP3    H216660   3.349   3.838   0.307
 5552TIP3   OH216661   3.683   5.025   4.906
 5552TIP3    H116662   3.660   5.009   4.997
 5552TIP3    H216663   3.737   5.104   4.908
 5553TIP3   OH216664   3.385   3.435   2.629
 5553TIP3    H116665   3.476   3.409   2.614
 5553TIP3    H216666   3.390   3.501   2.698
 5554TIP3   OH216667   2.235   1.255   2.752
 5554TIP3    H116668   2.189   1.242   2.669
 5554TIP3    H216669   2.320   1.290   2.727
 5555TIP3   OH216670   2.162   5.351   3.558
 5555TIP3    H116671   2.236   5.410   3.567
 5555TIP3    H216672   2.132   5.363   3.468
 5556TIP3   OH216673   4.190   3.348   1.567
 5556TIP3    H116674   4.205   3.312   1.479
 5556TIP3    H216675   4.248   3.297   1.624
 5557TIP3   OH216676   0.466   5.378   2.015
 5557TIP3    H116677   0.376   5.397   1.989
 5557TIP3    H216678   0.515   5.376   1.933
 5558TIP3   OH216679   4.738   3.982   2.878
 5558TIP3    H116680   4.670   4.001   2.943
 5558TIP3    H216681   4.723   4.046   2.808
 5559TIP3   OH216682   0.884   3.391   0.839
 5559TIP3    H116683   0.935   3.337   0.779
 5559TIP3    H216684   0.824   3.440   0.782
 5560TIP3   OH216685   2.507   3.597   2.108
 5560TIP3    H116686   2.448   3.564   2.177
 5560TIP3    H216687   2.563   3.522   2.088
 5561TIP3   OH216688   0.415   3.582   3.647
 5561TIP3    H116689   0.404   3.489   3.628
 5561TIP3    H216690   0.424   3.624   3.562
 5562TIP3   OH216691   3.421   3.782   2.124
 5562TIP3    H116692   3.333   3.794   2.089
 5562TIP3    H216693   3.408   3.733   2.205
 5563TIP3   OH216694   1.672   4.912   2.054
 5563TIP3    H116695   1.622   4.860   1.991
 5563TIP3    H216696   1.644   5.002   2.039
 5564TIP3   OH216697   4.985   2.621   2.424
 5564TIP3    H116698   4.952   2.585   2.507
 5564TIP3    H216699   5.035   2.550   2.385
 5565TIP3   OH216700   2.555   2.453   1.566
 5565TIP3    H116701   2.620   2.431   1.499
 5565TIP3    H216702   2.474   2.413   1.536
 5566TIP3   OH216703   5.552   4.320   0.931
 5566TIP3    H116704   5.547   4.304   0.837
 5566TIP3    H216705   5.542   4.234   0.971
 5567TIP3   OH216706   2.914   0.132   4.827
 5567TIP3    H116707   2.839   0.093   4.783
 5567TIP3    H216708   2.886   0.221   4.848
 5568TIP3   OH216709   2.042   2.146   2.910
 5568TIP3    H116710   1.949   2.133   2.893
 5568TIP3    H216711   2.046   2.222   2.968
 5569TIP3   OH216712   4.458   1.440  -0.038
 5569TIP3    H116713   4.372   1.417  -0.003
 5569TIP3    H216714   4.518   1.428   0.036
 5570TIP3   OH216715   6.212   2.259   0.879
 5570TIP3    H116716   6.210   2.346   0.919
 5570TIP3    H216717   6.203   2.198   0.952
 5571TIP3   OH216718   2.379   2.998   3.788
 5571TIP3    H116719   2.308   2.980   3.850
 5571TIP3    H216720   2.431   2.917   3.788
 5572TIP3   OH216721   5.470   4.206   1.268
 5572TIP3    H116722   5.523   4.164   1.335
 5572TIP3    H216723   5.506   4.173   1.185
 5573TIP3   OH216724   4.959   1.355   4.272
 5573TIP3    H116725   4.930   1.269   4.303
 5573TIP3    H216726   5.028   1.381   4.332
 5574TIP3   OH216727   5.910   3.244   5.001
 5574TIP3    H116728   5.980   3.295   5.043
 5574TIP3    H216729   5.846   3.309   4.975
 5575TIP3   OH216730   5.912   5.286   2.138
 5575TIP3    H116731   5.960   5.306   2.058
 5575TIP3    H216732   5.979   5.263   2.202
 5576TIP3   OH216733   1.018   3.006   0.347
 5576TIP3    H116734   0.991   2.966   0.265
 5576TIP3    H216735   0.945   2.989   0.408
 5577TIP3   OH216736   0.663   1.302   1.132
 5577TIP3    H116737   0.667   1.228   1.070
 5577TIP3    H216738   0.605   1.271   1.201
 5578TIP3   OH216739   5.835   0.883   3.099
 5578TIP3    H116740   5.887   0.850   3.171
 5578TIP3    H216741   5.747   0.892   3.135
 5579TIP3   OH216742   1.803   2.406   2.046
 5579TIP3    H116743   1.742   2.337   2.019
 5579TIP3    H216744   1.832   2.380   2.134
 5580TIP3   OH216745   0.973   5.920   3.869
 5580TIP3    H116746   0.884   5.941   3.839
 5580TIP3    H216747   1.025   5.996   3.843
 5581TIP3   OH216748   0.458   2.657   3.195
 5581TIP3    H116749   0.520   2.628   3.129
 5581TIP3    H216750   0.493   2.622   3.277
 5582TIP3   OH216751   0.761   5.551   2.828
 5582TIP3    H116752   0.699   5.490   2.788
 5582TIP3    H216753   0.725   5.569   2.914
 5583TIP3   OH216754   2.491   3.881   1.424
 5583TIP3    H116755   2.434   3.884   1.500
 5583TIP3    H216756   2.431   3.870   1.350
 5584TIP3   OH216757   3.976   2.992   0.294
 5584TIP3    H116758   3.917   2.994   0.219
 5584TIP3    H216759   3.946   2.919   0.347
 5585TIP3   OH216760   1.021   3.186   1.646
 5585TIP3    H116761   1.059   3.127   1.710
 5585TIP3    H216762   0.937   3.211   1.684
 5586TIP3   OH216763   5.020   4.191   3.946
 5586TIP3    H116764   4.976   4.211   3.863
 5586TIP3    H216765   5.043   4.276   3.982
 5587TIP3   OH216766   2.212   4.518   3.391
 5587TIP3    H116767   2.302   4.490   3.403
 5587TIP3    H216768   2.211   4.559   3.304
 5588TIP3   OH216769   6.271   2.963   2.156
 5588TIP3    H116770   6.267   2.949   2.251
 5588TIP3    H216771   6.181   2.949   2.126
 5589TIP3   OH216772   0.530   5.663   1.685
 5589TIP3    H116773   0.464   5.719   1.644
 5589TIP3    H216774   0.515   5.673   1.779
 5590TIP3   OH216775   0.802   1.213   2.709
 5590TIP3    H116776   0.726   1.193   2.764
 5590TIP3    H216777   0.831   1.299   2.740
 5591TIP3   OH216778   5.879   2.340   1.803
 5591TIP3    H116779   5.842   2.417   1.759
 5591TIP3    H216780   5.964   2.328   1.761
 5592TIP3   OH216781   3.388   1.578   2.905
 5592TIP3    H116782   3.323   1.522   2.862
 5592TIP3    H216783   3.467   1.569   2.852
 5593TIP3   OH216784   2.346   5.383   2.117
 5593TIP3    H116785   2.339   5.302   2.168
 5593TIP3    H216786   2.377   5.354   2.031
 5594TIP3   OH216787   5.124   2.395   3.002
 5594TIP3    H116788   5.042   2.348   2.990
 5594TIP3    H216789   5.103   2.486   2.981
 5595TIP3   OH216790   4.748   1.872   0.367
 5595TIP3    H116791   4.768   1.954   0.413
 5595TIP3    H216792   4.822   1.815   0.389
 5596TIP3   OH216793   4.420   2.327   0.906
 5596TIP3    H116794   4.439   2.298   0.816
 5596TIP3    H216795   4.347   2.388   0.897
 5597TIP3   OH216796   5.284   2.509   0.431
 5597TIP3    H116797   5.233   2.546   0.359
 5597TIP3    H216798   5.282   2.415   0.418
 5598TIP3   OH216799   3.531   5.306   5.137
 5598TIP3    H116800   3.587   5.315   5.060
 5598TIP3    H216801   3.586   5.334   5.210
 5599TIP3   OH216802   2.387   0.508   5.097
 5599TIP3    H116803   2.436   0.548   5.168
 5599TIP3    H216804   2.426   0.421   5.088
 5600TIP3   OH216805   0.977   4.813   3.615
 5600TIP3    H116806   1.070   4.810   3.592
 5600TIP3    H216807   0.974   4.864   3.695
 5601TIP3   OH216808   1.493   2.660   2.125
 5601TIP3    H116809   1.569   2.703   2.085
 5601TIP3    H216810   1.452   2.612   2.053
 5602TIP3   OH216811   2.653   2.727   2.131
 5602TIP3    H116812   2.629   2.641   2.166
 5602TIP3    H216813   2.679   2.778   2.207
 5603TIP3   OH216814   6.215   4.181   1.916
 5603TIP3    H116815   6.180   4.104   1.960
 5603TIP3    H216816   6.245   4.150   1.831
 5604TIP3   OH216817   2.844   5.423   1.173
 5604TIP3    H116818   2.890   5.345   1.141
 5604TIP3    H216819   2.885   5.495   1.126
 5605TIP3   OH216820   1.091   3.060   3.334
 5605TIP3    H116821   1.182   3.040   3.314
 5605TIP3    H216822   1.074   3.145   3.294
 5606TIP3   OH216823   1.931   2.120   4.600
 5606TIP3    H116824   1.899   2.030   4.603
 5606TIP3    H216825   2.011   2.118   4.652
 5607TIP3   OH216826   3.578   4.999   1.113
 5607TIP3    H116827   3.534   5.027   1.033
 5607TIP3    H216828   3.618   5.079   1.147
 5608TIP3   OH216829   0.045   4.847   0.483
 5608TIP3    H116830   0.029   4.874   0.573
 5608TIP3    H216831  -0.025   4.783   0.465
 5609TIP3   OH216832   0.883   0.172   2.879
 5609TIP3    H116833   0.836   0.197   2.799
 5609TIP3    H216834   0.878   0.250   2.935
 5610TIP3   OH216835   1.772   2.154   0.520
 5610TIP3    H116836   1.732   2.068   0.533
 5610TIP3    H216837   1.741   2.207   0.594
 5611TIP3   OH216838   1.051   0.993   0.954
 5611TIP3    H116839   1.091   0.906   0.956
 5611TIP3    H216840   1.020   1.007   1.044
 5612TIP3   OH216841   6.350   3.406   1.830
 5612TIP3    H116842   6.294   3.470   1.873
 5612TIP3    H216843   6.289   3.341   1.795
 5613TIP3   OH216844   1.656   2.017   4.827
 5613TIP3    H116845   1.668   2.097   4.777
 5613TIP3    H216846   1.653   2.046   4.919
 5614TIP3   OH216847   3.516   4.144   0.600
 5614TIP3    H116848   3.487   4.133   0.510
 5614TIP3    H216849   3.533   4.237   0.609
 5615TIP3   OH216850   3.432   1.333   2.254
 5615TIP3    H116851   3.387   1.335   2.339
 5615TIP3    H216852   3.417   1.244   2.222
 5616TIP3   OH216853   1.262   3.974   2.109
 5616TIP3    H116854   1.244   3.905   2.173
 5616TIP3    H216855   1.241   4.055   2.155
 5617TIP3   OH216856   2.853   1.686   4.221
 5617TIP3    H116857   2.838   1.687   4.127
 5617TIP3    H216858   2.784   1.630   4.256
 5618TIP3   OH216859   3.281   3.586   3.372
 5618TIP3    H116860   3.232   3.552   3.447
 5618TIP3    H216861   3.273   3.518   3.305
 5619TIP3   OH216862   5.470   3.716   2.245
 5619TIP3    H116863   5.494   3.797   2.199
 5619TIP3    H216864   5.491   3.647   2.182
 5620TIP3   OH216865   1.998   0.410   4.898
 5620TIP3    H116866   1.977   0.404   4.804
 5620TIP3    H216867   2.031   0.499   4.909
 5621TIP3   OH216868   1.055   3.003   4.423
 5621TIP3    H116869   1.027   3.067   4.489
 5621TIP3    H216870   1.001   3.022   4.346
 5622TIP3   OH216871   4.815   2.566   0.202
 5622TIP3    H116872   4.758   2.502   0.244
 5622TIP3    H216873   4.846   2.622   0.274
 5623TIP3   OH216874   6.119   3.631   3.249
 5623TIP3    H116875   6.045   3.690   3.262
 5623TIP3    H216876   6.195   3.689   3.250
 5624TIP3   OH216877   4.423   5.663   3.629
 5624TIP3    H116878   4.516   5.680   3.621
 5624TIP3    H216879   4.406   5.590   3.570
 5625TIP3   OH216880   1.365   5.189   0.209
 5625TIP3    H116881   1.445   5.231   0.179
 5625TIP3    H216882   1.318   5.258   0.256
 5626TIP3   OH216883   5.273   0.762   4.166
 5626TIP3    H116884   5.360   0.723   4.161
 5626TIP3    H216885   5.285   0.842   4.216
 5627TIP3   OH216886   4.644   5.695   1.010
 5627TIP3    H116887   4.670   5.607   0.983
 5627TIP3    H216888   4.722   5.749   0.997
 5628TIP3   OH216889   3.012   3.541   0.126
 5628TIP3    H116890   2.931   3.504   0.160
 5628TIP3    H216891   3.040   3.480   0.058
 5629TIP3   OH216892   3.888   5.478   3.321
 5629TIP3    H116893   3.903   5.553   3.263
 5629TIP3    H216894   3.931   5.502   3.403
 5630TIP3   OH216895   3.168   1.707   1.500
 5630TIP3    H116896   3.151   1.665   1.585
 5630TIP3    H216897   3.180   1.799   1.521
 5631TIP3   OH216898   1.196   0.843   1.194
 5631TIP3    H116899   1.197   0.757   1.152
 5631TIP3    H216900   1.252   0.898   1.138
 5632TIP3   OH216901   5.766   5.068   4.070
 5632TIP3    H116902   5.806   4.981   4.065
 5632TIP3    H216903   5.675   5.051   4.093
 5633TIP3   OH216904   1.288   3.570   4.757
 5633TIP3    H116905   1.303   3.484   4.719
 5633TIP3    H216906   1.193   3.579   4.760
 5634TIP3   OH216907   3.285   0.160   2.614
 5634TIP3    H116908   3.223   0.104   2.661
 5634TIP3    H216909   3.361   0.105   2.599
 5635TIP3   OH216910   3.648   2.471   2.295
 5635TIP3    H116911   3.647   2.566   2.290
 5635TIP3    H216912   3.646   2.451   2.389
 5636TIP3   OH216913   6.253   4.170   2.726
 5636TIP3    H116914   6.185   4.197   2.665
 5636TIP3    H216915   6.213   4.179   2.812
 5637TIP3   OH216916   3.821   4.362   4.506
 5637TIP3    H116917   3.762   4.290   4.483
 5637TIP3    H216918   3.763   4.438   4.517
 5638TIP3   OH216919   4.517   4.701   2.337
 5638TIP3    H116920   4.550   4.791   2.328
 5638TIP3    H216921   4.437   4.699   2.284
 5639TIP3   OH216922   4.903   0.304   2.274
 5639TIP3    H116923   4.845   0.259   2.213
 5639TIP3    H216924   4.958   0.359   2.218
 5640TIP3   OH216925   2.043   4.526   3.050
 5640TIP3    H116926   2.137   4.534   3.033
 5640TIP3    H216927   2.023   4.435   3.030
 5641TIP3   OH216928   3.398   1.898   3.145
 5641TIP3    H116929   3.394   1.968   3.080
 5641TIP3    H216930   3.310   1.860   3.146
 5642TIP3   OH216931   5.903   1.722   4.979
 5642TIP3    H116932   5.812   1.691   4.968
 5642TIP3    H216933   5.898   1.816   4.963
 5643TIP3   OH216934   2.312   1.578   3.159
 5643TIP3    H116935   2.359   1.575   3.076
 5643TIP3    H216936   2.223   1.551   3.138
 5644TIP3   OH216937   6.066   2.077   2.816
 5644TIP3    H116938   6.005   2.136   2.860
 5644TIP3    H216939   6.069   1.999   2.872
 5645TIP3   OH216940   6.336   5.119   4.968
 5645TIP3    H116941   6.295   5.106   5.054
 5645TIP3    H216942   6.266   5.102   4.905
 5646TIP3   OH216943   3.412   1.430   1.832
 5646TIP3    H116944   3.469   1.367   1.788
 5646TIP3    H216945   3.428   1.513   1.786
 5647TIP3   OH216946   5.081   2.217   4.469
 5647TIP3    H116947   5.088   2.255   4.382
 5647TIP3    H216948   5.172   2.198   4.494
 5648TIP3   OH216949   3.827   2.670   3.761
 5648TIP3    H116950   3.809   2.577   3.749
 5648TIP3    H216951   3.921   2.675   3.777
 5649TIP3   OH216952   5.267   4.545   0.150
 5649TIP3    H116953   5.299   4.482   0.086
 5649TIP3    H216954   5.347   4.587   0.184
 5650TIP3   OH216955   0.934   2.174   1.864
 5650TIP3    H116956   0.993   2.213   1.928
 5650TIP3    H216957   0.984   2.178   1.782
 5651TIP3   OH216958   1.003   5.382   3.956
 5651TIP3    H116959   0.942   5.443   3.999
 5651TIP3    H216960   1.011   5.310   4.019
 5652TIP3   OH216961   2.951   1.937   2.925
 5652TIP3    H116962   3.004   1.986   2.861
 5652TIP3    H216963   2.927   2.003   2.991
 5653TIP3   OH216964   5.687   2.908   2.287
 5653TIP3    H116965   5.760   2.970   2.279
 5653TIP3    H216966   5.673   2.875   2.198
 5654TIP3   OH216967   4.851   0.268   0.734
 5654TIP3    H116968   4.803   0.187   0.751
 5654TIP3    H216969   4.797   0.337   0.773
 5655TIP3   OH216970   4.853   1.653   0.098
 5655TIP3    H116971   4.779   1.688   0.048
 5655TIP3    H216972   4.929   1.672   0.044
 5656TIP3   OH216973   2.037   3.699   0.850
 5656TIP3    H116974   2.039   3.618   0.799
 5656TIP3    H216975   1.975   3.680   0.922
 5657TIP3   OH216976   6.072   5.010   0.771
 5657TIP3    H116977   6.076   4.955   0.849
 5657TIP3    H216978   5.988   5.055   0.777
 5658TIP3   OH216979   0.700   1.839   1.561
 5658TIP3    H116980   0.782   1.886   1.576
 5658TIP3    H216981   0.635   1.907   1.542
 5659TIP3   OH216982   5.920   2.477   2.851
 5659TIP3    H116983   5.994   2.527   2.816
 5659TIP3    H216984   5.886   2.427   2.777
 5660TIP3   OH216985   0.296   0.329   3.068
 5660TIP3    H116986   0.387   0.344   3.092
 5660TIP3    H216987   0.280   0.237   3.091
 5661TIP3   OH216988   5.049   3.029   0.799
 5661TIP3    H116989   5.032   2.982   0.880
 5661TIP3    H216990   4.988   3.103   0.801
 5662TIP3   OH216991   5.879   0.573   1.165
 5662TIP3    H116992   5.884   0.612   1.078
 5662TIP3    H216993   5.837   0.488   1.150
 5663TIP3   OH216994   2.248   1.127   3.043
 5663TIP3    H116995   2.158   1.158   3.041
 5663TIP3    H216996   2.292   1.178   2.975
 5664TIP3   OH216997   5.503   5.461   3.654
 5664TIP3    H116998   5.564   5.517   3.606
 5664TIP3    H216999   5.479   5.393   3.591
 5665TIP3   OH217000   0.761   0.814   0.248
 5665TIP3    H117001   0.810   0.734   0.233
 5665TIP3    H217002   0.823   0.884   0.224
 5666TIP3   OH217003   5.809   0.652   2.856
 5666TIP3    H117004   5.718   0.633   2.880
 5666TIP3    H217005   5.836   0.720   2.918
 5667TIP3   OH217006   4.522   0.150   2.214
 5667TIP3    H117007   4.592   0.140   2.150
 5667TIP3    H217008   4.442   0.136   2.164
 5668TIP3   OH217009   0.146   3.752   3.487
 5668TIP3    H117010   0.136   3.805   3.567
 5668TIP3    H217011   0.238   3.763   3.463
 5669TIP3   OH217012   1.741   0.854   1.726
 5669TIP3    H117013   1.668   0.832   1.669
 5669TIP3    H217014   1.775   0.936   1.691
 5670TIP3   OH217015   2.992   1.671   1.278
 5670TIP3    H117016   3.067   1.656   1.221
 5670TIP3    H217017   3.029   1.684   1.365
 5671TIP3   OH217018   0.403   3.246   2.502
 5671TIP3    H117019   0.424   3.218   2.413
 5671TIP3    H217020   0.307   3.248   2.506
 5672TIP3   OH217021   6.315   4.162   1.410
 5672TIP3    H117022   6.332   4.093   1.346
 5672TIP3    H217023   6.263   4.227   1.363
 5673TIP3   OH217024   3.869   3.689   2.555
 5673TIP3    H117025   3.948   3.677   2.503
 5673TIP3    H217026   3.867   3.782   2.575
 5674TIP3   OH217027   1.991   1.609   3.255
 5674TIP3    H117028   1.919   1.644   3.308
 5674TIP3    H217029   1.948   1.549   3.193
 5675TIP3   OH217030   4.910   2.862   0.250
 5675TIP3    H117031   4.945   2.798   0.313
 5675TIP3    H217032   4.823   2.883   0.284
 5676TIP3   OH217033   4.652   4.991   1.844
 5676TIP3    H117034   4.665   5.052   1.771
 5676TIP3    H217035   4.735   4.991   1.891
 5677TIP3   OH217036   3.087   5.364   3.563
 5677TIP3    H117037   3.063   5.455   3.581
 5677TIP3    H217038   3.140   5.369   3.484
 5678TIP3   OH217039   0.422   1.443   1.222
 5678TIP3    H117040   0.431   1.505   1.295
 5678TIP3    H217041   0.471   1.483   1.150
 5679TIP3   OH217042   4.598   2.765   2.971
 5679TIP3    H117043   4.547   2.824   3.026
 5679TIP3    H217044   4.539   2.693   2.951
 5680TIP3   OH217045   4.676   5.778   5.161
 5680TIP3    H117046   4.608   5.793   5.095
 5680TIP3    H217047   4.627   5.761   5.242
 5681TIP3   OH217048   3.444   0.605   1.094
 5681TIP3    H117049   3.493   0.538   1.142
 5681TIP3    H217050   3.398   0.557   1.025
 5682TIP3   OH217051   0.240   0.068   0.989
 5682TIP3    H117052   0.320   0.087   0.940
 5682TIP3    H217053   0.189   0.010   0.932
 5683TIP3   OH217054   1.794   1.038   3.495
 5683TIP3    H117055   1.765   1.128   3.508
 5683TIP3    H217056   1.854   1.021   3.568
 5684TIP3   OH217057   5.160   0.747   0.316
 5684TIP3    H117058   5.097   0.785   0.377
 5684TIP3    H217059   5.217   0.693   0.371
 5685TIP3   OH217060   1.358   3.229   1.820
 5685TIP3    H117061   1.365   3.262   1.910
 5685TIP3    H217062   1.449   3.209   1.795
 5686TIP3   OH217063   4.075   3.296   1.032
 5686TIP3    H117064   4.105   3.381   0.999
 5686TIP3    H217065   3.999   3.275   0.979
 5687TIP3   OH217066   1.046   0.220   3.494
 5687TIP3    H117067   1.142   0.223   3.496
 5687TIP3    H217068   1.025   0.130   3.521
 5688TIP3   OH217069   3.976   3.162   4.458
 5688TIP3    H117070   3.928   3.082   4.435
 5688TIP3    H217071   3.927   3.200   4.530
 5689TIP3   OH217072   5.969   1.547   0.580
 5689TIP3    H117073   5.975   1.605   0.504
 5689TIP3    H217074   6.057   1.547   0.617
 5690TIP3   OH217075   2.295   3.474   4.320
 5690TIP3    H117076   2.341   3.476   4.236
 5690TIP3    H217077   2.239   3.552   4.318
 5691TIP3   OH217078   1.715   0.236   0.968
 5691TIP3    H117079   1.670   0.202   0.890
 5691TIP3    H217080   1.739   0.325   0.945
 5692TIP3   OH217081   0.937   1.126   3.580
 5692TIP3    H117082   1.002   1.195   3.587
 5692TIP3    H217083   0.925   1.093   3.669
 5693TIP3   OH217084   1.345   3.221   2.111
 5693TIP3    H117085   1.345   3.219   2.206
 5693TIP3    H217086   1.253   3.226   2.086
 5694TIP3   OH217087   2.338   2.725   0.158
 5694TIP3    H117088   2.267   2.691   0.103
 5694TIP3    H217089   2.308   2.812   0.184
 5695TIP3   OH217090   4.041   1.172   2.741
 5695TIP3    H117091   3.989   1.098   2.772
 5695TIP3    H217092   4.132   1.144   2.750
 5696TIP3   OH217093   4.038   3.836   4.498
 5696TIP3    H117094   4.091   3.911   4.525
 5696TIP3    H217095   4.024   3.849   4.404
 5697TIP3   OH217096   3.427   5.579   2.072
 5697TIP3    H117097   3.476   5.653   2.109
 5697TIP3    H217098   3.460   5.571   1.982
 5698TIP3   OH217099   3.279   4.416   0.262
 5698TIP3    H117100   3.282   4.487   0.326
 5698TIP3    H217101   3.213   4.356   0.296
 5699TIP3   OH217102   4.678   3.819   1.339
 5699TIP3    H117103   4.673   3.752   1.271
 5699TIP3    H217104   4.605   3.799   1.398
 5700TIP3   OH217105   4.103   2.433   2.835
 5700TIP3    H117106   4.046   2.411   2.762
 5700TIP3    H217107   4.168   2.493   2.799
 5701TIP3   OH217108   1.921   0.433   0.011
 5701TIP3    H117109   1.879   0.361   0.056
 5701TIP3    H217110   1.849   0.481  -0.031
 5702TIP3   OH217111   0.650   5.290   3.602
 5702TIP3    H117112   0.568   5.259   3.640
 5702TIP3    H217113   0.663   5.234   3.525
 5703TIP3   OH217114   5.788   5.877   0.984
 5703TIP3    H117115   5.873   5.918   0.998
 5703TIP3    H217116   5.757   5.855   1.072
 5704TIP3   OH217117   6.274   4.266   0.635
 5704TIP3    H117118   6.203   4.328   0.615
 5704TIP3    H217119   6.350   4.321   0.653
 5705TIP3   OH217120   1.322   2.067   5.090
 5705TIP3    H117121   1.269   2.000   5.047
 5705TIP3    H217122   1.412   2.034   5.081
 5706TIP3   OH217123   4.341   2.983   4.816
 5706TIP3    H117124   4.377   3.013   4.900
 5706TIP3    H217125   4.248   2.971   4.832
 5707TIP3   OH217126   4.979   5.250   4.992
 5707TIP3    H117127   4.933   5.193   4.930
 5707TIP3    H217128   5.011   5.190   5.059
 5708TIP3   OH217129   2.272   4.335   2.801
 5708TIP3    H117130   2.227   4.265   2.848
 5708TIP3    H217131   2.204   4.376   2.748
 5709TIP3   OH217132   4.828   4.916   2.497
 5709TIP3    H117133   4.814   4.928   2.591
 5709TIP3    H217134   4.771   4.980   2.456
 5710TIP3   OH217135   2.282   1.312   1.084
 5710TIP3    H117136   2.325   1.384   1.129
 5710TIP3    H217137   2.344   1.286   1.016
 5711TIP3   OH217138   3.537   2.919   3.158
 5711TIP3    H117139   3.592   2.869   3.217
 5711TIP3    H217140   3.491   2.982   3.214
 5712TIP3   OH217141   0.369   1.175   4.311
 5712TIP3    H117142   0.404   1.096   4.352
 5712TIP3    H217143   0.280   1.152   4.285
 5713TIP3   OH217144   4.017   4.837   3.570
 5713TIP3    H117145   3.981   4.825   3.482
 5713TIP3    H217146   4.029   4.931   3.579
 5714TIP3   OH217147   5.408   4.343   2.748
 5714TIP3    H117148   5.331   4.321   2.696
 5714TIP3    H217149   5.428   4.263   2.797
 5715TIP3   OH217150   5.187   3.149   4.572
 5715TIP3    H117151   5.248   3.191   4.632
 5715TIP3    H217152   5.241   3.120   4.498
 5716TIP3   OH217153   2.571   0.808   0.939
 5716TIP3    H117154   2.499   0.763   0.893
 5716TIP3    H217155   2.542   0.814   1.030
 5717TIP3   OH217156   2.307   5.569   2.730
 5717TIP3    H117157   2.317   5.504   2.800
 5717TIP3    H217158   2.396   5.588   2.702
 5718TIP3   OH217159   1.664   1.399   4.824
 5718TIP3    H117160   1.587   1.377   4.877
 5718TIP3    H217161   1.633   1.390   4.734
 5719TIP3   OH217162   4.458   1.307   1.235
 5719TIP3    H117163   4.422   1.354   1.310
 5719TIP3    H217164   4.404   1.336   1.161
 5720TIP3   OH217165   4.358   1.320   0.807
 5720TIP3    H117166   4.297   1.355   0.741
 5720TIP3    H217167   4.362   1.226   0.789
 5721TIP3   OH217168   2.874   4.310   2.102
 5721TIP3    H117169   2.892   4.345   2.015
 5721TIP3    H217170   2.848   4.219   2.085
 5722TIP3   OH217171   4.337   4.072   2.892
 5722TIP3    H117172   4.270   4.127   2.932
 5722TIP3    H217173   4.292   3.991   2.869
 5723TIP3   OH217174   5.822   2.328   2.614
 5723TIP3    H117175   5.831   2.391   2.542
 5723TIP3    H217176   5.734   2.292   2.604
 5724TIP3   OH217177   2.708   4.692   0.976
 5724TIP3    H117178   2.652   4.634   0.925
 5724TIP3    H217179   2.690   4.669   1.067
 5725TIP3   OH217180   0.937   4.629   2.242
 5725TIP3    H117181   0.857   4.681   2.247
 5725TIP3    H217182   0.936   4.574   2.320
 5726TIP3   OH217183   6.151   5.435   3.282
 5726TIP3    H117184   6.106   5.507   3.327
 5726TIP3    H217185   6.140   5.454   3.189
 5727TIP3   OH217186   2.584   0.269   1.197
 5727TIP3    H117187   2.613   0.360   1.191
 5727TIP3    H217188   2.573   0.242   1.105
 5728TIP3   OH217189   1.697   2.287   2.726
 5728TIP3    H117190   1.636   2.294   2.800
 5728TIP3    H217191   1.659   2.220   2.670
 5729TIP3   OH217192   2.063   2.773   1.493
 5729TIP3    H117193   2.147   2.741   1.526
 5729TIP3    H217194   2.023   2.818   1.568
 5730TIP3   OH217195   0.828   0.751   3.632
 5730TIP3    H117196   0.747   0.802   3.642
 5730TIP3    H217197   0.895   0.804   3.675
 5731TIP3   OH217198   3.778   0.718   0.836
 5731TIP3    H117199   3.839   0.784   0.871
 5731TIP3    H217200   3.835   0.649   0.802
 5732TIP3   OH217201   1.388   2.403   3.457
 5732TIP3    H117202   1.422   2.429   3.543
 5732TIP3    H217203   1.457   2.351   3.418
 5733TIP3   OH217204   5.780   4.665   2.083
 5733TIP3    H117205   5.801   4.758   2.072
 5733TIP3    H217206   5.862   4.626   2.113
 5734TIP3   OH217207   5.344   1.520   1.664
 5734TIP3    H117208   5.254   1.547   1.647
 5734TIP3    H217209   5.347   1.504   1.759
 5735TIP3   OH217210   3.693   0.102   1.457
 5735TIP3    H117211   3.673   0.067   1.370
 5735TIP3    H217212   3.630   0.059   1.515
 5736TIP3   OH217213   1.430   3.700   4.543
 5736TIP3    H117214   1.516   3.663   4.562
 5736TIP3    H217215   1.387   3.708   4.628
 5737TIP3   OH217216   2.329   3.023   5.186
 5737TIP3    H117217   2.263   3.045   5.120
 5737TIP3    H217218   2.411   3.017   5.137
 5738TIP3   OH217219   0.849   4.804   1.259
 5738TIP3    H117220   0.802   4.870   1.310
 5738TIP3    H217221   0.829   4.722   1.303
 5739TIP3   OH217222   5.529   3.043   5.056
 5739TIP3    H117223   5.622   3.027   5.037
 5739TIP3    H217224   5.496   3.087   4.978
 5740TIP3   OH217225   0.052   3.479   0.662
 5740TIP3    H117226   0.097   3.403   0.700
 5740TIP3    H217227   0.034   3.453   0.572
 5741TIP3   OH217228   2.118   5.750   1.470
 5741TIP3    H117229   2.052   5.818   1.485
 5741TIP3    H217230   2.202   5.797   1.473
 5742TIP3   OH217231   5.418   4.799   0.019
 5742TIP3    H117232   5.405   4.863   0.089
 5742TIP3    H217233   5.330   4.767  -0.001
 5743TIP3   OH217234   0.565   3.451   0.746
 5743TIP3    H117235   0.507   3.524   0.725
 5743TIP3    H217236   0.605   3.474   0.829
 5744TIP3   OH217237   4.750   1.127   4.108
 5744TIP3    H117238   4.701   1.210   4.107
 5744TIP3    H217239   4.780   1.118   4.199
 5745TIP3   OH217240   1.488   0.115   4.989
 5745TIP3    H117241   1.443   0.197   5.012
 5745TIP3    H217242   1.466   0.055   5.060
 5746TIP3   OH217243   6.051   3.297   2.528
 5746TIP3    H117244   5.979   3.244   2.493
 5746TIP3    H217245   6.089   3.339   2.451
 5747TIP3   OH217246   3.994   0.878   4.303
 5747TIP3    H117247   3.966   0.967   4.281
 5747TIP3    H217248   3.914   0.826   4.298
 5748TIP3   OH217249   3.691   3.026   4.536
 5748TIP3    H117250   3.613   3.057   4.490
 5748TIP3    H217251   3.666   3.025   4.629
 5749TIP3   OH217252   4.732   3.466   0.161
 5749TIP3    H117253   4.826   3.452   0.170
 5749TIP3    H217254   4.693   3.383   0.191
 5750TIP3   OH217255   2.746   0.797   4.347
 5750TIP3    H117256   2.834   0.761   4.359
 5750TIP3    H217257   2.749   0.881   4.393
 5751TIP3   OH217258   2.589   5.265   1.201
 5751TIP3    H117259   2.632   5.180   1.194
 5751TIP3    H217260   2.662   5.327   1.209
 5752TIP3   OH217261   3.256   4.197   3.090
 5752TIP3    H117262   3.334   4.218   3.143
 5752TIP3    H217263   3.284   4.125   3.034
 5753TIP3   OH217264   1.888   5.278   2.425
 5753TIP3    H117265   1.956   5.345   2.431
 5753TIP3    H217266   1.917   5.209   2.485
 5754TIP3   OH217267   0.045   3.589   4.427
 5754TIP3    H117268   0.003   3.552   4.505
 5754TIP3    H217269   0.132   3.551   4.427
 5755TIP3   OH217270   1.137   1.332   3.618
 5755TIP3    H117271   1.208   1.388   3.589
 5755TIP3    H217272   1.177   1.274   3.683
 5756TIP3   OH217273   0.243   3.145   0.658
 5756TIP3    H117274   0.297   3.155   0.736
 5756TIP3    H217275   0.277   3.210   0.596
 5757TIP3   OH217276   0.651   2.087   2.340
 5757TIP3    H117277   0.697   2.030   2.279
 5757TIP3    H217278   0.558   2.068   2.326
 5758TIP3   OH217279   6.072   3.307   0.263
 5758TIP3    H117280   6.030   3.280   0.182
 5758TIP3    H217281   6.118   3.229   0.295
 5759TIP3   OH217282   0.931   4.945   3.288
 5759TIP3    H117283   0.859   4.884   3.305
 5759TIP3    H217284   1.010   4.893   3.305
 5760TIP3   OH217285  -0.012   3.400   1.132
 5760TIP3    H117286  -0.006   3.481   1.082
 5760TIP3    H217287  -0.002   3.331   1.066
 5761TIP3   OH217288   6.055   1.564   3.004
 5761TIP3    H117289   6.005   1.554   3.085
 5761TIP3    H217290   6.136   1.516   3.020
 5762TIP3   OH217291   5.821   3.032   0.772
 5762TIP3    H117292   5.851   3.097   0.709
 5762TIP3    H217293   5.739   3.000   0.735
 5763TIP3   OH217294   1.592   4.842   5.097
 5763TIP3    H117295   1.498   4.857   5.112
 5763TIP3    H217296   1.636   4.908   5.151
 5764TIP3   OH217297   3.424   4.819   4.330
 5764TIP3    H117298   3.333   4.794   4.311
 5764TIP3    H217299   3.423   4.845   4.422
 5765TIP3   OH217300   2.386   4.425   1.562
 5765TIP3    H117301   2.383   4.473   1.645
 5765TIP3    H217302   2.305   4.374   1.561
 5766TIP3   OH217303   2.009   2.906   0.911
 5766TIP3    H117304   1.967   2.824   0.935
 5766TIP3    H217305   2.090   2.880   0.866
 5767TIP3   OH217306   0.668   2.952   2.477
 5767TIP3    H117307   0.600   2.889   2.500
 5767TIP3    H217308   0.641   2.987   2.392
 5768TIP3   OH217309   2.524   4.138   3.449
 5768TIP3    H117310   2.614   4.143   3.417
 5768TIP3    H217311   2.501   4.046   3.439
 5769TIP3   OH217312   2.580   0.528   1.274
 5769TIP3    H117313   2.639   0.586   1.323
 5769TIP3    H217314   2.494   0.569   1.283
 5770TIP3   OH217315   5.915   1.854   1.505
 5770TIP3    H117316   5.868   1.811   1.432
 5770TIP3    H217317   5.852   1.853   1.577
 5771TIP3   OH217318   1.894   1.025   2.424
 5771TIP3    H117319   1.903   0.990   2.513
 5771TIP3    H217320   1.888   0.947   2.368
 5772TIP3   OH217321   2.293   5.278   5.038
 5772TIP3    H117322   2.341   5.357   5.065
 5772TIP3    H217323   2.320   5.262   4.948
 5773TIP3   OH217324   6.098   2.719   3.017
 5773TIP3    H117325   6.011   2.723   3.056
 5773TIP3    H217326   6.109   2.627   2.992
 5774TIP3   OH217327   6.285   1.888   2.013
 5774TIP3    H117328   6.265   1.881   1.920
 5774TIP3    H217329   6.249   1.809   2.052
 5775TIP3   OH217330   5.752   2.810   3.209
 5775TIP3    H117331   5.745   2.721   3.176
 5775TIP3    H217332   5.710   2.864   3.141
 5776TIP3   OH217333   2.870   3.152   3.078
 5776TIP3    H117334   2.890   3.208   3.152
 5776TIP3    H217335   2.881   3.208   3.001
 5777TIP3   OH217336   2.692   2.937   0.841
 5777TIP3    H117337   2.773   2.939   0.893
 5777TIP3    H217338   2.622   2.945   0.906
 5778TIP3   OH217339   3.458   3.182   4.893
 5778TIP3    H117340   3.427   3.269   4.869
 5778TIP3    H217341   3.407   3.123   4.838
 5779TIP3   OH217342   0.610   3.824   2.262
 5779TIP3    H117343   0.535   3.820   2.203
 5779TIP3    H217344   0.577   3.873   2.338
 5780TIP3   OH217345   0.871   2.530   4.225
 5780TIP3    H117346   0.964   2.553   4.223
 5780TIP3    H217347   0.826   2.614   4.229
 5781TIP3   OH217348   0.041   5.258   3.710
 5781TIP3    H117349   0.019   5.303   3.629
 5781TIP3    H217350   0.085   5.177   3.683
 5782TIP3   OH217351   3.698   5.326   1.527
 5782TIP3    H117352   3.701   5.399   1.466
 5782TIP3    H217353   3.651   5.361   1.603
 5783TIP3   OH217354   1.349   2.193   4.203
 5783TIP3    H117355   1.297   2.158   4.130
 5783TIP3    H217356   1.352   2.122   4.267
 5784TIP3   OH217357   3.211   3.383   1.722
 5784TIP3    H117358   3.226   3.292   1.747
 5784TIP3    H217359   3.146   3.377   1.652
 5785TIP3   OH217360   2.008   2.696   0.518
 5785TIP3    H117361   1.994   2.784   0.481
 5785TIP3    H217362   2.103   2.689   0.526
 5786TIP3   OH217363   2.021   2.118   0.215
 5786TIP3    H117364   1.947   2.060   0.234
 5786TIP3    H217365   2.087   2.093   0.280
 5787TIP3   OH217366   3.403   4.680   3.377
 5787TIP3    H117367   3.359   4.597   3.399
 5787TIP3    H217368   3.354   4.746   3.425
 5788TIP3   OH217369   1.503   3.482   1.293
 5788TIP3    H117370   1.408   3.491   1.304
 5788TIP3    H217371   1.523   3.397   1.331
 5789TIP3   OH217372   3.512   3.272   3.046
 5789TIP3    H117373   3.465   3.225   3.115
 5789TIP3    H217374   3.543   3.203   2.987
 5790TIP3   OH217375   6.235   1.116   1.862
 5790TIP3    H117376   6.192   1.032   1.881
 5790TIP3    H217377   6.169   1.182   1.885
 5791TIP3   OH217378   2.067   5.800   2.029
 5791TIP3    H117379   2.083   5.804   1.935
 5791TIP3    H217380   1.988   5.747   2.038
 5792TIP3   OH217381   5.001   4.534   1.001
 5792TIP3    H117382   4.973   4.624   1.018
 5792TIP3    H217383   5.088   4.543   0.962
 5793TIP3   OH217384   1.605   5.403   1.180
 5793TIP3    H117385   1.676   5.451   1.139
 5793TIP3    H217386   1.647   5.354   1.252
 5794TIP3   OH217387   0.484   3.567   1.324
 5794TIP3    H117388   0.438   3.651   1.323
 5794TIP3    H217389   0.441   3.515   1.256
 5795TIP3   OH217390   0.205   0.191   3.893
 5795TIP3    H117391   0.203   0.110   3.842
 5795TIP3    H217392   0.267   0.247   3.845
 5796TIP3   OH217393   3.960   4.302   3.230
 5796TIP3    H117394   3.937   4.266   3.315
 5796TIP3    H217395   3.879   4.295   3.178
 5797TIP3   OH217396   4.394   0.630   2.908
 5797TIP3    H117397   4.446   0.568   2.959
 5797TIP3    H217398   4.454   0.702   2.889
 5798TIP3   OH217399   1.060   0.453   1.686
 5798TIP3    H117400   0.971   0.431   1.658
 5798TIP3    H217401   1.074   0.541   1.649
 5799TIP3   OH217402   1.399   5.491   0.739
 5799TIP3    H117403   1.419   5.491   0.645
 5799TIP3    H217404   1.459   5.427   0.777
 5800TIP3   OH217405   1.479   2.848   2.332
 5800TIP3    H117406   1.444   2.788   2.267
 5800TIP3    H217407   1.560   2.807   2.362
 5801TIP3   OH217408   2.815   4.687   4.389
 5801TIP3    H117409   2.785   4.620   4.451
 5801TIP3    H217410   2.801   4.648   4.303
 5802TIP3   OH217411   3.467   3.472   1.639
 5802TIP3    H117412   3.417   3.472   1.721
 5802TIP3    H217413   3.406   3.437   1.574
 5803TIP3   OH217414   2.390   5.234   4.157
 5803TIP3    H117415   2.433   5.301   4.104
 5803TIP3    H217416   2.443   5.155   4.144
 5804TIP3   OH217417   5.126   4.692   0.609
 5804TIP3    H117418   5.071   4.731   0.541
 5804TIP3    H217419   5.207   4.743   0.607
 5805TIP3   OH217420   1.545   4.988   1.325
 5805TIP3    H117421   1.586   5.060   1.374
 5805TIP3    H217422   1.609   4.917   1.328
 5806TIP3   OH217423   5.143   1.605   4.591
 5806TIP3    H117424   5.235   1.595   4.568
 5806TIP3    H217425   5.096   1.553   4.525
 5807TIP3   OH217426   3.248   4.751   2.324
 5807TIP3    H117427   3.198   4.693   2.267
 5807TIP3    H217428   3.209   4.838   2.311
 5808TIP3   OH217429   3.170   4.490   0.838
 5808TIP3    H117430   3.163   4.434   0.760
 5808TIP3    H217431   3.248   4.457   0.884
 5809TIP3   OH217432   3.458   4.666   0.133
 5809TIP3    H117433   3.435   4.594   0.075
 5809TIP3    H217434   3.540   4.700   0.097
 5810TIP3   OH217435   5.651   4.550   1.075
 5810TIP3    H117436   5.704   4.503   1.139
 5810TIP3    H217437   5.592   4.484   1.039
 5811TIP3   OH217438   2.016   2.581   3.910
 5811TIP3    H117439   2.108   2.588   3.886
 5811TIP3    H217440   1.975   2.657   3.867
 5812TIP3   OH217441   5.860   4.872   3.108
 5812TIP3    H117442   5.768   4.881   3.133
 5812TIP3    H217443   5.902   4.832   3.184
 5813TIP3   OH217444   4.953   3.125   4.405
 5813TIP3    H117445   4.962   3.030   4.400
 5813TIP3    H217446   5.025   3.153   4.460
 5814TIP3   OH217447   5.668   3.073   2.013
 5814TIP3    H117448   5.760   3.091   2.029
 5814TIP3    H217449   5.661   3.061   1.919
 5815TIP3   OH217450   0.101   3.138   3.939
 5815TIP3    H117451   0.108   3.164   4.031
 5815TIP3    H217452   0.007   3.143   3.920
 5816TIP3   OH217453   3.520   4.415   2.905
 5816TIP3    H117454   3.539   4.490   2.848
 5816TIP3    H217455   3.499   4.455   2.990
 5817TIP3   OH217456   3.086   0.141   4.327
 5817TIP3    H117457   3.060   0.049   4.337
 5817TIP3    H217458   3.028   0.188   4.387
 5818TIP3   OH217459   4.771   5.412   4.703
 5818TIP3    H117460   4.759   5.487   4.644
 5818TIP3    H217461   4.859   5.381   4.685
 5819TIP3   OH217462   2.869   4.107   1.633
 5819TIP3    H117463   2.830   4.019   1.633
 5819TIP3    H217464   2.804   4.162   1.675
 5820TIP3   OH217465   1.194   4.052   0.188
 5820TIP3    H117466   1.163   4.127   0.136
 5820TIP3    H217467   1.147   4.059   0.271
 5821TIP3   OH217468   2.032   3.336   3.155
 5821TIP3    H117469   2.081   3.417   3.141
 5821TIP3    H217470   1.945   3.365   3.182
 5822TIP3   OH217471   3.686   4.610   4.532
 5822TIP3    H117472   3.691   4.687   4.589
 5822TIP3    H217473   3.707   4.644   4.445
 5823TIP3   OH217474   5.337   1.644   0.370
 5823TIP3    H117475   5.370   1.566   0.415
 5823TIP3    H217476   5.296   1.609   0.290
 5824TIP3   OH217477   4.013   0.045   2.030
 5824TIP3    H117478   3.963   0.027   2.109
 5824TIP3    H217479   4.098   0.004   2.045
 5825TIP3   OH217480   0.652   5.694   4.224
 5825TIP3    H117481   0.615   5.763   4.169
 5825TIP3    H217482   0.608   5.706   4.309
 5826TIP3   OH217483   0.178   2.638   1.133
 5826TIP3    H117484   0.134   2.555   1.153
 5826TIP3    H217485   0.111   2.691   1.090
 5827TIP3   OH217486   0.921   1.468   2.775
 5827TIP3    H117487   1.000   1.445   2.824
 5827TIP3    H217488   0.945   1.545   2.725
 5828TIP3   OH217489   2.518   1.511   1.017
 5828TIP3    H117490   2.595   1.476   1.061
 5828TIP3    H217491   2.552   1.553   0.938
 5829TIP3   OH217492   2.438   1.412   3.385
 5829TIP3    H117493   2.453   1.354   3.310
 5829TIP3    H217494   2.404   1.493   3.345
 5830TIP3   OH217495   5.975   5.619   1.109
 5830TIP3    H117496   5.985   5.711   1.132
 5830TIP3    H217497   6.008   5.613   1.019
 5831TIP3   OH217498   5.587   2.207   2.623
 5831TIP3    H117499   5.630   2.252   2.695
 5831TIP3    H217500   5.570   2.118   2.656
 5832TIP3   OH217501   5.654   5.563   2.912
 5832TIP3    H117502   5.699   5.535   2.992
 5832TIP3    H217503   5.577   5.609   2.943
 5833TIP3   OH217504   4.937   3.253   1.221
 5833TIP3    H117505   4.913   3.319   1.286
 5833TIP3    H217506   4.955   3.303   1.142
 5834TIP3   OH217507   1.079   3.730   1.401
 5834TIP3    H117508   1.173   3.731   1.421
 5834TIP3    H217509   1.049   3.646   1.434
 5835TIP3   OH217510   6.262   1.429   3.319
 5835TIP3    H117511   6.233   1.491   3.386
 5835TIP3    H217512   6.181   1.397   3.279
 5836TIP3   OH217513   1.362   1.110   3.388
 5836TIP3    H117514   1.345   1.175   3.320
 5836TIP3    H217515   1.350   1.158   3.470
 5837TIP3   OH217516   1.712   2.328   0.741
 5837TIP3    H117517   1.797   2.357   0.706
 5837TIP3    H217518   1.724   2.327   0.836
 5838TIP3   OH217519   1.087   1.808   3.982
 5838TIP3    H117520   1.028   1.803   4.057
 5838TIP3    H217521   1.032   1.787   3.906
 5839TIP3   OH217522   2.823   4.037   2.920
 5839TIP3    H117523   2.916   4.047   2.899
 5839TIP3    H217524   2.777   4.083   2.849
 5840TIP3   OH217525   1.326   3.011   3.606
 5840TIP3    H117526   1.315   2.991   3.699
 5840TIP3    H217527   1.250   3.066   3.585
 5841TIP3   OH217528   5.739   1.423   3.424
 5841TIP3    H117529   5.689   1.402   3.503
 5841TIP3    H217530   5.678   1.473   3.370
 5842TIP3   OH217531   1.885   0.077   3.167
 5842TIP3    H117532   1.896   0.106   3.258
 5842TIP3    H217533   1.816   0.011   3.172
 5843TIP3   OH217534   4.350   2.431   3.434
 5843TIP3    H117535   4.331   2.523   3.450
 5843TIP3    H217536   4.389   2.400   3.516
 5844TIP3   OH217537   5.150   2.827   0.655
 5844TIP3    H117538   5.118   2.904   0.702
 5844TIP3    H217539   5.166   2.763   0.724
 5845TIP3   OH217540   4.699   0.324   1.074
 5845TIP3    H117541   4.713   0.258   1.143
 5845TIP3    H217542   4.779   0.377   1.076
 5846TIP3   OH217543   1.864   2.135   0.871
 5846TIP3    H117544   1.887   2.054   0.916
 5846TIP3    H217545   1.800   2.108   0.805
 5847TIP3   OH217546   3.081   1.228   0.834
 5847TIP3    H117547   3.034   1.302   0.873
 5847TIP3    H217548   3.063   1.235   0.740
 5848TIP3   OH217549   1.856   0.934   0.782
 5848TIP3    H117550   1.857   0.923   0.877
 5848TIP3    H217551   1.840   1.028   0.769
 5849TIP3   OH217552   0.675   4.411   4.786
 5849TIP3    H117553   0.610   4.427   4.854
 5849TIP3    H217554   0.757   4.443   4.823
 5850TIP3   OH217555   3.828   3.399   0.312
 5850TIP3    H117556   3.847   3.487   0.279
 5850TIP3    H217557   3.834   3.342   0.235
 5851TIP3   OH217558   6.306   0.300   4.498
 5851TIP3    H117559   6.346   0.364   4.557
 5851TIP3    H217560   6.259   0.240   4.556
 5852TIP3   OH217561   6.267   5.199   1.580
 5852TIP3    H117562   6.249   5.248   1.500
 5852TIP3    H217563   6.355   5.164   1.567
 5853TIP3   OH217564   0.757   2.556   0.575
 5853TIP3    H117565   0.796   2.559   0.663
 5853TIP3    H217566   0.828   2.581   0.517
 5854TIP3   OH217567   1.178   0.586   2.064
 5854TIP3    H117568   1.254   0.534   2.038
 5854TIP3    H217569   1.213   0.672   2.085
 5855TIP3   OH217570   1.613   4.632   3.314
 5855TIP3    H117571   1.669   4.639   3.237
 5855TIP3    H217572   1.551   4.705   3.305
 5856TIP3   OH217573   3.989   5.810   4.783
 5856TIP3    H117574   3.930   5.800   4.709
 5856TIP3    H217575   4.017   5.902   4.780
 5857TIP3   OH217576   5.632   4.060   1.468
 5857TIP3    H117577   5.689   3.983   1.480
 5857TIP3    H217578   5.552   4.038   1.517
 5858TIP3   OH217579   5.886   5.923   1.332
 5858TIP3    H117580   5.829   5.983   1.284
 5858TIP3    H217581   5.849   5.920   1.420
 5859TIP3   OH217582   1.394   1.629   0.204
 5859TIP3    H117583   1.307   1.592   0.192
 5859TIP3    H217584   1.386   1.720   0.176
 5860TIP3   OH217585   2.174   2.526   5.159
 5860TIP3    H117586   2.239   2.586   5.196
 5860TIP3    H217587   2.131   2.575   5.090
 5861TIP3   OH217588   5.073   4.606   3.792
 5861TIP3    H117589   5.076   4.694   3.829
 5861TIP3    H217590   5.099   4.548   3.864
 5862TIP3   OH217591   4.319   3.657   0.807
 5862TIP3    H117592   4.313   3.740   0.761
 5862TIP3    H217593   4.239   3.651   0.858
 5863TIP3   OH217594   2.073   0.228   0.205
 5863TIP3    H117595   2.051   0.308   0.254
 5863TIP3    H217596   2.097   0.260   0.117
 5864TIP3   OH217597   2.392   2.190   4.602
 5864TIP3    H117598   2.453   2.119   4.620
 5864TIP3    H217599   2.370   2.226   4.688
 5865TIP3   OH217600   4.521   1.131   4.359
 5865TIP3    H117601   4.427   1.116   4.346
 5865TIP3    H217602   4.554   1.047   4.391
 5866TIP3   OH217603   3.430   3.900   4.461
 5866TIP3    H117604   3.430   3.811   4.425
 5866TIP3    H217605   3.443   3.888   4.555
 5867TIP3   OH217606   2.311   3.149   1.717
 5867TIP3    H117607   2.251   3.097   1.664
 5867TIP3    H217608   2.357   3.204   1.654
 5868TIP3   OH217609   1.713   4.530   4.253
 5868TIP3    H117610   1.639   4.587   4.236
 5868TIP3    H217611   1.674   4.447   4.282
 5869TIP3   OH217612   3.827   5.974   2.610
 5869TIP3    H117613   3.766   6.046   2.625
 5869TIP3    H217614   3.771   5.900   2.584
 5870TIP3   OH217615   1.153   1.985   1.052
 5870TIP3    H117616   1.228   2.037   1.080
 5870TIP3    H217617   1.190   1.899   1.029
 5871TIP3   OH217618   0.935   0.080   1.550
 5871TIP3    H117619   0.939   0.144   1.478
 5871TIP3    H217620   0.847   0.092   1.587
 5872TIP3   OH217621   2.172   1.558   2.647
 5872TIP3    H117622   2.164   1.622   2.576
 5872TIP3    H217623   2.206   1.479   2.605
 5873TIP3   OH217624   2.828   3.959   1.214
 5873TIP3    H117625   2.884   3.889   1.181
 5873TIP3    H217626   2.864   3.979   1.300
 5874TIP3   OH217627   0.839   3.845   1.313
 5874TIP3    H117628   0.932   3.834   1.334
 5874TIP3    H217629   0.814   3.761   1.273
 5875TIP3   OH217630   2.320   4.022   2.127
 5875TIP3    H117631   2.314   4.116   2.108
 5875TIP3    H217632   2.232   3.998   2.155
 5876TIP3   OH217633   0.434   5.170   2.637
 5876TIP3    H117634   0.346   5.133   2.648
 5876TIP3    H217635   0.490   5.094   2.621
 5877TIP3   OH217636   5.764   4.686   2.536
 5877TIP3    H117637   5.759   4.712   2.628
 5877TIP3    H217638   5.745   4.767   2.487
 5878TIP3   OH217639   3.499   4.251   3.198
 5878TIP3    H117640   3.495   4.233   3.292
 5878TIP3    H217641   3.533   4.340   3.192
 5879TIP3   OH217642   3.402   3.976   1.473
 5879TIP3    H117643   3.312   3.999   1.498
 5879TIP3    H217644   3.396   3.955   1.380
 5880TIP3   OH217645   2.253   4.767   0.458
 5880TIP3    H117646   2.258   4.778   0.363
 5880TIP3    H217647   2.222   4.677   0.469
 5881TIP3   OH217648   3.299   1.896   4.020
 5881TIP3    H117649   3.206   1.919   4.016
 5881TIP3    H217650   3.333   1.914   3.932
 5882TIP3   OH217651   4.064   2.025   2.742
 5882TIP3    H117652   4.103   2.080   2.810
 5882TIP3    H217653   3.971   2.019   2.765
 5883TIP3   OH217654   5.592   1.389   4.645
 5883TIP3    H117655   5.522   1.417   4.704
 5883TIP3    H217656   5.657   1.349   4.702
 5884TIP3   OH217657   5.960   5.128   3.634
 5884TIP3    H117658   5.874   5.166   3.618
 5884TIP3    H217659   6.018   5.204   3.641
 5885TIP3   OH217660   3.021   2.232   2.122
 5885TIP3    H117661   3.108   2.269   2.134
 5885TIP3    H217662   2.972   2.260   2.199
 5886TIP3   OH217663   2.597   3.590   3.610
 5886TIP3    H117664   2.631   3.580   3.521
 5886TIP3    H217665   2.505   3.614   3.597
 5887TIP3   OH217666   5.614   2.176   2.192
 5887TIP3    H117667   5.667   2.213   2.122
 5887TIP3    H217668   5.577   2.252   2.237
 5888TIP3   OH217669   2.644   0.829   1.745
 5888TIP3    H117670   2.659   0.879   1.825
 5888TIP3    H217671   2.730   0.824   1.703
 5889TIP3   OH217672   3.118   5.097   0.883
 5889TIP3    H117673   3.134   5.114   0.790
 5889TIP3    H217674   3.131   5.002   0.892
 5890TIP3   OH217675   5.945   0.406   0.032
 5890TIP3    H117676   6.032   0.366   0.041
 5890TIP3    H217677   5.921   0.430   0.122
 5891TIP3   OH217678   0.063   4.625   1.787
 5891TIP3    H117679   0.023   4.568   1.721
 5891TIP3    H217680   0.155   4.598   1.789
 5892TIP3   OH217681   2.452   4.231   3.728
 5892TIP3    H117682   2.535   4.228   3.775
 5892TIP3    H217683   2.469   4.186   3.645
 5893TIP3   OH217684   2.353   5.813   0.827
 5893TIP3    H117685   2.356   5.864   0.746
 5893TIP3    H217686   2.335   5.723   0.799
 5894TIP3   OH217687   2.201   3.632   1.717
 5894TIP3    H117688   2.196   3.538   1.735
 5894TIP3    H217689   2.141   3.645   1.644
 5895TIP3   OH217690   2.488   2.794   3.109
 5895TIP3    H117691   2.542   2.866   3.076
 5895TIP3    H217692   2.418   2.785   3.044
 5896TIP3   OH217693   0.161   4.973   4.514
 5896TIP3    H117694   0.125   4.936   4.433
 5896TIP3    H217695   0.106   4.936   4.583
 5897TIP3   OH217696   1.337   3.576   3.169
 5897TIP3    H117697   1.394   3.641   3.126
 5897TIP3    H217698   1.249   3.607   3.150
 5898TIP3   OH217699   4.129   4.605   0.493
 5898TIP3    H117700   4.209   4.654   0.476
 5898TIP3    H217701   4.095   4.642   0.575
 5899TIP3   OH217702  -0.015   2.200   3.632
 5899TIP3    H117703   0.074   2.207   3.597
 5899TIP3    H217704  -0.003   2.177   3.724
 5900TIP3   OH217705   1.259   4.564   1.164
 5900TIP3    H117706   1.211   4.586   1.243
 5900TIP3    H217707   1.308   4.643   1.143
 5901TIP3   OH217708   4.246   3.760   0.051
 5901TIP3    H117709   4.165   3.724   0.015
 5901TIP3    H217710   4.249   3.727   0.141
 5902TIP3   OH217711   4.807   5.843   3.237
 5902TIP3    H117712   4.860   5.763   3.230
 5902TIP3    H217713   4.719   5.812   3.257
 5903TIP3   OH217714   0.290   3.915   2.871
 5903TIP3    H117715   0.223   3.908   2.803
 5903TIP3    H217716   0.345   3.837   2.860
 5904TIP3   OH217717   4.196   2.977   3.483
 5904TIP3    H117718   4.181   3.052   3.426
 5904TIP3    H217719   4.112   2.965   3.528
 5905TIP3   OH217720   3.337   0.569   1.374
 5905TIP3    H117721   3.348   0.562   1.280
 5905TIP3    H217722   3.381   0.651   1.397
 5906TIP3   OH217723   5.338   0.139   4.304
 5906TIP3    H117724   5.320   0.175   4.217
 5906TIP3    H217725   5.265   0.170   4.358
 5907TIP3   OH217726   3.539   2.105   0.577
 5907TIP3    H117727   3.461   2.123   0.525
 5907TIP3    H217728   3.609   2.152   0.531
 5908TIP3   OH217729   5.611   2.378   0.225
 5908TIP3    H117730   5.635   2.468   0.249
 5908TIP3    H217731   5.669   2.323   0.278
 5909TIP3   OH217732   4.061   3.249   2.382
 5909TIP3    H117733   4.026   3.172   2.337
 5909TIP3    H217734   3.986   3.289   2.425
 5910TIP3   OH217735   0.687   1.175   1.658
 5910TIP3    H117736   0.600   1.167   1.619
 5910TIP3    H217737   0.734   1.098   1.628
 5911TIP3   OH217738   2.069   4.117   0.048
 5911TIP3    H117739   2.029   4.127  -0.039
 5911TIP3    H217740   2.008   4.160   0.107
 5912TIP3   OH217741   1.587   0.251   0.731
 5912TIP3    H117742   1.520   0.285   0.672
 5912TIP3    H217743   1.609   0.165   0.696
 5913TIP3   OH217744   3.228   0.969   4.263
 5913TIP3    H117745   3.289   0.992   4.333
 5913TIP3    H217746   3.283   0.959   4.186
 5914TIP3   OH217747   0.338   4.248   4.449
 5914TIP3    H117748   0.410   4.199   4.489
 5914TIP3    H217749   0.373   4.336   4.438
 5915TIP3   OH217750   4.959   0.227   3.266
 5915TIP3    H117751   4.937   0.136   3.288
 5915TIP3    H217752   4.929   0.278   3.341
 5916TIP3   OH217753   5.951   1.678   0.344
 5916TIP3    H117754   6.030   1.694   0.292
 5916TIP3    H217755   5.908   1.604   0.301
 5917TIP3   OH217756   1.287   1.259   0.150
 5917TIP3    H117757   1.213   1.200   0.136
 5917TIP3    H217758   1.364   1.206   0.127
 5918TIP3   OH217759   1.912   2.653   3.517
 5918TIP3    H117760   1.989   2.669   3.462
 5918TIP3    H217761   1.893   2.738   3.556
 5919TIP3   OH217762   2.088   3.331   1.522
 5919TIP3    H117763   2.129   3.391   1.459
 5919TIP3    H217764   1.998   3.363   1.531
 5920TIP3   OH217765   6.066   0.242   0.364
 5920TIP3    H117766   6.143   0.281   0.322
 5920TIP3    H217767   6.050   0.295   0.441
 5921TIP3   OH217768   6.202   2.503   2.437
 5921TIP3    H117769   6.239   2.450   2.365
 5921TIP3    H217770   6.165   2.438   2.497
 5922TIP3   OH217771   0.357   0.598   4.644
 5922TIP3    H117772   0.437   0.556   4.611
 5922TIP3    H217773   0.385   0.684   4.674
 5923TIP3   OH217774   3.021   3.510   3.239
 5923TIP3    H117775   2.998   3.602   3.245
 5923TIP3    H217776   3.106   3.508   3.196
 5924TIP3   OH217777   3.551   3.185   1.538
 5924TIP3    H117778   3.497   3.244   1.486
 5924TIP3    H217779   3.488   3.130   1.585
 5925TIP3   OH217780   5.825   0.492   0.278
 5925TIP3    H117781   5.829   0.510   0.371
 5925TIP3    H217782   5.746   0.537   0.248
 5926TIP3   OH217783   5.745   2.093   1.942
 5926TIP3    H117784   5.840   2.101   1.953
 5926TIP3    H217785   5.728   2.126   1.854
 5927TIP3   OH217786   4.464   0.546   3.484
 5927TIP3    H117787   4.437   0.637   3.473
 5927TIP3    H217788   4.473   0.512   3.395
 5928TIP3   OH217789   4.317   0.981   4.756
 5928TIP3    H117790   4.272   0.990   4.672
 5928TIP3    H217791   4.292   0.895   4.788
 5929TIP3   OH217792   3.612   5.471   0.450
 5929TIP3    H117793   3.655   5.388   0.431
 5929TIP3    H217794   3.542   5.477   0.384
 5930TIP3   OH217795   2.822   4.244   2.727
 5930TIP3    H117796   2.865   4.242   2.642
 5930TIP3    H217797   2.841   4.332   2.761
 5931TIP3   OH217798   5.839   0.329   3.368
 5931TIP3    H117799   5.925   0.329   3.410
 5931TIP3    H217800   5.818   0.237   3.356
 5932TIP3   OH217801   5.186   4.715   3.382
 5932TIP3    H117802   5.201   4.623   3.403
 5932TIP3    H217803   5.090   4.724   3.382
 5933TIP3   OH217804   0.482   5.545   0.834
 5933TIP3    H117805   0.413   5.592   0.789
 5933TIP3    H217806   0.485   5.584   0.921
 5934TIP3   OH217807   5.672   4.487   4.489
 5934TIP3    H117808   5.754   4.481   4.538
 5934TIP3    H217809   5.639   4.397   4.487
 5935TIP3   OH217810   2.698   3.794   1.853
 5935TIP3    H117811   2.605   3.787   1.877
 5935TIP3    H217812   2.698   3.825   1.763
 5936TIP3   OH217813   1.217   4.933   4.135
 5936TIP3    H117814   1.261   4.897   4.059
 5936TIP3    H217815   1.288   4.958   4.195
 5937TIP3   OH217816   4.948   1.701   3.182
 5937TIP3    H117817   5.004   1.630   3.151
 5937TIP3    H217818   4.990   1.781   3.150
 5938TIP3   OH217819   1.871   1.631   1.980
 5938TIP3    H117820   1.816   1.708   1.966
 5938TIP3    H217821   1.842   1.569   1.913
 5939TIP3   OH217822   1.648   5.983   0.597
 5939TIP3    H117823   1.591   5.940   0.660
 5939TIP3    H217824   1.689   5.911   0.549
 5940TIP3   OH217825   5.794   2.367   2.059
 5940TIP3    H117826   5.819   2.458   2.071
 5940TIP3    H217827   5.815   2.348   1.967
 5941TIP3   OH217828   4.883   0.741   0.912
 5941TIP3    H117829   4.796   0.715   0.943
 5941TIP3    H217830   4.943   0.677   0.951
 5942TIP3   OH217831   4.270   1.751   2.524
 5942TIP3    H117832   4.204   1.765   2.592
 5942TIP3    H217833   4.221   1.712   2.452
 5943TIP3   OH217834   3.110   0.447   1.361
 5943TIP3    H117835   3.065   0.504   1.299
 5943TIP3    H217836   3.199   0.482   1.366
 5944TIP3   OH217837   3.697   0.113   2.166
 5944TIP3    H117838   3.609   0.079   2.182
 5944TIP3    H217839   3.748   0.036   2.141
 5945TIP3   OH217840   2.530   5.411   2.596
 5945TIP3    H117841   2.540   5.503   2.569
 5945TIP3    H217842   2.436   5.399   2.605
 5946TIP3   OH217843   1.999   2.727   2.752
 5946TIP3    H117844   1.941   2.654   2.728
 5946TIP3    H217845   2.071   2.686   2.799
 5947TIP3   OH217846   1.124   2.193   3.677
 5947TIP3    H117847   1.185   2.258   3.711
 5947TIP3    H217848   1.171   2.109   3.684
 5948TIP3   OH217849   2.327   3.206   4.370
 5948TIP3    H117850   2.336   3.295   4.335
 5948TIP3    H217851   2.248   3.172   4.328
 5949TIP3   OH217852   2.442   5.284   0.091
 5949TIP3    H117853   2.457   5.198   0.131
 5949TIP3    H217854   2.497   5.344   0.141
 5950TIP3   OH217855   2.250   3.908   3.814
 5950TIP3    H117856   2.345   3.900   3.820
 5950TIP3    H217857   2.220   3.819   3.793
 5951TIP3   OH217858   6.117   3.856   0.457
 5951TIP3    H117859   6.175   3.915   0.506
 5951TIP3    H217860   6.177   3.805   0.401
 5952TIP3   OH217861   2.732   4.078   4.251
 5952TIP3    H117862   2.705   4.167   4.272
 5952TIP3    H217863   2.656   4.040   4.205
 5953TIP3   OH217864   3.181   2.234   3.859
 5953TIP3    H117865   3.207   2.311   3.808
 5953TIP3    H217866   3.217   2.160   3.810
 5954TIP3   OH217867   5.605   2.785   1.272
 5954TIP3    H117868   5.584   2.833   1.352
 5954TIP3    H217869   5.549   2.825   1.205
 5955TIP3   OH217870   5.910   1.466   0.841
 5955TIP3    H117871   5.922   1.560   0.855
 5955TIP3    H217872   5.926   1.453   0.748
 5956TIP3   OH217873   0.488   0.211   0.366
 5956TIP3    H117874   0.528   0.151   0.430
 5956TIP3    H217875   0.524   0.183   0.282
 5957TIP3   OH217876   5.843   4.834   0.319
 5957TIP3    H117877   5.856   4.814   0.226
 5957TIP3    H217878   5.925   4.808   0.361
 5958TIP3   OH217879   6.363   2.196   4.159
 5958TIP3    H117880   6.418   2.139   4.213
 5958TIP3    H217881   6.300   2.137   4.118
 5959TIP3   OH217882   2.598   4.749   4.749
 5959TIP3    H117883   2.541   4.697   4.807
 5959TIP3    H217884   2.641   4.810   4.808
 5960TIP3   OH217885   3.137   3.424   2.479
 5960TIP3    H117886   3.215   3.407   2.532
 5960TIP3    H217887   3.169   3.430   2.389
 5961TIP3   OH217888   4.216   1.438   0.098
 5961TIP3    H117889   4.262   1.402   0.174
 5961TIP3    H217890   4.131   1.465   0.132
 5962TIP3   OH217891   4.076   1.601   0.421
 5962TIP3    H117892   4.020   1.557   0.357
 5962TIP3    H217893   4.125   1.665   0.369
 5963TIP3   OH217894   0.429   2.479   1.074
 5963TIP3    H117895   0.477   2.533   1.012
 5963TIP3    H217896   0.367   2.539   1.115
 5964TIP3   OH217897   2.875   3.985   4.827
 5964TIP3    H117898   2.791   4.028   4.811
 5964TIP3    H217899   2.920   3.988   4.743
 5965TIP3   OH217900   4.951   3.602   1.266
 5965TIP3    H117901   4.875   3.621   1.212
 5965TIP3    H217902   4.929   3.521   1.312
 5966TIP3   OH217903   5.606   4.372   3.527
 5966TIP3    H117904   5.676   4.359   3.591
 5966TIP3    H217905   5.651   4.399   3.447
 5967TIP3   OH217906   3.918   0.192   0.346
 5967TIP3    H117907   4.007   0.224   0.332
 5967TIP3    H217908   3.928   0.097   0.352
 5968TIP3   OH217909   4.560   5.422   4.232
 5968TIP3    H117910   4.522   5.334   4.235
 5968TIP3    H217911   4.581   5.436   4.140
 5969TIP3   OH217912   0.696   2.354   1.333
 5969TIP3    H117913   0.754   2.429   1.341
 5969TIP3    H217914   0.727   2.307   1.255
 5970TIP3   OH217915   0.573   0.597   1.545
 5970TIP3    H117916   0.634   0.614   1.617
 5970TIP3    H217917   0.530   0.515   1.569
 5971TIP3   OH217918   2.695   3.766   3.107
 5971TIP3    H117919   2.785   3.766   3.139
 5971TIP3    H217920   2.677   3.858   3.087
 5972TIP3   OH217921   5.108   0.533   0.914
 5972TIP3    H117922   5.145   0.605   0.966
 5972TIP3    H217923   5.157   0.536   0.832
 5973TIP3   OH217924   3.527   4.355  -0.040
 5973TIP3    H117925   3.596   4.374   0.023
 5973TIP3    H217926   3.458   4.312   0.011
 5974TIP3   OH217927   3.420   4.546   4.480
 5974TIP3    H117928   3.512   4.564   4.462
 5974TIP3    H217929   3.420   4.506   4.567
 5975TIP3   OH217930   4.345   4.225   0.178
 5975TIP3    H117931   4.385   4.273   0.105
 5975TIP3    H217932   4.273   4.281   0.207
 5976TIP3   OH217933   5.988   2.576   1.668
 5976TIP3    H117934   5.938   2.654   1.694
 5976TIP3    H217935   6.077   2.593   1.698
 5977TIP3   OH217936   0.180   3.630   3.874
 5977TIP3    H117937   0.168   3.610   3.967
 5977TIP3    H217938   0.273   3.616   3.857
 5978TIP3   OH217939   5.916   5.935   2.862
 5978TIP3    H117940   6.009   5.915   2.855
 5978TIP3    H217941   5.913   6.031   2.865
 5979TIP3   OH217942   3.100   0.036   0.268
 5979TIP3    H117943   3.125  -0.013   0.189
 5979TIP3    H217944   3.028   0.092   0.239
 5980TIP3   OH217945   1.157   1.734   3.620
 5980TIP3    H117946   1.242   1.710   3.658
 5980TIP3    H217947   1.093   1.709   3.686
 5981TIP3   OH217948   3.951   2.897   5.045
 5981TIP3    H117949   4.045   2.883   5.033
 5981TIP3    H217950   3.913   2.810   5.035
 5982TIP3   OH217951   3.375   2.734   3.695
 5982TIP3    H117952   3.379   2.666   3.628
 5982TIP3    H217953   3.410   2.693   3.774
 5983TIP3   OH217954   2.002   5.137   2.699
 5983TIP3    H117955   1.944   5.211   2.720
 5983TIP3    H217956   1.943   5.070   2.665
 5984TIP3   OH217957   2.635   3.075   3.687
 5984TIP3    H117958   2.614   3.168   3.684
 5984TIP3    H217959   2.550   3.032   3.697
 5985TIP3   OH217960   4.748   2.000   2.463
 5985TIP3    H117961   4.782   1.911   2.449
 5985TIP3    H217962   4.655   1.994   2.440
 5986TIP3   OH217963   2.446   0.559   3.531
 5986TIP3    H117964   2.415   0.595   3.449
 5986TIP3    H217965   2.389   0.484   3.548
 5987TIP3   OH217966   4.120   2.500   2.427
 5987TIP3    H117967   4.193   2.559   2.448
 5987TIP3    H217968   4.120   2.494   2.332
 5988TIP3   OH217969   4.634   3.564   1.649
 5988TIP3    H117970   4.710   3.607   1.609
 5988TIP3    H217971   4.580   3.636   1.681
 5989TIP3   OH217972   5.482   0.335   4.978
 5989TIP3    H117973   5.523   0.257   4.941
 5989TIP3    H217974   5.402   0.304   5.020
 5990TIP3   OH217975   5.624   2.019   0.982
 5990TIP3    H117976   5.693   2.037   1.045
 5990TIP3    H217977   5.666   2.033   0.897
 5991TIP3   OH217978   2.349   2.048   3.607
 5991TIP3    H117979   2.257   2.025   3.590
 5991TIP3    H217980   2.347   2.093   3.692
 5992TIP3   OH217981   1.511   5.100   1.938
 5992TIP3    H117982   1.536   5.110   1.846
 5992TIP3    H217983   1.416   5.097   1.937
 5993TIP3   OH217984   3.276   4.181   0.077
 5993TIP3    H117985   3.229   4.246   0.129
 5993TIP3    H217986   3.215   4.108   0.070
 5994TIP3   OH217987   2.872   0.527   2.404
 5994TIP3    H117988   2.961   0.507   2.375
 5994TIP3    H217989   2.852   0.612   2.363
 5995TIP3   OH217990   1.945   0.413   3.790
 5995TIP3    H117991   1.988   0.489   3.828
 5995TIP3    H217992   1.882   0.448   3.728
 5996TIP3   OH217993   5.229   1.179   2.041
 5996TIP3    H117994   5.223   1.241   1.968
 5996TIP3    H217995   5.195   1.228   2.116
 5997TIP3   OH217996   4.999   3.149   0.302
 5997TIP3    H117997   4.967   3.147   0.392
 5997TIP3    H217998   4.973   3.065   0.265
 5998TIP3   OH217999   2.349   4.034   3.181
 5998TIP3    H118000   2.436   4.056   3.146
 5998TIP3    H218001   2.329   4.106   3.241
 5999TIP3   OH218002   2.523   3.902   0.072
 5999TIP3    H118003   2.610   3.941   0.087
 5999TIP3    H218004   2.532   3.811   0.100
 6000TIP3   OH218005   5.333   5.713   3.723
 6000TIP3    H118006   5.371   5.709   3.811
 6000TIP3    H218007   5.287   5.629   3.714
 6001TIP3   OH218008   5.448   0.505   0.936
 6001TIP3    H118009   5.442   0.428   0.880
 6001TIP3    H218010   5.532   0.545   0.912
 6002TIP3   OH218011   3.134   0.812   3.333
 6002TIP3    H118012   3.085   0.811   3.415
 6002TIP3    H218013   3.226   0.806   3.359
 6003TIP3   OH218014   5.410   0.625   0.433
 6003TIP3    H118015   5.463   0.699   0.464
 6003TIP3    H218016   5.471   0.573   0.380
 6004TIP3   OH218017   6.191   0.507   4.812
 6004TIP3    H118018   6.126   0.513   4.742
 6004TIP3    H218019   6.140   0.491   4.891
 6005TIP3   OH218020   4.367   1.787   3.004
 6005TIP3    H118021   4.303   1.723   3.035
 6005TIP3    H218022   4.379   1.765   2.911
 6006TIP3   OH218023   0.103   2.430   4.253
 6006TIP3    H118024   0.025   2.485   4.247
 6006TIP3    H218025   0.077   2.347   4.212
 6007TIP3   OH218026   2.074   1.984   1.704
 6007TIP3    H118027   2.046   1.952   1.619
 6007TIP3    H218028   2.039   2.073   1.709
 6008TIP3   OH218029   2.108   3.953   0.760
 6008TIP3    H118030   2.080   3.872   0.803
 6008TIP3    H218031   2.148   4.004   0.831
 6009TIP3   OH218032   1.819   2.817   5.010
 6009TIP3    H118033   1.741   2.866   4.983
 6009TIP3    H218034   1.829   2.749   4.943
 6010TIP3   OH218035   0.408   1.515   3.576
 6010TIP3    H118036   0.418   1.609   3.559
 6010TIP3    H218037   0.497   1.485   3.594
 6011TIP3   OH218038   3.933   2.025   2.218
 6011TIP3    H118039   4.017   2.046   2.177
 6011TIP3    H218040   3.913   1.937   2.188
 6012TIP3   OH218041   4.700   3.076   3.199
 6012TIP3    H118042   4.648   3.152   3.225
 6012TIP3    H218043   4.791   3.105   3.209
 6013TIP3   OH218044   1.778   1.852   1.298
 6013TIP3    H118045   1.710   1.918   1.286
 6013TIP3    H218046   1.747   1.777   1.247
 6014TIP3   OH218047   3.205   5.161   1.863
 6014TIP3    H118048   3.233   5.077   1.826
 6014TIP3    H218049   3.147   5.137   1.935
 6015TIP3   OH218050   5.949   1.297   1.547
 6015TIP3    H118051   6.042   1.276   1.551
 6015TIP3    H218052   5.929   1.298   1.454
 6016TIP3   OH218053   2.019   5.353   3.990
 6016TIP3    H118054   2.039   5.274   3.939
 6016TIP3    H218055   2.064   5.424   3.945
 6017TIP3   OH218056   0.139   0.181   4.157
 6017TIP3    H118057   0.190   0.182   4.076
 6017TIP3    H218058   0.061   0.130   4.137
 6018TIP3   OH218059   1.864   4.942   1.124
 6018TIP3    H118060   1.956   4.944   1.097
 6018TIP3    H218061   1.866   4.909   1.214
 6019TIP3   OH218062   4.299   1.614   5.026
 6019TIP3    H118063   4.394   1.610   5.012
 6019TIP3    H218064   4.262   1.618   4.938
 6020TIP3   OH218065   0.452   1.173   3.339
 6020TIP3    H118066   0.546   1.159   3.339
 6020TIP3    H218067   0.441   1.261   3.304
 6021TIP3   OH218068   5.156   0.358   2.857
 6021TIP3    H118069   5.113   0.273   2.845
 6021TIP3    H218070   5.103   0.402   2.923
 6022TIP3   OH218071   1.561   2.906   0.203
 6022TIP3    H118072   1.622   2.887   0.132
 6022TIP3    H218073   1.533   2.820   0.235
 6023TIP3   OH218074   3.069   4.577   2.171
 6023TIP3    H118075   3.064   4.509   2.104
 6023TIP3    H218076   2.987   4.569   2.220
 6024TIP3   OH218077   0.109   1.652   2.847
 6024TIP3    H118078   0.039   1.704   2.809
 6024TIP3    H218079   0.084   1.561   2.830
 6025TIP3   OH218080   2.560   0.721   0.625
 6025TIP3    H118081   2.607   0.747   0.704
 6025TIP3    H218082   2.596   0.777   0.556
 6026TIP3   OH218083   5.419   5.396   0.124
 6026TIP3    H118084   5.434   5.481   0.165
 6026TIP3    H218085   5.417   5.334   0.197
 6027TIP3   OH218086   5.041   1.947   3.882
 6027TIP3    H118087   5.003   1.967   3.968
 6027TIP3    H218088   5.047   2.032   3.838
 6028TIP3   OH218089   0.997   5.780   1.359
 6028TIP3    H118090   0.917   5.727   1.357
 6028TIP3    H218091   0.965   5.870   1.361
 6029TIP3   OH218092   5.043   4.160   1.050
 6029TIP3    H118093   5.021   4.067   1.047
 6029TIP3    H218094   5.112   4.167   1.116
 6030TIP3   OH218095   6.029   0.423   0.555
 6030TIP3    H118096   6.057   0.510   0.583
 6030TIP3    H218097   5.934   0.424   0.564
 6031TIP3   OH218098   5.558   2.511   4.118
 6031TIP3    H118099   5.548   2.565   4.041
 6031TIP3    H218100   5.487   2.537   4.176
 6032TIP3   OH218101   4.397   0.681   0.473
 6032TIP3    H118102   4.438   0.600   0.503
 6032TIP3    H218103   4.369   0.725   0.553
 6033TIP3   OH218104   4.610   0.813   2.875
 6033TIP3    H118105   4.664   0.736   2.894
 6033TIP3    H218106   4.596   0.808   2.780
 6034TIP3   OH218107   3.805   3.871   2.917
 6034TIP3    H118108   3.834   3.809   2.984
 6034TIP3    H218109   3.850   3.953   2.938
 6035TIP3   OH218110   2.266   1.490   4.930
 6035TIP3    H118111   2.296   1.577   4.956
 6035TIP3    H218112   2.285   1.485   4.836
 6036TIP3   OH218113   3.995   5.614   4.386
 6036TIP3    H118114   3.941   5.688   4.413
 6036TIP3    H218115   3.936   5.559   4.335
 6037TIP3   OH218116   1.532   4.386   4.692
 6037TIP3    H118117   1.588   4.462   4.678
 6037TIP3    H218118   1.483   4.407   4.772
 6038TIP3   OH218119   0.978   1.968   0.191
 6038TIP3    H118120   0.922   1.970   0.269
 6038TIP3    H218121   0.998   2.060   0.174
 6039TIP3   OH218122   4.201   2.427   4.497
 6039TIP3    H118123   4.119   2.392   4.532
 6039TIP3    H218124   4.174   2.491   4.432
 6040TIP3   OH218125   5.490   1.595   0.714
 6040TIP3    H118126   5.551   1.582   0.786
 6040TIP3    H218127   5.415   1.639   0.753
 6041TIP3   OH218128   3.180   5.800   0.351
 6041TIP3    H118129   3.183   5.713   0.391
 6041TIP3    H218130   3.234   5.792   0.273
 6042TIP3   OH218131   3.907   3.005   2.948
 6042TIP3    H118132   3.954   2.953   2.883
 6042TIP3    H218133   3.945   2.979   3.032
 6043TIP3   OH218134   5.775   5.369   4.204
 6043TIP3    H118135   5.775   5.339   4.113
 6043TIP3    H218136   5.867   5.363   4.231
 6044TIP3   OH218137   0.387   2.404   1.613
 6044TIP3    H118138   0.382   2.388   1.519
 6044TIP3    H218139   0.301   2.437   1.636
 6045TIP3   OH218140   6.144   5.230   2.289
 6045TIP3    H118141   6.216   5.259   2.232
 6045TIP3    H218142   6.187   5.203   2.370
 6046TIP3   OH218143   1.554   4.506   2.370
 6046TIP3    H118144   1.551   4.464   2.456
 6046TIP3    H218145   1.470   4.551   2.362
 6047TIP3   OH218146   2.013   2.606   4.930
 6047TIP3    H118147   1.953   2.557   4.987
 6047TIP3    H218148   1.986   2.583   4.841
 6048TIP3   OH218149   0.360   2.636   4.914
 6048TIP3    H118150   0.358   2.547   4.949
 6048TIP3    H218151   0.452   2.663   4.922
 6049TIP3   OH218152   5.271   4.419   4.207
 6049TIP3    H118153   5.262   4.370   4.288
 6049TIP3    H218154   5.276   4.510   4.234
 6050TIP3   OH218155   1.515   2.122   2.232
 6050TIP3    H118156   1.460   2.054   2.270
 6050TIP3    H218157   1.586   2.133   2.295
 6051TIP3   OH218158   4.569   2.308   2.943
 6051TIP3    H118159   4.549   2.267   2.859
 6051TIP3    H218160   4.542   2.244   3.008
 6052TIP3   OH218161   1.114   4.195   3.407
 6052TIP3    H118162   1.167   4.187   3.328
 6052TIP3    H218163   1.127   4.111   3.452
 6053TIP3   OH218164   3.492   0.049   0.982
 6053TIP3    H118165   3.510   0.142   0.974
 6053TIP3    H218166   3.422   0.032   0.918
 6054TIP3   OH218167   1.107   3.813   4.679
 6054TIP3    H118168   1.098   3.804   4.774
 6054TIP3    H218169   1.169   3.884   4.666
 6055TIP3   OH218170   1.401   3.120   0.174
 6055TIP3    H118171   1.442   3.033   0.185
 6055TIP3    H218172   1.441   3.154   0.094
 6056TIP3   OH218173   0.518   4.811   3.230
 6056TIP3    H118174   0.521   4.717   3.250
 6056TIP3    H218175   0.453   4.846   3.290
 6057TIP3   OH218176   4.141   5.094   2.758
 6057TIP3    H118177   4.170   5.172   2.710
 6057TIP3    H218178   4.074   5.055   2.702
 6058TIP3   OH218179   1.288   4.098   0.699
 6058TIP3    H118180   1.355   4.083   0.633
 6058TIP3    H218181   1.238   4.016   0.702
 6059TIP3   OH218182   2.585   4.108   2.693
 6059TIP3    H118183   2.672   4.150   2.691
 6059TIP3    H218184   2.533   4.165   2.750
 6060TIP3   OH218185   1.285   2.935   4.294
 6060TIP3    H118186   1.292   2.922   4.199
 6060TIP3    H218187   1.190   2.937   4.310
 6061TIP3   OH218188   3.458   1.549   3.994
 6061TIP3    H118189   3.367   1.522   3.981
 6061TIP3    H218190   3.465   1.567   4.087
 6062TIP3   OH218191   3.592   2.310   4.725
 6062TIP3    H118192   3.550   2.237   4.680
 6062TIP3    H218193   3.552   2.388   4.687
 6063TIP3   OH218194   3.095   0.222   1.209
 6063TIP3    H118195   3.070   0.158   1.275
 6063TIP3    H218196   3.106   0.304   1.258
 6064TIP3   OH218197   5.471   3.276   2.108
 6064TIP3    H118198   5.520   3.205   2.067
 6064TIP3    H218199   5.460   3.248   2.198
 6065TIP3   OH218200   0.357   0.333   0.601
 6065TIP3    H118201   0.412   0.409   0.619
 6065TIP3    H218202   0.405   0.285   0.532
 6066TIP3   OH218203   2.788   2.922   1.354
 6066TIP3    H118204   2.697   2.953   1.345
 6066TIP3    H218205   2.823   2.928   1.265
 6067TIP3   OH218206   5.526   4.487   2.454
 6067TIP3    H118207   5.490   4.447   2.533
 6067TIP3    H218208   5.582   4.558   2.486
 6068TIP3   OH218209   4.013   3.536   4.043
 6068TIP3    H118210   3.934   3.502   4.087
 6068TIP3    H218211   3.986   3.621   4.009
 6069TIP3   OH218212   3.721   2.428   4.376
 6069TIP3    H118213   3.653   2.361   4.369
 6069TIP3    H218214   3.776   2.399   4.448
 6070TIP3   OH218215   4.843   3.710   1.553
 6070TIP3    H118216   4.826   3.799   1.582
 6070TIP3    H218217   4.819   3.710   1.460
 6071TIP3   OH218218   2.872   3.645   2.868
 6071TIP3    H118219   2.838   3.685   2.948
 6071TIP3    H218220   2.818   3.682   2.798
 6072TIP3   OH218221   5.092   2.070   0.606
 6072TIP3    H118222   5.146   2.092   0.682
 6072TIP3    H218223   5.092   1.974   0.604
 6073TIP3   OH218224   0.480   3.699   2.912
 6073TIP3    H118225   0.552   3.711   2.973
 6073TIP3    H218226   0.463   3.605   2.913
 6074TIP3   OH218227   1.531   3.930   1.757
 6074TIP3    H118228   1.591   3.882   1.700
 6074TIP3    H218229   1.444   3.913   1.720
 6075TIP3   OH218230   2.871   1.895   0.392
 6075TIP3    H118231   2.900   1.840   0.319
 6075TIP3    H218232   2.797   1.945   0.357
 6076TIP3   OH218233   0.425   0.362   1.140
 6076TIP3    H118234   0.386   0.325   1.060
 6076TIP3    H218235   0.385   0.311   1.211
 6077TIP3   OH218236   2.031   2.069   0.548
 6077TIP3    H118237   2.097   2.097   0.485
 6077TIP3    H218238   1.951   2.113   0.519
 6078TIP3   OH218239   0.321   3.553   4.290
 6078TIP3    H118240   0.345   3.588   4.376
 6078TIP3    H218241   0.400   3.506   4.262
 6079TIP3   OH218242   4.243   0.463   2.065
 6079TIP3    H118243   4.210   0.548   2.093
 6079TIP3    H218244   4.171   0.424   2.016
 6080TIP3   OH218245   2.346   0.919   1.750
 6080TIP3    H118246   2.316   0.852   1.811
 6080TIP3    H218247   2.442   0.913   1.754
 6081TIP3   OH218248   2.587   2.363   3.150
 6081TIP3    H118249   2.569   2.444   3.197
 6081TIP3    H218250   2.627   2.306   3.216
 6082TIP3   OH218251   1.323   1.508   2.674
 6082TIP3    H118252   1.340   1.421   2.712
 6082TIP3    H218253   1.252   1.494   2.612
 6083TIP3   OH218254   0.644   2.476   3.082
 6083TIP3    H118255   0.700   2.554   3.078
 6083TIP3    H218256   0.648   2.440   2.993
 6084TIP3   OH218257   5.702   4.789   0.946
 6084TIP3    H118258   5.691   4.865   1.003
 6084TIP3    H218259   5.701   4.714   1.005
 6085TIP3   OH218260   3.193   4.563   0.026
 6085TIP3    H118261   3.212   4.565   0.120
 6085TIP3    H218262   3.136   4.487   0.015
 6086TIP3   OH218263   1.801   3.426   3.961
 6086TIP3    H118264   1.825   3.420   3.869
 6086TIP3    H218265   1.706   3.425   3.961
 6087TIP3   OH218266   2.751   5.640   0.428
 6087TIP3    H118267   2.806   5.718   0.438
 6087TIP3    H218268   2.776   5.604   0.343
 6088TIP3   OH218269   2.776   2.177   3.359
 6088TIP3    H118270   2.792   2.260   3.405
 6088TIP3    H218271   2.830   2.113   3.407
 6089TIP3   OH218272   2.848   3.754   0.316
 6089TIP3    H118273   2.775   3.729   0.373
 6089TIP3    H218274   2.849   3.686   0.248
 6090TIP3   OH218275   1.888   5.555   2.676
 6090TIP3    H118276   1.858   5.469   2.705
 6090TIP3    H218277   1.810   5.599   2.644
 6091TIP3   OH218278   0.990   4.041   1.691
 6091TIP3    H118279   1.069   4.032   1.744
 6091TIP3    H218280   0.957   3.951   1.681
 6092TIP3   OH218281   0.874   2.674   0.796
 6092TIP3    H118282   0.889   2.749   0.854
 6092TIP3    H218283   0.943   2.680   0.731
 6093TIP3   OH218284   3.454   3.692   5.097
 6093TIP3    H118285   3.460   3.621   5.160
 6093TIP3    H218286   3.364   3.723   5.104
 6094TIP3   OH218287   4.041   2.268   3.697
 6094TIP3    H118288   4.037   2.324   3.619
 6094TIP3    H218289   4.018   2.181   3.665
 6095TIP3   OH218290   1.057   3.594   3.629
 6095TIP3    H118291   0.964   3.612   3.613
 6095TIP3    H218292   1.083   3.535   3.558
 6096TIP3   OH218293   4.836   2.789   1.396
 6096TIP3    H118294   4.817   2.842   1.318
 6096TIP3    H218295   4.916   2.828   1.432
 6097TIP3   OH218296   4.165   4.725   3.318
 6097TIP3    H118297   4.103   4.667   3.274
 6097TIP3    H218298   4.147   4.811   3.281
 6098TIP3   OH218299   0.349   4.446   0.789
 6098TIP3    H118300   0.314   4.427   0.876
 6098TIP3    H218301   0.416   4.513   0.805
 6099TIP3   OH218302   1.333   3.073   4.572
 6099TIP3    H118303   1.259   3.062   4.632
 6099TIP3    H218304   1.303   3.034   4.490
 6100TIP3   OH218305   5.071   2.156   3.617
 6100TIP3    H118306   5.031   2.091   3.558
 6100TIP3    H218307   5.155   2.177   3.576
 6101TIP3   OH218308   1.035   2.513   3.899
 6101TIP3    H118309   0.941   2.517   3.883
 6101TIP3    H218310   1.049   2.429   3.942
 6102TIP3   OH218311   3.176   4.983   2.155
 6102TIP3    H118312   3.155   5.071   2.188
 6102TIP3    H218313   3.272   4.980   2.155
 6103TIP3   OH218314   3.235   2.859   2.985
 6103TIP3    H118315   3.293   2.828   3.055
 6103TIP3    H218316   3.151   2.874   3.028
 6104TIP3   OH218317   2.909   3.551   3.874
 6104TIP3    H118318   2.832   3.591   3.916
 6104TIP3    H218319   2.902   3.577   3.782
 6105TIP3   OH218320   5.867   0.706   3.545
 6105TIP3    H118321   5.946   0.722   3.596
 6105TIP3    H218322   5.829   0.627   3.583
 6106TIP3   OH218323   0.186   1.794   2.607
 6106TIP3    H118324   0.101   1.750   2.596
 6106TIP3    H218325   0.234   1.739   2.669
 6107TIP3   OH218326   4.976   1.351   2.904
 6107TIP3    H118327   4.972   1.402   2.822
 6107TIP3    H218328   5.034   1.402   2.960
 6108TIP3   OH218329   0.211   0.777   0.391
 6108TIP3    H118330   0.256   0.731   0.320
 6108TIP3    H218331   0.129   0.807   0.351
 6109TIP3   OH218332   3.452   0.333   0.190
 6109TIP3    H118333   3.435   0.241   0.211
 6109TIP3    H218334   3.548   0.338   0.183
 6110TIP3   OH218335   5.448   1.351   0.430
 6110TIP3    H118336   5.533   1.396   0.423
 6110TIP3    H218337   5.470   1.259   0.415
 6111TIP3   OH218338   1.002   2.283   1.312
 6111TIP3    H118339   1.019   2.350   1.245
 6111TIP3    H218340   1.038   2.320   1.392
 6112TIP3   OH218341   1.054   4.272   0.867
 6112TIP3    H118342   1.085   4.241   0.783
 6112TIP3    H218343   1.092   4.359   0.876
 6113TIP3   OH218344   5.696   5.901   3.061
 6113TIP3    H118345   5.639   5.825   3.054
 6113TIP3    H218346   5.748   5.901   2.980
 6114TIP3   OH218347   6.371   1.569   2.558
 6114TIP3    H118348   6.374   1.541   2.466
 6114TIP3    H218349   6.293   1.624   2.564
 6115TIP3   OH218350   5.274   4.821   1.623
 6115TIP3    H118351   5.279   4.801   1.530
 6115TIP3    H218352   5.187   4.791   1.650
 6116TIP3   OH218353   2.076   3.007   4.992
 6116TIP3    H118354   2.122   2.930   4.959
 6116TIP3    H218355   1.985   2.991   4.970
 6117TIP3   OH218356   2.112   1.737   2.064
 6117TIP3    H118357   2.029   1.688   2.069
 6117TIP3    H218358   2.096   1.816   2.115
 6118TIP3   OH218359   3.816   2.105   0.161
 6118TIP3    H118360   3.842   2.113   0.253
 6118TIP3    H218361   3.836   2.015   0.138
 6119TIP3   OH218362   3.866   2.346   4.580
 6119TIP3    H118363   3.858   2.375   4.671
 6119TIP3    H218364   3.851   2.251   4.584
 6120TIP3   OH218365   2.539   4.090   4.724
 6120TIP3    H118366   2.474   4.138   4.775
 6120TIP3    H218367   2.609   4.154   4.709
 6121TIP3   OH218368   2.712   1.168   1.554
 6121TIP3    H118369   2.712   1.194   1.646
 6121TIP3    H218370   2.775   1.226   1.512
 6122TIP3   OH218371   1.470   0.039   4.171
 6122TIP3    H118372   1.407   0.109   4.154
 6122TIP3    H218373   1.554   0.076   4.143
 6123TIP3   OH218374   1.249   1.523   2.233
 6123TIP3    H118375   1.344   1.536   2.232
 6123TIP3    H218376   1.227   1.498   2.144
 6124TIP3   OH218377   2.654   5.812   1.403
 6124TIP3    H118378   2.646   5.892   1.456
 6124TIP3    H218379   2.697   5.841   1.323
 6125TIP3   OH218380   2.660   4.237   1.176
 6125TIP3    H118381   2.714   4.160   1.191
 6125TIP3    H218382   2.629   4.263   1.263
 6126TIP3   OH218383   1.654   2.130   5.082
 6126TIP3    H118384   1.725   2.191   5.061
 6126TIP3    H218385   1.680   2.093   5.167
 6127TIP3   OH218386   5.221   0.871   1.652
 6127TIP3    H118387   5.253   0.873   1.743
 6127TIP3    H218388   5.145   0.814   1.655
 6128TIP3   OH218389   0.888   1.544   4.765
 6128TIP3    H118390   0.814   1.603   4.750
 6128TIP3    H218391   0.851   1.470   4.814
 6129TIP3   OH218392   5.687   3.407   5.066
 6129TIP3    H118393   5.593   3.406   5.085
 6129TIP3    H218394   5.693   3.441   4.977
 6130TIP3   OH218395   5.320   2.602   1.113
 6130TIP3    H118396   5.395   2.653   1.143
 6130TIP3    H218397   5.350   2.511   1.117
 6131TIP3   OH218398   5.676   2.930   2.957
 6131TIP3    H118399   5.727   2.949   2.878
 6131TIP3    H218400   5.636   3.014   2.980
 6132TIP3   OH218401   0.617   1.637   3.231
 6132TIP3    H118402   0.594   1.709   3.173
 6132TIP3    H218403   0.658   1.572   3.174
 6133TIP3   OH218404   2.009   0.851   0.569
 6133TIP3    H118405   2.059   0.777   0.601
 6133TIP3    H218406   1.947   0.871   0.640
 6134TIP3   OH218407   0.802   5.072   0.270
 6134TIP3    H118408   0.768   4.999   0.322
 6134TIP3    H218409   0.732   5.137   0.270
 6135TIP3   OH218410   5.149   2.611   4.475
 6135TIP3    H118411   5.079   2.557   4.512
 6135TIP3    H218412   5.106   2.692   4.449
 6136TIP3   OH218413   4.396   2.107   4.806
 6136TIP3    H118414   4.470   2.166   4.789
 6136TIP3    H218415   4.436   2.020   4.809
 6137TIP3   OH218416   1.394   4.694   0.551
 6137TIP3    H118417   1.439   4.754   0.491
 6137TIP3    H218418   1.339   4.751   0.604
 6138TIP3   OH218419   5.575   0.031   1.840
 6138TIP3    H118420   5.491   0.030   1.795
 6138TIP3    H218421   5.552   0.029   1.933
 6139TIP3   OH218422   5.115   5.813   3.158
 6139TIP3    H118423   5.088   5.794   3.068
 6139TIP3    H218424   5.038   5.793   3.211
 6140TIP3   OH218425   4.816   2.054   4.412
 6140TIP3    H118426   4.846   1.965   4.394
 6140TIP3    H218427   4.883   2.091   4.470
 6141TIP3   OH218428   5.016   0.087   4.034
 6141TIP3    H118429   4.938   0.141   4.018
 6141TIP3    H218430   5.083   0.150   4.060
 6142TIP3   OH218431   6.232   5.090   2.576
 6142TIP3    H118432   6.231   5.088   2.672
 6142TIP3    H218433   6.171   5.021   2.550
 6143TIP3   OH218434   1.266   4.018   4.622
 6143TIP3    H118435   1.356   4.028   4.591
 6143TIP3    H218436   1.248   4.100   4.668
 6144TIP3   OH218437   3.973   3.104   3.853
 6144TIP3    H118438   4.051   3.074   3.806
 6144TIP3    H218439   3.971   3.198   3.839
 6145TIP3   OH218440   1.983   2.229   3.988
 6145TIP3    H118441   1.952   2.171   4.058
 6145TIP3    H218442   2.061   2.270   4.025
 6146TIP3   OH218443   0.859   3.772   3.965
 6146TIP3    H118444   0.785   3.719   3.935
 6146TIP3    H218445   0.820   3.839   4.021
 6147TIP3   OH218446   5.025   2.289   2.413
 6147TIP3    H118447   5.026   2.281   2.509
 6147TIP3    H218448   5.115   2.315   2.391
 6148TIP3   OH218449   4.129   3.922   2.931
 6148TIP3    H118450   4.149   3.837   2.891
 6148TIP3    H218451   4.067   3.963   2.871
 6149TIP3   OH218452   0.463   5.470   4.520
 6149TIP3    H118453   0.475   5.470   4.425
 6149TIP3    H218454   0.538   5.518   4.554
 6150TIP3   OH218455   6.022   5.683   1.628
 6150TIP3    H118456   6.087   5.613   1.621
 6150TIP3    H218457   5.949   5.654   1.574
 6151TIP3   OH218458   2.692   3.209   0.665
 6151TIP3    H118459   2.681   3.183   0.756
 6151TIP3    H218460   2.605   3.198   0.626
 6152TIP3   OH218461   5.663   4.741   0.496
 6152TIP3    H118462   5.729   4.757   0.429
 6152TIP3    H218463   5.659   4.646   0.503
 6153TIP3   OH218464   3.610   2.696   0.131
 6153TIP3    H118465   3.550   2.622   0.132
 6153TIP3    H218466   3.561   2.769   0.169
 6154TIP3   OH218467   1.791   2.366   0.337
 6154TIP3    H118468   1.879   2.399   0.354
 6154TIP3    H218469   1.792   2.275   0.367
 6155TIP3   OH218470   4.440   2.042   2.926
 6155TIP3    H118471   4.367   2.103   2.912
 6155TIP3    H218472   4.398   1.962   2.960
 6156TIP3   OH218473   1.335   0.117   1.985
 6156TIP3    H118474   1.263   0.177   1.968
 6156TIP3    H218475   1.371   0.145   2.069
 6157TIP3   OH218476   4.327   3.420   2.981
 6157TIP3    H118477   4.317   3.429   3.076
 6157TIP3    H218478   4.244   3.382   2.952
 6158TIP3   OH218479   3.872   3.531   4.958
 6158TIP3    H118480   3.932   3.525   4.884
 6158TIP3    H218481   3.810   3.459   4.946
 6159TIP3   OH218482   1.381   3.630   1.594
 6159TIP3    H118483   1.461   3.578   1.603
 6159TIP3    H218484   1.316   3.585   1.647
 6160TIP3   OH218485   3.877   4.109   4.989
 6160TIP3    H118486   3.926   4.087   4.910
 6160TIP3    H218487   3.940   4.099   5.061
 6161TIP3   OH218488   2.691   1.782   3.692
 6161TIP3    H118489   2.611   1.796   3.642
 6161TIP3    H218490   2.731   1.704   3.655
 6162TIP3   OH218491   6.263   0.400   1.059
 6162TIP3    H118492   6.308   0.349   1.125
 6162TIP3    H218493   6.332   0.450   1.015
 6163TIP3   OH218494   0.021   1.265   3.065
 6163TIP3    H118495   0.108   1.300   3.045
 6163TIP3    H218496  -0.017   1.327   3.127
 6164TIP3   OH218497   3.857   1.217   3.349
 6164TIP3    H118498   3.815   1.131   3.357
 6164TIP3    H218499   3.794   1.278   3.386
 6165TIP3   OH218500   5.201   2.616   0.170
 6165TIP3    H118501   5.170   2.706   0.169
 6165TIP3    H218502   5.142   2.569   0.111
 6166TIP3   OH218503   2.245   3.531   1.042
 6166TIP3    H118504   2.251   3.613   0.992
 6166TIP3    H218505   2.165   3.490   1.011
 6167TIP3   OH218506   5.316   0.893   4.696
 6167TIP3    H118507   5.314   0.822   4.631
 6167TIP3    H218508   5.408   0.902   4.718
 6168TIP3   OH218509   0.447   1.131   3.780
 6168TIP3    H118510   0.381   1.169   3.722
 6168TIP3    H218511   0.493   1.207   3.816
 6169TIP3   OH218512   3.488   1.174   4.981
 6169TIP3    H118513   3.394   1.182   4.995
 6169TIP3    H218514   3.500   1.083   4.954
 6170TIP3   OH218515   3.597   3.902   3.426
 6170TIP3    H118516   3.505   3.911   3.451
 6170TIP3    H218517   3.646   3.932   3.502
 6171TIP3   OH218518   1.994   2.216   3.305
 6171TIP3    H118519   2.045   2.291   3.336
 6171TIP3    H218520   1.999   2.221   3.210
 6172TIP3   OH218521   6.157   1.761   0.197
 6172TIP3    H118522   6.238   1.763   0.248
 6172TIP3    H218523   6.181   1.797   0.112
 6173TIP3   OH218524   3.913   0.917   3.918
 6173TIP3    H118525   3.945   0.964   3.841
 6173TIP3    H218526   3.845   0.859   3.884
 6174TIP3   OH218527   4.949   5.431   3.492
 6174TIP3    H118528   4.976   5.356   3.439
 6174TIP3    H218529   4.859   5.411   3.518
 6175TIP3   OH218530   5.544   4.919   1.972
 6175TIP3    H118531   5.517   4.847   2.029
 6175TIP3    H218532   5.627   4.948   2.009
 6176TIP3   OH218533   1.521   2.803   4.490
 6176TIP3    H118534   1.484   2.843   4.412
 6176TIP3    H218535   1.608   2.774   4.464
 6177TIP3   OH218536   5.714   0.910   1.414
 6177TIP3    H118537   5.782   0.849   1.441
 6177TIP3    H218538   5.752   0.956   1.339
 6178TIP3   OH218539   0.511   1.440   2.109
 6178TIP3    H118540   0.588   1.422   2.163
 6178TIP3    H218541   0.538   1.416   2.020
 6179TIP3   OH218542   3.254   2.153   3.039
 6179TIP3    H118543   3.198   2.227   3.014
 6179TIP3    H218544   3.343   2.185   3.025
 6180TIP3   OH218545   0.279   2.196   2.688
 6180TIP3    H118546   0.338   2.154   2.624
 6180TIP3    H218547   0.223   2.253   2.635
 6181TIP3   OH218548   1.672   3.185   3.681
 6181TIP3    H118549   1.617   3.172   3.759
 6181TIP3    H218550   1.610   3.193   3.609
 6182TIP3   OH218551   1.148   0.315   0.190
 6182TIP3    H118552   1.116   0.240   0.241
 6182TIP3    H218553   1.192   0.371   0.254
 6183TIP3   OH218554   4.150   3.565   1.262
 6183TIP3    H118555   4.243   3.547   1.248
 6183TIP3    H218556   4.116   3.485   1.301
 6184TIP3   OH218557   3.229   5.506   2.640
 6184TIP3    H118558   3.320   5.507   2.611
 6184TIP3    H218559   3.185   5.447   2.579
 6185TIP3   OH218560   5.995   4.016   4.326
 6185TIP3    H118561   6.001   4.013   4.422
 6185TIP3    H218562   6.081   3.988   4.296
 6186TIP3   OH218563   4.837   3.606   4.469
 6186TIP3    H118564   4.748   3.572   4.479
 6186TIP3    H218565   4.850   3.610   4.374
 6187TIP3   OH218566   4.803   4.963   5.151
 6187TIP3    H118567   4.746   4.923   5.216
 6187TIP3    H218568   4.755   4.954   5.068
 6188TIP3   OH218569   0.265   4.205   4.862
 6188TIP3    H118570   0.211   4.157   4.798
 6188TIP3    H218571   0.240   4.168   4.947
 6189TIP3   OH218572   1.218   4.058   1.842
 6189TIP3    H118573   1.223   4.006   1.922
 6189TIP3    H218574   1.308   4.082   1.822
 6190TIP3   OH218575   4.419   2.542   3.017
 6190TIP3    H118576   4.482   2.475   2.994
 6190TIP3    H218577   4.364   2.502   3.084
 6191TIP3   OH218578   3.220   2.525   1.381
 6191TIP3    H118579   3.253   2.462   1.444
 6191TIP3    H218580   3.241   2.487   1.295
 6192TIP3   OH218581   3.339   2.506   2.405
 6192TIP3    H118582   3.271   2.524   2.341
 6192TIP3    H218583   3.380   2.591   2.421
 6193TIP3   OH218584   1.941   2.448   0.633
 6193TIP3    H118585   1.989   2.420   0.555
 6193TIP3    H218586   1.916   2.538   0.615
 6194TIP3   OH218587   4.119   3.058   1.519
 6194TIP3    H118588   4.086   3.138   1.478
 6194TIP3    H218589   4.087   2.987   1.463
 6195TIP3   OH218590   0.632   3.848   0.718
 6195TIP3    H118591   0.621   3.930   0.670
 6195TIP3    H218592   0.621   3.872   0.810
 6196TIP3   OH218593   0.092   4.876   2.875
 6196TIP3    H118594   0.025   4.855   2.940
 6196TIP3    H218595   0.174   4.876   2.924
 6197TIP3   OH218596   3.176   5.046   4.906
 6197TIP3    H118597   3.189   5.012   4.994
 6197TIP3    H218598   3.176   5.141   4.916
 6198TIP3   OH218599   4.119   4.949   4.270
 6198TIP3    H118600   4.144   5.031   4.312
 6198TIP3    H218601   4.188   4.887   4.293
 6199TIP3   OH218602   3.038   3.259   0.828
 6199TIP3    H118603   3.071   3.209   0.903
 6199TIP3    H218604   2.994   3.194   0.773
 6200TIP3   OH218605   6.214   4.448   4.574
 6200TIP3    H118606   6.239   4.357   4.559
 6200TIP3    H218607   6.248   4.469   4.661
 6201TIP3   OH218608   0.426   3.984   2.409
 6201TIP3    H118609   0.363   3.932   2.359
 6201TIP3    H218610   0.394   3.980   2.499
 6202TIP3   OH218611   5.694   0.332   1.421
 6202TIP3    H118612   5.724   0.258   1.474
 6202TIP3    H218613   5.765   0.347   1.358
 6203TIP3   OH218614   1.562   1.289   1.847
 6203TIP3    H118615   1.612   1.312   1.926
 6203TIP3    H218616   1.479   1.255   1.880
 6204TIP3   OH218617   1.311   5.501   3.872
 6204TIP3    H118618   1.227   5.464   3.898
 6204TIP3    H218619   1.319   5.582   3.923
 6205TIP3   OH218620   5.077   4.964   2.383
 6205TIP3    H118621   5.012   4.906   2.423
 6205TIP3    H218622   5.135   4.988   2.455
 6206TIP3   OH218623   3.732   4.940   3.644
 6206TIP3    H118624   3.790   4.946   3.569
 6206TIP3    H218625   3.670   4.871   3.621
 6207TIP3   OH218626   5.711   2.782   3.464
 6207TIP3    H118627   5.619   2.791   3.490
 6207TIP3    H218628   5.710   2.787   3.369
 6208TIP3   OH218629   2.443   5.007   3.148
 6208TIP3    H118630   2.521   5.035   3.100
 6208TIP3    H218631   2.398   4.948   3.088
 6209TIP3   OH218632   2.990   1.996   1.250
 6209TIP3    H118633   2.895   1.989   1.255
 6209TIP3    H218634   3.011   2.074   1.301
 6210TIP3   OH218635   0.131   1.131   1.689
 6210TIP3    H118636   0.138   1.036   1.682
 6210TIP3    H218637   0.053   1.145   1.741
 6211TIP3   OH218638   2.905   2.699   0.555
 6211TIP3    H118639   2.972   2.654   0.607
 6211TIP3    H218640   2.932   2.684   0.464
 6212TIP3   OH218641   2.657   1.414   2.945
 6212TIP3    H118642   2.596   1.483   2.919
 6212TIP3    H218643   2.609   1.333   2.929
 6213TIP3   OH218644   3.806   3.786   4.874
 6213TIP3    H118645   3.771   3.777   4.785
 6213TIP3    H218646   3.836   3.697   4.896
 6214TIP3   OH218647   0.467   4.494   0.060
 6214TIP3    H118648   0.455   4.471  -0.032
 6214TIP3    H218649   0.380   4.486   0.099
 6215TIP3   OH218650   1.631   5.297   3.444
 6215TIP3    H118651   1.715   5.324   3.408
 6215TIP3    H218652   1.621   5.206   3.417
 6216TIP3   OH218653   3.604   0.251   5.009
 6216TIP3    H118654   3.568   0.246   5.098
 6216TIP3    H218655   3.543   0.201   4.956
 6217TIP3   OH218656   1.319   2.264   2.124
 6217TIP3    H118657   1.329   2.355   2.153
 6217TIP3    H218658   1.402   2.222   2.149
 6218TIP3   OH218659   2.313   4.036   0.171
 6218TIP3    H118660   2.380   3.990   0.121
 6218TIP3    H218661   2.233   4.023   0.120
 6219TIP3   OH218662   3.601   3.001   5.049
 6219TIP3    H118663   3.551   3.070   5.007
 6219TIP3    H218664   3.605   3.026   5.142
 6220TIP3   OH218665   1.767   3.892   3.430
 6220TIP3    H118666   1.678   3.926   3.422
 6220TIP3    H218667   1.817   3.965   3.467
 6221TIP3   OH218668   1.779   3.736   0.619
 6221TIP3    H118669   1.759   3.806   0.681
 6221TIP3    H218670   1.846   3.774   0.562
 6222TIP3   OH218671   1.888   0.527   3.516
 6222TIP3    H118672   1.815   0.564   3.566
 6222TIP3    H218673   1.946   0.602   3.500
 6223TIP3   OH218674   0.351   5.359   2.392
 6223TIP3    H118675   0.426   5.417   2.389
 6223TIP3    H218676   0.383   5.281   2.437
 6224TIP3   OH218677   2.584   5.441   0.257
 6224TIP3    H118678   2.615   5.386   0.329
 6224TIP3    H218679   2.663   5.465   0.209
 6225TIP3   OH218680   5.318   1.658   5.020
 6225TIP3    H118681   5.336   1.752   5.030
 6225TIP3    H218682   5.226   1.654   4.994
 6226TIP3   OH218683   3.732   2.782   3.530
 6226TIP3    H118684   3.788   2.758   3.604
 6226TIP3    H218685   3.650   2.808   3.570
 6227TIP3   OH218686   3.323   1.354   4.269
 6227TIP3    H118687   3.414   1.382   4.275
 6227TIP3    H218688   3.328   1.262   4.244
 6228TIP3   OH218689   0.204   0.560   2.305
 6228TIP3    H118690   0.289   0.601   2.320
 6228TIP3    H218691   0.157   0.573   2.387
 6229TIP3   OH218692   1.071   2.819   1.408
 6229TIP3    H118693   1.141   2.869   1.450
 6229TIP3    H218694   1.082   2.730   1.443
 6230TIP3   OH218695   0.400   3.018   2.105
 6230TIP3    H118696   0.359   3.091   2.152
 6230TIP3    H218697   0.327   2.973   2.062
 6231TIP3   OH218698   0.183   0.692   2.584
 6231TIP3    H118699   0.244   0.743   2.531
 6231TIP3    H218700   0.236   0.620   2.619
 6232TIP3   OH218701   6.096   2.372   1.990
 6232TIP3    H118702   6.045   2.452   2.003
 6232TIP3    H218703   6.140   2.385   1.906
 6233TIP3   OH218704   0.607   4.683   4.134
 6233TIP3    H118705   0.689   4.676   4.087
 6233TIP3    H218706   0.542   4.707   4.067
 6234TIP3   OH218707   4.289   4.764   0.045
 6234TIP3    H118708   4.196   4.744   0.051
 6234TIP3    H218709   4.309   4.811   0.126
 6235TIP3   OH218710   2.710   1.904   4.365
 6235TIP3    H118711   2.630   1.858   4.391
 6235TIP3    H218712   2.752   1.844   4.303
 6236TIP3   OH218713   2.556   5.969   0.056
 6236TIP3    H118714   2.486   5.913   0.022
 6236TIP3    H218715   2.541   6.054   0.015
 6237TIP3   OH218716   0.353   2.877   2.785
 6237TIP3    H118717   0.376   2.833   2.703
 6237TIP3    H218718   0.346   2.807   2.849
 6238TIP3   OH218719   5.280   3.592   3.145
 6238TIP3    H118720   5.205   3.586   3.086
 6238TIP3    H218721   5.356   3.597   3.088
 6239TIP3   OH218722   0.658   3.191   0.295
 6239TIP3    H118723   0.729   3.255   0.290
 6239TIP3    H218724   0.633   3.191   0.388
 6240TIP3   OH218725   3.465   3.607   0.778
 6240TIP3    H118726   3.458   3.676   0.712
 6240TIP3    H218727   3.410   3.637   0.850
 6241TIP3   OH218728   4.998   5.162   3.401
 6241TIP3    H118729   5.000   5.098   3.330
 6241TIP3    H218730   5.067   5.132   3.461
 6242TIP3   OH218731   0.380   2.982   4.225
 6242TIP3    H118732   0.332   2.900   4.213
 6242TIP3    H218733   0.345   3.017   4.307
 6243TIP3   OH218734   5.053   4.341   0.508
 6243TIP3    H118735   5.125   4.289   0.471
 6243TIP3    H218736   5.051   4.421   0.456
 6244TIP3   OH218737   2.606   5.243   2.394
 6244TIP3    H118738   2.573   5.286   2.473
 6244TIP3    H218739   2.670   5.304   2.358
 6245TIP3   OH218740   5.630   3.451   4.442
 6245TIP3    H118741   5.650   3.363   4.412
 6245TIP3    H218742   5.714   3.486   4.473
 6246TIP3   OH218743   2.843   0.946   0.679
 6246TIP3    H118744   2.929   0.951   0.638
 6246TIP3    H218745   2.858   0.897   0.760
 6247TIP3   OH218746   1.620   4.046   0.502
 6247TIP3    H118747   1.650   4.004   0.582
 6247TIP3    H218748   1.677   4.012   0.433
 6248TIP3   OH218749   4.886   3.556   3.166
 6248TIP3    H118750   4.962   3.578   3.113
 6248TIP3    H218751   4.871   3.463   3.150
 6249TIP3   OH218752   6.237   5.372   4.247
 6249TIP3    H118753   6.155   5.328   4.227
 6249TIP3    H218754   6.259   5.418   4.166
 6250TIP3   OH218755   1.985   5.346   0.573
 6250TIP3    H118756   1.902   5.306   0.550
 6250TIP3    H218757   1.961   5.422   0.626
 6251TIP3   OH218758   0.452   0.779   2.490
 6251TIP3    H118759   0.508   0.705   2.464
 6251TIP3    H218760   0.499   0.856   2.458
 6252TIP3   OH218761   1.575   0.313   3.322
 6252TIP3    H118762   1.522   0.255   3.268
 6252TIP3    H218763   1.537   0.399   3.311
 6253TIP3   OH218764   4.023   2.297   0.550
 6253TIP3    H118765   4.107   2.342   0.540
 6253TIP3    H218766   3.957   2.366   0.539
 6254TIP3   OH218767   3.862   3.370   4.256
 6254TIP3    H118768   3.853   3.294   4.313
 6254TIP3    H218769   3.833   3.444   4.310
 6255TIP3   OH218770   5.704   5.765   4.019
 6255TIP3    H118771   5.715   5.853   4.055
 6255TIP3    H218772   5.727   5.706   4.091
 6256TIP3   OH218773   0.958   1.462   2.060
 6256TIP3    H118774   0.909   1.450   2.142
 6256TIP3    H218775   0.894   1.446   1.991
 6257TIP3   OH218776   5.897   2.025   3.950
 6257TIP3    H118777   5.941   1.947   3.916
 6257TIP3    H218778   5.958   2.060   4.015
 6258TIP3   OH218779   0.105   3.611   4.149
 6258TIP3    H118780   0.051   3.584   4.224
 6258TIP3    H218781   0.195   3.592   4.176
 6259TIP3   OH218782   2.243   2.145   0.371
 6259TIP3    H118783   2.305   2.173   0.438
 6259TIP3    H218784   2.289   2.157   0.288
 6260TIP3   OH218785   4.762   4.908   3.495
 6260TIP3    H118786   4.743   5.000   3.515
 6260TIP3    H218787   4.729   4.896   3.406
 6261TIP3   OH218788   2.382   5.190   3.603
 6261TIP3    H118789   2.384   5.181   3.508
 6261TIP3    H218790   2.292   5.215   3.623
 6262TIP3   OH218791   3.382   3.424   4.800
 6262TIP3    H118792   3.441   3.499   4.810
 6262TIP3    H218793   3.347   3.432   4.711
 6263TIP3   OH218794   1.655   1.836   2.302
 6263TIP3    H118795   1.573   1.883   2.319
 6263TIP3    H218796   1.672   1.852   2.209
 6264TIP3   OH218797   4.621   1.796   2.786
 6264TIP3    H118798   4.596   1.870   2.842
 6264TIP3    H218799   4.707   1.769   2.819
 6265TIP3   OH218800   6.053   5.485   3.042
 6265TIP3    H118801   5.965   5.503   3.077
 6265TIP3    H218802   6.041   5.409   2.985
 6266TIP3   OH218803   2.438   3.154   0.562
 6266TIP3    H118804   2.360   3.162   0.616
 6266TIP3    H218805   2.439   3.062   0.535
 6267TIP3   OH218806   2.477   4.738   2.485
 6267TIP3    H118807   2.563   4.699   2.472
 6267TIP3    H218808   2.491   4.804   2.553
 6268TIP3   OH218809   1.733   4.017   4.163
 6268TIP3    H118810   1.812   3.983   4.123
 6268TIP3    H218811   1.673   3.942   4.164
 6269TIP3   OH218812   2.499   0.763   2.299
 6269TIP3    H118813   2.447   0.702   2.351
 6269TIP3    H218814   2.440   0.788   2.227
 6270TIP3   OH218815   1.460   4.349   1.168
 6270TIP3    H118816   1.417   4.432   1.189
 6270TIP3    H218817   1.445   4.337   1.074
 6271TIP3   OH218818   2.671   3.676   0.522
 6271TIP3    H118819   2.629   3.762   0.533
 6271TIP3    H218820   2.623   3.618   0.581
 6272TIP3   OH218821   2.846   2.573   4.676
 6272TIP3    H118822   2.786   2.637   4.714
 6272TIP3    H218823   2.928   2.620   4.662
 6273TIP3   OH218824   2.192   2.949   4.561
 6273TIP3    H118825   2.200   3.041   4.588
 6273TIP3    H218826   2.281   2.915   4.562
 6274TIP3   OH218827   3.941   1.543   4.717
 6274TIP3    H118828   3.891   1.625   4.720
 6274TIP3    H218829   4.031   1.570   4.736
 6275TIP3   OH218830   1.666   3.810   0.982
 6275TIP3    H118831   1.600   3.845   1.041
 6275TIP3    H218832   1.628   3.729   0.948
 6276TIP3   OH218833   6.304   5.359   3.942
 6276TIP3    H118834   6.358   5.328   3.869
 6276TIP3    H218835   6.228   5.301   3.942
 6277TIP3   OH218836   6.191   2.434   1.268
 6277TIP3    H118837   6.142   2.437   1.350
 6277TIP3    H218838   6.242   2.353   1.274
 6278TIP3   OH218839   1.478   4.943   3.620
 6278TIP3    H118840   1.441   5.031   3.629
 6278TIP3    H218841   1.535   4.949   3.544
 6279TIP3   OH218842   6.147   5.715   0.879
 6279TIP3    H118843   6.180   5.693   0.966
 6279TIP3    H218844   6.133   5.809   0.882
 6280TIP3   OH218845   3.255   0.625   0.854
 6280TIP3    H118846   3.179   0.570   0.875
 6280TIP3    H218847   3.220   0.714   0.851
 6281TIP3   OH218848   2.906   5.489   4.996
 6281TIP3    H118849   2.817   5.522   5.012
 6281TIP3    H218850   2.892   5.400   4.963
 6282TIP3   OH218851   1.456   0.595   3.812
 6282TIP3    H118852   1.417   0.624   3.730
 6282TIP3    H218853   1.391   0.538   3.851
 6283TIP3   OH218854   3.589   3.642   2.537
 6283TIP3    H118855   3.682   3.659   2.524
 6283TIP3    H218856   3.568   3.689   2.618
 6284TIP3   OH218857   4.422   3.022   0.340
 6284TIP3    H118858   4.387   3.032   0.251
 6284TIP3    H218859   4.348   2.985   0.390
 6285TIP3   OH218860   0.592   0.749   3.346
 6285TIP3    H118861   0.512   0.780   3.304
 6285TIP3    H218862   0.589   0.787   3.434
 6286TIP3   OH218863   5.752   5.010   2.122
 6286TIP3    H118864   5.711   5.095   2.134
 6286TIP3    H218865   5.845   5.026   2.131
 6287TIP3   OH218866   2.336   2.339   3.034
 6287TIP3    H118867   2.432   2.340   3.030
 6287TIP3    H218868   2.316   2.281   3.108
 6288TIP3   OH218869   2.929   2.795   3.269
 6288TIP3    H118870   3.020   2.773   3.292
 6288TIP3    H218871   2.885   2.807   3.354
 6289TIP3   OH218872   1.530   0.797   2.982
 6289TIP3    H118873   1.478   0.765   2.908
 6289TIP3    H218874   1.511   0.735   3.052
 6290TIP3   OH218875   4.263   0.862   2.621
 6290TIP3    H118876   4.244   0.919   2.695
 6290TIP3    H218877   4.217   0.781   2.641
 6291TIP3   OH218878   3.601   4.147   1.832
 6291TIP3    H118879   3.605   4.242   1.817
 6291TIP3    H218880   3.592   4.109   1.745
 6292TIP3   OH218881   3.547   1.092   1.069
 6292TIP3    H118882   3.543   1.000   1.042
 6292TIP3    H218883   3.487   1.138   1.011
 6293TIP3   OH218884   4.064   2.460   3.506
 6293TIP3    H118885   4.150   2.452   3.464
 6293TIP3    H218886   4.030   2.543   3.475
 6294TIP3   OH218887   5.421   4.416   3.960
 6294TIP3    H118888   5.349   4.414   4.022
 6294TIP3    H218889   5.403   4.345   3.900
 6295TIP3   OH218890   2.928   2.881   3.011
 6295TIP3    H118891   2.941   2.829   3.090
 6295TIP3    H218892   2.923   2.971   3.043
 6296TIP3   OH218893   2.066   4.266   0.893
 6296TIP3    H118894   2.019   4.272   0.976
 6296TIP3    H218895   2.124   4.191   0.903
 6297TIP3   OH218896   3.573   1.069   3.118
 6297TIP3    H118897   3.530   0.996   3.074
 6297TIP3    H218898   3.631   1.107   3.052
 6298TIP3   OH218899   1.220   2.677   2.839
 6298TIP3    H118900   1.300   2.711   2.798
 6298TIP3    H218901   1.173   2.755   2.869
 6299TIP3   OH218902   0.546   2.343   2.220
 6299TIP3    H118903   0.561   2.255   2.253
 6299TIP3    H218904   0.569   2.338   2.127
 6300TIP3   OH218905   3.938   1.193   0.789
 6300TIP3    H118906   3.846   1.218   0.780
 6300TIP3    H218907   3.975   1.256   0.850
 6301TIP3   OH218908   1.100   4.742   3.336
 6301TIP3    H118909   1.027   4.689   3.369
 6301TIP3    H218910   1.167   4.735   3.404
 6302TIP3   OH218911   3.255   4.642   0.418
 6302TIP3    H118912   3.323   4.618   0.481
 6302TIP3    H218913   3.288   4.721   0.375
 6303TIP3   OH218914   3.651   1.355   0.295
 6303TIP3    H118915   3.627   1.430   0.349
 6303TIP3    H218916   3.746   1.348   0.304
 6304TIP3   OH218917   0.814   0.482   3.525
 6304TIP3    H118918   0.810   0.573   3.553
 6304TIP3    H218919   0.725   0.461   3.498
 6305TIP3   OH218920   0.335   2.848   0.024
 6305TIP3    H118921   0.296   2.934   0.010
 6305TIP3    H218922   0.376   2.826  -0.059
 6306TIP3   OH218923   1.568   1.337   4.578
 6306TIP3    H118924   1.489   1.384   4.548
 6306TIP3    H218925   1.585   1.273   4.509
 6307TIP3   OH218926   5.948   3.747   4.236
 6307TIP3    H118927   6.009   3.701   4.179
 6307TIP3    H218928   5.986   3.834   4.247
 6308TIP3   OH218929   3.197   4.816   0.954
 6308TIP3    H118930   3.253   4.827   1.031
 6308TIP3    H218931   3.128   4.757   0.982
 6309TIP3   OH218932   4.555   5.603   0.226
 6309TIP3    H118933   4.614   5.672   0.256
 6309TIP3    H218934   4.471   5.647   0.216
 6310TIP3   OH218935   4.523   1.829   0.228
 6310TIP3    H118936   4.523   1.902   0.165
 6310TIP3    H218937   4.609   1.833   0.269
 6311TIP3   OH218938   5.042   2.861   1.001
 6311TIP3    H118939   5.052   2.819   1.086
 6311TIP3    H218940   5.005   2.794   0.944
 6312TIP3   OH218941   2.645   4.479   2.099
 6312TIP3    H118942   2.624   4.386   2.106
 6312TIP3    H218943   2.689   4.500   2.181
 6313TIP3   OH218944   5.934   0.469   4.891
 6313TIP3    H118945   5.974   0.465   4.978
 6313TIP3    H218946   5.847   0.505   4.906
 6314TIP3   OH218947   5.802   3.656   5.108
 6314TIP3    H118948   5.757   3.572   5.119
 6314TIP3    H218949   5.805   3.693   5.196
 6315TIP3   OH218950   5.177   5.730   0.436
 6315TIP3    H118951   5.138   5.652   0.476
 6315TIP3    H218952   5.104   5.773   0.391
 6316TIP3   OH218953   1.531   0.632   4.480
 6316TIP3    H118954   1.582   0.624   4.560
 6316TIP3    H218955   1.570   0.570   4.419
 6317TIP3   OH218956   5.682   2.678   1.954
 6317TIP3    H118957   5.751   2.717   1.899
 6317TIP3    H218958   5.633   2.621   1.895
 6318TIP3   OH218959   2.545   3.878   2.086
 6318TIP3    H118960   2.538   3.783   2.078
 6318TIP3    H218961   2.457   3.907   2.109
 6319TIP3   OH218962   1.583   3.697   0.381
 6319TIP3    H118963   1.554   3.610   0.410
 6319TIP3    H218964   1.515   3.756   0.415
 6320TIP3   OH218965   3.825   3.063   2.537
 6320TIP3    H118966   3.912   3.027   2.523
 6320TIP3    H218967   3.787   3.009   2.606
 6321TIP3   OH218968   5.337   0.541   3.693
 6321TIP3    H118969   5.386   0.527   3.613
 6321TIP3    H218970   5.400   0.577   3.755
 6322TIP3   OH218971   4.303   2.865   1.604
 6322TIP3    H118972   4.244   2.933   1.573
 6322TIP3    H218973   4.389   2.907   1.607
 6323TIP3   OH218974   2.351   0.654   1.001
 6323TIP3    H118975   2.299   0.726   0.965
 6323TIP3    H218976   2.291   0.611   1.063
 6324TIP3   OH218977   6.082   2.065   1.489
 6324TIP3    H118978   6.129   2.059   1.406
 6324TIP3    H218979   6.011   2.001   1.482
 6325TIP3   OH218980   0.843   1.521   0.545
 6325TIP3    H118981   0.911   1.462   0.578
 6325TIP3    H218982   0.891   1.585   0.492
 6326TIP3   OH218983   0.776   4.662   0.913
 6326TIP3    H118984   0.813   4.704   0.835
 6326TIP3    H218985   0.805   4.571   0.907
 6327TIP3   OH218986   5.036   2.013   2.418
 6327TIP3    H118987   4.965   1.966   2.375
 6327TIP3    H218988   5.013   2.106   2.407
 6328TIP3   OH218989   3.274   1.701   4.230
 6328TIP3    H118990   3.309   1.757   4.160
 6328TIP3    H218991   3.350   1.654   4.263
 6329TIP3   OH218992   4.704   2.050   3.307
 6329TIP3    H118993   4.669   1.983   3.248
 6329TIP3    H218994   4.780   2.085   3.260
 6330TIP3   OH218995   1.217   4.444   3.454
 6330TIP3    H118996   1.206   4.444   3.549
 6330TIP3    H218997   1.169   4.366   3.424
 6331TIP3   OH218998   1.904   3.952   2.993
 6331TIP3    H118999   1.918   4.004   3.072
 6331TIP3    H219000   1.814   3.973   2.967
 6332TIP3   OH219001   2.703   4.835   5.016
 6332TIP3    H119002   2.731   4.744   5.003
 6332TIP3    H219003   2.762   4.870   5.082
 6333TIP3   OH219004   3.790   1.704   2.404
 6333TIP3    H119005   3.813   1.764   2.332
 6333TIP3    H219006   3.696   1.718   2.416
 6334TIP3   OH219007   5.288   3.038   2.492
 6334TIP3    H119008   5.342   3.015   2.416
 6334TIP3    H219009   5.218   2.973   2.492
 6335TIP3   OH219010   6.308   1.421   2.871
 6335TIP3    H119011   6.320   1.340   2.919
 6335TIP3    H219012   6.280   1.393   2.784
 6336TIP3   OH219013   4.080   2.102   4.543
 6336TIP3    H119014   4.173   2.118   4.558
 6336TIP3    H219015   4.058   2.158   4.469
 6337TIP3   OH219016   0.441   2.399   3.524
 6337TIP3    H119017   0.499   2.471   3.550
 6337TIP3    H219018   0.458   2.389   3.430
 6338TIP3   OH219019   1.582   3.372   2.688
 6338TIP3    H119020   1.603   3.312   2.617
 6338TIP3    H219021   1.658   3.429   2.695
 6339TIP3   OH219022   2.229   3.596  -0.003
 6339TIP3    H119023   2.165   3.537   0.036
 6339TIP3    H219024   2.313   3.569   0.034
 6340TIP3   OH219025   4.180   0.184   3.440
 6340TIP3    H119026   4.091   0.201   3.407
 6340TIP3    H219027   4.194   0.251   3.507
 6341TIP3   OH219028   3.326   2.298   4.093
 6341TIP3    H119029   3.400   2.253   4.052
 6341TIP3    H219030   3.252   2.282   4.034
 6342TIP3   OH219031   2.811   2.693   4.143
 6342TIP3    H119032   2.724   2.708   4.181
 6342TIP3    H219033   2.862   2.769   4.170
 6343TIP3   OH219034   0.358   0.631   0.217
 6343TIP3    H119035   0.324   0.603   0.132
 6343TIP3    H219036   0.415   0.559   0.245
 6344TIP3   OH219037   1.130   1.700   4.680
 6344TIP3    H119038   1.080   1.639   4.734
 6344TIP3    H219039   1.153   1.649   4.602
 6345TIP3   OH219040   3.372   0.384   0.526
 6345TIP3    H119041   3.411   0.297   0.541
 6345TIP3    H219042   3.405   0.438   0.597
 6346TIP3   OH219043   1.283   4.586   2.789
 6346TIP3    H119044   1.276   4.619   2.699
 6346TIP3    H219045   1.363   4.626   2.824
 6347TIP3   OH219046   0.099   2.598   0.801
 6347TIP3    H119047   0.165   2.667   0.790
 6347TIP3    H219048   0.097   2.582   0.895
 6348TIP3   OH219049   2.342   1.339   1.645
 6348TIP3    H119050   2.273   1.406   1.646
 6348TIP3    H219051   2.304   1.265   1.692
 6349TIP3   OH219052   4.012   2.267   3.964
 6349TIP3    H119053   3.919   2.292   3.970
 6349TIP3    H219054   4.029   2.260   3.870
 6350TIP3   OH219055   0.885   4.460   3.170
 6350TIP3    H119056   0.899   4.524   3.101
 6350TIP3    H219057   0.863   4.512   3.247
 6351TIP3   OH219058   4.599   3.193   4.116
 6351TIP3    H119059   4.524   3.231   4.163
 6351TIP3    H219060   4.611   3.107   4.154
 6352TIP3   OH219061   3.915   1.756   2.162
 6352TIP3    H119062   3.877   1.724   2.080
 6352TIP3    H219063   3.993   1.703   2.174
 6353TIP3   OH219064   5.797   3.009   4.986
 6353TIP3    H119065   5.855   3.085   4.976
 6353TIP3    H219066   5.854   2.940   5.019
 6354TIP3   OH219067   2.749   5.547   1.419
 6354TIP3    H119068   2.714   5.635   1.407
 6354TIP3    H219069   2.793   5.527   1.336
 6355TIP3   OH219070   2.550   0.486   0.872
 6355TIP3    H119071   2.496   0.535   0.934
 6355TIP3    H219072   2.547   0.537   0.791
 6356TIP3   OH219073   2.480   2.132   1.396
 6356TIP3    H119074   2.426   2.161   1.323
 6356TIP3    H219075   2.421   2.130   1.471
 6357TIP3   OH219076   2.337   4.246   4.843
 6357TIP3    H119077   2.275   4.259   4.771
 6357TIP3    H219078   2.282   4.234   4.920
 6358TIP3   OH219079   2.236   0.268   4.087
 6358TIP3    H119080   2.224   0.359   4.115
 6358TIP3    H219081   2.330   0.256   4.085
 6359TIP3   OH219082   3.689   1.584   4.476
 6359TIP3    H119083   3.760   1.520   4.477
 6359TIP3    H219084   3.717   1.652   4.537
 6360TIP3   OH219085   2.711   5.741   1.957
 6360TIP3    H119086   2.802   5.753   1.985
 6360TIP3    H219087   2.664   5.723   2.038
 6361TIP3   OH219088   5.642   3.743   1.234
 6361TIP3    H119089   5.554   3.745   1.196
 6361TIP3    H219090   5.691   3.810   1.186
 6362TIP3   OH219091   2.786   5.664   3.905
 6362TIP3    H119092   2.857   5.717   3.870
 6362TIP3    H219093   2.812   5.574   3.888
 6363TIP3   OH219094   3.747   1.710   3.427
 6363TIP3    H119095   3.661   1.724   3.466
 6363TIP3    H219096   3.806   1.702   3.501
 6364TIP3   OH219097   0.554   5.294   1.115
 6364TIP3    H119098   0.532   5.267   1.204
 6364TIP3    H219099   0.486   5.255   1.061
 6365TIP3   OH219100   4.803   1.476   4.558
 6365TIP3    H119101   4.709   1.462   4.547
 6365TIP3    H219102   4.843   1.391   4.535
 6366TIP3   OH219103   6.335   3.661   1.470
 6366TIP3    H119104   6.378   3.646   1.386
 6366TIP3    H219105   6.247   3.623   1.460
 6367TIP3   OH219106   2.121   1.894   0.732
 6367TIP3    H119107   2.084   1.969   0.686
 6367TIP3    H219108   2.052   1.866   0.792
 6368TIP3   OH219109   0.002   0.694   3.959
 6368TIP3    H119110  -0.002   0.611   3.911
 6368TIP3    H219111   0.096   0.711   3.967
 6369TIP3   OH219112   2.636   3.242   4.330
 6369TIP3    H119113   2.704   3.217   4.393
 6369TIP3    H219114   2.570   3.288   4.382
 6370TIP3   OH219115   0.770   1.766   5.044
 6370TIP3    H119116   0.756   1.674   5.021
 6370TIP3    H219117   0.721   1.778   5.126
 6371TIP3   OH219118   2.280   2.319   4.866
 6371TIP3    H119119   2.314   2.298   4.953
 6371TIP3    H219120   2.192   2.282   4.864
 6372TIP3   OH219121   5.531   5.816   1.760
 6372TIP3    H119122   5.625   5.829   1.767
 6372TIP3    H219123   5.508   5.847   1.673
 6373TIP3   OH219124   5.516   3.041   0.431
 6373TIP3    H119125   5.470   2.960   0.452
 6373TIP3    H219126   5.604   3.013   0.406
 6374TIP3   OH219127   1.444   0.765   1.482
 6374TIP3    H119128   1.392   0.686   1.498
 6374TIP3    H219129   1.407   0.830   1.541
 6375TIP3   OH219130   6.070   3.934   1.947
 6375TIP3    H119131   6.007   3.874   1.987
 6375TIP3    H219132   6.119   3.879   1.885
 6376TIP3   OH219133   2.410   0.856   4.899
 6376TIP3    H119134   2.331   0.894   4.937
 6376TIP3    H219135   2.482   0.893   4.950
 6377TIP3   OH219136   2.350   3.913   1.649
 6377TIP3    H119137   2.355   3.843   1.715
 6377TIP3    H219138   2.420   3.974   1.673
 6378TIP3   OH219139   0.307   0.993   3.485
 6378TIP3    H119140   0.362   1.041   3.423
 6378TIP3    H219141   0.277   1.060   3.547
 6379TIP3   OH219142   5.287   3.086   3.492
 6379TIP3    H119143   5.248   3.158   3.442
 6379TIP3    H219144   5.220   3.060   3.554
 6380TIP3   OH219145   2.265   2.046   2.841
 6380TIP3    H119146   2.187   2.081   2.885
 6380TIP3    H219147   2.254   1.951   2.846
 6381TIP3   OH219148   4.770   1.540   4.219
 6381TIP3    H119149   4.848   1.523   4.271
 6381TIP3    H219150   4.699   1.495   4.264
 6382TIP3   OH219151   5.180   2.785   5.161
 6382TIP3    H119152   5.131   2.760   5.082
 6382TIP3    H219153   5.116   2.779   5.232
 6383TIP3   OH219154   2.556   1.124   0.142
 6383TIP3    H119155   2.630   1.182   0.122
 6383TIP3    H219156   2.521   1.100   0.056
 6384TIP3   OH219157   2.456   0.906   2.756
 6384TIP3    H119158   2.528   0.844   2.749
 6384TIP3    H219159   2.422   0.913   2.667
 6385TIP3   OH219160   4.737   5.551   3.834
 6385TIP3    H119161   4.699   5.611   3.770
 6385TIP3    H219162   4.786   5.487   3.783
 6386TIP3   OH219163   0.589   3.721   4.259
 6386TIP3    H119164   0.633   3.640   4.284
 6386TIP3    H219165   0.581   3.770   4.341
 6387TIP3   OH219166   3.566   0.819   0.999
 6387TIP3    H119167   3.518   0.754   1.051
 6387TIP3    H219168   3.632   0.769   0.952
 6388TIP3   OH219169   1.057   1.670   1.238
 6388TIP3    H119170   0.967   1.658   1.266
 6388TIP3    H219171   1.083   1.586   1.200
 6389TIP3   OH219172   4.030   3.960   4.799
 6389TIP3    H119173   4.054   3.937   4.710
 6389TIP3    H219174   3.972   3.889   4.828
 6390TIP3   OH219175   2.080   2.293   0.891
 6390TIP3    H119176   2.112   2.288   0.801
 6390TIP3    H219177   1.990   2.262   0.886
 6391TIP3   OH219178   4.541   0.758   1.319
 6391TIP3    H119179   4.625   0.759   1.365
 6391TIP3    H219180   4.551   0.822   1.249
 6392TIP3   OH219181   3.847   0.918   1.163
 6392TIP3    H119182   3.829   1.010   1.143
 6392TIP3    H219183   3.801   0.902   1.246
 6393TIP3   OH219184   5.442   3.057   2.278
 6393TIP3    H119185   5.461   3.129   2.338
 6393TIP3    H219186   5.524   3.008   2.273
 6394TIP3   OH219187   2.753   5.342   4.716
 6394TIP3    H119188   2.744   5.333   4.811
 6394TIP3    H219189   2.678   5.295   4.680
 6395TIP3   OH219190   3.740   5.861   0.793
 6395TIP3    H119191   3.715   5.953   0.805
 6395TIP3    H219192   3.730   5.845   0.700
 6396TIP3   OH219193   4.793   4.693   1.283
 6396TIP3    H119194   4.744   4.762   1.238
 6396TIP3    H219195   4.751   4.612   1.255
 6397TIP3   OH219196   5.024   3.465   0.182
 6397TIP3    H119197   5.090   3.432   0.243
 6397TIP3    H219198   5.026   3.404   0.108
 6398TIP3   OH219199   5.727   2.910   0.352
 6398TIP3    H119200   5.767   2.885   0.268
 6398TIP3    H219201   5.787   2.875   0.418
 6399TIP3   OH219202   5.075   4.447   4.006
 6399TIP3    H119203   4.990   4.481   4.033
 6399TIP3    H219204   5.133   4.468   4.079
 6400TIP3   OH219205   5.007   3.284   0.582
 6400TIP3    H119206   4.985   3.203   0.628
 6400TIP3    H219207   4.922   3.320   0.555
 6401TIP3   OH219208   1.870   0.285   2.249
 6401TIP3    H119209   1.826   0.229   2.186
 6401TIP3    H219210   1.959   0.296   2.214
 6402TIP3   OH219211   0.186   3.949   1.951
 6402TIP3    H119212   0.225   3.948   1.864
 6402TIP3    H219213   0.159   4.040   1.964
 6403TIP3   OH219214   3.033   0.567   2.108
 6403TIP3    H119215   2.958   0.590   2.055
 6403TIP3    H219216   3.062   0.650   2.146
 6404TIP3   OH219217   4.210   4.995   0.510
 6404TIP3    H119218   4.221   5.078   0.465
 6404TIP3    H219219   4.261   5.004   0.591
 6405TIP3   OH219220   2.331   3.800   1.218
 6405TIP3    H119221   2.240   3.824   1.202
 6405TIP3    H219222   2.358   3.755   1.138
 6406TIP3   OH219223   0.789   3.620   1.766
 6406TIP3    H119224   0.718   3.659   1.714
 6406TIP3    H219225   0.862   3.681   1.757
 6407TIP3   OH219226   1.962   3.468   1.008
 6407TIP3    H119227   1.892   3.515   1.054
 6407TIP3    H219228   1.925   3.380   0.993
 6408TIP3   OH219229   5.481   2.005   4.217
 6408TIP3    H119230   5.393   2.041   4.226
 6408TIP3    H219231   5.507   2.029   4.128
 6409TIP3   OH219232   0.117   4.476   2.119
 6409TIP3    H119233   0.192   4.517   2.161
 6409TIP3    H219234   0.066   4.549   2.084
 6410TIP3   OH219235   0.009   2.378   2.248
 6410TIP3    H119236  -0.028   2.292   2.232
 6410TIP3    H219237   0.103   2.366   2.238
 6411TIP3   OH219238   3.016   4.757   3.906
 6411TIP3    H119239   2.965   4.835   3.884
 6411TIP3    H219240   3.107   4.787   3.912
 6412TIP3   OH219241   2.280   5.436   1.476
 6412TIP3    H119242   2.325   5.518   1.453
 6412TIP3    H219243   2.327   5.369   1.429
 6413TIP3   OH219244   6.068   3.139   0.960
 6413TIP3    H119245   6.050   3.070   1.024
 6413TIP3    H219246   5.996   3.132   0.897
 6414TIP3   OH219247   2.003   1.388   0.791
 6414TIP3    H119248   2.083   1.338   0.775
 6414TIP3    H219249   1.937   1.322   0.808
 6415TIP3   OH219250   5.914   3.975   0.333
 6415TIP3    H119251   5.909   4.057   0.382
 6415TIP3    H219252   5.984   3.926   0.375
 6416TIP3   OH219253   3.645   5.334   2.182
 6416TIP3    H119254   3.735   5.366   2.176
 6416TIP3    H219255   3.596   5.389   2.121
 6417TIP3   OH219256   4.181   3.951   3.197
 6417TIP3    H119257   4.270   3.916   3.202
 6417TIP3    H219258   4.149   3.922   3.112
 6418TIP3   OH219259   4.294   5.692   0.490
 6418TIP3    H119260   4.262   5.635   0.419
 6418TIP3    H219261   4.219   5.748   0.510
 6419TIP3   OH219262   2.203   2.813   4.861
 6419TIP3    H119263   2.134   2.747   4.864
 6419TIP3    H219264   2.279   2.770   4.900
 6420TIP3   OH219265   2.646   2.424   1.825
 6420TIP3    H119266   2.646   2.417   1.730
 6420TIP3    H219267   2.707   2.496   1.844
 6421TIP3   OH219268   3.263   2.374   1.162
 6421TIP3    H119269   3.262   2.426   1.081
 6421TIP3    H219270   3.271   2.284   1.132
 6422TIP3   OH219271   3.683   1.112   1.562
 6422TIP3    H119272   3.684   1.191   1.507
 6422TIP3    H219273   3.707   1.041   1.502
 6423TIP3   OH219274   4.475   2.749   4.689
 6423TIP3    H119275   4.453   2.828   4.738
 6423TIP3    H219276   4.428   2.757   4.607
 6424TIP3   OH219277   2.879   5.242   1.745
 6424TIP3    H119278   2.937   5.206   1.678
 6424TIP3    H219279   2.795   5.253   1.701
 6425TIP3   OH219280   1.786   0.568   2.197
 6425TIP3    H119281   1.769   0.477   2.222
 6425TIP3    H219282   1.810   0.564   2.105
 6426TIP3   OH219283   0.525   0.133   1.903
 6426TIP3    H119284   0.455   0.083   1.860
 6426TIP3    H219285   0.522   0.219   1.862
 6427TIP3   OH219286   2.146   3.708   2.136
 6427TIP3    H119287   2.154   3.655   2.215
 6427TIP3    H219288   2.053   3.706   2.115
 6428TIP3   OH219289   0.491   4.273   3.934
 6428TIP3    H119290   0.493   4.219   4.013
 6428TIP3    H219291   0.403   4.263   3.900
 6429TIP3   OH219292   4.301   5.835   4.655
 6429TIP3    H119293   4.258   5.904   4.604
 6429TIP3    H219294   4.260   5.839   4.741
 6430TIP3   OH219295   0.100   0.435   4.955
 6430TIP3    H119296   0.133   0.503   5.014
 6430TIP3    H219297   0.009   0.460   4.938
 6431TIP3   OH219298   3.842   1.328   4.052
 6431TIP3    H119299   3.871   1.415   4.025
 6431TIP3    H219300   3.764   1.311   3.999
 6432TIP3   OH219301   2.360   3.684   3.492
 6432TIP3    H119302   2.266   3.677   3.507
 6432TIP3    H219303   2.369   3.690   3.397
 6433TIP3   OH219304   4.888   2.692   0.833
 6433TIP3    H119305   4.935   2.635   0.772
 6433TIP3    H219306   4.883   2.641   0.914
 6434TIP3   OH219307   3.574   2.727   4.478
 6434TIP3    H119308   3.665   2.721   4.449
 6434TIP3    H219309   3.527   2.755   4.399
 6435TIP3   OH219310   2.363   0.954   3.993
 6435TIP3    H119311   2.389   1.037   4.033
 6435TIP3    H219312   2.444   0.904   3.986
 6436TIP3   OH219313   2.601   0.496   2.634
 6436TIP3    H119314   2.592   0.405   2.605
 6436TIP3    H219315   2.532   0.543   2.587
 6437TIP3   OH219316   1.377   5.545   1.182
 6437TIP3    H119317   1.437   5.470   1.184
 6437TIP3    H219318   1.383   5.578   1.092
 6438TIP3   OH219319   5.284   2.279   3.191
 6438TIP3    H119320   5.293   2.184   3.178
 6438TIP3    H219321   5.216   2.306   3.130
 6439TIP3   OH219322   4.467   3.932   0.141
 6439TIP3    H119323   4.416   3.873   0.086
 6439TIP3    H219324   4.549   3.885   0.156
 6440TIP3   OH219325   3.017   2.941   3.519
 6440TIP3    H119326   3.021   2.891   3.601
 6440TIP3    H219327   3.019   3.033   3.547
 6441TIP3   OH219328   5.159   4.673   2.426
 6441TIP3    H119329   5.088   4.657   2.489
 6441TIP3    H219330   5.233   4.701   2.479
 6442TIP3   OH219331  -0.014   0.696   2.188
 6442TIP3    H119332   0.025   0.781   2.164
 6442TIP3    H219333   0.060   0.635   2.186
 6443TIP3   OH219334   3.074   3.285   4.828
 6443TIP3    H119335   2.996   3.233   4.847
 6443TIP3    H219336   3.143   3.244   4.880
 6444TIP3   OH219337   0.162   2.552   3.692
 6444TIP3    H119338   0.155   2.489   3.620
 6444TIP3    H219339   0.171   2.498   3.771
 6445TIP3   OH219340   2.932   0.278   1.546
 6445TIP3    H119341   2.955   0.314   1.632
 6445TIP3    H219342   2.980   0.332   1.484
 6446TIP3   OH219343   0.782   5.448   0.250
 6446TIP3    H119344   0.845   5.433   0.179
 6446TIP3    H219345   0.717   5.380   0.239
 6447TIP3   OH219346   4.272   4.657   2.229
 6447TIP3    H119347   4.228   4.726   2.279
 6447TIP3    H219348   4.205   4.588   2.219
 6448TIP3   OH219349   6.298   2.513   1.041
 6448TIP3    H119350   6.236   2.542   0.973
 6448TIP3    H219351   6.245   2.505   1.120
 6449TIP3   OH219352   3.583   4.338   1.406
 6449TIP3    H119353   3.613   4.426   1.379
 6449TIP3    H219354   3.494   4.331   1.372
 6450TIP3   OH219355   0.240   2.201   1.068
 6450TIP3    H119356   0.297   2.124   1.069
 6450TIP3    H219357   0.293   2.272   1.104
 6451TIP3   OH219358   1.148   1.303   1.717
 6451TIP3    H119359   1.234   1.273   1.689
 6451TIP3    H219360   1.114   1.233   1.772
 6452TIP3   OH219361   0.224   1.838   0.976
 6452TIP3    H119362   0.314   1.863   0.959
 6452TIP3    H219363   0.172   1.912   0.945
 6453TIP3   OH219364   2.732   0.522   1.548
 6453TIP3    H119365   2.817   0.526   1.593
 6453TIP3    H219366   2.711   0.428   1.546
 6454TIP3   OH219367   5.855   2.335   3.798
 6454TIP3    H119368   5.824   2.298   3.715
 6454TIP3    H219369   5.794   2.406   3.818
 6455TIP3   OH219370   1.964   3.815   4.505
 6455TIP3    H119371   1.901   3.766   4.453
 6455TIP3    H219372   1.920   3.898   4.525
 6456TIP3   OH219373   0.510   1.727   2.114
 6456TIP3    H119374   0.514   1.637   2.147
 6456TIP3    H219375   0.566   1.727   2.037
 6457TIP3   OH219376   2.167   2.279   3.629
 6457TIP3    H119377   2.140   2.188   3.635
 6457TIP3    H219378   2.088   2.330   3.650
 6458TIP3   OH219379   0.418   5.471   5.034
 6458TIP3    H119380   0.339   5.422   5.013
 6458TIP3    H219381   0.489   5.407   5.029
 6459TIP3   OH219382   5.191   4.531   2.876
 6459TIP3    H119383   5.212   4.479   2.954
 6459TIP3    H219384   5.130   4.476   2.827
 6460TIP3   OH219385   3.301   1.995   0.757
 6460TIP3    H119386   3.274   1.969   0.668
 6460TIP3    H219387   3.393   2.019   0.748
 6461TIP3   OH219388   5.933   3.526   4.488
 6461TIP3    H119389   5.988   3.599   4.518
 6461TIP3    H219390   5.976   3.496   4.408
 6462TIP3   OH219391   6.139   4.331   1.289
 6462TIP3    H119392   6.185   4.385   1.225
 6462TIP3    H219393   6.077   4.391   1.331
 6463TIP3   OH219394   3.073   5.125   3.696
 6463TIP3    H119395   3.082   5.216   3.667
 6463TIP3    H219396   3.124   5.120   3.777
 6464TIP3   OH219397   2.082   5.546   3.372
 6464TIP3    H119398   2.148   5.614   3.361
 6464TIP3    H219399   2.002   5.594   3.396
 6465TIP3   OH219400   5.186   1.448   3.357
 6465TIP3    H119401   5.276   1.470   3.381
 6465TIP3    H219402   5.191   1.360   3.321
 6466TIP3   OH219403   1.518   4.149   5.019
 6466TIP3    H119404   1.462   4.072   5.020
 6466TIP3    H219405   1.607   4.114   5.015
 6467TIP3   OH219406   0.088   1.429   5.013
 6467TIP3    H119407   0.039   1.350   4.991
 6467TIP3    H219408   0.023   1.499   5.013
 6468TIP3   OH219409   0.851   5.717   3.429
 6468TIP3    H119410   0.821   5.684   3.513
 6468TIP3    H219411   0.926   5.773   3.452
 6469TIP3   OH219412   4.566   1.893   3.880
 6469TIP3    H119413   4.482   1.864   3.846
 6469TIP3    H219414   4.578   1.841   3.960
 6470TIP3   OH219415   6.256   1.261   2.295
 6470TIP3    H119416   6.330   1.297   2.344
 6470TIP3    H219417   6.273   1.288   2.204
 6471TIP3   OH219418   2.181   0.712   2.627
 6471TIP3    H119419   2.252   0.663   2.667
 6471TIP3    H219420   2.138   0.649   2.569
 6472TIP3   OH219421   1.746   5.350   2.213
 6472TIP3    H119422   1.818   5.327   2.154
 6472TIP3    H219423   1.780   5.332   2.301
 6473TIP3   OH219424   2.621   2.272   2.625
 6473TIP3    H119425   2.636   2.184   2.591
 6473TIP3    H219426   2.570   2.259   2.705
 6474TIP3   OH219427   0.544   2.402   4.744
 6474TIP3    H119428   0.638   2.415   4.730
 6474TIP3    H219429   0.537   2.369   4.833
 6475TIP3   OH219430   5.099   5.518   3.732
 6475TIP3    H119431   5.049   5.523   3.650
 6475TIP3    H219432   5.100   5.425   3.754
 6476TIP3   OH219433   2.678   5.138   2.674
 6476TIP3    H119434   2.719   5.156   2.759
 6476TIP3    H219435   2.639   5.222   2.649
 6477TIP3   OH219436   0.523   4.295   3.341
 6477TIP3    H119437   0.539   4.251   3.258
 6477TIP3    H219438   0.608   4.300   3.383
 6478TIP3   OH219439   2.711   2.948   2.646
 6478TIP3    H119440   2.792   2.899   2.661
 6478TIP3    H219441   2.724   3.032   2.691
 6479TIP3   OH219442   3.828   2.981   1.141
 6479TIP3    H119443   3.790   2.901   1.103
 6479TIP3    H219444   3.922   2.967   1.136
 6480TIP3   OH219445   2.558   4.607   3.991
 6480TIP3    H119446   2.499   4.679   3.967
 6480TIP3    H219447   2.559   4.550   3.914
 6481TIP3   OH219448   6.180   5.618   2.824
 6481TIP3    H119449   6.149   5.592   2.911
 6481TIP3    H219450   6.118   5.578   2.763
 6482TIP3   OH219451   3.474   0.574   2.774
 6482TIP3    H119452   3.527   0.494   2.774
 6482TIP3    H219453   3.455   0.590   2.681
 6483TIP3   OH219454   3.102   1.732   2.594
 6483TIP3    H119455   3.126   1.678   2.669
 6483TIP3    H219456   3.156   1.811   2.603
 6484TIP3   OH219457   4.244   0.282   3.876
 6484TIP3    H119458   4.231   0.307   3.785
 6484TIP3    H219459   4.187   0.341   3.925
 6485TIP3   OH219460   2.712   4.680   3.303
 6485TIP3    H119461   2.767   4.712   3.374
 6485TIP3    H219462   2.623   4.703   3.330
 6486TIP3   OH219463   1.782   1.530   0.390
 6486TIP3    H119464   1.829   1.602   0.434
 6486TIP3    H219465   1.810   1.452   0.437
 6487TIP3   OH219466   5.797   3.133   3.353
 6487TIP3    H119467   5.866   3.087   3.399
 6487TIP3    H219468   5.732   3.153   3.420
 6488TIP3   OH219469   1.752   0.528   1.923
 6488TIP3    H119470   1.705   0.600   1.882
 6488TIP3    H219471   1.748   0.457   1.858
 6489TIP3   OH219472   2.222   5.937   3.476
 6489TIP3    H119473   2.278   6.010   3.502
 6489TIP3    H219474   2.138   5.977   3.455
 6490TIP3   OH219475   3.569   0.592   2.049
 6490TIP3    H119476   3.626   0.517   2.033
 6490TIP3    H219477   3.491   0.555   2.091
 6491TIP3   OH219478   0.844   4.929   2.707
 6491TIP3    H119479   0.889   5.013   2.715
 6491TIP3    H219480   0.825   4.904   2.797
 6492TIP3   OH219481   5.142   2.839   1.291
 6492TIP3    H119482   5.137   2.745   1.307
 6492TIP3    H219483   5.080   2.878   1.353
 6493TIP3   OH219484   0.642   2.573   3.505
 6493TIP3    H119485   0.631   2.665   3.479
 6493TIP3    H219486   0.728   2.549   3.470
 6494TIP3   OH219487   3.577   4.053   2.599
 6494TIP3    H119488   3.516   4.087   2.533
 6494TIP3    H219489   3.550   4.094   2.680
 6495TIP3   OH219490   2.537   3.270   1.538
 6495TIP3    H119491   2.469   3.299   1.477
 6495TIP3    H219492   2.541   3.340   1.604
 6496TIP3   OH219493   2.179   3.703   4.343
 6496TIP3    H119494   2.114   3.730   4.407
 6496TIP3    H219495   2.256   3.756   4.362
 6497TIP3   OH219496   3.698   0.282   4.554
 6497TIP3    H119497   3.744   0.247   4.631
 6497TIP3    H219498   3.683   0.205   4.499
 6498TIP3   OH219499   1.660   4.621   4.641
 6498TIP3    H119500   1.664   4.687   4.571
 6498TIP3    H219501   1.646   4.672   4.721
 6499TIP3   OH219502   5.560   5.187   4.569
 6499TIP3    H119503   5.538   5.206   4.660
 6499TIP3    H219504   5.603   5.267   4.538
 6500TIP3   OH219505   5.663   4.365   1.665
 6500TIP3    H119506   5.604   4.420   1.614
 6500TIP3    H219507   5.700   4.425   1.730
 6501TIP3   OH219508   3.407   5.008   4.119
 6501TIP3    H119509   3.417   5.069   4.192
 6501TIP3    H219510   3.444   4.926   4.151
 6502TIP3   OH219511   4.959   4.260   3.245
 6502TIP3    H119512   4.912   4.286   3.324
 6502TIP3    H219513   4.946   4.165   3.240
 6503TIP3   OH219514   1.096   1.289   4.995
 6503TIP3    H119515   1.128   1.293   5.085
 6503TIP3    H219516   1.077   1.196   4.980
 6504TIP3   OH219517   1.070   5.078   1.461
 6504TIP3    H119518   1.003   5.127   1.509
 6504TIP3    H219519   1.055   5.099   1.369
 6505TIP3   OH219520   4.180   5.754   4.231
 6505TIP3    H119521   4.263   5.720   4.265
 6505TIP3    H219522   4.114   5.700   4.273
 6506TIP3   OH219523   0.481   1.383   0.839
 6506TIP3    H119524   0.480   1.460   0.895
 6506TIP3    H219525   0.525   1.316   0.892
 6507TIP3   OH219526   0.764   0.000   1.941
 6507TIP3    H119527   0.815   0.048   2.006
 6507TIP3    H219528   0.682   0.049   1.934
 6508TIP3   OH219529   4.004   2.841   1.391
 6508TIP3    H119530   4.018   2.753   1.426
 6508TIP3    H219531   3.998   2.828   1.296
 6509TIP3   OH219532   0.038   4.320   4.167
 6509TIP3    H119533   0.093   4.322   4.088
 6509TIP3    H219534   0.006   4.230   4.171
 6510TIP3   OH219535   1.694   4.209   2.381
 6510TIP3    H119536   1.701   4.232   2.474
 6510TIP3    H219537   1.705   4.114   2.378
 6511TIP3   OH219538   1.298   5.154   1.593
 6511TIP3    H119539   1.232   5.127   1.529
 6511TIP3    H219540   1.330   5.238   1.562
 6512TIP3   OH219541   1.891   1.197   4.051
 6512TIP3    H119542   1.885   1.103   4.068
 6512TIP3    H219543   1.969   1.207   3.997
 6513TIP3   OH219544   4.849   1.833   1.157
 6513TIP3    H119545   4.821   1.916   1.118
 6513TIP3    H219546   4.927   1.808   1.108
 6514TIP3   OH219547   4.360   4.111   5.129
 6514TIP3    H119548   4.286   4.051   5.122
 6514TIP3    H219549   4.395   4.116   5.040
 6515TIP3   OH219550   2.899   0.337   2.692
 6515TIP3    H119551   2.852   0.254   2.692
 6515TIP3    H219552   2.842   0.396   2.641
 6516TIP3   OH219553   2.249   0.698   4.345
 6516TIP3    H119554   2.345   0.703   4.337
 6516TIP3    H219555   2.217   0.740   4.265
 6517TIP3   OH219556   2.598   2.819   4.267
 6517TIP3    H119557   2.545   2.770   4.330
 6517TIP3    H219558   2.549   2.814   4.185
 6518TIP3   OH219559  -0.007   2.942   2.768
 6518TIP3    H119560  -0.020   2.943   2.863
 6518TIP3    H219561   0.087   2.928   2.756
 6519TIP3   OH219562   3.343   4.482   3.937
 6519TIP3    H119563   3.388   4.457   4.017
 6519TIP3    H219564   3.399   4.549   3.898
 6520TIP3   OH219565   0.711   4.370   2.579
 6520TIP3    H119566   0.786   4.413   2.621
 6520TIP3    H219567   0.658   4.442   2.544
 6521TIP3   OH219568   4.106   4.108   4.477
 6521TIP3    H119569   4.102   4.197   4.511
 6521TIP3    H219570   4.130   4.118   4.385
 6522TIP3   OH219571   2.851   2.114   4.494
 6522TIP3    H119572   2.831   2.023   4.472
 6522TIP3    H219573   2.921   2.139   4.433
 6523TIP3   OH219574   6.050   2.987   3.073
 6523TIP3    H119575   6.023   2.980   3.165
 6523TIP3    H219576   6.108   2.912   3.059
 6524TIP3   OH219577   4.624   4.893   4.266
 6524TIP3    H119578   4.564   4.888   4.340
 6524TIP3    H219579   4.646   4.801   4.247
 6525TIP3   OH219580   5.708   5.104   4.355
 6525TIP3    H119581   5.645   5.132   4.422
 6525TIP3    H219582   5.731   5.184   4.308
 6526TIP3   OH219583   4.153   1.642   2.291
 6526TIP3    H119584   4.186   1.719   2.245
 6526TIP3    H219585   4.176   1.568   2.234
 6527TIP3   OH219586   6.321   4.953   0.727
 6527TIP3    H119587   6.293   4.873   0.771
 6527TIP3    H219588   6.239   4.996   0.703
 6528TIP3   OH219589   1.436   1.908   0.731
 6528TIP3    H119590   1.373   1.872   0.669
 6528TIP3    H219591   1.418   2.001   0.733
 6529TIP3   OH219592   0.804   3.219   3.358
 6529TIP3    H119593   0.806   3.142   3.301
 6529TIP3    H219594   0.776   3.186   3.443
 6530TIP3   OH219595   4.501   1.483   1.832
 6530TIP3    H119596   4.502   1.388   1.818
 6530TIP3    H219597   4.414   1.511   1.806
 6531TIP3   OH219598   5.717   0.357   4.417
 6531TIP3    H119599   5.757   0.419   4.357
 6531TIP3    H219600   5.770   0.362   4.496
 6532TIP3   OH219601   3.322   0.694   0.471
 6532TIP3    H119602   3.247   0.676   0.528
 6532TIP3    H219603   3.320   0.623   0.407
 6533TIP3   OH219604   1.411   2.518   1.913
 6533TIP3    H119605   1.331   2.530   1.863
 6533TIP3    H219606   1.422   2.423   1.918
 6534TIP3   OH219607   1.596   2.908   4.947
 6534TIP3    H119608   1.569   2.995   4.974
 6534TIP3    H219609   1.603   2.913   4.852
 6535TIP3   OH219610   1.601   4.232   2.635
 6535TIP3    H119611   1.606   4.294   2.708
 6535TIP3    H219612   1.511   4.241   2.603
 6536TIP3   OH219613   4.783   0.685   2.133
 6536TIP3    H119614   4.708   0.634   2.101
 6536TIP3    H219615   4.749   0.733   2.208
 6537TIP3   OH219616   5.348   2.018   0.912
 6537TIP3    H119617   5.437   2.035   0.944
 6537TIP3    H219618   5.315   2.103   0.884
 6538TIP3   OH219619   5.734   5.824   0.285
 6538TIP3    H119620   5.659   5.855   0.335
 6538TIP3    H219621   5.776   5.759   0.341
 6539TIP3   OH219622   5.677   1.840   1.637
 6539TIP3    H119623   5.611   1.825   1.570
 6539TIP3    H219624   5.645   1.793   1.714
 6540TIP3   OH219625   1.024   5.041   4.528
 6540TIP3    H119626   1.009   5.135   4.515
 6540TIP3    H219627   1.109   5.024   4.488
 6541TIP3   OH219628   0.908   3.042   4.220
 6541TIP3    H119629   0.814   3.039   4.205
 6541TIP3    H219630   0.935   3.128   4.189
 6542TIP3   OH219631   5.810   1.522   1.576
 6542TIP3    H119632   5.726   1.496   1.538
 6542TIP3    H219633   5.859   1.440   1.583
 6543TIP3   OH219634   4.908   4.966   1.631
 6543TIP3    H119635   4.938   4.875   1.626
 6543TIP3    H219636   4.890   4.980   1.724
 6544TIP3   OH219637   0.443   1.996   4.689
 6544TIP3    H119638   0.352   1.967   4.677
 6544TIP3    H219639   0.485   1.975   4.605
 6545TIP3   OH219640   3.075   4.066   1.906
 6545TIP3    H119641   3.166   4.083   1.884
 6545TIP3    H219642   3.029   4.148   1.886
 6546TIP3   OH219643   2.464   2.175   4.100
 6546TIP3    H119644   2.548   2.130   4.092
 6546TIP3    H219645   2.413   2.144   4.025
 6547TIP3   OH219646   5.939   3.707   0.585
 6547TIP3    H119647   6.000   3.753   0.527
 6547TIP3    H219648   5.985   3.625   0.607
 6548TIP3   OH219649   5.134   5.472   4.954
 6548TIP3    H119650   5.093   5.387   4.940
 6548TIP3    H219651   5.077   5.515   5.019
 6549TIP3   OH219652   6.170   1.744   2.784
 6549TIP3    H119653   6.130   1.697   2.857
 6549TIP3    H219654   6.123   1.712   2.707
 6550TIP3   OH219655   0.981   4.781   2.498
 6550TIP3    H119656   0.934   4.809   2.577
 6550TIP3    H219657   0.988   4.861   2.445
 6551TIP3   OH219658   3.482   2.154   1.496
 6551TIP3    H119659   3.479   2.139   1.401
 6551TIP3    H219660   3.575   2.153   1.517
 6552TIP3   OH219661   3.342   4.270   4.591
 6552TIP3    H119662   3.259   4.234   4.623
 6552TIP3    H219663   3.366   4.213   4.519
 6553TIP3   OH219664   1.721   2.773   0.482
 6553TIP3    H119665   1.784   2.731   0.540
 6553TIP3    H219666   1.775   2.829   0.425
 6554TIP3   OH219667   6.267   4.541   0.076
 6554TIP3    H119668   6.312   4.585   0.004
 6554TIP3    H219669   6.174   4.544   0.051
 6555TIP3   OH219670   3.497   5.141   0.885
 6555TIP3    H119671   3.425   5.139   0.822
 6555TIP3    H219672   3.519   5.234   0.893
 6556TIP3   OH219673   0.884   1.588   1.731
 6556TIP3    H119674   0.922   1.502   1.711
 6556TIP3    H219675   0.960   1.646   1.737
 6557TIP3   OH219676   5.062   3.008   3.056
 6557TIP3    H119677   5.134   2.995   2.995
 6557TIP3    H219678   5.101   3.058   3.128
 6558TIP3   OH219679   1.404   5.577   0.322
 6558TIP3    H119680   1.371   5.640   0.386
 6558TIP3    H219681   1.326   5.531   0.291
 6559TIP3   OH219682   4.902   2.276   1.310
 6559TIP3    H119683   4.881   2.356   1.358
 6559TIP3    H219684   4.844   2.210   1.348
 6560TIP3   OH219685   4.715   5.001   0.084
 6560TIP3    H119686   4.706   4.927   0.145
 6560TIP3    H219687   4.758   5.069   0.135
 6561TIP3   OH219688   2.504   2.460   4.074
 6561TIP3    H119689   2.466   2.422   3.995
 6561TIP3    H219690   2.519   2.384   4.131
 6562TIP3   OH219691   4.050   5.687   0.058
 6562TIP3    H119692   4.001   5.605   0.055
 6562TIP3    H219693   4.011   5.741  -0.011
 6563TIP3   OH219694   5.793   0.584   3.922
 6563TIP3    H119695   5.886   0.589   3.898
 6563TIP3    H219696   5.771   0.492   3.915
 6564TIP3   OH219697   3.783   3.444   0.661
 6564TIP3    H119698   3.860   3.496   0.639
 6564TIP3    H219699   3.715   3.508   0.682
 6565TIP3   OH219700   2.560   4.293   4.350
 6565TIP3    H119701   2.488   4.232   4.362
 6565TIP3    H219702   2.522   4.379   4.367
 6566TIP3   OH219703   3.442   4.724   5.077
 6566TIP3    H119704   3.384   4.798   5.061
 6566TIP3    H219705   3.386   4.647   5.072
 6567TIP3   OH219706   2.826   5.961   4.710
 6567TIP3    H119707   2.756   5.906   4.674
 6567TIP3    H219708   2.792   5.992   4.794
 6568TIP3   OH219709   0.315   2.041   1.372
 6568TIP3    H119710   0.254   1.978   1.334
 6568TIP3    H219711   0.280   2.059   1.459
 6569TIP3   OH219712   6.003   4.630   1.893
 6569TIP3    H119713   5.968   4.718   1.878
 6569TIP3    H219714   6.042   4.605   1.810
 6570TIP3   OH219715   3.074   4.414   3.110
 6570TIP3    H119716   3.028   4.411   3.194
 6570TIP3    H219717   3.125   4.333   3.108
 6571TIP3   OH219718   0.870   5.799   4.749
 6571TIP3    H119719   0.930   5.828   4.818
 6571TIP3    H219720   0.926   5.780   4.674
 6572TIP3   OH219721   4.213   4.074   0.725
 6572TIP3    H119722   4.271   4.062   0.649
 6572TIP3    H219723   4.138   4.123   0.690
 6573TIP3   OH219724   2.402   3.787   0.958
 6573TIP3    H119725   2.490   3.779   0.994
 6573TIP3    H219726   2.402   3.730   0.882
 6574TIP3   OH219727   0.355   5.481   0.491
 6574TIP3    H119728   0.339   5.533   0.570
 6574TIP3    H219729   0.432   5.520   0.450
 6575TIP3   OH219730   1.403   5.958   2.628
 6575TIP3    H119731   1.485   5.910   2.639
 6575TIP3    H219732   1.431   6.050   2.620
 6576TIP3   OH219733   1.719   3.113   0.424
 6576TIP3    H119734   1.673   3.156   0.496
 6576TIP3    H219735   1.657   3.048   0.392
 6577TIP3   OH219736   0.292   4.730   4.541
 6577TIP3    H119737   0.275   4.811   4.492
 6577TIP3    H219738   0.218   4.674   4.521
 6578TIP3   OH219739   2.940   3.374   2.913
 6578TIP3    H119740   2.929   3.469   2.908
 6578TIP3    H219741   3.035   3.362   2.921
 6579TIP3   OH219742   1.737   2.427   0.051
 6579TIP3    H119743   1.709   2.461   0.136
 6579TIP3    H219744   1.708   2.336   0.050
 6580TIP3   OH219745   3.589   5.598   1.516
 6580TIP3    H119746   3.568   5.658   1.587
 6580TIP3    H219747   3.619   5.654   1.444
 6581TIP3   OH219748   2.110   2.374   0.430
 6581TIP3    H119749   2.147   2.294   0.394
 6581TIP3    H219750   2.176   2.441   0.413
 6582TIP3   OH219751   0.865   1.298   1.847
 6582TIP3    H119752   0.938   1.235   1.849
 6582TIP3    H219753   0.806   1.264   1.780
 6583TIP3   OH219754   2.380   3.439   0.149
 6583TIP3    H119755   2.401   3.457   0.241
 6583TIP3    H219756   2.396   3.345   0.139
 6584TIP3   OH219757   5.342   5.665   4.930
 6584TIP3    H119758   5.272   5.731   4.927
 6584TIP3    H219759   5.299   5.586   4.965
 6585TIP3   OH219760   6.288   4.671   2.005
 6585TIP3    H119761   6.198   4.640   1.993
 6585TIP3    H219762   6.335   4.637   1.929
 6586TIP3   OH219763   3.411   0.620   3.039
 6586TIP3    H119764   3.436   0.587   2.952
 6586TIP3    H219765   3.358   0.550   3.076
 6587TIP3   OH219766   0.984   1.429   0.885
 6587TIP3    H119767   0.920   1.358   0.898
 6587TIP3    H219768   1.031   1.404   0.805
 6588TIP3   OH219769   1.886   1.364   3.740
 6588TIP3    H119770   1.815   1.300   3.737
 6588TIP3    H219771   1.860   1.428   3.806
 6589TIP3   OH219772   1.348   5.810   3.353
 6589TIP3    H119773   1.275   5.854   3.311
 6589TIP3    H219774   1.308   5.752   3.418
 6590TIP3   OH219775   2.063   2.969   2.363
 6590TIP3    H119776   2.079   2.896   2.424
 6590TIP3    H219777   2.120   2.950   2.288
 6591TIP3   OH219778   5.643   5.360   1.376
 6591TIP3    H119779   5.622   5.428   1.313
 6591TIP3    H219780   5.716   5.313   1.337
 6592TIP3   OH219781   3.063   5.008   3.269
 6592TIP3    H119782   3.154   5.025   3.293
 6592TIP3    H219783   3.067   4.981   3.177
 6593TIP3   OH219784   0.646   5.654   4.660
 6593TIP3    H119785   0.729   5.701   4.669
 6593TIP3    H219786   0.579   5.722   4.669
 6594TIP3   OH219787   0.244   0.789   4.040
 6594TIP3    H119788   0.308   0.857   4.019
 6594TIP3    H219789   0.267   0.760   4.128
 6595TIP3   OH219790   5.986   3.952   2.628
 6595TIP3    H119791   5.925   3.912   2.566
 6595TIP3    H219792   5.998   4.041   2.595
 6596TIP3   OH219793   3.217   3.365   2.848
 6596TIP3    H119794   3.217   3.273   2.821
 6596TIP3    H219795   3.256   3.411   2.773
 6597TIP3   OH219796   1.862   1.325   1.236
 6597TIP3    H119797   1.795   1.318   1.303
 6597TIP3    H219798   1.839   1.403   1.186
 6598TIP3   OH219799   3.135   3.739   4.674
 6598TIP3    H119800   3.121   3.660   4.622
 6598TIP3    H219801   3.174   3.801   4.613
 6599TIP3   OH219802   0.286   2.279   3.128
 6599TIP3    H119803   0.241   2.358   3.157
 6599TIP3    H219804   0.368   2.279   3.179
 6600TIP3   OH219805   4.919   4.319   5.104
 6600TIP3    H119806   4.991   4.383   5.104
 6600TIP3    H219807   4.916   4.286   5.014
 6601TIP3   OH219808   1.535   0.461   0.529
 6601TIP3    H119809   1.497   0.395   0.472
 6601TIP3    H219810   1.629   0.458   0.510
 6602TIP3   OH219811   5.923   2.829   1.854
 6602TIP3    H119812   5.886   2.909   1.816
 6602TIP3    H219813   5.965   2.857   1.935
 6603TIP3   OH219814   2.560   3.111   4.112
 6603TIP3    H119815   2.586   3.179   4.174
 6603TIP3    H219816   2.516   3.045   4.165
 6604TIP3   OH219817   0.843   2.303   5.057
 6604TIP3    H119818   0.911   2.241   5.084
 6604TIP3    H219819   0.782   2.306   5.130
 6605TIP3   OH219820   4.396   1.522   0.348
 6605TIP3    H119821   4.369   1.433   0.373
 6605TIP3    H219822   4.474   1.538   0.401
 6606TIP3   OH219823   5.441   0.177   1.503
 6606TIP3    H119824   5.522   0.212   1.540
 6606TIP3    H219825   5.399   0.131   1.576
 6607TIP3   OH219826   5.137   3.769   1.603
 6607TIP3    H119827   5.175   3.738   1.686
 6607TIP3    H219828   5.042   3.768   1.619
 6608TIP3   OH219829   3.485   1.133   4.176
 6608TIP3    H119830   3.538   1.066   4.133
 6608TIP3    H219831   3.534   1.155   4.256
 6609TIP3   OH219832   1.629   2.619   3.103
 6609TIP3    H119833   1.637   2.610   3.198
 6609TIP3    H219834   1.560   2.558   3.079
 6610TIP3   OH219835   3.428   2.772   4.258
 6610TIP3    H119836   3.484   2.800   4.186
 6610TIP3    H219837   3.392   2.688   4.229
 6611TIP3   OH219838   0.042   3.238   2.855
 6611TIP3    H119839   0.133   3.208   2.846
 6611TIP3    H219840   0.028   3.296   2.780
 6612TIP3   OH219841   2.805   0.258   3.374
 6612TIP3    H119842   2.821   0.253   3.469
 6612TIP3    H219843   2.892   0.256   3.335
 6613TIP3   OH219844   2.371   2.101   5.111
 6613TIP3    H119845   2.385   2.069   5.022
 6613TIP3    H219846   2.438   2.057   5.163
 6614TIP3   OH219847   0.091   1.748   3.102
 6614TIP3    H119848   0.129   1.828   3.066
 6614TIP3    H219849   0.052   1.703   3.026
 6615TIP3   OH219850   3.474   0.980   1.673
 6615TIP3    H119851   3.501   0.903   1.723
 6615TIP3    H219852   3.556   1.022   1.646
 6616TIP3   OH219853   2.714   1.256   1.834
 6616TIP3    H119854   2.720   1.221   1.923
 6616TIP3    H219855   2.680   1.344   1.844
 6617TIP3   OH219856   1.089   0.518   2.674
 6617TIP3    H119857   1.120   0.512   2.764
 6617TIP3    H219858   1.087   0.427   2.643
 6618TIP3   OH219859   0.558   3.284   3.193
 6618TIP3    H119860   0.522   3.354   3.248
 6618TIP3    H219861   0.482   3.245   3.151
 6619TIP3   OH219862   4.561   5.972   4.346
 6619TIP3    H119863   4.519   6.056   4.329
 6619TIP3    H219864   4.557   5.962   4.441
 6620TIP3   OH219865   5.856   3.277   0.641
 6620TIP3    H119866   5.922   3.335   0.602
 6620TIP3    H219867   5.793   3.261   0.570
 6621TIP3   OH219868   4.432   5.129   2.183
 6621TIP3    H119869   4.408   5.089   2.099
 6621TIP3    H219870   4.439   5.222   2.163
 6622TIP3   OH219871   5.453   0.127   2.466
 6622TIP3    H119872   5.415   0.205   2.508
 6622TIP3    H219873   5.530   0.106   2.520
 6623TIP3   OH219874   5.808   5.095   0.821
 6623TIP3    H119875   5.802   5.102   0.916
 6623TIP3    H219876   5.760   5.015   0.799
 6624TIP3   OH219877   1.726   3.471   3.641
 6624TIP3    H119878   1.697   3.380   3.652
 6624TIP3    H219879   1.822   3.466   3.642
 6625TIP3   OH219880   1.956   4.529   2.725
 6625TIP3    H119881   1.867   4.565   2.723
 6625TIP3    H219882   1.945   4.440   2.759
 6626TIP3   OH219883   1.373   0.633   0.204
 6626TIP3    H119884   1.438   0.700   0.223
 6626TIP3    H219885   1.425   0.555   0.184
 6627TIP3   OH219886   4.929   1.647   5.133
 6627TIP3    H119887   4.859   1.648   5.068
 6627TIP3    H219888   5.000   1.696   5.092
 6628TIP3   OH219889   5.254   3.770   2.806
 6628TIP3    H119890   5.339   3.811   2.789
 6628TIP3    H219891   5.230   3.729   2.723
 6629TIP3   OH219892   1.231   5.169   1.879
 6629TIP3    H119893   1.233   5.184   1.784
 6629TIP3    H219894   1.231   5.256   1.918
 6630TIP3   OH219895   3.162   0.511   2.425
 6630TIP3    H119896   3.152   0.425   2.385
 6630TIP3    H219897   3.191   0.493   2.515
 6631TIP3   OH219898   1.805   4.016   1.528
 6631TIP3    H119899   1.894   3.980   1.536
 6631TIP3    H219900   1.751   3.942   1.500
 6632TIP3   OH219901   2.455   3.027   0.959
 6632TIP3    H119902   2.443   2.997   1.049
 6632TIP3    H219903   2.409   3.111   0.955
 6633TIP3   OH219904   5.876   3.412   3.307
 6633TIP3    H119905   5.852   3.321   3.323
 6633TIP3    H219906   5.940   3.432   3.375
 6634TIP3   OH219907   4.979   0.767   0.115
 6634TIP3    H119908   4.999   0.705   0.045
 6634TIP3    H219909   5.013   0.725   0.194
 6635TIP3   OH219910   4.006   5.229   3.199
 6635TIP3    H119911   4.001   5.258   3.108
 6635TIP3    H219912   4.015   5.310   3.249
 6636TIP3   OH219913   0.262   3.340   3.593
 6636TIP3    H119914   0.308   3.283   3.655
 6636TIP3    H219915   0.256   3.289   3.513
 6637TIP3   OH219916   0.556   2.304   1.971
 6637TIP3    H119917   0.566   2.242   1.899
 6637TIP3    H219918   0.519   2.383   1.930
 6638TIP3   OH219919   0.124   5.786   3.186
 6638TIP3    H119920   0.081   5.775   3.101
 6638TIP3    H219921   0.101   5.875   3.213
 6639TIP3   OH219922   4.173   0.259   2.274
 6639TIP3    H119923   4.089   0.285   2.237
 6639TIP3    H219924   4.218   0.341   2.292
 6640TIP3   OH219925   4.571   4.976   1.041
 6640TIP3    H119926   4.570   5.012   1.129
 6640TIP3    H219927   4.657   5.000   1.006
 6641TIP3   OH219928   1.929   5.189   0.158
 6641TIP3    H119929   2.011   5.236   0.142
 6641TIP3    H219930   1.956   5.101   0.184
 6642TIP3   OH219931   1.960   1.881   0.998
 6642TIP3    H119932   1.901   1.887   1.073
 6642TIP3    H219933   1.974   1.787   0.986
 6643TIP3   OH219934   4.421   4.984   1.589
 6643TIP3    H119935   4.345   5.038   1.612
 6643TIP3    H219936   4.495   5.029   1.630
 6644TIP3   OH219937   3.514   2.424   0.028
 6644TIP3    H119938   3.507   2.359  -0.042
 6644TIP3    H219939   3.552   2.375   0.102
 6645TIP3   OH219940   1.820   4.141   3.501
 6645TIP3    H119941   1.727   4.159   3.515
 6645TIP3    H219942   1.865   4.215   3.541
   6.34284   5.98009   5.17891   0.00000   0.00000  -2.11429   0.00000  -2.11429  -2.99004
