* SET NIONTYPES = 1
* SET NPOSTOT = 52
* SET NNEGTOT = 48
* SET NIONTOT = 100
*  DATE:     6/13/26     13: 6:42      CREATED BY USER: charmm-gui
*
       100  EXT
         1         1  SOD       SOD            26.0977291895       36.5378149089       -7.8399890205  IONS      1               1.0000000000
         2         2  SOD       SOD           -23.2577166732      -21.4219495601      -12.2628165680  IONS      2               1.0000000000
         3         3  SOD       SOD            14.1564595201       31.1739365428       12.8511371786  IONS      3               1.0000000000
         4         4  SOD       SOD             5.0427144423       43.8345179608        7.2796630795  IONS      4               1.0000000000
         5         5  SOD       SOD            19.6107283094       -9.6889281681      -36.9107958992  IONS      5               1.0000000000
         6         6  SOD       SOD            10.3410768678       44.4374833434       -0.6679602616  IONS      6               1.0000000000
         7         7  SOD       SOD           -13.8681880899      -37.9382758691       18.0799623660  IONS      7               1.0000000000
         8         8  SOD       SOD            27.2439150336        2.1292100419       43.8616960827  IONS      8               1.0000000000
         9         9  SOD       SOD           -11.4454853921       24.9510238579      -15.9354923282  IONS      9               1.0000000000
        10        10  SOD       SOD            47.5785750241       12.9253109293        7.6840089784  IONS      10              1.0000000000
        11        11  SOD       SOD           -26.0872229354        5.6643812070      -19.6727104039  IONS      11              1.0000000000
        12        12  SOD       SOD            27.8363708869       15.7978259456        9.6137964402  IONS      12              1.0000000000
        13        13  SOD       SOD             9.5368799524       12.9798606426      -26.6102283061  IONS      13              1.0000000000
        14        14  SOD       SOD             1.7230110348      -42.3412926047      -27.1163727976  IONS      14              1.0000000000
        15        15  SOD       SOD            11.2408140752       14.6581782141       -8.3822502510  IONS      15              1.0000000000
        16        16  SOD       SOD           -33.0870194203       -0.8563012640       24.0579665937  IONS      16              1.0000000000
        17        17  SOD       SOD            26.8526809378      -16.1134499039      -43.9252097879  IONS      17              1.0000000000
        18        18  SOD       SOD           -41.7873803489        8.5510673707      -23.2375175179  IONS      18              1.0000000000
        19        19  SOD       SOD            19.7636414164      -36.8311495995      -15.6558099459  IONS      19              1.0000000000
        20        20  SOD       SOD           -31.3107638346        8.2761810708      -26.9623920897  IONS      20              1.0000000000
        21        21  SOD       SOD           -26.3585920198      -25.7161536211       17.7250785460  IONS      21              1.0000000000
        22        22  SOD       SOD           -10.6747207135      -26.0333891918       -9.4616650366  IONS      22              1.0000000000
        23        23  SOD       SOD             1.3105547881      -11.1127170808      -27.2455428576  IONS      23              1.0000000000
        24        24  SOD       SOD             6.7225618518      -14.2060793665       -5.0238786880  IONS      24              1.0000000000
        25        25  SOD       SOD            -0.8925259831      -40.1446117181      -11.8519608503  IONS      25              1.0000000000
        26        26  SOD       SOD           -17.2918602364      -26.2585792207        6.5500657010  IONS      26              1.0000000000
        27        27  SOD       SOD           -23.2871882165      -37.0918095391      -15.6219983790  IONS      27              1.0000000000
        28        28  SOD       SOD            -2.6477331046      -11.8380381950      -41.5238867108  IONS      28              1.0000000000
        29        29  SOD       SOD            19.9476108636       16.3403278982       34.1217603046  IONS      29              1.0000000000
        30        30  SOD       SOD             7.9873244559      -44.4979204951      -17.4278842889  IONS      30              1.0000000000
        31        31  SOD       SOD             4.0381470916       24.9640813767       37.4622618207  IONS      31              1.0000000000
        32        32  SOD       SOD            -4.7069813986       -5.6249924279      -13.5637095247  IONS      32              1.0000000000
        33        33  SOD       SOD            -7.1100491586        7.2736569675        4.8246878116  IONS      33              1.0000000000
        34        34  SOD       SOD            -7.9497657179      -40.7834051772      -27.3244635829  IONS      34              1.0000000000
        35        35  SOD       SOD            -1.0929132067       20.3875938271       42.8612403055  IONS      35              1.0000000000
        36        36  SOD       SOD           -42.2889173605       -3.0338509331      -25.9026557181  IONS      36              1.0000000000
        37        37  SOD       SOD            40.8224129331       25.7705559500        5.3834723009  IONS      37              1.0000000000
        38        38  SOD       SOD           -24.8910426653       32.1873549083      -35.5391369313  IONS      38              1.0000000000
        39        39  SOD       SOD            20.3618738810      -37.5598876731       15.0216311056  IONS      39              1.0000000000
        40        40  SOD       SOD            21.1933494023        0.2120690553       32.0143603787  IONS      40              1.0000000000
        41        41  SOD       SOD            22.5456479953       -1.0924073792      -24.5078983204  IONS      41              1.0000000000
        42        42  SOD       SOD           -11.4555369439       24.8434245402       44.7662867875  IONS      42              1.0000000000
        43        43  SOD       SOD            20.5671772184       25.7430385628       12.7944936326  IONS      43              1.0000000000
        44        44  SOD       SOD            17.1624092165      -10.9530359528      -20.9348133855  IONS      44              1.0000000000
        45        45  SOD       SOD           -26.7549746483      -10.0015803665        7.1551103212  IONS      45              1.0000000000
        46        46  SOD       SOD           -35.6474219375       12.8101553802      -26.4599810811  IONS      46              1.0000000000
        47        47  SOD       SOD            10.1546214197       43.3181053976      -16.2927137963  IONS      47              1.0000000000
        48        48  SOD       SOD            28.3912798047      -37.0605892725        2.1306775374  IONS      48              1.0000000000
        49        49  SOD       SOD           -19.6336436861      -10.8564516396      -18.7917969564  IONS      49              1.0000000000
        50        50  SOD       SOD            10.7566730721      -10.5889069185       33.3692111093  IONS      50              1.0000000000
        51        51  SOD       SOD             9.6630106561      -20.6515383756       20.3103243213  IONS      51              1.0000000000
        52        52  SOD       SOD             9.4257146103       -3.4559769213        1.7412491963  IONS      52              1.0000000000
        53        53  CLA       CLA           -34.2115789695      -15.3569484239        1.2344348820  IONS      53             -1.0000000000
        54        54  CLA       CLA            35.8066958017       12.4260032336      -31.6958217416  IONS      54             -1.0000000000
        55        55  CLA       CLA            12.0353004459      -30.1965866605       25.2750294808  IONS      55             -1.0000000000
        56        56  CLA       CLA           -18.1598319826      -18.8304955818      -26.5728607092  IONS      56             -1.0000000000
        57        57  CLA       CLA            21.0709116611       41.2052936162        4.2710247632  IONS      57             -1.0000000000
        58        58  CLA       CLA            41.4118821456      -12.5971510432       10.0925210264  IONS      58             -1.0000000000
        59        59  CLA       CLA            20.3831484158       -5.1005067385       37.3098857732  IONS      59             -1.0000000000
        60        60  CLA       CLA            21.3703829789      -26.0306536913      -29.5868503228  IONS      60             -1.0000000000
        61        61  CLA       CLA            28.3111545206       24.4332569925       -3.8751627064  IONS      61             -1.0000000000
        62        62  CLA       CLA            -6.4248582915        4.8628128026      -31.8181901679  IONS      62             -1.0000000000
        63        63  CLA       CLA            -5.0191746772      -39.9647316293      -30.0825704353  IONS      63             -1.0000000000
        64        64  CLA       CLA           -40.0806004327      -11.0804949577       -9.7214241696  IONS      64             -1.0000000000
        65        65  CLA       CLA           -34.7968073738        7.2361221747       15.5192093188  IONS      65             -1.0000000000
        66        66  CLA       CLA            44.0742630332       17.1043984123        4.2167177987  IONS      66             -1.0000000000
        67        67  CLA       CLA             9.4795865436       14.8875468992      -22.3303772930  IONS      67             -1.0000000000
        68        68  CLA       CLA            14.6217934413      -10.7885383175       39.8942260748  IONS      68             -1.0000000000
        69        69  CLA       CLA            15.3486965389       14.8394178226       43.1688782659  IONS      69             -1.0000000000
        70        70  CLA       CLA            36.3194486663       24.4152549246      -30.9193553111  IONS      70             -1.0000000000
        71        71  CLA       CLA            17.0194630847       29.6811800391       20.0892660435  IONS      71             -1.0000000000
        72        72  CLA       CLA             8.6606776274       33.5296939062      -19.8261023521  IONS      72             -1.0000000000
        73        73  CLA       CLA            33.6263154786       20.6885771369       14.9609905980  IONS      73             -1.0000000000
        74        74  CLA       CLA            14.9508008898      -11.1016102126      -27.7642313983  IONS      74             -1.0000000000
        75        75  CLA       CLA            21.5179577732       40.3833423435       -9.7429979524  IONS      75             -1.0000000000
        76        76  CLA       CLA           -15.5251191869        9.7867514375       40.2611024771  IONS      76             -1.0000000000
        77        77  CLA       CLA           -27.4161307558       27.8442727349      -34.5216329751  IONS      77             -1.0000000000
        78        78  CLA       CLA             7.6479391870       -4.1846752635       -4.9139908248  IONS      78             -1.0000000000
        79        79  CLA       CLA           -40.1510109554        7.4149268756      -25.3767823039  IONS      79             -1.0000000000
        80        80  CLA       CLA            44.3502670212       12.1971532242       17.4022067781  IONS      80             -1.0000000000
        81        81  CLA       CLA            -8.7117499032       28.7469418521       43.7628915281  IONS      81             -1.0000000000
        82        82  CLA       CLA           -29.0306527989       -7.2756272225       25.2764099130  IONS      82             -1.0000000000
        83        83  CLA       CLA            25.7266243849      -39.2039049560      -15.2862213129  IONS      83             -1.0000000000
        84        84  CLA       CLA           -23.1627233986      -20.1045275370       11.7280936607  IONS      84             -1.0000000000
        85        85  CLA       CLA            29.1293835362       15.1833396959       12.5537404787  IONS      85             -1.0000000000
        86        86  CLA       CLA            21.9199932757      -16.2944660148      -43.9893097742  IONS      86             -1.0000000000
        87        87  CLA       CLA            -2.5274093536      -46.3304002715      -26.9867770567  IONS      87             -1.0000000000
        88        88  CLA       CLA           -30.1158426232       11.9665840877      -11.7038297847  IONS      88             -1.0000000000
        89        89  CLA       CLA             5.0095003286      -26.0343358647      -36.5142612466  IONS      89             -1.0000000000
        90        90  CLA       CLA            -2.9760108479      -22.1871383771       34.8566671677  IONS      90             -1.0000000000
        91        91  CLA       CLA            20.6888324969       23.4852300426        9.1255716316  IONS      91             -1.0000000000
        92        92  CLA       CLA           -29.7771463394        3.5410301975      -35.6028622847  IONS      92             -1.0000000000
        93        93  CLA       CLA            46.1850855457       17.5124151165      -11.5223160158  IONS      93             -1.0000000000
        94        94  CLA       CLA            14.2174316200       39.4483122194       -9.7543453829  IONS      94             -1.0000000000
        95        95  CLA       CLA           -15.9068294877        0.3072585014      -47.0162689250  IONS      95             -1.0000000000
        96        96  CLA       CLA            38.3267807597       11.9912989085        3.2001876763  IONS      96             -1.0000000000
        97        97  CLA       CLA           -36.5482391262      -15.2283588582      -19.7248671213  IONS      97             -1.0000000000
        98        98  CLA       CLA             3.3770998388      -11.7005715117      -37.9430298356  IONS      98             -1.0000000000
        99        99  CLA       CLA             7.1793350918      -40.1590771636      -18.8404340656  IONS      99             -1.0000000000
       100       100  CLA       CLA           -24.5172949571      -37.6889203093       16.6830997327  IONS      100            -1.0000000000
