        90  EXT
         1         1  GLY       N              -0.6860000000        4.6370000000       20.1330000000  PROA      1              97.3000000000
         2         1  GLY       CA             -1.6800000000        3.7820000000       19.5040000000  PROA      1              97.8100000000
         3         1  GLY       C              -1.1190000000        2.9500000000       18.3670000000  PROA      1              98.1200000000
         4         1  GLY       O               0.0160000000        3.1650000000       17.9350000000  PROA      1              97.7400000000
         5         2  PRO       N              -1.8880000000        1.9850000000       17.7330000000  PROA      2              98.3400000000
         6         2  PRO       CA             -1.4340000000        1.2390000000       16.5570000000  PROA      2              98.3900000000
         7         2  PRO       C              -1.2900000000        2.1200000000       15.3180000000  PROA      2              98.5000000000
         8         2  PRO       CB             -2.5330000000        0.1920000000       16.3570000000  PROA      2              98.2000000000
         9         2  PRO       O              -1.9040000000        3.1870000000       15.2400000000  PROA      2              98.3900000000
        10         2  PRO       CG             -3.3230000000        0.2210000000       17.6250000000  PROA      2              96.7700000000
        11         2  PRO       CD             -2.9930000000        1.4860000000       18.3640000000  PROA      2              94.7000000000
        12         3  GLY       N              -0.3910000000        1.6590000000       14.4510000000  PROA      3              98.2000000000
        13         3  GLY       CA             -0.1820000000        2.3540000000       13.1910000000  PROA      3              98.1800000000
        14         3  GLY       C              -1.3880000000        2.3000000000       12.2730000000  PROA      3              98.4100000000
        15         3  GLY       O              -2.3320000000        1.5480000000       12.5230000000  PROA      3              98.3000000000
        16         4  ASP       N              -1.2880000000        3.1410000000       11.3190000000  PROA      4              98.3200000000
        17         4  ASP       CA             -2.2970000000        3.0720000000       10.2660000000  PROA      4              98.2900000000
        18         4  ASP       C              -2.2090000000        1.7490000000        9.5070000000  PROA      4              98.4700000000
        19         4  ASP       CB             -2.1420000000        4.2450000000        9.2960000000  PROA      4              98.1000000000
        20         4  ASP       O              -1.1190000000        1.2050000000        9.3220000000  PROA      4              98.3400000000
        21         4  ASP       CG             -2.5180000000        5.5800000000        9.9150000000  PROA      4              96.0100000000
        22         4  ASP       OD1            -3.2600000000        5.5980000000       10.9210000000  PROA      4              95.1400000000
        23         4  ASP       OD2            -2.0710000000        6.6230000000        9.3910000000  PROA      4              95.1300000000
        24         5  PRO       N              -3.2280000000        1.2260000000        9.0800000000  PROA      5              98.2000000000
        25         5  PRO       CA             -3.1440000000        0.0380000000        8.2280000000  PROA      5              98.2000000000
        26         5  PRO       C              -2.2760000000        0.2600000000        6.9910000000  PROA      5              98.4200000000
        27         5  PRO       CB             -4.6010000000       -0.2170000000        7.8330000000  PROA      5              98.0600000000
        28         5  PRO       O              -2.1080000000        1.3980000000        6.5460000000  PROA      5              98.3600000000
        29         5  PRO       CG             -5.3960000000        0.7270000000        8.6770000000  PROA      5              97.2000000000
        30         5  PRO       CD             -4.4590000000        1.7380000000        9.2730000000  PROA      5              96.8300000000
        31         6  GLY       N              -1.6720000000       -0.9130000000        6.6630000000  PROA      6              98.3400000000
        32         6  GLY       CA             -0.8860000000       -0.8450000000        5.4410000000  PROA      6              98.2800000000
        33         6  GLY       C              -1.7190000000       -0.5290000000        4.2130000000  PROA      6              98.4800000000
        34         6  GLY       O              -2.9500000000       -0.5360000000        4.2720000000  PROA      6              98.3800000000
        35         7  PRO       N              -1.0780000000       -0.3600000000        3.2530000000  PROA      7              98.4700000000
        36         7  PRO       CA             -1.7720000000       -0.1880000000        1.9740000000  PROA      7              98.4600000000
        37         7  PRO       C              -2.3870000000       -1.4860000000        1.4570000000  PROA      7              98.6300000000
        38         7  PRO       CB             -0.6660000000        0.3040000000        1.0370000000  PROA      7              98.3700000000
        39         7  PRO       O              -1.9980000000       -2.5740000000        1.8910000000  PROA      7              98.6000000000
        40         7  PRO       CG              0.6020000000       -0.2110000000        1.6390000000  PROA      7              97.7900000000
        41         7  PRO       CD              0.4010000000       -0.3600000000        3.1200000000  PROA      7              97.6500000000
        42         8  GLY       N              -3.3170000000       -1.3370000000        0.5380000000  PROA      8              98.3100000000
        43         8  GLY       CA             -3.9290000000       -2.5160000000       -0.0540000000  PROA      8              98.2600000000
        44         8  GLY       C              -3.0220000000       -3.2290000000       -1.0390000000  PROA      8              98.5300000000
        45         8  GLY       O              -1.9580000000       -2.7160000000       -1.3940000000  PROA      8              98.4700000000
        46         9  ASP       N              -3.4820000000       -4.3850000000       -1.4360000000  PROA      9              98.5400000000
        47         9  ASP       CA             -2.8040000000       -5.1700000000       -2.4630000000  PROA      9              98.5200000000
        48         9  ASP       C              -2.8650000000       -4.4690000000       -3.8190000000  PROA      9              98.6800000000
        49         9  ASP       CB             -3.4190000000       -6.5670000000       -2.5650000000  PROA      9              98.4000000000
        50         9  ASP       O              -3.8310000000       -3.7640000000       -4.1160000000  PROA      9              98.6300000000
        51         9  ASP       CG             -3.1080000000       -7.4410000000       -1.3630000000  PROA      9              97.3800000000
        52         9  ASP       OD1            -2.0940000000       -7.1930000000       -0.6740000000  PROA      9              96.7800000000
        53         9  ASP       OD2            -3.8820000000       -8.3870000000       -1.1030000000  PROA      9              96.0000000000
        54        10  PRO       N              -1.9240000000       -4.7540000000       -4.5490000000  PROA      10             98.5800000000
        55        10  PRO       CA             -2.0090000000       -4.2050000000       -5.9040000000  PROA      10             98.5500000000
        56        10  PRO       C              -3.2180000000       -4.7280000000       -6.6780000000  PROA      10             98.6900000000
        57        10  PRO       CB             -0.7030000000       -4.6670000000       -6.5550000000  PROA      10             98.4800000000
        58        10  PRO       O              -3.7610000000       -5.7830000000       -6.3420000000  PROA      10             98.6600000000
        59        10  PRO       CG              0.0480000000       -5.3520000000       -5.4600000000  PROA      10             97.8500000000
        60        10  PRO       CD             -0.8760000000       -5.5350000000       -4.2900000000  PROA      10             97.4700000000
        61        11  GLY       N              -3.7480000000       -3.8450000000       -7.6040000000  PROA      11             98.2700000000
        62        11  GLY       CA             -4.8610000000       -4.2750000000       -8.4350000000  PROA      11             98.2200000000
        63        11  GLY       C              -4.5230000000       -5.4600000000       -9.3190000000  PROA      11             98.4400000000
        64        11  GLY       O              -3.3640000000       -5.8750000000       -9.3940000000  PROA      11             98.3600000000
        65        12  PRO       N              -5.3900000000       -6.0040000000      -10.0280000000  PROA      12             98.4100000000
        66        12  PRO       CA             -5.1700000000       -7.0690000000      -11.0100000000  PROA      12             98.4100000000
        67        12  PRO       C              -4.4720000000       -6.5710000000      -12.2740000000  PROA      12             98.6200000000
        68        12  PRO       CB             -6.5870000000       -7.5560000000      -11.3240000000  PROA      12             98.2800000000
        69        12  PRO       O              -4.5180000000       -5.3770000000      -12.5790000000  PROA      12             98.6000000000
        70        12  PRO       CG             -7.4860000000       -6.5000000000      -10.7690000000  PROA      12             97.0800000000
        71        12  PRO       CD             -6.6610000000       -5.5580000000       -9.9400000000  PROA      12             96.4000000000
        72        13  GLY       N              -3.7740000000       -7.3760000000      -12.9520000000  PROA      13             98.3800000000
        73        13  GLY       CA             -3.1660000000       -7.0590000000      -14.2350000000  PROA      13             98.3900000000
        74        13  GLY       C              -4.1840000000       -6.7900000000      -15.3270000000  PROA      13             98.6100000000
        75        13  GLY       O              -5.3690000000       -7.0900000000      -15.1670000000  PROA      13             98.6000000000
        76        14  ASP       N              -3.9550000000       -6.3040000000      -16.3140000000  PROA      14             98.3700000000
        77        14  ASP       CA             -4.7710000000       -6.0530000000      -17.4970000000  PROA      14             98.3500000000
        78        14  ASP       C              -5.1040000000       -7.3550000000      -18.2220000000  PROA      14             98.5500000000
        79        14  ASP       CB             -4.0570000000       -5.0890000000      -18.4470000000  PROA      14             98.1100000000
        80        14  ASP       O              -4.3030000000       -8.2920000000      -18.2250000000  PROA      14             98.4800000000
        81        14  ASP       CG             -3.9670000000       -3.6750000000      -17.9010000000  PROA      14             96.2500000000
        82        14  ASP       OD1            -4.8180000000       -3.2860000000      -17.0720000000  PROA      14             95.3400000000
        83        14  ASP       OD2            -3.0380000000       -2.9430000000      -18.3040000000  PROA      14             94.8400000000
        84        15  PRO       N              -6.4920000000       -7.6200000000      -18.4350000000  PROA      15             98.1400000000
        85        15  PRO       CA             -6.9000000000       -8.8460000000      -19.1250000000  PROA      15             97.8900000000
        86        15  PRO       C              -6.1810000000       -9.0390000000      -20.4590000000  PROA      15             98.0100000000
        87        15  PRO       CB             -8.4020000000       -8.6470000000      -19.3390000000  PROA      15             97.6600000000
        88        15  PRO       O              -5.6800000000       -8.0730000000      -21.0400000000  PROA      15             97.6200000000
        89        15  PRO       CG             -8.7580000000       -7.4740000000      -18.4830000000  PROA      15             96.4100000000
        90        15  PRO       CD             -7.5020000000       -6.7120000000      -18.1730000000  PROA      15             96.4100000000
