PSF EXT CMAP XPLOR

         3 !NTITLE
* GENERATED BY CHARMM-GUI (HTTP://WWW.CHARMM-GUI.ORG) V3.7 ON JUN, 17. 2026. JOB
* READ PDB, MANIPULATE STRUCTURE IF NEEDED, AND GENERATE TOPOLOGY FILE          
*  DATE:     6/17/26     23:24:17      CREATED BY USER: charmm-gui              

       165 !NATOM
         1 PROA     1        GLY      N        NH3     -0.300000       14.0070           0
         2 PROA     1        GLY      HT1      HC       0.330000       1.00800           0
         3 PROA     1        GLY      HT2      HC       0.330000       1.00800           0
         4 PROA     1        GLY      HT3      HC       0.330000       1.00800           0
         5 PROA     1        GLY      CA       CT2      0.130000       12.0110           0
         6 PROA     1        GLY      HA1      HB2      0.900000E-01   1.00800           0
         7 PROA     1        GLY      HA2      HB2      0.900000E-01   1.00800           0
         8 PROA     1        GLY      C        C        0.510000       12.0110           0
         9 PROA     1        GLY      O        O       -0.510000       15.9994           0
        10 PROA     2        PRO      N        N       -0.290000       14.0070           0
        11 PROA     2        PRO      CD       CP3       0.00000       12.0110           0
        12 PROA     2        PRO      HD1      HA2      0.900000E-01   1.00800           0
        13 PROA     2        PRO      HD2      HA2      0.900000E-01   1.00800           0
        14 PROA     2        PRO      CA       CP1      0.200000E-01   12.0110           0
        15 PROA     2        PRO      HA       HB1      0.900000E-01   1.00800           0
        16 PROA     2        PRO      CB       CP2     -0.180000       12.0110           0
        17 PROA     2        PRO      HB1      HA2      0.900000E-01   1.00800           0
        18 PROA     2        PRO      HB2      HA2      0.900000E-01   1.00800           0
        19 PROA     2        PRO      CG       CP2     -0.180000       12.0110           0
        20 PROA     2        PRO      HG1      HA2      0.900000E-01   1.00800           0
        21 PROA     2        PRO      HG2      HA2      0.900000E-01   1.00800           0
        22 PROA     2        PRO      C        C        0.510000       12.0110           0
        23 PROA     2        PRO      O        O       -0.510000       15.9994           0
        24 PROA     3        GLY      N        NH1     -0.470000       14.0070           0
        25 PROA     3        GLY      HN       H        0.310000       1.00800           0
        26 PROA     3        GLY      CA       CT2     -0.200000E-01   12.0110           0
        27 PROA     3        GLY      HA1      HB2      0.900000E-01   1.00800           0
        28 PROA     3        GLY      HA2      HB2      0.900000E-01   1.00800           0
        29 PROA     3        GLY      C        C        0.510000       12.0110           0
        30 PROA     3        GLY      O        O       -0.510000       15.9994           0
        31 PROA     4        ASP      N        NH1     -0.470000       14.0070           0
        32 PROA     4        ASP      HN       H        0.310000       1.00800           0
        33 PROA     4        ASP      CA       CT1      0.700000E-01   12.0110           0
        34 PROA     4        ASP      HA       HB1      0.900000E-01   1.00800           0
        35 PROA     4        ASP      CB       CT2A    -0.280000       12.0110           0
        36 PROA     4        ASP      HB1      HA2      0.900000E-01   1.00800           0
        37 PROA     4        ASP      HB2      HA2      0.900000E-01   1.00800           0
        38 PROA     4        ASP      CG       CC       0.620000       12.0110           0
        39 PROA     4        ASP      OD1      OC      -0.760000       15.9994           0
        40 PROA     4        ASP      OD2      OC      -0.760000       15.9994           0
        41 PROA     4        ASP      C        C        0.510000       12.0110           0
        42 PROA     4        ASP      O        O       -0.510000       15.9994           0
        43 PROA     5        PRO      N        N       -0.290000       14.0070           0
        44 PROA     5        PRO      CD       CP3       0.00000       12.0110           0
        45 PROA     5        PRO      HD1      HA2      0.900000E-01   1.00800           0
        46 PROA     5        PRO      HD2      HA2      0.900000E-01   1.00800           0
        47 PROA     5        PRO      CA       CP1      0.200000E-01   12.0110           0
        48 PROA     5        PRO      HA       HB1      0.900000E-01   1.00800           0
        49 PROA     5        PRO      CB       CP2     -0.180000       12.0110           0
        50 PROA     5        PRO      HB1      HA2      0.900000E-01   1.00800           0
        51 PROA     5        PRO      HB2      HA2      0.900000E-01   1.00800           0
        52 PROA     5        PRO      CG       CP2     -0.180000       12.0110           0
        53 PROA     5        PRO      HG1      HA2      0.900000E-01   1.00800           0
        54 PROA     5        PRO      HG2      HA2      0.900000E-01   1.00800           0
        55 PROA     5        PRO      C        C        0.510000       12.0110           0
        56 PROA     5        PRO      O        O       -0.510000       15.9994           0
        57 PROA     6        GLY      N        NH1     -0.470000       14.0070           0
        58 PROA     6        GLY      HN       H        0.310000       1.00800           0
        59 PROA     6        GLY      CA       CT2     -0.200000E-01   12.0110           0
        60 PROA     6        GLY      HA1      HB2      0.900000E-01   1.00800           0
        61 PROA     6        GLY      HA2      HB2      0.900000E-01   1.00800           0
        62 PROA     6        GLY      C        C        0.510000       12.0110           0
        63 PROA     6        GLY      O        O       -0.510000       15.9994           0
        64 PROA     7        PRO      N        N       -0.290000       14.0070           0
        65 PROA     7        PRO      CD       CP3       0.00000       12.0110           0
        66 PROA     7        PRO      HD1      HA2      0.900000E-01   1.00800           0
        67 PROA     7        PRO      HD2      HA2      0.900000E-01   1.00800           0
        68 PROA     7        PRO      CA       CP1      0.200000E-01   12.0110           0
        69 PROA     7        PRO      HA       HB1      0.900000E-01   1.00800           0
        70 PROA     7        PRO      CB       CP2     -0.180000       12.0110           0
        71 PROA     7        PRO      HB1      HA2      0.900000E-01   1.00800           0
        72 PROA     7        PRO      HB2      HA2      0.900000E-01   1.00800           0
        73 PROA     7        PRO      CG       CP2     -0.180000       12.0110           0
        74 PROA     7        PRO      HG1      HA2      0.900000E-01   1.00800           0
        75 PROA     7        PRO      HG2      HA2      0.900000E-01   1.00800           0
        76 PROA     7        PRO      C        C        0.510000       12.0110           0
        77 PROA     7        PRO      O        O       -0.510000       15.9994           0
        78 PROA     8        GLY      N        NH1     -0.470000       14.0070           0
        79 PROA     8        GLY      HN       H        0.310000       1.00800           0
        80 PROA     8        GLY      CA       CT2     -0.200000E-01   12.0110           0
        81 PROA     8        GLY      HA1      HB2      0.900000E-01   1.00800           0
        82 PROA     8        GLY      HA2      HB2      0.900000E-01   1.00800           0
        83 PROA     8        GLY      C        C        0.510000       12.0110           0
        84 PROA     8        GLY      O        O       -0.510000       15.9994           0
        85 PROA     9        ASP      N        NH1     -0.470000       14.0070           0
        86 PROA     9        ASP      HN       H        0.310000       1.00800           0
        87 PROA     9        ASP      CA       CT1      0.700000E-01   12.0110           0
        88 PROA     9        ASP      HA       HB1      0.900000E-01   1.00800           0
        89 PROA     9        ASP      CB       CT2A    -0.280000       12.0110           0
        90 PROA     9        ASP      HB1      HA2      0.900000E-01   1.00800           0
        91 PROA     9        ASP      HB2      HA2      0.900000E-01   1.00800           0
        92 PROA     9        ASP      CG       CC       0.620000       12.0110           0
        93 PROA     9        ASP      OD1      OC      -0.760000       15.9994           0
        94 PROA     9        ASP      OD2      OC      -0.760000       15.9994           0
        95 PROA     9        ASP      C        C        0.510000       12.0110           0
        96 PROA     9        ASP      O        O       -0.510000       15.9994           0
        97 PROA     10       PRO      N        N       -0.290000       14.0070           0
        98 PROA     10       PRO      CD       CP3       0.00000       12.0110           0
        99 PROA     10       PRO      HD1      HA2      0.900000E-01   1.00800           0
       100 PROA     10       PRO      HD2      HA2      0.900000E-01   1.00800           0
       101 PROA     10       PRO      CA       CP1      0.200000E-01   12.0110           0
       102 PROA     10       PRO      HA       HB1      0.900000E-01   1.00800           0
       103 PROA     10       PRO      CB       CP2     -0.180000       12.0110           0
       104 PROA     10       PRO      HB1      HA2      0.900000E-01   1.00800           0
       105 PROA     10       PRO      HB2      HA2      0.900000E-01   1.00800           0
       106 PROA     10       PRO      CG       CP2     -0.180000       12.0110           0
       107 PROA     10       PRO      HG1      HA2      0.900000E-01   1.00800           0
       108 PROA     10       PRO      HG2      HA2      0.900000E-01   1.00800           0
       109 PROA     10       PRO      C        C        0.510000       12.0110           0
       110 PROA     10       PRO      O        O       -0.510000       15.9994           0
       111 PROA     11       GLY      N        NH1     -0.470000       14.0070           0
       112 PROA     11       GLY      HN       H        0.310000       1.00800           0
       113 PROA     11       GLY      CA       CT2     -0.200000E-01   12.0110           0
       114 PROA     11       GLY      HA1      HB2      0.900000E-01   1.00800           0
       115 PROA     11       GLY      HA2      HB2      0.900000E-01   1.00800           0
       116 PROA     11       GLY      C        C        0.510000       12.0110           0
       117 PROA     11       GLY      O        O       -0.510000       15.9994           0
       118 PROA     12       PRO      N        N       -0.290000       14.0070           0
       119 PROA     12       PRO      CD       CP3       0.00000       12.0110           0
       120 PROA     12       PRO      HD1      HA2      0.900000E-01   1.00800           0
       121 PROA     12       PRO      HD2      HA2      0.900000E-01   1.00800           0
       122 PROA     12       PRO      CA       CP1      0.200000E-01   12.0110           0
       123 PROA     12       PRO      HA       HB1      0.900000E-01   1.00800           0
       124 PROA     12       PRO      CB       CP2     -0.180000       12.0110           0
       125 PROA     12       PRO      HB1      HA2      0.900000E-01   1.00800           0
       126 PROA     12       PRO      HB2      HA2      0.900000E-01   1.00800           0
       127 PROA     12       PRO      CG       CP2     -0.180000       12.0110           0
       128 PROA     12       PRO      HG1      HA2      0.900000E-01   1.00800           0
       129 PROA     12       PRO      HG2      HA2      0.900000E-01   1.00800           0
       130 PROA     12       PRO      C        C        0.510000       12.0110           0
       131 PROA     12       PRO      O        O       -0.510000       15.9994           0
       132 PROA     13       GLY      N        NH1     -0.470000       14.0070           0
       133 PROA     13       GLY      HN       H        0.310000       1.00800           0
       134 PROA     13       GLY      CA       CT2     -0.200000E-01   12.0110           0
       135 PROA     13       GLY      HA1      HB2      0.900000E-01   1.00800           0
       136 PROA     13       GLY      HA2      HB2      0.900000E-01   1.00800           0
       137 PROA     13       GLY      C        C        0.510000       12.0110           0
       138 PROA     13       GLY      O        O       -0.510000       15.9994           0
       139 PROA     14       ASP      N        NH1     -0.470000       14.0070           0
       140 PROA     14       ASP      HN       H        0.310000       1.00800           0
       141 PROA     14       ASP      CA       CT1      0.700000E-01   12.0110           0
       142 PROA     14       ASP      HA       HB1      0.900000E-01   1.00800           0
       143 PROA     14       ASP      CB       CT2A    -0.280000       12.0110           0
       144 PROA     14       ASP      HB1      HA2      0.900000E-01   1.00800           0
       145 PROA     14       ASP      HB2      HA2      0.900000E-01   1.00800           0
       146 PROA     14       ASP      CG       CC       0.620000       12.0110           0
       147 PROA     14       ASP      OD1      OC      -0.760000       15.9994           0
       148 PROA     14       ASP      OD2      OC      -0.760000       15.9994           0
       149 PROA     14       ASP      C        C        0.510000       12.0110           0
       150 PROA     14       ASP      O        O       -0.510000       15.9994           0
       151 PROA     15       PRO      N        N       -0.290000       14.0070           0
       152 PROA     15       PRO      CD       CP3       0.00000       12.0110           0
       153 PROA     15       PRO      HD1      HA2      0.900000E-01   1.00800           0
       154 PROA     15       PRO      HD2      HA2      0.900000E-01   1.00800           0
       155 PROA     15       PRO      CA       CP1      0.200000E-01   12.0110           0
       156 PROA     15       PRO      HA       HB1      0.900000E-01   1.00800           0
       157 PROA     15       PRO      CB       CP2     -0.180000       12.0110           0
       158 PROA     15       PRO      HB1      HA2      0.900000E-01   1.00800           0
       159 PROA     15       PRO      HB2      HA2      0.900000E-01   1.00800           0
       160 PROA     15       PRO      CG       CP2     -0.180000       12.0110           0
       161 PROA     15       PRO      HG1      HA2      0.900000E-01   1.00800           0
       162 PROA     15       PRO      HG2      HA2      0.900000E-01   1.00800           0
       163 PROA     15       PRO      C        CC       0.340000       12.0110           0
       164 PROA     15       PRO      OT1      OC      -0.670000       15.9994           0
       165 PROA     15       PRO      OT2      OC      -0.670000       15.9994           0

       170 !NBOND: bonds
         2         1         3         1         4         1         1         5
         8         5         8        10         5         6         5         7
         9         8        22        14        22        24        10        14
        14        16        16        19        19        11        10        11
        15        14        20        19        21        19        12        11
        13        11        17        16        18        16        23        22
        24        25        24        26        29        26        29        31
        26        27        26        28        30        29        35        33
        38        35        40        38        31        32        31        33
        41        33        41        43        33        34        35        36
        35        37        42        41        38        39        55        47
        55        57        43        47        47        49        49        52
        52        44        43        44        48        47        53        52
        54        52        45        44        46        44        50        49
        51        49        56        55        57        58        57        59
        62        59        62        64        59        60        59        61
        63        62        76        68        76        78        64        68
        68        70        70        73        73        65        64        65
        69        68        74        73        75        73        66        65
        67        65        71        70        72        70        77        76
        78        79        78        80        83        80        83        85
        80        81        80        82        84        83        89        87
        92        89        94        92        85        86        85        87
        95        87        95        97        87        88        89        90
        89        91        96        95        92        93       109       101
       109       111        97       101       101       103       103       106
       106        98        97        98       102       101       107       106
       108       106        99        98       100        98       104       103
       105       103       110       109       111       112       111       113
       116       113       116       118       113       114       113       115
       117       116       130       122       130       132       118       122
       122       124       124       127       127       119       118       119
       123       122       128       127       129       127       120       119
       121       119       125       124       126       124       131       130
       132       133       132       134       137       134       137       139
       134       135       134       136       138       137       143       141
       146       143       148       146       139       140       139       141
       149       141       149       151       141       142       143       144
       143       145       150       149       146       147       163       155
       151       155       155       157       157       160       160       152
       151       152       156       155       161       160       162       160
       153       152       154       152       158       157       159       157
       163       165       163       164

       318 !NTHETA: angles
         2         1         3         2         1         4         2         1         5
         3         1         4         3         1         5         4         1         5
         1         5         6         1         5         7         1         5         8
         6         5         7         6         5         8         7         5         8
         5         8         9         5         8        10         9         8        10
         8        10        11         8        10        14        11        10        14
        10        11        12        10        11        13        10        11        19
        12        11        13        12        11        19        13        11        19
        10        14        15        10        14        16        10        14        22
        15        14        16        15        14        22        16        14        22
        14        16        17        14        16        18        14        16        19
        17        16        18        17        16        19        18        16        19
        11        19        16        11        19        20        11        19        21
        16        19        20        16        19        21        20        19        21
        14        22        23        14        22        24        23        22        24
        22        24        25        22        24        26        25        24        26
        24        26        27        24        26        28        24        26        29
        27        26        28        27        26        29        28        26        29
        26        29        30        26        29        31        30        29        31
        29        31        32        29        31        33        32        31        33
        31        33        34        31        33        35        31        33        41
        34        33        35        34        33        41        35        33        41
        33        35        36        33        35        37        33        35        38
        36        35        37        36        35        38        37        35        38
        35        38        39        35        38        40        39        38        40
        33        41        42        33        41        43        42        41        43
        41        43        44        41        43        47        44        43        47
        43        44        45        43        44        46        43        44        52
        45        44        46        45        44        52        46        44        52
        43        47        48        43        47        49        43        47        55
        48        47        49        48        47        55        49        47        55
        47        49        50        47        49        51        47        49        52
        50        49        51        50        49        52        51        49        52
        44        52        49        44        52        53        44        52        54
        49        52        53        49        52        54        53        52        54
        47        55        56        47        55        57        56        55        57
        55        57        58        55        57        59        58        57        59
        57        59        60        57        59        61        57        59        62
        60        59        61        60        59        62        61        59        62
        59        62        63        59        62        64        63        62        64
        62        64        65        62        64        68        65        64        68
        64        65        66        64        65        67        64        65        73
        66        65        67        66        65        73        67        65        73
        64        68        69        64        68        70        64        68        76
        69        68        70        69        68        76        70        68        76
        68        70        71        68        70        72        68        70        73
        71        70        72        71        70        73        72        70        73
        65        73        70        65        73        74        65        73        75
        70        73        74        70        73        75        74        73        75
        68        76        77        68        76        78        77        76        78
        76        78        79        76        78        80        79        78        80
        78        80        81        78        80        82        78        80        83
        81        80        82        81        80        83        82        80        83
        80        83        84        80        83        85        84        83        85
        83        85        86        83        85        87        86        85        87
        85        87        88        85        87        89        85        87        95
        88        87        89        88        87        95        89        87        95
        87        89        90        87        89        91        87        89        92
        90        89        91        90        89        92        91        89        92
        89        92        93        89        92        94        93        92        94
        87        95        96        87        95        97        96        95        97
        95        97        98        95        97       101        98        97       101
        97        98        99        97        98       100        97        98       106
        99        98       100        99        98       106       100        98       106
        97       101       102        97       101       103        97       101       109
       102       101       103       102       101       109       103       101       109
       101       103       104       101       103       105       101       103       106
       104       103       105       104       103       106       105       103       106
        98       106       103        98       106       107        98       106       108
       103       106       107       103       106       108       107       106       108
       101       109       110       101       109       111       110       109       111
       109       111       112       109       111       113       112       111       113
       111       113       114       111       113       115       111       113       116
       114       113       115       114       113       116       115       113       116
       113       116       117       113       116       118       117       116       118
       116       118       119       116       118       122       119       118       122
       118       119       120       118       119       121       118       119       127
       120       119       121       120       119       127       121       119       127
       118       122       123       118       122       124       118       122       130
       123       122       124       123       122       130       124       122       130
       122       124       125       122       124       126       122       124       127
       125       124       126       125       124       127       126       124       127
       119       127       124       119       127       128       119       127       129
       124       127       128       124       127       129       128       127       129
       122       130       131       122       130       132       131       130       132
       130       132       133       130       132       134       133       132       134
       132       134       135       132       134       136       132       134       137
       135       134       136       135       134       137       136       134       137
       134       137       138       134       137       139       138       137       139
       137       139       140       137       139       141       140       139       141
       139       141       142       139       141       143       139       141       149
       142       141       143       142       141       149       143       141       149
       141       143       144       141       143       145       141       143       146
       144       143       145       144       143       146       145       143       146
       143       146       147       143       146       148       147       146       148
       141       149       150       141       149       151       150       149       151
       149       151       152       149       151       155       152       151       155
       151       152       153       151       152       154       151       152       160
       153       152       154       153       152       160       154       152       160
       151       155       156       151       155       157       151       155       163
       156       155       157       156       155       163       157       155       163
       155       157       158       155       157       159       155       157       160
       158       157       159       158       157       160       159       157       160
       152       160       157       152       160       161       152       160       162
       157       160       161       157       160       162       161       160       162
       155       163       164       155       163       165       164       163       165

       482 !NPHI: dihedrals
         1         5         8         9         1         5         8        10
         2         1         5         6         2         1         5         7
         2         1         5         8         3         1         5         6
         3         1         5         7         3         1         5         8
         4         1         5         6         4         1         5         7
         4         1         5         8         5         8        10        11
         5         8        10        14         6         5         8         9
         6         5         8        10         7         5         8         9
         7         5         8        10         8        10        11        12
         8        10        11        13         8        10        11        19
         8        10        14        15         8        10        14        16
         8        10        14        22         9         8        10        11
         9         8        10        14        10        11        19        16
        10        11        19        20        10        11        19        21
        10        14        16        17        10        14        16        18
        10        14        16        19        10        14        22        23
        10        14        22        24        11        10        14        15
        11        10        14        16        11        10        14        22
        11        19        16        14        11        19        16        17
        11        19        16        18        12        11        10        14
        12        11        19        16        12        11        19        20
        12        11        19        21        13        11        10        14
        13        11        19        16        13        11        19        20
        13        11        19        21        14        10        11        19
        14        16        19        20        14        16        19        21
        14        22        24        25        14        22        24        26
        15        14        16        17        15        14        16        18
        15        14        16        19        15        14        22        23
        15        14        22        24        16        14        22        23
        16        14        22        24        17        16        14        22
        17        16        19        20        17        16        19        21
        18        16        14        22        18        16        19        20
        18        16        19        21        19        16        14        22
        22        24        26        27        22        24        26        28
        22        24        26        29        23        22        24        25
        23        22        24        26        24        26        29        30
        24        26        29        31        25        24        26        27
        25        24        26        28        25        24        26        29
        26        29        31        32        26        29        31        33
        27        26        29        30        27        26        29        31
        28        26        29        30        28        26        29        31
        29        31        33        34        29        31        33        35
        29        31        33        41        30        29        31        32
        30        29        31        33        31        33        35        36
        31        33        35        37        31        33        35        38
        31        33        41        42        31        33        41        43
        32        31        33        34        32        31        33        35
        32        31        33        41        33        35        38        39
        33        35        38        40        33        41        43        44
        33        41        43        47        34        33        35        36
        34        33        35        37        34        33        35        38
        34        33        41        42        34        33        41        43
        35        33        41        42        35        33        41        43
        36        35        33        41        36        35        38        39
        36        35        38        40        37        35        33        41
        37        35        38        39        37        35        38        40
        38        35        33        41        41        43        44        45
        41        43        44        46        41        43        44        52
        41        43        47        48        41        43        47        49
        41        43        47        55        42        41        43        44
        42        41        43        47        43        44        52        49
        43        44        52        53        43        44        52        54
        43        47        49        50        43        47        49        51
        43        47        49        52        43        47        55        56
        43        47        55        57        44        43        47        48
        44        43        47        49        44        43        47        55
        44        52        49        47        44        52        49        50
        44        52        49        51        45        44        43        47
        45        44        52        49        45        44        52        53
        45        44        52        54        46        44        43        47
        46        44        52        49        46        44        52        53
        46        44        52        54        47        43        44        52
        47        49        52        53        47        49        52        54
        47        55        57        58        47        55        57        59
        48        47        49        50        48        47        49        51
        48        47        49        52        48        47        55        56
        48        47        55        57        49        47        55        56
        49        47        55        57        50        49        47        55
        50        49        52        53        50        49        52        54
        51        49        47        55        51        49        52        53
        51        49        52        54        52        49        47        55
        55        57        59        60        55        57        59        61
        55        57        59        62        56        55        57        58
        56        55        57        59        57        59        62        63
        57        59        62        64        58        57        59        60
        58        57        59        61        58        57        59        62
        59        62        64        65        59        62        64        68
        60        59        62        63        60        59        62        64
        61        59        62        63        61        59        62        64
        62        64        65        66        62        64        65        67
        62        64        65        73        62        64        68        69
        62        64        68        70        62        64        68        76
        63        62        64        65        63        62        64        68
        64        65        73        70        64        65        73        74
        64        65        73        75        64        68        70        71
        64        68        70        72        64        68        70        73
        64        68        76        77        64        68        76        78
        65        64        68        69        65        64        68        70
        65        64        68        76        65        73        70        68
        65        73        70        71        65        73        70        72
        66        65        64        68        66        65        73        70
        66        65        73        74        66        65        73        75
        67        65        64        68        67        65        73        70
        67        65        73        74        67        65        73        75
        68        64        65        73        68        70        73        74
        68        70        73        75        68        76        78        79
        68        76        78        80        69        68        70        71
        69        68        70        72        69        68        70        73
        69        68        76        77        69        68        76        78
        70        68        76        77        70        68        76        78
        71        70        68        76        71        70        73        74
        71        70        73        75        72        70        68        76
        72        70        73        74        72        70        73        75
        73        70        68        76        76        78        80        81
        76        78        80        82        76        78        80        83
        77        76        78        79        77        76        78        80
        78        80        83        84        78        80        83        85
        79        78        80        81        79        78        80        82
        79        78        80        83        80        83        85        86
        80        83        85        87        81        80        83        84
        81        80        83        85        82        80        83        84
        82        80        83        85        83        85        87        88
        83        85        87        89        83        85        87        95
        84        83        85        86        84        83        85        87
        85        87        89        90        85        87        89        91
        85        87        89        92        85        87        95        96
        85        87        95        97        86        85        87        88
        86        85        87        89        86        85        87        95
        87        89        92        93        87        89        92        94
        87        95        97        98        87        95        97       101
        88        87        89        90        88        87        89        91
        88        87        89        92        88        87        95        96
        88        87        95        97        89        87        95        96
        89        87        95        97        90        89        87        95
        90        89        92        93        90        89        92        94
        91        89        87        95        91        89        92        93
        91        89        92        94        92        89        87        95
        95        97        98        99        95        97        98       100
        95        97        98       106        95        97       101       102
        95        97       101       103        95        97       101       109
        96        95        97        98        96        95        97       101
        97        98       106       103        97        98       106       107
        97        98       106       108        97       101       103       104
        97       101       103       105        97       101       103       106
        97       101       109       110        97       101       109       111
        98        97       101       102        98        97       101       103
        98        97       101       109        98       106       103       101
        98       106       103       104        98       106       103       105
        99        98        97       101        99        98       106       103
        99        98       106       107        99        98       106       108
       100        98        97       101       100        98       106       103
       100        98       106       107       100        98       106       108
       101        97        98       106       101       103       106       107
       101       103       106       108       101       109       111       112
       101       109       111       113       102       101       103       104
       102       101       103       105       102       101       103       106
       102       101       109       110       102       101       109       111
       103       101       109       110       103       101       109       111
       104       103       101       109       104       103       106       107
       104       103       106       108       105       103       101       109
       105       103       106       107       105       103       106       108
       106       103       101       109       109       111       113       114
       109       111       113       115       109       111       113       116
       110       109       111       112       110       109       111       113
       111       113       116       117       111       113       116       118
       112       111       113       114       112       111       113       115
       112       111       113       116       113       116       118       119
       113       116       118       122       114       113       116       117
       114       113       116       118       115       113       116       117
       115       113       116       118       116       118       119       120
       116       118       119       121       116       118       119       127
       116       118       122       123       116       118       122       124
       116       118       122       130       117       116       118       119
       117       116       118       122       118       119       127       124
       118       119       127       128       118       119       127       129
       118       122       124       125       118       122       124       126
       118       122       124       127       118       122       130       131
       118       122       130       132       119       118       122       123
       119       118       122       124       119       118       122       130
       119       127       124       122       119       127       124       125
       119       127       124       126       120       119       118       122
       120       119       127       124       120       119       127       128
       120       119       127       129       121       119       118       122
       121       119       127       124       121       119       127       128
       121       119       127       129       122       118       119       127
       122       124       127       128       122       124       127       129
       122       130       132       133       122       130       132       134
       123       122       124       125       123       122       124       126
       123       122       124       127       123       122       130       131
       123       122       130       132       124       122       130       131
       124       122       130       132       125       124       122       130
       125       124       127       128       125       124       127       129
       126       124       122       130       126       124       127       128
       126       124       127       129       127       124       122       130
       130       132       134       135       130       132       134       136
       130       132       134       137       131       130       132       133
       131       130       132       134       132       134       137       138
       132       134       137       139       133       132       134       135
       133       132       134       136       133       132       134       137
       134       137       139       140       134       137       139       141
       135       134       137       138       135       134       137       139
       136       134       137       138       136       134       137       139
       137       139       141       142       137       139       141       143
       137       139       141       149       138       137       139       140
       138       137       139       141       139       141       143       144
       139       141       143       145       139       141       143       146
       139       141       149       150       139       141       149       151
       140       139       141       142       140       139       141       143
       140       139       141       149       141       143       146       147
       141       143       146       148       141       149       151       152
       141       149       151       155       142       141       143       144
       142       141       143       145       142       141       143       146
       142       141       149       150       142       141       149       151
       143       141       149       150       143       141       149       151
       144       143       141       149       144       143       146       147
       144       143       146       148       145       143       141       149
       145       143       146       147       145       143       146       148
       146       143       141       149       149       151       152       153
       149       151       152       154       149       151       152       160
       149       151       155       156       149       151       155       157
       149       151       155       163       150       149       151       152
       150       149       151       155       151       152       160       157
       151       152       160       161       151       152       160       162
       151       155       157       158       151       155       157       159
       151       155       157       160       151       155       163       164
       151       155       163       165       152       151       155       156
       152       151       155       157       152       151       155       163
       152       160       157       155       152       160       157       158
       152       160       157       159       153       152       151       155
       153       152       160       157       153       152       160       161
       153       152       160       162       154       152       151       155
       154       152       160       157       154       152       160       161
       154       152       160       162       155       151       152       160
       155       157       160       161       155       157       160       162
       156       155       157       158       156       155       157       159
       156       155       157       160       156       155       163       164
       156       155       163       165       157       155       163       164
       157       155       163       165       158       157       155       163
       158       157       160       161       158       157       160       162
       159       157       155       163       159       157       160       161
       159       157       160       162       160       157       155       163

        32 !NIMPHI: impropers
         8         5        10         9        10         8        14        11
        22        14        24        23        24        22        26        25
        29        26        31        30        31        29        33        32
        41        33        43        42        38        35        40        39
        43        41        47        44        55        47        57        56
        57        55        59        58        62        59        64        63
        64        62        68        65        76        68        78        77
        78        76        80        79        83        80        85        84
        85        83        87        86        95        87        97        96
        92        89        94        93        97        95       101        98
       109       101       111       110       111       109       113       112
       116       113       118       117       118       116       122       119
       130       122       132       131       132       130       134       133
       137       134       139       138       139       137       141       140
       149       141       151       150       146       143       148       147
       151       149       155       152       163       155       165       164

        11 !NDON: donors
         1         2         1         3         1         4        24        25
        31        32        57        58        78        79        85        86
       111       112       132       133       139       140

        22 !NACC: acceptors
         9         8        23        22        30        29        39        38
        40        38        42        41        56        55        63        62
        77        76        84        83        93        92        94        92
        96        95       110       109       117       116       131       130
       138       137       147       146       148       146       150       149
       164       163       165       163

         0 !NNB

         0         0         0         0         0         0         0         0
         0         0         0         0         0         0         0         0
         0         0         0         0         0         0         0         0
         0         0         0         0         0         0         0         0
         0         0         0         0         0         0         0         0
         0         0         0         0         0         0         0         0
         0         0         0         0         0         0         0         0
         0         0         0         0         0         0         0         0
         0         0         0         0         0         0         0         0
         0         0         0         0         0         0         0         0
         0         0         0         0         0         0         0         0
         0         0         0         0         0         0         0         0
         0         0         0         0         0         0         0         0
         0         0         0         0         0         0         0         0
         0         0         0         0         0         0         0         0
         0         0         0         0         0         0         0         0
         0         0         0         0         0         0         0         0
         0         0         0         0         0         0         0         0
         0         0         0         0         0         0         0         0
         0         0         0         0         0         0         0         0
         0         0         0         0         0

        45         0 !NGRP NST2
         0         2         0         7         1         0         9         1         0
        15         1         0        18         1         0        21         1         0
        23         1         0        28         1         0        30         1         0
        34         2         0        40         1         0        42         1         0
        48         1         0        51         1         0        54         1         0
        56         1         0        61         1         0        63         1         0
        69         1         0        72         1         0        75         1         0
        77         1         0        82         1         0        84         1         0
        88         2         0        94         1         0        96         1         0
       102         1         0       105         1         0       108         1         0
       110         1         0       115         1         0       117         1         0
       123         1         0       126         1         0       129         1         0
       131         1         0       136         1         0       138         1         0
       142         2         0       148         1         0       150         1         0
       156         1         0       159         1         0       162         2         0

         0         0 !NUMLP NUMLPH

        13 !NCRTERM: cross-terms
         8        10        14        22        10        14        22        24
        22        24        26        29        24        26        29        31
        29        31        33        41        31        33        41        43
        41        43        47        55        43        47        55        57
        55        57        59        62        57        59        62        64
        62        64        68        76        64        68        76        78
        76        78        80        83        78        80        83        85
        83        85        87        95        85        87        95        97
        95        97       101       109        97       101       109       111
       109       111       113       116       111       113       116       118
       116       118       122       130       118       122       130       132
       130       132       134       137       132       134       137       139
       137       139       141       149       139       141       149       151
