* SET NIONTYPES = 1
* SET NPOSTOT = 45
* SET NNEGTOT = 42
* SET NIONTOT = 87
*  DATE:     6/17/26     23:27:21      CREATED BY USER: charmm-gui
*
        87  EXT
         1         1  LIT       LIT            30.0215994427      -17.6033508290      -32.1907243871  IONS      1               1.0000000000
         2         2  LIT       LIT            37.7035170359       22.9524459978        9.1704003934  IONS      2               1.0000000000
         3         3  LIT       LIT           -24.1158539804      -41.4246247068        8.5164761167  IONS      3               1.0000000000
         4         4  LIT       LIT            17.2234713898       17.2445990728      -24.3743806134  IONS      4               1.0000000000
         5         5  LIT       LIT            23.4891667398        3.6859423654       23.4035579893  IONS      5               1.0000000000
         6         6  LIT       LIT            -7.5386888460       30.1283719488      -21.4111583507  IONS      6               1.0000000000
         7         7  LIT       LIT           -16.9891524919      -21.3642657755       -1.3791221858  IONS      7               1.0000000000
         8         8  LIT       LIT            31.8372069168      -34.1855852162       15.6560585756  IONS      8               1.0000000000
         9         9  LIT       LIT            34.9417421599       11.1848889253       18.6038554560  IONS      9               1.0000000000
        10        10  LIT       LIT            32.2705950783        0.1601952232       25.6779387435  IONS      10              1.0000000000
        11        11  LIT       LIT            -5.1206257477       35.8240239038       32.1334937415  IONS      11              1.0000000000
        12        12  LIT       LIT            35.6167799259       17.9019496131       -4.6706647283  IONS      12              1.0000000000
        13        13  LIT       LIT           -40.3652101347        0.4513500843      -17.9040130730  IONS      13              1.0000000000
        14        14  LIT       LIT           -13.8938911962       -2.4700780223      -37.0883936827  IONS      14              1.0000000000
        15        15  LIT       LIT           -31.6352615315      -15.6420140783      -11.8458283691  IONS      15              1.0000000000
        16        16  LIT       LIT            24.1168734944       25.1682854667      -13.4818039537  IONS      16              1.0000000000
        17        17  LIT       LIT            -6.2879546854      -28.8462530547       13.8367984700  IONS      17              1.0000000000
        18        18  LIT       LIT            -7.0562425932      -40.0763536095      -22.1026656602  IONS      18              1.0000000000
        19        19  LIT       LIT           -21.7551138943       32.9653349123        7.6196909991  IONS      19              1.0000000000
        20        20  LIT       LIT           -15.6477489254      -13.7376323391        4.9121336354  IONS      20              1.0000000000
        21        21  LIT       LIT           -31.7922818058        3.4832948169      -37.9374192028  IONS      21              1.0000000000
        22        22  LIT       LIT            12.9307849388       20.1560165440       25.3937596833  IONS      22              1.0000000000
        23        23  LIT       LIT           -21.1695802266      -19.8001698801      -15.1707997476  IONS      23              1.0000000000
        24        24  LIT       LIT            -7.1155428611      -10.9023944145       29.2973763259  IONS      24              1.0000000000
        25        25  LIT       LIT            27.9057501744       12.9019961868        3.2368872597  IONS      25              1.0000000000
        26        26  LIT       LIT             3.7788776575       20.5746683531       44.1754219179  IONS      26              1.0000000000
        27        27  LIT       LIT           -28.9686069058        8.3806034703        7.7550945532  IONS      27              1.0000000000
        28        28  LIT       LIT            29.6229236789       -6.5262716129       13.0497733814  IONS      28              1.0000000000
        29        29  LIT       LIT            37.0859395100      -22.3297728781       -5.1543370214  IONS      29              1.0000000000
        30        30  LIT       LIT            -7.1241275139        4.0813511603       22.8821347975  IONS      30              1.0000000000
        31        31  LIT       LIT           -22.6788097606      -11.3025374290      -17.0036628811  IONS      31              1.0000000000
        32        32  LIT       LIT            17.4844685263      -31.7120930804      -19.5166032067  IONS      32              1.0000000000
        33        33  LIT       LIT            45.4045291503        3.4438909042        9.7867760270  IONS      33              1.0000000000
        34        34  LIT       LIT             5.8472893035      -39.0854756947       11.1860927677  IONS      34              1.0000000000
        35        35  LIT       LIT            46.2812883868       13.6932331436       13.4602925749  IONS      35              1.0000000000
        36        36  LIT       LIT            -2.7775274978      -31.6492967760      -36.7750843830  IONS      36              1.0000000000
        37        37  LIT       LIT            -9.5429847818      -16.5608009129      -10.2533899332  IONS      37              1.0000000000
        38        38  LIT       LIT            33.2829354803        5.4345919434      -36.1502457006  IONS      38              1.0000000000
        39        39  LIT       LIT            24.2396216447       27.1721430381      -11.6641940760  IONS      39              1.0000000000
        40        40  LIT       LIT           -25.1495034030       22.6739136882      -23.0463131551  IONS      40              1.0000000000
        41        41  LIT       LIT           -20.9661381332      -27.9464040156        3.9965802301  IONS      41              1.0000000000
        42        42  LIT       LIT            23.3474895361        6.7163685515       42.3245258911  IONS      42              1.0000000000
        43        43  LIT       LIT            13.1999324915      -16.2805363361       34.6262811351  IONS      43              1.0000000000
        44        44  LIT       LIT            -0.1379838515       33.9041917745       -8.6722504346  IONS      44              1.0000000000
        45        45  LIT       LIT           -35.9939577900       -4.7350242029        4.5145151216  IONS      45              1.0000000000
        46        46  CLA       CLA            11.0193975793      -19.1414925077       23.9779548765  IONS      46             -1.0000000000
        47        47  CLA       CLA           -37.5911654846      -16.3697348858       19.3276567609  IONS      47             -1.0000000000
        48        48  CLA       CLA            29.3551428831       -0.5976325728       20.8884952760  IONS      48             -1.0000000000
        49        49  CLA       CLA           -16.7768492997      -25.1445056669      -23.6893784073  IONS      49             -1.0000000000
        50        50  CLA       CLA            -7.6324735780      -16.5534172592      -29.9431311979  IONS      50             -1.0000000000
        51        51  CLA       CLA           -35.3588936196      -37.4807468787        1.5269231749  IONS      51             -1.0000000000
        52        52  CLA       CLA           -23.4747255290       22.7362342146       12.6350055618  IONS      52             -1.0000000000
        53        53  CLA       CLA           -33.4876009057       21.0606078773      -13.5713482924  IONS      53             -1.0000000000
        54        54  CLA       CLA            -1.2163026554        7.9673561800        3.5291244331  IONS      54             -1.0000000000
        55        55  CLA       CLA            35.5214837158       27.1815687839        7.5808643127  IONS      55             -1.0000000000
        56        56  CLA       CLA           -28.6377722823      -17.9508675111      -15.5505372127  IONS      56             -1.0000000000
        57        57  CLA       CLA           -27.8356259519       12.4315836947      -20.3557527808  IONS      57             -1.0000000000
        58        58  CLA       CLA           -26.7479536836      -12.5859180604      -14.0368558381  IONS      58             -1.0000000000
        59        59  CLA       CLA            26.0563594006      -19.0993790079      -26.9433036892  IONS      59             -1.0000000000
        60        60  CLA       CLA            -0.8738988580      -24.0773363357      -37.6517491014  IONS      60             -1.0000000000
        61        61  CLA       CLA            40.3318574043        4.1826314897       17.2709489529  IONS      61             -1.0000000000
        62        62  CLA       CLA             8.0966260242        3.4706718987       20.4450402797  IONS      62             -1.0000000000
        63        63  CLA       CLA            -5.5811226340       -8.0235226743       34.7508540316  IONS      63             -1.0000000000
        64        64  CLA       CLA            33.3420579764       18.8731119139       -8.5747685813  IONS      64             -1.0000000000
        65        65  CLA       CLA           -23.8869327304      -34.8911379564       -2.5557121796  IONS      65             -1.0000000000
        66        66  CLA       CLA            32.8448703161      -20.2050164417       21.9520547841  IONS      66             -1.0000000000
        67        67  CLA       CLA           -24.5019163328      -25.9444735242       10.0473562432  IONS      67             -1.0000000000
        68        68  CLA       CLA            13.1800984618       12.5839411396       44.1462666248  IONS      68             -1.0000000000
        69        69  CLA       CLA            28.5312876450       10.7438138134       26.1346873089  IONS      69             -1.0000000000
        70        70  CLA       CLA           -27.1529748399       -2.4619929714      -30.8508792967  IONS      70             -1.0000000000
        71        71  CLA       CLA           -25.8013833733      -21.6876526187       -1.6419148030  IONS      71             -1.0000000000
        72        72  CLA       CLA            39.7702814271        3.5540902345        9.2285422881  IONS      72             -1.0000000000
        73        73  CLA       CLA            47.0638861647       10.3920165511       12.7754434724  IONS      73             -1.0000000000
        74        74  CLA       CLA            -6.8725827911       -2.5661453857       18.8683028236  IONS      74             -1.0000000000
        75        75  CLA       CLA            30.5931779859       24.9732661727      -19.3336392651  IONS      75             -1.0000000000
        76        76  CLA       CLA            33.8334272408       12.0581397096       15.2576226076  IONS      76             -1.0000000000
        77        77  CLA       CLA            -2.7765314912      -26.1710933907       10.9999304523  IONS      77             -1.0000000000
        78        78  CLA       CLA            36.9133823112       16.0200050635        7.5007286548  IONS      78             -1.0000000000
        79        79  CLA       CLA            18.9946349046        0.8111462527       13.9571327427  IONS      79             -1.0000000000
        80        80  CLA       CLA            27.6819867108      -33.3291982546      -10.5594093927  IONS      80             -1.0000000000
        81        81  CLA       CLA           -13.5748859731      -14.7840468284      -16.6778240637  IONS      81             -1.0000000000
        82        82  CLA       CLA            -1.9042119165       26.5059471305      -13.7269501500  IONS      82             -1.0000000000
        83        83  CLA       CLA            32.0961295997        1.7520701305       36.1111366637  IONS      83             -1.0000000000
        84        84  CLA       CLA           -42.2744107764      -25.6879602109       10.1458180040  IONS      84             -1.0000000000
        85        85  CLA       CLA           -18.5242692054       -2.7266596953       20.3455691489  IONS      85             -1.0000000000
        86        86  CLA       CLA           -24.4649541164        4.5728309276      -30.8381230232  IONS      86             -1.0000000000
        87        87  CLA       CLA            24.7187023239        3.2582754573       -2.4107956383  IONS      87             -1.0000000000
