* GENERATED BY CHARMM-GUI (HTTP://WWW.CHARMM-GUI.ORG) V3.7 ON JUN, 17. 2026. JOB
* GENERATES IONS
*  DATE:     6/17/26     23:26:12      CREATED BY USER: charmm-gui
*
       165  EXT
         1         1  GLY       N              22.1034452586        0.4433206584        0.5416686288  PROA      1              97.3000000000
         2         1  GLY       HT1            22.8644042599        0.2145833256        1.2126534506  PROA      1               0.0000000000
         3         1  GLY       HT2            21.6238988366        1.3147875963        0.8452806202  PROA      1               0.0000000000
         4         1  GLY       HT3            22.5075658516        0.5828724744       -0.4063880536  PROA      1               0.0000000000
         5         1  GLY       CA             21.1448094711       -0.6495171034        0.5039187498  PROA      1              97.8100000000
         6         1  GLY       HA1            20.8791216450       -0.8845342594        1.5239571761  PROA      1               0.0000000000
         7         1  GLY       HA2            21.6316023521       -1.4932673293        0.0376358710  PROA      1               0.0000000000
         8         1  GLY       C              19.8855870867       -0.3132351440       -0.2713150410  PROA      1              98.1200000000
         9         1  GLY       O              19.6657771296        0.8441077772       -0.6364382333  PROA      1              97.7400000000
        10         2  PRO       N              18.9155250371       -1.2730165092       -0.5209975412  PROA      2              98.3400000000
        11         2  PRO       CD             19.2450365605       -2.5971069495       -0.4410371642  PROA      2              94.7000000000
        12         2  PRO       HD1            19.3017835708       -2.9051370948        0.6243567427  PROA      2               0.0000000000
        13         2  PRO       HD2            20.2229602390       -2.7702363155       -0.9378857044  PROA      2               0.0000000000
        14         2  PRO       CA             17.6322418177       -0.9728112272       -1.1602697581  PROA      2              98.3900000000
        15         2  PRO       HA             17.7860248370       -0.4019611401       -2.0619286522  PROA      2               0.0000000000
        16         2  PRO       CB             17.0133801668       -2.3563201260       -1.3768878182  PROA      2              98.2000000000
        17         2  PRO       HB1            16.6105757372       -2.4511010374       -2.4078272694  PROA      2               0.0000000000
        18         2  PRO       HB2            16.1913677456       -2.5384668083       -0.6521884686  PROA      2               0.0000000000
        19         2  PRO       CG             18.1373319593       -3.3159153460       -1.1562651040  PROA      2              96.7700000000
        20         2  PRO       HG1            17.7865920809       -4.1737951034       -0.5436335131  PROA      2               0.0000000000
        21         2  PRO       HG2            18.5042061114       -3.6985958763       -2.1326116484  PROA      2               0.0000000000
        22         2  PRO       C              16.7280823615       -0.1026284149       -0.2900424596  PROA      2              98.5000000000
        23         2  PRO       O              16.8955668230       -0.0603128022        0.9313204448  PROA      2              98.3900000000
        24         3  GLY       N              15.8715221331        0.6311829730       -0.9973163966  PROA      3              98.2000000000
        25         3  GLY       HN             15.8561261020        0.6411885155       -1.9941444726  PROA      3               0.0000000000
        26         3  GLY       CA             14.9005620818        1.4678161894       -0.3105941528  PROA      3              98.1800000000
        27         3  GLY       HA1            14.3885835704        2.0586955086       -1.0555966707  PROA      3               0.0000000000
        28         3  GLY       HA2            15.4406961157        2.1109863007        0.3682847401  PROA      3               0.0000000000
        29         3  GLY       C              13.8768038222        0.6711696942        0.4751216912  PROA      3              98.4100000000
        30         3  GLY       O              13.7888314718       -0.5497588136        0.3311270932  PROA      3              98.3000000000
        31         4  ASP       N              13.2267745238        1.4132730947        1.2839118087  PROA      4              98.3200000000
        32         4  ASP       HN             13.4419897317        2.3682627462        1.4710106553  PROA      4               0.0000000000
        33         4  ASP       CA             12.0926092310        0.8065017420        1.9746712561  PROA      4              98.2900000000
        34         4  ASP       HA             12.4335211394       -0.1059390539        2.4409289199  PROA      4               0.0000000000
        35         4  ASP       CB             11.5302869702        1.7638050597        3.0273906076  PROA      4              98.1000000000
        36         4  ASP       HB1            10.5681987111        1.3574973539        3.4055128392  PROA      4               0.0000000000
        37         4  ASP       HB2            11.3482233278        2.7519864602        2.5540761856  PROA      4               0.0000000000
        38         4  ASP       CG             12.4647957196        1.9620095048        4.2081405368  PROA      4              96.0100000000
        39         4  ASP       OD1            13.3420621358        1.1025998050        4.4421119090  PROA      4              95.1400000000
        40         4  ASP       OD2            12.3212115460        2.9846213745        4.9123298217  PROA      4              95.1300000000
        41         4  ASP       C              10.9961329577        0.4105552403        0.9871895348  PROA      4              98.4700000000
        42         4  ASP       O              10.7848083417        1.0900092628       -0.0187653041  PROA      4              98.3400000000
        43         5  PRO       N              10.3232792912       -0.5882402116        1.1966998897  PROA      5              98.2000000000
        44         5  PRO       CD             10.5169872938       -1.4026300722        2.2521620466  PROA      5              96.8300000000
        45         5  PRO       HD1            10.3018066347       -0.8537616549        3.1932227883  PROA      5               0.0000000000
        46         5  PRO       HD2            11.5662867720       -1.7660853073        2.2572090739  PROA      5               0.0000000000
        47         5  PRO       CA              9.1773281171       -0.8968120643        0.3388634726  PROA      5              98.2000000000
        48         5  PRO       HA              9.4991757331       -1.0440365958       -0.6795901243  PROA      5               0.0000000000
        49         5  PRO       CB              8.5635607603       -2.1333597945        1.0007836662  PROA      5              98.0600000000
        50         5  PRO       HB1             8.4228858241       -2.9486505091        0.2594464568  PROA      5               0.0000000000
        51         5  PRO       HB2             7.5804731414       -1.8894715635        1.4569925102  PROA      5               0.0000000000
        52         5  PRO       CG              9.5506860071       -2.5342668514        2.0497613966  PROA      5              97.2000000000
        53         5  PRO       HG1             9.0218204511       -2.7541465553        3.0017326651  PROA      5               0.0000000000
        54         5  PRO       HG2            10.0981091676       -3.4448232486        1.7249382333  PROA      5               0.0000000000
        55         5  PRO       C               8.1647308487        0.2448590722        0.2747480445  PROA      5              98.4200000000
        56         5  PRO       O               8.0924139761        1.0635390780        1.1944362080  PROA      5              98.3600000000
        57         6  GLY       N               7.5795547108        0.2434357434       -0.9524014418  PROA      6              98.3400000000
        58         6  GLY       HN              7.8102209069       -0.3571732258       -1.7120710305  PROA      6               0.0000000000
        59         6  GLY       CA              6.5271052029        1.2365202271       -1.1001757345  PROA      6              98.2800000000
        60         6  GLY       HA1             6.1708909846        1.1908720433       -2.1186636267  PROA      6               0.0000000000
        61         6  GLY       HA2             6.9578148063        2.2062800701       -0.8993150938  PROA      6               0.0000000000
        62         6  GLY       C               5.3586802436        1.0117177988       -0.1589127622  PROA      6              98.4800000000
        63         6  GLY       O               5.2739157376       -0.0277926692        0.4976875464  PROA      6              98.3800000000
        64         7  PRO       N               4.5681966099        1.8690279569       -0.1935092599  PROA      7              98.4700000000
        65         7  PRO       CD              4.6085819507        3.1293785522       -0.9777384364  PROA      7              97.6500000000
        66         7  PRO       HD1             4.7353718260        2.9054944065       -2.0575759546  PROA      7               0.0000000000
        67         7  PRO       HD2             5.4392732314        3.7750788025       -0.6238005441  PROA      7               0.0000000000
        68         7  PRO       CA              3.3250480624        1.7005471798        0.5636280569  PROA      7              98.4600000000
        69         7  PRO       HA              3.5345364888        1.3212196336        1.5509294187  PROA      7               0.0000000000
        70         7  PRO       CB              2.7029191409        3.0988874080        0.5341456681  PROA      7              98.3700000000
        71         7  PRO       HB1             2.9796294152        3.6728078571        1.4441565404  PROA      7               0.0000000000
        72         7  PRO       HB2             1.5955234642        3.0365157959        0.4720357422  PROA      7               0.0000000000
        73         7  PRO       CG              3.2677353808        3.7426578499       -0.6914134832  PROA      7              97.7900000000
        74         7  PRO       HG1             2.5856244216        3.5782013099       -1.5527917573  PROA      7               0.0000000000
        75         7  PRO       HG2             3.3799240105        4.8355576870       -0.5262544609  PROA      7               0.0000000000
        76         7  PRO       C               2.3864958777        0.6730600940       -0.0638335636  PROA      7              98.6300000000
        77         7  PRO       O               2.5257193170        0.3441434435       -1.2452952308  PROA      7              98.6000000000
        78         8  GLY       N               1.4520324888        0.2068504239        0.7368465961  PROA      8              98.3100000000
        79         8  GLY       HN              1.3710364109        0.4689675699        1.6953399873  PROA      8               0.0000000000
        80         8  GLY       CA              0.4772334667       -0.7399576791        0.2188019236  PROA      8              98.2600000000
        81         8  GLY       HA1            -0.0197044518       -1.1963577109        1.0620325547  PROA      8               0.0000000000
        82         8  GLY       HA2             1.0123856316       -1.4876881229       -0.3475879820  PROA      8               0.0000000000
        83         8  GLY       C              -0.5639250494       -0.0955117430       -0.6766987072  PROA      8              98.5300000000
        84         8  GLY       O              -0.6317886216        1.1321772726       -0.7739829121  PROA      8              98.4700000000
        85         9  ASP       N              -1.3296448313       -0.9537692153       -1.2952553551  PROA      9              98.5400000000
        86         9  ASP       HN             -1.1796322432       -1.9374679068       -1.2351843005  PROA      9               0.0000000000
        87         9  ASP       CA             -2.4574903402       -0.5246395300       -2.1165045386  PROA      9              98.5200000000
        88         9  ASP       HA             -2.1072100596        0.2410168730       -2.7926984518  PROA      9               0.0000000000
        89         9  ASP       CB             -3.0306416513       -1.7058003036       -2.9017400456  PROA      9              98.4000000000
        90         9  ASP       HB1            -3.9961586405       -1.3998375339       -3.3576325905  PROA      9               0.0000000000
        91         9  ASP       HB2            -3.2086466752       -2.5500471910       -2.2022861947  PROA      9               0.0000000000
        92         9  ASP       CG             -2.1082988107       -2.1857422155       -4.0082392303  PROA      9              97.3800000000
        93         9  ASP       OD1            -1.2672194861       -1.3940756540       -4.4881044459  PROA      9              96.7800000000
        94         9  ASP       OD2            -2.2241160042       -3.3648971536       -4.4054444790  PROA      9              96.0000000000
        95         9  ASP       C              -3.5483377064        0.1151327627       -1.2594156067  PROA      9              98.6800000000
        96         9  ASP       O              -3.7340235774       -0.2600255150       -0.1004647777  PROA      9              98.6300000000
        97        10  PRO       N              -4.2187511507        0.9371146227       -1.8713777259  PROA      10             98.5800000000
        98        10  PRO       CD             -4.0820576907        1.3519504215       -3.1301756279  PROA      10             97.4700000000
        99        10  PRO       HD1            -4.3448441618        0.5272867378       -3.8259512826  PROA      10              0.0000000000
       100        10  PRO       HD2            -3.0342750315        1.6755924827       -3.3052127598  PROA      10              0.0000000000
       101        10  PRO       CA             -5.3556292934        1.4809309515       -1.1254401352  PROA      10             98.5500000000
       102        10  PRO       HA             -5.0252077343        1.8959676987       -0.1867880469  PROA      10              0.0000000000
       103        10  PRO       CB             -5.9614048964        2.4975854097       -2.0961772940  PROA      10             98.4800000000
       104        10  PRO       HB1            -6.0141569286        3.5046631445       -1.6302540718  PROA      10              0.0000000000
       105        10  PRO       HB2            -6.9839457324        2.1896845362       -2.4022493130  PROA      10              0.0000000000
       106        10  PRO       CG             -5.0360539491        2.5037896436       -3.2691811866  PROA      10             97.8500000000
       107        10  PRO       HG1            -5.6180931143        2.4006372133       -4.2098641364  PROA      10              0.0000000000
       108        10  PRO       HG2            -4.4714769360        3.4601443100       -3.2997258126  PROA      10              0.0000000000
       109        10  PRO       C              -6.3795421069        0.4117345710       -0.7476734743  PROA      10             98.6900000000
       110        10  PRO       O              -6.4288702275       -0.6492466859       -1.3742957760  PROA      10             98.6600000000
       111        11  GLY       N              -7.0617598161        0.6451197791        0.4347711721  PROA      11             98.2700000000
       112        11  GLY       HN             -6.8794711453        1.4240351398        1.0297593234  PROA      11              0.0000000000
       113        11  GLY       CA             -8.1019092413       -0.2837374838        0.8465276031  PROA      11             98.2200000000
       114        11  GLY       HA1            -8.4849882070        0.0511078418        1.7991114602  PROA      11              0.0000000000
       115        11  GLY       HA2            -7.6510638283       -1.2597508642        0.9486216071  PROA      11              0.0000000000
       116        11  GLY       C              -9.2487515610       -0.3720616989       -0.1418430393  PROA      11             98.4400000000
       117        11  GLY       O              -9.3102251787        0.4013105595       -1.1006169148  PROA      11             98.3600000000
       118        12  PRO       N             -10.1784786759       -1.1843568660        0.0196811171  PROA      12             98.4100000000
       119        12  PRO       CD            -10.1082516803       -2.0384492905        1.0626074326  PROA      12             96.4000000000
       120        12  PRO       HD1           -10.1915269013       -1.4698538287        2.0130007166  PROA      12              0.0000000000
       121        12  PRO       HD2            -9.1406494824       -2.5827121427        1.0308758971  PROA      12              0.0000000000
       122        12  PRO       CA            -11.3967665259       -1.2860995595       -0.7880144561  PROA      12             98.4100000000
       123        12  PRO       HA            -11.1589032973       -1.2188358320       -1.8375093015  PROA      12              0.0000000000
       124        12  PRO       CB            -11.9966548080       -2.6255108651       -0.3523937459  PROA      12             98.2800000000
       125        12  PRO       HB1           -11.8434575095       -3.3991206350       -1.1347846753  PROA      12              0.0000000000
       126        12  PRO       HB2           -13.0853335233       -2.5245128687       -0.1557847068  PROA      12              0.0000000000
       127        12  PRO       CG            -11.2631715787       -2.9842053424        0.8984869936  PROA      12             97.0800000000
       128        12  PRO       HG1           -11.9446408563       -2.9030771240        1.7721636296  PROA      12              0.0000000000
       129        12  PRO       HG2           -10.8894611700       -4.0282598838        0.8307841612  PROA      12              0.0000000000
       130        12  PRO       C             -12.3737831727       -0.1410396898       -0.5288226992  PROA      12             98.6200000000
       131        12  PRO       O             -12.3209169674        0.4928506495        0.5276644999  PROA      12             98.6000000000
       132        13  GLY       N             -13.1736598112        0.2069896723       -1.4420509983  PROA      13             98.3800000000
       133        13  GLY       HN            -13.1135577918       -0.1934417629       -2.3523026636  PROA      13              0.0000000000
       134        13  GLY       CA            -14.2315942415        1.1919084278       -1.2778810067  PROA      13             98.3900000000
       135        13  GLY       HA1           -14.6837821581        1.3548803656       -2.2449674315  PROA      13              0.0000000000
       136        13  GLY       HA2           -13.7797912361        2.1049229926       -0.9193166941  PROA      13              0.0000000000
       137        13  GLY       C             -15.3053690124        0.7560178205       -0.2990265130  PROA      13             98.6100000000
       138        13  GLY       O             -15.3743469501       -0.4168234855        0.0744842835  PROA      13             98.6000000000
       139        14  ASP       N             -16.0756106664        1.4364074728        0.1555103013  PROA      14             98.3700000000
       140        14  ASP       HN            -15.9975676589        2.4027395785       -0.0512863751  PROA      14              0.0000000000
       141        14  ASP       CA            -17.2183039332        1.1819847927        1.0260659848  PROA      14             98.3500000000
       142        14  ASP       HA            -16.8934982307        0.5299943150        1.8232960154  PROA      14              0.0000000000
       143        14  ASP       CB            -17.7594876111        2.4937680511        1.5987237444  PROA      14             98.1100000000
       144        14  ASP       HB1           -18.7279009391        2.2927987676        2.1041461175  PROA      14              0.0000000000
       145        14  ASP       HB2           -17.9244645002        3.2088621189        0.7650044259  PROA      14              0.0000000000
       146        14  ASP       CG            -16.8187819302        3.1362898649        2.6026413410  PROA      14             96.2500000000
       147        14  ASP       OD1           -16.0138818846        2.4159455025        3.2319289668  PROA      14             95.3400000000
       148        14  ASP       OD2           -16.8836718195        4.3732572959        2.7668816440  PROA      14             94.8400000000
       149        14  ASP       C             -18.3238246447        0.4387187845        0.2796762760  PROA      14             98.5500000000
       150        14  ASP       O             -18.5093088506        0.6367147730       -0.9228095650  PROA      14             98.4800000000
       151        15  PRO       N             -18.7598315610       -0.7913200237        0.8619481190  PROA      15             98.1400000000
       152        15  PRO       CD            -18.3603131972       -1.2422530593        2.1070394709  PROA      15             96.4100000000
       153        15  PRO       HD1           -18.7130511128       -0.5437647711        2.8946949781  PROA      15              0.0000000000
       154        15  PRO       HD2           -17.2538319342       -1.3266445803        2.1429338916  PROA      15              0.0000000000
       155        15  PRO       CA            -19.8184206466       -1.5677025925        0.2121333341  PROA      15             97.8900000000
       156        15  PRO       HA            -19.4837595692       -1.9309421749       -0.7462900125  PROA      15              0.0000000000
       157        15  PRO       CB            -20.1330732803       -2.6606854897        1.2357461059  PROA      15             97.6600000000
       158        15  PRO       HB1           -20.1621245100       -3.6592792660        0.7499059581  PROA      15              0.0000000000
       159        15  PRO       HB2           -21.1117044519       -2.4715455080        1.7262369320  PROA      15              0.0000000000
       160        15  PRO       CG            -19.0183547445       -2.5862396265        2.2293563913  PROA      15             96.4100000000
       161        15  PRO       HG1           -19.4190067337       -2.7184958902        3.2571121159  PROA      15              0.0000000000
       162        15  PRO       HG2           -18.2777286040       -3.3892422605        2.0269823446  PROA      15              0.0000000000
       163        15  PRO       C             -21.0608451154       -0.7321966276       -0.0913089536  PROA      15             98.0100000000
       164        15  PRO       OT1           -21.0489636435        0.4850998691        0.2337265366  PROA      15              0.0000000000
       165        15  PRO       OT2           -22.0348951735       -1.3024537161       -0.6513387184  PROA      15              0.0000000000
