* GENERATED BY CHARMM-GUI (HTTP://WWW.CHARMM-GUI.ORG) V3.7 ON JUN, 17. 2026. JOB
* READ PDB, MANIPULATE STRUCTURE IF NEEDED, AND GENERATE TOPOLOGY FILE
*  DATE:     6/17/26     23:24:17      CREATED BY USER: charmm-gui
*
       165  EXT
         1         1  GLY       N              -0.6860000000        4.6370000000       20.1330000000  PROA      1              97.3000000000
         2         1  GLY       HT1            -1.1569400398        5.2923829611       20.7889639116  PROA      1               0.0000000000
         3         1  GLY       HT2            -0.1831753584        5.1797418140       19.4021112676  PROA      1               0.0000000000
         4         1  GLY       HT3            -0.0061670687        4.0503136276       20.6576197881  PROA      1               0.0000000000
         5         1  GLY       CA             -1.6800000000        3.7820000000       19.5040000000  PROA      1              97.8100000000
         6         1  GLY       HA1            -2.4627895102        4.4201711013       19.1215347022  PROA      1               0.0000000000
         7         1  GLY       HA2            -2.0700474955        3.1223863816       20.2649693170  PROA      1               0.0000000000
         8         1  GLY       C              -1.1190000000        2.9500000000       18.3670000000  PROA      1              98.1200000000
         9         1  GLY       O               0.0160000000        3.1650000000       17.9350000000  PROA      1              97.7400000000
        10         2  PRO       N              -1.8880000000        1.9850000000       17.7330000000  PROA      2              98.3400000000
        11         2  PRO       CD             -2.9930000000        1.4860000000       18.3640000000  PROA      2              94.7000000000
        12         2  PRO       HD1            -3.8248150844        2.2187110711       18.2977797451  PROA      2               0.0000000000
        13         2  PRO       HD2            -2.7546426519        1.2788978588       19.4286414646  PROA      2               0.0000000000
        14         2  PRO       CA             -1.4340000000        1.2390000000       16.5570000000  PROA      2              98.3900000000
        15         2  PRO       HA             -0.4499754057        0.8323410265       16.7267995210  PROA      2               0.0000000000
        16         2  PRO       CB             -2.5330000000        0.1920000000       16.3570000000  PROA      2              98.2000000000
        17         2  PRO       HB1            -2.0931973020       -0.8142462574       16.1893305692  PROA      2               0.0000000000
        18         2  PRO       HB2            -3.1731200685        0.4533735037       15.4875167217  PROA      2               0.0000000000
        19         2  PRO       CG             -3.3230000000        0.2210000000       17.6250000000  PROA      2              96.7700000000
        20         2  PRO       HG1            -4.4092629258        0.1912003796       17.3938324302  PROA      2               0.0000000000
        21         2  PRO       HG2            -3.0651178011       -0.6600436587       18.2507415198  PROA      2               0.0000000000
        22         2  PRO       C              -1.2900000000        2.1200000000       15.3180000000  PROA      2              98.5000000000
        23         2  PRO       O              -1.9040000000        3.1870000000       15.2400000000  PROA      2              98.3900000000
        24         3  GLY       N              -0.3910000000        1.6590000000       14.4510000000  PROA      3              98.2000000000
        25         3  GLY       HN              0.1607469996        0.8456999323       14.6186949909  PROA      3               0.0000000000
        26         3  GLY       CA             -0.1820000000        2.3540000000       13.1910000000  PROA      3              98.1800000000
        27         3  GLY       HA1             0.6579089986        1.8912963458       12.6942633291  PROA      3               0.0000000000
        28         3  GLY       HA2             0.0411495829        3.3862834326       13.4165754779  PROA      3               0.0000000000
        29         3  GLY       C              -1.3880000000        2.3000000000       12.2730000000  PROA      3              98.4100000000
        30         3  GLY       O              -2.3320000000        1.5480000000       12.5230000000  PROA      3              98.3000000000
        31         4  ASP       N              -1.2880000000        3.1410000000       11.3190000000  PROA      4              98.3200000000
        32         4  ASP       HN             -0.5738427815        3.8326428700       11.2487262056  PROA      4               0.0000000000
        33         4  ASP       CA             -2.2970000000        3.0720000000       10.2660000000  PROA      4              98.2900000000
        34         4  ASP       HA             -3.2704985737        3.0969616484       10.7327363147  PROA      4               0.0000000000
        35         4  ASP       CB             -2.1420000000        4.2450000000        9.2960000000  PROA      4              98.1000000000
        36         4  ASP       HB1            -2.7943176381        4.0708496905        8.4140535385  PROA      4               0.0000000000
        37         4  ASP       HB2            -1.0839030687        4.2983154301        8.9624366011  PROA      4               0.0000000000
        38         4  ASP       CG             -2.5180000000        5.5800000000        9.9150000000  PROA      4              96.0100000000
        39         4  ASP       OD1            -3.2600000000        5.5980000000       10.9210000000  PROA      4              95.1400000000
        40         4  ASP       OD2            -2.0710000000        6.6230000000        9.3910000000  PROA      4              95.1300000000
        41         4  ASP       C              -2.2090000000        1.7490000000        9.5070000000  PROA      4              98.4700000000
        42         4  ASP       O              -1.1190000000        1.2050000000        9.3220000000  PROA      4              98.3400000000
        43         5  PRO       N              -3.2280000000        1.2260000000        9.0800000000  PROA      5              98.2000000000
        44         5  PRO       CD             -4.4590000000        1.7380000000        9.2730000000  PROA      5              96.8300000000
        45         5  PRO       HD1            -4.5426198481        2.7172923731        8.7561356617  PROA      5               0.0000000000
        46         5  PRO       HD2            -4.6449786800        1.8665267399       10.3602200251  PROA      5               0.0000000000
        47         5  PRO       CA             -3.1440000000        0.0380000000        8.2280000000  PROA      5              98.2000000000
        48         5  PRO       HA             -2.6728393623       -0.7731244702        8.7595951721  PROA      5               0.0000000000
        49         5  PRO       CB             -4.6010000000       -0.2170000000        7.8330000000  PROA      5              98.0600000000
        50         5  PRO       HB1            -4.8877426940       -1.2697463267        8.0417415725  PROA      5               0.0000000000
        51         5  PRO       HB2            -4.7590140853       -0.0092959830        6.7532037992  PROA      5               0.0000000000
        52         5  PRO       CG             -5.3960000000        0.7270000000        8.6770000000  PROA      5              97.2000000000
        53         5  PRO       HG1            -6.1586736630        1.2404903296        8.0533400592  PROA      5               0.0000000000
        54         5  PRO       HG2            -5.9119990929        0.1672208682        9.4861275649  PROA      5               0.0000000000
        55         5  PRO       C              -2.2760000000        0.2600000000        6.9910000000  PROA      5              98.4200000000
        56         5  PRO       O              -2.1080000000        1.3980000000        6.5460000000  PROA      5              98.3600000000
        57         6  GLY       N              -1.6720000000       -0.9130000000        6.6630000000  PROA      6              98.3400000000
        58         6  GLY       HN             -1.7287623587       -1.7654955255        7.1739455211  PROA      6               0.0000000000
        59         6  GLY       CA             -0.8860000000       -0.8450000000        5.4410000000  PROA      6              98.2800000000
        60         6  GLY       HA1            -0.4069964000       -1.8030097504        5.3029319664  PROA      6               0.0000000000
        61         6  GLY       HA2            -0.1428233152       -0.0719868255        5.5691755044  PROA      6               0.0000000000
        62         6  GLY       C              -1.7190000000       -0.5290000000        4.2130000000  PROA      6              98.4800000000
        63         6  GLY       O              -2.9500000000       -0.5360000000        4.2720000000  PROA      6              98.3800000000
        64         7  PRO       N              -1.0780000000       -0.3600000000        3.2530000000  PROA      7              98.4700000000
        65         7  PRO       CD              0.4010000000       -0.3600000000        3.1200000000  PROA      7              97.6500000000
        66         7  PRO       HD1             0.8201493017       -1.3162816338        3.4969458164  PROA      7               0.0000000000
        67         7  PRO       HD2             0.8367195802        0.4928997910        3.6812122973  PROA      7               0.0000000000
        68         7  PRO       CA             -1.7720000000       -0.1880000000        1.9740000000  PROA      7              98.4600000000
        69         7  PRO       HA             -2.6030316013        0.4898952858        2.0852799450  PROA      7               0.0000000000
        70         7  PRO       CB             -0.6660000000        0.3040000000        1.0370000000  PROA      7              98.3700000000
        71         7  PRO       HB1            -0.6564037937        1.4137156389        0.9868785546  PROA      7               0.0000000000
        72         7  PRO       HB2            -0.8086117021       -0.1003745538        0.0121994495  PROA      7               0.0000000000
        73         7  PRO       CG              0.6020000000       -0.2110000000        1.6390000000  PROA      7              97.7900000000
        74         7  PRO       HG1             0.8597795808       -1.1949189074        1.1920692262  PROA      7               0.0000000000
        75         7  PRO       HG2             1.4309470688        0.5014905497        1.4402594181  PROA      7               0.0000000000
        76         7  PRO       C              -2.3870000000       -1.4860000000        1.4570000000  PROA      7              98.6300000000
        77         7  PRO       O              -1.9980000000       -2.5740000000        1.8910000000  PROA      7              98.6000000000
        78         8  GLY       N              -3.3170000000       -1.3370000000        0.5380000000  PROA      8              98.3100000000
        79         8  GLY       HN             -3.6329050185       -0.4473790471        0.2174474716  PROA      8               0.0000000000
        80         8  GLY       CA             -3.9290000000       -2.5160000000       -0.0540000000  PROA      8              98.2600000000
        81         8  GLY       HA1            -4.8248105057       -2.1999262790       -0.5677189134  PROA      8               0.0000000000
        82         8  GLY       HA2            -4.1791912212       -3.1953736608        0.7473376087  PROA      8               0.0000000000
        83         8  GLY       C              -3.0220000000       -3.2290000000       -1.0390000000  PROA      8              98.5300000000
        84         8  GLY       O              -1.9580000000       -2.7160000000       -1.3940000000  PROA      8              98.4700000000
        85         9  ASP       N              -3.4820000000       -4.3850000000       -1.4360000000  PROA      9              98.5400000000
        86         9  ASP       HN             -4.3139815407       -4.7827855962       -1.0573857383  PROA      9               0.0000000000
        87         9  ASP       CA             -2.8040000000       -5.1700000000       -2.4630000000  PROA      9              98.5200000000
        88         9  ASP       HA             -1.7595305397       -5.2382135487       -2.1973034268  PROA      9               0.0000000000
        89         9  ASP       CB             -3.4190000000       -6.5670000000       -2.5650000000  PROA      9              98.4000000000
        90         9  ASP       HB1            -3.0246946958       -7.0678586880       -3.4745813251  PROA      9               0.0000000000
        91         9  ASP       HB2            -4.5219653570       -6.4688054670       -2.6515998852  PROA      9               0.0000000000
        92         9  ASP       CG             -3.1080000000       -7.4410000000       -1.3630000000  PROA      9              97.3800000000
        93         9  ASP       OD1            -2.0940000000       -7.1930000000       -0.6740000000  PROA      9              96.7800000000
        94         9  ASP       OD2            -3.8820000000       -8.3870000000       -1.1030000000  PROA      9              96.0000000000
        95         9  ASP       C              -2.8650000000       -4.4690000000       -3.8190000000  PROA      9              98.6800000000
        96         9  ASP       O              -3.8310000000       -3.7640000000       -4.1160000000  PROA      9              98.6300000000
        97        10  PRO       N              -1.9240000000       -4.7540000000       -4.5490000000  PROA      10             98.5800000000
        98        10  PRO       CD             -0.8760000000       -5.5350000000       -4.2900000000  PROA      10             97.4700000000
        99        10  PRO       HD1            -1.2092024986       -6.5907931202       -4.2033532201  PROA      10              0.0000000000
       100        10  PRO       HD2            -0.3936688134       -5.2113121774       -3.3435257520  PROA      10              0.0000000000
       101        10  PRO       CA             -2.0090000000       -4.2050000000       -5.9040000000  PROA      10             98.5500000000
       102        10  PRO       HA             -2.1408170208       -3.1354843084       -5.8684738212  PROA      10              0.0000000000
       103        10  PRO       CB             -0.7030000000       -4.6670000000       -6.5550000000  PROA      10             98.4800000000
       104        10  PRO       HB1            -0.1283349774       -3.7998072327       -6.9446275222  PROA      10              0.0000000000
       105        10  PRO       HB2            -0.9063004529       -5.3682606631       -7.3922426161  PROA      10              0.0000000000
       106        10  PRO       CG              0.0480000000       -5.3520000000       -5.4600000000  PROA      10             97.8500000000
       107        10  PRO       HG1             0.4112895773       -6.3409440504       -5.8125688218  PROA      10              0.0000000000
       108        10  PRO       HG2             0.9217069998       -4.7355958496       -5.1583770106  PROA      10              0.0000000000
       109        10  PRO       C              -3.2180000000       -4.7280000000       -6.6780000000  PROA      10             98.6900000000
       110        10  PRO       O              -3.7610000000       -5.7830000000       -6.3420000000  PROA      10             98.6600000000
       111        11  GLY       N              -3.7480000000       -3.8450000000       -7.6040000000  PROA      11             98.2700000000
       112        11  GLY       HN             -3.4067008733       -2.9177494430       -7.7369304683  PROA      11              0.0000000000
       113        11  GLY       CA             -4.8610000000       -4.2750000000       -8.4350000000  PROA      11             98.2200000000
       114        11  GLY       HA1            -5.1473950503       -3.4419293964       -9.0597064394  PROA      11              0.0000000000
       115        11  GLY       HA2            -5.6756755116       -4.5470182200       -7.7803269598  PROA      11              0.0000000000
       116        11  GLY       C              -4.5230000000       -5.4600000000       -9.3190000000  PROA      11             98.4400000000
       117        11  GLY       O              -3.3640000000       -5.8750000000       -9.3940000000  PROA      11             98.3600000000
       118        12  PRO       N              -5.3900000000       -6.0040000000      -10.0280000000  PROA      12             98.4100000000
       119        12  PRO       CD             -6.6610000000       -5.5580000000       -9.9400000000  PROA      12             96.4000000000
       120        12  PRO       HD1            -6.7184891306       -4.5228297170      -10.3382467087  PROA      12              0.0000000000
       121        12  PRO       HD2            -6.9860649071       -5.5734562952       -8.8781257771  PROA      12              0.0000000000
       122        12  PRO       CA             -5.1700000000       -7.0690000000      -11.0100000000  PROA      12             98.4100000000
       123        12  PRO       HA             -4.5133988592       -7.8229746305      -10.6063417863  PROA      12              0.0000000000
       124        12  PRO       CB             -6.5870000000       -7.5560000000      -11.3240000000  PROA      12             98.2800000000
       125        12  PRO       HB1            -6.7835838085       -8.5358777785      -10.8389521672  PROA      12              0.0000000000
       126        12  PRO       HB2            -6.7334743391       -7.6622413043      -12.4200543362  PROA      12              0.0000000000
       127        12  PRO       CG             -7.4860000000       -6.5000000000      -10.7690000000  PROA      12             97.0800000000
       128        12  PRO       HG1            -7.9733516902       -5.9447817147      -11.5987674458  PROA      12              0.0000000000
       129        12  PRO       HG2            -8.2729506848       -6.9670364520      -10.1390169838  PROA      12              0.0000000000
       130        12  PRO       C              -4.4720000000       -6.5710000000      -12.2740000000  PROA      12             98.6200000000
       131        12  PRO       O              -4.5180000000       -5.3770000000      -12.5790000000  PROA      12             98.6000000000
       132        13  GLY       N              -3.7740000000       -7.3760000000      -12.9520000000  PROA      13             98.3800000000
       133        13  GLY       HN             -3.6015749166       -8.3012935143      -12.6254771306  PROA      13              0.0000000000
       134        13  GLY       CA             -3.1660000000       -7.0590000000      -14.2350000000  PROA      13             98.3900000000
       135        13  GLY       HA1            -2.5528648053       -7.8989726032      -14.5262064152  PROA      13              0.0000000000
       136        13  GLY       HA2            -2.5537699725       -6.1793904385      -14.1017658817  PROA      13              0.0000000000
       137        13  GLY       C              -4.1840000000       -6.7900000000      -15.3270000000  PROA      13             98.6100000000
       138        13  GLY       O              -5.3690000000       -7.0900000000      -15.1670000000  PROA      13             98.6000000000
       139        14  ASP       N              -3.9550000000       -6.3040000000      -16.3140000000  PROA      14             98.3700000000
       140        14  ASP       HN             -3.0314690549       -5.9682313057      -16.4443966726  PROA      14              0.0000000000
       141        14  ASP       CA             -4.7710000000       -6.0530000000      -17.4970000000  PROA      14             98.3500000000
       142        14  ASP       HA             -5.7112690865       -5.6326517588      -17.1723964722  PROA      14              0.0000000000
       143        14  ASP       CB             -4.0570000000       -5.0890000000      -18.4470000000  PROA      14             98.1100000000
       144        14  ASP       HB1            -4.6093123845       -5.0586731360      -19.4101698257  PROA      14              0.0000000000
       145        14  ASP       HB2            -3.0264080454       -5.4611155690      -18.6288654123  PROA      14              0.0000000000
       146        14  ASP       CG             -3.9670000000       -3.6750000000      -17.9010000000  PROA      14             96.2500000000
       147        14  ASP       OD1            -4.8180000000       -3.2860000000      -17.0720000000  PROA      14             95.3400000000
       148        14  ASP       OD2            -3.0380000000       -2.9430000000      -18.3040000000  PROA      14             94.8400000000
       149        14  ASP       C              -5.1040000000       -7.3550000000      -18.2220000000  PROA      14             98.5500000000
       150        14  ASP       O              -4.3030000000       -8.2920000000      -18.2250000000  PROA      14             98.4800000000
       151        15  PRO       N              -6.4920000000       -7.6200000000      -18.4350000000  PROA      15             98.1400000000
       152        15  PRO       CD             -7.5020000000       -6.7120000000      -18.1730000000  PROA      15             96.4100000000
       153        15  PRO       HD1            -7.3931081279       -5.8234067289      -18.8297006034  PROA      15              0.0000000000
       154        15  PRO       HD2            -7.4669027749       -6.4024777491      -17.1073193327  PROA      15              0.0000000000
       155        15  PRO       CA             -6.9000000000       -8.8460000000      -19.1250000000  PROA      15             97.8900000000
       156        15  PRO       HA             -6.6394242997       -9.7121001436      -18.5380696908  PROA      15              0.0000000000
       157        15  PRO       CB             -8.4020000000       -8.6470000000      -19.3390000000  PROA      15             97.6600000000
       158        15  PRO       HB1            -8.9679560378       -9.5500502666      -19.0255225169  PROA      15              0.0000000000
       159        15  PRO       HB2            -8.6236781657       -8.4373106127      -20.4071588388  PROA      15              0.0000000000
       160        15  PRO       CG             -8.7580000000       -7.4740000000      -18.4830000000  PROA      15             96.4100000000
       161        15  PRO       HG1            -9.4749785711       -6.8175994937      -19.0209364916  PROA      15              0.0000000000
       162        15  PRO       HG2            -9.2299658453       -7.8239035187      -17.5400729967  PROA      15              0.0000000000
       163        15  PRO       C              -6.1810000000       -9.0390000000      -20.4590000000  PROA      15             98.0100000000
       164        15  PRO       OT1            -5.3476052767       -8.1631744163      -20.8139405334  PROA      15              0.0000000000
       165        15  PRO       OT2            -6.4575808237      -10.0642902327      -21.1371467296  PROA      15              0.0000000000
