       110  EXT
         1         1  GLY       N              -9.0870000000       -8.5680000000      -25.1090000000  PROA      1              97.4300000000
         2         1  GLY       CA             -9.6090000000       -7.7840000000      -24.0010000000  PROA      1              97.9000000000
         3         1  GLY       C              -8.5410000000       -6.9810000000      -23.2830000000  PROA      1              98.0700000000
         4         1  GLY       O              -7.3460000000       -7.2030000000      -23.4910000000  PROA      1              97.6300000000
         5         2  PRO       N              -8.8360000000       -5.9230000000      -22.4440000000  PROA      2              98.2600000000
         6         2  PRO       CA             -7.8540000000       -5.1550000000      -21.6760000000  PROA      2              98.3400000000
         7         2  PRO       C              -7.1640000000       -5.9890000000      -20.6000000000  PROA      2              98.4500000000
         8         2  PRO       O              -7.6850000000       -7.0300000000      -20.1910000000  PROA      2              98.3300000000
         9         2  PRO       CB             -8.6920000000       -4.0380000000      -21.0480000000  PROA      2              98.1400000000
        10         2  PRO       CG             -9.9760000000       -4.0490000000      -21.8120000000  PROA      2              96.7600000000
        11         2  PRO       CD            -10.0630000000       -5.3360000000      -22.5810000000  PROA      2              94.0200000000
        12         3  GLY       N              -5.8420000000       -5.5950000000      -20.3240000000  PROA      3              98.2600000000
        13         3  GLY       CA             -5.1030000000       -6.2470000000      -19.2550000000  PROA      3              98.2600000000
        14         3  GLY       C              -5.7660000000       -6.1040000000      -17.8980000000  PROA      3              98.4400000000
        15         3  GLY       O              -6.6750000000       -5.2890000000      -17.7280000000  PROA      3              98.3400000000
        16         4  ASN       N              -5.3150000000       -6.9230000000      -17.0020000000  PROA      4              98.0400000000
        17         4  ASN       CA             -5.7590000000       -6.7970000000      -15.6180000000  PROA      4              97.9900000000
        18         4  ASN       C              -5.2970000000       -5.4800000000      -14.9990000000  PROA      4              98.1800000000
        19         4  ASN       O              -4.2230000000       -4.9760000000      -15.3320000000  PROA      4              97.9800000000
        20         4  ASN       CB             -5.2600000000       -7.9790000000      -14.7840000000  PROA      4              97.6100000000
        21         4  ASN       CG             -5.9590000000       -9.2780000000      -15.1350000000  PROA      4              92.9500000000
        22         4  ASN       OD1            -7.0470000000       -9.2740000000      -15.7170000000  PROA      4              87.4400000000
        23         4  ASN       ND2            -5.3390000000      -10.3980000000      -14.7850000000  PROA      4              89.9800000000
        24         5  PRO       N              -6.1020000000       -4.8160000000      -14.0180000000  PROA      5              98.2100000000
        25         5  PRO       CA             -5.6320000000       -3.6300000000      -13.2980000000  PROA      5              98.1900000000
        26         5  PRO       C              -4.3340000000       -3.8800000000      -12.5340000000  PROA      5              98.3800000000
        27         5  PRO       O              -4.0400000000       -5.0200000000      -12.1650000000  PROA      5              98.3100000000
        28         5  PRO       CB             -6.7830000000       -3.3240000000      -12.3350000000  PROA      5              98.0600000000
        29         5  PRO       CG             -7.9720000000       -4.0060000000      -12.9310000000  PROA      5              96.8700000000
        30         5  PRO       CD             -7.4910000000       -5.1440000000      -13.7850000000  PROA      5              96.0700000000
        31         6  GLY       N              -3.5880000000       -2.8550000000      -12.4820000000  PROA      6              98.3300000000
        32         6  GLY       CA             -2.3800000000       -2.9380000000      -11.6770000000  PROA      6              98.3000000000
        33         6  GLY       C              -2.6540000000       -3.2700000000      -10.2230000000  PROA      6              98.5000000000
        34         6  GLY       O              -3.8030000000       -3.2340000000       -9.7780000000  PROA      6              98.4200000000
        35         7  SER       N              -1.5930000000       -3.4650000000       -9.6420000000  PROA      7              98.3700000000
        36         7  SER       CA             -1.6760000000       -3.6720000000       -8.1990000000  PROA      7              98.3300000000
        37         7  SER       C              -2.0190000000       -2.3750000000       -7.4740000000  PROA      7              98.5300000000
        38         7  SER       O              -1.7590000000       -1.2840000000       -7.9850000000  PROA      7              98.4600000000
        39         7  SER       CB             -0.3600000000       -4.2340000000       -7.6610000000  PROA      7              98.0800000000
        40         7  SER       OG             -0.0410000000       -5.4610000000       -8.2950000000  PROA      7              92.4100000000
        41         8  GLY       N              -2.7410000000       -2.5790000000       -6.2960000000  PROA      8              98.2300000000
        42         8  GLY       CA             -3.0220000000       -1.4040000000       -5.4860000000  PROA      8              98.1300000000
        43         8  GLY       C              -1.7830000000       -0.8180000000       -4.8350000000  PROA      8              98.3100000000
        44         8  GLY       O              -0.6930000000       -1.3840000000       -4.9400000000  PROA      8              98.1400000000
        45         9  PRO       N              -1.9280000000        0.1590000000       -4.2400000000  PROA      9              98.5900000000
        46         9  PRO       CA             -0.8430000000        0.8020000000       -3.4960000000  PROA      9              98.6000000000
        47         9  PRO       C              -0.4110000000        0.0000000000       -2.2710000000  PROA      9              98.7300000000
        48         9  PRO       O              -1.1670000000       -0.8460000000       -1.7840000000  PROA      9              98.7000000000
        49         9  PRO       CB             -1.4470000000        2.1470000000       -3.0840000000  PROA      9              98.5400000000
        50         9  PRO       CG             -2.9170000000        1.8930000000       -2.9890000000  PROA      9              98.0300000000
        51         9  PRO       CD             -3.2790000000        0.8170000000       -3.9730000000  PROA      9              97.7300000000
        52        10  GLY       N               0.7850000000        0.2890000000       -1.8870000000  PROA      10             98.4400000000
        53        10  GLY       CA              1.2960000000       -0.3800000000       -0.7010000000  PROA      10             98.4000000000
        54        10  GLY       C               0.6350000000        0.0890000000        0.5810000000  PROA      10             98.5900000000
        55        10  GLY       O              -0.0990000000        1.0790000000        0.5800000000  PROA      10             98.5300000000
        56        11  ASP       N               0.8300000000       -0.6400000000        1.6300000000  PROA      11             98.4300000000
        57        11  ASP       CA              0.3660000000       -0.2810000000        2.9660000000  PROA      11             98.4300000000
        58        11  ASP       C               1.0270000000        1.0080000000        3.4490000000  PROA      11             98.6100000000
        59        11  ASP       O               2.1820000000        1.2810000000        3.1190000000  PROA      11             98.5500000000
        60        11  ASP       CB              0.6440000000       -1.4170000000        3.9540000000  PROA      11             98.2500000000
        61        11  ASP       CG             -0.1910000000       -2.6560000000        3.6830000000  PROA      11             96.4000000000
        62        11  ASP       OD1            -1.3040000000       -2.5320000000        3.1280000000  PROA      11             95.0100000000
        63        11  ASP       OD2             0.2680000000       -3.7660000000        4.0290000000  PROA      11             95.0200000000
        64        12  PRO       N               0.2960000000        1.8050000000        4.3890000000  PROA      12             98.6000000000
        65        12  PRO       CA              0.9560000000        2.9690000000        4.9840000000  PROA      12             98.5800000000
        66        12  PRO       C               2.1600000000        2.5900000000        5.8430000000  PROA      12             98.6900000000
        67        12  PRO       O               2.2360000000        1.4660000000        6.3460000000  PROA      12             98.6500000000
        68        12  PRO       CB             -0.1460000000        3.6010000000        5.8380000000  PROA      12             98.5300000000
        69        12  PRO       CG             -1.3780000000        2.8200000000        5.5110000000  PROA      12             97.8800000000
        70        12  PRO       CD             -0.9790000000        1.6120000000        4.7130000000  PROA      12             97.2800000000
        71        13  GLY       N               3.1300000000        3.5240000000        5.8470000000  PROA      13             98.3900000000
        72        13  GLY       CA              4.2900000000        3.2970000000        6.6930000000  PROA      13             98.3700000000
        73        13  GLY       C               3.9380000000        3.1450000000        8.1610000000  PROA      13             98.5600000000
        74        13  GLY       O               2.8160000000        3.4530000000        8.5700000000  PROA      13             98.5100000000
        75        14  SER       N               4.9070000000        2.8030000000        8.8670000000  PROA      14             98.4300000000
        76        14  SER       CA              4.7440000000        2.7500000000       10.3170000000  PROA      14             98.3800000000
        77        14  SER       C               4.6610000000        4.1510000000       10.9150000000  PROA      14             98.5600000000
        78        14  SER       O               5.1820000000        5.1090000000       10.3400000000  PROA      14             98.5100000000
        79        14  SER       CB              5.8990000000        1.9800000000       10.9590000000  PROA      14             98.2000000000
        80        14  SER       OG              5.9580000000        0.6550000000       10.4610000000  PROA      14             93.4000000000
        81        15  GLY       N               3.7460000000        4.3790000000       11.9940000000  PROA      15             98.0300000000
        82        15  GLY       CA              3.6800000000        5.6570000000       12.6840000000  PROA      15             97.9800000000
        83        15  GLY       C               5.0000000000        6.0670000000       13.3090000000  PROA      15             98.2100000000
        84        15  GLY       O               5.9460000000        5.2780000000       13.3470000000  PROA      15             98.1000000000
        85        16  PRO       N               5.2520000000        7.1430000000       13.7030000000  PROA      16             98.4900000000
        86        16  PRO       CA              6.4380000000        7.6140000000       14.4220000000  PROA      16             98.4800000000
        87        16  PRO       C               6.5970000000        6.9580000000       15.7920000000  PROA      16             98.6300000000
        88        16  PRO       O               5.6230000000        6.4480000000       16.3530000000  PROA      16             98.5800000000
        89        16  PRO       CB              6.1910000000        9.1180000000       14.5620000000  PROA      16             98.4300000000
        90        16  PRO       CG              4.7050000000        9.2570000000       14.6280000000  PROA      16             97.8400000000
        91        16  PRO       CD              4.0870000000        8.1830000000       13.7780000000  PROA      16             97.4100000000
        92        17  GLY       N               7.8550000000        6.7590000000       16.3150000000  PROA      17             98.3300000000
        93        17  GLY       CA              8.1600000000        6.2460000000       17.6410000000  PROA      17             98.3200000000
        94        17  GLY       C               7.5840000000        7.0960000000       18.7570000000  PROA      17             98.5000000000
        95        17  GLY       O               7.2230000000        8.2550000000       18.5390000000  PROA      17             98.4700000000
        96        18  ASN       N               7.2990000000        6.6120000000       19.8050000000  PROA      18             98.3600000000
        97        18  ASN       CA              6.8700000000        7.3080000000       21.0140000000  PROA      18             98.2600000000
        98        18  ASN       C               7.9310000000        8.2900000000       21.5030000000  PROA      18             98.4000000000
        99        18  ASN       O               9.1290000000        8.0190000000       21.3970000000  PROA      18             98.2400000000
       100        18  ASN       CB              6.5260000000        6.3050000000       22.1170000000  PROA      18             97.9600000000
       101        18  ASN       CG              5.2030000000        5.6050000000       21.8780000000  PROA      18             94.0900000000
       102        18  ASN       OD1             4.4100000000        6.0220000000       21.0290000000  PROA      18             89.7700000000
       103        18  ASN       ND2             4.9550000000        4.5340000000       22.6230000000  PROA      18             91.4400000000
       104        19  PRO       N               7.4490000000        9.7640000000       21.7340000000  PROA      19             98.1600000000
       105        19  PRO       CA              8.3700000000       10.7790000000       22.2510000000  PROA      19             97.9500000000
       106        19  PRO       C               9.0110000000       10.3740000000       23.5760000000  PROA      19             97.9500000000
       107        19  PRO       O               8.4920000000        9.5010000000       24.2760000000  PROA      19             97.4900000000
       108        19  PRO       CB              7.4760000000       12.0080000000       22.4300000000  PROA      19             97.7500000000
       109        19  PRO       CG              6.0800000000       11.4830000000       22.3270000000  PROA      19             96.2600000000
       110        19  PRO       CD              6.1360000000       10.0820000000       21.7900000000  PROA      19             95.6200000000
